FOO
141312
    1MOL0     O    1   2.329   5.802   7.017 -0.6209 -0.6245 -0.3836
    1MOL0     C    2   2.239   5.725   7.050  0.1252  1.5425  0.0862
    1MOL0     O    3   2.259   5.582   7.062 -0.7995  0.4145  0.5520
    1MOL0     C    4   2.368   5.525   6.997  1.2869  0.5122 -0.3397
    1MOL0     C    5   2.372   5.520   6.860  0.2316  0.6597 -0.4362
    1MOL0     C    6   2.496   5.490   6.798  0.8823  0.3339  0.6340
    1MOL0     C    7   2.609   5.494   6.866 -0.1857 -0.1942 -0.0392
    1MOL0     O    8   2.725   5.448   6.804  0.3663  0.0818 -0.8739
    1MOL0     C    9   2.827   5.543   6.755 -0.2249  0.2357 -0.6349
    1MOL0     C   10   2.889   5.656   6.853  0.7179  0.5774  0.4127
    1MOL0     C   11   2.871   5.798   6.797  0.2420  0.8957 -0.2175
    1MOL0     C   12   2.717   5.827   6.778  0.5654  1.2812  0.9434
    1MOL0     C   13   2.674   5.965   6.796  0.1850 -0.3139  0.2483
    1MOL0     C   14   2.543   5.988   6.718 -0.2770 -0.1579  0.2181
    1MOL0     C   15   2.478   6.115   6.771 -0.5270  0.2340  0.5527
    1MOL0     C   16   2.416   6.087   6.900  0.3757  0.2626  0.1233
    1MOL0     N   17   2.420   6.214   6.983  0.1809  0.7586  0.0222
    1MOL0     C   18   2.531   6.287   7.013 -0.0355 -0.5041  0.6408
    1MOL0     C   19   2.494   6.376   7.109 -0.8060  0.7180  1.2440
    1MOL0     C   20   2.576   6.497   7.153  0.0960 -0.0634  0.4062
    1MOL0     C   21   2.580   6.512   7.301  0.8192  0.2884  0.0294
    1MOL0     C   22   2.645   6.380   7.359 -0.2248  0.0268  0.2190
    1MOL0     C   23   2.798   6.360   7.322 -0.5880  0.1970  0.2740
    1MOL0     O   24   2.863   6.451   7.409 -0.4374  0.0801 -0.0730
    1MOL0     C   25   2.955   6.535   7.357  0.7262 -0.3468  0.0597
    1MOL0     C   26   3.076   6.492   7.300 -0.3707  0.3930 -0.5231
    1MOL0     C   27   3.165   6.578   7.235 -0.5653 -0.1592 -0.1857
    1MOL0     C   28   3.284   6.515   7.178  0.2622 -0.4544 -0.3929
    1MOL0     C   29   3.142   6.714   7.229 -0.0469  0.2164  0.1077
    1MOL0     C   30   3.236   6.807   7.166  1.1522 -0.4174  0.4899
    1MOL0     O   31   3.213   6.944   7.204 -0.5695  0.3357 -0.0409
    1MOL0     C   32   3.280   7.040   7.135  0.3981 -0.3199 -0.0566
    1MOL0     C   33   3.359   7.131   7.209 -0.5480  0.2668  0.8582
    1MOL0     C   34   3.427   7.230   7.140 -0.1602  0.9109 -0.3825
    1MOL0     C   35   3.428   7.237   6.999 -0.2157 -0.3036 -0.1605
    1MOL0     O   36   3.501   7.327   6.927 -0.3186  0.3291 -0.8014
    1MOL0     C   37   3.531   7.453   6.966 -0.2891 -0.6105 -0.1610
    1MOL0     C   38   3.598   7.512   6.844  0.4275 -0.0046  0.5143
    1MOL0     C   39   3.592   7.665   6.866 -0.0737 -0.7058  0.3661
    1MOL0     C   40   3.683   7.742   6.757  0.0020  0.4161 -0.6550
    1MOL0     C   41   3.650   7.897   6.752  0.8443  0.0960  0.4029
    1MOL0     C   42   3.526   7.907   6.663  0.4751 -0.5323  0.6457
    1MOL0     C   43   3.529   8.045   6.596  0.1670  0.2921  0.4181
    1MOL0     C   44   3.553   8.153   6.693  0.5854  1.0651  0.4728
    1MOL0    Cl   45   3.533   8.313   6.609 -0.7068  0.3408  0.1101
    1MOL0     C   46   3.339   7.152   6.928 -0.5916 -0.2519  0.4086
    1MOL0     C   47   3.267   7.045   7.001  0.1094 -0.9427  1.0258
    1MOL0     O   48   3.317   6.774   7.082  0.0190 -0.5862 -0.3008
    1MOL0     C   49   3.030   6.767   7.296 -0.6133  0.4244  0.6883
    1MOL0     C   50   2.939   6.678   7.355 -0.5543 -0.5709  0.0009
    1MOL0     N   51   2.361   6.344   7.144 -0.3132  0.4322 -0.4237
    1MOL0     N   52   2.320   6.239   7.083  0.2517 -0.6131  0.1026
    1MOL0     C   53   2.603   5.495   7.000 -0.5515 -0.3487 -0.3516
    1MOL0     C   54   2.483   5.509   7.073  0.7984  0.0520 -1.0570
    1MOL0     C   55   2.103   5.781   7.092 -0.3394 -0.3671  0.0432
    1MOL0     C   56   2.084   5.914   7.113  0.2426 -0.1673 -0.7397
    1MOL0     C   57   1.949   5.969   7.127 -0.2783  0.0920  0.2061
    1MOL0     C   58   1.834   5.888   7.116 -1.5834 -0.5395 -0.4454
    1MOL0     O   59   1.719   5.956   7.135  0.4466 -0.0330 -0.4118
    1MOL0     C   60   1.593   5.882   7.122  0.0852 -0.0764 -0.0100
    1MOL0     C   61   1.486   5.986   7.160 -0.3117 -0.3383 -0.5850
    1MOL0     C   62   1.356   5.926   7.135 -0.1100  0.2482 -1.2418
    1MOL0     C   63   1.237   6.012   7.189  0.0935 -0.1044 -0.5241
    1MOL0     C   64   1.114   5.948   7.155  0.6572  0.7406  0.2074
    1MOL0     C   65   0.999   5.909   7.125  0.1137 -0.3169  0.8225
    1MOL0     C   66   1.860   5.755   7.091  0.6135  0.3024  0.0927
    1MOL0     C   67   1.989   5.697   7.087 -1.2348 -0.3688 -0.3358
    1MOL0     C   68   2.000   5.551   7.052 -0.3253 -0.0937  0.1288
    1MOL0     H   69   2.276   5.539   6.814 -2.1431  0.2231  3.8279
    1MOL0     H   70   2.492   5.466   6.693 -0.4453  1.3338  0.4268
    1MOL0     H   71   2.781   5.603   6.676  0.3856  1.6201  0.0267
    1MOL0     H   72   2.910   5.491   6.707 -0.1211  1.9037 -2.4044
    1MOL0     H   73   2.866   5.646   6.960 -0.7963  0.4833  0.1100
    1MOL0     H   74   2.997   5.644   6.843  0.5089  0.4046 -2.3478
    1MOL0     H   75   2.926   5.874   6.853 -1.0043  1.0593  0.8106
    1MOL0     H   76   2.927   5.794   6.703  3.7286 -3.3231  1.6517
    1MOL0     H   77   2.679   5.793   6.681 -0.6802  0.2855  1.7451
    1MOL0     H   78   2.670   5.760   6.851 -1.7710  1.2956 -0.4405
    1MOL0     H   79   2.753   6.033   6.762  0.9462 -0.7214  1.1487
    1MOL0     H   80   2.664   5.976   6.905  2.1518 -3.6488  0.8980
    1MOL0     H   81   2.576   5.993   6.614 -1.0144 -0.8381 -0.0627
    1MOL0     H   82   2.472   5.905   6.715  2.5375 -2.9333  2.6479
    1MOL0     H   83   2.396   6.157   6.712 -1.1101 -2.4248 -0.6365
    1MOL0     H   84   2.562   6.185   6.784 -0.8432  0.9302 -0.9132
    1MOL0     H   85   2.311   6.062   6.883  0.5561 -0.1051 -0.4588
    1MOL0     H   86   2.462   6.015   6.968  0.6287  0.5757  0.2919
    1MOL0     H   87   2.628   6.293   6.965 -0.9098  2.2933 -1.0401
    1MOL0     H   88   2.513   6.569   7.101 -0.2191 -1.9125 -1.9731
    1MOL0     H   89   2.674   6.498   7.104  0.1984 -0.5125  0.5957
    1MOL0     H   90   2.631   6.605   7.329 -0.3651  1.6747 -2.0827
    1MOL0     H   91   2.476   6.522   7.335 -0.3239 -1.7781 -2.5016
    1MOL0     H   92   2.634   6.380   7.467 -0.3171 -0.2511  0.2110
    1MOL0     H   93   2.591   6.290   7.325  0.8933 -1.1374  1.4210
    1MOL0     H   94   2.833   6.261   7.351 -1.0001 -0.6441 -1.9112
    1MOL0     H   95   2.816   6.374   7.215  0.7723 -1.2987  0.2749
    1MOL0     H   96   3.101   6.388   7.312  0.4446  0.6252 -0.1465
    1MOL0     H   97   3.297   6.408   7.194 -0.6331 -1.0077 -2.8783
    1MOL0     H   98   3.374   6.567   7.211  0.7302  0.0100 -2.2895
    1MOL0     H   99   3.278   6.517   7.069 -1.9002  2.4419 -0.3326
    1MOL0     H  100   3.366   7.140   7.317  0.7493  1.1812  0.7210
    1MOL0     H  101   3.497   7.287   7.201 -2.0613 -0.4241  3.3818
    1MOL0     H  102   3.442   7.511   6.990  0.6590  0.4649  0.9373
    1MOL0     H  103   3.601   7.459   7.051  2.0804  3.6283 -2.0607
    1MOL0     H  104   3.703   7.488   6.824  0.4996 -0.1553  1.0607
    1MOL0     H  105   3.539   7.496   6.754 -3.2422  1.4281  2.4516
    1MOL0     H  106   3.630   7.688   6.966  0.2693 -2.1406  0.5817
    1MOL0     H  107   3.491   7.706   6.860  0.5918  0.8177 -1.5012
    1MOL0     H  108   3.671   7.700   6.657  1.1694  0.2913 -0.7472
    1MOL0     H  109   3.787   7.726   6.787 -0.2994 -0.0920  0.1606
    1MOL0     H  110   3.635   7.938   6.852 -0.7051  0.0387  0.2171
    1MOL0     H  111   3.736   7.948   6.707  0.5964  0.4898  0.3699
    1MOL0     H  112   3.437   7.905   6.726  0.3947  0.1158  0.5656
    1MOL0     H  113   3.518   7.828   6.587  0.5539 -1.7287  1.8522
    1MOL0     H  114   3.431   8.055   6.548  0.6074 -1.8237 -1.0324
    1MOL0     H  115   3.600   8.028   6.515 -1.4197 -3.6582 -0.4021
    1MOL0     H  116   3.647   8.137   6.747  0.6463 -1.3727 -0.2595
    1MOL0     H  117   3.479   8.151   6.774  0.6088 -0.6369  0.4810
    1MOL0     H  118   3.331   7.159   6.820  0.6722  0.6507  0.3450
    1MOL0     H  119   3.205   6.978   6.942  0.5011  0.3895 -1.0064
    1MOL0     H  120   3.014   6.872   7.317 -1.1658  0.7731 -1.3102
    1MOL0     H  121   2.856   6.727   7.405  0.3058  0.8799  0.0616
    1MOL0     H  122   2.695   5.486   7.057 -2.0318  1.8684  2.6425
    1MOL0     H  123   2.477   5.495   7.181  0.4300  0.5625 -1.0104
    1MOL0     H  124   2.173   5.976   7.114 -1.4656  2.4909 -1.4223
    1MOL0     H  125   1.937   6.076   7.140  0.7224  0.4476 -1.5431
    1MOL0     H  126   1.573   5.847   7.020 -0.2640 -2.0587  0.7041
    1MOL0     H  127   1.590   5.798   7.192  2.0653  1.8408  2.5797
    1MOL0     H  128   1.492   6.081   7.106  2.0048  0.8759  1.6004
    1MOL0     H  129   1.499   6.027   7.261 -0.0036  0.1313 -0.8130
    1MOL0     H  130   1.344   5.900   7.029 -1.3428 -2.5747 -0.5225
    1MOL0     H  131   1.351   5.837   7.198  1.0316 -0.2419 -1.8110
    1MOL0     H  132   1.231   6.119   7.166 -1.2063 -0.2923 -1.1903
    1MOL0     H  133   1.257   6.017   7.296 -1.8150 -4.8388  0.3098
    1MOL0     H  134   0.903   5.873   7.096 -0.6394  2.2202 -0.1067
    1MOL0     H  135   1.776   5.688   7.095  1.7288 -1.2683  6.0508
    1MOL0     H  136   2.055   5.513   7.139  0.9508  3.2608  0.9772
    1MOL0     H  137   1.904   5.503   7.036  0.9101 -2.6505 -0.0359
    1MOL0     H  138   2.059   5.530   6.962 -1.5397 -1.3396 -0.3920
    2MOL0     O  139   0.067   6.634   1.527 -0.2209  0.2169 -0.4176
    2MOL0     C  140   0.160   6.580   1.585  0.3887 -0.4297  0.4140
    2MOL0     O  141   0.184   6.587   1.722  0.7330  0.3039 -0.3217
    2MOL0     C  142   0.116   6.690   1.782  0.7099 -0.3674  0.4447
    2MOL0     C  143   0.017   6.671   1.876  0.8732  0.3757 -0.2696
    2MOL0     C  144  -0.056   6.776   1.926  0.0775 -0.2418  0.2866
    2MOL0     C  145  -0.026   6.911   1.891  0.3041  0.4188 -0.1035
    2MOL0     O  146  -0.096   7.012   1.950  0.1925  0.2518  0.6803
    2MOL0     C  147  -0.014   7.074   2.053  0.6878 -0.4466  0.7898
    2MOL0     C  148  -0.012   7.001   2.190  0.7571 -0.9256 -0.0929
    2MOL0     C  149  -0.135   6.993   2.273  0.5020 -1.2555  0.6289
    2MOL0     C  150  -0.163   7.137   2.325  0.4412 -0.2077 -0.8190
    2MOL0     C  151  -0.297   7.124   2.407 -0.9050  0.0136 -0.3133
    2MOL0     C  152  -0.343   7.258   2.451 -0.2378 -0.3980  0.5852
    2MOL0     C  153  -0.495   7.266   2.473 -0.5681  0.1250 -0.5777
    2MOL0     C  154  -0.541   7.408   2.527 -0.1700 -0.0276 -0.1031
    2MOL0     N  155  -0.684   7.389   2.592 -0.5980 -0.4201  0.3540
    2MOL0     C  156  -0.742   7.443   2.710 -0.0289  0.6130  0.2893
    2MOL0     C  157  -0.879   7.427   2.696 -0.8813 -0.0865 -0.3587
    2MOL0     C  158  -0.980   7.473   2.797 -0.3169  0.1787  0.9220
    2MOL0     C  159  -0.956   7.420   2.938 -0.3557  0.3242  0.1307
    2MOL0     C  160  -0.913   7.270   2.940  0.6554 -0.2114 -0.0815
    2MOL0     C  161  -1.022   7.177   2.883 -0.4915  0.3667  0.6406
    2MOL0     O  162  -0.991   7.039   2.910  0.2170  0.3852 -0.2927
    2MOL0     C  163  -0.908   6.976   2.816 -0.0833  0.6920 -0.1636
    2MOL0     C  164  -0.889   6.843   2.848 -0.1441 -1.0830  0.3476
    2MOL0     C  165  -0.788   6.762   2.784  0.6406 -0.2556  0.7421
    2MOL0     C  166  -0.750   6.631   2.846  0.2795 -0.3151 -0.0164
    2MOL0     C  167  -0.717   6.818   2.672  0.0104 -0.3262 -0.3968
    2MOL0     C  168  -0.623   6.745   2.581 -0.6970 -0.1718  0.2415
    2MOL0     O  169  -0.557   6.814   2.488  0.6263 -0.5177 -0.0375
    2MOL0     C  170  -0.446   6.765   2.438  0.6182  0.7775  0.3233
    2MOL0     C  171  -0.457   6.742   2.303 -0.0029 -0.3270 -0.3417
    2MOL0     C  172  -0.347   6.672   2.236  0.2996 -0.3939 -0.4481
    2MOL0     C  173  -0.224   6.656   2.304 -0.3358  0.5569  0.5420
    2MOL0     O  174  -0.117   6.602   2.234 -0.5007  0.2833 -0.5325
    2MOL0     C  175   0.012   6.615   2.299 -0.8124  0.4230  0.1112
    2MOL0     C  176   0.132   6.556   2.208  0.1485  0.7533 -0.4743
    2MOL0     C  177   0.265   6.612   2.253 -0.0787 -0.0180  0.1998
    2MOL0     C  178   0.336   6.662   2.124 -0.3909 -0.4229  0.2715
    2MOL0     C  179   0.470   6.715   2.164 -0.2652 -0.2921  1.1228
    2MOL0     C  180   0.570   6.608   2.215 -0.2413 -0.1345 -0.8278
    2MOL0     C  181   0.714   6.652   2.222  0.0650  0.3251  0.0660
    2MOL0     C  182   0.726   6.747   2.343 -0.2653 -0.2567 -0.0349
    2MOL0    Cl  183   0.650   6.906   2.329 -0.2084 -0.2400  0.0020
    2MOL0     C  184  -0.224   6.689   2.441  0.5304 -1.3910  0.4336
    2MOL0     C  185  -0.334   6.748   2.509  0.0672 -0.0666  0.2696
    2MOL0     O  186  -0.610   6.629   2.600  0.6131 -0.0892  0.4824
    2MOL0     C  187  -0.750   6.945   2.632 -0.9535  0.3685 -0.2682
    2MOL0     C  188  -0.850   7.019   2.696  0.1280  0.1909 -0.9191
    2MOL0     N  189  -0.902   7.351   2.581  0.7076  0.6016  0.7452
    2MOL0     N  190  -0.788   7.342   2.520 -0.3914 -0.3559 -0.3621
    2MOL0     C  191   0.090   6.932   1.813  0.4985 -0.7541  0.7222
    2MOL0     C  192   0.159   6.822   1.755 -0.0975  0.3843  0.3796
    2MOL0     C  193   0.237   6.478   1.524 -0.6077 -0.4609  0.4145
    2MOL0     C  194   0.316   6.389   1.606 -0.0171  0.4556  0.1689
    2MOL0     C  195   0.378   6.271   1.550  0.3403 -0.4807 -0.8121
    2MOL0     C  196   0.401   6.265   1.418  0.7145 -0.4573  0.7068
    2MOL0     O  197   0.470   6.157   1.376 -0.0060  0.1839  0.3158
    2MOL0     C  198   0.439   6.113   1.237 -0.2954 -0.0433 -0.0587
    2MOL0     C  199   0.502   5.985   1.190  0.4968  0.7815 -0.1940
    2MOL0     C  200   0.652   6.002   1.170  0.4294  0.3719  0.5301
    2MOL0     C  201   0.724   5.873   1.116  0.5519  0.0226  0.2298
    2MOL0     C  202   0.850   5.906   1.057 -0.1119  0.2115 -0.2214
    2MOL0     C  203   0.947   5.944   0.997 -0.2569  0.0321  0.3353
    2MOL0     C  204   0.351   6.368   1.336  0.0037 -0.0690 -0.3850
    2MOL0     C  205   0.261   6.467   1.381  0.4204 -0.2101  0.4348
    2MOL0     C  206   0.225   6.574   1.279 -0.9309 -0.2289  0.1090
    2MOL0     H  207  -0.023   6.575   1.907  2.1971  0.1863  0.9513
    2MOL0     H  208  -0.135   6.764   2.000 -0.6566 -0.4180 -0.5198
    2MOL0     H  209  -0.051   7.175   2.071 -0.3769 -0.6754  0.0141
    2MOL0     H  210   0.087   7.086   2.012  0.5119 -2.4732 -0.3759
    2MOL0     H  211   0.019   6.898   2.170  0.1009 -0.9055 -1.3391
    2MOL0     H  212   0.064   7.053   2.249 -0.7442  2.5855 -1.0117
    2MOL0     H  213  -0.218   6.961   2.210 -0.5355  2.1572  0.0556
    2MOL0     H  214  -0.124   6.920   2.353  1.9767  0.2506  1.8733
    2MOL0     H  215  -0.076   7.179   2.376 -0.3229 -0.0147  0.3826
    2MOL0     H  216  -0.180   7.204   2.240  2.2566  1.4494  0.0483
    2MOL0     H  217  -0.289   7.067   2.500 -2.4291  0.2826  0.0071
    2MOL0     H  218  -0.365   7.064   2.347  0.7418 -2.5400  0.1987
    2MOL0     H  219  -0.289   7.294   2.539 -0.5197 -0.9045  0.9693
    2MOL0     H  220  -0.316   7.334   2.378 -2.7802 -0.2357 -0.2946
    2MOL0     H  221  -0.520   7.197   2.554 -2.5085  2.1162  0.6349
    2MOL0     H  222  -0.556   7.245   2.384  0.4681  3.2958 -2.1927
    2MOL0     H  223  -0.469   7.446   2.600  0.0206  0.2180 -0.4156
    2MOL0     H  224  -0.550   7.484   2.450  1.2239  0.6326  0.3545
    2MOL0     H  225  -0.702   7.507   2.788 -0.0925  1.8173 -0.6410
    2MOL0     H  226  -1.075   7.438   2.757  0.8745 -0.1560 -1.8952
    2MOL0     H  227  -0.979   7.581   2.816  0.2147  0.6103 -1.2509
    2MOL0     H  228  -0.892   7.485   2.998  0.6814 -1.4877  1.0512
    2MOL0     H  229  -1.051   7.424   2.994 -0.5323  3.6768 -0.2016
    2MOL0     H  230  -0.817   7.264   2.888  1.0653  2.5843  0.2254
    2MOL0     H  231  -0.894   7.243   3.044 -0.4073  2.3866  0.8658
    2MOL0     H  232  -1.118   7.198   2.929  0.1218 -0.4231  2.3799
    2MOL0     H  233  -1.029   7.194   2.775  0.3504  0.2493  0.5541
    2MOL0     H  234  -0.940   6.810   2.938  1.0888  2.1374  2.3779
    2MOL0     H  235  -0.765   6.558   2.766  2.7303 -1.3958  0.4304
    2MOL0     H  236  -0.802   6.609   2.940  1.3563  0.0623  0.6859
    2MOL0     H  237  -0.643   6.624   2.867  0.3477 -3.6012 -0.9375
    2MOL0     H  238  -0.552   6.774   2.261 -0.1955 -1.0044 -0.4255
    2MOL0     H  239  -0.359   6.655   2.129  0.8689 -1.2612 -0.3831
    2MOL0     H  240   0.022   6.723   2.308  3.9773  0.1253  1.1174
    2MOL0     H  241   0.013   6.559   2.393 -1.6684 -2.0048 -1.2074
    2MOL0     H  242   0.134   6.448   2.224  0.1067  0.3276 -2.9519
    2MOL0     H  243   0.117   6.581   2.102  2.9789  0.3488 -1.0527
    2MOL0     H  244   0.319   6.530   2.301 -0.9323 -1.6006 -1.4242
    2MOL0     H  245   0.243   6.692   2.324 -0.2028 -0.5280  0.7414
    2MOL0     H  246   0.290   6.746   2.072  4.3064  0.9849 -2.1714
    2MOL0     H  247   0.348   6.579   2.054  1.6393 -0.4148  0.5550
    2MOL0     H  248   0.512   6.772   2.080  1.1598 -1.7415  0.8063
    2MOL0     H  249   0.451   6.791   2.241 -1.7441  1.2208 -0.6424
    2MOL0     H  250   0.557   6.523   2.147  0.2107 -0.1223 -0.9302
    2MOL0     H  251   0.543   6.571   2.314  0.1420  0.1273 -0.6234
    2MOL0     H  252   0.752   6.694   2.128  0.6254 -2.3331 -0.9881
    2MOL0     H  253   0.773   6.563   2.245  1.2392  1.9111  4.0395
    2MOL0     H  254   0.831   6.769   2.359 -0.5521  0.2597  1.2212
    2MOL0     H  255   0.688   6.700   2.434  0.1841  1.1084  0.8841
    2MOL0     H  256  -0.131   6.672   2.495  2.3276 -2.2902 -2.6796
    2MOL0     H  257  -0.312   6.787   2.607  1.5693  2.8453 -1.1053
    2MOL0     H  258  -0.703   6.985   2.542 -0.6460  0.8863  0.1137
    2MOL0     H  259  -0.862   7.121   2.659 -4.2890 -0.0387 -0.6231
    2MOL0     H  260   0.132   7.029   1.789  0.6857 -0.9915  0.0610
    2MOL0     H  261   0.256   6.832   1.707 -1.6052  0.1004 -3.0152
    2MOL0     H  262   0.294   6.372   1.712 -1.4977 -2.0154 -0.4305
    2MOL0     H  263   0.421   6.197   1.617 -0.2564  0.0677  0.2026
    2MOL0     H  264   0.332   6.104   1.216 -0.7066  1.0116  1.4324
    2MOL0     H  265   0.479   6.190   1.169 -0.4771 -0.6166 -0.8248
    2MOL0     H  266   0.447   5.957   1.100 -1.1840  2.4573  0.2482
    2MOL0     H  267   0.491   5.901   1.260 -1.3652  2.0572  1.1350
    2MOL0     H  268   0.664   6.077   1.091 -2.7448  0.4905  0.0085
    2MOL0     H  269   0.698   6.031   1.265 -1.3556  1.4329  1.1139
    2MOL0     H  270   0.664   5.824   1.039 -0.7367 -0.5269  1.5542
    2MOL0     H  271   0.728   5.793   1.190  0.2850  1.0149  1.3494
    2MOL0     H  272   1.044   5.961   0.955  0.5203  0.2183  2.1176
    2MOL0     H  273   0.392   6.372   1.236 -1.5644  2.1169 -1.0261
    2MOL0     H  274   0.295   6.658   1.276 -2.3261  1.0197  0.9487
    2MOL0     H  275   0.214   6.530   1.180 -2.0695 -0.9218  0.5199
    2MOL0     H  276   0.125   6.611   1.305 -1.7831  0.5799 -3.6662
    3MOL0     O  277   2.093   2.992   6.659 -0.2448 -0.5922 -0.4050
    3MOL0     C  278   2.153   2.964   6.549  1.1969 -1.0576  0.1475
    3MOL0     O  279   2.285   2.963   6.524 -0.5777  0.2648 -0.3617
    3MOL0     C  280   2.368   2.992   6.638 -0.2922  0.3030  0.2503
    3MOL0     C  281   2.464   2.895   6.671 -1.2233 -0.3852  0.0674
    3MOL0     C  282   2.528   2.896   6.797 -0.2209 -0.2717 -0.6728
    3MOL0     C  283   2.506   3.004   6.887  0.6862  0.2096 -0.4957
    3MOL0     O  284   2.567   3.002   7.007  0.8958  0.1652 -0.9655
    3MOL0     C  285   2.532   3.090   7.116  0.2479  0.4036  0.6247
    3MOL0     C  286   2.642   3.185   7.137 -0.3216 -0.1798  0.3858
    3MOL0     C  287   2.626   3.247   7.280  0.2442  0.4769 -0.2686
    3MOL0     C  288   2.735   3.349   7.306 -0.2336 -0.2294 -0.5957
    3MOL0     C  289   2.701   3.438   7.433 -0.3874 -0.3954  0.4249
    3MOL0     C  290   2.704   3.350   7.557 -0.2180 -0.2546  0.2410
    3MOL0     C  291   2.643   3.415   7.686 -0.4382  0.4803  0.4781
    3MOL0     C  292   2.499   3.432   7.679 -0.2668 -0.6291 -0.3820
    3MOL0     N  293   2.424   3.315   7.633 -0.3444  0.3485 -0.0598
    3MOL0     C  294   2.423   3.191   7.702 -0.0781 -0.0332  0.1844
    3MOL0     C  295   2.345   3.116   7.623 -0.0304  0.6349  0.5278
    3MOL0     C  296   2.328   2.966   7.638  0.8045  0.0831 -0.4586
    3MOL0     C  297   2.173   2.916   7.634  0.5762 -0.7736 -0.0908
    3MOL0     C  298   2.088   2.974   7.745 -1.1195 -0.2229 -0.2995
    3MOL0     C  299   1.937   2.925   7.753  0.4407  0.1299  0.2553
    3MOL0     O  300   1.854   2.949   7.632 -0.0262 -0.4996  0.3019
    3MOL0     C  301   1.739   2.883   7.610  0.4061  0.4528  0.5824
    3MOL0     C  302   1.698   2.855   7.472  0.0997 -0.8820 -1.0263
    3MOL0     C  303   1.575   2.807   7.436  0.0155 -0.5220  0.1730
    3MOL0     C  304   1.545   2.768   7.292  0.2647 -1.1014 -0.6058
    3MOL0     C  305   1.481   2.784   7.536  0.3140 -0.1316 -0.2073
    3MOL0     C  306   1.342   2.728   7.515  0.4058  0.2109  0.8652
    3MOL0     O  307   1.264   2.797   7.432  0.3013  0.1120  0.1663
    3MOL0     C  308   1.156   2.734   7.371 -0.9494 -0.1768 -0.0940
    3MOL0     C  309   1.030   2.793   7.347  1.4131 -0.6001  0.5338
    3MOL0     C  310   0.931   2.731   7.260  0.3014 -0.8118  0.6459
    3MOL0     C  311   0.954   2.605   7.215 -0.5555 -0.1302  0.3148
    3MOL0     O  312   0.859   2.551   7.136  0.1575 -0.2808  0.2179
    3MOL0     C  313   0.873   2.418   7.082 -0.5984 -0.8649 -0.4375
    3MOL0     C  314   0.742   2.376   7.011 -0.1738  0.1031  1.0732
    3MOL0     C  315   0.733   2.221   6.984 -0.3685 -0.0065 -0.1865
    3MOL0     C  316   0.650   2.181   6.863  0.2881 -0.9845  0.5495
    3MOL0     C  317   0.626   2.034   6.875 -0.6892 -0.3286  0.1935
    3MOL0     C  318   0.543   1.981   6.751  0.7811  0.3427 -0.5549
    3MOL0     C  319   0.565   1.827   6.751  0.0110  0.2866 -0.1706
    3MOL0     C  320   0.503   1.758   6.626  0.0316 -0.7302 -0.9385
    3MOL0    Cl  321   0.566   1.834   6.481 -0.1706  0.1154  0.2202
    3MOL0     C  322   1.074   2.542   7.241  0.5239  0.1333 -0.0762
    3MOL0     C  323   1.177   2.610   7.308  0.2022  0.7067 -0.0691
    3MOL0     O  324   1.310   2.624   7.574 -0.2713 -0.3359  0.5540
    3MOL0     C  325   1.516   2.812   7.674  0.9883 -0.7638  0.3564
    3MOL0     C  326   1.645   2.863   7.709  1.2227  0.9859 -0.3491
    3MOL0     N  327   2.308   3.186   7.510  0.5210  0.2661 -0.1614
    3MOL0     N  328   2.369   3.304   7.513  0.4693 -0.0929 -0.3973
    3MOL0     C  329   2.418   3.102   6.852 -0.4385 -1.2527  0.3593
    3MOL0     C  330   2.349   3.097   6.728  0.0758 -0.1094  0.1690
    3MOL0     C  331   2.067   2.944   6.430  0.3308  0.0304 -0.6523
    3MOL0     C  332   2.123   2.873   6.326  0.0206 -0.1246 -0.9604
    3MOL0     C  333   2.035   2.834   6.219 -0.5852 -0.4464  0.6141
    3MOL0     C  334   1.904   2.865   6.216  0.3203  0.2725  0.6039
    3MOL0     O  335   1.823   2.809   6.118  0.2953 -0.4040  0.4987
    3MOL0     C  336   1.863   2.793   5.981 -0.0125  0.5777  0.1780
    3MOL0     C  337   1.765   2.771   5.875 -1.1380 -0.8034 -0.2063
    3MOL0     C  338   1.679   2.640   5.910 -0.0454 -0.8279  0.1594
    3MOL0     C  339   1.560   2.617   5.813 -0.9790  0.2787 -0.2961
    3MOL0     C  340   1.603   2.593   5.680  0.1401  0.1180  1.2745
    3MOL0     C  341   1.662   2.588   5.576 -1.3284 -0.6452  0.2416
    3MOL0     C  342   1.854   2.937   6.316 -0.0706  0.7968  0.1390
    3MOL0     C  343   1.933   2.981   6.422  0.1509  0.5359  1.2712
    3MOL0     C  344   1.866   3.072   6.512 -0.2379 -0.1518  0.6166
    3MOL0     H  345   2.483   2.815   6.600  1.6712 -0.3737  0.7111
    3MOL0     H  346   2.595   2.820   6.836 -1.5953 -0.7266  0.9179
    3MOL0     H  347   2.522   3.025   7.204  0.3935 -1.6079 -0.7788
    3MOL0     H  348   2.442   3.151   7.101 -0.5543 -0.9931 -0.5693
    3MOL0     H  349   2.739   3.133   7.130 -1.5732 -2.7461  0.9536
    3MOL0     H  350   2.625   3.258   7.058 -0.4683 -3.3136 -2.6927
    3MOL0     H  351   2.529   3.298   7.286  0.6350  1.5612 -2.4325
    3MOL0     H  352   2.622   3.167   7.355  0.5048 -0.1105 -0.8704
    3MOL0     H  353   2.829   3.298   7.331 -0.2661 -0.0477 -0.0906
    3MOL0     H  354   2.744   3.415   7.219 -0.3635  1.3959  0.5861
    3MOL0     H  355   2.601   3.477   7.411 -0.9136 -1.4864  0.8133
    3MOL0     H  356   2.771   3.522   7.434 -2.2492  1.5845 -4.6162
    3MOL0     H  357   2.660   3.250   7.549 -0.7302 -0.2291  2.2962
    3MOL0     H  358   2.811   3.338   7.577  0.4962  1.5861 -2.0337
    3MOL0     H  359   2.694   3.512   7.693  0.6107  0.2287 -2.4452
    3MOL0     H  360   2.677   3.361   7.775 -3.1484  0.8180  1.8110
    3MOL0     H  361   2.475   3.451   7.784  0.0766 -1.7837 -0.0828
    3MOL0     H  362   2.475   3.518   7.616 -0.0921  0.3850  0.9222
    3MOL0     H  363   2.459   3.167   7.801 -1.6896 -2.5331  0.2520
    3MOL0     H  364   2.375   2.944   7.734 -0.4190 -0.4885  0.0345
    3MOL0     H  365   2.384   2.907   7.565  2.7432  1.0651  0.1802
    3MOL0     H  366   2.118   2.931   7.541 -3.1140  1.5506  2.1903
    3MOL0     H  367   2.169   2.808   7.652  4.6710 -0.7099  2.3094
    3MOL0     H  368   2.136   2.948   7.839 -2.7254  1.2293  0.9995
    3MOL0     H  369   2.091   3.082   7.726  0.8300 -0.2227 -0.1773
    3MOL0     H  370   1.940   2.817   7.771  0.7363 -0.1294 -1.1896
    3MOL0     H  371   1.891   2.975   7.837 -0.4945 -0.4314  0.0883
    3MOL0     H  372   1.775   2.867   7.396 -1.0314 -0.1178 -2.0805
    3MOL0     H  373   1.575   2.664   7.275  0.2928 -1.3525  0.8310
    3MOL0     H  374   1.592   2.829   7.214 -1.4022 -0.6483 -1.3230
    3MOL0     H  375   1.438   2.773   7.266  0.5136  0.9718 -1.3944
    3MOL0     H  376   1.016   2.898   7.371 -0.9569  0.1754 -3.2961
    3MOL0     H  377   0.843   2.792   7.239  0.8242  0.1139  1.0788
    3MOL0     H  378   0.960   2.399   7.019  0.7031  0.4529  0.8636
    3MOL0     H  379   0.890   2.350   7.166  0.6298  0.0902  0.1299
    3MOL0     H  380   0.659   2.403   7.076  2.0722 -0.1313  4.2583
    3MOL0     H  381   0.725   2.434   6.920  2.7494  0.0862  0.3971
    3MOL0     H  382   0.692   2.177   7.075 -0.5667 -0.3564 -0.4420
    3MOL0     H  383   0.835   2.184   6.976 -0.0333  0.9518 -0.4778
    3MOL0     H  384   0.706   2.202   6.772 -1.1670 -0.4538 -0.2558
    3MOL0     H  385   0.556   2.237   6.856 -0.3812 -2.1923 -0.4852
    3MOL0     H  386   0.721   1.981   6.866 -1.1371 -0.7801 -4.0773
    3MOL0     H  387   0.582   2.005   6.972  0.3931  2.6099  1.6682
    3MOL0     H  388   0.574   2.031   6.659 -0.2010 -0.4689 -1.3463
    3MOL0     H  389   0.438   1.994   6.781  0.3153 -1.5624 -1.1919
    3MOL0     H  390   0.519   1.783   6.839  0.5888 -0.7773 -0.3807
    3MOL0     H  391   0.668   1.796   6.771  0.0516  0.7626  0.3828
    3MOL0     H  392   0.395   1.770   6.638 -0.0994 -2.9109  0.5003
    3MOL0     H  393   0.527   1.653   6.611  0.2747 -0.6338 -1.2642
    3MOL0     H  394   1.090   2.437   7.219 -1.0823 -0.4841  1.4586
    3MOL0     H  395   1.276   2.565   7.318  0.0201 -0.1545 -1.6887
    3MOL0     H  396   1.442   2.799   7.752 -1.3826  1.4625 -1.3637
    3MOL0     H  397   1.668   2.890   7.812  1.6289 -2.2592  0.5146
    3MOL0     H  398   2.412   3.186   6.920  2.0350 -1.3684  0.8040
    3MOL0     H  399   2.274   3.173   6.707 -1.6575 -1.7829 -0.0753
    3MOL0     H  400   2.224   2.834   6.321  0.5655  0.6877  1.8943
    3MOL0     H  401   2.072   2.772   6.137 -0.5879  0.7164 -0.2850
    3MOL0     H  402   1.904   2.889   5.949 -2.4471  1.3770 -0.6839
    3MOL0     H  403   1.944   2.719   5.968 -1.3377 -0.8287 -0.3473
    3MOL0     H  404   1.818   2.764   5.780 -2.1712  2.2238 -1.1414
    3MOL0     H  405   1.688   2.847   5.862 -0.2962  0.7801  2.9571
    3MOL0     H  406   1.750   2.556   5.910  2.7101  0.9844 -5.4966
    3MOL0     H  407   1.632   2.664   6.005  2.5591  1.9883  0.8806
    3MOL0     H  408   1.499   2.708   5.820  0.5087  1.2250  1.0181
    3MOL0     H  409   1.505   2.528   5.844 -1.9234  0.4369 -1.4693
    3MOL0     H  410   1.711   2.576   5.482  1.1565  1.1041  1.2096
    3MOL0     H  411   1.747   2.957   6.312 -0.3156 -0.1879 -5.0865
    3MOL0     H  412   1.765   3.093   6.474  1.8252  0.2926 -5.9586
    3MOL0     H  413   1.856   3.036   6.614 -0.1231 -0.4430  0.5259
    3MOL0     H  414   1.912   3.171   6.510  0.4571 -0.4808 -0.5881
    4MOL0     O  415   0.305   7.445   9.934 -0.3026 -0.8095 -0.1391
    4MOL0     C  416   0.274   7.409   9.823  0.2477 -0.1366 -0.4110
    4MOL0     O  417   0.278   7.278   9.769 -0.0268 -0.0994 -0.0327
    4MOL0     C  418   0.278   7.165   9.841 -0.1164  0.0342  0.0375
    4MOL0     C  419   0.282   7.046   9.762  0.8992 -0.4451 -0.6021
    4MOL0     C  420   0.260   6.918   9.828  0.6389 -0.1261  0.4353
    4MOL0     C  421   0.249   6.903   9.961 -0.6486 -0.1211 -0.7018
    4MOL0     O  422   0.236   6.779  10.020 -0.0928 -0.3479  0.1835
    4MOL0     C  423   0.136   6.768  10.121 -0.2362 -0.2875  0.2113
    4MOL0     C  424   0.071   6.630  10.100  0.2874  0.4020 -0.4837
    4MOL0     C  425  -0.057   6.611  10.179  0.0350  0.8213  0.3859
    4MOL0     C  426  -0.114   6.469  10.151 -0.1710  0.7458  0.4418
    4MOL0     C  427  -0.252   6.452  10.216 -0.3598  0.2044 -0.1784
    4MOL0     C  428  -0.352   6.542  10.141  0.1623 -0.4221  0.0377
    4MOL0     C  429  -0.495   6.491  10.168  0.5124 -0.3869 -0.1101
    4MOL0     C  430  -0.530   6.481  10.326  0.4427 -0.6056 -0.5034
    4MOL0     N  431  -0.662   6.425  10.341 -0.8102 -0.0400  0.0045
    4MOL0     C  432  -0.770   6.426  10.256 -0.1112  0.3944  0.0576
    4MOL0     C  433  -0.850   6.320  10.285 -0.0282 -1.6193  0.7014
    4MOL0     C  434  -0.973   6.281  10.209 -0.5948 -0.4792 -0.6994
    4MOL0     C  435  -1.100   6.353  10.256 -0.5545  0.1005 -0.2821
    4MOL0     C  436  -1.225   6.282  10.198  0.1270 -0.5685 -0.0107
    4MOL0     C  437  -1.341   6.376  10.203 -0.2755  0.6749 -0.2436
    4MOL0     O  438  -1.449   6.320  10.121  0.1232  0.7549 -0.2183
    4MOL0     C  439  -1.571   6.390  10.122  0.5041  0.7532 -0.0410
    4MOL0     C  440  -1.587   6.513  10.184 -0.2969 -0.5131  0.8280
    4MOL0     C  441  -1.720   6.558  10.196 -0.6936 -0.9231  0.2052
    4MOL0     C  442  -1.728   6.688  10.272 -0.0705 -0.8245  0.2103
    4MOL0     C  443  -1.832   6.499  10.125 -0.6320  0.0377 -0.4443
    4MOL0     C  444  -1.978   6.546  10.136  0.2057 -0.3552 -0.1373
    4MOL0     O  445  -2.060   6.502  10.038  0.0886 -0.2506  0.8796
    4MOL0     C  446  -2.195   6.511  10.075 -0.6422 -0.3432  0.6175
    4MOL0     C  447  -2.255   6.421  10.161 -0.3640  0.5645 -0.8102
    4MOL0     C  448  -2.388   6.450  10.194 -0.6018 -0.6225 -0.2674
    4MOL0     C  449  -2.463   6.547  10.136 -0.5023 -0.1994  0.9042
    4MOL0     O  450  -2.588   6.552  10.176  0.6220 -0.3089  0.1703
    4MOL0     C  451  -2.668   6.642  10.108  0.2903 -0.2254 -0.2255
    4MOL0     C  452  -2.805   6.637  10.160  0.5871 -0.3938 -0.1490
    4MOL0     C  453  -2.893   6.735  10.075 -0.1991  0.9458 -0.8574
    4MOL0     C  454  -3.045   6.755  10.108 -0.5952 -1.1248 -0.7763
    4MOL0     C  455  -3.106   6.887  10.054  0.4364  0.3627  0.4717
    4MOL0     C  456  -3.098   6.909   9.897  0.3573  0.4615 -0.9019
    4MOL0     C  457  -3.214   7.013   9.861 -0.3882  0.9782  0.6389
    4MOL0     C  458  -3.234   7.026   9.710 -0.3380  0.9467 -0.9694
    4MOL0    Cl  459  -3.366   7.126   9.664 -0.2380  0.2040 -0.2432
    4MOL0     C  460  -2.403   6.630  10.034 -0.3671 -0.4667 -0.6248
    4MOL0     C  461  -2.267   6.612  10.008  1.1742  0.4838  0.5620
    4MOL0     O  462  -2.015   6.616  10.229  0.2363  0.5007  0.2958
    4MOL0     C  463  -1.803   6.379  10.060 -0.0935  1.1606 -0.0688
    4MOL0     C  464  -1.676   6.323  10.064 -0.8487  0.4973 -0.1617
    4MOL0     N  465  -0.786   6.254  10.388  0.7468 -0.4902  0.1328
    4MOL0     N  466  -0.678   6.316  10.420  0.2522  0.5200 -0.1013
    4MOL0     C  467   0.242   7.017  10.040  0.0089 -1.1732 -0.6970
    4MOL0     C  468   0.264   7.146   9.984  0.6878  0.2748  0.1367
    4MOL0     C  469   0.231   7.515   9.731  0.8098  0.0703  0.6571
    4MOL0     C  470   0.318   7.550   9.623 -0.2771  0.4815  0.6231
    4MOL0     C  471   0.288   7.653   9.543  0.3225 -0.5977 -0.1473
    4MOL0     C  472   0.168   7.722   9.556 -0.3434 -1.4131  0.0062
    4MOL0     O  473   0.126   7.838   9.491  0.2071  0.4557  0.0375
    4MOL0     C  474   0.194   7.861   9.364 -0.3233  0.5361  0.2081
    4MOL0     C  475   0.161   8.001   9.306  1.3390  0.3843  0.8940
    4MOL0     C  476   0.221   8.122   9.391  0.4203 -0.1527 -0.3736
    4MOL0     C  477   0.355   8.174   9.332  0.1351 -0.8729 -0.3559
    4MOL0     C  478   0.457   8.072   9.334  0.0611 -0.0325 -0.0366
    4MOL0     C  479   0.543   7.984   9.344  0.0661  0.5693 -0.8344
    4MOL0     C  480   0.086   7.689   9.666 -0.9042  0.3796  0.1859
    4MOL0     C  481   0.108   7.581   9.748 -0.6290 -0.3060  0.3709
    4MOL0     C  482   0.004   7.542   9.847  0.3657 -0.6734  0.3746
    4MOL0     H  483   0.277   7.050   9.654  1.6036 -0.2125 -0.6318
    4MOL0     H  484   0.275   6.825   9.775  4.0782  0.3388  0.3635
    4MOL0     H  485   0.053   6.838  10.104 -0.6216 -0.9655 -0.7707
    4MOL0     H  486   0.186   6.785  10.217  1.6349  0.1518 -0.8008
    4MOL0     H  487   0.041   6.625   9.995 -0.8673  0.0077 -0.1571
    4MOL0     H  488   0.141   6.548  10.115 -0.7509 -0.4229  0.0127
    4MOL0     H  489  -0.035   6.606  10.286 -1.0582  1.1236  0.6367
    4MOL0     H  490  -0.133   6.688  10.162 -1.9406 -0.3491  3.1301
    4MOL0     H  491  -0.114   6.441  10.045  0.5268 -0.3821  0.7270
    4MOL0     H  492  -0.042   6.394  10.187 -0.9090 -0.6004 -0.7848
    4MOL0     H  493  -0.249   6.472  10.324 -0.2387 -1.5045  0.1659
    4MOL0     H  494  -0.281   6.347  10.205 -1.7422  0.6236 -0.8170
    4MOL0     H  495  -0.341   6.640  10.188 -2.0151  0.4546 -1.0988
    4MOL0     H  496  -0.334   6.554  10.034 -0.3360  2.4156  0.1955
    4MOL0     H  497  -0.519   6.393  10.127 -1.2130 -0.7046  1.5140
    4MOL0     H  498  -0.567   6.556  10.118 -1.2471  0.4008  3.1566
    4MOL0     H  499  -0.458   6.440  10.396 -2.7596 -2.7868  1.8201
    4MOL0     H  500  -0.535   6.585  10.360 -1.0319 -1.4447  2.1500
    4MOL0     H  501  -0.770   6.504  10.180  1.4196  1.9584  1.5657
    4MOL0     H  502  -0.995   6.175  10.224 -0.7633 -0.2731  0.6255
    4MOL0     H  503  -0.945   6.315  10.108  4.3052  1.1728  0.9066
    4MOL0     H  504  -1.113   6.352  10.364 -1.9420  0.7738 -0.4090
    4MOL0     H  505  -1.109   6.457  10.223 -2.4240 -0.2450 -1.0342
    4MOL0     H  506  -1.206   6.248  10.096 -2.7935 -2.1643 -0.1322
    4MOL0     H  507  -1.245   6.192  10.257 -4.1291 -0.1992 -0.5815
    4MOL0     H  508  -1.370   6.407  10.304  0.7326 -1.5052  0.8051
    4MOL0     H  509  -1.300   6.464  10.153  1.7131  0.3228  0.6500
    4MOL0     H  510  -1.498   6.569  10.210 -0.0216 -1.6958  2.5462
    4MOL0     H  511  -1.636   6.732  10.310  1.2307 -0.5295 -2.9566
    4MOL0     H  512  -1.806   6.684  10.349  0.8017 -1.2032  1.0874
    4MOL0     H  513  -1.776   6.758  10.203 -0.1663 -1.4036 -0.3283
    4MOL0     H  514  -2.203   6.334  10.199 -1.8787 -0.4381 -0.9524
    4MOL0     H  515  -2.439   6.385  10.264  1.2181 -2.6845 -0.7484
    4MOL0     H  516  -2.630   6.744  10.118  3.1626 -1.1207 -1.0433
    4MOL0     H  517  -2.677   6.623  10.001  1.8443 -2.2350 -0.0528
    4MOL0     H  518  -2.841   6.534  10.151 -0.8277  0.0043  0.5825
    4MOL0     H  519  -2.800   6.668  10.265  0.7387  1.2441 -0.6027
    4MOL0     H  520  -2.888   6.712   9.968 -0.5431 -0.8562 -0.5183
    4MOL0     H  521  -2.852   6.835  10.090 -3.9525  2.6752 -0.9222
    4MOL0     H  522  -3.062   6.740  10.215  0.7000 -0.9486 -0.5327
    4MOL0     H  523  -3.110   6.679  10.064 -0.8424 -0.1318 -2.1977
    4MOL0     H  524  -3.214   6.885  10.070 -0.0155 -3.5711 -1.7431
    4MOL0     H  525  -3.056   6.970  10.106  1.8031 -0.7223  0.9629
    4MOL0     H  526  -3.131   6.814   9.854  0.4739  0.2275 -0.4820
    4MOL0     H  527  -2.998   6.931   9.860  0.3077  2.5866  0.0426
    4MOL0     H  528  -3.190   7.111   9.904  0.6216  0.6243  0.9061
    4MOL0     H  529  -3.315   6.985   9.894  0.1538 -0.3009  1.2694
    4MOL0     H  530  -3.239   6.923   9.673 -3.1095 -0.1258  1.9577
    4MOL0     H  531  -3.141   7.067   9.671  1.1401 -0.3963  0.9580
    4MOL0     H  532  -2.463   6.703   9.981 -1.9290 -1.0203  0.2902
    4MOL0     H  533  -2.225   6.670   9.927 -3.6522  0.8021 -2.1179
    4MOL0     H  534  -1.878   6.330   9.999  3.0051  0.6648 -3.7949
    4MOL0     H  535  -1.654   6.233  10.009  3.6043  0.5187  1.1952
    4MOL0     H  536   0.210   7.009  10.144 -1.0789  1.9486 -0.6997
    4MOL0     H  537   0.254   7.237  10.043 -1.7199 -1.4102  2.5202
    4MOL0     H  538   0.403   7.483   9.610  1.1452  2.5217 -1.2000
    4MOL0     H  539   0.372   7.671   9.477  0.3332 -0.7209 -0.1691
    4MOL0     H  540   0.302   7.843   9.366 -0.2676  0.7215 -0.6521
    4MOL0     H  541   0.159   7.786   9.293 -1.0371  4.8267 -4.5463
    4MOL0     H  542   0.052   8.009   9.305  1.2762 -0.4129  0.3885
    4MOL0     H  543   0.188   8.015   9.201 -1.5812 -0.1426 -0.0303
    4MOL0     H  544   0.142   8.198   9.389 -1.2082 -1.7863 -2.1270
    4MOL0     H  545   0.224   8.077   9.491  2.2866  1.2844  0.2702
    4MOL0     H  546   0.383   8.264   9.388  3.3187 -2.0888  0.2161
    4MOL0     H  547   0.336   8.191   9.225 -0.6460 -0.9097 -0.2315
    4MOL0     H  548   0.635   7.932   9.364  2.8280  4.8738 -0.9654
    4MOL0     H  549   0.005   7.759   9.685  0.0051  1.4029  0.3545
    4MOL0     H  550   0.039   7.585   9.941  1.7861  0.0449 -0.4509
    4MOL0     H  551  -0.090   7.592   9.819  0.4766 -0.8232 -0.2966
    4MOL0     H  552   0.001   7.434   9.858 -3.0937 -0.6868  0.5209
    5MOL0     O  553   2.013   8.145   0.361  0.0853 -1.1024 -0.2049
    5MOL0     C  554   1.919   8.221   0.394 -0.5021  0.5355 -0.0815
    5MOL0     O  555   1.884   8.334   0.329 -0.2459 -0.0202  0.6428
    5MOL0     C  556   1.967   8.358   0.216  0.2507 -0.2477 -0.8211
    5MOL0     C  557   2.088   8.415   0.224 -0.6279  0.0929  0.0211
    5MOL0     C  558   2.182   8.419   0.122 -0.0448 -0.5366  0.0677
    5MOL0     C  559   2.146   8.376  -0.003 -0.2299 -0.6065  0.0881
    5MOL0     O  560   2.233   8.382  -0.112  0.3657 -0.1574 -0.1397
    5MOL0     C  561   2.282   8.512  -0.145 -0.6830  0.7766 -0.8002
    5MOL0     C  562   2.175   8.622  -0.155 -2.2967  0.4853  0.6645
    5MOL0     C  563   2.199   8.701  -0.283 -0.0955 -0.2049 -0.2207
    5MOL0     C  564   2.101   8.813  -0.283  0.1786  0.2208  0.5789
    5MOL0     C  565   2.119   8.869  -0.428  0.9526 -0.7308  0.5389
    5MOL0     C  566   2.048   9.015  -0.432 -0.1183 -0.6459  0.4262
    5MOL0     C  567   2.049   9.078  -0.578 -0.3101  1.1389  0.2243
    5MOL0     C  568   2.094   9.219  -0.574  0.1600 -0.2407  0.0900
    5MOL0     N  569   2.235   9.252  -0.572  0.1592  0.0869 -0.5124
    5MOL0     C  570   2.340   9.198  -0.640  0.6388  0.1275  0.1968
    5MOL0     C  571   2.448   9.268  -0.608 -0.9310 -0.1121  0.2682
    5MOL0     C  572   2.586   9.247  -0.674  0.3945 -0.3523 -0.2011
    5MOL0     C  573   2.595   9.278  -0.823  0.7869  0.1527 -0.7485
    5MOL0     C  574   2.730   9.341  -0.847  0.4427 -0.2110 -1.0874
    5MOL0     C  575   2.766   9.319  -0.998  0.9685 -0.3557 -0.2187
    5MOL0     O  576   2.674   9.389  -1.078 -0.8583  0.4741 -0.2673
    5MOL0     C  577   2.697   9.388  -1.211  0.1408 -0.7401 -0.0864
    5MOL0     C  578   2.590   9.439  -1.282 -0.6694 -0.4550  0.5224
    5MOL0     C  579   2.598   9.443  -1.420  0.1114 -0.3126  0.7908
    5MOL0     C  580   2.488   9.506  -1.496  0.0817 -0.3747 -0.0310
    5MOL0     C  581   2.712   9.406  -1.495 -1.0094 -0.2660  0.5078
    5MOL0     C  582   2.735   9.421  -1.645 -0.4539  0.0437 -0.3843
    5MOL0     O  583   2.869   9.395  -1.690  0.1764 -0.2119 -0.2932
    5MOL0     C  584   2.893   9.410  -1.820 -0.0951  0.1968  0.9195
    5MOL0     C  585   2.856   9.321  -1.916  0.0168 -0.2046  0.4785
    5MOL0     C  586   2.862   9.359  -2.050  0.0480 -0.6633 -0.4728
    5MOL0     C  587   2.920   9.478  -2.087 -1.6499  0.9174 -0.5805
    5MOL0     O  588   2.953   9.502  -2.219 -0.1138 -0.8464  0.7268
    5MOL0     C  589   3.034   9.411  -2.299  0.2500 -1.0231 -0.2714
    5MOL0     C  590   3.092   9.478  -2.428 -0.1009  0.3527 -1.0639
    5MOL0     C  591   3.173   9.597  -2.390  0.3636  0.1554  0.0394
    5MOL0     C  592   3.233   9.656  -2.520  0.2980 -0.1964 -0.2525
    5MOL0     C  593   3.318   9.781  -2.483  0.0350 -0.0534  0.1716
    5MOL0     C  594   3.363   9.860  -2.617 -0.2147  0.6495 -0.3192
    5MOL0     C  595   3.469   9.959  -2.579  0.0560 -0.2786  0.7136
    5MOL0     C  596   3.531  10.029  -2.702  0.5130  0.3219 -0.1368
    5MOL0    Cl  597   3.641  10.161  -2.647  0.1952 -0.1181  0.4184
    5MOL0     C  598   2.963   9.567  -1.998 -0.7193  0.4918 -0.3975
    5MOL0     C  599   2.950   9.535  -1.864  0.3355 -0.6733 -0.2102
    5MOL0     O  600   2.639   9.430  -1.717 -0.2175  0.1148 -0.9707
    5MOL0     C  601   2.812   9.341  -1.420 -1.1004 -0.7615  0.1245
    5MOL0     C  602   2.807   9.334  -1.278  1.2790 -0.7573  0.5137
    5MOL0     N  603   2.413   9.364  -0.516  0.0728  0.2276 -0.2472
    5MOL0     N  604   2.288   9.349  -0.487  0.3722 -0.4748  0.1484
    5MOL0     C  605   2.025   8.317  -0.016 -0.1320 -0.0154 -0.5954
    5MOL0     C  606   1.931   8.308   0.088  0.2329  0.1924 -0.2190
    5MOL0     C  607   1.812   8.168   0.480  0.2898 -0.5718 -0.2411
    5MOL0     C  608   1.675   8.217   0.461 -0.6172  1.1676  1.0405
    5MOL0     C  609   1.574   8.160   0.532  0.5122  0.4821  0.2169
    5MOL0     C  610   1.591   8.067   0.632  0.1751  0.5811 -0.1807
    5MOL0     O  611   1.472   8.021   0.688 -0.8596  0.0603  0.2255
    5MOL0     C  612   1.474   7.961   0.819  0.1163  1.5438 -0.2766
    5MOL0     C  613   1.508   8.057   0.929  0.1385 -0.4136 -0.5770
    5MOL0     C  614   1.457   8.021   1.071  0.3807 -0.2885 -0.7028
    5MOL0     C  615   1.531   7.898   1.118  0.4960 -0.2611 -0.0280
    5MOL0     C  616   1.495   7.866   1.258 -0.0455 -0.3005 -0.7234
    5MOL0     C  617   1.474   7.847   1.374  0.1534  0.1366 -0.5335
    5MOL0     C  618   1.726   8.028   0.658 -0.2560 -0.3221 -0.0900
    5MOL0     C  619   1.837   8.069   0.582  1.0053 -0.2835 -0.2507
    5MOL0     C  620   1.967   8.019   0.623 -0.1612 -0.2716  0.5547
    5MOL0     H  621   2.124   8.452   0.319 -0.8978 -1.5772  0.8083
    5MOL0     H  622   2.278   8.468   0.136  1.3255 -3.1034  0.2564
    5MOL0     H  623   2.322   8.496  -0.246  1.6151  1.7526 -0.0958
    5MOL0     H  624   2.366   8.535  -0.080  1.8926 -3.8039 -2.0068
    5MOL0     H  625   2.071   8.587  -0.151 -2.0713 -0.3531 -0.4058
    5MOL0     H  626   2.186   8.680  -0.063 -1.3858 -1.2518  1.7300
    5MOL0     H  627   2.304   8.732  -0.290  0.7258 -2.8939 -0.6356
    5MOL0     H  628   2.183   8.634  -0.367  0.3378 -0.7900  0.1548
    5MOL0     H  629   1.998   8.778  -0.292  0.3456  0.0768 -1.0794
    5MOL0     H  630   2.116   8.902  -0.221  1.1306  0.3565  0.1636
    5MOL0     H  631   2.065   8.800  -0.495  0.6165  1.9677 -2.1886
    5MOL0     H  632   2.220   8.890  -0.465  0.5074  2.1000  0.7013
    5MOL0     H  633   1.942   9.000  -0.408  0.2021 -1.7200  1.2379
    5MOL0     H  634   2.079   9.092  -0.361 -3.1699  2.6859 -1.4935
    5MOL0     H  635   1.943   9.084  -0.602  0.0301  1.4657 -1.3640
    5MOL0     H  636   2.108   9.026  -0.655 -2.6023  1.5527 -1.9438
    5MOL0     H  637   2.049   9.269  -0.660 -2.1500  0.2786  1.5098
    5MOL0     H  638   2.051   9.266  -0.484 -0.1130  1.8314 -1.0651
    5MOL0     H  639   2.336   9.121  -0.717 -1.7032 -0.2914  0.6765
    5MOL0     H  640   2.621   9.144  -0.660  2.1864  0.2061 -0.3966
    5MOL0     H  641   2.653   9.306  -0.611 -0.7344 -0.6279  1.3172
    5MOL0     H  642   2.588   9.187  -0.883 -1.0198 -0.7414  0.7543
    5MOL0     H  643   2.513   9.345  -0.849  0.5425 -1.3567 -4.4449
    5MOL0     H  644   2.729   9.448  -0.824 -0.7977 -0.4081 -0.1503
    5MOL0     H  645   2.804   9.294  -0.783 -0.1874  1.6391  1.1308
    5MOL0     H  646   2.862   9.370  -0.998  1.5450 -1.4054  0.8067
    5MOL0     H  647   2.778   9.214  -1.025  1.2318 -1.2558  2.9958
    5MOL0     H  648   2.505   9.485  -1.234 -0.7339  2.1818 -1.9012
    5MOL0     H  649   2.406   9.538  -1.431  0.0238 -3.7098  1.7722
    5MOL0     H  650   2.448   9.428  -1.561  0.0253 -1.8638  1.7278
    5MOL0     H  651   2.535   9.593  -1.543  1.2826 -2.1493 -2.2820
    5MOL0     H  652   2.806   9.227  -1.896 -1.0889  0.3295  0.3145
    5MOL0     H  653   2.839   9.292  -2.133  2.4464 -1.1804 -0.7959
    5MOL0     H  654   3.121   9.385  -2.238 -0.5958  0.5195  1.6862
    5MOL0     H  655   2.978   9.320  -2.322 -1.4885  0.0314 -0.3540
    5MOL0     H  656   3.157   9.407  -2.480  2.7753 -0.2890  2.8965
    5MOL0     H  657   3.007   9.499  -2.493 -2.0031 -0.2086  1.0941
    5MOL0     H  658   3.251   9.562  -2.323 -0.5886 -0.3691  0.8937
    5MOL0     H  659   3.115   9.680  -2.347 -2.0707  0.8488 -3.9940
    5MOL0     H  660   3.154   9.684  -2.590  1.1366  0.2467 -1.0409
    5MOL0     H  661   3.301   9.581  -2.561  0.9517  1.6234 -2.6965
    5MOL0     H  662   3.262   9.848  -2.418 -0.1211 -0.3931  0.3877
    5MOL0     H  663   3.400   9.746  -2.420 -3.1190 -1.9897  3.5511
    5MOL0     H  664   3.281   9.904  -2.675 -0.9206  0.0194  0.1901
    5MOL0     H  665   3.405   9.783  -2.683  1.9191  0.6262  0.9703
    5MOL0     H  666   3.551   9.921  -2.517 -0.4125  1.0025  2.1703
    5MOL0     H  667   3.419  10.031  -2.514 -3.4882 -0.6844 -1.2557
    5MOL0     H  668   3.453  10.080  -2.760  1.1064  0.2950 -0.9784
    5MOL0     H  669   3.585   9.954  -2.762  1.7916  1.7649 -0.8577
    5MOL0     H  670   2.997   9.663  -2.037 -1.5042  1.4522  1.1678
    5MOL0     H  671   2.981   9.602  -1.786  3.0368 -2.8821  0.7875
    5MOL0     H  672   2.901   9.295  -1.463  1.2591  1.0013  2.7408
    5MOL0     H  673   2.894   9.295  -1.227  1.2541  0.3610  1.4370
    5MOL0     H  674   2.008   8.282  -0.117  1.9777  0.4208 -1.1507
    5MOL0     H  675   1.834   8.261   0.081  0.6149 -1.4408  3.3272
    5MOL0     H  676   1.656   8.292   0.385  0.3261 -0.2830 -0.6836
    5MOL0     H  677   1.479   8.198   0.498  0.9104  1.0973 -0.2271
    5MOL0     H  678   1.376   7.917   0.839  0.6531  0.2656 -0.3640
    5MOL0     H  679   1.548   7.882   0.832 -1.1647  0.5941  1.7383
    5MOL0     H  680   1.453   8.149   0.907 -0.6026 -0.5361  0.6164
    5MOL0     H  681   1.611   8.090   0.940 -0.4194  0.7637  2.0499
    5MOL0     H  682   1.478   8.101   1.142 -0.8112 -1.2497  0.8052
    5MOL0     H  683   1.349   8.008   1.076  0.2320  1.1810  0.2623
    5MOL0     H  684   1.640   7.912   1.109  0.4631 -0.3897 -0.7488
    5MOL0     H  685   1.501   7.807   1.066 -0.5730 -1.3797  2.4314
    5MOL0     H  686   1.457   7.829   1.478 -0.4445  1.7121 -0.3374
    5MOL0     H  687   1.741   7.944   0.725 -2.8055 -0.6336  0.1937
    5MOL0     H  688   1.983   8.007   0.731  2.5668 -1.2601  0.1111
    5MOL0     H  689   1.984   7.924   0.571 -1.2596 -0.7226  0.9875
    5MOL0     H  690   2.048   8.089   0.601 -1.8038  1.6482  0.2896
    6MOL0     O  691   3.579  10.845   3.691  0.3326 -0.8402 -0.2306
    6MOL0     C  692   3.500  10.890   3.612  0.1447  0.0677  0.2296
    6MOL0     O  693   3.527  10.892   3.480 -0.0721 -0.2182 -0.4653
    6MOL0     C  694   3.644  10.832   3.435 -0.1375  0.1436 -0.4439
    6MOL0     C  695   3.643  10.688   3.405 -0.4010  0.1149  0.5081
    6MOL0     C  696   3.772  10.631   3.354  0.8807  0.5540 -0.4693
    6MOL0     C  697   3.887  10.702   3.330 -0.5012 -0.0668 -0.2060
    6MOL0     O  698   4.000  10.634   3.287 -0.5430 -0.4307 -0.2895
    6MOL0     C  699   4.128  10.700   3.261 -0.0317 -1.9301 -0.3519
    6MOL0     C  700   4.235  10.594   3.244 -0.6675  0.1205  0.0983
    6MOL0     C  701   4.222  10.527   3.110 -0.1132 -0.0584  0.1042
    6MOL0     C  702   4.322  10.404   3.113 -0.2649 -0.0035  0.0495
    6MOL0     C  703   4.310  10.319   2.986  0.2598 -1.0105 -0.0119
    6MOL0     C  704   4.326  10.389   2.847  0.2413 -0.1323 -0.3698
    6MOL0     C  705   4.334  10.278   2.731  0.8703 -0.0507 -0.2151
    6MOL0     C  706   4.360  10.339   2.595 -0.6146 -0.1559 -0.5196
    6MOL0     N  707   4.461  10.441   2.591 -0.3471  0.2763 -0.6045
    6MOL0     C  708   4.601  10.425   2.580 -0.9351  0.7867  0.0561
    6MOL0     C  709   4.653  10.552   2.590 -0.6370 -0.6894 -0.8158
    6MOL0     C  710   4.790  10.596   2.607  0.7519 -0.5468  0.0383
    6MOL0     C  711   4.837  10.591   2.749 -0.4781 -0.5396  0.0680
    6MOL0     C  712   4.991  10.635   2.756  0.4317  0.3084  0.7190
    6MOL0     C  713   5.037  10.702   2.889  0.5714  0.6091 -0.2262
    6MOL0     O  714   5.030  10.599   2.992 -0.2610  0.5825 -0.9061
    6MOL0     C  715   5.088  10.631   3.116  0.0599  0.9934  0.2401
    6MOL0     C  716   5.153  10.754   3.147 -0.1381 -0.0065 -0.0340
    6MOL0     C  717   5.199  10.789   3.281 -0.0405  0.3096  1.4209
    6MOL0     C  718   5.252  10.923   3.307  0.0513 -1.0928 -0.1745
    6MOL0     C  719   5.186  10.693   3.377 -0.2020 -0.7049 -0.6500
    6MOL0     C  720   5.235  10.714   3.515  0.3850 -0.2132 -0.3927
    6MOL0     O  721   5.188  10.625   3.599  0.1909 -0.5048 -0.0247
    6MOL0     C  722   5.285  10.591   3.690  0.2237 -0.4424 -0.3389
    6MOL0     C  723   5.366  10.489   3.648  0.1917 -0.2162 -0.2143
    6MOL0     C  724   5.467  10.447   3.736  0.3717  0.9134  0.4447
    6MOL0     C  725   5.478  10.493   3.871 -0.0347  0.3313 -0.2116
    6MOL0     O  726   5.568  10.436   3.957 -0.0463 -0.4104 -0.2256
    6MOL0     C  727   5.646  10.541   4.025 -0.6339  0.4999 -0.0480
    6MOL0     C  728   5.653  10.528   4.178  0.5137 -0.1919  0.0908
    6MOL0     C  729   5.745  10.632   4.238 -1.0890 -0.7294  0.6002
    6MOL0     C  730   5.758  10.614   4.388 -0.6511  0.4662  0.5294
    6MOL0     C  731   5.866  10.509   4.428  0.1206  0.2902  0.1924
    6MOL0     C  732   6.000  10.518   4.354 -0.0094  0.8637 -0.4407
    6MOL0     C  733   6.112  10.438   4.434  0.5756  0.1537 -0.4496
    6MOL0     C  734   6.256  10.449   4.382  0.6401 -0.2911 -0.4126
    6MOL0    Cl  735   6.276  10.391   4.208 -0.0715 -0.0603  0.4920
    6MOL0     C  736   5.386  10.593   3.911  0.9087 -0.3079  0.4645
    6MOL0     C  737   5.295  10.650   3.817 -0.3193  0.2791 -0.3191
    6MOL0     O  738   5.328  10.791   3.535 -0.2659  0.0023 -0.0617
    6MOL0     C  739   5.129  10.569   3.345 -0.5832  0.2502  1.0805
    6MOL0     C  740   5.079  10.540   3.217 -0.6231 -0.0675 -0.2023
    6MOL0     N  741   4.551  10.643   2.599  0.1166  0.0273 -0.7494
    6MOL0     N  742   4.439  10.572   2.612  0.1403 -1.3450  0.5267
    6MOL0     C  743   3.878  10.845   3.350 -0.1179  0.3686  0.3653
    6MOL0     C  744   3.758  10.915   3.403  0.2609 -0.7817  0.2257
    6MOL0     C  745   3.366  10.948   3.658 -0.4699 -0.1876 -0.5414
    6MOL0     C  746   3.277  10.997   3.558 -0.1589  0.2807  0.6611
    6MOL0     C  747   3.151  11.029   3.586 -0.2081 -0.7922  0.5802
    6MOL0     C  748   3.111  11.030   3.709 -0.2366 -0.0966 -0.4436
    6MOL0     O  749   2.984  11.058   3.750  0.4590  0.0122  0.5638
    6MOL0     C  750   2.898  10.947   3.714  0.5383  0.5947 -0.8362
    6MOL0     C  751   2.766  10.969   3.785 -0.3929  0.7316  0.6572
    6MOL0     C  752   2.707  11.100   3.737 -0.1304  0.1879 -1.1495
    6MOL0     C  753   2.562  11.105   3.768 -0.1334  0.4404  0.1372
    6MOL0     C  754   2.518  11.238   3.756 -0.0804 -0.9492  0.2555
    6MOL0     C  755   2.491  11.361   3.745 -0.4716  0.1382 -1.1598
    6MOL0     C  756   3.197  10.994   3.812  0.1611 -0.3513  0.6891
    6MOL0     C  757   3.327  10.954   3.792 -0.0379  0.2414  0.4276
    6MOL0     C  758   3.408  10.908   3.909 -0.2961 -0.0405 -0.5967
    6MOL0     H  759   3.553  10.629   3.419 -1.6345  1.4376 -1.3201
    6MOL0     H  760   3.772  10.524   3.333  2.5255  0.6393 -1.1128
    6MOL0     H  761   4.156  10.762   3.346 -0.3247  3.2564 -3.5712
    6MOL0     H  762   4.127  10.771   3.178  1.1291 -0.9104  0.4747
    6MOL0     H  763   4.328  10.651   3.247 -1.0955  0.7896  1.2821
    6MOL0     H  764   4.231  10.518   3.323  0.2676  1.0204  1.0486
    6MOL0     H  765   4.130  10.479   3.076  0.5319 -2.7572  1.8883
    6MOL0     H  766   4.234  10.605   3.034 -0.8213 -0.6925 -0.6730
    6MOL0     H  767   4.422  10.447   3.122 -0.1478 -0.0069 -1.0674
    6MOL0     H  768   4.294  10.331   3.190 -1.6669  1.0945  0.6238
    6MOL0     H  769   4.215  10.265   2.985 -0.8510  0.8221  0.9599
    6MOL0     H  770   4.393  10.248   2.993  1.7029  0.6081 -0.0466
    6MOL0     H  771   4.248  10.465   2.831  1.6710  1.9796  1.9833
    6MOL0     H  772   4.406  10.464   2.853 -0.4309  0.5517  0.3279
    6MOL0     H  773   4.248  10.210   2.736  0.0238  1.0057  0.1706
    6MOL0     H  774   4.419  10.217   2.761  1.7359  1.2548  0.0493
    6MOL0     H  775   4.371  10.257   2.524 -0.1731 -0.6654  0.1247
    6MOL0     H  776   4.269  10.395   2.573 -1.0627 -1.2602 -1.6033
    6MOL0     H  777   4.658  10.333   2.574 -0.0310  0.8955  4.0115
    6MOL0     H  778   4.786  10.699   2.571  0.1919 -1.4841 -2.8462
    6MOL0     H  779   4.856  10.551   2.532  0.1322  1.5442 -1.8662
    6MOL0     H  780   4.786  10.664   2.812  0.0585  0.4810 -0.6700
    6MOL0     H  781   4.813  10.492   2.790 -0.0878  0.5425  3.1892
    6MOL0     H  782   5.043  10.539   2.751 -1.3439 -0.8180  2.2184
    6MOL0     H  783   5.010  10.687   2.662 -0.6690 -1.0827 -0.3094
    6MOL0     H  784   5.141  10.730   2.873 -0.2817  3.1382 -1.9809
    6MOL0     H  785   4.974  10.790   2.907 -0.9159 -0.5049  0.1862
    6MOL0     H  786   5.176  10.833   3.076  0.5563  0.8085  1.0733
    6MOL0     H  787   5.205  10.967   3.395  1.0827  2.0912 -1.0624
    6MOL0     H  788   5.232  11.001   3.232  0.3323  1.7557  2.5346
    6MOL0     H  789   5.361  10.930   3.319 -0.2007 -0.7996  2.4543
    6MOL0     H  790   5.376  10.439   3.553  1.2290 -0.3653 -0.0432
    6MOL0     H  791   5.539  10.368   3.716 -1.7141 -1.4621  1.7610
    6MOL0     H  792   5.745  10.530   3.981 -0.5941 -2.2287  0.5544
    6MOL0     H  793   5.606  10.640   4.003 -1.5902 -0.3508 -2.6493
    6MOL0     H  794   5.556  10.533   4.229  1.0904 -3.9127  1.8836
    6MOL0     H  795   5.685  10.429   4.211 -0.5001  0.3409  2.9169
    6MOL0     H  796   5.707  10.732   4.213  0.1822 -0.3787 -0.0393
    6MOL0     H  797   5.843  10.637   4.190 -0.1997  1.4261  2.4398
    6MOL0     H  798   5.666  10.568   4.425 -0.5101 -1.5119 -1.3687
    6MOL0     H  799   5.786  10.700   4.449 -0.0197 -0.7868  2.0510
    6MOL0     H  800   5.884  10.526   4.535  1.1799 -1.0166  0.2527
    6MOL0     H  801   5.826  10.411   4.401 -0.0341  1.4057 -4.3617
    6MOL0     H  802   6.035  10.621   4.351  0.1618  0.8060 -0.4348
    6MOL0     H  803   6.000  10.473   4.254  0.4256 -0.0886 -0.0272
    6MOL0     H  804   6.090  10.331   4.433 -0.9901  0.4375 -2.3191
    6MOL0     H  805   6.106  10.461   4.541 -1.4705  1.2521 -0.7485
    6MOL0     H  806   6.323  10.398   4.452  2.1642  1.0634 -0.8513
    6MOL0     H  807   6.288  10.553   4.370  1.9943 -0.8322 -1.7267
    6MOL0     H  808   5.386  10.641   4.008 -1.1049  1.4071 -0.2870
    6MOL0     H  809   5.224  10.729   3.840 -0.0113  0.3892  0.2806
    6MOL0     H  810   5.115  10.491   3.419 -1.6117 -0.6999 -0.0582
    6MOL0     H  811   5.022  10.448   3.206  0.8845 -1.1629  0.7333
    6MOL0     H  812   3.972  10.892   3.324  0.6643 -1.9087 -1.3145
    6MOL0     H  813   3.746  11.017   3.437  2.4137 -0.6326  0.7141
    6MOL0     H  814   3.306  10.994   3.454  1.6768 -1.7288  1.1477
    6MOL0     H  815   3.090  11.060   3.503  1.8996 -0.6385 -0.9981
    6MOL0     H  816   2.884  10.928   3.607 -0.4133 -1.6929 -0.3709
    6MOL0     H  817   2.929  10.856   3.766  0.0999  0.5232 -0.6918
    6MOL0     H  818   2.774  10.964   3.894  2.7134  2.7757  0.6730
    6MOL0     H  819   2.712  10.877   3.760 -1.6976  1.1174  1.9526
    6MOL0     H  820   2.754  11.177   3.799  0.8664 -1.2611 -0.0540
    6MOL0     H  821   2.729  11.124   3.633 -2.7801 -0.8995 -2.0548
    6MOL0     H  822   2.543  11.069   3.869  0.1884 -0.7535 -0.2115
    6MOL0     H  823   2.505  11.056   3.688 -1.0777  4.9482 -2.2621
    6MOL0     H  824   2.467  11.465   3.750 -0.1151  0.2040  2.7688
    6MOL0     H  825   3.158  11.011   3.912 -2.3488  0.7449 -0.4103
    6MOL0     H  826   3.429  10.804   3.885  2.7806  0.7298 -1.6960
    6MOL0     H  827   3.496  10.970   3.929 -0.4786 -0.9084  3.8487
    6MOL0     H  828   3.347  10.916   3.999  0.6579 -4.0633  0.6140
    7MOL0     O  829   8.349  10.562  10.256 -0.1215 -0.0155  0.3573
    7MOL0     C  830   8.360  10.462  10.328 -0.5829 -1.1688  0.7841
    7MOL0     O  831   8.400  10.340  10.288  0.1255 -0.3600  0.2603
    7MOL0     C  832   8.464  10.319  10.169  0.0894  0.1405 -0.3071
    7MOL0     C  833   8.421  10.215  10.084  0.6103  0.5249  0.1890
    7MOL0     C  834   8.490  10.184   9.970  0.3945  1.3180 -0.3930
    7MOL0     C  835   8.592  10.254   9.927 -0.7220  0.3533  0.1254
    7MOL0     O  836   8.654  10.231   9.812 -0.6620  0.4759 -0.0156
    7MOL0     C  837   8.687  10.078   9.783  1.0090 -0.7917  0.0718
    7MOL0     C  838   8.616  10.009   9.660  0.6546  0.6638  1.0810
    7MOL0     C  839   8.703  10.028   9.532  0.3556 -0.0378 -0.7367
    7MOL0     C  840   8.720  10.185   9.509 -0.0453  0.2748  0.4198
    7MOL0     C  841   8.780  10.218   9.376  0.9156 -0.5850 -0.5376
    7MOL0     C  842   8.913  10.151   9.349  0.3141  0.3295 -0.5057
    7MOL0     C  843   8.967  10.178   9.197 -0.0015 -0.1819 -0.0334
    7MOL0     C  844   8.879  10.102   9.089  0.6730 -0.1753  0.5671
    7MOL0     N  845   8.882  10.191   8.974  0.4374  0.4322 -0.0652
    7MOL0     C  846   8.970  10.197   8.869 -0.0299  0.5619  0.6317
    7MOL0     C  847   8.931  10.300   8.783  0.4616 -0.2926  0.4351
    7MOL0     C  848   9.015  10.344   8.659 -0.0482 -0.0580 -0.2004
    7MOL0     C  849   8.937  10.437   8.569 -0.1859  0.8688 -0.4351
    7MOL0     C  850   8.989  10.457   8.430 -0.5321  0.6045  0.6113
    7MOL0     C  851   9.128  10.512   8.418  0.4734  0.4171 -0.1445
    7MOL0     O  852   9.135  10.649   8.455  0.5033  0.0700  0.3648
    7MOL0     C  853   9.134  10.737   8.353 -0.1587 -0.5337  0.4790
    7MOL0     C  854   9.216  10.856   8.362  0.7420  0.1172  0.0569
    7MOL0     C  855   9.218  10.950   8.265 -0.4450 -0.1314  0.4715
    7MOL0     C  856   9.330  11.062   8.284  0.6582  0.5089  0.0235
    7MOL0     C  857   9.141  10.933   8.146  0.3068  0.6345  0.0676
    7MOL0     C  858   9.151  11.025   8.029  0.0677 -0.8005 -1.3480
    7MOL0     O  859   9.040  11.033   7.956 -0.6350  0.1296 -0.7411
    7MOL0     C  860   9.052  11.083   7.827 -0.6452  0.5663  0.7528
    7MOL0     C  861   9.029  11.221   7.807 -0.3826  0.4791 -0.5171
    7MOL0     C  862   9.034  11.268   7.678  0.6555 -0.2816  0.4871
    7MOL0     C  863   9.070  11.186   7.571  0.4463 -0.2368 -0.1803
    7MOL0     O  864   9.095  11.243   7.448 -0.9037 -0.3966 -0.3549
    7MOL0     C  865   9.187  11.358   7.452  0.3161  0.5886 -0.4854
    7MOL0     C  866   9.269  11.385   7.330 -0.1802 -0.6438 -0.4300
    7MOL0     C  867   9.180  11.409   7.203 -0.7207  0.2818  0.0360
    7MOL0     C  868   9.114  11.544   7.210 -0.3058 -0.2119 -0.2090
    7MOL0     C  869   9.050  11.583   7.083 -0.4631  0.0394 -0.0493
    7MOL0     C  870   9.045  11.731   7.080  0.5264 -0.4625 -0.3183
    7MOL0     C  871   8.945  11.762   6.962  0.7652  0.0270 -0.1140
    7MOL0     C  872   8.952  11.895   6.905  0.8507 -0.3046  0.2484
    7MOL0    Cl  873   8.830  11.919   6.761  0.2276 -0.3216 -0.0073
    7MOL0     C  874   9.082  11.051   7.597 -0.4164  0.3863  0.4299
    7MOL0     C  875   9.082  10.995   7.724  0.5348 -0.0406 -0.2309
    7MOL0     O  876   9.258  11.084   8.003  0.4375 -0.4784  0.5965
    7MOL0     C  877   9.063  10.815   8.138  0.4861  0.9772  0.3923
    7MOL0     C  878   9.060  10.714   8.239 -0.4246 -0.6240  0.2961
    7MOL0     N  879   8.809  10.356   8.843  0.5694 -0.0285  0.4144
    7MOL0     N  880   8.786  10.289   8.950  0.2036  0.0080 -0.1193
    7MOL0     C  881   8.647  10.354  10.009  0.0152 -1.0271  0.0606
    7MOL0     C  882   8.586  10.383  10.133 -0.5272  0.3941  0.7635
    7MOL0     C  883   8.314  10.476  10.466 -0.2519  0.0889  0.1483
    7MOL0     C  884   8.359  10.375  10.557  0.3327 -0.0704 -0.2076
    7MOL0     C  885   8.332  10.372  10.693 -0.0093  0.1839  0.3592
    7MOL0     C  886   8.256  10.471  10.745  0.4631  0.5799 -0.0432
    7MOL0     O  887   8.228  10.464  10.879 -0.1255 -0.1245 -0.8362
    7MOL0     C  888   8.340  10.466  10.958 -0.3716  0.0979  0.8991
    7MOL0     C  889   8.310  10.432  11.106  1.3855 -0.0846 -0.1532
    7MOL0     C  890   8.268  10.282  11.123 -0.4876 -0.4523  0.1169
    7MOL0     C  891   8.252  10.253  11.274 -0.4429 -0.2567 -0.6340
    7MOL0     C  892   8.165  10.133  11.272  0.3339  0.6492  0.2031
    7MOL0     C  893   8.092  10.035  11.284 -0.0126  0.0318 -0.0226
    7MOL0     C  894   8.212  10.575  10.661 -1.0757 -0.9551  0.2888
    7MOL0     C  895   8.240  10.577  10.522  0.1373 -0.5963 -0.7418
    7MOL0     C  896   8.192  10.698  10.453 -0.0735  0.2098  0.6074
    7MOL0     H  897   8.337  10.155  10.116 -1.2138  3.7543  1.8971
    7MOL0     H  898   8.446  10.120   9.894  0.2336  0.5909  0.3113
    7MOL0     H  899   8.663  10.011   9.867 -2.0145 -0.8424 -0.7132
    7MOL0     H  900   8.796  10.076   9.772  1.0843 -1.6225  0.8436
    7MOL0     H  901   8.589   9.904   9.671  1.6219  0.5465  2.6920
    7MOL0     H  902   8.522  10.062   9.643 -0.1622 -1.5176 -1.9757
    7MOL0     H  903   8.793   9.970   9.552 -0.8710 -1.5371  0.7289
    7MOL0     H  904   8.651   9.988   9.444 -0.7871 -1.4405  0.5119
    7MOL0     H  905   8.628  10.242   9.522  0.3956  1.7073 -2.1282
    7MOL0     H  906   8.777  10.224   9.594  0.0122 -2.9173  1.9880
    7MOL0     H  907   8.783  10.327   9.364 -0.6488 -0.0335  2.9525
    7MOL0     H  908   8.701  10.177   9.312  0.5988  0.7913 -1.0579
    7MOL0     H  909   8.989  10.196   9.413  3.3848 -2.4126 -1.9180
    7MOL0     H  910   8.916  10.042   9.363 -0.1531  0.4525  0.6657
    7MOL0     H  911   9.070  10.142   9.193  0.1968  0.3032  0.6389
    7MOL0     H  912   8.970  10.286   9.186 -0.8359 -0.0690  0.7669
    7MOL0     H  913   8.924  10.008   9.057  0.8886 -1.6005  4.5140
    7MOL0     H  914   8.778  10.088   9.127  0.6234  0.1117  0.5478
    7MOL0     H  915   9.058  10.137   8.849 -0.9497 -1.1118  1.3688
    7MOL0     H  916   9.044  10.260   8.595 -0.9902 -0.8990  0.4329
    7MOL0     H  917   9.105  10.399   8.690 -0.3192  1.5742 -2.0990
    7MOL0     H  918   8.838  10.391   8.558 -0.3767  1.0904  0.2854
    7MOL0     H  919   8.920  10.532   8.620 -1.7051 -0.2591  1.3172
    7MOL0     H  920   8.994  10.363   8.375 -2.2636  1.9334 -2.0746
    7MOL0     H  921   8.910  10.506   8.371  0.8412 -0.0607 -1.9352
    7MOL0     H  922   9.187  10.461   8.494 -1.3617 -1.1013  0.3639
    7MOL0     H  923   9.165  10.493   8.317  2.7135 -1.6338  0.9581
    7MOL0     H  924   9.287  10.868   8.443  3.7766 -0.5732 -2.3092
    7MOL0     H  925   9.382  11.043   8.379 -0.1843  2.0810  0.8371
    7MOL0     H  926   9.278  11.158   8.272 -2.2963 -0.8238  1.1385
    7MOL0     H  927   9.402  11.066   8.202 -0.2838  1.3485 -0.8011
    7MOL0     H  928   9.025  11.292   7.889 -2.2085  1.6297 -1.5238
    7MOL0     H  929   9.010  11.370   7.652 -1.4010 -0.5134  1.2969
    7MOL0     H  930   9.136  11.454   7.467  1.7468  1.4126 -0.7841
    7MOL0     H  931   9.261  11.359   7.533  0.0736  1.4491 -0.2674
    7MOL0     H  932   9.339  11.469   7.330  0.1314 -0.7403 -4.1721
    7MOL0     H  933   9.334  11.303   7.298 -0.4740 -1.2123  0.3938
    7MOL0     H  934   9.114  11.322   7.192  1.4429 -1.5517  0.6543
    7MOL0     H  935   9.239  11.401   7.111 -1.6932 -0.8750 -0.5167
    7MOL0     H  936   9.186  11.622   7.237  1.0075 -0.5511 -2.4331
    7MOL0     H  937   9.037  11.553   7.287 -1.2035  3.4417 -1.3425
    7MOL0     H  938   9.105  11.549   6.995  1.6764  1.8878  0.4662
    7MOL0     H  939   8.952  11.539   7.061 -0.9674  1.7429 -1.5199
    7MOL0     H  940   9.136  11.783   7.048 -0.3454  1.9146  0.7975
    7MOL0     H  941   9.021  11.782   7.174  1.9570 -2.0221  0.9548
    7MOL0     H  942   8.844  11.755   7.003  1.7221 -1.5846  2.1418
    7MOL0     H  943   8.958  11.686   6.884 -2.7988 -0.7439 -0.1089
    7MOL0     H  944   9.052  11.905   6.861  0.2855  0.1278 -1.0049
    7MOL0     H  945   8.937  11.973   6.980 -1.7935 -1.6491  1.2599
    7MOL0     H  946   9.108  10.993   7.509 -0.0209  0.9681  0.1573
    7MOL0     H  947   9.096  10.888   7.736  3.5523  0.0525 -1.8711
    7MOL0     H  948   8.990  10.780   8.067 -1.0007 -1.5152  2.9159
    7MOL0     H  949   8.986  10.636   8.229  1.4163 -2.2335 -1.9934
    7MOL0     H  950   8.729  10.402   9.957  1.1139 -3.0241 -0.1502
    7MOL0     H  951   8.630  10.445  10.210 -2.9562  1.7880  1.1338
    7MOL0     H  952   8.426  10.299  10.519  0.1388 -0.1731 -0.3451
    7MOL0     H  953   8.372  10.295  10.759  1.3144  1.2612  0.8709
    7MOL0     H  954   8.415  10.396  10.919  2.8657  2.8585  1.7179
    7MOL0     H  955   8.382  10.566  10.951 -0.4090  0.0441 -4.8019
    7MOL0     H  956   8.239  10.499  11.155  1.1164  0.0001 -0.6530
    7MOL0     H  957   8.399  10.453  11.165  0.6902  0.3590  0.7613
    7MOL0     H  958   8.176  10.265  11.065 -2.5685 -2.1674  3.5594
    7MOL0     H  959   8.352  10.223  11.087  0.1429 -0.4258  1.4909
    7MOL0     H  960   8.213  10.341  11.326 -0.5834 -0.7945  0.1866
    7MOL0     H  961   8.351  10.236  11.316 -0.2851 -2.2258 -1.6511
    7MOL0     H  962   8.042   9.942  11.301  0.0376  0.4619  3.0402
    7MOL0     H  963   8.159  10.654  10.714 -0.9948 -1.5862  1.3428
    7MOL0     H  964   8.272  10.772  10.444 -1.6879  1.8702 -0.7262
    7MOL0     H  965   8.163  10.681  10.349  0.3312 -0.1707  0.5573
    7MOL0     H  966   8.107  10.757  10.489  1.4323  2.9570 -0.0473
    8MOL0     O  967   0.428   9.811   0.390  0.1819  0.3079 -0.5415
    8MOL0     C  968   0.350   9.789   0.299  0.1662 -0.0713 -0.3993
    8MOL0     O  969   0.383   9.734   0.179 -0.4833 -0.3549 -0.3597
    8MOL0     C  970   0.510   9.716   0.140  0.2668  0.3320  0.2122
    8MOL0     C  971   0.623   9.789   0.180 -0.1593  0.1506 -0.4991
    8MOL0     C  972   0.747   9.745   0.128  0.5612  0.0841  0.4250
    8MOL0     C  973   0.758   9.641   0.045  0.3803 -1.0027  0.2502
    8MOL0     O  974   0.892   9.612   0.026 -0.5474 -0.4218  0.1832
    8MOL0     C  975   0.959   9.532  -0.071  0.1110  0.1286  1.2521
    8MOL0     C  976   1.096   9.486  -0.018  1.0494  0.2346 -0.4640
    8MOL0     C  977   1.074   9.340   0.049  0.2587 -0.5142  0.3752
    8MOL0     C  978   1.200   9.266   0.056 -0.2159 -0.1295 -0.7995
    8MOL0     C  979   1.270   9.274   0.190  0.2526  0.5092  0.5016
    8MOL0     C  980   1.413   9.220   0.192 -0.3177 -0.3362  0.6366
    8MOL0     C  981   1.528   9.312   0.122 -0.0214  0.2865  0.7962
    8MOL0     C  982   1.546   9.455   0.158  0.1862  0.3030  0.3685
    8MOL0     N  983   1.569   9.483   0.300  0.5592  0.1271  0.1520
    8MOL0     C  984   1.478   9.522   0.395 -1.0080 -0.6874  0.1406
    8MOL0     C  985   1.549   9.549   0.511  0.0025 -0.5260 -0.0212
    8MOL0     C  986   1.495   9.616   0.643 -0.2831  1.0218 -0.1103
    8MOL0     C  987   1.591   9.605   0.750 -0.0549  0.0842  1.0482
    8MOL0     C  988   1.536   9.670   0.877  0.4523  0.8351 -0.4359
    8MOL0     C  989   1.624   9.627   0.998  0.2457  0.2015  0.5475
    8MOL0     O  990   1.769   9.630   0.963 -0.1757  0.4547  0.5448
    8MOL0     C  991   1.848   9.662   1.066 -0.2440 -0.7529 -0.3529
    8MOL0     C  992   1.966   9.726   1.025 -0.7444 -0.5759 -0.3458
    8MOL0     C  993   2.071   9.748   1.125  0.1415  0.5788 -0.0551
    8MOL0     C  994   2.186   9.842   1.087  0.2611 -0.3321  0.2931
    8MOL0     C  995   2.079   9.684   1.257 -0.9508  0.7689  0.6643
    8MOL0     C  996   2.177   9.710   1.363 -0.8318 -0.1333 -0.5462
    8MOL0     O  997   2.149   9.656   1.485  0.5786 -0.2902 -0.5385
    8MOL0     C  998   2.227   9.678   1.603  0.1013  0.3694 -0.8751
    8MOL0     C  999   2.367   9.685   1.598  0.4419  0.0331  0.1912
    8MOL0     C 1000   2.445   9.707   1.713 -0.4531 -0.0449  0.7383
    8MOL0     C 1001   2.377   9.711   1.841  0.6022  0.1073  0.3382
    8MOL0     O 1002   2.455   9.732   1.943 -0.2274 -0.4824 -0.3682
    8MOL0     C 1003   2.480   9.610   2.015  0.0930 -0.5334  0.6368
    8MOL0     C 1004   2.593   9.514   1.960  0.2048  0.2275  0.2697
    8MOL0     C 1005   2.653   9.415   2.067 -0.0692  0.3969  0.0977
    8MOL0     C 1006   2.787   9.348   2.024  0.5844 -0.6230 -0.2100
    8MOL0     C 1007   2.837   9.233   2.121 -0.5827 -0.7611 -0.4847
    8MOL0     C 1008   2.883   9.311   2.244 -0.5511  0.9445  0.8307
    8MOL0     C 1009   2.906   9.209   2.365  0.2793 -0.6454 -0.0702
    8MOL0     C 1010   2.994   9.260   2.487 -0.3513 -0.1712  0.0890
    8MOL0    Cl 1011   2.940   9.425   2.550  0.0536  0.4028 -0.0037
    8MOL0     C 1012   2.234   9.704   1.849  0.3165  0.1930  0.6299
    8MOL0     C 1013   2.164   9.695   1.727  0.0081  0.0152 -0.3394
    8MOL0     O 1014   2.281   9.784   1.336  0.9955  0.5129 -0.2533
    8MOL0     C 1015   1.954   9.615   1.287 -0.3497 -0.5071  1.0078
    8MOL0     C 1016   1.845   9.606   1.198 -0.6844 -0.0033  0.3100
    8MOL0     N 1017   1.675   9.523   0.481  0.6153 -0.0302 -0.1429
    8MOL0     N 1018   1.689   9.483   0.365  0.0197 -0.4008 -0.1427
    8MOL0     C 1019   0.648   9.562   0.008 -0.5446 -0.4364 -0.0177
    8MOL0     C 1020   0.520   9.606   0.056 -1.4305  0.4716  0.2308
    8MOL0     C 1021   0.211   9.796   0.342  0.0761  0.8824  0.5407
    8MOL0     C 1022   0.128   9.715   0.256 -0.3561  0.2730 -0.5430
    8MOL0     C 1023  -0.009   9.717   0.274 -0.3609  0.2438  0.3231
    8MOL0     C 1024  -0.069   9.809   0.360 -0.2803 -0.4529 -0.0554
    8MOL0     O 1025  -0.210   9.799   0.380 -0.3052 -0.1881  0.9006
    8MOL0     C 1026  -0.271   9.885   0.482  0.6895  0.1170 -1.2674
    8MOL0     C 1027  -0.306  10.026   0.448  0.3219 -0.4725  0.1219
    8MOL0     C 1028  -0.367  10.093   0.574 -0.5459 -0.4170  0.7312
    8MOL0     C 1029  -0.269  10.174   0.652 -0.4906  0.0640  0.3796
    8MOL0     C 1030  -0.159  10.104   0.714 -0.4504 -0.2398 -0.5777
    8MOL0     C 1031  -0.070  10.037   0.768  0.3914  0.0973  0.4504
    8MOL0     C 1032   0.021   9.886   0.448 -0.2605 -1.4167  0.7775
    8MOL0     C 1033   0.162   9.883   0.436 -0.2252  0.0664 -0.5652
    8MOL0     C 1034   0.238   9.948   0.546 -0.3305 -0.5039 -0.2059
    8MOL0     H 1035   0.616   9.873   0.248  0.2438 -0.5013  0.3633
    8MOL0     H 1036   0.832   9.804   0.160 -0.2695  2.9318 -2.1071
    8MOL0     H 1037   0.981   9.597  -0.157  1.9855 -1.1467  0.7080
    8MOL0     H 1038   0.908   9.442  -0.108  3.3749 -0.3563 -2.8686
    8MOL0     H 1039   1.174   9.488  -0.094 -1.6035 -0.4008 -3.4163
    8MOL0     H 1040   1.129   9.553   0.063  0.5606 -0.8112  0.6244
    8MOL0     H 1041   1.024   9.339   0.146  0.4731  2.9143  0.6156
    8MOL0     H 1042   1.008   9.286  -0.020 -1.6321  0.7669  1.1188
    8MOL0     H 1043   1.184   9.159   0.040  0.6347 -0.7335  1.8493
    8MOL0     H 1044   1.267   9.307  -0.019 -1.3615 -0.9006 -2.2905
    8MOL0     H 1045   1.204   9.225   0.262 -0.1120  2.5433  1.6463
    8MOL0     H 1046   1.274   9.377   0.228 -2.3345  0.0622  2.2004
    8MOL0     H 1047   1.448   9.212   0.295  0.2096  0.9851  0.5806
    8MOL0     H 1048   1.426   9.118   0.155 -0.4418 -1.8637  4.3319
    8MOL0     H 1049   1.518   9.305   0.014 -1.8552  1.3506  0.8625
    8MOL0     H 1050   1.620   9.262   0.155  0.5501  1.2969  0.7713
    8MOL0     H 1051   1.632   9.492   0.101  0.2229  0.3443  0.4503
    8MOL0     H 1052   1.456   9.508   0.127 -0.6364  0.6212  3.0344
    8MOL0     H 1053   1.374   9.549   0.378 -0.6079 -0.6966 -2.7820
    8MOL0     H 1054   1.397   9.574   0.663  1.3132 -6.1452 -3.7897
    8MOL0     H 1055   1.495   9.720   0.610  2.3860  0.3726 -2.6489
    8MOL0     H 1056   1.607   9.498   0.765  3.7709  0.5202  1.1777
    8MOL0     H 1057   1.687   9.653   0.728  2.1742 -2.5174  4.0444
    8MOL0     H 1058   1.533   9.778   0.864 -0.1591  1.0677  1.2990
    8MOL0     H 1059   1.435   9.634   0.902  0.9521  1.1849  2.4628
    8MOL0     H 1060   1.603   9.702   1.075  0.3566 -2.7475  3.6750
    8MOL0     H 1061   1.595   9.526   1.028 -0.8820 -0.2132 -1.7352
    8MOL0     H 1062   1.964   9.771   0.927  0.0815 -2.7160 -1.4149
    8MOL0     H 1063   2.169   9.896   0.993  2.1433 -0.8428 -0.3769
    8MOL0     H 1064   2.288   9.802   1.084  1.1680  1.8145  0.0307
    8MOL0     H 1065   2.199   9.921   1.162  1.8530 -0.0719 -0.2088
    8MOL0     H 1066   2.409   9.673   1.498  0.8354  3.5775 -0.1936
    8MOL0     H 1067   2.553   9.714   1.711 -0.3626 -1.2334  1.3144
    8MOL0     H 1068   2.506   9.649   2.114 -0.1642  0.9419  0.1531
    8MOL0     H 1069   2.392   9.546   2.027  0.0272 -0.7685 -0.9088
    8MOL0     H 1070   2.552   9.466   1.870 -2.3303  0.1452  1.3724
    8MOL0     H 1071   2.669   9.581   1.919  0.2283  0.1753  0.2274
    8MOL0     H 1072   2.575   9.342   2.092  0.6232  0.0022  1.1621
    8MOL0     H 1073   2.653   9.472   2.160  0.4877 -0.2546  0.5061
    8MOL0     H 1074   2.863   9.426   2.016  1.7622 -1.8398 -1.5495
    8MOL0     H 1075   2.773   9.308   1.923  0.8463 -1.8676  0.2301
    8MOL0     H 1076   2.760   9.156   2.125  0.3309 -1.9647 -3.3293
    8MOL0     H 1077   2.923   9.176   2.085 -1.3895 -1.8105 -0.8146
    8MOL0     H 1078   2.810   9.388   2.270  1.1889  2.7128  0.7579
    8MOL0     H 1079   2.976   9.363   2.217 -0.0930  0.2431  1.0328
    8MOL0     H 1080   2.932   9.110   2.327  0.4303 -0.9176  0.7290
    8MOL0     H 1081   2.801   9.214   2.397  0.1762 -0.7198 -0.3933
    8MOL0     H 1082   3.102   9.265   2.470  0.7830 -0.4781  5.3145
    8MOL0     H 1083   2.993   9.180   2.561  0.3351  0.6191  0.9859
    8MOL0     H 1084   2.181   9.712   1.943 -1.6273  2.3383 -0.5390
    8MOL0     H 1085   2.056   9.699   1.723  0.0783  1.6137 -1.6183
    8MOL0     H 1086   1.951   9.572   1.387  0.0254 -2.2220  0.3081
    8MOL0     H 1087   1.756   9.551   1.226  0.9223 -2.8965  0.1468
    8MOL0     H 1088   0.654   9.484  -0.067  1.0358 -2.8029  2.4092
    8MOL0     H 1089   0.433   9.564   0.006 -0.2023 -3.1986  0.8543
    8MOL0     H 1090   0.165   9.651   0.177  2.3733 -0.4401  1.1487
    8MOL0     H 1091  -0.049   9.647   0.201  1.1562 -0.6797  0.3390
    8MOL0     H 1092  -0.351   9.820   0.518  2.7174 -1.8194 -0.0139
    8MOL0     H 1093  -0.217   9.871   0.576 -0.7049 -0.3177 -0.4923
    8MOL0     H 1094  -0.378  10.013   0.366  2.3329 -0.7804 -1.6824
    8MOL0     H 1095  -0.223  10.086   0.410  1.3558 -1.9375 -0.0219
    8MOL0     H 1096  -0.446  10.157   0.532  0.4981  1.3977  1.4152
    8MOL0     H 1097  -0.431  10.021   0.626  0.6558 -1.9251  0.1839
    8MOL0     H 1098  -0.327  10.207   0.739 -2.5079 -2.8896  0.2863
    8MOL0     H 1099  -0.231  10.253   0.586 -2.5512 -0.8628 -2.0944
    8MOL0     H 1100   0.009  10.006   0.833  0.9698  2.3965  0.9652
    8MOL0     H 1101  -0.020   9.949   0.527  0.3232  1.5769 -1.1367
    8MOL0     H 1102   0.177  10.009   0.614 -0.0073 -2.9116  2.4394
    8MOL0     H 1103   0.298   9.875   0.602  2.8943  2.3013  0.3579
    8MOL0     H 1104   0.305  10.030   0.517 -0.3270  0.1151  1.3880
    9MOL0     O 1105   0.002   5.965   5.535 -0.0932 -0.0318  0.0295
    9MOL0     C 1106   0.021   5.886   5.619  0.3751  0.7206 -0.6453
    9MOL0     O 1107   0.112   5.901   5.721  0.6593 -0.2129 -0.4794
    9MOL0     C 1108   0.189   6.010   5.712  0.1134 -0.3824  0.1180
    9MOL0     C 1109   0.200   6.098   5.825  0.4831 -0.2348  0.2515
    9MOL0     C 1110   0.300   6.185   5.840 -0.8929 -0.6226  0.8113
    9MOL0     C 1111   0.402   6.198   5.738  0.8976  0.2685 -0.4460
    9MOL0     O 1112   0.496   6.302   5.740  0.2595  0.2687  0.1068
    9MOL0     C 1113   0.479   6.422   5.825 -0.0175 -0.6174 -0.0122
    9MOL0     C 1114   0.352   6.499   5.781  0.2374 -0.0664  0.7633
    9MOL0     C 1115   0.294   6.600   5.873  0.0686  0.0483  0.1537
    9MOL0     C 1116   0.190   6.528   5.965 -0.7446 -0.3404 -0.5511
    9MOL0     C 1117   0.112   6.628   6.065 -1.6724  0.2251  0.2478
    9MOL0     C 1118   0.036   6.748   6.016 -0.5937  0.0519  0.5194
    9MOL0     C 1119  -0.055   6.805   6.125  0.0574 -0.3577  0.7970
    9MOL0     C 1120  -0.192   6.727   6.140  0.1856 -0.5949 -0.2136
    9MOL0     N 1121  -0.293   6.795   6.228  0.2668  0.5921  0.1999
    9MOL0     C 1122  -0.284   6.825   6.359 -0.9132 -0.4129 -0.0326
    9MOL0     C 1123  -0.405   6.863   6.399  0.0430 -0.5516  0.5939
    9MOL0     C 1124  -0.433   6.907   6.542 -0.4767  0.0399  0.0056
    9MOL0     C 1125  -0.547   7.010   6.532 -0.4244 -0.4187 -0.7023
    9MOL0     C 1126  -0.565   7.086   6.664 -0.7683  1.1888 -0.6954
    9MOL0     C 1127  -0.695   7.163   6.665  0.3130  0.4683 -0.2894
    9MOL0     O 1128  -0.664   7.282   6.591  0.7122 -0.0229 -0.0995
    9MOL0     C 1129  -0.760   7.355   6.535 -0.3432 -0.2666 -0.4890
    9MOL0     C 1130  -0.889   7.312   6.502  0.5875 -0.1284 -0.0871
    9MOL0     C 1131  -0.979   7.401   6.444 -0.0835  0.0639  0.3662
    9MOL0     C 1132  -1.121   7.352   6.411 -0.3879  0.1588 -0.5588
    9MOL0     C 1133  -0.946   7.534   6.414 -0.1477  0.0353  0.5261
    9MOL0     C 1134  -1.039   7.633   6.350  0.3463  0.6047 -0.4398
    9MOL0     O 1135  -0.972   7.729   6.288 -0.5763 -0.4622  0.0288
    9MOL0     C 1136  -1.045   7.831   6.241 -0.3387 -0.0627  1.3247
    9MOL0     C 1137  -1.162   7.818   6.160 -1.0108 -1.0370  0.7201
    9MOL0     C 1138  -1.248   7.926   6.128  0.3245  0.6188 -0.0727
    9MOL0     C 1139  -1.211   8.053   6.159 -0.7703  0.3295 -0.4070
    9MOL0     O 1140  -1.281   8.161   6.122  0.5058 -0.4925 -0.4041
    9MOL0     C 1141  -1.400   8.173   6.200 -0.5785 -0.4572 -0.1523
    9MOL0     C 1142  -1.463   8.318   6.200  0.0185  1.0027 -0.3619
    9MOL0     C 1143  -1.569   8.329   6.316  0.6432  0.2528 -0.4676
    9MOL0     C 1144  -1.508   8.355   6.444 -0.0213  0.1366  0.3296
    9MOL0     C 1145  -1.607   8.361   6.559 -0.2860  0.6570  0.0029
    9MOL0     C 1146  -1.528   8.410   6.688 -0.5922  0.3702 -0.5873
    9MOL0     C 1147  -1.627   8.482   6.784 -0.5727 -0.1341 -0.4134
    9MOL0     C 1148  -1.564   8.526   6.923  0.7685 -0.1387  0.1649
    9MOL0    Cl 1149  -1.441   8.643   6.928 -0.2655  0.1356 -0.0497
    9MOL0     C 1150  -1.087   8.070   6.223  0.4093 -0.3193  0.6340
    9MOL0     C 1151  -1.005   7.963   6.267  0.5919 -0.5277  0.6685
    9MOL0     O 1152  -1.158   7.630   6.380 -0.6135  0.4540  0.4751
    9MOL0     C 1153  -0.811   7.572   6.448 -0.4114  0.0724 -0.5676
    9MOL0     C 1154  -0.719   7.483   6.501  0.1054  0.2101 -0.8460
    9MOL0     N 1155  -0.495   6.848   6.290  0.3547 -0.1576  0.9423
    9MOL0     N 1156  -0.422   6.806   6.192 -0.1709 -0.0071  0.0781
    9MOL0     C 1157   0.390   6.119   5.631 -0.0677  0.1035 -0.0018
    9MOL0     C 1158   0.284   6.031   5.612  1.3391  0.5354 -0.8136
    9MOL0     C 1159  -0.065   5.767   5.614  0.0554  0.6953  0.7151
    9MOL0     C 1160  -0.150   5.744   5.497  1.0837 -0.0008 -0.5302
    9MOL0     C 1161  -0.237   5.640   5.474 -0.7481 -0.7318  0.1986
    9MOL0     C 1162  -0.239   5.540   5.571 -0.0539  0.7879 -0.3766
    9MOL0     O 1163  -0.325   5.441   5.531  0.4756  0.2667  0.0905
    9MOL0     C 1164  -0.320   5.304   5.584  0.3874 -0.2000  0.7427
    9MOL0     C 1165  -0.467   5.257   5.561  0.3809  0.4868  0.0765
    9MOL0     C 1166  -0.462   5.108   5.542  0.3605 -0.1922 -0.1141
    9MOL0     C 1167  -0.421   5.007   5.655 -0.5976 -0.5960 -0.3176
    9MOL0     C 1168  -0.278   5.007   5.682 -0.2958 -0.4303  0.3269
    9MOL0     C 1169  -0.156   5.009   5.694 -0.4595  0.0586  0.4047
    9MOL0     C 1170  -0.163   5.556   5.690  0.0143 -0.2824 -0.1692
    9MOL0     C 1171  -0.087   5.665   5.716 -0.1539  0.3394  0.0204
    9MOL0     C 1172  -0.021   5.685   5.851 -0.3560 -0.1154 -0.6147
    9MOL0     H 1173   0.135   6.079   5.910  2.3700  2.4915  2.4915
    9MOL0     H 1174   0.290   6.257   5.921 -0.9094  1.0016 -0.5541
    9MOL0     H 1175   0.564   6.490   5.812  1.5911 -2.2077  1.4995
    9MOL0     H 1176   0.478   6.409   5.934  1.7346  0.7316  0.2170
    9MOL0     H 1177   0.391   6.532   5.685  0.9958 -4.9143 -0.8641
    9MOL0     H 1178   0.275   6.428   5.751  1.5965 -1.1050 -0.4090
    9MOL0     H 1179   0.372   6.649   5.931 -0.0067 -0.9216  1.1041
    9MOL0     H 1180   0.244   6.672   5.807 -1.5229 -1.5946 -0.5215
    9MOL0     H 1181   0.121   6.461   5.914 -1.1818 -1.8556  1.8518
    9MOL0     H 1182   0.258   6.471   6.030  1.5653  0.4286 -2.1997
    9MOL0     H 1183   0.181   6.665   6.141  0.6862  1.5547 -2.3643
    9MOL0     H 1184   0.047   6.560   6.122  0.4371  0.0559  2.5718
    9MOL0     H 1185   0.118   6.816   5.991  1.7859 -3.2271 -1.5361
    9MOL0     H 1186  -0.012   6.728   5.920  1.1620 -2.5964  0.0768
    9MOL0     H 1187  -0.079   6.909   6.099 -3.1988 -1.2490 -0.3011
    9MOL0     H 1188  -0.008   6.805   6.224 -0.6633 -4.3117  1.2832
    9MOL0     H 1189  -0.237   6.706   6.043 -1.2570 -6.3573  1.2886
    9MOL0     H 1190  -0.160   6.629   6.177  2.2688  0.4101  0.8416
    9MOL0     H 1191  -0.198   6.812   6.423 -0.5362 -2.4926 -0.8971
    9MOL0     H 1192  -0.343   6.944   6.594 -1.1307  1.5371  0.1326
    9MOL0     H 1193  -0.484   6.828   6.598 -1.6444  0.3450 -0.5950
    9MOL0     H 1194  -0.525   7.084   6.455 -0.3307  2.4590  1.9281
    9MOL0     H 1195  -0.642   6.961   6.507 -0.6149 -0.6548  0.4474
    9MOL0     H 1196  -0.576   7.011   6.744  0.5737  1.2150 -0.4664
    9MOL0     H 1197  -0.472   7.133   6.697  1.1916 -3.3848  1.1823
    9MOL0     H 1198  -0.772   7.098   6.623  1.9776 -2.3299  0.7344
    9MOL0     H 1199  -0.726   7.186   6.767 -2.9010 -0.3656 -0.9858
    9MOL0     H 1200  -0.937   7.221   6.535  1.5229  0.2057  2.4076
    9MOL0     H 1201  -1.197   7.385   6.482 -1.1953  0.2586 -1.4511
    9MOL0     H 1202  -1.123   7.244   6.393  1.1421 -0.2836  1.5589
    9MOL0     H 1203  -1.151   7.397   6.316  4.2538  1.0205 -1.9059
    9MOL0     H 1204  -1.201   7.725   6.122  1.2556 -1.3845 -0.9897
    9MOL0     H 1205  -1.335   7.895   6.073  0.4751  1.8587 -1.0635
    9MOL0     H 1206  -1.478   8.098   6.186 -0.8190  0.1098 -2.1100
    9MOL0     H 1207  -1.368   8.167   6.304 -1.9384 -2.9047  0.1845
    9MOL0     H 1208  -1.394   8.403   6.208 -2.2357  2.9184 -0.3340
    9MOL0     H 1209  -1.523   8.341   6.112 -1.9529  1.6632  1.0993
    9MOL0     H 1210  -1.639   8.246   6.326 -2.3138  2.5326 -0.7874
    9MOL0     H 1211  -1.642   8.409   6.298  0.6938  0.0028 -1.8630
    9MOL0     H 1212  -1.462   8.454   6.435 -3.5972  1.9266 -0.4773
    9MOL0     H 1213  -1.433   8.278   6.465 -0.1968  0.3567  1.8824
    9MOL0     H 1214  -1.689   8.429   6.531 -0.5312  0.2042 -0.3971
    9MOL0     H 1215  -1.644   8.258   6.555 -0.3234  0.7084 -2.2842
    9MOL0     H 1216  -1.442   8.467   6.653  0.6751 -1.0241  0.1624
    9MOL0     H 1217  -1.491   8.317   6.730 -2.4872 -1.5436 -2.8699
    9MOL0     H 1218  -1.718   8.422   6.791  0.8891 -2.7504 -2.4023
    9MOL0     H 1219  -1.646   8.578   6.734 -1.0206  0.4496  0.8319
    9MOL0     H 1220  -1.539   8.429   6.968  0.5496 -1.3930 -2.2644
    9MOL0     H 1221  -1.655   8.552   6.977 -0.4367  0.6334 -2.1067
    9MOL0     H 1222  -1.059   8.173   6.248 -1.2012 -0.4896  3.5344
    9MOL0     H 1223  -0.909   7.974   6.317 -0.1763 -0.0982  2.0930
    9MOL0     H 1224  -0.794   7.677   6.430 -1.7990  0.1506 -1.5384
    9MOL0     H 1225  -0.618   7.518   6.520 -0.5852  1.1654  1.4229
    9MOL0     H 1226   0.457   6.126   5.546  0.0110 -4.5607 -0.6337
    9MOL0     H 1227   0.278   5.979   5.517 -0.9584 -2.8416  0.9706
    9MOL0     H 1228  -0.135   5.806   5.409 -1.3013 -0.2975 -1.2097
    9MOL0     H 1229  -0.292   5.628   5.382 -0.0689  1.5476 -0.5738
    9MOL0     H 1230  -0.245   5.246   5.530 -0.9630 -1.7307  0.4524
    9MOL0     H 1231  -0.294   5.304   5.690 -0.5637  0.5647  0.9879
    9MOL0     H 1232  -0.511   5.311   5.476 -1.8527  2.5703  2.4213
    9MOL0     H 1233  -0.536   5.276   5.643 -2.0701 -1.1448 -1.4964
    9MOL0     H 1234  -0.564   5.074   5.521  0.5954 -0.8682 -0.1676
    9MOL0     H 1235  -0.403   5.078   5.455  3.6784  2.1291  1.1222
    9MOL0     H 1236  -0.470   4.910   5.646 -0.8467 -0.3684 -1.5593
    9MOL0     H 1237  -0.464   5.052   5.745 -1.0901 -2.4876  0.4510
    9MOL0     H 1238  -0.050   5.015   5.679 -0.6728  1.6156 -0.7134
    9MOL0     H 1239  -0.174   5.482   5.769 -0.9812  0.8557  0.8002
    9MOL0     H 1240  -0.022   5.789   5.884  0.9366 -0.8578  2.0441
    9MOL0     H 1241  -0.072   5.613   5.916 -2.8501  1.2499 -0.9461
    9MOL0     H 1242   0.086   5.662   5.848 -0.0303  1.3548 -1.1844
   10MOL0     O 1243   4.565   6.008   3.362  0.1253  0.7191  0.4551
   10MOL0     C 1244   4.581   6.121   3.418 -0.2325  0.0103  0.6848
   10MOL0     O 1245   4.480   6.206   3.463 -0.6469  0.6074 -0.0469
   10MOL0     C 1246   4.349   6.152   3.437 -0.7259 -0.5214 -0.7631
   10MOL0     C 1247   4.271   6.086   3.533 -0.2941 -1.3073  0.0353
   10MOL0     C 1248   4.137   6.048   3.510  0.3836  0.4138  0.5268
   10MOL0     C 1249   4.078   6.081   3.394  0.4831 -0.7766  0.1167
   10MOL0     O 1250   3.945   6.062   3.378  0.3312 -0.3718  0.4145
   10MOL0     C 1251   3.850   6.041   3.479  0.2402 -0.2538 -0.0319
   10MOL0     C 1252   3.715   6.072   3.430  1.1268 -1.2008 -0.4698
   10MOL0     C 1253   3.622   6.079   3.552  0.1221  0.3655 -1.0358
   10MOL0     C 1254   3.506   6.169   3.534  0.7929  0.6672 -0.2509
   10MOL0     C 1255   3.546   6.312   3.562  0.6640  0.2957  1.2938
   10MOL0     C 1256   3.480   6.371   3.683  0.4685  0.0226 -0.6309
   10MOL0     C 1257   3.506   6.517   3.708  1.0349 -0.1455  1.0214
   10MOL0     C 1258   3.619   6.542   3.804  0.5955 -0.0749  0.4428
   10MOL0     N 1259   3.618   6.682   3.840  0.1904 -0.1875  0.3630
   10MOL0     C 1260   3.548   6.742   3.940 -0.5336  0.3599  0.2155
   10MOL0     C 1261   3.571   6.870   3.937  0.2094 -0.7676  0.2079
   10MOL0     C 1262   3.536   6.962   4.049 -0.2471 -0.0194  0.9328
   10MOL0     C 1263   3.443   7.080   4.005 -0.9159 -0.5269 -0.4300
   10MOL0     C 1264   3.423   7.194   4.111  0.0752  0.4127 -1.0581
   10MOL0     C 1265   3.375   7.315   4.038 -0.1441  0.3748 -0.4439
   10MOL0     O 1266   3.481   7.370   3.958 -0.1116 -0.5505  0.4314
   10MOL0     C 1267   3.579   7.439   4.025 -0.5504  0.5426  0.5234
   10MOL0     C 1268   3.603   7.489   4.152 -0.5257 -0.4351 -0.1529
   10MOL0     C 1269   3.714   7.572   4.184  0.5884 -0.0480 -0.6325
   10MOL0     C 1270   3.729   7.613   4.325 -0.6743 -0.3172 -0.3605
   10MOL0     C 1271   3.808   7.593   4.087  0.8338 -0.3863  0.3094
   10MOL0     C 1272   3.929   7.685   4.106 -0.1062  0.1379 -0.0349
   10MOL0     O 1273   3.944   7.767   4.212 -0.7435  0.0239 -0.2025
   10MOL0     C 1274   4.072   7.795   4.254 -0.2880  0.4006  0.3507
   10MOL0     C 1275   4.096   7.927   4.290  0.8992  0.3006 -0.3858
   10MOL0     C 1276   4.217   7.976   4.342 -0.0745  0.4236 -0.4831
   10MOL0     C 1277   4.318   7.878   4.362  0.1403  0.1343  1.0524
   10MOL0     O 1278   4.441   7.911   4.412 -0.3163 -0.4170 -0.0199
   10MOL0     C 1279   4.515   7.846   4.515  0.3353 -0.1202 -0.0729
   10MOL0     C 1280   4.601   7.727   4.471 -0.1631 -0.3119  0.2502
   10MOL0     C 1281   4.702   7.740   4.350 -0.1175 -0.3559  0.5421
   10MOL0     C 1282   4.810   7.847   4.354 -0.4442 -0.0737  0.0620
   10MOL0     C 1283   4.905   7.838   4.241  0.7949 -0.1687 -0.0311
   10MOL0     C 1284   5.022   7.940   4.251 -0.3593  0.3414 -0.5506
   10MOL0     C 1285   5.101   7.891   4.372 -0.0770 -1.0016 -0.4607
   10MOL0     C 1286   5.253   7.919   4.362 -0.1791  1.5336 -0.7909
   10MOL0    Cl 1287   5.285   8.098   4.327 -0.0761 -0.0138 -0.1785
   10MOL0     C 1288   4.285   7.743   4.329  0.6845  0.5586 -0.3000
   10MOL0     C 1289   4.169   7.700   4.272 -0.9617 -0.5215  0.1078
   10MOL0     O 1290   4.008   7.670   4.011 -0.4940 -0.0347  0.7601
   10MOL0     C 1291   3.786   7.538   3.958 -0.1951 -0.0431 -0.2330
   10MOL0     C 1292   3.670   7.463   3.929 -0.5383 -0.8343  1.2203
   10MOL0     N 1293   3.662   6.893   3.832 -0.1792 -0.0094 -0.4816
   10MOL0     N 1294   3.684   6.780   3.779 -0.0499 -0.1715  0.1821
   10MOL0     C 1295   4.153   6.141   3.286  0.2050  0.3909  0.3570
   10MOL0     C 1296   4.288   6.177   3.312 -0.3156 -0.0192  0.2311
   10MOL0     C 1297   4.714   6.164   3.440 -0.3553 -0.0019 -0.2456
   10MOL0     C 1298   4.754   6.294   3.420 -0.5271 -1.0797  0.1311
   10MOL0     C 1299   4.889   6.327   3.414 -0.5519 -0.0916 -0.4294
   10MOL0     C 1300   4.989   6.236   3.444  0.2530  0.1969 -1.1787
   10MOL0     O 1301   5.122   6.274   3.447  0.1886 -0.1342  0.0675
   10MOL0     C 1302   5.165   6.413   3.435  0.1325 -0.3134  0.8848
   10MOL0     C 1303   5.313   6.419   3.406 -0.0884  0.2033  0.8462
   10MOL0     C 1304   5.362   6.351   3.275 -0.6689  0.1377 -0.7062
   10MOL0     C 1305   5.282   6.392   3.156 -0.1267 -0.8352 -0.8565
   10MOL0     C 1306   5.242   6.537   3.141  0.9426 -0.5607 -0.4954
   10MOL0     C 1307   5.217   6.648   3.114  0.1785 -0.5732  0.1120
   10MOL0     C 1308   4.950   6.111   3.477 -0.0444  0.8506 -0.1596
   10MOL0     C 1309   4.818   6.069   3.474 -0.1915 -0.1116  0.4207
   10MOL0     C 1310   4.796   5.917   3.499  0.3594 -0.3565  0.6200
   10MOL0     H 1311   4.316   6.055   3.627  0.0062  0.0982  0.3845
   10MOL0     H 1312   4.079   6.001   3.589 -0.8589  3.7924  1.8486
   10MOL0     H 1313   3.880   6.101   3.565 -0.0561  0.3419 -0.3384
   10MOL0     H 1314   3.854   5.935   3.506  2.5169  0.0205  0.9393
   10MOL0     H 1315   3.714   6.167   3.377  0.5189 -0.4428  0.8339
   10MOL0     H 1316   3.688   5.998   3.354 -2.7686  0.3534 -0.8777
   10MOL0     H 1317   3.596   5.974   3.571  1.0999  0.3684  0.5171
   10MOL0     H 1318   3.666   6.110   3.647  1.9751 -2.8835 -0.6703
   10MOL0     H 1319   3.466   6.160   3.433  3.0353  0.8455 -1.2104
   10MOL0     H 1320   3.430   6.138   3.607 -1.5386 -2.8082 -3.7444
   10MOL0     H 1321   3.504   6.373   3.482  1.4035 -2.1360 -1.0991
   10MOL0     H 1322   3.654   6.325   3.546  0.5785 -0.3605 -0.0051
   10MOL0     H 1323   3.372   6.360   3.667  0.5492  1.5461 -2.5326
   10MOL0     H 1324   3.504   6.311   3.771 -2.3031  0.6146  0.6306
   10MOL0     H 1325   3.427   6.561   3.770  0.2695  1.1400 -0.7907
   10MOL0     H 1326   3.496   6.567   3.611  0.2515 -2.0148  0.0773
   10MOL0     H 1327   3.600   6.487   3.897  0.6428 -1.4187 -0.3185
   10MOL0     H 1328   3.713   6.515   3.756  0.2306 -0.0036 -0.3232
   10MOL0     H 1329   3.491   6.696   4.020 -1.1653  2.3598  0.9769
   10MOL0     H 1330   3.624   7.006   4.097 -0.7808  2.4919 -0.2234
   10MOL0     H 1331   3.493   6.910   4.135  0.1075 -0.4308  0.8690
   10MOL0     H 1332   3.489   7.126   3.918  0.0721  1.7549  1.1827
   10MOL0     H 1333   3.348   7.036   3.973 -0.5415 -1.3298 -0.4628
   10MOL0     H 1334   3.356   7.144   4.181  0.7441 -1.7493 -1.8572
   10MOL0     H 1335   3.521   7.214   4.155  0.1219  0.1942 -1.0617
   10MOL0     H 1336   3.290   7.287   3.974  0.5336 -2.7515 -0.1217
   10MOL0     H 1337   3.344   7.391   4.110  1.9172  0.3815  0.4896
   10MOL0     H 1338   3.524   7.473   4.225 -0.4793  0.1170  0.0244
   10MOL0     H 1339   3.829   7.596   4.366 -0.3847  0.4102 -0.7439
   10MOL0     H 1340   3.678   7.558   4.404  1.5344 -0.5903  0.9610
   10MOL0     H 1341   3.717   7.719   4.350  1.9980  0.4808 -1.9663
   10MOL0     H 1342   4.016   8.000   4.288  2.3063  1.9756  0.6915
   10MOL0     H 1343   4.242   8.080   4.359 -3.1990  0.9630  1.5681
   10MOL0     H 1344   4.581   7.922   4.559 -0.8714  1.0544 -0.2226
   10MOL0     H 1345   4.444   7.827   4.596 -0.7370 -2.0993 -1.3800
   10MOL0     H 1346   4.652   7.691   4.561  2.4414 -0.2038 -1.0983
   10MOL0     H 1347   4.527   7.650   4.447 -1.3015 -0.2938  3.2198
   10MOL0     H 1348   4.642   7.756   4.260 -0.1632 -0.1856  0.6025
   10MOL0     H 1349   4.750   7.645   4.325 -1.7631 -1.1415  0.2187
   10MOL0     H 1350   4.856   7.835   4.452 -1.8470  1.0563  0.9043
   10MOL0     H 1351   4.760   7.945   4.356 -1.8814 -0.6783  4.2686
   10MOL0     H 1352   4.939   7.735   4.251  2.2907  0.3368  0.3024
   10MOL0     H 1353   4.866   7.869   4.143  1.8690  1.8009  0.1073
   10MOL0     H 1354   4.985   8.042   4.267 -1.1908 -0.1246  0.5986
   10MOL0     H 1355   5.095   7.935   4.169  1.4376  0.9217  0.9451
   10MOL0     H 1356   5.101   7.782   4.385 -0.2647 -1.0073 -0.5053
   10MOL0     H 1357   5.063   7.939   4.462 -1.1328  1.4296 -2.0851
   10MOL0     H 1358   5.303   7.869   4.279 -0.4206 -1.3134  0.6640
   10MOL0     H 1359   5.293   7.881   4.456 -0.8675  1.2730 -0.6011
   10MOL0     H 1360   4.366   7.672   4.339  0.3843  0.4873  2.1227
   10MOL0     H 1361   4.169   7.596   4.238 -3.4125 -0.6833  0.4149
   10MOL0     H 1362   3.851   7.551   3.872 -0.1343 -0.9017 -0.3326
   10MOL0     H 1363   3.662   7.436   3.824 -0.8666  2.7386  0.1995
   10MOL0     H 1364   4.089   6.167   3.202  0.4571  2.5278  0.7809
   10MOL0     H 1365   4.329   6.242   3.235  0.1099 -1.4413 -0.7748
   10MOL0     H 1366   4.690   6.373   3.382  1.8248 -0.9853 -4.2939
   10MOL0     H 1367   4.902   6.434   3.403 -1.4588  0.0013 -0.6049
   10MOL0     H 1368   5.117   6.472   3.357  1.0555 -1.4749 -0.6296
   10MOL0     H 1369   5.137   6.459   3.530 -2.0979  0.5405 -0.1292
   10MOL0     H 1370   5.355   6.375   3.497 -0.3324  0.2030  0.9597
   10MOL0     H 1371   5.349   6.522   3.390  0.8704  0.1743  2.5947
   10MOL0     H 1372   5.462   6.385   3.248 -2.4602  3.5726 -4.0253
   10MOL0     H 1373   5.366   6.241   3.280  2.5242  0.2097  1.0207
   10MOL0     H 1374   5.192   6.331   3.169 -0.8560  0.5712  1.1792
   10MOL0     H 1375   5.337   6.361   3.067  0.8624  0.6856 -0.8196
   10MOL0     H 1376   5.196   6.751   3.095 -3.1902 -1.4558 -1.8076
   10MOL0     H 1377   5.018   6.032   3.508 -1.9350 -1.2983 -1.1847
   10MOL0     H 1378   4.879   5.874   3.556  2.5730  1.9608 -0.6540
   10MOL0     H 1379   4.712   5.915   3.569  0.4141  2.3354  0.8489
   10MOL0     H 1380   4.777   5.867   3.403 -2.4844  1.9020 -0.1439
   11MOL0     O 1381  11.121   4.155  10.926  0.2656 -0.4408 -0.1727
   11MOL0     C 1382  11.105   4.086  10.826 -0.1682 -0.1989 -0.4450
   11MOL0     O 1383  11.185   4.090  10.708 -0.0877  0.2982 -0.0173
   11MOL0     C 1384  11.321   4.121  10.720  0.1908  0.1720 -0.2895
   11MOL0     C 1385  11.363   4.243  10.778 -0.9472  0.1281  0.3107
   11MOL0     C 1386  11.500   4.275  10.770  0.0690  1.0733 -0.6561
   11MOL0     C 1387  11.596   4.191  10.713  0.7298  0.6058 -0.2444
   11MOL0     O 1388  11.730   4.203  10.709  0.2166  0.4716 -0.6577
   11MOL0     C 1389  11.778   4.331  10.762 -0.5160  0.0387 -0.4027
   11MOL0     C 1390  11.928   4.340  10.755 -0.1084 -1.0211  0.1134
   11MOL0     C 1391  11.981   4.461  10.830  0.2256  0.6350  0.6355
   11MOL0     C 1392  12.080   4.541  10.752 -0.3075 -0.0881 -0.2811
   11MOL0     C 1393  12.147   4.654  10.838  1.1383 -0.0683  0.0032
   11MOL0     C 1394  12.209   4.758  10.748 -0.0259 -0.7436  0.4495
   11MOL0     C 1395  12.269   4.886  10.825 -0.6642  0.4084 -0.1621
   11MOL0     C 1396  12.338   4.984  10.731  0.1451  0.8843  0.6933
   11MOL0     N 1397  12.379   5.105  10.798 -0.7821  1.0450  0.2037
   11MOL0     C 1398  12.478   5.121  10.891 -0.4847  0.2424 -0.5882
   11MOL0     C 1399  12.468   5.251  10.919  0.0545 -0.2076  0.4935
   11MOL0     C 1400  12.523   5.314  11.039 -0.2007 -0.4434 -0.6281
   11MOL0     C 1401  12.495   5.472  11.032  0.3949 -0.0137  1.2752
   11MOL0     C 1402  12.548   5.548  11.148 -0.5398 -0.4375 -0.9045
   11MOL0     C 1403  12.516   5.700  11.147 -0.2477  0.2553 -0.5380
   11MOL0     O 1404  12.551   5.753  11.021  0.1846  0.5793  0.2908
   11MOL0     C 1405  12.532   5.883  10.996 -0.1474  0.1532  0.0408
   11MOL0     C 1406  12.468   5.979  11.076  1.3498 -1.6942 -0.4622
   11MOL0     C 1407  12.470   6.114  11.040  0.1178  0.6074  0.5983
   11MOL0     C 1408  12.394   6.216  11.131 -0.1948 -0.3279  0.3816
   11MOL0     C 1409  12.523   6.156  10.919  0.1741 -0.2783  0.2401
   11MOL0     C 1410  12.518   6.298  10.880  0.5383 -0.3068  0.0632
   11MOL0     O 1411  12.574   6.375  10.968 -0.2175  0.6200 -0.5427
   11MOL0     C 1412  12.559   6.509  10.953 -0.2666  0.7960 -1.0627
   11MOL0     C 1413  12.443   6.574  10.904  0.9137  1.3976 -0.7432
   11MOL0     C 1414  12.446   6.715  10.891  0.0023 -0.4668  0.9968
   11MOL0     C 1415  12.551   6.794  10.932  0.1774 -0.5131 -0.4368
   11MOL0     O 1416  12.560   6.932  10.923 -0.5530 -0.4730  0.2051
   11MOL0     C 1417  12.442   7.019  10.917  0.0089  1.3275  0.3125
   11MOL0     C 1418  12.434   7.102  10.792  0.0357  0.7909 -0.1025
   11MOL0     C 1419  12.466   7.022  10.660  1.2356 -0.4024  0.3900
   11MOL0     C 1420  12.436   7.122  10.541 -0.4823  0.7642  0.3823
   11MOL0     C 1421  12.510   7.054  10.422  0.4653  0.1236 -0.6511
   11MOL0     C 1422  12.539   7.143  10.297  0.0469 -1.0331  0.1510
   11MOL0     C 1423  12.614   7.072  10.186 -0.2058 -0.1492  0.7540
   11MOL0     C 1424  12.679   7.181  10.092 -0.2614  0.2573  0.0878
   11MOL0    Cl 1425  12.843   7.228  10.142 -0.2633 -0.1495  0.0760
   11MOL0     C 1426  12.661   6.730  10.992  0.0726  0.6954  0.1081
   11MOL0     C 1427  12.672   6.590  11.006  0.4890 -0.0735  0.0069
   11MOL0     O 1428  12.487   6.324  10.762 -0.0650  0.4725 -1.0355
   11MOL0     C 1429  12.590   6.063  10.846  0.1755  0.6210  0.0969
   11MOL0     C 1430  12.595   5.923  10.878 -0.5111 -0.4940 -0.2354
   11MOL0     N 1431  12.370   5.308  10.839 -0.5159 -0.4027 -0.3482
   11MOL0     N 1432  12.327   5.221  10.751 -0.6241 -0.2770 -0.2038
   11MOL0     C 1433  11.554   4.071  10.661  0.9919 -0.3213  0.5228
   11MOL0     C 1434  11.415   4.034  10.659 -0.3383 -0.1300 -0.5315
   11MOL0     C 1435  10.974   4.010  10.818  0.0951  0.3646 -0.2192
   11MOL0     C 1436  10.939   3.958  10.690 -0.5888 -0.0632  0.0005
   11MOL0     C 1437  10.819   3.888  10.668  0.2041 -0.5924 -0.4961
   11MOL0     C 1438  10.733   3.863  10.773 -1.3288  0.8349  0.1147
   11MOL0     O 1439  10.613   3.829  10.732 -0.2097 -0.8115 -0.1411
   11MOL0     C 1440  10.521   3.768  10.823 -0.2590  0.5218  0.7140
   11MOL0     C 1441  10.532   3.614  10.844 -0.7095 -0.0798 -0.2859
   11MOL0     C 1442  10.405   3.552  10.893  0.4358 -1.2715 -0.9743
   11MOL0     C 1443  10.338   3.617  11.019  0.3384 -0.5862  0.2523
   11MOL0     C 1444  10.439   3.632  11.125 -0.3509  0.4423  0.1166
   11MOL0     C 1445  10.514   3.658  11.221  0.3049  0.5483  0.8675
   11MOL0     C 1446  10.780   3.893  10.903 -0.2177 -0.1059  0.2637
   11MOL0     C 1447  10.895   3.966  10.928  0.1524  0.4627  0.1436
   11MOL0     C 1448  10.920   3.997  11.071  0.3519 -0.2428 -0.4603
   11MOL0     H 1449  11.292   4.312  10.821  0.9024  1.5546  1.2387
   11MOL0     H 1450  11.515   4.372  10.815  1.8491  0.3065  0.5206
   11MOL0     H 1451  11.744   4.346  10.865  0.6997 -0.2457  0.0609
   11MOL0     H 1452  11.740   4.404  10.690 -1.3954  0.8731  0.8500
   11MOL0     H 1453  11.959   4.253  10.812 -1.3255 -1.9020 -0.5250
   11MOL0     H 1454  11.960   4.335  10.650  2.4894 -0.1506  0.7936
   11MOL0     H 1455  11.903   4.526  10.870 -0.3981  0.6709 -0.5957
   11MOL0     H 1456  12.023   4.422  10.923 -0.1243  2.3127  1.5353
   11MOL0     H 1457  12.150   4.478  10.698 -0.7796 -0.9265  0.0604
   11MOL0     H 1458  12.014   4.594  10.683  0.3928  0.9186 -0.2060
   11MOL0     H 1459  12.215   4.613  10.913  3.6770  0.7296 -1.7402
   11MOL0     H 1460  12.063   4.701  10.890  0.4435  0.2167 -1.3496
   11MOL0     H 1461  12.281   4.716  10.677  1.3776  1.9389  0.1822
   11MOL0     H 1462  12.130   4.790  10.680  1.0135  2.0671  0.4419
   11MOL0     H 1463  12.340   4.853  10.901 -0.6080 -2.4296 -1.3525
   11MOL0     H 1464  12.194   4.940  10.885  0.3069  0.5381  0.9795
   11MOL0     H 1465  12.423   4.932  10.685 -1.7083 -1.2745 -0.4860
   11MOL0     H 1466  12.272   5.023  10.652  0.7984  0.5265 -0.0502
   11MOL0     H 1467  12.549   5.050  10.932 -3.6426 -1.1655  3.0267
   11MOL0     H 1468  12.632   5.310  11.051 -0.3720  0.5165  1.7816
   11MOL0     H 1469  12.479   5.276  11.131  0.2305  3.0608  1.1982
   11MOL0     H 1470  12.536   5.516  10.940  0.9794 -2.0054  0.5289
   11MOL0     H 1471  12.387   5.484  11.031  0.5594  1.8091  0.5850
   11MOL0     H 1472  12.501   5.509  11.239 -0.2693  0.1087 -0.5248
   11MOL0     H 1473  12.656   5.540  11.161  0.1209  4.7696 -0.8278
   11MOL0     H 1474  12.408   5.714  11.161 -0.2639  0.5120 -0.9293
   11MOL0     H 1475  12.567   5.758  11.225 -3.0143  1.0142  0.8263
   11MOL0     H 1476  12.411   5.951  11.164  1.4781 -1.6925 -0.3768
   11MOL0     H 1477  12.361   6.310  11.087 -2.3405 -0.4360  1.5808
   11MOL0     H 1478  12.468   6.251  11.203 -0.2867  0.7286 -0.0194
   11MOL0     H 1479  12.305   6.173  11.178 -0.5355  0.4946  0.4977
   11MOL0     H 1480  12.360   6.505  10.891 -0.0186  1.8547  2.1276
   11MOL0     H 1481  12.360   6.766  10.849 -1.3451  0.5865  4.6770
   11MOL0     H 1482  12.351   6.960  10.927  0.9415 -0.1210  0.6537
   11MOL0     H 1483  12.434   7.074  11.011 -1.4107 -1.5905  2.0594
   11MOL0     H 1484  12.334   7.146  10.784 -0.9427 -1.3358 -0.2988
   11MOL0     H 1485  12.501   7.188  10.796 -2.3209  2.7006  0.7607
   11MOL0     H 1486  12.423   6.924  10.641 -0.3384  0.9039 -4.2073
   11MOL0     H 1487  12.574   7.009  10.664  1.7405  2.2246 -1.4145
   11MOL0     H 1488  12.492   7.216  10.552  0.4268  0.9443 -4.0668
   11MOL0     H 1489  12.330   7.137  10.520 -0.9809 -2.3265  0.2541
   11MOL0     H 1490  12.606   7.012  10.452  0.4383  0.2086 -0.4419
   11MOL0     H 1491  12.438   6.978  10.390 -0.2640  0.4531  0.1441
   11MOL0     H 1492  12.597   7.231  10.326 -3.5409  2.0338 -1.0718
   11MOL0     H 1493  12.442   7.179  10.262 -1.1075 -1.5872  2.5498
   11MOL0     H 1494  12.557   7.000  10.128  1.6447 -1.3182  0.2967
   11MOL0     H 1495  12.701   7.024  10.233 -0.5368 -0.6162  0.8994
   11MOL0     H 1496  12.614   7.267  10.073 -0.4597  0.3160  0.9943
   11MOL0     H 1497  12.687   7.134   9.994  2.5447  2.2794 -0.7809
   11MOL0     H 1498  12.732   6.795  11.042  1.0460  0.0192 -0.3810
   11MOL0     H 1499  12.766   6.551  11.043 -0.1512  1.9039  4.3852
   11MOL0     H 1500  12.651   6.113  10.771  0.4873 -0.7481 -0.5773
   11MOL0     H 1501  12.640   5.850  10.812  0.3013  2.7071 -3.5463
   11MOL0     H 1502  11.627   4.018  10.602  1.9581 -1.4895  2.6673
   11MOL0     H 1503  11.382   3.942  10.611 -0.9520  0.8306 -2.0265
   11MOL0     H 1504  11.008   3.958  10.606  0.1878 -2.7942  0.5292
   11MOL0     H 1505  10.785   3.854  10.571  1.0861 -0.6354 -0.7974
   11MOL0     H 1506  10.523   3.816  10.922  0.1669  1.2649  0.3559
   11MOL0     H 1507  10.422   3.787  10.781  0.0780 -0.5422 -0.6154
   11MOL0     H 1508  10.611   3.597  10.918 -1.8316 -3.5332  0.2719
   11MOL0     H 1509  10.562   3.560  10.754 -1.6299  1.1950 -1.3974
   11MOL0     H 1510  10.328   3.563  10.816 -1.2747 -0.2125  0.7783
   11MOL0     H 1511  10.423   3.447  10.919  4.4495 -0.8984 -1.7087
   11MOL0     H 1512  10.257   3.547  11.043  1.4829 -2.8148 -2.0131
   11MOL0     H 1513  10.280   3.704  10.986 -2.7110 -2.2766  0.7221
   11MOL0     H 1514  10.587   3.680  11.296  0.8189  1.3353  0.1584
   11MOL0     H 1515  10.725   3.853  10.988  1.7354  0.4419  1.8836
   11MOL0     H 1516  10.876   3.927  11.143 -1.3259  2.2565  1.0908
   11MOL0     H 1517  11.029   3.993  11.084  0.1916 -1.3069  0.7571
   11MOL0     H 1518  10.872   4.091  11.100 -0.7703 -1.1358  0.6577
   12MOL0     O 1519   8.544   9.059   6.256  0.3908 -1.1423  0.7427
   12MOL0     C 1520   8.429   9.073   6.199 -0.5994  0.3741  0.9383
   12MOL0     O 1521   8.313   9.103   6.261 -0.8985  0.0650  0.9535
   12MOL0     C 1522   8.305   9.131   6.396 -0.1809  0.4140 -0.1896
   12MOL0     C 1523   8.406   9.101   6.497  0.0834  0.6778  0.0785
   12MOL0     C 1524   8.380   9.144   6.627  0.1665 -0.5724 -0.5406
   12MOL0     C 1525   8.269   9.221   6.662 -0.0138 -0.6779 -0.6940
   12MOL0     O 1526   8.246   9.271   6.793  0.3701  0.1609  1.0077
   12MOL0     C 1527   8.355   9.336   6.859 -0.4236  0.1470  0.6061
   12MOL0     C 1528   8.284   9.440   6.952 -0.6133  0.3816 -0.1511
   12MOL0     C 1529   8.228   9.378   7.078  0.2904 -0.8987 -0.2337
   12MOL0     C 1530   8.128   9.488   7.147 -0.4120 -0.1056 -0.4749
   12MOL0     C 1531   8.044   9.426   7.252 -0.2433  0.5039 -0.5327
   12MOL0     C 1532   8.110   9.348   7.362  0.1237  0.9175 -0.0812
   12MOL0     C 1533   8.202   9.447   7.437 -0.0761 -0.3048 -0.7104
   12MOL0     C 1534   8.273   9.380   7.556 -0.7080 -0.3801  0.0502
   12MOL0     N 1535   8.339   9.482   7.646  0.1182  1.0942 -0.2672
   12MOL0     C 1536   8.311   9.502   7.783  0.2100  0.4036  0.3153
   12MOL0     C 1537   8.404   9.596   7.819  0.0009  0.6615  0.9165
   12MOL0     C 1538   8.427   9.656   7.955 -0.5159  0.2327  0.4105
   12MOL0     C 1539   8.579   9.652   7.992  0.0131  0.2174 -0.4835
   12MOL0     C 1540   8.609   9.786   8.060  0.7600 -0.3279  0.5165
   12MOL0     C 1541   8.739   9.777   8.145 -0.0701  0.0037 -0.5783
   12MOL0     O 1542   8.857   9.808   8.054  0.1273  0.0999 -0.4319
   12MOL0     C 1543   8.963   9.867   8.120 -0.5783 -0.4758  0.4187
   12MOL0     C 1544   9.002   9.858   8.256  0.5583 -0.0381  0.5324
   12MOL0     C 1545   9.115   9.922   8.297 -0.1691 -0.8565  0.0515
   12MOL0     C 1546   9.147   9.910   8.448 -0.0057 -0.1149 -0.5896
   12MOL0     C 1547   9.183  10.017   8.215 -0.3161  0.8717 -0.0871
   12MOL0     C 1548   9.298  10.110   8.258 -1.2447 -0.0268 -0.3054
   12MOL0     O 1549   9.384  10.158   8.167  0.1650  0.2282 -0.4033
   12MOL0     C 1550   9.501  10.219   8.203 -0.7747 -0.7953 -0.2147
   12MOL0     C 1551   9.581  10.166   8.311 -0.2310 -0.0379  0.5468
   12MOL0     C 1552   9.706  10.226   8.344 -0.1245  0.2428 -0.5941
   12MOL0     C 1553   9.768  10.322   8.262 -0.0856 -0.0899  0.8351
   12MOL0     O 1554   9.894  10.365   8.260 -0.0897  0.0747 -1.0001
   12MOL0     C 1555   9.990  10.287   8.338 -0.0991  1.1699  1.2118
   12MOL0     C 1556  10.134  10.325   8.290 -0.6920  0.0328 -0.3140
   12MOL0     C 1557  10.239  10.274   8.387  0.3984 -0.2221 -0.3414
   12MOL0     C 1558  10.255  10.119   8.385  0.4109 -0.5956 -0.4211
   12MOL0     C 1559  10.217  10.047   8.514  0.0655 -0.2548 -0.0439
   12MOL0     C 1560  10.261   9.907   8.506  0.8991  0.0457  0.0163
   12MOL0     C 1561  10.209   9.819   8.628 -0.0249  0.0027  0.3015
   12MOL0     C 1562  10.292   9.859   8.755  0.5981 -0.3681  0.9596
   12MOL0    Cl 1563  10.227   9.765   8.886  0.4958 -0.5123 -0.3276
   12MOL0     C 1564   9.687  10.375   8.155 -0.3473  0.2939 -0.3321
   12MOL0     C 1565   9.555  10.334   8.137 -0.5108  0.3348 -0.8497
   12MOL0     O 1566   9.297  10.152   8.372 -0.6307  0.8483  0.1619
   12MOL0     C 1567   9.138  10.029   8.085 -1.2010  0.7314  0.6982
   12MOL0     C 1568   9.035   9.952   8.037 -0.0004  1.0650  0.3766
   12MOL0     N 1569   8.473   9.627   7.702  0.1894 -0.2696  0.3524
   12MOL0     N 1570   8.441   9.566   7.601 -0.1879  0.4779 -0.1556
   12MOL0     C 1571   8.187   9.258   6.564  0.3787  0.3150  0.1396
   12MOL0     C 1572   8.193   9.206   6.433  0.0425  0.1769 -0.0637
   12MOL0     C 1573   8.428   9.061   6.047 -0.1394 -0.3724 -0.0745
   12MOL0     C 1574   8.325   9.134   5.976  1.2978 -0.8628  0.0456
   12MOL0     C 1575   8.318   9.131   5.832  0.3031  0.3299  0.0058
   12MOL0     C 1576   8.412   9.053   5.770  0.8152  0.3275 -0.0505
   12MOL0     O 1577   8.431   9.054   5.635  0.0422 -0.7138  0.5279
   12MOL0     C 1578   8.431   9.185   5.567 -0.1689  0.6135 -0.9726
   12MOL0     C 1579   8.541   9.284   5.615  0.3275  0.4249  0.5262
   12MOL0     C 1580   8.682   9.229   5.603  0.1661 -0.5075  0.6242
   12MOL0     C 1581   8.736   9.192   5.459  0.0827  0.8917  0.2935
   12MOL0     C 1582   8.740   9.317   5.391  0.4258 -0.0135 -0.1960
   12MOL0     C 1583   8.740   9.426   5.330  0.2074  0.0805  0.4055
   12MOL0     C 1584   8.507   8.979   5.842  0.1100  0.2506  0.2942
   12MOL0     C 1585   8.519   8.984   5.981  0.8155 -0.6762 -0.4052
   12MOL0     C 1586   8.623   8.893   6.046  0.5820  0.6109  0.2025
   12MOL0     H 1587   8.485   9.029   6.475 -0.9852 -0.1443 -1.1967
   12MOL0     H 1588   8.456   9.132   6.703  0.0428 -0.1172 -0.3385
   12MOL0     H 1589   8.415   9.396   6.790 -1.3760  0.3144 -0.1004
   12MOL0     H 1590   8.425   9.266   6.907  0.8302 -1.1384 -2.7609
   12MOL0     H 1591   8.360   9.515   6.978 -1.2338  2.0141 -2.6390
   12MOL0     H 1592   8.201   9.484   6.896  0.1536  0.6950 -1.0793
   12MOL0     H 1593   8.183   9.281   7.057 -0.1914 -0.4678 -1.2306
   12MOL0     H 1594   8.306   9.358   7.152 -0.3969  1.2223  1.1981
   12MOL0     H 1595   8.180   9.579   7.177  0.3649 -1.0643  1.2489
   12MOL0     H 1596   8.065   9.524   7.066 -1.9668  2.8755  1.8720
   12MOL0     H 1597   7.979   9.357   7.198 -1.4973  0.7604  0.5873
   12MOL0     H 1598   7.991   9.510   7.299 -1.6431 -0.7567  0.2316
   12MOL0     H 1599   8.027   9.305   7.418 -0.8770  0.9479 -1.4707
   12MOL0     H 1600   8.156   9.255   7.327  0.0881  0.8339  0.0951
   12MOL0     H 1601   8.146   9.534   7.471 -3.4102 -1.8276 -1.9035
   12MOL0     H 1602   8.277   9.469   7.360 -0.0638  0.2629 -0.5417
   12MOL0     H 1603   8.197   9.327   7.614 -0.7744  0.4043  0.6915
   12MOL0     H 1604   8.355   9.314   7.529  1.1064  1.4689  0.7939
   12MOL0     H 1605   8.236   9.451   7.843  0.9334  1.0078  1.7776
   12MOL0     H 1606   8.382   9.592   8.031 -0.9217  0.5768  0.4587
   12MOL0     H 1607   8.376   9.753   7.956 -0.9685  0.0011 -0.1926
   12MOL0     H 1608   8.583   9.586   8.080 -1.8798  0.9214  0.1917
   12MOL0     H 1609   8.647   9.637   7.908 -0.1867 -3.8151 -0.1232
   12MOL0     H 1610   8.636   9.859   7.983  4.3421  0.5421  2.3693
   12MOL0     H 1611   8.534   9.827   8.128  1.9521 -0.6074  2.0642
   12MOL0     H 1612   8.725   9.850   8.225  0.7903  1.0883 -1.3702
   12MOL0     H 1613   8.748   9.679   8.191  4.0366  0.4582 -0.0295
   12MOL0     H 1614   8.948   9.797   8.329  4.3523 -3.6412  0.7302
   12MOL0     H 1615   9.131   9.808   8.486  0.3559 -0.2853 -0.8988
   12MOL0     H 1616   9.099   9.986   8.511 -0.1016 -0.2188 -0.5354
   12MOL0     H 1617   9.255   9.912   8.459  0.3066 -4.0205 -1.6091
   12MOL0     H 1618   9.552  10.072   8.357 -2.7921 -0.1984 -1.1986
   12MOL0     H 1619   9.763  10.173   8.420 -0.3481 -0.3698 -0.8451
   12MOL0     H 1620   9.970  10.316   8.442  2.0933  1.1884  1.6755
   12MOL0     H 1621   9.980  10.179   8.327  1.4220  1.1081  0.2064
   12MOL0     H 1622  10.149  10.277   8.193  3.1889  0.7786 -0.2405
   12MOL0     H 1623  10.139  10.434   8.278 -0.5373 -0.1556 -2.3212
   12MOL0     H 1624  10.211  10.305   8.488  0.3610 -0.6811 -0.2092
   12MOL0     H 1625  10.339  10.314   8.367  1.4477 -2.4686  0.0484
   12MOL0     H 1626  10.360  10.101   8.361  0.1338 -1.5635 -0.9849
   12MOL0     H 1627  10.203  10.068   8.302  1.8104 -1.0179 -1.0629
   12MOL0     H 1628  10.258  10.101   8.601 -2.1207  0.5254  0.5718
   12MOL0     H 1629  10.109  10.057   8.530  0.1121  5.9046 -1.0541
   12MOL0     H 1630  10.369   9.919   8.508  0.8578  0.3335  1.4427
   12MOL0     H 1631  10.226   9.868   8.410 -1.2653  0.1622  0.7080
   12MOL0     H 1632  10.227   9.713   8.607  2.1823  0.4313 -0.2487
   12MOL0     H 1633  10.103   9.836   8.644 -0.3099 -0.4238 -1.0029
   12MOL0     H 1634  10.280   9.966   8.777  0.2034 -0.2820  0.3369
   12MOL0     H 1635  10.397   9.830   8.753  0.4304 -1.0991  1.9264
   12MOL0     H 1636   9.732  10.449   8.090 -1.5650  1.8123  0.4733
   12MOL0     H 1637   9.502  10.385   8.057 -1.5348  1.1395  0.3186
   12MOL0     H 1638   9.184  10.093   8.010 -0.0813  2.2606  2.5971
   12MOL0     H 1639   9.022   9.958   7.929  0.5896 -0.6443  0.1820
   12MOL0     H 1640   8.104   9.321   6.593  0.3975  1.7797 -2.6652
   12MOL0     H 1641   8.104   9.217   6.371  0.7021  0.4425 -0.9803
   12MOL0     H 1642   8.237   9.177   6.023 -0.9963 -2.2089 -2.6982
   12MOL0     H 1643   8.243   9.186   5.777 -0.3879 -1.7828 -1.3072
   12MOL0     H 1644   8.444   9.173   5.459 -0.8317  2.6185 -1.3167
   12MOL0     H 1645   8.333   9.234   5.569 -0.1448  0.6516 -0.7279
   12MOL0     H 1646   8.521   9.310   5.719  1.3972 -1.4258  1.2290
   12MOL0     H 1647   8.532   9.374   5.553 -1.4839  1.5425  2.3087
   12MOL0     H 1648   8.745   9.301   5.655 -0.3476 -0.1682  0.7824
   12MOL0     H 1649   8.683   9.137   5.661 -1.7321 -3.2988 -3.2987
   12MOL0     H 1650   8.674   9.113   5.418  3.3295 -1.8473  0.2284
   12MOL0     H 1651   8.834   9.148   5.481 -0.5287 -1.2761 -1.0085
   12MOL0     H 1652   8.735   9.525   5.289  0.4456  0.6421  1.6876
   12MOL0     H 1653   8.581   8.926   5.783  1.6314  0.7344  1.7151
   12MOL0     H 1654   8.656   8.810   5.982 -0.1604  0.8725 -0.5380
   12MOL0     H 1655   8.717   8.943   6.071  1.0939  0.2884 -1.0060
   12MOL0     H 1656   8.580   8.863   6.142 -1.4678  3.7631  0.4205
   13MOL0     O 1657   2.765   7.000   7.199 -0.0741 -0.6400 -0.2390
   13MOL0     C 1658   2.687   6.908   7.179  0.2447 -0.3621 -0.0008
   13MOL0     O 1659   2.700   6.822   7.079  0.0917 -0.2696 -1.0338
   13MOL0     C 1660   2.811   6.808   6.997  0.6950  0.3889 -0.1634
   13MOL0     C 1661   2.874   6.678   6.994  0.0698  1.6411  0.4070
   13MOL0     C 1662   2.979   6.644   6.913  0.5545  0.9635  0.2351
   13MOL0     C 1663   3.010   6.728   6.815 -1.3219  0.9892  1.0215
   13MOL0     O 1664   3.105   6.686   6.723  0.1317  0.5313  0.4097
   13MOL0     C 1665   3.174   6.783   6.649 -0.0716  0.2751  0.3692
   13MOL0     C 1666   3.316   6.749   6.617 -0.9227  0.8536 -0.2050
   13MOL0     C 1667   3.314   6.614   6.538 -0.4892 -0.1741 -0.5135
   13MOL0     C 1668   3.447   6.582   6.477 -0.5302 -0.5479 -0.2467
   13MOL0     C 1669   3.438   6.434   6.427  0.3959  0.3466 -0.0811
   13MOL0     C 1670   3.538   6.405   6.311  0.4691 -0.1307 -0.0363
   13MOL0     C 1671   3.479   6.283   6.232 -0.8387  0.2244 -0.0913
   13MOL0     C 1672   3.450   6.145   6.309 -0.8045  0.0486  0.2786
   13MOL0     N 1673   3.569   6.112   6.391 -0.5658  0.0124  0.0576
   13MOL0     C 1674   3.704   6.112   6.347  0.0083 -0.2295  0.4686
   13MOL0     C 1675   3.778   6.099   6.460  0.2012  0.5423  1.2273
   13MOL0     C 1676   3.920   6.096   6.489  0.5326  0.3960 -0.4763
   13MOL0     C 1677   4.010   6.046   6.375  0.5681 -0.2291 -0.0142
   13MOL0     C 1678   4.155   6.099   6.404 -0.4023 -0.1718 -0.5233
   13MOL0     C 1679   4.258   6.014   6.471  0.7736  0.5953 -0.1625
   13MOL0     O 1680   4.371   6.094   6.466 -0.9686 -0.4013 -0.6140
   13MOL0     C 1681   4.492   6.039   6.491  0.4238  0.4708 -0.9070
   13MOL0     C 1682   4.610   6.112   6.467  0.2209 -0.2260 -0.4293
   13MOL0     C 1683   4.737   6.064   6.523  0.6180 -0.3266 -0.6857
   13MOL0     C 1684   4.853   6.161   6.508 -0.7784 -1.2363 -0.5392
   13MOL0     C 1685   4.745   5.946   6.592 -0.4896 -2.0821  0.4817
   13MOL0     C 1686   4.872   5.901   6.646  0.4061 -0.4022 -0.5829
   13MOL0     O 1687   4.858   5.844   6.769 -0.0077 -0.2442 -0.7764
   13MOL0     C 1688   4.975   5.814   6.841  0.9944 -0.3425 -0.1541
   13MOL0     C 1689   4.962   5.726   6.951 -0.7925 -0.1508 -0.0969
   13MOL0     C 1690   5.074   5.682   7.016 -0.2331  0.0896 -0.1260
   13MOL0     C 1691   5.205   5.712   6.988  0.5193  0.3839  0.6692
   13MOL0     O 1692   5.309   5.642   7.053  0.4624 -0.6290  1.2003
   13MOL0     C 1693   5.440   5.666   7.002 -0.5405 -0.7691  0.1057
   13MOL0     C 1694   5.468   5.620   6.851  0.1771  1.3613 -0.1692
   13MOL0     C 1695   5.420   5.481   6.826  0.6267  0.6033 -0.5603
   13MOL0     C 1696   5.466   5.444   6.692 -0.2121 -0.3243 -0.7280
   13MOL0     C 1697   5.416   5.307   6.654  0.1179 -0.1917  0.0702
   13MOL0     C 1698   5.474   5.279   6.515 -0.3499  0.4112 -0.2304
   13MOL0     C 1699   5.626   5.239   6.517  0.1919  0.4047 -0.0831
   13MOL0     C 1700   5.669   5.169   6.391 -0.0256  0.3431 -1.1454
   13MOL0    Cl 1701   5.600   5.000   6.391  0.0549  0.6107 -0.5912
   13MOL0     C 1702   5.216   5.825   6.894 -0.5342 -0.2995  0.3840
   13MOL0     C 1703   5.102   5.872   6.822  0.2447 -0.0781  0.7339
   13MOL0     O 1704   4.971   5.908   6.574  0.8609  0.0723 -0.5343
   13MOL0     C 1705   4.635   5.869   6.606 -0.0214 -0.5662  0.4516
   13MOL0     C 1706   4.511   5.920   6.566  0.3816  0.2223 -0.4028
   13MOL0     N 1707   3.679   6.103   6.565  0.0751  0.2622  0.2401
   13MOL0     N 1708   3.558   6.104   6.518 -0.7332  0.4259 -0.4113
   13MOL0     C 1709   2.959   6.855   6.814 -0.3064 -0.0798  0.4413
   13MOL0     C 1710   2.864   6.900   6.911 -0.6321 -0.0161 -0.0426
   13MOL0     C 1711   2.550   6.908   7.239  0.1787  0.3149 -0.0249
   13MOL0     C 1712   2.438   6.865   7.164  0.0957 -0.7322 -0.1182
   13MOL0     C 1713   2.304   6.855   7.211 -0.0318 -0.5550  0.0723
   13MOL0     C 1714   2.280   6.897   7.342 -0.1679 -0.6357 -0.2747
   13MOL0     O 1715   2.150   6.892   7.398 -0.1319  0.0175  0.3910
   13MOL0     C 1716   2.033   6.866   7.316 -0.5383 -0.7816 -0.9594
   13MOL0     C 1717   1.990   6.726   7.286  0.2920  0.6359 -0.4184
   13MOL0     C 1718   1.936   6.666   7.420  0.0454 -0.5224  0.5123
   13MOL0     C 1719   1.887   6.529   7.400 -1.3695 -0.1609 -0.1927
   13MOL0     C 1720   2.010   6.440   7.391  1.0877 -0.7172  0.4363
   13MOL0     C 1721   2.091   6.363   7.351 -0.5650  0.5256  0.6294
   13MOL0     C 1722   2.389   6.941   7.419 -0.0529 -0.2349 -0.3622
   13MOL0     C 1723   2.523   6.944   7.374 -0.3068  1.0836 -0.1363
   13MOL0     C 1724   2.629   7.001   7.460  0.1579 -0.7894 -0.7154
   13MOL0     H 1725   2.842   6.598   7.060  0.1951 -1.7242 -3.2598
   13MOL0     H 1726   3.025   6.546   6.906  1.5996  1.5417 -1.6394
   13MOL0     H 1727   3.185   6.880   6.700  0.9863 -0.2373  1.1446
   13MOL0     H 1728   3.116   6.790   6.557  0.6960 -2.2512 -0.3702
   13MOL0     H 1729   3.351   6.825   6.547 -0.5820  0.5804 -0.3389
   13MOL0     H 1730   3.375   6.741   6.709 -2.5988  1.2893  0.9596
   13MOL0     H 1731   3.277   6.529   6.596 -1.1242  0.0109 -0.6379
   13MOL0     H 1732   3.248   6.623   6.451 -1.4383 -1.2444  0.0496
   13MOL0     H 1733   3.469   6.649   6.393  0.6756 -0.2464  0.2792
   13MOL0     H 1734   3.532   6.590   6.546 -1.5077 -1.3524  1.0798
   13MOL0     H 1735   3.339   6.417   6.385  0.0943  0.5159  0.5636
   13MOL0     H 1736   3.464   6.364   6.507 -0.2802 -2.7053 -2.3461
   13MOL0     H 1737   3.532   6.490   6.242 -0.4577 -0.4419 -0.3660
   13MOL0     H 1738   3.641   6.390   6.345  0.3881 -0.4712  0.0691
   13MOL0     H 1739   3.565   6.264   6.168  0.6793 -0.7817  2.0974
   13MOL0     H 1740   3.391   6.321   6.179 -0.4014 -2.9664 -3.4876
   13MOL0     H 1741   3.359   6.149   6.371 -2.1041  0.7266 -1.5670
   13MOL0     H 1742   3.432   6.068   6.234  0.4353 -2.1072  2.0813
   13MOL0     H 1743   3.746   6.118   6.247  0.4002 -4.9511  0.1166
   13MOL0     H 1744   3.944   6.033   6.574  3.4124  1.2679 -0.5139
   13MOL0     H 1745   3.938   6.204   6.499  0.6653  0.2493  1.0515
   13MOL0     H 1746   4.003   5.938   6.363  1.8678 -0.0934 -2.8325
   13MOL0     H 1747   3.982   6.098   6.283  3.4478  0.3200 -0.6690
   13MOL0     H 1748   4.188   6.130   6.305 -1.4476 -0.1656 -0.8741
   13MOL0     H 1749   4.147   6.195   6.456 -3.2753  0.2990 -1.6661
   13MOL0     H 1750   4.242   5.997   6.578  3.3670  0.8028  0.3110
   13MOL0     H 1751   4.269   5.918   6.418  2.7267  1.2200 -0.9557
   13MOL0     H 1752   4.598   6.209   6.420  1.4816 -0.8058 -2.0317
   13MOL0     H 1753   4.890   6.170   6.405  0.9713  0.7848  0.1644
   13MOL0     H 1754   4.931   6.140   6.582 -0.1519 -2.8329 -1.6075
   13MOL0     H 1755   4.809   6.259   6.532 -1.3044 -0.6809 -3.3916
   13MOL0     H 1756   4.857   5.708   6.975 -2.2736  1.4916 -4.3634
   13MOL0     H 1757   5.053   5.615   7.099 -2.3731  1.4270  0.4979
   13MOL0     H 1758   5.470   5.770   7.020 -0.5587 -0.9483  1.2574
   13MOL0     H 1759   5.511   5.608   7.062 -0.6575  0.2303  1.2302
   13MOL0     H 1760   5.427   5.690   6.777  0.8629  2.6221  0.6097
   13MOL0     H 1761   5.576   5.618   6.834  0.0259  3.1409 -1.7112
   13MOL0     H 1762   5.311   5.489   6.838  1.0504  3.6168  3.0163
   13MOL0     H 1763   5.458   5.411   6.900  3.6920  0.4284 -2.1673
   13MOL0     H 1764   5.575   5.448   6.692 -0.1818  0.0753  1.6104
   13MOL0     H 1765   5.438   5.518   6.617  1.0548 -0.6144 -1.5283
   13MOL0     H 1766   5.451   5.230   6.725 -2.4227 -0.5103  1.1074
   13MOL0     H 1767   5.308   5.320   6.650 -0.0031 -1.0910  0.1759
   13MOL0     H 1768   5.450   5.366   6.453 -2.1398  0.7706  0.8684
   13MOL0     H 1769   5.419   5.193   6.475  0.6386 -0.5636  0.4633
   13MOL0     H 1770   5.644   5.184   6.610  0.8444  1.2970  0.3423
   13MOL0     H 1771   5.691   5.327   6.518  0.7861 -0.0290 -0.5930
   13MOL0     H 1772   5.778   5.162   6.389 -0.0414  0.1201 -1.2169
   13MOL0     H 1773   5.643   5.224   6.300  0.0215  1.0238 -0.7589
   13MOL0     H 1774   5.313   5.867   6.871  1.0258 -4.6075 -1.9544
   13MOL0     H 1775   5.113   5.947   6.744  2.3101 -1.7960 -0.7567
   13MOL0     H 1776   4.645   5.785   6.674  3.5125  0.0948  0.9409
   13MOL0     H 1777   4.426   5.858   6.595 -1.3118  0.9950 -3.3874
   13MOL0     H 1778   2.990   6.925   6.738 -2.1373 -2.5400 -2.8283
   13MOL0     H 1779   2.831   7.002   6.925  3.0251  1.0108  2.5027
   13MOL0     H 1780   2.462   6.852   7.059  1.2350 -2.2362  0.2913
   13MOL0     H 1781   2.235   6.820   7.135  0.7269 -1.1601 -0.3524
   13MOL0     H 1782   1.951   6.917   7.368 -2.7422  1.5939 -6.0392
   13MOL0     H 1783   2.046   6.915   7.219  1.5435  1.9763  0.5499
   13MOL0     H 1784   2.071   6.673   7.235 -1.7729 -1.7258 -1.4558
   13MOL0     H 1785   1.909   6.740   7.214  0.2400 -1.9877 -0.9779
   13MOL0     H 1786   2.000   6.699   7.502 -0.4185  3.7961 -0.5819
   13MOL0     H 1787   1.841   6.716   7.444  1.6589  2.6775  0.7473
   13MOL0     H 1788   1.824   6.523   7.311 -1.4986 -0.2860 -0.0948
   13MOL0     H 1789   1.831   6.498   7.489 -0.2853  1.2149  1.0228
   13MOL0     H 1790   2.167   6.303   7.306 -0.8757  0.7270 -0.1686
   13MOL0     H 1791   2.368   6.968   7.522 -0.0517  0.6842 -0.5904
   13MOL0     H 1792   2.713   6.931   7.451  1.5494  0.2344  2.6369
   13MOL0     H 1793   2.648   7.105   7.433 -2.8720  0.7984  2.5153
   13MOL0     H 1794   2.595   7.015   7.563 -1.8162  1.4420 -1.5695
   14MOL0     O 1795   2.633   5.960   8.841  0.3795  0.2912  0.0265
   14MOL0     C 1796   2.649   5.982   8.956  0.1811  0.2929 -0.2775
   14MOL0     O 1797   2.702   6.094   9.005 -0.3317 -1.1800 -0.9389
   14MOL0     C 1798   2.737   6.209   8.935  0.6038 -0.2031  0.2805
   14MOL0     C 1799   2.786   6.221   8.804 -0.1465  0.9339  0.2800
   14MOL0     C 1800   2.833   6.341   8.760  0.3253 -0.6231 -0.6333
   14MOL0     C 1801   2.825   6.461   8.834  0.3897  0.7877  0.5847
   14MOL0     O 1802   2.839   6.580   8.770  0.0411 -0.0950  0.0343
   14MOL0     C 1803   2.942   6.666   8.826  0.2366 -0.9774  0.2621
   14MOL0     C 1804   3.029   6.720   8.708  0.0665 -0.1618  0.2851
   14MOL0     C 1805   2.949   6.799   8.605 -0.1421 -0.3707  0.1703
   14MOL0     C 1806   2.914   6.942   8.657  0.5446  0.2132  0.2322
   14MOL0     C 1807   2.821   7.020   8.546  0.1271  0.0048 -1.2182
   14MOL0     C 1808   2.882   7.037   8.409 -1.0888  0.0954  0.5733
   14MOL0     C 1809   3.026   7.091   8.408  0.2121 -0.2849 -0.5228
   14MOL0     C 1810   3.029   7.229   8.479  0.4186  0.4652  0.5125
   14MOL0     N 1811   3.160   7.301   8.470 -0.0964  0.0121  0.2633
   14MOL0     C 1812   3.241   7.336   8.576 -0.0545 -0.2680  0.2837
   14MOL0     C 1813   3.346   7.399   8.515 -0.7047 -0.3047 -0.4639
   14MOL0     C 1814   3.472   7.436   8.593 -0.7446 -1.1807 -0.2229
   14MOL0     C 1815   3.607   7.429   8.518 -0.2869  0.1433  0.4796
   14MOL0     C 1816   3.740   7.460   8.589  0.8099  0.1972 -0.3846
   14MOL0     C 1817   3.854   7.469   8.483 -0.3068 -0.2120 -0.6683
   14MOL0     O 1818   3.888   7.354   8.403 -0.1388  0.2738  0.0468
   14MOL0     C 1819   3.915   7.232   8.460 -0.3257  0.3888 -0.1662
   14MOL0     C 1820   4.018   7.211   8.551  0.3819  0.7338  0.5067
   14MOL0     C 1821   4.040   7.083   8.613  1.1934 -0.4210 -0.3939
   14MOL0     C 1822   4.146   7.076   8.714  0.2972  0.3036 -0.5491
   14MOL0     C 1823   3.953   6.978   8.583 -0.6687  0.1084 -1.1516
   14MOL0     C 1824   3.979   6.838   8.633 -0.2900 -0.3006 -0.1012
   14MOL0     O 1825   4.108   6.797   8.658  0.4617 -0.1218  0.5549
   14MOL0     C 1826   4.137   6.671   8.693  0.2703  0.5631 -0.3670
   14MOL0     C 1827   4.090   6.555   8.631 -0.8224  0.0984  0.9393
   14MOL0     C 1828   4.122   6.426   8.686  0.1826 -0.6916 -0.8753
   14MOL0     C 1829   4.211   6.413   8.794  0.0534 -0.9587 -0.4672
   14MOL0     O 1830   4.241   6.299   8.856  0.0242 -0.1532  1.1200
   14MOL0     C 1831   4.215   6.175   8.796  0.9195 -0.0289  0.7096
   14MOL0     C 1832   4.273   6.056   8.870 -0.2072 -0.6771  0.2939
   14MOL0     C 1833   4.188   6.014   8.992  0.1180  1.2431 -0.7682
   14MOL0     C 1834   4.064   5.941   8.945 -0.7935  0.1339 -0.5002
   14MOL0     C 1835   3.980   5.871   9.057 -0.9729  0.0231 -0.1255
   14MOL0     C 1836   3.835   5.827   9.009  0.3376  0.7152  0.2044
   14MOL0     C 1837   3.720   5.922   8.981  0.5823  0.0811  0.1463
   14MOL0     C 1838   3.599   5.842   8.927 -0.1722 -1.7342  0.7703
   14MOL0    Cl 1839   3.522   5.718   9.043 -0.0723  0.1908  0.5256
   14MOL0     C 1840   4.266   6.534   8.843 -0.4000  0.3107 -0.3249
   14MOL0     C 1841   4.233   6.659   8.797 -0.1007 -0.3591 -0.0621
   14MOL0     O 1842   3.880   6.764   8.632  0.0146 -0.7136 -0.7122
   14MOL0     C 1843   3.855   7.001   8.486 -1.2293 -0.3722  0.3442
   14MOL0     C 1844   3.836   7.121   8.416 -0.4957  0.2705  0.5769
   14MOL0     N 1845   3.333   7.399   8.379  0.2275 -0.9816 -0.1379
   14MOL0     N 1846   3.223   7.339   8.353 -1.1219  0.1385  0.6752
   14MOL0     C 1847   2.774   6.449   8.963  0.2282 -0.1743 -0.0543
   14MOL0     C 1848   2.743   6.323   9.020 -0.4571  0.6095 -0.0277
   14MOL0     C 1849   2.621   5.869   9.051 -0.7809 -0.7059 -0.2918
   14MOL0     C 1850   2.675   5.878   9.179 -0.5643 -0.3642 -0.0751
   14MOL0     C 1851   2.657   5.779   9.273  0.3114 -0.6066  0.1442
   14MOL0     C 1852   2.594   5.656   9.245 -0.5087  0.4959  0.3954
   14MOL0     O 1853   2.597   5.556   9.347  0.7453  0.2470  0.3556
   14MOL0     C 1854   2.535   5.431   9.311  0.2516 -0.1460  2.1070
   14MOL0     C 1855   2.538   5.349   9.445  0.8691  0.4714 -0.2574
   14MOL0     C 1856   2.467   5.208   9.424 -0.8676 -0.8336 -0.4170
   14MOL0     C 1857   2.311   5.238   9.407 -0.2937  0.0499  0.1891
   14MOL0     C 1858   2.250   5.164   9.297  0.9199  0.5009  0.1886
   14MOL0     C 1859   2.149   5.062   9.160 -0.8734 -0.5719  0.5755
   14MOL0     C 1860   2.549   5.645   9.114 -0.2033  0.6336  0.4975
   14MOL0     C 1861   2.548   5.746   9.025 -0.0681 -0.4541 -0.7877
   14MOL0     C 1862   2.506   5.723   8.884 -1.0637  0.0491  0.7547
   14MOL0     H 1863   2.787   6.130   8.744 -1.8903 -0.2942  1.9765
   14MOL0     H 1864   2.865   6.362   8.658  2.1838  2.0743  0.3729
   14MOL0     H 1865   3.017   6.629   8.897  1.5659  0.5026 -0.3342
   14MOL0     H 1866   2.881   6.738   8.881  3.8066 -0.5407  4.1784
   14MOL0     H 1867   3.104   6.789   8.747  1.2589 -0.1170 -1.9098
   14MOL0     H 1868   3.084   6.649   8.645  0.0369  0.2485 -0.2109
   14MOL0     H 1869   3.021   6.804   8.522  0.0252 -0.2780  0.3198
   14MOL0     H 1870   2.856   6.751   8.575  0.9972 -2.8435  0.2867
   14MOL0     H 1871   2.858   6.939   8.751 -0.9630 -0.7205 -0.6529
   14MOL0     H 1872   3.007   6.999   8.671 -0.5503  2.3081 -0.4671
   14MOL0     H 1873   2.802   7.121   8.585  0.0999 -0.5768  0.3711
   14MOL0     H 1874   2.719   6.980   8.538  0.4354 -0.5326 -2.7874
   14MOL0     H 1875   2.871   6.939   8.363 -0.3619 -0.8145  2.2281
   14MOL0     H 1876   2.817   7.105   8.354  0.7106  2.3255  1.0437
   14MOL0     H 1877   3.065   7.118   8.310  3.4468 -0.0191  0.7255
   14MOL0     H 1878   3.088   7.014   8.455  3.6260  2.0807 -0.8215
   14MOL0     H 1879   2.962   7.302   8.432  1.6641  1.0219 -0.4621
   14MOL0     H 1880   3.008   7.211   8.585  0.2376 -1.5231  0.1769
   14MOL0     H 1881   3.236   7.301   8.679  2.7367 -0.0354  0.5862
   14MOL0     H 1882   3.481   7.365   8.675 -0.4405  1.6485  2.3865
   14MOL0     H 1883   3.463   7.539   8.628  0.1867 -1.4447  0.8623
   14MOL0     H 1884   3.607   7.329   8.473  1.8584  1.0330 -1.7191
   14MOL0     H 1885   3.601   7.507   8.442 -0.4211 -0.5816 -0.2721
   14MOL0     H 1886   3.730   7.551   8.648  0.3646 -0.0873 -0.0185
   14MOL0     H 1887   3.760   7.379   8.660  2.4358  1.9257  1.2290
   14MOL0     H 1888   3.832   7.551   8.415 -0.1141  3.6253  3.4477
   14MOL0     H 1889   3.946   7.499   8.534 -1.1148  3.0828 -0.9440
   14MOL0     H 1890   4.083   7.295   8.574 -0.6455  1.5801  0.4519
   14MOL0     H 1891   4.184   7.173   8.748 -0.8790  0.6504 -0.1887
   14MOL0     H 1892   4.228   7.014   8.677  2.7052  0.6568  3.4782
   14MOL0     H 1893   4.102   7.026   8.801  2.2647 -0.0811  0.2710
   14MOL0     H 1894   4.022   6.566   8.547  0.9467  1.3372 -0.4261
   14MOL0     H 1895   4.067   6.341   8.647  0.0480 -1.0311  0.0237
   14MOL0     H 1896   4.108   6.163   8.781  0.9637  0.8315 -0.5502
   14MOL0     H 1897   4.262   6.171   8.697  0.9922 -2.5417  0.7899
   14MOL0     H 1898   4.276   5.973   8.800 -1.8164 -0.4079 -0.1243
   14MOL0     H 1899   4.377   6.073   8.901 -0.2503 -2.0164  1.2551
   14MOL0     H 1900   4.144   6.093   9.053  1.3525  0.2902  1.4781
   14MOL0     H 1901   4.247   5.949   9.057  2.2577 -1.2043 -4.7440
   14MOL0     H 1902   4.079   5.875   8.859 -0.9275 -0.4286 -0.0989
   14MOL0     H 1903   4.001   6.023   8.911  1.0743  2.4864  1.3618
   14MOL0     H 1904   4.024   5.777   9.094 -1.0655  0.2298  0.5209
   14MOL0     H 1905   3.977   5.932   9.148 -2.7209  1.2822 -0.9860
   14MOL0     H 1906   3.789   5.766   9.087 -1.9977  2.2857  0.1511
   14MOL0     H 1907   3.844   5.755   8.926 -3.1549  0.1011  0.2251
   14MOL0     H 1908   3.759   6.006   8.923 -1.9474  1.5581  0.4450
   14MOL0     H 1909   3.682   5.968   9.073 -1.0362 -1.1089  0.1048
   14MOL0     H 1910   3.626   5.810   8.826 -0.4183 -0.3881  0.2552
   14MOL0     H 1911   3.520   5.912   8.897  1.4995  0.1265  0.4857
   14MOL0     H 1912   4.337   6.528   8.925 -0.3252 -0.1975 -0.4280
   14MOL0     H 1913   4.261   6.739   8.865  0.1307 -0.2412 -0.2966
   14MOL0     H 1914   3.797   6.920   8.442  2.0050 -2.2165 -0.8487
   14MOL0     H 1915   3.757   7.144   8.345 -1.2766 -0.0694  1.3129
   14MOL0     H 1916   2.762   6.539   9.022 -1.2106 -0.5513  0.2799
   14MOL0     H 1917   2.716   6.333   9.124 -3.7733  4.5970 -0.9811
   14MOL0     H 1918   2.730   5.967   9.208 -0.7373 -0.6966  1.3190
   14MOL0     H 1919   2.695   5.798   9.373 -1.4386  3.3556  0.2452
   14MOL0     H 1920   2.437   5.461   9.272  1.1928 -0.3263 -0.5739
   14MOL0     H 1921   2.590   5.384   9.229 -2.4847  0.8891 -0.4860
   14MOL0     H 1922   2.487   5.400   9.528  2.8693  0.3122  1.1515
   14MOL0     H 1923   2.643   5.333   9.471  1.1869 -0.1022 -1.7912
   14MOL0     H 1924   2.511   5.167   9.332  2.3914  0.0610  0.6018
   14MOL0     H 1925   2.490   5.141   9.507  2.0066 -1.0605 -1.2655
   14MOL0     H 1926   2.302   5.344   9.386  4.7049  1.3068  2.7394
   14MOL0     H 1927   2.275   5.210   9.507  0.0973 -1.8481 -0.1457
   14MOL0     H 1928   2.098   5.029   9.072  3.2152  2.6195 -3.4723
   14MOL0     H 1929   2.504   5.553   9.079  1.3055 -0.5401  1.5256
   14MOL0     H 1930   2.589   5.702   8.816 -1.4342 -0.9100  0.5784
   14MOL0     H 1931   2.447   5.631   8.891  1.5065 -1.8454 -0.8560
   14MOL0     H 1932   2.437   5.797   8.840 -0.0153 -1.0937 -3.3009
   15MOL0     O 1933   7.543   9.543   6.983 -0.1352  0.6919  0.0557
   15MOL0     C 1934   7.563   9.422   7.001  0.3126  1.3542 -0.2484
   15MOL0     O 1935   7.612   9.328   6.907  0.5296 -0.2998 -0.2629
   15MOL0     C 1936   7.686   9.393   6.811  0.0971  0.8299  0.7470
   15MOL0     C 1937   7.629   9.419   6.684 -0.3343 -0.2069  0.6034
   15MOL0     C 1938   7.709   9.480   6.583  0.7979  0.1039  0.7051
   15MOL0     C 1939   7.842   9.508   6.610 -0.2255 -0.4073  1.0425
   15MOL0     O 1940   7.935   9.545   6.511  0.3762  0.3185  0.3394
   15MOL0     C 1941   7.899   9.506   6.371 -0.1204 -0.3195 -1.1651
   15MOL0     C 1942   7.993   9.572   6.268  0.1069 -0.1989  0.3772
   15MOL0     C 1943   8.124   9.495   6.275  0.4847  0.1004 -0.3793
   15MOL0     C 1944   8.235   9.569   6.193 -0.4028  0.2449 -0.8466
   15MOL0     C 1945   8.367   9.484   6.184  0.4879 -0.2982 -0.5883
   15MOL0     C 1946   8.472   9.554   6.084  1.6022  0.6772  0.1560
   15MOL0     C 1947   8.609   9.502   6.104 -0.6277  0.0509 -0.3352
   15MOL0     C 1948   8.614   9.372   6.028  0.5743  0.7604 -0.2927
   15MOL0     N 1949   8.738   9.309   6.047 -0.1181 -0.1133 -0.1144
   15MOL0     C 1950   8.778   9.256   6.168  0.4149 -0.6911  0.2803
   15MOL0     C 1951   8.904   9.224   6.167  0.3380  0.2160 -0.1918
   15MOL0     C 1952   8.990   9.187   6.276  0.1208  0.1873 -0.2777
   15MOL0     C 1953   9.064   9.050   6.244  0.0358 -0.4038 -0.0399
   15MOL0     C 1954   8.965   8.930   6.247 -0.1575 -0.9189  0.0060
   15MOL0     C 1955   9.015   8.807   6.326 -0.5352 -0.2740 -0.0373
   15MOL0     O 1956   8.911   8.703   6.315  0.2464 -0.1832 -0.5295
   15MOL0     C 1957   8.885   8.630   6.426  0.5591 -0.0175  0.3056
   15MOL0     C 1958   8.972   8.537   6.464 -0.1185  0.3564  0.0859
   15MOL0     C 1959   8.958   8.478   6.592 -0.2289  0.1785  0.6394
   15MOL0     C 1960   9.073   8.389   6.620 -0.1885  0.5348 -0.7695
   15MOL0     C 1961   8.846   8.496   6.672  0.6827 -0.3140  0.7673
   15MOL0     C 1962   8.831   8.433   6.799  0.0749  0.0749  0.4863
   15MOL0     O 1963   8.930   8.440   6.895  0.0167 -0.2541 -0.3861
   15MOL0     C 1964   8.902   8.422   7.034 -0.2468 -0.4261 -0.1645
   15MOL0     C 1965   8.782   8.458   7.098  0.1739 -0.5935 -0.5504
   15MOL0     C 1966   8.761   8.444   7.234 -0.3758 -0.5325  0.4011
   15MOL0     C 1967   8.861   8.384   7.316  0.7304  0.2752 -0.3852
   15MOL0     O 1968   8.846   8.353   7.448  0.2568  0.7058 -0.1573
   15MOL0     C 1969   8.751   8.435   7.521  0.7866  0.9406  0.3010
   15MOL0     C 1970   8.760   8.417   7.676 -0.3216 -0.6631  0.3227
   15MOL0     C 1971   8.649   8.494   7.756 -0.4261 -0.3708 -0.7930
   15MOL0     C 1972   8.618   8.632   7.702  0.1727 -0.2994  0.0030
   15MOL0     C 1973   8.546   8.711   7.811  0.1385 -0.0065 -0.4526
   15MOL0     C 1974   8.496   8.845   7.757  0.1452  0.4035 -0.4701
   15MOL0     C 1975   8.372   8.819   7.674  0.3793 -0.2523 -0.1587
   15MOL0     C 1976   8.324   8.963   7.620 -0.8395  0.6602 -0.9357
   15MOL0    Cl 1977   8.211   8.943   7.486  0.1674  0.0823 -0.6014
   15MOL0     C 1978   8.979   8.344   7.258  0.2574 -0.5259  0.0100
   15MOL0     C 1979   9.001   8.360   7.117  0.0028 -0.0771 -0.0513
   15MOL0     O 1980   8.722   8.380   6.815  0.6688  0.1800 -0.9038
   15MOL0     C 1981   8.747   8.578   6.616 -0.5195 -0.7998 -0.6973
   15MOL0     C 1982   8.765   8.653   6.498  0.5233 -0.3166  0.7523
   15MOL0     N 1983   8.949   9.259   6.040  0.1572 -0.1560 -0.4918
   15MOL0     N 1984   8.854   9.315   5.972  0.4023 -0.6513 -0.5707
   15MOL0     C 1985   7.900   9.482   6.732 -0.9070 -0.4291  0.9954
   15MOL0     C 1986   7.821   9.432   6.838 -0.5168 -0.0176 -0.1962
   15MOL0     C 1987   7.492   9.376   7.111 -0.1783  0.4704 -0.1696
   15MOL0     C 1988   7.417   9.252   7.095  0.6031 -0.7481 -0.1598
   15MOL0     C 1989   7.335   9.204   7.200 -0.1455 -0.0427 -0.0834
   15MOL0     C 1990   7.331   9.284   7.314  1.2495 -0.2268 -1.0166
   15MOL0     O 1991   7.254   9.244   7.426  0.4159  0.1624  0.0004
   15MOL0     C 1992   7.319   9.203   7.550 -0.0269  0.4392  0.2536
   15MOL0     C 1993   7.425   9.085   7.523 -0.0651  0.4535 -0.0245
   15MOL0     C 1994   7.365   8.951   7.505  0.0028  0.3132  0.0503
   15MOL0     C 1995   7.466   8.840   7.535  0.4954 -0.9865  0.4200
   15MOL0     C 1996   7.421   8.711   7.491  0.2945 -0.4138  0.9586
   15MOL0     C 1997   7.385   8.602   7.445 -0.1092 -1.2211 -0.4928
   15MOL0     C 1998   7.410   9.399   7.333  0.8397 -0.1884  0.3171
   15MOL0     C 1999   7.501   9.445   7.233 -0.2274 -0.4666 -0.7274
   15MOL0     C 2000   7.590   9.558   7.274  0.3572  0.7035 -1.1673
   15MOL0     H 2001   7.526   9.394   6.660  0.1295 -2.3216  0.6418
   15MOL0     H 2002   7.654   9.501   6.492 -0.1602  0.1296  1.2757
   15MOL0     H 2003   7.801   9.553   6.360  0.9729  3.3881  2.5064
   15MOL0     H 2004   7.887   9.399   6.351 -2.6313 -0.4137  0.3230
   15MOL0     H 2005   7.936   9.582   6.175 -0.1361  0.2520  0.5730
   15MOL0     H 2006   8.007   9.676   6.298 -3.9582  0.3374  0.9612
   15MOL0     H 2007   8.150   9.464   6.377  0.9372 -0.9062 -0.7902
   15MOL0     H 2008   8.102   9.400   6.225 -1.1442 -0.8099  1.8545
   15MOL0     H 2009   8.197   9.573   6.091  2.7782  2.3599 -2.0693
   15MOL0     H 2010   8.260   9.670   6.225 -0.4330  0.2340 -0.7881
   15MOL0     H 2011   8.345   9.385   6.145  0.4464 -2.0860  3.4265
   15MOL0     H 2012   8.424   9.481   6.277  0.4659 -0.1451 -0.5698
   15MOL0     H 2013   8.439   9.535   5.981  3.6247 -4.5996  0.1837
   15MOL0     H 2014   8.475   9.659   6.114 -0.5528  0.3173  2.0160
   15MOL0     H 2015   8.634   9.495   6.211  0.2380 -1.0601 -0.5863
   15MOL0     H 2016   8.684   9.563   6.054  1.1962 -1.5970  0.2675
   15MOL0     H 2017   8.541   9.291   6.037  0.4821  0.9812  1.2109
   15MOL0     H 2018   8.614   9.401   5.922 -0.3440  1.4610 -0.1133
   15MOL0     H 2019   8.714   9.239   6.253  0.2546 -0.7969  0.1387
   15MOL0     H 2020   8.928   9.175   6.365  0.5434 -1.3380 -0.1535
   15MOL0     H 2021   9.068   9.263   6.291  0.3736 -0.1091 -0.0839
   15MOL0     H 2022   9.110   9.056   6.145  0.7460  1.6072  0.3684
   15MOL0     H 2023   9.147   9.038   6.315  0.7268  0.5653 -0.6637
   15MOL0     H 2024   8.876   8.963   6.302  0.5169 -0.4545  0.8348
   15MOL0     H 2025   8.937   8.881   6.153 -2.5494 -2.1297  1.2446
   15MOL0     H 2026   9.104   8.768   6.275  0.5374 -0.2246  1.7086
   15MOL0     H 2027   9.027   8.828   6.432 -0.7677 -1.8006  0.3089
   15MOL0     H 2028   9.060   8.529   6.401 -1.4672  2.0025 -2.1327
   15MOL0     H 2029   9.053   8.282   6.616 -2.3676  0.8368  0.5708
   15MOL0     H 2030   9.119   8.412   6.716  1.4891 -1.4494 -1.0302
   15MOL0     H 2031   9.153   8.404   6.546 -0.2941  1.2174 -0.7580
   15MOL0     H 2032   8.699   8.505   7.047  0.2065  0.8847  0.7075
   15MOL0     H 2033   8.659   8.464   7.267 -0.3981 -1.4185  0.9022
   15MOL0     H 2034   8.772   8.539   7.491  1.5349  1.5619  2.7965
   15MOL0     H 2035   8.649   8.407   7.491  0.9796  0.5566 -0.0040
   15MOL0     H 2036   8.759   8.310   7.703  0.6586 -0.1072  2.8790
   15MOL0     H 2037   8.859   8.441   7.713  0.1100 -0.2149 -1.0579
   15MOL0     H 2038   8.689   8.504   7.858 -0.9190  1.9885 -0.7794
   15MOL0     H 2039   8.550   8.447   7.756 -0.7147  0.2013  0.4790
   15MOL0     H 2040   8.546   8.612   7.623 -0.2019  0.5834  0.1097
   15MOL0     H 2041   8.708   8.687   7.673 -1.8921  1.9024 -2.7886
   15MOL0     H 2042   8.457   8.658   7.846  0.6077 -2.9946 -3.2808
   15MOL0     H 2043   8.608   8.725   7.900 -2.0958 -3.0178  1.7915
   15MOL0     H 2044   8.577   8.896   7.703 -2.2078  3.5224 -1.3526
   15MOL0     H 2045   8.469   8.911   7.840 -3.2280  0.0290 -1.1551
   15MOL0     H 2046   8.300   8.783   7.748  0.7915  2.4811  1.7189
   15MOL0     H 2047   8.392   8.763   7.583 -1.0661  3.5025 -3.0334
   15MOL0     H 2048   8.410   9.025   7.592 -0.6580  1.0109  0.3329
   15MOL0     H 2049   8.273   9.011   7.704  2.4527 -1.8397  2.8443
   15MOL0     H 2050   9.043   8.288   7.325  0.0782 -0.8732 -0.1058
   15MOL0     H 2051   9.092   8.320   7.074 -0.3903 -2.2148  0.9685
   15MOL0     H 2052   8.657   8.585   6.678  0.5072  1.7599  0.6467
   15MOL0     H 2053   8.699   8.731   6.462  0.4783 -0.7986 -0.2350
   15MOL0     H 2054   8.003   9.507   6.755 -1.2754  2.4302 -0.0375
   15MOL0     H 2055   7.852   9.407   6.939 -1.7433 -0.8901 -0.0122
   15MOL0     H 2056   7.412   9.209   6.996 -0.0426 -2.2788  0.5135
   15MOL0     H 2057   7.266   9.121   7.189 -5.2816  3.5596  1.4174
   15MOL0     H 2058   7.366   9.290   7.596 -2.7920  1.3713  1.5490
   15MOL0     H 2059   7.251   9.172   7.629 -0.4293 -0.5294 -0.4436
   15MOL0     H 2060   7.477   9.095   7.619 -0.4883 -0.6048  0.3300
   15MOL0     H 2061   7.492   9.107   7.439 -0.8376  0.5645 -0.6254
   15MOL0     H 2062   7.275   8.942   7.566 -1.3192  0.2197 -1.8049
   15MOL0     H 2063   7.326   8.950   7.402 -0.7416  1.4865  0.3050
   15MOL0     H 2064   7.493   8.837   7.641 -1.2123  1.6626  1.0319
   15MOL0     H 2065   7.561   8.869   7.489  1.3745 -2.8059  1.0039
   15MOL0     H 2066   7.351   8.510   7.402 -1.3791 -0.2382 -1.6890
   15MOL0     H 2067   7.403   9.445   7.431 -0.7675  1.2882 -0.4262
   15MOL0     H 2068   7.530   9.649   7.285  1.0191  0.9242  1.2483
   15MOL0     H 2069   7.649   9.544   7.365  0.6441  1.2357 -1.2697
   15MOL0     H 2070   7.670   9.574   7.201  0.9559  2.6788 -0.1563
   16MOL0     O 2071   0.769   7.069   9.103  0.0155 -0.1574 -0.7526
   16MOL0     C 2072   0.771   6.988   9.014  0.3201 -0.2885  0.2385
   16MOL0     O 2073   0.672   6.953   8.932  0.4489 -0.0686  0.2871
   16MOL0     C 2074   0.548   7.019   8.955 -0.1667 -0.5673 -0.1571
   16MOL0     C 2075   0.434   6.926   8.969  0.0130  0.1470 -0.2507
   16MOL0     C 2076   0.304   6.982   8.997 -0.8966 -0.7082  0.7384
   16MOL0     C 2077   0.289   7.127   8.987  0.0492 -0.1935 -0.2829
   16MOL0     O 2078   0.163   7.190   9.006 -0.2041  1.5732  0.9264
   16MOL0     C 2079   0.102   7.246   8.886 -0.1529  0.4341  0.0036
   16MOL0     C 2080   0.008   7.149   8.815  0.2295 -0.3944  0.3190
   16MOL0     C 2081  -0.081   7.231   8.718 -0.1976  0.5381 -0.9355
   16MOL0     C 2082  -0.005   7.300   8.595 -0.1448  0.5719  0.0474
   16MOL0     C 2083  -0.089   7.379   8.488  0.3810 -0.8818 -0.1447
   16MOL0     C 2084  -0.223   7.318   8.461 -0.5314  0.4365 -0.4670
   16MOL0     C 2085  -0.300   7.404   8.353 -0.3169  0.7190 -0.6491
   16MOL0     C 2086  -0.235   7.408   8.221 -0.1852  0.1191 -0.3675
   16MOL0     N 2087  -0.329   7.470   8.132 -0.2368  0.0033 -0.2225
   16MOL0     C 2088  -0.366   7.604   8.145 -0.8948 -0.0877 -0.8389
   16MOL0     C 2089  -0.432   7.627   8.026  0.8803  0.0502 -0.5671
   16MOL0     C 2090  -0.473   7.762   7.974  1.1968 -0.1377  0.9451
   16MOL0     C 2091  -0.584   7.820   8.060 -1.0616  0.6979  0.6653
   16MOL0     C 2092  -0.539   7.949   8.111  0.0571 -0.4798  0.3294
   16MOL0     C 2093  -0.649   8.027   8.177 -0.2746  0.1400 -0.3113
   16MOL0     O 2094  -0.574   8.140   8.228 -0.0532 -0.2377  0.4045
   16MOL0     C 2095  -0.653   8.257   8.254 -0.7900 -0.1223 -1.2557
   16MOL0     C 2096  -0.576   8.378   8.244 -0.1104  1.0730  0.7591
   16MOL0     C 2097  -0.644   8.498   8.264  0.0592  0.1366  0.6295
   16MOL0     C 2098  -0.569   8.619   8.246 -0.3572  0.2854  0.1841
   16MOL0     C 2099  -0.787   8.499   8.298  0.7219 -0.6032  0.0872
   16MOL0     C 2100  -0.875   8.624   8.297 -0.2224  0.3972  0.3053
   16MOL0     O 2101  -1.011   8.607   8.299 -0.4494  0.1925 -0.4863
   16MOL0     C 2102  -1.101   8.711   8.299  0.1564 -0.3219 -0.3804
   16MOL0     C 2103  -1.098   8.812   8.202  0.2030 -0.3120  0.1706
   16MOL0     C 2104  -1.198   8.912   8.209 -0.0391 -0.3610 -0.3725
   16MOL0     C 2105  -1.295   8.917   8.314  0.0781  0.5432  0.3252
   16MOL0     O 2106  -1.374   9.029   8.319 -0.9863  0.3890 -0.8303
   16MOL0     C 2107  -1.427   9.075   8.444 -0.0705  0.4183  0.2185
   16MOL0     C 2108  -1.478   9.220   8.419  0.3693 -0.7563 -0.3133
   16MOL0     C 2109  -1.355   9.310   8.391 -0.0653 -0.3761  0.7019
   16MOL0     C 2110  -1.375   9.463   8.404 -0.6766 -0.2345 -0.5623
   16MOL0     C 2111  -1.511   9.519   8.360 -0.2004 -0.2242  0.7563
   16MOL0     C 2112  -1.507   9.679   8.360  0.3846  0.9943  0.1876
   16MOL0     C 2113  -1.616   9.721   8.265 -0.4353 -0.1957 -0.7300
   16MOL0     C 2114  -1.570   9.855   8.207 -0.9877  0.4902  0.7340
   16MOL0    Cl 2115  -1.409   9.860   8.117  0.0259 -0.0967  0.2479
   16MOL0     C 2116  -1.293   8.815   8.404 -1.0771 -0.8774  0.2979
   16MOL0     C 2117  -1.198   8.709   8.395 -0.2756 -0.5222 -0.3852
   16MOL0     O 2118  -0.821   8.731   8.282  0.5416 -0.0766 -0.3907
   16MOL0     C 2119  -0.849   8.378   8.303  0.5687 -0.2041  0.0939
   16MOL0     C 2120  -0.784   8.258   8.287 -0.1337 -0.4631 -0.4791
   16MOL0     N 2121  -0.437   7.511   7.955 -0.1702 -0.1043  0.3101
   16MOL0     N 2122  -0.378   7.422   8.016 -0.2818 -0.3544 -0.1982
   16MOL0     C 2123   0.397   7.211   8.975  0.1045  0.2811 -1.2551
   16MOL0     C 2124   0.523   7.160   8.967 -0.4128  0.5606  0.0549
   16MOL0     C 2125   0.907   6.920   8.988  0.1834  0.9090  0.6496
   16MOL0     C 2126   0.901   6.780   8.940  0.2683 -0.8662 -1.2150
   16MOL0     C 2127   1.015   6.710   8.901 -0.0036 -0.9783 -1.2720
   16MOL0     C 2128   1.143   6.765   8.920 -0.0875  0.3292 -0.7901
   16MOL0     O 2129   1.258   6.684   8.896  0.5374  0.0501  0.2770
   16MOL0     C 2130   1.237   6.546   8.885 -0.5865  0.2179  0.3895
   16MOL0     C 2131   1.373   6.459   8.873  0.3501 -0.2803  1.0656
   16MOL0     C 2132   1.487   6.506   8.969  0.7228  0.0629 -0.0919
   16MOL0     C 2133   1.595   6.409   9.025  0.4841 -0.1793  0.4246
   16MOL0     C 2134   1.550   6.328   9.138  1.1373 -0.1710 -0.4339
   16MOL0     C 2135   1.504   6.270   9.231 -0.1555  1.0469 -0.1989
   16MOL0     C 2136   1.155   6.898   8.956 -0.2007 -0.2475 -0.3573
   16MOL0     C 2137   1.041   6.980   8.994  0.3458  1.1124  0.0877
   16MOL0     C 2138   1.050   7.127   9.042  0.7519 -0.2875 -0.3400
   16MOL0     H 2139   0.466   6.823   8.957  0.7242  0.2973  0.2637
   16MOL0     H 2140   0.219   6.919   9.022 -1.0643  0.3324  3.0043
   16MOL0     H 2141   0.176   7.290   8.818  0.7768 -1.0578 -0.0039
   16MOL0     H 2142   0.037   7.327   8.922 -3.4256 -1.3804 -1.4119
   16MOL0     H 2143   0.066   7.065   8.774  0.5294 -1.0722  2.0489
   16MOL0     H 2144  -0.056   7.105   8.891  0.1923 -0.7724  0.0716
   16MOL0     H 2145  -0.161   7.179   8.664 -0.4950  2.2567 -2.2622
   16MOL0     H 2146  -0.149   7.298   8.772 -0.2075 -0.0180 -0.2563
   16MOL0     H 2147   0.072   7.365   8.638  0.2827 -0.7617  1.4017
   16MOL0     H 2148   0.063   7.230   8.546 -0.3003  1.0428 -0.8587
   16MOL0     H 2149  -0.034   7.397   8.395 -0.5710 -0.2277 -0.6018
   16MOL0     H 2150  -0.109   7.480   8.525  2.9585 -0.6919  0.9817
   16MOL0     H 2151  -0.213   7.212   8.435 -1.8234 -0.3890  2.1127
   16MOL0     H 2152  -0.285   7.324   8.550 -0.7668 -1.2313 -0.4859
   16MOL0     H 2153  -0.310   7.503   8.400 -1.1396 -0.6195  2.2506
   16MOL0     H 2154  -0.402   7.365   8.347 -0.9479  2.1691  0.1712
   16MOL0     H 2155  -0.138   7.457   8.221  2.7184 -4.8726 -1.9929
   16MOL0     H 2156  -0.218   7.302   8.197 -0.0927 -0.5371  2.2740
   16MOL0     H 2157  -0.335   7.680   8.215  1.4538 -2.2125  0.5994
   16MOL0     H 2158  -0.499   7.744   7.869  1.1786  3.6373  0.1569
   16MOL0     H 2159  -0.393   7.836   7.973 -1.5622  3.2468  4.0305
   16MOL0     H 2160  -0.672   7.837   7.998  1.1276  0.8835 -2.6122
   16MOL0     H 2161  -0.608   7.750   8.141 -1.3530 -0.8038 -0.6573
   16MOL0     H 2162  -0.461   7.930   8.185  2.5220  0.7984 -1.7675
   16MOL0     H 2163  -0.509   8.008   8.024 -0.6087 -0.0119  0.4063
   16MOL0     H 2164  -0.721   8.056   8.100 -0.2337  1.5377  0.1359
   16MOL0     H 2165  -0.700   7.974   8.259  0.2512  0.9683  0.5822
   16MOL0     H 2166  -0.472   8.358   8.219  0.1547  1.8124  1.2480
   16MOL0     H 2167  -0.468   8.597   8.210 -1.2719  1.0394 -3.3111
   16MOL0     H 2168  -0.573   8.675   8.340 -1.4807 -1.5340  1.2794
   16MOL0     H 2169  -0.615   8.673   8.162 -0.7850  0.6324  0.6392
   16MOL0     H 2170  -1.024   8.823   8.123 -1.3690  2.0002 -1.0903
   16MOL0     H 2171  -1.200   8.996   8.140 -0.5096  1.7998  2.0993
   16MOL0     H 2172  -1.500   9.001   8.476  2.3436 -1.0127  2.9041
   16MOL0     H 2173  -1.354   9.064   8.524 -0.5269  0.5993  0.6649
   16MOL0     H 2174  -1.549   9.211   8.337 -0.6249 -2.8148  0.7007
   16MOL0     H 2175  -1.531   9.255   8.508  3.1076 -4.4162  3.1189
   16MOL0     H 2176  -1.344   9.289   8.284  0.0957  1.1082  0.4080
   16MOL0     H 2177  -1.267   9.268   8.440  0.3784 -2.9701 -1.9977
   16MOL0     H 2178  -1.290   9.518   8.362 -1.3288  1.2075 -0.0580
   16MOL0     H 2179  -1.368   9.484   8.511  0.7049  2.7562 -1.1467
   16MOL0     H 2180  -1.526   9.483   8.258 -1.3286 -0.1359  0.8744
   16MOL0     H 2181  -1.604   9.489   8.409 -3.6316 -0.8053 -5.1905
   16MOL0     H 2182  -1.406   9.711   8.333 -0.0829  1.6976 -0.7963
   16MOL0     H 2183  -1.524   9.713   8.462  0.5857  0.0644  0.5448
   16MOL0     H 2184  -1.712   9.743   8.312 -1.0701  0.1192 -2.1071
   16MOL0     H 2185  -1.634   9.650   8.184  0.7015 -0.6408 -0.5961
   16MOL0     H 2186  -1.565   9.930   8.286  0.0951  0.5088  0.6610
   16MOL0     H 2187  -1.645   9.883   8.133  1.2490  1.3116 -1.3615
   16MOL0     H 2188  -1.368   8.798   8.481 -2.3820 -0.8204 -0.9216
   16MOL0     H 2189  -1.201   8.623   8.462 -2.2993 -0.8373 -0.8434
   16MOL0     H 2190  -0.957   8.378   8.315  0.4957  1.3072 -0.3873
   16MOL0     H 2191  -0.832   8.163   8.309 -1.0240  0.3770  1.4478
   16MOL0     H 2192   0.389   7.316   9.002 -2.1412 -0.7838  2.9826
   16MOL0     H 2193   0.608   7.226   8.956 -0.2401  0.2416 -0.5910
   16MOL0     H 2194   0.802   6.749   8.907  0.7971 -1.8144 -1.9559
   16MOL0     H 2195   0.989   6.612   8.862 -2.6633 -0.6223 -0.6148
   16MOL0     H 2196   1.181   6.519   8.975 -0.1507 -0.4749  0.4578
   16MOL0     H 2197   1.172   6.526   8.798  0.2727  3.1295 -1.0388
   16MOL0     H 2198   1.405   6.453   8.769  1.3688  2.0013  1.1897
   16MOL0     H 2199   1.362   6.354   8.900 -0.7420 -1.1552 -2.3459
   16MOL0     H 2200   1.551   6.576   8.915 -0.8607  1.8637  0.2416
   16MOL0     H 2201   1.439   6.548   9.057  4.7740 -0.3169  2.5935
   16MOL0     H 2202   1.680   6.472   9.052 -1.6055  2.1051  2.0970
   16MOL0     H 2203   1.632   6.355   8.937  0.7917  1.1086 -0.2550
   16MOL0     H 2204   1.460   6.235   9.322  1.7614  1.8404  1.1028
   16MOL0     H 2205   1.248   6.953   8.970  0.6349 -1.5991 -0.4304
   16MOL0     H 2206   1.149   7.168   9.021  1.6733 -1.7818  0.8989
   16MOL0     H 2207   0.978   7.177   8.977  1.8865  0.1325 -1.3035
   16MOL0     H 2208   1.023   7.151   9.145 -1.5543 -2.8330 -0.2392
   17MOL0     O 2209  10.816   4.058   6.942  0.0660  0.5697  0.3774
   17MOL0     C 2210  10.723   4.002   6.997 -0.8164 -0.5553  0.0029
   17MOL0     O 2211  10.747   3.914   7.101  0.1407  1.0623 -0.3261
   17MOL0     C 2212  10.875   3.868   7.137  0.8872 -0.8036  1.1197
   17MOL0     C 2213  10.968   3.949   7.207 -0.7430  0.7970  0.2140
   17MOL0     C 2214  11.098   3.900   7.245 -0.4211 -0.0046  0.5646
   17MOL0     C 2215  11.139   3.774   7.198 -0.3005 -0.1931 -0.0608
   17MOL0     O 2216  11.254   3.711   7.229 -0.0819 -0.0666 -0.4552
   17MOL0     C 2217  11.333   3.766   7.339  0.3132  0.3335 -0.0618
   17MOL0     C 2218  11.448   3.852   7.288  0.5416 -0.1461  0.5632
   17MOL0     C 2219  11.516   3.922   7.415  0.0920  0.2933 -0.5307
   17MOL0     C 2220  11.637   4.005   7.371 -0.4704  0.7938 -0.4291
   17MOL0     C 2221  11.696   4.077   7.491 -0.3652 -0.6646  0.1137
   17MOL0     C 2222  11.721   3.989   7.616 -0.8592 -0.0503 -0.6772
   17MOL0     C 2223  11.774   4.093   7.720  0.4165  0.3139 -0.2162
   17MOL0     C 2224  11.824   4.024   7.845  0.0659 -0.2940  0.1914
   17MOL0     N 2225  11.961   3.956   7.845  0.8970 -0.4687  0.4495
   17MOL0     C 2226  12.070   4.015   7.898  0.2072 -0.0089  0.4269
   17MOL0     C 2227  12.166   3.916   7.891 -0.6037 -0.1965  0.2613
   17MOL0     C 2228  12.312   3.912   7.914 -0.4466 -0.0127  0.1246
   17MOL0     C 2229  12.376   3.899   7.767  1.2220 -0.1167 -0.2024
   17MOL0     C 2230  12.351   4.033   7.686 -0.2568  0.6620 -0.0991
   17MOL0     C 2231  12.226   4.037   7.597 -0.3332  0.4181 -0.6765
   17MOL0     O 2232  12.135   4.142   7.631 -0.0338  0.3982 -0.2928
   17MOL0     C 2233  12.174   4.272   7.642 -0.1681 -0.1723 -0.3312
   17MOL0     C 2234  12.084   4.367   7.712 -0.0004  0.7652 -0.3266
   17MOL0     C 2235  12.130   4.498   7.740  0.0349 -0.1559  0.5772
   17MOL0     C 2236  12.033   4.573   7.834 -0.3265  0.2464 -0.2122
   17MOL0     C 2237  12.259   4.557   7.703  0.3153  0.3115 -0.0680
   17MOL0     C 2238  12.320   4.689   7.740 -0.1883 -0.1696  0.9604
   17MOL0     O 2239  12.442   4.711   7.694 -0.5170  0.5419 -0.0942
   17MOL0     C 2240  12.514   4.827   7.712  1.1845  0.4743  0.5770
   17MOL0     C 2241  12.529   4.895   7.835  1.0816  0.3085  0.5962
   17MOL0     C 2242  12.583   5.020   7.846 -0.4443  0.0089  0.6235
   17MOL0     C 2243  12.632   5.077   7.736  0.6035 -0.3142  1.4340
   17MOL0     O 2244  12.699   5.189   7.755  0.0308 -0.2500 -0.2011
   17MOL0     C 2245  12.819   5.167   7.823 -0.5960  0.1798 -0.3320
   17MOL0     C 2246  12.902   5.299   7.814 -0.2175  0.2195 -0.2188
   17MOL0     C 2247  12.853   5.387   7.924  0.2643  0.1096 -0.3085
   17MOL0     C 2248  12.916   5.521   7.935 -0.2412 -0.0622 -0.3640
   17MOL0     C 2249  12.847   5.610   8.032 -0.4536  0.2383 -0.5737
   17MOL0     C 2250  12.900   5.751   8.036  0.3628  0.5216  0.3882
   17MOL0     C 2251  12.872   5.821   7.899  0.5526  0.2611 -0.4617
   17MOL0     C 2252  12.884   5.978   7.913  0.9802  1.5604  0.5789
   17MOL0    Cl 2253  13.040   6.027   7.980  0.6038  0.1516  0.1583
   17MOL0     C 2254  12.632   5.014   7.605  0.5402 -0.2367 -1.1663
   17MOL0     C 2255  12.575   4.884   7.596 -0.0207 -0.3549  0.4824
   17MOL0     O 2256  12.258   4.776   7.807 -0.1754  1.2383  0.4041
   17MOL0     C 2257  12.336   4.460   7.623 -0.2417 -0.6025  0.1193
   17MOL0     C 2258  12.296   4.328   7.593 -0.2355  0.1944  0.8753
   17MOL0     N 2259  12.101   3.807   7.828 -0.2961  0.5062 -0.8333
   17MOL0     N 2260  11.988   3.834   7.793 -0.8092  0.1588 -0.6330
   17MOL0     C 2261  11.036   3.696   7.137 -0.9880 -0.4201  0.4318
   17MOL0     C 2262  10.909   3.741   7.103 -0.5585 -0.4668 -0.3658
   17MOL0     C 2263  10.584   4.046   6.969 -0.0652  0.3747 -0.5233
   17MOL0     C 2264  10.484   3.961   7.023 -0.2979  0.2824 -0.5353
   17MOL0     C 2265  10.350   3.997   7.008  0.8120 -0.2716 -0.2757
   17MOL0     C 2266  10.310   4.109   6.933 -0.2723 -0.1700 -0.5210
   17MOL0     O 2267  10.181   4.147   6.916  1.0590  0.2816 -0.9693
   17MOL0     C 2268  10.101   4.043   6.848  0.8209 -0.3256  0.3478
   17MOL0     C 2269  10.031   3.943   6.948 -0.8859 -0.6988  0.0644
   17MOL0     C 2270   9.968   4.020   7.066 -0.2245 -0.4073  0.4408
   17MOL0     C 2271   9.844   4.098   7.024 -0.0010 -0.4243 -0.6095
   17MOL0     C 2272   9.802   4.175   7.140  0.1574 -0.4997  0.2943
   17MOL0     C 2273   9.771   4.235   7.239  0.5247 -0.5228  0.8589
   17MOL0     C 2274  10.411   4.190   6.876  0.1530  0.2538 -0.5823
   17MOL0     C 2275  10.543   4.160   6.895  0.0113 -0.8326 -0.0235
   17MOL0     C 2276  10.647   4.266   6.834 -1.0039  0.1020  0.6140
   17MOL0     H 2277  10.944   4.052   7.233 -0.2290  0.5661  1.7405
   17MOL0     H 2278  11.166   3.967   7.297 -0.5561  1.6538 -1.2575
   17MOL0     H 2279  11.385   3.684   7.389 -1.9720  1.0229  3.8267
   17MOL0     H 2280  11.273   3.809   7.419 -0.8941 -0.4582 -0.5065
   17MOL0     H 2281  11.519   3.793   7.229 -0.8300 -1.6420  0.3629
   17MOL0     H 2282  11.402   3.928   7.225  0.0373 -3.0173 -2.8275
   17MOL0     H 2283  11.443   3.988   7.464  1.7742  1.9341 -0.1189
   17MOL0     H 2284  11.541   3.838   7.479  1.8353  1.5914  0.5698
   17MOL0     H 2285  11.706   3.935   7.324 -1.8893 -1.3159  0.4530
   17MOL0     H 2286  11.617   4.082   7.296 -1.8003 -0.3347 -1.2981
   17MOL0     H 2287  11.634   4.166   7.511  3.6088  2.3855  0.1655
   17MOL0     H 2288  11.793   4.113   7.455 -1.8884  2.6691 -1.1059
   17MOL0     H 2289  11.630   3.943   7.652 -0.6961  1.3264  1.6738
   17MOL0     H 2290  11.799   3.914   7.599  0.0600  0.9094 -0.8746
   17MOL0     H 2291  11.705   4.171   7.753 -0.2629 -0.3476 -0.0275
   17MOL0     H 2292  11.861   4.135   7.669 -0.2415 -0.1859 -1.8050
   17MOL0     H 2293  11.821   4.098   7.926  2.2142  2.9258 -2.4306
   17MOL0     H 2294  11.768   3.936   7.878  0.3891 -0.4516  0.3282
   17MOL0     H 2295  12.086   4.117   7.932  0.4857  0.2029 -0.3113
   17MOL0     H 2296  12.343   3.841   7.991 -2.2790 -2.8398 -1.5494
   17MOL0     H 2297  12.340   4.011   7.950  2.4688 -1.5089  2.4437
   17MOL0     H 2298  12.482   3.875   7.774  1.9908  3.0779  0.2947
   17MOL0     H 2299  12.338   3.814   7.708 -0.8062  2.0129 -2.2129
   17MOL0     H 2300  12.350   4.117   7.757  1.9833 -0.0913  0.9199
   17MOL0     H 2301  12.432   4.054   7.617 -1.1980  1.5465 -0.9623
   17MOL0     H 2302  12.246   4.052   7.491  2.4680  2.1022 -0.0134
   17MOL0     H 2303  12.183   3.936   7.593  1.0635 -0.3187  1.3523
   17MOL0     H 2304  11.998   4.324   7.762  1.2917 -2.7808 -0.8677
   17MOL0     H 2305  12.073   4.552   7.934 -1.1702  2.1919  0.5699
   17MOL0     H 2306  11.932   4.529   7.834 -0.8638  1.3237  1.7979
   17MOL0     H 2307  12.027   4.680   7.814 -0.3504  0.7786  2.2586
   17MOL0     H 2308  12.488   4.852   7.926 -0.7490  3.4440  1.4388
   17MOL0     H 2309  12.601   5.058   7.946  0.5317  1.1654  0.0337
   17MOL0     H 2310  12.800   5.133   7.925  0.5511 -1.3549 -0.5905
   17MOL0     H 2311  12.879   5.087   7.778 -2.4567  0.3985 -3.4637
   17MOL0     H 2312  13.008   5.271   7.817 -0.4872 -0.7843  2.8671
   17MOL0     H 2313  12.895   5.344   7.714 -1.4745 -0.7261 -0.5777
   17MOL0     H 2314  12.866   5.337   8.021 -0.6182  0.0462 -0.2149
   17MOL0     H 2315  12.747   5.407   7.907 -0.3377 -3.2057 -1.2238
   17MOL0     H 2316  12.911   5.570   7.837  0.2281  0.4440 -0.1446
   17MOL0     H 2317  13.019   5.514   7.971 -0.9739  0.0162  1.8643
   17MOL0     H 2318  12.744   5.622   7.999 -0.8846  0.0229  0.6287
   17MOL0     H 2319  12.853   5.561   8.130  0.0793  0.0056 -0.7151
   17MOL0     H 2320  13.007   5.751   8.062  0.0798  1.7429  1.6734
   17MOL0     H 2321  12.852   5.812   8.113 -2.4227  0.6609 -1.3318
   17MOL0     H 2322  12.785   5.790   7.841  0.5158 -4.5876  1.7583
   17MOL0     H 2323  12.960   5.790   7.841  1.3447 -1.1219  1.3715
   17MOL0     H 2324  12.799   6.009   7.974 -1.9178 -0.3503 -2.1774
   17MOL0     H 2325  12.880   6.021   7.813 -1.9534 -0.0140 -0.0871
   17MOL0     H 2326  12.676   5.066   7.521  0.6654  0.8605 -0.4322
   17MOL0     H 2327  12.544   4.845   7.500 -0.5944  0.1769  0.4409
   17MOL0     H 2328  12.440   4.474   7.596 -0.1589 -0.2834  0.5902
   17MOL0     H 2329  12.366   4.267   7.537 -0.3762  1.3042 -0.5677
   17MOL0     H 2330  11.043   3.592   7.108 -3.6373 -0.7484  0.7030
   17MOL0     H 2331  10.848   3.664   7.057 -2.0691  0.1044  0.6298
   17MOL0     H 2332  10.517   3.867   7.065  2.1061  2.1189  2.0819
   17MOL0     H 2333  10.287   3.920   7.051 -1.4759  0.5725 -1.8376
   17MOL0     H 2334  10.023   4.090   6.787 -1.7792 -1.8747  2.2790
   17MOL0     H 2335  10.168   3.983   6.785 -0.4517  2.2527 -3.8573
   17MOL0     H 2336  10.107   3.881   6.996  0.8549  1.8235  0.7060
   17MOL0     H 2337   9.951   3.888   6.897 -1.6556 -1.4099  1.9433
   17MOL0     H 2338   9.961   3.953   7.153  0.1379 -0.4658  0.4245
   17MOL0     H 2339  10.037   4.099   7.095  1.2635 -1.3697 -0.3947
   17MOL0     H 2340   9.770   4.023   6.996  1.1543 -1.3082 -1.3986
   17MOL0     H 2341   9.868   4.169   6.944 -1.4195  1.7990  0.8240
   17MOL0     H 2342   9.721   4.270   7.327 -0.2397  0.6653 -0.0077
   17MOL0     H 2343  10.384   4.285   6.832  2.0336  1.4665  0.6972
   17MOL0     H 2344  10.690   4.223   6.743 -2.1340 -2.2447  1.1089
   17MOL0     H 2345  10.603   4.364   6.818  1.7350  1.2044 -0.8952
   17MOL0     H 2346  10.736   4.280   6.896  0.4649  0.3819 -1.4611
   18MOL0     O 2347   5.900   0.395  10.275  1.0072 -0.5740 -0.6921
   18MOL0     C 2348   5.834   0.371  10.385 -0.1807  0.7177  0.2183
   18MOL0     O 2349   5.897   0.364  10.508  0.4562  0.3397  0.0314
   18MOL0     C 2350   6.035   0.345  10.523 -0.0389  0.5154  1.0169
   18MOL0     C 2351   6.106   0.269  10.429  0.5933 -0.0505  0.0490
   18MOL0     C 2352   6.244   0.252  10.449  0.3673 -0.2282 -0.5478
   18MOL0     C 2353   6.311   0.300  10.562 -0.0978 -0.2781  0.3907
   18MOL0     O 2354   6.449   0.291  10.567  0.5295 -0.1991  0.2429
   18MOL0     C 2355   6.502   0.422  10.560  0.0222  0.1305 -0.9001
   18MOL0     C 2356   6.578   0.456  10.701 -0.4838  0.5294  0.0960
   18MOL0     C 2357   6.666   0.340  10.759 -1.2412 -0.5354 -0.3675
   18MOL0     C 2358   6.800   0.343  10.688 -0.5405  0.5478 -0.0896
   18MOL0     C 2359   6.897   0.253  10.764  0.0677 -0.1501 -0.1829
   18MOL0     C 2360   6.967   0.315  10.890 -0.1677  0.3825  0.9016
   18MOL0     C 2361   7.079   0.213  10.932 -0.1358 -0.4377  0.0847
   18MOL0     C 2362   7.124   0.263  11.069 -0.7109  1.0898 -0.6126
   18MOL0     N 2363   7.235   0.182  11.105 -0.7112  0.0127 -0.3554
   18MOL0     C 2364   7.251   0.115  11.226  0.5898  0.5660  0.2642
   18MOL0     C 2365   7.363   0.040  11.217  0.3945 -0.6767 -0.6529
   18MOL0     C 2366   7.430  -0.047  11.324  0.6674 -0.5692  0.5678
   18MOL0     C 2367   7.391  -0.007  11.467  0.8662 -0.0014  0.3459
   18MOL0     C 2368   7.470  -0.081  11.573  0.2793 -0.3430  0.2599
   18MOL0     C 2369   7.616  -0.027  11.591  0.2546 -0.1631  0.0643
   18MOL0     O 2370   7.669  -0.083  11.708 -0.2315 -0.0902 -0.7124
   18MOL0     C 2371   7.796  -0.046  11.728 -0.3702  0.8252 -0.2424
   18MOL0     C 2372   7.881   0.043  11.666 -0.2723 -1.1134 -0.1768
   18MOL0     C 2373   8.014   0.077  11.706  0.7600  0.0620 -0.3948
   18MOL0     C 2374   8.093   0.164  11.616  0.8586 -0.1917  0.8929
   18MOL0     C 2375   8.058   0.027  11.830 -0.5022 -0.0108  0.5684
   18MOL0     C 2376   8.189   0.058  11.896  0.1861  1.3602 -0.6218
   18MOL0     O 2377   8.219  -0.011  12.018  0.8140  1.4381  0.4694
   18MOL0     C 2378   8.353  -0.046  12.044 -0.4435  0.2041  0.0001
   18MOL0     C 2379   8.459  -0.056  11.950  0.2466 -0.1436  0.2540
   18MOL0     C 2380   8.591  -0.102  11.993 -0.8565 -1.0484 -0.1287
   18MOL0     C 2381   8.610  -0.145  12.127 -1.1607 -0.2057  0.5073
   18MOL0     O 2382   8.728  -0.194  12.164 -0.4588 -0.0461 -0.0494
   18MOL0     C 2383   8.771  -0.308  12.091 -0.4059 -0.4372  0.2490
   18MOL0     C 2384   8.896  -0.372  12.153 -0.6596  0.2331  0.4623
   18MOL0     C 2385   8.871  -0.453  12.285 -1.0304  0.5542 -0.1037
   18MOL0     C 2386   8.775  -0.572  12.267 -0.0741 -0.3584  0.0323
   18MOL0     C 2387   8.814  -0.675  12.153  0.4801 -0.4373 -0.0852
   18MOL0     C 2388   8.728  -0.805  12.153  0.1459  0.0656 -0.3454
   18MOL0     C 2389   8.578  -0.789  12.172 -0.2790 -0.1156  0.2862
   18MOL0     C 2390   8.502  -0.904  12.094 -0.5422 -0.0067  0.6122
   18MOL0    Cl 2391   8.524  -1.061  12.157  0.1552  0.1436  0.0960
   18MOL0     C 2392   8.509  -0.129  12.211  0.7863 -0.0009 -0.0454
   18MOL0     C 2393   8.381  -0.082  12.172 -0.7629  0.4177 -0.2911
   18MOL0     O 2394   8.269   0.117  11.832  0.2503  0.4776 -0.0388
   18MOL0     C 2395   7.973  -0.060  11.900  0.3274  0.7105  0.5384
   18MOL0     C 2396   7.850  -0.092  11.849  0.5741  0.2280  0.6200
   18MOL0     N 2397   7.414   0.054  11.092 -0.3855  0.0563 -1.2104
   18MOL0     N 2398   7.342   0.137  11.026 -0.5465 -0.5272 -0.5332
   18MOL0     C 2399   6.237   0.376  10.653 -0.3036  0.2528 -0.0848
   18MOL0     C 2400   6.095   0.397  10.631  0.0467 -0.1953  0.1924
   18MOL0     C 2401   5.687   0.374  10.392  0.6500 -0.4635 -0.1439
   18MOL0     C 2402   5.622   0.269  10.467 -0.6821 -1.3435 -0.8415
   18MOL0     C 2403   5.486   0.266  10.468 -0.3384 -0.3760  0.4339
   18MOL0     C 2404   5.401   0.358  10.406  0.2999  0.4340  0.3319
   18MOL0     O 2405   5.270   0.365  10.441  0.6112  0.2571  0.4188
   18MOL0     C 2406   5.192   0.247  10.487 -0.7241  0.1417  0.4106
   18MOL0     C 2407   5.158   0.249  10.638  0.0172  0.0496 -0.2827
   18MOL0     C 2408   5.273   0.238  10.739  0.3725 -1.2244 -0.8217
   18MOL0     C 2409   5.217   0.244  10.890 -0.1222 -0.4938  0.4040
   18MOL0     C 2410   5.190   0.384  10.942 -0.2652  0.0528 -0.6063
   18MOL0     C 2411   5.188   0.486  10.999  0.3685 -1.3520  0.3312
   18MOL0     C 2412   5.462   0.447  10.323  0.6163 -0.0988  0.0221
   18MOL0     C 2413   5.600   0.463  10.318 -0.7467 -0.3614 -0.5604
   18MOL0     C 2414   5.663   0.565  10.217 -0.1785  0.5737 -1.2236
   18MOL0     H 2415   6.061   0.227  10.340 -1.4772  1.6832  0.2178
   18MOL0     H 2416   6.308   0.202  10.378  0.3721 -1.0564  0.0174
   18MOL0     H 2417   6.429   0.498  10.533  1.6657  2.1852  0.1471
   18MOL0     H 2418   6.575   0.424  10.478  1.0633 -4.2368 -0.3563
   18MOL0     H 2419   6.640   0.545  10.692  0.2401 -0.2086 -3.4781
   18MOL0     H 2420   6.500   0.468  10.778  0.8379 -1.8005  1.9567
   18MOL0     H 2421   6.685   0.348  10.867  0.6400 -0.7230 -0.6522
   18MOL0     H 2422   6.635   0.239  10.731 -1.1595 -0.2872 -1.3764
   18MOL0     H 2423   6.795   0.316  10.583  1.1044  0.6001 -0.2041
   18MOL0     H 2424   6.838   0.445  10.692  0.1592  0.2935 -0.0620
   18MOL0     H 2425   6.970   0.217  10.691 -1.1805 -2.6150 -0.3309
   18MOL0     H 2426   6.837   0.167  10.797  0.6412 -0.6938 -0.5322
   18MOL0     H 2427   6.999   0.412  10.850  1.3469 -0.8981 -1.1957
   18MOL0     H 2428   6.893   0.328  10.969 -0.0652  1.8844  0.7914
   18MOL0     H 2429   7.159   0.221  10.858  0.3809 -1.2272  0.5501
   18MOL0     H 2430   7.054   0.107  10.922  1.8063 -0.8035 -1.5339
   18MOL0     H 2431   7.149   0.369  11.053  2.6596  0.0390 -3.4843
   18MOL0     H 2432   7.043   0.259  11.142 -0.7683  0.0854 -0.7225
   18MOL0     H 2433   7.177   0.126  11.305 -0.9627 -0.1337 -1.0401
   18MOL0     H 2434   7.538  -0.034  11.318  0.8454 -0.5759  2.7605
   18MOL0     H 2435   7.403  -0.152  11.311  0.2340 -0.3654 -0.2067
   18MOL0     H 2436   7.407   0.100  11.479 -1.6123  0.3808  0.6937
   18MOL0     H 2437   7.287  -0.015  11.499  1.1012 -1.7178  0.7692
   18MOL0     H 2438   7.422  -0.040  11.662 -1.9509  2.4435 -2.0544
   18MOL0     H 2439   7.462  -0.189  11.554 -0.4963 -0.0032 -1.5229
   18MOL0     H 2440   7.687  -0.044  11.509  0.6917  3.1542 -0.3813
   18MOL0     H 2441   7.602   0.082  11.588 -0.6544 -0.2930 -1.3431
   18MOL0     H 2442   7.842   0.096  11.579 -1.4510 -1.0755  0.3498
   18MOL0     H 2443   8.088   0.268  11.648  0.8029  0.2802 -0.5808
   18MOL0     H 2444   8.060   0.165  11.512 -2.2643 -2.4937  1.7171
   18MOL0     H 2445   8.198   0.133  11.607  0.7971  0.2409 -2.6428
   18MOL0     H 2446   8.432  -0.039  11.847 -2.1771  1.4883  1.0689
   18MOL0     H 2447   8.680  -0.095  11.930  1.3035  2.4466  2.9273
   18MOL0     H 2448   8.690  -0.380  12.081  0.5636 -1.3847 -1.0491
   18MOL0     H 2449   8.803  -0.284  11.990 -3.8896 -3.1122 -1.6937
   18MOL0     H 2450   8.940  -0.443  12.082 -0.3625 -1.4120  2.1963
   18MOL0     H 2451   8.970  -0.292  12.165  0.4866 -0.8256  0.7424
   18MOL0     H 2452   8.814  -0.379  12.341 -1.0231  2.3445 -2.3200
   18MOL0     H 2453   8.962  -0.487  12.334 -0.6817  2.6529  0.7937
   18MOL0     H 2454   8.672  -0.542  12.248 -0.0662 -0.2133  0.2143
   18MOL0     H 2455   8.774  -0.626  12.362  2.3265  0.1122  0.3887
   18MOL0     H 2456   8.811  -0.626  12.056 -1.6764  3.2482  1.6274
   18MOL0     H 2457   8.912  -0.722  12.168 -0.0438 -0.8796  2.6544
   18MOL0     H 2458   8.768  -0.876  12.227 -0.4126  1.8963  1.8529
   18MOL0     H 2459   8.746  -0.853  12.057  1.9616  0.4829 -0.2543
   18MOL0     H 2460   8.544  -0.691  12.136 -2.2820 -1.8556 -3.0953
   18MOL0     H 2461   8.557  -0.800  12.279 -1.3022 -1.9609 -0.0661
   18MOL0     H 2462   8.538  -0.895  11.991  2.6247  0.2172  1.6233
   18MOL0     H 2463   8.396  -0.880  12.101 -0.2203  1.7134  0.0689
   18MOL0     H 2464   8.511  -0.146  12.318 -1.0396 -0.8431 -0.1057
   18MOL0     H 2465   8.304  -0.069  12.247 -0.2723 -3.6972  1.1912
   18MOL0     H 2466   8.000  -0.108  11.994 -2.2466  0.0137  0.9795
   18MOL0     H 2467   7.779  -0.146  11.912  1.6439 -3.5226 -1.0998
   18MOL0     H 2468   6.268   0.423  10.745 -3.0256  3.6552 -0.7032
   18MOL0     H 2469   6.029   0.467  10.682  2.5763  1.9192  0.7911
   18MOL0     H 2470   5.681   0.194  10.517  0.5488  0.1761  0.0855
   18MOL0     H 2471   5.444   0.185  10.526  2.8205 -4.0840 -1.9557
   18MOL0     H 2472   5.098   0.241  10.432  0.7142 -2.1177 -1.9970
   18MOL0     H 2473   5.244   0.153  10.470  0.3860  0.8022  0.0284
   18MOL0     H 2474   5.094   0.161  10.653  1.4316 -0.9570  0.0462
   18MOL0     H 2475   5.093   0.333  10.665  0.6852  0.2048  0.9043
   18MOL0     H 2476   5.313   0.138  10.722 -1.3154 -1.7514 -1.9454
   18MOL0     H 2477   5.356   0.305  10.715 -0.1517  0.2524  1.1824
   18MOL0     H 2478   5.287   0.192  10.956 -1.0048 -1.8380  0.3145
   18MOL0     H 2479   5.120   0.194  10.897 -0.7790  0.9349  2.2214
   18MOL0     H 2480   5.172   0.583  11.042  1.9821  0.2896 -2.4895
   18MOL0     H 2481   5.403   0.510  10.258  1.7868  1.3107  0.2641
   18MOL0     H 2482   5.594   0.643  10.186  0.0458  0.6430 -1.5541
   18MOL0     H 2483   5.745   0.613  10.272 -0.1047  1.3921 -2.0331
   18MOL0     H 2484   5.707   0.519  10.128  1.3499 -1.3292  0.4218
   19MOL0     O 2485  10.650   4.770   5.915  1.2689  0.3724 -0.2660
   19MOL0     C 2486  10.705   4.686   5.844 -0.0993 -0.6489 -0.2604
   19MOL0     O 2487  10.756   4.565   5.899  0.9037  0.6069  0.1659
   19MOL0     C 2488  10.700   4.518   6.015  0.2631 -0.1396  0.3500
   19MOL0     C 2489  10.566   4.535   6.059 -0.3825 -0.4690  0.0297
   19MOL0     C 2490  10.519   4.462   6.170 -0.6988 -0.0975 -0.1016
   19MOL0     C 2491  10.611   4.391   6.251 -0.5709  0.0574  0.2876
   19MOL0     O 2492  10.587   4.339   6.371  0.5057 -0.2156 -0.1768
   19MOL0     C 2493  10.466   4.352   6.441 -0.6405 -0.8959  0.5988
   19MOL0     C 2494  10.467   4.469   6.543  0.2088 -0.4660  0.0552
   19MOL0     C 2495  10.464   4.612   6.490  0.7228 -0.3151  0.0969
   19MOL0     C 2496  10.422   4.722   6.584  0.0724 -0.4907 -0.3239
   19MOL0     C 2497  10.510   4.738   6.710  0.5241  0.2168 -0.8640
   19MOL0     C 2498  10.644   4.810   6.685 -0.4889 -0.7469 -0.4567
   19MOL0     C 2499  10.734   4.829   6.800  0.0735 -0.7300 -0.7584
   19MOL0     C 2500  10.826   4.956   6.805  0.5497  0.2197 -0.8656
   19MOL0     N 2501  10.740   5.082   6.814 -0.2975  0.2128 -0.3806
   19MOL0     C 2502  10.710   5.136   6.934  0.2340  0.5287 -0.2522
   19MOL0     C 2503  10.619   5.241   6.912  0.0060 -0.1774 -0.7515
   19MOL0     C 2504  10.566   5.335   7.021 -0.0749 -0.1731  0.2416
   19MOL0     C 2505  10.642   5.473   7.031 -0.1108  1.1242 -0.3482
   19MOL0     C 2506  10.789   5.471   7.054 -0.1052  0.1147  0.7146
   19MOL0     C 2507  10.837   5.614   7.062 -1.3613  0.3873  0.5040
   19MOL0     O 2508  10.793   5.677   7.182  1.3966 -0.4043  0.8651
   19MOL0     C 2509  10.818   5.808   7.203 -0.5188  0.3394 -0.4348
   19MOL0     C 2510  10.859   5.844   7.328  1.1732 -0.0828 -0.3486
   19MOL0     C 2511  10.871   5.975   7.373 -0.3363 -0.9717 -0.7770
   19MOL0     C 2512  10.912   5.982   7.522  0.3357  0.7398 -0.0109
   19MOL0     C 2513  10.862   6.083   7.286  0.0287  0.0522  0.2717
   19MOL0     C 2514  10.879   6.228   7.316 -0.5985 -0.7218  0.0066
   19MOL0     O 2515  10.891   6.272   7.444  0.2509 -0.3582 -0.6241
   19MOL0     C 2516  10.892   6.409   7.467 -0.4525 -0.2854 -0.4424
   19MOL0     C 2517  10.975   6.441   7.580 -1.0707  0.2902 -0.6404
   19MOL0     C 2518  11.001   6.569   7.618  0.1614 -0.6648  0.0805
   19MOL0     C 2519  10.943   6.671   7.546 -0.7716  0.0765 -0.7445
   19MOL0     O 2520  10.971   6.798   7.581 -0.2480 -0.1673 -0.2599
   19MOL0     C 2521  11.075   6.828   7.673 -0.9539  1.1555 -0.5787
   19MOL0     C 2522  11.084   6.981   7.686  1.0795 -0.0013  0.1042
   19MOL0     C 2523  11.217   7.022   7.757 -1.1131 -0.3852 -0.7902
   19MOL0     C 2524  11.345   7.033   7.665 -0.5246 -0.2534 -1.0278
   19MOL0     C 2525  11.342   7.167   7.599 -1.0655 -0.0840  0.3743
   19MOL0     C 2526  11.450   7.191   7.491 -0.1136  0.3242 -0.0314
   19MOL0     C 2527  11.447   7.345   7.465 -0.3016  0.0119 -0.2058
   19MOL0     C 2528  11.511   7.387   7.336  0.0406  0.1571 -0.7769
   19MOL0    Cl 2529  11.681   7.313   7.319  0.2693  0.4764 -0.3427
   19MOL0     C 2530  10.855   6.647   7.446  0.1264  0.7355 -0.1083
   19MOL0     C 2531  10.830   6.519   7.402  1.1079  0.2060  0.1971
   19MOL0     O 2532  10.875   6.299   7.220 -0.1855 -0.2081  0.8390
   19MOL0     C 2533  10.820   6.044   7.155 -0.1783 -0.1351 -0.1403
   19MOL0     C 2534  10.805   5.906   7.114  0.3789  0.8909 -0.4098
   19MOL0     N 2535  10.603   5.241   6.777 -0.7755 -0.1778 -0.0812
   19MOL0     N 2536  10.674   5.152   6.718  0.1562  0.0966 -0.3850
   19MOL0     C 2537  10.746   4.377   6.206 -0.5413 -0.6255  0.1643
   19MOL0     C 2538  10.782   4.439   6.085 -0.4201 -0.5705 -0.7875
   19MOL0     C 2539  10.752   4.706   5.705  0.4783  0.1944 -0.1315
   19MOL0     C 2540  10.821   4.608   5.641  0.1576  0.0424 -0.2065
   19MOL0     C 2541  10.866   4.617   5.508 -0.1243  0.1788  0.0589
   19MOL0     C 2542  10.843   4.734   5.436  0.5728 -0.1260  0.1862
   19MOL0     O 2543  10.895   4.740   5.315  0.3544 -0.0037  0.4629
   19MOL0     C 2544  10.861   4.848   5.227  0.2135 -0.6683 -0.7487
   19MOL0     C 2545  10.863   4.808   5.082  0.2546 -0.3473 -1.0319
   19MOL0     C 2546  11.010   4.778   5.033  0.0475  0.0073  0.2235
   19MOL0     C 2547  11.016   4.721   4.889  0.0313  0.1357  0.4949
   19MOL0     C 2548  11.155   4.699   4.846 -0.9295 -0.2221 -0.5486
   19MOL0     C 2549  11.274   4.700   4.819 -0.9166 -0.0225 -0.2082
   19MOL0     C 2550  10.771   4.833   5.500  0.6727 -0.2374  0.0628
   19MOL0     C 2551  10.732   4.828   5.632  1.0462  0.5633 -0.8697
   19MOL0     C 2552  10.664   4.946   5.690  0.1330  0.3260 -0.1886
   19MOL0     H 2553  10.496   4.593   5.999 -1.0122 -2.0074 -0.7960
   19MOL0     H 2554  10.412   4.461   6.189 -1.0014  0.3575 -1.6069
   19MOL0     H 2555  10.441   4.261   6.495 -0.7629 -1.7754 -0.8819
   19MOL0     H 2556  10.380   4.369   6.375 -0.5253  1.5701  1.0028
   19MOL0     H 2557  10.378   4.460   6.605 -2.7853  2.9040 -3.2415
   19MOL0     H 2558  10.563   4.461   6.595  0.6282 -1.2724 -0.8162
   19MOL0     H 2559  10.567   4.631   6.459  1.0042  1.6371  1.9634
   19MOL0     H 2560  10.399   4.620   6.402  0.7879 -1.8916 -0.1157
   19MOL0     H 2561  10.418   4.816   6.529  1.0677 -0.2897 -0.0554
   19MOL0     H 2562  10.316   4.700   6.604  0.3253 -0.2836  1.3778
   19MOL0     H 2563  10.528   4.638   6.750 -0.9212 -0.2291 -1.2751
   19MOL0     H 2564  10.465   4.801   6.788  1.9633  0.5530 -0.2774
   19MOL0     H 2565  10.707   4.759   6.612  0.8924 -2.7264  1.9489
   19MOL0     H 2566  10.617   4.909   6.647 -0.1598  0.4310  2.1667
   19MOL0     H 2567  10.792   4.737   6.809  0.3652 -0.3839  1.2943
   19MOL0     H 2568  10.677   4.845   6.892 -1.2641 -0.5040 -1.5997
   19MOL0     H 2569  10.891   4.956   6.893 -0.9682  3.2172  0.4203
   19MOL0     H 2570  10.889   4.945   6.717  0.3584  0.7288 -1.0722
   19MOL0     H 2571  10.728   5.099   7.035 -2.7057 -0.3075  0.0360
   19MOL0     H 2572  10.564   5.287   7.119 -1.9602 -2.4206 -0.7886
   19MOL0     H 2573  10.459   5.343   6.996 -0.6192 -2.7168  1.4978
   19MOL0     H 2574  10.629   5.520   6.933  0.5036 -1.6692 -1.8740
   19MOL0     H 2575  10.590   5.530   7.109 -1.7384 -4.1758  2.9818
   19MOL0     H 2576  10.818   5.422   7.148 -0.1283 -1.0179  0.1485
   19MOL0     H 2577  10.847   5.421   6.976  1.4731  1.0448  1.2267
   19MOL0     H 2578  10.945   5.609   7.079 -1.2369  0.1854 -0.3080
   19MOL0     H 2579  10.813   5.666   6.969 -2.7934 -0.6205  0.2821
   19MOL0     H 2580  10.870   5.762   7.399  0.1819  0.6188  0.6544
   19MOL0     H 2581  11.019   6.004   7.523  0.4194  0.4773 -1.3744
   19MOL0     H 2582  10.899   5.889   7.578  0.9546  0.3459 -0.5060
   19MOL0     H 2583  10.862   6.056   7.585  3.3870  2.0674  1.0548
   19MOL0     H 2584  11.026   6.372   7.647 -3.4415 -1.4989 -0.5732
   19MOL0     H 2585  11.056   6.584   7.710 -0.9921  2.0310  0.4281
   19MOL0     H 2586  11.060   6.791   7.775 -1.6982  0.4405 -0.9259
   19MOL0     H 2587  11.169   6.781   7.642 -1.1704 -1.0328  1.7571
   19MOL0     H 2588  11.062   7.024   7.588 -3.0364  0.4902  1.0703
   19MOL0     H 2589  11.003   7.014   7.751  0.9144 -0.4008  0.1021
   19MOL0     H 2590  11.239   6.943   7.830  0.6852 -0.7608 -1.6888
   19MOL0     H 2591  11.204   7.120   7.803 -1.3596 -0.7477 -0.0764
   19MOL0     H 2592  11.347   6.951   7.593 -2.2807  1.5245 -3.2897
   19MOL0     H 2593  11.431   7.043   7.731 -0.8609 -1.9672 -0.2913
   19MOL0     H 2594  11.249   7.189   7.545  0.4218  1.8778 -1.5828
   19MOL0     H 2595  11.352   7.237   7.683  0.2834 -1.0231  1.0329
   19MOL0     H 2596  11.435   7.136   7.398  4.3704 -3.0498  0.8996
   19MOL0     H 2597  11.542   7.152   7.537 -0.6477 -0.3296  0.5135
   19MOL0     H 2598  11.489   7.406   7.546  3.8974  0.3865 -2.3565
   19MOL0     H 2599  11.343   7.377   7.461 -0.2406  0.1990 -0.2877
   19MOL0     H 2600  11.518   7.496   7.342 -1.9950  0.2707  0.7777
   19MOL0     H 2601  11.446   7.359   7.253  1.0432  2.0556 -2.2684
   19MOL0     H 2602  10.811   6.725   7.385 -0.2779  1.4677  1.0870
   19MOL0     H 2603  10.775   6.509   7.309  0.5499  0.5346  0.4830
   19MOL0     H 2604  10.788   6.116   7.080  1.7330  0.3854 -0.5304
   19MOL0     H 2605  10.768   5.871   7.019 -1.8822  1.7162  0.1118
   19MOL0     H 2606  10.827   4.331   6.262 -0.0995  2.3425  2.1700
   19MOL0     H 2607  10.886   4.432   6.056  0.9424  3.8427  2.0432
   19MOL0     H 2608  10.847   4.521   5.701 -2.2698  0.4816  1.6103
   19MOL0     H 2609  10.920   4.539   5.456  2.0434  1.3931  0.3409
   19MOL0     H 2610  10.757   4.876   5.248  1.3655  2.3413  1.7050
   19MOL0     H 2611  10.918   4.937   5.255 -0.8696 -0.5984  1.5314
   19MOL0     H 2612  10.825   4.898   5.032 -0.5351  0.5193  1.0110
   19MOL0     H 2613  10.796   4.726   5.055  0.4516 -0.2257 -1.9151
   19MOL0     H 2614  11.070   4.870   5.040  0.5843 -0.3002 -0.2781
   19MOL0     H 2615  11.055   4.701   5.096 -0.8469  0.7914  1.8797
   19MOL0     H 2616  10.964   4.786   4.817 -0.2600  0.4013  0.9383
   19MOL0     H 2617  10.964   4.624   4.884  1.5889 -0.6652 -1.3120
   19MOL0     H 2618  11.372   4.715   4.778 -1.2471 -3.2284 -2.5181
   19MOL0     H 2619  10.766   4.932   5.455 -1.6097 -1.2190 -2.1097
   19MOL0     H 2620  10.571   4.910   5.735  1.9348 -3.1871  1.1009
   19MOL0     H 2621  10.722   4.990   5.772 -1.6486  2.6012 -0.0623
   19MOL0     H 2622  10.645   5.019   5.612 -0.4208 -1.1527 -1.4861
   20MOL0     O 2623   8.916   4.209   5.303  0.1393  0.7334  0.5166
   20MOL0     C 2624   8.896   4.329   5.293 -0.0932  0.0949  0.3569
   20MOL0     O 2625   8.785   4.388   5.344  0.1610  0.2613 -0.1701
   20MOL0     C 2626   8.689   4.308   5.408 -0.6556  0.3552 -0.1691
   20MOL0     C 2627   8.730   4.236   5.523  0.8245 -0.5584 -0.4020
   20MOL0     C 2628   8.633   4.160   5.596 -0.5313 -0.1377 -0.8379
   20MOL0     C 2629   8.495   4.161   5.545 -0.1263 -0.0828 -0.1261
   20MOL0     O 2630   8.406   4.089   5.614 -1.1103  0.6014 -0.7420
   20MOL0     C 2631   8.429   3.945   5.630 -0.3930  0.2586 -0.2444
   20MOL0     C 2632   8.305   3.870   5.597 -0.1395 -0.3983  0.4782
   20MOL0     C 2633   8.202   3.855   5.706  0.4965  0.3142 -0.0163
   20MOL0     C 2634   8.064   3.816   5.637 -0.0799  0.3410  0.1335
   20MOL0     C 2635   8.058   3.672   5.588 -0.3105 -0.1201  0.4981
   20MOL0     C 2636   7.920   3.635   5.532 -0.4838 -0.5212 -0.3503
   20MOL0     C 2637   7.799   3.665   5.615  0.7931 -0.0428 -0.2328
   20MOL0     C 2638   7.795   3.584   5.751  0.0186  0.0181 -0.2287
   20MOL0     N 2639   7.659   3.590   5.800  0.2350 -0.9678 -0.4448
   20MOL0     C 2640   7.579   3.702   5.835  0.0979  0.2623 -0.1967
   20MOL0     C 2641   7.451   3.656   5.836  0.7087 -0.1811 -0.4900
   20MOL0     C 2642   7.329   3.727   5.890  0.7730 -0.0455 -0.5390
   20MOL0     C 2643   7.297   3.851   5.797 -0.3937  0.6995 -0.1558
   20MOL0     C 2644   7.239   3.791   5.663 -0.4230  0.1196 -0.8074
   20MOL0     C 2645   7.245   3.906   5.558  0.2042 -0.5228  0.1229
   20MOL0     O 2646   7.375   3.967   5.550  0.8864 -0.3282  0.0262
   20MOL0     C 2647   7.463   3.939   5.455 -0.2141 -0.0495 -1.2910
   20MOL0     C 2648   7.449   3.850   5.348 -0.0720  0.3503  0.0180
   20MOL0     C 2649   7.550   3.810   5.265  0.1196  0.1135  0.2132
   20MOL0     C 2650   7.526   3.685   5.191  0.5393 -0.7104 -0.6431
   20MOL0     C 2651   7.682   3.868   5.282  0.1878 -0.5013  0.6879
   20MOL0     C 2652   7.795   3.833   5.198  0.3180 -0.2182  0.9702
   20MOL0     O 2653   7.915   3.879   5.233 -0.1242 -0.8758 -0.2094
   20MOL0     C 2654   8.034   3.865   5.167  0.0858  0.6178 -0.5356
   20MOL0     C 2655   8.055   3.785   5.046  0.3815 -0.7505  0.6231
   20MOL0     C 2656   8.185   3.764   4.996 -0.4194  0.1452  0.1663
   20MOL0     C 2657   8.298   3.821   5.064  0.1762  0.0057  0.6534
   20MOL0     O 2658   8.424   3.810   5.010  0.7215 -0.3911  0.6495
   20MOL0     C 2659   8.502   3.700   5.056 -0.4327 -0.3716  0.0384
   20MOL0     C 2660   8.463   3.563   4.979 -0.5696  0.0356  0.2502
   20MOL0     C 2661   8.543   3.448   5.040 -0.8756  0.0356 -0.0620
   20MOL0     C 2662   8.502   3.398   5.185 -0.1052 -0.7806 -0.1932
   20MOL0     C 2663   8.366   3.338   5.194 -0.4264  0.5098  0.2817
   20MOL0     C 2664   8.315   3.292   5.332  0.2865 -0.0608  0.1606
   20MOL0     C 2665   8.296   3.403   5.433 -0.2512  0.3242 -0.6807
   20MOL0     C 2666   8.324   3.346   5.571 -0.3396  0.9073 -0.1528
   20MOL0    Cl 2667   8.305   3.481   5.695  0.1762 -0.1151  0.0091
   20MOL0     C 2668   8.276   3.905   5.183  0.4109  0.0022  1.1186
   20MOL0     C 2669   8.149   3.918   5.227  0.5347  0.4527 -0.4870
   20MOL0     O 2670   7.778   3.759   5.102  0.4604 -0.4615  0.2888
   20MOL0     C 2671   7.697   3.960   5.387 -0.7010  0.6492 -0.0026
   20MOL0     C 2672   7.582   4.000   5.471 -0.1842 -0.3246 -0.5276
   20MOL0     N 2673   7.457   3.517   5.829 -0.2702  0.2772 -0.2047
   20MOL0     N 2674   7.581   3.479   5.808  0.1784  0.1860 -0.4538
   20MOL0     C 2675   8.463   4.222   5.424  0.3562  0.1110 -0.1512
   20MOL0     C 2676   8.560   4.303   5.354  0.0385 -0.4062 -0.2170
   20MOL0     C 2677   8.990   4.401   5.204 -0.3753  0.5529  0.4577
   20MOL0     C 2678   9.071   4.325   5.107  0.7419  0.1961 -0.3853
   20MOL0     C 2679   9.155   4.380   5.011  0.6210 -0.0125 -0.6594
   20MOL0     C 2680   9.160   4.524   5.014 -0.2478 -0.2706 -0.2121
   20MOL0     O 2681   9.228   4.583   4.907 -0.0049 -0.3117  0.4675
   20MOL0     C 2682   9.256   4.728   4.896  0.1144  0.0081  1.0152
   20MOL0     C 2683   9.328   4.732   4.755 -0.1952  0.1066  0.4697
   20MOL0     C 2684   9.362   4.876   4.715 -0.1077  0.7298 -0.7280
   20MOL0     C 2685   9.403   4.900   4.569  0.2807  0.3292 -0.8531
   20MOL0     C 2686   9.389   5.046   4.548  0.3593 -0.5786 -0.6289
   20MOL0     C 2687   9.406   5.165   4.513 -0.1487 -0.0818 -0.3803
   20MOL0     C 2688   9.088   4.591   5.102  0.3693 -0.6674 -0.1595
   20MOL0     C 2689   9.014   4.534   5.201  0.2174 -0.6803 -0.0768
   20MOL0     C 2690   8.953   4.628   5.296 -0.2120 -0.3509  0.3553
   20MOL0     H 2691   8.836   4.238   5.545  1.3447 -1.3729 -2.5869
   20MOL0     H 2692   8.653   4.110   5.690 -3.0765  0.8159  0.3113
   20MOL0     H 2693   8.462   3.915   5.730  1.1319  0.7966 -0.5596
   20MOL0     H 2694   8.503   3.913   5.557 -0.4024  0.5981 -0.4062
   20MOL0     H 2695   8.263   3.925   5.512  4.4718  0.2046 -1.7334
   20MOL0     H 2696   8.324   3.768   5.564 -5.1051 -1.1695 -0.9359
   20MOL0     H 2697   8.233   3.773   5.771  2.5264  0.5981 -0.5719
   20MOL0     H 2698   8.202   3.951   5.759 -0.7992  0.2089  0.2027
   20MOL0     H 2699   7.992   3.819   5.719 -0.4961  1.0408 -0.2576
   20MOL0     H 2700   8.036   3.887   5.559 -0.0444 -0.3543 -0.5230
   20MOL0     H 2701   8.078   3.606   5.672  1.0947  0.5652  0.7243
   20MOL0     H 2702   8.134   3.653   5.512  4.1679  0.4113  4.4064
   20MOL0     H 2703   7.892   3.670   5.432 -1.5441 -1.2519 -0.3214
   20MOL0     H 2704   7.926   3.527   5.518  1.0086 -0.5290  0.1254
   20MOL0     H 2705   7.712   3.635   5.556 -0.6671  3.7103 -0.2423
   20MOL0     H 2706   7.789   3.769   5.648  0.8376  0.7634 -2.6311
   20MOL0     H 2707   7.823   3.480   5.732 -1.0026 -0.4784  0.8119
   20MOL0     H 2708   7.859   3.628   5.829 -0.8750  1.0383 -0.0614
   20MOL0     H 2709   7.595   3.806   5.863  2.5872 -0.4362  1.3333
   20MOL0     H 2710   7.347   3.759   5.994 -1.3623 -0.0048 -0.1475
   20MOL0     H 2711   7.243   3.660   5.894 -0.2473  1.2079 -0.8667
   20MOL0     H 2712   7.234   3.919   5.855  0.4736 -2.6935  5.4839
   20MOL0     H 2713   7.393   3.900   5.777  1.1491 -2.4626 -1.0599
   20MOL0     H 2714   7.296   3.705   5.626  0.9124 -0.1027  1.5265
   20MOL0     H 2715   7.137   3.757   5.683 -0.9266  3.0088  2.6721
   20MOL0     H 2716   7.213   3.869   5.460  0.0410 -0.4583  0.1527
   20MOL0     H 2717   7.173   3.980   5.592 -1.5855 -2.4080  0.5863
   20MOL0     H 2718   7.357   3.797   5.325 -0.4066  0.2598  1.4503
   20MOL0     H 2719   7.543   3.697   5.083 -1.3269  4.7027 -0.6899
   20MOL0     H 2720   7.425   3.649   5.211  0.5140 -1.5958 -2.1788
   20MOL0     H 2721   7.590   3.605   5.228  0.1877 -1.0703 -0.8070
   20MOL0     H 2722   7.969   3.758   4.986 -2.5936  1.2082  3.6404
   20MOL0     H 2723   8.200   3.702   4.908  2.9329  0.6002  0.2495
   20MOL0     H 2724   8.607   3.716   5.030 -0.3518  1.5861  1.2854
   20MOL0     H 2725   8.493   3.690   5.165  1.3507 -1.0646  0.1557
   20MOL0     H 2726   8.355   3.547   4.993 -0.3291 -1.9058  0.1677
   20MOL0     H 2727   8.489   3.569   4.873 -1.6612 -0.5422 -0.0677
   20MOL0     H 2728   8.649   3.473   5.051  0.0459 -4.1139  2.7574
   20MOL0     H 2729   8.536   3.374   4.960 -1.4390  2.2253 -2.1361
   20MOL0     H 2730   8.509   3.491   5.241 -2.1602  0.5020 -1.9391
   20MOL0     H 2731   8.580   3.329   5.220  0.2077  0.8442  2.6081
   20MOL0     H 2732   8.290   3.410   5.164 -1.5348 -0.5076  0.5440
   20MOL0     H 2733   8.351   3.255   5.123  2.0951 -0.0552  0.3167
   20MOL0     H 2734   8.383   3.213   5.367 -0.5279 -1.3538 -1.0945
   20MOL0     H 2735   8.217   3.243   5.324  0.5870 -0.6619  0.0398
   20MOL0     H 2736   8.195   3.444   5.439 -0.3276 -0.0266  1.5464
   20MOL0     H 2737   8.364   3.487   5.424  0.5355 -0.0764  1.0057
   20MOL0     H 2738   8.429   3.315   5.582  0.0389  2.3341  0.5499
   20MOL0     H 2739   8.257   3.262   5.587 -1.2097  1.7327  0.6393
   20MOL0     H 2740   8.352   3.966   5.230 -1.1237  3.6613 -0.7826
   20MOL0     H 2741   8.134   3.970   5.321 -0.0777 -1.8562  0.7656
   20MOL0     H 2742   7.794   3.994   5.422 -0.2043 -0.3914 -0.3151
   20MOL0     H 2743   7.597   4.055   5.563 -2.9345 -0.2551 -0.0490
   20MOL0     H 2744   8.363   4.224   5.384  0.4528  2.8436 -0.4861
   20MOL0     H 2745   8.538   4.354   5.261 -1.1492  2.1382  1.3521
   20MOL0     H 2746   9.060   4.218   5.097  0.0714  0.3330 -1.1823
   20MOL0     H 2747   9.208   4.326   4.933 -0.0720 -0.0608 -1.1074
   20MOL0     H 2748   9.175   4.801   4.906  0.8403  1.4185 -2.0175
   20MOL0     H 2749   9.339   4.761   4.960  1.7944  2.6855 -2.2155
   20MOL0     H 2750   9.268   4.681   4.679 -1.8336  1.8761  0.5259
   20MOL0     H 2751   9.422   4.675   4.762  0.4838  0.8481 -1.6591
   20MOL0     H 2752   9.277   4.938   4.744  1.5314  2.1465  1.3726
   20MOL0     H 2753   9.450   4.913   4.769 -0.4295 -0.6565  0.8543
   20MOL0     H 2754   9.339   4.851   4.495  1.2373  0.0766 -1.5273
   20MOL0     H 2755   9.505   4.861   4.558  0.7586  0.9415  1.0420
   20MOL0     H 2756   9.419   5.264   4.475  3.0917 -0.4318 -0.4591
   20MOL0     H 2757   9.092   4.699   5.093 -0.6966 -0.6624 -0.6475
   20MOL0     H 2758   8.993   4.597   5.393  1.6667 -2.4027 -0.9988
   20MOL0     H 2759   8.970   4.733   5.271 -1.0675 -0.0499  0.9925
   20MOL0     H 2760   8.844   4.615   5.292 -0.1771 -0.2847 -1.6570
   21MOL0     O 2761   2.771  10.396   8.514  0.1147  0.4211  0.5750
   21MOL0     C 2762   2.671  10.374   8.444  0.5389  0.4293  0.4420
   21MOL0     O 2763   2.557  10.314   8.490  0.2110 -0.5855  0.2771
   21MOL0     C 2764   2.525  10.244   8.605  0.6805 -0.6210 -1.2574
   21MOL0     C 2765   2.411  10.157   8.615  0.5320 -0.5549  0.4468
   21MOL0     C 2766   2.377  10.084   8.723 -0.1970  0.0961 -0.0684
   21MOL0     C 2767   2.459  10.087   8.838 -0.3147  0.6600 -0.8383
   21MOL0     O 2768   2.432  10.022   8.950  0.0487 -0.0470 -0.0490
   21MOL0     C 2769   2.354   9.905   8.947  0.6242 -0.1989 -0.3502
   21MOL0     C 2770   2.208   9.920   8.980  1.0203  0.0906 -0.0075
   21MOL0     C 2771   2.145   9.777   9.000  1.4202 -0.4359  0.3439
   21MOL0     C 2772   2.162   9.685   8.885  0.0556 -0.2880  1.3259
   21MOL0     C 2773   2.089   9.549   8.910  0.5048  0.0784 -0.2857
   21MOL0     C 2774   2.152   9.473   9.028  0.0877 -0.9829 -0.0740
   21MOL0     C 2775   2.092   9.333   9.045  0.1423  0.2582 -0.0318
   21MOL0     C 2776   2.148   9.268   9.164 -0.6967 -0.2089  0.0303
   21MOL0     N 2777   2.087   9.134   9.168 -0.7613 -0.3099 -0.3451
   21MOL0     C 2778   2.169   9.027   9.199  0.1033 -0.1906  0.0534
   21MOL0     C 2779   2.079   8.924   9.218 -0.1351  0.6584  0.0587
   21MOL0     C 2780   2.113   8.786   9.240  0.4629  0.3844 -0.1020
   21MOL0     C 2781   2.198   8.752   9.363  0.3780  0.6832  0.2623
   21MOL0     C 2782   2.121   8.785   9.501 -0.9670 -0.1761  0.2377
   21MOL0     C 2783   2.060   8.666   9.556  0.2453 -0.0857 -0.5876
   21MOL0     O 2784   1.984   8.689   9.679 -0.1469 -0.0277  0.1582
   21MOL0     C 2785   1.942   8.586   9.757  0.0752 -0.4302 -0.7426
   21MOL0     C 2786   1.931   8.453   9.719  0.0022 -0.0566  1.0139
   21MOL0     C 2787   1.856   8.349   9.780  0.9315 -0.1172 -0.3735
   21MOL0     C 2788   1.822   8.222   9.712  0.2385  0.3894  1.2625
   21MOL0     C 2789   1.809   8.395   9.910  0.2401 -0.0878 -0.3361
   21MOL0     C 2790   1.732   8.301   9.993 -0.2771  0.0383  0.3673
   21MOL0     O 2791   1.759   8.169   9.993 -0.5745 -0.0537  0.4861
   21MOL0     C 2792   1.657   8.083  10.016 -0.0061 -0.2429 -1.0865
   21MOL0     C 2793   1.524   8.109   9.986  1.0559  0.0673  0.1161
   21MOL0     C 2794   1.429   8.004   9.984  0.2549  0.1854 -0.3300
   21MOL0     C 2795   1.467   7.878  10.016 -0.4585 -0.1574  0.1819
   21MOL0     O 2796   1.369   7.782  10.011  0.1438 -0.5194 -0.5204
   21MOL0     C 2797   1.377   7.680  10.113  0.0644 -0.7304  0.6897
   21MOL0     C 2798   1.242   7.613  10.131  0.1672  1.0838 -0.0129
   21MOL0     C 2799   1.140   7.710  10.195 -0.3760  0.2437 -0.0730
   21MOL0     C 2800   1.104   7.827  10.105  0.7331 -0.1231 -0.6656
   21MOL0     C 2801   0.960   7.852  10.118 -0.1333  0.3445 -0.2807
   21MOL0     C 2802   0.927   7.910  10.255  0.4389  0.9285  0.1311
   21MOL0     C 2803   0.782   7.955  10.265 -0.3453  0.7052  0.1981
   21MOL0     C 2804   0.665   7.855  10.254  0.3063 -0.3718  0.5402
   21MOL0    Cl 2805   0.530   7.929  10.336 -0.4058  0.2317 -0.0536
   21MOL0     C 2806   1.603   7.851  10.044  0.0872  0.7063  1.7524
   21MOL0     C 2807   1.689   7.953  10.046 -0.2834 -0.7767 -0.0146
   21MOL0     O 2808   1.640   8.352  10.055 -0.9174  0.7370 -0.3887
   21MOL0     C 2809   1.822   8.526   9.954 -0.2871 -0.7007  0.4107
   21MOL0     C 2810   1.883   8.623   9.874  0.6622  0.6471 -0.5875
   21MOL0     N 2811   1.941   8.967   9.199 -0.6430  0.1009 -0.3088
   21MOL0     N 2812   1.956   9.099   9.175 -0.4641  0.1152  1.3668
   21MOL0     C 2813   2.575  10.163   8.827 -0.5585 -0.7097  0.3880
   21MOL0     C 2814   2.605  10.246   8.718 -0.4078  0.2410 -0.2758
   21MOL0     C 2815   2.671  10.399   8.299 -0.1570  0.6596 -0.3841
   21MOL0     C 2816   2.597  10.319   8.216 -0.2212  0.5812 -0.1677
   21MOL0     C 2817   2.588  10.343   8.078 -0.5217 -0.1742  0.0441
   21MOL0     C 2818   2.660  10.446   8.017  0.5351 -0.1353  0.7674
   21MOL0     O 2819   2.630  10.462   7.886 -0.0440 -0.1096  0.1916
   21MOL0     C 2820   2.719  10.544   7.805  0.3847 -0.4050 -0.2000
   21MOL0     C 2821   2.677  10.561   7.658 -0.7556  0.1809  0.7510
   21MOL0     C 2822   2.536  10.616   7.642 -0.0276  0.7119 -0.3821
   21MOL0     C 2823   2.511  10.673   7.500 -0.3255  0.5802 -0.5008
   21MOL0     C 2824   2.378  10.733   7.474 -0.2698  0.1918 -0.7927
   21MOL0     C 2825   2.265  10.762   7.446  0.7234 -0.6620  0.7522
   21MOL0     C 2826   2.743  10.518   8.098  0.3924  0.1235 -0.3490
   21MOL0     C 2827   2.751  10.498   8.239  0.5675  0.4478 -0.2342
   21MOL0     C 2828   2.814  10.605   8.326 -0.8073 -0.0734  0.3509
   21MOL0     H 2829   2.344  10.150   8.530 -0.3458  1.2421  0.9511
   21MOL0     H 2830   2.290  10.020   8.728 -0.4205 -0.0187 -3.1972
   21MOL0     H 2831   2.397   9.840   9.023  2.4218  1.2418 -0.0806
   21MOL0     H 2832   2.382   9.846   8.859  2.1837 -1.3673  0.8693
   21MOL0     H 2833   2.199   9.968   9.077  0.4148 -0.9884  0.4894
   21MOL0     H 2834   2.158   9.979   8.902  0.9271 -0.5510 -0.4445
   21MOL0     H 2835   2.186   9.733   9.092 -2.4651 -1.3129  1.8482
   21MOL0     H 2836   2.039   9.798   9.017  1.2708  1.2081 -2.0705
   21MOL0     H 2837   2.115   9.735   8.800  1.7776  0.8867  1.0202
   21MOL0     H 2838   2.269   9.663   8.874  0.5009  0.8057  3.1135
   21MOL0     H 2839   2.115   9.485   8.826 -0.9159 -0.2980 -0.4640
   21MOL0     H 2840   1.982   9.566   8.898  0.8527  2.1097 -0.9710
   21MOL0     H 2841   2.260   9.459   9.018  0.2476 -1.0512  1.4412
   21MOL0     H 2842   2.141   9.535   9.118  3.4632 -2.2576  1.3900
   21MOL0     H 2843   2.111   9.274   8.955  2.0377  0.9577 -0.1365
   21MOL0     H 2844   1.983   9.336   9.053  0.2760  2.9855  2.8315
   21MOL0     H 2845   2.258   9.264   9.161 -0.4488  2.8828  1.4814
   21MOL0     H 2846   2.130   9.329   9.252  3.3863  0.6960  0.4209
   21MOL0     H 2847   2.276   9.009   9.191  0.1059  0.7102 -2.5271
   21MOL0     H 2848   2.172   8.741   9.159 -0.4559  0.3567 -0.7718
   21MOL0     H 2849   2.023   8.727   9.258  1.8047 -1.3620  1.2814
   21MOL0     H 2850   2.242   8.652   9.364 -1.5067 -0.2035  2.2258
   21MOL0     H 2851   2.279   8.824   9.347 -1.3996  2.4040 -1.5491
   21MOL0     H 2852   2.188   8.836   9.572  0.3747  3.7800 -3.4382
   21MOL0     H 2853   2.042   8.856   9.477  0.3236  1.5555  0.8641
   21MOL0     H 2854   2.003   8.622   9.474  2.0582  0.7074 -2.3633
   21MOL0     H 2855   2.143   8.597   9.577  0.3598  0.2518  0.0949
   21MOL0     H 2856   1.965   8.430   9.618  0.5829  0.1794  1.1514
   21MOL0     H 2857   1.857   8.143   9.779  0.9858  1.6750  2.4623
   21MOL0     H 2858   1.881   8.213   9.621 -0.1073 -0.2260  1.0960
   21MOL0     H 2859   1.714   8.213   9.699  0.1354  0.4041  2.0417
   21MOL0     H 2860   1.481   8.202   9.951  0.4828  0.0402  0.7317
   21MOL0     H 2861   1.328   8.031   9.954  0.4212  1.3480  0.1156
   21MOL0     H 2862   1.448   7.600  10.092 -0.4208 -1.3062  1.1829
   21MOL0     H 2863   1.416   7.726  10.204 -1.0333  0.4733  0.5773
   21MOL0     H 2864   1.200   7.583  10.035  2.7109  3.4116 -2.0211
   21MOL0     H 2865   1.257   7.520  10.187 -3.8824  0.8011  0.9799
   21MOL0     H 2866   1.175   7.743  10.293  0.6282 -1.3038  0.1179
   21MOL0     H 2867   1.046   7.655  10.202  0.3877 -0.9467  1.3808
   21MOL0     H 2868   1.115   7.803   9.999 -0.5182 -0.1142 -0.8104
   21MOL0     H 2869   1.158   7.920  10.125 -2.3731  1.1645  2.9197
   21MOL0     H 2870   0.928   7.912  10.033  1.3172 -0.3690 -1.3767
   21MOL0     H 2871   0.899   7.764  10.097 -1.4591  1.5336 -1.5922
   21MOL0     H 2872   0.990   7.993  10.286  2.3866 -0.0771 -0.9437
   21MOL0     H 2873   0.953   7.831  10.325  2.6699  1.4053 -0.0865
   21MOL0     H 2874   0.778   8.042  10.199  2.2014  0.9768  0.2929
   21MOL0     H 2875   0.774   8.004  10.363  0.5418  3.0122 -0.7952
   21MOL0     H 2876   0.693   7.773  10.321 -0.2035 -0.8212  0.2108
   21MOL0     H 2877   0.642   7.827  10.151 -0.0883  1.4450  0.1122
   21MOL0     H 2878   1.637   7.749  10.060  0.2292  0.3540 -0.4639
   21MOL0     H 2879   1.796   7.939  10.058 -0.1140 -0.0285 -0.5439
   21MOL0     H 2880   1.780   8.553  10.051  1.3519  1.8346  0.5112
   21MOL0     H 2881   1.894   8.720   9.920 -1.4688 -0.0132  1.5168
   21MOL0     H 2882   2.646  10.156   8.909 -0.7858 -1.6748  0.5156
   21MOL0     H 2883   2.696  10.305   8.714 -0.9344  1.0219 -1.0573
   21MOL0     H 2884   2.536  10.236   8.249 -1.6446  2.0629  1.1229
   21MOL0     H 2885   2.537  10.267   8.020 -0.0068  0.3854 -1.1715
   21MOL0     H 2886   2.716  10.646   7.845 -1.0552 -0.0778 -1.0694
   21MOL0     H 2887   2.821  10.510   7.827 -0.1299 -1.1911  1.0914
   21MOL0     H 2888   2.673  10.462   7.612 -2.6555 -0.0752  1.3574
   21MOL0     H 2889   2.763  10.616   7.621 -1.0518  0.2889  0.2206
   21MOL0     H 2890   2.458  10.542   7.664  0.4506  0.5963  1.0580
   21MOL0     H 2891   2.518  10.688   7.723 -0.8054 -1.9738  2.0342
   21MOL0     H 2892   2.524  10.598   7.421  0.2677  0.0417  0.0894
   21MOL0     H 2893   2.588  10.750   7.486  1.0351 -0.4222  1.0882
   21MOL0     H 2894   2.164  10.773   7.412  0.6240 -5.1628 -1.0153
   21MOL0     H 2895   2.815  10.591   8.062  0.6829 -0.3734 -0.7815
   21MOL0     H 2896   2.864  10.676   8.259  2.4361 -1.9638  0.5735
   21MOL0     H 2897   2.742  10.663   8.384 -1.0650  1.7129 -1.6367
   21MOL0     H 2898   2.902  10.563   8.376  0.9972  0.9999 -1.7582
   22MOL0     O 2899   8.301   8.985   1.269 -0.4149 -0.1932  0.0125
   22MOL0     C 2900   8.342   9.051   1.177  0.2559  1.4188 -0.1283
   22MOL0     O 2901   8.467   9.040   1.124 -0.5418 -0.5257  0.8213
   22MOL0     C 2902   8.544   8.929   1.149  0.3126  0.5113 -0.6995
   22MOL0     C 2903   8.497   8.793   1.135  0.3393  0.5686 -0.1101
   22MOL0     C 2904   8.578   8.682   1.163  0.1228 -1.1773 -1.0718
   22MOL0     C 2905   8.709   8.698   1.218 -0.0546  0.8941  0.2731
   22MOL0     O 2906   8.794   8.594   1.254  0.1290 -0.1929 -0.5715
   22MOL0     C 2907   8.773   8.473   1.190 -0.2211  0.5883 -0.8414
   22MOL0     C 2908   8.912   8.407   1.191 -0.7701 -0.5889 -0.6692
   22MOL0     C 2909   8.926   8.278   1.111 -1.5853  0.2960  0.8272
   22MOL0     C 2910   9.061   8.208   1.124  0.2740  0.2651 -0.9698
   22MOL0     C 2911   9.085   8.092   1.024 -1.0468  0.4718 -0.6464
   22MOL0     C 2912   9.191   7.986   1.082 -1.0124 -0.6894 -0.2752
   22MOL0     C 2913   9.237   7.888   0.970  0.1213  0.2026 -0.7520
   22MOL0     C 2914   9.311   7.764   1.027 -0.8583  0.3587 -0.8113
   22MOL0     N 2915   9.358   7.679   0.916  0.0388 -0.8474 -0.6244
   22MOL0     C 2916   9.471   7.699   0.833  0.3263 -0.7547 -0.1909
   22MOL0     C 2917   9.460   7.605   0.732  0.8283 -1.0987 -0.3326
   22MOL0     C 2918   9.554   7.603   0.617  0.4993 -0.8490 -0.0736
   22MOL0     C 2919   9.562   7.467   0.542  0.6693 -0.7846 -0.1592
   22MOL0     C 2920   9.613   7.350   0.624  0.2648 -0.1029 -0.5645
   22MOL0     C 2921   9.588   7.217   0.550 -0.9760  0.0787 -0.0124
   22MOL0     O 2922   9.659   7.199   0.427  0.3992 -0.1197 -0.2315
   22MOL0     C 2923   9.791   7.230   0.435  0.0890  0.4950 -0.4962
   22MOL0     C 2924   9.874   7.160   0.519 -0.2314 -0.9201 -0.7321
   22MOL0     C 2925  10.010   7.180   0.520 -0.5089  0.1817  0.4330
   22MOL0     C 2926  10.082   7.080   0.608 -0.0026 -0.0290  0.2979
   22MOL0     C 2927  10.065   7.275   0.435 -0.8573  0.2213 -0.5035
   22MOL0     C 2928  10.210   7.298   0.420 -0.7965  0.3747 -0.1576
   22MOL0     O 2929  10.244   7.331   0.288 -0.1017 -0.1276 -0.1763
   22MOL0     C 2930  10.372   7.312   0.239  0.2895 -0.0984  0.8643
   22MOL0     C 2931  10.500   7.322   0.305 -0.2793  0.3471  0.0272
   22MOL0     C 2932  10.618   7.307   0.236  0.1975  0.1746  1.3327
   22MOL0     C 2933  10.610   7.263   0.099 -0.3473 -0.3322 -0.1523
   22MOL0     O 2934  10.734   7.238   0.039  0.6591 -0.1425 -0.3559
   22MOL0     C 2935  10.764   7.260  -0.100 -0.3113  0.4298 -0.3044
   22MOL0     C 2936  10.746   7.130  -0.189 -1.2044 -0.6403  0.0450
   22MOL0     C 2937  10.868   7.034  -0.197  0.9079  0.1416 -0.8660
   22MOL0     C 2938  10.812   6.904  -0.247 -0.1037  0.8014 -0.0704
   22MOL0     C 2939  10.920   6.796  -0.266 -0.4754 -0.5391  0.1205
   22MOL0     C 2940  11.033   6.820  -0.383  0.0138  0.4389  0.2917
   22MOL0     C 2941  10.966   6.797  -0.520  0.7009  0.6179  0.2956
   22MOL0     C 2942  11.069   6.834  -0.629 -0.3763  0.1627 -0.1795
   22MOL0    Cl 2943  11.003   6.757  -0.782  0.1949  0.2500 -0.0903
   22MOL0     C 2944  10.490   7.246   0.030 -0.0518  0.3088 -0.2882
   22MOL0     C 2945  10.374   7.283   0.098  0.0660  0.3951 -0.3415
   22MOL0     O 2946  10.286   7.289   0.517 -0.2611 -0.4988  0.2498
   22MOL0     C 2947   9.980   7.352   0.357 -1.2285 -0.0659 -0.1498
   22MOL0     C 2948   9.841   7.329   0.352 -0.2632 -0.3170  0.4552
   22MOL0     N 2949   9.348   7.532   0.763  0.9660 -0.3606  0.0299
   22MOL0     N 2950   9.283   7.579   0.866 -0.2830 -0.5317 -0.3981
   22MOL0     C 2951   8.760   8.833   1.219 -0.0863 -0.8922  0.7032
   22MOL0     C 2952   8.676   8.942   1.184  0.2149  0.4269 -0.1103
   22MOL0     C 2953   8.260   9.158   1.133  0.9605 -0.7016 -0.2826
   22MOL0     C 2954   8.304   9.228   1.017  0.3050  0.3251 -0.2496
   22MOL0     C 2955   8.240   9.339   0.966 -0.5121 -0.1499 -0.8355
   22MOL0     C 2956   8.116   9.373   1.029 -0.5961 -0.1417  0.1760
   22MOL0     O 2957   8.044   9.467   0.963  0.3788  0.0396  0.2653
   22MOL0     C 2958   7.949   9.534   1.036  0.7060  1.0714 -1.0269
   22MOL0     C 2959   7.918   9.657   0.948 -0.5165 -0.5277 -0.4403
   22MOL0     C 2960   8.040   9.743   0.918  1.0606  0.3392  0.6105
   22MOL0     C 2961   8.015   9.855   0.811  0.7006 -0.4133 -0.3384
   22MOL0     C 2962   8.017   9.800   0.682 -0.3157  0.0394  0.4209
   22MOL0     C 2963   8.005   9.758   0.571  0.5754 -0.1622 -0.3670
   22MOL0     C 2964   8.077   9.313   1.151  0.5055  0.0874  0.6704
   22MOL0     C 2965   8.148   9.214   1.209  0.6321  1.0650 -0.1119
   22MOL0     C 2966   8.087   9.162   1.344  0.4970 -0.2995  0.0132
   22MOL0     H 2967   8.397   8.767   1.102 -0.8602  2.2147  1.9498
   22MOL0     H 2968   8.544   8.579   1.157  0.4970 -1.2530 -2.0569
   22MOL0     H 2969   8.742   8.487   1.086  1.1913 -1.6626 -1.6379
   22MOL0     H 2970   8.699   8.422   1.254  4.9643 -2.6432  3.4440
   22MOL0     H 2971   8.976   8.485   1.148 -3.2359  0.7619 -2.1323
   22MOL0     H 2972   8.934   8.381   1.295  0.7099  2.2294 -0.1732
   22MOL0     H 2973   8.851   8.211   1.154  0.2204  0.1507  4.0609
   22MOL0     H 2974   8.915   8.291   1.003  2.4358 -3.2248 -0.2654
   22MOL0     H 2975   9.138   8.285   1.108 -0.6992  0.9186 -2.8193
   22MOL0     H 2976   9.078   8.162   1.221  1.1076  1.1913 -0.6543
   22MOL0     H 2977   9.132   8.126   0.931  0.0866  1.2389  0.1787
   22MOL0     H 2978   8.994   8.045   0.985 -0.0448 -2.0237 -0.1872
   22MOL0     H 2979   9.278   8.042   1.118 -1.2369  0.0064 -0.7959
   22MOL0     H 2980   9.145   7.931   1.165 -1.9262 -0.1913 -0.4361
   22MOL0     H 2981   9.304   7.946   0.906  0.6396  1.5799  0.9719
   22MOL0     H 2982   9.154   7.848   0.911  0.5349  0.2214 -1.3550
   22MOL0     H 2983   9.394   7.804   1.084  0.0928 -0.6392 -1.4611
   22MOL0     H 2984   9.249   7.689   1.077  1.9167 -1.4495  0.1301
   22MOL0     H 2985   9.548   7.775   0.836  0.8547 -1.3085  2.1291
   22MOL0     H 2986   9.652   7.636   0.653 -0.6529  0.8714  1.6397
   22MOL0     H 2987   9.506   7.681   0.558  1.6603  0.7038  0.9767
   22MOL0     H 2988   9.461   7.441   0.508  0.3915  0.7825 -0.5996
   22MOL0     H 2989   9.617   7.480   0.449  1.2250  2.4508  0.4886
   22MOL0     H 2990   9.717   7.363   0.655  0.0283 -1.8203  1.1191
   22MOL0     H 2991   9.562   7.341   0.720 -1.5810  1.6341 -1.3108
   22MOL0     H 2992   9.611   7.138   0.622 -1.8752  0.2075  0.4441
   22MOL0     H 2993   9.482   7.199   0.529 -1.4753  1.1043  1.4336
   22MOL0     H 2994   9.825   7.096   0.592  2.3060  2.1398  4.2526
   22MOL0     H 2995  10.016   7.018   0.669  0.4804  0.2054  1.0823
   22MOL0     H 2996  10.147   7.142   0.671 -1.0438  0.1499  1.2237
   22MOL0     H 2997  10.146   7.015   0.547 -0.9128 -0.9248  0.2755
   22MOL0     H 2998  10.509   7.343   0.411  3.2394 -2.3101  0.4434
   22MOL0     H 2999  10.716   7.320   0.280  1.2714  1.6096 -1.2319
   22MOL0     H 3000  10.687   7.327  -0.139 -1.0704 -0.9791 -1.3000
   22MOL0     H 3001  10.861   7.307  -0.116  0.3127 -1.2699 -1.8242
   22MOL0     H 3002  10.653   7.077  -0.165 -0.5639 -1.1666  1.4396
   22MOL0     H 3003  10.733   7.163  -0.293 -3.4744  3.6157  1.4388
   22MOL0     H 3004  10.910   7.020  -0.097  2.5614 -3.1094 -1.8735
   22MOL0     H 3005  10.951   7.066  -0.261  3.4210 -1.5295  1.3418
   22MOL0     H 3006  10.760   6.917  -0.342 -1.9060  0.6249  0.8358
   22MOL0     H 3007  10.741   6.864  -0.173  1.4354 -1.6135  0.1984
   22MOL0     H 3008  10.978   6.797  -0.174 -1.1997  3.3862  0.7316
   22MOL0     H 3009  10.873   6.697  -0.272 -1.8582 -0.1151  2.6094
   22MOL0     H 3010  11.109   6.742  -0.369 -1.9036 -1.8600 -1.3060
   22MOL0     H 3011  11.076   6.920  -0.388  1.1807 -0.0797 -4.3240
   22MOL0     H 3012  10.884   6.868  -0.531  1.1650  1.0979 -0.1683
   22MOL0     H 3013  10.933   6.693  -0.530 -0.1207  0.7659  1.3202
   22MOL0     H 3014  11.171   6.796  -0.617  0.0235  1.7294  2.0478
   22MOL0     H 3015  11.068   6.941  -0.647  3.1684  0.0098 -1.9848
   22MOL0     H 3016  10.465   7.203  -0.066 -2.4640  2.4552 -0.7479
   22MOL0     H 3017  10.280   7.286   0.045 -1.0738 -1.4771  1.4249
   22MOL0     H 3018  10.037   7.431   0.309 -0.9973  0.1427  0.4551
   22MOL0     H 3019   9.775   7.385   0.288  0.6594  0.5742  0.2667
   22MOL0     H 3020   8.861   8.845   1.257  0.0791  1.5896 -0.3184
   22MOL0     H 3021   8.742   9.028   1.185  0.9828 -0.1435  1.6396
   22MOL0     H 3022   8.386   9.194   0.955 -1.1892  0.7199 -2.5683
   22MOL0     H 3023   8.271   9.393   0.878 -0.0835  2.0534  0.5854
   22MOL0     H 3024   7.859   9.476   1.059  2.7473 -1.1653  2.1301
   22MOL0     H 3025   7.981   9.567   1.135 -2.9839  0.9571  0.3433
   22MOL0     H 3026   7.832   9.717   0.979 -0.0244  0.1130 -0.2798
   22MOL0     H 3027   7.882   9.623   0.850  2.5330 -1.8713 -1.2221
   22MOL0     H 3028   8.062   9.792   1.012  0.8275 -0.8830  1.3310
   22MOL0     H 3029   8.129   9.688   0.886  0.1617  1.0474 -3.8123
   22MOL0     H 3030   8.098   9.926   0.818  3.1785 -2.5173 -4.3457
   22MOL0     H 3031   7.919   9.904   0.823  0.8333  0.2734 -1.8679
   22MOL0     H 3032   7.980   9.733   0.470 -0.2141 -3.4126  0.4974
   22MOL0     H 3033   7.986   9.347   1.201  0.4948  0.0666  0.6650
   22MOL0     H 3034   7.986   9.125   1.323 -0.2726  1.9435 -0.5669
   22MOL0     H 3035   8.144   9.088   1.401 -2.0150 -1.3846  1.2663
   22MOL0     H 3036   8.071   9.244   1.415 -2.4316 -0.4420 -0.3479
   23MOL0     O 3037   4.163   8.944   0.418  0.5249 -0.6634 -0.0904
   23MOL0     C 3038   4.241   8.867   0.461  0.4524  0.8532 -0.7064
   23MOL0     O 3039   4.222   8.814   0.589  0.8986 -0.5678 -0.0235
   23MOL0     C 3040   4.111   8.852   0.670 -0.5870 -0.6357  0.2643
   23MOL0     C 3041   4.137   8.915   0.796 -0.2590 -0.4987  0.3856
   23MOL0     C 3042   4.041   8.956   0.881  0.2462  0.5005 -0.0846
   23MOL0     C 3043   3.910   8.939   0.851 -0.5776 -0.0164  0.1154
   23MOL0     O 3044   3.807   8.982   0.925  0.3268 -0.3494  0.1604
   23MOL0     C 3045   3.827   9.019   1.066  0.4148 -0.3506  0.0935
   23MOL0     C 3046   3.693   9.034   1.140 -0.5906  0.1059 -0.2330
   23MOL0     C 3047   3.702   9.047   1.294  1.2779  0.7939 -0.3074
   23MOL0     C 3048   3.746   9.184   1.345 -0.0050  0.3636 -0.8420
   23MOL0     C 3049   3.710   9.209   1.492  0.1384 -0.2605 -0.0481
   23MOL0     C 3050   3.774   9.115   1.593 -0.2988  0.2821 -0.0249
   23MOL0     C 3051   3.930   9.114   1.583 -0.1444 -0.0626  0.1647
   23MOL0     C 3052   4.007   9.036   1.693  0.0636 -0.1248  0.2042
   23MOL0     N 3053   4.126   8.977   1.644  0.2601 -0.9576  0.5367
   23MOL0     C 3054   4.168   8.844   1.672  0.6368 -0.5941  0.3525
   23MOL0     C 3055   4.275   8.826   1.585 -0.0503 -0.0830 -0.5552
   23MOL0     C 3056   4.366   8.714   1.582  0.1246  0.5690  0.3920
   23MOL0     C 3057   4.308   8.575   1.565  0.1833  0.0989 -0.3944
   23MOL0     C 3058   4.284   8.535   1.424 -0.4209  0.8657  0.0503
   23MOL0     C 3059   4.222   8.382   1.428  0.3893 -0.6616  0.1492
   23MOL0     O 3060   4.255   8.320   1.300 -0.1521  0.3893 -0.1384
   23MOL0     C 3061   4.387   8.285   1.277 -0.2335  0.4813  0.1028
   23MOL0     C 3062   4.420   8.250   1.145 -0.5466 -0.7104 -0.5501
   23MOL0     C 3063   4.554   8.220   1.105 -0.2585 -0.5657  0.6928
   23MOL0     C 3064   4.577   8.188   0.961  0.7968 -1.3549 -0.1838
   23MOL0     C 3065   4.661   8.233   1.200  0.7155  0.4902  0.9602
   23MOL0     C 3066   4.805   8.189   1.165 -0.6592  0.8476  0.0150
   23MOL0     O 3067   4.839   8.130   1.044  0.1273 -0.2868  0.0277
   23MOL0     C 3068   4.968   8.073   1.033 -0.3044  0.4252 -0.3070
   23MOL0     C 3069   5.068   8.138   0.959 -1.1429  0.4786 -0.0470
   23MOL0     C 3070   5.192   8.068   0.933 -0.7988  0.1800 -0.1756
   23MOL0     C 3071   5.223   7.942   0.991 -0.4792  0.2333  0.4131
   23MOL0     O 3072   5.346   7.883   0.973  0.3529 -0.3124 -0.2921
   23MOL0     C 3073   5.376   7.767   1.063 -0.4554 -0.0414 -0.0123
   23MOL0     C 3074   5.533   7.728   1.046  1.3870 -0.1963  0.4741
   23MOL0     C 3075   5.624   7.835   1.108 -0.4170  0.1953  0.6019
   23MOL0     C 3076   5.767   7.775   1.128 -0.6735  0.1508  1.1112
   23MOL0     C 3077   5.865   7.890   1.133 -0.0759 -0.2532  0.3669
   23MOL0     C 3078   6.002   7.834   1.098  0.5671  0.0292 -0.2341
   23MOL0     C 3079   6.004   7.801   0.950 -0.2256 -0.1096  0.1856
   23MOL0     C 3080   6.143   7.801   0.882  0.3399 -0.4158 -0.2661
   23MOL0    Cl 3081   6.115   7.793   0.714  0.2945  0.1014  0.1417
   23MOL0     C 3082   5.119   7.881   1.066  0.2260 -0.4138 -0.2264
   23MOL0     C 3083   4.997   7.951   1.092 -0.1907  0.3646 -0.5049
   23MOL0     O 3084   4.887   8.211   1.254 -0.4021  0.5042 -0.0633
   23MOL0     C 3085   4.624   8.260   1.330  0.0496 -0.4157 -0.5076
   23MOL0     C 3086   4.491   8.289   1.360 -0.0679  1.3634  0.4807
   23MOL0     N 3087   4.291   8.945   1.512  0.1406  0.2824  0.3502
   23MOL0     N 3088   4.202   9.029   1.547 -1.7201 -0.2707 -0.3480
   23MOL0     C 3089   3.878   8.885   0.723 -0.3947 -0.2249 -0.7930
   23MOL0     C 3090   3.980   8.842   0.636 -0.3638 -0.2391  0.3578
   23MOL0     C 3091   4.352   8.814   0.381 -0.1158  0.0254 -0.0444
   23MOL0     C 3092   4.444   8.725   0.441  0.8100 -0.3660 -0.1125
   23MOL0     C 3093   4.556   8.676   0.389 -0.7659  0.8055  0.9709
   23MOL0     C 3094   4.594   8.723   0.258 -0.0939  0.2908 -0.0595
   23MOL0     O 3095   4.706   8.682   0.190  0.1202 -0.0137 -0.5280
   23MOL0     C 3096   4.786   8.570   0.244 -0.8142 -0.2459  0.1056
   23MOL0     C 3097   4.916   8.555   0.160  0.0970  0.6413 -0.5478
   23MOL0     C 3098   4.891   8.528   0.006  0.9954 -0.2827 -1.1025
   23MOL0     C 3099   5.029   8.505  -0.053  0.0379 -0.4254 -0.4650
   23MOL0     C 3100   5.107   8.633  -0.051 -0.2484  0.6223  0.1591
   23MOL0     C 3101   5.176   8.733  -0.041 -0.1460 -0.0877  0.0075
   23MOL0     C 3102   4.507   8.804   0.196 -0.0682  0.8718  0.0050
   23MOL0     C 3103   4.382   8.847   0.243  0.3522  0.6281  0.3530
   23MOL0     C 3104   4.299   8.924   0.137 -0.2958 -0.4897 -0.0450
   23MOL0     H 3105   4.241   8.937   0.820 -0.2588 -1.7876  1.7097
   23MOL0     H 3106   4.070   8.994   0.978  3.1474 -1.7483  0.0614
   23MOL0     H 3107   3.885   9.109   1.090 -1.0300 -0.1004  3.1531
   23MOL0     H 3108   3.880   8.940   1.121 -0.2933 -0.2951  0.8722
   23MOL0     H 3109   3.639   9.118   1.096 -0.7785 -0.9775 -2.2044
   23MOL0     H 3110   3.643   8.942   1.109  0.8194 -0.6299 -0.3837
   23MOL0     H 3111   3.602   9.016   1.327  1.9751 -1.4688 -0.1412
   23MOL0     H 3112   3.760   8.966   1.340  0.5679 -0.4512 -1.5459
   23MOL0     H 3113   3.852   9.195   1.320  0.7283  0.7099  2.0718
   23MOL0     H 3114   3.697   9.260   1.284  0.1217 -0.5473 -2.1147
   23MOL0     H 3115   3.601   9.209   1.500 -0.1356  0.7924 -2.9482
   23MOL0     H 3116   3.739   9.312   1.516 -1.7778  0.5054 -0.8178
   23MOL0     H 3117   3.754   9.148   1.695 -0.6178  0.6024 -0.1904
   23MOL0     H 3118   3.727   9.017   1.581  0.6058 -0.5140  2.2972
   23MOL0     H 3119   3.969   9.213   1.560  1.4544 -1.1981 -2.4108
   23MOL0     H 3120   3.950   9.061   1.489  2.3735 -1.3043  1.3011
   23MOL0     H 3121   4.037   9.115   1.763  2.5660 -0.2182 -0.6651
   23MOL0     H 3122   3.951   8.964   1.753  0.8744  2.3003  4.2638
   23MOL0     H 3123   4.134   8.775   1.749  0.4872 -3.1910 -1.8968
   23MOL0     H 3124   4.430   8.715   1.671  0.3991 -3.1995  0.3966
   23MOL0     H 3125   4.442   8.719   1.503 -2.3248 -2.4928 -2.4191
   23MOL0     H 3126   4.382   8.503   1.599  0.0484  0.1306 -0.0274
   23MOL0     H 3127   4.211   8.571   1.617 -0.2910  3.5587 -0.7859
   23MOL0     H 3128   4.228   8.614   1.373 -4.0097 -0.7164  1.2038
   23MOL0     H 3129   4.377   8.532   1.366  0.3865  1.9673  1.2478
   23MOL0     H 3130   4.255   8.321   1.512  1.8532 -1.2418 -0.7971
   23MOL0     H 3131   4.113   8.388   1.436 -0.2191 -4.4272 -2.4055
   23MOL0     H 3132   4.341   8.232   1.073 -1.5367 -1.1380  0.6075
   23MOL0     H 3133   4.479   8.204   0.914  0.2451 -1.3198  0.9321
   23MOL0     H 3134   4.592   8.080   0.954 -1.1296 -1.8229  1.5894
   23MOL0     H 3135   4.656   8.250   0.918 -0.3298  0.1471 -0.1824
   23MOL0     H 3136   5.067   8.233   0.908  3.0750 -0.5549 -2.5974
   23MOL0     H 3137   5.265   8.116   0.868 -0.1041 -2.2319 -1.3306
   23MOL0     H 3138   5.359   7.803   1.165 -3.6399  0.9559 -0.7987
   23MOL0     H 3139   5.313   7.679   1.044  0.0045 -0.9917  2.4239
   23MOL0     H 3140   5.543   7.628   1.089  1.4185 -0.3826  0.0393
   23MOL0     H 3141   5.556   7.706   0.941  2.5893 -1.0751  0.9087
   23MOL0     H 3142   5.583   7.865   1.205 -0.8215 -0.9418  0.7878
   23MOL0     H 3143   5.621   7.927   1.048  1.5430 -0.9736 -1.3978
   23MOL0     H 3144   5.782   7.699   1.050 -2.1927  1.8106 -0.9449
   23MOL0     H 3145   5.759   7.724   1.224 -0.8676  2.6402  2.4789
   23MOL0     H 3146   5.843   7.973   1.065  1.0702  0.8511  1.2695
   23MOL0     H 3147   5.857   7.947   1.227  0.5515 -2.7243  2.0057
   23MOL0     H 3148   5.997   7.751   1.168 -1.9564  0.6801  0.4632
   23MOL0     H 3149   6.081   7.900   1.134 -0.1679  0.2596  0.9895
   23MOL0     H 3150   5.950   7.876   0.891 -1.0223 -0.1122  0.8900
   23MOL0     H 3151   5.959   7.703   0.926  0.8212 -0.8086  0.9965
   23MOL0     H 3152   6.208   7.721   0.919  1.4266  1.0064  1.0181
   23MOL0     H 3153   6.191   7.896   0.908  0.6053 -0.7137  0.3488
   23MOL0     H 3154   5.136   7.777   1.094  0.6543 -0.7625 -1.6546
   23MOL0     H 3155   4.919   7.898   1.145 -0.3076 -0.1382 -1.1756
   23MOL0     H 3156   4.694   8.238   1.410 -0.9070 -1.6643  0.0234
   23MOL0     H 3157   4.467   8.318   1.461 -0.4662 -2.7934  1.7791
   23MOL0     H 3158   3.773   8.869   0.701 -1.5345  1.6651  2.5603
   23MOL0     H 3159   3.950   8.809   0.537  1.2361 -0.8472  0.0439
   23MOL0     H 3160   4.422   8.707   0.546 -1.4562  2.7020  0.0756
   23MOL0     H 3161   4.611   8.605   0.450 -0.3524 -2.1029 -2.5022
   23MOL0     H 3162   4.819   8.595   0.345 -5.4279  1.9550  1.3261
   23MOL0     H 3163   4.726   8.479   0.245 -1.1729 -0.0466 -1.3026
   23MOL0     H 3164   4.975   8.477   0.209 -2.9700 -2.0117 -0.6628
   23MOL0     H 3165   4.974   8.647   0.169  1.2465  0.3623 -3.8114
   23MOL0     H 3166   4.830   8.437   0.002  0.1524  0.2800 -1.3110
   23MOL0     H 3167   4.823   8.600  -0.040 -1.0862 -0.5695  1.2919
   23MOL0     H 3168   5.017   8.486  -0.160  3.5659  1.5117 -1.3982
   23MOL0     H 3169   5.073   8.417  -0.005 -0.2698  0.4390  1.5200
   23MOL0     H 3170   5.256   8.804  -0.035  1.0838 -1.5678  2.8339
   23MOL0     H 3171   4.539   8.840   0.099 -1.4877  2.5875  0.1251
   23MOL0     H 3172   4.280   9.029   0.164 -0.9592 -1.1737  2.4434
   23MOL0     H 3173   4.335   8.929   0.034  0.7563 -2.7461  0.1619
   23MOL0     H 3174   4.200   8.878   0.124 -1.9403  2.2112  1.8788
   24MOL0     O 3175   7.352   2.728   9.652 -0.0306 -0.3168  0.1866
   24MOL0     C 3176   7.261   2.670   9.591  1.0908  0.2705 -0.1196
   24MOL0     O 3177   7.267   2.624   9.465 -0.4122  0.2381 -0.1898
   24MOL0     C 3178   7.383   2.620   9.385  0.7663  0.0922  0.0210
   24MOL0     C 3179   7.521   2.629   9.415  0.3732  0.0737  0.7714
   24MOL0     C 3180   7.618   2.607   9.321 -0.5331 -0.6492  0.0723
   24MOL0     C 3181   7.580   2.584   9.188  0.2033  0.2744  0.3508
   24MOL0     O 3182   7.682   2.579   9.101 -1.0531  0.1898 -0.2936
   24MOL0     C 3183   7.649   2.586   8.960 -0.3236 -0.0926 -1.3263
   24MOL0     C 3184   7.748   2.639   8.857  0.6705 -0.5192 -0.2547
   24MOL0     C 3185   7.866   2.548   8.829  0.8021  0.1119 -0.6424
   24MOL0     C 3186   7.937   2.609   8.711  1.0705 -0.1065  0.6067
   24MOL0     C 3187   8.080   2.552   8.682 -0.6904 -0.3547  0.0009
   24MOL0     C 3188   8.112   2.563   8.526  0.1237  0.3775 -0.7971
   24MOL0     C 3189   8.244   2.494   8.481  0.9566  0.7325 -0.8057
   24MOL0     C 3190   8.363   2.587   8.507 -0.1921  0.0464 -0.0098
   24MOL0     N 3191   8.494   2.518   8.500 -0.5529  0.2048 -0.1931
   24MOL0     C 3192   8.546   2.451   8.401 -0.2902 -0.6653 -0.6212
   24MOL0     C 3193   8.667   2.407   8.445 -0.1472  0.7012 -1.1585
   24MOL0     C 3194   8.756   2.306   8.384 -0.1438  0.3277  0.5214
   24MOL0     C 3195   8.898   2.327   8.407 -0.6376 -0.1559  0.3871
   24MOL0     C 3196   8.991   2.229   8.324 -0.6607  0.0694  0.7757
   24MOL0     C 3197   9.027   2.103   8.404 -0.2315 -1.3635  0.8160
   24MOL0     O 3198   9.051   2.004   8.298 -0.3880 -0.3433 -0.7957
   24MOL0     C 3199   9.137   1.904   8.327 -0.0936  0.6048 -0.6591
   24MOL0     C 3200   9.080   1.778   8.353  0.2557  0.0636  0.5222
   24MOL0     C 3201   9.158   1.669   8.376  0.1065  0.2070 -0.3950
   24MOL0     C 3202   9.086   1.534   8.388 -0.2616 -0.4709  0.0268
   24MOL0     C 3203   9.298   1.679   8.393  0.2107 -0.0340 -0.0147
   24MOL0     C 3204   9.391   1.575   8.442  0.4111  1.0235 -0.1908
   24MOL0     O 3205   9.340   1.471   8.512  0.3018 -0.0792 -0.2794
   24MOL0     C 3206   9.413   1.374   8.575  0.4318  0.0725  0.0685
   24MOL0     C 3207   9.548   1.385   8.609  0.4418 -0.3212 -0.4216
   24MOL0     C 3208   9.621   1.286   8.674 -0.1503 -0.2819  0.2465
   24MOL0     C 3209   9.558   1.167   8.709  0.1531  1.0183 -0.2457
   24MOL0     O 3210   9.636   1.078   8.775  0.7981 -0.7030  0.1073
   24MOL0     C 3211   9.576   0.977   8.861  0.0074 -0.3171 -0.8683
   24MOL0     C 3212   9.580   1.024   9.007 -0.0162  0.4760  0.1765
   24MOL0     C 3213   9.497   0.945   9.114 -0.3377 -0.5278  0.7691
   24MOL0     C 3214   9.363   1.013   9.149  0.3251  0.3805 -1.0172
   24MOL0     C 3215   9.288   0.938   9.268  0.6128  0.2903  0.1113
   24MOL0     C 3216   9.356   0.946   9.402  0.2685  0.2359 -0.0014
   24MOL0     C 3217   9.262   0.891   9.510 -0.5053  0.9710 -0.2386
   24MOL0     C 3218   9.128   0.947   9.528  0.2883 -0.3120  0.3178
   24MOL0    Cl 3219   9.130   1.133   9.533  0.2073  0.2348 -0.2353
   24MOL0     C 3220   9.417   1.153   8.667 -0.3155  0.6146 -0.2811
   24MOL0     C 3221   9.345   1.256   8.604 -0.5436 -0.3123 -0.3553
   24MOL0     O 3222   9.499   1.580   8.392 -0.8832  0.7557  0.2307
   24MOL0     C 3223   9.349   1.815   8.379 -1.8235 -0.7972  0.0226
   24MOL0     C 3224   9.274   1.922   8.345  1.0977 -0.1579 -0.1255
   24MOL0     N 3225   8.695   2.469   8.564 -0.3569  0.1282 -0.2498
   24MOL0     N 3226   8.591   2.538   8.595 -0.6469  0.5141 -0.2128
   24MOL0     C 3227   7.441   2.573   9.154 -0.4376  0.9075 -0.1291
   24MOL0     C 3228   7.345   2.583   9.256  0.0671 -0.3405  0.3971
   24MOL0     C 3229   7.139   2.648   9.664 -0.0230 -0.9074 -0.5632
   24MOL0     C 3230   7.041   2.573   9.598  0.5835 -0.0226  0.4933
   24MOL0     C 3231   6.912   2.551   9.652 -0.4884  0.3995  0.5505
   24MOL0     C 3232   6.886   2.593   9.784  1.1501  0.2220  0.2635
   24MOL0     O 3233   6.766   2.561   9.842 -0.1638 -0.6930  0.8212
   24MOL0     C 3234   6.701   2.647   9.940 -0.1537 -0.2639  0.2940
   24MOL0     C 3235   6.665   2.573  10.064  0.3845  0.4499  1.0606
   24MOL0     C 3236   6.788   2.503  10.134  1.0385  0.4943  0.0908
   24MOL0     C 3237   6.747   2.458  10.274 -0.3204 -0.2703 -0.2085
   24MOL0     C 3238   6.651   2.353  10.258 -0.7999 -0.2636  0.2448
   24MOL0     C 3239   6.560   2.274  10.244  0.1981  0.2169 -0.5289
   24MOL0     C 3240   6.984   2.663   9.856  0.7492  0.2833 -0.3313
   24MOL0     C 3241   7.110   2.691   9.803  0.2228  0.4229  0.7094
   24MOL0     C 3242   7.201   2.752   9.893  0.2604 -1.1084 -0.6094
   24MOL0     H 3243   7.561   2.646   9.514  1.1109  1.7638  0.2230
   24MOL0     H 3244   7.724   2.608   9.341 -0.6080 -2.4239  0.7157
   24MOL0     H 3245   7.572   2.664   8.955 -1.0916 -0.5789  1.4662
   24MOL0     H 3246   7.601   2.491   8.931 -2.3780 -0.3046  2.1284
   24MOL0     H 3247   7.693   2.639   8.763 -0.3692 -1.4325  0.3214
   24MOL0     H 3248   7.765   2.746   8.872  0.4601 -0.4972 -0.1674
   24MOL0     H 3249   7.938   2.542   8.912 -1.4099 -1.9347  1.2766
   24MOL0     H 3250   7.834   2.447   8.803 -0.0290  0.9832 -3.3231
   24MOL0     H 3251   7.874   2.571   8.630 -0.1210 -2.3833  2.5037
   24MOL0     H 3252   7.923   2.717   8.715 -1.0620 -0.3699  1.8930
   24MOL0     H 3253   8.085   2.448   8.715 -0.3327 -0.8592 -1.5713
   24MOL0     H 3254   8.163   2.609   8.726 -0.3129  1.4221 -2.7574
   24MOL0     H 3255   8.020   2.531   8.477 -1.3045  1.4713  1.0424
   24MOL0     H 3256   8.113   2.672   8.510 -0.1910  1.3243  4.0957
   24MOL0     H 3257   8.230   2.480   8.373 -1.7791  1.4709 -0.6255
   24MOL0     H 3258   8.255   2.394   8.524 -1.3500  0.6989 -0.1574
   24MOL0     H 3259   8.376   2.653   8.421  2.6486  0.6046  0.7380
   24MOL0     H 3260   8.362   2.653   8.594  0.9458  1.4768 -1.0320
   24MOL0     H 3261   8.501   2.413   8.311 -1.1857 -0.1911 -0.3843
   24MOL0     H 3262   8.738   2.284   8.279 -1.8143  0.3679  0.7719
   24MOL0     H 3263   8.734   2.212   8.436 -1.2397 -1.7001 -3.2355
   24MOL0     H 3264   8.918   2.424   8.361 -1.5583 -1.0455 -2.0435
   24MOL0     H 3265   8.933   2.333   8.510  1.5293  2.5893 -0.3817
   24MOL0     H 3266   8.944   2.197   8.230 -2.3260  1.2739  1.1751
   24MOL0     H 3267   9.080   2.285   8.294 -2.3505  1.6675 -1.5764
   24MOL0     H 3268   9.114   2.111   8.470 -1.0825  1.9016  1.7392
   24MOL0     H 3269   8.934   2.083   8.460 -2.1778 -0.5461 -1.9127
   24MOL0     H 3270   8.972   1.767   8.359  0.2402  0.2776  0.6379
   24MOL0     H 3271   9.062   1.507   8.491 -1.2540  0.9994  0.1973
   24MOL0     H 3272   9.138   1.444   8.352 -1.0213 -1.0268  0.2941
   24MOL0     H 3273   8.989   1.546   8.339 -0.1742 -0.5907 -0.1763
   24MOL0     H 3274   9.600   1.478   8.590  5.9961 -3.4046 -2.8165
   24MOL0     H 3275   9.729   1.292   8.683  0.0401  0.5643 -1.9368
   24MOL0     H 3276   9.471   0.962   8.832 -0.7642  0.0133  1.5572
   24MOL0     H 3277   9.632   0.883   8.859 -0.4099 -0.5815 -0.2381
   24MOL0     H 3278   9.683   1.015   9.043 -0.2383  4.1220  2.1182
   24MOL0     H 3279   9.540   1.126   9.006 -0.6584  0.2484 -1.3681
   24MOL0     H 3280   9.566   0.929   9.198 -0.8854 -2.1452  0.9495
   24MOL0     H 3281   9.481   0.841   9.086  1.2955 -1.2840  2.4095
   24MOL0     H 3282   9.293   1.010   9.065 -2.6578 -1.4307  1.3820
   24MOL0     H 3283   9.366   1.117   9.184 -2.6939 -0.1846  1.2696
   24MOL0     H 3284   9.190   0.985   9.280 -1.1498 -2.7204 -1.5064
   24MOL0     H 3285   9.269   0.834   9.243  1.8735  0.2017 -0.5626
   24MOL0     H 3286   9.390   1.048   9.421  0.8356 -0.1360  1.0588
   24MOL0     H 3287   9.445   0.883   9.393 -1.2896 -1.9169 -1.6343
   24MOL0     H 3288   9.317   0.900   9.604  1.7042  0.3084 -1.3873
   24MOL0     H 3289   9.262   0.782   9.496  0.0920  0.7068  1.5426
   24MOL0     H 3290   9.076   0.907   9.616  1.1677 -1.6348  0.2633
   24MOL0     H 3291   9.064   0.906   9.450 -0.0012  0.4508  0.1483
   24MOL0     H 3292   9.356   1.067   8.693  0.8870  0.5117  2.5825
   24MOL0     H 3293   9.240   1.246   8.581 -0.4230 -1.0379 -0.6001
   24MOL0     H 3294   9.454   1.834   8.396 -1.7109 -2.0925  0.9090
   24MOL0     H 3295   9.323   2.018   8.335 -0.7426  0.8838  0.2446
   24MOL0     H 3296   7.408   2.562   9.051  1.7285  1.0716 -0.8885
   24MOL0     H 3297   7.241   2.566   9.229  0.4594 -1.1778 -0.6902
   24MOL0     H 3298   7.063   2.518   9.507 -0.5473  0.2809  0.0160
   24MOL0     H 3299   6.836   2.491   9.603  0.1978  1.6079 -2.1873
   24MOL0     H 3300   6.746   2.744   9.960  1.6920 -1.3819  1.8996
   24MOL0     H 3301   6.606   2.667   9.889  0.7751  1.7662 -0.7514
   24MOL0     H 3302   6.583   2.504  10.044 -1.9345  3.2333  0.1214
   24MOL0     H 3303   6.632   2.649  10.136  3.0900  1.3043  1.5276
   24MOL0     H 3304   6.825   2.415  10.081 -1.6258 -2.0104  2.0484
   24MOL0     H 3305   6.863   2.579  10.156 -0.5510  1.6427  1.8394
   24MOL0     H 3306   6.723   2.545  10.335  1.2719 -0.1595  0.2942
   24MOL0     H 3307   6.828   2.414  10.333 -1.9819  0.2254  2.6000
   24MOL0     H 3308   6.470   2.216  10.236  1.0507 -1.5576  1.4908
   24MOL0     H 3309   6.957   2.670   9.961 -1.1544 -1.1586 -0.6579
   24MOL0     H 3310   7.240   2.844   9.850  1.7047 -1.9254 -1.1369
   24MOL0     H 3311   7.159   2.795   9.985  3.5134  1.8724 -0.3259
   24MOL0     H 3312   7.265   2.669   9.924 -0.2968 -1.5862 -0.7189
   25MOL0     O 3313  10.103  10.785   7.444  0.3601 -0.4921  0.2794
   25MOL0     C 3314  10.052  10.677   7.445  0.4085  0.2510  0.6484
   25MOL0     O 3315  10.082  10.569   7.362  0.0386  0.6269  0.2410
   25MOL0     C 3316  10.185  10.589   7.276 -0.3446 -0.7092 -0.1722
   25MOL0     C 3317  10.154  10.623   7.141  0.6534  0.2053 -0.4617
   25MOL0     C 3318  10.261  10.643   7.055 -0.6582  0.1432 -0.5525
   25MOL0     C 3319  10.390  10.623   7.093  0.1655 -0.5274 -0.3034
   25MOL0     O 3320  10.484  10.644   7.003  0.6547  0.0939  0.2993
   25MOL0     C 3321  10.598  10.561   7.000 -0.3390  1.1999 -0.7647
   25MOL0     C 3322  10.660  10.570   6.859 -0.2061  0.4190  0.6213
   25MOL0     C 3323  10.734  10.701   6.840 -0.4278 -0.4583  1.0240
   25MOL0     C 3324  10.803  10.704   6.701 -0.1944  0.1720  0.2345
   25MOL0     C 3325  10.892  10.587   6.683  0.1712  0.2523 -0.5425
   25MOL0     C 3326  10.991  10.600   6.564 -0.1630  0.1738 -0.1437
   25MOL0     C 3327  11.066  10.470   6.519 -0.2255  0.6942 -0.0060
   25MOL0     C 3328  11.128  10.490   6.377  0.0891  0.5204  0.5155
   25MOL0     N 3329  11.149  10.366   6.305  0.8730  0.5874  0.2173
   25MOL0     C 3330  11.267  10.298   6.301 -0.1130 -0.7601  0.4336
   25MOL0     C 3331  11.244  10.174   6.243  0.0230 -0.4574  0.6970
   25MOL0     C 3332  11.349  10.073   6.225 -0.1425  0.2996  0.7293
   25MOL0     C 3333  11.472  10.129   6.151 -0.6848  0.2922 -0.0291
   25MOL0     C 3334  11.433  10.192   6.015 -0.0662 -0.0108 -0.2773
   25MOL0     C 3335  11.556  10.249   5.945  0.0168 -0.8531 -0.8332
   25MOL0     O 3336  11.591  10.374   6.009  0.8942  0.3262  0.6064
   25MOL0     C 3337  11.702  10.441   5.970 -0.0092  0.3323  0.3567
   25MOL0     C 3338  11.756  10.543   6.049 -0.3909 -0.2387  0.4673
   25MOL0     C 3339  11.877  10.605   6.013  0.0488 -0.6423  0.3648
   25MOL0     C 3340  11.909  10.742   6.090 -0.2065 -0.3211 -0.1423
   25MOL0     C 3341  11.946  10.565   5.889 -0.6525  0.8529 -1.1112
   25MOL0     C 3342  12.049  10.647   5.817 -0.2761 -0.9728 -0.2362
   25MOL0     O 3343  12.153  10.693   5.892 -0.1596 -0.1539  0.0082
   25MOL0     C 3344  12.235  10.795   5.844 -0.2822  0.3899  0.4672
   25MOL0     C 3345  12.291  10.881   5.935  0.6193 -0.1280 -1.1909
   25MOL0     C 3346  12.387  10.976   5.900  1.1206 -0.5112  0.0811
   25MOL0     C 3347  12.429  10.996   5.770 -0.4684  0.4046 -0.2822
   25MOL0     O 3348  12.536  11.077   5.754 -0.4603 -0.8681 -0.1193
   25MOL0     C 3349  12.573  11.114   5.620 -0.4651  0.4584 -1.2656
   25MOL0     C 3350  12.649  11.251   5.631 -0.8927 -0.1348  0.4183
   25MOL0     C 3351  12.777  11.250   5.727  1.0987 -0.5862  1.0393
   25MOL0     C 3352  12.898  11.202   5.644 -0.1404  0.4335  1.6595
   25MOL0     C 3353  13.027  11.162   5.714  0.4338  0.4971  0.4964
   25MOL0     C 3354  13.083  11.275   5.802  1.1506  1.5488 -0.5988
   25MOL0     C 3355  13.217  11.228   5.855 -0.5678  0.5071  0.3479
   25MOL0     C 3356  13.294  11.342   5.924  0.7628 -0.2865 -0.1160
   25MOL0    Cl 3357  13.460  11.293   5.982  0.1647  0.4528 -0.0209
   25MOL0     C 3358  12.365  10.916   5.668  0.4262 -0.6295  0.0045
   25MOL0     C 3359  12.276  10.813   5.706  0.7067 -0.6481 -0.3007
   25MOL0     O 3360  12.034  10.672   5.698 -0.2172  0.1671 -0.4568
   25MOL0     C 3361  11.887  10.461   5.812 -0.4055  0.8271 -0.3506
   25MOL0     C 3362  11.769  10.402   5.854  0.2398  0.2088  0.6090
   25MOL0     N 3363  11.107  10.173   6.209 -0.4644 -0.2911  0.3793
   25MOL0     N 3364  11.055  10.284   6.250 -0.3049 -0.9558 -0.1267
   25MOL0     C 3365  10.415  10.586   7.226 -0.4002 -0.2050  0.7648
   25MOL0     C 3366  10.315  10.573   7.317  0.3008 -0.0020 -0.2600
   25MOL0     C 3367   9.951  10.672   7.547  0.2108 -0.2376 -0.7573
   25MOL0     C 3368   9.968  10.739   7.679 -0.1496 -0.7007 -0.0672
   25MOL0     C 3369   9.873  10.721   7.786 -0.5576  0.0667 -0.3162
   25MOL0     C 3370   9.753  10.662   7.765 -0.0566 -0.1455 -0.1655
   25MOL0     O 3371   9.657  10.666   7.866 -0.9728 -0.3087 -0.3532
   25MOL0     C 3372   9.582  10.786   7.874 -0.7794  0.1947  0.2087
   25MOL0     C 3373   9.435  10.761   7.843  0.0093 -0.0345  0.6725
   25MOL0     C 3374   9.357  10.666   7.937 -0.2096  0.4001  0.6102
   25MOL0     C 3375   9.248  10.585   7.866  0.7729  0.0746 -0.1521
   25MOL0     C 3376   9.193  10.477   7.953 -0.3817  0.7082 -0.3137
   25MOL0     C 3377   9.148  10.393   8.020 -0.5727  0.4195 -0.0867
   25MOL0     C 3378   9.735  10.598   7.644  1.0265  0.1257  1.2041
   25MOL0     C 3379   9.827  10.593   7.532  0.2441  0.1278 -0.5079
   25MOL0     C 3380   9.792  10.527   7.408 -0.0210 -0.0789 -0.3105
   25MOL0     H 3381  10.054  10.651   7.107  1.4438  1.8182 -1.5562
   25MOL0     H 3382  10.244  10.661   6.949 -3.8984  0.2080 -0.1304
   25MOL0     H 3383  10.567  10.459   7.022  1.2702  0.9193  0.4163
   25MOL0     H 3384  10.660  10.595   7.084 -1.7652 -0.2613  0.9518
   25MOL0     H 3385  10.728  10.484   6.855 -1.7085 -0.8427  1.0478
   25MOL0     H 3386  10.576  10.559   6.789 -1.4414 -0.0528  2.1141
   25MOL0     H 3387  10.661  10.781   6.856 -2.5032 -1.9471 -0.4999
   25MOL0     H 3388  10.812  10.705   6.917 -0.3145 -1.6312  0.9900
   25MOL0     H 3389  10.739  10.719   6.613  1.6997 -0.7529 -1.3840
   25MOL0     H 3390  10.859  10.798   6.710  1.8553 -0.6417 -2.6807
   25MOL0     H 3391  10.848  10.494   6.646  2.8955  0.0406 -3.7156
   25MOL0     H 3392  10.945  10.570   6.777 -2.8064  1.9844  1.5836
   25MOL0     H 3393  10.921  10.631   6.486  1.6974  3.0438 -0.8626
   25MOL0     H 3394  11.058  10.686   6.578 -2.2071  1.6222  1.3397
   25MOL0     H 3395  10.994  10.387   6.520 -0.0781  0.5415 -0.9797
   25MOL0     H 3396  11.148  10.457   6.589 -0.7188 -2.6694  0.1549
   25MOL0     H 3397  11.051  10.558   6.339 -0.7105 -0.6536 -0.0395
   25MOL0     H 3398  11.219  10.550   6.384  1.0363 -0.6011 -1.4081
   25MOL0     H 3399  11.365  10.329   6.334  0.0869  0.1276 -0.9195
   25MOL0     H 3400  11.306   9.986   6.174  0.0401  1.4096 -1.4008
   25MOL0     H 3401  11.376  10.034   6.324  0.8574  1.1669  0.8107
   25MOL0     H 3402  11.524  10.203   6.213 -1.0264 -0.6353  1.4092
   25MOL0     H 3403  11.543  10.047   6.136  0.8416  1.1998  1.8148
   25MOL0     H 3404  11.393  10.114   5.950  0.2147  1.0201 -1.7366
   25MOL0     H 3405  11.361  10.273   6.024 -2.2744 -1.7711 -1.1672
   25MOL0     H 3406  11.641  10.180   5.949  2.2195  1.7309  2.7521
   25MOL0     H 3407  11.529  10.252   5.839 -1.0724 -1.9487 -0.6174
   25MOL0     H 3408  11.701  10.578   6.136 -0.9047  0.6539 -0.2071
   25MOL0     H 3409  12.008  10.785   6.073 -0.5239  0.1979 -0.6910
   25MOL0     H 3410  11.913  10.726   6.199  2.9813 -0.0115 -0.1047
   25MOL0     H 3411  11.833  10.816   6.066 -1.0416 -0.4728  1.8065
   25MOL0     H 3412  12.278  10.871   6.042  1.6837  1.1055 -0.9265
   25MOL0     H 3413  12.430  11.042   5.975  0.4088  0.6846 -0.5344
   25MOL0     H 3414  12.635  11.042   5.566  0.3849  1.0379 -1.0797
   25MOL0     H 3415  12.477  11.128   5.570 -1.4946  1.2212  0.8189
   25MOL0     H 3416  12.687  11.281   5.532 -1.8180 -3.8205 -1.2207
   25MOL0     H 3417  12.588  11.334   5.667  0.3166 -0.4226  3.4267
   25MOL0     H 3418  12.757  11.181   5.810  2.5027 -1.9236  0.3242
   25MOL0     H 3419  12.797  11.348   5.770 -0.6884  1.0111 -1.5195
   25MOL0     H 3420  12.918  11.282   5.572 -2.7174  0.1832  0.5415
   25MOL0     H 3421  12.857  11.122   5.580 -1.2517  3.9238 -2.4523
   25MOL0     H 3422  13.008  11.068   5.767 -3.9891  0.6965 -0.3924
   25MOL0     H 3423  13.099  11.133   5.637 -1.2668 -3.0506  0.0111
   25MOL0     H 3424  13.009  11.288   5.881 -1.9205 -1.8316 -2.5730
   25MOL0     H 3425  13.094  11.370   5.748  1.4040 -0.1282 -3.7766
   25MOL0     H 3426  13.278  11.183   5.776  0.7142  0.4445  1.3472
   25MOL0     H 3427  13.213  11.146   5.927  2.8994 -2.0519 -2.0716
   25MOL0     H 3428  13.245  11.375   6.016 -0.4381  1.5742 -1.3681
   25MOL0     H 3429  13.284  11.431   5.861  0.1049 -1.1138 -1.2067
   25MOL0     H 3430  12.395  10.928   5.565  0.2848 -0.0156  0.0286
   25MOL0     H 3431  12.241  10.748   5.627 -1.2892 -0.7492  0.5820
   25MOL0     H 3432  11.945  10.414   5.733 -0.3794 -1.2612  0.8228
   25MOL0     H 3433  11.735  10.322   5.788  0.9795  0.1471  0.2882
   25MOL0     H 3434  10.518  10.567   7.254  0.5929  2.5503 -0.6650
   25MOL0     H 3435  10.335  10.558   7.422 -0.0955  2.9578  0.3197
   25MOL0     H 3436  10.053  10.805   7.694 -1.0297  0.7163 -1.1120
   25MOL0     H 3437   9.888  10.761   7.886  1.9444 -1.8531  0.1579
   25MOL0     H 3438   9.600  10.830   7.972  1.3476  2.1673 -0.9674
   25MOL0     H 3439   9.619  10.861   7.803 -1.2816  2.1878  1.9321
   25MOL0     H 3440   9.438  10.721   7.741  1.6581 -0.1868  0.7637
   25MOL0     H 3441   9.368  10.847   7.831 -0.5361 -0.3736  1.2060
   25MOL0     H 3442   9.426  10.591   7.978 -2.4313 -0.4208  3.1459
   25MOL0     H 3443   9.319  10.714   8.027  0.9945  1.4686  0.5856
   25MOL0     H 3444   9.278  10.531   7.775 -0.2461  0.0725 -0.4995
   25MOL0     H 3445   9.162  10.648   7.841  1.1819 -0.6961 -4.2671
   25MOL0     H 3446   9.104  10.313   8.078 -1.2261  0.5659 -0.3743
   25MOL0     H 3447   9.635  10.558   7.626 -0.0169  2.7550  0.7441
   25MOL0     H 3448   9.683  10.525   7.401 -0.0303 -2.9458 -0.7737
   25MOL0     H 3449   9.837  10.578   7.323  0.8383 -0.7691 -0.2822
   25MOL0     H 3450   9.824  10.422   7.412 -1.9979 -0.7193 -0.1528
   26MOL0     O 3451   5.335   4.387   9.084 -0.3105  0.3483 -0.1553
   26MOL0     C 3452   5.298   4.274   9.112 -0.6176 -0.6749  0.1503
   26MOL0     O 3453   5.376   4.184   9.158 -0.4908  0.4264 -0.9687
   26MOL0     C 3454   5.506   4.204   9.195 -1.1040 -1.1254  0.4220
   26MOL0     C 3455   5.556   4.326   9.245  0.2847 -0.7429 -0.7991
   26MOL0     C 3456   5.691   4.345   9.266  0.0563 -0.0021  0.4667
   26MOL0     C 3457   5.781   4.246   9.240  0.3122 -0.2085  0.0694
   26MOL0     O 3458   5.910   4.249   9.273  0.0659 -0.1053 -0.5634
   26MOL0     C 3459   5.925   4.265   9.410  0.7770 -0.0325 -0.4041
   26MOL0     C 3460   6.065   4.231   9.448 -0.6491 -0.1380 -0.4776
   26MOL0     C 3461   6.080   4.233   9.601 -0.2817 -0.0326 -0.3773
   26MOL0     C 3462   6.219   4.175   9.627  0.0466  0.0701 -0.0886
   26MOL0     C 3463   6.250   4.180   9.773  0.1416 -0.2096 -0.1796
   26MOL0     C 3464   6.251   4.316   9.854  0.2772  1.0602  0.0350
   26MOL0     C 3465   6.376   4.338   9.937 -0.6741 -0.0427  0.0138
   26MOL0     C 3466   6.501   4.352   9.854 -0.9463  0.2107  0.0445
   26MOL0     N 3467   6.626   4.349   9.938 -0.1897  0.0736 -0.3751
   26MOL0     C 3468   6.686   4.455  10.002 -0.0972 -1.0986 -0.2153
   26MOL0     C 3469   6.799   4.412  10.052  1.0211 -0.7217 -0.2962
   26MOL0     C 3470   6.903   4.494  10.113 -0.1642 -0.2162 -0.7266
   26MOL0     C 3471   6.987   4.418  10.218  0.3977  0.2337  0.5145
   26MOL0     C 3472   7.086   4.509  10.297  0.1390  0.3255  0.7503
   26MOL0     C 3473   7.177   4.595  10.206 -0.1613 -0.4901 -0.0578
   26MOL0     O 3474   7.278   4.668  10.284  0.7619 -0.2208  0.1002
   26MOL0     C 3475   7.392   4.712  10.229 -0.1540  0.4752  0.6796
   26MOL0     C 3476   7.437   4.692  10.101 -0.6725  1.5261  0.2034
   26MOL0     C 3477   7.551   4.757  10.050 -0.0723 -1.1113 -0.4570
   26MOL0     C 3478   7.580   4.736   9.901 -1.5155 -0.2854 -0.1108
   26MOL0     C 3479   7.620   4.851  10.137  0.5271 -0.3978 -0.4386
   26MOL0     C 3480   7.747   4.915  10.102 -0.1979  0.7942  0.6001
   26MOL0     O 3481   7.780   5.011  10.179 -0.1008 -0.3641  0.1909
   26MOL0     C 3482   7.906   5.058  10.188  0.3154 -0.3095 -0.3898
   26MOL0     C 3483   7.963   5.093  10.320 -0.1848  1.1279 -0.2089
   26MOL0     C 3484   8.097   5.118  10.328  0.1510  0.4901  0.3129
   26MOL0     C 3485   8.181   5.132  10.212  0.0677 -0.1057 -1.0570
   26MOL0     O 3486   8.307   5.173  10.237  0.4479  0.0809  0.8513
   26MOL0     C 3487   8.333   5.313  10.231  0.3134  0.4445 -0.3166
   26MOL0     C 3488   8.458   5.332  10.142  0.1720  0.7345 -0.3613
   26MOL0     C 3489   8.527   5.459  10.195  0.2533 -0.1864  0.4696
   26MOL0     C 3490   8.631   5.519  10.105 -0.5017  0.6506 -0.0226
   26MOL0     C 3491   8.726   5.408  10.057  0.9035 -0.2364  0.1383
   26MOL0     C 3492   8.831   5.464   9.954 -0.6842  0.2597 -0.3905
   26MOL0     C 3493   8.897   5.596  10.004  0.2205  0.0550  0.7418
   26MOL0     C 3494   9.044   5.608   9.985  0.7880 -0.5664  0.2743
   26MOL0    Cl 3495   9.065   5.636   9.808 -0.0184  0.4051 -0.6833
   26MOL0     C 3496   8.120   5.105  10.086 -0.1237  0.2026 -0.1797
   26MOL0     C 3497   7.989   5.069  10.070  0.6685 -0.5725  0.2649
   26MOL0     O 3498   7.817   4.855  10.019 -0.2201  0.8222  0.5336
   26MOL0     C 3499   7.561   4.874  10.264  0.2963 -0.3367 -0.3259
   26MOL0     C 3500   7.454   4.806  10.310 -0.5407  0.9477  0.6864
   26MOL0     N 3501   6.807   4.280  10.021  0.1266  0.1772 -0.0346
   26MOL0     N 3502   6.700   4.235   9.959  0.2351 -0.7152  0.8865
   26MOL0     C 3503   5.740   4.130   9.187  0.0896  0.1565 -0.7676
   26MOL0     C 3504   5.598   4.108   9.163  0.4366  0.5004 -0.0863
   26MOL0     C 3505   5.159   4.226   9.079 -0.3142  0.6940  0.5440
   26MOL0     C 3506   5.125   4.092   9.108  0.4894  0.6657 -0.3048
   26MOL0     C 3507   4.997   4.037   9.097  0.6021  0.0471  0.0366
   26MOL0     C 3508   4.893   4.117   9.050  0.8184 -0.1453 -0.2792
   26MOL0     O 3509   4.771   4.064   9.032  0.4822  0.8098 -0.4659
   26MOL0     C 3510   4.689   4.091   9.138  0.0728 -0.4328  0.1449
   26MOL0     C 3511   4.561   4.005   9.136  0.5199 -0.6692  0.8284
   26MOL0     C 3512   4.509   3.977   8.997 -0.2638  0.3979  0.7155
   26MOL0     C 3513   4.463   4.089   8.899 -0.3203 -0.0020 -0.0082
   26MOL0     C 3514   4.436   4.034   8.764 -0.2164 -0.4386  0.1848
   26MOL0     C 3515   4.415   4.006   8.645  0.4540  0.0562 -0.6606
   26MOL0     C 3516   4.932   4.246   9.004 -0.4492  0.5526  0.7030
   26MOL0     C 3517   5.059   4.295   9.010 -0.5594 -0.2366  0.7408
   26MOL0     C 3518   5.082   4.426   8.938  0.1164  0.4396  0.4060
   26MOL0     H 3519   5.495   4.410   9.280  0.9734  0.1137 -1.6046
   26MOL0     H 3520   5.719   4.435   9.321 -4.2941  0.8936  1.6727
   26MOL0     H 3521   5.858   4.197   9.463 -2.0426  3.4511  0.8962
   26MOL0     H 3522   5.901   4.364   9.450 -0.3882 -0.0991 -0.9022
   26MOL0     H 3523   6.081   4.127   9.417  0.0267 -0.6820  1.5308
   26MOL0     H 3524   6.136   4.305   9.408 -0.2976 -2.6238 -5.0432
   26MOL0     H 3525   6.074   4.338   9.631  3.6581 -0.5555  3.1751
   26MOL0     H 3526   6.005   4.178   9.658  1.4395  0.7964  2.9647
   26MOL0     H 3527   6.234   4.071   9.594  0.2035  0.2924 -0.7226
   26MOL0     H 3528   6.288   4.222   9.557 -0.9483 -0.3229 -1.3854
   26MOL0     H 3529   6.349   4.135   9.785  0.6753  0.8449 -0.5598
   26MOL0     H 3530   6.172   4.116   9.816  0.8523 -2.1745 -1.6750
   26MOL0     H 3531   6.259   4.393   9.777  0.3317  0.9865 -0.0335
   26MOL0     H 3532   6.170   4.325   9.926  2.0992  0.6465  2.2573
   26MOL0     H 3533   6.393   4.259  10.012  0.4051 -1.7082 -1.8800
   26MOL0     H 3534   6.358   4.435   9.985  3.4950  1.2314 -0.6094
   26MOL0     H 3535   6.502   4.272   9.780 -1.1122  0.3643 -0.1278
   26MOL0     H 3536   6.495   4.449   9.802  2.3398  0.3561 -0.2326
   26MOL0     H 3537   6.650   4.557   9.995 -1.4152 -1.4624  0.9197
   26MOL0     H 3538   6.850   4.580  10.155  1.8195  1.4372 -1.4543
   26MOL0     H 3539   6.976   4.532  10.042  0.9755  0.3598  0.6997
   26MOL0     H 3540   6.922   4.370  10.292  0.0393  0.5108  0.3774
   26MOL0     H 3541   7.045   4.331  10.185 -1.5333 -1.6779  1.8805
   26MOL0     H 3542   7.024   4.564  10.369  0.0578 -0.6543  1.4488
   26MOL0     H 3543   7.158   4.445  10.348 -0.2276  0.0776  0.9644
   26MOL0     H 3544   7.223   4.529  10.133  0.3416 -0.9693  0.6775
   26MOL0     H 3545   7.117   4.666  10.148 -1.5163 -0.2707  1.5572
   26MOL0     H 3546   7.379   4.626  10.037 -0.0485  0.5337  0.6417
   26MOL0     H 3547   7.674   4.681   9.887 -0.8393  0.8254 -0.0357
   26MOL0     H 3548   7.588   4.833   9.851 -3.2456  0.7642  1.5303
   26MOL0     H 3549   7.508   4.675   9.845  1.0000 -2.0726 -1.6254
   26MOL0     H 3550   7.908   5.102  10.413  0.8353 -3.5291  1.0986
   26MOL0     H 3551   8.137   5.153  10.422  2.4125 -2.4155  0.5655
   26MOL0     H 3552   8.247   5.361  10.182 -0.9029 -1.7747 -0.4860
   26MOL0     H 3553   8.356   5.359  10.328  2.6218  2.5524 -1.7319
   26MOL0     H 3554   8.511   5.237  10.158 -0.0355  0.4746 -1.1674
   26MOL0     H 3555   8.425   5.343  10.039 -4.0453 -3.3619  0.2478
   26MOL0     H 3556   8.572   5.429  10.290  0.2566 -1.2047  0.1652
   26MOL0     H 3557   8.456   5.541  10.205  0.8772  0.2738  1.2212
   26MOL0     H 3558   8.684   5.586  10.174  0.3499 -2.5067  2.7012
   26MOL0     H 3559   8.590   5.578  10.023 -2.5607  0.8048  1.0607
   26MOL0     H 3560   8.790   5.373  10.138  1.6377 -3.2276 -1.6059
   26MOL0     H 3561   8.678   5.319  10.017  0.4905  0.0392  0.0158
   26MOL0     H 3562   8.801   5.478   9.850 -0.1346 -3.5650 -1.2061
   26MOL0     H 3563   8.904   5.382   9.955 -1.0410 -0.0618  0.4091
   26MOL0     H 3564   8.873   5.606  10.110 -2.5517  2.4099  0.0313
   26MOL0     H 3565   8.847   5.668   9.938 -0.2108 -1.5760 -0.7973
   26MOL0     H 3566   9.089   5.518  10.029 -1.0406 -2.2086 -1.0353
   26MOL0     H 3567   9.089   5.693  10.037 -1.8656  2.0737 -1.4266
   26MOL0     H 3568   8.177   5.124   9.995 -0.4888 -1.1350 -0.7085
   26MOL0     H 3569   7.947   5.064   9.970 -0.0965  2.3495  0.3476
   26MOL0     H 3570   7.615   4.932  10.338 -0.3542 -1.2865  0.9423
   26MOL0     H 3571   7.423   4.826  10.412  2.7619 -0.1954  2.0579
   26MOL0     H 3572   5.807   4.046   9.169 -0.4474 -0.5243  0.2495
   26MOL0     H 3573   5.561   4.014   9.125 -2.7237  1.1172  1.1622
   26MOL0     H 3574   5.209   4.037   9.148  0.4921 -0.2100 -1.4698
   26MOL0     H 3575   4.980   3.933   9.123 -1.1860  0.1374 -0.6379
   26MOL0     H 3576   4.741   4.060   9.229 -0.0721 -1.8335 -0.2136
   26MOL0     H 3577   4.664   4.197   9.131 -1.6365 -0.7785  0.6988
   26MOL0     H 3578   4.478   4.064   9.177 -1.9378 -2.9130 -0.5829
   26MOL0     H 3579   4.588   3.915   9.192 -0.5485 -0.3107  1.9760
   26MOL0     H 3580   4.588   3.919   8.948 -1.7212 -1.7856  0.8321
   26MOL0     H 3581   4.422   3.912   9.009  2.1947 -2.9638  2.2104
   26MOL0     H 3582   4.533   4.171   8.880  1.3803 -1.6102 -1.0598
   26MOL0     H 3583   4.378   4.137   8.948  0.5029  0.2209  1.2376
   26MOL0     H 3584   4.393   3.959   8.551 -0.9672 -2.6089  0.8919
   26MOL0     H 3585   4.863   4.309   8.949  0.1742  0.0284 -0.7261
   26MOL0     H 3586   5.123   4.502   9.005  1.3968 -2.2514  2.8723
   26MOL0     H 3587   5.163   4.406   8.867  0.5755 -0.5074  1.1735
   26MOL0     H 3588   4.993   4.468   8.890  1.0160  1.0979 -0.7266
   27MOL0     O 3589   9.815   2.349   5.646 -0.8536  0.4982 -0.1869
   27MOL0     C 3590   9.913   2.275   5.641  0.1086 -1.2203 -0.0326
   27MOL0     O 3591  10.035   2.308   5.690  0.2473  0.2552  0.1269
   27MOL0     C 3592  10.035   2.425   5.760 -0.3282 -0.0320  0.1526
   27MOL0     C 3593  10.078   2.541   5.695  0.0786  0.9284 -0.3332
   27MOL0     C 3594  10.087   2.664   5.765 -0.0763 -0.3013  0.2618
   27MOL0     C 3595  10.052   2.678   5.896 -0.0984 -0.6954 -0.1826
   27MOL0     O 3596  10.075   2.800   5.959 -0.4771 -0.0121  0.4299
   27MOL0     C 3597  10.023   2.822   6.093  0.7664  0.0431  0.5153
   27MOL0     C 3598   9.877   2.867   6.102  0.3898 -0.5034  0.7741
   27MOL0     C 3599   9.831   2.940   5.980  0.7100  0.3907  0.7783
   27MOL0     C 3600   9.681   2.993   6.009  0.3769  0.3871 -0.1224
   27MOL0     C 3601   9.621   3.057   5.877 -0.3118  0.0572 -0.3234
   27MOL0     C 3602   9.707   3.182   5.831  0.5386 -0.1673  0.3942
   27MOL0     C 3603   9.635   3.254   5.716  0.0604  0.3156  0.2634
   27MOL0     C 3604   9.614   3.186   5.583 -0.0723  0.9122  1.5970
   27MOL0     N 3605   9.746   3.167   5.513 -0.4441 -0.2213 -0.6048
   27MOL0     C 3606   9.832   3.061   5.507 -0.4553 -0.4722 -0.5934
   27MOL0     C 3607   9.941   3.113   5.440 -0.5134  0.8021  0.1646
   27MOL0     C 3608  10.057   3.032   5.398  0.7086  0.1309 -0.1858
   27MOL0     C 3609  10.154   3.021   5.519  0.2767 -0.0663 -0.0851
   27MOL0     C 3610  10.277   2.929   5.497 -0.4513 -0.2750  0.6523
   27MOL0     C 3611  10.364   2.910   5.627  0.2415  0.4450 -0.0767
   27MOL0     O 3612  10.440   3.023   5.647  0.3318  0.1238  0.3265
   27MOL0     C 3613  10.554   3.007   5.719 -0.4996  0.7781  0.0018
   27MOL0     C 3614  10.666   3.082   5.679 -0.1362  0.6950  0.2277
   27MOL0     C 3615  10.791   3.074   5.747  0.6823  0.2691 -0.2706
   27MOL0     C 3616  10.890   3.166   5.689 -0.2758  0.4025  0.0222
   27MOL0     C 3617  10.803   3.006   5.867  0.3104  0.7487 -0.3131
   27MOL0     C 3618  10.934   2.986   5.940  0.7285  0.5595  0.0149
   27MOL0     O 3619  10.944   2.871   6.016  0.8337 -0.8985 -0.6724
   27MOL0     C 3620  11.065   2.855   6.080 -0.5156  0.2798  0.1719
   27MOL0     C 3621  11.104   2.953   6.168  0.2385 -0.0652 -0.7519
   27MOL0     C 3622  11.213   2.930   6.251  0.2021 -0.2788  1.2062
   27MOL0     C 3623  11.291   2.811   6.241 -0.1968 -0.3117  0.8691
   27MOL0     O 3624  11.387   2.793   6.334 -0.3294 -0.0462  0.1578
   27MOL0     C 3625  11.508   2.705   6.320 -0.0163 -0.1768 -0.2428
   27MOL0     C 3626  11.623   2.782   6.373 -0.1573 -1.1843  0.0282
   27MOL0     C 3627  11.602   2.807   6.525  0.3579 -0.0076 -0.1751
   27MOL0     C 3628  11.740   2.851   6.577 -0.4858 -0.0960  1.3410
   27MOL0     C 3629  11.716   2.942   6.705  0.2084  0.7682  0.9838
   27MOL0     C 3630  11.849   2.969   6.769 -0.0920 -0.2245  0.6909
   27MOL0     C 3631  11.824   3.056   6.889 -0.0931  0.8115 -0.2808
   27MOL0     C 3632  11.953   3.127   6.917 -0.5665  0.2791  0.9951
   27MOL0    Cl 3633  12.068   3.007   6.999  0.1667 -0.2774 -0.4656
   27MOL0     C 3634  11.246   2.707   6.154  0.5413  0.5304  0.0014
   27MOL0     C 3635  11.133   2.732   6.076 -0.3100 -0.6268  0.1801
   27MOL0     O 3636  11.024   3.066   5.917  0.3716 -1.0685 -0.0365
   27MOL0     C 3637  10.692   2.929   5.907 -0.4333 -0.0599 -0.6671
   27MOL0     C 3638  10.566   2.943   5.844 -0.6529 -0.1267 -0.0292
   27MOL0     N 3639   9.907   3.236   5.391 -0.1460  0.2006 -0.7705
   27MOL0     N 3640   9.791   3.269   5.427  0.2944  0.3817  0.7530
   27MOL0     C 3641  10.009   2.562   5.964 -0.9224  0.5839 -0.6449
   27MOL0     C 3642  10.006   2.435   5.893 -0.3338  0.1018 -0.4518
   27MOL0     C 3643   9.909   2.152   5.564  0.0145  0.2200  0.4185
   27MOL0     C 3644   9.852   2.029   5.614 -0.6007 -0.0804 -0.7919
   27MOL0     C 3645   9.867   1.910   5.536  1.1075 -0.0140 -1.0888
   27MOL0     C 3646   9.932   1.907   5.418  0.1475 -0.2776  0.4303
   27MOL0     O 3647   9.940   1.790   5.339  0.2474 -0.6207 -0.8941
   27MOL0     C 3648  10.067   1.736   5.329 -0.5455  0.3267 -0.0698
   27MOL0     C 3649  10.085   1.583   5.344 -0.1061 -0.5387  0.3767
   27MOL0     C 3650  10.234   1.538   5.324  0.1623  1.3105 -0.4131
   27MOL0     C 3651  10.266   1.438   5.214  0.4898 -0.1661  1.2761
   27MOL0     C 3652  10.258   1.486   5.078 -0.2003  0.0554  0.0960
   27MOL0     C 3653  10.250   1.533   4.967  0.8314 -0.0656 -1.0878
   27MOL0     C 3654   9.988   2.023   5.367 -0.2386  0.1686 -0.3932
   27MOL0     C 3655   9.981   2.142   5.439  0.5789 -0.4088 -0.1593
   27MOL0     C 3656  10.056   2.266   5.383  0.1678 -0.4791 -0.1470
   27MOL0     H 3657  10.104   2.528   5.591  3.1369 -2.6962  0.6622
   27MOL0     H 3658  10.132   2.743   5.706  1.2957 -1.1351  0.1572
   27MOL0     H 3659  10.080   2.910   6.124  1.6174 -0.9538  1.8969
   27MOL0     H 3660  10.056   2.747   6.165  1.0468  0.7450  1.1319
   27MOL0     H 3661   9.813   2.778   6.100  0.2894 -0.4620  1.6989
   27MOL0     H 3662   9.872   2.935   6.187  2.7226  3.0230 -1.6203
   27MOL0     H 3663   9.900   3.014   5.937  2.1883 -1.4763 -0.2420
   27MOL0     H 3664   9.828   2.875   5.892 -1.4127  1.0307  0.3232
   27MOL0     H 3665   9.616   2.914   6.048 -1.7254  1.6435 -0.8905
   27MOL0     H 3666   9.693   3.071   6.084  1.1939 -0.5451  0.7393
   27MOL0     H 3667   9.516   3.081   5.893 -0.6166 -0.9839 -0.6597
   27MOL0     H 3668   9.628   2.975   5.804 -0.2216 -0.6985  0.5268
   27MOL0     H 3669   9.714   3.254   5.913  0.7173 -2.1665  2.2063
   27MOL0     H 3670   9.810   3.161   5.802  0.8764  0.9384  0.7171
   27MOL0     H 3671   9.690   3.344   5.686  2.1212 -1.4297 -1.4470
   27MOL0     H 3672   9.536   3.278   5.756  0.2274  2.1460 -0.3217
   27MOL0     H 3673   9.566   3.088   5.584 -0.7074  1.1224 -1.0999
   27MOL0     H 3674   9.543   3.239   5.518  0.4850 -0.9976 -0.7019
   27MOL0     H 3675   9.815   2.980   5.576  0.2719 -1.3698 -1.4342
   27MOL0     H 3676  10.113   3.082   5.319  1.7000 -0.6467  0.0124
   27MOL0     H 3677  10.032   2.930   5.369  0.6391 -0.7751  2.7588
   27MOL0     H 3678  10.201   3.119   5.527  3.0667 -1.2780 -0.6056
   27MOL0     H 3679  10.106   2.985   5.611  1.2077  0.1142  0.4880
   27MOL0     H 3680  10.238   2.838   5.451 -1.6033  0.0210  1.0029
   27MOL0     H 3681  10.345   2.964   5.419  2.6361 -2.1995  2.2731
   27MOL0     H 3682  10.302   2.894   5.716  3.9033 -1.3827  2.3721
   27MOL0     H 3683  10.432   2.827   5.611 -0.1617  0.3695 -1.5603
   27MOL0     H 3684  10.655   3.148   5.594  2.6480 -1.5282 -2.0873
   27MOL0     H 3685  10.845   3.226   5.610  1.2641  0.0055 -1.1990
   27MOL0     H 3686  10.981   3.117   5.652  0.4926  2.3264 -0.8041
   27MOL0     H 3687  10.919   3.225   5.777 -0.5989 -0.9902  1.0905
   27MOL0     H 3688  11.047   3.045   6.180  0.3408 -0.2334  1.2740
   27MOL0     H 3689  11.232   3.008   6.325 -0.4672  1.6588 -0.5473
   27MOL0     H 3690  11.482   2.616   6.377 -0.7398  0.2657  0.1384
   27MOL0     H 3691  11.529   2.674   6.217  2.3264  2.5552 -0.7325
   27MOL0     H 3692  11.712   2.721   6.353  1.9195  1.8141 -0.6202
   27MOL0     H 3693  11.642   2.873   6.315  0.5051 -1.1882  0.2328
   27MOL0     H 3694  11.569   2.717   6.576  0.3723 -1.4295 -2.5429
   27MOL0     H 3695  11.525   2.883   6.541  1.4320  1.0869 -0.0763
   27MOL0     H 3696  11.790   2.911   6.500  0.3870 -0.0556  1.9273
   27MOL0     H 3697  11.798   2.761   6.601  2.8908  1.4792 -0.2140
   27MOL0     H 3698  11.655   3.030   6.682 -3.2735 -1.4448  1.0401
   27MOL0     H 3699  11.657   2.884   6.776  1.4906 -0.5625  1.0138
   27MOL0     H 3700  11.919   3.009   6.695 -1.3676  0.1775 -0.3339
   27MOL0     H 3701  11.895   2.873   6.793 -1.5705 -1.4410 -0.9991
   27MOL0     H 3702  11.786   3.002   6.976 -1.6134  1.7123 -0.3564
   27MOL0     H 3703  11.751   3.135   6.869 -0.2675  0.4445 -1.1340
   27MOL0     H 3704  11.930   3.211   6.982 -0.2565 -0.3635  1.9579
   27MOL0     H 3705  12.004   3.165   6.828  0.4774 -4.7018 -0.8767
   27MOL0     H 3706  11.292   2.609   6.158 -2.8120 -1.3012 -1.8131
   27MOL0     H 3707  11.078   2.658   6.017  0.6560  0.3498 -2.0644
   27MOL0     H 3708  10.689   2.856   5.986  2.0097  0.7762  0.2865
   27MOL0     H 3709  10.482   2.891   5.890  0.5226 -0.4207  1.8888
   27MOL0     H 3710   9.988   2.565   6.071  2.7356 -2.2378  0.3745
   27MOL0     H 3711   9.974   2.343   5.941 -1.2326  0.0422 -1.1437
   27MOL0     H 3712   9.814   2.029   5.716 -0.3831 -1.1729 -0.7045
   27MOL0     H 3713   9.827   1.815   5.571 -2.6226  1.8777  0.3449
   27MOL0     H 3714  10.101   1.755   5.227  0.4594 -1.7002 -0.1646
   27MOL0     H 3715  10.138   1.777   5.401  0.8133 -3.1051  0.7596
   27MOL0     H 3716  10.008   1.540   5.279  0.2850  1.1246 -1.2776
   27MOL0     H 3717  10.056   1.554   5.446 -0.8801 -3.3955 -0.5796
   27MOL0     H 3718  10.304   1.622   5.320 -0.9029  2.1767 -2.6725
   27MOL0     H 3719  10.264   1.478   5.410 -2.9295 -0.4064 -0.3953
   27MOL0     H 3720  10.181   1.370   5.224  1.0707 -0.8285  1.7219
   27MOL0     H 3721  10.356   1.379   5.230  1.4850  1.3311  1.3971
   27MOL0     H 3722  10.273   1.581   4.874  2.3813 -0.4322 -0.9208
   27MOL0     H 3723  10.026   2.020   5.265  0.1836  1.0795 -0.2767
   27MOL0     H 3724  10.098   2.246   5.284  0.2934  3.6082 -1.0854
   27MOL0     H 3725   9.993   2.355   5.376  0.6138 -0.2855 -2.2632
   27MOL0     H 3726  10.138   2.284   5.454  0.6744  0.5497 -0.9803
   28MOL0     O 3727   7.345   5.854   2.565  0.3155  0.1613 -0.5412
   28MOL0     C 3728   7.281   5.751   2.554 -0.2018  0.1044 -0.5679
   28MOL0     O 3729   7.328   5.647   2.481 -0.1148  0.1008  0.1421
   28MOL0     C 3730   7.449   5.655   2.402  0.0068  0.0374 -0.3926
   28MOL0     C 3731   7.566   5.613   2.465 -0.2075 -0.9700 -0.1598
   28MOL0     C 3732   7.683   5.615   2.389  0.4453  0.2167 -0.0273
   28MOL0     C 3733   7.681   5.649   2.257 -0.2171  0.9184  0.5257
   28MOL0     O 3734   7.785   5.659   2.166  0.1809 -0.2648 -0.7189
   28MOL0     C 3735   7.900   5.573   2.195 -0.0328  0.2810 -0.0429
   28MOL0     C 3736   8.010   5.574   2.090 -0.5895  0.2474  0.4522
   28MOL0     C 3737   8.138   5.533   2.140  0.7979  0.3701  0.1510
   28MOL0     C 3738   8.236   5.479   2.030  0.4198 -0.3979  0.0975
   28MOL0     C 3739   8.346   5.397   2.086 -0.0890  0.3918  0.2038
   28MOL0     C 3740   8.443   5.481   2.172 -0.5088 -0.2239 -0.1998
   28MOL0     C 3741   8.508   5.395   2.287  0.0270  0.9107 -0.0511
   28MOL0     C 3742   8.635   5.451   2.362 -0.1510  1.1871 -0.0775
   28MOL0     N 3743   8.616   5.581   2.420 -0.2355 -0.3179  0.6074
   28MOL0     C 3744   8.602   5.700   2.349 -0.0647 -0.5288 -0.1507
   28MOL0     C 3745   8.592   5.788   2.453  0.1271 -0.1073 -0.0114
   28MOL0     C 3746   8.569   5.939   2.432  0.6891 -0.8181 -0.4528
   28MOL0     C 3747   8.428   5.978   2.479 -0.1548 -0.3718 -0.7035
   28MOL0     C 3748   8.411   5.993   2.634 -0.2760  0.1408  0.9282
   28MOL0     C 3749   8.262   6.013   2.669  0.5088 -0.1614  0.4495
   28MOL0     O 3750   8.226   5.924   2.778  0.7479 -0.5341 -0.4923
   28MOL0     C 3751   8.163   5.809   2.743  0.9812  0.1976  0.6480
   28MOL0     C 3752   8.212   5.715   2.639 -0.8181 -0.1596 -0.0394
   28MOL0     C 3753   8.145   5.593   2.610 -0.4810 -0.2028 -0.4164
   28MOL0     C 3754   8.220   5.488   2.524 -0.4468  0.0806  1.2687
   28MOL0     C 3755   8.015   5.571   2.671 -0.6578  0.3861  0.2925
   28MOL0     C 3756   7.934   5.454   2.661 -0.0713  0.3714 -0.4801
   28MOL0     O 3757   7.855   5.415   2.762  0.6367 -0.1075  0.5850
   28MOL0     C 3758   7.774   5.302   2.741 -1.2963 -0.0777  0.7737
   28MOL0     C 3759   7.803   5.210   2.838 -0.9275  0.1945  0.0245
   28MOL0     C 3760   7.718   5.103   2.852  0.2936 -0.1090  0.3293
   28MOL0     C 3761   7.624   5.077   2.757 -0.8119  1.4355  0.1455
   28MOL0     O 3762   7.557   4.951   2.765 -0.4818 -0.3006 -0.4273
   28MOL0     C 3763   7.502   4.906   2.891 -0.0662 -0.8162 -0.2268
   28MOL0     C 3764   7.354   4.872   2.888 -0.3296  0.4918 -0.2610
   28MOL0     C 3765   7.298   4.847   3.027  0.1155  0.1422 -0.2450
   28MOL0     C 3766   7.151   4.825   3.005  0.7646 -0.0857 -0.1336
   28MOL0     C 3767   7.077   4.788   3.137 -0.7186 -0.1286 -0.2505
   28MOL0     C 3768   6.937   4.811   3.112  0.3248 -0.6547  0.4831
   28MOL0     C 3769   6.843   4.769   3.226 -0.3683 -0.3762  0.9444
   28MOL0     C 3770   6.691   4.802   3.204  0.2137  0.1571 -0.5780
   28MOL0    Cl 3771   6.597   4.770   3.354 -0.3020 -0.2837 -0.1322
   28MOL0     C 3772   7.611   5.165   2.650  0.3267  0.1945 -0.4632
   28MOL0     C 3773   7.685   5.285   2.639  0.3026  0.7737 -0.3630
   28MOL0     O 3774   7.941   5.396   2.558  1.0695  0.1619  0.0744
   28MOL0     C 3775   7.972   5.661   2.772  0.1365 -0.6900 -0.1732
   28MOL0     C 3776   8.043   5.780   2.811 -0.1310  0.4886  0.3836
   28MOL0     N 3777   8.599   5.720   2.580 -0.5416 -0.1678 -0.3728
   28MOL0     N 3778   8.606   5.596   2.551 -0.3416 -0.3586  0.0454
   28MOL0     C 3779   7.557   5.684   2.196 -0.5572  0.8153  0.3056
   28MOL0     C 3780   7.435   5.669   2.264 -0.1691 -0.7787  0.0290
   28MOL0     C 3781   7.161   5.729   2.640  1.1521 -0.5266 -0.0626
   28MOL0     C 3782   7.082   5.620   2.596  0.5415 -0.0222  0.8263
   28MOL0     C 3783   6.954   5.603   2.641 -0.1576  0.0257  0.0172
   28MOL0     C 3784   6.900   5.679   2.752 -0.3518  0.5684  0.0484
   28MOL0     O 3785   6.782   5.654   2.819  0.0165 -0.1094 -0.1195
   28MOL0     C 3786   6.684   5.562   2.769 -0.7766 -0.1092  0.2494
   28MOL0     C 3787   6.605   5.496   2.876 -0.2974  0.1493 -0.1468
   28MOL0     C 3788   6.461   5.530   2.866  0.3821 -0.3963  0.4207
   28MOL0     C 3789   6.381   5.470   2.968  0.3835 -0.8756 -0.3805
   28MOL0     C 3790   6.237   5.479   2.930  0.0490  0.2172  0.4759
   28MOL0     C 3791   6.125   5.485   2.895  0.2106 -0.1355  0.2497
   28MOL0     C 3792   6.986   5.778   2.804 -0.2469 -0.5746 -0.4328
   28MOL0     C 3793   7.111   5.811   2.750  0.0428  0.4253  0.3791
   28MOL0     C 3794   7.184   5.916   2.824  0.5112 -0.0831 -1.0498
   28MOL0     H 3795   7.580   5.605   2.573  2.0515  0.2804 -0.3011
   28MOL0     H 3796   7.773   5.588   2.443 -0.1571 -0.4738  0.6607
   28MOL0     H 3797   7.865   5.470   2.210  1.7754 -0.4928 -0.8955
   28MOL0     H 3798   7.946   5.615   2.284  0.4279  2.0885 -1.0942
   28MOL0     H 3799   7.990   5.520   1.997  2.2128 -0.5024  0.1932
   28MOL0     H 3800   8.022   5.680   2.068 -1.7744 -0.0489 -2.0040
   28MOL0     H 3801   8.178   5.618   2.196  2.0138  0.1077 -0.2835
   28MOL0     H 3802   8.141   5.448   2.210  4.8053  0.9071  0.8783
   28MOL0     H 3803   8.188   5.420   1.951  1.6520  0.0196 -0.9958
   28MOL0     H 3804   8.270   5.567   1.976  0.7058 -0.3915  0.2830
   28MOL0     H 3805   8.405   5.344   2.010  1.4792  1.6078  0.5007
   28MOL0     H 3806   8.308   5.309   2.139 -0.4441 -0.4529 -1.4123
   28MOL0     H 3807   8.519   5.534   2.113 -0.8866  0.3656 -0.1651
   28MOL0     H 3808   8.374   5.552   2.218 -1.3545  0.0811 -1.8464
   28MOL0     H 3809   8.533   5.300   2.241 -1.2024  1.0951 -1.1676
   28MOL0     H 3810   8.425   5.381   2.357  0.9525  0.7482  1.0392
   28MOL0     H 3811   8.675   5.378   2.433 -1.1643  2.1003  1.4743
   28MOL0     H 3812   8.711   5.464   2.284  0.2388 -0.3226  0.0167
   28MOL0     H 3813   8.601   5.732   2.246  0.4178  3.5521  0.9303
   28MOL0     H 3814   8.572   5.963   2.325 -0.1232 -0.9400 -0.5086
   28MOL0     H 3815   8.656   5.991   2.474 -0.6683  0.4811  0.8197
   28MOL0     H 3816   8.402   6.073   2.431  0.8128  2.2716  3.4857
   28MOL0     H 3817   8.363   5.897   2.444 -0.2760 -1.2126  1.3361
   28MOL0     H 3818   8.446   5.905   2.690 -3.3186 -1.1664  0.9314
   28MOL0     H 3819   8.478   6.073   2.668  0.3431  0.8109 -1.6387
   28MOL0     H 3820   8.240   6.117   2.696  0.3246 -0.2602  0.6868
   28MOL0     H 3821   8.197   5.990   2.585  1.0196  1.6809 -0.4858
   28MOL0     H 3822   8.314   5.728   2.603 -1.2036  2.3659 -0.3968
   28MOL0     H 3823   8.300   5.548   2.481 -1.3349  1.2162  1.1462
   28MOL0     H 3824   8.163   5.467   2.433 -0.5575  2.9386  0.5725
   28MOL0     H 3825   8.259   5.400   2.575 -0.4614  0.9966  2.9049
   28MOL0     H 3826   7.889   5.217   2.904 -1.0711 -2.6832  0.6580
   28MOL0     H 3827   7.744   5.031   2.928  0.8382  0.0542  0.3068
   28MOL0     H 3828   7.564   4.821   2.923  0.5495 -0.9729 -1.7561
   28MOL0     H 3829   7.519   4.977   2.973  2.2012 -3.7175  2.0404
   28MOL0     H 3830   7.305   4.963   2.851  0.0760 -0.6141 -3.7816
   28MOL0     H 3831   7.346   4.785   2.823  2.0020 -1.4436  1.8552
   28MOL0     H 3832   7.324   4.932   3.090 -0.8125  1.3504 -1.4262
   28MOL0     H 3833   7.339   4.749   3.054 -0.8452  0.1520  1.3787
   28MOL0     H 3834   7.128   4.754   2.925 -2.7242  1.8161 -1.0323
   28MOL0     H 3835   7.103   4.914   2.965 -1.4289 -1.3214 -0.4361
   28MOL0     H 3836   7.100   4.683   3.157 -0.1404 -0.1220 -0.8664
   28MOL0     H 3837   7.123   4.843   3.220 -0.7159  0.9170 -0.9237
   28MOL0     H 3838   6.907   4.759   3.021  1.0279 -0.2572  0.0125
   28MOL0     H 3839   6.909   4.911   3.077 -2.5996 -1.2424  0.8590
   28MOL0     H 3840   6.872   4.823   3.316 -0.5484 -1.1723  1.4926
   28MOL0     H 3841   6.846   4.665   3.260 -2.5200 -0.2401  1.6829
   28MOL0     H 3842   6.641   4.751   3.122 -3.7658  2.1963  0.3233
   28MOL0     H 3843   6.679   4.902   3.161 -1.6908 -0.5680 -1.8866
   28MOL0     H 3844   7.561   5.141   2.557  0.0582  0.4925 -0.3986
   28MOL0     H 3845   7.692   5.358   2.559  1.8259 -0.1530 -1.1328
   28MOL0     H 3846   7.874   5.653   2.817 -0.1042  1.0909 -0.2954
   28MOL0     H 3847   8.011   5.856   2.882 -0.4614 -0.2469  1.0468
   28MOL0     H 3848   7.558   5.693   2.088 -2.2044  1.0708  0.2901
   28MOL0     H 3849   7.349   5.691   2.203  1.3129  0.5843 -1.6681
   28MOL0     H 3850   7.123   5.546   2.528  0.1737 -1.1371  1.7906
   28MOL0     H 3851   6.896   5.531   2.584  0.8984 -1.5881  0.8885
   28MOL0     H 3852   6.629   5.626   2.700  1.6045  4.9155  2.5010
   28MOL0     H 3853   6.729   5.475   2.719  0.9089  0.8433  0.0234
   28MOL0     H 3854   6.645   5.532   2.971  0.2535 -0.5513 -0.1082
   28MOL0     H 3855   6.622   5.389   2.864  0.0816  0.4891 -3.8595
   28MOL0     H 3856   6.455   5.639   2.866  0.1508 -0.3729 -1.7556
   28MOL0     H 3857   6.426   5.494   2.769 -1.0970 -4.2775  2.1986
   28MOL0     H 3858   6.388   5.531   3.058 -2.6288 -2.5470  1.1335
   28MOL0     H 3859   6.418   5.370   2.992 -1.4452 -2.2090 -2.6775
   28MOL0     H 3860   6.027   5.499   2.855  1.1614  1.5423 -1.6754
   28MOL0     H 3861   6.950   5.830   2.892  0.7001 -1.9113  0.7945
   28MOL0     H 3862   7.268   5.867   2.875 -0.5802 -2.2281 -1.1909
   28MOL0     H 3863   7.216   5.996   2.756 -0.3994 -1.3347 -3.0460
   28MOL0     H 3864   7.121   5.974   2.890  2.9135  0.5182  0.8739
   29MOL0     O 3865   4.173   0.120   3.933  1.2972 -0.1867  0.5441
   29MOL0     C 3866   4.255   0.049   3.984  0.6365  0.8064 -0.1512
   29MOL0     O 3867   4.385   0.033   3.942  0.3416 -0.3503  0.4719
   29MOL0     C 3868   4.437   0.085   3.827  0.0496  0.3114  0.8505
   29MOL0     C 3869   4.378   0.059   3.698 -0.6520 -0.3041  0.3942
   29MOL0     C 3870   4.443   0.116   3.584  0.7278 -0.3869  0.2574
   29MOL0     C 3871   4.563   0.192   3.587  0.6659  0.1597  0.1847
   29MOL0     O 3872   4.635   0.238   3.474  0.4618 -0.6018 -0.3440
   29MOL0     C 3873   4.604   0.207   3.340 -0.6986 -0.9764 -0.1083
   29MOL0     C 3874   4.563   0.332   3.260 -0.0798 -0.0385  0.1630
   29MOL0     C 3875   4.417   0.381   3.278  0.7056 -0.5099 -0.3837
   29MOL0     C 3876   4.391   0.512   3.200  0.1988 -0.8600  0.7737
   29MOL0     C 3877   4.244   0.543   3.203  0.1102  0.1194  0.1257
   29MOL0     C 3878   4.214   0.682   3.149 -0.4327 -0.2849 -0.7860
   29MOL0     C 3879   4.078   0.725   3.201 -0.2639 -0.1431  0.5477
   29MOL0     C 3880   4.025   0.863   3.172  0.9066 -0.0020  0.1795
   29MOL0     N 3881   4.000   0.883   3.026 -0.9511 -0.2095 -0.2452
   29MOL0     C 3882   3.913   0.812   2.940  0.2957  0.1686 -1.2250
   29MOL0     C 3883   3.905   0.885   2.824 -0.3004  0.9906  0.0768
   29MOL0     C 3884   3.812   0.861   2.708 -0.0940 -0.4210  0.7965
   29MOL0     C 3885   3.888   0.821   2.588  0.9596 -0.1135  0.7368
   29MOL0     C 3886   3.796   0.754   2.479 -0.1113 -0.2150 -0.0045
   29MOL0     C 3887   3.859   0.739   2.341  0.3416  0.6212 -0.5557
   29MOL0     O 3888   3.992   0.700   2.345  0.5102 -0.5498  0.6579
   29MOL0     C 3889   4.040   0.573   2.347  0.3180  0.0719  0.0299
   29MOL0     C 3890   3.966   0.459   2.347 -0.6329 -0.0085 -0.2711
   29MOL0     C 3891   4.014   0.328   2.364 -0.0006 -0.2054 -0.1156
   29MOL0     C 3892   3.919   0.214   2.370 -0.2473  0.1895  0.3891
   29MOL0     C 3893   4.161   0.306   2.374  0.2968 -0.3443 -0.7723
   29MOL0     C 3894   4.235   0.174   2.392  0.2402 -0.3475  1.0162
   29MOL0     O 3895   4.358   0.189   2.449 -0.1135  0.4369  0.5160
   29MOL0     C 3896   4.432   0.075   2.472  0.8661 -0.1404 -0.4041
   29MOL0     C 3897   4.562   0.075   2.429  0.3819  0.3410  0.2675
   29MOL0     C 3898   4.646  -0.033   2.464 -0.2111 -1.2488 -0.2138
   29MOL0     C 3899   4.605  -0.137   2.542 -0.4730 -0.1129 -0.3033
   29MOL0     O 3900   4.705  -0.233   2.575 -0.1182  0.2015  0.4999
   29MOL0     C 3901   4.664  -0.331   2.671 -0.9036 -0.2415  0.2302
   29MOL0     C 3902   4.762  -0.449   2.673  0.5089  0.6402  0.0675
   29MOL0     C 3903   4.910  -0.413   2.665  0.2242  0.0698 -0.2631
   29MOL0     C 3904   4.969  -0.377   2.807 -0.2010 -0.0729  0.5290
   29MOL0     C 3905   5.082  -0.260   2.806 -0.1315 -0.2025  0.6539
   29MOL0     C 3906   5.043  -0.117   2.752 -0.6938 -1.0137 -0.7385
   29MOL0     C 3907   5.145  -0.017   2.808 -0.6901  0.0891 -0.8506
   29MOL0     C 3908   5.099   0.122   2.802  0.1975  0.3812 -0.5586
   29MOL0    Cl 3909   5.241   0.231   2.834  0.3065  0.1808 -0.1041
   29MOL0     C 3910   4.467  -0.139   2.579 -0.6458  0.3557  0.3106
   29MOL0     C 3911   4.386  -0.029   2.549  0.0384 -0.7005 -1.0090
   29MOL0     O 3912   4.188   0.071   2.342  1.4682 -0.0764  0.1621
   29MOL0     C 3913   4.235   0.427   2.374  1.1252 -0.3310 -0.0974
   29MOL0     C 3914   4.168   0.556   2.364 -0.9537  0.6211 -0.3532
   29MOL0     N 3915   3.984   0.995   2.834  0.5327  1.0046 -1.3066
   29MOL0     N 3916   4.037   0.990   2.953 -0.2457 -0.2719 -0.6686
   29MOL0     C 3917   4.625   0.187   3.706  0.4762 -0.2287  0.1561
   29MOL0     C 3918   4.559   0.146   3.827  0.5834 -0.5790 -0.4959
   29MOL0     C 3919   4.210  -0.036   4.108 -0.4246 -0.0013  0.9103
   29MOL0     C 3920   4.298  -0.142   4.153 -0.4189 -0.6644 -0.0305
   29MOL0     C 3921   4.269  -0.232   4.252  0.3681 -0.1959  0.3240
   29MOL0     C 3922   4.146  -0.224   4.318 -0.0891 -0.2679  0.4499
   29MOL0     O 3923   4.118  -0.320   4.417 -0.1571 -0.4069 -0.5739
   29MOL0     C 3924   3.990  -0.324   4.484 -0.4239 -0.5496 -0.2418
   29MOL0     C 3925   3.999  -0.431   4.604 -0.0964 -1.4711  0.2624
   29MOL0     C 3926   3.883  -0.403   4.695  1.2502 -0.2028  0.6890
   29MOL0     C 3927   3.743  -0.425   4.632  0.3813 -0.4821  0.0815
   29MOL0     C 3928   3.711  -0.551   4.561  0.0153  0.0586 -0.3052
   29MOL0     C 3929   3.691  -0.649   4.490 -1.0724  0.6413 -1.2812
   29MOL0     C 3930   4.062  -0.115   4.288  0.4343  0.2634  0.7905
   29MOL0     C 3931   4.082  -0.026   4.180  0.7641  0.0252  0.0753
   29MOL0     C 3932   3.981   0.087   4.151 -0.3479 -0.2406  0.1741
   29MOL0     H 3933   4.292  -0.008   3.697  0.5935 -2.0564 -2.9814
   29MOL0     H 3934   4.400   0.091   3.487  1.2625  2.2467 -0.7267
   29MOL0     H 3935   4.525   0.132   3.330 -0.0625 -1.5208 -1.2498
   29MOL0     H 3936   4.689   0.149   3.303 -1.8544 -2.8664  0.0683
   29MOL0     H 3937   4.636   0.409   3.286  0.8051  0.1227 -2.4731
   29MOL0     H 3938   4.566   0.312   3.152 -2.8912  0.0369  0.0176
   29MOL0     H 3939   4.342   0.302   3.265  0.4451 -0.4394  0.6488
   29MOL0     H 3940   4.401   0.425   3.376 -1.6562  1.9256 -1.7200
   29MOL0     H 3941   4.450   0.597   3.239  2.1376 -0.5382 -2.5016
   29MOL0     H 3942   4.425   0.483   3.101  0.3424  0.6087  0.3695
   29MOL0     H 3943   4.208   0.540   3.306 -0.0600 -1.9482  0.0657
   29MOL0     H 3944   4.194   0.467   3.143 -0.2379 -1.8904  2.7553
   29MOL0     H 3945   4.294   0.751   3.177  0.2988 -0.8801 -1.3765
   29MOL0     H 3946   4.209   0.685   3.040 -1.4815 -0.5176 -0.7614
   29MOL0     H 3947   4.086   0.710   3.309 -0.5732  0.8476  0.7148
   29MOL0     H 3948   4.005   0.656   3.157  1.8876 -2.1377 -0.0846
   29MOL0     H 3949   3.931   0.885   3.223  1.0451  2.5668 -0.5117
   29MOL0     H 3950   4.090   0.947   3.199  2.0434  0.2758 -2.9424
   29MOL0     H 3951   3.849   0.730   2.973  1.3036 -1.2345 -2.6192
   29MOL0     H 3952   3.758   0.954   2.690 -0.0976 -0.4073  0.8756
   29MOL0     H 3953   3.735   0.787   2.728 -2.6963  1.5753 -1.1585
   29MOL0     H 3954   3.940   0.913   2.556 -0.4745  0.8254  1.0060
   29MOL0     H 3955   3.965   0.747   2.610 -0.7975 -2.4452 -0.4779
   29MOL0     H 3956   3.760   0.656   2.512 -1.6335 -0.0646 -1.0959
   29MOL0     H 3957   3.709   0.818   2.462  1.2044  1.1290 -2.0307
   29MOL0     H 3958   3.799   0.685   2.267  1.2213  0.5096 -1.2030
   29MOL0     H 3959   3.850   0.833   2.286  0.0822  0.0375 -1.5393
   29MOL0     H 3960   3.859   0.473   2.362 -0.2788 -0.0677  3.1342
   29MOL0     H 3961   3.947   0.159   2.461 -1.0973 -0.6385  0.1619
   29MOL0     H 3962   3.924   0.154   2.279  5.4286 -0.1038  0.5343
   29MOL0     H 3963   3.814   0.243   2.382 -0.6614  0.3559 -2.7804
   29MOL0     H 3964   4.586   0.152   2.357  1.8230  1.7631  2.1741
   29MOL0     H 3965   4.746  -0.019   2.423 -1.2505  2.1472 -1.8971
   29MOL0     H 3966   4.667  -0.280   2.768  1.7031 -2.9538  1.7485
   29MOL0     H 3967   4.565  -0.371   2.649 -1.1875  1.0149 -0.9123
   29MOL0     H 3968   4.742  -0.516   2.758  1.5976 -1.5435 -1.3165
   29MOL0     H 3969   4.750  -0.519   2.590  0.6115  0.3649  0.2855
   29MOL0     H 3970   4.935  -0.332   2.597 -1.5412  2.4829  1.7921
   29MOL0     H 3971   4.955  -0.509   2.634  0.1915  0.7976 -2.7964
   29MOL0     H 3972   5.011  -0.467   2.854  1.9722  0.7490  0.2899
   29MOL0     H 3973   4.883  -0.340   2.864  0.3015  1.7911  0.1341
   29MOL0     H 3974   5.107  -0.254   2.912 -1.7895 -0.1143  1.0677
   29MOL0     H 3975   5.171  -0.289   2.749 -0.4988  0.5387 -0.3284
   29MOL0     H 3976   4.942  -0.085   2.780 -1.3197 -3.2803 -0.2049
   29MOL0     H 3977   5.051  -0.116   2.643 -1.7912  0.4007 -0.8343
   29MOL0     H 3978   5.240  -0.022   2.755  1.5422 -0.0389  2.8129
   29MOL0     H 3979   5.167  -0.041   2.913 -3.1624 -0.8375 -0.4659
   29MOL0     H 3980   5.020   0.145   2.874 -0.3550 -2.1889 -0.2530
   29MOL0     H 3981   5.066   0.152   2.702  1.9199  3.2878 -0.3767
   29MOL0     H 3982   4.433  -0.230   2.628  5.1503 -0.9915  2.7039
   29MOL0     H 3983   4.282  -0.035   2.577  0.2884 -7.0037  0.1699
   29MOL0     H 3984   4.344   0.425   2.372  1.3158  2.5185 -3.9782
   29MOL0     H 3985   4.225   0.647   2.368  0.1570  0.0185 -1.6050
   29MOL0     H 3986   4.719   0.238   3.722  0.1082 -0.0398  1.8715
   29MOL0     H 3987   4.610   0.170   3.920  0.6837  3.5824 -1.4090
   29MOL0     H 3988   4.385  -0.154   4.090 -0.6671  0.9180 -0.7377
   29MOL0     H 3989   4.327  -0.319   4.281 -1.5762 -2.3020 -1.6581
   29MOL0     H 3990   3.966  -0.226   4.526 -1.2798 -0.7658 -0.1926
   29MOL0     H 3991   3.909  -0.349   4.414  0.4726 -0.1016 -1.4889
   29MOL0     H 3992   4.094  -0.409   4.654  0.3197 -2.0601 -0.2605
   29MOL0     H 3993   4.003  -0.533   4.567  2.2601 -0.9504 -1.1904
   29MOL0     H 3994   3.900  -0.479   4.771  0.7697 -1.2619 -0.2473
   29MOL0     H 3995   3.891  -0.301   4.734  0.3810 -0.1778  0.8202
   29MOL0     H 3996   3.726  -0.348   4.555 -2.0517 -0.0674  0.9466
   29MOL0     H 3997   3.668  -0.412   4.711  1.0927 -0.5094  0.7646
   29MOL0     H 3998   3.675  -0.736   4.430  2.1993 -2.0272  1.2985
   29MOL0     H 3999   3.965  -0.100   4.333 -0.6760  4.7928 -2.3462
   29MOL0     H 4000   3.903   0.085   4.229 -1.1853 -2.7126 -0.6290
   29MOL0     H 4001   4.028   0.183   4.129  2.0222 -1.6890 -1.5534
   29MOL0     H 4002   3.930   0.071   4.055  0.0493  4.3808 -1.0220
   30MOL0     O 4003   2.857  10.630   1.585  0.3544 -0.5364  0.5885
   30MOL0     C 4004   2.910  10.674   1.476 -0.1978  0.0406 -0.1205
   30MOL0     O 4005   3.043  10.660   1.442 -0.5665 -0.3070  0.8692
   30MOL0     C 4006   3.133  10.652   1.552  0.3552  1.0432 -0.6451
   30MOL0     C 4007   3.168  10.522   1.601  0.5150 -0.4221 -0.1038
   30MOL0     C 4008   3.257  10.513   1.714  0.4482 -0.4657 -0.3636
   30MOL0     C 4009   3.285  10.624   1.795 -0.6911  0.3020 -0.0241
   30MOL0     O 4010   3.346  10.615   1.917 -0.3594 -0.2515 -0.5120
   30MOL0     C 4011   3.437  10.505   1.948 -0.2293 -0.6507 -0.4085
   30MOL0     C 4012   3.559  10.495   1.849  0.5265 -0.9685  0.7578
   30MOL0     C 4013   3.618  10.632   1.813 -0.4681 -0.7601  0.0442
   30MOL0     C 4014   3.713  10.629   1.694 -0.1215 -0.5826  0.0107
   30MOL0     C 4015   3.818  10.741   1.695  0.1758  0.0896  0.7821
   30MOL0     C 4016   3.925  10.720   1.587 -0.4089  0.9237  0.2784
   30MOL0     C 4017   4.014  10.838   1.553  0.5178  1.2630 -0.3144
   30MOL0     C 4018   4.077  10.902   1.674 -0.4388  0.3640  0.2403
   30MOL0     N 4019   4.176  10.820   1.737 -0.0728  0.4805 -0.0893
   30MOL0     C 4020   4.299  10.789   1.680 -0.3132 -0.1273 -0.2555
   30MOL0     C 4021   4.366  10.735   1.783 -0.0932 -0.0109 -0.3797
   30MOL0     C 4022   4.516  10.718   1.772 -0.0052 -0.1239 -0.1684
   30MOL0     C 4023   4.553  10.591   1.837  0.0159  0.4252 -0.9196
   30MOL0     C 4024   4.692  10.524   1.804  0.9616 -0.2208 -0.2889
   30MOL0     C 4025   4.807  10.603   1.869  0.6162  0.0125 -0.7814
   30MOL0     O 4026   4.919  10.524   1.891 -0.9136  0.2184 -0.5645
   30MOL0     C 4027   4.991  10.496   1.778  0.1372  0.0124  0.1102
   30MOL0     C 4028   5.054  10.591   1.702 -0.2024 -0.5254 -1.2101
   30MOL0     C 4029   5.121  10.571   1.585 -0.3779 -0.8292  0.1302
   30MOL0     C 4030   5.198  10.690   1.526  0.1029  0.2799 -0.4200
   30MOL0     C 4031   5.123  10.442   1.527  0.9703 -0.3164 -0.0699
   30MOL0     C 4032   5.186  10.416   1.403 -1.1454  0.0487  0.4095
   30MOL0     O 4033   5.199  10.289   1.372 -0.5129  0.7798  0.6827
   30MOL0     C 4034   5.238  10.243   1.249  0.1187 -0.2422 -0.1451
   30MOL0     C 4035   5.153  10.150   1.178 -0.4464 -0.1793  0.0155
   30MOL0     C 4036   5.178  10.125   1.037 -0.0603  0.0362  0.1435
   30MOL0     C 4037   5.287  10.183   0.966 -0.2586  0.7764 -0.2976
   30MOL0     O 4038   5.287  10.161   0.831  0.3425  0.5034 -0.1985
   30MOL0     C 4039   5.321  10.264   0.736 -0.3195  0.4030  0.3046
   30MOL0     C 4040   5.348  10.215   0.588 -0.0276  0.0585 -0.0401
   30MOL0     C 4041   5.475  10.128   0.581 -0.5136  0.2163  0.5176
   30MOL0     C 4042   5.478  10.069   0.437  0.3003  1.2218 -0.0437
   30MOL0     C 4043   5.593   9.965   0.409  1.4832 -0.3021 -0.0034
   30MOL0     C 4044   5.611   9.946   0.258  0.0307 -0.3980  0.1508
   30MOL0     C 4045   5.724   9.847   0.215 -0.8340 -0.1481  0.4216
   30MOL0     C 4046   5.713   9.824   0.061 -0.1843  0.0413  0.4195
   30MOL0    Cl 4047   5.716   9.983  -0.013  0.0671  0.5428  0.0553
   30MOL0     C 4048   5.378  10.259   1.046  0.0091 -0.0587  0.2045
   30MOL0     C 4049   5.360  10.286   1.184  0.1256  0.1971  0.7677
   30MOL0     O 4050   5.227  10.506   1.337  0.2376 -0.3526  0.1818
   30MOL0     C 4051   5.067  10.341   1.609 -0.2280 -0.2970  0.5881
   30MOL0     C 4052   5.004  10.364   1.736 -1.3494  0.0524  0.6419
   30MOL0     N 4053   4.283  10.729   1.905  0.1376  0.7566  1.2068
   30MOL0     N 4054   4.168  10.777   1.867 -1.0057 -0.6122 -0.3536
   30MOL0     C 4055   3.237  10.748   1.749 -0.6840 -0.2052  0.4709
   30MOL0     C 4056   3.166  10.767   1.625 -0.4611  1.0715 -0.0923
   30MOL0     C 4057   2.816  10.710   1.364 -0.1076 -0.0307  0.2083
   30MOL0     C 4058   2.860  10.680   1.233  0.4253  0.1243 -0.5556
   30MOL0     C 4059   2.787  10.715   1.119 -0.2731 -0.0270 -0.6078
   30MOL0     C 4060   2.660  10.770   1.142 -0.8282 -0.1686 -0.0314
   30MOL0     O 4061   2.569  10.796   1.035  0.0082  0.0499 -0.7591
   30MOL0     C 4062   2.603  10.756   0.905 -0.4662 -0.2112  0.7487
   30MOL0     C 4063   2.578  10.601   0.886  0.8927 -0.2740  0.2064
   30MOL0     C 4064   2.589  10.577   0.733 -0.6696  0.5389  0.8946
   30MOL0     C 4065   2.574  10.426   0.702  0.1599  0.2834 -0.8423
   30MOL0     C 4066   2.439  10.390   0.663  0.2423 -0.1649  0.7273
   30MOL0     C 4067   2.336  10.351   0.612 -0.5936  0.5182  0.2793
   30MOL0     C 4068   2.614  10.784   1.273 -0.3244 -0.3345  0.3345
   30MOL0     C 4069   2.687  10.763   1.383 -0.4440 -0.5279 -0.4092
   30MOL0     C 4070   2.630  10.811   1.517 -0.1756  0.1498 -0.0949
   30MOL0     H 4071   3.145  10.439   1.535  1.0352  0.8412 -1.9838
   30MOL0     H 4072   3.293  10.415   1.743  2.8133  1.2828  3.4786
   30MOL0     H 4073   3.380  10.412   1.947 -2.0149  0.3608  0.6435
   30MOL0     H 4074   3.486  10.523   2.044 -1.1677  1.4763 -0.2772
   30MOL0     H 4075   3.627  10.425   1.898 -1.4246 -2.1074  1.9778
   30MOL0     H 4076   3.524  10.443   1.759 -3.3394 -1.0649  2.1215
   30MOL0     H 4077   3.543  10.707   1.787 -0.4037 -0.7480 -0.1062
   30MOL0     H 4078   3.673  10.671   1.899  1.3404 -2.6784 -0.1673
   30MOL0     H 4079   3.780  10.543   1.708 -0.0972 -0.1453  3.3180
   30MOL0     H 4080   3.662  10.616   1.598 -2.8189  1.1570  1.1125
   30MOL0     H 4081   3.858  10.740   1.796 -1.2143 -0.7089  1.3595
   30MOL0     H 4082   3.766  10.836   1.681 -2.1636 -1.1042  0.8983
   30MOL0     H 4083   3.993  10.641   1.617 -1.4959  0.7549  2.4992
   30MOL0     H 4084   3.891  10.677   1.492 -0.1296  0.5367  0.3538
   30MOL0     H 4085   3.953  10.920   1.513  3.1284  2.0069 -3.2162
   30MOL0     H 4086   4.083  10.802   1.476  2.6282  2.3688  0.9669
   30MOL0     H 4087   4.134  10.985   1.631  1.0734 -1.5104 -1.5908
   30MOL0     H 4088   4.003  10.941   1.744  1.0699  2.6064  0.6911
   30MOL0     H 4089   4.343  10.817   1.585  1.6717  0.2459  0.7291
   30MOL0     H 4090   4.578  10.798   1.815  3.9564 -3.3850  0.7454
   30MOL0     H 4091   4.540  10.699   1.667 -0.8003 -5.2746  0.3278
   30MOL0     H 4092   4.566  10.613   1.944  3.5423  1.1766 -1.3797
   30MOL0     H 4093   4.478  10.511   1.837  2.3672 -2.0428  2.0390
   30MOL0     H 4094   4.694  10.421   1.841  1.3200  0.1444  0.7271
   30MOL0     H 4095   4.705  10.531   1.695 -1.0783  1.8206 -0.4736
   30MOL0     H 4096   4.823  10.694   1.810 -4.0587  1.0102 -0.9012
   30MOL0     H 4097   4.762  10.628   1.965  0.4978  0.9008 -1.0576
   30MOL0     H 4098   5.058  10.691   1.742  1.7238 -0.4978 -1.4035
   30MOL0     H 4099   5.186  10.787   1.575  1.4354  0.1117  0.2804
   30MOL0     H 4100   5.156  10.701   1.426 -4.5223 -0.4023  1.1703
   30MOL0     H 4101   5.306  10.678   1.532  0.1432  0.8975  0.1053
   30MOL0     H 4102   5.057  10.113   1.213 -0.2353 -1.3394 -0.5575
   30MOL0     H 4103   5.116  10.048   0.992  0.7107 -0.8695  0.5774
   30MOL0     H 4104   5.243  10.340   0.734 -0.1458  0.5688 -0.8771
   30MOL0     H 4105   5.409  10.316   0.775  0.2650 -1.5431  1.7640
   30MOL0     H 4106   5.263  10.162   0.543 -1.2950  1.4257  0.6667
   30MOL0     H 4107   5.365  10.300   0.522 -1.9351 -0.3788 -1.1987
   30MOL0     H 4108   5.475  10.047   0.654  3.9128  0.7807  1.4460
   30MOL0     H 4109   5.565  10.180   0.613 -0.1581  0.3202 -0.5901
   30MOL0     H 4110   5.474  10.148   0.362  4.0873  0.0388 -1.7618
   30MOL0     H 4111   5.380  10.021   0.426  0.3662  0.6282  1.6231
   30MOL0     H 4112   5.679  10.008   0.461  0.1396  0.2167  1.8920
   30MOL0     H 4113   5.573   9.872   0.462 -0.0793 -0.1031 -0.1756
   30MOL0     H 4114   5.623  10.048   0.222  0.5884 -1.2153 -2.1338
   30MOL0     H 4115   5.521   9.902   0.214  3.6506 -5.8878 -3.0320
   30MOL0     H 4116   5.707   9.752   0.266 -2.6978  1.2640  2.6333
   30MOL0     H 4117   5.828   9.875   0.234  0.2118 -3.3288  0.0245
   30MOL0     H 4118   5.613   9.798   0.024 -0.2514  1.8782 -0.7998
   30MOL0     H 4119   5.764   9.735   0.023 -0.7896 -0.5534  0.9585
   30MOL0     H 4120   5.468  10.291   0.994 -1.3927  3.9797 -0.0514
   30MOL0     H 4121   5.420  10.371   1.214  3.3834 -1.7169  0.1446
   30MOL0     H 4122   5.068  10.235   1.584  0.7047 -0.0727 -0.4339
   30MOL0     H 4123   4.956  10.283   1.789 -0.8775 -2.2667 -2.2157
   30MOL0     H 4124   3.275  10.833   1.806 -0.1665  0.4896 -0.8705
   30MOL0     H 4125   3.127  10.862   1.590 -2.4076  0.7706  1.1258
   30MOL0     H 4126   2.964  10.656   1.214  0.5695  1.3036 -1.3996
   30MOL0     H 4127   2.839  10.687   1.027  1.7868  0.0336  0.4662
   30MOL0     H 4128   2.532  10.815   0.846 -0.4334 -1.0287 -0.1314
   30MOL0     H 4129   2.705  10.782   0.875 -0.4602 -1.0764 -0.0152
   30MOL0     H 4130   2.481  10.566   0.922  0.8126  0.1240  0.3806
   30MOL0     H 4131   2.649  10.531   0.931  0.0359 -0.3820  1.4572
   30MOL0     H 4132   2.509  10.628   0.678 -0.3217 -1.7767 -2.0337
   30MOL0     H 4133   2.689  10.605   0.700 -0.7472  1.5291  1.4609
   30MOL0     H 4134   2.609  10.366   0.786 -1.7538 -0.0410 -0.2162
   30MOL0     H 4135   2.646  10.399   0.624  1.6329  2.3949 -0.2660
   30MOL0     H 4136   2.241  10.313   0.579  0.3849 -2.5267  0.6275
   30MOL0     H 4137   2.509  10.804   1.289 -0.3021 -1.2357  1.8898
   30MOL0     H 4138   2.547  10.754   1.561 -1.0586  1.3496 -0.1359
   30MOL0     H 4139   2.713  10.829   1.585 -0.4318  2.3912 -0.2753
   30MOL0     H 4140   2.581  10.908   1.501 -2.3719 -1.3934 -3.8978
   31MOL0     O 4141   0.152   7.886   2.645 -0.2440 -1.0214  0.1678
   31MOL0     C 4142   0.208   7.995   2.623  0.3999 -0.1546 -0.1434
   31MOL0     O 4143   0.160   8.112   2.668  0.6895  0.4232  0.1600
   31MOL0     C 4144   0.053   8.109   2.755  0.7410  0.6865 -0.1470
   31MOL0     C 4145  -0.081   8.120   2.726  0.1317 -0.1208 -1.0786
   31MOL0     C 4146  -0.174   8.123   2.835  0.2352 -0.8003  0.2131
   31MOL0     C 4147  -0.132   8.122   2.973 -0.9889 -0.4648 -0.1456
   31MOL0     O 4148  -0.212   8.141   3.084  1.1527  0.6726 -0.0685
   31MOL0     C 4149  -0.359   8.163   3.074 -0.1312  0.0534  0.2409
   31MOL0     C 4150  -0.435   8.137   3.213 -0.0144  0.8790  0.3299
   31MOL0     C 4151  -0.424   8.231   3.318  0.7961  0.2374 -0.7904
   31MOL0     C 4152  -0.422   8.388   3.294  0.1374  0.1079 -0.4444
   31MOL0     C 4153  -0.319   8.469   3.353  0.0427  0.2492  0.5411
   31MOL0     C 4154  -0.344   8.624   3.328 -0.4238  0.4716 -0.1118
   31MOL0     C 4155  -0.224   8.712   3.384  0.0648  0.4290 -0.1008
   31MOL0     C 4156  -0.112   8.742   3.295  0.5390  0.2992  0.1399
   31MOL0     N 4157   0.015   8.784   3.355 -0.0877  0.2504 -1.2130
   31MOL0     C 4158   0.061   8.749   3.483 -0.7145 -0.5858 -0.6508
   31MOL0     C 4159   0.191   8.807   3.494  1.1476 -0.2347  0.4208
   31MOL0     C 4160   0.267   8.791   3.616  0.2181  0.7228  0.8222
   31MOL0     C 4161   0.415   8.753   3.574 -0.0457  0.4343  0.1663
   31MOL0     C 4162   0.426   8.630   3.493 -0.2562 -0.7195 -0.0255
   31MOL0     C 4163   0.578   8.598   3.461  0.6912 -0.2399  0.2159
   31MOL0     O 4164   0.599   8.481   3.378 -0.3044 -0.4860  0.8396
   31MOL0     C 4165   0.551   8.364   3.428 -0.0289 -0.3993  1.0003
   31MOL0     C 4166   0.543   8.325   3.566 -0.2666  0.0928  0.5261
   31MOL0     C 4167   0.484   8.206   3.604 -0.4389 -0.3292 -0.1195
   31MOL0     C 4168   0.451   8.199   3.753 -0.6390 -0.6166  0.5216
   31MOL0     C 4169   0.458   8.108   3.503 -0.4106 -0.1093  0.1517
   31MOL0     C 4170   0.414   7.974   3.542 -0.0259  0.6402  0.2663
   31MOL0     O 4171   0.333   7.953   3.650  0.0607  0.9552 -0.2561
   31MOL0     C 4172   0.303   7.823   3.677  0.3834 -0.2236 -0.6240
   31MOL0     C 4173   0.246   7.741   3.585  0.2331  0.3474  0.1286
   31MOL0     C 4174   0.234   7.607   3.614  0.2731  0.4171  0.2347
   31MOL0     C 4175   0.261   7.557   3.737  0.0913 -0.1071 -0.6091
   31MOL0     O 4176   0.235   7.426   3.781 -0.0924  0.1804  0.8516
   31MOL0     C 4177   0.179   7.338   3.682  0.2743  0.2088 -0.7077
   31MOL0     C 4178   0.191   7.198   3.735  0.1593  0.4223 -0.2930
   31MOL0     C 4179   0.336   7.150   3.718  0.1943 -0.3760 -0.1949
   31MOL0     C 4180   0.337   6.997   3.736  0.2072  0.0731  0.3423
   31MOL0     C 4181   0.476   6.934   3.695  0.3046 -0.5350 -0.1175
   31MOL0     C 4182   0.514   6.801   3.756  0.1841  0.6694 -0.1539
   31MOL0     C 4183   0.464   6.673   3.679  0.7148 -0.8406 -0.3824
   31MOL0     C 4184   0.505   6.536   3.734  0.3052 -0.3639 -0.1379
   31MOL0    Cl 4185   0.516   6.526   3.923 -0.7175  1.0102  0.0336
   31MOL0     C 4186   0.321   7.639   3.830  0.7943 -0.8473  0.6407
   31MOL0     C 4187   0.354   7.774   3.798  0.7638  0.7428  0.9673
   31MOL0     O 4188   0.476   7.884   3.477  0.1917  0.4476 -0.2866
   31MOL0     C 4189   0.492   8.138   3.368  0.9225  0.1712 -0.8751
   31MOL0     C 4190   0.541   8.262   3.334 -0.0856 -0.1277 -0.6203
   31MOL0     N 4191   0.212   8.876   3.376 -0.8376  0.4202 -0.6868
   31MOL0     N 4192   0.108   8.860   3.297  0.2860 -0.0528 -0.3617
   31MOL0     C 4193   0.008   8.103   2.990  0.8419 -0.0350 -0.4393
   31MOL0     C 4194   0.099   8.108   2.881  0.7016 -0.1905 -0.7911
   31MOL0     C 4195   0.325   8.002   2.532  0.2716 -0.9886 -1.0787
   31MOL0     C 4196   0.387   8.129   2.518  0.4550  0.5189 -0.4351
   31MOL0     C 4197   0.506   8.142   2.442 -0.7083 -0.1408  0.9013
   31MOL0     C 4198   0.568   8.035   2.372 -0.2787  0.4321 -0.7842
   31MOL0     O 4199   0.688   8.036   2.303 -0.1086 -0.3454 -0.4815
   31MOL0     C 4200   0.789   8.150   2.322  0.1647  0.2580 -0.1547
   31MOL0     C 4201   0.862   8.121   2.450 -0.2722  0.7620  0.6908
   31MOL0     C 4202   0.968   8.238   2.470  0.5523 -0.4214  0.8321
   31MOL0     C 4203   1.092   8.242   2.376  0.3729  0.8537  0.1154
   31MOL0     C 4204   1.164   8.370   2.371  0.1959 -0.3186  0.1294
   31MOL0     C 4205   1.220   8.474   2.339  0.6619 -0.4945  0.8747
   31MOL0     C 4206   0.496   7.911   2.382 -0.3064 -0.1895  0.3464
   31MOL0     C 4207   0.385   7.899   2.465  0.1921 -0.0855  0.8680
   31MOL0     C 4208   0.334   7.753   2.479 -0.7143 -0.6656 -0.4678
   31MOL0     H 4209  -0.103   8.129   2.620  2.4665 -1.2325 -1.7380
   31MOL0     H 4210  -0.278   8.124   2.804  0.3316  0.0494 -0.0875
   31MOL0     H 4211  -0.404   8.093   3.003 -0.2287 -0.4208  0.7679
   31MOL0     H 4212  -0.375   8.257   3.019  2.6304 -0.4889 -1.7341
   31MOL0     H 4213  -0.539   8.133   3.180 -0.0336  1.3421  0.3317
   31MOL0     H 4214  -0.395   8.040   3.244 -0.4194 -0.1721 -2.2026
   31MOL0     H 4215  -0.496   8.213   3.397 -1.5701  1.1242 -2.6273
   31MOL0     H 4216  -0.327   8.213   3.367 -0.4571 -1.8812  1.1090
   31MOL0     H 4217  -0.402   8.389   3.186  2.1783 -0.4383 -0.1181
   31MOL0     H 4218  -0.515   8.437   3.323 -0.1411  0.2909 -1.6041
   31MOL0     H 4219  -0.221   8.446   3.310 -0.5865  0.2875 -0.9727
   31MOL0     H 4220  -0.313   8.452   3.461  2.0609 -0.5794  0.3446
   31MOL0     H 4221  -0.348   8.654   3.223 -0.6675  1.9881  0.3151
   31MOL0     H 4222  -0.429   8.661   3.385 -1.5103  3.3217 -3.2845
   31MOL0     H 4223  -0.193   8.665   3.478 -1.8807 -3.4471 -1.1500
   31MOL0     H 4224  -0.264   8.811   3.408  0.3322  0.8128 -1.1857
   31MOL0     H 4225  -0.094   8.644   3.249 -3.1071 -0.9184  0.9956
   31MOL0     H 4226  -0.129   8.813   3.214  1.6108  1.7639  1.1318
   31MOL0     H 4227   0.008   8.695   3.560 -1.7513  3.5301  1.8085
   31MOL0     H 4228   0.219   8.717   3.679  2.7848  0.3947  2.5324
   31MOL0     H 4229   0.261   8.881   3.678  1.7074  1.1487  0.3913
   31MOL0     H 4230   0.454   8.833   3.510  2.1587 -1.4572 -0.9948
   31MOL0     H 4231   0.475   8.749   3.665 -1.6333  2.4103  1.3700
   31MOL0     H 4232   0.370   8.553   3.548  1.3522 -0.6208  1.8196
   31MOL0     H 4233   0.372   8.645   3.399 -0.9283 -1.2243  0.2616
   31MOL0     H 4234   0.630   8.681   3.413 -1.5850  1.1226 -0.0049
   31MOL0     H 4235   0.631   8.580   3.555 -3.1836 -3.2980  2.1108
   31MOL0     H 4236   0.584   8.379   3.651  1.0188 -1.4490  0.9365
   31MOL0     H 4237   0.518   8.125   3.799 -0.4457 -2.1278 -1.9814
   31MOL0     H 4238   0.346   8.172   3.765  0.0135 -3.4893  0.5444
   31MOL0     H 4239   0.471   8.292   3.806 -0.6470  0.8243 -1.8849
   31MOL0     H 4240   0.199   7.774   3.493  1.4855 -0.7983 -0.9527
   31MOL0     H 4241   0.183   7.547   3.539 -2.2480  3.8816 -1.0375
   31MOL0     H 4242   0.074   7.360   3.658 -0.0622 -0.4752  0.1136
   31MOL0     H 4243   0.235   7.336   3.588 -3.3427 -0.1172 -3.0542
   31MOL0     H 4244   0.160   7.195   3.840  0.2746 -0.3086 -0.2756
   31MOL0     H 4245   0.119   7.135   3.683  0.3023 -0.5008  0.5927
   31MOL0     H 4246   0.403   7.193   3.794  1.0023  1.7737 -2.0315
   31MOL0     H 4247   0.379   7.164   3.619  2.6167 -0.6257  0.7495
   31MOL0     H 4248   0.264   6.948   3.670  0.9959 -0.6515 -0.0111
   31MOL0     H 4249   0.315   6.964   3.838 -0.6363 -2.5557 -0.5983
   31MOL0     H 4250   0.488   6.943   3.587 -3.0627 -0.5515 -0.6286
   31MOL0     H 4251   0.549   7.003   3.738 -0.6896  0.9504 -0.7674
   31MOL0     H 4252   0.490   6.798   3.862 -2.7009 -0.2004 -0.7382
   31MOL0     H 4253   0.621   6.804   3.735  0.1926  1.2089 -0.0284
   31MOL0     H 4254   0.503   6.675   3.577  0.9041 -0.5788 -0.3077
   31MOL0     H 4255   0.360   6.695   3.653  0.7106  0.4225  0.5951
   31MOL0     H 4256   0.603   6.512   3.693 -1.0598 -3.8547 -1.8344
   31MOL0     H 4257   0.421   6.472   3.703 -1.0578  1.9595 -1.5745
   31MOL0     H 4258   0.343   7.592   3.926 -0.7593  0.1461  1.5250
   31MOL0     H 4259   0.411   7.844   3.858  2.7484 -0.5715  0.7456
   31MOL0     H 4260   0.473   8.059   3.295 -1.3100 -0.8301  0.6501
   31MOL0     H 4261   0.558   8.271   3.227  2.6655 -1.2006 -0.3321
   31MOL0     H 4262   0.036   8.115   3.094 -0.7094 -1.3814  0.1819
   31MOL0     H 4263   0.204   8.124   2.900  0.3399  2.8482 -0.8796
   31MOL0     H 4264   0.354   8.217   2.572  2.5672  1.2699 -0.2790
   31MOL0     H 4265   0.536   8.247   2.443 -1.2705  0.0767 -1.3476
   31MOL0     H 4266   0.857   8.153   2.236  3.5100  1.4976  2.3370
   31MOL0     H 4267   0.747   8.250   2.336  2.5137  1.0907  1.4369
   31MOL0     H 4268   0.905   8.020   2.447  1.8963  1.6437  0.1577
   31MOL0     H 4269   0.793   8.119   2.534 -3.6230  3.7474 -1.7185
   31MOL0     H 4270   0.914   8.334   2.462  1.8005  0.1488 -1.6742
   31MOL0     H 4271   1.007   8.234   2.572 -0.5527 -1.1294  1.2457
   31MOL0     H 4272   1.054   8.221   2.276  2.2232 -2.0508 -0.1103
   31MOL0     H 4273   1.165   8.167   2.408  0.8701  0.4135 -1.9127
   31MOL0     H 4274   1.245   8.576   2.322 -1.4643 -0.0407  0.1801
   31MOL0     H 4275   0.546   7.826   2.336 -3.3761  0.1679 -4.4142
   31MOL0     H 4276   0.225   7.748   2.470 -0.6982 -0.5962 -0.7046
   31MOL0     H 4277   0.382   7.693   2.401  0.6993  1.0785 -0.9903
   31MOL0     H 4278   0.355   7.717   2.580 -1.9804 -0.3398 -0.0636
   32MOL0     O 4279   4.431   0.584   1.897 -0.3089 -0.2433  0.0081
   32MOL0     C 4280   4.373   0.651   1.976  0.0155  0.2175 -0.5198
   32MOL0     O 4281   4.419   0.672   2.104 -0.7115 -0.0998 -0.6895
   32MOL0     C 4282   4.503   0.574   2.164 -0.2280 -0.8459 -0.2456
   32MOL0     C 4283   4.576   0.629   2.276  0.6561  0.1188  0.1870
   32MOL0     C 4284   4.657   0.540   2.352  0.1909 -1.2336  0.1297
   32MOL0     C 4285   4.677   0.415   2.305  0.2521 -0.6205  0.2025
   32MOL0     O 4286   4.759   0.329   2.377  0.6906  0.8246 -0.0758
   32MOL0     C 4287   4.890   0.327   2.330 -0.7236  0.3638  0.7026
   32MOL0     C 4288   4.988   0.250   2.414 -0.3552  0.5546  0.0518
   32MOL0     C 4289   5.126   0.249   2.352  0.4994  0.0376 -0.6740
   32MOL0     C 4290   5.223   0.191   2.451 -0.1328 -0.3745  0.5392
   32MOL0     C 4291   5.367   0.179   2.397 -0.2040  0.2869  0.2576
   32MOL0     C 4292   5.440   0.302   2.336  0.0453 -0.1636  0.3163
   32MOL0     C 4293   5.461   0.407   2.444 -0.5773 -1.0440 -0.4913
   32MOL0     C 4294   5.455   0.552   2.390  0.4540 -0.4902  0.0426
   32MOL0     N 4295   5.562   0.587   2.291 -0.5755  0.0344  0.8349
   32MOL0     C 4296   5.577   0.555   2.161  1.1140 -0.5765 -0.0805
   32MOL0     C 4297   5.693   0.599   2.124 -0.4589 -0.0081 -0.1068
   32MOL0     C 4298   5.746   0.603   1.980  0.0600  0.3277 -0.5623
   32MOL0     C 4299   5.823   0.469   1.969 -0.6140  0.3750  0.4925
   32MOL0     C 4300   5.964   0.466   2.038  0.4414  0.1786 -0.3801
   32MOL0     C 4301   6.033   0.338   2.004 -0.5734  0.2477  0.0730
   32MOL0     O 4302   6.056   0.325   1.856 -0.0135 -0.1356  0.1269
   32MOL0     C 4303   6.079   0.201   1.807 -0.3493 -0.1961 -0.4901
   32MOL0     C 4304   6.038   0.176   1.680  0.0671 -0.0733  0.9801
   32MOL0     C 4305   6.067   0.053   1.615 -0.5608 -0.3588 -0.3566
   32MOL0     C 4306   6.013   0.036   1.475  0.7556 -0.4956  0.3625
   32MOL0     C 4307   6.136  -0.045   1.684  0.3947  0.7041 -0.6602
   32MOL0     C 4308   6.162  -0.175   1.626 -0.1994 -0.0168 -0.1316
   32MOL0     O 4309   6.235  -0.182   1.505 -0.7923 -0.1351 -0.0378
   32MOL0     C 4310   6.287  -0.301   1.455 -0.3864 -0.2197  0.6068
   32MOL0     C 4311   6.271  -0.430   1.511 -0.1976  1.4982  0.7042
   32MOL0     C 4312   6.343  -0.543   1.456 -0.5982 -0.7888  0.1185
   32MOL0     C 4313   6.431  -0.526   1.348 -0.2307  0.7377 -0.1852
   32MOL0     O 4314   6.511  -0.618   1.290  0.2974  0.1300  0.5861
   32MOL0     C 4315   6.540  -0.734   1.371  0.9755  0.4265  0.0170
   32MOL0     C 4316   6.656  -0.796   1.289 -0.4296 -0.4724 -0.1635
   32MOL0     C 4317   6.664  -0.941   1.339  0.1752  0.1267 -0.0329
   32MOL0     C 4318   6.789  -1.013   1.290  0.6133 -0.0959  0.2090
   32MOL0     C 4319   6.813  -1.145   1.359 -0.6324 -0.2586 -0.1761
   32MOL0     C 4320   6.695  -1.241   1.382 -0.5341 -1.2516 -0.5505
   32MOL0     C 4321   6.643  -1.304   1.253 -0.2430  0.0163 -0.3944
   32MOL0     C 4322   6.601  -1.454   1.255  0.2913 -0.2410  0.2002
   32MOL0    Cl 4323   6.760  -1.520   1.234  0.0832 -0.2172 -0.1110
   32MOL0     C 4324   6.443  -0.399   1.302  0.1153 -0.2386  0.8704
   32MOL0     C 4325   6.369  -0.295   1.351  0.4638 -0.7665  0.5706
   32MOL0     O 4326   6.104  -0.267   1.685 -0.3106 -0.4250  0.1674
   32MOL0     C 4327   6.175  -0.019   1.816  0.8723  0.5894 -0.4836
   32MOL0     C 4328   6.148   0.105   1.875  0.0955 -0.4743 -0.8869
   32MOL0     N 4329   5.758   0.658   2.230 -0.1471 -1.0518  0.4231
   32MOL0     N 4330   5.681   0.641   2.334 -0.3040  0.0405  0.5603
   32MOL0     C 4331   4.596   0.361   2.202  0.3714  0.0608  0.2237
   32MOL0     C 4332   4.509   0.442   2.130  0.7567  1.0483 -0.4605
   32MOL0     C 4333   4.243   0.718   1.933 -0.3995 -0.9166 -0.0022
   32MOL0     C 4334   4.173   0.781   2.039  0.7688 -0.8778  0.1405
   32MOL0     C 4335   4.049   0.842   2.020  0.5888 -0.1352  0.2231
   32MOL0     C 4336   3.997   0.855   1.889  0.0894 -0.5444 -0.5393
   32MOL0     O 4337   3.880   0.907   1.844 -0.1748  0.6737 -0.2152
   32MOL0     C 4338   3.777   0.937   1.945  0.3946 -0.2385  0.4843
   32MOL0     C 4339   3.725   0.805   2.002  0.1262  0.6779  0.1058
   32MOL0     C 4340   3.601   0.824   2.093  0.3627  0.2756 -0.3300
   32MOL0     C 4341   3.533   0.701   2.137 -0.1580  0.0860 -0.4449
   32MOL0     C 4342   3.445   0.656   2.026  0.0805  0.1929  0.1116
   32MOL0     C 4343   3.382   0.613   1.932  0.7555  0.6387 -0.5392
   32MOL0     C 4344   4.075   0.802   1.786  0.9547  0.3320  0.2442
   32MOL0     C 4345   4.192   0.723   1.801 -0.3975  0.8740  0.1390
   32MOL0     C 4346   4.255   0.646   1.685  0.2002 -0.2694  0.0968
   32MOL0     H 4347   4.571   0.733   2.309 -0.9144 -0.5031  2.1124
   32MOL0     H 4348   4.685   0.582   2.448 -2.0052  1.9907 -0.4477
   32MOL0     H 4349   4.929   0.429   2.323 -4.8480  2.1210  0.6823
   32MOL0     H 4350   4.884   0.293   2.226 -1.7374 -0.7070  1.1002
   32MOL0     H 4351   4.995   0.275   2.521  2.8031 -0.3192  0.1397
   32MOL0     H 4352   4.950   0.148   2.420  1.1724 -0.0949 -0.7715
   32MOL0     H 4353   5.129   0.198   2.255  1.3587  0.6554 -0.9758
   32MOL0     H 4354   5.150   0.355   2.337 -1.7549  0.6592 -0.2652
   32MOL0     H 4355   5.220   0.258   2.537  1.6264  0.6441 -0.1378
   32MOL0     H 4356   5.194   0.087   2.467 -1.6382 -0.2006 -0.7950
   32MOL0     H 4357   5.379   0.098   2.324  2.9341  1.8006 -1.1118
   32MOL0     H 4358   5.427   0.134   2.478  0.7189 -2.3479 -1.7331
   32MOL0     H 4359   5.535   0.282   2.286  1.5075  1.1288  2.4245
   32MOL0     H 4360   5.366   0.330   2.260  0.2242 -1.3609 -0.3347
   32MOL0     H 4361   5.549   0.389   2.505 -0.8756 -2.2562 -0.3955
   32MOL0     H 4362   5.374   0.401   2.510 -1.0629  0.3793 -0.9447
   32MOL0     H 4363   5.357   0.575   2.348 -0.0608  1.4854  2.1094
   32MOL0     H 4364   5.466   0.626   2.469  1.1817 -0.2999 -0.2299
   32MOL0     H 4365   5.499   0.515   2.097 -2.1491  1.6501  2.1901
   32MOL0     H 4366   5.816   0.687   1.969 -2.0603  2.1661 -0.8248
   32MOL0     H 4367   5.658   0.601   1.915  0.4638  0.3850 -1.1065
   32MOL0     H 4368   5.756   0.390   2.003 -0.1539 -0.2428  0.0145
   32MOL0     H 4369   5.832   0.445   1.862  3.2164  1.0197  0.5269
   32MOL0     H 4370   6.027   0.542   1.992  1.5861 -0.3715  0.2367
   32MOL0     H 4371   5.943   0.485   2.143  1.1847 -0.4919 -0.1051
   32MOL0     H 4372   6.125   0.330   2.063 -0.4218  2.5060  0.2190
   32MOL0     H 4373   5.960   0.257   2.018 -0.2310 -0.5544 -2.2643
   32MOL0     H 4374   5.983   0.250   1.623 -0.3578  0.1252  1.6346
   32MOL0     H 4375   6.061   0.109   1.409 -0.6661 -0.2508 -0.4315
   32MOL0     H 4376   5.907   0.060   1.469  0.8991 -0.1668 -2.2434
   32MOL0     H 4377   6.011  -0.066   1.436 -1.5903 -0.8920  1.3557
   32MOL0     H 4378   6.194  -0.443   1.586  0.8079  0.5826  1.6195
   32MOL0     H 4379   6.335  -0.645   1.492 -2.6028 -1.6888 -2.5670
   32MOL0     H 4380   6.569  -0.711   1.474 -1.9258 -1.1720  1.3238
   32MOL0     H 4381   6.451  -0.795   1.390  0.6347  1.2502  1.1777
   32MOL0     H 4382   6.635  -0.796   1.181 -1.8685 -4.4700 -0.0771
   32MOL0     H 4383   6.746  -0.736   1.304  0.3598 -1.8451  0.7933
   32MOL0     H 4384   6.573  -0.990   1.300 -1.7009  3.0175  0.4041
   32MOL0     H 4385   6.669  -0.941   1.448 -0.9568 -0.0461  0.0390
   32MOL0     H 4386   6.875  -0.949   1.315 -1.0044  1.7620  1.3339
   32MOL0     H 4387   6.793  -1.030   1.182 -1.1040 -2.0740  0.3947
   32MOL0     H 4388   6.894  -1.201   1.311  0.3985  0.5527  0.5433
   32MOL0     H 4389   6.849  -1.111   1.457 -0.4636  1.1060 -0.6822
   32MOL0     H 4390   6.610  -1.178   1.412  0.6702  1.5843 -2.6023
   32MOL0     H 4391   6.718  -1.312   1.462  1.4230 -1.6039 -1.3701
   32MOL0     H 4392   6.717  -1.285   1.174  0.2294 -0.2255 -0.0163
   32MOL0     H 4393   6.556  -1.244   1.225 -1.8073 -1.4233  1.1041
   32MOL0     H 4394   6.536  -1.467   1.169  0.2165  2.1964 -0.2003
   32MOL0     H 4395   6.556  -1.479   1.352 -0.5264 -2.7488 -0.7696
   32MOL0     H 4396   6.508  -0.378   1.218 -1.1577  1.8783  0.3404
   32MOL0     H 4397   6.380  -0.198   1.302  0.4788 -0.4008  1.2877
   32MOL0     H 4398   6.215  -0.098   1.879 -1.8616 -0.2461  0.3558
   32MOL0     H 4399   6.185   0.112   1.977 -0.8342 -0.8138 -0.5120
   32MOL0     H 4400   4.584   0.258   2.171 -2.2739  1.0717 -2.5899
   32MOL0     H 4401   4.451   0.381   2.062  1.6397 -2.0110  1.3301
   32MOL0     H 4402   4.205   0.769   2.142  1.5090 -0.7437 -0.0701
   32MOL0     H 4403   3.993   0.880   2.106 -3.8052  0.4476 -2.5657
   32MOL0     H 4404   3.826   0.997   2.021  1.3369  4.0377 -3.0650
   32MOL0     H 4405   3.698   0.992   1.892  1.1508  0.1446 -0.2754
   32MOL0     H 4406   3.808   0.759   2.056 -0.1477  0.1129  0.0465
   32MOL0     H 4407   3.690   0.734   1.928  4.6419 -2.5466  0.6840
   32MOL0     H 4408   3.642   0.881   2.178  3.0866  1.4179 -2.2335
   32MOL0     H 4409   3.524   0.897   2.067  0.1863  1.2728  2.5529
   32MOL0     H 4410   3.475   0.722   2.227  0.9651  0.8180  0.1272
   32MOL0     H 4411   3.606   0.619   2.144  1.1933  0.9952 -2.7899
   32MOL0     H 4412   3.323   0.600   1.843 -1.5420  0.3650  0.9260
   32MOL0     H 4413   4.032   0.816   1.687 -1.5080  2.3332  1.4726
   32MOL0     H 4414   4.198   0.663   1.593 -2.2463  0.5715  1.6650
   32MOL0     H 4415   4.349   0.693   1.653 -0.5276  1.6352  0.6297
   32MOL0     H 4416   4.272   0.539   1.703 -0.9950 -0.9276 -2.1595
   33MOL0     O 4417   7.242  11.346   3.942 -0.0311  0.2583 -0.1343
   33MOL0     C 4418   7.288  11.390   3.844 -0.1536 -0.6237 -0.3637
   33MOL0     O 4419   7.227  11.491   3.773 -0.6918 -0.0893 -0.2512
   33MOL0     C 4420   7.087  11.504   3.791  0.2488  0.5354  0.6059
   33MOL0     C 4421   6.999  11.467   3.679 -0.5303  0.9484  0.3848
   33MOL0     C 4422   6.861  11.477   3.698 -0.0490 -0.3975  0.3262
   33MOL0     C 4423   6.811  11.535   3.814 -0.2589  0.3689 -0.5894
   33MOL0     O 4424   6.673  11.543   3.822  0.5812 -0.3150  0.6465
   33MOL0     C 4425   6.601  11.416   3.827 -0.1056 -0.7387  0.6918
   33MOL0     C 4426   6.587  11.366   3.974  0.0885  0.4060 -0.4428
   33MOL0     C 4427   6.511  11.459   4.066 -0.1815  0.5935  0.2772
   33MOL0     C 4428   6.555  11.440   4.209  0.1352 -0.8535 -0.2636
   33MOL0     C 4429   6.470  11.507   4.312  0.2671 -0.8518 -0.1289
   33MOL0     C 4430   6.365  11.409   4.373 -0.2265  0.1769  1.3364
   33MOL0     C 4431   6.246  11.482   4.431 -0.0692 -0.7513  0.2682
   33MOL0     C 4432   6.151  11.534   4.315  0.4562  0.7862 -0.2192
   33MOL0     N 4433   6.030  11.573   4.383  0.6482 -0.1085  0.6218
   33MOL0     C 4434   6.029  11.661   4.485  0.2303 -0.2819 -0.5850
   33MOL0     C 4435   5.896  11.686   4.507 -0.2559  0.7124  1.0137
   33MOL0     C 4436   5.832  11.776   4.609 -0.1852 -0.7329 -1.2391
   33MOL0     C 4437   5.799  11.723   4.752 -0.0234 -0.1179  0.1201
   33MOL0     C 4438   5.920  11.665   4.840 -0.0217  0.2307  0.4518
   33MOL0     C 4439   6.033  11.762   4.858  0.9190  0.0639  0.1509
   33MOL0     O 4440   6.125  11.770   4.754 -0.3807  0.6797  0.5626
   33MOL0     C 4441   6.223  11.865   4.751 -0.5262 -0.2594  0.0905
   33MOL0     C 4442   6.301  11.882   4.635 -0.5100  0.3891 -0.1474
   33MOL0     C 4443   6.406  11.972   4.624  0.3563  0.3844 -0.3145
   33MOL0     C 4444   6.471  11.979   4.489 -0.4836  0.0548 -0.6643
   33MOL0     C 4445   6.437  12.060   4.733  0.3253  0.4386  1.1729
   33MOL0     C 4446   6.528  12.178   4.707 -0.1230 -0.2697  0.0624
   33MOL0     O 4447   6.499  12.292   4.783 -0.4914 -0.1166 -0.3133
   33MOL0     C 4448   6.580  12.401   4.755  0.6996  0.7891  0.2188
   33MOL0     C 4449   6.666  12.443   4.849  0.2994 -0.7235 -0.2309
   33MOL0     C 4450   6.759  12.540   4.813 -0.0131  0.6423 -0.2255
   33MOL0     C 4451   6.754  12.622   4.698 -0.3069  0.8288  0.3379
   33MOL0     O 4452   6.838  12.728   4.672  0.1449  0.3898 -0.0624
   33MOL0     C 4453   6.973  12.672   4.655 -0.0763 -0.2390 -0.3957
   33MOL0     C 4454   7.066  12.791   4.694  0.0536 -0.6893  0.1320
   33MOL0     C 4455   7.212  12.772   4.657  0.3155  0.0745  0.8218
   33MOL0     C 4456   7.298  12.891   4.712 -0.1976  0.5134  0.2243
   33MOL0     C 4457   7.444  12.888   4.653  0.5276 -0.4640 -1.2220
   33MOL0     C 4458   7.529  12.769   4.707  0.0304  0.7025  0.0992
   33MOL0     C 4459   7.551  12.770   4.857  0.8372 -0.6902  0.1530
   33MOL0     C 4460   7.644  12.674   4.909 -0.5642 -0.2265  0.8906
   33MOL0    Cl 4461   7.805  12.674   4.826 -0.3041  0.5380  0.3416
   33MOL0     C 4462   6.662  12.581   4.606 -0.5256  0.7332  0.7440
   33MOL0     C 4463   6.570  12.469   4.629 -0.6405 -0.4675 -0.2744
   33MOL0     O 4464   6.624  12.168   4.631  0.4830  0.3415  0.2512
   33MOL0     C 4465   6.362  12.040   4.853  0.5970 -0.3942 -0.5548
   33MOL0     C 4466   6.264  11.940   4.866 -0.1201  0.2143  0.3160
   33MOL0     N 4467   5.817  11.634   4.403 -0.1285 -0.1542 -0.4139
   33MOL0     N 4468   5.898  11.557   4.340  0.4754  0.7281 -0.2067
   33MOL0     C 4469   6.892  11.582   3.913 -0.4475 -0.0943  0.6471
   33MOL0     C 4470   7.028  11.553   3.910 -0.1007  0.6945  0.0339
   33MOL0     C 4471   7.424  11.343   3.792 -0.3300 -0.1709  0.5568
   33MOL0     C 4472   7.494  11.420   3.698 -0.0282 -0.6434  0.3837
   33MOL0     C 4473   7.623  11.392   3.649  0.2308  0.4000  0.9835
   33MOL0     C 4474   7.698  11.287   3.707  0.7369 -0.5756  0.5168
   33MOL0     O 4475   7.829  11.266   3.668 -0.4644 -0.0111 -0.1778
   33MOL0     C 4476   7.896  11.132   3.688 -0.4675 -0.4880 -0.3674
   33MOL0     C 4477   7.967  11.114   3.819  1.3153  0.1164  0.7448
   33MOL0     C 4478   8.098  11.191   3.816  0.0507 -0.4440  0.5115
   33MOL0     C 4479   8.088  11.335   3.866 -0.5908 -0.1836 -0.7505
   33MOL0     C 4480   8.038  11.361   4.002  0.1678  0.2881  0.3078
   33MOL0     C 4481   7.991  11.370   4.118  0.4658 -0.6430  0.4703
   33MOL0     C 4482   7.637  11.211   3.807  0.6444 -0.6280 -0.4825
   33MOL0     C 4483   7.502  11.236   3.847  0.1357 -0.3809  0.6849
   33MOL0     C 4484   7.450  11.143   3.951 -0.4210 -0.6362  0.3478
   33MOL0     H 4485   7.031  11.432   3.582  0.1905 -0.9059  1.2410
   33MOL0     H 4486   6.799  11.442   3.616 -1.9668 -1.6638  2.1870
   33MOL0     H 4487   6.659  11.340   3.774 -0.0960 -1.2354  1.3945
   33MOL0     H 4488   6.499  11.432   3.790 -1.3808 -1.8422  3.3776
   33MOL0     H 4489   6.533  11.271   3.972 -0.9031  0.9385  0.2328
   33MOL0     H 4490   6.686  11.352   4.019 -0.7387  0.6160  1.5348
   33MOL0     H 4491   6.514  11.561   4.027 -5.0690  0.2828 -1.4983
   33MOL0     H 4492   6.406  11.431   4.063  0.1754 -0.9238 -3.2066
   33MOL0     H 4493   6.549  11.333   4.227 -0.9647 -1.1146 -1.9445
   33MOL0     H 4494   6.657  11.470   4.236 -0.6793  0.0204  2.0582
   33MOL0     H 4495   6.419  11.596   4.273 -0.0647 -0.7461  0.5279
   33MOL0     H 4496   6.527  11.540   4.400 -1.7522 -1.8801  1.6713
   33MOL0     H 4497   6.337  11.327   4.306  1.9945 -1.6958  2.5404
   33MOL0     H 4498   6.413  11.351   4.453 -0.1133  2.2370  2.8483
   33MOL0     H 4499   6.289  11.562   4.492  3.0716 -1.5037 -0.7483
   33MOL0     H 4500   6.185  11.415   4.492 -1.4960  2.4462  2.5810
   33MOL0     H 4501   6.197  11.611   4.253 -0.7774 -0.4285 -2.7927
   33MOL0     H 4502   6.132  11.454   4.243  1.1500 -0.3516  0.8141
   33MOL0     H 4503   6.115  11.692   4.544 -0.7211  0.8954  0.2250
   33MOL0     H 4504   5.737  11.818   4.573 -0.1863  1.7664  1.3187
   33MOL0     H 4505   5.894  11.866   4.616  3.1046 -2.9014  0.2543
   33MOL0     H 4506   5.770  11.807   4.816 -0.6071 -1.5302  1.7999
   33MOL0     H 4507   5.720  11.648   4.741 -1.6755  1.5867 -0.2001
   33MOL0     H 4508   5.880  11.642   4.939  1.4754  1.5522  1.4101
   33MOL0     H 4509   5.953  11.570   4.797 -2.2724 -0.6955  0.6375
   33MOL0     H 4510   5.995  11.859   4.889  1.6934  0.3009  0.3954
   33MOL0     H 4511   6.079  11.728   4.952  0.0416 -3.5883 -0.5662
   33MOL0     H 4512   6.280  11.822   4.547  0.0874  0.2402 -0.1891
   33MOL0     H 4513   6.572  11.940   4.507 -0.4077  1.8594  4.8023
   33MOL0     H 4514   6.469  12.079   4.445 -1.3382 -0.3830 -1.6473
   33MOL0     H 4515   6.406  11.926   4.419  0.4697 -1.8197 -0.1838
   33MOL0     H 4516   6.676  12.397   4.947 -3.0954 -0.1810  0.5253
   33MOL0     H 4517   6.840  12.554   4.884 -0.6356  0.8080  0.4500
   33MOL0     H 4518   6.989  12.585   4.720  0.3296  0.2460  0.1624
   33MOL0     H 4519   6.985  12.636   4.552  0.1015 -2.8612  0.4676
   33MOL0     H 4520   7.031  12.884   4.648 -2.8601 -1.1902  1.1307
   33MOL0     H 4521   7.062  12.807   4.802  0.8459  0.7845 -0.0284
   33MOL0     H 4522   7.222  12.761   4.548  4.7097 -0.9521  1.1727
   33MOL0     H 4523   7.258  12.681   4.695  2.3807 -0.1543 -1.8750
   33MOL0     H 4524   7.304  12.882   4.821  0.8234 -0.2302  0.1209
   33MOL0     H 4525   7.249  12.986   4.688 -0.6751  0.5131  1.1435
   33MOL0     H 4526   7.449  12.900   4.544  2.1379  2.0836 -0.9540
   33MOL0     H 4527   7.501  12.976   4.682  3.3501 -2.4749 -0.2164
   33MOL0     H 4528   7.628  12.764   4.661 -0.3418 -0.3772 -0.6129
   33MOL0     H 4529   7.468  12.683   4.678  1.0100 -0.1850  0.6400
   33MOL0     H 4530   7.454  12.752   4.904 -0.1921  0.9874 -1.2087
   33MOL0     H 4531   7.586  12.871   4.876  1.4054 -0.0898 -3.4178
   33MOL0     H 4532   7.621  12.568   4.899 -1.1268  0.0960 -1.9060
   33MOL0     H 4533   7.655  12.709   5.012 -2.6557  1.6437  0.5640
   33MOL0     H 4534   6.653  12.639   4.515 -0.0636 -0.4781 -0.0916
   33MOL0     H 4535   6.508  12.417   4.557  0.5790 -3.1550  0.4599
   33MOL0     H 4536   6.378  12.110   4.934 -5.0187  1.0765 -0.2694
   33MOL0     H 4537   6.209  11.930   4.959 -2.2367 -0.3001 -0.9245
   33MOL0     H 4538   6.850  11.632   3.999  0.4052  1.2088  0.3333
   33MOL0     H 4539   7.095  11.582   3.990 -0.5012  1.6753  0.0225
   33MOL0     H 4540   7.439  11.508   3.666  0.1593 -0.1573  1.3538
   33MOL0     H 4541   7.663  11.453   3.568  1.5020  0.2511  1.4694
   33MOL0     H 4542   7.823  11.051   3.680  1.1718 -2.1566  0.8713
   33MOL0     H 4543   7.961  11.113   3.602 -0.5702 -4.1809  0.1957
   33MOL0     H 4544   7.990  11.007   3.827 -0.4905 -0.7730 -3.3029
   33MOL0     H 4545   7.907  11.146   3.904  0.7477 -3.8550  2.0178
   33MOL0     H 4546   8.174  11.138   3.873  1.5351  2.1815  1.1103
   33MOL0     H 4547   8.133  11.198   3.712 -1.3918  2.6679  0.1005
   33MOL0     H 4548   8.029  11.405   3.805 -0.8710  1.3870  1.2272
   33MOL0     H 4549   8.192  11.370   3.868 -0.8276  0.4922  0.1662
   33MOL0     H 4550   7.936  11.365   4.209 -1.5041 -1.1108 -0.6842
   33MOL0     H 4551   7.699  11.130   3.842 -0.1818 -0.3121  1.9094
   33MOL0     H 4552   7.352  11.106   3.919 -2.1765  5.1222 -2.2568
   33MOL0     H 4553   7.517  11.058   3.970  2.1855  1.1259 -0.3788
   33MOL0     H 4554   7.448  11.198   4.046  4.6365  2.3198 -0.8568
   34MOL0     O 4555   2.736   4.545   7.965 -0.9866 -0.5112 -0.0919
   34MOL0     C 4556   2.793   4.587   8.065 -0.4396  0.3767 -1.1846
   34MOL0     O 4557   2.734   4.615   8.191 -0.3033  0.1657 -0.7453
   34MOL0     C 4558   2.595   4.627   8.184  0.3238 -0.5361 -0.3272
   34MOL0     C 4559   2.533   4.751   8.187  0.6265 -0.0151  0.0636
   34MOL0     C 4560   2.395   4.754   8.201 -0.4448 -0.6647  0.3562
   34MOL0     C 4561   2.321   4.634   8.178  0.7407 -0.0224  0.0535
   34MOL0     O 4562   2.183   4.623   8.190 -0.3881 -0.1543 -0.1613
   34MOL0     C 4563   2.112   4.725   8.114 -0.4622 -0.2968 -1.1802
   34MOL0     C 4564   2.015   4.679   8.012  0.3193  0.3952 -0.2204
   34MOL0     C 4565   2.069   4.601   7.896  0.3580 -0.0446  0.4102
   34MOL0     C 4566   1.963   4.580   7.803  1.1726  0.2013 -0.2514
   34MOL0     C 4567   1.878   4.463   7.839  0.0880  0.9027  0.5128
   34MOL0     C 4568   1.792   4.418   7.712  0.3276 -0.0610 -0.0298
   34MOL0     C 4569   1.698   4.299   7.738 -0.7909  0.5630  0.3723
   34MOL0     C 4570   1.588   4.347   7.831  0.5542 -0.4586  1.1087
   34MOL0     N 4571   1.474   4.254   7.833 -0.6718 -0.1657 -0.1989
   34MOL0     C 4572   1.421   4.206   7.951  0.8515 -0.4188  0.3108
   34MOL0     C 4573   1.309   4.136   7.919  0.3995  0.3633  0.7574
   34MOL0     C 4574   1.217   4.069   8.020 -0.0337 -0.2285 -0.2680
   34MOL0     C 4575   1.280   3.922   8.055 -0.4592 -0.4776 -0.5426
   34MOL0     C 4576   1.234   3.805   7.961  0.2019 -0.5152  0.3719
   34MOL0     C 4577   1.275   3.660   8.021 -0.3671 -0.0458  1.5974
   34MOL0     O 4578   1.231   3.644   8.151 -0.8535  0.4206  0.0891
   34MOL0     C 4579   1.099   3.622   8.186 -0.4967 -0.4085  0.1516
   34MOL0     C 4580   0.998   3.612   8.093 -0.6400  0.0482 -0.2664
   34MOL0     C 4581   0.865   3.588   8.128 -0.2220  0.1828  0.4901
   34MOL0     C 4582   0.749   3.580   8.023 -0.0731  0.7054 -0.2852
   34MOL0     C 4583   0.839   3.579   8.267  0.3714  0.5539  0.0695
   34MOL0     C 4584   0.703   3.538   8.316 -0.6114 -0.4632  1.0090
   34MOL0     O 4585   0.588   3.590   8.255 -0.5998  0.2205  0.1049
   34MOL0     C 4586   0.468   3.517   8.237 -0.1652 -0.2759  0.2485
   34MOL0     C 4587   0.361   3.573   8.166 -0.8716 -0.4050  0.7131
   34MOL0     C 4588   0.235   3.500   8.145 -0.3160 -0.1833  0.7003
   34MOL0     C 4589   0.214   3.378   8.212 -0.2349  1.1704 -0.5646
   34MOL0     O 4590   0.095   3.317   8.189 -0.3004 -0.3516  0.4874
   34MOL0     C 4591   0.121   3.188   8.135  0.4830  0.1031  0.5591
   34MOL0     C 4592  -0.009   3.127   8.088  0.4304 -0.0583 -0.2379
   34MOL0     C 4593  -0.077   3.190   7.967  0.4711 -0.5877  0.9315
   34MOL0     C 4594  -0.005   3.309   7.892 -0.1848  0.1588 -0.2934
   34MOL0     C 4595  -0.100   3.350   7.781  0.3470  0.1145  0.7953
   34MOL0     C 4596  -0.031   3.450   7.676  0.4267 -0.2687 -0.9070
   34MOL0     C 4597  -0.009   3.593   7.729  0.1331  0.5178  0.5695
   34MOL0     C 4598  -0.128   3.663   7.753  0.7469  0.1278 -0.4540
   34MOL0    Cl 4599  -0.110   3.834   7.735  0.2657 -0.0819 -0.3007
   34MOL0     C 4600   0.317   3.327   8.295  0.0096 -0.4168  0.0623
   34MOL0     C 4601   0.436   3.398   8.303 -0.8189  0.0807  0.3350
   34MOL0     O 4602   0.704   3.474   8.416  0.4248  0.5324 -0.9549
   34MOL0     C 4603   0.940   3.599   8.363  0.2150  0.0181  0.5222
   34MOL0     C 4604   1.073   3.619   8.325  0.4269 -0.0282  0.2311
   34MOL0     N 4605   1.286   4.139   7.785 -0.6029 -0.1379 -0.3020
   34MOL0     N 4606   1.388   4.208   7.737 -0.7990  0.2557 -1.1043
   34MOL0     C 4607   2.381   4.519   8.164 -0.2859 -0.4992 -0.4272
   34MOL0     C 4608   2.518   4.516   8.176  1.4365  0.5682 -0.4890
   34MOL0     C 4609   2.947   4.567   8.059  0.1748 -0.8856 -0.2550
   34MOL0     C 4610   3.003   4.444   8.027  1.3571 -0.0217 -0.1543
   34MOL0     C 4611   3.144   4.431   8.014 -0.7365  0.2626  0.0628
   34MOL0     C 4612   3.230   4.538   8.047  0.1326 -0.3145  0.5510
   34MOL0     O 4613   3.364   4.530   8.021  0.6596 -0.0192 -0.0059
   34MOL0     C 4614   3.454   4.624   8.081 -0.7970 -0.6902  0.1002
   34MOL0     C 4615   3.601   4.594   8.055 -0.6413  0.9562  0.6116
   34MOL0     C 4616   3.654   4.493   8.157 -0.1047 -0.0558  0.4286
   34MOL0     C 4617   3.772   4.405   8.103  0.5766 -0.8333 -0.1217
   34MOL0     C 4618   3.874   4.495   8.041  0.2080 -0.2454 -0.5997
   34MOL0     C 4619   3.950   4.582   8.014  0.0085 -0.1143  0.1833
   34MOL0     C 4620   3.171   4.652   8.093 -0.3048  1.0833 -0.2831
   34MOL0     C 4621   3.035   4.671   8.093 -0.0842  0.1578 -0.0665
   34MOL0     C 4622   2.977   4.813   8.123 -0.6873 -0.3898  0.0170
   34MOL0     H 4623   2.591   4.843   8.195  4.1800 -2.1406  1.0752
   34MOL0     H 4624   2.342   4.847   8.218  2.0509  0.9760 -0.2535
   34MOL0     H 4625   2.181   4.797   8.069  3.0392 -1.0622  2.3935
   34MOL0     H 4626   2.069   4.791   8.190  0.6677 -3.2739  2.3998
   34MOL0     H 4627   1.947   4.621   8.075  0.9707 -0.4004 -0.2395
   34MOL0     H 4628   1.965   4.771   7.980 -0.4607  0.4201  0.9871
   34MOL0     H 4629   2.136   4.675   7.851 -0.7715  2.1888  2.1557
   34MOL0     H 4630   2.123   4.511   7.928  2.4570  1.1218  0.3406
   34MOL0     H 4631   1.894   4.665   7.801 -1.4588 -1.7708  0.8695
   34MOL0     H 4632   2.002   4.554   7.704 -0.7763 -0.8260 -0.7988
   34MOL0     H 4633   1.821   4.486   7.930 -2.2134  1.1424 -0.9152
   34MOL0     H 4634   1.945   4.378   7.857  0.4812  1.0375 -0.2579
   34MOL0     H 4635   1.735   4.502   7.671 -1.0211 -1.5943 -1.4585
   34MOL0     H 4636   1.868   4.395   7.637  0.7845  0.4794  0.2593
   34MOL0     H 4637   1.743   4.205   7.771 -2.7078 -3.1483 -5.9367
   34MOL0     H 4638   1.658   4.272   7.640  1.5007  3.2175 -1.4782
   34MOL0     H 4639   1.620   4.363   7.935  2.0046  0.3113  0.5727
   34MOL0     H 4640   1.554   4.447   7.806 -1.3228 -1.0440  1.1818
   34MOL0     H 4641   1.450   4.226   8.054 -0.4819 -2.6685  1.1892
   34MOL0     H 4642   1.112   4.064   7.990 -1.1235 -1.0929  3.1820
   34MOL0     H 4643   1.220   4.123   8.115 -0.5890 -1.8590  0.7159
   34MOL0     H 4644   1.387   3.936   8.043  0.0459 -2.1501  1.3540
   34MOL0     H 4645   1.268   3.895   8.161  1.9865 -0.9564 -0.3321
   34MOL0     H 4646   1.128   3.797   7.937  0.5130  1.1422 -1.8870
   34MOL0     H 4647   1.294   3.829   7.872  0.2374 -0.3452  0.4410
   34MOL0     H 4648   1.249   3.578   7.952  1.1628  1.6317 -1.1823
   34MOL0     H 4649   1.384   3.665   8.031  0.1006 -0.4857 -1.8223
   34MOL0     H 4650   1.018   3.606   7.986  0.6992  0.2673 -0.0479
   34MOL0     H 4651   0.693   3.489   8.043  2.4737 -1.1374 -0.9645
   34MOL0     H 4652   0.794   3.571   7.923 -0.7260 -0.5409 -0.4846
   34MOL0     H 4653   0.687   3.669   8.037 -1.5255 -0.5594  1.7993
   34MOL0     H 4654   0.381   3.662   8.106 -2.3085  0.1194  0.9916
   34MOL0     H 4655   0.161   3.539   8.076  1.1324  2.7111  0.6248
   34MOL0     H 4656   0.192   3.194   8.051  0.2015 -2.4288  0.0705
   34MOL0     H 4657   0.152   3.123   8.217 -1.0091 -2.6358 -0.9005
   34MOL0     H 4658   0.031   3.032   8.052  2.2737  0.6650 -0.2155
   34MOL0     H 4659  -0.089   3.123   8.162  0.1254  2.2678 -0.3582
   34MOL0     H 4660  -0.177   3.229   7.989 -0.0323 -0.3216 -1.5911
   34MOL0     H 4661  -0.082   3.105   7.898  2.2106 -1.0436  1.3139
   34MOL0     H 4662   0.093   3.274   7.858  0.7024 -0.5195  2.6283
   34MOL0     H 4663   0.018   3.384   7.968 -0.2910 -1.1991  1.1434
   34MOL0     H 4664  -0.124   3.258   7.726 -0.5972  1.5655 -1.3385
   34MOL0     H 4665  -0.198   3.389   7.810  1.1952  2.8190  0.2156
   34MOL0     H 4666  -0.087   3.455   7.581  0.9983 -0.5399 -1.2593
   34MOL0     H 4667   0.067   3.410   7.650  0.0625 -0.7708 -1.5375
   34MOL0     H 4668   0.056   3.641   7.655 -1.4013  0.3156 -0.9969
   34MOL0     H 4669   0.045   3.565   7.820 -0.9973 -2.3069  0.4942
   34MOL0     H 4670  -0.165   3.629   7.850  1.1136 -0.2777 -0.4530
   34MOL0     H 4671  -0.193   3.621   7.675 -2.0729 -3.3863  3.3268
   34MOL0     H 4672   0.305   3.234   8.350 -1.5143 -1.1366 -1.4214
   34MOL0     H 4673   0.524   3.344   8.338  0.7236  0.4658 -2.6541
   34MOL0     H 4674   0.919   3.601   8.469  0.4464  0.8559  0.5610
   34MOL0     H 4675   1.156   3.627   8.393  0.9088  0.5542 -0.4061
   34MOL0     H 4676   2.326   4.426   8.157  1.7437 -1.9258  1.2744
   34MOL0     H 4677   2.555   4.417   8.151  1.8202  0.3349  0.9463
   34MOL0     H 4678   2.930   4.365   8.012  1.1724 -0.2012  1.4511
   34MOL0     H 4679   3.195   4.343   7.976 -1.1095  0.1369 -0.1590
   34MOL0     H 4680   3.445   4.719   8.028 -3.5563  0.5291  2.4599
   34MOL0     H 4681   3.439   4.631   8.189 -1.7899 -2.3535  0.0967
   34MOL0     H 4682   3.667   4.680   8.065  2.4801 -1.5420  4.0785
   34MOL0     H 4683   3.609   4.553   7.954  2.2606 -3.1535  2.2461
   34MOL0     H 4684   3.688   4.544   8.247  2.7171  2.4255 -1.8219
   34MOL0     H 4685   3.561   4.440   8.177 -2.1681  3.2623  0.4111
   34MOL0     H 4686   3.737   4.330   8.032 -0.6792  0.8958 -1.4413
   34MOL0     H 4687   3.821   4.356   8.187  0.5345 -0.6915 -0.0136
   34MOL0     H 4688   4.019   4.658   7.984  0.3887 -0.0772  1.1179
   34MOL0     H 4689   3.232   4.741   8.108  1.5710 -0.5174  2.9067
   34MOL0     H 4690   2.889   4.826   8.186 -0.4540 -2.2803  0.7966
   34MOL0     H 4691   3.054   4.873   8.173 -0.3842 -0.0993 -0.7698
   34MOL0     H 4692   2.960   4.859   8.025  1.5144 -0.8491 -0.6429
   35MOL0     O 4693   3.285   7.353   5.378 -0.5321 -0.1169  1.4215
   35MOL0     C 4694   3.195   7.271   5.382  0.3113  0.1762  0.2080
   35MOL0     O 4695   3.119   7.217   5.272 -0.3640  0.3525 -0.0659
   35MOL0     C 4696   3.140   7.232   5.140 -0.5819 -0.2670  0.3444
   35MOL0     C 4697   3.273   7.265   5.096 -0.1375  0.6812  0.2751
   35MOL0     C 4698   3.311   7.286   4.964  0.1459  0.8202 -0.3238
   35MOL0     C 4699   3.220   7.253   4.867  1.3009  1.2137  0.2089
   35MOL0     O 4700   3.258   7.271   4.734 -0.1115  0.0880  0.9209
   35MOL0     C 4701   3.252   7.152   4.643  0.0902 -0.7718 -0.0856
   35MOL0     C 4702   3.297   7.163   4.495 -0.6643  0.0222 -0.0956
   35MOL0     C 4703   3.433   7.241   4.483  0.0618  0.2018 -0.1704
   35MOL0     C 4704   3.548   7.175   4.556 -0.2479 -0.3220 -0.6743
   35MOL0     C 4705   3.677   7.223   4.487  1.0164  0.1681  0.2244
   35MOL0     C 4706   3.786   7.258   4.586  0.8865  0.3786 -0.5012
   35MOL0     C 4707   3.916   7.275   4.519 -0.3736  0.6124 -0.4446
   35MOL0     C 4708   4.022   7.319   4.619  0.2664  0.2453 -0.8493
   35MOL0     N 4709   4.150   7.327   4.555 -1.0201 -0.4070  0.1449
   35MOL0     C 4710   4.233   7.223   4.534 -0.2086  0.7213  0.7562
   35MOL0     C 4711   4.345   7.270   4.479 -0.6627  0.3618  0.1752
   35MOL0     C 4712   4.475   7.176   4.469 -0.3137  0.5916 -0.0901
   35MOL0     C 4713   4.599   7.260   4.477 -0.0658  0.1293 -0.0205
   35MOL0     C 4714   4.723   7.180   4.439  0.4520 -1.0816 -0.2882
   35MOL0     C 4715   4.844   7.270   4.455 -0.2624  0.5740  0.1981
   35MOL0     O 4716   4.960   7.203   4.439  0.2595 -0.3919 -0.0522
   35MOL0     C 4717   5.071   7.269   4.497 -0.0302  0.7538  0.1179
   35MOL0     C 4718   5.173   7.178   4.536  0.1383 -0.7759 -0.0364
   35MOL0     C 4719   5.296   7.230   4.580 -0.9178 -0.4255 -0.7656
   35MOL0     C 4720   5.397   7.130   4.623  0.3061  0.0006  0.1482
   35MOL0     C 4721   5.321   7.369   4.579  0.1473 -0.1331  0.5680
   35MOL0     C 4722   5.453   7.426   4.628  0.0081 -0.6093 -0.5798
   35MOL0     O 4723   5.435   7.548   4.696  0.1715  0.6778 -0.3549
   35MOL0     C 4724   5.543   7.627   4.720 -0.3182 -0.5239  0.1686
   35MOL0     C 4725   5.505   7.763   4.736 -0.6953  0.8840  0.5567
   35MOL0     C 4726   5.600   7.862   4.764  0.3634 -0.5249 -0.4164
   35MOL0     C 4727   5.732   7.823   4.782 -0.2474 -0.2019 -0.7902
   35MOL0     O 4728   5.830   7.917   4.809  0.4688  0.1905 -0.0687
   35MOL0     C 4729   5.791   8.057   4.829 -0.3114 -0.5019 -1.1662
   35MOL0     C 4730   5.927   8.129   4.881  1.2178 -0.9410 -0.6271
   35MOL0     C 4731   5.937   8.276   4.836 -0.3361 -0.6587  0.3341
   35MOL0     C 4732   5.849   8.363   4.931 -0.9983  0.8930 -0.0254
   35MOL0     C 4733   5.847   8.511   4.877 -0.5016  0.4169  0.5391
   35MOL0     C 4734   5.986   8.565   4.841  0.2808 -0.4063 -0.2765
   35MOL0     C 4735   5.986   8.713   4.823 -0.3032  0.4861  0.6466
   35MOL0     C 4736   6.125   8.777   4.819  0.3374 -0.5458 -0.1979
   35MOL0    Cl 4737   6.203   8.746   4.656  0.4450 -0.1331  0.3334
   35MOL0     C 4738   5.771   7.696   4.756  0.3594 -0.2335 -0.2658
   35MOL0     C 4739   5.673   7.596   4.747 -0.7733  0.0391 -0.1899
   35MOL0     O 4740   5.562   7.363   4.609  0.6635  0.5953 -0.2528
   35MOL0     C 4741   5.214   7.455   4.537  0.2411  0.7106  0.7288
   35MOL0     C 4742   5.084   7.403   4.508  0.0182 -0.0097  0.0975
   35MOL0     N 4743   4.325   7.405   4.442 -0.2083  0.4075  0.1352
   35MOL0     N 4744   4.205   7.435   4.490 -0.4253 -0.7492 -0.4174
   35MOL0     C 4745   3.098   7.198   4.907 -0.4937 -0.2174  1.2633
   35MOL0     C 4746   3.056   7.200   5.039  0.0177  0.5451 -0.4917
   35MOL0     C 4747   3.164   7.236   5.517 -0.1052 -0.4637 -0.1538
   35MOL0     C 4748   3.244   7.144   5.578  0.4321  0.1447 -0.0291
   35MOL0     C 4749   3.223   7.112   5.715 -0.2560 -0.2009  0.1593
   35MOL0     C 4750   3.118   7.176   5.792 -1.0348 -0.3054  0.0270
   35MOL0     O 4751   3.110   7.139   5.921 -0.3076 -0.5580 -0.2485
   35MOL0     C 4752   3.165   7.226   6.020 -1.0415  0.3792 -0.5387
   35MOL0     C 4753   3.298   7.286   5.988  0.8019  0.5163 -0.3588
   35MOL0     C 4754   3.373   7.325   6.113  0.0903 -0.1151  0.0802
   35MOL0     C 4755   3.498   7.389   6.077 -0.4110 -0.7206  0.5221
   35MOL0     C 4756   3.595   7.289   6.025  0.4876 -0.5433 -0.6107
   35MOL0     C 4757   3.676   7.204   6.002 -0.4597  0.4000 -0.3989
   35MOL0     C 4758   3.037   7.268   5.732 -0.8865 -0.2691  0.4516
   35MOL0     C 4759   3.063   7.305   5.595 -1.0393  0.2681  0.1973
   35MOL0     C 4760   2.988   7.411   5.523  0.7022 -0.4065 -0.6036
   35MOL0     H 4761   3.343   7.271   5.179  0.5308 -2.8837  0.1239
   35MOL0     H 4762   3.402   7.337   4.934  1.1104 -0.8475 -0.3763
   35MOL0     H 4763   3.151   7.110   4.640 -0.0096 -0.5087 -0.4548
   35MOL0     H 4764   3.307   7.073   4.695  0.3615  0.1617  1.1028
   35MOL0     H 4765   3.298   7.069   4.439  2.0454 -1.4158  2.0771
   35MOL0     H 4766   3.227   7.227   4.441 -2.6185 -2.6935 -0.9860
   35MOL0     H 4767   3.463   7.231   4.378  0.3074  0.5624 -0.1390
   35MOL0     H 4768   3.418   7.347   4.504  0.0092  0.0655  0.4963
   35MOL0     H 4769   3.543   7.189   4.664  3.6319  0.7048 -0.4992
   35MOL0     H 4770   3.544   7.066   4.544 -1.7931 -0.3226 -0.3595
   35MOL0     H 4771   3.662   7.314   4.429  0.9455 -1.0619 -1.7466
   35MOL0     H 4772   3.708   7.148   4.415 -2.2178  1.6137 -3.0242
   35MOL0     H 4773   3.761   7.356   4.629  2.5454  1.1318 -1.1257
   35MOL0     H 4774   3.784   7.183   4.664 -1.0104  1.6497  0.7467
   35MOL0     H 4775   3.911   7.359   4.449  2.2641  0.5612 -0.7815
   35MOL0     H 4776   3.951   7.189   4.462 -1.4159 -2.3976  3.0371
   35MOL0     H 4777   3.985   7.411   4.666 -0.9843 -1.8654  2.7316
   35MOL0     H 4778   4.014   7.250   4.703 -3.6479  0.8426 -0.5367
   35MOL0     H 4779   4.207   7.123   4.569 -0.0203  0.4020 -0.0121
   35MOL0     H 4780   4.488   7.117   4.378  2.2582 -2.8808  2.2521
   35MOL0     H 4781   4.473   7.105   4.552 -3.2591  0.4027 -0.2280
   35MOL0     H 4782   4.589   7.344   4.408 -3.4912  1.2514  1.6277
   35MOL0     H 4783   4.628   7.293   4.578 -1.3012  3.4722 -0.6292
   35MOL0     H 4784   4.726   7.082   4.488 -2.5588 -0.5340  1.2098
   35MOL0     H 4785   4.707   7.154   4.334  1.0166  0.7261 -0.8600
   35MOL0     H 4786   4.836   7.346   4.376  1.2552  1.9470  1.3001
   35MOL0     H 4787   4.826   7.317   4.552 -1.7499 -2.3254  1.4484
   35MOL0     H 4788   5.156   7.071   4.538  0.0271 -0.7669 -0.5261
   35MOL0     H 4789   5.489   7.124   4.564  0.7264  0.2776  0.7659
   35MOL0     H 4790   5.356   7.029   4.632  1.2204 -0.4025 -0.1389
   35MOL0     H 4791   5.431   7.163   4.722 -0.9623  0.6407  0.4047
   35MOL0     H 4792   5.402   7.797   4.726 -0.0200  2.3241 -2.8432
   35MOL0     H 4793   5.571   7.967   4.767  1.8197 -0.0730 -1.1178
   35MOL0     H 4794   5.756   8.095   4.733 -2.6007 -0.3732 -0.3382
   35MOL0     H 4795   5.715   8.079   4.904  1.7305 -4.9019  2.6878
   35MOL0     H 4796   5.927   8.121   4.990  1.6606  0.8111 -0.4671
   35MOL0     H 4797   6.018   8.077   4.849  1.6247 -1.1464  0.7610
   35MOL0     H 4798   5.902   8.281   4.732 -1.1420 -3.4289  0.3851
   35MOL0     H 4799   6.042   8.306   4.838  0.0565 -1.6443 -2.0655
   35MOL0     H 4800   5.894   8.363   5.031  0.4256  0.1033 -0.6252
   35MOL0     H 4801   5.748   8.323   4.935  0.0397 -2.5587 -3.1005
   35MOL0     H 4802   5.783   8.499   4.790 -1.9432 -1.3081  1.7701
   35MOL0     H 4803   5.787   8.570   4.946  0.1058  0.5669  0.9526
   35MOL0     H 4804   6.025   8.520   4.749  2.2426 -0.5558  0.5661
   35MOL0     H 4805   6.058   8.547   4.922 -2.7833  1.8897  3.3446
   35MOL0     H 4806   5.930   8.762   4.904 -0.1483  3.1253 -0.7388
   35MOL0     H 4807   5.942   8.751   4.730 -0.6559  3.6389  1.9695
   35MOL0     H 4808   6.189   8.740   4.900 -2.0882  0.5234  2.3841
   35MOL0     H 4809   6.113   8.884   4.838  0.2819 -0.8322  1.5905
   35MOL0     H 4810   5.879   7.685   4.765  0.6628  2.3744  0.0580
   35MOL0     H 4811   5.706   7.493   4.757 -0.2355  0.2085 -0.1811
   35MOL0     H 4812   5.218   7.563   4.527 -1.7849  0.8032  0.4084
   35MOL0     H 4813   5.001   7.465   4.476  0.1822  0.4425  0.5273
   35MOL0     H 4814   3.040   7.168   4.821  2.3326 -3.2265  0.1850
   35MOL0     H 4815   2.954   7.182   5.072  0.7241  0.6054  1.9239
   35MOL0     H 4816   3.322   7.099   5.518  0.0132  0.3761 -0.7603
   35MOL0     H 4817   3.272   7.030   5.767 -0.3757  0.0284  0.6441
   35MOL0     H 4818   3.113   7.320   6.043  1.8817  1.6227  1.6149
   35MOL0     H 4819   3.179   7.163   6.109  0.5868 -0.7539 -1.5471
   35MOL0     H 4820   3.284   7.374   5.924  1.5459 -0.1306 -1.4618
   35MOL0     H 4821   3.358   7.212   5.934 -0.4173 -1.4257  0.8466
   35MOL0     H 4822   3.306   7.395   6.164  2.8700  3.1263 -0.3251
   35MOL0     H 4823   3.398   7.245   6.182 -0.4724  0.4977  1.0109
   35MOL0     H 4824   3.537   7.446   6.162  1.7798  1.0138 -1.5136
   35MOL0     H 4825   3.490   7.460   5.994 -0.3163 -0.6175  0.6015
   35MOL0     H 4826   3.736   7.119   5.978 -1.6849 -0.2231 -1.3682
   35MOL0     H 4827   2.956   7.303   5.794  0.2034 -0.8639  2.2971
   35MOL0     H 4828   2.915   7.461   5.587  1.3563 -1.3526  0.9555
   35MOL0     H 4829   3.057   7.489   5.488 -1.3535  0.8129 -2.1486
   35MOL0     H 4830   2.936   7.360   5.441  0.2498 -1.5165  0.3415
   36MOL0     O 4831   1.597   3.329   6.458  0.2933  0.0913 -0.0827
   36MOL0     C 4832   1.532   3.349   6.558  0.6784 -0.0973  0.2530
   36MOL0     O 4833   1.585   3.407   6.672 -0.3631 -0.1327  0.3063
   36MOL0     C 4834   1.721   3.440   6.669 -0.2897 -0.2469 -0.0326
   36MOL0     C 4835   1.814   3.338   6.703  0.3814 -0.3883  0.5668
   36MOL0     C 4836   1.947   3.379   6.688  0.2221  0.6732 -0.2017
   36MOL0     C 4837   1.996   3.504   6.642 -0.7878 -0.7447  0.1905
   36MOL0     O 4838   2.128   3.526   6.625  0.4537  0.3709  0.1844
   36MOL0     C 4839   2.182   3.612   6.718 -0.0817 -0.0378 -0.5225
   36MOL0     C 4840   2.292   3.709   6.664 -0.4873 -0.6953 -0.0651
   36MOL0     C 4841   2.303   3.839   6.751 -1.1087 -0.5221 -0.3070
   36MOL0     C 4842   2.435   3.908   6.717 -0.2711  1.0825  0.0987
   36MOL0     C 4843   2.443   4.039   6.791  0.0682  0.5656 -0.2805
   36MOL0     C 4844   2.563   4.122   6.725  0.6119  0.8142 -0.5972
   36MOL0     C 4845   2.700   4.053   6.731  0.4399  0.2425  0.3979
   36MOL0     C 4846   2.817   4.141   6.687 -1.1785 -0.4505  0.3459
   36MOL0     N 4847   2.951   4.085   6.726  0.4145  0.5589  0.0406
   36MOL0     C 4848   3.044   4.049   6.627  0.4659  0.3073  0.2090
   36MOL0     C 4849   3.160   4.039   6.704  1.0477  0.5066  0.5449
   36MOL0     C 4850   3.296   4.030   6.661  0.0260 -0.6447  0.0942
   36MOL0     C 4851   3.340   4.166   6.599 -0.3699  0.4971 -0.2284
   36MOL0     C 4852   3.437   4.138   6.493 -0.7746 -0.0862 -0.1895
   36MOL0     C 4853   3.575   4.084   6.539  0.5938 -0.5169 -0.0342
   36MOL0     O 4854   3.681   4.093   6.435 -0.1828  0.4345  0.0057
   36MOL0     C 4855   3.778   4.191   6.432 -0.2433  1.2055 -0.9131
   36MOL0     C 4856   3.905   4.148   6.393  0.7327  0.2582  0.3056
   36MOL0     C 4857   4.004   4.247   6.390 -0.2298 -0.3772 -0.1212
   36MOL0     C 4858   4.152   4.204   6.360 -0.1652  0.5278 -0.1450
   36MOL0     C 4859   3.974   4.385   6.419  0.1992 -0.7316  0.7636
   36MOL0     C 4860   4.068   4.498   6.408  0.6388 -0.1352 -0.2801
   36MOL0     O 4861   4.035   4.612   6.477  0.5241  0.0479 -0.7732
   36MOL0     C 4862   4.088   4.730   6.436  1.1796 -0.0038  0.3236
   36MOL0     C 4863   4.114   4.760   6.302 -0.1210  0.4999 -0.3852
   36MOL0     C 4864   4.176   4.881   6.265 -0.7717  0.8655 -0.2329
   36MOL0     C 4865   4.203   4.978   6.360 -0.2813  0.4822  0.2654
   36MOL0     O 4866   4.244   5.097   6.319 -0.1667  0.9453 -0.2390
   36MOL0     C 4867   4.268   5.197   6.415 -0.7553  0.8268 -0.7220
   36MOL0     C 4868   4.289   5.333   6.351  0.5575 -0.6176  0.2648
   36MOL0     C 4869   4.364   5.435   6.436  0.6652 -0.3177 -0.6000
   36MOL0     C 4870   4.510   5.402   6.437  0.0932  0.0463 -1.0734
   36MOL0     C 4871   4.589   5.485   6.537 -0.5975  0.8183 -0.7964
   36MOL0     C 4872   4.717   5.413   6.581  0.9667 -0.9441 -0.8381
   36MOL0     C 4873   4.801   5.503   6.686  0.2453 -0.4798  0.7065
   36MOL0     C 4874   4.917   5.428   6.754  0.2243  0.3726 -0.0921
   36MOL0    Cl 4875   4.997   5.313   6.650  0.0993 -0.2505 -0.1678
   36MOL0     C 4876   4.164   4.951   6.493 -0.2338  0.0250  0.1833
   36MOL0     C 4877   4.113   4.830   6.531 -0.1196  0.1301  0.7951
   36MOL0     O 4878   4.167   4.480   6.339  0.0848  0.0365 -0.1933
   36MOL0     C 4879   3.848   4.417   6.468  0.1344 -0.4626 -0.6141
   36MOL0     C 4880   3.755   4.317   6.473  0.0043 -0.5685  0.4087
   36MOL0     N 4881   3.130   4.064   6.839  0.5493  0.3424 -0.3116
   36MOL0     N 4882   3.001   4.083   6.851  0.4196 -0.5957  0.1216
   36MOL0     C 4883   1.898   3.607   6.633  0.6926 -0.6120 -0.3372
   36MOL0     C 4884   1.763   3.573   6.645  0.6115  0.6182 -0.1936
   36MOL0     C 4885   1.383   3.307   6.558 -0.5201  0.4846 -0.1489
   36MOL0     C 4886   1.311   3.322   6.682 -0.4501  0.5060 -0.5942
   36MOL0     C 4887   1.172   3.301   6.691  0.3810 -0.6308  0.3756
   36MOL0     C 4888   1.103   3.244   6.580  0.2781  0.2065  0.3351
   36MOL0     O 4889   0.979   3.213   6.585  0.2044  0.1365  0.0256
   36MOL0     C 4890   0.941   3.111   6.680  1.0084 -0.8451  0.5899
   36MOL0     C 4891   0.963   2.969   6.630 -0.0073  0.6059 -0.0931
   36MOL0     C 4892   0.895   2.942   6.499  0.6587  0.5085  0.2959
   36MOL0     C 4893   0.744   2.940   6.488  0.3692  0.0989  0.2851
   36MOL0     C 4894   0.669   3.069   6.496  1.2066 -0.2816  1.7034
   36MOL0     C 4895   0.608   3.175   6.501 -0.0445 -0.6313 -1.0191
   36MOL0     C 4896   1.173   3.220   6.459 -0.6965 -0.2396  0.6161
   36MOL0     C 4897   1.312   3.257   6.443 -0.2788  0.0724  0.6735
   36MOL0     C 4898   1.369   3.225   6.308 -0.1865 -0.2572 -0.7399
   36MOL0     H 4899   1.788   3.236   6.730 -0.0224 -0.6973 -0.8861
   36MOL0     H 4900   2.016   3.298   6.707 -1.8015 -1.2802 -0.7707
   36MOL0     H 4901   2.233   3.558   6.799 -2.5648  0.7802  1.7230
   36MOL0     H 4902   2.099   3.666   6.762 -1.6199 -2.0301 -0.8210
   36MOL0     H 4903   2.382   3.647   6.659 -0.0802 -0.2342  1.1361
   36MOL0     H 4904   2.246   3.736   6.569  1.3708  2.3473 -0.2258
   36MOL0     H 4905   2.216   3.905   6.744 -3.4952 -3.3427  0.4174
   36MOL0     H 4906   2.312   3.821   6.858  1.0587  3.3873  0.3533
   36MOL0     H 4907   2.516   3.845   6.756 -0.0719  0.5431 -1.1259
   36MOL0     H 4908   2.447   3.930   6.610 -3.0425 -0.1441 -0.5634
   36MOL0     H 4909   2.450   4.026   6.899 -0.0020 -0.4211 -0.3852
   36MOL0     H 4910   2.350   4.098   6.788 -0.4635 -0.1931  0.7039
   36MOL0     H 4911   2.531   4.139   6.622  1.2167  3.0348 -0.4600
   36MOL0     H 4912   2.555   4.225   6.761 -1.0052  1.8843 -3.6699
   36MOL0     H 4913   2.702   3.960   6.673 -2.6516 -0.9501  1.9750
   36MOL0     H 4914   2.709   4.024   6.836 -3.0172  0.5010  0.8994
   36MOL0     H 4915   2.815   4.167   6.581  2.5114  0.3937  0.3365
   36MOL0     H 4916   2.798   4.232   6.744 -3.4641 -0.7669  0.1812
   36MOL0     H 4917   3.025   4.056   6.521 -0.2329  1.2506  0.3796
   36MOL0     H 4918   3.293   3.963   6.575  0.8911  1.9465 -2.1218
   36MOL0     H 4919   3.364   4.000   6.740 -0.1918 -1.1002  0.1118
   36MOL0     H 4920   3.252   4.224   6.572 -0.0565  1.5868  1.0019
   36MOL0     H 4921   3.396   4.231   6.667  1.0664  0.1703 -1.0638
   36MOL0     H 4922   3.398   4.080   6.409  0.5849  0.7550 -1.4601
   36MOL0     H 4923   3.459   4.229   6.436  1.8039 -0.7919 -0.4423
   36MOL0     H 4924   3.606   4.154   6.617 -1.4815  3.8836 -2.7139
   36MOL0     H 4925   3.561   3.983   6.578 -0.0928  0.6097  2.9415
   36MOL0     H 4926   3.927   4.045   6.369  2.6447  1.1431 -2.2750
   36MOL0     H 4927   4.178   4.245   6.262 -0.1052  1.0219  0.0738
   36MOL0     H 4928   4.173   4.097   6.355 -2.4222  0.0337 -0.2746
   36MOL0     H 4929   4.222   4.241   6.436  3.2810 -0.1317 -2.7659
   36MOL0     H 4930   4.105   4.686   6.224  1.7501 -2.9714  2.3608
   36MOL0     H 4931   4.228   4.895   6.171 -1.0831 -0.3565 -0.6019
   36MOL0     H 4932   4.177   5.214   6.474 -0.0218  2.5924 -0.0307
   36MOL0     H 4933   4.340   5.161   6.489 -3.3802  0.9504  2.1342
   36MOL0     H 4934   4.349   5.311   6.262  1.4564  2.0192  0.1511
   36MOL0     H 4935   4.190   5.374   6.328 -0.3987 -2.7747  0.2576
   36MOL0     H 4936   4.324   5.424   6.537  0.7743  0.0203 -0.5182
   36MOL0     H 4937   4.338   5.539   6.416 -0.5524 -0.5921 -0.4858
   36MOL0     H 4938   4.552   5.417   6.337 -0.3635  0.3808 -1.2156
   36MOL0     H 4939   4.519   5.298   6.471  0.8447  0.7765  1.1077
   36MOL0     H 4940   4.593   5.590   6.505 -2.3946  0.7975 -1.2011
   36MOL0     H 4941   4.536   5.481   6.633  0.5065  2.5674 -0.0369
   36MOL0     H 4942   4.778   5.394   6.492  1.0585 -0.3489 -0.9068
   36MOL0     H 4943   4.692   5.314   6.620  2.6930 -2.0776 -2.4375
   36MOL0     H 4944   4.731   5.528   6.767  0.5932 -0.6139  1.0512
   36MOL0     H 4945   4.832   5.600   6.644  0.1815 -0.0184  1.6906
   36MOL0     H 4946   4.879   5.398   6.853 -0.3674  0.7979 -0.1884
   36MOL0     H 4947   4.987   5.510   6.775  1.4861  0.0719 -2.7447
   36MOL0     H 4948   4.169   5.027   6.570  1.8424 -0.2410  0.3783
   36MOL0     H 4949   4.103   4.805   6.636  0.9330 -1.4142  0.5713
   36MOL0     H 4950   3.804   4.511   6.499 -0.0085  0.3058 -2.9473
   36MOL0     H 4951   3.653   4.341   6.502 -0.0486  0.4422 -0.5360
   36MOL0     H 4952   1.928   3.709   6.610  0.8906 -0.9927 -1.9028
   36MOL0     H 4953   1.696   3.657   6.629  0.4552  0.1896 -2.0089
   36MOL0     H 4954   1.362   3.346   6.775  0.6590  0.9736 -1.2900
   36MOL0     H 4955   1.124   3.309   6.788 -1.8389 -2.5149 -0.4772
   36MOL0     H 4956   0.980   3.110   6.782 -0.3688 -1.2235  1.1378
   36MOL0     H 4957   0.834   3.129   6.695  1.4474  1.8715  0.9904
   36MOL0     H 4958   0.918   2.916   6.715 -1.5685  3.6999  1.1426
   36MOL0     H 4959   1.071   2.950   6.635  0.3781  2.7573  1.1738
   36MOL0     H 4960   0.937   3.008   6.422 -1.0015  1.0591 -0.1808
   36MOL0     H 4961   0.932   2.844   6.470  3.2506  0.7428  2.3694
   36MOL0     H 4962   0.705   2.881   6.572 -0.1074  1.0572  0.7514
   36MOL0     H 4963   0.715   2.881   6.400 -3.0398 -0.1641  1.4421
   36MOL0     H 4964   0.552   3.266   6.512  1.1865  0.1467 -0.9669
   36MOL0     H 4965   1.125   3.171   6.375  2.4420 -1.5559 -0.5813
   36MOL0     H 4966   1.284   3.213   6.240 -2.1750  1.3293  1.3180
   36MOL0     H 4967   1.427   3.309   6.269 -1.1471  1.1838  0.7845
   36MOL0     H 4968   1.429   3.134   6.315  0.7522  0.4746  2.6289
   37MOL0     O 4969   1.124  11.328   4.059 -0.5288 -0.7480 -0.3579
   37MOL0     C 4970   1.170  11.214   4.060 -0.5127 -0.2404  0.8850
   37MOL0     O 4971   1.094  11.103   4.059 -0.4693  0.3535 -0.4531
   37MOL0     C 4972   0.958  11.113   4.028 -1.2076 -0.6205 -0.8289
   37MOL0     C 4973   0.920  11.160   3.907 -0.3267  0.1082  0.0269
   37MOL0     C 4974   0.783  11.157   3.873  0.2478 -0.3573 -0.0616
   37MOL0     C 4975   0.685  11.101   3.957  0.3921 -0.0214 -0.3695
   37MOL0     O 4976   0.558  11.099   3.910 -0.2699 -0.1932  0.3938
   37MOL0     C 4977   0.455  11.087   4.001 -0.2161 -0.1372  0.1123
   37MOL0     C 4978   0.315  11.095   3.934 -0.4371 -0.7204 -0.5684
   37MOL0     C 4979   0.199  11.074   4.036  0.1174  0.3753 -0.0026
   37MOL0     C 4980   0.081  11.075   3.937  0.9482 -0.2043  0.8750
   37MOL0     C 4981  -0.061  11.055   4.006 -0.5180  0.2145  1.7286
   37MOL0     C 4982  -0.169  11.028   3.900  0.7361  0.4334  0.0969
   37MOL0     C 4983  -0.307  11.031   3.970  0.1900  0.1953 -0.6640
   37MOL0     C 4984  -0.394  10.932   3.894  0.5003  0.8616 -0.5634
   37MOL0     N 4985  -0.533  10.942   3.941 -0.9873 -0.5608 -0.0147
   37MOL0     C 4986  -0.592  10.831   3.997 -0.5821 -0.3766 -0.2502
   37MOL0     C 4987  -0.716  10.857   3.980  0.6331  1.0629 -1.3888
   37MOL0     C 4988  -0.830  10.752   4.009 -0.2741 -0.5738  0.7219
   37MOL0     C 4989  -0.882  10.764   4.156 -0.1138  0.1709  0.4805
   37MOL0     C 4990  -0.965  10.641   4.213  1.1206 -0.0518  0.9797
   37MOL0     C 4991  -1.088  10.621   4.114  0.4387 -0.4803  0.0774
   37MOL0     O 4992  -1.188  10.718   4.145 -0.3118  0.0466  0.1080
   37MOL0     C 4993  -1.274  10.700   4.247  0.4435  0.4676 -1.3313
   37MOL0     C 4994  -1.296  10.584   4.315  0.2227 -0.0025 -0.8503
   37MOL0     C 4995  -1.395  10.575   4.412  0.0002  1.2146 -0.6839
   37MOL0     C 4996  -1.405  10.459   4.512 -0.3971 -0.2043  0.9980
   37MOL0     C 4997  -1.494  10.675   4.421  0.3098 -0.3149  0.0288
   37MOL0     C 4998  -1.622  10.660   4.503 -1.4509 -0.7486 -0.2674
   37MOL0     O 4999  -1.665  10.779   4.552 -0.3370  0.1587 -0.3548
   37MOL0     C 5000  -1.775  10.772   4.637 -0.5766 -0.6244 -0.2762
   37MOL0     C 5001  -1.903  10.812   4.590 -1.1268  0.7237 -0.1581
   37MOL0     C 5002  -2.007  10.826   4.684 -0.2330 -0.4249 -0.3661
   37MOL0     C 5003  -1.985  10.812   4.820  0.3902  0.2029  0.5151
   37MOL0     O 5004  -2.102  10.844   4.888 -0.3255 -0.5487 -0.0520
   37MOL0     C 5005  -2.110  10.808   5.025  0.2383  0.3044 -0.1996
   37MOL0     C 5006  -2.252  10.840   5.057 -0.1613  0.4727 -0.2996
   37MOL0     C 5007  -2.265  10.835   5.211  0.2281 -0.2302 -0.2562
   37MOL0     C 5008  -2.386  10.749   5.252  0.1378 -0.4815  0.5567
   37MOL0     C 5009  -2.393  10.727   5.407 -0.2912 -0.1256  0.2381
   37MOL0     C 5010  -2.451  10.859   5.468 -0.2734 -0.7523 -0.0284
   37MOL0     C 5011  -2.410  10.872   5.614  0.5704  0.5085 -0.2234
   37MOL0     C 5012  -2.501  10.793   5.709  0.0533  0.2672  0.9253
   37MOL0    Cl 5013  -2.667  10.861   5.698 -0.1556  0.2512  0.2666
   37MOL0     C 5014  -1.867  10.765   4.865  0.4741  0.4325  0.2394
   37MOL0     C 5015  -1.759  10.751   4.774 -0.4353 -0.1016 -0.0278
   37MOL0     O 5016  -1.681  10.549   4.501 -0.6913 -0.2422  0.0637
   37MOL0     C 5017  -1.481  10.786   4.335  0.2934  1.0029  0.5822
   37MOL0     C 5018  -1.368  10.796   4.255 -1.3750 -0.4930  1.0765
   37MOL0     N 5019  -0.744  10.971   3.911  0.5539 -0.6389  0.3175
   37MOL0     N 5020  -0.629  11.020   3.888 -0.0921  0.5407  0.0793
   37MOL0     C 5021   0.738  11.041   4.071  0.4047 -1.4314 -0.8145
   37MOL0     C 5022   0.870  11.038   4.105 -0.5134  1.2442  0.2382
   37MOL0     C 5023   1.318  11.191   4.067 -0.2949  0.4335 -0.5849
   37MOL0     C 5024   1.357  11.051   4.091 -0.9998  0.4548 -1.6247
   37MOL0     C 5025   1.494  11.025   4.103  0.1784 -0.0031 -0.0380
   37MOL0     C 5026   1.589  11.126   4.099  0.1635  0.3840  1.2445
   37MOL0     O 5027   1.729  11.102   4.100  0.3780 -0.5370 -0.2371
   37MOL0     C 5028   1.800  11.165   4.211  0.6368 -0.0001 -0.2672
   37MOL0     C 5029   1.929  11.109   4.281 -0.1150 -0.6031  0.3995
   37MOL0     C 5030   1.966  11.179   4.408  0.5158  0.4614  0.4442
   37MOL0     C 5031   2.100  11.146   4.460 -0.4423  0.6446 -1.4159
   37MOL0     C 5032   2.124  11.207   4.591 -0.0209 -0.0138 -0.1836
   37MOL0     C 5033   2.131  11.270   4.693 -0.5608 -0.3512 -0.2913
   37MOL0     C 5034   1.547  11.254   4.070  0.7803 -0.2291  0.4486
   37MOL0     C 5035   1.411  11.289   4.052  0.3139 -0.3186  0.1377
   37MOL0     C 5036   1.395  11.434   4.020  0.4435  0.3918 -0.2648
   37MOL0     H 5037   1.000  11.197   3.844 -1.2913 -0.3753 -1.5460
   37MOL0     H 5038   0.740  11.202   3.784 -2.0043 -0.0398  1.1116
   37MOL0     H 5039   0.467  11.158   4.084  1.3381  1.4207 -1.3651
   37MOL0     H 5040   0.460  10.989   4.049  2.3472  0.5542  1.4613
   37MOL0     H 5041   0.299  11.192   3.886 -0.6652 -0.5833 -0.2192
   37MOL0     H 5042   0.317  11.026   3.849  3.3656 -0.1556 -1.0936
   37MOL0     H 5043   0.211  10.973   4.077 -1.1010  0.0727 -0.3486
   37MOL0     H 5044   0.191  11.148   4.115 -1.6384  0.3142 -0.0843
   37MOL0     H 5045   0.069  11.163   3.873  0.0241 -1.4243 -0.7167
   37MOL0     H 5046   0.092  10.999   3.859 -1.8537  0.2787 -0.0802
   37MOL0     H 5047  -0.079  11.149   4.059 -0.4130  0.2740  1.6588
   37MOL0     H 5048  -0.060  10.970   4.075  0.4853  0.6859  2.3260
   37MOL0     H 5049  -0.164  11.107   3.825  0.2539 -0.6770 -1.1282
   37MOL0     H 5050  -0.134  10.930   3.867  1.8238  0.5901  0.7269
   37MOL0     H 5051  -0.348  11.132   3.960  0.6119  0.5093  0.5525
   37MOL0     H 5052  -0.312  11.002   4.076 -0.8467  0.6000 -0.5933
   37MOL0     H 5053  -0.394  10.940   3.785  0.1757  1.6897 -0.5094
   37MOL0     H 5054  -0.360  10.832   3.921 -3.4889 -0.8502 -1.2544
   37MOL0     H 5055  -0.544  10.742   4.036 -0.9856 -0.4522  0.0797
   37MOL0     H 5056  -0.778  10.656   4.007  2.6682  0.6174  4.8953
   37MOL0     H 5057  -0.908  10.767   3.935 -0.5573  1.7718  1.4193
   37MOL0     H 5058  -0.796  10.776   4.222  0.4014  1.6670 -0.4015
   37MOL0     H 5059  -0.947  10.852   4.163 -0.6198  0.0658 -1.9732
   37MOL0     H 5060  -0.898  10.555   4.211  1.7132  0.3626  2.0497
   37MOL0     H 5061  -1.000  10.665   4.314 -1.6730  0.6228 -0.0735
   37MOL0     H 5062  -1.044  10.616   4.014 -0.6272 -1.1883 -0.3774
   37MOL0     H 5063  -1.135  10.522   4.117  2.1571 -1.4377 -2.0999
   37MOL0     H 5064  -1.226  10.503   4.304  2.9513  2.3488 -2.1377
   37MOL0     H 5065  -1.473  10.380   4.478 -0.9875  1.3903 -1.9263
   37MOL0     H 5066  -1.425  10.491   4.614 -0.8359  2.0586  0.2567
   37MOL0     H 5067  -1.308  10.408   4.519 -0.3288 -0.3906 -0.7613
   37MOL0     H 5068  -1.913  10.813   4.482  1.8334 -1.5794 -0.5931
   37MOL0     H 5069  -2.104  10.859   4.648 -0.5328  1.3285  1.8021
   37MOL0     H 5070  -2.082  10.704   5.046 -3.1580 -0.8242 -0.6734
   37MOL0     H 5071  -2.042  10.874   5.080 -0.8530  0.8028  0.5867
   37MOL0     H 5072  -2.279  10.941   5.024  1.1422  1.1824  0.7045
   37MOL0     H 5073  -2.322  10.776   5.002 -0.3596 -0.3340  0.8539
   37MOL0     H 5074  -2.275  10.937   5.248  0.5394  0.0698 -0.9648
   37MOL0     H 5075  -2.181  10.779   5.254  0.5653 -0.9332 -1.7626
   37MOL0     H 5076  -2.387  10.652   5.201 -1.9973 -1.0906  1.5923
   37MOL0     H 5077  -2.476  10.804   5.222  1.3190  0.3319 -1.6950
   37MOL0     H 5078  -2.434  10.629   5.434  0.1214 -0.1009  1.0027
   37MOL0     H 5079  -2.289  10.710   5.437 -0.5961 -1.9835  0.3844
   37MOL0     H 5080  -2.560  10.857   5.462 -0.2524  0.6475 -2.3185
   37MOL0     H 5081  -2.419  10.949   5.413  2.2627 -0.3609  1.9166
   37MOL0     H 5082  -2.407  10.977   5.644  0.6667 -0.5562  4.0785
   37MOL0     H 5083  -2.309  10.831   5.624 -0.1635 -1.4950 -0.5661
   37MOL0     H 5084  -2.467  10.788   5.813 -1.9651 -0.3740  1.5985
   37MOL0     H 5085  -2.513  10.694   5.664 -1.9857  1.0066 -0.2911
   37MOL0     H 5086  -1.855  10.743   4.971 -1.7308 -0.7446  0.3122
   37MOL0     H 5087  -1.663  10.714   4.808  0.1354  1.6099  0.3387
   37MOL0     H 5088  -1.564  10.856   4.322 -1.6956 -1.4475 -1.0487
   37MOL0     H 5089  -1.360  10.872   4.178 -0.9548  0.9952  2.5239
   37MOL0     H 5090   0.684  10.981   4.144  0.0728  1.1016  1.2103
   37MOL0     H 5091   0.908  10.976   4.186  2.4084  2.1247 -0.3411
   37MOL0     H 5092   1.292  10.965   4.098  0.7971 -0.9972 -2.0645
   37MOL0     H 5093   1.518  10.921   4.120  2.2995  0.2501 -1.2446
   37MOL0     H 5094   1.828  11.263   4.171 -0.7319 -0.3077 -2.1057
   37MOL0     H 5095   1.728  11.164   4.294  2.1264  0.0240  1.0736
   37MOL0     H 5096   2.004  11.113   4.201  0.1340  0.4939  0.6689
   37MOL0     H 5097   1.915  11.003   4.300 -0.2567 -0.6359  0.1176
   37MOL0     H 5098   1.960  11.288   4.402  3.2216  0.7155  1.0176
   37MOL0     H 5099   1.881  11.142   4.466  0.6708 -0.3156  0.1814
   37MOL0     H 5100   2.168  11.185   4.384  0.4585 -2.0186 -2.1013
   37MOL0     H 5101   2.111  11.038   4.474  0.1504  0.7813 -0.7345
   37MOL0     H 5102   2.143  11.324   4.784  1.6990 -0.6109 -0.3865
   37MOL0     H 5103   1.621  11.333   4.065 -0.7296  1.1832 -3.6322
   37MOL0     H 5104   1.374  11.453   3.914 -2.0850  1.7286  0.3980
   37MOL0     H 5105   1.316  11.470   4.086 -0.3436 -0.3622 -0.7784
   37MOL0     H 5106   1.491  11.482   4.043  0.8420 -1.5330  2.6218
   38MOL0     O 5107   3.563   4.569   1.068  0.0349 -0.0366 -0.3221
   38MOL0     C 5108   3.628   4.671   1.073 -0.0149 -1.0422 -0.6696
   38MOL0     O 5109   3.579   4.802   1.056  0.4177  0.0383 -0.5709
   38MOL0     C 5110   3.446   4.832   1.059  0.3396 -0.4320  0.0525
   38MOL0     C 5111   3.421   4.950   0.990  0.4758 -1.0233 -0.3995
   38MOL0     C 5112   3.290   5.002   0.986 -0.0661 -0.6058  0.2249
   38MOL0     C 5113   3.182   4.946   1.046  0.2339  0.6607 -0.7353
   38MOL0     O 5114   3.059   5.018   1.045 -0.4623 -0.9702 -0.2328
   38MOL0     C 5115   3.030   5.089   0.924  0.1559  0.4008  0.0899
   38MOL0     C 5116   2.885   5.125   0.925  0.1856 -0.3471  0.5879
   38MOL0     C 5117   2.804   5.002   0.884  0.2502  0.4837  0.4836
   38MOL0     C 5118   2.653   5.024   0.860 -0.2449 -0.2317 -0.4192
   38MOL0     C 5119   2.574   4.891   0.871  0.1471 -0.1374 -0.1763
   38MOL0     C 5120   2.601   4.791   0.751  0.2072 -0.1575  0.7221
   38MOL0     C 5121   2.489   4.699   0.712  0.4991  0.9092 -0.6187
   38MOL0     C 5122   2.479   4.571   0.793 -0.0168  1.3936 -0.5703
   38MOL0     N 5123   2.410   4.465   0.718  0.5165  0.1416  0.6940
   38MOL0     C 5124   2.274   4.453   0.727  0.2839  0.3098 -0.5033
   38MOL0     C 5125   2.239   4.355   0.632 -0.0836 -1.0378 -0.5794
   38MOL0     C 5126   2.103   4.303   0.611  0.4099 -0.7088 -1.0686
   38MOL0     C 5127   2.059   4.191   0.700 -0.2395  0.7692  0.0765
   38MOL0     C 5128   1.926   4.131   0.638  0.5458  0.1350 -0.0744
   38MOL0     C 5129   1.881   4.017   0.733  0.0715 -0.0388 -0.2386
   38MOL0     O 5130   1.742   3.981   0.728  0.2862 -0.0527  0.1366
   38MOL0     C 5131   1.698   3.854   0.753  0.2170 -0.2367  0.1397
   38MOL0     C 5132   1.745   3.740   0.685 -1.2364  0.5086 -0.3597
   38MOL0     C 5133   1.690   3.615   0.715  0.3994  0.4310  0.3439
   38MOL0     C 5134   1.748   3.489   0.637 -1.2056 -0.4673 -0.8454
   38MOL0     C 5135   1.591   3.607   0.824 -0.4637  0.6612 -0.2265
   38MOL0     C 5136   1.527   3.476   0.853 -0.5942  1.0621  0.0233
   38MOL0     O 5137   1.466   3.475   0.968  0.3058 -0.1422  0.3931
   38MOL0     C 5138   1.396   3.366   1.017  0.1760 -0.6500 -0.3710
   38MOL0     C 5139   1.372   3.243   0.952 -0.3119  0.3689 -0.0783
   38MOL0     C 5140   1.297   3.144   1.015 -0.7473  0.4969  0.4927
   38MOL0     C 5141   1.226   3.161   1.132 -0.7412  0.2023  0.4523
   38MOL0     O 5142   1.165   3.056   1.186 -0.3425 -0.7440  0.3659
   38MOL0     C 5143   1.036   3.070   1.259 -0.2286  1.1517 -0.5198
   38MOL0     C 5144   1.002   2.929   1.312  0.2533 -0.1843  0.7741
   38MOL0     C 5145   0.878   2.948   1.413  0.4770 -0.5557 -0.3462
   38MOL0     C 5146   0.744   2.975   1.341 -0.3877 -0.4581  0.0341
   38MOL0     C 5147   0.641   3.025   1.444 -0.4736 -0.5954  0.2401
   38MOL0     C 5148   0.667   3.170   1.486  0.2588 -1.4229  0.1868
   38MOL0     C 5149   0.602   3.216   1.623  0.2721 -0.8159 -0.9261
   38MOL0     C 5150   0.453   3.204   1.610  0.3578 -0.1685 -0.2063
   38MOL0    Cl 5151   0.374   3.291   1.740  0.1598 -0.1688 -0.4540
   38MOL0     C 5152   1.236   3.285   1.190  0.0212 -0.0297 -0.0163
   38MOL0     C 5153   1.323   3.380   1.136  0.2371 -0.3779 -0.3330
   38MOL0     O 5154   1.520   3.394   0.761  0.3452 -0.9287  0.0026
   38MOL0     C 5155   1.562   3.719   0.898  0.4767  0.1482 -0.5442
   38MOL0     C 5156   1.618   3.836   0.860  0.6670 -1.0426  0.4743
   38MOL0     N 5157   2.359   4.323   0.566  0.4631  0.7352  0.3259
   38MOL0     N 5158   2.458   4.391   0.616  0.3813 -0.3879 -0.5209
   38MOL0     C 5159   3.206   4.825   1.124 -0.7249 -0.3490  1.0109
   38MOL0     C 5160   3.337   4.770   1.121  0.5576  0.0581  0.0943
   38MOL0     C 5161   3.781   4.661   1.096 -0.7559  0.2227 -0.3377
   38MOL0     C 5162   3.857   4.781   1.088  0.5045  0.5120 -0.7341
   38MOL0     C 5163   3.995   4.785   1.116  0.2217 -0.2327 -0.8309
   38MOL0     C 5164   4.059   4.668   1.146 -0.4343 -0.3123 -0.2619
   38MOL0     O 5165   4.196   4.658   1.176  0.5988 -0.0514  0.0677
   38MOL0     C 5166   4.291   4.769   1.152 -0.4582  1.0170 -0.0189
   38MOL0     C 5167   4.329   4.776   1.006 -0.3791  0.8230  0.3431
   38MOL0     C 5168   4.366   4.639   0.940 -1.0982  0.1279  0.2672
   38MOL0     C 5169   4.404   4.668   0.796  0.1343 -0.6967 -0.2318
   38MOL0     C 5170   4.434   4.531   0.732 -0.0329 -0.8836 -0.5558
   38MOL0     C 5171   4.461   4.427   0.675 -0.1176  0.3431  1.0089
   38MOL0     C 5172   3.989   4.549   1.157  0.5200 -0.1885  1.0762
   38MOL0     C 5173   3.849   4.547   1.132  0.8615  0.4831 -0.2409
   38MOL0     C 5174   3.785   4.410   1.139  0.1090 -0.1439 -0.0613
   38MOL0     H 5175   3.512   4.985   0.942  0.4003  0.0538  0.2049
   38MOL0     H 5176   3.277   5.090   0.924 -3.1193  0.4877  2.1895
   38MOL0     H 5177   3.052   5.023   0.840  1.8632 -1.1526  1.6565
   38MOL0     H 5178   3.090   5.179   0.906  2.7250 -1.6416 -2.5254
   38MOL0     H 5179   2.831   5.157   1.015 -0.6692 -0.9367  0.3036
   38MOL0     H 5180   2.867   5.210   0.859  0.6744 -1.0144 -0.4297
   38MOL0     H 5181   2.843   4.954   0.793 -2.7006  2.1056 -1.8206
   38MOL0     H 5182   2.818   4.936   0.970 -1.8396 -1.1104 -0.2877
   38MOL0     H 5183   2.618   5.084   0.944 -1.9102 -0.8122 -0.6627
   38MOL0     H 5184   2.639   5.077   0.766 -0.3371 -2.2181 -1.5874
   38MOL0     H 5185   2.466   4.908   0.877  0.1746  0.2557 -0.7025
   38MOL0     H 5186   2.599   4.851   0.970 -1.5399 -0.1830  0.2562
   38MOL0     H 5187   2.628   4.846   0.661 -0.6771 -2.4159 -1.0354
   38MOL0     H 5188   2.685   4.723   0.773 -0.2034 -1.3161 -1.0941
   38MOL0     H 5189   2.509   4.662   0.611  0.4336 -0.6381 -0.0866
   38MOL0     H 5190   2.391   4.747   0.709 -0.4314 -0.9283 -2.0377
   38MOL0     H 5191   2.577   4.532   0.818  0.1608  2.1002 -0.1315
   38MOL0     H 5192   2.422   4.602   0.881 -3.8257 -3.8670 -0.7223
   38MOL0     H 5193   2.204   4.509   0.787 -1.6901  1.9874 -4.0382
   38MOL0     H 5194   2.087   4.274   0.507 -2.3772  1.5138 -1.3793
   38MOL0     H 5195   2.027   4.382   0.621  2.5213  1.6387 -2.3237
   38MOL0     H 5196   2.136   4.114   0.695  1.7525  2.6554  0.1531
   38MOL0     H 5197   2.066   4.227   0.803 -0.3824  1.2213 -0.0678
   38MOL0     H 5198   1.844   4.204   0.640  0.5270  0.1634 -1.3641
   38MOL0     H 5199   1.950   4.107   0.534 -0.0496 -2.6058  0.3444
   38MOL0     H 5200   1.941   3.929   0.707  0.6605  0.3166 -0.0873
   38MOL0     H 5201   1.895   4.033   0.840 -2.7349 -2.6441  0.6653
   38MOL0     H 5202   1.832   3.731   0.621  1.4241  0.9535  2.9378
   38MOL0     H 5203   1.802   3.415   0.696  1.7443  0.8600 -1.6681
   38MOL0     H 5204   1.826   3.514   0.565 -1.4576 -1.3181 -1.4321
   38MOL0     H 5205   1.666   3.436   0.588 -1.8457  2.1605 -2.8585
   38MOL0     H 5206   1.410   3.211   0.855  0.7654 -0.3600  0.5503
   38MOL0     H 5207   1.300   3.045   0.972 -1.2047  1.4574 -1.8985
   38MOL0     H 5208   1.052   3.135   1.345 -3.0823  0.5583  0.5560
   38MOL0     H 5209   0.964   3.107   1.185 -1.1067 -1.8192 -1.2993
   38MOL0     H 5210   0.973   2.870   1.224  0.7289 -2.1694  1.8883
   38MOL0     H 5211   1.094   2.882   1.348  1.3244  2.2430  1.4012
   38MOL0     H 5212   0.898   3.029   1.484 -1.9593 -2.0850  2.2733
   38MOL0     H 5213   0.875   2.857   1.474  0.1865 -0.5136 -0.2962
   38MOL0     H 5214   0.722   2.875   1.302  0.3664 -0.4477 -0.4284
   38MOL0     H 5215   0.747   3.042   1.255  0.8139 -0.3516  0.1475
   38MOL0     H 5216   0.539   3.036   1.404 -0.1018  1.5276 -0.2405
   38MOL0     H 5217   0.650   2.955   1.526  0.1253 -2.3177 -1.2314
   38MOL0     H 5218   0.639   3.241   1.409 -2.9898 -1.2665  1.3411
   38MOL0     H 5219   0.776   3.182   1.495  0.4682 -3.1634  0.4298
   38MOL0     H 5220   0.630   3.319   1.645  1.2470 -1.8526  3.5256
   38MOL0     H 5221   0.640   3.148   1.700  2.3710 -1.2638 -2.2748
   38MOL0     H 5222   0.420   3.100   1.610 -1.7842  0.4350 -1.3788
   38MOL0     H 5223   0.408   3.238   1.516  0.2522 -0.3090 -0.2072
   38MOL0     H 5224   1.193   3.314   1.285  1.6169 -0.9165  1.0164
   38MOL0     H 5225   1.346   3.480   1.174  0.1083 -0.4801  0.0128
   38MOL0     H 5226   1.503   3.711   0.988 -1.1867  2.7108 -1.2952
   38MOL0     H 5227   1.581   3.920   0.919 -1.0693 -0.8062 -0.8807
   38MOL0     H 5228   3.120   4.770   1.160 -2.1351  0.5606 -0.8172
   38MOL0     H 5229   3.347   4.673   1.169 -0.0837  0.1245  0.3644
   38MOL0     H 5230   3.809   4.875   1.063 -1.3966 -1.1235 -3.9725
   38MOL0     H 5231   4.055   4.876   1.113  0.4546 -0.2585  1.5085
   38MOL0     H 5232   4.253   4.867   1.179 -1.3335  2.2295 -4.7931
   38MOL0     H 5233   4.378   4.741   1.214 -1.0514 -1.1212 -0.0528
   38MOL0     H 5234   4.411   4.847   0.991  2.1669 -1.0593  3.7330
   38MOL0     H 5235   4.242   4.826   0.963  0.4656  2.4113  0.3837
   38MOL0     H 5236   4.454   4.601   0.992 -1.3952  0.7975  1.2814
   38MOL0     H 5237   4.286   4.566   0.929  0.8575 -1.8471 -1.7700
   38MOL0     H 5238   4.493   4.730   0.780 -1.2217  0.7433 -2.9423
   38MOL0     H 5239   4.323   4.705   0.732  0.9368  0.6728 -0.4999
   38MOL0     H 5240   4.492   4.331   0.638  0.0158 -0.6538  3.5039
   38MOL0     H 5241   4.026   4.449   1.180 -3.0710 -2.1718 -0.7946
   38MOL0     H 5242   3.734   4.377   1.048  2.6420  0.9652 -2.0056
   38MOL0     H 5243   3.870   4.342   1.149 -0.0432 -0.3460 -0.1142
   38MOL0     H 5244   3.714   4.395   1.222  1.1261 -1.2251  0.6545
   39MOL0     O 5245   4.433   0.087   8.103  0.2569  0.3496  0.1377
   39MOL0     C 5246   4.483  -0.008   8.167  0.5776 -0.8008 -0.6461
   39MOL0     O 5247   4.453  -0.138   8.167  0.7853 -0.3077  0.1058
   39MOL0     C 5248   4.312  -0.177   8.156 -0.9535  1.4407  0.2308
   39MOL0     C 5249   4.206  -0.087   8.162 -1.2340 -0.1386  0.9088
   39MOL0     C 5250   4.084  -0.149   8.140  0.1964 -0.5189 -0.7450
   39MOL0     C 5251   4.062  -0.283   8.108 -0.9951 -0.2845  0.3434
   39MOL0     O 5252   3.947  -0.353   8.104  0.0858  0.5270 -2.0170
   39MOL0     C 5253   3.816  -0.295   8.138 -0.7005  0.1543  0.6007
   39MOL0     C 5254   3.709  -0.391   8.159  0.5938 -1.1135 -0.6398
   39MOL0     C 5255   3.692  -0.497   8.047 -0.0031  0.2223 -0.3353
   39MOL0     C 5256   3.609  -0.605   8.116 -0.0344  0.0286 -0.7617
   39MOL0     C 5257   3.555  -0.702   8.011 -0.2151 -0.8263 -0.8016
   39MOL0     C 5258   3.442  -0.773   8.078  1.1371  0.3488  0.2076
   39MOL0     C 5259   3.389  -0.874   7.976 -0.1085  0.5572  0.0687
   39MOL0     C 5260   3.261  -0.946   8.017 -1.0900 -0.4489 -0.4249
   39MOL0     N 5261   3.196  -1.017   7.903  0.3839  0.0952 -0.5648
   39MOL0     C 5262   3.185  -1.155   7.889 -0.6464 -0.1911  0.3210
   39MOL0     C 5263   3.112  -1.168   7.776  0.4725  0.2070 -0.0668
   39MOL0     C 5264   3.080  -1.306   7.717  0.0224 -0.5897 -1.0567
   39MOL0     C 5265   2.929  -1.322   7.687 -0.2522 -0.3278  0.6012
   39MOL0     C 5266   2.902  -1.447   7.607  0.0831  0.6009  0.4609
   39MOL0     C 5267   2.751  -1.470   7.588  0.3747 -0.1257  0.2278
   39MOL0     O 5268   2.700  -1.515   7.716  0.0331  0.3095  0.0893
   39MOL0     C 5269   2.577  -1.582   7.724  0.4009  0.1826  0.0560
   39MOL0     C 5270   2.479  -1.563   7.632  0.2385  0.8756 -0.1351
   39MOL0     C 5271   2.345  -1.597   7.654  0.0860  0.2158 -1.0715
   39MOL0     C 5272   2.242  -1.572   7.548 -0.0866 -0.5493 -0.5433
   39MOL0     C 5273   2.309  -1.660   7.776 -0.0621  0.5653  0.3781
   39MOL0     C 5274   2.177  -1.713   7.805  0.3193 -0.4206  0.3448
   39MOL0     O 5275   2.099  -1.766   7.704  0.1415  0.1567 -0.3234
   39MOL0     C 5276   1.965  -1.760   7.723 -0.2677 -0.3944 -0.2691
   39MOL0     C 5277   1.886  -1.882   7.745  0.7815 -0.0258  0.6275
   39MOL0     C 5278   1.744  -1.865   7.761 -0.7258  0.0693 -0.5781
   39MOL0     C 5279   1.680  -1.740   7.766  0.8945  0.2390 -0.0635
   39MOL0     O 5280   1.546  -1.739   7.799 -0.1893  0.0281 -0.4709
   39MOL0     C 5281   1.464  -1.626   7.789  0.2416 -0.3315 -0.4999
   39MOL0     C 5282   1.332  -1.654   7.859 -0.2109 -0.0124 -0.0691
   39MOL0     C 5283   1.228  -1.546   7.817 -0.5743  0.2409  0.6782
   39MOL0     C 5284   1.086  -1.564   7.878 -0.4514  0.0275  0.4985
   39MOL0     C 5285   0.993  -1.437   7.839  0.1206 -0.1124  0.0493
   39MOL0     C 5286   0.859  -1.468   7.896  0.3721  0.8158 -0.4001
   39MOL0     C 5287   0.740  -1.370   7.891  1.0133 -0.3637  0.1315
   39MOL0     C 5288   0.730  -1.254   8.002  0.0289  0.0538  0.7013
   39MOL0    Cl 5289   0.708  -1.333   8.167 -0.0111 -0.0479 -0.2491
   39MOL0     C 5290   1.758  -1.627   7.738 -1.1018  0.3215  0.9685
   39MOL0     C 5291   1.899  -1.636   7.724  0.2880 -0.3644 -0.8248
   39MOL0     O 5292   2.138  -1.701   7.921 -0.4313  0.5476  0.2022
   39MOL0     C 5293   2.406  -1.682   7.872 -0.1996  0.3898  0.2115
   39MOL0     C 5294   2.536  -1.642   7.844  0.3070 -0.3680 -1.2198
   39MOL0     N 5295   3.076  -1.042   7.729  0.2165  0.5772  0.0518
   39MOL0     N 5296   3.137  -0.959   7.800 -0.1297 -0.2092 -0.5974
   39MOL0     C 5297   4.181  -0.360   8.078  0.2666 -0.0470  0.1491
   39MOL0     C 5298   4.302  -0.312   8.106  0.6179 -0.7962 -0.2962
   39MOL0     C 5299   4.591   0.029   8.263 -0.3978 -0.2343 -0.3626
   39MOL0     C 5300   4.614  -0.051   8.378  0.5775 -0.6044 -0.0463
   39MOL0     C 5301   4.699  -0.014   8.478 -0.8154  0.1240  0.2298
   39MOL0     C 5302   4.774   0.097   8.477 -0.3844  0.1927 -0.3094
   39MOL0     O 5303   4.866   0.116   8.581  0.7842  0.8780 -0.2249
   39MOL0     C 5304   4.966   0.216   8.578  0.8066 -0.2131  0.0218
   39MOL0     C 5305   5.080   0.192   8.476 -0.9161  0.9333  0.4377
   39MOL0     C 5306   5.154   0.058   8.499  0.1430 -0.6301  0.5419
   39MOL0     C 5307   5.232   0.044   8.632 -0.2270  0.0431  0.5128
   39MOL0     C 5308   5.343   0.139   8.633  0.0252  0.8323  1.0509
   39MOL0     C 5309   5.445   0.203   8.651 -0.4569  0.1364  0.4587
   39MOL0     C 5310   4.772   0.167   8.362  0.0558 -0.6592 -0.0893
   39MOL0     C 5311   4.679   0.148   8.256 -0.0765  1.1784  0.6049
   39MOL0     C 5312   4.692   0.244   8.136  1.0350  0.4900  0.7204
   39MOL0     H 5313   4.226   0.017   8.188  2.0865  0.1390 -1.9833
   39MOL0     H 5314   3.996  -0.091   8.167 -0.8153 -2.0610 -0.5705
   39MOL0     H 5315   3.791  -0.231   8.052  0.9878  0.8583  0.5956
   39MOL0     H 5316   3.823  -0.245   8.235 -2.5740 -0.1830  0.9520
   39MOL0     H 5317   3.727  -0.434   8.258 -4.1692  1.5010  1.7126
   39MOL0     H 5318   3.622  -0.326   8.173  1.1933 -0.4834  0.2877
   39MOL0     H 5319   3.654  -0.456   7.953  1.6025  4.0417  0.5040
   39MOL0     H 5320   3.789  -0.541   8.024 -0.9519 -3.8717  2.2607
   39MOL0     H 5321   3.680  -0.659   8.179 -0.3591 -0.6983 -1.0090
   39MOL0     H 5322   3.531  -0.565   8.181  1.7690 -1.1170  2.2955
   39MOL0     H 5323   3.639  -0.763   7.976  0.0493 -2.1309  1.8773
   39MOL0     H 5324   3.503  -0.649   7.930 -2.1927 -0.5459  0.5678
   39MOL0     H 5325   3.479  -0.823   8.167  2.2926  3.8001  1.8545
   39MOL0     H 5326   3.358  -0.707   8.104 -0.0717 -1.1944  0.3976
   39MOL0     H 5327   3.460  -0.956   7.961 -1.0331 -0.5858  1.6587
   39MOL0     H 5328   3.382  -0.824   7.878  1.6045  1.7686  0.5276
   39MOL0     H 5329   3.279  -1.020   8.095  0.6784  0.7515  0.3529
   39MOL0     H 5330   3.200  -0.868   8.063  2.2514  1.0387  1.8047
   39MOL0     H 5331   3.235  -1.236   7.941  0.3162 -0.6982 -1.3285
   39MOL0     H 5332   3.107  -1.388   7.784 -4.0671 -1.2642  0.0807
   39MOL0     H 5333   3.137  -1.321   7.625  1.9235 -0.4013  0.0433
   39MOL0     H 5334   2.879  -1.313   7.783 -1.9752  1.5582 -0.4060
   39MOL0     H 5335   2.896  -1.230   7.639 -0.3108 -0.0281  1.2128
   39MOL0     H 5336   2.951  -1.456   7.510  0.3187 -2.3989  0.7547
   39MOL0     H 5337   2.942  -1.535   7.659 -1.4864 -0.1158  0.5122
   39MOL0     H 5338   2.709  -1.374   7.557  3.4657  1.0070 -0.9325
   39MOL0     H 5339   2.745  -1.553   7.516  2.4595 -0.3299  0.2148
   39MOL0     H 5340   2.506  -1.521   7.536 -0.4725 -3.1788 -2.3029
   39MOL0     H 5341   2.243  -1.664   7.489  0.2265 -1.1514  0.3863
   39MOL0     H 5342   2.288  -1.498   7.482  2.3347  1.3267  2.9112
   39MOL0     H 5343   2.138  -1.554   7.577 -0.0201  2.2066 -1.6440
   39MOL0     H 5344   1.936  -1.977   7.758  3.4191  1.0945 -0.6122
   39MOL0     H 5345   1.682  -1.951   7.785  0.0282  0.0609  1.5008
   39MOL0     H 5346   1.522  -1.551   7.844  0.3175  0.3719 -1.5112
   39MOL0     H 5347   1.448  -1.606   7.683 -0.4819 -0.6381 -0.4523
   39MOL0     H 5348   1.303  -1.758   7.846  0.0332 -0.1800  0.6727
   39MOL0     H 5349   1.356  -1.633   7.964 -0.9227  2.6948 -0.3697
   39MOL0     H 5350   1.216  -1.550   7.709 -1.2711  2.5407  0.6129
   39MOL0     H 5351   1.273  -1.449   7.841  2.3801 -1.1563  1.3307
   39MOL0     H 5352   1.095  -1.564   7.987 -3.5163  0.7779  0.8453
   39MOL0     H 5353   1.040  -1.653   7.835  1.3956 -0.6551 -0.1678
   39MOL0     H 5354   1.036  -1.343   7.874 -0.7132  0.4167 -0.3262
   39MOL0     H 5355   0.986  -1.431   7.730  0.8961  1.4018  0.0559
   39MOL0     H 5356   0.878  -1.500   7.999  1.8563 -1.9269 -1.4173
   39MOL0     H 5357   0.819  -1.558   7.849  0.2559 -2.1143  4.6090
   39MOL0     H 5358   0.651  -1.430   7.911 -0.9918  1.3880 -2.7706
   39MOL0     H 5359   0.730  -1.329   7.790 -2.4309  0.3008  0.6394
   39MOL0     H 5360   0.647  -1.186   7.981  2.8414  3.3764 -0.6222
   39MOL0     H 5361   0.827  -1.202   8.001  0.2582 -0.3611  1.0679
   39MOL0     H 5362   1.706  -1.533   7.719  0.3191  1.4607  2.4125
   39MOL0     H 5363   1.954  -1.548   7.693  0.4550  0.5826  1.9581
   39MOL0     H 5364   2.383  -1.745   7.957  1.2039 -0.2355  0.1587
   39MOL0     H 5365   2.613  -1.676   7.913  1.3889 -0.1942 -2.3066
   39MOL0     H 5366   4.160  -0.463   8.051  1.3011 -0.2338 -0.0034
   39MOL0     H 5367   4.393  -0.371   8.107  0.2839 -1.3309 -0.8951
   39MOL0     H 5368   4.555  -0.142   8.388  1.4242 -0.9635  2.1322
   39MOL0     H 5369   4.705  -0.072   8.569 -1.1236 -2.5145 -1.3356
   39MOL0     H 5370   4.915   0.312   8.571 -3.3228 -2.2261 -0.2495
   39MOL0     H 5371   5.019   0.211   8.673  1.8660  0.2606 -0.5262
   39MOL0     H 5372   5.151   0.275   8.477 -1.0717  1.1878 -2.5794
   39MOL0     H 5373   5.041   0.192   8.374  1.0853 -1.4900 -0.4489
   39MOL0     H 5374   5.086  -0.028   8.502  1.0008 -1.2837  3.2899
   39MOL0     H 5375   5.229   0.043   8.421  0.1775  0.7167  0.2941
   39MOL0     H 5376   5.280  -0.054   8.630  1.7135  0.9524  0.6640
   39MOL0     H 5377   5.167   0.047   8.720  2.5001 -0.3816  2.6829
   39MOL0     H 5378   5.541   0.249   8.655 -0.2501 -0.2831  0.4078
   39MOL0     H 5379   4.833   0.256   8.349 -0.6253  0.8548  4.9345
   39MOL0     H 5380   4.731   0.188   8.050 -0.9876 -0.3443  0.2898
   39MOL0     H 5381   4.595   0.285   8.105  0.6267 -1.6405 -1.1457
   39MOL0     H 5382   4.750   0.335   8.151 -0.6549  1.7613 -0.1280
   40MOL0     O 5383   3.840   3.721   6.821 -0.3782  0.0344  0.0066
   40MOL0     C 5384   3.729   3.736   6.784 -0.1378  0.1982 -0.0862
   40MOL0     O 5385   3.686   3.746   6.651 -0.2268  0.2501  0.2251
   40MOL0     C 5386   3.771   3.710   6.556 -0.4594 -0.5833 -0.0010
   40MOL0     C 5387   3.755   3.581   6.502  0.2778 -0.3860  0.1102
   40MOL0     C 5388   3.853   3.535   6.417 -0.6943 -0.8867  1.1492
   40MOL0     C 5389   3.971   3.607   6.390 -0.1532  0.0074 -0.6340
   40MOL0     O 5390   4.071   3.555   6.308 -0.7742  0.4898  0.3159
   40MOL0     C 5391   4.187   3.628   6.267 -0.0178 -0.0461 -0.6578
   40MOL0     C 5392   4.302   3.535   6.222 -0.6490 -0.9224  0.1523
   40MOL0     C 5393   4.259   3.470   6.084 -0.5253 -1.0155 -0.5117
   40MOL0     C 5394   4.391   3.381   6.051  0.8034 -0.0841  0.6379
   40MOL0     C 5395   4.397   3.329   5.905  0.6505  0.7062  0.2946
   40MOL0     C 5396   4.271   3.264   5.843  0.6480 -0.4521 -0.6056
   40MOL0     C 5397   4.287   3.256   5.690 -0.1022  0.2058 -0.7060
   40MOL0     C 5398   4.417   3.187   5.638 -0.1835  0.0098  1.1942
   40MOL0     N 5399   4.428   3.046   5.683 -0.4506  0.5493 -0.7596
   40MOL0     C 5400   4.388   2.932   5.608  0.3846  0.0702 -0.4754
   40MOL0     C 5401   4.441   2.826   5.682  0.0459  0.2439  0.3356
   40MOL0     C 5402   4.431   2.676   5.651 -0.2558 -0.0828 -0.2609
   40MOL0     C 5403   4.542   2.622   5.565  0.2189 -0.3432  0.1265
   40MOL0     C 5404   4.495   2.590   5.426 -0.2597 -0.5679  0.1414
   40MOL0     C 5405   4.612   2.534   5.339  0.0465  0.6901 -0.6467
   40MOL0     O 5406   4.661   2.642   5.262  0.7238  0.1269  0.6849
   40MOL0     C 5407   4.705   2.625   5.131 -0.2940  0.7054 -0.0621
   40MOL0     C 5408   4.782   2.509   5.081  1.3568 -0.2846 -0.9206
   40MOL0     C 5409   4.829   2.494   4.956 -0.4066 -0.2705  0.9476
   40MOL0     C 5410   4.918   2.371   4.922 -0.3549 -0.7668 -0.0260
   40MOL0     C 5411   4.813   2.600   4.865 -0.3290  0.3928 -0.2741
   40MOL0     C 5412   4.865   2.595   4.722 -0.5692  0.5335 -0.5436
   40MOL0     O 5413   4.942   2.695   4.690 -0.3100  0.0670 -0.0589
   40MOL0     C 5414   4.996   2.710   4.563  0.6465 -0.1219  0.6959
   40MOL0     C 5415   5.023   2.842   4.532 -0.2869 -0.5112  0.3476
   40MOL0     C 5416   5.061   2.888   4.401 -0.2825  0.4509 -0.9589
   40MOL0     C 5417   5.073   2.800   4.298  0.6548  0.4942  0.5946
   40MOL0     O 5418   5.119   2.838   4.176 -0.8229 -0.0449 -0.1694
   40MOL0     C 5419   5.102   2.975   4.131  0.6114 -0.1640  0.0459
   40MOL0     C 5420   5.196   2.999   4.009 -0.3447  0.0516 -0.2747
   40MOL0     C 5421   5.158   3.128   3.932 -0.3570  0.9570  0.2148
   40MOL0     C 5422   5.247   3.129   3.810 -0.9095  0.8969 -1.1543
   40MOL0     C 5423   5.217   3.262   3.742 -0.3894  0.0957  0.2304
   40MOL0     C 5424   5.286   3.276   3.607  0.5522  0.5922  0.6352
   40MOL0     C 5425   5.272   3.410   3.538  0.5047 -0.5329 -1.0013
   40MOL0     C 5426   5.397   3.437   3.447 -0.4406 -0.1037 -0.3078
   40MOL0    Cl 5427   5.374   3.575   3.342  0.1049  0.2570 -0.1882
   40MOL0     C 5428   5.056   2.665   4.326  0.6510  0.5921 -0.2329
   40MOL0     C 5429   5.013   2.618   4.457  0.6219 -0.6211  0.6208
   40MOL0     O 5430   4.851   2.493   4.659 -0.7641  0.2831  0.4695
   40MOL0     C 5431   4.748   2.719   4.909 -0.3812 -0.5606 -0.0531
   40MOL0     C 5432   4.690   2.727   5.039  0.5427 -0.6704 -0.6337
   40MOL0     N 5433   4.485   2.879   5.802 -0.0663 -0.6054  0.1673
   40MOL0     N 5434   4.484   3.009   5.803 -0.2980  0.8005  0.2693
   40MOL0     C 5435   3.974   3.738   6.437 -0.3483 -1.3099  0.0021
   40MOL0     C 5436   3.871   3.791   6.514  0.8680 -0.5452 -0.4880
   40MOL0     C 5437   3.625   3.775   6.883  0.2257 -0.4185 -0.1371
   40MOL0     C 5438   3.674   3.837   7.005  0.0470  0.3303  0.2459
   40MOL0     C 5439   3.586   3.903   7.091 -0.6341  0.5001 -0.5126
   40MOL0     C 5440   3.452   3.903   7.069  1.3176 -0.6260  0.4275
   40MOL0     O 5441   3.363   3.980   7.145  0.1986 -0.4396  0.1040
   40MOL0     C 5442   3.331   4.114   7.098 -0.0990  0.0977 -0.0549
   40MOL0     C 5443   3.191   4.153   7.148 -0.1006 -0.0958  0.2590
   40MOL0     C 5444   3.195   4.165   7.299  0.2922 -0.1054  0.1813
   40MOL0     C 5445   3.210   4.307   7.347  0.1642  0.7063 -0.6427
   40MOL0     C 5446   3.349   4.355   7.342  0.3567  0.3682  0.1701
   40MOL0     C 5447   3.464   4.384   7.321 -0.2737  1.6797  0.2321
   40MOL0     C 5448   3.400   3.838   6.953 -0.4625 -0.1122  0.1804
   40MOL0     C 5449   3.488   3.769   6.860  0.8476  0.2540  0.4467
   40MOL0     C 5450   3.422   3.716   6.732  0.2019  0.5264  0.5576
   40MOL0     H 5451   3.673   3.515   6.530 -1.5310  1.3447 -0.8918
   40MOL0     H 5452   3.841   3.434   6.379  0.8232 -0.4295 -0.7084
   40MOL0     H 5453   4.218   3.678   6.359 -0.2813 -0.8928 -0.0936
   40MOL0     H 5454   4.168   3.698   6.185  1.9550  1.7718  0.3621
   40MOL0     H 5455   4.395   3.592   6.211  1.6334 -4.3089  0.3595
   40MOL0     H 5456   4.332   3.458   6.293  2.0027  0.4261  0.6283
   40MOL0     H 5457   4.167   3.412   6.094 -0.0530 -1.5400  1.0317
   40MOL0     H 5458   4.240   3.550   6.012  1.4596 -0.5757 -0.6099
   40MOL0     H 5459   4.483   3.438   6.069  0.1955  0.9632  0.5118
   40MOL0     H 5460   4.382   3.300   6.124 -1.7407 -0.6599 -0.2262
   40MOL0     H 5461   4.484   3.264   5.894  0.6817  0.5369  1.4919
   40MOL0     H 5462   4.410   3.423   5.850  2.2552 -0.2909 -1.1413
   40MOL0     H 5463   4.239   3.165   5.878  1.2116 -1.2863 -2.3691
   40MOL0     H 5464   4.183   3.327   5.861  0.5179 -0.5929 -0.7577
   40MOL0     H 5465   4.290   3.361   5.662  1.9240  1.4032  3.2058
   40MOL0     H 5466   4.198   3.211   5.645  1.4390 -2.3244 -1.4824
   40MOL0     H 5467   4.421   3.194   5.529 -1.6972 -1.6416  0.9870
   40MOL0     H 5468   4.500   3.245   5.679  0.6690 -0.8137  0.7062
   40MOL0     H 5469   4.344   2.931   5.509 -0.9464  4.1436 -0.1058
   40MOL0     H 5470   4.337   2.660   5.597 -0.1831 -0.4829 -0.2678
   40MOL0     H 5471   4.428   2.625   5.747 -0.0365 -1.7984 -1.1327
   40MOL0     H 5472   4.624   2.693   5.556 -2.3234  2.7534 -0.1252
   40MOL0     H 5473   4.584   2.535   5.617  0.9166  1.4045  2.6924
   40MOL0     H 5474   4.407   2.526   5.433  0.0739 -1.1727 -1.0539
   40MOL0     H 5475   4.462   2.690   5.395 -0.1027 -0.0641  1.4865
   40MOL0     H 5476   4.697   2.498   5.398 -0.8665 -0.1622  0.1838
   40MOL0     H 5477   4.571   2.471   5.260 -0.7422 -0.7388  0.8348
   40MOL0     H 5478   4.793   2.431   5.156 -2.6691 -0.5867 -0.3997
   40MOL0     H 5479   4.986   2.383   4.837  0.4216 -1.7036  0.4391
   40MOL0     H 5480   4.861   2.277   4.920 -0.9723 -0.4602  1.5617
   40MOL0     H 5481   4.994   2.348   4.998  2.0537 -3.1269 -2.8657
   40MOL0     H 5482   4.998   2.919   4.605 -2.2686 -3.4326  3.0103
   40MOL0     H 5483   5.082   2.994   4.394 -1.9046  0.7266 -2.1872
   40MOL0     H 5484   4.995   2.993   4.115  0.6978  0.5103  0.1924
   40MOL0     H 5485   5.126   3.055   4.202 -1.8840  0.9109 -0.2165
   40MOL0     H 5486   5.298   3.008   4.046 -0.2736 -1.3990 -0.0517
   40MOL0     H 5487   5.187   2.917   3.938 -0.6429  1.6829 -2.2227
   40MOL0     H 5488   5.179   3.224   3.981  1.3364  2.2066 -2.7350
   40MOL0     H 5489   5.054   3.125   3.899 -1.4186  0.8723  3.2608
   40MOL0     H 5490   5.230   3.041   3.747 -0.7831  0.4547 -0.5888
   40MOL0     H 5491   5.352   3.128   3.841 -1.0486 -3.1256 -0.2689
   40MOL0     H 5492   5.109   3.275   3.734 -0.3096  0.5483 -0.0997
   40MOL0     H 5493   5.248   3.340   3.812 -2.3424  0.7917  0.3834
   40MOL0     H 5494   5.230   3.203   3.548 -0.7764  1.6480  0.5342
   40MOL0     H 5495   5.387   3.236   3.599  1.0054  2.0299 -3.1288
   40MOL0     H 5496   5.264   3.488   3.615 -1.7466 -1.5988 -0.0654
   40MOL0     H 5497   5.182   3.410   3.477 -1.3507 -0.9705  1.5631
   40MOL0     H 5498   5.404   3.356   3.374  1.5155 -0.0023 -0.3033
   40MOL0     H 5499   5.489   3.438   3.506 -0.9455 -0.0689  0.4902
   40MOL0     H 5500   5.068   2.585   4.253 -1.5640 -0.3722  0.3650
   40MOL0     H 5501   4.990   2.512   4.462 -0.5298 -0.4534 -0.6314
   40MOL0     H 5502   4.744   2.801   4.838  1.4033  0.2321  0.6917
   40MOL0     H 5503   4.623   2.812   5.051  0.3671 -0.9972  0.7632
   40MOL0     H 5504   4.047   3.808   6.399 -2.9927  2.8278  1.8148
   40MOL0     H 5505   3.874   3.898   6.535 -1.9310  0.2529 -3.3285
   40MOL0     H 5506   3.781   3.845   7.021  0.7550  2.5505 -4.0907
   40MOL0     H 5507   3.616   3.965   7.175 -0.4508  0.2495 -0.3937
   40MOL0     H 5508   3.408   4.187   7.126 -1.2483  2.4902 -2.6710
   40MOL0     H 5509   3.348   4.112   6.990  1.3121  1.9586  0.0716
   40MOL0     H 5510   3.121   4.084   7.102  1.3534 -0.6714 -1.1846
   40MOL0     H 5511   3.160   4.242   7.091 -1.9183 -0.0871  1.2101
   40MOL0     H 5512   3.100   4.126   7.337  0.0845  0.5544  0.3539
   40MOL0     H 5513   3.281   4.111   7.339  0.5270  0.8893  1.0624
   40MOL0     H 5514   3.165   4.319   7.446 -0.3523  1.7893 -1.0043
   40MOL0     H 5515   3.144   4.361   7.279 -1.1241  0.4940  0.4083
   40MOL0     H 5516   3.569   4.403   7.312  0.0698 -0.0891  0.0335
   40MOL0     H 5517   3.294   3.853   6.933 -1.0015 -0.3609  2.5959
   40MOL0     H 5518   3.435   3.772   6.640  0.8664 -0.1389  0.2310
   40MOL0     H 5519   3.466   3.617   6.718 -0.3420  0.2903  0.4934
   40MOL0     H 5520   3.317   3.692   6.752  0.7766 -1.8635  1.0389
   41MOL0     O 5521   7.877   6.156  10.520  0.2210  0.2288  0.2338
   41MOL0     C 5522   7.923   6.047  10.550  0.7313  0.4448  0.5903
   41MOL0     O 5523   8.058   6.029  10.593 -0.1624  0.0138  0.3191
   41MOL0     C 5524   8.131   6.148  10.597  1.6061  0.8718 -0.5915
   41MOL0     C 5525   8.158   6.212  10.713  0.1848  0.7874  0.0957
   41MOL0     C 5526   8.236   6.329  10.707 -0.4483 -0.3050  0.0230
   41MOL0     C 5527   8.290   6.384  10.588  0.3231 -0.1470  0.5806
   41MOL0     O 5528   8.364   6.502  10.595 -0.6852  0.1254 -0.2504
   41MOL0     C 5529   8.312   6.613  10.517 -0.7084 -0.3921  0.2263
   41MOL0     C 5530   8.398   6.741  10.531  0.5056  0.2290 -0.2271
   41MOL0     C 5531   8.391   6.799  10.666  0.0560  0.4233  0.1728
   41MOL0     C 5532   8.491   6.915  10.694 -0.2585 -0.4669  0.7553
   41MOL0     C 5533   8.519   6.944  10.838 -0.1765  0.8024 -0.5777
   41MOL0     C 5534   8.613   7.060  10.867  0.0229  0.0123 -0.6522
   41MOL0     C 5535   8.663   7.046  11.014  0.7650 -0.3304  0.5454
   41MOL0     C 5536   8.758   7.165  11.037 -0.0078 -0.2784 -0.2770
   41MOL0     N 5537   8.825   7.175  11.167 -0.1644 -0.3845 -0.2157
   41MOL0     C 5538   8.893   7.067  11.223  0.3318 -0.3034 -0.5820
   41MOL0     C 5539   8.948   7.103  11.339  0.2697  0.5201 -0.2671
   41MOL0     C 5540   9.032   7.027  11.436  0.4557  0.3108 -0.3437
   41MOL0     C 5541   9.155   6.953  11.384  0.0360 -1.1971  0.4773
   41MOL0     C 5542   9.254   7.046  11.329  0.1803 -0.4972  0.3375
   41MOL0     C 5543   9.368   6.978  11.249 -0.2181 -0.8011  0.0910
   41MOL0     O 5544   9.447   7.068  11.169 -0.4065  0.4514  0.3322
   41MOL0     C 5545   9.557   7.005  11.109 -0.0836 -0.3613  0.2648
   41MOL0     C 5546   9.545   6.885  11.039 -1.2065 -0.5266 -0.4713
   41MOL0     C 5547   9.641   6.831  10.952 -0.0191  0.3492 -0.6219
   41MOL0     C 5548   9.625   6.701  10.878  0.4998  0.4637 -0.7686
   41MOL0     C 5549   9.770   6.898  10.959  0.8183 -0.5611  0.3265
   41MOL0     C 5550   9.891   6.864  10.872  0.1528  0.1763 -0.2905
   41MOL0     O 5551   9.868   6.848  10.736  0.1651  0.0192 -0.1374
   41MOL0     C 5552   9.975   6.821  10.664 -1.0454  0.0021  0.4115
   41MOL0     C 5553  10.084   6.910  10.661  0.3602  0.4055 -0.2096
   41MOL0     C 5554  10.186   6.880  10.570  0.2828 -0.0823 -0.4164
   41MOL0     C 5555  10.173   6.760  10.492 -0.4186 -0.3246 -0.4665
   41MOL0     O 5556  10.272   6.713  10.408  0.7963 -0.2739  0.6806
   41MOL0     C 5557  10.394   6.786  10.417  0.6667 -0.7427 -0.7437
   41MOL0     C 5558  10.498   6.727  10.320  0.1178  0.0206  0.4782
   41MOL0     C 5559  10.637   6.787  10.315  1.0403 -0.0897  0.1925
   41MOL0     C 5560  10.638   6.948  10.298  0.1528  0.3294 -0.9094
   41MOL0     C 5561  10.776   7.007  10.266  0.6487 -0.1748 -0.5061
   41MOL0     C 5562  10.861   7.034  10.398 -0.3830  0.4225  0.3214
   41MOL0     C 5563  10.996   6.962  10.387 -0.6163  0.6638 -0.2644
   41MOL0     C 5564  11.099   7.026  10.294 -0.4229  0.0688  0.5769
   41MOL0    Cl 5565  11.230   6.920  10.229 -0.5260  0.0138  0.3616
   41MOL0     C 5566  10.063   6.682  10.485 -0.4291 -0.8576  0.1254
   41MOL0     C 5567   9.964   6.709  10.579  0.8809 -0.3096  0.1259
   41MOL0     O 5568  10.000   6.868  10.936  0.7968  0.3653 -0.2120
   41MOL0     C 5569   9.788   7.010  11.035  0.2464 -0.2179 -0.5179
   41MOL0     C 5570   9.678   7.071  11.106 -0.0965 -1.1613  0.2496
   41MOL0     N 5571   8.929   7.241  11.344 -0.3779 -0.3720  0.2213
   41MOL0     N 5572   8.856   7.280  11.244 -0.3018  0.9576 -0.5325
   41MOL0     C 5573   8.262   6.315  10.472  0.0455 -0.5860 -0.0258
   41MOL0     C 5574   8.182   6.197  10.480 -0.2510 -0.1933 -0.2954
   41MOL0     C 5575   7.824   5.935  10.556 -0.0214  0.4501  0.3449
   41MOL0     C 5576   7.777   5.897  10.684  0.3483  0.2260 -0.0161
   41MOL0     C 5577   7.691   5.790  10.701  0.1662 -1.0570  0.2870
   41MOL0     C 5578   7.629   5.731  10.590  0.1198 -0.6128  0.3304
   41MOL0     O 5579   7.538   5.631  10.586 -0.2297 -0.0794  0.4517
   41MOL0     C 5580   7.444   5.648  10.690  0.2054  0.1566 -0.0952
   41MOL0     C 5581   7.336   5.540  10.691  0.2589 -0.0756 -0.4198
   41MOL0     C 5582   7.269   5.500  10.552 -0.8008  0.6111 -0.1207
   41MOL0     C 5583   7.149   5.413  10.571  0.0610  0.4284  0.9013
   41MOL0     C 5584   7.089   5.370  10.440  0.8493 -0.2767 -0.4724
   41MOL0     C 5585   7.032   5.326  10.343 -0.2507  0.1497 -0.1726
   41MOL0     C 5586   7.655   5.790  10.464 -0.0915 -0.0124  0.1235
   41MOL0     C 5587   7.751   5.881  10.445  0.0814 -0.5323 -1.4467
   41MOL0     C 5588   7.777   5.943  10.313  0.8815 -0.2598  0.0009
   41MOL0     H 5589   8.136   6.151  10.800  2.1472  2.6266  1.9909
   41MOL0     H 5590   8.247   6.378  10.803  0.1745  2.2429 -1.2544
   41MOL0     H 5591   8.213   6.637  10.555 -0.4689  0.4436  0.3261
   41MOL0     H 5592   8.302   6.588  10.411  0.2652 -0.3491  0.1141
   41MOL0     H 5593   8.502   6.723  10.505  1.0989  0.9904  1.4612
   41MOL0     H 5594   8.375   6.818  10.457  1.2431  0.5762 -0.1025
   41MOL0     H 5595   8.288   6.826  10.690  0.3186 -0.8136  3.1038
   41MOL0     H 5596   8.420   6.713  10.727 -0.1170 -0.1231 -0.5029
   41MOL0     H 5597   8.582   6.890  10.639  0.0382 -0.7849  1.3793
   41MOL0     H 5598   8.457   7.009  10.650  1.7707 -0.9119 -2.0750
   41MOL0     H 5599   8.558   6.852  10.883 -2.0498  2.2595  4.6774
   41MOL0     H 5600   8.426   6.971  10.887 -0.2422 -1.4830  0.6969
   41MOL0     H 5601   8.692   7.049  10.791 -0.6680 -1.9328 -1.1471
   41MOL0     H 5602   8.559   7.153  10.851  0.0750  0.7112  2.5627
   41MOL0     H 5603   8.721   6.954  11.029 -0.0381 -0.8104  0.8040
   41MOL0     H 5604   8.581   7.054  11.086  0.5895  1.9706  0.1560
   41MOL0     H 5605   8.832   7.168  10.957  0.7613 -2.1676  0.2873
   41MOL0     H 5606   8.685   7.246  11.035  0.8369  0.4713 -1.9045
   41MOL0     H 5607   8.889   6.968  11.181 -4.2407 -1.0107  1.0035
   41MOL0     H 5608   8.966   6.950  11.478 -0.8035  1.7621  0.4471
   41MOL0     H 5609   9.061   7.095  11.516  0.8653 -1.9965  1.5695
   41MOL0     H 5610   9.204   6.898  11.464 -3.5467 -2.3810  2.0668
   41MOL0     H 5611   9.132   6.881  11.305 -0.6919  0.0594 -0.5081
   41MOL0     H 5612   9.203   7.121  11.268  0.6183  0.6253  1.3227
   41MOL0     H 5613   9.306   7.103  11.407 -1.4612  2.1435 -0.3512
   41MOL0     H 5614   9.430   6.923  11.320  0.8244  2.5755  1.9995
   41MOL0     H 5615   9.316   6.905  11.186  0.2614 -2.6537  1.7304
   41MOL0     H 5616   9.447   6.838  11.042 -0.7551 -1.4923 -0.3355
   41MOL0     H 5617   9.709   6.635  10.854 -1.9889 -2.4925 -2.0229
   41MOL0     H 5618   9.574   6.722  10.783 -0.0163  2.5874 -0.0824
   41MOL0     H 5619   9.557   6.646  10.944  0.5326  0.9926 -0.2909
   41MOL0     H 5620  10.107   6.999  10.718  8.0246 -0.1648 -1.2840
   41MOL0     H 5621  10.281   6.933  10.570  0.9439 -1.0382  2.7491
   41MOL0     H 5622  10.382   6.892  10.394 -2.8903 -1.3393 -2.4306
   41MOL0     H 5623  10.425   6.763  10.519  0.5075 -0.9665 -0.7454
   41MOL0     H 5624  10.510   6.623  10.350  1.7713  0.1233  0.2311
   41MOL0     H 5625  10.458   6.732  10.218 -1.0253 -1.9913  0.7722
   41MOL0     H 5626  10.685   6.727  10.237 -0.4895 -0.6471 -0.3596
   41MOL0     H 5627  10.694   6.763  10.406  2.0062  3.7491  0.8008
   41MOL0     H 5628  10.590   6.983  10.389  1.2756 -0.2502 -0.0716
   41MOL0     H 5629  10.573   6.974  10.214  0.7901  1.8236 -0.9570
   41MOL0     H 5630  10.827   6.952  10.186 -0.0232  2.4265 -2.8943
   41MOL0     H 5631  10.757   7.102  10.216  2.4596  0.5800  0.1735
   41MOL0     H 5632  10.814   6.990  10.486 -1.4546 -1.6865 -1.2148
   41MOL0     H 5633  10.875   7.142  10.412 -0.0900  0.7781 -2.2370
   41MOL0     H 5634  10.976   6.858  10.359 -1.5699  0.7652  0.0241
   41MOL0     H 5635  11.033   6.970  10.490 -2.9917  0.4137  0.6830
   41MOL0     H 5636  11.152   7.104  10.349  3.0275 -1.2298 -0.6330
   41MOL0     H 5637  11.047   7.074  10.210 -2.6005 -1.9115  0.6799
   41MOL0     H 5638  10.053   6.594  10.422 -2.0695 -0.3274 -0.4142
   41MOL0     H 5639   9.872   6.653  10.572  1.1788 -0.7707 -0.1858
   41MOL0     H 5640   9.888   7.051  11.042 -0.2508  1.5154 -2.4494
   41MOL0     H 5641   9.672   7.159  11.170 -3.3834 -0.7013 -0.4803
   41MOL0     H 5642   8.295   6.350  10.375  0.0988  0.4205  0.3431
   41MOL0     H 5643   8.156   6.137  10.393  0.2460  1.0492 -1.3377
   41MOL0     H 5644   7.799   5.966  10.765  0.4995 -0.4233  0.5027
   41MOL0     H 5645   7.684   5.748  10.801 -1.7033 -3.0083 -0.5594
   41MOL0     H 5646   7.498   5.652  10.785  4.0219  2.1006 -2.0790
   41MOL0     H 5647   7.395   5.744  10.675  1.6426  0.7285 -1.3926
   41MOL0     H 5648   7.261   5.583  10.759  0.8476  1.1651 -0.5153
   41MOL0     H 5649   7.382   5.454  10.741 -0.1017 -0.9787 -1.6137
   41MOL0     H 5650   7.251   5.598  10.506  4.1037  1.2347 -1.3086
   41MOL0     H 5651   7.344   5.451  10.490  0.7256  1.0174  1.3064
   41MOL0     H 5652   7.077   5.467  10.633  1.3165 -1.0319  3.8501
   41MOL0     H 5653   7.168   5.326  10.635  0.1554  1.6730  2.6377
   41MOL0     H 5654   6.979   5.276  10.265  1.4011 -2.4312  0.2567
   41MOL0     H 5655   7.611   5.755  10.372 -0.6678  1.0255 -0.0063
   41MOL0     H 5656   7.691   5.920  10.249  0.3704  1.5474 -0.0091
   41MOL0     H 5657   7.788   6.051  10.318  0.1237 -0.2249  1.1443
   41MOL0     H 5658   7.870   5.902  10.273 -1.5342 -2.4332 -4.1661
   42MOL0     O 5659   2.423   6.525   5.684 -0.4424 -0.0445 -0.1827
   42MOL0     C 5660   2.390   6.414   5.721 -0.0664 -0.6369 -0.0149
   42MOL0     O 5661   2.273   6.394   5.799  0.8424  0.4558 -0.2657
   42MOL0     C 5662   2.193   6.502   5.836  0.1303  0.5709 -0.6184
   42MOL0     C 5663   2.149   6.601   5.756  0.3240 -1.0665 -0.7106
   42MOL0     C 5664   2.046   6.689   5.803  0.3822  0.0845  0.1724
   42MOL0     C 5665   1.984   6.677   5.928 -0.6784  0.6768 -1.0326
   42MOL0     O 5666   1.895   6.769   5.957  0.1606  0.4129 -0.1613
   42MOL0     C 5667   1.805   6.730   6.060  0.5716 -0.3854 -0.3992
   42MOL0     C 5668   1.684   6.816   6.054  0.3731 -0.1397  0.3568
   42MOL0     C 5669   1.580   6.791   6.166 -0.6182 -0.0148 -0.7824
   42MOL0     C 5670   1.453   6.889   6.151  0.3099  0.5708 -0.6866
   42MOL0     C 5671   1.349   6.870   6.265 -0.0524 -0.0274  0.1383
   42MOL0     C 5672   1.223   6.809   6.222  0.2235 -0.1381 -0.3883
   42MOL0     C 5673   1.105   6.833   6.322 -0.1920  0.7662  0.5461
   42MOL0     C 5674   0.972   6.778   6.268  0.9360  0.2456  0.3080
   42MOL0     N 5675   0.873   6.819   6.369 -0.2709  0.0596  0.4543
   42MOL0     C 5676   0.801   6.941   6.363 -0.2198  0.3197  0.0750
   42MOL0     C 5677   0.737   6.940   6.487  0.0947 -0.4052 -0.3307
   42MOL0     C 5678   0.628   7.036   6.527 -0.2870  0.4510  0.0320
   42MOL0     C 5679   0.672   7.181   6.557 -0.1014 -0.2287 -0.0791
   42MOL0     C 5680   0.817   7.193   6.606 -0.3460 -0.2363 -0.2277
   42MOL0     C 5681   0.850   7.109   6.735 -0.3684 -0.2829 -0.0099
   42MOL0     O 5682   0.962   7.161   6.813  0.4513  0.1330 -0.1343
   42MOL0     C 5683   1.084   7.167   6.765 -0.2675  0.4423  0.6219
   42MOL0     C 5684   1.179   7.255   6.817 -0.1093 -0.1882 -0.2320
   42MOL0     C 5685   1.314   7.251   6.781  0.4762 -0.5153 -0.1556
   42MOL0     C 5686   1.404   7.337   6.859 -0.0316 -0.3553  0.2844
   42MOL0     C 5687   1.346   7.186   6.660  0.8137  0.1694 -0.1209
   42MOL0     C 5688   1.489   7.183   6.610 -0.4053 -0.0502 -0.5787
   42MOL0     O 5689   1.529   7.066   6.551  0.9842  0.3946  1.0219
   42MOL0     C 5690   1.642   7.065   6.485  0.3469  0.1755 -0.4979
   42MOL0     C 5691   1.747   6.980   6.527  0.6169  0.8827  0.3584
   42MOL0     C 5692   1.868   6.985   6.465  0.5924 -0.1843 -0.7873
   42MOL0     C 5693   1.891   7.059   6.347 -0.0495  0.7753 -0.1275
   42MOL0     O 5694   2.020   7.048   6.295 -0.1841  0.1112 -0.3507
   42MOL0     C 5695   2.063   6.915   6.251  1.4274 -0.2344  0.9917
   42MOL0     C 5696   2.206   6.906   6.296  0.2806 -0.3098  0.2572
   42MOL0     C 5697   2.278   6.793   6.213 -0.7145  0.2742  0.5086
   42MOL0     C 5698   2.435   6.806   6.223  0.6982 -0.3499  0.6870
   42MOL0     C 5699   2.506   6.691   6.159 -0.6869 -0.0251  0.1891
   42MOL0     C 5700   2.649   6.684   6.213 -0.3996  1.0147 -0.2378
   42MOL0     C 5701   2.724   6.544   6.179  1.1174 -0.1131  0.3990
   42MOL0     C 5702   2.877   6.558   6.169  0.3959 -0.3912 -0.5952
   42MOL0    Cl 5703   2.951   6.631   6.307  0.5133 -0.2593  0.0162
   42MOL0     C 5704   1.786   7.137   6.296  1.1631 -0.0788 -0.9862
   42MOL0     C 5705   1.666   7.142   6.367  0.3547  0.6991  0.4480
   42MOL0     O 5706   1.573   7.277   6.630 -0.6293  1.1190 -0.4441
   42MOL0     C 5707   1.247   7.099   6.605  0.4604 -0.2066 -0.2945
   42MOL0     C 5708   1.124   7.088   6.656 -0.2603  0.5700  0.1591
   42MOL0     N 5709   0.777   6.824   6.557  0.0553  0.8675 -0.6130
   42MOL0     N 5710   0.860   6.754   6.488  0.5795  0.5804 -0.4608
   42MOL0     C 5711   2.030   6.575   6.011 -1.1799 -0.2308 -0.2660
   42MOL0     C 5712   2.132   6.492   5.960  0.4968  0.1389 -0.1465
   42MOL0     C 5713   2.473   6.302   5.672  0.0426 -0.2603  0.2387
   42MOL0     C 5714   2.416   6.171   5.699  0.2501  0.3754  0.9227
   42MOL0     C 5715   2.462   6.061   5.634 -0.5504  1.1325  0.1637
   42MOL0     C 5716   2.569   6.066   5.541 -0.1338  0.7242  0.1141
   42MOL0     O 5717   2.627   5.961   5.482 -0.6147  0.6091  0.0450
   42MOL0     C 5718   2.602   5.832   5.528  0.0248  0.3800 -0.0363
   42MOL0     C 5719   2.502   5.761   5.438 -0.5209 -1.2143 -0.9474
   42MOL0     C 5720   2.547   5.749   5.294  0.8915  0.1959  0.1048
   42MOL0     C 5721   2.575   5.886   5.219  0.1519 -0.1587 -0.8286
   42MOL0     C 5722   2.558   5.873   5.079 -0.1525 -0.2603  0.6851
   42MOL0     C 5723   2.539   5.849   4.955 -0.7443 -0.8354 -0.4289
   42MOL0     C 5724   2.625   6.187   5.520 -0.2632  0.0979 -0.1777
   42MOL0     C 5725   2.584   6.309   5.586  0.0428 -1.0711  0.4662
   42MOL0     C 5726   2.662   6.437   5.558  0.5292 -0.0825 -0.3545
   42MOL0     H 5727   2.187   6.598   5.654 -0.7104  0.0566 -1.1559
   42MOL0     H 5728   2.012   6.761   5.730 -0.6070 -0.5511 -0.0115
   42MOL0     H 5729   1.854   6.731   6.158 -0.1996  1.2248  0.0112
   42MOL0     H 5730   1.770   6.631   6.028  0.3945  0.0130 -1.5040
   42MOL0     H 5731   1.708   6.922   6.058 -0.6704  0.0609  1.8306
   42MOL0     H 5732   1.638   6.794   5.957 -0.4316 -2.5671  1.2070
   42MOL0     H 5733   1.543   6.689   6.152  0.8624 -0.6310 -0.4081
   42MOL0     H 5734   1.614   6.802   6.270 -0.5548 -0.7068 -0.7219
   42MOL0     H 5735   1.490   6.991   6.155  4.2057 -0.6082 -2.0960
   42MOL0     H 5736   1.411   6.875   6.051  3.6722  3.6823 -2.7732
   42MOL0     H 5737   1.325   6.968   6.307 -2.4600  0.3296 -1.8304
   42MOL0     H 5738   1.397   6.813   6.346 -1.1733 -2.3115 -0.7100
   42MOL0     H 5739   1.192   6.858   6.129  1.5253  0.3217 -0.5958
   42MOL0     H 5740   1.234   6.701   6.212  0.6511 -0.0315 -1.2365
   42MOL0     H 5741   1.088   6.941   6.333 -0.1166  0.6124  2.7536
   42MOL0     H 5742   1.120   6.785   6.419 -2.7532  1.4484  1.3431
   42MOL0     H 5743   0.942   6.814   6.169  1.3113 -0.4770 -0.0720
   42MOL0     H 5744   0.986   6.670   6.272  0.7755  0.2476  2.7771
   42MOL0     H 5745   0.789   7.000   6.272  0.6498  0.8722  0.3032
   42MOL0     H 5746   0.572   6.999   6.614  0.3123 -0.5944 -0.0078
   42MOL0     H 5747   0.557   7.040   6.443 -2.0819 -2.4128  1.2566
   42MOL0     H 5748   0.669   7.235   6.462  3.3091  0.8676  0.3031
   42MOL0     H 5749   0.601   7.228   6.624 -2.1186 -1.1192 -1.4829
   42MOL0     H 5750   0.888   7.168   6.526 -0.5954 -0.1166 -0.4866
   42MOL0     H 5751   0.835   7.298   6.629 -0.4818 -0.0854 -0.8013
   42MOL0     H 5752   0.761   7.123   6.795 -1.3646 -1.6725 -1.1045
   42MOL0     H 5753   0.852   7.002   6.711  2.0449 -0.4729  0.7048
   42MOL0     H 5754   1.155   7.325   6.897  0.2748 -0.8654  0.4983
   42MOL0     H 5755   1.352   7.390   6.939  1.1921  3.1222 -1.0506
   42MOL0     H 5756   1.437   7.416   6.791  0.1909 -0.6801  0.0092
   42MOL0     H 5757   1.487   7.275   6.895 -1.7532 -1.4099  2.7291
   42MOL0     H 5758   1.728   6.907   6.605 -0.5755 -0.6352 -1.2864
   42MOL0     H 5759   1.952   6.934   6.511 -0.4366 -1.2119 -0.0236
   42MOL0     H 5760   1.997   6.840   6.296  0.7756  0.3412  1.0044
   42MOL0     H 5761   2.055   6.896   6.144  1.1150 -1.9019  1.2884
   42MOL0     H 5762   2.255   7.003   6.284 -2.3164  0.9346 -1.0800
   42MOL0     H 5763   2.192   6.871   6.398 -0.4646  2.0058  1.0127
   42MOL0     H 5764   2.256   6.790   6.106  1.6051  0.5255 -0.0203
   42MOL0     H 5765   2.244   6.699   6.258 -3.7969  1.4750  0.9548
   42MOL0     H 5766   2.449   6.788   6.330 -0.6029 -1.5616  0.6893
   42MOL0     H 5767   2.476   6.903   6.194 -0.1101 -0.6228 -1.5536
   42MOL0     H 5768   2.459   6.593   6.169  1.5508 -1.1035  0.6796
   42MOL0     H 5769   2.521   6.719   6.054  2.5362 -2.1822 -0.0440
   42MOL0     H 5770   2.657   6.698   6.321  1.9243 -0.0933 -0.2139
   42MOL0     H 5771   2.700   6.765   6.161  2.1737 -1.7470 -2.3737
   42MOL0     H 5772   2.675   6.497   6.093 -4.3227  1.6140  2.1168
   42MOL0     H 5773   2.702   6.471   6.257 -0.0237  0.8768  1.0454
   42MOL0     H 5774   2.904   6.607   6.075  0.9496  0.4880  0.0071
   42MOL0     H 5775   2.917   6.457   6.163 -0.5174 -0.7726 -0.3842
   42MOL0     H 5776   1.814   7.205   6.216  1.6221  1.5418  0.4971
   42MOL0     H 5777   1.587   7.209   6.336 -0.0284  0.7394  1.4615
   42MOL0     H 5778   1.263   7.025   6.527 -0.2957 -0.6052 -0.0863
   42MOL0     H 5779   1.048   7.030   6.605 -0.6225 -1.5682  2.8936
   42MOL0     H 5780   1.991   6.554   6.110  1.8279  1.0346  1.2991
   42MOL0     H 5781   2.159   6.413   6.028 -2.4258  0.0603  1.0359
   42MOL0     H 5782   2.338   6.160   5.774  1.0442 -2.0504  1.4596
   42MOL0     H 5783   2.409   5.967   5.649  0.4765  0.5859  0.4974
   42MOL0     H 5784   2.700   5.785   5.512  0.6756  1.1326  1.5512
   42MOL0     H 5785   2.576   5.832   5.634 -1.7808  2.1792 -0.4081
   42MOL0     H 5786   2.411   5.821   5.443  0.8289  0.9903 -1.5085
   42MOL0     H 5787   2.478   5.664   5.482  1.5208 -1.6081 -0.6020
   42MOL0     H 5788   2.631   5.680   5.302 -0.7013 -1.8091  0.1983
   42MOL0     H 5789   2.475   5.691   5.237  2.7220 -0.8465 -1.2224
   42MOL0     H 5790   2.674   5.922   5.246  1.0526 -2.0382 -1.4471
   42MOL0     H 5791   2.506   5.964   5.252  2.0181  0.4411  1.9362
   42MOL0     H 5792   2.515   5.838   4.851  0.8437 -1.3760 -0.7742
   42MOL0     H 5793   2.714   6.192   5.459  2.4961 -2.1740  3.2611
   42MOL0     H 5794   2.697   6.486   5.649 -1.1327 -2.4453  1.6842
   42MOL0     H 5795   2.752   6.412   5.501  0.7466  0.7718 -0.3873
   42MOL0     H 5796   2.609   6.498   5.484  1.9367 -0.3382 -1.6373
   43MOL0     O 5797   9.023   5.841   6.758 -1.0324 -0.2561  0.4251
   43MOL0     C 5798   9.085   5.936   6.701 -0.4305 -0.6011 -0.3327
   43MOL0     O 5799   9.195   5.928   6.622 -0.5645  0.5650 -0.2221
   43MOL0     C 5800   9.271   5.819   6.618 -0.1813  0.2037 -0.2876
   43MOL0     C 5801   9.405   5.835   6.580 -0.5766 -0.8505 -1.1482
   43MOL0     C 5802   9.493   5.732   6.566 -0.6787 -0.7335 -0.8500
   43MOL0     C 5803   9.450   5.603   6.581  0.4595 -0.0721 -0.0575
   43MOL0     O 5804   9.532   5.490   6.555 -0.5681  0.3452  0.2305
   43MOL0     C 5805   9.649   5.478   6.634 -1.0319  0.3530 -0.4538
   43MOL0     C 5806   9.752   5.405   6.550  0.5045  0.4035 -0.9108
   43MOL0     C 5807   9.700   5.302   6.433 -0.5392 -0.1800 -0.0554
   43MOL0     C 5808   9.614   5.190   6.478  0.0263  0.4223  0.9425
   43MOL0     C 5809   9.565   5.074   6.381 -0.9240 -0.0810 -0.3625
   43MOL0     C 5810   9.461   4.996   6.466  0.2916  0.2953 -0.4299
   43MOL0     C 5811   9.409   4.872   6.399  0.2109  0.8514  0.1780
   43MOL0     C 5812   9.508   4.763   6.363  0.1301 -0.4321  1.1274
   43MOL0     N 5813   9.554   4.707   6.484 -0.7721 -0.1294  0.5163
   43MOL0     C 5814   9.490   4.619   6.571  0.2078  0.7715 -0.3539
   43MOL0     C 5815   9.584   4.599   6.671 -0.1444  0.0836  0.3487
   43MOL0     C 5816   9.571   4.520   6.800  0.7188  0.2558  0.9216
   43MOL0     C 5817   9.640   4.379   6.801  0.6274 -0.1860 -0.5436
   43MOL0     C 5818   9.637   4.309   6.660  0.6199 -0.2189  0.2636
   43MOL0     C 5819   9.727   4.177   6.646  0.3199 -0.0952  0.4834
   43MOL0     O 5820   9.643   4.076   6.707 -0.3380  0.5639  0.8242
   43MOL0     C 5821   9.670   3.947   6.682  0.1166  0.7505 -0.1994
   43MOL0     C 5822   9.796   3.903   6.640  0.8627  0.1567 -0.3989
   43MOL0     C 5823   9.836   3.769   6.631  0.0987  0.1697 -0.0678
   43MOL0     C 5824   9.977   3.752   6.585  0.0473 -0.7542 -0.2011
   43MOL0     C 5825   9.744   3.665   6.651  0.5251 -0.5285 -0.5448
   43MOL0     C 5826   9.768   3.518   6.621 -0.0467  0.0326  0.3123
   43MOL0     O 5827   9.655   3.436   6.625 -0.1337  0.0600 -0.2406
   43MOL0     C 5828   9.676   3.292   6.602  0.3092 -0.4460  0.2456
   43MOL0     C 5829   9.684   3.201   6.706  0.0420 -0.7081 -0.2598
   43MOL0     C 5830   9.692   3.061   6.688 -0.2297 -0.2885 -0.0382
   43MOL0     C 5831   9.701   3.009   6.551  0.4947 -1.0869 -0.5827
   43MOL0     O 5832   9.708   2.876   6.529  0.7811  0.3022 -0.0065
   43MOL0     C 5833   9.644   2.787   6.625 -0.2380 -0.1292  0.6605
   43MOL0     C 5834   9.650   2.648   6.561 -1.0020 -0.4292 -0.3686
   43MOL0     C 5835   9.791   2.602   6.530 -0.1129 -0.5693 -0.7508
   43MOL0     C 5836   9.870   2.571   6.662 -0.5943 -1.1386 -0.2369
   43MOL0     C 5837  10.011   2.628   6.655 -0.0492 -0.5128  0.5286
   43MOL0     C 5838  10.023   2.788   6.651 -0.4649  0.7240 -0.2816
   43MOL0     C 5839  10.170   2.833   6.665  0.6172 -0.6566  0.4532
   43MOL0     C 5840  10.215   2.898   6.534 -0.2054  0.3982  0.1731
   43MOL0    Cl 5841  10.176   2.784   6.392  0.1811 -0.0388 -0.2938
   43MOL0     C 5842   9.714   3.103   6.444  0.3618 -0.4874 -0.2695
   43MOL0     C 5843   9.694   3.233   6.477  0.0626 -0.9776  0.5324
   43MOL0     O 5844   9.882   3.475   6.614  0.1907  0.0667  0.0650
   43MOL0     C 5845   9.606   3.711   6.691 -0.1665 -0.2239 -0.2631
   43MOL0     C 5846   9.580   3.848   6.716  0.3971 -0.5279  0.3393
   43MOL0     N 5847   9.705   4.666   6.627 -0.2270  0.0855  1.2031
   43MOL0     N 5848   9.682   4.733   6.521 -0.3952  0.1530 -0.2073
   43MOL0     C 5849   9.322   5.581   6.612  1.1636  0.1229 -0.0415
   43MOL0     C 5850   9.224   5.688   6.621  0.2418 -0.4680 -0.7416
   43MOL0     C 5851   9.024   6.075   6.717  0.0959 -0.5474 -0.3327
   43MOL0     C 5852   8.882   6.084   6.726  1.3505 -0.3927  0.8734
   43MOL0     C 5853   8.823   6.209   6.729  0.4585 -0.4148  0.4958
   43MOL0     C 5854   8.896   6.328   6.724  0.8919 -0.7753  0.1568
   43MOL0     O 5855   8.826   6.446   6.732  0.0856  0.1325  0.1716
   43MOL0     C 5856   8.898   6.568   6.728 -0.5345 -0.8248 -0.6262
   43MOL0     C 5857   8.812   6.695   6.743  0.6828  1.0123  0.2415
   43MOL0     C 5858   8.895   6.815   6.743 -0.6476 -0.0899 -0.3852
   43MOL0     C 5859   8.829   6.945   6.782 -0.1287  0.1443  0.3473
   43MOL0     C 5860   8.944   7.035   6.797  0.1361  0.3648  0.1811
   43MOL0     C 5861   9.039   7.107   6.797  0.1476 -0.1976  0.1690
   43MOL0     C 5862   9.042   6.319   6.722  1.2383 -1.1425  0.1716
   43MOL0     C 5863   9.104   6.194   6.724  0.2319 -0.6199 -0.3534
   43MOL0     C 5864   9.258   6.189   6.732 -0.9210  0.6546  0.0992
   43MOL0     H 5865   9.440   5.937   6.569 -0.9786 -0.8719 -2.9160
   43MOL0     H 5866   9.597   5.735   6.534 -0.6469 -1.6361 -0.8606
   43MOL0     H 5867   9.648   5.426   6.730  0.6390  0.9853 -0.0547
   43MOL0     H 5868   9.687   5.575   6.667 -0.0047 -0.8109  2.0826
   43MOL0     H 5869   9.815   5.480   6.499 -1.2483  0.0450 -3.8302
   43MOL0     H 5870   9.814   5.349   6.620  1.6563  2.9124  0.2009
   43MOL0     H 5871   9.648   5.354   6.351 -2.0618 -2.0085 -0.3143
   43MOL0     H 5872   9.786   5.259   6.380 -0.0912  2.7920 -2.0210
   43MOL0     H 5873   9.668   5.138   6.557 -1.1954 -2.4867 -0.0048
   43MOL0     H 5874   9.526   5.236   6.525  0.2754  1.4988  0.3950
   43MOL0     H 5875   9.646   5.011   6.343  0.6925  2.4499 -1.3705
   43MOL0     H 5876   9.499   5.121   6.308 -1.3751  0.2476  0.2440
   43MOL0     H 5877   9.497   4.964   6.565 -1.2241 -0.7246 -0.1709
   43MOL0     H 5878   9.379   5.066   6.485 -0.9604 -0.8133 -1.5306
   43MOL0     H 5879   9.368   4.917   6.308  0.5986  2.0448  0.5758
   43MOL0     H 5880   9.322   4.827   6.447 -0.2602 -0.7245 -1.9972
   43MOL0     H 5881   9.464   4.687   6.298  0.0847 -3.0469  3.9860
   43MOL0     H 5882   9.591   4.810   6.308 -0.3023 -0.7737  0.1628
   43MOL0     H 5883   9.390   4.576   6.563  0.2124  1.0549 -4.6710
   43MOL0     H 5884   9.467   4.501   6.829  0.8766 -2.8292 -0.1914
   43MOL0     H 5885   9.610   4.580   6.883 -0.6813  1.8042  0.5138
   43MOL0     H 5886   9.745   4.386   6.831  0.3319  0.3946  0.4018
   43MOL0     H 5887   9.590   4.321   6.879  2.3713 -0.0100  0.7918
   43MOL0     H 5888   9.534   4.281   6.635  1.0318 -0.9838 -0.6611
   43MOL0     H 5889   9.680   4.377   6.587  0.5895  0.1065  0.5489
   43MOL0     H 5890   9.754   4.156   6.542 -2.3648 -2.6587  0.1593
   43MOL0     H 5891   9.823   4.190   6.696 -0.3338  1.5757  1.3692
   43MOL0     H 5892   9.866   3.984   6.623 -1.1003  1.6380 -1.9543
   43MOL0     H 5893   9.982   3.708   6.485 -0.1641 -0.4031 -0.3677
   43MOL0     H 5894  10.032   3.689   6.657 -1.3306  0.7102  2.2812
   43MOL0     H 5895  10.034   3.845   6.578  2.9189 -2.3762  0.1409
   43MOL0     H 5896   9.669   3.244   6.804 -0.4013 -1.6820  0.1130
   43MOL0     H 5897   9.697   2.998   6.776 -1.2924  3.2292  2.7826
   43MOL0     H 5898   9.692   2.789   6.724 -1.9272  2.5346  1.5426
   43MOL0     H 5899   9.542   2.821   6.640 -0.3334 -0.8295  1.7526
   43MOL0     H 5900   9.601   2.578   6.629 -0.1443  0.6331  1.3914
   43MOL0     H 5901   9.595   2.642   6.466 -1.9851  2.3202 -0.0670
   43MOL0     H 5902   9.840   2.667   6.457 -0.4335 -1.4162 -1.7348
   43MOL0     H 5903   9.785   2.509   6.472  0.7813 -0.1388 -1.5631
   43MOL0     H 5904   9.890   2.463   6.670  1.1246 -0.9225 -1.1024
   43MOL0     H 5905   9.819   2.614   6.749 -1.5175  0.8762 -1.7082
   43MOL0     H 5906  10.061   2.588   6.744  1.3083 -1.4493 -0.6089
   43MOL0     H 5907  10.068   2.587   6.571 -1.7596  0.5642 -1.2377
   43MOL0     H 5908   9.972   2.834   6.736  1.3205  3.6957 -0.6763
   43MOL0     H 5909   9.979   2.849   6.571  2.0918  3.8001  0.4160
   43MOL0     H 5910  10.242   2.756   6.694 -0.4112 -1.4468  0.9695
   43MOL0     H 5911  10.170   2.901   6.751 -0.4996  1.6680 -1.2532
   43MOL0     H 5912  10.324   2.911   6.536 -0.4022  2.2021  0.7426
   43MOL0     H 5913  10.162   2.993   6.532 -3.2663 -1.1822 -1.5091
   43MOL0     H 5914   9.728   3.064   6.344  1.2455  1.4190 -0.9287
   43MOL0     H 5915   9.700   3.308   6.399 -0.1910 -2.1201 -0.6097
   43MOL0     H 5916   9.526   3.640   6.675 -0.3011 -0.0927 -0.1626
   43MOL0     H 5917   9.478   3.885   6.725  0.4738 -0.6241  2.0019
   43MOL0     H 5918   9.288   5.478   6.615 -1.4736  0.8135 -2.1435
   43MOL0     H 5919   9.123   5.651   6.621  0.5866 -1.5815  1.3863
   43MOL0     H 5920   8.825   5.992   6.713 -1.1514  1.0915  0.8496
   43MOL0     H 5921   8.716   6.226   6.728  0.4801 -0.2343  0.9038
   43MOL0     H 5922   8.969   6.558   6.811 -3.1185 -0.5110  1.7674
   43MOL0     H 5923   8.945   6.592   6.632 -2.7516  0.8118 -1.3857
   43MOL0     H 5924   8.750   6.678   6.832  0.8277  1.0283  0.3458
   43MOL0     H 5925   8.744   6.695   6.657 -1.0271 -1.6825  1.4561
   43MOL0     H 5926   8.990   6.799   6.795  1.5916  3.8669 -2.7999
   43MOL0     H 5927   8.918   6.827   6.637 -2.0921 -0.2744 -0.7448
   43MOL0     H 5928   8.774   6.943   6.877  0.2401  3.7225  0.7805
   43MOL0     H 5929   8.771   6.998   6.706 -3.0340 -0.5492  1.9212
   43MOL0     H 5930   9.107   7.190   6.795 -1.7399  1.4009 -1.1929
   43MOL0     H 5931   9.103   6.409   6.716 -2.3142  1.4488 -0.7920
   43MOL0     H 5932   9.305   6.169   6.636 -1.2360  4.5390 -1.0134
   43MOL0     H 5933   9.303   6.280   6.773 -0.6783 -0.4293  2.4124
   43MOL0     H 5934   9.298   6.120   6.808  3.3829  3.8430  1.1323
   44MOL0     O 5935   0.304   3.615   0.403  0.3046 -0.0835 -0.3141
   44MOL0     C 5936   0.264   3.643   0.289 -0.0618 -0.4789  0.9462
   44MOL0     O 5937   0.350   3.643   0.178 -0.3721 -0.1764  0.3665
   44MOL0     C 5938   0.484   3.624   0.199  0.5956  0.4612 -0.8605
   44MOL0     C 5939   0.555   3.681   0.304 -0.2253 -0.1040  0.8292
   44MOL0     C 5940   0.695   3.680   0.317  0.2297 -0.4277  0.3338
   44MOL0     C 5941   0.760   3.591   0.241  0.1379 -0.1085  0.6444
   44MOL0     O 5942   0.900   3.575   0.257  0.2665  0.9949 -0.0037
   44MOL0     C 5943   0.924   3.520   0.385 -0.3247  0.4532  0.2342
   44MOL0     C 5944   1.069   3.573   0.412  0.2493  0.1263  0.2779
   44MOL0     C 5945   1.120   3.497   0.530 -0.2206  0.4219 -0.9287
   44MOL0     C 5946   1.077   3.566   0.664 -0.0050 -0.1195  0.3289
   44MOL0     C 5947   1.144   3.506   0.780  0.0113 -0.4184  0.3664
   44MOL0     C 5948   1.073   3.542   0.911 -0.0911  0.8289 -0.8329
   44MOL0     C 5949   0.958   3.447   0.935  0.6624 -0.4197  0.4711
   44MOL0     C 5950   0.884   3.469   1.073 -0.4798  0.5065  0.0817
   44MOL0     N 5951   0.749   3.417   1.067 -0.4504  0.4307 -0.0422
   44MOL0     C 5952   0.704   3.285   1.056 -0.0402 -0.1533  0.3502
   44MOL0     C 5953   0.585   3.289   1.107  0.4270 -0.9562  0.0761
   44MOL0     C 5954   0.493   3.164   1.099 -0.3016  0.1655 -0.5963
   44MOL0     C 5955   0.338   3.200   1.093  0.4716  0.6595 -0.6445
   44MOL0     C 5956   0.293   3.257   0.959  1.3132 -0.9510  0.8500
   44MOL0     C 5957   0.146   3.275   0.943 -0.0068  0.1288  0.1497
   44MOL0     O 5958   0.095   3.156   0.894 -0.8354  0.5815 -0.1544
   44MOL0     C 5959  -0.024   3.125   0.939  0.3105  0.1801 -0.8214
   44MOL0     C 5960  -0.117   3.212   1.002 -0.1903  0.3726  1.0403
   44MOL0     C 5961  -0.249   3.166   1.044  0.3383  0.2805 -0.7538
   44MOL0     C 5962  -0.339   3.263   1.115  0.2084  0.1333  0.3325
   44MOL0     C 5963  -0.277   3.023   1.025 -0.4584  0.6077 -0.1435
   44MOL0     C 5964  -0.407   2.961   1.067  0.0993 -0.4832  0.3236
   44MOL0     O 5965  -0.437   2.830   1.039 -0.4557  0.5530  0.5871
   44MOL0     C 5966  -0.520   2.753   1.114  1.0849 -0.5864  0.3382
   44MOL0     C 5967  -0.646   2.790   1.167  0.2326 -0.1858 -0.1772
   44MOL0     C 5968  -0.728   2.692   1.224  0.0719 -0.2628  0.2850
   44MOL0     C 5969  -0.677   2.562   1.254 -0.5512 -0.4169 -0.3812
   44MOL0     O 5970  -0.736   2.482   1.351 -0.6003  0.5038  0.4412
   44MOL0     C 5971  -0.765   2.542   1.475  0.1065 -0.0804 -0.4490
   44MOL0     C 5972  -0.768   2.441   1.585  0.6355 -0.1416 -0.4744
   44MOL0     C 5973  -0.626   2.410   1.644 -0.7148 -0.8060  1.1657
   44MOL0     C 5974  -0.612   2.282   1.724 -0.7976 -0.2186  0.4790
   44MOL0     C 5975  -0.473   2.269   1.800  0.2658 -0.6308  0.2761
   44MOL0     C 5976  -0.446   2.123   1.827 -0.1598 -0.4779  0.0273
   44MOL0     C 5977  -0.307   2.097   1.868  1.2202  0.1799 -0.0343
   44MOL0     C 5978  -0.280   2.156   2.007  0.5476  0.1713 -0.1216
   44MOL0    Cl 5979  -0.105   2.138   2.055  0.0504 -0.2053  0.2910
   44MOL0     C 5980  -0.559   2.522   1.185 -0.4466 -0.7319  0.2602
   44MOL0     C 5981  -0.478   2.619   1.122 -0.7967 -0.2468 -0.3308
   44MOL0     O 5982  -0.478   3.024   1.143 -0.9555  0.3809 -0.1042
   44MOL0     C 5983  -0.179   2.942   0.968  0.6437  0.5648  0.2071
   44MOL0     C 5984  -0.061   2.991   0.920  0.6286 -0.1829  0.8413
   44MOL0     N 5985   0.547   3.415   1.147  0.5994 -0.6158  0.6801
   44MOL0     N 5986   0.640   3.490   1.114 -0.6782  0.8670 -0.2709
   44MOL0     C 5987   0.686   3.515   0.150 -0.1163  0.2020 -0.0096
   44MOL0     C 5988   0.551   3.533   0.128  0.2568 -0.3987 -0.9145
   44MOL0     C 5989   0.116   3.663   0.252 -0.3703 -0.7523 -0.7784
   44MOL0     C 5990   0.087   3.660   0.118 -0.2330  0.3470 -0.0640
   44MOL0     C 5991  -0.046   3.672   0.067 -0.3265  0.0764  0.3364
   44MOL0     C 5992  -0.153   3.683   0.155 -0.5123 -0.4203 -0.3957
   44MOL0     O 5993  -0.273   3.705   0.102 -0.3201 -0.4677 -0.1995
   44MOL0     C 5994  -0.378   3.740   0.189  1.0881 -0.2966  0.0170
   44MOL0     C 5995  -0.360   3.887   0.243  0.3849 -0.0229  0.1760
   44MOL0     C 5996  -0.454   3.995   0.170 -0.0010 -0.5969  0.4349
   44MOL0     C 5997  -0.449   4.132   0.245  0.8631 -0.8314 -0.2775
   44MOL0     C 5998  -0.549   4.150   0.346  0.6918 -0.2755 -0.4957
   44MOL0     C 5999  -0.619   4.156   0.448 -0.0067 -0.4012  0.6722
   44MOL0     C 6000  -0.124   3.695   0.295  0.0157  0.1073 -0.3821
   44MOL0     C 6001   0.014   3.690   0.346  0.3599 -0.4185  0.3258
   44MOL0     C 6002   0.038   3.709   0.494  0.2040  0.0066 -0.1149
   44MOL0     H 6003   0.506   3.749   0.372 -0.5783  2.5325 -1.8763
   44MOL0     H 6004   0.749   3.748   0.382 -0.1344  1.4002 -1.1562
   44MOL0     H 6005   0.909   3.412   0.385 -1.8065  0.6317  1.5105
   44MOL0     H 6006   0.853   3.559   0.458 -1.7997  0.3464 -1.0865
   44MOL0     H 6007   1.129   3.560   0.322 -0.9816  1.7882 -0.8292
   44MOL0     H 6008   1.063   3.681   0.428  0.1795  0.4009 -1.4360
   44MOL0     H 6009   1.073   3.399   0.518  1.4664 -0.4980 -0.3149
   44MOL0     H 6010   1.229   3.490   0.531 -0.1013  1.6954  1.4578
   44MOL0     H 6011   1.105   3.671   0.656  1.7306 -0.3950  2.0307
   44MOL0     H 6012   0.969   3.549   0.674 -0.1133 -2.2741 -2.9200
   44MOL0     H 6013   1.235   3.566   0.790  0.1708 -0.9237  2.2455
   44MOL0     H 6014   1.173   3.401   0.773 -0.5557 -0.5367 -0.3478
   44MOL0     H 6015   1.137   3.521   0.997 -1.8624 -2.8070 -0.2160
   44MOL0     H 6016   1.041   3.646   0.915 -0.8885  0.5486  0.7389
   44MOL0     H 6017   0.992   3.343   0.927  1.0476 -0.2152 -0.7699
   44MOL0     H 6018   0.887   3.457   0.853  1.4165 -1.2567 -0.3141
   44MOL0     H 6019   0.925   3.415   1.160  1.9557  2.0775  0.0105
   44MOL0     H 6020   0.882   3.573   1.106 -1.1492  0.3131  0.6851
   44MOL0     H 6021   0.748   3.190   1.030 -1.9392 -1.1038  0.4856
   44MOL0     H 6022   0.512   3.102   1.187  1.4248  2.5479  0.8435
   44MOL0     H 6023   0.520   3.100   1.015  1.6006  2.5984 -1.9879
   44MOL0     H 6024   0.294   3.101   1.105 -3.1933  2.3636  2.1667
   44MOL0     H 6025   0.307   3.260   1.179  2.1817  3.8252 -2.0565
   44MOL0     H 6026   0.318   3.364   0.955 -1.8035 -0.1117 -3.2877
   44MOL0     H 6027   0.347   3.203   0.880  1.4164  0.0482  0.2140
   44MOL0     H 6028   0.103   3.299   1.040 -2.8382  1.3820 -1.2802
   44MOL0     H 6029   0.113   3.351   0.871 -2.3947 -0.7182  0.2697
   44MOL0     H 6030  -0.103   3.314   1.035 -2.1426  1.1338 -0.2819
   44MOL0     H 6031  -0.440   3.263   1.074 -0.1385  1.9005  1.0790
   44MOL0     H 6032  -0.302   3.363   1.092 -2.9619  0.7912 -2.7257
   44MOL0     H 6033  -0.344   3.249   1.224 -0.0576  1.5791  0.5201
   44MOL0     H 6034  -0.679   2.890   1.143 -1.3980 -0.4965  0.6339
   44MOL0     H 6035  -0.824   2.711   1.270  0.3914  3.2768 -0.1802
   44MOL0     H 6036  -0.696   2.625   1.493  0.2145 -0.3560  0.4329
   44MOL0     H 6037  -0.870   2.572   1.470  0.1601 -0.0534 -4.5049
   44MOL0     H 6038  -0.827   2.481   1.668  0.0982  0.6735 -1.2302
   44MOL0     H 6039  -0.807   2.344   1.553  0.1388 -0.4031  0.9020
   44MOL0     H 6040  -0.605   2.484   1.721 -2.7996  1.0524  0.0542
   44MOL0     H 6041  -0.545   2.428   1.573  1.4637  1.2378  3.9682
   44MOL0     H 6042  -0.632   2.192   1.665 -0.8450  1.3615 -2.0997
   44MOL0     H 6043  -0.690   2.273   1.799  0.7569 -0.8356  2.0955
   44MOL0     H 6044  -0.398   2.298   1.726 -1.6913 -0.7080 -1.8500
   44MOL0     H 6045  -0.461   2.342   1.880 -1.2152  0.5979 -0.5546
   44MOL0     H 6046  -0.467   2.065   1.737  0.9301  2.2694 -2.1058
   44MOL0     H 6047  -0.520   2.074   1.892 -0.5125 -0.5337 -0.4175
   44MOL0     H 6048  -0.244   2.150   1.796  0.1510  1.6441  0.0547
   44MOL0     H 6049  -0.295   1.988   1.865  0.2898  0.0144  1.2368
   44MOL0     H 6050  -0.342   2.106   2.082 -0.2089  0.8013 -0.3163
   44MOL0     H 6051  -0.309   2.261   2.011 -1.3193 -0.1621 -2.5634
   44MOL0     H 6052  -0.529   2.421   1.211 -0.2067 -1.2449 -1.8012
   44MOL0     H 6053  -0.377   2.600   1.087 -1.4983 -0.2167 -2.5082
   44MOL0     H 6054  -0.190   2.835   0.950 -1.1063  0.6299  0.7936
   44MOL0     H 6055   0.010   2.933   0.862  1.4024  1.4137  0.1360
   44MOL0     H 6056   0.729   3.426   0.104  0.6350 -0.2811  1.5766
   44MOL0     H 6057   0.493   3.465   0.065  2.9836 -0.5051 -3.4908
   44MOL0     H 6058   0.170   3.653   0.049  1.0455 -1.1182  1.5032
   44MOL0     H 6059  -0.050   3.680  -0.041  0.4024 -1.4574  0.1708
   44MOL0     H 6060  -0.477   3.724   0.146  1.0927  1.0163 -0.5182
   44MOL0     H 6061  -0.388   3.665   0.268 -1.5698  1.6626  1.7390
   44MOL0     H 6062  -0.256   3.921   0.252  1.5598 -3.7524  5.7099
   44MOL0     H 6063  -0.393   3.885   0.347 -2.5860 -0.0175 -0.6785
   44MOL0     H 6064  -0.424   4.009   0.066  2.0149 -2.5363  0.6746
   44MOL0     H 6065  -0.559   3.964   0.183 -0.1336 -0.1412  0.4715
   44MOL0     H 6066  -0.477   4.211   0.175  0.2248 -0.9494 -0.1651
   44MOL0     H 6067  -0.351   4.155   0.289  0.1838  0.8554  0.4495
   44MOL0     H 6068  -0.674   4.164   0.540  2.5779  0.2007  2.2738
   44MOL0     H 6069  -0.201   3.701   0.371  0.8341  3.2669  0.3455
   44MOL0     H 6070  -0.051   3.712   0.557  1.9630  0.7767  2.4808
   44MOL0     H 6071   0.100   3.624   0.522  1.2808  0.5297 -0.8090
   44MOL0     H 6072   0.090   3.805   0.505  2.1057 -0.9455 -0.3149
   45MOL0     O 6073   2.953  10.920   4.551 -0.2818  0.1749 -0.0633
   45MOL0     C 6074   2.924  10.895   4.435  0.0777 -0.2461  0.1592
   45MOL0     O 6075   2.831  10.963   4.362 -0.5945 -0.0642  1.3504
   45MOL0     C 6076   2.800  11.089   4.411 -0.4266  0.2976 -0.9708
   45MOL0     C 6077   2.680  11.109   4.464 -0.6954 -0.0644  0.9562
   45MOL0     C 6078   2.649  11.237   4.522  0.1178  0.7161  1.0193
   45MOL0     C 6079   2.739  11.339   4.501 -0.1604 -0.4809 -0.4841
   45MOL0     O 6080   2.709  11.455   4.561 -0.1401 -0.1350 -0.7315
   45MOL0     C 6081   2.776  11.583   4.537  0.4473 -0.0316  0.0401
   45MOL0     C 6082   2.671  11.696   4.543 -0.1113 -0.1155  0.9890
   45MOL0     C 6083   2.558  11.673   4.445  0.0248  0.3024 -0.6884
   45MOL0     C 6084   2.511  11.791   4.360  0.4318  0.0090 -0.3707
   45MOL0     C 6085   2.361  11.784   4.333 -1.1897  0.2095 -0.2933
   45MOL0     C 6086   2.262  11.791   4.454  0.1146 -0.0978  0.7572
   45MOL0     C 6087   2.113  11.755   4.412  0.7602  0.7711 -0.5143
   45MOL0     C 6088   2.020  11.729   4.531 -0.5954  0.3996 -0.4357
   45MOL0     N 6089   1.898  11.641   4.514  0.2130 -0.0801 -0.3051
   45MOL0     C 6090   1.860  11.543   4.600  0.9569  0.4529  0.4659
   45MOL0     C 6091   1.774  11.472   4.520 -0.5336 -0.2071 -0.5980
   45MOL0     C 6092   1.679  11.358   4.562 -0.3605 -1.3669 -0.3092
   45MOL0     C 6093   1.553  11.378   4.485 -0.0256  0.4560  0.1368
   45MOL0     C 6094   1.452  11.465   4.559  0.9277 -0.2388  0.2092
   45MOL0     C 6095   1.330  11.487   4.461 -0.4525  0.0114 -0.4016
   45MOL0     O 6096   1.264  11.364   4.443 -0.4127 -0.0316  0.0890
   45MOL0     C 6097   1.130  11.356   4.417  0.1340 -0.4403  0.7568
   45MOL0     C 6098   1.038  11.457   4.407 -0.2138  0.2905 -0.6638
   45MOL0     C 6099   0.904  11.429   4.397 -0.2682 -0.8050  0.2807
   45MOL0     C 6100   0.806  11.538   4.392  0.7218 -0.1990 -1.0772
   45MOL0     C 6101   0.863  11.292   4.379  0.4877  0.1193  0.3529
   45MOL0     C 6102   0.725  11.253   4.347 -0.6135 -0.1344  0.6801
   45MOL0     O 6103   0.679  11.143   4.400  0.0623  0.3545 -0.2308
   45MOL0     C 6104   0.543  11.114   4.378  0.2349  0.9367 -0.6486
   45MOL0     C 6105   0.493  10.984   4.380 -1.3494  0.8839 -0.9355
   45MOL0     C 6106   0.354  10.963   4.385  0.5454  0.5100  0.2347
   45MOL0     C 6107   0.260  11.058   4.385  0.3451  0.1582  0.7062
   45MOL0     O 6108   0.121  11.020   4.390 -0.1255 -0.5607 -0.2232
   45MOL0     C 6109   0.032  11.117   4.367  0.0028  0.8095 -0.0890
   45MOL0     C 6110  -0.120  11.067   4.362  0.4519  0.8662 -0.2006
   45MOL0     C 6111  -0.171  11.045   4.503 -0.3555  0.2669 -0.3642
   45MOL0     C 6112  -0.318  10.988   4.513 -0.0440  0.0076  0.9962
   45MOL0     C 6113  -0.368  11.010   4.657  0.1746 -0.9006 -0.5242
   45MOL0     C 6114  -0.508  10.949   4.684 -0.5662 -0.3034 -0.1340
   45MOL0     C 6115  -0.561  10.957   4.824 -0.3658  0.2840 -0.2148
   45MOL0     C 6116  -0.596  11.100   4.877  0.2054 -0.6630  0.8951
   45MOL0    Cl 6117  -0.713  11.183   4.769  0.1227  0.2776 -0.1344
   45MOL0     C 6118   0.317  11.191   4.368 -0.6503  0.5898  0.1624
   45MOL0     C 6119   0.450  11.218   4.379  0.3318  0.4166  0.9034
   45MOL0     O 6120   0.678  11.314   4.253  0.0675  0.2497 -0.1449
   45MOL0     C 6121   0.955  11.192   4.402 -0.5139 -0.3225  0.2765
   45MOL0     C 6122   1.090  11.226   4.422 -0.4144  1.3378 -0.4590
   45MOL0     N 6123   1.784  11.528   4.390  0.9760  0.2257 -0.2238
   45MOL0     N 6124   1.849  11.630   4.391 -0.8672  0.2017 -0.2568
   45MOL0     C 6125   2.857  11.322   4.433 -1.2063  0.0206 -0.3927
   45MOL0     C 6126   2.883  11.198   4.385  0.6371  0.2750 -0.7312
   45MOL0     C 6127   2.963  10.758   4.391  0.0228 -0.0131 -0.0728
   45MOL0     C 6128   2.961  10.657   4.482  0.2684 -0.9680 -0.9060
   45MOL0     C 6129   2.997  10.527   4.463 -0.9430 -0.2000 -0.7212
   45MOL0     C 6130   3.027  10.497   4.328 -0.0944 -0.4509  0.5930
   45MOL0     O 6131   3.042  10.364   4.302  0.0242  0.0977 -0.5398
   45MOL0     C 6132   3.174  10.319   4.274  0.2118 -0.4898 -0.1953
   45MOL0     C 6133   3.199  10.175   4.331 -0.4785  0.1647 -0.1751
   45MOL0     C 6134   3.181  10.159   4.485 -0.4936 -0.6252  0.9608
   45MOL0     C 6135   3.265  10.262   4.547 -0.3821  1.3051 -0.4545
   45MOL0     C 6136   3.315  10.215   4.682  0.2453 -0.1146 -0.3721
   45MOL0     C 6137   3.348  10.187   4.791 -0.0369 -0.4275 -0.8337
   45MOL0     C 6138   3.020  10.591   4.227  0.0350  0.6618  0.2902
   45MOL0     C 6139   2.987  10.722   4.256 -0.1527 -0.1257  0.1195
   45MOL0     C 6140   2.980  10.833   4.149 -0.1042  0.2559 -1.2438
   45MOL0     H 6141   2.607  11.030   4.470 -1.2431  0.4979  2.0702
   45MOL0     H 6142   2.558  11.240   4.581 -0.4308 -1.0672  0.3503
   45MOL0     H 6143   2.838  11.590   4.448  2.1975 -0.9413  1.1134
   45MOL0     H 6144   2.838  11.598   4.626 -1.6104  2.7913  1.1438
   45MOL0     H 6145   2.634  11.692   4.645 -0.2761 -1.4597  0.8974
   45MOL0     H 6146   2.732  11.785   4.525  0.1507  0.3210  3.6219
   45MOL0     H 6147   2.589  11.594   4.376 -0.3277  1.3096 -2.0452
   45MOL0     H 6148   2.481  11.613   4.496  1.0078  1.1250  1.9082
   45MOL0     H 6149   2.534  11.881   4.418  2.0320 -2.0796  2.5252
   45MOL0     H 6150   2.565  11.795   4.266  0.9379  1.9753 -0.0299
   45MOL0     H 6151   2.344  11.701   4.264  0.3609 -0.5540  0.1963
   45MOL0     H 6152   2.344  11.879   4.283  1.6298  1.4855  0.9553
   45MOL0     H 6153   2.287  11.717   4.531 -0.2170 -1.0187  0.0013
   45MOL0     H 6154   2.266  11.887   4.506  1.7668 -0.5023  1.4305
   45MOL0     H 6155   2.116  11.668   4.345 -1.9350 -0.5393  0.9174
   45MOL0     H 6156   2.069  11.841   4.362 -0.3421  2.2212  2.7007
   45MOL0     H 6157   2.081  11.681   4.608 -0.5766 -2.2126 -1.9997
   45MOL0     H 6158   1.990  11.828   4.568  2.6137  1.4203 -0.3071
   45MOL0     H 6159   1.875  11.531   4.707  0.2031  1.6215  0.7195
   45MOL0     H 6160   1.651  11.380   4.666 -3.0407  4.4530 -1.8369
   45MOL0     H 6161   1.725  11.260   4.551  0.4984 -0.8184 -1.9151
   45MOL0     H 6162   1.564  11.409   4.381 -5.9861  1.1300 -0.6388
   45MOL0     H 6163   1.505  11.285   4.454 -0.3421  0.4531  0.6285
   45MOL0     H 6164   1.424  11.416   4.654  1.9240 -2.7068 -0.6834
   45MOL0     H 6165   1.489  11.563   4.589  0.2564 -0.3769  1.5823
   45MOL0     H 6166   1.270  11.567   4.506  1.4446  0.3523  1.6699
   45MOL0     H 6167   1.373  11.518   4.365 -1.3226  1.4714 -0.3428
   45MOL0     H 6168   1.066  11.561   4.412  1.4785 -0.0031 -2.6862
   45MOL0     H 6169   0.732  11.530   4.312  0.6587  0.8613 -1.1417
   45MOL0     H 6170   0.853  11.637   4.390 -0.5494  0.4673 -0.0017
   45MOL0     H 6171   0.756  11.536   4.489  0.3031 -0.5956 -1.3005
   45MOL0     H 6172   0.557  10.896   4.375 -0.9085  1.0850  0.7958
   45MOL0     H 6173   0.316  10.861   4.386  1.0169  0.3232 -0.3029
   45MOL0     H 6174   0.037  11.201   4.437  0.8218  1.3511 -0.7775
   45MOL0     H 6175   0.058  11.172   4.276  0.6681 -1.6772 -1.4785
   45MOL0     H 6176  -0.174  11.152   4.318  2.9556  1.9307 -1.4415
   45MOL0     H 6177  -0.127  10.975   4.304  2.4090  1.3862 -1.3608
   45MOL0     H 6178  -0.166  11.133   4.567  1.5584 -0.2960  0.3391
   45MOL0     H 6179  -0.097  10.971   4.536  0.1509  0.9533  0.0564
   45MOL0     H 6180  -0.316  10.885   4.476  1.5268  0.1479  0.6137
   45MOL0     H 6181  -0.386  11.042   4.448 -0.2342 -0.6581  0.6343
   45MOL0     H 6182  -0.297  10.968   4.728 -0.2360 -1.9910 -0.7375
   45MOL0     H 6183  -0.369  11.114   4.690  1.6848 -1.8377  2.9453
   45MOL0     H 6184  -0.496  10.847   4.645  1.2962  0.2535 -1.1321
   45MOL0     H 6185  -0.573  11.011   4.622 -0.1998  4.0883  3.3677
   45MOL0     H 6186  -0.481  10.915   4.886 -1.2338 -0.3913  0.4742
   45MOL0     H 6187  -0.650  10.896   4.845  0.3104 -0.6581 -0.0566
   45MOL0     H 6188  -0.504  11.159   4.880  1.1365 -1.7927 -1.9568
   45MOL0     H 6189  -0.632  11.083   4.979  1.3683 -0.9979  1.2702
   45MOL0     H 6190   0.264  11.286   4.370  0.3004  1.1184  1.7507
   45MOL0     H 6191   0.471  11.324   4.390 -0.3641  0.5228  1.3393
   45MOL0     H 6192   0.930  11.086   4.403 -1.0202 -0.2178 -0.5437
   45MOL0     H 6193   1.162  11.146   4.434 -0.6209  1.0498 -1.1085
   45MOL0     H 6194   2.922  11.406   4.412 -4.7125  2.6898 -1.5040
   45MOL0     H 6195   2.972  11.179   4.327 -0.8938 -2.7710 -2.3725
   45MOL0     H 6196   2.936  10.673   4.587  0.0197 -0.5090 -1.0323
   45MOL0     H 6197   3.000  10.455   4.544  0.8195  1.5100  0.8478
   45MOL0     H 6198   3.201  10.317   4.168  2.8732  1.5132  0.3286
   45MOL0     H 6199   3.256  10.389   4.294  1.4012 -1.4942 -1.3565
   45MOL0     H 6200   3.300  10.141   4.308 -1.4801 -1.9665 -1.7511
   45MOL0     H 6201   3.133  10.114   4.268 -1.2008  0.6574  0.0923
   45MOL0     H 6202   3.076  10.169   4.516 -1.4914  2.3159 -2.6220
   45MOL0     H 6203   3.217  10.058   4.508  0.7914 -0.2250  0.7584
   45MOL0     H 6204   3.212  10.356   4.565 -0.1050  1.3041  0.4083
   45MOL0     H 6205   3.351  10.294   4.488  0.7911 -0.0699  0.4311
   45MOL0     H 6206   3.380  10.168   4.891 -1.0897 -1.5770 -0.6829
   45MOL0     H 6207   3.043  10.551   4.129 -2.8789  0.0595 -0.2603
   45MOL0     H 6208   3.042  10.913   4.190 -2.1368 -0.4287  3.8781
   45MOL0     H 6209   2.998  10.792   4.049 -4.3936 -1.4085 -1.5565
   45MOL0     H 6210   2.875  10.860   4.130 -0.6359 -2.2166 -2.1889
   46MOL0     O 6211   4.493  10.392   8.159  0.6009  0.1903 -0.6857
   46MOL0     C 6212   4.470  10.284   8.113 -0.0886 -0.5911  0.1112
   46MOL0     O 6213   4.568  10.200   8.078  0.6131  0.1056  0.3550
   46MOL0     C 6214   4.698  10.245   8.060  0.0348 -0.4492  0.1583
   46MOL0     C 6215   4.731  10.349   7.974  0.2573 -0.1521  0.3606
   46MOL0     C 6216   4.870  10.383   7.945  0.8690 -0.6900  0.5550
   46MOL0     C 6217   4.973  10.311   8.012 -0.7824 -0.3755  0.3851
   46MOL0     O 6218   5.104  10.340   7.990  0.1218  0.0711  0.0581
   46MOL0     C 6219   5.139  10.480   7.956  0.3796 -0.2699  0.2496
   46MOL0     C 6220   5.286  10.492   7.975 -0.2656 -0.5637  1.3271
   46MOL0     C 6221   5.345  10.418   7.866  0.1050  0.5799  1.3668
   46MOL0     C 6222   5.490  10.442   7.862 -0.3458 -0.8667 -0.1060
   46MOL0     C 6223   5.524  10.583   7.816  0.3644 -0.1360  0.2952
   46MOL0     C 6224   5.662  10.582   7.735 -0.5138  0.2652 -0.2039
   46MOL0     C 6225   5.727  10.729   7.716  0.8652  0.1938  0.2028
   46MOL0     C 6226   5.865  10.708   7.760  0.0761  0.8712  0.3899
   46MOL0     N 6227   5.938  10.607   7.682 -0.8611 -0.3302 -0.1416
   46MOL0     C 6228   6.025  10.531   7.757  1.0608 -1.9863  0.0141
   46MOL0     C 6229   6.144  10.531   7.693  0.7402 -0.0663  0.3168
   46MOL0     C 6230   6.267  10.453   7.744  0.6412  1.3198  0.5032
   46MOL0     C 6231   6.348  10.521   7.859  0.4096 -1.5161  0.1150
   46MOL0     C 6232   6.397  10.665   7.804  0.7613  0.1450 -0.0564
   46MOL0     C 6233   6.466  10.736   7.923 -0.3229 -0.3255  0.4991
   46MOL0     O 6234   6.574  10.660   7.986  0.5673 -0.0586 -0.2691
   46MOL0     C 6235   6.661  10.734   8.074 -0.4645  0.7474  0.4861
   46MOL0     C 6236   6.645  10.866   8.103 -0.0129  0.3484  0.3330
   46MOL0     C 6237   6.737  10.943   8.179 -0.3739  0.6880 -0.1607
   46MOL0     C 6238   6.703  11.082   8.215 -0.6126  0.0341  0.2051
   46MOL0     C 6239   6.857  10.873   8.211  0.9342  0.2681 -0.3576
   46MOL0     C 6240   6.966  10.939   8.282  0.1752 -0.0019  0.6055
   46MOL0     O 6241   7.066  10.858   8.339 -0.0145 -0.1868 -0.2088
   46MOL0     C 6242   7.185  10.927   8.367 -0.1954  0.2724  0.7525
   46MOL0     C 6243   7.228  10.917   8.497  0.1427  0.3882  0.3154
   46MOL0     C 6244   7.343  10.981   8.530 -0.1802 -0.1461 -0.4353
   46MOL0     C 6245   7.435  11.023   8.432 -0.1328 -1.0869 -0.6754
   46MOL0     O 6246   7.558  11.076   8.450 -0.1928 -0.5291  0.9008
   46MOL0     C 6247   7.598  11.129   8.572  0.5213  0.0636 -0.2924
   46MOL0     C 6248   7.716  11.224   8.553  0.4967 -0.0378  0.2621
   46MOL0     C 6249   7.761  11.258   8.694 -0.1088  0.0371  0.1826
   46MOL0     C 6250   7.850  11.385   8.700 -0.8940 -0.2849  0.7046
   46MOL0     C 6251   7.950  11.387   8.817  0.7674 -0.8489 -1.2538
   46MOL0     C 6252   8.025  11.519   8.839 -0.3571 -0.2013 -0.1859
   46MOL0     C 6253   8.110  11.582   8.736  0.0777 -0.4258  0.2494
   46MOL0     C 6254   8.240  11.512   8.695 -1.0105 -0.2444  0.2791
   46MOL0    Cl 6255   8.355  11.485   8.830  0.0640 -0.2636  0.4259
   46MOL0     C 6256   7.381  11.038   8.309 -0.6871 -0.6922 -0.1132
   46MOL0     C 6257   7.251  11.001   8.267 -0.8432 -0.0978 -0.2531
   46MOL0     O 6258   6.968  11.062   8.275  0.6623 -0.2382 -0.3090
   46MOL0     C 6259   6.873  10.735   8.189  0.3430  0.0455 -0.8467
   46MOL0     C 6260   6.776  10.669   8.119  0.4160 -0.7083  0.3656
   46MOL0     N 6261   6.124  10.607   7.581 -0.0174  0.3772 -0.0230
   46MOL0     N 6262   5.996  10.643   7.561  0.6576 -0.1935  0.0752
   46MOL0     C 6263   4.933  10.207   8.096 -0.3531  0.0631  0.7556
   46MOL0     C 6264   4.803  10.167   8.110 -0.3038  0.3806 -0.1822
   46MOL0     C 6265   4.329  10.242   8.097  0.9978 -0.1271 -0.9917
   46MOL0     C 6266   4.229  10.283   8.191 -0.6510  0.4217 -0.4585
   46MOL0     C 6267   4.090  10.259   8.168 -0.0459 -0.2793  0.3649
   46MOL0     C 6268   4.046  10.196   8.049 -0.6592 -0.3454 -0.7833
   46MOL0     O 6269   3.914  10.154   8.049 -1.0158 -0.1813  0.4390
   46MOL0     C 6270   3.866  10.066   7.945 -0.8415 -1.2794 -0.0264
   46MOL0     C 6271   3.899   9.922   7.959 -0.2219  0.5547 -0.0661
   46MOL0     C 6272   3.825   9.838   7.854 -0.4628 -0.2774 -0.0796
   46MOL0     C 6273   3.832   9.691   7.884 -0.9369  0.3188  0.1731
   46MOL0     C 6274   3.771   9.609   7.773  0.0666  0.5671 -0.5743
   46MOL0     C 6275   3.709   9.547   7.680 -0.2677  0.5270 -0.5229
   46MOL0     C 6276   4.141  10.157   7.954 -1.0096 -0.3537 -0.3634
   46MOL0     C 6277   4.282  10.173   7.984  0.4727  0.0867  0.4281
   46MOL0     C 6278   4.380  10.113   7.885 -0.4881 -0.0521 -0.5510
   46MOL0     H 6279   4.649  10.408   7.935  0.8243  1.8102  1.9419
   46MOL0     H 6280   4.890  10.461   7.873 -0.3738  0.5202  1.4557
   46MOL0     H 6281   5.091  10.548   8.027  1.7949 -1.0981  2.0774
   46MOL0     H 6282   5.103  10.507   7.856 -2.6335 -1.3451  0.9307
   46MOL0     H 6283   5.301  10.600   7.964 -2.5422 -0.4682 -2.4377
   46MOL0     H 6284   5.308  10.459   8.077 -0.8579 -2.2646  0.9367
   46MOL0     H 6285   5.325  10.311   7.876 -0.9255  0.1378 -3.1337
   46MOL0     H 6286   5.304  10.441   7.767  2.5082 -1.3966 -0.2204
   46MOL0     H 6287   5.534  10.425   7.960  0.0218  0.2804 -0.0532
   46MOL0     H 6288   5.535  10.378   7.786 -0.8510  0.2198 -1.3659
   46MOL0     H 6289   5.531  10.651   7.902 -1.0353 -2.6556  2.5633
   46MOL0     H 6290   5.452  10.620   7.743 -0.3206 -1.3244  0.3479
   46MOL0     H 6291   5.733  10.520   7.790 -0.3100  2.0372  1.6692
   46MOL0     H 6292   5.656  10.519   7.646  2.3029 -1.8700  0.9767
   46MOL0     H 6293   5.672  10.796   7.782  1.6792  0.5274  0.5579
   46MOL0     H 6294   5.724  10.766   7.613 -2.8138  1.3419  0.5991
   46MOL0     H 6295   5.921  10.801   7.776 -0.4940  1.0962  1.1163
   46MOL0     H 6296   5.863  10.681   7.866  0.7744 -0.5081  0.0772
   46MOL0     H 6297   6.000  10.477   7.848  0.0119 -3.4273 -1.0682
   46MOL0     H 6298   6.329  10.424   7.659 -1.7616 -1.0176 -0.6048
   46MOL0     H 6299   6.235  10.359   7.791  2.1229  0.8940  0.7124
   46MOL0     H 6300   6.284  10.539   7.946 -0.6608 -1.2524 -0.7026
   46MOL0     H 6301   6.434  10.461   7.888 -0.4273 -1.2747  3.5809
   46MOL0     H 6302   6.464  10.664   7.718 -0.1180  0.4723 -0.7559
   46MOL0     H 6303   6.303  10.716   7.783 -1.4761 -3.5715 -0.0989
   46MOL0     H 6304   6.495  10.831   7.876 -4.2580  1.1112  0.6283
   46MOL0     H 6305   6.388  10.766   7.993 -0.9532  0.2019 -0.4205
   46MOL0     H 6306   6.551  10.916   8.082  0.4928  1.1575 -0.0325
   46MOL0     H 6307   6.711  11.104   8.322 -1.3683  2.2832 -0.1523
   46MOL0     H 6308   6.598  11.097   8.193 -0.6403  2.8230  1.8005
   46MOL0     H 6309   6.762  11.156   8.160 -2.1671  0.4159 -1.0101
   46MOL0     H 6310   7.166  10.879   8.577  0.4121 -0.6979  0.0279
   46MOL0     H 6311   7.373  11.001   8.633  1.6114 -0.5242 -0.8375
   46MOL0     H 6312   7.512  11.179   8.617  0.1310  0.0084 -0.9491
   46MOL0     H 6313   7.630  11.052   8.642  1.2296 -0.0716 -0.7515
   46MOL0     H 6314   7.801  11.181   8.499 -0.1243 -2.0349  0.8097
   46MOL0     H 6315   7.681  11.316   8.505  2.2992  1.3159  1.3978
   46MOL0     H 6316   7.811  11.170   8.734 -0.9100 -1.0170 -1.0509
   46MOL0     H 6317   7.676  11.272   8.762 -1.0545 -1.3063 -0.6760
   46MOL0     H 6318   7.793  11.478   8.707 -0.1279  0.4434 -1.8464
   46MOL0     H 6319   7.898  11.386   8.602  2.2646 -3.3123  2.0299
   46MOL0     H 6320   7.905  11.347   8.909  0.4977  0.2689 -0.8748
   46MOL0     H 6321   8.040  11.327   8.804  0.8436 -0.8052 -0.9540
   46MOL0     H 6322   8.087  11.513   8.930 -0.8248  7.0921  1.2900
   46MOL0     H 6323   7.945  11.587   8.870  0.4167  0.4266  0.4722
   46MOL0     H 6324   8.134  11.684   8.768  1.3120 -1.3636  2.5584
   46MOL0     H 6325   8.050  11.597   8.646  3.3313  3.4154 -1.6431
   46MOL0     H 6326   8.281  11.578   8.618 -1.8128  1.0430  0.9211
   46MOL0     H 6327   8.221  11.414   8.650  2.2575 -0.5217 -0.7588
   46MOL0     H 6328   7.437  11.070   8.221 -2.7797 -3.5787 -2.7291
   46MOL0     H 6329   7.218  11.018   8.165  1.6725  0.7134 -1.0024
   46MOL0     H 6330   6.959  10.683   8.230  0.0833  0.5431  0.3698
   46MOL0     H 6331   6.801  10.566   8.096  1.4417 -0.4618  0.3309
   46MOL0     H 6332   5.001  10.147   8.155 -0.1622  0.5020  0.9866
   46MOL0     H 6333   4.787  10.078   8.170  0.7109 -0.4161 -1.0670
   46MOL0     H 6334   4.254  10.337   8.282  2.0415 -0.5824 -0.4875
   46MOL0     H 6335   4.022  10.298   8.243  0.2711  0.6472  0.1838
   46MOL0     H 6336   3.758  10.082   7.933 -1.0932 -1.5442  1.6768
   46MOL0     H 6337   3.906  10.107   7.852  0.2991 -2.0399  0.1151
   46MOL0     H 6338   3.868   9.886   8.058  0.6162  3.3631  1.3489
   46MOL0     H 6339   4.005   9.901   7.945 -0.6485 -2.0118  0.0429
   46MOL0     H 6340   3.720   9.869   7.846 -0.8654 -0.6271  2.9231
   46MOL0     H 6341   3.886   9.850   7.764  0.7364  0.4742  0.8014
   46MOL0     H 6342   3.786   9.668   7.980  0.2989 -1.4019  0.4171
   46MOL0     H 6343   3.938   9.668   7.900 -0.6667  1.0770 -0.4683
   46MOL0     H 6344   3.645   9.514   7.601 -0.9777  0.2403  0.1625
   46MOL0     H 6345   4.120  10.113   7.857  0.1569 -0.3721 -0.6140
   46MOL0     H 6346   4.330  10.068   7.798 -0.0317 -4.0242  1.0469
   46MOL0     H 6347   4.443  10.195   7.848  0.8032  0.4170  2.4301
   46MOL0     H 6348   4.447  10.039   7.930 -0.9989  2.3578  4.9642
   47MOL0     O 6349   4.427   8.006   7.494 -0.2388  0.0061 -0.0788
   47MOL0     C 6350   4.334   8.024   7.571  0.3888 -0.3292 -0.4748
   47MOL0     O 6351   4.296   8.148   7.625 -0.1380 -0.2628 -0.0315
   47MOL0     C 6352   4.382   8.244   7.597 -0.3463 -0.5181 -0.3819
   47MOL0     C 6353   4.386   8.310   7.466 -0.1228  0.6897  0.0811
   47MOL0     C 6354   4.488   8.400   7.429 -0.4984  0.1880 -0.7479
   47MOL0     C 6355   4.579   8.442   7.529 -0.5411  0.6151  0.3917
   47MOL0     O 6356   4.669   8.543   7.492  0.5701  0.8359  0.2164
   47MOL0     C 6357   4.762   8.593   7.587 -0.0623 -0.3176 -0.1141
   47MOL0     C 6358   4.888   8.629   7.508  1.1079 -0.3195  0.0958
   47MOL0     C 6359   5.015   8.663   7.589 -0.1414 -0.0838 -0.7228
   47MOL0     C 6360   5.112   8.767   7.518 -0.0015  0.0751 -0.1067
   47MOL0     C 6361   5.255   8.768   7.577 -0.5642  0.4864 -0.2953
   47MOL0     C 6362   5.309   8.624   7.574  0.5981  0.3896 -0.5582
   47MOL0     C 6363   5.460   8.630   7.542 -0.7842  1.0897  0.7859
   47MOL0     C 6364   5.509   8.485   7.530  0.5487  0.4311  0.3916
   47MOL0     N 6365   5.640   8.472   7.462 -0.2214  0.3983 -0.4865
   47MOL0     C 6366   5.680   8.543   7.355  0.2500  0.0940 -0.1588
   47MOL0     C 6367   5.814   8.532   7.340 -0.5466 -0.0744  0.2108
   47MOL0     C 6368   5.892   8.587   7.229 -0.6204 -0.7432  0.0656
   47MOL0     C 6369   5.985   8.703   7.263 -0.4306 -0.1262 -0.3381
   47MOL0     C 6370   6.077   8.667   7.381 -0.0353  0.1901 -0.7689
   47MOL0     C 6371   6.177   8.775   7.411  0.3928  0.6538 -0.4238
   47MOL0     O 6372   6.103   8.890   7.452  0.2476 -0.1918 -0.1668
   47MOL0     C 6373   6.179   8.985   7.526  0.2185  0.1707 -0.0041
   47MOL0     C 6374   6.097   9.095   7.564 -0.8358 -0.8150  0.0973
   47MOL0     C 6375   6.143   9.201   7.639  0.6792 -0.9584  1.1451
   47MOL0     C 6376   6.059   9.327   7.668 -0.4103  0.1816 -0.5294
   47MOL0     C 6377   6.283   9.193   7.682  0.3631  0.1988  0.0509
   47MOL0     C 6378   6.340   9.293   7.767 -0.3731 -0.6222  0.1330
   47MOL0     O 6379   6.447   9.368   7.719 -0.4668 -0.0563 -0.1273
   47MOL0     C 6380   6.535   9.424   7.803 -0.3675 -1.2278 -0.4397
   47MOL0     C 6381   6.638   9.354   7.867 -0.2061 -0.1562  0.0623
   47MOL0     C 6382   6.719   9.416   7.962  0.5826  0.4465 -0.2844
   47MOL0     C 6383   6.698   9.550   7.994 -0.6090  0.5453  0.2217
   47MOL0     O 6384   6.784   9.615   8.080  0.5848 -0.8580  0.1512
   47MOL0     C 6385   6.917   9.568   8.106 -0.5330  0.5331 -0.7977
   47MOL0     C 6386   7.002   9.687   8.154  0.3445  0.2077 -0.0664
   47MOL0     C 6387   7.133   9.629   8.222 -1.4993 -0.4171  0.4697
   47MOL0     C 6388   7.221   9.745   8.265 -0.4437  0.0233 -1.1086
   47MOL0     C 6389   7.365   9.710   8.263  0.9283 -0.0815 -0.4663
   47MOL0     C 6390   7.397   9.585   8.340 -0.4622  0.3172  0.4081
   47MOL0     C 6391   7.553   9.577   8.358  0.1639  0.0464 -0.6159
   47MOL0     C 6392   7.638   9.588   8.231 -0.6061 -0.1440 -0.3950
   47MOL0    Cl 6393   7.805   9.492   8.246  0.2165 -0.1100 -0.4636
   47MOL0     C 6394   6.606   9.626   7.918  0.7371 -0.6475 -0.0126
   47MOL0     C 6395   6.525   9.560   7.829 -0.1720 -0.6642 -0.3123
   47MOL0     O 6396   6.299   9.297   7.886  0.4182  0.2256  0.5448
   47MOL0     C 6397   6.362   9.087   7.641 -0.9172  0.7305 -0.6641
   47MOL0     C 6398   6.311   8.978   7.569  0.4558  0.2884  0.0341
   47MOL0     N 6399   5.859   8.454   7.440  1.0982  0.1378  0.1960
   47MOL0     N 6400   5.753   8.435   7.517  0.3892  0.5899  0.0500
   47MOL0     C 6401   4.552   8.395   7.660 -0.4744 -0.7398 -0.5662
   47MOL0     C 6402   4.466   8.294   7.692  0.1420 -0.8991  1.3337
   47MOL0     C 6403   4.253   7.908   7.617  0.2873  0.0050 -1.4677
   47MOL0     C 6404   4.204   7.825   7.517 -1.0123 -0.7380 -0.3843
   47MOL0     C 6405   4.115   7.722   7.549 -0.4838 -0.8862 -0.1692
   47MOL0     C 6406   4.076   7.697   7.681  0.0741 -0.6238 -0.0304
   47MOL0     O 6407   4.004   7.588   7.726 -0.0918  0.1075  0.4356
   47MOL0     C 6408   3.938   7.503   7.632  0.3658 -0.0933  0.1275
   47MOL0     C 6409   3.881   7.382   7.701 -0.5401 -0.5383 -0.5994
   47MOL0     C 6410   3.783   7.424   7.813  0.4064  0.2375 -0.0179
   47MOL0     C 6411   3.730   7.310   7.885 -0.2683  0.3896 -0.7411
   47MOL0     C 6412   3.649   7.357   8.004 -0.9058  0.3566  0.6613
   47MOL0     C 6413   3.586   7.400   8.106 -0.2526 -0.8022  0.2498
   47MOL0     C 6414   4.139   7.779   7.778  0.2902  0.6275 -0.7788
   47MOL0     C 6415   4.236   7.882   7.755  0.2923  0.3358  0.3300
   47MOL0     C 6416   4.304   7.958   7.862 -1.1326  0.1278  0.0764
   47MOL0     H 6417   4.316   8.264   7.397  2.0010 -0.1253 -1.6450
   47MOL0     H 6418   4.517   8.429   7.328  5.2674 -1.6600 -0.0073
   47MOL0     H 6419   4.791   8.515   7.658  0.9953 -0.9341 -1.1742
   47MOL0     H 6420   4.708   8.667   7.645 -2.7453 -2.9293  0.9873
   47MOL0     H 6421   4.913   8.546   7.441  3.9452  1.4316 -1.1878
   47MOL0     H 6422   4.867   8.719   7.450 -1.7047 -1.3979 -0.7056
   47MOL0     H 6423   4.997   8.699   7.691 -0.1581 -2.0854  0.0190
   47MOL0     H 6424   5.059   8.563   7.593 -0.8114 -0.5161 -2.9063
   47MOL0     H 6425   5.112   8.731   7.415 -0.4732 -1.0568  0.2713
   47MOL0     H 6426   5.064   8.865   7.522 -0.8578 -0.3846  2.3807
   47MOL0     H 6427   5.247   8.804   7.680 -1.4549 -0.3978 -0.0364
   47MOL0     H 6428   5.316   8.835   7.516  0.4017 -0.0612  0.0435
   47MOL0     H 6429   5.298   8.584   7.675 -3.2139 -0.0681 -1.0298
   47MOL0     H 6430   5.262   8.549   7.510 -0.8474 -1.3716  2.3553
   47MOL0     H 6431   5.521   8.671   7.624 -0.1085 -2.3635  2.1920
   47MOL0     H 6432   5.468   8.694   7.454 -0.7085  1.5187  1.0995
   47MOL0     H 6433   5.503   8.432   7.625  0.6771 -1.1395 -0.4543
   47MOL0     H 6434   5.436   8.426   7.473 -0.5476 -0.8611  2.9915
   47MOL0     H 6435   5.621   8.608   7.291 -0.0752  1.4968  1.4955
   47MOL0     H 6436   5.823   8.636   7.160 -1.7457 -1.9718  0.2883
   47MOL0     H 6437   5.963   8.522   7.176  0.7360  1.5336 -1.0768
   47MOL0     H 6438   6.050   8.733   7.181  1.5195 -3.0246 -0.0032
   47MOL0     H 6439   5.928   8.789   7.299 -2.1012 -0.2590 -2.4649
   47MOL0     H 6440   6.014   8.644   7.468  0.7088 -2.7706 -0.9051
   47MOL0     H 6441   6.124   8.571   7.358  0.5725  0.0492  0.9227
   47MOL0     H 6442   6.229   8.734   7.499  0.9035  2.1417  0.0090
   47MOL0     H 6443   6.249   8.801   7.333 -1.4279  0.8589 -2.0876
   47MOL0     H 6444   5.998   9.094   7.519 -0.5577 -4.6582 -0.7892
   47MOL0     H 6445   6.105   9.415   7.622 -2.6371  1.2907 -0.7643
   47MOL0     H 6446   6.052   9.349   7.775  0.1873  2.5513 -0.9076
   47MOL0     H 6447   5.964   9.318   7.614  0.7749  0.6437 -2.8402
   47MOL0     H 6448   6.650   9.246   7.854  0.7533 -0.2667  1.6153
   47MOL0     H 6449   6.798   9.361   8.014 -0.3163 -1.1545 -0.5370
   47MOL0     H 6450   6.923   9.485   8.178  0.6749 -0.2815 -1.7758
   47MOL0     H 6451   6.959   9.535   8.011 -0.3775 -1.1226 -0.1913
   47MOL0     H 6452   7.031   9.752   8.071  1.9215  0.0253  0.2994
   47MOL0     H 6453   6.945   9.751   8.221 -0.7740  1.7023 -2.3030
   47MOL0     H 6454   7.194   9.567   8.156  0.0342  0.3715  1.1052
   47MOL0     H 6455   7.103   9.562   8.304 -1.5382  2.8799  3.3479
   47MOL0     H 6456   7.201   9.777   8.367  2.3405  1.6774 -0.9699
   47MOL0     H 6457   7.208   9.825   8.191  1.5930 -1.3823 -3.1647
   47MOL0     H 6458   7.403   9.712   8.160  0.0763  5.9194 -1.0608
   47MOL0     H 6459   7.419   9.795   8.305  0.5312 -0.0731  0.0426
   47MOL0     H 6460   7.356   9.498   8.289 -2.0496  2.0493 -1.4781
   47MOL0     H 6461   7.365   9.585   8.445  1.3404 -0.8888  1.0050
   47MOL0     H 6462   7.574   9.478   8.400 -0.2002 -0.3109 -1.2490
   47MOL0     H 6463   7.587   9.651   8.431 -1.8137  0.1965  0.2239
   47MOL0     H 6464   7.654   9.693   8.204 -0.4108  0.2454  1.1401
   47MOL0     H 6465   7.588   9.539   8.147  2.4614 -1.7074 -1.4606
   47MOL0     H 6466   6.581   9.730   7.936 -2.7040 -1.4452  0.3440
   47MOL0     H 6467   6.452   9.622   7.778 -0.1749  0.1173  0.6005
   47MOL0     H 6468   6.459   9.078   7.689 -1.8528 -2.7720  0.8804
   47MOL0     H 6469   6.356   8.879   7.560 -2.9415 -1.5734  1.5920
   47MOL0     H 6470   4.598   8.445   7.744 -1.2478 -0.9028 -0.0437
   47MOL0     H 6471   4.472   8.262   7.796  4.6097 -1.4292  1.0945
   47MOL0     H 6472   4.236   7.835   7.414  1.8384 -1.9621  0.2569
   47MOL0     H 6473   4.075   7.659   7.470  0.2366 -4.7150  2.2929
   47MOL0     H 6474   3.865   7.555   7.569  0.4513 -0.6158 -0.3995
   47MOL0     H 6475   4.010   7.465   7.560 -0.4224 -1.0286 -0.1996
   47MOL0     H 6476   3.952   7.302   7.724 -1.7494 -1.1091  1.4947
   47MOL0     H 6477   3.812   7.329   7.635 -0.0843 -1.6546 -0.2042
   47MOL0     H 6478   3.823   7.497   7.883 -2.0953  1.3101  0.4047
   47MOL0     H 6479   3.697   7.462   7.757 -0.3575 -2.1748 -0.6149
   47MOL0     H 6480   3.812   7.251   7.927 -1.1042  0.9319  1.8165
   47MOL0     H 6481   3.665   7.241   7.830  1.0152 -1.9360  0.5034
   47MOL0     H 6482   3.520   7.403   8.191  1.4350 -4.4597  1.9352
   47MOL0     H 6483   4.109   7.749   7.878 -0.2686 -2.3533 -1.7273
   47MOL0     H 6484   4.283   8.065   7.850 -1.1600  0.5276  2.9559
   47MOL0     H 6485   4.269   7.938   7.964  0.3780 -0.8131  0.4371
   47MOL0     H 6486   4.412   7.944   7.854 -1.0476 -3.6373  4.0377
   48MOL0     O 6487  10.437   1.150   2.328  0.0029 -0.1862  0.2511
   48MOL0     C 6488  10.507   1.246   2.288  0.2355  1.5790 -0.1687
   48MOL0     O 6489  10.465   1.365   2.237  0.0236 -0.7742  0.1498
   48MOL0     C 6490  10.338   1.413   2.244 -0.3542  0.4004  0.0725
   48MOL0     C 6491  10.239   1.392   2.147  0.5088  0.4863  0.1761
   48MOL0     C 6492  10.102   1.423   2.172 -0.7540  0.5736 -0.0097
   48MOL0     C 6493  10.068   1.492   2.283 -1.2452 -0.2968 -1.0842
   48MOL0     O 6494   9.937   1.529   2.294  0.0090 -0.2055 -0.6331
   48MOL0     C 6495   9.875   1.584   2.413  0.3383 -0.6683 -0.1690
   48MOL0     C 6496   9.728   1.573   2.391 -0.4673  0.1895  0.0088
   48MOL0     C 6497   9.660   1.610   2.516  0.5607  0.8251  0.6655
   48MOL0     C 6498   9.504   1.634   2.496 -0.0109  0.6397  0.0814
   48MOL0     C 6499   9.428   1.498   2.483 -0.4960 -0.1566  0.9985
   48MOL0     C 6500   9.281   1.523   2.451 -0.6075  0.3610  0.1991
   48MOL0     C 6501   9.192   1.394   2.446  0.3844  0.0575  1.0093
   48MOL0     C 6502   9.155   1.350   2.305  0.2407  0.2115 -0.0174
   48MOL0     N 6503   9.274   1.285   2.241 -0.9461  0.2838  1.0503
   48MOL0     C 6504   9.349   1.336   2.139 -0.6064 -0.0204  0.1639
   48MOL0     C 6505   9.421   1.222   2.100 -0.6094 -0.4246 -1.2837
   48MOL0     C 6506   9.520   1.219   1.986  0.3682 -0.0986 -0.2507
   48MOL0     C 6507   9.642   1.131   2.017 -0.8184 -0.5120 -1.2143
   48MOL0     C 6508   9.764   1.169   1.928 -0.5070  0.1958 -0.7796
   48MOL0     C 6509   9.894   1.106   1.979 -0.9592 -0.0262 -0.2832
   48MOL0     O 6510  10.004   1.137   1.883  0.3360  0.1657 -0.4384
   48MOL0     C 6511  10.127   1.088   1.907 -0.1767 -0.1757  0.1230
   48MOL0     C 6512  10.198   1.081   1.784 -0.6705  0.9325 -1.0901
   48MOL0     C 6513  10.318   1.016   1.778 -0.1067 -0.8965  0.8834
   48MOL0     C 6514  10.375   1.034   1.636  0.3132  0.5072 -0.5105
   48MOL0     C 6515  10.386   0.964   1.893  0.1004  0.1633  0.5149
   48MOL0     C 6516  10.505   0.877   1.892 -0.0812  0.2947  0.4209
   48MOL0     O 6517  10.560   0.860   2.015 -0.1814 -0.3370 -0.5447
   48MOL0     C 6518  10.670   0.776   2.021 -0.2724 -0.0737  0.3844
   48MOL0     C 6519  10.777   0.822   2.102 -0.2837 -0.2266 -1.3888
   48MOL0     C 6520  10.900   0.750   2.126 -0.2753 -0.2103  0.2457
   48MOL0     C 6521  10.920   0.627   2.055 -0.6217  0.1762 -0.7525
   48MOL0     O 6522  11.036   0.556   2.064 -0.2627 -0.0299  0.3093
   48MOL0     C 6523  11.140   0.581   2.152 -0.0881 -0.7561  0.2432
   48MOL0     C 6524  11.114   0.525   2.298 -0.1447 -0.8115 -0.3004
   48MOL0     C 6525  11.241   0.511   2.365  0.0113  0.4418  0.1215
   48MOL0     C 6526  11.216   0.460   2.505  0.1785 -0.7752  0.8793
   48MOL0     C 6527  11.346   0.404   2.563 -0.2340 -0.6247  0.4957
   48MOL0     C 6528  11.332   0.345   2.702  1.3630  1.1202 -0.9437
   48MOL0     C 6529  11.260   0.209   2.682 -1.0147  0.8431  0.1059
   48MOL0     C 6530  11.245   0.118   2.810  0.0564  0.2559 -0.5157
   48MOL0    Cl 6531  11.166   0.204   2.940 -0.2658 -0.2717 -0.2984
   48MOL0     C 6532  10.823   0.589   1.966  0.6328 -0.5073  0.8408
   48MOL0     C 6533  10.701   0.658   1.947  0.2491  0.2932 -0.4293
   48MOL0     O 6534  10.529   0.817   1.782  0.2331  0.3155 -0.3137
   48MOL0     C 6535  10.322   0.999   2.012 -0.7377 -0.0553 -0.3689
   48MOL0     C 6536  10.198   1.066   2.017 -0.2893  0.9702  0.0528
   48MOL0     N 6537   9.393   1.115   2.184  0.3109 -0.6641  0.0348
   48MOL0     N 6538   9.301   1.151   2.267  0.1888 -0.1971 -0.1491
   48MOL0     C 6539  10.170   1.521   2.386  0.7427 -0.1959  0.0205
   48MOL0     C 6540  10.296   1.477   2.367 -0.7956  0.5422  0.9196
   48MOL0     C 6541  10.650   1.207   2.279  0.8650  1.1125 -0.7150
   48MOL0     C 6542  10.733   1.264   2.179  0.6489 -0.4927 -0.6296
   48MOL0     C 6543  10.866   1.236   2.180 -0.6110  1.2703 -0.5292
   48MOL0     C 6544  10.926   1.170   2.296 -0.9318 -0.3511  0.4934
   48MOL0     O 6545  11.066   1.154   2.313 -0.0158 -0.2565  0.1865
   48MOL0     C 6546  11.147   1.125   2.198 -0.6605  0.5141 -0.3220
   48MOL0     C 6547  11.263   1.037   2.246  0.7429 -0.3379 -0.2931
   48MOL0     C 6548  11.328   1.068   2.381 -0.4387 -0.1706 -0.0967
   48MOL0     C 6549  11.397   1.205   2.405  0.0823 -0.4061 -0.5027
   48MOL0     C 6550  11.509   1.225   2.323  0.2412  0.5805  0.2703
   48MOL0     C 6551  11.606   1.254   2.261 -0.7717  0.5534  0.7266
   48MOL0     C 6552  10.841   1.118   2.395 -0.5540 -0.6988 -0.4032
   48MOL0     C 6553  10.702   1.138   2.387  0.3155  0.9969  0.3490
   48MOL0     C 6554  10.626   1.072   2.504  0.5934  0.4028  1.0419
   48MOL0     H 6555  10.260   1.345   2.052  0.7903  2.6830 -0.9161
   48MOL0     H 6556  10.015   1.392   2.115 -2.0107  4.0238 -0.2351
   48MOL0     H 6557   9.904   1.689   2.425  1.1041 -0.8788 -0.1090
   48MOL0     H 6558   9.908   1.519   2.495 -0.6600 -1.2530 -0.2210
   48MOL0     H 6559   9.703   1.643   2.311  4.9545  0.9450 -1.4558
   48MOL0     H 6560   9.707   1.469   2.364  2.0449 -0.7746  1.4418
   48MOL0     H 6561   9.667   1.527   2.587 -4.0381  1.3657  2.1027
   48MOL0     H 6562   9.717   1.694   2.557  2.3668 -0.8024  1.6336
   48MOL0     H 6563   9.478   1.686   2.590  2.6394 -0.0118  1.2690
   48MOL0     H 6564   9.482   1.702   2.413  0.1260 -0.6519 -1.0448
   48MOL0     H 6565   9.426   1.432   2.570 -2.2759  0.4178  1.4235
   48MOL0     H 6566   9.481   1.434   2.412  0.5489  0.7563  0.9305
   48MOL0     H 6567   9.239   1.585   2.531  0.2993 -2.5586  3.1858
   48MOL0     H 6568   9.272   1.581   2.359 -0.5084  2.4617  1.4418
   48MOL0     H 6569   9.103   1.427   2.499  0.9621  0.3596  1.8124
   48MOL0     H 6570   9.238   1.309   2.498  0.9055 -0.3864 -0.1429
   48MOL0     H 6571   9.080   1.271   2.305  1.5746 -1.3315  4.6013
   48MOL0     H 6572   9.125   1.435   2.242 -1.1446  0.1161  0.4864
   48MOL0     H 6573   9.347   1.428   2.083 -1.5732 -0.7040 -0.9735
   48MOL0     H 6574   9.555   1.321   1.964 -1.6810  0.3464 -1.7236
   48MOL0     H 6575   9.469   1.172   1.901  0.9703  2.1371 -1.9562
   48MOL0     H 6576   9.668   1.164   2.119 -1.2705  1.5583 -1.7195
   48MOL0     H 6577   9.618   1.026   2.033 -1.7116  0.0964  2.2460
   48MOL0     H 6578   9.727   1.135   1.831 -3.3075 -3.5018  1.3240
   48MOL0     H 6579   9.779   1.277   1.935  0.0510  0.2884 -2.6750
   48MOL0     H 6580   9.916   1.150   2.077  0.7946 -1.8680  0.2416
   48MOL0     H 6581   9.886   0.997   1.982  2.9904 -0.4556  0.7380
   48MOL0     H 6582  10.153   1.120   1.694 -0.0340  1.4847 -1.1753
   48MOL0     H 6583  10.354   0.957   1.561 -0.7627 -1.3073  1.5516
   48MOL0     H 6584  10.478   1.063   1.658 -0.0867  0.7449  1.1663
   48MOL0     H 6585  10.338   1.126   1.588  0.8433 -0.1324 -2.2277
   48MOL0     H 6586  10.759   0.922   2.138 -0.6872  0.3620 -3.1443
   48MOL0     H 6587  10.980   0.808   2.171  0.5177  0.2556 -1.6474
   48MOL0     H 6588  11.237   0.546   2.113  0.2566 -1.4558  1.6802
   48MOL0     H 6589  11.155   0.689   2.155 -0.6784 -0.6775  0.4472
   48MOL0     H 6590  11.045   0.592   2.351  1.9814 -0.8202  2.7268
   48MOL0     H 6591  11.069   0.426   2.281  0.4333 -0.8135 -1.9885
   48MOL0     H 6592  11.298   0.604   2.363 -0.0980  0.5894  2.1811
   48MOL0     H 6593  11.302   0.432   2.320 -0.1769  1.1353 -1.4149
   48MOL0     H 6594  11.149   0.376   2.488 -0.2111 -0.0534 -1.4891
   48MOL0     H 6595  11.173   0.542   2.564  4.3674  1.9717  0.5669
   48MOL0     H 6596  11.408   0.334   2.506  2.1301  0.8056  1.1625
   48MOL0     H 6597  11.412   0.492   2.559 -1.5892  0.5069  1.7850
   48MOL0     H 6598  11.273   0.408   2.770 -0.7063 -2.0745  0.4736
   48MOL0     H 6599  11.429   0.303   2.731  0.2958 -2.6060 -2.2082
   48MOL0     H 6600  11.307   0.148   2.605  0.5211 -0.0916  1.7173
   48MOL0     H 6601  11.158   0.237   2.654 -1.1859 -1.3466 -1.6520
   48MOL0     H 6602  11.343   0.083   2.844  1.0579  2.7633 -0.5918
   48MOL0     H 6603  11.181   0.034   2.782  0.0698  0.4473 -1.1470
   48MOL0     H 6604  10.853   0.497   1.917  3.0913  0.9279 -0.5364
   48MOL0     H 6605  10.628   0.622   1.875  0.3642 -0.3868 -0.2117
   48MOL0     H 6606  10.364   0.974   2.108 -2.3978  0.9912  0.6743
   48MOL0     H 6607  10.152   1.078   2.114  1.7702  2.9424  0.8841
   48MOL0     H 6608  10.135   1.560   2.480  0.6292 -1.2236  0.4122
   48MOL0     H 6609  10.361   1.509   2.448 -0.2625  2.8912 -0.3560
   48MOL0     H 6610  10.694   1.334   2.106  0.6596 -1.1552 -1.2880
   48MOL0     H 6611  10.933   1.282   2.109  0.6916 -0.1585 -0.2946
   48MOL0     H 6612  11.090   1.079   2.117  0.7377  0.5123 -1.3404
   48MOL0     H 6613  11.189   1.220   2.163  0.3524 -0.0191 -0.5878
   48MOL0     H 6614  11.331   1.021   2.162 -0.8224 -1.8558 -1.3590
   48MOL0     H 6615  11.225   0.935   2.258  2.8040 -1.3979 -2.1250
   48MOL0     H 6616  11.256   1.039   2.459 -1.9559 -0.7541 -1.6581
   48MOL0     H 6617  11.412   0.999   2.377 -0.3261 -0.1146  0.9646
   48MOL0     H 6618  11.424   1.213   2.511 -1.7922  2.3767 -0.1397
   48MOL0     H 6619  11.333   1.289   2.377  3.5662  1.8707 -2.3737
   48MOL0     H 6620  11.695   1.279   2.207 -0.5385 -0.6346  0.5302
   48MOL0     H 6621  10.893   1.072   2.478 -0.6043  3.0105  1.9171
   48MOL0     H 6622  10.543   1.006   2.479  0.9114 -0.9212  3.1680
   48MOL0     H 6623  10.694   1.010   2.564 -0.6959 -0.6150  1.4863
   48MOL0     H 6624  10.585   1.154   2.563  1.5693  0.0904  2.1950
   49MOL0     O 6625  10.515   2.382   7.811  0.1107  0.7330  0.1583
   49MOL0     C 6626  10.546   2.262   7.841 -0.5493 -0.3499  0.1402
   49MOL0     O 6627  10.519   2.196   7.960  0.3183 -0.0418 -0.7291
   49MOL0     C 6628  10.433   2.265   8.050 -0.1347 -0.3814  0.5024
   49MOL0     C 6629  10.491   2.323   8.165  0.4285  0.1796 -0.3614
   49MOL0     C 6630  10.406   2.373   8.263  0.4073 -0.7722  0.2605
   49MOL0     C 6631  10.262   2.384   8.245 -0.2396  1.0436  0.7154
   49MOL0     O 6632  10.190   2.438   8.342 -0.1368  0.6140 -0.4044
   49MOL0     C 6633  10.163   2.575   8.334  0.2135  0.3285  0.4181
   49MOL0     C 6634  10.098   2.614   8.462 -0.2737  0.6799 -0.3811
   49MOL0     C 6635   9.945   2.577   8.460 -0.2295  0.5900 -0.1832
   49MOL0     C 6636   9.890   2.587   8.603 -0.4573 -0.8482 -0.1855
   49MOL0     C 6637   9.746   2.602   8.618  0.1284  0.4713  0.4148
   49MOL0     C 6638   9.705   2.639   8.768 -1.0594 -0.1442  0.1678
   49MOL0     C 6639   9.573   2.708   8.779  0.2979 -0.8690 -0.1633
   49MOL0     C 6640   9.466   2.596   8.757 -0.2295 -0.0117  0.3064
   49MOL0     N 6641   9.341   2.654   8.796 -0.4186 -0.2036 -0.2500
   49MOL0     C 6642   9.310   2.663   8.931 -0.0017 -0.2887  0.0141
   49MOL0     C 6643   9.173   2.685   8.934 -0.3920 -0.4726 -0.1888
   49MOL0     C 6644   9.096   2.701   9.053 -0.0846  0.5217  0.5032
   49MOL0     C 6645   9.081   2.850   9.088  0.4322 -0.5227  0.1144
   49MOL0     C 6646   9.040   2.875   9.239 -0.2244  1.2076 -0.0099
   49MOL0     C 6647   9.155   2.854   9.327 -0.0501  0.4191 -0.5396
   49MOL0     O 6648   9.248   2.967   9.305  0.7446 -0.1693 -0.5035
   49MOL0     C 6649   9.363   2.962   9.380  0.9409 -0.3556  0.6423
   49MOL0     C 6650   9.481   3.000   9.326 -0.0396  0.1061 -0.0656
   49MOL0     C 6651   9.603   3.014   9.395 -0.2839  0.2092  0.2332
   49MOL0     C 6652   9.715   3.066   9.312 -0.2658 -0.4637 -0.2729
   49MOL0     C 6653   9.607   2.974   9.527  0.3383 -0.4304  0.1001
   49MOL0     C 6654   9.730   2.957   9.605 -1.1665 -0.4625  1.6355
   49MOL0     O 6655   9.853   2.982   9.544  1.0720  1.0748  0.8395
   49MOL0     C 6656   9.954   2.990   9.633 -0.5890  1.5378  0.2393
   49MOL0     C 6657   9.982   3.116   9.682 -1.0043  0.3094 -0.2232
   49MOL0     C 6658  10.086   3.131   9.774  0.3247  0.6926 -0.8110
   49MOL0     C 6659  10.167   3.020   9.814  1.3404 -0.3451 -0.3332
   49MOL0     O 6660  10.264   3.035   9.898  0.6230  0.4777 -0.1348
   49MOL0     C 6661  10.358   3.137   9.861 -0.4892 -0.2761  0.0634
   49MOL0     C 6662  10.445   3.102   9.741 -0.3612  0.5543  0.0322
   49MOL0     C 6663  10.563   3.203   9.715  0.2716 -0.0624  0.1440
   49MOL0     C 6664  10.661   3.222   9.829 -0.4430  0.9725  0.1430
   49MOL0     C 6665  10.787   3.280   9.777 -0.3958 -0.7491  0.2810
   49MOL0     C 6666  10.768   3.412   9.703  0.7397  0.2396  0.2863
   49MOL0     C 6667  10.878   3.512   9.719 -0.0047  0.8340 -0.2951
   49MOL0     C 6668  10.858   3.632   9.639  0.2661 -0.2553 -0.5327
   49MOL0    Cl 6669  10.877   3.606   9.461  0.3494  0.3117 -0.0449
   49MOL0     C 6670  10.131   2.897   9.767 -0.1837  0.5918 -0.0103
   49MOL0     C 6671  10.028   2.877   9.674  0.6313 -0.3734  0.0946
   49MOL0     O 6672   9.720   2.927   9.717 -0.6588  0.1902 -0.3905
   49MOL0     C 6673   9.480   2.929   9.590  0.2308  0.2011 -0.4370
   49MOL0     C 6674   9.362   2.924   9.519  0.6826 -0.5258  0.6604
   49MOL0     N 6675   9.130   2.694   8.801  0.6197  0.1047  0.1556
   49MOL0     N 6676   9.227   2.673   8.722  0.1804 -0.1363  0.0604
   49MOL0     C 6677  10.214   2.319   8.124 -0.3210  0.9451 -0.5399
   49MOL0     C 6678  10.297   2.252   8.035 -0.5461  0.2938  0.2746
   49MOL0     C 6679  10.624   2.178   7.755  0.4208 -0.3411  0.6588
   49MOL0     C 6680  10.727   2.107   7.819  0.4068  1.2151  0.7154
   49MOL0     C 6681  10.810   2.020   7.736 -0.3145  0.1891 -0.1084
   49MOL0     C 6682  10.799   2.016   7.599  0.5680 -0.0642  0.4891
   49MOL0     O 6683  10.886   1.940   7.533 -0.3214  0.1760  0.3059
   49MOL0     C 6684  10.919   1.961   7.387 -0.6239  0.2371 -0.5612
   49MOL0     C 6685  11.074   1.943   7.365  0.7419 -1.3764 -0.0249
   49MOL0     C 6686  11.151   2.063   7.409 -0.0588 -0.0362 -0.1574
   49MOL0     C 6687  11.144   2.099   7.561 -0.6847 -0.0076  0.8500
   49MOL0     C 6688  11.227   2.212   7.606 -0.0380  0.2285  0.6246
   49MOL0     C 6689  11.288   2.305   7.659  1.3497  0.0600 -0.1554
   49MOL0     C 6690  10.689   2.085   7.535 -0.8209 -0.0453  0.2225
   49MOL0     C 6691  10.599   2.165   7.618 -0.2695  0.1756 -0.4466
   49MOL0     C 6692  10.477   2.234   7.560  0.8347 -0.0176  0.6355
   49MOL0     H 6693  10.598   2.317   8.180  0.8041 -0.4659 -2.9202
   49MOL0     H 6694  10.466   2.413   8.344  0.1398  1.1824 -0.4397
   49MOL0     H 6695  10.112   2.609   8.243 -1.0713  2.8080  1.9549
   49MOL0     H 6696  10.256   2.631   8.324 -1.3197  2.8872 -0.4450
   49MOL0     H 6697  10.152   2.562   8.542 -0.7612 -2.0158 -1.6914
   49MOL0     H 6698  10.104   2.723   8.458  2.2256  0.5537 -1.9109
   49MOL0     H 6699   9.892   2.640   8.388  3.0186  3.5272 -0.2408
   49MOL0     H 6700   9.948   2.473   8.424  1.8454  0.6155 -0.2067
   49MOL0     H 6701   9.943   2.520   8.672  2.3252  0.6949 -0.6553
   49MOL0     H 6702   9.937   2.684   8.623  0.6811 -1.6184  1.1261
   49MOL0     H 6703   9.700   2.504   8.598 -0.9757  1.1458 -0.4936
   49MOL0     H 6704   9.707   2.673   8.545  0.6804  1.4416  1.0522
   49MOL0     H 6705   9.707   2.552   8.835  1.2970 -0.5071 -0.2665
   49MOL0     H 6706   9.776   2.712   8.810 -1.1085 -0.7337  1.3192
   49MOL0     H 6707   9.566   2.789   8.705 -0.3017 -0.9958 -0.2478
   49MOL0     H 6708   9.575   2.749   8.880 -1.8386 -2.3544  0.5414
   49MOL0     H 6709   9.458   2.555   8.655 -1.0178 -0.5177  0.5596
   49MOL0     H 6710   9.485   2.515   8.828  0.5198  0.7310  0.9700
   49MOL0     H 6711   9.383   2.651   9.010 -0.3431  2.6946  0.9401
   49MOL0     H 6712   9.131   2.643   9.139  0.3607 -0.1007 -0.0876
   49MOL0     H 6713   8.994   2.663   9.049  0.4711 -0.9329 -0.5471
   49MOL0     H 6714   9.172   2.907   9.069  0.0528  0.4280  1.0438
   49MOL0     H 6715   9.010   2.901   9.022  1.9443  1.8309  0.1864
   49MOL0     H 6716   9.002   2.976   9.260  0.5131  1.3578  0.6370
   49MOL0     H 6717   8.963   2.803   9.268 -1.6532  2.1025 -1.3682
   49MOL0     H 6718   9.120   2.856   9.430 -3.5591 -1.0227 -1.5319
   49MOL0     H 6719   9.205   2.759   9.308 -1.8382 -1.1181  1.8107
   49MOL0     H 6720   9.480   3.037   9.224  0.9582 -0.2220 -0.2022
   49MOL0     H 6721   9.681   3.088   9.210 -0.8387 -0.5650 -0.1084
   49MOL0     H 6722   9.799   2.999   9.291 -1.5337 -2.6747  1.2551
   49MOL0     H 6723   9.761   3.142   9.376 -1.4926 -0.5723  0.7853
   49MOL0     H 6724   9.933   3.209   9.654  1.9967  2.7275  1.8727
   49MOL0     H 6725  10.105   3.235   9.799  2.8570  0.5042 -1.6486
   49MOL0     H 6726  10.313   3.233   9.833  0.6989  0.0609 -0.7845
   49MOL0     H 6727  10.414   3.156   9.953  1.7067  1.2682 -1.5004
   49MOL0     H 6728  10.501   3.008   9.747 -2.1546 -0.5069  0.8407
   49MOL0     H 6729  10.386   3.082   9.652  2.7535  2.2003 -2.6470
   49MOL0     H 6730  10.511   3.295   9.688 -1.9089 -1.3713 -0.3746
   49MOL0     H 6731  10.619   3.171   9.626  0.8984  3.5776 -0.9056
   49MOL0     H 6732  10.674   3.120   9.866 -2.3770 -0.1337 -1.9636
   49MOL0     H 6733  10.604   3.267   9.911 -0.4708 -0.4473  0.9554
   49MOL0     H 6734  10.855   3.295   9.861 -2.0169  1.7136  1.2514
   49MOL0     H 6735  10.825   3.207   9.705 -0.6898 -0.4780 -0.1579
   49MOL0     H 6736  10.685   3.453   9.761  0.0284 -1.0227  0.1916
   49MOL0     H 6737  10.721   3.407   9.604  1.7570 -1.3295 -0.1479
   49MOL0     H 6738  10.971   3.456   9.706 -1.0242 -0.4658 -2.6965
   49MOL0     H 6739  10.886   3.548   9.822  1.5175  0.3631 -0.2333
   49MOL0     H 6740  10.925   3.709   9.676  0.4705  0.4643 -2.2811
   49MOL0     H 6741  10.759   3.674   9.658  0.3920 -0.3997  0.4798
   49MOL0     H 6742  10.199   2.816   9.792  1.8946  1.9495 -0.9232
   49MOL0     H 6743   9.999   2.777   9.643  2.9145 -0.6440 -1.4110
   49MOL0     H 6744   9.470   2.883   9.687  1.2584  3.2736  1.2471
   49MOL0     H 6745   9.279   2.872   9.565 -0.9475  2.0705  0.8064
   49MOL0     H 6746  10.106   2.317   8.110 -0.7587 -2.6159  1.8312
   49MOL0     H 6747  10.273   2.203   7.941  0.8592  0.0762  0.0178
   49MOL0     H 6748  10.731   2.120   7.927 -3.3263  0.7699  1.0349
   49MOL0     H 6749  10.895   1.969   7.781 -0.5662  0.3255  0.5404
   49MOL0     H 6750  10.863   1.885   7.332  1.5680 -1.1607 -0.9680
   49MOL0     H 6751  10.876   2.046   7.333 -1.9045 -0.8491 -1.3161
   49MOL0     H 6752  11.082   1.925   7.258 -0.2443 -0.5843 -0.2400
   49MOL0     H 6753  11.094   1.852   7.422 -1.2507 -2.2263 -0.6313
   49MOL0     H 6754  11.257   2.035   7.398 -0.0285  0.0871 -0.1820
   49MOL0     H 6755  11.130   2.147   7.343  2.6789  0.9315  0.0574
   49MOL0     H 6756  11.172   2.008   7.615 -1.7743 -2.5422 -2.4733
   49MOL0     H 6757  11.038   2.119   7.580 -0.4118 -1.2518  4.2998
   49MOL0     H 6758  11.352   2.382   7.698  0.7041  2.7137 -3.7755
   49MOL0     H 6759  10.670   2.081   7.428 -0.3034 -0.0464  0.1249
   49MOL0     H 6760  10.390   2.200   7.616  1.1693 -0.4749  0.8911
   49MOL0     H 6761  10.490   2.343   7.561 -0.5637  0.2654 -2.1607
   49MOL0     H 6762  10.481   2.203   7.456  2.7539 -0.8913  0.9182
   50MOL0     O 6763   0.003   9.341   6.235 -0.6519 -0.7240  0.1163
   50MOL0     C 6764   0.011   9.463   6.254 -1.1701 -0.2431 -0.4319
   50MOL0     O 6765  -0.087   9.553   6.218 -0.1347  0.5849  0.6706
   50MOL0     C 6766  -0.200   9.502   6.155 -0.0337 -0.4605  0.0363
   50MOL0     C 6767  -0.325   9.495   6.219 -0.0892  0.8420  0.4971
   50MOL0     C 6768  -0.437   9.439   6.156  0.3425  0.1240  0.6900
   50MOL0     C 6769  -0.437   9.407   6.024  0.2748 -0.2471  0.1956
   50MOL0     O 6770  -0.559   9.383   5.967  0.1777 -0.5730 -0.1595
   50MOL0     C 6771  -0.563   9.300   5.852 -0.8092  0.1944 -0.8988
   50MOL0     C 6772  -0.704   9.265   5.821 -0.1938 -0.3166  0.0964
   50MOL0     C 6773  -0.740   9.235   5.676  0.7103  0.2297 -0.4405
   50MOL0     C 6774  -0.664   9.120   5.615  0.0474  0.6979 -0.4135
   50MOL0     C 6775  -0.714   8.981   5.675 -0.0154 -0.1916 -0.7359
   50MOL0     C 6776  -0.664   8.869   5.592 -0.4526  0.3756  0.2205
   50MOL0     C 6777  -0.726   8.729   5.632 -0.4924 -0.0068 -0.1126
   50MOL0     C 6778  -0.639   8.624   5.575 -0.0010  0.0127  0.6476
   50MOL0     N 6779  -0.663   8.494   5.628  0.3038 -0.5627  0.4259
   50MOL0     C 6780  -0.653   8.470   5.762 -0.7014  0.3060 -0.1779
   50MOL0     C 6781  -0.668   8.333   5.766  0.6601 -0.9281 -1.5904
   50MOL0     C 6782  -0.657   8.253   5.893  0.3652  0.0183  0.8649
   50MOL0     C 6783  -0.506   8.242   5.937 -0.2237  0.6933 -0.1801
   50MOL0     C 6784  -0.410   8.166   5.850  0.5475  0.1541 -0.0686
   50MOL0     C 6785  -0.358   8.231   5.723 -0.2545  0.2115  0.4032
   50MOL0     O 6786  -0.288   8.349   5.762  0.9563  0.3964 -0.9502
   50MOL0     C 6787  -0.269   8.456   5.675 -0.2407 -0.4159  1.2088
   50MOL0     C 6788  -0.313   8.459   5.536  0.5995  0.7307  0.6597
   50MOL0     C 6789  -0.289   8.568   5.453  0.7838 -0.5317 -0.1028
   50MOL0     C 6790  -0.322   8.558   5.303  0.1333  0.0401 -0.2806
   50MOL0     C 6791  -0.244   8.690   5.516 -0.2121 -0.3299  0.9503
   50MOL0     C 6792  -0.251   8.814   5.441 -0.8290 -0.1449 -0.8693
   50MOL0     O 6793  -0.362   8.833   5.370  0.0638  0.6088  0.5233
   50MOL0     C 6794  -0.390   8.952   5.316 -0.5280  1.0139 -0.4574
   50MOL0     C 6795  -0.461   8.954   5.196 -0.0971  0.2761  0.4643
   50MOL0     C 6796  -0.510   9.078   5.147 -0.3553 -0.2039  0.0891
   50MOL0     C 6797  -0.498   9.200   5.219 -0.3075  0.6622 -0.0600
   50MOL0     O 6798  -0.550   9.317   5.177 -0.3124 -0.7307 -0.1841
   50MOL0     C 6799  -0.620   9.406   5.271 -0.1293 -0.1870 -0.1958
   50MOL0     C 6800  -0.698   9.506   5.191  0.5923  0.2657 -0.6353
   50MOL0     C 6801  -0.798   9.420   5.110  0.1438 -0.4875 -0.8966
   50MOL0     C 6802  -0.863   9.519   5.012 -0.5400 -0.6559  0.0660
   50MOL0     C 6803  -0.984   9.452   4.949  0.5319  0.7737  1.0545
   50MOL0     C 6804  -1.045   9.537   4.839 -0.1508 -0.5601  0.4562
   50MOL0     C 6805  -1.163   9.467   4.772 -0.2417 -0.0290  0.0536
   50MOL0     C 6806  -1.117   9.353   4.671  0.2783  0.2566  0.4075
   50MOL0    Cl 6807  -1.018   9.424   4.548  0.2060 -0.0907  0.2813
   50MOL0     C 6808  -0.439   9.185   5.341 -0.4246 -0.3701 -0.0910
   50MOL0     C 6809  -0.377   9.071   5.384  0.5860  1.1521 -0.0848
   50MOL0     O 6810  -0.149   8.890   5.435  0.0906 -0.0684  0.3871
   50MOL0     C 6811  -0.190   8.684   5.648 -0.2266  1.2098 -0.0801
   50MOL0     C 6812  -0.199   8.564   5.721 -0.1380  0.3794 -0.1062
   50MOL0     N 6813  -0.681   8.280   5.643 -0.9232  0.6584 -0.2663
   50MOL0     N 6814  -0.684   8.376   5.562 -1.0315 -0.1063 -0.0875
   50MOL0     C 6815  -0.312   9.409   5.952  0.2261  0.2482  0.2404
   50MOL0     C 6816  -0.196   9.450   6.018  0.4461 -0.2331  0.1399
   50MOL0     C 6817   0.132   9.531   6.311  0.3553 -0.2283  0.3548
   50MOL0     C 6818   0.140   9.669   6.292  0.3253 -0.1282 -0.4065
   50MOL0     C 6819   0.253   9.735   6.323 -1.2207  0.7698  0.0873
   50MOL0     C 6820   0.360   9.674   6.370 -0.4262  0.7352 -0.0841
   50MOL0     O 6821   0.471   9.757   6.392 -0.0072  0.5981  0.4810
   50MOL0     C 6822   0.598   9.690   6.411 -0.4586  1.1205 -0.1303
   50MOL0     C 6823   0.666   9.641   6.287  0.3359  0.2905  0.7818
   50MOL0     C 6824   0.660   9.742   6.165  1.1671 -0.2400 -0.5879
   50MOL0     C 6825   0.715   9.882   6.206 -1.2851  0.3757  0.6950
   50MOL0     C 6826   0.857   9.891   6.189  0.3153 -0.5322 -0.2243
   50MOL0     C 6827   0.971   9.877   6.149  0.9404 -0.5091  0.1728
   50MOL0     C 6828   0.362   9.548   6.404  0.3123  0.4751 -0.5729
   50MOL0     C 6829   0.247   9.471   6.375 -0.5990 -0.8748  0.5099
   50MOL0     C 6830   0.260   9.328   6.423  0.0379 -0.4631 -0.4267
   50MOL0     H 6831  -0.345   9.536   6.318  1.3986 -0.0424  1.1937
   50MOL0     H 6832  -0.533   9.433   6.207  0.4038  2.0742  1.1158
   50MOL0     H 6833  -0.490   9.220   5.867 -1.2516 -0.3013 -1.3881
   50MOL0     H 6834  -0.537   9.356   5.761 -2.6929  1.0536 -0.9529
   50MOL0     H 6835  -0.744   9.183   5.881 -1.1244  0.7945  1.0255
   50MOL0     H 6836  -0.771   9.348   5.844 -2.8552 -1.7825 -1.7885
   50MOL0     H 6837  -0.846   9.210   5.666  1.3627 -2.8003 -0.8289
   50MOL0     H 6838  -0.718   9.322   5.613 -0.3925  0.3239 -0.7122
   50MOL0     H 6839  -0.685   9.117   5.507  0.5451 -0.2683 -0.4935
   50MOL0     H 6840  -0.555   9.127   5.622  0.3452 -1.7193 -1.4734
   50MOL0     H 6841  -0.823   8.973   5.667  0.0523 -0.1992 -1.8006
   50MOL0     H 6842  -0.687   8.971   5.781 -0.1063  0.2532 -0.6692
   50MOL0     H 6843  -0.698   8.883   5.489 -0.4199  0.7836  0.2637
   50MOL0     H 6844  -0.555   8.858   5.588 -0.5919 -0.9413 -0.7602
   50MOL0     H 6845  -0.834   8.715   5.623 -0.1523 -3.0668 -0.6984
   50MOL0     H 6846  -0.703   8.730   5.739  1.6361  0.4893 -0.5277
   50MOL0     H 6847  -0.640   8.617   5.466  1.6220 -0.2374  0.6263
   50MOL0     H 6848  -0.535   8.646   5.602 -0.6300  1.9391  1.6964
   50MOL0     H 6849  -0.630   8.538   5.843 -2.5324 -1.0623  1.6022
   50MOL0     H 6850  -0.693   8.150   5.880  2.3833 -0.6800  0.5651
   50MOL0     H 6851  -0.712   8.303   5.973  1.6920  0.2390  1.6603
   50MOL0     H 6852  -0.465   8.341   5.960  0.4238 -0.1058  2.3856
   50MOL0     H 6853  -0.499   8.176   6.024  3.5124 -0.5075 -1.2294
   50MOL0     H 6854  -0.323   8.137   5.910 -1.5027 -3.6465  1.4657
   50MOL0     H 6855  -0.462   8.076   5.813  1.3208 -0.4135  0.1927
   50MOL0     H 6856  -0.294   8.150   5.685  0.0116  0.8218 -0.4668
   50MOL0     H 6857  -0.450   8.246   5.666  0.4857 -2.3039 -1.6568
   50MOL0     H 6858  -0.356   8.377   5.479  2.2913 -0.4405  1.0089
   50MOL0     H 6859  -0.262   8.617   5.233  1.8505  0.9041  1.8266
   50MOL0     H 6860  -0.427   8.584   5.287 -0.2280 -1.5529 -0.7293
   50MOL0     H 6861  -0.309   8.455   5.266  0.8807  0.4176 -1.1077
   50MOL0     H 6862  -0.483   8.862   5.143 -2.9236 -1.9757  4.9277
   50MOL0     H 6863  -0.561   9.079   5.051  0.7830  1.3348 -0.5385
   50MOL0     H 6864  -0.692   9.353   5.334  1.0125 -1.1858  0.2993
   50MOL0     H 6865  -0.549   9.460   5.335 -2.0801 -1.6459  3.4953
   50MOL0     H 6866  -0.756   9.563   5.264  0.3737 -1.8351  0.9246
   50MOL0     H 6867  -0.643   9.578   5.130  0.5371  0.7638 -0.1023
   50MOL0     H 6868  -0.878   9.395   5.181  0.8018 -0.9703 -0.3080
   50MOL0     H 6869  -0.767   9.326   5.064 -1.0768 -1.9226  1.0228
   50MOL0     H 6870  -0.791   9.558   4.939 -1.1124  1.5458  0.6014
   50MOL0     H 6871  -0.902   9.609   5.059 -0.2705  0.0474 -1.0122
   50MOL0     H 6872  -0.959   9.359   4.897 -1.2534  0.9125 -0.1392
   50MOL0     H 6873  -1.066   9.436   5.020  0.0233 -1.7127  0.0246
   50MOL0     H 6874  -0.971   9.580   4.770  2.7113 -2.1528  2.3352
   50MOL0     H 6875  -1.092   9.621   4.892 -0.1152  0.3253 -0.8530
   50MOL0     H 6876  -1.231   9.539   4.727 -0.6044  1.3602  2.6353
   50MOL0     H 6877  -1.221   9.428   4.856  3.2258 -1.6546  1.9397
   50MOL0     H 6878  -1.203   9.305   4.623  1.6829  0.2983 -2.3637
   50MOL0     H 6879  -1.064   9.275   4.727 -1.4563  0.2074  2.0740
   50MOL0     H 6880  -0.418   9.275   5.398  1.7717  0.9878 -2.7949
   50MOL0     H 6881  -0.319   9.063   5.476  0.2742  0.8721  0.0886
   50MOL0     H 6882  -0.151   8.774   5.693 -0.2489  0.5573  1.2810
   50MOL0     H 6883  -0.155   8.557   5.820  1.9224 -0.7415 -1.0487
   50MOL0     H 6884  -0.292   9.390   5.847  0.1388  2.2343 -0.1729
   50MOL0     H 6885  -0.105   9.455   5.960 -0.5883 -0.7279 -1.5984
   50MOL0     H 6886   0.062   9.733   6.254  4.0688  3.1026 -3.4122
   50MOL0     H 6887   0.254   9.843   6.306  3.2082  0.6494 -1.8803
   50MOL0     H 6888   0.665   9.768   6.448  0.9288 -0.0810 -0.0185
   50MOL0     H 6889   0.593   9.618   6.492  1.2444  0.5986 -0.4646
   50MOL0     H 6890   0.622   9.549   6.246  1.4154  0.7570 -1.6535
   50MOL0     H 6891   0.765   9.601   6.310  0.8950  0.9885 -0.2746
   50MOL0     H 6892   0.711   9.703   6.076  0.9414 -1.2732 -0.2836
   50MOL0     H 6893   0.553   9.754   6.146  1.4489  3.5025 -0.5670
   50MOL0     H 6894   0.695   9.916   6.308  1.7706 -1.6291  2.1349
   50MOL0     H 6895   0.681   9.958   6.135 -0.8446  0.9495  1.0845
   50MOL0     H 6896   1.074   9.879   6.119  1.0500  3.7631  0.3139
   50MOL0     H 6897   0.438   9.504   6.467  0.2318  0.9665 -0.1271
   50MOL0     H 6898   0.249   9.333   6.532  1.1681 -0.3133 -0.3103
   50MOL0     H 6899   0.174   9.279   6.375 -0.6378  0.2277  0.0534
   50MOL0     H 6900   0.362   9.291   6.410  0.8602  1.3800  0.5203
   51MOL0     O 6901  11.378   3.759   2.484  0.1914 -0.2966 -0.4369
   51MOL0     C 6902  11.319   3.723   2.375 -0.7841 -0.5877 -1.0385
   51MOL0     O 6903  11.370   3.728   2.248 -0.7202  0.3426 -1.1464
   51MOL0     C 6904  11.497   3.766   2.217 -0.2187 -0.0718  0.1123
   51MOL0     C 6905  11.494   3.825   2.084 -0.6039 -0.1055 -0.2902
   51MOL0     C 6906  11.622   3.862   2.034  0.2270  0.7423 -0.3297
   51MOL0     C 6907  11.739   3.850   2.111  0.8806  0.3288 -0.7341
   51MOL0     O 6908  11.871   3.877   2.081 -0.5199 -0.3770  0.6614
   51MOL0     C 6909  11.897   3.918   1.944  0.7816 -1.3747 -0.1373
   51MOL0     C 6910  11.894   3.799   1.842 -0.1154  0.0633  1.2336
   51MOL0     C 6911  11.963   3.671   1.875  0.3568 -0.0070 -0.3844
   51MOL0     C 6912  12.111   3.691   1.889  0.1407  0.2763 -0.7934
   51MOL0     C 6913  12.180   3.558   1.946 -0.0824  0.0319 -0.6384
   51MOL0     C 6914  12.328   3.581   1.961 -0.1717  0.4376  0.4461
   51MOL0     C 6915  12.404   3.459   2.014 -0.4035  0.5395 -0.1134
   51MOL0     C 6916  12.512   3.504   2.112  0.1316  0.5421  0.2430
   51MOL0     N 6917  12.587   3.379   2.149  0.9685 -0.9802 -0.7021
   51MOL0     C 6918  12.524   3.275   2.218 -0.6154 -0.2612  0.4992
   51MOL0     C 6919  12.616   3.178   2.212  0.4647 -0.3325  0.3753
   51MOL0     C 6920  12.601   3.024   2.238 -0.2885  0.2052 -1.5103
   51MOL0     C 6921  12.461   2.973   2.201 -0.6011  0.1068 -0.5539
   51MOL0     C 6922  12.457   2.822   2.240  0.0516  0.1811 -0.3922
   51MOL0     C 6923  12.423   2.794   2.393 -0.1555  0.3455  0.5694
   51MOL0     O 6924  12.290   2.852   2.417  0.4057  0.7929 -0.1821
   51MOL0     C 6925  12.193   2.785   2.487  0.8077 -0.1301  0.4491
   51MOL0     C 6926  12.059   2.824   2.465  0.3104 -0.0957  0.4739
   51MOL0     C 6927  11.943   2.757   2.511 -0.9142  0.0873  0.6116
   51MOL0     C 6928  11.807   2.817   2.479  0.1007  0.3259 -0.0064
   51MOL0     C 6929  11.970   2.623   2.574  0.0705 -0.3638  0.5061
   51MOL0     C 6930  11.863   2.537   2.626 -0.4296  0.6482 -0.2854
   51MOL0     O 6931  11.909   2.404   2.652  0.0306 -0.3955  0.3617
   51MOL0     C 6932  11.826   2.315   2.707  0.1985 -0.2647 -0.4444
   51MOL0     C 6933  11.830   2.178   2.665  0.8531  0.5526  0.6659
   51MOL0     C 6934  11.743   2.090   2.732  0.0430 -0.4575  0.1925
   51MOL0     C 6935  11.666   2.118   2.842  0.3485  0.0426 -0.7114
   51MOL0     O 6936  11.575   2.027   2.899  0.3417 -0.0628  0.4111
   51MOL0     C 6937  11.622   1.894   2.910 -0.4206  0.5867  0.2015
   51MOL0     C 6938  11.525   1.804   2.992 -0.4232  0.2153 -1.4113
   51MOL0     C 6939  11.564   1.655   3.000 -0.7718 -0.0893  1.0297
   51MOL0     C 6940  11.529   1.592   2.876 -0.2109  0.1345  0.2231
   51MOL0     C 6941  11.539   1.436   2.873 -0.9008 -0.8746  0.6021
   51MOL0     C 6942  11.663   1.393   2.789 -1.1320 -0.2832  0.7094
   51MOL0     C 6943  11.681   1.242   2.797 -0.5806  0.0089  0.8302
   51MOL0     C 6944  11.790   1.196   2.705  0.3762  1.0689  0.4591
   51MOL0    Cl 6945  11.754   1.229   2.545 -0.1559  0.3702  0.4277
   51MOL0     C 6946  11.674   2.248   2.896 -0.8616 -0.0127 -0.6492
   51MOL0     C 6947  11.741   2.340   2.826  0.0383 -0.1374  0.7342
   51MOL0     O 6948  11.746   2.571   2.625 -0.0796  0.6581  0.3432
   51MOL0     C 6949  12.106   2.586   2.610 -0.0465 -0.6381 -0.3117
   51MOL0     C 6950  12.210   2.673   2.565  0.1200  0.7075 -0.0499
   51MOL0     N 6951  12.730   3.220   2.155  0.5088  1.0352  0.2120
   51MOL0     N 6952  12.713   3.338   2.124  0.2049 -0.2827  0.3760
   51MOL0     C 6953  11.732   3.794   2.243  0.1632  0.1715  0.4383
   51MOL0     C 6954  11.613   3.747   2.295 -0.8768  0.1160  0.0113
   51MOL0     C 6955  11.175   3.681   2.390 -0.4221  0.5577  0.4946
   51MOL0     C 6956  11.092   3.690   2.278 -0.5360  0.1976 -0.1162
   51MOL0     C 6957  10.960   3.652   2.283 -0.8854 -0.4255  0.4985
   51MOL0     C 6958  10.913   3.575   2.391 -0.5309 -0.6663 -0.0495
   51MOL0     O 6959  10.794   3.519   2.371 -0.9464 -0.5086 -0.8075
   51MOL0     C 6960  10.746   3.430   2.469  0.3788  0.7756 -0.2832
   51MOL0     C 6961  10.663   3.319   2.403  0.1068  0.9824  0.2184
   51MOL0     C 6962  10.582   3.226   2.509  0.3248 -0.3671 -0.2635
   51MOL0     C 6963  10.446   3.181   2.454  0.3522  0.5193  0.8578
   51MOL0     C 6964  10.472   3.063   2.365  0.2806  0.6730  0.0521
   51MOL0     C 6965  10.490   2.973   2.275 -0.4358  0.3254  1.2248
   51MOL0     C 6966  10.994   3.550   2.492  0.5810 -0.3873 -0.0714
   51MOL0     C 6967  11.121   3.607   2.493  0.1867 -0.4306  0.2465
   51MOL0     C 6968  11.201   3.579   2.614 -0.3998 -0.1182 -0.2204
   51MOL0     H 6969  11.410   3.829   2.015  0.1270 -2.0928 -1.3867
   51MOL0     H 6970  11.628   3.896   1.931  0.9878 -3.2119 -1.7676
   51MOL0     H 6971  11.994   3.969   1.948  0.0773 -0.0960  1.8879
   51MOL0     H 6972  11.824   3.992   1.910  0.4606 -1.4639  0.3527
   51MOL0     H 6973  11.795   3.776   1.803  0.0065  0.7997  0.4627
   51MOL0     H 6974  11.958   3.834   1.760  1.2987 -0.5730  2.0210
   51MOL0     H 6975  11.936   3.637   1.975  3.1896  1.8882  1.1770
   51MOL0     H 6976  11.932   3.588   1.810 -0.4487 -0.5068  0.6158
   51MOL0     H 6977  12.163   3.701   1.793 -0.5175 -3.0642 -1.6241
   51MOL0     H 6978  12.125   3.776   1.956  0.1557 -1.7203  1.9097
   51MOL0     H 6979  12.172   3.479   1.870 -1.5697  0.9373 -1.4876
   51MOL0     H 6980  12.133   3.546   2.044 -0.8744  0.2679 -0.9747
   51MOL0     H 6981  12.373   3.616   1.867  0.5787  1.2921  1.1046
   51MOL0     H 6982  12.353   3.661   2.031  3.8979  0.1418 -0.4573
   51MOL0     H 6983  12.452   3.409   1.929 -0.6778 -0.4557  0.3029
   51MOL0     H 6984  12.351   3.385   2.075  1.4482  0.0447  0.9479
   51MOL0     H 6985  12.569   3.576   2.053 -0.6453  1.0722  0.1265
   51MOL0     H 6986  12.478   3.559   2.201  1.7822  1.2420  0.4653
   51MOL0     H 6987  12.419   3.261   2.242  0.1225 -1.6340  3.5011
   51MOL0     H 6988  12.618   3.008   2.345 -0.6313 -0.2090 -1.5152
   51MOL0     H 6989  12.665   2.957   2.180 -2.6270 -1.4638 -2.3183
   51MOL0     H 6990  12.372   3.031   2.225  0.2398  2.2571 -2.3328
   51MOL0     H 6991  12.475   2.976   2.092  1.6965 -0.3627 -0.3375
   51MOL0     H 6992  12.377   2.778   2.180  1.4035  2.4652 -4.2236
   51MOL0     H 6993  12.547   2.768   2.207 -0.3840 -0.1481 -1.0652
   51MOL0     H 6994  12.424   2.686   2.407  1.1252  0.2019 -0.3800
   51MOL0     H 6995  12.499   2.850   2.448 -0.7713 -0.0141  1.8235
   51MOL0     H 6996  12.044   2.922   2.421  3.4284 -1.1808 -3.6818
   51MOL0     H 6997  11.817   2.923   2.456  0.8087  0.0525 -1.0266
   51MOL0     H 6998  11.741   2.795   2.564  2.5320  0.6964  2.1149
   51MOL0     H 6999  11.783   2.778   2.380  0.5101 -0.6852  0.2775
   51MOL0     H 7000  11.891   2.145   2.582  1.4987 -0.9645  1.7136
   51MOL0     H 7001  11.742   1.993   2.683 -2.7158 -0.2742 -0.2654
   51MOL0     H 7002  11.655   1.844   2.818 -0.7524 -1.3775  1.1149
   51MOL0     H 7003  11.722   1.903   2.955 -0.2889 -0.8337  0.2350
   51MOL0     H 7004  11.531   1.847   3.092  2.0380 -4.0140  0.5393
   51MOL0     H 7005  11.424   1.818   2.955 -1.0611  0.1801  0.2260
   51MOL0     H 7006  11.518   1.604   3.085  0.0160 -1.2269  0.7904
   51MOL0     H 7007  11.672   1.641   2.993 -0.7694 -0.0017  0.8895
   51MOL0     H 7008  11.600   1.630   2.802  0.2132 -2.4164 -0.7507
   51MOL0     H 7009  11.430   1.634   2.856  0.7896  2.2028 -0.7140
   51MOL0     H 7010  11.562   1.406   2.976  0.4856  0.7879  0.8236
   51MOL0     H 7011  11.444   1.399   2.833 -0.8061  3.1419 -4.3024
   51MOL0     H 7012  11.741   1.458   2.829 -0.7050  0.2958 -0.9613
   51MOL0     H 7013  11.642   1.427   2.687 -1.9539 -3.2376 -0.2017
   51MOL0     H 7014  11.584   1.192   2.794 -0.9766  0.6977  1.6814
   51MOL0     H 7015  11.720   1.220   2.897  0.7501 -0.0495  0.3164
   51MOL0     H 7016  11.803   1.088   2.715  3.3888  1.3927  0.9078
   51MOL0     H 7017  11.885   1.244   2.728  0.5318  2.6425 -2.8891
   51MOL0     H 7018  11.618   2.272   2.985  0.1304 -1.9248  0.5601
   51MOL0     H 7019  11.740   2.442   2.864  2.4424  0.0919  0.3130
   51MOL0     H 7020  12.138   2.499   2.667  0.6112  0.6642  1.3976
   51MOL0     H 7021  12.308   2.634   2.589 -0.9628 -2.8457 -0.8273
   51MOL0     H 7022  11.826   3.780   2.295 -0.3411  3.0244  2.3676
   51MOL0     H 7023  11.610   3.704   2.395 -0.7166  2.2449  0.9833
   51MOL0     H 7024  11.140   3.752   2.203  3.2884 -0.9969  1.1126
   51MOL0     H 7025  10.889   3.679   2.205  0.9164  1.0882 -0.7041
   51MOL0     H 7026  10.826   3.370   2.514  2.7733  3.4234 -0.6792
   51MOL0     H 7027  10.683   3.480   2.543 -1.3138 -0.6313 -0.7011
   51MOL0     H 7028  10.728   3.268   2.332  0.9691  0.5750  1.2706
   51MOL0     H 7029  10.581   3.364   2.347  1.2362  0.0663 -2.2931
   51MOL0     H 7030  10.653   3.149   2.541  2.8188  1.2857 -1.5153
   51MOL0     H 7031  10.559   3.272   2.605  1.7610 -1.3874  0.6000
   51MOL0     H 7032  10.384   3.260   2.411  1.0683  1.3891  1.3942
   51MOL0     H 7033  10.388   3.138   2.537 -1.5262 -1.9213 -1.5325
   51MOL0     H 7034  10.493   2.910   2.189 -1.9784  2.8141 -0.7888
   51MOL0     H 7035  10.955   3.495   2.577 -0.6474  1.4386  0.6062
   51MOL0     H 7036  11.232   3.674   2.656 -2.6903  1.1596 -1.2147
   51MOL0     H 7037  11.145   3.531   2.695  1.0247 -2.4920 -0.5410
   51MOL0     H 7038  11.282   3.512   2.583 -0.3571 -0.6759  1.0169
   52MOL0     O 7039  10.436   2.383   4.736 -0.3873 -0.2587 -0.4866
   52MOL0     C 7040  10.356   2.462   4.684  0.0431  0.4210 -0.1761
   52MOL0     O 7041  10.381   2.595   4.658  0.5222 -0.4496 -0.4069
   52MOL0     C 7042  10.506   2.652   4.637  0.8616 -0.7978 -0.9648
   52MOL0     C 7043  10.629   2.626   4.707  0.2322  0.3404 -0.2824
   52MOL0     C 7044  10.746   2.690   4.666  0.4572 -0.4291  0.8216
   52MOL0     C 7045  10.749   2.782   4.560 -0.2541  0.2537  0.2822
   52MOL0     O 7046  10.846   2.869   4.530  0.1183 -0.0676 -0.1888
   52MOL0     C 7047  10.977   2.811   4.533 -0.7721 -0.7514  0.0327
   52MOL0     C 7048  10.997   2.704   4.421 -0.4693  0.4102  0.0342
   52MOL0     C 7049  11.138   2.665   4.397 -0.6207 -0.2619  0.0568
   52MOL0     C 7050  11.216   2.773   4.318 -0.0959  0.2803 -0.4362
   52MOL0     C 7051  11.345   2.714   4.259  0.2722 -0.4773  0.8227
   52MOL0     C 7052  11.419   2.810   4.168 -0.9385 -0.0433 -0.4779
   52MOL0     C 7053  11.533   2.755   4.085  0.8784  1.3715 -0.2162
   52MOL0     C 7054  11.483   2.644   3.991 -0.2131 -0.3771 -0.1654
   52MOL0     N 7055  11.596   2.583   3.926 -0.2582  0.9295  0.2799
   52MOL0     C 7056  11.668   2.654   3.836 -0.0275 -0.2917 -0.4719
   52MOL0     C 7057  11.771   2.571   3.815 -0.0880 -0.6442 -0.1141
   52MOL0     C 7058  11.880   2.610   3.724  0.2113  0.6606 -0.5231
   52MOL0     C 7059  11.857   2.590   3.576 -0.5465  0.9128  0.0773
   52MOL0     C 7060  11.999   2.587   3.496  0.1366  0.0789  0.2808
   52MOL0     C 7061  11.992   2.599   3.337 -0.6138 -0.2753 -0.6409
   52MOL0     O 7062  11.931   2.481   3.284 -0.1335 -0.2429 -0.3189
   52MOL0     C 7063  11.983   2.362   3.298  0.0264 -0.5726  0.6676
   52MOL0     C 7064  11.908   2.245   3.254  0.2522 -0.7825  0.3273
   52MOL0     C 7065  11.949   2.110   3.266  0.0982 -0.1563 -1.0185
   52MOL0     C 7066  11.857   2.013   3.203  0.0818  0.5134  0.1093
   52MOL0     C 7067  12.071   2.087   3.314 -0.0569  1.0311  0.3826
   52MOL0     C 7068  12.125   1.949   3.320 -1.4467 -0.2524  0.6165
   52MOL0     O 7069  12.256   1.932   3.287 -0.2395  0.5365 -0.2864
   52MOL0     C 7070  12.307   1.808   3.273 -1.1218  0.0274  0.6633
   52MOL0     C 7071  12.404   1.794   3.165  0.0110  0.2039  0.2282
   52MOL0     C 7072  12.452   1.668   3.137  0.7368 -0.0864 -0.3618
   52MOL0     C 7073  12.410   1.554   3.211 -0.3969  0.6992 -0.4375
   52MOL0     O 7074  12.486   1.438   3.184 -0.1058 -0.2504  0.1412
   52MOL0     C 7075  12.496   1.349   3.296 -0.1523  0.5663  0.7898
   52MOL0     C 7076  12.575   1.230   3.250 -0.6050  0.4450  0.2185
   52MOL0     C 7077  12.725   1.264   3.249 -0.6948 -0.1755  0.8733
   52MOL0     C 7078  12.793   1.199   3.122  0.2628  0.0781  0.3861
   52MOL0     C 7079  12.942   1.212   3.142  0.4645  0.0028  0.0288
   52MOL0     C 7080  13.023   1.115   3.056  0.0062 -0.6061 -0.6880
   52MOL0     C 7081  13.005   1.141   2.899  0.3609  0.2766 -0.3966
   52MOL0     C 7082  13.063   1.033   2.817  0.7824  0.7675  0.1010
   52MOL0    Cl 7083  13.038   1.046   2.638  0.1819  0.5197 -0.3535
   52MOL0     C 7084  12.323   1.570   3.318 -0.4761  0.1590 -0.1239
   52MOL0     C 7085  12.268   1.697   3.348 -0.0933  0.3419  0.0027
   52MOL0     O 7086  12.056   1.859   3.358  0.1558  0.6672  0.4799
   52MOL0     C 7087  12.146   2.198   3.359  0.0580 -0.3904 -0.6433
   52MOL0     C 7088  12.108   2.333   3.338  0.0333  0.4935  0.3092
   52MOL0     N 7089  11.757   2.454   3.892  0.1376 -0.0318  1.0282
   52MOL0     N 7090  11.636   2.459   3.938  0.4201 -0.0193  2.1017
   52MOL0     C 7091  10.629   2.807   4.494  0.0167  0.2331  1.3504
   52MOL0     C 7092  10.508   2.745   4.532 -0.3808 -0.0915 -0.3815
   52MOL0     C 7093  10.222   2.416   4.651  0.1903  0.6919  0.1124
   52MOL0     C 7094  10.194   2.423   4.514 -0.9065  0.2718 -0.8304
   52MOL0     C 7095  10.071   2.377   4.471 -0.3600  0.0445  0.1988
   52MOL0     C 7096   9.986   2.303   4.556  0.1969  0.6963  0.4123
   52MOL0     O 7097   9.877   2.239   4.504  0.7690  0.7170  0.1330
   52MOL0     C 7098   9.853   2.107   4.536 -0.3807  0.3376 -0.2916
   52MOL0     C 7099   9.739   2.054   4.446  0.4997 -0.8914 -0.8955
   52MOL0     C 7100   9.682   1.918   4.496  0.0148 -0.1466 -0.3797
   52MOL0     C 7101   9.538   1.925   4.563  0.2023 -1.1838  0.0674
   52MOL0     C 7102   9.524   2.015   4.674  0.4975 -0.2660  0.2805
   52MOL0     C 7103   9.504   2.081   4.773 -0.7140  0.5599  1.0671
   52MOL0     C 7104  10.015   2.290   4.691 -0.1832 -0.6139  0.1496
   52MOL0     C 7105  10.131   2.349   4.739  0.0574 -0.2618 -1.3266
   52MOL0     C 7106  10.173   2.313   4.879 -0.5350 -0.3370 -0.5831
   52MOL0     H 7107  10.628   2.559   4.792 -1.8933  0.1497 -0.3867
   52MOL0     H 7108  10.836   2.671   4.725  0.7023  0.9659  0.9222
   52MOL0     H 7109  11.004   2.764   4.628  2.1998 -2.2309 -1.4161
   52MOL0     H 7110  11.053   2.889   4.521  0.1498 -1.8081 -1.3336
   52MOL0     H 7111  10.930   2.620   4.441  0.2628  0.4070  3.0491
   52MOL0     H 7112  10.963   2.742   4.325  0.7709 -0.4664 -0.7786
   52MOL0     H 7113  11.188   2.622   4.485 -0.8961 -0.7634 -0.0249
   52MOL0     H 7114  11.129   2.581   4.328  0.0017 -0.9036  0.7267
   52MOL0     H 7115  11.160   2.808   4.230  1.1673  0.4501 -1.1926
   52MOL0     H 7116  11.247   2.855   4.384  1.9393  0.2792 -1.3427
   52MOL0     H 7117  11.314   2.627   4.200 -2.1964  1.0621 -0.3140
   52MOL0     H 7118  11.402   2.668   4.340 -0.6180  1.7131  2.8164
   52MOL0     H 7119  11.347   2.847   4.095  1.7599 -0.2655 -3.4689
   52MOL0     H 7120  11.453   2.891   4.233  2.6988 -2.0364  0.3946
   52MOL0     H 7121  11.618   2.721   4.145 -0.5591  0.3758  1.3526
   52MOL0     H 7122  11.566   2.833   4.016 -4.5029  3.6039 -0.7055
   52MOL0     H 7123  11.448   2.562   4.054 -0.7379  1.3534  1.9111
   52MOL0     H 7124  11.412   2.678   3.916 -1.5575  0.5493  1.4490
   52MOL0     H 7125  11.641   2.754   3.802 -1.4007 -0.5957 -0.3367
   52MOL0     H 7126  11.967   2.546   3.743  0.7172  1.6296  0.4721
   52MOL0     H 7127  11.899   2.716   3.739  0.1615  0.4764  0.9615
   52MOL0     H 7128  11.817   2.491   3.552  1.4917  0.3796 -1.4346
   52MOL0     H 7129  11.783   2.656   3.530 -2.7919 -1.5136 -0.0320
   52MOL0     H 7130  12.055   2.673   3.534 -0.9749  0.6986  0.5802
   52MOL0     H 7131  12.047   2.493   3.523 -0.5597 -0.5865 -0.7505
   52MOL0     H 7132  11.943   2.691   3.305 -1.4081  0.5077  2.5042
   52MOL0     H 7133  12.094   2.604   3.299 -0.7965 -3.0683 -1.7311
   52MOL0     H 7134  11.813   2.270   3.207  0.1121 -1.5237  0.2016
   52MOL0     H 7135  11.797   1.971   3.284  0.2700  1.8161  0.9575
   52MOL0     H 7136  11.909   1.930   3.154 -2.1169 -0.7273 -0.2173
   52MOL0     H 7137  11.800   2.067   3.127 -0.1155 -0.9786 -0.8591
   52MOL0     H 7138  12.443   1.881   3.113 -0.6580 -0.3360 -1.2592
   52MOL0     H 7139  12.523   1.658   3.056  0.9125 -1.1420 -0.0893
   52MOL0     H 7140  12.540   1.399   3.383 -0.4128  0.6232  0.8899
   52MOL0     H 7141  12.399   1.316   3.333 -1.1264  3.7855  1.3914
   52MOL0     H 7142  12.560   1.144   3.316  1.2946 -1.1501 -1.3029
   52MOL0     H 7143  12.538   1.198   3.152 -0.8275 -0.0419  0.4563
   52MOL0     H 7144  12.767   1.228   3.344  0.7404 -1.6818 -0.2717
   52MOL0     H 7145  12.753   1.369   3.245  0.8172 -0.5955 -0.7113
   52MOL0     H 7146  12.760   1.244   3.027  2.3711 -2.3909 -1.6622
   52MOL0     H 7147  12.760   1.095   3.121  0.1426  0.1131 -0.9331
   52MOL0     H 7148  12.962   1.316   3.116  1.3539  0.1486  1.2085
   52MOL0     H 7149  12.966   1.185   3.245  4.3672 -4.0478 -1.6156
   52MOL0     H 7150  12.990   1.011   3.066 -2.0944  0.0469 -0.3365
   52MOL0     H 7151  13.127   1.127   3.086  0.4491 -1.4070 -1.8167
   52MOL0     H 7152  13.047   1.236   2.867  0.6027  0.7931  1.3996
   52MOL0     H 7153  12.897   1.137   2.879  0.0751  0.4986  1.0357
   52MOL0     H 7154  13.018   0.939   2.851 -0.6292  1.7976  1.1555
   52MOL0     H 7155  13.169   1.025   2.844  0.5022 -0.6802  0.8660
   52MOL0     H 7156  12.307   1.490   3.389 -1.9126  1.2717  0.8630
   52MOL0     H 7157  12.216   1.703   3.443 -1.2795 -1.7150 -0.4560
   52MOL0     H 7158  12.245   2.171   3.396 -1.4586 -0.6704  3.7987
   52MOL0     H 7159  12.181   2.414   3.341 -2.6989  3.1064  0.6654
   52MOL0     H 7160  10.637   2.867   4.404 -1.1661 -0.5625  0.6763
   52MOL0     H 7161  10.414   2.773   4.486 -0.7852  1.3553  1.2300
   52MOL0     H 7162  10.259   2.477   4.445 -1.7583  2.2782 -0.1428
   52MOL0     H 7163  10.062   2.382   4.363  0.0656 -1.2297  0.0788
   52MOL0     H 7164   9.939   2.040   4.519  0.1109  1.1941 -1.2810
   52MOL0     H 7165   9.821   2.099   4.640 -1.9317  0.2958 -0.7587
   52MOL0     H 7166   9.757   2.054   4.338 -2.9273  3.5472 -1.7951
   52MOL0     H 7167   9.652   2.122   4.451  1.6296  0.5297  0.6157
   52MOL0     H 7168   9.693   1.838   4.422  1.8968 -0.6356  0.3625
   52MOL0     H 7169   9.742   1.868   4.573  1.8384 -1.1134 -2.3260
   52MOL0     H 7170   9.522   1.822   4.596 -1.1843 -1.5139 -1.5404
   52MOL0     H 7171   9.462   1.955   4.490  2.4555  2.1326 -1.1699
   52MOL0     H 7172   9.474   2.139   4.858 -3.7029  2.9023 -1.3314
   52MOL0     H 7173   9.942   2.238   4.752 -3.3546 -2.0297 -4.3349
   52MOL0     H 7174  10.241   2.227   4.875  1.3998  1.0668  0.4777
   52MOL0     H 7175  10.220   2.392   4.939 -0.8043  0.2809 -1.1678
   52MOL0     H 7176  10.093   2.264   4.936  0.3445 -1.3095 -0.1509
   53MOL0     O 7177   2.257   4.401  10.804  0.4038  0.2057  0.4376
   53MOL0     C 7178   2.277   4.518  10.811 -0.5759  0.1520  0.0515
   53MOL0     O 7179   2.398   4.571  10.850  0.3312 -0.3595  0.6915
   53MOL0     C 7180   2.509   4.496  10.858  0.2239  0.7505  0.3853
   53MOL0     C 7181   2.546   4.393  10.768 -0.5128 -1.0417  0.1266
   53MOL0     C 7182   2.646   4.308  10.804 -0.0698 -0.7511 -0.5774
   53MOL0     C 7183   2.707   4.299  10.925  0.0603 -0.0144 -0.1635
   53MOL0     O 7184   2.794   4.211  10.980  0.2618  0.5741  0.5060
   53MOL0     C 7185   2.827   4.096  10.899  0.9884  0.2049 -0.1031
   53MOL0     C 7186   2.932   4.018  10.982  0.5409 -0.3467 -0.4166
   53MOL0     C 7187   2.865   3.957  11.114  0.8492 -0.1018  0.3536
   53MOL0     C 7188   2.973   3.855  11.163  0.8923  0.5792  0.5354
   53MOL0     C 7189   2.967   3.815  11.313  0.2135 -0.2626  0.0075
   53MOL0     C 7190   3.070   3.711  11.347 -0.0268 -0.8274 -0.2446
   53MOL0     C 7191   3.072   3.695  11.507  0.1568  1.2659  0.1482
   53MOL0     C 7192   3.143   3.565  11.545 -0.2934  0.2273  1.0250
   53MOL0     N 7193   3.289   3.569  11.534 -0.3708 -0.7759  0.7222
   53MOL0     C 7194   3.373   3.623  11.631 -0.5977 -0.1642 -0.8259
   53MOL0     C 7195   3.494   3.653  11.568 -0.1918  0.4698  1.4423
   53MOL0     C 7196   3.620   3.726  11.623  0.9955 -0.4459 -0.2736
   53MOL0     C 7197   3.627   3.869  11.568 -0.3494 -0.0404 -0.5179
   53MOL0     C 7198   3.745   3.949  11.634  0.9199  0.4331 -0.3638
   53MOL0     C 7199   3.798   4.074  11.565 -0.2366 -0.4180 -0.3338
   53MOL0     O 7200   3.689   4.162  11.519  1.1477 -0.4567 -0.1386
   53MOL0     C 7201   3.734   4.276  11.462  0.0116  0.3825 -0.5609
   53MOL0     C 7202   3.866   4.321  11.453  0.2264  0.2587  0.0713
   53MOL0     C 7203   3.901   4.444  11.395 -0.3467 -0.2221  0.2304
   53MOL0     C 7204   4.048   4.476  11.372 -1.1483  0.4496  0.8277
   53MOL0     C 7205   3.794   4.534  11.356 -0.4604 -0.3954 -0.3008
   53MOL0     C 7206   3.823   4.669  11.309 -0.1034  0.2947 -0.3080
   53MOL0     O 7207   3.745   4.760  11.369  0.4232 -0.0439 -0.1456
   53MOL0     C 7208   3.743   4.888  11.320 -0.6250  0.2451 -0.5436
   53MOL0     C 7209   3.627   4.964  11.303 -0.5834  1.0362 -0.2372
   53MOL0     C 7210   3.624   5.102  11.263  0.0277  0.3894  0.4855
   53MOL0     C 7211   3.741   5.174  11.243  0.0238  0.8928 -1.1747
   53MOL0     O 7212   3.751   5.309  11.214 -0.0335  0.8040 -0.3529
   53MOL0     C 7213   3.641   5.367  11.141  0.3749  0.6075 -0.0223
   53MOL0     C 7214   3.698   5.498  11.082 -0.0786  0.0568  0.6382
   53MOL0     C 7215   3.819   5.499  10.982  0.0490 -0.0114 -0.4471
   53MOL0     C 7216   3.864   5.638  10.927 -1.0534  0.2491  0.7336
   53MOL0     C 7217   3.955   5.640  10.801 -0.4222 -0.4886  0.5262
   53MOL0     C 7218   4.084   5.565  10.841 -0.2721 -1.0516  0.4236
   53MOL0     C 7219   4.177   5.542  10.727  0.4934  0.1694  0.6110
   53MOL0     C 7220   4.310   5.482  10.763 -0.9592  0.0579 -0.4724
   53MOL0    Cl 7221   4.292   5.318  10.827  0.2300  0.3364 -0.0471
   53MOL0     C 7222   3.861   5.106  11.266 -0.7107 -0.6555 -0.7510
   53MOL0     C 7223   3.859   4.969  11.309 -0.0983  0.0668  0.2990
   53MOL0     O 7224   3.891   4.682  11.209 -0.0599 -0.0012 -0.0456
   53MOL0     C 7225   3.662   4.482  11.370  1.0672  0.8516 -1.3179
   53MOL0     C 7226   3.634   4.357  11.421  0.2131 -0.1468 -0.5445
   53MOL0     N 7227   3.484   3.605  11.436 -0.5131 -0.4408 -0.1538
   53MOL0     N 7228   3.360   3.569  11.416  0.1990  0.6753 -0.2962
   53MOL0     C 7229   2.681   4.411  11.012  1.2896  0.1177 -0.2857
   53MOL0     C 7230   2.579   4.508  10.978 -0.6467 -0.3159 -0.0505
   53MOL0     C 7231   2.174   4.620  10.768 -0.6964  1.2805 -0.1818
   53MOL0     C 7232   2.206   4.752  10.744  0.8949 -0.5903 -0.6308
   53MOL0     C 7233   2.121   4.847  10.689 -0.2747  0.0702  0.0892
   53MOL0     C 7234   1.996   4.801  10.645  0.1954 -0.0998 -0.2412
   53MOL0     O 7235   1.917   4.886  10.567 -0.1024  0.0657 -0.6575
   53MOL0     C 7236   1.852   4.824  10.455 -0.4481 -0.4329 -0.2654
   53MOL0     C 7237   1.758   4.907  10.367 -0.5750 -0.7647 -0.2587
   53MOL0     C 7238   1.710   4.826  10.242  0.4925  0.2804 -0.3208
   53MOL0     C 7239   1.589   4.889  10.189  0.6824 -0.2587  0.1000
   53MOL0     C 7240   1.638   5.016  10.133 -0.6554  0.6045  0.1268
   53MOL0     C 7241   1.670   5.122  10.089 -0.1341  0.1842 -0.0298
   53MOL0     C 7242   1.955   4.673  10.682  0.3896  0.1577 -0.5545
   53MOL0     C 7243   2.038   4.578  10.741  0.0141  0.1905  0.1977
   53MOL0     C 7244   1.968   4.443  10.760 -0.2570 -0.5391 -0.0242
   53MOL0     H 7245   2.502   4.382  10.670 -1.4212 -2.7649  0.6858
   53MOL0     H 7246   2.673   4.241  10.723  0.7239  0.7689 -1.6312
   53MOL0     H 7247   2.872   4.132  10.806  0.5363 -0.6093 -0.6554
   53MOL0     H 7248   2.734   4.039  10.887 -0.8069  2.8075  0.6139
   53MOL0     H 7249   2.971   3.940  10.917 -1.8830 -0.2418 -2.1296
   53MOL0     H 7250   3.015   4.080  11.018  0.9932 -2.2256  2.0574
   53MOL0     H 7251   2.839   4.019  11.200  0.1946 -0.9851  0.8081
   53MOL0     H 7252   2.779   3.896  11.086  0.6301  1.3296 -2.5196
   53MOL0     H 7253   2.962   3.769  11.096  0.1874  0.7250  0.4532
   53MOL0     H 7254   3.074   3.894  11.147  1.9606 -2.4029 -0.7663
   53MOL0     H 7255   2.868   3.773  11.333 -0.3311  1.3585  0.9009
   53MOL0     H 7256   2.975   3.901  11.380  2.5843  0.5615 -1.2319
   53MOL0     H 7257   3.021   3.625  11.299 -0.7557 -2.5711  3.2392
   53MOL0     H 7258   3.166   3.738  11.305 -0.0172  1.1056  0.9194
   53MOL0     H 7259   2.968   3.678  11.536  1.0975 -1.2009  2.6005
   53MOL0     H 7260   3.115   3.780  11.561  1.8511  2.1727 -2.4695
   53MOL0     H 7261   3.131   3.523  11.646  1.2897  1.5779  1.8226
   53MOL0     H 7262   3.117   3.490  11.469  1.0525  1.3213 -0.5690
   53MOL0     H 7263   3.349   3.650  11.734 -1.5885 -2.2374 -0.4629
   53MOL0     H 7264   3.715   3.677  11.601  1.2251  1.4059 -4.2303
   53MOL0     H 7265   3.606   3.727  11.731 -0.7033 -0.2985 -0.4598
   53MOL0     H 7266   3.647   3.857  11.461  1.9696 -3.0243  0.1194
   53MOL0     H 7267   3.537   3.924  11.595  0.9873  1.2389  1.6211
   53MOL0     H 7268   3.700   3.979  11.729  0.6977  0.5037 -0.4920
   53MOL0     H 7269   3.831   3.889  11.664  1.6032  0.1053 -2.7578
   53MOL0     H 7270   3.861   4.131  11.633 -3.2995  2.4889  0.3097
   53MOL0     H 7271   3.858   4.048  11.478 -3.1567 -1.0384 -2.3235
   53MOL0     H 7272   3.945   4.255  11.488  0.8022  0.9498  0.1092
   53MOL0     H 7273   4.078   4.572  11.416  1.6631 -0.1263  0.3910
   53MOL0     H 7274   4.087   4.475  11.269  1.2088  0.1020  1.6633
   53MOL0     H 7275   4.109   4.405  11.429  2.0232  2.0714 -0.2943
   53MOL0     H 7276   3.536   4.910  11.330  0.0612  1.5503  3.4408
   53MOL0     H 7277   3.527   5.148  11.250 -1.5291 -2.9413 -1.0701
   53MOL0     H 7278   3.600   5.307  11.059  2.5737 -3.5067  1.6106
   53MOL0     H 7279   3.558   5.391  11.208  1.2500  0.4006  1.1730
   53MOL0     H 7280   3.616   5.533  11.018 -0.6412  2.2764  2.4372
   53MOL0     H 7281   3.726   5.561  11.167  0.7323 -0.8177  1.0346
   53MOL0     H 7282   3.790   5.445  10.891 -0.9254  0.7252 -0.5876
   53MOL0     H 7283   3.899   5.441  11.029 -0.3376  1.0684  1.6537
   53MOL0     H 7284   3.938   5.675  10.999  0.6593  0.6209 -1.1425
   53MOL0     H 7285   3.786   5.710  10.902 -0.7009  1.2057  2.2186
   53MOL0     H 7286   3.909   5.607  10.707 -0.8092  3.8736 -1.0253
   53MOL0     H 7287   3.974   5.745  10.777  0.7456 -0.6177  0.8151
   53MOL0     H 7288   4.067   5.473  10.898 -1.7719 -0.2806  1.2949
   53MOL0     H 7289   4.138   5.632  10.909  2.1519 -1.4831 -0.9750
   53MOL0     H 7290   4.201   5.635  10.676  0.7093 -0.3193 -0.1886
   53MOL0     H 7291   4.115   5.480  10.662 -3.4218  2.4864  1.8400
   53MOL0     H 7292   4.358   5.558  10.825 -1.6933  0.8259 -0.8218
   53MOL0     H 7293   4.375   5.468  10.676 -1.5866 -3.7895 -0.4925
   53MOL0     H 7294   3.949   5.167  11.246 -1.7134  0.6983 -1.1895
   53MOL0     H 7295   3.952   4.919  11.328  1.8630  2.3984 -2.2353
   53MOL0     H 7296   3.581   4.549  11.347  1.2384  2.5151  2.2281
   53MOL0     H 7297   3.531   4.321  11.428  0.3848 -0.4219  0.7990
   53MOL0     H 7298   2.735   4.443  11.100 -0.7960  3.9148 -0.1601
   53MOL0     H 7299   2.546   4.592  11.038 -3.4740  0.1274 -2.0417
   53MOL0     H 7300   2.304   4.789  10.772  0.2319  2.0996 -1.6133
   53MOL0     H 7301   2.149   4.952  10.684  0.5031 -0.1875 -1.5190
   53MOL0     H 7302   1.925   4.774  10.390  0.5004  1.6056 -0.8375
   53MOL0     H 7303   1.785   4.747  10.495 -1.3150 -1.0177 -2.6959
   53MOL0     H 7304   1.803   4.999  10.330  1.4446 -0.4616  2.6502
   53MOL0     H 7305   1.674   4.927  10.435  1.2428 -0.0192  1.8796
   53MOL0     H 7306   1.785   4.827  10.163  3.2155 -2.3570  1.9756
   53MOL0     H 7307   1.679   4.725  10.269  2.5662 -0.3070 -0.0207
   53MOL0     H 7308   1.514   4.901  10.267  0.8525 -0.0938  0.2395
   53MOL0     H 7309   1.538   4.829  10.113  0.7789 -1.3014  0.8398
   53MOL0     H 7310   1.694   5.221  10.054  1.8855  0.0448  0.7773
   53MOL0     H 7311   1.853   4.646  10.658 -0.1118 -2.5601  3.6597
   53MOL0     H 7312   2.024   4.371  10.821 -2.0258 -0.6702  1.5410
   53MOL0     H 7313   1.871   4.464  10.806  0.5580  0.9517  1.0810
   53MOL0     H 7314   1.964   4.398  10.661  0.2717  1.5860 -1.0509
   54MOL0     O 7315   7.960   2.883   0.508 -0.4888 -0.6342  0.1938
   54MOL0     C 7316   7.959   2.962   0.413 -0.6350  0.1783  0.6349
   54MOL0     O 7317   7.847   3.016   0.355 -0.3951 -0.2121  0.5821
   54MOL0     C 7318   7.722   2.992   0.403  0.1822  0.0942  0.5523
   54MOL0     C 7319   7.642   3.102   0.439  0.3724 -1.0162  0.8377
   54MOL0     C 7320   7.511   3.081   0.492  0.4547  0.2154  0.2552
   54MOL0     C 7321   7.465   2.948   0.495 -0.1079  0.6714 -1.7133
   54MOL0     O 7322   7.338   2.940   0.530  0.1184 -0.4444  0.2554
   54MOL0     C 7323   7.287   2.804   0.567  0.5373 -0.3836 -0.1849
   54MOL0     C 7324   7.155   2.810   0.634 -0.1013 -0.5874 -0.5703
   54MOL0     C 7325   7.035   2.853   0.529 -0.5625  0.8647  0.0265
   54MOL0     C 7326   6.905   2.853   0.590 -0.3612 -0.3194 -0.5044
   54MOL0     C 7327   6.791   2.861   0.479 -0.4648  0.2830  0.5030
   54MOL0     C 7328   6.652   2.850   0.545 -1.2855 -1.2520  1.2475
   54MOL0     C 7329   6.558   2.857   0.422 -0.7100  0.1782 -1.2774
   54MOL0     C 7330   6.525   3.001   0.370 -0.2740  0.1063  1.2254
   54MOL0     N 7331   6.424   2.996   0.258  0.5148  0.2064  0.1897
   54MOL0     C 7332   6.412   2.898   0.172  0.2666 -0.7064  0.6524
   54MOL0     C 7333   6.310   2.922   0.094  0.4960 -1.3476 -0.0792
   54MOL0     C 7334   6.268   2.835  -0.020  0.2848  0.0107 -0.7764
   54MOL0     C 7335   6.367   2.835  -0.135 -0.7074 -0.5235  0.6468
   54MOL0     C 7336   6.362   2.957  -0.240  0.8898  0.1909 -1.2180
   54MOL0     C 7337   6.231   2.979  -0.308 -0.0382  0.5139  0.5540
   54MOL0     O 7338   6.229   2.875  -0.410 -0.4715 -0.9368  0.3144
   54MOL0     C 7339   6.108   2.839  -0.455  0.0592 -0.2779  1.2563
   54MOL0     C 7340   5.995   2.911  -0.451  0.4092  0.4047 -0.2158
   54MOL0     C 7341   5.872   2.861  -0.483 -0.5828  1.1184  0.3382
   54MOL0     C 7342   5.756   2.956  -0.472 -0.4634  0.0694  0.2778
   54MOL0     C 7343   5.849   2.727  -0.525  0.0847  0.1622  0.1683
   54MOL0     C 7344   5.725   2.668  -0.560  1.1441  0.4385  0.8119
   54MOL0     O 7345   5.621   2.681  -0.462 -1.1657 -0.9661 -0.0634
   54MOL0     C 7346   5.494   2.644  -0.488 -0.2325  0.2826 -0.2259
   54MOL0     C 7347   5.424   2.591  -0.380 -0.0044  0.6658 -0.7663
   54MOL0     C 7348   5.282   2.575  -0.386  0.1481 -0.7868  1.1218
   54MOL0     C 7349   5.211   2.617  -0.501 -0.9754  0.3084 -0.1650
   54MOL0     O 7350   5.082   2.593  -0.524  0.2150  0.0285  0.3986
   54MOL0     C 7351   5.017   2.491  -0.447  0.0490 -0.3667  0.9220
   54MOL0     C 7352   4.919   2.421  -0.540  0.6815 -0.6181 -0.2167
   54MOL0     C 7353   4.823   2.531  -0.604 -0.0217 -0.0610 -0.5092
   54MOL0     C 7354   4.679   2.484  -0.663 -0.4133  0.1512  1.0374
   54MOL0     C 7355   4.631   2.600  -0.755 -0.2104 -0.4805 -0.7900
   54MOL0     C 7356   4.486   2.587  -0.810  0.1470 -0.8397  0.2507
   54MOL0     C 7357   4.463   2.683  -0.928 -0.5441  0.7362 -0.3964
   54MOL0     C 7358   4.533   2.636  -1.050 -0.8782  0.1271  0.3972
   54MOL0    Cl 7359   4.507   2.753  -1.182  0.1941 -0.6280 -0.5038
   54MOL0     C 7360   5.287   2.679  -0.607  0.5355  0.0435 -0.1672
   54MOL0     C 7361   5.422   2.688  -0.599  0.2137  0.0190  0.8082
   54MOL0     O 7362   5.713   2.610  -0.673  0.1680 -1.0632  0.4265
   54MOL0     C 7363   5.961   2.645  -0.527  1.2446  1.0787 -0.2004
   54MOL0     C 7364   6.084   2.705  -0.487 -0.3349  0.1823  0.1279
   54MOL0     N 7365   6.242   3.026   0.143  1.3397  0.5485  1.0757
   54MOL0     N 7366   6.312   3.080   0.238  0.1087  0.4793 -0.3539
   54MOL0     C 7367   7.555   2.842   0.477  0.2894 -0.1831  0.2464
   54MOL0     C 7368   7.681   2.858   0.426  0.8981 -0.1458  0.7221
   54MOL0     C 7369   8.091   3.009   0.366 -0.0922 -0.2392  0.3186
   54MOL0     C 7370   8.191   3.044   0.456  0.3675 -0.9337  0.3886
   54MOL0     C 7371   8.315   3.082   0.407 -0.2951 -0.0705 -0.3496
   54MOL0     C 7372   8.358   3.070   0.274 -0.1177 -0.5121  0.8725
   54MOL0     O 7373   8.498   3.098   0.250 -0.5797 -0.2247  0.1734
   54MOL0     C 7374   8.537   3.107   0.111  0.3402 -1.0794 -0.7547
   54MOL0     C 7375   8.483   3.233   0.040 -0.6489 -0.1411 -0.7972
   54MOL0     C 7376   8.534   3.227  -0.108  0.5011  0.1206 -0.3896
   54MOL0     C 7377   8.479   3.114  -0.199 -0.0671 -0.5658 -0.8659
   54MOL0     C 7378   8.493   3.137  -0.343 -0.2926  0.6896 -0.0923
   54MOL0     C 7379   8.510   3.176  -0.456 -0.1409 -0.2391  0.3506
   54MOL0     C 7380   8.261   3.035   0.186  0.1086  0.5735  0.7288
   54MOL0     C 7381   8.121   3.007   0.223  0.1178 -0.2468 -2.0703
   54MOL0     C 7382   8.020   2.973   0.120  0.1071 -0.6395  1.2569
   54MOL0     H 7383   7.678   3.205   0.433  1.5776 -1.4256  0.6329
   54MOL0     H 7384   7.449   3.168   0.513  1.2323  1.5329 -2.3635
   54MOL0     H 7385   7.357   2.750   0.632 -0.3972  0.9198  1.9942
   54MOL0     H 7386   7.279   2.751   0.471 -0.6920 -1.8945  0.7069
   54MOL0     H 7387   7.129   2.718   0.687  3.3683 -1.0926  0.5701
   54MOL0     H 7388   7.148   2.897   0.700 -4.5177  0.7122 -2.3794
   54MOL0     H 7389   7.059   2.947   0.480 -1.1181  0.4605 -1.0573
   54MOL0     H 7390   7.041   2.786   0.442  0.5308  1.6118 -0.4992
   54MOL0     H 7391   6.890   2.769   0.657 -3.6779  0.2227 -0.3879
   54MOL0     H 7392   6.907   2.943   0.652 -3.4269 -0.4745 -0.0009
   54MOL0     H 7393   6.806   2.785   0.402 -0.1960  0.4458  0.3899
   54MOL0     H 7394   6.814   2.954   0.426  4.0405 -0.3023  0.9755
   54MOL0     H 7395   6.647   2.753   0.595  0.7984 -1.5181  1.0309
   54MOL0     H 7396   6.627   2.933   0.611  0.0993 -0.9453  1.4195
   54MOL0     H 7397   6.467   2.814   0.465  0.8063 -1.7917  0.1922
   54MOL0     H 7398   6.603   2.801   0.339  2.6106 -1.0431  1.1057
   54MOL0     H 7399   6.499   3.060   0.459 -0.6481  0.5008  0.8621
   54MOL0     H 7400   6.615   3.037   0.320 -0.1174 -1.5624  0.2469
   54MOL0     H 7401   6.490   2.824   0.159 -0.6821 -1.9139  1.5939
   54MOL0     H 7402   6.168   2.873  -0.045  0.8034  2.0175  0.0434
   54MOL0     H 7403   6.259   2.736   0.026  0.2280 -0.1886 -1.2106
   54MOL0     H 7404   6.471   2.831  -0.102  0.2441 -1.4359 -2.1096
   54MOL0     H 7405   6.345   2.746  -0.196  2.0118 -0.9100  0.1075
   54MOL0     H 7406   6.400   3.053  -0.204  2.6123 -0.6317 -0.7449
   54MOL0     H 7407   6.438   2.920  -0.310  0.6614 -1.3714 -0.6820
   54MOL0     H 7408   6.152   2.965  -0.234  1.7763 -0.4041  2.4330
   54MOL0     H 7409   6.226   3.080  -0.350 -1.0515  0.9006  1.5292
   54MOL0     H 7410   5.989   3.014  -0.416 -0.7617  0.1293  0.4400
   54MOL0     H 7411   5.714   2.971  -0.572  1.4136 -1.6245 -0.8416
   54MOL0     H 7412   5.792   3.052  -0.434 -2.5735  0.7899  0.5568
   54MOL0     H 7413   5.687   2.919  -0.396  0.4845 -1.9666  0.2195
   54MOL0     H 7414   5.476   2.574  -0.286  1.8729  2.0232 -1.4935
   54MOL0     H 7415   5.238   2.526  -0.299 -1.6367 -0.2263  0.5772
   54MOL0     H 7416   5.080   2.415  -0.399  0.0767  0.6865  2.6404
   54MOL0     H 7417   4.965   2.546  -0.368 -2.9138 -1.6487 -0.0074
   54MOL0     H 7418   4.960   2.358  -0.619 -2.2129  1.0806 -3.3549
   54MOL0     H 7419   4.864   2.349  -0.479 -0.6211  0.5315  0.0387
   54MOL0     H 7420   4.878   2.583  -0.682  0.7831  5.3873  3.1103
   54MOL0     H 7421   4.815   2.608  -0.526  0.4760 -1.7684  1.3398
   54MOL0     H 7422   4.591   2.478  -0.599 -3.4448  0.1859 -2.7674
   54MOL0     H 7423   4.695   2.391  -0.718  0.3345  1.2181 -0.6270
   54MOL0     H 7424   4.627   2.689  -0.691  0.3297  0.3028 -1.8111
   54MOL0     H 7425   4.689   2.612  -0.847 -1.2074  0.2421 -1.3462
   54MOL0     H 7426   4.416   2.611  -0.730 -1.9073  0.6639 -1.8335
   54MOL0     H 7427   4.470   2.488  -0.852  1.0457  0.2431 -2.9211
   54MOL0     H 7428   4.496   2.783  -0.902  0.8523  0.1483  0.2092
   54MOL0     H 7429   4.358   2.698  -0.954 -0.4935 -1.0031 -1.8698
   54MOL0     H 7430   4.496   2.538  -1.084  0.0029 -0.3828  0.8718
   54MOL0     H 7431   4.637   2.607  -1.036 -1.3426 -1.5523  0.7128
   54MOL0     H 7432   5.234   2.708  -0.697 -0.5793  1.9004  0.9960
   54MOL0     H 7433   5.483   2.735  -0.676  0.9218  0.1648  1.4469
   54MOL0     H 7434   5.952   2.540  -0.553 -1.7004  1.7450 -2.5468
   54MOL0     H 7435   6.174   2.645  -0.489 -0.6429 -0.2842  0.2156
   54MOL0     H 7436   7.530   2.736   0.482  1.3671 -0.4879 -0.3654
   54MOL0     H 7437   7.750   2.779   0.397  1.7788  1.1987 -1.0709
   54MOL0     H 7438   8.166   3.050   0.561 -4.1219 -0.5392 -0.5208
   54MOL0     H 7439   8.388   3.119   0.478 -1.2308  0.8648  0.1505
   54MOL0     H 7440   8.645   3.105   0.127 -0.0535  0.4398  3.3022
   54MOL0     H 7441   8.504   3.013   0.067 -4.0960 -0.1616  0.1766
   54MOL0     H 7442   8.516   3.327   0.085  1.7246 -0.2818 -2.1031
   54MOL0     H 7443   8.374   3.234   0.052 -0.5416  2.2471  0.6757
   54MOL0     H 7444   8.512   3.322  -0.158 -3.6395  0.0385  0.9122
   54MOL0     H 7445   8.644   3.227  -0.104  0.5860  3.7132  1.2759
   54MOL0     H 7446   8.371   3.118  -0.183 -0.3466  1.1628 -2.7250
   54MOL0     H 7447   8.504   3.009  -0.180 -1.5373 -0.8414 -0.4089
   54MOL0     H 7448   8.528   3.217  -0.553 -0.0188  0.1602  0.5377
   54MOL0     H 7449   8.287   3.027   0.081 -0.2771  1.2012  0.5818
   54MOL0     H 7450   7.939   3.047   0.121  0.5808  0.0331 -1.3348
   54MOL0     H 7451   8.064   2.988   0.021 -0.1327  1.6351  1.4528
   54MOL0     H 7452   7.994   2.869   0.145  0.7528 -0.3566  3.2704
   55MOL0     O 7453   4.553   0.835  10.805  0.4767 -0.1051 -0.2631
   55MOL0     C 7454   4.653   0.896  10.826  0.0250 -1.1416 -0.0967
   55MOL0     O 7455   4.690   1.009  10.746  0.2540 -0.0068  0.2623
   55MOL0     C 7456   4.626   1.053  10.634 -0.1815  0.6092 -0.5104
   55MOL0     C 7457   4.596   0.968  10.524 -0.3857 -1.1945 -0.0747
   55MOL0     C 7458   4.526   1.016  10.409 -0.1460  0.4235 -0.2684
   55MOL0     C 7459   4.483   1.154  10.408  0.5622 -0.2634 -0.1621
   55MOL0     O 7460   4.417   1.196  10.296 -0.4453 -0.4059  0.4520
   55MOL0     C 7461   4.300   1.272  10.319  0.1528  0.0010  0.5722
   55MOL0     C 7462   4.221   1.279  10.189  0.4897 -0.0140  0.5402
   55MOL0     C 7463   4.216   1.147  10.107 -0.3146  1.0033  0.8446
   55MOL0     C 7464   4.096   1.166  10.006  0.3901 -0.2168  0.1604
   55MOL0     C 7465   4.084   1.046   9.914  0.5310 -0.2523 -0.9932
   55MOL0     C 7466   4.045   1.085   9.776 -0.1561 -0.0865  0.4980
   55MOL0     C 7467   4.006   0.964   9.679 -0.3763  0.9467 -0.0890
   55MOL0     C 7468   4.018   0.989   9.523 -0.4448 -0.5859  0.3180
   55MOL0     N 7469   4.008   0.862   9.442  0.8710  0.1626  0.1084
   55MOL0     C 7470   3.943   0.752   9.487  1.4069  0.0568  0.3233
   55MOL0     C 7471   3.920   0.675   9.377  0.7102  0.7822 -0.4105
   55MOL0     C 7472   3.846   0.549   9.379 -0.3331 -0.6453  1.3650
   55MOL0     C 7473   3.701   0.586   9.397  0.3403 -0.5723  0.2711
   55MOL0     C 7474   3.622   0.455   9.392  0.3328  0.5891  0.8830
   55MOL0     C 7475   3.581   0.417   9.244 -0.4650  0.0041  0.0400
   55MOL0     O 7476   3.504   0.519   9.178  0.2662  0.6121 -0.1490
   55MOL0     C 7477   3.448   0.490   9.059  0.8257  1.6211 -0.1816
   55MOL0     C 7478   3.448   0.367   8.992 -0.6917  0.8458  0.2614
   55MOL0     C 7479   3.360   0.334   8.884 -0.5278 -0.3739  0.5930
   55MOL0     C 7480   3.393   0.207   8.815 -0.4461  0.1884  0.2702
   55MOL0     C 7481   3.257   0.419   8.847 -0.5103  0.3911 -0.0326
   55MOL0     C 7482   3.171   0.395   8.734  0.7406  0.2000  0.4123
   55MOL0     O 7483   3.107   0.503   8.683 -0.2392 -0.6067 -0.5281
   55MOL0     C 7484   3.040   0.477   8.562  0.2762  0.2317 -0.3590
   55MOL0     C 7485   2.904   0.444   8.569 -0.6853  0.8079 -0.3421
   55MOL0     C 7486   2.834   0.398   8.458 -0.2062 -0.0859 -0.2635
   55MOL0     C 7487   2.904   0.361   8.337  0.8465 -0.5349 -0.0804
   55MOL0     O 7488   2.817   0.319   8.242 -0.2987 -0.4021 -0.4813
   55MOL0     C 7489   2.870   0.306   8.116 -0.1402 -0.5177  0.5566
   55MOL0     C 7490   2.913   0.161   8.091 -0.0042  2.0243 -0.0212
   55MOL0     C 7491   2.940   0.124   7.936 -0.6318  0.3633 -1.2719
   55MOL0     C 7492   3.090   0.165   7.911 -0.8175 -0.1276  0.0530
   55MOL0     C 7493   3.137   0.118   7.770 -0.1040 -0.6348 -0.3154
   55MOL0     C 7494   3.253   0.206   7.717  0.8316 -0.4480  0.5690
   55MOL0     C 7495   3.314   0.135   7.599 -0.3650 -0.2690  0.4195
   55MOL0     C 7496   3.449   0.189   7.558 -0.8763 -0.2518  0.5856
   55MOL0    Cl 7497   3.416   0.309   7.427 -0.2285  0.3571  0.0140
   55MOL0     C 7498   3.039   0.386   8.334 -0.4230  0.9231  1.1313
   55MOL0     C 7499   3.103   0.441   8.446 -1.1962 -0.2426  0.0341
   55MOL0     O 7500   3.147   0.277   8.705 -0.6727 -0.2219  0.4233
   55MOL0     C 7501   3.255   0.537   8.919 -0.5309 -0.2811 -0.6714
   55MOL0     C 7502   3.349   0.575   9.019 -0.0869 -0.1256 -0.4173
   55MOL0     N 7503   3.999   0.721   9.279  0.3617 -0.2984  0.6852
   55MOL0     N 7504   4.047   0.828   9.313  0.1610 -0.6724 -0.5285
   55MOL0     C 7505   4.525   1.235  10.509 -0.3612 -0.5168 -0.3729
   55MOL0     C 7506   4.588   1.187  10.625 -0.5208  0.6543 -0.8257
   55MOL0     C 7507   4.745   0.846  10.931  0.0731 -0.4738 -0.6300
   55MOL0     C 7508   4.872   0.913  10.935 -1.1857  0.4177 -0.3219
   55MOL0     C 7509   4.967   0.877  11.034 -0.4203 -0.3930  0.1172
   55MOL0     C 7510   4.942   0.783  11.133 -1.1269 -0.5297  0.2660
   55MOL0     O 7511   5.032   0.774  11.237  0.2314  0.6724 -0.0488
   55MOL0     C 7512   4.972   0.738  11.365 -1.0056  0.5675  0.4557
   55MOL0     C 7513   5.052   0.799  11.478  0.3721  0.1257  0.3963
   55MOL0     C 7514   5.206   0.758  11.467  0.1304 -0.1677  0.1929
   55MOL0     C 7515   5.291   0.858  11.397 -0.5391  0.1450 -0.2443
   55MOL0     C 7516   5.428   0.806  11.363 -0.3915 -0.6213 -1.0747
   55MOL0     C 7517   5.540   0.771  11.358  0.0349  0.3989  0.7923
   55MOL0     C 7518   4.814   0.726  11.137  0.3873 -0.3677  0.1178
   55MOL0     C 7519   4.716   0.749  11.040  0.4468  0.3528  0.1768
   55MOL0     C 7520   4.575   0.686  11.046 -0.8432 -0.2806  0.4686
   55MOL0     H 7521   4.624   0.864  10.529 -2.0488 -1.5947  3.8114
   55MOL0     H 7522   4.513   0.953  10.322 -1.9909  0.0413  0.2315
   55MOL0     H 7523   4.316   1.375  10.353 -1.4970 -0.1909  2.1032
   55MOL0     H 7524   4.234   1.234  10.398 -1.5020  1.9360  0.2081
   55MOL0     H 7525   4.122   1.315  10.217 -0.3353  0.1506 -2.2750
   55MOL0     H 7526   4.252   1.361  10.124  1.1071 -0.9757 -0.4044
   55MOL0     H 7527   4.311   1.134  10.053 -0.9099 -3.5821  0.5541
   55MOL0     H 7528   4.210   1.066  10.179 -0.4141 -0.7949 -1.1082
   55MOL0     H 7529   4.005   1.204  10.053 -1.3281 -0.7137 -2.5287
   55MOL0     H 7530   4.134   1.245   9.940  0.9930 -0.5912  0.0558
   55MOL0     H 7531   4.005   0.984   9.957  1.5665 -1.4091 -0.7002
   55MOL0     H 7532   4.180   0.993   9.910  0.7980  0.2958 -2.3194
   55MOL0     H 7533   3.962   1.156   9.778  0.1449  0.3465 -1.0948
   55MOL0     H 7534   4.131   1.130   9.725 -1.2253 -0.8705 -2.1556
   55MOL0     H 7535   3.904   0.932   9.705  0.8138 -1.9184  1.5113
   55MOL0     H 7536   4.064   0.882   9.721  1.9006  2.4342 -0.1625
   55MOL0     H 7537   3.926   1.045   9.507 -0.4761 -0.9104 -0.7318
   55MOL0     H 7538   4.099   1.057   9.493 -1.8090 -0.1220 -2.6980
   55MOL0     H 7539   3.896   0.737   9.584 -2.1066 -0.1156 -1.2536
   55MOL0     H 7540   3.866   0.479   9.460  0.4493 -1.3927  0.5440
   55MOL0     H 7541   3.870   0.501   9.283  1.8001  2.1550  0.3495
   55MOL0     H 7542   3.686   0.634   9.494  0.8908 -0.1634  0.1629
   55MOL0     H 7543   3.668   0.659   9.322 -1.9235 -2.2118 -0.4217
   55MOL0     H 7544   3.676   0.370   9.435  2.6484  2.1341  1.2036
   55MOL0     H 7545   3.529   0.480   9.446  0.0324  2.6273 -0.4608
   55MOL0     H 7546   3.665   0.388   9.180 -3.2044 -3.8311 -2.2620
   55MOL0     H 7547   3.518   0.328   9.257 -1.1802  0.6421  1.1328
   55MOL0     H 7548   3.529   0.297   9.011 -1.2909  0.0683  0.0124
   55MOL0     H 7549   3.398   0.218   8.707 -2.8041  0.5474  0.1468
   55MOL0     H 7550   3.321   0.128   8.841 -0.6982 -0.3635 -1.9628
   55MOL0     H 7551   3.492   0.169   8.842  0.1686  0.0044 -2.0765
   55MOL0     H 7552   2.846   0.437   8.661 -1.6147 -2.1730 -1.0335
   55MOL0     H 7553   2.727   0.393   8.474 -0.6662  0.9419 -2.5934
   55MOL0     H 7554   2.788   0.332   8.049  0.8998  1.4853 -0.0021
   55MOL0     H 7555   2.948   0.380   8.097 -1.7551  1.0000 -0.3931
   55MOL0     H 7556   2.994   0.127   8.155  0.1539  0.4719 -1.0047
   55MOL0     H 7557   2.831   0.098   8.125  1.4874 -0.8113 -1.3828
   55MOL0     H 7558   2.867   0.178   7.876 -1.8592  1.1034  0.7747
   55MOL0     H 7559   2.927   0.016   7.920 -0.6568 -0.0140  0.9044
   55MOL0     H 7560   3.143   0.122   7.997 -0.4074  0.4405  0.0934
   55MOL0     H 7561   3.091   0.275   7.915 -0.9918 -0.1030 -0.5429
   55MOL0     H 7562   3.161   0.011   7.776  0.0227 -0.6622 -1.1198
   55MOL0     H 7563   3.049   0.126   7.705 -0.0488  2.8507 -0.1205
   55MOL0     H 7564   3.324   0.217   7.799  1.3288 -2.6883  0.5008
   55MOL0     H 7565   3.197   0.296   7.690 -0.1396 -0.9820  0.7809
   55MOL0     H 7566   3.250   0.127   7.510 -0.2006 -0.4844  0.3189
   55MOL0     H 7567   3.336   0.032   7.628  1.5556 -0.3451 -1.1148
   55MOL0     H 7568   3.505   0.103   7.520 -2.0078 -1.3095  1.2245
   55MOL0     H 7569   3.510   0.231   7.638 -0.2830  1.3627 -0.6635
   55MOL0     H 7570   3.106   0.364   8.252  2.6304 -1.8537  4.0522
   55MOL0     H 7571   3.212   0.440   8.449 -1.1252  0.8989 -1.1915
   55MOL0     H 7572   3.188   0.620   8.894  1.0555  1.2345 -0.0912
   55MOL0     H 7573   3.334   0.668   9.072 -1.7964 -1.2680  1.2076
   55MOL0     H 7574   4.511   1.342  10.506 -4.2434 -0.7389  1.9308
   55MOL0     H 7575   4.601   1.256  10.708 -1.1357 -0.2565  0.0490
   55MOL0     H 7576   4.886   0.996  10.867 -1.9055 -0.6923 -1.9002
   55MOL0     H 7577   5.063   0.929  11.043 -0.7055  0.2547 -0.4625
   55MOL0     H 7578   4.866   0.764  11.376 -1.6057 -1.1296 -0.7638
   55MOL0     H 7579   4.964   0.629  11.370 -1.5936  0.4890 -1.4516
   55MOL0     H 7580   5.015   0.763  11.574 -1.6303 -1.8911 -1.0322
   55MOL0     H 7581   5.046   0.908  11.477 -0.8420  0.1277  2.7597
   55MOL0     H 7582   5.250   0.749  11.567  1.2302  0.5414 -0.2091
   55MOL0     H 7583   5.209   0.664  11.413  1.9274  0.2282 -0.4548
   55MOL0     H 7584   5.293   0.950  11.457 -0.3808 -0.9813  1.5394
   55MOL0     H 7585   5.256   0.873  11.295  1.6558 -2.8862 -1.5834
   55MOL0     H 7586   5.639   0.735  11.334  0.8271  2.7772  0.2143
   55MOL0     H 7587   4.800   0.635  11.194 -3.4286 -1.0808 -1.6466
   55MOL0     H 7588   4.570   0.627  11.138  0.6884  0.7136  1.2313
   55MOL0     H 7589   4.504   0.768  11.059 -0.3698  0.0028  1.3707
   55MOL0     H 7590   4.549   0.620  10.963 -1.7592  2.0184 -1.1729
   56MOL0     O 7591   0.985  10.692   1.064 -0.8208  0.6163  0.0296
   56MOL0     C 7592   0.937  10.784   1.112 -0.6134  0.0009  0.0641
   56MOL0     O 7593   1.004  10.866   1.194 -0.4791  0.0581  0.0368
   56MOL0     C 7594   1.126  10.816   1.238 -0.4674 -1.2742 -0.4612
   56MOL0     C 7595   1.149  10.724   1.340  0.3339 -0.1891 -0.0741
   56MOL0     C 7596   1.285  10.682   1.359  0.2048 -0.1397  0.2139
   56MOL0     C 7597   1.389  10.740   1.286 -0.3475  0.4211 -0.1853
   56MOL0     O 7598   1.519  10.698   1.297 -0.1143 -0.2617 -0.1001
   56MOL0     C 7599   1.571  10.714   1.432  0.0905  0.6431  0.9557
   56MOL0     C 7600   1.658  10.591   1.466  0.4616  0.3331  0.4790
   56MOL0     C 7601   1.672  10.566   1.617 -0.0724  0.1763 -0.4256
   56MOL0     C 7602   1.769  10.657   1.690 -1.1585  0.8815  0.3172
   56MOL0     C 7603   1.761  10.630   1.852  0.2485 -0.7538 -0.5508
   56MOL0     C 7604   1.853  10.738   1.925  0.7440 -0.5496  0.4933
   56MOL0     C 7605   1.797  10.746   2.070  0.4672  0.0182 -0.5722
   56MOL0     C 7606   1.913  10.798   2.154  0.6361 -0.9135  0.9832
   56MOL0     N 7607   1.928  10.946   2.134  0.3479  0.9683  0.2441
   56MOL0     C 7608   2.034  10.992   2.053 -0.0340 -0.0112 -0.4917
   56MOL0     C 7609   2.035  11.119   2.084 -0.3840 -0.7389  0.8777
   56MOL0     C 7610   2.128  11.221   2.019  0.4423  0.3093  0.4262
   56MOL0     C 7611   2.085  11.270   1.879 -0.1799  0.3173 -0.9618
   56MOL0     C 7612   1.959  11.358   1.878 -0.7139  0.0649  0.4819
   56MOL0     C 7613   1.991  11.508   1.903 -0.3973  0.2618 -0.1130
   56MOL0     O 7614   2.101  11.564   1.832 -0.4984  0.3813  0.7287
   56MOL0     C 7615   2.200  11.605   1.917 -0.5280 -0.9518 -0.2971
   56MOL0     C 7616   2.318  11.536   1.930 -0.0659  0.6800 -1.0061
   56MOL0     C 7617   2.422  11.579   2.016 -0.4601  0.4638 -0.1381
   56MOL0     C 7618   2.544  11.485   2.034  0.0488  0.2642 -0.8823
   56MOL0     C 7619   2.407  11.701   2.086  0.5253 -0.3450  0.3389
   56MOL0     C 7620   2.493  11.746   2.199 -0.0079  0.4765 -0.3654
   56MOL0     O 7621   2.426  11.797   2.312 -0.6231  0.6165 -0.0117
   56MOL0     C 7622   2.510  11.848   2.412  0.0514  0.1634 -0.3189
   56MOL0     C 7623   2.476  11.805   2.543  0.2642  0.1215  0.4469
   56MOL0     C 7624   2.532  11.871   2.656  0.6743 -0.3530  0.1766
   56MOL0     C 7625   2.619  11.972   2.644 -0.6891  0.1564  0.3709
   56MOL0     O 7626   2.667  12.031   2.755  0.5760 -0.4381 -0.0059
   56MOL0     C 7627   2.739  12.151   2.743  0.1149 -0.8593  0.1093
   56MOL0     C 7628   2.808  12.174   2.873 -0.1179  0.3908  0.0204
   56MOL0     C 7629   2.907  12.284   2.890  0.6281 -0.7984  0.3410
   56MOL0     C 7630   3.021  12.281   2.793  0.7537 -0.2046  0.3396
   56MOL0     C 7631   3.115  12.381   2.846 -0.4705 -0.5225 -0.1002
   56MOL0     C 7632   3.249  12.395   2.766  0.5662  0.2396 -0.1714
   56MOL0     C 7633   3.347  12.489   2.838  0.2657  0.2667 -0.0474
   56MOL0     C 7634   3.456  12.551   2.743 -0.1358 -0.3897 -0.6732
   56MOL0    Cl 7635   3.497  12.443   2.607 -0.4878 -0.2593 -0.1262
   56MOL0     C 7636   2.676  11.997   2.510  0.1581  0.6669  0.1934
   56MOL0     C 7637   2.613  11.944   2.398  0.3036 -0.1866  0.3851
   56MOL0     O 7638   2.612  11.710   2.195  0.1321 -0.2004 -0.0766
   56MOL0     C 7639   2.297  11.779   2.056  0.1405 -1.2931 -0.3923
   56MOL0     C 7640   2.200  11.730   1.978  0.3967 -0.1884 -0.2152
   56MOL0     N 7641   1.941  11.150   2.176 -0.6475 -1.0660  1.1572
   56MOL0     N 7642   1.881  11.042   2.206  0.6638 -0.2399 -0.5030
   56MOL0     C 7643   1.361  10.843   1.190 -0.7202  0.1886 -0.6677
   56MOL0     C 7644   1.231  10.886   1.161  0.2489 -0.1351  0.4249
   56MOL0     C 7645   0.786  10.799   1.096  0.7680  0.4725  0.6092
   56MOL0     C 7646   0.724  10.902   1.170  0.7193 -0.2415 -1.3938
   56MOL0     C 7647   0.588  10.927   1.154  0.4638 -0.2439  0.6124
   56MOL0     C 7648   0.501  10.856   1.064 -0.0941 -0.7916 -0.9491
   56MOL0     O 7649   0.371  10.905   1.056  0.7625  0.4153 -0.6183
   56MOL0     C 7650   0.305  10.894   0.931 -0.6439 -0.5028  0.4634
   56MOL0     C 7651   0.205  10.780   0.918  0.5330 -0.4755  0.8150
   56MOL0     C 7652   0.082  10.794   1.013  0.3090 -0.4882 -0.6095
   56MOL0     C 7653  -0.009  10.919   0.975 -0.0919 -0.2376 -0.0975
   56MOL0     C 7654  -0.122  10.943   1.071 -0.0443  0.2845  0.5668
   56MOL0     C 7655  -0.222  10.961   1.141  1.2071 -0.2596  0.5873
   56MOL0     C 7656   0.559  10.756   0.992  0.5191  0.1314  0.7170
   56MOL0     C 7657   0.700  10.718   1.009 -0.0510  0.5274  0.7491
   56MOL0     C 7658   0.747  10.601   0.921 -0.4565 -0.8312 -0.2117
   56MOL0     H 7659   1.067  10.671   1.387  1.6622 -2.2705  0.0439
   56MOL0     H 7660   1.305  10.616   1.443  0.9332 -2.1737 -1.4766
   56MOL0     H 7661   1.496  10.731   1.510 -1.2960  1.1880 -0.4522
   56MOL0     H 7662   1.626  10.808   1.432 -1.4500  1.6158 -0.8286
   56MOL0     H 7663   1.605  10.506   1.421  2.1388 -1.1313  1.1347
   56MOL0     H 7664   1.753  10.584   1.412 -1.5655 -1.4168 -3.2886
   56MOL0     H 7665   1.580  10.581   1.674  0.7387  1.3415  0.6359
   56MOL0     H 7666   1.703  10.462   1.632 -1.3211 -0.4516 -1.9065
   56MOL0     H 7667   1.872  10.647   1.654 -0.0252  3.5377  2.3952
   56MOL0     H 7668   1.738  10.760   1.671 -0.3843  1.1112  0.2494
   56MOL0     H 7669   1.792  10.530   1.883  1.5224 -0.2273 -0.0713
   56MOL0     H 7670   1.656  10.626   1.882 -0.0916  2.0579 -1.0646
   56MOL0     H 7671   1.957  10.704   1.935  1.8809  1.5423 -2.8099
   56MOL0     H 7672   1.835  10.832   1.873  0.4538 -0.0378  1.4911
   56MOL0     H 7673   1.759  10.654   2.116 -2.6790  1.5231  0.1189
   56MOL0     H 7674   1.708  10.809   2.076  0.8927  0.5986 -0.2916
   56MOL0     H 7675   1.887  10.781   2.259 -1.4085 -0.9268  0.5073
   56MOL0     H 7676   2.012  10.752   2.142  1.9830  2.2212 -1.1712
   56MOL0     H 7677   2.111  10.939   1.997  0.8600  0.8303 -0.0805
   56MOL0     H 7678   2.228  11.178   2.008 -0.7726 -2.9345  0.9997
   56MOL0     H 7679   2.155  11.305   2.084  0.2735 -1.4721  2.9175
   56MOL0     H 7680   2.174  11.320   1.839  0.3005  0.1514 -0.1288
   56MOL0     H 7681   2.058  11.178   1.826 -0.4002  0.4884 -1.1438
   56MOL0     H 7682   1.909  11.356   1.781 -0.6721 -0.9561  0.4704
   56MOL0     H 7683   1.883  11.322   1.948  0.1870  0.5725  1.7769
   56MOL0     H 7684   1.899  11.560   1.875 -0.6509 -0.0022  0.2051
   56MOL0     H 7685   1.998  11.517   2.012 -0.0422  2.2417 -0.2749
   56MOL0     H 7686   2.331  11.444   1.874 -1.9116 -0.6454  0.6134
   56MOL0     H 7687   2.539  11.395   1.971 -1.2977 -0.1948 -0.1605
   56MOL0     H 7688   2.555  11.456   2.139  0.8839  0.5932 -0.8683
   56MOL0     H 7689   2.636  11.540   2.015 -0.8319  2.1394  0.0438
   56MOL0     H 7690   2.404  11.725   2.557  0.6956 -0.3313  0.0901
   56MOL0     H 7691   2.480  11.865   2.751 -0.6851 -1.9521 -0.6077
   56MOL0     H 7692   2.816  12.148   2.665 -1.1107  2.0049 -1.3949
   56MOL0     H 7693   2.678  12.239   2.719  0.0813 -0.4463  1.6387
   56MOL0     H 7694   2.732  12.191   2.950  1.0002  2.1825  0.7921
   56MOL0     H 7695   2.856  12.080   2.904 -1.5669 -0.8081 -1.2263
   56MOL0     H 7696   2.949  12.291   2.991 -2.0438  2.3652  1.4065
   56MOL0     H 7697   2.845  12.372   2.876  2.5541  0.7699  1.1000
   56MOL0     H 7698   2.992  12.295   2.688 -0.4085 -0.3794  0.6325
   56MOL0     H 7699   3.067  12.183   2.808 -1.4765 -1.2021  1.1286
   56MOL0     H 7700   3.055  12.472   2.835 -0.7160 -0.6791 -0.0707
   56MOL0     H 7701   3.136  12.366   2.952 -0.9471  0.0859  0.0886
   56MOL0     H 7702   3.223  12.425   2.664 -0.6504  2.2366  0.6642
   56MOL0     H 7703   3.299  12.298   2.761  0.9386  0.4127  0.1712
   56MOL0     H 7704   3.387  12.433   2.923  1.1323  1.0095  0.0472
   56MOL0     H 7705   3.297  12.574   2.885 -0.7197 -0.8447  1.0050
   56MOL0     H 7706   3.543  12.579   2.802 -1.5583 -0.1257  1.3962
   56MOL0     H 7707   3.421  12.650   2.710  1.8275  1.8062  3.1595
   56MOL0     H 7708   2.762  12.055   2.478  1.0213  0.1285  1.4651
   56MOL0     H 7709   2.648  11.970   2.298 -0.6472  0.6020  0.2375
   56MOL0     H 7710   2.287  11.877   2.102  2.9514 -1.5817  1.0619
   56MOL0     H 7711   2.114  11.791   1.953  0.4061 -0.0795  0.0230
   56MOL0     H 7712   1.445  10.870   1.127  1.4378 -1.6742  1.2322
   56MOL0     H 7713   1.209  10.960   1.085 -3.4491 -3.4872 -2.1605
   56MOL0     H 7714   0.784  10.959   1.239 -0.8536 -0.4078  0.1792
   56MOL0     H 7715   0.549  11.014   1.206  0.6027  2.0059 -2.7290
   56MOL0     H 7716   0.253  10.984   0.901 -2.0387 -1.4988 -0.2096
   56MOL0     H 7717   0.388  10.883   0.861  0.2575  1.0957  1.2174
   56MOL0     H 7718   0.251  10.681   0.928 -1.4576 -1.3248  2.4746
   56MOL0     H 7719   0.163  10.782   0.816  0.1588 -4.2480  0.7519
   56MOL0     H 7720   0.025  10.700   1.013  1.8400 -1.6390  3.3976
   56MOL0     H 7721   0.124  10.807   1.113 -3.4966 -0.7586  1.2000
   56MOL0     H 7722  -0.056  10.899   0.878  0.5288  0.6970 -0.6097
   56MOL0     H 7723   0.037  11.017   0.989  1.5556 -1.1591  1.3296
   56MOL0     H 7724  -0.304  10.986   1.206  0.1998 -3.0836  0.5443
   56MOL0     H 7725   0.497  10.693   0.930  1.6165 -1.6185  1.3175
   56MOL0     H 7726   0.842  10.630   0.876 -0.3838  0.6112  0.7996
   56MOL0     H 7727   0.774  10.520   0.990  1.9396 -2.1763 -2.5362
   56MOL0     H 7728   0.683  10.573   0.837  2.7439  2.0855 -4.0318
   57MOL0     O 7729   9.600   4.324   8.971  0.1106 -0.0380  0.6300
   57MOL0     C 7730   9.578   4.239   9.062 -0.6249 -0.6414 -0.1728
   57MOL0     O 7731   9.679   4.154   9.100 -0.1574  0.0240 -0.1556
   57MOL0     C 7732   9.809   4.156   9.057 -0.4728 -0.6276 -0.5113
   57MOL0     C 7733   9.882   4.276   9.059 -0.0239 -0.2703 -0.1361
   57MOL0     C 7734  10.007   4.291   8.983 -0.1071  0.5012 -0.2310
   57MOL0     C 7735  10.062   4.180   8.913 -0.1734  0.8860  0.3232
   57MOL0     O 7736  10.188   4.191   8.857  0.0524 -0.1247  0.0373
   57MOL0     C 7737  10.264   4.308   8.886  0.0417 -0.5412 -0.1433
   57MOL0     C 7738  10.416   4.294   8.864 -0.8001  0.2577  0.5086
   57MOL0     C 7739  10.475   4.192   8.964 -0.8055  0.2595  0.5635
   57MOL0     C 7740  10.614   4.159   8.914 -0.9616 -0.1349 -0.0553
   57MOL0     C 7741  10.692   4.049   8.993 -0.6122 -0.2147 -0.2336
   57MOL0     C 7742  10.640   3.904   8.972  0.0053 -0.5060  0.1920
   57MOL0     C 7743  10.749   3.801   8.991  0.8792  0.0607  0.2320
   57MOL0     C 7744  10.686   3.663   8.960 -0.2736 -0.2456  0.3657
   57MOL0     N 7745  10.598   3.620   9.070  0.6359  0.4521  0.2502
   57MOL0     C 7746  10.630   3.547   9.184 -0.5519  0.1131  0.4437
   57MOL0     C 7747  10.514   3.528   9.244 -0.4468  0.3701  0.8892
   57MOL0     C 7748  10.504   3.460   9.381  1.0536  0.3067  0.3400
   57MOL0     C 7749  10.382   3.372   9.399 -0.5015  0.1124  0.8704
   57MOL0     C 7750  10.249   3.442   9.432 -0.6016  0.0337 -0.0455
   57MOL0     C 7751  10.132   3.350   9.471 -0.6120 -0.1854  0.2932
   57MOL0     O 7752  10.012   3.425   9.494  0.4575  1.2912  0.1389
   57MOL0     C 7753   9.936   3.469   9.388  0.7939  0.2074  0.1367
   57MOL0     C 7754   9.876   3.593   9.389  0.0415 -0.1365  0.1612
   57MOL0     C 7755   9.771   3.630   9.302  0.1062 -0.5547 -0.2814
   57MOL0     C 7756   9.720   3.775   9.304  0.0876  0.1675  0.2717
   57MOL0     C 7757   9.735   3.544   9.193 -0.4247  0.2596 -0.2849
   57MOL0     C 7758   9.617   3.566   9.102  0.3964  0.2007 -0.5665
   57MOL0     O 7759   9.605   3.488   8.992 -0.1796 -0.8054  0.4710
   57MOL0     C 7760   9.516   3.513   8.899 -0.2745  0.0613  0.4664
   57MOL0     C 7761   9.555   3.588   8.786 -0.3077  0.0461 -0.7898
   57MOL0     C 7762   9.461   3.635   8.696  0.0002 -0.5470 -1.0365
   57MOL0     C 7763   9.327   3.625   8.727  0.2051  0.7405  0.3482
   57MOL0     O 7764   9.241   3.695   8.649  0.2486  0.3606 -0.5093
   57MOL0     C 7765   9.112   3.733   8.690 -0.4433  0.4755 -0.3288
   57MOL0     C 7766   9.022   3.741   8.568  0.4229 -0.1458  0.5478
   57MOL0     C 7767   8.865   3.754   8.592 -0.2401 -0.0866 -0.1973
   57MOL0     C 7768   8.778   3.780   8.466 -1.0373 -0.3306  0.0943
   57MOL0     C 7769   8.633   3.767   8.497  0.3138  0.7432 -0.7214
   57MOL0     C 7770   8.542   3.812   8.385  0.6795  0.1730  0.5957
   57MOL0     C 7771   8.389   3.810   8.401 -0.3158  0.4265 -0.7790
   57MOL0     C 7772   8.318   3.845   8.267 -0.7793  0.1124 -0.7807
   57MOL0    Cl 7773   8.146   3.842   8.274 -0.1566  0.1356  0.1228
   57MOL0     C 7774   9.290   3.548   8.837 -0.2816  1.5837  0.0600
   57MOL0     C 7775   9.381   3.480   8.919  0.2100 -0.3747 -0.3410
   57MOL0     O 7776   9.537   3.649   9.138  0.3584  0.0183  0.8852
   57MOL0     C 7777   9.806   3.418   9.178  0.3279  0.2029 -1.3213
   57MOL0     C 7778   9.897   3.383   9.279  0.0990  0.2150 -0.4366
   57MOL0     N 7779  10.411   3.584   9.174  0.6777  0.5502 -0.6997
   57MOL0     N 7780  10.461   3.636   9.073 -0.3263  0.5868  0.3418
   57MOL0     C 7781   9.987   4.059   8.923  0.3220  0.7494  0.2598
   57MOL0     C 7782   9.872   4.052   8.993  1.1147 -0.8347  0.6437
   57MOL0     C 7783   9.441   4.231   9.125 -0.1885 -0.5051  0.1921
   57MOL0     C 7784   9.348   4.328   9.085 -0.0580 -0.1543  0.4568
   57MOL0     C 7785   9.219   4.329   9.141 -0.2657  0.3124 -0.1709
   57MOL0     C 7786   9.185   4.242   9.246 -1.2558 -0.3939 -0.2100
   57MOL0     O 7787   9.052   4.241   9.271  0.4442  0.2151  0.8151
   57MOL0     C 7788   8.998   4.167   9.381 -0.1177 -0.9221 -0.1766
   57MOL0     C 7789   8.921   4.036   9.338 -0.1666  0.4454 -0.4522
   57MOL0     C 7790   8.777   4.061   9.290 -0.4445 -1.1125 -0.6161
   57MOL0     C 7791   8.712   3.929   9.247  0.4207  0.4538  0.2204
   57MOL0     C 7792   8.662   3.855   9.374 -0.2763 -0.2880  0.3643
   57MOL0     C 7793   8.630   3.823   9.482  0.1423 -0.4258 -0.2012
   57MOL0     C 7794   9.287   4.159   9.296  0.2384 -0.5020  0.0246
   57MOL0     C 7795   9.410   4.148   9.228  0.0473 -0.9552 -0.2689
   57MOL0     C 7796   9.501   4.048   9.289 -0.1655 -0.5592  0.4496
   57MOL0     H 7797   9.827   4.355   9.109  1.3159  0.1076  0.7642
   57MOL0     H 7798  10.057   4.387   8.970 -0.2565  0.3888 -1.9034
   57MOL0     H 7799  10.244   4.343   8.988 -4.6013  0.6473 -1.2362
   57MOL0     H 7800  10.229   4.388   8.821  0.7971  1.0980  1.3763
   57MOL0     H 7801  10.427   4.250   8.765 -1.6552 -2.9066  1.7013
   57MOL0     H 7802  10.465   4.392   8.869 -1.5944  0.6159  4.2118
   57MOL0     H 7803  10.482   4.239   9.062  2.5857  1.1618  0.0103
   57MOL0     H 7804  10.410   4.104   8.976 -1.2391  0.5467  0.3498
   57MOL0     H 7805  10.609   4.110   8.817  1.4941 -1.0800  0.2071
   57MOL0     H 7806  10.666   4.254   8.898 -0.5026 -0.2956  0.4141
   57MOL0     H 7807  10.686   4.073   9.099 -2.5161  1.5003 -0.6683
   57MOL0     H 7808  10.795   4.061   8.957  0.0286 -1.5269  1.0391
   57MOL0     H 7809  10.562   3.899   9.049  0.5547  3.4247  1.1821
   57MOL0     H 7810  10.594   3.900   8.873 -1.0184  4.3481  0.2508
   57MOL0     H 7811  10.795   3.794   9.090 -2.9833 -0.3018  2.1741
   57MOL0     H 7812  10.826   3.814   8.914  0.8553  0.1587  0.2253
   57MOL0     H 7813  10.623   3.659   8.871  0.5837 -1.6449 -0.1985
   57MOL0     H 7814  10.769   3.596   8.938 -0.5410  0.1970 -2.2392
   57MOL0     H 7815  10.724   3.511   9.226 -1.1962 -1.7460  0.3668
   57MOL0     H 7816  10.501   3.538   9.457 -1.1702 -0.3816  1.0517
   57MOL0     H 7817  10.599   3.411   9.403  0.3105 -1.3569  0.0094
   57MOL0     H 7818  10.366   3.322   9.302 -0.0169  1.5720  0.0179
   57MOL0     H 7819  10.411   3.311   9.485 -0.0698  1.8846  2.0195
   57MOL0     H 7820  10.273   3.508   9.516 -0.4539  0.4038 -0.3813
   57MOL0     H 7821  10.220   3.505   9.348 -1.1952 -1.8732 -1.3486
   57MOL0     H 7822  10.121   3.271   9.396  0.7600 -0.0086 -0.1430
   57MOL0     H 7823  10.157   3.307   9.568 -1.3033  0.0471  0.5806
   57MOL0     H 7824   9.902   3.668   9.464  1.0397 -1.1139  0.8110
   57MOL0     H 7825   9.779   3.851   9.355 -1.7971  3.4280 -2.0555
   57MOL0     H 7826   9.628   3.767   9.364  0.2532  3.1177  1.0530
   57MOL0     H 7827   9.693   3.809   9.204  1.4108  3.0720  0.8155
   57MOL0     H 7828   9.652   3.637   8.781 -0.9827  1.4788 -0.4474
   57MOL0     H 7829   9.502   3.703   8.623  0.9162  0.2342  0.1588
   57MOL0     H 7830   9.073   3.669   8.769 -1.6999  0.7530 -0.7043
   57MOL0     H 7831   9.119   3.838   8.720  0.2054  0.3180  0.0948
   57MOL0     H 7832   9.059   3.823   8.505 -0.7734  1.8209  2.2867
   57MOL0     H 7833   9.019   3.650   8.507 -3.6442  0.0866  0.1277
   57MOL0     H 7834   8.855   3.841   8.658 -0.2223 -0.0088 -0.2976
   57MOL0     H 7835   8.832   3.666   8.648  1.8060 -1.2505 -0.6876
   57MOL0     H 7836   8.803   3.703   8.392  4.0198  0.2026  0.8523
   57MOL0     H 7837   8.807   3.874   8.418 -3.2043 -1.2411 -3.3693
   57MOL0     H 7838   8.607   3.667   8.533  0.8535 -0.3146 -3.0518
   57MOL0     H 7839   8.609   3.845   8.569  2.1779  3.3528 -2.7039
   57MOL0     H 7840   8.559   3.750   8.297 -0.9819  1.5853 -0.8148
   57MOL0     H 7841   8.579   3.914   8.372 -0.3298  0.6941  1.6244
   57MOL0     H 7842   8.364   3.894   8.467 -0.2460  0.1675 -0.4182
   57MOL0     H 7843   8.351   3.712   8.431 -1.7882  0.6868 -1.6773
   57MOL0     H 7844   8.352   3.763   8.204  0.1420 -0.4581  0.4254
   57MOL0     H 7845   8.354   3.946   8.240 -0.0010  0.3747  1.0619
   57MOL0     H 7846   9.191   3.524   8.875  0.3978  1.9890  2.2350
   57MOL0     H 7847   9.360   3.416   9.004  3.9538 -1.0151  0.2585
   57MOL0     H 7848   9.803   3.344   9.099  3.1961 -0.3724 -1.0040
   57MOL0     H 7849   9.944   3.285   9.278 -1.5510 -0.6121 -0.3335
   57MOL0     H 7850  10.013   3.970   8.866  4.8239  0.2954  2.5399
   57MOL0     H 7851   9.821   3.957   8.990  1.1410 -0.8682  1.1366
   57MOL0     H 7852   9.376   4.400   9.009 -2.1188  1.0144  0.7083
   57MOL0     H 7853   9.137   4.387   9.099 -1.8178 -0.8210  1.1960
   57MOL0     H 7854   9.069   4.117   9.448 -2.0668 -3.1644  0.3582
   57MOL0     H 7855   8.930   4.236   9.431  1.2568  1.2419 -1.1657
   57MOL0     H 7856   8.913   3.974   9.427 -1.4783  2.3966  0.8722
   57MOL0     H 7857   8.973   3.974   9.265 -0.0719  0.0628 -0.0597
   57MOL0     H 7858   8.723   4.115   9.368  1.4148 -0.7405  0.4759
   57MOL0     H 7859   8.777   4.132   9.207 -2.5714 -2.7751 -2.1375
   57MOL0     H 7860   8.769   3.864   9.179  1.8481  0.9977  0.8689
   57MOL0     H 7861   8.619   3.954   9.196  1.8686  1.4663 -2.0766
   57MOL0     H 7862   8.591   3.788   9.575  1.2654 -1.7467 -0.2151
   57MOL0     H 7863   9.265   4.108   9.390 -1.9355 -1.1658 -0.7792
   57MOL0     H 7864   9.552   3.987   9.214 -1.0978 -1.4839  0.5459
   57MOL0     H 7865   9.566   4.106   9.355 -0.1972 -0.8652  0.7517
   57MOL0     H 7866   9.449   3.976   9.353 -0.0733  0.5727  1.8438
   58MOL0     O 7867  10.116   8.486  10.109  0.1713 -1.0296  0.0872
   58MOL0     C 7868  10.221   8.420  10.127 -0.9705  0.9158 -0.0424
   58MOL0     O 7869  10.306   8.430  10.225  0.2132 -0.6244 -0.1598
   58MOL0     C 7870  10.259   8.495  10.344  0.2245  0.6979  0.7251
   58MOL0     C 7871  10.138   8.477  10.406 -0.5623  0.5323 -0.0320
   58MOL0     C 7872  10.117   8.520  10.537 -1.2670  0.2793 -0.1670
   58MOL0     C 7873  10.217   8.597  10.597 -0.3048 -1.1781 -0.4565
   58MOL0     O 7874  10.190   8.630  10.723 -0.2952  0.4884 -0.2542
   58MOL0     C 7875  10.249   8.751  10.765  0.3282  0.2100 -0.1409
   58MOL0     C 7876  10.174   8.793  10.900  0.8008  0.5269 -0.0866
   58MOL0     C 7877  10.179   8.694  11.014  0.4339 -0.6716  0.4481
   58MOL0     C 7878  10.317   8.657  11.060  0.0996 -0.0777  0.4707
   58MOL0     C 7879  10.332   8.580  11.191  0.0243 -0.0303  0.1067
   58MOL0     C 7880  10.254   8.637  11.307  0.2730  0.0277  0.3767
   58MOL0     C 7881  10.293   8.776  11.360  0.0470 -0.8391  0.4584
   58MOL0     C 7882  10.172   8.875  11.373 -0.4071 -0.9261  0.0881
   58MOL0     N 7883  10.066   8.826  11.456 -0.6579 -0.2695 -0.0089
   58MOL0     C 7884   9.936   8.807  11.413  0.7513 -0.5055 -0.1067
   58MOL0     C 7885   9.857   8.800  11.519 -0.6949 -1.1545 -0.3859
   58MOL0     C 7886   9.707   8.819  11.522  0.2147 -0.6125 -0.2596
   58MOL0     C 7887   9.629   8.685  11.569  0.1820 -0.1883  0.3567
   58MOL0     C 7888   9.656   8.564  11.471 -0.6510  0.1125 -0.7638
   58MOL0     C 7889   9.578   8.435  11.524 -0.6654  0.1015 -0.3123
   58MOL0     O 7890   9.449   8.458  11.475  0.4011  0.2563  0.4174
   58MOL0     C 7891   9.351   8.363  11.506  1.3530 -0.0990  0.5113
   58MOL0     C 7892   9.368   8.229  11.542 -0.3936  1.9042 -0.1335
   58MOL0     C 7893   9.264   8.148  11.574  0.1076  0.2118 -0.1604
   58MOL0     C 7894   9.296   8.009  11.623 -0.2141  0.4232 -0.1256
   58MOL0     C 7895   9.131   8.199  11.561  0.2096 -0.2761  0.8081
   58MOL0     C 7896   9.017   8.114  11.595  0.6662  0.0308  0.1109
   58MOL0     O 7897   8.897   8.178  11.585 -0.2827  0.3619 -0.2598
   58MOL0     C 7898   8.783   8.128  11.642  0.1906  0.0124  0.3540
   58MOL0     C 7899   8.659   8.181  11.595 -0.8411  0.0313  0.0907
   58MOL0     C 7900   8.544   8.139  11.654  0.1766  0.2664  0.7727
   58MOL0     C 7901   8.536   8.056  11.766  0.6448  0.1200  0.2341
   58MOL0     O 7902   8.409   8.017  11.807  0.1203 -0.5973  0.8976
   58MOL0     C 7903   8.400   7.985  11.939 -0.8835 -0.4573 -0.4509
   58MOL0     C 7904   8.258   7.991  11.995  0.3137 -0.8915  0.5750
   58MOL0     C 7905   8.187   8.116  11.937  0.6387 -0.6922 -0.8036
   58MOL0     C 7906   8.092   8.177  12.040  1.1436  0.1395 -0.3161
   58MOL0     C 7907   8.001   8.292  11.986  0.0186  1.5812  0.0800
   58MOL0     C 7908   7.888   8.313  12.091  0.3618 -0.6600 -0.8693
   58MOL0     C 7909   7.791   8.424  12.056 -0.3193  0.2030 -0.4386
   58MOL0     C 7910   7.671   8.425  12.149 -0.2289 -0.3173 -0.7522
   58MOL0    Cl 7911   7.710   8.504  12.296  0.2866 -0.1351  0.0253
   58MOL0     C 7912   8.656   8.007  11.818  0.8144  0.9229  0.9647
   58MOL0     C 7913   8.779   8.042  11.756  0.2432  0.2299 -0.2869
   58MOL0     O 7914   9.028   7.991  11.611 -0.0782  0.0676 -0.0583
   58MOL0     C 7915   9.108   8.328  11.510  0.1395 -0.6015  0.0274
   58MOL0     C 7916   9.216   8.411  11.492 -0.7501 -0.4617  0.0324
   58MOL0     N 7917   9.936   8.793  11.634 -0.9319 -0.5924  1.3589
   58MOL0     N 7918  10.058   8.823  11.594 -0.4491  0.6479  0.1496
   58MOL0     C 7919  10.340   8.629  10.522  0.6922  0.0166 -0.2968
   58MOL0     C 7920  10.359   8.570  10.398 -0.0376 -0.7935 -0.0548
   58MOL0     C 7921  10.265   8.329  10.013 -0.4256  0.4340  1.0894
   58MOL0     C 7922  10.402   8.295   9.983 -0.9074  0.0608 -0.5062
   58MOL0     C 7923  10.437   8.225   9.869  0.2402 -0.4331 -0.0265
   58MOL0     C 7924  10.347   8.191   9.773 -0.0720  0.2532  0.2086
   58MOL0     O 7925  10.406   8.134   9.661 -0.2063  0.1991  0.1016
   58MOL0     C 7926  10.321   8.127   9.543 -0.5424 -0.1153 -0.4842
   58MOL0     C 7927  10.397   8.084   9.416  0.2994  0.0819 -0.1542
   58MOL0     C 7928  10.304   8.095   9.291  0.0713  0.4055 -0.0105
   58MOL0     C 7929  10.371   8.031   9.169  0.2474  0.0365 -0.5075
   58MOL0     C 7930  10.313   8.079   9.045  0.1077 -0.7791  1.1481
   58MOL0     C 7931  10.263   8.108   8.937 -0.7948 -0.3281 -0.0014
   58MOL0     C 7932  10.215   8.203   9.807  0.0529 -1.1435  0.4138
   58MOL0     C 7933  10.166   8.271   9.923  0.4763  0.2082  0.4276
   58MOL0     C 7934  10.009   8.278   9.938  0.3827  0.9090 -1.1749
   58MOL0     H 7935  10.059   8.411  10.372 -0.2708 -0.4899  1.2172
   58MOL0     H 7936  10.030   8.482  10.589  0.8674  0.7446  4.2863
   58MOL0     H 7937  10.229   8.829  10.691 -0.6887 -0.0971 -0.2002
   58MOL0     H 7938  10.355   8.750  10.794  0.4239  3.0122 -0.0604
   58MOL0     H 7939  10.226   8.887  10.918  0.3543  1.0669 -1.5132
   58MOL0     H 7940  10.065   8.798  10.893  0.5917 -0.6632  1.6368
   58MOL0     H 7941  10.122   8.742  11.093  0.8407  1.9826 -0.7695
   58MOL0     H 7942  10.129   8.603  10.981 -2.6220  0.6457  1.1216
   58MOL0     H 7943  10.371   8.592  10.991  1.2546 -0.0103  1.2836
   58MOL0     H 7944  10.375   8.750  11.063 -1.1402  0.8586 -1.8194
   58MOL0     H 7945  10.435   8.556  11.220  0.5531 -1.9852 -2.8680
   58MOL0     H 7946  10.281   8.485  11.170 -0.0851 -0.6127  2.6898
   58MOL0     H 7947  10.150   8.638  11.273  0.6386 -0.9145 -0.8662
   58MOL0     H 7948  10.266   8.559  11.383 -1.3147 -0.8288 -0.1907
   58MOL0     H 7949  10.372   8.825  11.302 -0.5901 -0.2505  0.0715
   58MOL0     H 7950  10.343   8.754  11.454 -2.4429 -1.1510  1.7855
   58MOL0     H 7951  10.196   8.976  11.407  0.6322 -0.4990 -1.7805
   58MOL0     H 7952  10.138   8.879  11.269 -0.8000  0.5896  0.2533
   58MOL0     H 7953   9.914   8.821  11.307  1.6215  1.5043 -0.0813
   58MOL0     H 7954   9.675   8.843  11.420  2.0165 -2.1128 -1.2312
   58MOL0     H 7955   9.682   8.906  11.583  2.6912  0.8992 -1.2622
   58MOL0     H 7956   9.643   8.672  11.677  3.2574 -2.8221 -0.1921
   58MOL0     H 7957   9.523   8.712  11.565  0.8446  3.3105  2.6358
   58MOL0     H 7958   9.636   8.588  11.366  4.1779 -0.6336 -2.0824
   58MOL0     H 7959   9.759   8.530  11.462 -0.1377  1.0654  0.9759
   58MOL0     H 7960   9.627   8.344  11.486 -1.2357  0.1501 -1.1929
   58MOL0     H 7961   9.583   8.440  11.633 -1.2170 -0.1199 -0.2722
   58MOL0     H 7962   9.472   8.197  11.546 -0.6333  1.1756  0.8742
   58MOL0     H 7963   9.232   7.985  11.708 -2.2361 -0.3774 -1.7804
   58MOL0     H 7964   9.401   7.996  11.654  0.1943  0.8487 -1.2797
   58MOL0     H 7965   9.276   7.933  11.547  1.2912 -0.0872 -0.0545
   58MOL0     H 7966   8.660   8.257  11.518  1.0317  0.2182  0.2495
   58MOL0     H 7967   8.450   8.176  11.613  0.0171 -1.8391 -0.9064
   58MOL0     H 7968   8.421   7.878  11.947 -2.1474 -0.6107  2.0072
   58MOL0     H 7969   8.458   8.050  12.006 -0.4944 -1.1059 -0.1547
   58MOL0     H 7970   8.205   7.908  11.948 -0.4801  0.4162 -0.9069
   58MOL0     H 7971   8.253   7.982  12.104 -4.0953 -1.0502  0.5319
   58MOL0     H 7972   8.108   8.085  11.868 -1.0217 -1.8286  1.4763
   58MOL0     H 7973   8.260   8.186  11.895  0.8829  0.4700  1.4091
   58MOL0     H 7974   8.152   8.218  12.122  1.1071 -1.5483  0.6071
   58MOL0     H 7975   8.028   8.106  12.093  2.7955 -0.5740  0.8313
   58MOL0     H 7976   8.069   8.375  11.965  0.2986  1.3886  0.2223
   58MOL0     H 7977   7.961   8.261  11.888  2.2684 -0.3666 -0.3005
   58MOL0     H 7978   7.937   8.345  12.183 -1.9214 -1.0885  0.6008
   58MOL0     H 7979   7.836   8.219  12.113 -1.1633  0.2992 -0.2049
   58MOL0     H 7980   7.769   8.421  11.949  1.3363  0.1360 -0.8061
   58MOL0     H 7981   7.842   8.519  12.073 -1.4640  0.8670 -0.6693
   58MOL0     H 7982   7.658   8.321  12.179 -0.7101  0.5666  2.4908
   58MOL0     H 7983   7.579   8.462  12.103 -0.8576 -0.5417  0.2946
   58MOL0     H 7984   8.665   7.938  11.901  0.3176  0.2126  0.4398
   58MOL0     H 7985   8.873   8.005  11.795  0.3074  1.1732  0.4721
   58MOL0     H 7986   9.005   8.360  11.503  0.0180 -0.8135  0.7623
   58MOL0     H 7987   9.203   8.512  11.454  1.6137 -0.0631  0.1219
   58MOL0     H 7988  10.426   8.682  10.562 -0.9559  0.1188  3.6160
   58MOL0     H 7989  10.452   8.590  10.345 -1.3831  0.7670 -1.9684
   58MOL0     H 7990  10.484   8.320  10.050 -0.3971 -3.0611  0.1687
   58MOL0     H 7991  10.539   8.199   9.843  0.3319 -0.8994  0.7718
   58MOL0     H 7992  10.245   8.050   9.555  1.6212 -2.2025  0.6785
   58MOL0     H 7993  10.267   8.218   9.517  0.9463  0.8187 -0.4284
   58MOL0     H 7994  10.434   7.983   9.436 -0.9654 -1.5102 -4.6650
   58MOL0     H 7995  10.484   8.145   9.389 -0.7771  1.1521 -1.3680
   58MOL0     H 7996  10.216   8.035   9.314 -0.6546  1.7372  0.8637
   58MOL0     H 7997  10.270   8.198   9.271  0.8345  0.2566 -2.4237
   58MOL0     H 7998  10.366   7.922   9.181 -1.5679  0.3178  2.2850
   58MOL0     H 7999  10.475   8.064   9.162 -0.5598  2.6598 -1.0974
   58MOL0     H 8000  10.228   8.152   8.847  1.6036 -1.1629 -1.4374
   58MOL0     H 8001  10.144   8.151   9.743  0.0829 -1.3552  0.5496
   58MOL0     H 8002   9.967   8.201   9.872  2.1479 -2.2872  1.1333
   58MOL0     H 8003   9.974   8.249  10.038  0.1802  0.6474 -1.3215
   58MOL0     H 8004   9.977   8.375   9.900 -2.0396  1.0906  1.0671
   59MOL0     O 8005   6.071   1.243   8.018  0.0491 -0.2795 -0.5409
   59MOL0     C 8006   6.005   1.331   7.959 -0.0150  0.1833  0.2067
   59MOL0     O 8007   6.024   1.372   7.829  0.9014  0.1926  0.4009
   59MOL0     C 8008   6.141   1.349   7.770 -0.1725 -0.4578  0.6249
   59MOL0     C 8009   6.244   1.445   7.772 -0.3398  0.2007  0.6394
   59MOL0     C 8010   6.361   1.424   7.697  0.1269  0.0233  0.3786
   59MOL0     C 8011   6.375   1.300   7.634 -0.5613  0.0878  0.1571
   59MOL0     O 8012   6.481   1.269   7.549 -0.1958 -0.1173  0.2360
   59MOL0     C 8013   6.610   1.342   7.561  0.6289 -0.8872  0.4166
   59MOL0     C 8014   6.669   1.327   7.708 -0.3549  0.0796 -0.3250
   59MOL0     C 8015   6.738   1.463   7.748 -0.5013 -0.1501 -0.1214
   59MOL0     C 8016   6.843   1.522   7.644 -0.2122  0.5135 -0.2898
   59MOL0     C 8017   6.934   1.618   7.723  0.1904  0.3810  0.1576
   59MOL0     C 8018   7.059   1.651   7.644 -0.3933  0.0945 -0.3114
   59MOL0     C 8019   7.160   1.533   7.653 -1.0281  0.5713 -0.1870
   59MOL0     C 8020   7.303   1.572   7.600  0.3007 -0.1950 -0.4372
   59MOL0     N 8021   7.383   1.455   7.574 -0.1145 -0.1115  0.2603
   59MOL0     C 8022   7.400   1.347   7.656 -0.1666  0.2902 -0.8015
   59MOL0     C 8023   7.460   1.254   7.573  0.4176 -0.2398  0.8320
   59MOL0     C 8024   7.469   1.114   7.616  0.1864  0.7669  0.2824
   59MOL0     C 8025   7.560   1.027   7.526 -1.1822 -0.8179 -0.5444
   59MOL0     C 8026   7.713   1.064   7.550 -0.1790  1.0510 -0.7251
   59MOL0     C 8027   7.819   0.983   7.474  0.3764 -0.0316 -0.3548
   59MOL0     O 8028   7.808   1.007   7.340 -0.3161 -0.0335  0.1893
   59MOL0     C 8029   7.890   0.938   7.251 -0.0239  0.1742 -0.5125
   59MOL0     C 8030   7.921   0.982   7.126  0.1312 -0.4150  0.0361
   59MOL0     C 8031   8.009   0.923   7.038  0.3438 -0.2139  0.4380
   59MOL0     C 8032   8.015   0.994   6.907  0.0877  0.0242  0.2218
   59MOL0     C 8033   8.064   0.796   7.074  0.0241 -0.0095 -0.0338
   59MOL0     C 8034   8.152   0.710   6.979  0.2096 -0.2786  0.5426
   59MOL0     O 8035   8.162   0.756   6.853  0.1074 -0.5378  0.5230
   59MOL0     C 8036   8.234   0.694   6.750  0.1325  0.3802  0.1669
   59MOL0     C 8037   8.335   0.592   6.761 -0.1127 -0.7619 -0.1551
   59MOL0     C 8038   8.406   0.551   6.650  0.9931 -0.0623  0.3081
   59MOL0     C 8039   8.393   0.605   6.521 -0.5878  0.2355  1.4029
   59MOL0     O 8040   8.481   0.580   6.413  0.1108 -0.1117 -0.2111
   59MOL0     C 8041   8.429   0.526   6.290 -0.3271  0.1620 -0.3420
   59MOL0     C 8042   8.538   0.449   6.232 -0.0876  0.8357 -0.4383
   59MOL0     C 8043   8.677   0.516   6.237 -0.2080 -0.5738 -1.0053
   59MOL0     C 8044   8.697   0.634   6.137 -0.3466 -0.5629 -0.9723
   59MOL0     C 8045   8.848   0.647   6.092  0.0061  0.8159  0.1737
   59MOL0     C 8046   8.851   0.679   5.943 -0.4945  0.5694  0.2322
   59MOL0     C 8047   8.988   0.661   5.883 -0.3347 -0.4537  0.9115
   59MOL0     C 8048   8.981   0.679   5.741 -0.3384 -0.3823 -0.2487
   59MOL0    Cl 8049   8.955   0.851   5.723  0.3982 -0.3949  0.3465
   59MOL0     C 8050   8.289   0.694   6.510  0.1012 -0.3888 -0.0705
   59MOL0     C 8051   8.213   0.737   6.618 -0.2301  0.2409 -0.1002
   59MOL0     O 8052   8.211   0.612   7.019 -0.3192 -0.0043 -0.4588
   59MOL0     C 8053   8.039   0.746   7.203  0.1871  0.4118  0.4608
   59MOL0     C 8054   7.955   0.818   7.295  0.1430  0.3677  1.1124
   59MOL0     N 8055   7.475   1.312   7.453  0.3927  0.6059 -1.0879
   59MOL0     N 8056   7.438   1.433   7.455 -0.4201 -0.5891  0.0936
   59MOL0     C 8057   6.279   1.201   7.640 -0.0543 -0.2417 -0.9798
   59MOL0     C 8058   6.156   1.224   7.706 -0.0007 -0.1350 -0.1021
   59MOL0     C 8059   5.882   1.389   8.031  0.6631  0.5840  0.3128
   59MOL0     C 8060   5.828   1.506   7.975  0.1721 -0.2438 -0.3758
   59MOL0     C 8061   5.717   1.570   8.030 -0.7811  0.3188  0.0860
   59MOL0     C 8062   5.654   1.515   8.144  0.5279  0.1850 -0.8026
   59MOL0     O 8063   5.562   1.588   8.212  0.2284  0.5439  0.6606
   59MOL0     C 8064   5.564   1.585   8.352  0.7062 -0.1874 -0.3171
   59MOL0     C 8065   5.475   1.690   8.419  0.3387  0.1277  0.2212
   59MOL0     C 8066   5.331   1.672   8.372 -0.4461  0.3556  0.0149
   59MOL0     C 8067   5.265   1.534   8.415 -0.3266  0.7786  0.4395
   59MOL0     C 8068   5.292   1.484   8.552  0.0478 -1.3493  0.9225
   59MOL0     C 8069   5.318   1.448   8.663  0.5430 -0.5075 -0.3291
   59MOL0     C 8070   5.700   1.401   8.194  0.0631 -0.1310  0.4355
   59MOL0     C 8071   5.816   1.335   8.146 -0.1405  0.1042  0.3666
   59MOL0     C 8072   5.855   1.209   8.221 -0.4821 -0.0410  0.4799
   59MOL0     H 8073   6.231   1.535   7.832  0.4518 -0.5725  2.0162
   59MOL0     H 8074   6.440   1.496   7.680  0.3361 -0.6199 -1.6471
   59MOL0     H 8075   6.597   1.449   7.544  4.4310 -0.3742 -0.1037
   59MOL0     H 8076   6.674   1.305   7.481  0.5584  1.2082 -0.6883
   59MOL0     H 8077   6.590   1.301   7.779 -0.8369  1.6200 -0.2629
   59MOL0     H 8078   6.753   1.259   7.726  0.7921  2.4862  5.5259
   59MOL0     H 8079   6.653   1.531   7.754 -2.0362 -2.0132  0.0082
   59MOL0     H 8080   6.771   1.443   7.850 -0.5752 -0.7527 -0.2099
   59MOL0     H 8081   6.901   1.442   7.597 -1.7094  1.7214 -4.6335
   59MOL0     H 8082   6.798   1.569   7.556 -0.0261 -2.0111 -1.8287
   59MOL0     H 8083   6.961   1.569   7.817 -0.0009 -1.2792 -0.6295
   59MOL0     H 8084   6.859   1.695   7.742 -0.2348  0.6528 -2.3269
   59MOL0     H 8085   7.031   1.665   7.539 -1.2493  1.8909  0.1001
   59MOL0     H 8086   7.110   1.743   7.676 -1.3031  1.6115 -2.8895
   59MOL0     H 8087   7.123   1.449   7.594 -0.0956  0.8135 -1.1415
   59MOL0     H 8088   7.156   1.519   7.762 -0.3401  3.0643  0.2156
   59MOL0     H 8089   7.289   1.628   7.507 -1.9225  2.1975  1.1972
   59MOL0     H 8090   7.358   1.629   7.675  0.3151 -1.4691  0.5531
   59MOL0     H 8091   7.370   1.338   7.759 -1.7729  2.2941 -1.0443
   59MOL0     H 8092   7.375   1.058   7.615 -0.1575  1.2814 -2.6332
   59MOL0     H 8093   7.514   1.118   7.716  1.9510  0.2899 -0.4631
   59MOL0     H 8094   7.553   0.920   7.547 -1.0545 -0.1307  3.9731
   59MOL0     H 8095   7.535   1.054   7.423 -0.0234  1.8273 -0.2200
   59MOL0     H 8096   7.735   1.163   7.510  1.2762  0.5836 -1.1230
   59MOL0     H 8097   7.743   1.055   7.655 -0.6443 -2.8230 -0.7545
   59MOL0     H 8098   7.914   1.010   7.522 -1.0862  1.6240  1.7910
   59MOL0     H 8099   7.798   0.877   7.490 -0.0647 -0.1131 -1.3974
   59MOL0     H 8100   7.859   1.069   7.107  0.8148  0.1000  0.1009
   59MOL0     H 8101   7.954   0.928   6.845  1.0893 -1.1145  0.4216
   59MOL0     H 8102   8.115   1.004   6.865  0.2895  1.3225  0.9451
   59MOL0     H 8103   7.967   1.092   6.907  0.8729  0.4508 -2.0178
   59MOL0     H 8104   8.361   0.541   6.853 -0.4001 -0.1827  0.2560
   59MOL0     H 8105   8.486   0.479   6.658 -1.5126 -2.9046  2.3906
   59MOL0     H 8106   8.339   0.465   6.306  1.0571 -1.6691  0.8334
   59MOL0     H 8107   8.412   0.616   6.229  1.1552  0.6872 -0.0047
   59MOL0     H 8108   8.548   0.352   6.281 -2.5532  0.9277  0.4080
   59MOL0     H 8109   8.507   0.424   6.130 -0.9526 -5.3470  0.9570
   59MOL0     H 8110   8.748   0.436   6.212  2.2080  0.3780  2.1538
   59MOL0     H 8111   8.696   0.544   6.341 -0.4661  1.9410 -1.5796
   59MOL0     H 8112   8.675   0.725   6.193  1.0049  1.1596 -3.0620
   59MOL0     H 8113   8.628   0.634   6.052 -0.2392  0.0099 -1.0624
   59MOL0     H 8114   8.894   0.733   6.142 -1.7043  1.6349  0.4529
   59MOL0     H 8115   8.906   0.557   6.111  0.4294  1.1338  0.4078
   59MOL0     H 8116   8.806   0.775   5.917 -0.6274  1.1102  2.3373
   59MOL0     H 8117   8.794   0.591   5.910  2.7223 -0.9469 -1.8544
   59MOL0     H 8118   9.021   0.560   5.911  3.2300 -0.8514 -3.5073
   59MOL0     H 8119   9.055   0.737   5.923  0.2057  0.7123 -1.9581
   59MOL0     H 8120   8.896   0.626   5.696  0.6396 -1.5912 -0.7201
   59MOL0     H 8121   9.075   0.645   5.697  1.0994  3.6667 -0.7685
   59MOL0     H 8122   8.269   0.732   6.411 -0.0081  0.0908  0.1318
   59MOL0     H 8123   8.139   0.813   6.595  0.9531  1.4330 -0.0872
   59MOL0     H 8124   8.100   0.666   7.244 -1.5485 -0.9749  0.4635
   59MOL0     H 8125   7.959   0.774   7.394 -3.0964 -0.0304  1.1669
   59MOL0     H 8126   6.291   1.110   7.582  0.4041 -0.3377 -0.7405
   59MOL0     H 8127   6.081   1.146   7.704  0.2467 -0.3736 -0.2382
   59MOL0     H 8128   5.893   1.557   7.905 -0.8062  1.8072  0.1286
   59MOL0     H 8129   5.664   1.654   7.986 -1.7646 -0.3490 -0.0469
   59MOL0     H 8130   5.531   1.490   8.393  0.5631  0.4978  1.2064
   59MOL0     H 8131   5.669   1.593   8.381  1.4859 -2.4565 -2.2235
   59MOL0     H 8132   5.511   1.789   8.388  0.7293  0.0878  0.5363
   59MOL0     H 8133   5.477   1.690   8.529  3.0547  0.2989  0.2419
   59MOL0     H 8134   5.272   1.760   8.401 -2.5039 -1.0173  0.2387
   59MOL0     H 8135   5.331   1.675   8.263 -1.7892  2.0755  0.0163
   59MOL0     H 8136   5.301   1.458   8.345 -2.3986  0.1928 -0.0402
   59MOL0     H 8137   5.158   1.545   8.399 -0.2727  2.0394  0.7809
   59MOL0     H 8138   5.314   1.414   8.765 -0.3219  0.3705 -0.0570
   59MOL0     H 8139   5.642   1.339   8.261 -1.6535 -1.7165 -2.3222
   59MOL0     H 8140   5.864   1.127   8.149  1.2802 -2.3853  3.1335
   59MOL0     H 8141   5.956   1.215   8.262  0.4450 -2.0333 -1.3027
   59MOL0     H 8142   5.789   1.186   8.305 -0.9537 -1.4824 -0.2560
   60MOL0     O 8143   3.021  10.613   3.619  0.6865 -0.2518  0.0542
   60MOL0     C 8144   2.981  10.551   3.718 -0.5818 -0.5088  0.7226
   60MOL0     O 8145   3.052  10.474   3.809 -0.0199  0.2030  0.0593
   60MOL0     C 8146   3.186  10.475   3.807  0.7610  0.1551 -1.1832
   60MOL0     C 8147   3.271  10.565   3.743 -0.9420  0.3226  0.7220
   60MOL0     C 8148   3.410  10.548   3.743  0.1425  0.4238  0.1858
   60MOL0     C 8149   3.464  10.444   3.813 -0.2641  0.1597  0.3367
   60MOL0     O 8150   3.602  10.424   3.819 -0.1167  0.5754 -0.1008
   60MOL0     C 8151   3.677  10.509   3.736  0.0869 -0.1488  0.1951
   60MOL0     C 8152   3.823  10.475   3.723  0.0672  0.4145 -0.2284
   60MOL0     C 8153   3.856  10.335   3.678  0.5561 -0.2395  0.3566
   60MOL0     C 8154   4.002  10.341   3.626 -0.0943  1.1066  0.1478
   60MOL0     C 8155   4.051  10.217   3.546 -0.0267 -0.0739 -0.1962
   60MOL0     C 8156   4.003  10.210   3.398  0.0921  0.1163  0.8086
   60MOL0     C 8157   4.041  10.072   3.352  0.0651 -0.4153  1.3033
   60MOL0     C 8158   4.191  10.071   3.316 -0.2893 -0.5707 -0.0100
   60MOL0     N 8159   4.242   9.934   3.324 -0.0333  0.2676  0.3048
   60MOL0     C 8160   4.302   9.872   3.437  0.5076 -0.0895 -0.1616
   60MOL0     C 8161   4.338   9.753   3.383 -0.7251  0.2984  0.1379
   60MOL0     C 8162   4.415   9.636   3.443  0.8145 -0.7739  0.3846
   60MOL0     C 8163   4.570   9.645   3.406  0.4319 -0.0780 -0.0520
   60MOL0     C 8164   4.589   9.535   3.301 -0.1435 -0.1349  1.0602
   60MOL0     C 8165   4.735   9.516   3.266 -0.1257  0.1694 -0.1718
   60MOL0     O 8166   4.803   9.630   3.221 -0.1969 -0.1104 -0.1507
   60MOL0     C 8167   4.939   9.625   3.217  0.0164  0.3391 -0.8678
   60MOL0     C 8168   5.003   9.747   3.199  0.0605 -0.0242 -0.7068
   60MOL0     C 8169   5.138   9.763   3.208 -0.9788  0.7358 -0.0701
   60MOL0     C 8170   5.194   9.897   3.178  0.3052  0.5747  0.5024
   60MOL0     C 8171   5.218   9.651   3.246  0.0601 -0.2912  1.3553
   60MOL0     C 8172   5.362   9.662   3.255  0.9357 -0.4980 -0.2346
   60MOL0     O 8173   5.430   9.736   3.158 -0.1361  0.3167  0.1942
   60MOL0     C 8174   5.563   9.774   3.169 -0.2458  0.7213 -0.7049
   60MOL0     C 8175   5.611   9.851   3.057  0.0748  0.9303 -0.7243
   60MOL0     C 8176   5.750   9.876   3.039  0.1108 -0.0746 -0.2483
   60MOL0     C 8177   5.836   9.852   3.147  0.0070  0.3630 -1.2313
   60MOL0     O 8178   5.961   9.900   3.118 -0.1776 -0.1374 -0.4801
   60MOL0     C 8179   6.028   9.942   3.240  0.0033 -0.0911  0.6580
   60MOL0     C 8180   6.135  10.048   3.213  0.3297 -0.1052  0.1334
   60MOL0     C 8181   6.211  10.094   3.335  0.2315 -0.4943 -0.1180
   60MOL0     C 8182   6.186  10.229   3.403  0.3574  0.0008  0.5800
   60MOL0     C 8183   6.274  10.238   3.524  0.0719 -0.5258 -0.1540
   60MOL0     C 8184   6.268  10.375   3.598 -0.1158 -1.1841  0.1167
   60MOL0     C 8185   6.357  10.385   3.724  0.7721  0.1918 -0.3096
   60MOL0     C 8186   6.310  10.501   3.814 -0.1963  0.2983  0.3051
   60MOL0    Cl 8187   6.138  10.494   3.883 -0.3787  0.0969 -0.0009
   60MOL0     C 8188   5.791   9.791   3.267  0.6375  0.2831  0.6632
   60MOL0     C 8189   5.656   9.747   3.276  0.0561 -0.6632 -0.7758
   60MOL0     O 8190   5.405   9.606   3.353  0.1188 -0.0186 -0.1816
   60MOL0     C 8191   5.163   9.530   3.246  0.2421  0.7872 -0.7418
   60MOL0     C 8192   5.023   9.510   3.231  0.5063 -0.4523 -0.2695
   60MOL0     N 8193   4.303   9.747   3.252  0.6952  0.4767  0.0015
   60MOL0     N 8194   4.226   9.850   3.217  0.9922  0.4298 -0.0024
   60MOL0     C 8195   3.392  10.354   3.876  0.1555  0.2131 -0.3053
   60MOL0     C 8196   3.250  10.377   3.878 -0.8604 -0.5017 -0.4588
   60MOL0     C 8197   2.840  10.583   3.756 -0.6985 -1.0838 -0.2812
   60MOL0     C 8198   2.805  10.563   3.893 -0.2679 -0.3654  0.8258
   60MOL0     C 8199   2.671  10.587   3.943  0.5801 -0.4043 -0.0404
   60MOL0     C 8200   2.573  10.634   3.849  1.3308 -0.3136 -0.0382
   60MOL0     O 8201   2.448  10.665   3.906 -0.4344  0.3141 -0.1150
   60MOL0     C 8202   2.341  10.704   3.825  1.1022 -0.0654  0.1130
   60MOL0     C 8203   2.255  10.596   3.751  0.8584  0.7212 -0.2896
   60MOL0     C 8204   2.262  10.464   3.812 -0.4741  0.8266 -0.1959
   60MOL0     C 8205   2.190  10.453   3.943  0.3243 -1.8807  0.7718
   60MOL0     C 8206   2.215  10.330   4.009 -0.6943  0.0713 -0.3914
   60MOL0     C 8207   2.254  10.225   4.053 -0.5807  0.1029  0.6015
   60MOL0     C 8208   2.602  10.641   3.713  0.3039 -0.1395 -0.3031
   60MOL0     C 8209   2.733  10.617   3.665  0.2456 -0.7147 -0.1494
   60MOL0     C 8210   2.746  10.616   3.507 -0.1649 -0.6330 -0.6776
   60MOL0     H 8211   3.240  10.651   3.684  1.4555  2.9605  2.9923
   60MOL0     H 8212   3.469  10.619   3.684 -0.5247 -0.2213 -1.3052
   60MOL0     H 8213   3.674  10.611   3.773  0.9440  0.4493 -1.2551
   60MOL0     H 8214   3.635  10.497   3.635 -1.3193 -0.5284  0.8073
   60MOL0     H 8215   3.861  10.553   3.656  1.6109 -1.2840 -1.4305
   60MOL0     H 8216   3.879  10.486   3.816  1.1435  0.1322 -0.8226
   60MOL0     H 8217   3.852  10.253   3.750 -0.7149 -0.9375 -0.4656
   60MOL0     H 8218   3.784  10.313   3.599 -0.0200 -0.1343  0.8424
   60MOL0     H 8219   4.001  10.422   3.553 -2.5044 -0.4963 -1.7442
   60MOL0     H 8220   4.071  10.362   3.708  2.9473  1.0921 -2.2483
   60MOL0     H 8221   4.021  10.130   3.605 -0.3274  1.0155  1.3566
   60MOL0     H 8222   4.160  10.220   3.550 -0.0620  1.8087  0.8710
   60MOL0     H 8223   3.894  10.217   3.391  0.1944  3.8868  1.0848
   60MOL0     H 8224   4.043  10.291   3.337 -1.0979 -0.8015 -1.3109
   60MOL0     H 8225   3.995  10.040   3.258  1.0214  0.0566  0.6467
   60MOL0     H 8226   4.022  10.002   3.433  0.9878  1.9892  3.7511
   60MOL0     H 8227   4.194  10.110   3.214  0.5084 -3.4328 -1.1718
   60MOL0     H 8228   4.259  10.127   3.380  1.6590 -1.8734 -0.8532
   60MOL0     H 8229   4.303   9.923   3.533 -0.5526 -0.8221  0.2575
   60MOL0     H 8230   4.365   9.548   3.402 -2.0488  1.3185 -0.9294
   60MOL0     H 8231   4.398   9.630   3.551 -1.9832 -2.6295 -0.0512
   60MOL0     H 8232   4.594   9.745   3.371  0.4784  0.1742  0.6789
   60MOL0     H 8233   4.629   9.620   3.495 -0.5754  0.2615  0.7356
   60MOL0     H 8234   4.564   9.444   3.356  0.6613 -1.2617 -0.3658
   60MOL0     H 8235   4.533   9.545   3.208 -0.6105 -1.2723  1.2036
   60MOL0     H 8236   4.781   9.476   3.357 -1.3218 -4.4398 -1.2860
   60MOL0     H 8237   4.732   9.435   3.192 -2.3568 -0.0222  0.0394
   60MOL0     H 8238   4.940   9.836   3.193  1.0101  0.6247 -1.4123
   60MOL0     H 8239   5.267   9.891   3.097 -0.7837  0.5750 -0.4977
   60MOL0     H 8240   5.237   9.944   3.267 -0.7739  1.5421  0.5335
   60MOL0     H 8241   5.111   9.962   3.149 -1.9762 -1.4359  2.0891
   60MOL0     H 8242   5.554   9.857   2.965  2.0077 -0.9066 -2.1587
   60MOL0     H 8243   5.789   9.922   2.948  1.8745  0.1038  0.5546
   60MOL0     H 8244   5.966   9.994   3.313 -0.2638  1.9422 -0.9233
   60MOL0     H 8245   6.072   9.852   3.284 -0.7399  0.1924  2.0384
   60MOL0     H 8246   6.209  10.010   3.142  0.0020 -0.1365 -0.1896
   60MOL0     H 8247   6.089  10.138   3.171 -0.0722 -0.3342  0.0792
   60MOL0     H 8248   6.317  10.090   3.308  0.1830  2.5014 -1.1459
   60MOL0     H 8249   6.194  10.014   3.407 -0.5195 -2.0978 -1.9996
   60MOL0     H 8250   6.080  10.252   3.417  0.1618 -0.5603  0.0445
   60MOL0     H 8251   6.218  10.299   3.325  0.5327  0.0543  0.7003
   60MOL0     H 8252   6.236  10.155   3.583  1.0863 -1.5747 -0.9424
   60MOL0     H 8253   6.375  10.207   3.496 -0.6725 -1.6094 -1.7550
   60MOL0     H 8254   6.160  10.379   3.615 -0.4138 -0.1508 -1.7879
   60MOL0     H 8255   6.295  10.455   3.528  0.6921 -1.7207 -0.2091
   60MOL0     H 8256   6.460  10.400   3.690  1.1522 -4.6690 -2.1450
   60MOL0     H 8257   6.365  10.292   3.781 -0.4459  0.2246 -0.0563
   60MOL0     H 8258   6.317  10.596   3.759 -0.4533 -0.5164 -1.1682
   60MOL0     H 8259   6.386  10.510   3.893 -1.1494  1.6492  1.1228
   60MOL0     H 8260   5.852   9.778   3.356  0.8664 -1.9067  0.2565
   60MOL0     H 8261   5.634   9.683   3.360 -0.4505 -2.0335 -1.8995
   60MOL0     H 8262   5.231   9.449   3.271 -0.5731  0.0761 -0.8032
   60MOL0     H 8263   4.980   9.413   3.252 -1.6500  0.7041  0.9440
   60MOL0     H 8264   3.440  10.273   3.929 -0.4596 -1.3298 -1.9695
   60MOL0     H 8265   3.197  10.296   3.925 -1.3174 -1.7800 -3.0109
   60MOL0     H 8266   2.880  10.532   3.965 -1.2933 -0.0261  2.0669
   60MOL0     H 8267   2.645  10.566   4.046  0.2086 -1.1929 -0.2878
   60MOL0     H 8268   2.279  10.758   3.897  1.6272  0.8893 -0.1279
   60MOL0     H 8269   2.371  10.782   3.755  0.6313  1.7529  1.8390
   60MOL0     H 8270   2.277  10.581   3.645  1.2132 -1.8663  0.0787
   60MOL0     H 8271   2.153  10.635   3.761  2.0410  3.8944  0.4217
   60MOL0     H 8272   2.217  10.391   3.745 -0.0412  0.6432 -0.2881
   60MOL0     H 8273   2.363  10.427   3.830 -1.4607 -3.1106 -1.6765
   60MOL0     H 8274   2.085  10.460   3.914  1.1275 -0.2410 -2.2207
   60MOL0     H 8275   2.214  10.537   4.010 -0.6592  0.2818 -1.4252
   60MOL0     H 8276   2.290  10.134   4.097 -0.2831 -0.3371 -0.5144
   60MOL0     H 8277   2.525  10.674   3.644  0.9550 -0.1166 -1.0310
   60MOL0     H 8278   2.814  10.693   3.470 -0.4211 -0.3243 -0.5048
   60MOL0     H 8279   2.778  10.515   3.477 -0.0861 -0.3033 -1.7362
   60MOL0     H 8280   2.646  10.630   3.465 -0.3059 -1.7872 -0.7811
   61MOL0     O 8281   9.277   9.888   7.037  0.8698 -0.2228 -0.1486
   61MOL0     C 8282   9.248   9.865   7.155 -0.1405 -0.5664  0.4369
   61MOL0     O 8283   9.342   9.860   7.262  0.4214  0.2453  0.2908
   61MOL0     C 8284   9.479   9.877   7.232  0.5850 -0.2067 -0.0668
   61MOL0     C 8285   9.559   9.961   7.308 -0.2164  0.4156  0.1526
   61MOL0     C 8286   9.696   9.953   7.308 -0.1776 -0.2879  0.4359
   61MOL0     C 8287   9.760   9.870   7.220 -0.1456 -0.3796 -0.3026
   61MOL0     O 8288   9.898   9.870   7.210 -0.4148 -0.6865  0.4219
   61MOL0     C 8289   9.972   9.941   7.312  0.4189 -0.3616 -0.1051
   61MOL0     C 8290  10.125   9.930   7.286 -1.1584 -0.1632  0.9801
   61MOL0     C 8291  10.156  10.010   7.152 -0.2460 -0.6774 -0.4173
   61MOL0     C 8292  10.171  10.162   7.171 -0.2047 -0.0806  0.2810
   61MOL0     C 8293  10.154  10.241   7.039  0.4566  0.0237  0.0147
   61MOL0     C 8294  10.227  10.196   6.911  0.5943  0.5152  1.1459
   61MOL0     C 8295  10.184  10.288   6.794  0.0344  0.0060 -1.1128
   61MOL0     C 8296  10.280  10.265   6.668 -0.6998  0.4014  0.2670
   61MOL0     N 8297  10.244  10.370   6.576  1.1792  0.3828 -0.3294
   61MOL0     C 8298  10.121  10.388   6.509 -0.3947  0.5776  1.5262
   61MOL0     C 8299  10.147  10.485   6.413 -0.2261  0.0615  0.2985
   61MOL0     C 8300  10.052  10.534   6.307 -0.2346  0.4164  0.1800
   61MOL0     C 8301  10.097  10.673   6.271 -0.1315  0.2324  0.7489
   61MOL0     C 8302  10.044  10.716   6.132  0.7034 -0.2368  0.0016
   61MOL0     C 8303  10.093  10.858   6.097  1.1640  0.0969  0.9477
   61MOL0     O 8304  10.056  10.955   6.197  0.3207 -0.2821  0.2990
   61MOL0     C 8305  10.081  11.086   6.166  0.2963 -0.8019  0.3789
   61MOL0     C 8306  10.020  11.176   6.253 -0.5776 -0.1398  0.8414
   61MOL0     C 8307  10.029  11.314   6.225 -0.5623  0.1460 -0.3034
   61MOL0     C 8308   9.969  11.407   6.327  0.5653  0.4639  0.8105
   61MOL0     C 8309  10.099  11.368   6.115 -0.2876  0.9968 -0.8362
   61MOL0     C 8310  10.142  11.510   6.099  0.3832  0.5295 -0.8052
   61MOL0     O 8311  10.272  11.529   6.055 -0.7949  0.0789  0.1400
   61MOL0     C 8312  10.322  11.653   6.043  0.7417  0.4955 -0.3522
   61MOL0     C 8313  10.326  11.703   5.919 -0.4909  0.2501 -0.4017
   61MOL0     C 8314  10.384  11.834   5.903  0.3819  0.0642  0.2117
   61MOL0     C 8315  10.436  11.913   6.010  0.4800 -0.0651 -0.4043
   61MOL0     O 8316  10.491  12.043   6.016 -0.3900  0.5188  0.1913
   61MOL0     C 8317  10.524  12.099   5.888  0.1425  1.0261  0.3398
   61MOL0     C 8318  10.401  12.170   5.836  0.6466  0.3122  0.2066
   61MOL0     C 8319  10.437  12.184   5.685 -0.0416  0.5420  0.0682
   61MOL0     C 8320  10.330  12.251   5.608  0.2813 -0.4833  0.0120
   61MOL0     C 8321  10.357  12.247   5.463 -0.4058  0.3814  0.3743
   61MOL0     C 8322  10.256  12.342   5.395  0.1204 -1.1010 -0.6748
   61MOL0     C 8323  10.257  12.321   5.240 -0.0557 -1.4153  0.9263
   61MOL0     C 8324  10.212  12.453   5.174 -0.1316  1.1478  0.2425
   61MOL0    Cl 8325  10.339  12.592   5.185 -0.0180  0.8827 -0.5457
   61MOL0     C 8326  10.418  11.862   6.136  0.2875 -0.3958  0.1457
   61MOL0     C 8327  10.371  11.729   6.153  0.2157 -0.4401 -0.3229
   61MOL0     O 8328  10.063  11.601   6.130 -0.0758  1.2788 -0.0104
   61MOL0     C 8329  10.154  11.272   6.032  0.7814  0.8201  0.7497
   61MOL0     C 8330  10.150  11.135   6.050 -0.5025  0.2562 -0.5903
   61MOL0     N 8331  10.277  10.510   6.416  0.2410  0.3101 -0.3732
   61MOL0     N 8332  10.333  10.439   6.509  0.4677 -0.2148 -0.6351
   61MOL0     C 8333   9.685   9.791   7.134  1.0233  0.5864  0.2106
   61MOL0     C 8334   9.545   9.799   7.141  1.3162 -0.1254 -0.0399
   61MOL0     C 8335   9.108   9.828   7.178  0.0889 -1.3000  0.5052
   61MOL0     C 8336   9.076   9.780   7.299 -0.3128  0.3032 -0.4307
   61MOL0     C 8337   8.948   9.752   7.326  0.3459  0.2620  0.5482
   61MOL0     C 8338   8.845   9.764   7.237  1.1504  0.7151  0.1833
   61MOL0     O 8339   8.719   9.731   7.291  0.6494 -0.6706  0.0573
   61MOL0     C 8340   8.614   9.768   7.203 -0.3121 -0.9112 -0.2490
   61MOL0     C 8341   8.487   9.775   7.283  0.9260 -0.2429 -0.9143
   61MOL0     C 8342   8.479   9.875   7.400 -0.4578 -0.0757  0.4326
   61MOL0     C 8343   8.493  10.016   7.350  0.9360 -0.6100 -0.6013
   61MOL0     C 8344   8.373  10.071   7.300  0.4224 -0.7808  0.4226
   61MOL0     C 8345   8.261  10.115   7.261 -0.2598  0.0619  0.7325
   61MOL0     C 8346   8.880   9.804   7.105  0.3193  0.5366 -0.4880
   61MOL0     C 8347   9.011   9.846   7.074  0.3210  0.9853 -1.1730
   61MOL0     C 8348   9.024   9.897   6.936 -1.1195 -0.2322  0.6744
   61MOL0     H 8349   9.509  10.031   7.375 -2.6821 -2.4704  1.5522
   61MOL0     H 8350   9.748  10.019   7.377 -1.3748  2.0330 -0.7748
   61MOL0     H 8351   9.952   9.892   7.408  1.5144  1.6333  1.1997
   61MOL0     H 8352   9.954  10.048   7.316 -0.6037 -0.5516  0.6565
   61MOL0     H 8353  10.197   9.965   7.360  3.0788 -3.5723 -1.0722
   61MOL0     H 8354  10.154   9.824   7.285  0.9410  0.3546  1.7778
   61MOL0     H 8355  10.248   9.965   7.115  0.0915  0.1305 -0.5851
   61MOL0     H 8356  10.079   9.995   7.075 -1.0374  0.9308  0.0202
   61MOL0     H 8357  10.099  10.195   7.247  0.3900  0.8205  0.4726
   61MOL0     H 8358  10.272  10.182   7.208 -0.1621  1.2488 -0.4901
   61MOL0     H 8359  10.179  10.344   7.063 -2.1164  0.7763 -0.2500
   61MOL0     H 8360  10.049  10.246   7.007  0.1159 -0.9167  0.9102
   61MOL0     H 8361  10.335  10.205   6.927  0.5571  1.4107  0.9625
   61MOL0     H 8362  10.204  10.093   6.883  1.4809  0.4988  0.4754
   61MOL0     H 8363  10.185  10.392   6.826  1.1897 -0.4305  0.3636
   61MOL0     H 8364  10.079  10.266   6.773 -0.0030 -1.3353  0.3354
   61MOL0     H 8365  10.385  10.277   6.698  0.3617 -1.4749 -2.2403
   61MOL0     H 8366  10.277  10.170   6.613  2.1383  1.9548 -2.9611
   61MOL0     H 8367  10.023  10.349   6.535  0.3021  0.1496  3.7749
   61MOL0     H 8368   9.955  10.537   6.359  1.9685 -2.2562  5.1472
   61MOL0     H 8369  10.057  10.465   6.222 -0.0507  0.6062  0.0347
   61MOL0     H 8370  10.062  10.738   6.352 -4.4697 -0.3276 -0.4271
   61MOL0     H 8371  10.205  10.683   6.262  0.1672 -3.4849 -1.2939
   61MOL0     H 8372  10.071  10.651   6.048 -0.3748 -2.1398  1.0717
   61MOL0     H 8373   9.935  10.709   6.136  0.4370  2.2283 -1.1388
   61MOL0     H 8374  10.200  10.856   6.073  0.7631  2.7734 -1.6601
   61MOL0     H 8375  10.050  10.884   6.000  1.3869 -0.1703  0.7782
   61MOL0     H 8376   9.989  11.151   6.354 -0.1395 -1.9251  0.5704
   61MOL0     H 8377   9.887  11.464   6.281  0.4655 -0.6903 -0.4935
   61MOL0     H 8378  10.044  11.477   6.364 -0.0776  0.7126  1.6920
   61MOL0     H 8379   9.923  11.354   6.412 -4.1012  2.4983 -0.1293
   61MOL0     H 8380  10.303  11.641   5.833 -0.4531 -1.5907  0.8579
   61MOL0     H 8381  10.385  11.877   5.804 -0.3015  1.0566  0.6210
   61MOL0     H 8382  10.612  12.162   5.902  0.4792  0.2415  2.0303
   61MOL0     H 8383  10.565  12.013   5.835 -2.3299  0.3288 -0.5486
   61MOL0     H 8384  10.305  12.118   5.852  2.5909 -3.0825  2.1574
   61MOL0     H 8385  10.399  12.268   5.885 -1.6191  0.2382  0.3661
   61MOL0     H 8386  10.456  12.082   5.653  2.1191  1.3965 -1.5973
   61MOL0     H 8387  10.530  12.241   5.678  0.1681  0.2867  0.6853
   61MOL0     H 8388  10.313  12.354   5.641 -0.8637 -1.1154  1.5295
   61MOL0     H 8389  10.238  12.198   5.634  1.2035 -1.7977  0.7043
   61MOL0     H 8390  10.458  12.282   5.443 -0.2624  0.2408  0.8429
   61MOL0     H 8391  10.348  12.142   5.432  1.5824  0.6901 -1.4769
   61MOL0     H 8392  10.275  12.446   5.420 -0.6982 -0.5374 -2.2244
   61MOL0     H 8393  10.160  12.325   5.445  1.2284  0.4407  2.2102
   61MOL0     H 8394  10.190  12.242   5.205  1.7547 -1.5191 -2.6597
   61MOL0     H 8395  10.355  12.295   5.200 -0.9568 -1.3665 -1.4484
   61MOL0     H 8396  10.127  12.484   5.235  0.7599 -0.3432  2.3924
   61MOL0     H 8397  10.187  12.441   5.068 -0.8925  0.0323  0.5263
   61MOL0     H 8398  10.450  11.920   6.222  1.6943  0.9888 -1.2440
   61MOL0     H 8399  10.364  11.697   6.256  0.7638 -2.0529 -0.7510
   61MOL0     H 8400  10.209  11.313   5.948 -2.4297 -0.8370 -2.4076
   61MOL0     H 8401  10.218  11.075   5.990  0.4061  0.4360  0.2226
   61MOL0     H 8402   9.726   9.739   7.049 -3.9651 -1.2858 -1.4098
   61MOL0     H 8403   9.484   9.730   7.085  1.4465  0.2014 -0.5920
   61MOL0     H 8404   9.150   9.776   7.379  0.3689 -3.4963 -1.0319
   61MOL0     H 8405   8.920   9.711   7.422  2.3324  0.6445  1.3291
   61MOL0     H 8406   8.635   9.868   7.162  1.7780 -0.8255  0.9392
   61MOL0     H 8407   8.605   9.701   7.117 -0.3642 -1.6581  0.3288
   61MOL0     H 8408   8.446   9.680   7.318  0.1863  1.6239  4.3380
   61MOL0     H 8409   8.418   9.815   7.208 -0.2315  2.0831  1.2361
   61MOL0     H 8410   8.384   9.863   7.452 -0.1920  3.6232  2.1186
   61MOL0     H 8411   8.556   9.849   7.473  1.9140 -1.7010 -2.4244
   61MOL0     H 8412   8.573  10.029   7.277  1.8085  0.1618  0.4525
   61MOL0     H 8413   8.527  10.090   7.424 -0.6979  2.2874 -2.5296
   61MOL0     H 8414   8.186  10.179   7.218 -0.1074  1.4394  2.4081
   61MOL0     H 8415   8.802   9.786   7.031 -0.4327 -3.2928  0.9880
   61MOL0     H 8416   9.094   9.845   6.871 -1.1652 -0.4777  0.8198
   61MOL0     H 8417   8.927   9.900   6.885 -0.2634 -4.0150 -1.5599
   61MOL0     H 8418   9.062   9.999   6.940 -1.3945 -0.1186  0.4679
   62MOL0     O 8419   5.928   4.795   7.185  0.3232  0.0781  0.5291
   62MOL0     C 8420   5.998   4.884   7.226 -0.3622 -0.4218 -0.3770
   62MOL0     O 8421   6.095   4.950   7.158 -0.0450 -0.5538  0.6144
   62MOL0     C 8422   6.110   4.906   7.026 -0.2658  0.3298 -0.0162
   62MOL0     C 8423   6.028   4.935   6.917 -0.0876  0.2203  0.7636
   62MOL0     C 8424   6.064   4.887   6.785 -0.1732  0.1060  0.1229
   62MOL0     C 8425   6.160   4.792   6.771 -0.0643 -0.2854  0.8058
   62MOL0     O 8426   6.188   4.738   6.643 -0.7017 -0.7197 -0.5049
   62MOL0     C 8427   6.199   4.845   6.537  0.0573  0.4302 -0.8408
   62MOL0     C 8428   6.270   4.804   6.406 -0.9843  0.2933  0.3513
   62MOL0     C 8429   6.427   4.800   6.422 -0.9873 -0.2087  0.1947
   62MOL0     C 8430   6.491   4.787   6.281 -0.0595  0.3121 -0.1377
   62MOL0     C 8431   6.636   4.811   6.289  0.5579  0.2371  0.9805
   62MOL0     C 8432   6.705   4.762   6.160 -0.3059  0.6463 -0.2128
   62MOL0     C 8433   6.854   4.809   6.145  0.2456  0.0540  0.6307
   62MOL0     C 8434   6.916   4.722   6.036  0.6741 -0.1004 -0.5719
   62MOL0     N 8435   7.046   4.765   5.996 -0.4028  0.1168 -0.1416
   62MOL0     C 8436   7.096   4.894   5.967  0.5936 -0.0141 -0.2313
   62MOL0     C 8437   7.227   4.878   5.935  0.4578  0.3787 -0.7750
   62MOL0     C 8438   7.318   4.985   5.912 -0.8462 -1.0933  0.5337
   62MOL0     C 8439   7.257   5.097   5.822  0.7460 -0.1200 -0.2976
   62MOL0     C 8440   7.370   5.193   5.798  0.1031 -0.2231 -0.6602
   62MOL0     C 8441   7.335   5.318   5.715 -0.3675 -0.1090  1.2233
   62MOL0     O 8442   7.452   5.392   5.694  0.8841 -0.1029 -0.1288
   62MOL0     C 8443   7.541   5.376   5.588  0.8535  0.4147 -0.6979
   62MOL0     C 8444   7.654   5.451   5.581 -0.5045 -0.2784  0.8290
   62MOL0     C 8445   7.732   5.446   5.460 -0.3645 -0.7335  0.3004
   62MOL0     C 8446   7.867   5.519   5.468  0.5265  0.0968 -0.1984
   62MOL0     C 8447   7.699   5.373   5.347  0.8753  0.1092 -0.3533
   62MOL0     C 8448   7.783   5.356   5.228  0.7278 -0.0883 -0.0456
   62MOL0     O 8449   7.847   5.462   5.183  0.3317  0.1358  0.3301
   62MOL0     C 8450   7.954   5.448   5.090 -0.0564  0.6769 -0.8357
   62MOL0     C 8451   7.940   5.513   4.968 -0.0241 -0.1776 -0.2483
   62MOL0     C 8452   8.044   5.531   4.884  0.7679 -1.1568 -0.3994
   62MOL0     C 8453   8.154   5.448   4.900 -0.5833 -0.0910  0.9500
   62MOL0     O 8454   8.260   5.445   4.811  0.8095 -0.1534 -0.3574
   62MOL0     C 8455   8.360   5.549   4.811 -0.4964 -0.3227 -0.1898
   62MOL0     C 8456   8.463   5.553   4.928 -0.8514 -0.1979  0.2452
   62MOL0     C 8457   8.543   5.424   4.934  0.2095  1.1151  0.7879
   62MOL0     C 8458   8.671   5.434   5.008 -0.0032 -0.1196 -0.0354
   62MOL0     C 8459   8.777   5.528   4.951  0.0186 -1.1457  0.1156
   62MOL0     C 8460   8.899   5.517   5.042 -0.2530 -0.4723  0.0030
   62MOL0     C 8461   9.008   5.610   4.981 -0.7743 -1.0046 -0.7508
   62MOL0     C 8462   9.154   5.550   5.002 -0.7339 -0.1118 -0.8245
   62MOL0    Cl 8463   9.194   5.507   5.171 -0.2611 -0.1605 -0.5075
   62MOL0     C 8464   8.165   5.358   5.012  0.9402  0.0189 -0.2915
   62MOL0     C 8465   8.056   5.362   5.113 -0.5089 -0.1216 -0.0974
   62MOL0     O 8466   7.798   5.249   5.181  0.2061  0.1238  0.0643
   62MOL0     C 8467   7.598   5.281   5.370  0.1812 -0.5352  0.2114
   62MOL0     C 8468   7.514   5.287   5.484 -0.7870  0.5176  0.0093
   62MOL0     N 8469   7.258   4.742   5.932  1.6301  0.9288 -0.5233
   62MOL0     N 8470   7.152   4.678   5.971 -0.6247 -0.7293 -0.4506
   62MOL0     C 8471   6.245   4.763   6.876  0.0603 -0.3872 -0.0059
   62MOL0     C 8472   6.223   4.823   7.003 -1.0168  0.7062  0.6146
   62MOL0     C 8473   5.994   4.926   7.370 -0.2748  0.1211 -0.2335
   62MOL0     C 8474   6.101   4.994   7.431 -0.3368 -0.0720  0.1983
   62MOL0     C 8475   6.102   5.036   7.561 -0.3374 -1.1681 -0.0557
   62MOL0     C 8476   5.986   5.024   7.638 -0.4849 -0.7222 -0.8153
   62MOL0     O 8477   5.970   5.070   7.772 -0.3336 -0.3216  0.9574
   62MOL0     C 8478   6.087   5.042   7.861  0.5134 -0.3830  0.4383
   62MOL0     C 8479   6.157   5.170   7.902  0.8030 -0.0984  1.1427
   62MOL0     C 8480   6.284   5.161   7.998 -0.6112 -0.1107 -0.0934
   62MOL0     C 8481   6.253   5.141   8.143 -0.2532  0.6763 -0.1267
   62MOL0     C 8482   6.200   5.007   8.169  0.6938  0.3462  0.4602
   62MOL0     C 8483   6.137   4.908   8.200  0.0597  0.0713 -0.2890
   62MOL0     C 8484   5.873   4.971   7.579 -0.3845  0.6961 -0.1544
   62MOL0     C 8485   5.875   4.917   7.448  0.4693  0.5558  0.0958
   62MOL0     C 8486   5.741   4.861   7.404 -0.3745 -1.3929  0.5394
   62MOL0     H 8487   5.942   5.000   6.934 -0.6322 -0.8303  2.2724
   62MOL0     H 8488   5.997   4.921   6.707 -2.0732 -1.3582  1.0078
   62MOL0     H 8489   6.247   4.940   6.560 -1.0307  1.0897 -1.2340
   62MOL0     H 8490   6.095   4.870   6.512 -1.0370 -4.1984 -1.9200
   62MOL0     H 8491   6.233   4.705   6.379 -0.4803 -0.5004  2.3984
   62MOL0     H 8492   6.245   4.888   6.341  0.8459  0.2854 -0.4032
   62MOL0     H 8493   6.463   4.891   6.471 -1.3293  0.0137  0.0385
   62MOL0     H 8494   6.461   4.711   6.476  2.0112  0.4338 -0.4363
   62MOL0     H 8495   6.471   4.684   6.250  0.7060  0.3993 -0.9815
   62MOL0     H 8496   6.447   4.850   6.203  1.7775 -0.4831 -1.9246
   62MOL0     H 8497   6.684   4.768   6.377 -2.3470 -2.0325  1.6362
   62MOL0     H 8498   6.659   4.918   6.294  3.5132 -0.1800 -1.0407
   62MOL0     H 8499   6.700   4.653   6.169  0.4306  0.4890 -1.4756
   62MOL0     H 8500   6.662   4.797   6.066  1.0686  0.7352 -0.8310
   62MOL0     H 8501   6.904   4.797   6.242  0.3968 -1.8052  0.3540
   62MOL0     H 8502   6.865   4.914   6.118 -0.1171  0.1301  0.7761
   62MOL0     H 8503   6.924   4.620   6.074 -2.9282 -0.5200 -0.6098
   62MOL0     H 8504   6.849   4.723   5.949 -2.6453  2.3933  1.7333
   62MOL0     H 8505   7.054   4.993   5.953  0.3448 -0.2001 -0.8328
   62MOL0     H 8506   7.407   4.944   5.863 -1.7231 -1.4828 -0.7856
   62MOL0     H 8507   7.345   5.024   6.011 -0.5484 -0.1604  0.1034
   62MOL0     H 8508   7.225   5.065   5.723 -2.3395  3.9311 -0.8677
   62MOL0     H 8509   7.179   5.145   5.883  1.4933  1.9592 -0.8799
   62MOL0     H 8510   7.407   5.225   5.896 -2.4626  1.9610 -0.2853
   62MOL0     H 8511   7.455   5.140   5.755 -0.5847 -3.4156  1.5914
   62MOL0     H 8512   7.283   5.299   5.620 -2.2376 -0.1978  2.2162
   62MOL0     H 8513   7.261   5.379   5.767  0.1576  0.1062  1.7312
   62MOL0     H 8514   7.676   5.502   5.674  0.4060 -2.0743  1.6265
   62MOL0     H 8515   7.945   5.476   5.405 -0.7014 -1.3628 -0.8107
   62MOL0     H 8516   7.900   5.527   5.572 -2.8336  3.5196  0.8310
   62MOL0     H 8517   7.855   5.624   5.439 -2.5347 -0.4196 -1.1893
   62MOL0     H 8518   7.853   5.577   4.951 -0.2991 -0.6960 -0.8065
   62MOL0     H 8519   8.025   5.597   4.800 -4.2430 -2.5717 -0.6946
   62MOL0     H 8520   8.412   5.541   4.715 -2.3824 -0.6222 -1.2174
   62MOL0     H 8521   8.326   5.653   4.801 -0.2108 -0.0895  1.1128
   62MOL0     H 8522   8.528   5.638   4.909  1.0244 -1.3288  1.3407
   62MOL0     H 8523   8.421   5.570   5.027  0.1539  2.1655  0.3164
   62MOL0     H 8524   8.565   5.388   4.833 -1.7703  2.7693 -0.3178
   62MOL0     H 8525   8.484   5.348   4.987  0.4322  1.0648  0.9656
   62MOL0     H 8526   8.724   5.339   5.007  3.4496  1.5252  2.5440
   62MOL0     H 8527   8.649   5.458   5.113  1.7283  1.6608 -0.0254
   62MOL0     H 8528   8.810   5.510   4.848  2.9248  0.9692  0.5694
   62MOL0     H 8529   8.761   5.636   4.963  2.1405 -0.8961  0.9704
   62MOL0     H 8530   8.934   5.414   5.045 -1.7293 -1.0428 -0.8997
   62MOL0     H 8531   8.874   5.556   5.141 -0.3497  1.9253 -0.8940
   62MOL0     H 8532   9.005   5.708   5.028 -0.9737 -1.8719  1.1768
   62MOL0     H 8533   8.989   5.618   4.874 -1.9473  3.5095 -0.3798
   62MOL0     H 8534   9.226   5.628   4.975 -1.4738  0.9779  0.2145
   62MOL0     H 8535   9.167   5.465   4.935 -1.2439  0.6269 -1.8744
   62MOL0     H 8536   8.244   5.283   5.018 -2.4522 -3.8293  2.3416
   62MOL0     H 8537   8.052   5.287   5.191 -2.5937  0.2078  0.1498
   62MOL0     H 8538   7.571   5.202   5.301  2.0741  0.2095 -1.4699
   62MOL0     H 8539   7.442   5.207   5.499 -2.9399  2.2439 -0.6958
   62MOL0     H 8540   6.331   4.699   6.856 -0.3513 -0.9796  0.1235
   62MOL0     H 8541   6.287   4.803   7.089 -0.2562 -1.2127 -0.3619
   62MOL0     H 8542   6.197   5.015   7.384  0.0076  0.7288  1.2209
   62MOL0     H 8543   6.196   5.072   7.603 -1.5147 -0.6478  2.2779
   62MOL0     H 8544   6.054   4.982   7.947 -0.3904  0.2047  0.5135
   62MOL0     H 8545   6.162   4.984   7.807 -1.7883 -0.3423 -3.1228
   62MOL0     H 8546   6.076   5.227   7.949  1.3566  2.3370 -0.6542
   62MOL0     H 8547   6.180   5.217   7.806 -2.4297 -3.1698 -1.4471
   62MOL0     H 8548   6.340   5.077   7.957  1.9873  2.0638 -1.3690
   62MOL0     H 8549   6.341   5.255   7.994  1.4908 -1.3410 -0.8527
   62MOL0     H 8550   6.180   5.215   8.174 -0.1390  0.7819 -0.1109
   62MOL0     H 8551   6.344   5.151   8.203  0.5108 -2.9326 -0.4246
   62MOL0     H 8552   6.087   4.819   8.233 -1.6678  0.9777 -0.3501
   62MOL0     H 8553   5.780   4.982   7.634 -1.4764 -0.0180 -1.7669
   62MOL0     H 8554   5.672   4.860   7.490 -0.8493  0.0719  0.1975
   62MOL0     H 8555   5.692   4.911   7.320  0.4519  2.8057  2.3060
   62MOL0     H 8556   5.755   4.758   7.369  1.4205 -1.0136  0.0835
   63MOL0     O 8557   0.204   9.203   1.644 -0.2549  0.2326 -0.5144
   63MOL0     C 8558   0.154   9.281   1.563 -0.6134  0.6456 -0.2691
   63MOL0     O 8559   0.029   9.328   1.568 -0.4973  0.5160 -0.6417
   63MOL0     C 8560  -0.066   9.292   1.661 -0.8074  0.4657 -0.0344
   63MOL0     C 8561  -0.088   9.169   1.718  0.6085  0.6068 -0.1541
   63MOL0     C 8562  -0.185   9.145   1.818  0.2668 -0.2007  1.1329
   63MOL0     C 8563  -0.262   9.250   1.855  0.1252  0.6578 -0.1419
   63MOL0     O 8564  -0.372   9.237   1.943 -0.4373 -0.1359  0.5092
   63MOL0     C 8565  -0.341   9.308   2.064 -0.3084  0.7392  0.0945
   63MOL0     C 8566  -0.458   9.276   2.162 -0.1781 -1.0326  0.3400
   63MOL0     C 8567  -0.484   9.131   2.214  0.2319 -0.1259  0.3541
   63MOL0     C 8568  -0.374   9.056   2.275  0.4848  0.7105  0.6161
   63MOL0     C 8569  -0.296   9.128   2.389 -0.5577  0.9740 -0.1113
   63MOL0     C 8570  -0.375   9.144   2.520  0.6530  0.5937 -0.0361
   63MOL0     C 8571  -0.291   9.155   2.656  1.0107  0.8525 -1.2174
   63MOL0     C 8572  -0.384   9.165   2.777  0.5831  0.2054 -0.0805
   63MOL0     N 8573  -0.311   9.202   2.896 -0.5994 -0.0064  0.8773
   63MOL0     C 8574  -0.234   9.123   2.968  0.5494  0.4727 -0.5963
   63MOL0     C 8575  -0.200   9.193   3.079 -0.2831 -0.4804  0.6242
   63MOL0     C 8576  -0.107   9.156   3.185  0.5091  0.4032 -0.4830
   63MOL0     C 8577  -0.065   9.263   3.286  1.2517 -0.1977 -0.1269
   63MOL0     C 8578   0.042   9.193   3.369 -0.4113 -0.8234  0.3652
   63MOL0     C 8579   0.119   9.299   3.454  0.1801  1.0281 -0.8402
   63MOL0     O 8580   0.199   9.377   3.365 -0.1873  0.1177 -0.0050
   63MOL0     C 8581   0.322   9.350   3.321 -0.5747  0.0242  0.3030
   63MOL0     C 8582   0.359   9.358   3.183 -0.0728 -0.8084  0.6298
   63MOL0     C 8583   0.486   9.330   3.145  0.4209 -0.3114  0.3977
   63MOL0     C 8584   0.540   9.348   3.003  0.6905 -0.5364 -0.3599
   63MOL0     C 8585   0.581   9.292   3.244 -0.2260  1.0840  0.0805
   63MOL0     C 8586   0.725   9.279   3.210  0.0950 -0.9534 -0.2689
   63MOL0     O 8587   0.815   9.324   3.299  0.4402 -0.3208 -0.0433
   63MOL0     C 8588   0.938   9.262   3.292 -0.6269 -0.2806 -0.5176
   63MOL0     C 8589   1.039   9.322   3.209  0.1970 -0.3542  0.0326
   63MOL0     C 8590   1.158   9.254   3.197 -1.2289  0.2458 -0.6215
   63MOL0     C 8591   1.184   9.128   3.259 -0.4148  0.2395 -0.0788
   63MOL0     O 8592   1.305   9.064   3.241 -0.2375  0.0762  0.5356
   63MOL0     C 8593   1.427   9.131   3.239  0.7013  0.6791  0.5850
   63MOL0     C 8594   1.529   9.038   3.304  0.7912 -0.1459  0.7996
   63MOL0     C 8595   1.672   9.079   3.294 -0.2459  0.6128 -0.5350
   63MOL0     C 8596   1.711   9.193   3.391  0.4909 -0.8010  0.8374
   63MOL0     C 8597   1.864   9.251   3.384 -0.0692  0.8866 -0.7461
   63MOL0     C 8598   1.960   9.144   3.443  0.1286  0.0957 -0.7489
   63MOL0     C 8599   2.001   9.028   3.356  0.2805  0.2537  0.4952
   63MOL0     C 8600   2.041   9.067   3.215 -0.4321  0.2325  0.0290
   63MOL0    Cl 8601   2.165   9.201   3.232  0.2153 -0.0864  0.3706
   63MOL0     C 8602   1.084   9.066   3.330 -0.1484 -0.5597  0.0578
   63MOL0     C 8603   0.963   9.138   3.356 -0.3970 -0.1453 -0.4202
   63MOL0     O 8604   0.743   9.197   3.126 -0.0114  1.0344 -0.4134
   63MOL0     C 8605   0.551   9.271   3.372  0.2235 -0.2099 -0.3441
   63MOL0     C 8606   0.423   9.301   3.408  0.1224 -0.4817 -0.3055
   63MOL0     N 8607  -0.255   9.321   3.066  0.0923 -0.7921  0.1460
   63MOL0     N 8608  -0.308   9.327   2.955 -0.5892 -0.6303  0.7153
   63MOL0     C 8609  -0.251   9.372   1.794  0.1819 -0.0959  0.9098
   63MOL0     C 8610  -0.156   9.390   1.699  0.3644 -0.3105  0.0237
   63MOL0     C 8611   0.251   9.334   1.462  1.2885 -0.7455  0.2756
   63MOL0     C 8612   0.385   9.309   1.483  0.2693  0.7916  0.2118
   63MOL0     C 8613   0.487   9.376   1.412 -0.6211 -0.0853  1.0355
   63MOL0     C 8614   0.446   9.467   1.314 -0.8003 -0.6292 -0.3045
   63MOL0     O 8615   0.537   9.547   1.243  0.2155  0.3527  0.0418
   63MOL0     C 8616   0.677   9.546   1.282  0.5362  0.0349  0.5196
   63MOL0     C 8617   0.717   9.643   1.401 -0.7633 -0.3457 -0.2713
   63MOL0     C 8618   0.723   9.792   1.355 -0.9135  0.5513  0.1291
   63MOL0     C 8619   0.751   9.882   1.474 -0.2597 -0.3291  0.2360
   63MOL0     C 8620   0.782  10.018   1.436  0.8109 -0.1003 -0.7148
   63MOL0     C 8621   0.802  10.131   1.402 -0.3281  0.3616  0.2630
   63MOL0     C 8622   0.314   9.475   1.276  0.1583  0.0711  1.0046
   63MOL0     C 8623   0.216   9.414   1.349  0.0040 -0.0566  0.2742
   63MOL0     C 8624   0.070   9.435   1.297  1.2838 -0.6307  0.0754
   63MOL0     H 8625  -0.020   9.092   1.683  1.7524  0.2477  2.6110
   63MOL0     H 8626  -0.194   9.047   1.863 -2.2570 -0.7022 -0.2752
   63MOL0     H 8627  -0.345   9.416   2.044 -0.7708  0.4655 -1.4117
   63MOL0     H 8628  -0.244   9.275   2.104 -2.0221 -0.9464  3.2562
   63MOL0     H 8629  -0.444   9.350   2.241 -3.0465 -0.5463  0.5163
   63MOL0     H 8630  -0.552   9.307   2.115  0.9010 -1.5629 -2.3932
   63MOL0     H 8631  -0.566   9.129   2.287  0.8108  0.9876  1.0653
   63MOL0     H 8632  -0.511   9.073   2.126  2.6411  0.5083 -0.8901
   63MOL0     H 8633  -0.409   8.957   2.306 -0.7968  1.1628  0.6901
   63MOL0     H 8634  -0.302   9.044   2.193 -1.0598  3.6720 -1.3544
   63MOL0     H 8635  -0.246   9.219   2.354  1.6703 -1.7474 -5.1142
   63MOL0     H 8636  -0.214   9.065   2.422  0.0841  2.9103  2.2981
   63MOL0     H 8637  -0.438   9.233   2.508 -0.8610 -0.2694  1.1317
   63MOL0     H 8638  -0.441   9.058   2.529  0.6175  0.7102  1.0187
   63MOL0     H 8639  -0.237   9.251   2.659  4.3052 -0.8664  1.3290
   63MOL0     H 8640  -0.223   9.071   2.671 -2.2512 -1.6031  0.8914
   63MOL0     H 8641  -0.455   9.246   2.756  0.3115 -0.9847 -4.6433
   63MOL0     H 8642  -0.444   9.075   2.792 -0.9470  1.0759 -0.7444
   63MOL0     H 8643  -0.202   9.020   2.955  0.0755  0.3735 -1.0180
   63MOL0     H 8644  -0.022   9.113   3.131 -0.5699 -2.6281  0.0689
   63MOL0     H 8645  -0.148   9.067   3.231  0.2460  1.5931  1.7099
   63MOL0     H 8646  -0.016   9.344   3.232  2.9990 -0.8032  0.4920
   63MOL0     H 8647  -0.143   9.311   3.346  2.4591  0.7770  0.7234
   63MOL0     H 8648  -0.010   9.112   3.420 -0.2779 -1.3345 -0.2910
   63MOL0     H 8649   0.121   9.146   3.309  0.7021  0.6810  0.5943
   63MOL0     H 8650   0.056   9.364   3.517  0.7823 -1.0656  2.1582
   63MOL0     H 8651   0.184   9.250   3.527 -0.8431 -1.2316 -1.3568
   63MOL0     H 8652   0.279   9.397   3.122 -0.0432  1.7203  2.0329
   63MOL0     H 8653   0.584   9.256   2.962  3.7490  0.1397  1.1145
   63MOL0     H 8654   0.619   9.422   2.998  0.8965 -0.7793 -0.7601
   63MOL0     H 8655   0.465   9.376   2.929 -1.4242 -2.5703  0.8752
   63MOL0     H 8656   1.019   9.413   3.154  4.8360  0.5102 -0.6662
   63MOL0     H 8657   1.229   9.298   3.128 -0.2666 -2.1224 -1.2446
   63MOL0     H 8658   1.448   9.148   3.133 -0.8069 -3.4831 -0.5742
   63MOL0     H 8659   1.421   9.223   3.298  1.7138  0.3465  1.2353
   63MOL0     H 8660   1.508   9.045   3.411 -0.9838 -1.1239  0.5560
   63MOL0     H 8661   1.511   8.938   3.264 -1.5675 -0.0341  1.3776
   63MOL0     H 8662   1.697   9.118   3.195 -0.4293  4.0513  0.6184
   63MOL0     H 8663   1.722   8.988   3.329 -1.9359  0.0708  0.6240
   63MOL0     H 8664   1.679   9.145   3.484  0.5451  0.3712  1.4784
   63MOL0     H 8665   1.642   9.276   3.375 -2.7290 -2.6602  3.7029
   63MOL0     H 8666   1.892   9.276   3.282  1.2062 -0.4723 -0.7707
   63MOL0     H 8667   1.865   9.334   3.456 -3.4888 -0.9358  1.6342
   63MOL0     H 8668   1.905   9.102   3.527  3.4421 -2.2664  0.4524
   63MOL0     H 8669   2.051   9.190   3.483 -2.3180  2.6455  2.5318
   63MOL0     H 8670   1.924   8.950   3.351  2.2934 -1.8800  1.4135
   63MOL0     H 8671   2.089   8.982   3.400  1.2214  1.3236 -0.2267
   63MOL0     H 8672   1.960   9.106   3.153 -0.8897  0.0387  0.4938
   63MOL0     H 8673   2.085   8.980   3.167 -0.6784  0.5250 -0.7386
   63MOL0     H 8674   1.107   8.965   3.364  1.1751 -1.0810 -2.1851
   63MOL0     H 8675   0.886   9.093   3.420  1.7767 -2.4407  0.7751
   63MOL0     H 8676   0.623   9.235   3.445 -0.4459  0.6325  0.7528
   63MOL0     H 8677   0.390   9.289   3.511  1.0261 -0.2107  0.0230
   63MOL0     H 8678  -0.322   9.446   1.831 -0.7805 -1.7947  2.6620
   63MOL0     H 8679  -0.135   9.483   1.646  3.7331 -0.7767  0.3064
   63MOL0     H 8680   0.413   9.251   1.571  0.0416  0.4490  0.0638
   63MOL0     H 8681   0.587   9.349   1.442 -1.3382 -2.4548  1.5125
   63MOL0     H 8682   0.713   9.448   1.315  0.0710  0.2836  1.8423
   63MOL0     H 8683   0.746   9.574   1.203  1.3838  0.1160  1.2674
   63MOL0     H 8684   0.813   9.616   1.447 -1.5871 -0.2161  1.5912
   63MOL0     H 8685   0.642   9.636   1.480 -0.6036  2.9086  0.3089
   63MOL0     H 8686   0.816   9.792   1.298 -2.2466  0.6903 -2.1338
   63MOL0     H 8687   0.640   9.832   1.296 -1.9421  2.6736  2.7936
   63MOL0     H 8688   0.834   9.854   1.540 -0.5165 -0.0048  0.7032
   63MOL0     H 8689   0.663   9.888   1.538  0.7466 -0.7822  1.7187
   63MOL0     H 8690   0.821  10.229   1.363 -0.2385 -0.3324 -1.5375
   63MOL0     H 8691   0.290   9.539   1.192  1.3335 -0.0199  0.5839
   63MOL0     H 8692   0.017   9.340   1.285 -0.5663  0.2710  0.8502
   63MOL0     H 8693   0.022   9.485   1.381  4.6597  0.8381  1.3103
   63MOL0     H 8694   0.058   9.494   1.205  3.8096 -0.1548 -0.0323
   64MOL0     O 8695   9.118   8.061   7.181 -0.8804 -0.6723 -0.2141
   64MOL0     C 8696   9.132   7.958   7.113 -0.2361  0.3691  0.6459
   64MOL0     O 8697   9.153   7.831   7.152  0.9413 -0.1320 -0.4084
   64MOL0     C 8698   9.171   7.810   7.286 -0.6193 -0.3592 -0.0627
   64MOL0     C 8699   9.073   7.831   7.388  0.2284  0.8778 -0.0465
   64MOL0     C 8700   9.102   7.798   7.522  0.2561 -0.3291  0.3584
   64MOL0     C 8701   9.221   7.739   7.561  0.9706 -1.0348 -0.5100
   64MOL0     O 8702   9.235   7.717   7.696 -0.5292 -0.2243 -0.2035
   64MOL0     C 8703   9.239   7.825   7.787 -0.3142 -0.8284 -0.0813
   64MOL0     C 8704   9.371   7.911   7.770  0.4500  0.1581  0.1681
   64MOL0     C 8705   9.470   7.895   7.888 -0.7908  0.2259  0.7347
   64MOL0     C 8706   9.510   7.744   7.905  0.0073 -0.2004 -0.0416
   64MOL0     C 8707   9.632   7.741   7.981 -0.1272  0.3188 -0.6855
   64MOL0     C 8708   9.675   7.595   7.992 -0.3019  0.1244  0.1430
   64MOL0     C 8709   9.808   7.603   8.069 -0.2275  0.7939 -0.3511
   64MOL0     C 8710   9.897   7.482   8.027 -0.2296 -0.8655 -0.6441
   64MOL0     N 8711  10.043   7.510   8.054  0.0223 -0.3761  0.2429
   64MOL0     C 8712  10.102   7.629   8.094  0.7771  0.0234  0.2948
   64MOL0     C 8713  10.232   7.621   8.085  0.0439 -0.6563 -0.1744
   64MOL0     C 8714  10.330   7.731   8.132  0.6719 -0.0101  0.7150
   64MOL0     C 8715  10.300   7.880   8.088  0.0814  0.2548  0.3194
   64MOL0     C 8716  10.432   7.961   8.097  0.5483  0.6626 -0.2960
   64MOL0     C 8717  10.405   8.103   8.086  0.3588 -0.4170 -0.1569
   64MOL0     O 8718  10.335   8.145   8.208  0.5611 -0.4331  0.2318
   64MOL0     C 8719  10.265   8.261   8.220 -0.0426 -0.4676 -0.0394
   64MOL0     C 8720  10.262   8.349   8.105  0.6048  0.5469 -0.9931
   64MOL0     C 8721  10.170   8.453   8.116  0.3817  0.0006 -0.2513
   64MOL0     C 8722  10.193   8.556   8.003  1.2697  0.5876  0.3234
   64MOL0     C 8723  10.079   8.471   8.227  0.5935  0.7806 -0.2804
   64MOL0     C 8724   9.984   8.585   8.238  0.1903 -0.5326 -0.3407
   64MOL0     O 8725   9.956   8.655   8.124  0.3819 -0.2795 -0.1919
   64MOL0     C 8726   9.840   8.735   8.128  0.9833  0.4441  0.2044
   64MOL0     C 8727   9.846   8.876   8.140  0.2095  0.2157 -0.1364
   64MOL0     C 8728   9.733   8.950   8.112 -0.2745 -0.4451 -0.9863
   64MOL0     C 8729   9.608   8.889   8.108 -0.1117  0.0834  0.0305
   64MOL0     O 8730   9.485   8.956   8.118  0.5915  0.4582  0.3237
   64MOL0     C 8731   9.474   9.101   8.110 -0.9535  0.2307 -0.2717
   64MOL0     C 8732   9.334   9.147   8.126  1.0379  0.1824 -0.1251
   64MOL0     C 8733   9.284   9.104   8.270 -0.3162 -0.0265  0.5662
   64MOL0     C 8734   9.142   9.086   8.264 -0.9504  0.1827  0.4534
   64MOL0     C 8735   9.093   9.041   8.396  0.7494  0.5970  0.7984
   64MOL0     C 8736   8.940   9.037   8.399  0.1353  0.0759  0.1064
   64MOL0     C 8737   8.889   8.926   8.501  0.6839  0.4486 -0.5497
   64MOL0     C 8738   8.750   8.970   8.549 -0.4086  0.0439  0.4629
   64MOL0    Cl 8739   8.610   8.946   8.433 -0.0919 -0.1237  0.2485
   64MOL0     C 8740   9.604   8.755   8.112 -0.5613  0.4976 -0.2690
   64MOL0     C 8741   9.716   8.681   8.110 -0.1867  0.2733 -0.2407
   64MOL0     O 8742   9.946   8.620   8.354 -0.1073  0.0932 -0.7561
   64MOL0     C 8743  10.098   8.387   8.342 -0.2121  0.0455  0.3615
   64MOL0     C 8744  10.191   8.279   8.339  0.4145  0.4439  0.1798
   64MOL0     N 8745  10.257   7.490   8.064 -0.9786 -0.6088  0.4696
   64MOL0     N 8746  10.148   7.424   8.041  0.0076  0.6592  0.6089
   64MOL0     C 8747   9.310   7.719   7.465 -1.7122 -0.2213  0.7225
   64MOL0     C 8748   9.287   7.743   7.325 -1.0246  0.0119  0.5496
   64MOL0     C 8749   9.119   7.964   6.961  0.5063 -0.3072  0.6507
   64MOL0     C 8750   9.019   8.037   6.916  0.6195 -0.0110  0.0371
   64MOL0     C 8751   8.988   8.052   6.782  1.1135  0.7139  0.3223
   64MOL0     C 8752   9.063   7.972   6.690  0.2351  0.2116  0.0698
   64MOL0     O 8753   9.015   7.976   6.563  0.6519 -0.3384 -0.2210
   64MOL0     C 8754   9.094   7.928   6.451  0.0190  0.5553  0.4497
   64MOL0     C 8755   9.214   8.028   6.419  0.3542 -0.6739 -0.0630
   64MOL0     C 8756   9.167   8.156   6.345 -0.6743 -0.7062  0.6759
   64MOL0     C 8757   9.279   8.254   6.329 -0.4099 -0.7963  0.4936
   64MOL0     C 8758   9.258   8.371   6.246  0.5205 -0.3573  0.0647
   64MOL0     C 8759   9.228   8.474   6.184  0.1563 -0.0333 -0.3061
   64MOL0     C 8760   9.164   7.885   6.733 -0.2534 -1.1956 -0.0362
   64MOL0     C 8761   9.206   7.894   6.873 -0.2338 -0.3011  1.0536
   64MOL0     C 8762   9.338   7.835   6.915 -0.3890  0.3133  0.8888
   64MOL0     H 8763   8.975   7.873   7.369 -2.5787 -4.6013  0.4121
   64MOL0     H 8764   9.029   7.801   7.603  2.1229  0.2276  2.1230
   64MOL0     H 8765   9.233   7.788   7.890 -0.1066  0.4058  0.3894
   64MOL0     H 8766   9.153   7.892   7.780  0.7745  0.6415  0.1565
   64MOL0     H 8767   9.425   7.880   7.680  0.6498 -2.6829  1.1452
   64MOL0     H 8768   9.339   8.015   7.771  2.3466  0.8052 -1.3272
   64MOL0     H 8769   9.558   7.955   7.864  0.9224 -2.6845 -0.7871
   64MOL0     H 8770   9.428   7.936   7.980 -0.2952  0.3932  0.8926
   64MOL0     H 8771   9.428   7.704   7.967  0.6988 -0.9563  0.4030
   64MOL0     H 8772   9.511   7.684   7.813  1.4173 -0.7008  0.2746
   64MOL0     H 8773   9.625   7.778   8.083  0.7501 -1.5558  0.1126
   64MOL0     H 8774   9.707   7.805   7.933 -1.5541  1.1473 -1.9100
   64MOL0     H 8775   9.600   7.542   8.052  1.5622 -1.9445  0.7755
   64MOL0     H 8776   9.681   7.537   7.899  2.2481 -0.4082  0.5745
   64MOL0     H 8777   9.799   7.597   8.178 -1.2684  1.8595 -0.3455
   64MOL0     H 8778   9.862   7.698   8.058  0.6647  0.9762  3.8521
   64MOL0     H 8779   9.860   7.395   8.082  1.8926  0.6067  3.6255
   64MOL0     H 8780   9.895   7.466   7.919 -0.0012 -1.6874 -0.5294
   64MOL0     H 8781  10.054   7.721   8.126 -0.5431 -0.2697 -0.7003
   64MOL0     H 8782  10.430   7.708   8.095  2.2106  3.3048  2.3890
   64MOL0     H 8783  10.348   7.721   8.239  2.0887  0.0195  0.4926
   64MOL0     H 8784  10.252   7.879   7.989  2.6490  3.5404 -1.1360
   64MOL0     H 8785  10.219   7.906   8.157 -2.7096  0.6982 -2.8277
   64MOL0     H 8786  10.484   7.940   8.190 -1.0805  2.0598  0.9875
   64MOL0     H 8787  10.490   7.927   8.010 -2.0799 -2.1453 -1.1725
   64MOL0     H 8788  10.502   8.152   8.073 -0.2789  0.1003 -4.5024
   64MOL0     H 8789  10.351   8.136   7.997 -0.0803  0.1746  0.3200
   64MOL0     H 8790  10.320   8.343   8.014  1.6407  1.0887 -0.3851
   64MOL0     H 8791  10.250   8.514   7.920 -1.3489 -0.7938 -0.8924
   64MOL0     H 8792  10.248   8.642   8.042  3.3482 -1.4490  2.2387
   64MOL0     H 8793  10.099   8.584   7.956  0.8533 -0.1987  0.6645
   64MOL0     H 8794   9.945   8.918   8.156  0.7204 -1.4999  1.6247
   64MOL0     H 8795   9.728   9.059   8.111 -1.5353 -0.2102  3.8074
   64MOL0     H 8796   9.530   9.139   8.196  1.4493 -2.1709 -0.6476
   64MOL0     H 8797   9.509   9.143   8.015 -0.6040 -0.1287 -0.3032
   64MOL0     H 8798   9.339   9.256   8.122 -0.6902  0.3294  0.8198
   64MOL0     H 8799   9.264   9.112   8.048 -0.8824  1.5328  0.9183
   64MOL0     H 8800   9.306   9.192   8.331 -0.2683  0.3903 -0.0450
   64MOL0     H 8801   9.347   9.019   8.301  1.0864  1.7068  2.7368
   64MOL0     H 8802   9.116   9.010   8.190  1.9612 -0.0779 -0.4415
   64MOL0     H 8803   9.112   9.189   8.238 -1.4601 -0.2046 -0.5691
   64MOL0     H 8804   9.129   8.939   8.414 -0.1266 -0.3342 -2.1687
   64MOL0     H 8805   9.126   9.107   8.477 -2.1966  0.6299  2.0788
   64MOL0     H 8806   8.901   9.010   8.301 -1.2171  1.4546  0.2193
   64MOL0     H 8807   8.905   9.139   8.419 -1.0059 -0.1046 -0.8472
   64MOL0     H 8808   8.951   8.910   8.589 -1.3665  0.1442  0.9109
   64MOL0     H 8809   8.892   8.835   8.439  4.4089  0.8273 -1.1597
   64MOL0     H 8810   8.765   9.072   8.586 -0.2516 -0.1832  1.0409
   64MOL0     H 8811   8.727   8.912   8.639 -2.9519 -1.4649 -1.0389
   64MOL0     H 8812   9.507   8.707   8.112 -0.1369 -0.3842 -0.7658
   64MOL0     H 8813   9.700   8.574   8.096 -3.6360  0.6525 -0.0110
   64MOL0     H 8814  10.056   8.405   8.441  3.7823  0.2650  2.2123
   64MOL0     H 8815  10.205   8.207   8.419 -0.1643  0.1026 -0.0153
   64MOL0     H 8816   9.405   7.674   7.492 -0.7141  1.7632  0.6712
   64MOL0     H 8817   9.346   7.710   7.240 -2.1591  0.6648 -0.5144
   64MOL0     H 8818   8.951   8.091   6.981  0.5138  0.4835 -0.4828
   64MOL0     H 8819   8.911   8.125   6.760  4.0390  4.5347  1.6521
   64MOL0     H 8820   9.133   7.826   6.464 -0.8836  0.3609  1.8989
   64MOL0     H 8821   9.035   7.935   6.359 -1.7744  0.5149  1.5485
   64MOL0     H 8822   9.282   7.988   6.343  1.1337  0.5662 -0.0394
   64MOL0     H 8823   9.263   8.064   6.510 -1.4043  2.8936 -0.3440
   64MOL0     H 8824   9.129   8.141   6.244 -1.6521  2.0954  0.5559
   64MOL0     H 8825   9.085   8.202   6.401 -0.0381 -0.3080  1.3019
   64MOL0     H 8826   9.374   8.209   6.296 -1.1865  0.2107 -3.7665
   64MOL0     H 8827   9.302   8.293   6.428 -1.8227  0.7804  0.2475
   64MOL0     H 8828   9.189   8.557   6.129 -1.3725 -0.5249 -0.0313
   64MOL0     H 8829   9.220   7.820   6.666  0.3705  0.6232 -1.3673
   64MOL0     H 8830   9.391   7.795   6.828  2.2268  1.4317  1.8934
   64MOL0     H 8831   9.399   7.917   6.952 -2.4001  3.3923 -2.0287
   64MOL0     H 8832   9.334   7.761   6.995 -0.1105  1.6383  2.1654
   65MOL0     O 8833   6.828   4.944   7.369 -0.4339  0.2841  0.2033
   65MOL0     C 8834   6.769   4.848   7.413  0.8627  0.3699  0.1880
   65MOL0     O 8835   6.640   4.839   7.449 -0.8087 -0.0650 -0.9607
   65MOL0     C 8836   6.562   4.955   7.409  0.5379 -0.3161 -0.3655
   65MOL0     C 8837   6.520   4.973   7.278  0.2256 -0.0873  0.1840
   65MOL0     C 8838   6.445   5.087   7.240  0.6293  0.4728 -0.4870
   65MOL0     C 8839   6.406   5.183   7.341  0.8116 -1.4309 -0.9291
   65MOL0     O 8840   6.314   5.285   7.337 -0.1955  0.3702  0.2196
   65MOL0     C 8841   6.312   5.357   7.209 -0.2149 -1.2338 -0.7208
   65MOL0     C 8842   6.235   5.481   7.243 -0.5639 -0.7130  0.4650
   65MOL0     C 8843   6.083   5.453   7.250  0.5813  0.9236  0.2182
   65MOL0     C 8844   6.017   5.591   7.257 -0.0492  0.3932  0.2101
   65MOL0     C 8845   5.859   5.580   7.286  0.0550 -0.1124 -0.2829
   65MOL0     C 8846   5.817   5.512   7.421  0.1530 -0.9268 -0.3820
   65MOL0     C 8847   5.885   5.576   7.546  0.0443  0.6876 -0.1140
   65MOL0     C 8848   5.860   5.715   7.592  0.8667  1.0985  0.4831
   65MOL0     N 8849   5.720   5.731   7.635  0.2856  0.2062  0.5483
   65MOL0     C 8850   5.650   5.667   7.743  0.5081  0.0627 -1.0329
   65MOL0     C 8851   5.530   5.735   7.746  0.1508  0.4710  0.3182
   65MOL0     C 8852   5.428   5.731   7.861  0.0664 -0.4216  0.4842
   65MOL0     C 8853   5.430   5.846   7.965  0.6121 -0.7670 -0.9096
   65MOL0     C 8854   5.570   5.908   8.000  0.6363  0.6699  0.0304
   65MOL0     C 8855   5.575   6.005   8.115  1.0281 -0.8415 -0.5478
   65MOL0     O 8856   5.691   6.077   8.149 -0.3302 -0.1595 -0.5304
   65MOL0     C 8857   5.813   6.007   8.114  0.4802  0.0495  0.3902
   65MOL0     C 8858   5.843   5.894   8.168 -0.7361 -0.4366  0.5064
   65MOL0     C 8859   5.960   5.816   8.126  0.2274 -0.3884 -0.6840
   65MOL0     C 8860   5.998   5.690   8.212  0.8384 -0.1943 -0.0303
   65MOL0     C 8861   6.028   5.865   8.012 -1.5168 -0.4366  0.3664
   65MOL0     C 8862   6.150   5.794   7.963  0.2755  0.2737  0.6440
   65MOL0     O 8863   6.215   5.834   7.836  0.4572  0.2293 -0.7059
   65MOL0     C 8864   6.309   5.744   7.780 -0.6439  0.6084  0.2802
   65MOL0     C 8865   6.449   5.780   7.772  0.9413  0.4541  0.9381
   65MOL0     C 8866   6.537   5.690   7.711  0.3759 -0.0744  0.2645
   65MOL0     C 8867   6.498   5.562   7.673  0.6394 -0.8136 -0.7770
   65MOL0     O 8868   6.586   5.480   7.616  0.6470 -0.0028  0.2846
   65MOL0     C 8869   6.716   5.450   7.676 -0.1626 -0.3952 -0.4872
   65MOL0     C 8870   6.773   5.328   7.617 -0.2987  0.1141 -0.0136
   65MOL0     C 8871   6.868   5.346   7.496 -1.1100  0.3247 -0.4780
   65MOL0     C 8872   6.791   5.345   7.363 -0.9268  0.2382 -0.0310
   65MOL0     C 8873   6.897   5.331   7.255  0.8883 -0.5719  0.3712
   65MOL0     C 8874   6.832   5.362   7.119  0.1322 -0.3712  0.1148
   65MOL0     C 8875   6.728   5.263   7.071  0.2518  0.8392  0.3036
   65MOL0     C 8876   6.792   5.122   7.075 -0.2016 -0.6930  0.1504
   65MOL0    Cl 8877   6.703   4.993   6.977 -0.0321 -0.5490  0.0541
   65MOL0     C 8878   6.376   5.520   7.702 -0.1710 -0.3505  0.9347
   65MOL0     C 8879   6.270   5.609   7.743 -0.4494  0.1657 -0.0628
   65MOL0     O 8880   6.181   5.689   8.018 -0.3922 -0.6288  0.0965
   65MOL0     C 8881   5.998   5.990   7.968 -0.1785 -0.2017  0.0522
   65MOL0     C 8882   5.888   6.063   8.010  0.1875  1.0457 -0.1928
   65MOL0     N 8883   5.516   5.833   7.647 -0.3458 -0.1509  0.4124
   65MOL0     N 8884   5.634   5.833   7.595 -0.7756  0.1224 -0.5934
   65MOL0     C 8885   6.447   5.165   7.471 -0.2821 -0.0722 -0.5072
   65MOL0     C 8886   6.533   5.050   7.508  0.4641 -0.1852  0.1796
   65MOL0     C 8887   6.847   4.730   7.446 -0.2296  0.3177  1.4485
   65MOL0     C 8888   6.813   4.633   7.539  0.6553 -0.8074 -0.5489
   65MOL0     C 8889   6.887   4.520   7.575 -0.0421 -0.2716 -0.8643
   65MOL0     C 8890   7.002   4.483   7.516  0.3567  0.0593 -0.0474
   65MOL0     O 8891   7.088   4.378   7.556  0.0709 -0.5471 -0.3713
   65MOL0     C 8892   7.213   4.359   7.488 -0.5855  0.2545 -0.8771
   65MOL0     C 8893   7.280   4.230   7.537 -0.6873  0.0472  0.4905
   65MOL0     C 8894   7.323   4.242   7.688 -0.5165  0.1611  0.3488
   65MOL0     C 8895   7.434   4.146   7.722 -0.4030  0.5021 -0.1470
   65MOL0     C 8896   7.562   4.173   7.650 -0.0827  0.4608  0.3048
   65MOL0     C 8897   7.663   4.178   7.585  0.2346  1.2144 -0.0416
   65MOL0     C 8898   7.032   4.566   7.412 -0.4147 -0.5037  1.0235
   65MOL0     C 8899   6.972   4.696   7.376  1.1686 -0.3312 -0.7083
   65MOL0     C 8900   7.037   4.772   7.256 -0.1347  0.6094 -0.3511
   65MOL0     H 8901   6.567   4.899   7.214  0.9465  1.0101 -0.5948
   65MOL0     H 8902   6.436   5.100   7.133  2.6620 -1.4893 -0.9706
   65MOL0     H 8903   6.268   5.300   7.127 -1.9474 -1.2371  0.1568
   65MOL0     H 8904   6.415   5.390   7.195 -0.5646  0.3785  0.2075
   65MOL0     H 8905   6.266   5.519   7.340 -2.4256 -1.9970  1.6328
   65MOL0     H 8906   6.254   5.556   7.165 -0.8227  0.0616  1.1342
   65MOL0     H 8907   6.063   5.406   7.153 -1.6213  0.3661  0.8961
   65MOL0     H 8908   6.049   5.388   7.331 -1.7137 -1.5324 -2.5045
   65MOL0     H 8909   6.076   5.648   7.329  2.4415  0.4255 -1.7217
   65MOL0     H 8910   6.031   5.639   7.160  2.8064  3.2159  1.8367
   65MOL0     H 8911   5.804   5.543   7.199  0.2125  2.4655 -1.5826
   65MOL0     H 8912   5.822   5.683   7.290  1.6012  0.4289  0.7579
   65MOL0     H 8913   5.708   5.505   7.424  0.1570 -1.0737 -0.5640
   65MOL0     H 8914   5.835   5.404   7.412  2.5705 -0.7155  0.9706
   65MOL0     H 8915   5.992   5.563   7.526 -0.0453 -1.0559  0.3591
   65MOL0     H 8916   5.861   5.508   7.629 -1.4160  1.9891  0.5823
   65MOL0     H 8917   5.926   5.739   7.676 -1.6165  0.7078  2.6933
   65MOL0     H 8918   5.883   5.772   7.502 -0.5410  1.4784  0.3352
   65MOL0     H 8919   5.684   5.600   7.822  1.0979  1.2923 -0.1942
   65MOL0     H 8920   5.451   5.643   7.922  1.2209  0.2422  1.0580
   65MOL0     H 8921   5.331   5.718   7.814  0.0802  0.3327  0.2258
   65MOL0     H 8922   5.354   5.912   7.922  0.7589 -1.9576 -3.1490
   65MOL0     H 8923   5.378   5.814   8.056 -0.4386 -0.5532 -1.4120
   65MOL0     H 8924   5.648   5.833   8.017  0.8259  1.0296  0.7504
   65MOL0     H 8925   5.582   5.965   7.907  0.7000  0.7736  0.1032
   65MOL0     H 8926   5.502   6.084   8.092  3.0091  1.6470  1.2098
   65MOL0     H 8927   5.538   5.945   8.199 -0.0323 -0.4209 -0.6953
   65MOL0     H 8928   5.783   5.866   8.253 -0.6639 -0.2363  0.6246
   65MOL0     H 8929   5.989   5.597   8.157  0.9866  0.5453 -1.3492
   65MOL0     H 8930   5.930   5.691   8.298 -0.1522  0.9699 -0.7951
   65MOL0     H 8931   6.098   5.710   8.253  0.3928  2.9758 -0.2156
   65MOL0     H 8932   6.482   5.883   7.788 -1.4786  1.4053  0.2972
   65MOL0     H 8933   6.634   5.737   7.695  0.4636  0.8952  3.1635
   65MOL0     H 8934   6.776   5.541   7.661 -1.3001  0.6356  0.8986
   65MOL0     H 8935   6.710   5.431   7.783  1.9184  0.2583 -0.2133
   65MOL0     H 8936   6.839   5.288   7.695 -0.5081  1.1062  0.6808
   65MOL0     H 8937   6.702   5.248   7.595  1.8390 -1.3003 -2.3060
   65MOL0     H 8938   6.946   5.270   7.502 -1.1403  0.3891  1.8623
   65MOL0     H 8939   6.910   5.446   7.510 -0.4532 -0.1540  1.2745
   65MOL0     H 8940   6.719   5.426   7.357  0.6281  1.7242  0.4912
   65MOL0     H 8941   6.736   5.250   7.362 -0.6729  0.0825 -1.2906
   65MOL0     H 8942   6.981   5.399   7.271 -0.4628  0.6331  2.7810
   65MOL0     H 8943   6.943   5.232   7.257  0.8529 -0.5769  1.3748
   65MOL0     H 8944   6.907   5.368   7.040  1.4942  2.8455  1.5117
   65MOL0     H 8945   6.786   5.461   7.116  0.7837 -0.0761 -1.7535
   65MOL0     H 8946   6.705   5.275   6.965 -0.0957 -0.5238  0.2095
   65MOL0     H 8947   6.634   5.271   7.127 -0.2051 -0.7105 -0.1908
   65MOL0     H 8948   6.805   5.092   7.180  1.8027 -1.6703 -0.3230
   65MOL0     H 8949   6.887   5.139   7.024 -1.3400 -0.2488 -1.9144
   65MOL0     H 8950   6.342   5.424   7.665 -1.5217  1.1024 -1.9613
   65MOL0     H 8951   6.166   5.578   7.748  0.0547 -1.5976  0.7368
   65MOL0     H 8952   6.052   6.030   7.882 -0.0097 -0.1543  0.1811
   65MOL0     H 8953   5.861   6.158   7.965 -0.7753  0.6339 -0.5051
   65MOL0     H 8954   6.406   5.227   7.549 -3.3330 -3.0464  0.4870
   65MOL0     H 8955   6.555   5.037   7.613 -2.2551 -4.5749  0.4652
   65MOL0     H 8956   6.728   4.660   7.601  1.0781  1.9702 -1.0224
   65MOL0     H 8957   6.850   4.454   7.653 -1.3399 -2.8475 -3.4565
   65MOL0     H 8958   7.207   4.341   7.380  0.1789  0.3711 -0.9472
   65MOL0     H 8959   7.283   4.442   7.506 -0.9634  0.0231  2.0562
   65MOL0     H 8960   7.370   4.228   7.476 -0.7042 -3.4158  0.3881
   65MOL0     H 8961   7.213   4.145   7.518 -0.8675  0.1673  0.5869
   65MOL0     H 8962   7.360   4.344   7.698 -0.4767 -0.0106  2.3224
   65MOL0     H 8963   7.235   4.232   7.753 -0.7910  0.4796  0.0338
   65MOL0     H 8964   7.410   4.044   7.693 -1.4360  1.7880 -4.7179
   65MOL0     H 8965   7.463   4.158   7.827 -2.1133 -0.6075  0.4966
   65MOL0     H 8966   7.759   4.201   7.543  0.5525  1.8265  0.9962
   65MOL0     H 8967   7.120   4.543   7.351  0.6821  1.1123  1.9287
   65MOL0     H 8968   6.976   4.791   7.168 -0.8289  0.6716  0.1287
   65MOL0     H 8969   7.076   4.870   7.283 -0.5381  0.6030  0.2868
   65MOL0     H 8970   7.119   4.705   7.227  1.1965  2.2050 -0.4429
   66MOL0     O 8971   2.125  10.698   6.376  0.1938  0.4943 -0.6647
   66MOL0     C 8972   2.164  10.718   6.259  0.2911  0.4679 -0.8120
   66MOL0     O 8973   2.101  10.788   6.167  0.3319 -0.1442 -0.0144
   66MOL0     C 8974   1.976  10.830   6.199 -0.4241  0.2219  0.2334
   66MOL0     C 8975   1.951  10.968   6.204  0.7654  0.0702 -1.0436
   66MOL0     C 8976   1.816  11.017   6.233 -0.3847  0.1864 -0.3534
   66MOL0     C 8977   1.707  10.935   6.243  0.7261 -0.2017  0.2744
   66MOL0     O 8978   1.577  10.978   6.269  0.2336  0.8047 -0.0360
   66MOL0     C 8979   1.523  11.098   6.213 -0.0924 -0.6681 -0.4937
   66MOL0     C 8980   1.442  11.063   6.087  0.1673 -0.8435 -0.3864
   66MOL0     C 8981   1.331  10.957   6.113 -0.3178  0.0028  1.4098
   66MOL0     C 8982   1.274  10.887   5.985  0.7499 -0.8183  0.0204
   66MOL0     C 8983   1.199  10.765   6.010 -0.1542 -0.5848  0.1709
   66MOL0     C 8984   1.159  10.694   5.882  0.3201  0.6689  0.6952
   66MOL0     C 8985   1.068  10.572   5.912  0.2738 -1.4111 -0.5282
   66MOL0     C 8986   1.054  10.472   5.805  0.2850 -0.5043 -0.9115
   66MOL0     N 8987   0.922  10.453   5.748 -0.0796 -0.4193  0.4750
   66MOL0     C 8988   0.891  10.497   5.623 -0.1872 -0.1348 -0.3353
   66MOL0     C 8989   0.774  10.448   5.606  1.4441  0.2843  0.4010
   66MOL0     C 8990   0.701  10.466   5.479  0.5208 -0.3507  0.6427
   66MOL0     C 8991   0.669  10.346   5.396 -0.2240 -0.0066 -0.2829
   66MOL0     C 8992   0.802  10.288   5.355  0.8122  0.7460  0.2919
   66MOL0     C 8993   0.802  10.173   5.252  0.3681  0.7530 -0.6977
   66MOL0     O 8994   0.746  10.215   5.125  0.3529 -0.7517 -0.0583
   66MOL0     C 8995   0.743  10.107   5.031  0.0316  0.2617 -0.2388
   66MOL0     C 8996   0.661  10.120   4.921 -0.2262 -0.9314 -0.5875
   66MOL0     C 8997   0.639  10.017   4.835  0.2025 -0.5573 -0.0677
   66MOL0     C 8998   0.537  10.036   4.729  0.1861  0.3656 -0.4251
   66MOL0     C 8999   0.701   9.896   4.851 -0.2403  0.6237  0.3950
   66MOL0     C 9000   0.688   9.778   4.765  0.0689  0.4300 -0.4429
   66MOL0     O 9001   0.699   9.651   4.823  0.2993  0.1522 -0.0208
   66MOL0     C 9002   0.682   9.540   4.747 -0.7777  0.2669  0.2046
   66MOL0     C 9003   0.604   9.524   4.637 -0.3626  0.1288 -0.4000
   66MOL0     C 9004   0.611   9.397   4.573 -0.2790 -0.5879 -0.3013
   66MOL0     C 9005   0.672   9.286   4.628 -1.1988 -0.3141  0.0077
   66MOL0     O 9006   0.689   9.163   4.565 -0.1518 -0.5582 -0.0070
   66MOL0     C 9007   0.594   9.125   4.459 -0.2319  0.7018 -0.0880
   66MOL0     C 9008   0.660   9.010   4.394  0.7642  0.2347 -0.8029
   66MOL0     C 9009   0.555   8.943   4.304  0.4162 -0.2069  0.3833
   66MOL0     C 9010   0.571   8.982   4.161  0.0779 -0.4032  0.6469
   66MOL0     C 9011   0.442   8.961   4.075 -0.1368 -0.2054  0.4951
   66MOL0     C 9012   0.464   8.995   3.926 -0.2077  0.3616 -0.1014
   66MOL0     C 9013   0.517   9.139   3.889 -0.5023 -0.5362 -0.2641
   66MOL0     C 9014   0.492   9.166   3.741  1.1811 -0.9010 -0.2248
   66MOL0    Cl 9015   0.593   9.055   3.645  0.1921 -0.3804  0.1806
   66MOL0     C 9016   0.747   9.298   4.742 -1.2146  0.3884 -0.1088
   66MOL0     C 9017   0.758   9.426   4.794 -0.4941 -0.0881 -0.2570
   66MOL0     O 9018   0.690   9.802   4.641  0.3957  0.8118 -0.0127
   66MOL0     C 9019   0.789   9.880   4.952 -0.4694  0.1176  0.7212
   66MOL0     C 9020   0.813   9.980   5.043 -0.4596  0.1565 -0.5291
   66MOL0     N 9021   0.724  10.382   5.720  0.2048 -0.0676  0.4112
   66MOL0     N 9022   0.821  10.380   5.800  0.3213 -0.0844  1.0920
   66MOL0     C 9023   1.730  10.806   6.228 -0.3330 -0.4051  0.9126
   66MOL0     C 9024   1.859  10.747   6.207 -0.5940 -0.2728  0.1679
   66MOL0     C 9025   2.313  10.681   6.223  0.7004  0.8632  0.3723
   66MOL0     C 9026   2.361  10.686   6.087  0.4838  0.4341  0.4663
   66MOL0     C 9027   2.481  10.622   6.045  0.0614 -0.4406 -0.1621
   66MOL0     C 9028   2.571  10.588   6.144  0.3296 -0.0528  0.7373
   66MOL0     O 9029   2.705  10.570   6.102  0.9092 -0.0798 -0.3310
   66MOL0     C 9030   2.741  10.578   5.969 -0.4015 -0.1712 -0.2728
   66MOL0     C 9031   2.879  10.519   5.963 -0.0361  1.1710 -0.2013
   66MOL0     C 9032   2.967  10.609   6.052  0.0137 -0.4204 -0.7414
   66MOL0     C 9033   3.109  10.609   6.008  0.0812  0.1761  0.0377
   66MOL0     C 9034   3.182  10.485   6.047 -0.5382  0.9539 -0.0545
   66MOL0     C 9035   3.232  10.372   6.055  0.4568  0.1337  0.5822
   66MOL0     C 9036   2.531  10.586   6.278 -0.1206  0.0932  1.1880
   66MOL0     C 9037   2.404  10.638   6.324 -0.1902  0.0114 -0.0238
   66MOL0     C 9038   2.377  10.640   6.475 -0.0762  0.4697 -0.0467
   66MOL0     H 9039   2.031  11.041   6.205  1.3979 -0.6083 -1.7659
   66MOL0     H 9040   1.801  11.123   6.248 -1.1264  0.1479 -0.8032
   66MOL0     H 9041   1.609  11.162   6.192  1.8075 -3.0618 -0.4772
   66MOL0     H 9042   1.454  11.139   6.287 -0.6516  0.3704 -1.5528
   66MOL0     H 9043   1.385  11.143   6.040  1.3094  0.4655  0.3835
   66MOL0     H 9044   1.517  11.023   6.017 -0.7517 -3.2535 -0.0809
   66MOL0     H 9045   1.374  10.869   6.162  0.6958  1.1301  2.6257
   66MOL0     H 9046   1.264  11.007   6.183 -1.8361 -0.5247  0.3838
   66MOL0     H 9047   1.210  10.958   5.932  2.1753  1.2438  0.9391
   66MOL0     H 9048   1.357  10.853   5.923  2.1486  0.6294  1.0200
   66MOL0     H 9049   1.103  10.794   6.052 -0.2518 -1.9677  0.9692
   66MOL0     H 9050   1.247  10.701   6.084 -0.3366  0.8578  1.5906
   66MOL0     H 9051   1.103  10.765   5.821  0.6714  0.7071  0.4130
   66MOL0     H 9052   1.249  10.670   5.825  0.1825 -0.1072  0.7935
   66MOL0     H 9053   0.969  10.614   5.932  1.0696 -0.4859  1.8911
   66MOL0     H 9054   1.099  10.522   6.004  3.3424 -1.5965 -1.5334
   66MOL0     H 9055   1.123  10.494   5.722  0.4692 -0.1283 -0.6616
   66MOL0     H 9056   1.080  10.374   5.845  5.0453  0.5636 -0.7262
   66MOL0     H 9057   0.957  10.558   5.562  1.7339 -1.8208 -0.0380
   66MOL0     H 9058   0.763  10.538   5.425 -0.1725  0.7908  1.3289
   66MOL0     H 9059   0.608  10.513   5.511  0.8876 -0.8505  2.5850
   66MOL0     H 9060   0.616  10.275   5.459 -1.8435  0.8652 -0.6231
   66MOL0     H 9061   0.614  10.368   5.304 -0.0246  0.0411 -0.3914
   66MOL0     H 9062   0.854  10.368   5.303  1.5756  0.8070  1.1207
   66MOL0     H 9063   0.854  10.250   5.444  0.2503 -2.2957 -0.5508
   66MOL0     H 9064   0.902  10.130   5.244 -0.2450 -0.8511 -0.0528
   66MOL0     H 9065   0.738  10.096   5.294  0.7730  0.7121 -0.1440
   66MOL0     H 9066   0.608  10.215   4.925  0.2624 -0.6344 -1.1023
   66MOL0     H 9067   0.557   9.984   4.635  0.4692 -0.7435  0.2320
   66MOL0     H 9068   0.524  10.144   4.718 -3.8609  0.1843  0.9410
   66MOL0     H 9069   0.447   9.988   4.771  0.6034 -2.3397 -2.3464
   66MOL0     H 9070   0.550   9.604   4.589  2.0600  1.0431 -1.7968
   66MOL0     H 9071   0.549   9.379   4.485  0.7019 -2.5703 -0.6538
   66MOL0     H 9072   0.493   9.101   4.496  0.5685 -2.2375  0.4738
   66MOL0     H 9073   0.594   9.205   4.384  0.0699  0.5559 -0.2423
   66MOL0     H 9074   0.747   9.034   4.332  0.2546  2.2897 -0.7665
   66MOL0     H 9075   0.685   8.938   4.473  0.8490  1.0365 -0.0894
   66MOL0     H 9076   0.451   8.972   4.324 -0.6629 -0.2935 -4.0270
   66MOL0     H 9077   0.566   8.835   4.316  2.2136 -0.1136 -0.2422
   66MOL0     H 9078   0.656   8.925   4.121  1.1444  0.5912  1.4193
   66MOL0     H 9079   0.592   9.089   4.158 -0.4688 -0.2813  0.9221
   66MOL0     H 9080   0.423   8.854   4.079 -0.2897 -0.1362  2.3541
   66MOL0     H 9081   0.355   9.020   4.104 -0.3727 -0.4978  0.3902
   66MOL0     H 9082   0.377   8.967   3.866 -0.0361 -0.2892 -0.0491
   66MOL0     H 9083   0.541   8.923   3.898 -0.3729 -0.5864  1.7175
   66MOL0     H 9084   0.622   9.152   3.917 -0.6585 -1.7965  1.0551
   66MOL0     H 9085   0.461   9.214   3.946  1.2031  0.3804  0.2585
   66MOL0     H 9086   0.508   9.273   3.724 -1.5271  0.1335  2.7283
   66MOL0     H 9087   0.386   9.147   3.723  0.4186  3.7005 -1.8904
   66MOL0     H 9088   0.812   9.220   4.778 -0.9793  0.7937  0.3620
   66MOL0     H 9089   0.818   9.434   4.884 -1.9020  1.6140  0.5934
   66MOL0     H 9090   0.841   9.788   4.978 -0.6194 -0.0776  0.3315
   66MOL0     H 9091   0.884   9.958   5.123  1.0329 -0.4996 -1.9768
   66MOL0     H 9092   1.647  10.736   6.223 -0.0805 -0.6597 -0.0131
   66MOL0     H 9093   1.871  10.639   6.201 -0.8048 -0.4927  2.6046
   66MOL0     H 9094   2.294  10.725   6.012 -0.7948  0.3837  1.5503
   66MOL0     H 9095   2.497  10.633   5.938 -2.4008 -1.4080 -0.6865
   66MOL0     H 9096   2.682  10.510   5.906 -0.8705  0.6920 -0.7702
   66MOL0     H 9097   2.735  10.673   5.916 -3.6433  0.7002  1.4069
   66MOL0     H 9098   2.916  10.506   5.861  1.0433 -2.1215  0.4802
   66MOL0     H 9099   2.873  10.419   6.008 -0.7642  2.3726  2.5862
   66MOL0     H 9100   2.929  10.710   6.034 -1.3387 -1.2678 -3.0344
   66MOL0     H 9101   2.965  10.596   6.161  1.3626  5.2690  0.2867
   66MOL0     H 9102   3.162  10.690   6.059 -3.6235  4.1961 -1.9220
   66MOL0     H 9103   3.115  10.620   5.900  2.2199 -1.5319 -0.1086
   66MOL0     H 9104   3.278  10.275   6.063  1.0668  0.1027 -2.2252
   66MOL0     H 9105   2.604  10.534   6.339 -0.2805 -0.2791  1.0650
   66MOL0     H 9106   2.298  10.571   6.506  1.8972 -1.2565  1.5106
   66MOL0     H 9107   2.466  10.634   6.539 -1.2545 -1.4280  1.5161
   66MOL0     H 9108   2.347  10.743   6.493  3.5675  1.2182  3.1409
   67MOL0     O 9109  11.438   7.726   5.243 -0.1251  0.4207  0.9795
   67MOL0     C 9110  11.355   7.750   5.152  0.1031  1.2288  0.1275
   67MOL0     O 9111  11.365   7.707   5.029 -0.7036 -0.5871  0.8290
   67MOL0     C 9112  11.442   7.607   4.998 -0.7363  1.1377  0.4121
   67MOL0     C 9113  11.396   7.475   5.026  0.0831  0.2705 -0.1974
   67MOL0     C 9114  11.487   7.371   5.019 -0.0245 -0.6596 -0.4029
   67MOL0     C 9115  11.622   7.381   4.979  0.0428 -0.5997  0.3904
   67MOL0     O 9116  11.707   7.275   4.965  1.0387 -0.2909  0.0507
   67MOL0     C 9117  11.807   7.272   5.070  0.4821  0.1816  0.6157
   67MOL0     C 9118  11.899   7.163   5.035  0.3968  0.3529 -0.3732
   67MOL0     C 9119  11.929   7.077   5.154  0.2259 -0.0105 -1.2262
   67MOL0     C 9120  11.989   6.952   5.091 -0.0523  0.8500 -0.5462
   67MOL0     C 9121  12.040   6.864   5.202  0.7824 -0.0156 -0.3181
   67MOL0     C 9122  12.119   6.738   5.154 -0.2693 -0.3692 -0.1293
   67MOL0     C 9123  12.096   6.677   5.008 -0.7396  0.7318 -0.1646
   67MOL0     C 9124  12.197   6.571   4.968 -0.4254  1.0353  0.4501
   67MOL0     N 9125  12.209   6.451   5.055 -0.6405 -0.1537  0.9732
   67MOL0     C 9126  12.102   6.376   5.096 -0.8610  0.4290  0.6962
   67MOL0     C 9127  12.155   6.299   5.196 -0.1280  1.2211  0.4013
   67MOL0     C 9128  12.083   6.191   5.274 -0.2168 -0.4640  0.3936
   67MOL0     C 9129  11.928   6.228   5.291 -0.7425 -0.5534 -0.5401
   67MOL0     C 9130  11.907   6.365   5.359 -0.2638 -0.5468 -0.1905
   67MOL0     C 9131  11.763   6.391   5.383 -0.6075 -0.5177 -0.3227
   67MOL0     O 9132  11.754   6.515   5.454 -0.1724 -0.3438  0.3453
   67MOL0     C 9133  11.631   6.559   5.476 -0.3418 -0.8510 -0.6650
   67MOL0     C 9134  11.501   6.495   5.454  0.7172 -0.0236 -0.5913
   67MOL0     C 9135  11.374   6.563   5.452  1.3675  0.3340  0.7533
   67MOL0     C 9136  11.246   6.482   5.430  0.7598 -0.3067  1.2089
   67MOL0     C 9137  11.371   6.697   5.494  0.3871  0.3675  0.0886
   67MOL0     C 9138  11.253   6.779   5.507 -0.9242 -0.0819 -0.6350
   67MOL0     O 9139  11.225   6.822   5.630 -0.0779 -0.2270 -0.7729
   67MOL0     C 9140  11.114   6.882   5.680 -1.1331  0.1676  0.9449
   67MOL0     C 9141  11.006   6.930   5.606 -0.4013 -0.4716  0.6647
   67MOL0     C 9142  10.884   6.967   5.665 -0.4194 -0.8889 -0.9869
   67MOL0     C 9143  10.873   6.953   5.807  0.1068 -0.1630 -0.7848
   67MOL0     O 9144  10.754   6.997   5.861 -0.0671  0.2420  0.6233
   67MOL0     C 9145  10.711   6.969   5.993  0.0438 -0.6253 -0.7404
   67MOL0     C 9146  10.564   6.961   5.989  1.4864  0.4473  0.5059
   67MOL0     C 9147  10.491   6.975   6.125  0.4938  0.0871 -0.1779
   67MOL0     C 9148  10.537   6.869   6.225  0.2484 -0.3258  0.6546
   67MOL0     C 9149  10.503   6.908   6.371 -0.8254  0.3402 -0.1256
   67MOL0     C 9150  10.446   6.788   6.452  0.9158  0.6590 -0.5576
   67MOL0     C 9151  10.539   6.663   6.458  0.4906 -0.2840 -0.4873
   67MOL0     C 9152  10.533   6.606   6.598 -0.7286 -0.8102  0.4815
   67MOL0    Cl 9153  10.368   6.560   6.640  0.0796  0.2279 -0.0538
   67MOL0     C 9154  10.978   6.912   5.883  0.1147 -0.1058  1.2308
   67MOL0     C 9155  11.099   6.877   5.820 -0.0972  0.0529 -0.1439
   67MOL0     O 9156  11.184   6.788   5.411  0.2181 -0.5451  0.4799
   67MOL0     C 9157  11.491   6.753   5.545  0.3696 -0.6086 -0.2896
   67MOL0     C 9158  11.616   6.687   5.530 -0.2587  0.2739 -0.3853
   67MOL0     N 9159  12.288   6.328   5.209 -0.0049 -0.1850 -0.5387
   67MOL0     N 9160  12.316   6.434   5.138 -0.3628  0.4899  0.3848
   67MOL0     C 9161  11.661   7.504   4.940 -0.2781 -0.1619 -0.8430
   67MOL0     C 9162  11.574   7.618   4.949  1.0469  0.9442  0.1463
   67MOL0     C 9163  11.268   7.857   5.178  0.3895  0.8805 -0.4085
   67MOL0     C 9164  11.309   7.978   5.230 -0.0142  0.1159 -0.4282
   67MOL0     C 9165  11.232   8.090   5.249  0.9757  0.3854  0.1318
   67MOL0     C 9166  11.097   8.082   5.220  0.0234  0.1341 -0.0195
   67MOL0     O 9167  11.032   8.198   5.227  0.4309 -0.5666 -0.4534
   67MOL0     C 9168  10.891   8.197   5.252 -0.0047  0.2853  0.5597
   67MOL0     C 9169  10.818   8.322   5.244  0.3944 -1.2245  0.0704
   67MOL0     C 9170  10.802   8.374   5.099 -0.6206 -0.4837  0.0976
   67MOL0     C 9171  10.695   8.482   5.096 -0.5649  0.5275  0.3752
   67MOL0     C 9172  10.723   8.606   5.174  0.4501  0.2272  1.1882
   67MOL0     C 9173  10.737   8.713   5.229  0.3720 -0.4766 -0.5213
   67MOL0     C 9174  11.047   7.960   5.173  0.3422  0.3080 -0.6617
   67MOL0     C 9175  11.129   7.841   5.151  0.3462 -0.4521 -0.1559
   67MOL0     C 9176  11.059   7.715   5.109  0.0870 -0.4316 -0.3523
   67MOL0     H 9177  11.293   7.455   5.055  0.3436 -0.1567  0.4463
   67MOL0     H 9178  11.434   7.277   5.032  0.2593 -0.6789  0.6824
   67MOL0     H 9179  11.758   7.250   5.165 -0.3474 -0.2320  0.0972
   67MOL0     H 9180  11.853   7.371   5.085 -1.6713  1.1833  0.9168
   67MOL0     H 9181  11.857   7.109   4.950  0.0457 -1.2387  0.7695
   67MOL0     H 9182  11.987   7.217   4.999  1.0694 -1.1951 -1.1077
   67MOL0     H 9183  12.002   7.123   5.221  0.6531 -1.7575 -0.4364
   67MOL0     H 9184  11.843   7.057   5.220  2.6919  0.7630  2.5830
   67MOL0     H 9185  11.915   6.892   5.037  2.0231 -1.3911 -1.0293
   67MOL0     H 9186  12.062   6.978   5.014 -0.5757  0.7279 -1.0897
   67MOL0     H 9187  11.945   6.834   5.246  0.3053 -0.3202 -1.5064
   67MOL0     H 9188  12.096   6.930   5.269 -0.5193 -0.0406  0.8174
   67MOL0     H 9189  12.225   6.761   5.166 -0.3415 -0.1754  0.1395
   67MOL0     H 9190  12.107   6.658   5.227 -4.1689 -2.0893 -2.3313
   67MOL0     H 9191  12.115   6.751   4.930  2.4431 -0.5839 -0.7746
   67MOL0     H 9192  11.998   6.633   4.988  1.1494 -3.4438 -1.2424
   67MOL0     H 9193  12.174   6.527   4.871 -1.2790 -3.5278  2.4535
   67MOL0     H 9194  12.296   6.619   4.963  0.6629 -1.1488 -0.0746
   67MOL0     H 9195  12.002   6.386   5.056 -0.1051  1.4459 -1.0830
   67MOL0     H 9196  12.127   6.180   5.373  0.5617  2.2505  0.4157
   67MOL0     H 9197  12.086   6.090   5.231  0.6621 -1.8482  3.4409
   67MOL0     H 9198  11.892   6.241   5.188 -3.1028  3.3718  0.5937
   67MOL0     H 9199  11.868   6.150   5.339  1.8353 -2.0200  0.4830
   67MOL0     H 9200  11.966   6.356   5.451 -0.0141  1.3340 -0.1445
   67MOL0     H 9201  11.934   6.446   5.292 -3.2034 -1.0414 -2.1147
   67MOL0     H 9202  11.714   6.394   5.286 -0.5177  3.1628 -0.4142
   67MOL0     H 9203  11.711   6.315   5.442 -0.3073  1.1941  2.3647
   67MOL0     H 9204  11.494   6.389   5.430 -1.4211 -0.2301  0.7412
   67MOL0     H 9205  11.177   6.526   5.358  1.8549 -3.7906 -2.3252
   67MOL0     H 9206  11.196   6.469   5.527  1.8018  0.7463  1.9084
   67MOL0     H 9207  11.272   6.385   5.385  3.1854 -0.1110  2.0595
   67MOL0     H 9208  10.998   6.938   5.498  1.3853 -2.9783  0.2630
   67MOL0     H 9209  10.796   7.004   5.614 -0.0431  0.9584 -0.3716
   67MOL0     H 9210  10.731   6.865   6.020 -4.3386 -1.0640  1.8093
   67MOL0     H 9211  10.756   7.040   6.063  2.9718 -2.3748 -0.6793
   67MOL0     H 9212  10.540   7.051   5.932  5.9857  0.6781 -1.4407
   67MOL0     H 9213  10.535   6.870   5.934  2.8319  0.9881 -1.2127
   67MOL0     H 9214  10.384   6.962   6.107  0.1576  3.7746 -1.7386
   67MOL0     H 9215  10.505   7.075   6.165 -0.3091  1.0411 -2.1195
   67MOL0     H 9216  10.640   6.834   6.210 -0.4702 -1.3227 -2.7272
   67MOL0     H 9217  10.484   6.777   6.200  3.2286 -2.3006  1.0100
   67MOL0     H 9218  10.590   6.959   6.413 -1.5284  1.2934  0.2365
   67MOL0     H 9219  10.418   6.978   6.370 -1.2390  0.1367  3.8063
   67MOL0     H 9220  10.349   6.767   6.405  2.2893  3.2922 -5.1852
   67MOL0     H 9221  10.421   6.823   6.553  0.2452  2.6235 -1.3506
   67MOL0     H 9222  10.640   6.694   6.430  0.8954  0.6449  1.7396
   67MOL0     H 9223  10.505   6.583   6.391 -0.3773 -1.7097  1.5432
   67MOL0     H 9224  10.559   6.684   6.670  0.7803 -0.0396 -0.8210
   67MOL0     H 9225  10.603   6.524   6.584  0.1913  0.2838 -1.9103
   67MOL0     H 9226  10.952   6.908   5.989  1.0161 -1.4581  1.4241
   67MOL0     H 9227  11.184   6.863   5.886  0.8506 -0.8024 -1.5033
   67MOL0     H 9228  11.490   6.855   5.581 -2.5621 -0.5360 -0.3285
   67MOL0     H 9229  11.707   6.744   5.545 -1.3442  2.6007 -2.0002
   67MOL0     H 9230  11.756   7.502   4.888  0.0645  0.0534 -0.2294
   67MOL0     H 9231  11.627   7.706   4.914  0.7167  0.8214 -0.6740
   67MOL0     H 9232  11.415   7.986   5.249  0.1256 -0.8438 -0.7526
   67MOL0     H 9233  11.270   8.183   5.290 -0.4623  1.3121 -0.5388
   67MOL0     H 9234  10.838   8.126   5.188  0.1332  0.0072  0.7565
   67MOL0     H 9235  10.877   8.154   5.352  0.3058  0.2056  0.5668
   67MOL0     H 9236  10.866   8.399   5.306  0.3423 -0.9761 -0.1930
   67MOL0     H 9237  10.718   8.302   5.282 -0.9616 -1.5975 -3.2942
   67MOL0     H 9238  10.898   8.416   5.069 -1.3379  0.2335 -1.3305
   67MOL0     H 9239  10.775   8.302   5.021  1.0828  0.5829 -1.5655
   67MOL0     H 9240  10.603   8.433   5.128  0.2479 -1.3085  0.0472
   67MOL0     H 9241  10.678   8.500   4.990  2.0124 -1.8351 -0.5605
   67MOL0     H 9242  10.725   8.810   5.273 -0.4083 -0.3997 -0.8926
   67MOL0     H 9243  10.940   7.950   5.161  0.0603  1.1543  0.9871
   67MOL0     H 9244  11.029   7.724   5.004  0.1180  0.9497 -0.2625
   67MOL0     H 9245  11.126   7.628   5.112 -1.3761 -1.6610 -1.6157
   67MOL0     H 9246  10.972   7.688   5.170  2.3700 -1.7151  2.5762
   68MOL0     O 9247   6.583   4.594   2.576 -0.7055  0.2680  0.3115
   68MOL0     C 9248   6.555   4.617   2.695  0.2115 -0.4327 -0.1621
   68MOL0     O 9249   6.645   4.618   2.799  0.2832  0.5645 -0.4614
   68MOL0     C 9250   6.770   4.565   2.774  0.2745  0.1260 -0.6316
   68MOL0     C 9251   6.871   4.637   2.704 -0.9456 -0.3646 -0.1948
   68MOL0     C 9252   6.993   4.580   2.669 -0.8219 -0.3205  1.4757
   68MOL0     C 9253   7.010   4.437   2.690  0.2462 -1.1758  0.0154
   68MOL0     O 9254   7.114   4.373   2.646  0.0014  0.3682 -0.1355
   68MOL0     C 9255   7.122   4.348   2.503 -0.8278  0.8245 -0.2409
   68MOL0     C 9256   7.259   4.387   2.451  0.7901  0.3005  0.1619
   68MOL0     C 9257   7.272   4.386   2.300  0.0750 -0.2433  0.0981
   68MOL0     C 9258   7.225   4.512   2.228 -0.6129  0.6389 -0.6113
   68MOL0     C 9259   7.265   4.530   2.081 -0.3715 -0.7393  0.6480
   68MOL0     C 9260   7.421   4.540   2.063 -0.6702  0.8546  0.0707
   68MOL0     C 9261   7.449   4.531   1.909  0.8648 -0.2625  0.3602
   68MOL0     C 9262   7.402   4.643   1.824  0.1327 -0.5083  0.1975
   68MOL0     N 9263   7.458   4.774   1.861  0.3209  0.1570 -0.0697
   68MOL0     C 9264   7.585   4.810   1.841 -0.5184 -0.5067  0.8530
   68MOL0     C 9265   7.593   4.937   1.877  0.8402 -0.4474 -0.2222
   68MOL0     C 9266   7.711   5.032   1.875 -0.2926  0.4574  0.9664
   68MOL0     C 9267   7.682   5.184   1.865  1.1245  0.0742  0.0920
   68MOL0     C 9268   7.710   5.265   2.000  0.0734 -0.0953  0.0890
   68MOL0     C 9269   7.586   5.272   2.093  0.3888  0.7645  0.7016
   68MOL0     O 9270   7.496   5.365   2.032  0.6385  0.1954  0.1738
   68MOL0     C 9271   7.366   5.376   2.087 -0.6754 -0.2084 -0.7231
   68MOL0     C 9272   7.271   5.446   2.016  0.0175 -0.5929  0.1944
   68MOL0     C 9273   7.137   5.463   2.062 -0.5767 -0.1621  0.2299
   68MOL0     C 9274   7.045   5.563   1.996 -0.3677  0.1226 -0.2372
   68MOL0     C 9275   7.103   5.387   2.177  0.0484  0.4116  0.0766
   68MOL0     C 9276   6.960   5.375   2.218 -0.4688  0.9537  0.2371
   68MOL0     O 9277   6.928   5.438   2.331 -0.2999 -0.4038 -0.0568
   68MOL0     C 9278   6.795   5.461   2.367  0.4893 -1.1558 -0.0595
   68MOL0     C 9279   6.708   5.355   2.412 -0.4007  0.2997 -0.2376
   68MOL0     C 9280   6.584   5.402   2.448 -0.4967  0.2024  0.3476
   68MOL0     C 9281   6.533   5.535   2.440  0.5146  1.1385  0.1342
   68MOL0     O 9282   6.405   5.574   2.479  0.4535 -0.1257  0.6791
   68MOL0     C 9283   6.299   5.482   2.534 -1.2013  0.4611  0.9569
   68MOL0     C 9284   6.193   5.434   2.445  0.5523  0.0257 -0.3113
   68MOL0     C 9285   6.077   5.372   2.531 -0.1254 -0.3113 -0.9436
   68MOL0     C 9286   5.953   5.332   2.448 -0.0994 -0.0603  0.4038
   68MOL0     C 9287   5.813   5.343   2.505 -0.1357 -0.7535 -0.2784
   68MOL0     C 9288   5.772   5.480   2.576 -1.2041 -0.8087  0.7742
   68MOL0     C 9289   5.766   5.593   2.473  0.2372 -0.0353 -0.2087
   68MOL0     C 9290   5.652   5.557   2.370  0.3327 -0.7299 -0.4060
   68MOL0    Cl 9291   5.500   5.564   2.463  0.2025  0.3346 -0.0756
   68MOL0     C 9292   6.621   5.632   2.400  0.3602  0.1084 -0.2924
   68MOL0     C 9293   6.755   5.589   2.365  0.0198 -1.4372 -0.1233
   68MOL0     O 9294   6.884   5.320   2.136  0.4187  0.3315 -0.1871
   68MOL0     C 9295   7.197   5.322   2.257  0.7544 -0.7530 -0.2068
   68MOL0     C 9296   7.327   5.312   2.212 -0.0219  0.6562 -0.0567
   68MOL0     N 9297   7.476   4.963   1.947  0.3840  0.4180  0.6308
   68MOL0     N 9298   7.388   4.872   1.929  0.6226 -0.1608 -0.0025
   68MOL0     C 9299   6.914   4.370   2.765 -0.2567 -0.4016  0.1384
   68MOL0     C 9300   6.794   4.430   2.802 -0.5990 -0.1824 -0.0333
   68MOL0     C 9301   6.416   4.663   2.726 -0.4229 -0.7096 -0.7660
   68MOL0     C 9302   6.412   4.752   2.835 -0.2573 -0.5095 -0.6766
   68MOL0     C 9303   6.301   4.776   2.906  0.0552 -0.2417  0.1336
   68MOL0     C 9304   6.187   4.720   2.855 -0.0615 -0.2715 -0.5923
   68MOL0     O 9305   6.061   4.759   2.897  0.4266 -0.5717 -1.0473
   68MOL0     C 9306   6.043   4.806   3.032 -0.5333  0.1682 -0.2581
   68MOL0     C 9307   5.921   4.744   3.096 -0.6413  1.1076  0.3418
   68MOL0     C 9308   5.793   4.809   3.044 -0.2024 -0.0467 -0.0040
   68MOL0     C 9309   5.663   4.733   3.098 -0.0859  0.3384 -0.1178
   68MOL0     C 9310   5.653   4.607   3.025 -0.3422 -0.3297 -0.2400
   68MOL0     C 9311   5.630   4.504   2.967  0.5449 -0.2528 -1.2138
   68MOL0     C 9312   6.185   4.631   2.750  0.1572  0.3314 -0.9054
   68MOL0     C 9313   6.296   4.603   2.677  0.4921  0.2865 -0.6270
   68MOL0     C 9314   6.295   4.499   2.572  0.2298  0.0123  0.5036
   68MOL0     H 9315   6.852   4.737   2.664  2.4057 -0.0737 -1.4351
   68MOL0     H 9316   7.062   4.630   2.602 -0.8388 -1.2375  0.7551
   68MOL0     H 9317   7.058   4.406   2.435 -1.2942 -2.2916 -2.6867
   68MOL0     H 9318   7.112   4.241   2.485 -1.9001  0.8787 -0.0032
   68MOL0     H 9319   7.286   4.483   2.496  1.9415 -0.2858  0.7877
   68MOL0     H 9320   7.336   4.318   2.488  1.9988  1.2981 -0.4429
   68MOL0     H 9321   7.381   4.379   2.288 -0.0637 -2.3030 -0.2600
   68MOL0     H 9322   7.230   4.291   2.267 -0.3590 -0.2034  0.5292
   68MOL0     H 9323   7.116   4.519   2.238 -0.5665  0.4363  0.0728
   68MOL0     H 9324   7.264   4.598   2.283  0.2059  1.1094 -1.8671
   68MOL0     H 9325   7.214   4.620   2.044 -1.1425 -2.1122 -1.8605
   68MOL0     H 9326   7.226   4.442   2.029 -0.9539  0.9877 -2.0453
   68MOL0     H 9327   7.466   4.636   2.089 -1.9131  1.9374 -1.5385
   68MOL0     H 9328   7.475   4.455   2.106  1.2542  0.1797 -3.2906
   68MOL0     H 9329   7.405   4.438   1.871 -3.2686  1.5528  0.1517
   68MOL0     H 9330   7.557   4.536   1.893  0.3693  1.5172 -4.1990
   68MOL0     H 9331   7.422   4.627   1.718 -0.3317  2.0266 -0.3335
   68MOL0     H 9332   7.294   4.660   1.832  0.0378 -1.6578  2.3196
   68MOL0     H 9333   7.668   4.752   1.802  0.2701  1.6407 -0.8610
   68MOL0     H 9334   7.768   5.012   1.784  1.0049 -0.2449  1.9080
   68MOL0     H 9335   7.781   5.011   1.957 -0.6909  0.3690  1.2876
   68MOL0     H 9336   7.732   5.225   1.776 -0.0029  0.8350 -0.2166
   68MOL0     H 9337   7.574   5.195   1.848  0.8125  1.2568  2.4770
   68MOL0     H 9338   7.784   5.199   2.047 -1.6990 -2.0427  0.2947
   68MOL0     H 9339   7.746   5.361   1.962 -1.8223 -0.0106 -1.6506
   68MOL0     H 9340   7.543   5.172   2.099  1.9471  0.0650  0.7209
   68MOL0     H 9341   7.620   5.314   2.188  1.3334  0.7283  0.3851
   68MOL0     H 9342   7.299   5.506   1.931 -2.5718  1.7541  0.8561
   68MOL0     H 9343   6.946   5.517   1.993  1.4520 -4.5350  1.3587
   68MOL0     H 9344   7.078   5.592   1.896 -1.0376  1.2518 -0.1408
   68MOL0     H 9345   7.030   5.654   2.055 -0.5224  0.6703 -1.0944
   68MOL0     H 9346   6.749   5.254   2.416  2.2661  1.3410  2.0018
   68MOL0     H 9347   6.505   5.332   2.475 -0.8996  1.7815  3.8481
   68MOL0     H 9348   6.342   5.397   2.588 -1.2388 -0.7181 -0.7911
   68MOL0     H 9349   6.241   5.539   2.608 -0.9283  1.2645  0.5630
   68MOL0     H 9350   6.160   5.515   2.379 -2.1185 -0.5185  0.2302
   68MOL0     H 9351   6.236   5.352   2.386 -1.4102  0.0390 -1.9081
   68MOL0     H 9352   6.039   5.447   2.600 -2.3628 -0.3544 -2.0555
   68MOL0     H 9353   6.104   5.285   2.592 -1.5657  1.4624  2.5001
   68MOL0     H 9354   5.964   5.227   2.421 -0.4729 -0.7474  2.7305
   68MOL0     H 9355   5.960   5.397   2.360  1.7922 -0.7907 -0.0308
   68MOL0     H 9356   5.724   5.303   2.455 -1.5774  2.5558 -0.6762
   68MOL0     H 9357   5.823   5.290   2.600 -0.9697  3.0057  2.1280
   68MOL0     H 9358   5.851   5.502   2.649 -0.0894 -0.3693 -0.5125
   68MOL0     H 9359   5.677   5.467   2.629 -1.4221 -1.6065  0.2032
   68MOL0     H 9360   5.851   5.625   2.412  0.0163  0.3741 -0.3109
   68MOL0     H 9361   5.730   5.676   2.534 -0.1178  0.7722 -1.4620
   68MOL0     H 9362   5.650   5.457   2.326  0.0476 -1.7611  1.8181
   68MOL0     H 9363   5.651   5.632   2.289 -0.3003  2.1733  2.1019
   68MOL0     H 9364   6.596   5.738   2.403  2.4207  0.6340  0.8619
   68MOL0     H 9365   6.817   5.669   2.327 -0.2102 -2.0166 -1.7990
   68MOL0     H 9366   7.164   5.266   2.344  2.5564 -1.0718  0.3060
   68MOL0     H 9367   7.381   5.241   2.273 -0.7051  0.7735  0.6998
   68MOL0     H 9368   6.923   4.264   2.785 -2.1557 -0.5919  0.0851
   68MOL0     H 9369   6.721   4.362   2.846  1.7522 -1.1237  2.6699
   68MOL0     H 9370   6.502   4.797   2.876 -0.3579 -1.0178  0.1161
   68MOL0     H 9371   6.290   4.859   2.975 -2.5646  0.1690 -0.6996
   68MOL0     H 9372   6.128   4.778   3.096 -2.3234 -1.0492  1.7215
   68MOL0     H 9373   6.031   4.915   3.026 -3.4540  0.0342  1.2392
   68MOL0     H 9374   5.911   4.761   3.204 -1.6009 -1.2249  0.6699
   68MOL0     H 9375   5.914   4.635   3.084 -0.2984  0.9330  1.5835
   68MOL0     H 9376   5.790   4.910   3.086 -3.4249  0.6064 -1.5612
   68MOL0     H 9377   5.797   4.806   2.935  1.1805  1.8258 -0.0599
   68MOL0     H 9378   5.568   4.785   3.085  0.4781  1.2579 -0.7206
   68MOL0     H 9379   5.674   4.721   3.206 -2.5398  0.2517  0.1670
   68MOL0     H 9380   5.610   4.408   2.923  3.3273 -1.2344 -0.4897
   68MOL0     H 9381   6.082   4.604   2.729 -0.5634  1.3397  1.0090
   68MOL0     H 9382   6.305   4.398   2.613 -0.7073 -1.0125 -1.6297
   68MOL0     H 9383   6.201   4.507   2.517 -1.5581  2.5538  3.6131
   68MOL0     H 9384   6.374   4.510   2.497 -0.0066  0.5239  0.3292
   69MOL0     O 9385   8.637   0.834   5.629 -0.1997  0.1773 -0.4684
   69MOL0     C 9386   8.595   0.724   5.639 -0.2663 -0.0907  0.7933
   69MOL0     O 9387   8.637   0.609   5.563 -0.2192 -0.0508 -0.4047
   69MOL0     C 9388   8.679   0.619   5.441 -0.1245  0.1019  0.1684
   69MOL0     C 9389   8.603   0.686   5.349  0.5105  0.3668 -0.0279
   69MOL0     C 9390   8.668   0.719   5.228  0.7183  0.4175  0.9314
   69MOL0     C 9391   8.792   0.664   5.189  0.5292  0.6205 -0.0188
   69MOL0     O 9392   8.846   0.684   5.063 -0.6141  0.4847  0.5304
   69MOL0     C 9393   8.790   0.590   4.975  0.7628 -0.1617  0.2184
   69MOL0     C 9394   8.886   0.595   4.854  0.4356  0.8739 -0.7203
   69MOL0     C 9395   8.856   0.716   4.763 -0.6873  0.1712 -0.2220
   69MOL0     C 9396   8.977   0.771   4.686 -0.6412 -0.5044  0.6077
   69MOL0     C 9397   8.928   0.885   4.595 -0.3860  0.2610 -0.5430
   69MOL0     C 9398   9.042   0.950   4.529 -0.2634 -0.0441  1.1827
   69MOL0     C 9399   8.997   1.034   4.406  0.9917  0.4045 -0.1471
   69MOL0     C 9400   9.112   1.105   4.340  0.5798  0.8297 -0.4435
   69MOL0     N 9401   9.189   1.026   4.239  0.2528  0.1589  0.1481
   69MOL0     C 9402   9.328   1.036   4.235  0.2412 -0.2083  0.9933
   69MOL0     C 9403   9.368   0.958   4.134 -0.0981 -0.2328 -0.4955
   69MOL0     C 9404   9.513   0.910   4.105  0.5891  0.9817 -0.3658
   69MOL0     C 9405   9.563   0.800   4.203  0.0514 -0.1193 -0.6763
   69MOL0     C 9406   9.491   0.675   4.187  0.6817  0.6473 -0.2911
   69MOL0     C 9407   9.477   0.583   4.313 -0.1091  0.1735 -0.0024
   69MOL0     O 9408   9.446   0.659   4.433  0.5125  0.2189 -0.2662
   69MOL0     C 9409   9.462   0.597   4.552  1.1062 -0.1988  0.7457
   69MOL0     C 9410   9.454   0.679   4.662 -0.7346  0.4166  0.8426
   69MOL0     C 9411   9.462   0.633   4.796  0.2994  0.2225  0.1315
   69MOL0     C 9412   9.464   0.732   4.913  0.1303 -0.8204  0.6230
   69MOL0     C 9413   9.467   0.497   4.819  0.0398 -0.5390 -0.7044
   69MOL0     C 9414   9.450   0.442   4.953  0.0935 -0.0047 -0.0406
   69MOL0     O 9415   9.329   0.374   4.973 -0.3495 -0.5383  0.6128
   69MOL0     C 9416   9.294   0.358   5.103  0.1088  0.1325 -0.7133
   69MOL0     C 9417   9.268   0.231   5.146 -0.5687 -0.8955 -0.2645
   69MOL0     C 9418   9.214   0.203   5.274 -1.3534 -0.1959 -1.5930
   69MOL0     C 9419   9.211   0.302   5.370 -0.9777 -0.5205  0.0478
   69MOL0     O 9420   9.189   0.270   5.499  0.9356  0.3571 -0.2320
   69MOL0     C 9421   9.273   0.346   5.588  0.3135 -0.6672 -0.2535
   69MOL0     C 9422   9.247   0.295   5.728  0.1494 -0.5808  0.2228
   69MOL0     C 9423   9.334   0.352   5.834 -0.6371 -1.2452  0.0176
   69MOL0     C 9424   9.307   0.307   5.977  0.6617  0.3916 -1.0383
   69MOL0     C 9425   9.408   0.349   6.080 -0.2631  0.0972 -0.6030
   69MOL0     C 9426   9.430   0.496   6.107 -0.7068 -0.2753 -0.1220
   69MOL0     C 9427   9.308   0.557   6.171 -0.6322 -1.0890  0.0479
   69MOL0     C 9428   9.319   0.711   6.186  0.4205 -0.4618  0.3750
   69MOL0    Cl 9429   9.306   0.802   6.026  0.1494  0.2356  0.2576
   69MOL0     C 9430   9.219   0.435   5.317  0.1651 -1.4035 -0.5138
   69MOL0     C 9431   9.266   0.463   5.192 -0.4925  0.7720 -0.5255
   69MOL0     O 9432   9.549   0.446   5.029  0.0605 -0.0861 -0.7515
   69MOL0     C 9433   9.490   0.409   4.710 -0.0367  0.0391  0.5263
   69MOL0     C 9434   9.486   0.458   4.574 -0.2893  0.4844 -0.4041
   69MOL0     N 9435   9.257   0.905   4.073  0.0360 -0.0867 -0.1011
   69MOL0     N 9436   9.147   0.943   4.140 -0.2101 -1.2404  0.2985
   69MOL0     C 9437   8.861   0.584   5.281 -0.0230 -0.1220 -0.2648
   69MOL0     C 9438   8.806   0.560   5.408  0.9927  0.4217 -0.1963
   69MOL0     C 9439   8.494   0.705   5.745 -0.2165 -0.9896 -0.2186
   69MOL0     C 9440   8.474   0.810   5.839 -0.1833 -1.1854  0.4178
   69MOL0     C 9441   8.369   0.804   5.930  0.5011  0.8598 -0.5376
   69MOL0     C 9442   8.298   0.682   5.952 -0.4003 -0.2078  0.4278
   69MOL0     O 9443   8.207   0.656   6.049  0.1344  0.1331  0.2359
   69MOL0     C 9444   8.164   0.771   6.122  0.4395 -0.6440 -0.5090
   69MOL0     C 9445   8.054   0.713   6.228 -0.7498  0.3239 -0.1908
   69MOL0     C 9446   7.982   0.820   6.312  1.0778 -0.1578 -0.4371
   69MOL0     C 9447   7.839   0.776   6.365 -0.3526  0.1947  0.3335
   69MOL0     C 9448   7.777   0.875   6.451 -0.5153  0.5581 -0.5649
   69MOL0     C 9449   7.719   0.943   6.530  0.3803  0.2400 -0.2901
   69MOL0     C 9450   8.308   0.588   5.851 -0.4011  0.1942 -0.3406
   69MOL0     C 9451   8.407   0.596   5.753 -0.8323  0.2095 -0.0166
   69MOL0     C 9452   8.402   0.485   5.652 -0.3919  0.8093 -0.0595
   69MOL0     H 9453   8.503   0.718   5.376 -0.2418 -1.9512  0.2181
   69MOL0     H 9454   8.632   0.782   5.146  2.4042  1.0167  0.6041
   69MOL0     H 9455   8.693   0.624   4.938  1.8428  3.0459  0.0759
   69MOL0     H 9456   8.792   0.488   5.014 -0.1974 -0.3725 -0.2552
   69MOL0     H 9457   8.990   0.585   4.888 -0.1383  0.7966  1.1457
   69MOL0     H 9458   8.876   0.506   4.792  3.3805 -1.1999  1.5060
   69MOL0     H 9459   8.773   0.694   4.696 -0.0894 -0.6494 -0.7124
   69MOL0     H 9460   8.828   0.796   4.832  1.0434  0.7098 -0.0893
   69MOL0     H 9461   9.059   0.807   4.749  0.8820 -1.0623 -0.9758
   69MOL0     H 9462   9.029   0.704   4.617  1.3371  1.8427 -0.3379
   69MOL0     H 9463   8.868   0.959   4.649 -4.7913 -0.0734 -4.3542
   69MOL0     H 9464   8.871   0.846   4.510  1.8117  1.1876 -2.5569
   69MOL0     H 9465   9.104   1.013   4.593  2.3985 -1.1901 -0.0757
   69MOL0     H 9466   9.109   0.878   4.479  0.3843  3.0292 -2.9221
   69MOL0     H 9467   8.926   1.111   4.438  1.0204  0.6427 -0.6482
   69MOL0     H 9468   8.947   0.970   4.332  0.3689 -0.1916  0.7751
   69MOL0     H 9469   9.067   1.187   4.283 -2.3321 -0.8301 -0.7734
   69MOL0     H 9470   9.183   1.137   4.416  1.3074 -0.9531 -0.3228
   69MOL0     H 9471   9.392   1.100   4.294 -1.0911  0.5617  1.6480
   69MOL0     H 9472   9.584   0.992   4.098  3.5856 -1.2056  1.7738
   69MOL0     H 9473   9.516   0.864   4.006 -0.4131 -1.6634  0.7118
   69MOL0     H 9474   9.665   0.778   4.169 -1.2328 -2.6462 -3.2607
   69MOL0     H 9475   9.555   0.847   4.302  0.2105  1.0311 -1.1881
   69MOL0     H 9476   9.389   0.703   4.160  1.9252  3.0324 -3.0517
   69MOL0     H 9477   9.529   0.620   4.101 -1.7818  1.9303 -2.3401
   69MOL0     H 9478   9.399   0.507   4.297  1.2636 -1.3643  0.2948
   69MOL0     H 9479   9.565   0.523   4.338 -1.9367 -2.9208 -0.3779
   69MOL0     H 9480   9.442   0.786   4.650  2.8357  1.0366  1.6330
   69MOL0     H 9481   9.556   0.730   4.972  0.0120  1.9412  1.0241
   69MOL0     H 9482   9.384   0.716   4.985  0.1506  0.2482  0.8994
   69MOL0     H 9483   9.460   0.837   4.882  2.4611  0.1375  3.1517
   69MOL0     H 9484   9.265   0.148   5.076 -2.2865 -1.1098  0.0100
   69MOL0     H 9485   9.195   0.103   5.311  0.3107  0.3034  0.8128
   69MOL0     H 9486   9.378   0.338   5.557  0.0132 -0.8475 -1.2533
   69MOL0     H 9487   9.248   0.453   5.591 -0.1553 -0.7962  1.4994
   69MOL0     H 9488   9.144   0.318   5.757 -0.6321 -0.6762 -2.2376
   69MOL0     H 9489   9.267   0.187   5.729 -0.2236 -0.6521  0.1362
   69MOL0     H 9490   9.314   0.460   5.837 -1.2398 -1.1995  5.7849
   69MOL0     H 9491   9.439   0.330   5.813 -0.6081 -0.4855 -0.6782
   69MOL0     H 9492   9.299   0.199   5.989 -0.9873  0.5644 -0.3048
   69MOL0     H 9493   9.209   0.343   6.010 -0.3353 -1.7185 -1.5063
   69MOL0     H 9494   9.376   0.315   6.179 -1.3592  0.5945 -0.7792
   69MOL0     H 9495   9.494   0.287   6.051 -0.8660 -0.8325 -0.4676
   69MOL0     H 9496   9.451   0.543   6.011 -3.5834  3.3648  0.7887
   69MOL0     H 9497   9.523   0.508   6.164  0.8134 -1.6298 -2.1973
   69MOL0     H 9498   9.298   0.527   6.276 -0.2632  1.7189  0.9630
   69MOL0     H 9499   9.220   0.533   6.111  0.4812 -1.0428 -1.6484
   69MOL0     H 9500   9.413   0.733   6.237  0.5979  0.0059 -0.1403
   69MOL0     H 9501   9.230   0.742   6.242  0.0781 -1.2348  0.2732
   69MOL0     H 9502   9.201   0.508   5.394  0.9162 -0.7107 -0.9748
   69MOL0     H 9503   9.280   0.567   5.165  2.4130  1.1066  1.7924
   69MOL0     H 9504   9.499   0.302   4.724  0.8787  0.2924  2.0963
   69MOL0     H 9505   9.492   0.377   4.502 -2.6966 -0.7068  0.6152
   69MOL0     H 9506   8.961   0.549   5.257  1.1079  0.0185  3.6588
   69MOL0     H 9507   8.865   0.494   5.471  0.4583  0.5228  0.4265
   69MOL0     H 9508   8.530   0.903   5.842 -2.2603  0.1277  0.3915
   69MOL0     H 9509   8.342   0.890   5.989 -1.6237  0.5293 -0.9550
   69MOL0     H 9510   8.232   0.831   6.185 -0.4779  2.4358 -2.2375
   69MOL0     H 9511   8.116   0.831   6.045  0.3551  1.0828  0.8281
   69MOL0     H 9512   8.104   0.644   6.295 -0.1346 -1.1710 -2.0941
   69MOL0     H 9513   7.979   0.658   6.170 -0.3607  0.1961 -0.5799
   69MOL0     H 9514   8.039   0.856   6.399  1.0799 -0.8505 -0.1477
   69MOL0     H 9515   7.974   0.909   6.249  0.7686  0.4771  0.4810
   69MOL0     H 9516   7.849   0.684   6.423  0.7186  1.1800  1.7714
   69MOL0     H 9517   7.776   0.759   6.277 -3.5625  2.1148  2.0536
   69MOL0     H 9518   7.670   1.010   6.598 -0.9204 -1.4271  0.4972
   69MOL0     H 9519   8.231   0.512   5.853 -1.7813  1.2991 -3.9205
   69MOL0     H 9520   8.307   0.435   5.674 -0.2255  0.3588 -0.3413
   69MOL0     H 9521   8.398   0.519   5.548 -1.3454 -2.2012 -1.1417
   69MOL0     H 9522   8.474   0.406   5.676  0.3686  1.6924  0.6004
   70MOL0     O 9523  10.930  10.142   0.842  0.2199  0.8817  0.5770
   70MOL0     C 9524  10.905  10.072   0.941 -0.5227 -0.0000  0.0676
   70MOL0     O 9525  10.848  10.122   1.068 -0.4952  0.3083  0.6401
   70MOL0     C 9526  10.838  10.261   1.072  0.4275 -0.7984  0.1331
   70MOL0     C 9527  10.949  10.344   1.100 -1.0694  0.5422  0.3550
   70MOL0     C 9528  10.933  10.480   1.089 -0.4070  0.0825  0.0463
   70MOL0     C 9529  10.811  10.538   1.040 -1.2292 -0.4993 -0.6977
   70MOL0     O 9530  10.794  10.672   1.025 -0.3255 -0.4214 -0.1441
   70MOL0     C 9531  10.884  10.747   0.931 -0.9541 -0.1884 -0.6961
   70MOL0     C 9532  10.854  10.711   0.783  0.0599  0.4755  0.9561
   70MOL0     C 9533  10.902  10.815   0.678  0.7812  0.0502 -0.2644
   70MOL0     C 9534  11.028  10.887   0.714 -0.3750  0.5213 -0.3989
   70MOL0     C 9535  11.096  10.952   0.590  0.8736  0.3743  0.1394
   70MOL0     C 9536  11.213  11.028   0.622  0.4029  0.2260 -0.3432
   70MOL0     C 9537  11.274  11.098   0.502 -0.8823 -0.0190  0.6072
   70MOL0     C 9538  11.408  11.188   0.518  1.2401  0.0335  0.1401
   70MOL0     N 9539  11.531  11.114   0.527 -0.1984  0.6993  0.3962
   70MOL0     C 9540  11.611  11.103   0.414 -0.2798  0.4202  0.1527
   70MOL0     C 9541  11.731  11.066   0.461  0.0132  0.4947  0.1752
   70MOL0     C 9542  11.860  11.053   0.377  0.8459  0.3685 -0.5402
   70MOL0     C 9543  11.998  11.067   0.453  0.0103  0.2122  0.2490
   70MOL0     C 9544  12.022  11.189   0.548  0.1741 -0.1532  0.1166
   70MOL0     C 9545  12.161  11.192   0.614 -0.7899  0.7299 -0.3938
   70MOL0     O 9546  12.211  11.063   0.637  0.8364 -0.4045  0.0839
   70MOL0     C 9547  12.336  11.032   0.680  0.3039 -0.2985  0.2080
   70MOL0     C 9548  12.438  11.121   0.674  1.1892  0.6574 -0.5007
   70MOL0     C 9549  12.564  11.079   0.700  1.2274  0.2967 -0.1471
   70MOL0     C 9550  12.677  11.181   0.683  0.3585 -0.1865 -0.3389
   70MOL0     C 9551  12.587  10.938   0.739 -0.2195  0.2853  0.5728
   70MOL0     C 9552  12.721  10.882   0.792 -0.0122 -0.2556 -0.4653
   70MOL0     O 9553  12.743  10.741   0.778 -0.0518 -0.5128 -0.3768
   70MOL0     C 9554  12.868  10.698   0.822  0.0129 -0.0864 -0.2811
   70MOL0     C 9555  12.877  10.647   0.943 -0.2451  0.7717 -0.3356
   70MOL0     C 9556  13.004  10.611   0.994  0.1902  0.1974 -0.5506
   70MOL0     C 9557  13.116  10.632   0.913 -0.1703 -0.5293 -0.5279
   70MOL0     O 9558  13.246  10.614   0.952 -0.4787 -0.5616 -0.8918
   70MOL0     C 9559  13.288  10.537   1.067 -0.3954 -0.4211  0.2123
   70MOL0     C 9560  13.437  10.583   1.108 -0.6233  0.2183  0.3299
   70MOL0     C 9561  13.532  10.555   0.996 -0.0877  0.3003 -0.2885
   70MOL0     C 9562  13.553  10.662   0.895  0.2254  0.8028  0.6227
   70MOL0     C 9563  13.687  10.642   0.820  0.0512  0.1221  0.5332
   70MOL0     C 9564  13.685  10.728   0.692  0.3767  0.4476  0.0507
   70MOL0     C 9565  13.612  10.660   0.574 -0.2448  0.6472 -0.3490
   70MOL0     C 9566  13.622  10.741   0.448  0.8079  0.4376 -0.3400
   70MOL0    Cl 9567  13.784  10.762   0.397  0.5890  0.3494  0.0590
   70MOL0     C 9568  13.101  10.681   0.784  0.3960  0.5066  0.1382
   70MOL0     C 9569  12.973  10.716   0.737 -0.8759 -0.1631 -0.3365
   70MOL0     O 9570  12.789  10.960   0.862  0.4537 -0.1632  0.0127
   70MOL0     C 9571  12.475  10.850   0.739 -0.1574 -0.2592 -0.2562
   70MOL0     C 9572  12.352  10.906   0.715 -0.9769  0.9436 -0.1174
   70MOL0     N 9573  11.715  11.045   0.606 -0.0087  0.5053  0.3083
   70MOL0     N 9574  11.597  11.076   0.641 -0.0134  0.0028 -1.3908
   70MOL0     C 9575  10.707  10.459   1.000  0.0385  0.0629 -0.5501
   70MOL0     C 9576  10.718  10.319   1.022 -1.0635  0.4964  0.5615
   70MOL0     C 9577  10.946   9.931   0.943  0.5566  0.2699  0.8436
   70MOL0     C 9578  11.087   9.897   0.967 -0.6010  0.1669  0.0689
   70MOL0     C 9579  11.133   9.769   0.979  0.4414 -1.0609  1.3561
   70MOL0     C 9580  11.037   9.670   0.957 -1.0120  0.5665  0.3612
   70MOL0     O 9581  11.094   9.544   0.961 -0.0789  0.3725  0.4951
   70MOL0     C 9582  11.015   9.429   0.933 -0.5904  0.0637 -0.5220
   70MOL0     C 9583  10.973   9.422   0.784 -0.0615  0.1472 -0.1339
   70MOL0     C 9584  11.023   9.297   0.712  0.2812 -0.5925 -0.1087
   70MOL0     C 9585  10.995   9.295   0.563 -0.6483 -0.0798 -0.7255
   70MOL0     C 9586  11.068   9.401   0.494  0.2808 -0.6039  0.5062
   70MOL0     C 9587  11.129   9.492   0.431  0.2754  0.0663 -0.0186
   70MOL0     C 9588  10.904   9.701   0.924 -0.0906 -0.3982  0.1119
   70MOL0     C 9589  10.856   9.830   0.923  0.8199  0.1582 -0.0853
   70MOL0     C 9590  10.705   9.857   0.912  0.1581 -0.3178  0.0927
   70MOL0     H 9591  11.038  10.288   1.128 -2.0405 -0.5410  1.3915
   70MOL0     H 9592  11.024  10.537   1.100 -0.8178  0.9352 -0.8227
   70MOL0     H 9593  10.989  10.727   0.953 -1.2018  0.2685  1.0081
   70MOL0     H 9594  10.883  10.854   0.953 -2.0907  0.0476 -1.7264
   70MOL0     H 9595  10.910  10.620   0.756 -2.6341 -1.0813  0.2505
   70MOL0     H 9596  10.750  10.681   0.767  0.4852 -0.6730  0.2288
   70MOL0     H 9597  10.914  10.764   0.582 -1.1321 -0.7701 -0.1234
   70MOL0     H 9598  10.825  10.892   0.666  2.5074  1.4682 -4.1716
   70MOL0     H 9599  11.010  10.970   0.783  2.2798  2.8102 -2.2280
   70MOL0     H 9600  11.098  10.826   0.773 -0.3226  1.3325  0.3891
   70MOL0     H 9601  11.031  11.018   0.532  0.6893 -0.9981 -1.2723
   70MOL0     H 9602  11.128  10.869   0.527 -0.0577 -1.0614  1.4844
   70MOL0     H 9603  11.203  11.108   0.696  0.5917 -0.0302 -0.0373
   70MOL0     H 9604  11.284  10.961   0.671  0.9222  0.6634 -0.4834
   70MOL0     H 9605  11.201  11.146   0.436  0.1608  0.1424 -0.4656
   70MOL0     H 9606  11.314  11.017   0.440  0.4498  1.4485 -0.5410
   70MOL0     H 9607  11.408  11.263   0.439 -1.0926  1.0904  1.0352
   70MOL0     H 9608  11.385  11.249   0.606  0.9455  1.8904 -1.1839
   70MOL0     H 9609  11.590  11.125   0.310  2.8287 -1.8129 -1.1000
   70MOL0     H 9610  11.867  11.124   0.293  3.6248 -0.7168 -1.3306
   70MOL0     H 9611  11.861  10.953   0.334  1.0667  0.6389 -1.1822
   70MOL0     H 9612  12.006  10.973   0.508  1.3724 -1.4210 -2.5109
   70MOL0     H 9613  12.084  11.070   0.386  1.8004  2.6320  2.4557
   70MOL0     H 9614  12.004  11.283   0.495  2.3644 -0.3050 -1.0596
   70MOL0     H 9615  11.951  11.183   0.630  0.6524 -0.3075  0.5271
   70MOL0     H 9616  12.231  11.238   0.544  0.6115 -1.4939 -0.5457
   70MOL0     H 9617  12.151  11.253   0.704 -1.2744  0.3670 -0.1923
   70MOL0     H 9618  12.421  11.225   0.645  1.9216  0.5263 -1.4560
   70MOL0     H 9619  12.769  11.160   0.738 -0.3615  1.3760  1.5480
   70MOL0     H 9620  12.643  11.279   0.717 -1.5049  0.0335 -2.5657
   70MOL0     H 9621  12.702  11.193   0.577  1.1765 -0.7094 -0.2146
   70MOL0     H 9622  12.796  10.647   1.015  0.6277  0.5662  0.6748
   70MOL0     H 9623  13.019  10.559   1.088  0.3074  0.5081 -0.3937
   70MOL0     H 9624  13.226  10.555   1.156  0.2288  2.0840  0.2036
   70MOL0     H 9625  13.282  10.432   1.036  0.3078 -1.5269  3.4257
   70MOL0     H 9626  13.451  10.690   1.130  3.4588 -0.1621  0.3231
   70MOL0     H 9627  13.473  10.530   1.197 -0.1135  2.1856  1.3537
   70MOL0     H 9628  13.505  10.466   0.939  0.5974 -0.3711  0.4186
   70MOL0     H 9629  13.630  10.536   1.040  0.9864  0.3984 -2.5049
   70MOL0     H 9630  13.564  10.756   0.950 -0.0824 -0.2269  2.5251
   70MOL0     H 9631  13.472  10.655   0.822  0.4361 -1.6599  0.5423
   70MOL0     H 9632  13.767  10.678   0.885  1.1853 -2.0121  0.4156
   70MOL0     H 9633  13.700  10.534   0.806  2.2032  0.2856  0.8892
   70MOL0     H 9634  13.790  10.742   0.664  1.5113  0.1692  3.6463
   70MOL0     H 9635  13.641  10.823   0.721  0.3389  0.8182 -1.1384
   70MOL0     H 9636  13.507  10.638   0.593  0.2272 -0.1764  1.4924
   70MOL0     H 9637  13.665  10.566   0.558 -2.1093 -0.5421  0.2446
   70MOL0     H 9638  13.583  10.842   0.465 -0.0071 -0.1614  1.6234
   70MOL0     H 9639  13.556  10.706   0.368  0.1021  0.2270  0.3190
   70MOL0     H 9640  13.180  10.712   0.717  1.4393 -2.4496 -0.1264
   70MOL0     H 9641  12.959  10.774   0.646 -0.3235  2.6933  1.2837
   70MOL0     H 9642  12.494  10.743   0.748  3.4505  0.2670  0.1489
   70MOL0     H 9643  12.276  10.828   0.706  0.9148 -0.9488 -0.4203
   70MOL0     H 9644  10.621  10.502   0.951  0.1212 -0.4620 -1.1691
   70MOL0     H 9645  10.644  10.247   0.990 -1.5558  0.0673  2.5492
   70MOL0     H 9646  11.157   9.978   0.984 -0.2238 -0.5063  2.0589
   70MOL0     H 9647  11.234   9.752   1.015  0.3023  0.7975  2.8162
   70MOL0     H 9648  11.082   9.347   0.959 -1.0871 -0.2200 -0.1228
   70MOL0     H 9649  10.931   9.420   1.003  0.6561  0.2757  1.0437
   70MOL0     H 9650  11.024   9.508   0.741  2.7448 -0.6599  1.4152
   70MOL0     H 9651  10.866   9.421   0.759  0.1764 -0.5258 -1.2274
   70MOL0     H 9652  11.131   9.288   0.725  0.5975  2.0444 -0.2927
   70MOL0     H 9653  10.975   9.216   0.767 -1.8369  2.0929  2.3365
   70MOL0     H 9654  10.891   9.318   0.540 -0.0074  1.9670 -1.8838
   70MOL0     H 9655  11.025   9.193   0.537 -0.8244 -0.6197  1.0399
   70MOL0     H 9656  11.175   9.580   0.391  1.6966  0.3504  2.0324
   70MOL0     H 9657  10.837   9.615   0.922 -0.8694  0.1979 -0.9368
   70MOL0     H 9658  10.660   9.766   0.953  4.2818 -2.4545  0.4501
   70MOL0     H 9659  10.659   9.945   0.957 -1.0184 -0.6467 -0.4345
   70MOL0     H 9660  10.672   9.867   0.808 -2.3780 -0.8013  0.7855
   71MOL0     O 9661   8.208   3.292   9.630 -0.6461  0.0951 -1.0568
   71MOL0     C 9662   8.306   3.234   9.675  1.0601 -0.5278 -1.1058
   71MOL0     O 9663   8.292   3.133   9.763 -0.4390  0.0370 -0.2242
   71MOL0     C 9664   8.177   3.062   9.743 -0.9052 -0.7563 -0.2464
   71MOL0     C 9665   8.090   3.059   9.852 -0.3514 -0.1107 -0.2312
   71MOL0     C 9666   7.975   2.975   9.849 -0.1312  0.0626 -0.4077
   71MOL0     C 9667   7.937   2.893   9.741 -0.7809 -0.5651 -0.6972
   71MOL0     O 9668   7.830   2.813   9.722  0.2475 -0.3703 -0.1331
   71MOL0     C 9669   7.749   2.784   9.836  0.2567 -0.6852 -0.0954
   71MOL0     C 9670   7.654   2.662   9.802  0.5020 -0.3945  1.0113
   71MOL0     C 9671   7.728   2.529   9.750  0.7575  0.3217 -0.8685
   71MOL0     C 9672   7.629   2.420   9.702  0.2236  0.3991  0.4837
   71MOL0     C 9673   7.678   2.342   9.581 -0.8199 -0.9430 -0.5683
   71MOL0     C 9674   7.803   2.261   9.625  0.5817  0.0546  0.9375
   71MOL0     C 9675   7.855   2.183   9.504 -0.4417  0.3464  0.6823
   71MOL0     C 9676   7.930   2.061   9.560  0.5484  0.8496  0.3464
   71MOL0     N 9677   8.038   2.021   9.467 -0.1939  0.0916  0.9169
   71MOL0     C 9678   8.020   1.957   9.348 -0.5430  0.6250 -0.2284
   71MOL0     C 9679   8.143   1.946   9.292  0.3794  0.0206  0.2886
   71MOL0     C 9680   8.186   1.879   9.162  0.0574 -0.1661 -0.0004
   71MOL0     C 9681   8.327   1.835   9.170  0.4405  0.0830  0.4365
   71MOL0     C 9682   8.332   1.730   9.281 -0.1962  0.6231  0.0315
   71MOL0     C 9683   8.453   1.646   9.262  0.4203 -0.8588 -0.6326
   71MOL0     O 9684   8.427   1.552   9.159  0.2785  0.2073 -0.4614
   71MOL0     C 9685   8.494   1.432   9.161 -0.1806  0.3640  1.8424
   71MOL0     C 9686   8.602   1.394   9.240  0.0358 -0.0331 -0.2516
   71MOL0     C 9687   8.658   1.265   9.233  0.5901  1.1875 -0.3061
   71MOL0     C 9688   8.767   1.237   9.340 -0.8266 -0.5840  0.7212
   71MOL0     C 9689   8.611   1.171   9.142  0.8929  0.1390  0.3491
   71MOL0     C 9690   8.667   1.037   9.121  0.4791 -0.2071 -0.0804
   71MOL0     O 9691   8.804   1.016   9.147  0.2195 -0.4157  0.6853
   71MOL0     C 9692   8.830   0.879   9.168 -0.1805  0.2985  0.3069
   71MOL0     C 9693   8.847   0.834   9.299 -0.3379  0.4847  0.6413
   71MOL0     C 9694   8.866   0.694   9.322 -1.1818 -0.9506 -0.1577
   71MOL0     C 9695   8.881   0.602   9.217  0.0389 -0.3361 -0.2049
   71MOL0     O 9696   8.912   0.467   9.246  0.1326 -0.5749 -0.5154
   71MOL0     C 9697   8.891   0.366   9.141  0.2452 -0.5191 -0.0241
   71MOL0     C 9698   8.934   0.228   9.208  0.0502  0.1200 -0.3302
   71MOL0     C 9699   9.077   0.245   9.255 -0.6362  0.5284  0.6736
   71MOL0     C 9700   9.119   0.114   9.325 -0.0677 -0.9045 -0.5960
   71MOL0     C 9701   9.082   0.126   9.473 -0.1582  0.7227 -0.5284
   71MOL0     C 9702   9.100  -0.003   9.553 -0.7538 -0.1013 -0.1008
   71MOL0     C 9703   9.230  -0.089   9.543 -0.0558  0.5480 -0.0636
   71MOL0     C 9704   9.208  -0.225   9.485  0.6281  0.3892 -0.3908
   71MOL0    Cl 9705   9.123  -0.335   9.618  0.0301  0.4578 -0.2782
   71MOL0     C 9706   8.868   0.654   9.084  0.0321 -0.2047  0.6699
   71MOL0     C 9707   8.849   0.790   9.059 -0.1131  0.1303 -0.4928
   71MOL0     O 9708   8.585   0.945   9.100 -0.4482  0.1144  0.3140
   71MOL0     C 9709   8.496   1.202   9.065 -1.1221 -0.6186 -0.0786
   71MOL0     C 9710   8.449   1.333   9.069  0.2865 -0.0169  0.4258
   71MOL0     N 9711   8.233   2.024   9.377  1.0119  1.5729 -0.5654
   71MOL0     N 9712   8.163   2.069   9.473 -0.1068  0.2760 -0.6011
   71MOL0     C 9713   8.032   2.888   9.634  0.9933 -0.8304  0.1069
   71MOL0     C 9714   8.144   2.980   9.640  0.3610  0.2490  0.2088
   71MOL0     C 9715   8.452   3.279   9.652  0.8746 -0.2327  0.2453
   71MOL0     C 9716   8.549   3.211   9.720  0.2628  1.2628  0.1793
   71MOL0     C 9717   8.674   3.268   9.722 -0.2785 -0.8075  0.3757
   71MOL0     C 9718   8.710   3.374   9.632  0.1480 -0.3453  0.5528
   71MOL0     O 9719   8.839   3.432   9.647  0.3145  0.0356  0.3400
   71MOL0     C 9720   8.837   3.552   9.725 -0.2959  0.2142 -0.9302
   71MOL0     C 9721   8.975   3.565   9.791  0.8014  0.1392  0.5086
   71MOL0     C 9722   9.091   3.615   9.702  0.4462 -0.0461  0.1146
   71MOL0     C 9723   9.050   3.730   9.603  0.2911  0.2378  0.3937
   71MOL0     C 9724   8.993   3.844   9.672 -0.6678 -0.2331  0.5026
   71MOL0     C 9725   8.970   3.956   9.704 -0.5496  0.3959  0.3554
   71MOL0     C 9726   8.617   3.414   9.547  0.3450  0.7976 -0.3939
   71MOL0     C 9727   8.485   3.377   9.555  0.6941 -0.4038  0.1505
   71MOL0     C 9728   8.386   3.458   9.466 -1.0025 -0.0692 -0.7215
   71MOL0     H 9729   8.114   3.122   9.937  2.0809  0.8257 -1.5175
   71MOL0     H 9730   7.906   2.977   9.933 -1.3202 -2.6993 -1.2278
   71MOL0     H 9731   7.694   2.867   9.882 -2.6771 -1.5297 -1.8391
   71MOL0     H 9732   7.812   2.743   9.916  0.5933  2.3516  1.3396
   71MOL0     H 9733   7.599   2.630   9.890  0.1315 -3.4432 -0.2031
   71MOL0     H 9734   7.581   2.705   9.733 -0.2243  1.4717  2.8455
   71MOL0     H 9735   7.788   2.552   9.661  0.7376 -1.3965 -1.3504
   71MOL0     H 9736   7.789   2.488   9.830 -0.8839  0.2334  0.3927
   71MOL0     H 9737   7.604   2.356   9.787 -3.1685  1.3202  0.3471
   71MOL0     H 9738   7.533   2.466   9.673  1.3720  1.4621 -1.9573
   71MOL0     H 9739   7.712   2.418   9.510  0.4493 -0.5122  0.4669
   71MOL0     H 9740   7.598   2.279   9.539 -0.7421 -1.0156 -0.6070
   71MOL0     H 9741   7.884   2.317   9.671 -0.3056  3.4249 -1.2435
   71MOL0     H 9742   7.759   2.200   9.704 -0.2580 -2.8492 -1.5399
   71MOL0     H 9743   7.923   2.249   9.450 -2.0246  1.5938  0.1467
   71MOL0     H 9744   7.782   2.154   9.427  1.1388  0.4569 -0.9265
   71MOL0     H 9745   7.977   2.087   9.655 -0.4324 -1.0169  1.4076
   71MOL0     H 9746   7.861   1.977   9.574  1.2311  0.1928 -0.1726
   71MOL0     H 9747   7.935   1.904   9.308  0.6706 -1.1935 -0.5485
   71MOL0     H 9748   8.172   1.958   9.087  0.5101  0.9288  1.0320
   71MOL0     H 9749   8.118   1.794   9.156  0.3163 -0.2845 -1.9451
   71MOL0     H 9750   8.339   1.790   9.071 -3.3941 -1.5547  0.5086
   71MOL0     H 9751   8.385   1.923   9.199 -2.5932  2.6123 -0.5979
   71MOL0     H 9752   8.331   1.764   9.385  0.3591 -1.8947  0.9481
   71MOL0     H 9753   8.248   1.660   9.284  1.6281 -1.7466 -0.8426
   71MOL0     H 9754   8.538   1.710   9.240 -0.5742  0.2365 -1.4280
   71MOL0     H 9755   8.476   1.605   9.361  0.5295  1.3783  0.3312
   71MOL0     H 9756   8.639   1.462   9.316  1.1793  1.5684 -2.1684
   71MOL0     H 9757   8.850   1.308   9.344 -2.9281  2.0286  0.4634
   71MOL0     H 9758   8.812   1.137   9.338  2.1395  0.6726 -0.0959
   71MOL0     H 9759   8.720   1.233   9.439 -1.4670  0.4382  0.4641
   71MOL0     H 9760   8.832   0.907   9.378  1.9273 -0.2741  1.8612
   71MOL0     H 9761   8.859   0.661   9.425 -0.3265  2.4342  1.1120
   71MOL0     H 9762   8.791   0.349   9.100  0.2733 -4.6987  1.2346
   71MOL0     H 9763   8.960   0.389   9.060  0.7332  0.8300  0.7359
   71MOL0     H 9764   8.879   0.203   9.299  1.5339  0.3437  0.6675
   71MOL0     H 9765   8.919   0.161   9.123  0.3325  1.4603 -1.4900
   71MOL0     H 9766   9.084   0.330   9.323  1.2095  1.0519 -0.0869
   71MOL0     H 9767   9.150   0.268   9.176 -0.7659  0.2063  0.4561
   71MOL0     H 9768   9.228   0.103   9.313 -0.0595 -1.0027 -0.4278
   71MOL0     H 9769   9.069   0.025   9.288  1.9765 -2.5183  0.3266
   71MOL0     H 9770   9.144   0.203   9.519 -1.7465  1.0458  1.1941
   71MOL0     H 9771   8.981   0.165   9.489 -0.9171 -1.3263  0.0278
   71MOL0     H 9772   9.033  -0.071   9.499  0.6304  1.4425 -4.1231
   71MOL0     H 9773   9.070  -0.003   9.659 -3.1606 -4.8347 -0.4808
   71MOL0     H 9774   9.280  -0.113   9.638  0.7189  0.3826 -0.5011
   71MOL0     H 9775   9.297  -0.031   9.478  0.5811 -0.3410 -0.2186
   71MOL0     H 9776   9.305  -0.269   9.461  1.5389  1.9422  0.2811
   71MOL0     H 9777   9.158  -0.227   9.387  1.6419  1.4627 -0.9614
   71MOL0     H 9778   8.877   0.598   8.991  2.1044  2.6676 -1.0413
   71MOL0     H 9779   8.838   0.824   8.957 -1.0480  0.2830 -0.3553
   71MOL0     H 9780   8.449   1.129   9.000  1.5338 -3.4966  1.0386
   71MOL0     H 9781   8.366   1.364   9.006 -2.1019 -3.8962  1.2859
   71MOL0     H 9782   8.021   2.826   9.546  0.8849 -2.4467  1.2302
   71MOL0     H 9783   8.206   2.977   9.550  0.8488 -1.3120  0.5649
   71MOL0     H 9784   8.520   3.128   9.784  2.2761  1.3945  1.3341
   71MOL0     H 9785   8.742   3.231   9.798  1.0018 -1.0166 -0.8394
   71MOL0     H 9786   8.794   3.643   9.682  1.6574  0.6023 -2.1725
   71MOL0     H 9787   8.774   3.531   9.812  0.5474 -4.2462 -1.1800
   71MOL0     H 9788   8.996   3.469   9.839  1.4596  0.7119  1.4157
   71MOL0     H 9789   8.978   3.634   9.876  1.6877 -0.4738  1.0002
   71MOL0     H 9790   9.176   3.644   9.764  0.0409  0.3729  0.4880
   71MOL0     H 9791   9.124   3.529   9.643 -1.6586 -3.5004  3.4806
   71MOL0     H 9792   8.979   3.693   9.529  0.2645 -0.6969  0.8717
   71MOL0     H 9793   9.135   3.771   9.547 -1.0567  0.2196 -1.7893
   71MOL0     H 9794   8.937   4.049   9.746 -0.8017 -0.4442  2.1143
   71MOL0     H 9795   8.642   3.491   9.475 -0.7365  2.5918  1.0802
   71MOL0     H 9796   8.435   3.511   9.383 -0.4232 -0.8634 -0.8954
   71MOL0     H 9797   8.314   3.394   9.414 -3.8229  2.1770  0.1449
   71MOL0     H 9798   8.338   3.533   9.529 -0.1049  1.2248 -1.5241
   72MOL0     O 9799  10.081   7.254   4.398  0.1965 -0.1612  1.0245
   72MOL0     C 9800  10.125   7.247   4.287 -1.0319 -0.0092 -0.1470
   72MOL0     O 9801  10.145   7.138   4.215 -0.0839  0.4763  0.2935
   72MOL0     C 9802  10.108   7.019   4.277  0.6320  0.2510 -0.0502
   72MOL0     C 9803  10.188   6.956   4.375  0.5654 -0.3950  0.5695
   72MOL0     C 9804  10.152   6.844   4.441 -0.7591  0.2397  0.4851
   72MOL0     C 9805  10.026   6.790   4.418 -0.7365 -0.7858  0.9926
   72MOL0     O 9806   9.990   6.662   4.469  0.5524 -0.1283  0.4043
   72MOL0     C 9807   9.932   6.671   4.603 -0.2044  0.3484 -0.5350
   72MOL0     C 9808   9.926   6.534   4.674 -0.0820  0.2740 -0.0971
   72MOL0     C 9809  10.061   6.488   4.712 -0.3814 -0.2747  0.1829
   72MOL0     C 9810  10.070   6.362   4.804 -0.4188 -0.1525 -0.3041
   72MOL0     C 9811   9.957   6.262   4.775  0.3210 -0.6239  0.1666
   72MOL0     C 9812   9.957   6.143   4.879  0.4530  0.2957 -0.3017
   72MOL0     C 9813  10.080   6.051   4.860 -0.8121  0.2625  0.5715
   72MOL0     C 9814  10.091   5.930   4.957  0.4824 -0.2575  0.7624
   72MOL0     N 9815  10.202   5.836   4.938  0.3383 -0.7977 -0.4195
   72MOL0     C 9816  10.314   5.834   4.857 -0.4811  0.7609 -0.3058
   72MOL0     C 9817  10.403   5.751   4.918 -0.3601 -0.3075 -0.3202
   72MOL0     C 9818  10.545   5.734   4.866 -0.3880 -0.2760  0.3058
   72MOL0     C 9819  10.657   5.807   4.939 -1.6054  0.6466 -0.2798
   72MOL0     C 9820  10.701   5.714   5.054 -1.1570 -0.5689  0.4467
   72MOL0     C 9821  10.809   5.785   5.133 -0.9619  0.0696  0.0719
   72MOL0     O 9822  10.856   5.716   5.252 -0.5341  0.3908  0.2880
   72MOL0     C 9823  10.897   5.797   5.356  0.0391  0.7574  0.0752
   72MOL0     C 9824  10.972   5.916   5.354  0.8731 -0.4757 -0.5230
   72MOL0     C 9825  11.022   5.977   5.471 -0.4368  0.5925  0.7825
   72MOL0     C 9826  11.098   6.111   5.455 -0.1102  0.2364 -0.5025
   72MOL0     C 9827  11.005   5.915   5.596  0.4803  0.2207  0.1252
   72MOL0     C 9828  11.051   5.972   5.733 -0.8759 -0.0161  0.0602
   72MOL0     O 9829  11.055   6.106   5.750 -0.2518 -0.2050 -0.0020
   72MOL0     C 9830  11.100   6.163   5.872  0.9461  0.3326 -0.1030
   72MOL0     C 9831  11.147   6.294   5.863  0.3721 -0.2640 -0.1149
   72MOL0     C 9832  11.183   6.376   5.973  0.2481  0.6986 -0.3817
   72MOL0     C 9833  11.169   6.318   6.105  0.5657  0.2550  0.9719
   72MOL0     O 9834  11.195   6.392   6.221 -0.1397  1.0067  0.5338
   72MOL0     C 9835  11.218   6.324   6.346  0.1118  1.0761  0.5410
   72MOL0     C 9836  11.255   6.425   6.460  0.2318  1.0919  0.5936
   72MOL0     C 9837  11.262   6.368   6.604 -0.0039 -0.5490 -0.3759
   72MOL0     C 9838  11.381   6.268   6.604 -0.3831 -0.1224  0.3051
   72MOL0     C 9839  11.385   6.208   6.740 -1.0231 -0.3232 -0.3501
   72MOL0     C 9840  11.529   6.146   6.774 -0.5358 -1.0799 -0.5997
   72MOL0     C 9841  11.555   6.092   6.915  0.5163 -0.3733  0.0547
   72MOL0     C 9842  11.553   6.198   7.026  0.3160 -0.4155 -0.2555
   72MOL0    Cl 9843  11.563   6.107   7.175  0.1750 -0.0363  0.4669
   72MOL0     C 9844  11.133   6.180   6.117 -0.6250 -0.3765 -0.5439
   72MOL0     C 9845  11.094   6.106   6.002  0.8283 -0.5329  1.0623
   72MOL0     O 9846  11.087   5.884   5.812  0.1025  0.8317 -0.0234
   72MOL0     C 9847  10.940   5.791   5.597  0.1067  0.2907 -0.4079
   72MOL0     C 9848  10.884   5.734   5.482  0.4321  0.8500 -0.1666
   72MOL0     N 9849  10.336   5.686   5.020 -0.2218  0.4886  0.6838
   72MOL0     N 9850  10.214   5.732   5.027  0.1600  0.3232  0.0174
   72MOL0     C 9851   9.951   6.852   4.318 -0.2006 -0.1538 -0.3319
   72MOL0     C 9852   9.979   6.972   4.255 -0.5128 -0.2687 -0.5765
   72MOL0     C 9853  10.165   7.380   4.222  0.2734 -0.8347 -0.3815
   72MOL0     C 9854  10.127   7.407   4.096 -1.1478  0.0835 -0.1727
   72MOL0     C 9855  10.147   7.538   4.047 -0.6396 -0.4151 -0.2161
   72MOL0     C 9856  10.190   7.644   4.129 -0.3587 -0.6936 -0.6098
   72MOL0     O 9857  10.201   7.778   4.088 -0.0644  0.0503  0.4449
   72MOL0     C 9858  10.120   7.837   3.984 -0.2317 -0.0629 -0.0898
   72MOL0     C 9859  10.176   7.829   3.847 -0.1047  0.4938  0.0249
   72MOL0     C 9860  10.088   7.866   3.720 -0.1243 -0.0069 -0.8144
   72MOL0     C 9861  10.110   7.991   3.637 -0.1670  0.6738  0.2076
   72MOL0     C 9862  10.103   8.115   3.715  0.1706  0.3417  0.0433
   72MOL0     C 9863  10.101   8.229   3.770  0.2175  0.7762  0.3834
   72MOL0     C 9864  10.231   7.614   4.259 -0.0631 -0.0124  0.5903
   72MOL0     C 9865  10.222   7.485   4.303 -0.0265 -0.5690  0.2251
   72MOL0     C 9866  10.282   7.470   4.441  0.1173  0.0950 -0.2595
   72MOL0     H 9867  10.289   6.994   4.387 -0.6364  3.0903  0.7766
   72MOL0     H 9868  10.222   6.811   4.518  1.1472 -1.0139 -1.6570
   72MOL0     H 9869   9.832   6.713   4.595 -1.3982 -1.2060  3.3659
   72MOL0     H 9870   9.990   6.738   4.667  2.5656 -3.5795  1.5216
   72MOL0     H 9871   9.864   6.531   4.764  2.4126 -0.8726  1.6866
   72MOL0     H 9872   9.890   6.461   4.601 -0.8741  3.0103 -2.6627
   72MOL0     H 9873  10.121   6.479   4.620 -0.4890  2.0619 -0.1909
   72MOL0     H 9874  10.112   6.566   4.770 -1.0216  0.5159 -0.2821
   72MOL0     H 9875  10.164   6.319   4.768  0.1504  1.9353 -1.4718
   72MOL0     H 9876  10.080   6.392   4.909  1.0893 -0.0637 -0.4626
   72MOL0     H 9877   9.963   6.221   4.673  1.0290 -0.4454  0.1343
   72MOL0     H 9878   9.867   6.321   4.795  0.5349 -0.5311  0.8592
   72MOL0     H 9879   9.952   6.185   4.979 -1.0157  2.4785 -1.2122
   72MOL0     H 9880   9.873   6.075   4.861 -2.4710  4.1322 -2.6674
   72MOL0     H 9881  10.171   6.110   4.873 -0.3638 -0.0177 -1.0395
   72MOL0     H 9882  10.084   6.011   4.758 -0.9400 -1.0355  1.0584
   72MOL0     H 9883  10.092   5.962   5.062  0.4833 -0.7606  0.9188
   72MOL0     H 9884  10.003   5.869   4.935 -1.2256  2.7474 -1.3588
   72MOL0     H 9885  10.335   5.895   4.770 -1.1111 -1.0310 -1.8049
   72MOL0     H 9886  10.563   5.773   4.766  2.2486 -1.0328  0.3917
   72MOL0     H 9887  10.570   5.627   4.861  0.1618 -0.1212 -0.5845
   72MOL0     H 9888  10.738   5.830   4.869  2.6752 -1.5189  3.4286
   72MOL0     H 9889  10.630   5.901   4.986  0.6443  1.2386 -0.0583
   72MOL0     H 9890  10.617   5.687   5.119 -0.3031 -1.2869  1.2821
   72MOL0     H 9891  10.748   5.629   5.003  1.6322  1.1564 -0.0428
   72MOL0     H 9892  10.896   5.810   5.071 -0.3557 -2.3059 -0.1330
   72MOL0     H 9893  10.766   5.878   5.173 -0.7612 -1.1017  3.3738
   72MOL0     H 9894  10.978   5.983   5.268 -0.2841 -0.2485 -0.4392
   72MOL0     H 9895  11.165   6.118   5.541  0.7758 -1.4652 -1.0200
   72MOL0     H 9896  11.030   6.197   5.456  0.8166  0.9979 -0.9806
   72MOL0     H 9897  11.157   6.108   5.362  0.6208  4.8625 -0.4348
   72MOL0     H 9898  11.162   6.338   5.765  0.1490 -1.7526 -0.8466
   72MOL0     H 9899  11.209   6.481   5.957  3.0061  0.0346 -0.8087
   72MOL0     H 9900  11.119   6.288   6.374  0.5450 -0.9658 -0.3707
   72MOL0     H 9901  11.280   6.235   6.329 -0.8048  0.9157 -2.6857
   72MOL0     H 9902  11.350   6.473   6.436  0.0853  1.3242  0.4659
   72MOL0     H 9903  11.174   6.499   6.460 -0.5658  0.2422  0.1308
   72MOL0     H 9904  11.170   6.315   6.629  0.9405 -4.0868 -3.5413
   72MOL0     H 9905  11.282   6.440   6.684 -0.0218 -1.7731  0.7646
   72MOL0     H 9906  11.477   6.316   6.582  1.1625 -2.7049  1.0311
   72MOL0     H 9907  11.378   6.193   6.524  0.7384  0.2343 -0.0854
   72MOL0     H 9908  11.365   6.285   6.815 -0.2923  1.5662 -2.0160
   72MOL0     H 9909  11.313   6.127   6.746 -0.4901 -0.6862  1.9889
   72MOL0     H 9910  11.600   6.227   6.758 -1.3502 -0.0241  0.9100
   72MOL0     H 9911  11.555   6.070   6.700 -0.4554 -2.6011  0.9074
   72MOL0     H 9912  11.655   6.050   6.901  1.6428  2.5760 -1.7435
   72MOL0     H 9913  11.479   6.014   6.927  0.4568 -0.4094 -0.5568
   72MOL0     H 9914  11.458   6.252   7.040  0.3485 -0.7743  1.6122
   72MOL0     H 9915  11.636   6.268   7.009 -1.3007  0.9550 -3.4102
   72MOL0     H 9916  11.122   6.130   6.212  1.4093  1.5698  0.8235
   72MOL0     H 9917  11.042   6.011   6.015 -2.3403  0.4408 -2.5250
   72MOL0     H 9918  10.924   5.744   5.694  2.5704 -0.3303 -0.2412
   72MOL0     H 9919  10.835   5.637   5.487  0.1868  1.0280  1.9215
   72MOL0     H 9920   9.865   6.791   4.292 -1.4622 -0.6139  4.1244
   72MOL0     H 9921   9.913   7.008   4.177  0.7620  0.4687 -1.3523
   72MOL0     H 9922  10.075   7.337   4.030 -3.5915  3.0120 -1.6189
   72MOL0     H 9923  10.119   7.561   3.944  0.4468  0.3730 -0.3598
   72MOL0     H 9924  10.025   7.782   3.989  0.3309 -1.5968 -3.4794
   72MOL0     H 9925  10.097   7.943   3.998 -2.3986 -0.0105 -3.0377
   72MOL0     H 9926  10.212   7.726   3.831 -0.3342  0.2698  0.9363
   72MOL0     H 9927  10.265   7.892   3.848  0.6121 -0.4165 -1.4565
   72MOL0     H 9928  10.109   7.779   3.657  2.8347  0.5819 -0.7848
   72MOL0     H 9929   9.980   7.868   3.737  0.0815  1.0782  0.5370
   72MOL0     H 9930  10.033   7.995   3.559 -0.5806 -2.3565  0.3104
   72MOL0     H 9931  10.208   7.982   3.588 -0.5353 -1.7987 -0.2336
   72MOL0     H 9932  10.109   8.318   3.829 -1.9139  0.5075  1.1475
   72MOL0     H 9933  10.277   7.692   4.319  1.8680 -0.2182 -0.5442
   72MOL0     H 9934  10.286   7.364   4.466  1.5746 -0.0383 -0.9285
   72MOL0     H 9935  10.387   7.498   4.435 -0.0416  0.4158 -2.1190
   72MOL0     H 9936  10.230   7.526   4.519 -2.7945 -1.0670 -1.2078
   73MOL0     O 9937   8.075   4.017  10.274 -0.2359  0.1643  0.7172
   73MOL0     C 9938   8.101   3.979  10.161 -0.3408 -0.0453  0.0826
   73MOL0     O 9939   8.224   3.973  10.114  0.1950  0.9724  0.2850
   73MOL0     C 9940   8.330   4.043  10.178 -0.2773  0.5985 -0.1264
   73MOL0     C 9941   8.344   4.178  10.162 -0.5485  0.3734  0.1608
   73MOL0     C 9942   8.457   4.239  10.208 -0.4907  0.8660 -1.0135
   73MOL0     C 9943   8.562   4.165  10.279  0.1348 -0.3084 -0.0786
   73MOL0     O 9944   8.669   4.236  10.330  0.1453  0.2560  0.1371
   73MOL0     C 9945   8.651   4.337  10.425  0.4521 -0.6629 -0.8738
   73MOL0     C 9946   8.754   4.438  10.416  0.3646  0.7000 -0.3869
   73MOL0     C 9947   8.900   4.403  10.455  0.1312 -0.1222 -0.7449
   73MOL0     C 9948   8.981   4.328  10.354 -0.3518 -1.1297 -0.5380
   73MOL0     C 9949   9.134   4.332  10.384  0.0519  0.1578  0.4135
   73MOL0     C 9950   9.205   4.230  10.282 -0.0536  0.0894 -0.0586
   73MOL0     C 9951   9.223   4.306  10.142 -0.8525  0.1145 -0.5217
   73MOL0     C 9952   9.278   4.213  10.036  0.8904 -0.2930 -0.1449
   73MOL0     N 9953   9.415   4.164  10.044  0.2947  0.1203 -0.3205
   73MOL0     C 9954   9.516   4.191   9.958 -0.5035 -0.7107 -0.6174
   73MOL0     C 9955   9.624   4.139  10.022 -0.2542  0.3519  0.5913
   73MOL0     C 9956   9.772   4.166   9.971  0.2065 -0.2681  0.9505
   73MOL0     C 9957   9.808   4.320   9.980 -0.1527  0.4009  0.4168
   73MOL0     C 9958   9.848   4.368  10.131 -0.6658 -0.1332 -0.1019
   73MOL0     C 9959   9.999   4.391  10.133  0.3872 -0.8473  0.6230
   73MOL0     O 9960  10.054   4.430  10.261 -0.1101 -0.2479 -0.2265
   73MOL0     C 9961  10.180   4.480  10.277 -0.0975  1.2628  0.3191
   73MOL0     C 9962  10.199   4.528  10.407 -0.5272 -0.6841 -0.0555
   73MOL0     C 9963  10.325   4.585  10.448 -0.2594  1.2240 -0.4410
   73MOL0     C 9964  10.318   4.650  10.576 -0.1422  0.4342  0.0170
   73MOL0     C 9965  10.439   4.569  10.364  0.1160  0.7444  0.7094
   73MOL0     C 9966  10.576   4.615  10.406 -0.4393  0.0791  0.5352
   73MOL0     O 9967  10.669   4.588  10.310  1.1721  0.3532 -0.2026
   73MOL0     C 9968  10.798   4.628  10.318  0.5334  0.1015  0.3359
   73MOL0     C 9969  10.847   4.750  10.378  0.1076 -0.7654 -0.1162
   73MOL0     C 9970  10.972   4.797  10.352 -0.0526 -0.6982  0.6269
   73MOL0     C 9971  11.061   4.724  10.268 -1.2415  0.7729 -0.1065
   73MOL0     O 9972  11.191   4.775  10.256  0.5688  0.1575 -0.6027
   73MOL0     C 9973  11.290   4.678  10.288 -0.3957 -0.3381 -0.2436
   73MOL0     C 9974  11.434   4.751  10.294 -0.4278 -1.0945 -0.3688
   73MOL0     C 9975  11.442   4.862  10.405 -0.2184 -1.2562 -0.4558
   73MOL0     C 9976  11.569   4.950  10.398 -0.1871  0.5129  0.2342
   73MOL0     C 9977  11.585   5.037  10.527 -0.0996  1.1604 -0.7758
   73MOL0     C 9978  11.461   5.108  10.574  0.2973  0.0051 -0.6833
   73MOL0     C 9979  11.504   5.233  10.665 -0.7450  0.3608  0.0700
   73MOL0     C 9980  11.387   5.313  10.711  0.3051  0.3991  0.2944
   73MOL0    Cl 9981  11.432   5.431  10.833 -0.0651  0.2444  0.0743
   73MOL0     C 9982  11.022   4.599  10.220 -0.4730  0.5136 -0.1299
   73MOL0     C 9983  10.894   4.554  10.241 -0.1807  0.4905 -0.7134
   73MOL0     O 9984  10.600   4.661  10.520 -0.7026  0.2777 -0.0662
   73MOL0     C 9985  10.417   4.503  10.237  0.7295  0.4361 -0.7843
   73MOL0     C 9986  10.290   4.454  10.192 -0.6750  0.8586  0.0782
   73MOL0     N 9987   9.586   4.074  10.134 -0.1289  0.1172 -0.1697
   73MOL0     N 9988   9.459   4.098  10.154 -0.6748  0.0541  0.2856
   73MOL0     C 9989   8.542   4.027  10.288 -0.5234 -0.3409  1.0553
   73MOL0     C 9990   8.430   3.960  10.236  0.1098 -0.8686 -0.0848
   73MOL0     C 9991   7.998   3.917  10.079  0.5068 -0.4320 -0.6047
   73MOL0     C 9992   7.858   3.952  10.099 -0.4406 -0.0205 -0.5476
   73MOL0     C 9993   7.753   3.908  10.023  0.4427  0.3117  0.3372
   73MOL0     C 9994   7.776   3.809   9.925 -0.3761 -0.6967 -0.0006
   73MOL0     O 9995   7.677   3.754   9.851  0.2641 -0.2901 -0.1349
   73MOL0     C 9996   7.539   3.798   9.857  0.7749 -0.0658 -0.2557
   73MOL0     C 9997   7.463   3.705   9.761  0.5735  0.1074  0.1819
   73MOL0     C 9998   7.511   3.705   9.616  0.5916 -0.4230  0.3852
   73MOL0     C 9999   7.392   3.633   9.533 -1.2115  0.6229 -0.2703
   73MOL0     C10000   7.358   3.504   9.580 -0.5623  0.0301  0.4977
   73MOL0     C10001   7.334   3.398   9.625 -0.0885  0.3898  0.5312
   73MOL0     C10002   7.913   3.775   9.902 -0.0533  0.3270  0.6050
   73MOL0     C10003   8.023   3.829   9.973 -0.1333  0.0399  0.1666
   73MOL0     C10004   8.166   3.782   9.929  0.0547  0.7870  0.1890
   73MOL0     H10005   8.251   4.222  10.128  0.0879  2.6033  1.1465
   73MOL0     H10006   8.473   4.345  10.194 -0.7074  1.5319  2.7204
   73MOL0     H10007   8.629   4.312  10.529 -1.4635  1.4804 -0.6805
   73MOL0     H10008   8.555   4.382  10.397 -0.5793 -2.8323 -1.0108
   73MOL0     H10009   8.764   4.476  10.314 -1.2633  0.5879 -0.6125
   73MOL0     H10010   8.727   4.510  10.493 -2.1451 -0.9251  0.3591
   73MOL0     H10011   8.948   4.499  10.476 -1.1888  0.2686  0.6542
   73MOL0     H10012   8.894   4.348  10.550 -0.0858  1.4850  0.2073
   73MOL0     H10013   8.958   4.221  10.352  1.0724 -1.5099  1.0556
   73MOL0     H10014   8.965   4.372  10.255  1.9139  2.7058  0.5846
   73MOL0     H10015   9.155   4.308  10.489  1.7645 -0.4412 -0.0358
   73MOL0     H10016   9.186   4.427  10.372  2.4336 -1.0329  0.7883
   73MOL0     H10017   9.304   4.199  10.318  1.2512  0.1533 -3.2529
   73MOL0     H10018   9.159   4.131  10.270  1.4746 -0.8186  1.1338
   73MOL0     H10019   9.288   4.391  10.163 -0.0204 -0.6485  0.0956
   73MOL0     H10020   9.122   4.329  10.107 -1.3875  1.4657  1.7227
   73MOL0     H10021   9.213   4.129  10.011  1.2302 -1.0880  1.5407
   73MOL0     H10022   9.268   4.274   9.945 -0.6171  1.9656  1.4396
   73MOL0     H10023   9.509   4.257   9.872  0.5360 -1.0789 -0.9991
   73MOL0     H10024   9.780   4.140   9.865 -0.2527  3.7976 -0.2541
   73MOL0     H10025   9.834   4.094  10.025 -0.9503 -0.4841  2.0336
   73MOL0     H10026   9.890   4.343   9.911  0.0171 -1.3094  0.0163
   73MOL0     H10027   9.722   4.381   9.948  0.4036  0.6358 -0.6977
   73MOL0     H10028   9.793   4.456  10.165  0.2152 -0.2036  1.6585
   73MOL0     H10029   9.820   4.293  10.205 -2.4390  2.2420  1.8180
   73MOL0     H10030  10.047   4.301  10.093 -0.0089 -1.0636  0.6252
   73MOL0     H10031  10.001   4.472  10.059 -1.5636 -3.0959 -2.1543
   73MOL0     H10032  10.121   4.541  10.481  2.0150  1.9614  2.4077
   73MOL0     H10033  10.351   4.755  10.569  2.6041 -0.2373  1.4809
   73MOL0     H10034  10.390   4.611  10.648 -0.7510 -1.8657 -0.5614
   73MOL0     H10035  10.217   4.632  10.613  0.0721 -0.5477  0.1299
   73MOL0     H10036  10.785   4.822  10.431 -0.9376 -1.2139 -0.6875
   73MOL0     H10037  11.022   4.882  10.396  0.6608 -0.6899 -0.1848
   73MOL0     H10038  11.271   4.635  10.387 -1.9489 -0.8377 -0.7348
   73MOL0     H10039  11.280   4.607  10.206 -3.9834 -0.2062 -0.0600
   73MOL0     H10040  11.523   4.688  10.304  0.1700  0.0554  2.4720
   73MOL0     H10041  11.440   4.802  10.197 -1.1168  1.2006  0.7424
   73MOL0     H10042  11.437   4.820  10.506 -3.0466  0.5179  0.2544
   73MOL0     H10043  11.348   4.917  10.404 -1.5819 -3.4248  0.6094
   73MOL0     H10044  11.553   5.011  10.309  2.4258 -0.4544 -1.0207
   73MOL0     H10045  11.663   4.901  10.370 -0.1954  1.6930 -2.0666
   73MOL0     H10046  11.595   4.967  10.610 -3.2638  0.8079 -0.6065
   73MOL0     H10047  11.670   5.106  10.525  2.0163 -1.1747  1.4339
   73MOL0     H10048  11.390   5.051  10.634  0.9922  0.7643  0.9428
   73MOL0     H10049  11.412   5.159  10.490  1.8097  3.3799  0.2873
   73MOL0     H10050  11.579   5.294  10.615 -0.7928  1.4073  1.2048
   73MOL0     H10051  11.552   5.189  10.753  0.1624 -2.3664 -1.6601
   73MOL0     H10052  11.316   5.246  10.760 -0.5014  1.6620  0.8869
   73MOL0     H10053  11.339   5.360  10.625 -0.6615 -4.0171 -1.8521
   73MOL0     H10054  11.097   4.541  10.166  0.0552 -0.7243  1.8241
   73MOL0     H10055  10.855   4.463  10.195 -1.1792  0.4217  0.2491
   73MOL0     H10056  10.497   4.497  10.164  1.8165 -1.1196  0.4713
   73MOL0     H10057  10.285   4.398  10.099  1.5891  2.4283 -1.0836
   73MOL0     H10058   8.625   3.968  10.327 -0.4616 -0.5494  0.6124
   73MOL0     H10059   8.433   3.852  10.235  0.0253 -0.9509 -3.5409
   73MOL0     H10060   7.831   4.017  10.181  0.3662 -0.1742 -0.1511
   73MOL0     H10061   7.647   3.931  10.030  0.3965  0.8362 -1.4347
   73MOL0     H10062   7.495   3.781   9.955 -0.9767 -0.1837 -1.0255
   73MOL0     H10063   7.529   3.905   9.836  0.0123  0.0814  0.8302
   73MOL0     H10064   7.357   3.730   9.770  0.2138 -1.7300  2.1222
   73MOL0     H10065   7.490   3.608   9.805  0.7814 -0.5345 -1.3009
   73MOL0     H10066   7.521   3.809   9.583 -2.8944 -0.2221 -0.3912
   73MOL0     H10067   7.610   3.659   9.609  1.0899  0.6190  0.3906
   73MOL0     H10068   7.412   3.622   9.426  0.0662  2.1457 -0.2248
   73MOL0     H10069   7.299   3.691   9.529 -1.9600 -0.5742 -1.0863
   73MOL0     H10070   7.316   3.295   9.645  1.4846  0.0006  0.1098
   73MOL0     H10071   7.926   3.690   9.835  2.9636  3.2068 -2.8938
   73MOL0     H10072   8.224   3.869   9.897  1.9595 -0.2231  0.7309
   73MOL0     H10073   8.226   3.740  10.011 -0.5681  1.3632  0.9551
   73MOL0     H10074   8.155   3.698   9.861  2.1414  1.7150 -1.4042
   74MOL0     O10075   7.890   0.429   5.161  0.0358  0.1180  0.2312
   74MOL0     C10076   7.771   0.428   5.111 -0.4929  0.0872 -0.4431
   74MOL0     O10077   7.672   0.498   5.170  0.3312 -0.1839 -0.3680
   74MOL0     C10078   7.692   0.591   5.261 -0.2767 -1.3277 -0.5645
   74MOL0     C10079   7.811   0.662   5.283 -0.3349  0.4326 -0.3756
   74MOL0     C10080   7.810   0.781   5.360  0.2080 -0.0574 -1.1970
   74MOL0     C10081   7.689   0.821   5.427  0.3080  1.1828 -0.2580
   74MOL0     O10082   7.681   0.936   5.503  0.3809 -0.3420 -0.0357
   74MOL0     C10083   7.552   0.981   5.551 -0.2002 -0.8611  0.1862
   74MOL0     C10084   7.562   1.116   5.632  0.4858 -0.3099  0.2916
   74MOL0     C10085   7.588   1.077   5.775  0.0676  0.1906  0.1980
   74MOL0     C10086   7.633   1.204   5.860  0.4901  0.2314 -0.1832
   74MOL0     C10087   7.650   1.160   6.002  0.3090  1.1351 -0.5635
   74MOL0     C10088   7.697   1.278   6.088 -0.6554 -1.2089  0.1245
   74MOL0     C10089   7.717   1.220   6.229 -0.1926  0.4567 -0.0590
   74MOL0     C10090   7.768   1.327   6.323  0.1261 -0.2490  0.7409
   74MOL0     N10091   7.660   1.391   6.385  0.3462 -0.8966  0.3033
   74MOL0     C10092   7.586   1.489   6.325  1.2064 -0.8526  0.0149
   74MOL0     C10093   7.468   1.477   6.395  0.4068 -1.2713  1.4395
   74MOL0     C10094   7.343   1.564   6.375 -0.5329  0.8052  0.7584
   74MOL0     C10095   7.249   1.512   6.262  0.3302  0.1918  0.5594
   74MOL0     C10096   7.316   1.481   6.128 -0.7342 -0.3263  0.2710
   74MOL0     C10097   7.220   1.409   6.041  0.0772 -0.9481  0.7955
   74MOL0     O10098   7.286   1.387   5.910  0.5228 -1.0576 -0.2217
   74MOL0     C10099   7.233   1.293   5.832  0.6662 -0.5007  0.7568
   74MOL0     C10100   7.154   1.336   5.721 -0.9761  0.0327 -0.9830
   74MOL0     C10101   7.103   1.247   5.639 -1.0952 -0.5760 -0.9444
   74MOL0     C10102   7.021   1.295   5.519  0.2568 -0.6109  0.6714
   74MOL0     C10103   7.139   1.110   5.644 -0.1823 -0.0374  0.6859
   74MOL0     C10104   7.100   1.008   5.542 -0.2991  0.4567  0.4752
   74MOL0     O10105   7.204   0.942   5.480  0.4767 -0.0192 -0.2070
   74MOL0     C10106   7.187   0.834   5.390  0.2938  0.3926 -0.2125
   74MOL0     C10107   7.288   0.825   5.288 -0.8464 -0.0617  0.2438
   74MOL0     C10108   7.272   0.719   5.190 -0.3686  1.3680  0.0389
   74MOL0     C10109   7.169   0.619   5.202  0.0522 -0.5434 -0.4672
   74MOL0     O10110   7.134   0.522   5.105 -0.1698  0.2876  0.2752
   74MOL0     C10111   7.238   0.489   5.005  0.0469  0.5261  0.3929
   74MOL0     C10112   7.203   0.369   4.924 -0.8910  0.7611 -0.2731
   74MOL0     C10113   7.074   0.395   4.844 -0.7844  0.6453  0.0330
   74MOL0     C10114   7.024   0.260   4.781 -0.3926  0.1264 -0.4591
   74MOL0     C10115   7.110   0.204   4.671 -0.2708 -0.2453 -0.2065
   74MOL0     C10116   7.056   0.072   4.629  0.3857 -0.9335  0.5809
   74MOL0     C10117   7.133  -0.004   4.519 -0.0868  0.2870  0.0475
   74MOL0     C10118   7.046  -0.116   4.457 -0.7425 -0.1757 -0.0663
   74MOL0    Cl10119   6.892  -0.051   4.404  0.6775  0.0561  0.0997
   74MOL0     C10120   7.086   0.627   5.319 -0.1055 -0.0368  0.4368
   74MOL0     C10121   7.088   0.733   5.400 -0.5790  0.4643 -0.6254
   74MOL0     O10122   6.983   0.969   5.542  0.4414  0.1917 -1.0532
   74MOL0     C10123   7.224   1.061   5.747 -0.2182 -0.1569 -0.1684
   74MOL0     C10124   7.271   1.156   5.836 -0.1006  0.3725  0.4348
   74MOL0     N10125   7.476   1.380   6.488 -0.1910 -0.0271 -0.2678
   74MOL0     N10126   7.589   1.324   6.477  0.2705 -0.0537  0.1821
   74MOL0     C10127   7.574   0.744   5.410  0.1270 -0.1385 -0.0489
   74MOL0     C10128   7.576   0.632   5.333 -0.2844  0.6734  0.7755
   74MOL0     C10129   7.734   0.377   4.979  0.1095  0.0623  0.2387
   74MOL0     C10130   7.624   0.433   4.901 -0.8735 -0.4845  0.5901
   74MOL0     C10131   7.592   0.391   4.771 -0.0660 -0.1671 -0.7924
   74MOL0     C10132   7.641   0.272   4.726 -0.3653 -0.2141 -0.0759
   74MOL0     O10133   7.593   0.224   4.604  0.0152  0.0768  0.0245
   74MOL0     C10134   7.678   0.129   4.546 -0.1257 -0.8433  0.5190
   74MOL0     C10135   7.624   0.102   4.406  0.1204  0.3373  0.6298
   74MOL0     C10136   7.472   0.070   4.397  0.5084 -1.0781 -0.1946
   74MOL0     C10137   7.411   0.141   4.273 -0.3769 -0.0140 -0.5398
   74MOL0     C10138   7.469   0.083   4.157  0.7541 -0.3913  0.4344
   74MOL0     C10139   7.510   0.021   4.058 -0.6670 -0.2633  0.5923
   74MOL0     C10140   7.741   0.211   4.798  0.7052  0.0499 -0.4238
   74MOL0     C10141   7.789   0.260   4.922 -0.2027 -0.6832 -0.8682
   74MOL0     C10142   7.892   0.185   5.006 -0.8580  0.7070  0.6533
   74MOL0     H10143   7.897   0.642   5.220 -1.2237  1.1289 -1.8681
   74MOL0     H10144   7.905   0.827   5.384 -0.6149  0.4917  1.2239
   74MOL0     H10145   7.497   0.901   5.602  0.4829 -2.2450 -1.1460
   74MOL0     H10146   7.484   0.995   5.465  1.5410 -2.1878 -1.5023
   74MOL0     H10147   7.630   1.192   5.592 -1.4102 -0.6002 -4.0456
   74MOL0     H10148   7.469   1.172   5.617  2.3836  2.9586 -0.4010
   74MOL0     H10149   7.491   1.040   5.811 -0.6181  1.9662  0.2792
   74MOL0     H10150   7.658   0.993   5.778 -2.9382 -2.5630 -0.5457
   74MOL0     H10151   7.725   1.242   5.813  1.9945 -0.8937  1.7253
   74MOL0     H10152   7.558   1.283   5.856  0.5379  0.3562  1.0374
   74MOL0     H10153   7.729   1.085   6.013  1.8680  2.7564 -0.2082
   74MOL0     H10154   7.550   1.123   6.028  0.4980  0.4929 -0.7464
   74MOL0     H10155   7.789   1.309   6.038 -0.6498 -0.9108  0.3131
   74MOL0     H10156   7.627   1.362   6.076  2.0023  1.4961  2.1020
   74MOL0     H10157   7.793   1.141   6.223 -0.4796 -0.0226  1.8686
   74MOL0     H10158   7.632   1.165   6.270  1.3147 -2.3933 -0.4694
   74MOL0     H10159   7.818   1.268   6.400 -0.9896  0.5290  2.1315
   74MOL0     H10160   7.832   1.402   6.276 -0.0706 -1.5495 -1.7464
   74MOL0     H10161   7.604   1.563   6.248 -1.8607 -0.8551 -0.8748
   74MOL0     H10162   7.378   1.665   6.354 -1.9241  0.9313 -1.2102
   74MOL0     H10163   7.283   1.568   6.466 -0.6894  4.1157  0.6353
   74MOL0     H10164   7.199   1.424   6.303  0.3869  0.2133  0.6755
   74MOL0     H10165   7.170   1.587   6.247 -2.6432 -2.7920 -0.0206
   74MOL0     H10166   7.354   1.572   6.081 -0.4377 -0.5284  0.1161
   74MOL0     H10167   7.396   1.410   6.149 -0.3469 -0.1605 -0.6037
   74MOL0     H10168   7.184   1.314   6.081  2.0391 -1.8431  0.5503
   74MOL0     H10169   7.136   1.475   6.016  0.6272 -0.8439 -0.9749
   74MOL0     H10170   7.132   1.442   5.710 -0.9991 -0.0604 -1.9154
   74MOL0     H10171   6.989   1.398   5.539  0.3410 -0.2488 -0.9437
   74MOL0     H10172   6.927   1.238   5.519 -1.1903  1.6056 -1.1982
   74MOL0     H10173   7.077   1.284   5.426  2.7092  0.1095  1.9735
   74MOL0     H10174   7.368   0.897   5.283  0.2376 -1.2899 -2.2911
   74MOL0     H10175   7.345   0.714   5.110  0.7329  1.9491  0.9639
   74MOL0     H10176   7.254   0.576   4.940  0.8800  2.4504  3.0140
   74MOL0     H10177   7.329   0.462   5.059 -1.5098 -1.2488  2.2669
   74MOL0     H10178   7.285   0.360   4.853  1.1590  0.1059  2.0120
   74MOL0     H10179   7.191   0.279   4.986 -0.2600  0.7923 -0.0954
   74MOL0     H10180   7.115   0.469   4.775  3.0730  0.8184  2.1612
   74MOL0     H10181   7.003   0.450   4.906 -0.7145 -0.9316  1.6098
   74MOL0     H10182   6.929   0.283   4.732 -0.2275 -1.5596 -1.6723
   74MOL0     H10183   7.013   0.180   4.854  0.6740  1.0009  0.7009
   74MOL0     H10184   7.114   0.273   4.586  2.2699 -0.4213 -0.3196
   74MOL0     H10185   7.210   0.178   4.709 -0.1158 -1.5897 -1.4450
   74MOL0     H10186   6.955   0.098   4.597  1.4802 -1.0694 -3.5102
   74MOL0     H10187   7.043   0.007   4.716 -0.3033 -0.3070  0.9571
   74MOL0     H10188   7.224  -0.044   4.566 -1.7986  0.4968  3.9831
   74MOL0     H10189   7.152   0.063   4.434 -3.8134  0.2809 -0.9639
   74MOL0     H10190   7.038  -0.191   4.537  0.0464  1.7030  1.8617
   74MOL0     H10191   7.084  -0.158   4.364  0.5051 -1.3193  0.9137
   74MOL0     H10192   7.018   0.544   5.332 -2.5825  2.3239  4.8410
   74MOL0     H10193   7.018   0.716   5.481 -0.0619 -3.1881 -0.7651
   74MOL0     H10194   7.259   0.959   5.758 -0.1623 -0.2801 -1.3765
   74MOL0     H10195   7.342   1.135   5.916 -0.5598  1.8027  1.2475
   74MOL0     H10196   7.481   0.744   5.467 -2.1828 -2.5922 -3.4401
   74MOL0     H10197   7.483   0.583   5.308  0.1699  1.3606 -2.8656
   74MOL0     H10198   7.584   0.527   4.938  3.0214  1.5980  0.1050
   74MOL0     H10199   7.509   0.427   4.711  0.6438 -0.2092 -1.8344
   74MOL0     H10200   7.773   0.178   4.522 -2.9811  4.2688 -2.0295
   74MOL0     H10201   7.686   0.036   4.604 -1.4159 -0.2594  1.6877
   74MOL0     H10202   7.690   0.034   4.351 -2.0576 -2.1382  0.8641
   74MOL0     H10203   7.635   0.195   4.350 -0.9645 -1.3435 -2.6641
   74MOL0     H10204   7.451  -0.037   4.382 -0.6858 -1.0868  1.2841
   74MOL0     H10205   7.417   0.100   4.487 -0.1342  2.7655 -1.7180
   74MOL0     H10206   7.436   0.248   4.268  2.4121 -0.4410  1.7280
   74MOL0     H10207   7.303   0.122   4.273  0.0479 -2.7926 -0.6138
   74MOL0     H10208   7.576  -0.030   3.990  1.1703  0.5094  1.7463
   74MOL0     H10209   7.795   0.119   4.777 -0.5397 -0.9364  0.4732
   74MOL0     H10210   7.920   0.088   4.965 -0.2023  0.7573  0.9607
   74MOL0     H10211   7.992   0.229   5.017  0.2068 -1.6430  0.9307
   74MOL0     H10212   7.860   0.166   5.109  1.7874  2.3863  1.9147
   75MOL0     O10213   9.607   1.530   6.097  0.1563 -0.1459  0.0973
   75MOL0     C10214   9.549   1.529   6.202 -0.7950  0.5102  0.3859
   75MOL0     O10215   9.622   1.503   6.313  0.4610 -0.0956 -0.4673
   75MOL0     C10216   9.753   1.463   6.314  0.0063  0.5675  0.9110
   75MOL0     C10217   9.796   1.340   6.260  0.1235  0.6602  0.0249
   75MOL0     C10218   9.939   1.313   6.275  0.0224 -0.2270  0.0143
   75MOL0     C10219  10.032   1.403   6.338 -0.6642  0.2495 -0.1059
   75MOL0     O10220  10.160   1.365   6.370  0.6937  0.6746 -0.0472
   75MOL0     C10221  10.170   1.246   6.452 -0.2406  0.7698  0.6485
   75MOL0     C10222  10.248   1.265   6.583  1.0870  0.5344 -0.3205
   75MOL0     C10223  10.397   1.263   6.571  0.1628 -0.6442  0.0728
   75MOL0     C10224  10.464   1.301   6.708 -0.0700  0.5862 -0.1260
   75MOL0     C10225  10.615   1.272   6.711 -0.9809  0.0791  0.2810
   75MOL0     C10226  10.678   1.327   6.836 -0.3695 -0.7026 -0.3542
   75MOL0     C10227  10.826   1.284   6.828 -0.4222 -0.1151 -0.0424
   75MOL0     C10228  10.897   1.353   6.950 -0.4954  0.0140  0.0005
   75MOL0     N10229  10.946   1.498   6.929 -0.3307  0.0072 -0.4656
   75MOL0     C10230  11.042   1.544   6.834  0.5003  0.3642  0.1895
   75MOL0     C10231  11.034   1.685   6.842 -0.7110  1.5933 -0.3411
   75MOL0     C10232  11.114   1.794   6.778  0.0274  0.1456 -0.0735
   75MOL0     C10233  11.247   1.802   6.862 -0.3678 -0.1172 -0.5448
   75MOL0     C10234  11.309   1.939   6.837 -0.5158 -0.1669  0.0841
   75MOL0     C10235  11.425   1.978   6.928 -0.0418  0.4026  0.1610
   75MOL0     O10236  11.454   2.118   6.901 -0.0308  0.4112  0.0130
   75MOL0     C10237  11.554   2.170   6.974  0.0715  0.1544 -0.3481
   75MOL0     C10238  11.514   2.208   7.100  0.1708  0.4305  0.0390
   75MOL0     C10239  11.602   2.235   7.209  0.2713 -0.0598 -0.2663
   75MOL0     C10240  11.534   2.250   7.350  0.3439 -0.1330 -0.1879
   75MOL0     C10241  11.737   2.251   7.182 -0.9861  0.2643  0.0912
   75MOL0     C10242  11.841   2.287   7.295  0.4076 -0.3666 -0.3025
   75MOL0     O10243  11.966   2.304   7.244 -0.2936  0.5206 -0.2212
   75MOL0     C10244  12.072   2.275   7.331  0.8460  0.5615 -0.4446
   75MOL0     C10245  12.108   2.139   7.336 -0.1602  0.7346 -0.2467
   75MOL0     C10246  12.231   2.103   7.392  0.5302  0.5691 -0.4196
   75MOL0     C10247  12.318   2.206   7.441 -0.0804  0.3753 -0.1222
   75MOL0     O10248  12.442   2.191   7.494  0.4160  0.3053  0.5510
   75MOL0     C10249  12.519   2.082   7.462 -0.2584  1.4059  0.4634
   75MOL0     C10250  12.666   2.083   7.510  0.6887 -0.3687 -0.0282
   75MOL0     C10251  12.670   2.035   7.658  0.0913  0.2494  0.4766
   75MOL0     C10252  12.610   2.146   7.760  0.3092  0.0289  0.1982
   75MOL0     C10253  12.625   2.117   7.903 -0.1980 -0.4197  0.0839
   75MOL0     C10254  12.579   2.236   7.993  1.0065  0.3992  0.0560
   75MOL0     C10255  12.576   2.185   8.138  0.0023 -0.3477  0.2094
   75MOL0     C10256  12.561   2.299   8.240 -0.4229 -0.0758 -0.5765
   75MOL0    Cl10257  12.398   2.343   8.212  0.2785 -0.1111 -0.4599
   75MOL0     C10258  12.270   2.337   7.447 -0.4557 -0.3033 -0.0651
   75MOL0     C10259  12.157   2.373   7.389  0.2336 -0.1063 -0.3469
   75MOL0     O10260  11.813   2.291   7.411 -0.6461 -0.0245 -1.2552
   75MOL0     C10261  11.785   2.209   7.056 -0.2275 -0.2150 -0.1361
   75MOL0     C10262  11.695   2.177   6.947  0.0439 -0.9587 -0.0200
   75MOL0     N10263  10.942   1.717   6.943  0.5053  0.7078  0.4550
   75MOL0     N10264  10.891   1.606   6.991 -0.5552  1.3132 -0.7425
   75MOL0     C10265   9.982   1.526   6.375 -0.2610 -0.0675 -0.0137
   75MOL0     C10266   9.843   1.557   6.365  0.9881 -0.0377  0.0392
   75MOL0     C10267   9.397   1.544   6.208  0.2542  0.6383  1.0344
   75MOL0     C10268   9.351   1.528   6.335  0.4296  0.3839  0.8418
   75MOL0     C10269   9.216   1.552   6.361 -0.5666  0.5310  0.0395
   75MOL0     C10270   9.119   1.573   6.261  0.0916 -0.5914  0.9374
   75MOL0     O10271   8.989   1.573   6.294  0.6530  0.6016 -1.0510
   75MOL0     C10272   8.885   1.576   6.194  0.6481 -0.8837 -0.2287
   75MOL0     C10273   8.841   1.719   6.160  0.5550 -0.3455  0.8055
   75MOL0     C10274   8.779   1.784   6.286 -0.1461 -0.5164  0.5994
   75MOL0     C10275   8.773   1.934   6.288 -0.2594  0.6296  0.7836
   75MOL0     C10276   8.912   1.987   6.275 -0.3970 -1.0052 -0.3907
   75MOL0     C10277   9.011   2.055   6.279  0.1608 -0.9010  0.0939
   75MOL0     C10278   9.178   1.591   6.129 -0.0890 -0.3907 -0.1972
   75MOL0     C10279   9.314   1.580   6.104 -0.3704  0.5877 -0.4771
   75MOL0     C10280   9.367   1.603   5.963  0.1104  0.2992 -0.2461
   75MOL0     H10281   9.725   1.280   6.205 -3.3852  2.3903  2.2886
   75MOL0     H10282   9.994   1.225   6.244  2.6468  1.4607 -0.4109
   75MOL0     H10283  10.215   1.166   6.392 -1.0113  0.0885  0.9519
   75MOL0     H10284  10.068   1.214   6.477  0.2303 -0.3452  1.1830
   75MOL0     H10285  10.220   1.361   6.628  0.5415  0.6634 -0.9303
   75MOL0     H10286  10.223   1.182   6.650  1.2457  0.3471 -0.4933
   75MOL0     H10287  10.430   1.162   6.546  3.3440  0.7631 -2.0928
   75MOL0     H10288  10.424   1.330   6.489  0.9370  1.2010  1.7664
   75MOL0     H10289  10.452   1.402   6.746  0.5035  0.3652  0.6718
   75MOL0     H10290  10.430   1.234   6.788  0.8324 -3.0904 -2.5522
   75MOL0     H10291  10.656   1.319   6.621  0.9621 -1.6905  0.1736
   75MOL0     H10292  10.627   1.163   6.709  0.0422  0.1795  0.2951
   75MOL0     H10293  10.671   1.436   6.829  1.0553 -0.5811 -0.3251
   75MOL0     H10294  10.622   1.287   6.921 -0.8722 -0.5888 -0.6334
   75MOL0     H10295  10.872   1.304   6.731 -1.5789  0.1056 -0.5615
   75MOL0     H10296  10.832   1.176   6.845 -0.9023  0.0356  1.2935
   75MOL0     H10297  10.841   1.353   7.044 -1.8976  0.4927 -0.8084
   75MOL0     H10298  10.985   1.292   6.971  0.0694  1.1770  1.1491
   75MOL0     H10299  11.109   1.484   6.773 -0.6371 -0.8530  0.0909
   75MOL0     H10300  11.057   1.887   6.783 -0.5765 -0.2538  0.7564
   75MOL0     H10301  11.133   1.767   6.674 -1.8815  1.8778 -0.9368
   75MOL0     H10302  11.233   1.791   6.970 -1.7641 -2.5991 -0.9230
   75MOL0     H10303  11.316   1.727   6.822 -0.2403  0.0965 -0.7293
   75MOL0     H10304  11.331   1.940   6.730 -0.2505 -1.7865  0.0864
   75MOL0     H10305  11.238   2.020   6.855 -0.4855 -0.5990  2.5280
   75MOL0     H10306  11.390   1.981   7.031  0.0305 -0.8417  0.2323
   75MOL0     H10307  11.505   1.908   6.901 -2.4991 -3.5674  2.2366
   75MOL0     H10308  11.408   2.217   7.121  0.7038  1.5330  2.5579
   75MOL0     H10309  11.558   2.346   7.397 -2.5531  0.1210  1.0100
   75MOL0     H10310  11.566   2.162   7.407 -0.7317 -1.6590 -1.8411
   75MOL0     H10311  11.426   2.252   7.332  0.1057 -1.1270  0.9982
   75MOL0     H10312  12.044   2.060   7.297 -0.8629  0.8104  0.7066
   75MOL0     H10313  12.272   2.003   7.386 -0.8239  0.0590 -2.1105
   75MOL0     H10314  12.469   1.993   7.501 -1.5849  2.3542  0.9775
   75MOL0     H10315  12.514   2.081   7.353 -4.2990 -0.0059  0.5175
   75MOL0     H10316  12.726   2.017   7.445  1.2226  1.3653 -1.3661
   75MOL0     H10317  12.707   2.184   7.507  0.7340 -0.3103  1.7219
   75MOL0     H10318  12.775   2.021   7.682  0.8359 -2.0731 -3.3603
   75MOL0     H10319  12.610   1.945   7.672 -0.2463 -0.0866 -2.4425
   75MOL0     H10320  12.503   2.161   7.745 -0.2481 -4.4483 -1.7622
   75MOL0     H10321  12.640   2.250   7.743 -1.0173  1.0030  3.0965
   75MOL0     H10322  12.569   2.025   7.920 -1.6519  0.5844  0.8885
   75MOL0     H10323  12.728   2.091   7.932 -0.4742 -2.3326 -0.5103
   75MOL0     H10324  12.478   2.267   7.964  0.8765  1.1806  1.2473
   75MOL0     H10325  12.635   2.329   7.981  0.1294  1.0241  0.6269
   75MOL0     H10326  12.664   2.125   8.161  2.0870  2.6427  0.4897
   75MOL0     H10327  12.494   2.112   8.135  0.6422 -1.1004  0.7280
   75MOL0     H10328  12.633   2.377   8.212  1.5785 -1.5944  0.0458
   75MOL0     H10329  12.588   2.272   8.342  4.0322  1.2151 -1.1805
   75MOL0     H10330  12.340   2.411   7.485  2.1398 -2.9546  0.7100
   75MOL0     H10331  12.126   2.477   7.400  0.1700 -0.1847  0.2385
   75MOL0     H10332  11.892   2.205   7.037 -0.3531 -2.3780 -0.6518
   75MOL0     H10333  11.740   2.159   6.850  2.1799  3.7052 -0.1397
   75MOL0     H10334  10.054   1.595   6.416  0.5532 -2.1425  2.3143
   75MOL0     H10335   9.806   1.655   6.392 -1.2539 -0.9474  0.5196
   75MOL0     H10336   9.402   1.493   6.423 -0.1285 -0.0196  1.0101
   75MOL0     H10337   9.176   1.534   6.461  0.2923 -1.3937  0.0684
   75MOL0     H10338   8.911   1.526   6.100 -1.7973 -1.7397 -0.5173
   75MOL0     H10339   8.796   1.524   6.230 -0.6781  2.1313  1.2214
   75MOL0     H10340   8.764   1.713   6.083 -0.0981  2.4007  1.1561
   75MOL0     H10341   8.931   1.771   6.126 -0.5967  3.7602  3.2946
   75MOL0     H10342   8.677   1.747   6.302  0.4302 -1.8885  1.2427
   75MOL0     H10343   8.837   1.752   6.373  3.9555 -1.8924 -2.3299
   75MOL0     H10344   8.724   1.967   6.381 -2.7896  1.2992 -0.6922
   75MOL0     H10345   8.717   1.969   6.201  0.9254  1.2557  0.2467
   75MOL0     H10346   9.097   2.118   6.284  1.7382 -2.9558  0.1235
   75MOL0     H10347   9.119   1.617   6.041 -1.4215 -1.1320  0.4463
   75MOL0     H10348   9.299   1.648   5.890 -1.7589 -3.4291 -1.0062
   75MOL0     H10349   9.450   1.672   5.985 -0.6683  0.9286  0.7849
   75MOL0     H10350   9.413   1.517   5.914  0.5829  1.1293 -1.3135
   76MOL0     O10351   0.603   8.401   7.665  0.4509  0.4969  0.0670
   76MOL0     C10352   0.625   8.397   7.547 -0.0424 -0.4856  0.0546
   76MOL0     O10353   0.705   8.501   7.486 -0.3725 -0.0413  1.4974
   76MOL0     C10354   0.784   8.455   7.382 -0.0735 -0.5677 -0.6303
   76MOL0     C10355   0.874   8.347   7.393 -0.3476 -0.9400 -0.3404
   76MOL0     C10356   0.955   8.312   7.286  0.4922 -0.1218 -1.2048
   76MOL0     C10357   0.938   8.377   7.160 -0.4196 -0.2051  0.0152
   76MOL0     O10358   1.017   8.337   7.057 -0.9136 -0.1460  0.1490
   76MOL0     C10359   1.035   8.421   6.942 -0.1875  0.0187  0.2783
   76MOL0     C10360   1.145   8.374   6.852 -0.9560 -0.2058  0.4471
   76MOL0     C10361   1.182   8.474   6.750 -0.7822  0.3027  0.3736
   76MOL0     C10362   1.254   8.420   6.633 -0.4682  0.4825  0.5283
   76MOL0     C10363   1.241   8.528   6.519 -0.8628 -0.6801 -0.2882
   76MOL0     C10364   1.108   8.541   6.437  0.3273 -0.7661 -0.3230
   76MOL0     C10365   1.125   8.609   6.309 -0.5500 -0.4631 -0.2539
   76MOL0     C10366   1.154   8.758   6.323  0.9636  0.1450 -0.6348
   76MOL0     N10367   1.037   8.831   6.388  0.5516 -0.8431  0.5243
   76MOL0     C10368   0.906   8.847   6.349  0.1144 -0.0129 -0.5162
   76MOL0     C10369   0.841   8.891   6.458 -0.9905  0.3783 -0.4298
   76MOL0     C10370   0.698   8.939   6.479 -0.2567  0.5479  0.3161
   76MOL0     C10371   0.656   9.067   6.402 -0.1684 -0.1547 -0.0474
   76MOL0     C10372   0.755   9.191   6.438 -0.1049 -0.2487  0.2106
   76MOL0     C10373   0.722   9.322   6.366  0.4425 -1.0974 -0.1751
   76MOL0     O10374   0.726   9.292   6.228  0.1407 -0.5660  0.3210
   76MOL0     C10375   0.820   9.343   6.143 -0.1897 -0.3341 -0.2849
   76MOL0     C10376   0.792   9.364   6.007  1.0804 -0.3539 -0.6158
   76MOL0     C10377   0.871   9.432   5.915 -0.2590 -0.3170  0.1762
   76MOL0     C10378   0.810   9.434   5.772 -0.0727 -0.5577 -0.1824
   76MOL0     C10379   0.984   9.501   5.959  0.2848 -0.2625  0.3467
   76MOL0     C10380   1.040   9.609   5.889 -0.5323 -0.3631  1.0791
   76MOL0     O10381   0.945   9.686   5.819 -0.1848  0.1470 -0.0599
   76MOL0     C10382   0.994   9.788   5.747 -0.4768  0.6142 -0.1303
   76MOL0     C10383   1.077   9.770   5.634  0.0464  0.4208  0.5939
   76MOL0     C10384   1.135   9.876   5.570  0.1473 -0.5674 -0.0349
   76MOL0     C10385   1.095  10.013   5.603 -0.9431  1.0350  1.1188
   76MOL0     O10386   1.152  10.128   5.549  0.7700  0.3183 -0.8067
   76MOL0     C10387   1.247  10.111   5.445 -0.1890  0.3506 -0.7076
   76MOL0     C10388   1.316  10.251   5.430 -0.1859 -0.8548  0.2344
   76MOL0     C10389   1.435  10.283   5.528  0.1752  0.2732  0.2064
   76MOL0     C10390   1.374  10.355   5.651 -0.4653  0.4886 -0.1331
   76MOL0     C10391   1.493  10.393   5.748  0.5356 -0.0065 -0.0938
   76MOL0     C10392   1.451  10.426   5.894  0.7872  0.1066 -0.7201
   76MOL0     C10393   1.562  10.482   5.985  0.2136  0.7943 -0.9392
   76MOL0     C10394   1.522  10.495   6.136  0.2142 -0.5004  0.2626
   76MOL0    Cl10395   1.650  10.449   6.254 -0.2676 -0.1790 -0.1998
   76MOL0     C10396   1.003  10.030   5.712 -0.5318  0.6494 -0.3606
   76MOL0     C10397   0.959   9.918   5.784 -0.1925  0.7136 -0.1525
   76MOL0     O10398   1.159   9.635   5.895  0.0074  0.1472  0.0052
   76MOL0     C10399   1.019   9.481   6.094  0.0717  0.5161  0.0632
   76MOL0     C10400   0.944   9.401   6.186 -0.3562  0.1786 -0.0486
   76MOL0     N10401   0.928   8.902   6.564 -0.1447  0.2682  0.1226
   76MOL0     N10402   1.036   8.860   6.519  0.5294 -0.2510 -0.7760
   76MOL0     C10403   0.844   8.475   7.135  0.8981  0.5871 -0.1037
   76MOL0     C10404   0.767   8.509   7.251 -0.3316 -0.0682  0.3762
   76MOL0     C10405   0.567   8.285   7.476 -0.8311  0.4038 -0.3961
   76MOL0     C10406   0.483   8.308   7.365 -0.7928 -0.4688  0.0257
   76MOL0     C10407   0.410   8.204   7.312  1.3358 -0.8310 -0.8618
   76MOL0     C10408   0.433   8.073   7.336  0.3782  0.0551  0.9337
   76MOL0     O10409   0.362   7.983   7.260  0.8387  0.5457 -0.6051
   76MOL0     C10410   0.344   7.842   7.284  0.1299 -0.4595  0.0176
   76MOL0     C10411   0.449   7.764   7.199  0.2360  0.8770  0.0079
   76MOL0     C10412   0.418   7.615   7.204  0.2649  0.1912  0.1419
   76MOL0     C10413   0.533   7.521   7.199  0.0061 -0.1199 -0.1092
   76MOL0     C10414   0.589   7.521   7.068 -0.7258  0.6391 -0.4125
   76MOL0     C10415   0.648   7.504   6.963  0.0296  0.2293  0.5803
   76MOL0     C10416   0.519   8.045   7.442 -0.1081 -0.6573 -0.3394
   76MOL0     C10417   0.578   8.143   7.516  0.0047 -1.1689  0.9869
   76MOL0     C10418   0.669   8.096   7.632  0.5749 -0.0603 -0.4295
   76MOL0     H10419   0.883   8.291   7.486  2.1507 -1.0196 -0.5732
   76MOL0     H10420   1.030   8.235   7.302  1.0227  0.8142  1.1360
   76MOL0     H10421   1.053   8.524   6.974 -0.0610 -0.3789  1.5466
   76MOL0     H10422   0.938   8.418   6.893  0.0543 -2.1377 -0.1634
   76MOL0     H10423   1.233   8.341   6.908  0.1413  1.0387 -0.4779
   76MOL0     H10424   1.097   8.289   6.802 -3.1160  1.0892  0.1802
   76MOL0     H10425   1.089   8.517   6.712 -1.0125 -0.0483  0.5335
   76MOL0     H10426   1.255   8.539   6.798  2.7338 -3.5003  0.7203
   76MOL0     H10427   1.358   8.403   6.662  0.1881  1.6742 -0.9784
   76MOL0     H10428   1.202   8.328   6.605 -2.7919  1.7437  0.4731
   76MOL0     H10429   1.320   8.500   6.449 -1.6653 -1.7586 -0.7799
   76MOL0     H10430   1.272   8.623   6.564  0.9348 -0.2249 -2.3086
   76MOL0     H10431   1.059   8.444   6.427  1.2867 -1.5237  1.7689
   76MOL0     H10432   1.039   8.598   6.499  0.1544 -1.8339  0.4998
   76MOL0     H10433   1.034   8.608   6.248 -0.6305  2.1204 -0.2771
   76MOL0     H10434   1.204   8.551   6.262  1.5829  1.6705  0.4886
   76MOL0     H10435   1.249   8.773   6.375  0.3095  1.3964  0.2596
   76MOL0     H10436   1.167   8.808   6.226 -0.4056  0.1606 -0.8283
   76MOL0     H10437   0.873   8.841   6.246  1.3459 -1.2650 -0.8725
   76MOL0     H10438   0.684   8.942   6.587  2.2479 -0.7365  0.7442
   76MOL0     H10439   0.641   8.851   6.446 -0.3050  1.2290 -1.5117
   76MOL0     H10440   0.649   9.046   6.295  0.2155 -0.2519 -0.0539
   76MOL0     H10441   0.557   9.099   6.436 -0.6796  0.1994 -1.7496
   76MOL0     H10442   0.745   9.218   6.544 -1.4390  1.3513 -0.2649
   76MOL0     H10443   0.857   9.158   6.418  0.6203  1.5666  0.6936
   76MOL0     H10444   0.623   9.357   6.395  0.6687 -0.1360 -0.5325
   76MOL0     H10445   0.797   9.398   6.392  0.3636 -1.5422  1.4570
   76MOL0     H10446   0.692   9.329   5.984  0.2724  0.2729  1.6665
   76MOL0     H10447   0.893   9.432   5.700  1.9637 -0.4485  2.0238
   76MOL0     H10448   0.749   9.524   5.764  4.8245  3.0617 -2.7708
   76MOL0     H10449   0.747   9.349   5.744 -1.7062  0.5323  0.0795
   76MOL0     H10450   1.104   9.670   5.601  0.5343  1.2182 -1.5674
   76MOL0     H10451   1.210   9.857   5.494  1.4250  0.5899  0.9041
   76MOL0     H10452   1.323  10.036   5.471  0.0262  0.3134 -1.4223
   76MOL0     H10453   1.202  10.085   5.349 -0.4565 -0.3927 -0.3925
   76MOL0     H10454   1.372  10.250   5.335  2.2577  0.8601  1.5424
   76MOL0     H10455   1.243  10.332   5.425 -0.2325 -0.8374  1.1203
   76MOL0     H10456   1.504  10.353   5.479  1.7499 -0.4279  1.3118
   76MOL0     H10457   1.472  10.186   5.562 -2.6704 -0.2305  2.1503
   76MOL0     H10458   1.309  10.285   5.703  1.2496 -0.9545  0.1953
   76MOL0     H10459   1.330  10.449   5.617  0.7761  2.3619  3.0411
   76MOL0     H10460   1.564  10.309   5.746 -0.1193 -0.7310  2.8079
   76MOL0     H10461   1.529  10.486   5.704  1.2133 -0.8098 -1.3351
   76MOL0     H10462   1.422  10.334   5.944  2.4673 -1.3739 -2.3242
   76MOL0     H10463   1.365  10.494   5.895  2.9028  3.0055  0.5915
   76MOL0     H10464   1.591  10.579   5.946  0.1281  1.6170  0.9143
   76MOL0     H10465   1.648  10.414   5.987 -1.3931 -1.3519  0.3335
   76MOL0     H10466   1.437  10.427   6.149 -0.6415  0.3555 -0.6837
   76MOL0     H10467   1.486  10.597   6.154  3.7527  0.6154  1.8944
   76MOL0     H10468   0.977  10.127   5.751 -1.0508  1.1665 -1.9163
   76MOL0     H10469   0.896   9.928   5.872  2.3097 -1.9261  2.1293
   76MOL0     H10470   1.104   9.536   6.133  0.4009 -0.6436  1.0504
   76MOL0     H10471   0.980   9.398   6.288 -0.8282  2.7428  0.2612
   76MOL0     H10472   0.832   8.522   7.038  0.0211  0.3744 -0.1080
   76MOL0     H10473   0.676   8.566   7.236 -1.9795 -2.5779  0.2894
   76MOL0     H10474   0.471   8.415   7.349 -0.5882 -0.0216  2.5309
   76MOL0     H10475   0.354   8.225   7.221  0.4636  1.5041  0.1212
   76MOL0     H10476   0.350   7.825   7.392 -0.7386  2.3631  0.5770
   76MOL0     H10477   0.242   7.813   7.258 -0.8763 -0.6550  3.6960
   76MOL0     H10478   0.553   7.770   7.234 -0.1977  2.1956  1.1834
   76MOL0     H10479   0.454   7.788   7.093 -0.1109 -1.8178 -0.7063
   76MOL0     H10480   0.368   7.588   7.297  2.1297 -0.4787  0.9973
   76MOL0     H10481   0.353   7.593   7.118  1.5119 -1.6184 -0.3919
   76MOL0     H10482   0.487   7.422   7.203  1.2485 -0.6879  0.5615
   76MOL0     H10483   0.607   7.542   7.277  1.4594  3.1832 -2.1592
   76MOL0     H10484   0.694   7.477   6.870 -2.5464  2.0608 -1.3853
   76MOL0     H10485   0.536   7.946   7.483 -4.1539  0.0457  3.9640
   76MOL0     H10486   0.644   8.153   7.721  0.7369  1.1662 -1.1451
   76MOL0     H10487   0.638   7.995   7.660  0.0487  0.1431 -0.2628
   76MOL0     H10488   0.775   8.114   7.614  1.3499  0.3228  3.6413
   77MOL0     O10489   8.188   1.937  11.433 -0.5942  0.1875 -0.6180
   77MOL0     C10490   8.183   1.949  11.553  0.1095 -0.1154  0.5659
   77MOL0     O10491   8.150   1.853  11.640  0.0791  0.3927  0.0022
   77MOL0     C10492   8.168   1.718  11.616  0.5249 -0.7269 -0.0155
   77MOL0     C10493   8.199   1.631  11.716 -0.4779 -0.0526 -0.4660
   77MOL0     C10494   8.231   1.497  11.692 -0.4647 -0.0785  0.1740
   77MOL0     C10495   8.217   1.449  11.565 -0.5933 -0.7667 -0.3962
   77MOL0     O10496   8.245   1.315  11.540  0.5776 -1.1511 -0.1681
   77MOL0     C10497   8.305   1.273  11.417  0.8690 -0.1637 -0.6814
   77MOL0     C10498   8.372   1.142  11.441  0.1829 -0.2751 -0.2162
   77MOL0     C10499   8.409   1.069  11.311  0.0377 -0.5821 -0.4317
   77MOL0     C10500   8.492   0.949  11.339  0.3623  0.2285  0.2139
   77MOL0     C10501   8.554   0.894  11.218 -0.1002  0.3527 -0.1435
   77MOL0     C10502   8.626   0.764  11.263 -0.2739  0.4740  0.2707
   77MOL0     C10503   8.732   0.723  11.153  0.0380  0.0744 -0.0130
   77MOL0     C10504   8.771   0.571  11.168  0.3514 -0.3078  0.0754
   77MOL0     N10505   8.856   0.535  11.286  0.0106  0.6342  1.0213
   77MOL0     C10506   8.861   0.409  11.335 -0.9819 -0.0482  0.9855
   77MOL0     C10507   8.976   0.406  11.407 -0.2572 -0.4943 -0.0895
   77MOL0     C10508   9.015   0.287  11.492  0.7008 -0.2989  1.1550
   77MOL0     C10509   9.061   0.170  11.396  0.3150  0.6658 -0.4022
   77MOL0     C10510   9.147   0.078  11.488  0.1934  0.3275  0.6387
   77MOL0     C10511   9.182  -0.053  11.410 -0.8559 -0.0908 -0.0279
   77MOL0     O10512   9.068  -0.131  11.379  0.2475 -0.2331 -0.5265
   77MOL0     C10513   9.085  -0.267  11.397 -0.0116 -0.5373 -0.4715
   77MOL0     C10514   9.111  -0.341  11.283 -0.0846 -0.1633 -0.8717
   77MOL0     C10515   9.129  -0.475  11.281 -0.0099 -0.6703 -0.6906
   77MOL0     C10516   9.121  -0.539  11.143  0.3650 -0.3548  0.3412
   77MOL0     C10517   9.126  -0.537  11.404 -1.0893  0.1722  0.5091
   77MOL0     C10518   9.174  -0.684  11.416  0.0300  0.9580 -0.2275
   77MOL0     O10519   9.168  -0.730  11.546 -0.3879 -0.0327  0.5276
   77MOL0     C10520   9.217  -0.855  11.575  0.1579 -0.7483  0.6054
   77MOL0     C10521   9.147  -0.968  11.546  1.4194  0.3282  0.7583
   77MOL0     C10522   9.211  -1.095  11.561 -0.2467  0.3835  0.6261
   77MOL0     C10523   9.335  -1.103  11.630  0.1880  0.8014  0.0898
   77MOL0     O10524   9.394  -1.228  11.645  0.5165 -0.0486 -0.5036
   77MOL0     C10525   9.533  -1.240  11.675 -0.0821 -0.8537 -0.1101
   77MOL0     C10526   9.593  -1.376  11.642  1.0992 -0.4194 -0.1320
   77MOL0     C10527   9.740  -1.397  11.695  0.4877 -0.6129  0.5248
   77MOL0     C10528   9.789  -1.531  11.665 -0.3815  1.0668 -0.0956
   77MOL0     C10529   9.935  -1.548  11.675  0.5716 -0.1165 -0.0496
   77MOL0     C10530   9.991  -1.694  11.629  0.0734  0.0059 -1.0120
   77MOL0     C10531   9.970  -1.719  11.482  0.0994  0.4701 -1.0788
   77MOL0     C10532  10.020  -1.844  11.425 -0.0364 -0.5047 -0.5862
   77MOL0    Cl10533  10.035  -1.986  11.547 -0.7262 -0.0782  0.4008
   77MOL0     C10534   9.402  -0.986  11.668  0.3293  0.2733  0.0250
   77MOL0     C10535   9.346  -0.860  11.635 -0.5698  1.1606 -0.1326
   77MOL0     O10536   9.210  -0.756  11.314  0.2743  0.0275 -0.6163
   77MOL0     C10537   9.084  -0.468  11.516 -0.1954 -0.3708 -0.4611
   77MOL0     C10538   9.065  -0.334  11.515 -0.8640 -0.2699  0.4564
   77MOL0     N10539   9.030   0.529  11.415  0.7386 -0.3127 -0.6340
   77MOL0     N10540   8.958   0.601  11.339  0.3739  0.3465 -0.6839
   77MOL0     C10541   8.157   1.531  11.464  0.0255 -0.8479 -0.8646
   77MOL0     C10542   8.141   1.665  11.491 -0.0108  0.5225  0.2532
   77MOL0     C10543   8.206   2.083  11.603 -0.2027  0.3465  0.1143
   77MOL0     C10544   8.292   2.095  11.710 -0.3521  0.2056 -0.1794
   77MOL0     C10545   8.324   2.226  11.768 -0.2358  0.0663 -0.0011
   77MOL0     C10546   8.272   2.336  11.708 -0.1205  0.0917  0.8068
   77MOL0     O10547   8.301   2.450  11.777  0.2655 -0.6391  0.2364
   77MOL0     C10548   8.261   2.572  11.727 -0.5336 -0.5812 -0.3631
   77MOL0     C10549   8.385   2.627  11.657  0.0619 -0.0303 -0.2407
   77MOL0     C10550   8.494   2.661  11.757  0.1341 -0.0535 -0.0010
   77MOL0     C10551   8.596   2.764  11.703  0.6238  0.4010 -0.3981
   77MOL0     C10552   8.732   2.717  11.711 -0.2138 -0.2481 -0.9613
   77MOL0     C10553   8.852   2.715  11.712 -0.0784  0.1299  0.1803
   77MOL0     C10554   8.194   2.319  11.585 -1.1342 -0.0557 -0.2943
   77MOL0     C10555   8.159   2.199  11.536  0.6245 -0.7859  0.4964
   77MOL0     C10556   8.064   2.201  11.415 -0.1277 -0.4309 -0.9341
   77MOL0     H10557   8.230   1.671  11.812 -0.8463  1.2825 -0.8728
   77MOL0     H10558   8.277   1.442  11.774  1.1184  2.1235  0.8498
   77MOL0     H10559   8.379   1.342  11.377  0.1585  0.5096 -0.8567
   77MOL0     H10560   8.229   1.252  11.342 -1.7329 -1.8938  2.1789
   77MOL0     H10561   8.459   1.168  11.502 -0.3718  0.8511  0.1143
   77MOL0     H10562   8.308   1.081  11.506 -0.8527  2.4865  1.5056
   77MOL0     H10563   8.318   1.032  11.262  0.6035  1.1790 -3.0057
   77MOL0     H10564   8.465   1.141  11.251  1.1964 -0.7529  0.4064
   77MOL0     H10565   8.573   0.970  11.410  0.1165 -1.0659  0.8936
   77MOL0     H10566   8.430   0.871  11.382  0.0674  0.1736 -0.3038
   77MOL0     H10567   8.625   0.967  11.178 -3.4359  4.2443  0.3381
   77MOL0     H10568   8.487   0.868  11.136 -0.0945  2.7596 -0.9947
   77MOL0     H10569   8.672   0.754  11.362 -0.6706 -3.1385  0.2182
   77MOL0     H10570   8.551   0.684  11.267  2.1847 -1.9581  0.7213
   77MOL0     H10571   8.818   0.788  11.167  0.0882  0.2268 -0.9528
   77MOL0     H10572   8.703   0.744  11.050  1.7187  1.2667 -0.2725
   77MOL0     H10573   8.686   0.503  11.179  0.3652  0.0362  3.2070
   77MOL0     H10574   8.820   0.545  11.073  1.7600  1.9825  0.1153
   77MOL0     H10575   8.805   0.319  11.312 -0.5483 -0.2483  0.7052
   77MOL0     H10576   8.932   0.244  11.549 -1.7168  2.4517 -0.0021
   77MOL0     H10577   9.097   0.317  11.557  0.5278 -1.7496  2.0838
   77MOL0     H10578   8.976   0.121  11.347 -0.7929  1.3061  0.8071
   77MOL0     H10579   9.128   0.215  11.323  3.0980 -2.0805  0.2488
   77MOL0     H10580   9.237   0.127  11.526  2.2258 -3.5753  1.4116
   77MOL0     H10581   9.094   0.040  11.576 -0.1341 -0.3468  0.1592
   77MOL0     H10582   9.228  -0.015  11.318  1.1453 -0.7792  0.6311
   77MOL0     H10583   9.260  -0.111  11.460 -0.0615  1.3083  0.4241
   77MOL0     H10584   9.107  -0.289  11.188 -1.6463  0.1411 -0.6667
   77MOL0     H10585   9.092  -0.466  11.067  0.7799  1.4051  1.8178
   77MOL0     H10586   9.051  -0.622  11.152 -0.0511 -0.3603 -2.1686
   77MOL0     H10587   9.219  -0.585  11.125  0.8753  0.8712 -0.1094
   77MOL0     H10588   9.050  -0.967  11.497  0.5460 -0.2547  2.3911
   77MOL0     H10589   9.172  -1.191  11.530 -0.8646  0.5555  0.8494
   77MOL0     H10590   9.581  -1.172  11.605 -0.5262  1.1666  1.4707
   77MOL0     H10591   9.564  -1.201  11.772 -2.6968  1.9871 -0.2716
   77MOL0     H10592   9.521  -1.455  11.669  0.3226  0.0285 -0.8386
   77MOL0     H10593   9.588  -1.374  11.533 -2.5484 -0.9835 -0.1004
   77MOL0     H10594   9.743  -1.389  11.804  2.2446  0.0389  0.4578
   77MOL0     H10595   9.808  -1.322  11.654  0.2855  0.5290  2.1846
   77MOL0     H10596   9.754  -1.547  11.563 -1.6651  0.9236  0.3487
   77MOL0     H10597   9.753  -1.598  11.744  1.3262  0.5353  0.2598
   77MOL0     H10598   9.980  -1.471  11.612 -0.9564 -0.3159 -1.4477
   77MOL0     H10599   9.957  -1.541  11.782 -0.0627 -3.1473  0.3565
   77MOL0     H10600   9.953  -1.771  11.697  1.8684 -0.4200 -0.4123
   77MOL0     H10601  10.100  -1.702  11.640  0.0087 -0.7762 -0.8746
   77MOL0     H10602  10.016  -1.634  11.431  2.2677  0.0747  0.1081
   77MOL0     H10603   9.862  -1.721  11.467 -0.0765 -3.3451 -0.2722
   77MOL0     H10604  10.123  -1.815  11.402  0.0297 -0.2778 -0.0179
   77MOL0     H10605   9.975  -1.872  11.329 -0.9516  2.0638 -1.0080
   77MOL0     H10606   9.495  -0.977  11.722  0.3654  1.2032 -0.1732
   77MOL0     H10607   9.402  -0.770  11.660  3.1675 -0.6358 -1.3592
   77MOL0     H10608   9.080  -0.519  11.612  1.9606 -1.5754 -0.9626
   77MOL0     H10609   9.059  -0.272  11.604 -0.5067  3.2878 -1.8007
   77MOL0     H10610   8.132   1.488  11.368 -3.7388  2.6659 -1.7130
   77MOL0     H10611   8.119   1.723  11.401  0.9273  2.5480  1.2535
   77MOL0     H10612   8.334   2.007  11.757  0.6588 -0.2597 -1.8554
   77MOL0     H10613   8.384   2.234  11.858 -2.5096  0.4554  1.5864
   77MOL0     H10614   8.172   2.568  11.664 -0.4585  0.3994 -0.5617
   77MOL0     H10615   8.251   2.634  11.817  1.1460 -1.3970  0.4185
   77MOL0     H10616   8.368   2.721  11.603  1.4918 -0.4835 -1.5610
   77MOL0     H10617   8.416   2.549  11.586 -2.5234 -1.4860  0.0966
   77MOL0     H10618   8.463   2.698  11.854  0.8705  2.1496 -0.5461
   77MOL0     H10619   8.549   2.572  11.788  2.4082  1.0620 -0.6231
   77MOL0     H10620   8.573   2.849  11.767 -2.7653 -0.5212 -0.2018
   77MOL0     H10621   8.575   2.783  11.597 -0.7322 -0.4194 -0.2992
   77MOL0     H10622   8.959   2.711  11.720 -0.0781 -0.6035 -0.0757
   77MOL0     H10623   8.157   2.409  11.536 -0.8186  1.5198  2.1803
   77MOL0     H10624   8.036   2.297  11.371 -0.4380  0.7464  1.6176
   77MOL0     H10625   8.098   2.144  11.328 -5.1227 -0.3989 -3.2494
   77MOL0     H10626   7.974   2.149  11.449  0.7362 -2.2220 -1.2760
   78MOL0     O10627   8.454   7.632   4.235 -0.6633 -0.8472  0.5618
   78MOL0     C10628   8.349   7.687   4.212 -0.2629 -0.0175  0.4499
   78MOL0     O10629   8.226   7.632   4.238  0.0928 -0.1940 -0.6632
   78MOL0     C10630   8.236   7.506   4.269 -0.2408  0.2333  0.2690
   78MOL0     C10631   8.224   7.468   4.409  0.7139 -0.1098  0.2832
   78MOL0     C10632   8.227   7.335   4.445  0.3852 -0.3254 -0.3479
   78MOL0     C10633   8.244   7.234   4.354 -0.4085 -0.1321  0.1764
   78MOL0     O10634   8.242   7.100   4.378 -0.6396 -0.0943  0.6216
   78MOL0     C10635   8.289   7.056   4.504 -0.9782  0.7538 -0.3579
   78MOL0     C10636   8.288   6.903   4.501 -0.3963  0.0917 -0.1520
   78MOL0     C10637   8.154   6.855   4.558  1.1522 -0.7902  0.7277
   78MOL0     C10638   8.137   6.709   4.544  0.4570  1.1533 -0.1125
   78MOL0     C10639   8.234   6.627   4.626 -0.3889  0.7656  1.9281
   78MOL0     C10640   8.211   6.477   4.601  0.5664  0.0681 -0.6007
   78MOL0     C10641   8.320   6.388   4.652 -0.2670  0.3500  0.2639
   78MOL0     C10642   8.369   6.414   4.792  0.0359 -0.3335 -0.3201
   78MOL0     N10643   8.456   6.304   4.836 -0.4435  0.2730  0.4141
   78MOL0     C10644   8.427   6.174   4.869 -0.3117 -1.0976  0.4182
   78MOL0     C10645   8.552   6.112   4.878 -0.6247 -0.3778  0.5420
   78MOL0     C10646   8.587   5.969   4.913 -0.8808  0.7704  1.0606
   78MOL0     C10647   8.721   5.919   4.843 -0.2014  0.0223  0.8665
   78MOL0     C10648   8.693   5.868   4.698 -0.5110 -0.3528  0.1774
   78MOL0     C10649   8.806   5.802   4.634  0.0999 -0.3385 -0.5123
   78MOL0     O10650   8.930   5.878   4.632  0.3637  0.1995 -0.7485
   78MOL0     C10651   8.948   5.999   4.561 -0.2903  0.0037  0.2345
   78MOL0     C10652   9.061   6.076   4.602 -0.0515 -0.1873  0.7507
   78MOL0     C10653   9.082   6.207   4.550  0.4965  0.1255 -0.7770
   78MOL0     C10654   9.202   6.278   4.613 -0.4036  0.1735 -0.9501
   78MOL0     C10655   8.997   6.254   4.445  0.6193 -0.8473 -0.2933
   78MOL0     C10656   8.995   6.388   4.371 -0.6922 -0.1220 -0.0700
   78MOL0     O10657   8.938   6.399   4.246  0.3569  0.2452 -0.3773
   78MOL0     C10658   8.969   6.489   4.151 -0.4786 -0.5307 -0.1913
   78MOL0     C10659   8.913   6.466   4.028  0.6810 -0.0984 -0.3347
   78MOL0     C10660   8.938   6.531   3.908  0.6083  0.4905  0.0928
   78MOL0     C10661   9.025   6.639   3.923  0.1861  0.1379  0.9484
   78MOL0     O10662   9.068   6.700   3.812 -0.0602  0.3026 -0.1248
   78MOL0     C10663   9.010   6.833   3.807 -0.0248 -0.6381  0.4969
   78MOL0     C10664   8.858   6.845   3.765 -0.8386 -0.0292  0.5409
   78MOL0     C10665   8.818   6.769   3.637  0.3873 -0.2566  0.6478
   78MOL0     C10666   8.927   6.765   3.523 -0.1769  0.0246 -0.5533
   78MOL0     C10667   8.880   6.692   3.395  0.2986 -0.3199 -1.0515
   78MOL0     C10668   9.000   6.669   3.313 -0.4555 -0.5158 -0.2112
   78MOL0     C10669   8.954   6.593   3.188  0.4577  0.0110 -0.3813
   78MOL0     C10670   9.069   6.554   3.090 -0.6235 -0.0264 -0.5257
   78MOL0    Cl10671   9.149   6.692   3.015  0.0768  0.1849 -0.0685
   78MOL0     C10672   9.080   6.673   4.041  0.0483  0.5672 -0.2027
   78MOL0     C10673   9.052   6.602   4.157 -0.7518  0.1355  0.8534
   78MOL0     O10674   9.055   6.476   4.426 -0.1186 -0.3702  0.4887
   78MOL0     C10675   8.892   6.166   4.399  0.5763 -0.7868  0.1059
   78MOL0     C10676   8.869   6.040   4.452  1.0816 -0.2001  0.2376
   78MOL0     N10677   8.654   6.206   4.848  0.3923 -0.5844  0.8623
   78MOL0     N10678   8.594   6.316   4.830  0.0938 -0.4152  0.0513
   78MOL0     C10679   8.243   7.266   4.214  0.4902 -0.2256 -0.1273
   78MOL0     C10680   8.241   7.403   4.174  0.2706 -0.6770 -0.2366
   78MOL0     C10681   8.365   7.822   4.171  0.3713 -0.2173  0.7383
   78MOL0     C10682   8.486   7.867   4.109  1.4306  0.6909  0.0657
   78MOL0     C10683   8.496   7.992   4.059 -0.1458 -0.6186 -0.7352
   78MOL0     C10684   8.394   8.085   4.082 -0.8348 -0.2167  0.1600
   78MOL0     O10685   8.397   8.206   4.017 -0.2631 -0.7237  0.2761
   78MOL0     C10686   8.500   8.236   3.921  0.0186  0.4232  0.3340
   78MOL0     C10687   8.478   8.173   3.778  0.3189  1.1175 -0.5973
   78MOL0     C10688   8.340   8.200   3.726 -0.3819 -0.9025 -0.4930
   78MOL0     C10689   8.218   8.109   3.773  0.1084 -0.2385 -0.6692
   78MOL0     C10690   8.108   8.153   3.679  0.2471  0.2576 -0.8639
   78MOL0     C10691   8.006   8.171   3.608 -0.5972 -0.5976 -0.2939
   78MOL0     C10692   8.273   8.043   4.139  0.4850  0.4612 -0.1085
   78MOL0     C10693   8.253   7.921   4.194 -0.7244 -0.8206 -0.3664
   78MOL0     C10694   8.110   7.895   4.257 -0.0264 -0.0570 -0.0535
   78MOL0     H10695   8.203   7.548   4.479 -1.0427 -0.5487  0.3063
   78MOL0     H10696   8.212   7.312   4.550  0.3832 -1.3185 -0.5498
   78MOL0     H10697   8.227   7.090   4.589 -0.1270  0.4689  0.3922
   78MOL0     H10698   8.388   7.099   4.520 -0.9510  0.6418 -0.2247
   78MOL0     H10699   8.302   6.871   4.397 -2.7487  0.6078 -0.6700
   78MOL0     H10700   8.369   6.867   4.565 -1.3583 -1.6891  0.1219
   78MOL0     H10701   8.155   6.886   4.663 -0.0896  0.1597  0.4855
   78MOL0     H10702   8.073   6.910   4.510  2.6821 -0.2760 -1.3744
   78MOL0     H10703   8.037   6.670   4.565  2.2383 -3.4588  0.9460
   78MOL0     H10704   8.164   6.681   4.441  0.8232 -0.7399  0.4636
   78MOL0     H10705   8.222   6.635   4.734 -3.0401  2.0356  1.6303
   78MOL0     H10706   8.332   6.652   4.585 -1.6129  1.0130 -1.1388
   78MOL0     H10707   8.111   6.448   4.633  1.2847 -1.2680  0.5091
   78MOL0     H10708   8.211   6.459   4.493 -0.7888 -0.7946 -0.4671
   78MOL0     H10709   8.410   6.408   4.594 -1.0281  1.0451 -0.7068
   78MOL0     H10710   8.290   6.283   4.643  0.2442 -0.2890  4.2045
   78MOL0     H10711   8.423   6.509   4.787  0.4332 -0.5992 -5.1102
   78MOL0     H10712   8.281   6.423   4.856  0.5338 -0.3222  0.3786
   78MOL0     H10713   8.332   6.130   4.897 -0.3077  0.2442  2.7961
   78MOL0     H10714   8.499   5.919   4.872 -0.2431  0.6997 -0.2610
   78MOL0     H10715   8.596   5.961   5.022 -1.6689 -1.0542  1.0215
   78MOL0     H10716   8.800   5.995   4.835 -3.4278  3.5326 -1.2571
   78MOL0     H10717   8.753   5.831   4.899  2.3360  0.4986  0.2906
   78MOL0     H10718   8.617   5.789   4.697 -1.1825  0.2859 -0.8424
   78MOL0     H10719   8.656   5.955   4.643 -2.1195  0.6686  2.6757
   78MOL0     H10720   8.826   5.708   4.686 -0.4172 -0.5220 -0.6412
   78MOL0     H10721   8.776   5.776   4.532 -0.2748 -2.4384  0.0824
   78MOL0     H10722   9.111   6.025   4.684  0.4302 -1.3760 -0.2531
   78MOL0     H10723   9.289   6.265   4.548  1.6914  2.0061  1.3104
   78MOL0     H10724   9.229   6.235   4.710  0.1143  0.2203 -1.0689
   78MOL0     H10725   9.186   6.384   4.634  3.8568  0.5318  1.8136
   78MOL0     H10726   8.832   6.393   4.026  0.5320 -0.0955  2.5211
   78MOL0     H10727   8.903   6.505   3.809 -1.0046  0.6343  0.5964
   78MOL0     H10728   9.034   6.893   3.896  1.0838  1.1312 -0.9392
   78MOL0     H10729   9.065   6.865   3.719  0.3604  0.1483  1.0135
   78MOL0     H10730   8.794   6.812   3.847  0.1305 -1.0368  0.9124
   78MOL0     H10731   8.846   6.953   3.754 -0.4103 -0.0638 -0.3326
   78MOL0     H10732   8.723   6.808   3.598  0.9810 -1.3724 -2.1847
   78MOL0     H10733   8.788   6.668   3.666  1.6311 -1.2392 -1.2884
   78MOL0     H10734   9.018   6.715   3.557 -0.7168  0.7980  2.2423
   78MOL0     H10735   8.944   6.871   3.502 -3.1556  0.5381 -0.8707
   78MOL0     H10736   8.828   6.598   3.416  2.6748 -0.9615  3.1077
   78MOL0     H10737   8.816   6.761   3.340 -0.3010  0.3218  0.3872
   78MOL0     H10738   9.072   6.612   3.373  0.3942  1.7124  0.9832
   78MOL0     H10739   9.042   6.766   3.287 -2.8063  1.1183  1.6566
   78MOL0     H10740   8.883   6.657   3.134 -0.4400  0.4009  1.1882
   78MOL0     H10741   8.901   6.501   3.216  1.2766 -0.8412 -1.5417
   78MOL0     H10742   9.021   6.497   3.009 -0.7170  0.1950 -0.6271
   78MOL0     H10743   9.139   6.483   3.133  0.0122  1.0989  0.3458
   78MOL0     H10744   9.158   6.749   4.036  0.0137  0.6890  0.8463
   78MOL0     H10745   9.108   6.633   4.245 -0.9217  0.1925  0.9410
   78MOL0     H10746   8.815   6.199   4.330 -2.3812 -1.0064  3.0682
   78MOL0     H10747   8.786   5.980   4.415  1.4914  0.8846 -2.7564
   78MOL0     H10748   8.257   7.204   4.126 -0.2646 -0.6284  0.0259
   78MOL0     H10749   8.264   7.424   4.069  4.3964 -3.2083 -0.0912
   78MOL0     H10750   8.568   7.800   4.090  0.4279 -0.3656 -0.6872
   78MOL0     H10751   8.585   8.004   3.998  1.3462 -0.9273  1.3095
   78MOL0     H10752   8.520   8.343   3.910 -2.4267  0.9532  0.3842
   78MOL0     H10753   8.594   8.195   3.958  0.1022 -2.6051 -2.8035
   78MOL0     H10754   8.483   8.065   3.795 -1.3779  1.5080  3.3584
   78MOL0     H10755   8.553   8.212   3.708  1.5537  1.3682  0.8169
   78MOL0     H10756   8.321   8.304   3.752  1.2315 -1.0604  1.4812
   78MOL0     H10757   8.352   8.192   3.617  0.0421  2.0947 -0.7372
   78MOL0     H10758   8.194   8.135   3.876 -1.0975  0.2208 -1.0497
   78MOL0     H10759   8.234   8.003   3.754 -1.2270 -0.4002 -1.0009
   78MOL0     H10760   7.911   8.172   3.560 -0.3337  0.3651 -0.8254
   78MOL0     H10761   8.200   8.123   4.142 -0.3044 -0.2358 -0.2377
   78MOL0     H10762   8.049   7.986   4.256 -0.2829 -0.1902 -2.3049
   78MOL0     H10763   8.056   7.811   4.211 -2.6019  0.6799  1.4044
   78MOL0     H10764   8.131   7.860   4.358  1.7381 -1.0412 -0.7200
   79MOL0     O10765   3.139   6.673  11.132  0.2294 -0.4062 -0.5608
   79MOL0     C10766   3.167   6.736  11.034 -0.3347 -0.6906  0.7991
   79MOL0     O10767   3.289   6.804  11.018 -0.0927  0.2855  0.5394
   79MOL0     C10768   3.378   6.787  11.121 -0.1196 -0.5509 -0.1245
   79MOL0     C10769   3.433   6.901  11.179  0.1663 -0.6023  0.1048
   79MOL0     C10770   3.520   6.901  11.292 -0.5433 -0.0929 -0.7954
   79MOL0     C10771   3.566   6.778  11.343  0.7290 -0.7419  0.1122
   79MOL0     O10772   3.639   6.760  11.450 -0.5540 -1.1446 -0.1266
   79MOL0     C10773   3.741   6.859  11.489  0.2354  0.8374  1.2020
   79MOL0     C10774   3.853   6.888  11.379  0.2340  0.5263  0.8054
   79MOL0     C10775   3.951   6.780  11.383  0.8648 -0.1247  0.8162
   79MOL0     C10776   3.892   6.639  11.359 -0.0852  0.9524 -0.6181
   79MOL0     C10777   4.000   6.536  11.378 -0.7617 -0.4497 -0.0731
   79MOL0     C10778   4.129   6.539  11.287  0.2578  0.0135  0.1501
   79MOL0     C10779   4.248   6.455  11.340  0.2267 -0.4185 -0.7129
   79MOL0     C10780   4.372   6.479  11.250  1.3371 -0.8061 -0.0914
   79MOL0     N10781   4.458   6.360  11.267  0.7768  0.7213  0.1908
   79MOL0     C10782   4.482   6.255  11.185  0.7364 -0.0634 -0.0583
   79MOL0     C10783   4.568   6.172  11.241 -0.0296  0.0196  0.5352
   79MOL0     C10784   4.624   6.035  11.191  0.9422  0.5114  0.1408
   79MOL0     C10785   4.772   6.031  11.181 -0.0750  0.3099 -0.1219
   79MOL0     C10786   4.851   6.138  11.106  0.9558 -0.4422  0.1035
   79MOL0     C10787   4.811   6.138  10.962  0.0379 -0.4212 -0.2498
   79MOL0     O10788   4.677   6.177  10.940 -0.0752  0.4316 -0.0700
   79MOL0     C10789   4.655   6.231  10.815  0.1737  0.1393  0.0372
   79MOL0     C10790   4.732   6.234  10.704 -0.7866 -0.7190  0.3642
   79MOL0     C10791   4.704   6.293  10.579 -0.3097  0.9569 -0.4837
   79MOL0     C10792   4.811   6.283  10.471  0.4386  0.3883 -0.2098
   79MOL0     C10793   4.581   6.363  10.571  0.4375 -0.9492  0.7225
   79MOL0     C10794   4.544   6.444  10.451  0.4655 -0.6221 -0.3479
   79MOL0     O10795   4.407   6.470  10.434  0.3962 -0.2183  0.0180
   79MOL0     C10796   4.376   6.534  10.319  0.3757  0.7813 -0.1740
   79MOL0     C10797   4.327   6.664  10.301 -0.5840 -0.3545 -0.7506
   79MOL0     C10798   4.302   6.715  10.170 -0.7496  0.4462  0.2847
   79MOL0     C10799   4.299   6.625  10.063  0.5238  0.1536  0.4428
   79MOL0     O10800   4.234   6.653   9.937 -0.9805 -0.4564  0.4312
   79MOL0     C10801   4.180   6.781   9.919 -0.7687  0.5884 -0.7657
   79MOL0     C10802   4.288   6.883   9.892  0.2991  0.0761  0.5905
   79MOL0     C10803   4.222   7.017   9.889  0.5550  0.4735 -0.8536
   79MOL0     C10804   4.125   7.044   9.775  0.5514  0.1719 -0.3165
   79MOL0     C10805   4.138   7.189   9.727  0.1757  0.0072 -0.1055
   79MOL0     C10806   4.056   7.214   9.601 -0.4500 -0.3143 -0.7672
   79MOL0     C10807   4.072   7.358   9.553 -0.3378 -0.2245 -0.4169
   79MOL0     C10808   3.992   7.385   9.424  0.4897 -0.3951 -0.2175
   79MOL0    Cl10809   4.022   7.555   9.381 -0.3890  0.1387  0.1892
   79MOL0     C10810   4.345   6.492  10.080  0.8221 -0.6444 -0.5303
   79MOL0     C10811   4.383   6.453  10.207  0.3534  0.7738  0.1952
   79MOL0     O10812   4.634   6.498  10.390  0.3870  0.1797 -0.0608
   79MOL0     C10813   4.485   6.359  10.678 -0.8290  0.6920 -0.4406
   79MOL0     C10814   4.528   6.294  10.799 -0.2211 -0.3572  0.4031
   79MOL0     N10815   4.605   6.230  11.361  0.9603  0.1426 -0.1745
   79MOL0     N10816   4.529   6.338  11.381 -0.2381 -0.1926  0.2553
   79MOL0     C10817   3.522   6.667  11.274  0.1387  0.3936 -0.0657
   79MOL0     C10818   3.433   6.667  11.170 -0.2351  0.2226  0.4113
   79MOL0     C10819   3.054   6.748  10.939 -0.0285 -0.0345 -0.1314
   79MOL0     C10820   2.927   6.684  10.955 -0.3036 -0.1440  0.0140
   79MOL0     C10821   2.823   6.693  10.863  0.9396  0.5414 -0.0628
   79MOL0     C10822   2.846   6.749  10.736  0.0620 -0.0225  0.3627
   79MOL0     O10823   2.748   6.764  10.636  0.6014 -0.6996 -0.0146
   79MOL0     C10824   2.777   6.771  10.500 -0.4192 -0.6261 -0.2410
   79MOL0     C10825   2.745   6.903  10.433 -0.1251  1.5401  0.1333
   79MOL0     C10826   2.752   6.899  10.280  1.1161 -1.5043  0.0883
   79MOL0     C10827   2.863   6.824  10.219 -0.8737 -0.2569  0.2399
   79MOL0     C10828   2.866   6.814  10.066  0.2086 -0.7076 -0.7911
   79MOL0     C10829   2.852   6.793   9.947  1.6485 -0.2198  0.2868
   79MOL0     C10830   2.972   6.811  10.709 -0.3520  0.0834  0.7356
   79MOL0     C10831   3.066   6.811  10.814  0.2185 -1.4074 -0.0788
   79MOL0     C10832   3.190   6.887  10.775 -0.8075  0.5764 -0.2511
   79MOL0     H10833   3.392   6.997  11.152 -0.6004 -1.1392 -0.7046
   79MOL0     H10834   3.557   6.996  11.331  0.0826 -0.7821  0.3741
   79MOL0     H10835   3.798   6.810  11.569  0.2360  0.4910  0.9896
   79MOL0     H10836   3.686   6.947  11.525 -4.5752 -1.8281  1.1155
   79MOL0     H10837   3.812   6.887  11.278  0.9245 -0.1388  0.5266
   79MOL0     H10838   3.902   6.985  11.385  2.8545 -0.4496 -2.1548
   79MOL0     H10839   4.024   6.804  11.305 -0.4636 -0.9883 -0.7435
   79MOL0     H10840   4.002   6.770  11.479 -1.8029 -1.8749  2.1775
   79MOL0     H10841   3.818   6.608  11.434  3.4217 -1.7577  2.1159
   79MOL0     H10842   3.848   6.642  11.259  2.9157 -1.8414 -2.2399
   79MOL0     H10843   3.957   6.438  11.355  1.7764 -1.6566 -0.0015
   79MOL0     H10844   4.027   6.545  11.483 -3.3514  0.5167  0.5710
   79MOL0     H10845   4.097   6.505  11.188  0.9321 -4.0738  1.1649
   79MOL0     H10846   4.159   6.644  11.284  2.1709 -0.4614  1.3767
   79MOL0     H10847   4.229   6.348  11.333 -3.0460  0.1805 -3.0382
   79MOL0     H10848   4.265   6.483  11.444 -3.9257  0.9060 -0.2163
   79MOL0     H10849   4.347   6.493  11.144 -1.3487  3.6315  0.8720
   79MOL0     H10850   4.411   6.578  11.275 -0.4356 -0.4750  1.6078
   79MOL0     H10851   4.421   6.241  11.097 -0.0739 -0.2947  0.5248
   79MOL0     H10852   4.577   6.028  11.092 -1.0303 -0.2392  1.0741
   79MOL0     H10853   4.580   5.945  11.235  0.2897  0.7761  0.0375
   79MOL0     H10854   4.813   6.039  11.283 -3.6781  0.0716  1.4783
   79MOL0     H10855   4.798   5.932  11.145 -1.0125 -0.9682  2.4478
   79MOL0     H10856   4.815   6.230  11.153 -1.6718  0.6002 -3.5072
   79MOL0     H10857   4.959   6.132  11.123  0.7979  0.6106  1.7622
   79MOL0     H10858   4.878   6.210  10.913  1.7663 -0.7823  1.4483
   79MOL0     H10859   4.837   6.039  10.924  1.0570 -0.2342 -0.0798
   79MOL0     H10860   4.834   6.197  10.706  0.1672  1.6803  0.1722
   79MOL0     H10861   4.780   6.262  10.368  2.7885  0.4656 -0.9750
   79MOL0     H10862   4.889   6.210  10.494  1.3255  1.3738  0.0147
   79MOL0     H10863   4.874   6.371  10.458  3.4035 -1.3370  1.3433
   79MOL0     H10864   4.329   6.733  10.385 -0.2526  2.1207 -2.6888
   79MOL0     H10865   4.252   6.811  10.167 -0.6032  0.5154 -1.4854
   79MOL0     H10866   4.123   6.779   9.826  0.6820 -2.7566 -1.7375
   79MOL0     H10867   4.103   6.802   9.994  1.5726 -1.7510  2.6507
   79MOL0     H10868   4.378   6.876   9.952  0.7952  0.6801 -0.0617
   79MOL0     H10869   4.315   6.868   9.787 -3.0167 -1.4668 -0.1731
   79MOL0     H10870   4.308   7.085   9.885  2.0640 -1.3150 -0.0615
   79MOL0     H10871   4.176   7.043   9.985 -0.4159  1.2058 -1.4876
   79MOL0     H10872   4.027   7.026   9.820  0.6467 -0.3160 -0.2927
   79MOL0     H10873   4.130   6.972   9.693 -0.3722  0.6596 -0.8069
   79MOL0     H10874   4.094   7.261   9.798 -1.3743 -1.5450  0.5765
   79MOL0     H10875   4.242   7.213   9.705  0.4957 -1.1329  0.1075
   79MOL0     H10876   3.950   7.202   9.625 -0.0476 -0.1225  1.3554
   79MOL0     H10877   4.090   7.144   9.525 -2.3223 -1.1846 -0.8558
   79MOL0     H10878   4.176   7.379   9.526 -0.0513 -0.6687  0.3062
   79MOL0     H10879   4.041   7.427   9.632  2.4200  0.4935  0.1516
   79MOL0     H10880   3.885   7.380   9.446  0.5330  1.8755  0.7688
   79MOL0     H10881   4.027   7.314   9.349 -1.0147 -1.1256 -0.2587
   79MOL0     H10882   4.337   6.424   9.996 -1.6202 -0.1384 -0.7862
   79MOL0     H10883   4.400   6.347  10.218  0.7364  0.5476 -2.0478
   79MOL0     H10884   4.387   6.403  10.659 -0.5140  1.9508  0.7016
   79MOL0     H10885   4.466   6.289  10.888 -0.4029 -1.8613  0.2077
   79MOL0     H10886   3.533   6.574  11.328 -1.8434  1.3629  2.2269
   79MOL0     H10887   3.404   6.572  11.126  1.1924 -0.4953  0.9316
   79MOL0     H10888   2.907   6.628  11.046 -2.0057 -4.0640 -2.4949
   79MOL0     H10889   2.735   6.634  10.884  1.6091 -0.3952  0.2036
   79MOL0     H10890   2.885   6.756  10.491  0.1633  2.0853  1.1422
   79MOL0     H10891   2.725   6.693  10.444  0.8189 -0.9463 -0.9925
   79MOL0     H10892   2.816   6.973  10.477  3.0384 -1.1025 -0.3478
   79MOL0     H10893   2.641   6.924  10.458 -1.2120 -1.7178 -1.1159
   79MOL0     H10894   2.663   6.844  10.247  0.2941 -0.0094 -0.2923
   79MOL0     H10895   2.758   7.005  10.253 -0.6784 -0.7484  2.3557
   79MOL0     H10896   2.868   6.725  10.265 -1.6343 -0.4820 -0.1436
   79MOL0     H10897   2.961   6.862  10.251 -0.3082 -2.1160  0.8038
   79MOL0     H10898   2.840   6.796   9.841 -0.4995  0.0542  0.4903
   79MOL0     H10899   2.996   6.860  10.616  0.4459 -1.1573  0.2740
   79MOL0     H10900   3.181   6.953  10.689  1.7562 -0.1499 -1.1625
   79MOL0     H10901   3.219   6.956  10.854  2.5110 -0.7866 -0.1364
   79MOL0     H10902   3.265   6.810  10.757 -2.1833 -0.5455 -1.5459
   80MOL0     O10903   8.421   2.968   7.493  0.1498  0.1250 -0.5577
   80MOL0     C10904   8.438   2.878   7.411  0.0730  1.0912  0.3271
   80MOL0     O10905   8.401   2.887   7.281 -0.5689 -0.0114  0.1412
   80MOL0     C10906   8.393   3.015   7.225  0.1675  1.7865  0.2861
   80MOL0     C10907   8.481   3.043   7.121 -0.1575 -0.9708  0.4537
   80MOL0     C10908   8.476   3.164   7.060  0.2485  0.1767 -0.2431
   80MOL0     C10909   8.376   3.261   7.096  0.1722  0.6107  0.2808
   80MOL0     O10910   8.366   3.388   7.042  0.3539 -0.0868 -0.8782
   80MOL0     C10911   8.447   3.437   6.939 -0.7893  0.2881  0.2709
   80MOL0     C10912   8.423   3.589   6.909 -0.5187 -0.4724 -0.6961
   80MOL0     C10913   8.518   3.641   6.813  0.5658  0.5012  0.0892
   80MOL0     C10914   8.473   3.779   6.763 -0.3330 -0.7337  0.4790
   80MOL0     C10915   8.572   3.833   6.662 -0.3497  1.1907  0.9726
   80MOL0     C10916   8.540   3.972   6.606 -0.4592  0.2290  0.1078
   80MOL0     C10917   8.609   3.984   6.469  0.4202 -0.7168 -0.1733
   80MOL0     C10918   8.545   4.089   6.374  0.5225 -0.2356 -0.0885
   80MOL0     N10919   8.632   4.093   6.254  0.2198  0.1251  0.0355
   80MOL0     C10920   8.715   4.184   6.221  0.0779 -1.2244  0.1664
   80MOL0     C10921   8.784   4.140   6.114 -0.3532 -0.0333 -0.0918
   80MOL0     C10922   8.897   4.219   6.058  0.9742 -0.1982 -0.4357
   80MOL0     C10923   9.014   4.143   5.996  0.4477  0.3053  0.1406
   80MOL0     C10924   9.125   4.089   6.090  0.2638 -0.4378 -0.7323
   80MOL0     C10925   9.076   3.969   6.169 -0.0646  1.0650  0.1114
   80MOL0     O10926   9.070   3.849   6.081  0.7180 -0.9301  0.0493
   80MOL0     C10927   9.039   3.731   6.135  0.5106  0.5245  0.8424
   80MOL0     C10928   8.987   3.711   6.257 -0.1793  0.3260 -0.4457
   80MOL0     C10929   8.938   3.579   6.294 -0.1030 -0.8286  0.5224
   80MOL0     C10930   8.880   3.569   6.436 -0.5657 -0.5148  0.0220
   80MOL0     C10931   8.944   3.472   6.202 -0.1722 -0.2183  0.5449
   80MOL0     C10932   8.875   3.339   6.222 -0.2401  0.0256  0.4223
   80MOL0     O10933   8.890   3.247   6.119  0.8966 -0.5397 -0.7549
   80MOL0     C10934   8.827   3.125   6.136 -0.3287 -0.3988  1.0021
   80MOL0     C10935   8.724   3.079   6.043 -0.3885  0.5880  1.3063
   80MOL0     C10936   8.657   2.958   6.075 -0.9719 -0.9262  0.4069
   80MOL0     C10937   8.679   2.897   6.203  0.3910  0.4164 -0.3887
   80MOL0     O10938   8.599   2.791   6.239 -0.2765  0.9509  0.1214
   80MOL0     C10939   8.552   2.784   6.375 -0.7233 -0.5319  0.4360
   80MOL0     C10940   8.605   2.655   6.434  0.0546  0.1906  0.2326
   80MOL0     C10941   8.530   2.528   6.376  1.1042 -0.7716  0.4343
   80MOL0     C10942   8.566   2.395   6.441 -0.5442 -0.1665 -0.2976
   80MOL0     C10943   8.467   2.288   6.412  0.0566 -0.0214  0.6887
   80MOL0     C10944   8.509   2.160   6.479  0.3020  0.3095  0.1801
   80MOL0     C10945   8.389   2.074   6.540 -0.6395 -0.7749 -0.3961
   80MOL0     C10946   8.435   1.936   6.580  0.2137 -0.7836 -0.4209
   80MOL0    Cl10947   8.526   1.933   6.740  0.1779 -0.1963  0.0022
   80MOL0     C10948   8.774   2.938   6.289  0.0030 -0.8096 -0.5732
   80MOL0     C10949   8.847   3.048   6.251  0.5409 -0.1035  0.2076
   80MOL0     O10950   8.820   3.316   6.331 -0.3552  0.1663  0.6351
   80MOL0     C10951   9.002   3.497   6.072 -0.2904  1.2514 -1.0365
   80MOL0     C10952   9.046   3.622   6.045 -0.9934 -0.8822  0.2642
   80MOL0     N10953   8.737   4.016   6.077 -0.0767 -0.3514  0.4162
   80MOL0     N10954   8.634   3.999   6.159 -0.2151 -0.0917  0.5991
   80MOL0     C10955   8.273   3.224   7.185  0.6685 -0.6275 -0.2162
   80MOL0     C10956   8.286   3.103   7.255 -1.0992  0.6254 -0.2554
   80MOL0     C10957   8.483   2.756   7.473  0.1888  0.0953 -0.7455
   80MOL0     C10958   8.505   2.747   7.615  0.6285  0.3808  0.1814
   80MOL0     C10959   8.547   2.636   7.679  0.2586  0.1401  0.6900
   80MOL0     C10960   8.591   2.529   7.610 -1.4408  0.1034 -0.4223
   80MOL0     O10961   8.668   2.432   7.673 -0.0138  0.1588 -0.4068
   80MOL0     C10962   8.775   2.373   7.603  0.5644 -0.8608  0.2189
   80MOL0     C10963   8.907   2.449   7.614 -0.1949 -0.5467  0.0484
   80MOL0     C10964   8.993   2.422   7.491  0.9724  0.3100 -0.5736
   80MOL0     C10965   9.061   2.546   7.444  0.3596 -0.8857 -0.7556
   80MOL0     C10966   9.188   2.525   7.374  0.6709  0.1109  0.6894
   80MOL0     C10967   9.289   2.503   7.320  0.1758  0.9010 -0.0780
   80MOL0     C10968   8.560   2.523   7.474  0.1495 -0.2331  0.3929
   80MOL0     C10969   8.495   2.636   7.402 -0.0516  0.5022 -0.6357
   80MOL0     C10970   8.452   2.612   7.264 -0.6193  0.1437 -0.4843
   80MOL0     H10971   8.567   2.984   7.090  0.7605 -0.2399  1.5183
   80MOL0     H10972   8.553   3.202   6.994  0.3079 -1.1283 -0.9545
   80MOL0     H10973   8.429   3.377   6.849 -1.4219  1.1980 -0.2158
   80MOL0     H10974   8.549   3.415   6.974 -1.4074 -0.5239  1.6671
   80MOL0     H10975   8.321   3.593   6.871 -0.7904 -0.7178 -0.0193
   80MOL0     H10976   8.434   3.656   6.995  2.0059  1.3251 -2.3203
   80MOL0     H10977   8.620   3.647   6.852  1.7946 -2.1787 -2.3579
   80MOL0     H10978   8.510   3.583   6.720  1.3584  3.1454 -1.7434
   80MOL0     H10979   8.372   3.776   6.720  0.1307  0.2484 -0.7302
   80MOL0     H10980   8.475   3.851   6.845 -1.1473 -0.7425  0.5180
   80MOL0     H10981   8.574   3.762   6.579  1.7217  2.3193 -0.0270
   80MOL0     H10982   8.671   3.834   6.709  0.2501 -2.2465  0.0578
   80MOL0     H10983   8.432   3.964   6.592 -0.5804  1.5419  0.1333
   80MOL0     H10984   8.570   4.049   6.677  4.1540 -1.6679  0.5837
   80MOL0     H10985   8.608   3.886   6.421 -0.5437 -1.4797  1.3108
   80MOL0     H10986   8.712   4.013   6.494 -0.4920  2.0796  0.6803
   80MOL0     H10987   8.444   4.063   6.343  0.7146  0.5665 -1.4798
   80MOL0     H10988   8.546   4.191   6.414 -0.1590  1.1274 -3.2269
   80MOL0     H10989   8.716   4.283   6.265  0.6797 -2.6680  3.7156
   80MOL0     H10990   8.946   4.285   6.130  2.9285  0.8225 -2.5605
   80MOL0     H10991   8.864   4.293   5.984 -1.3958  0.4226  1.1224
   80MOL0     H10992   8.972   4.063   5.935  1.0602 -1.8954  2.4831
   80MOL0     H10993   9.065   4.209   5.924 -1.5056  1.0942 -0.5832
   80MOL0     H10994   9.204   4.052   6.024  1.3129 -1.8187  1.1817
   80MOL0     H10995   9.163   4.169   6.155  0.9943  1.7396 -3.6315
   80MOL0     H10996   9.145   3.954   6.252 -2.9015 -1.1372  2.2771
   80MOL0     H10997   8.982   3.976   6.225 -1.0892 -1.0320 -1.1997
   80MOL0     H10998   8.978   3.788   6.332 -1.3627  0.3809 -0.6205
   80MOL0     H10999   8.772   3.565   6.450 -0.6388 -1.9539 -0.7079
   80MOL0     H11000   8.910   3.657   6.493  0.0556  0.2397 -1.4104
   80MOL0     H11001   8.936   3.482   6.473 -1.7263 -0.1680  2.7969
   80MOL0     H11002   8.691   3.129   5.953 -1.1550  0.9182  1.7614
   80MOL0     H11003   8.578   2.907   6.020 -1.8771 -0.4182  1.2184
   80MOL0     H11004   8.587   2.873   6.429  2.2293 -0.9902 -0.5076
   80MOL0     H11005   8.443   2.792   6.374 -0.8910 -1.0665 -3.6849
   80MOL0     H11006   8.713   2.637   6.423  0.6563  2.5435  1.5496
   80MOL0     H11007   8.585   2.660   6.541 -0.6207 -3.8850  0.4561
   80MOL0     H11008   8.555   2.515   6.270 -2.8761  0.5758 -0.8407
   80MOL0     H11009   8.423   2.548   6.375  0.8569 -1.9891 -0.7155
   80MOL0     H11010   8.559   2.414   6.549 -2.0968  0.3934 -0.4651
   80MOL0     H11011   8.665   2.364   6.407  0.0083  1.4263 -0.2334
   80MOL0     H11012   8.378   2.327   6.461  0.0116  0.7134  0.0347
   80MOL0     H11013   8.444   2.277   6.306 -4.5324  1.2004  1.3230
   80MOL0     H11014   8.580   2.180   6.560 -2.8659 -0.9622  3.5627
   80MOL0     H11015   8.559   2.102   6.402 -0.1006 -0.0799  0.2094
   80MOL0     H11016   8.315   2.073   6.459  0.2319 -0.6771 -1.2153
   80MOL0     H11017   8.337   2.118   6.625 -2.1719  0.7311 -2.0317
   80MOL0     H11018   8.501   1.893   6.504  0.7369 -0.1182 -0.3555
   80MOL0     H11019   8.350   1.869   6.591  0.9266 -1.3916  2.2257
   80MOL0     H11020   8.800   2.874   6.372 -2.3573 -4.6240 -2.4799
   80MOL0     H11021   8.916   3.089   6.324 -1.5130  1.0519  1.6200
   80MOL0     H11022   9.012   3.414   6.004 -0.5156 -0.2595  0.6913
   80MOL0     H11023   9.088   3.657   5.951 -0.9375  0.7372  0.8580
   80MOL0     H11024   8.187   3.284   7.211 -1.2491 -3.6367  0.9146
   80MOL0     H11025   8.218   3.075   7.335 -1.8002  0.6137 -0.8450
   80MOL0     H11026   8.482   2.824   7.687 -2.2172 -0.0492 -0.1317
   80MOL0     H11027   8.569   2.651   7.784 -2.2951  4.4458  0.8636
   80MOL0     H11028   8.789   2.271   7.641  1.6071 -0.8014  0.0176
   80MOL0     H11029   8.760   2.365   7.495  2.1827 -0.4190 -0.0717
   80MOL0     H11030   8.968   2.412   7.698  0.5328  0.6577  0.0742
   80MOL0     H11031   8.895   2.557   7.622 -0.4027 -0.5109 -0.7395
   80MOL0     H11032   9.067   2.344   7.508 -0.9523 -1.3812  0.4148
   80MOL0     H11033   8.933   2.393   7.405 -0.4840  0.6186  0.3131
   80MOL0     H11034   9.068   2.622   7.522 -2.2033 -0.1231 -1.1925
   80MOL0     H11035   9.000   2.599   7.370  0.5183 -0.0701 -0.3157
   80MOL0     H11036   9.390   2.487   7.287  0.1243 -3.5095  1.1712
   80MOL0     H11037   8.584   2.441   7.407  0.1056  0.8562 -1.0125
   80MOL0     H11038   8.345   2.628   7.248 -0.4100 -0.7415 -3.4581
   80MOL0     H11039   8.508   2.678   7.197  1.6341 -2.3876 -1.2789
   80MOL0     H11040   8.466   2.509   7.229 -1.3390 -1.1618  2.6615
   81MOL0     O11041   9.892   8.576   1.061 -1.1891  0.4220 -0.0295
   81MOL0     C11042   9.797   8.533   0.993 -0.0430  0.5803  0.2244
   81MOL0     O11043   9.664   8.512   1.044  0.3785 -0.4131 -0.6828
   81MOL0     C11044   9.640   8.538   1.179  0.4809  0.0595 -0.5665
   81MOL0     C11045   9.713   8.470   1.277  0.2831  0.3328 -0.0127
   81MOL0     C11046   9.683   8.494   1.415  0.3319  0.3827  0.2630
   81MOL0     C11047   9.580   8.587   1.451 -1.1816  0.0200  0.7675
   81MOL0     O11048   9.541   8.620   1.579 -0.2904  0.2834 -0.0616
   81MOL0     C11049   9.588   8.542   1.688  0.1728  0.1453  0.8285
   81MOL0     C11050   9.721   8.595   1.734 -0.3552 -0.7800  0.4821
   81MOL0     C11051   9.772   8.496   1.833 -0.6164 -0.7572 -0.3494
   81MOL0     C11052   9.911   8.541   1.880 -0.4171  0.9303  0.0898
   81MOL0     C11053   9.964   8.436   1.983 -0.3846  0.0016 -0.2191
   81MOL0     C11054  10.121   8.446   1.971  0.7654  1.0670  0.1320
   81MOL0     C11055  10.172   8.342   1.865  0.1157 -0.5085  0.4793
   81MOL0     C11056  10.265   8.243   1.920 -0.4511 -0.0403 -0.6614
   81MOL0     N11057  10.292   8.146   1.808  0.8999 -0.6867  0.2356
   81MOL0     C11058  10.368   8.172   1.704  0.1427  0.4056  0.7129
   81MOL0     C11059  10.336   8.083   1.602  0.4448 -0.2331  0.3962
   81MOL0     C11060  10.390   8.081   1.467  0.2530 -0.6671 -0.5744
   81MOL0     C11061  10.543   8.058   1.477 -0.0786  0.8314 -0.0714
   81MOL0     C11062  10.599   8.026   1.339  0.6536  0.1472 -1.1278
   81MOL0     C11063  10.748   8.062   1.343 -0.1577 -0.8461 -0.2770
   81MOL0     O11064  10.813   7.977   1.441  0.0318  0.3267 -0.1418
   81MOL0     C11065  10.955   7.977   1.438  0.1409  0.2459 -0.0751
   81MOL0     C11066  11.033   8.058   1.354 -0.6942  0.2877 -0.4010
   81MOL0     C11067  11.175   8.061   1.367  0.8886 -0.1458 -0.5743
   81MOL0     C11068  11.243   8.146   1.266 -2.2650  0.5715 -0.1104
   81MOL0     C11069  11.237   7.971   1.461  0.1243  0.0661  1.1843
   81MOL0     C11070  11.383   7.956   1.468  0.4244  0.6522  0.2138
   81MOL0     O11071  11.469   8.063   1.450  0.5032  0.6223  0.4164
   81MOL0     C11072  11.605   8.062   1.464 -0.5978 -1.4898  0.0397
   81MOL0     C11073  11.686   7.971   1.530 -0.5033 -0.5925 -0.0521
   81MOL0     C11074  11.825   7.974   1.537  0.3508 -1.0773 -0.5338
   81MOL0     C11075  11.886   8.090   1.488 -0.7901 -0.0248  0.1068
   81MOL0     O11076  12.017   8.109   1.489  0.1893  0.1923  0.0206
   81MOL0     C11077  12.088   8.025   1.393  0.3092 -0.1230 -0.9735
   81MOL0     C11078  12.232   8.018   1.435 -0.3648 -0.8572 -0.1570
   81MOL0     C11079  12.241   7.941   1.567  0.9811  0.2044 -0.3568
   81MOL0     C11080  12.363   7.996   1.651 -0.6607  0.1083  0.2303
   81MOL0     C11081  12.444   7.903   1.738  0.3277 -0.4159 -0.1845
   81MOL0     C11082  12.544   7.966   1.835  0.6176 -0.5344  0.1758
   81MOL0     C11083  12.660   8.051   1.777  0.3783  0.2163 -0.0134
   81MOL0     C11084  12.729   7.989   1.656 -0.0747 -0.1574 -0.1618
   81MOL0    Cl11085  12.844   8.115   1.588  0.5869  0.5489  0.1481
   81MOL0     C11086  11.810   8.193   1.429  0.5544  0.3662 -0.0309
   81MOL0     C11087  11.670   8.178   1.414  0.0152 -0.2214  0.2374
   81MOL0     O11088  11.421   7.845   1.479 -0.1833 -0.3714 -0.3117
   81MOL0     C11089  11.161   7.887   1.533  0.5749 -0.1319  0.0702
   81MOL0     C11090  11.023   7.889   1.524  0.0247  0.0382 -0.0014
   81MOL0     N11091  10.245   7.992   1.664 -0.2510  0.5907  0.5631
   81MOL0     N11092  10.221   8.031   1.783  0.6596 -0.2700 -0.2857
   81MOL0     C11093   9.508   8.648   1.349  0.6346 -0.6474 -0.2853
   81MOL0     C11094   9.537   8.622   1.210 -0.4489  0.0080  0.0702
   81MOL0     C11095   9.825   8.481   0.853 -0.8146  0.0444 -0.4779
   81MOL0     C11096   9.753   8.379   0.811 -0.1056  0.4020 -0.2162
   81MOL0     C11097   9.777   8.331   0.679 -0.2440 -0.7892  0.9066
   81MOL0     C11098   9.872   8.381   0.597 -1.3142  0.2606 -0.3516
   81MOL0     O11099   9.867   8.320   0.477 -0.4701 -0.1866 -0.1287
   81MOL0     C11100   9.979   8.231   0.471  0.1575  0.3654 -0.6177
   81MOL0     C11101   9.985   8.175   0.332  0.1110  0.1353 -0.4590
   81MOL0     C11102   9.848   8.115   0.275  0.1763 -0.4586 -0.6517
   81MOL0     C11103   9.864   8.087   0.123 -0.3281 -0.2703 -0.6798
   81MOL0     C11104   9.736   8.046   0.077  0.0373  0.1496 -1.2450
   81MOL0     C11105   9.645   7.995   0.027  0.2938 -0.3275 -0.9907
   81MOL0     C11106   9.954   8.483   0.647  0.6136 -0.6647  0.1768
   81MOL0     C11107   9.927   8.539   0.772 -0.4142  0.7230 -0.0425
   81MOL0     C11108   9.994   8.670   0.804 -0.2823  0.2059 -0.2278
   81MOL0     H11109   9.790   8.402   1.241  0.1977  0.9923 -1.5488
   81MOL0     H11110   9.751   8.447   1.486 -0.7240  0.5451  1.4262
   81MOL0     H11111   9.601   8.438   1.657 -1.2448  0.3624 -0.5838
   81MOL0     H11112   9.512   8.542   1.767 -2.0478  0.4339 -1.2087
   81MOL0     H11113   9.781   8.605   1.643  0.0398  0.6568  0.8781
   81MOL0     H11114   9.710   8.696   1.774  0.4669  1.3962 -4.1043
   81MOL0     H11115   9.706   8.497   1.920 -0.7396  3.5384 -0.2984
   81MOL0     H11116   9.779   8.396   1.789 -0.5910  0.0636 -2.2976
   81MOL0     H11117   9.985   8.553   1.801  0.8741  3.0326  1.4830
   81MOL0     H11118   9.910   8.639   1.931  3.4082  2.3662 -2.2324
   81MOL0     H11119   9.931   8.335   1.958  0.9906 -0.0831 -1.7982
   81MOL0     H11120   9.933   8.457   2.086  2.6587 -0.2118  0.8223
   81MOL0     H11121  10.163   8.544   1.947  3.7456  0.3598  1.9587
   81MOL0     H11122  10.164   8.418   2.067 -0.2069  0.7360  0.4916
   81MOL0     H11123  10.230   8.401   1.793 -1.6785  1.1162  0.2806
   81MOL0     H11124  10.090   8.297   1.808  1.4490 -2.3578 -0.0890
   81MOL0     H11125  10.356   8.289   1.958 -0.1087 -0.5186 -0.8904
   81MOL0     H11126  10.226   8.177   1.998  2.9553  0.7079  1.8780
   81MOL0     H11127  10.437   8.255   1.696 -0.2885  0.8149  1.1433
   81MOL0     H11128  10.370   8.174   1.414 -0.8085  1.4610  3.1714
   81MOL0     H11129  10.336   8.002   1.413 -2.4329  0.2822  0.5180
   81MOL0     H11130  10.591   8.152   1.501  1.6249 -0.4510  1.8454
   81MOL0     H11131  10.554   7.968   1.539  1.0650  1.7059  1.0264
   81MOL0     H11132  10.572   7.923   1.315 -2.5843  0.7575 -0.5186
   81MOL0     H11133  10.543   8.084   1.265  0.1430  0.0604 -0.8098
   81MOL0     H11134  10.796   8.060   1.245  0.0167  0.6806 -0.2574
   81MOL0     H11135  10.745   8.167   1.374 -0.7662 -0.1383 -2.5440
   81MOL0     H11136  10.997   8.127   1.279 -2.7900  0.4385  0.6887
   81MOL0     H11137  11.303   8.220   1.320  0.5203  0.0548 -2.2798
   81MOL0     H11138  11.176   8.183   1.189 -3.1424  0.3804  0.5422
   81MOL0     H11139  11.310   8.080   1.210 -2.7448 -0.2047  0.2104
   81MOL0     H11140  11.642   7.883   1.576 -2.8751  0.9687  0.8861
   81MOL0     H11141  11.884   7.893   1.580  1.2615 -0.0275  0.2707
   81MOL0     H11142  12.048   7.923   1.383 -0.2978  0.1908 -1.9248
   81MOL0     H11143  12.080   8.065   1.291 -3.1747  0.5736 -0.5323
   81MOL0     H11144  12.293   7.977   1.354  0.3267 -0.0853 -0.0419
   81MOL0     H11145  12.269   8.121   1.440  0.7921 -1.2758  0.2833
   81MOL0     H11146  12.261   7.836   1.544  1.6966 -0.3150  2.2748
   81MOL0     H11147  12.150   7.962   1.624 -0.5325  0.9873 -2.9186
   81MOL0     H11148  12.332   8.078   1.717  0.5900 -2.0538  3.8104
   81MOL0     H11149  12.428   8.035   1.572 -0.4387  0.4142  0.5567
   81MOL0     H11150  12.382   7.831   1.792 -0.2302 -0.4713 -0.8762
   81MOL0     H11151  12.504   7.841   1.669  1.1161  0.2380 -0.0995
   81MOL0     H11152  12.591   7.895   1.904  2.0307 -0.4346 -0.6439
   81MOL0     H11153  12.485   8.025   1.905 -1.7200  0.1726 -2.2333
   81MOL0     H11154  12.734   8.072   1.854  1.4654 -4.6337  0.5875
   81MOL0     H11155  12.629   8.150   1.742  0.9731  0.3218 -0.2542
   81MOL0     H11156  12.658   7.967   1.576  0.3795 -1.3984 -0.2462
   81MOL0     H11157  12.779   7.894   1.678  1.0316 -0.1440 -2.3992
   81MOL0     H11158  11.846   8.273   1.365  0.1405  0.2686 -0.3876
   81MOL0     H11159  11.608   8.241   1.351 -1.2889 -1.0339  0.6485
   81MOL0     H11160  11.206   7.828   1.613  1.9641  2.0572  0.9883
   81MOL0     H11161  10.964   7.823   1.587  0.8181 -1.1099 -0.4165
   81MOL0     H11162   9.422   8.708   1.376  0.1454 -0.5806 -1.9291
   81MOL0     H11163   9.475   8.668   1.134  1.4113  0.0979 -1.4739
   81MOL0     H11164   9.698   8.317   0.881  0.1817  0.1225 -0.2376
   81MOL0     H11165   9.714   8.250   0.643 -0.8158 -0.9408  2.2267
   81MOL0     H11166  10.069   8.289   0.490  0.1784 -0.9907  4.8084
   81MOL0     H11167   9.975   8.150   0.544 -0.2870  1.0793  0.1752
   81MOL0     H11168  10.065   8.100   0.322  0.9365  1.0031 -0.4984
   81MOL0     H11169  10.003   8.255   0.259  0.5755 -0.8799 -1.4954
   81MOL0     H11170   9.819   8.021   0.324  2.5269 -1.2171 -0.6239
   81MOL0     H11171   9.771   8.190   0.293 -1.2329 -1.7057 -1.2172
   81MOL0     H11172   9.941   8.018   0.088  0.7565  1.5034 -1.9845
   81MOL0     H11173   9.886   8.186   0.081  0.9892  1.1823  2.9907
   81MOL0     H11174   9.568   7.945  -0.027 -0.2879 -0.2759 -0.2134
   81MOL0     H11175  10.025   8.517   0.572  2.6128 -0.8925  1.8886
   81MOL0     H11176   9.925   8.751   0.829 -0.1745  0.2412 -0.0409
   81MOL0     H11177  10.063   8.651   0.887  1.2216 -1.8137 -1.8356
   81MOL0     H11178  10.056   8.700   0.720 -2.0844  1.5189 -1.1468
   82MOL0     O11179   9.338   8.046   4.685  0.3065  0.3842 -0.1348
   82MOL0     C11180   9.360   8.011   4.571  0.1586  0.4498  0.4313
   82MOL0     O11181   9.325   8.080   4.457  0.4749  0.3162  0.2747
   82MOL0     C11182   9.246   8.196   4.478  1.2099 -0.4304  0.4899
   82MOL0     C11183   9.134   8.213   4.391 -0.9835  0.0260 -0.3465
   82MOL0     C11184   9.051   8.316   4.393  0.2116 -1.1621 -0.0614
   82MOL0     C11185   9.075   8.428   4.474 -0.9033 -0.4588 -0.0879
   82MOL0     O11186   8.989   8.530   4.450 -0.1028  0.3956  0.4482
   82MOL0     C11187   8.952   8.619   4.553 -0.0242 -0.9742 -0.4247
   82MOL0     C11188   8.806   8.592   4.588 -0.4630  1.0602  0.6458
   82MOL0     C11189   8.781   8.449   4.628  0.5329  0.4323 -0.4057
   82MOL0     C11190   8.648   8.423   4.701  1.0981  0.9405 -0.1744
   82MOL0     C11191   8.655   8.288   4.773  0.4802 -0.1815  0.3016
   82MOL0     C11192   8.537   8.256   4.861  0.0685 -0.2701  0.3745
   82MOL0     C11193   8.569   8.135   4.947 -0.6401 -0.3252 -0.4402
   82MOL0     C11194   8.529   7.995   4.871  1.0986 -0.5733  0.8917
   82MOL0     N11195   8.564   7.881   4.964 -0.6298 -0.2155  0.8476
   82MOL0     C11196   8.646   7.778   4.929 -0.4671 -0.7340 -0.1359
   82MOL0     C11197   8.652   7.682   5.021 -0.4223 -0.3516  0.3852
   82MOL0     C11198   8.708   7.547   5.012 -0.3708 -0.6142 -0.0076
   82MOL0     C11199   8.732   7.490   5.147 -1.2690  0.0729 -0.5827
   82MOL0     C11200   8.850   7.563   5.219 -0.2136 -0.8047 -0.0922
   82MOL0     C11201   8.904   7.486   5.335 -0.5681 -0.4730 -0.2946
   82MOL0     O11202   8.803   7.453   5.440 -0.2779  0.0867  1.0743
   82MOL0     C11203   8.838   7.409   5.560  1.2476  0.4710 -0.0609
   82MOL0     C11204   8.739   7.424   5.655 -0.1483 -0.7417  0.1354
   82MOL0     C11205   8.758   7.382   5.791 -0.1351 -0.0307 -0.2907
   82MOL0     C11206   8.646   7.404   5.888 -0.0922 -0.0788  0.3866
   82MOL0     C11207   8.888   7.331   5.831  0.4975  0.4192 -0.2084
   82MOL0     C11208   8.910   7.292   5.972 -0.6537  0.4953  0.0651
   82MOL0     O11209   9.032   7.328   6.021  1.1519 -0.4282 -0.1164
   82MOL0     C11210   9.073   7.302   6.143 -0.5569  0.5830 -0.1670
   82MOL0     C11211   9.002   7.308   6.265  0.2249 -0.3209  0.2727
   82MOL0     C11212   9.056   7.266   6.384 -1.3215  0.4818 -0.6262
   82MOL0     C11213   9.191   7.231   6.396  0.7023  0.4220 -0.1920
   82MOL0     O11214   9.227   7.195   6.521 -0.3667 -0.6097 -0.3564
   82MOL0     C11215   9.349   7.120   6.544  0.0047 -0.1681 -0.4486
   82MOL0     C11216   9.332   6.969   6.484  0.0802 -0.3358  0.1159
   82MOL0     C11217   9.454   6.873   6.498  0.4978 -0.5349  0.7531
   82MOL0     C11218   9.443   6.747   6.409  0.1785  0.0129 -0.8495
   82MOL0     C11219   9.553   6.639   6.423  0.2371  0.0892  0.4336
   82MOL0     C11220   9.480   6.516   6.371  0.0288 -0.2180  0.0113
   82MOL0     C11221   9.584   6.404   6.337 -0.1601  0.5861 -0.2948
   82MOL0     C11222   9.636   6.338   6.463  0.0852 -0.0326 -0.2456
   82MOL0    Cl11223   9.550   6.193   6.518  0.5640 -0.0346 -0.1817
   82MOL0     C11224   9.269   7.233   6.279 -1.3651  0.9097  0.3544
   82MOL0     C11225   9.205   7.257   6.159  0.1970  0.1449  0.0485
   82MOL0     O11226   8.823   7.240   6.043  0.4050 -0.4819  0.2857
   82MOL0     C11227   8.987   7.328   5.728 -0.6608 -0.2658 -0.4508
   82MOL0     C11228   8.957   7.359   5.597 -0.6244  0.7594  0.8392
   82MOL0     N11229   8.554   7.727   5.112  0.5491  0.1186 -0.2827
   82MOL0     N11230   8.500   7.838   5.074  0.2477  0.7602 -0.3556
   82MOL0     C11231   9.191   8.422   4.556 -0.3088  0.9883 -0.0027
   82MOL0     C11232   9.272   8.303   4.559 -0.2697 -0.6227 -0.1296
   82MOL0     C11233   9.427   7.884   4.549 -0.4035  0.9438  0.3313
   82MOL0     C11234   9.443   7.823   4.413 -0.0199  0.1056 -0.3965
   82MOL0     C11235   9.524   7.716   4.392 -0.3331  0.4002  0.6448
   82MOL0     C11236   9.579   7.643   4.490 -1.1821 -0.6380  0.0854
   82MOL0     O11237   9.679   7.553   4.462  0.4978 -0.4316 -0.1454
   82MOL0     C11238   9.777   7.504   4.549  0.0463 -1.2429  0.9569
   82MOL0     C11239   9.883   7.602   4.612 -0.1717 -0.5782  0.7287
   82MOL0     C11240   9.924   7.712   4.508  0.3844 -0.4023  0.3972
   82MOL0     C11241  10.030   7.806   4.551 -0.3748 -0.2863  0.4933
   82MOL0     C11242  10.057   7.896   4.437  0.7405  0.0460  0.0898
   82MOL0     C11243  10.091   7.988   4.364  0.6342  0.5770 -0.3712
   82MOL0     C11244   9.551   7.684   4.619 -0.3952 -0.2658 -0.2093
   82MOL0     C11245   9.482   7.803   4.656 -0.7061  0.4573  0.4527
   82MOL0     C11246   9.479   7.835   4.804 -0.2374 -0.0914 -1.0655
   82MOL0     H11247   9.109   8.125   4.333  1.0929  1.0274 -2.9670
   82MOL0     H11248   8.970   8.323   4.320 -1.4871 -1.5570  1.6890
   82MOL0     H11249   8.949   8.721   4.515  2.2336 -1.3533 -1.7791
   82MOL0     H11250   9.012   8.608   4.644 -3.2813 -0.8957  1.9161
   82MOL0     H11251   8.789   8.661   4.670  0.8394  1.3414  0.7074
   82MOL0     H11252   8.741   8.619   4.504 -1.0637 -2.2654 -0.0881
   82MOL0     H11253   8.784   8.382   4.542  1.9071  1.0883 -0.8981
   82MOL0     H11254   8.864   8.419   4.692  0.6262 -3.6116 -2.1373
   82MOL0     H11255   8.633   8.506   4.771  0.7859  2.3484 -1.8223
   82MOL0     H11256   8.564   8.431   4.631  0.2878  0.1787  0.6989
   82MOL0     H11257   8.740   8.295   4.842  0.1535 -0.2119  0.7125
   82MOL0     H11258   8.674   8.206   4.704  0.2911  0.8166 -0.9640
   82MOL0     H11259   8.508   8.343   4.920 -0.7080  0.8457 -1.5335
   82MOL0     H11260   8.448   8.238   4.800 -1.5722  0.6952  2.3592
   82MOL0     H11261   8.519   8.138   5.044 -0.8818 -3.2766 -0.3837
   82MOL0     H11262   8.674   8.124   4.975 -1.3094 -2.6591  1.4698
   82MOL0     H11263   8.421   8.002   4.853  1.6722  2.3380 -2.6920
   82MOL0     H11264   8.570   7.975   4.772 -2.0365  0.1511 -0.6723
   82MOL0     H11265   8.689   7.784   4.829 -1.0087  0.9756 -0.3057
   82MOL0     H11266   8.802   7.565   4.960 -1.0325  3.4408 -0.0812
   82MOL0     H11267   8.642   7.481   4.955 -0.7878  0.8387 -1.2840
   82MOL0     H11268   8.647   7.494   5.215 -0.5946 -1.9055  0.4688
   82MOL0     H11269   8.768   7.387   5.134  0.9298  0.4110  1.8685
   82MOL0     H11270   8.928   7.574   5.143 -1.0108 -0.2286 -0.8519
   82MOL0     H11271   8.822   7.664   5.251  0.9625 -0.7631  0.8498
   82MOL0     H11272   8.958   7.395   5.307 -0.3748 -0.4039 -0.1507
   82MOL0     H11273   8.976   7.542   5.396 -1.4389 -0.6904  0.9887
   82MOL0     H11274   8.643   7.464   5.622  0.6338 -0.7448 -2.2578
   82MOL0     H11275   8.579   7.475   5.839 -0.7626 -0.9783 -0.0447
   82MOL0     H11276   8.676   7.458   5.978 -1.8480  0.8743  0.4496
   82MOL0     H11277   8.599   7.306   5.907  1.3352 -0.7765  0.4276
   82MOL0     H11278   8.902   7.348   6.259  0.3758 -0.0894 -0.9785
   82MOL0     H11279   9.002   7.261   6.478 -0.4674  2.5401  0.0223
   82MOL0     H11280   9.437   7.169   6.502 -0.6484  0.7172 -0.8260
   82MOL0     H11281   9.358   7.126   6.653 -0.3733 -0.9681 -0.3639
   82MOL0     H11282   9.245   6.918   6.528  0.5537 -2.7571 -1.5420
   82MOL0     H11283   9.301   6.972   6.379  1.7473 -1.7925 -0.4795
   82MOL0     H11284   9.471   6.849   6.603 -1.4587 -1.9660  0.7934
   82MOL0     H11285   9.527   6.944   6.457  0.9934 -1.2443  0.4012
   82MOL0     H11286   9.432   6.785   6.307  1.7295  1.2249 -0.5954
   82MOL0     H11287   9.355   6.696   6.451  0.9760 -0.2716  0.5488
   82MOL0     H11288   9.639   6.657   6.358 -2.0373  2.6904 -2.1173
   82MOL0     H11289   9.583   6.639   6.528 -3.0445  5.5309  1.7586
   82MOL0     H11290   9.432   6.541   6.275  1.5042  2.2400 -0.1587
   82MOL0     H11291   9.402   6.478   6.438  2.4608 -0.3043  2.9746
   82MOL0     H11292   9.670   6.455   6.293  0.7594 -0.1344  0.6147
   82MOL0     H11293   9.541   6.331   6.268 -0.0171  1.9026 -1.8303
   82MOL0     H11294   9.634   6.418   6.538  0.0562  0.0493 -0.3342
   82MOL0     H11295   9.737   6.297   6.458 -0.4909 -1.4417 -0.5853
   82MOL0     H11296   9.370   7.195   6.288 -1.5558  0.1600 -0.4669
   82MOL0     H11297   9.264   7.241   6.069  1.6905 -3.1012  1.4353
   82MOL0     H11298   9.084   7.301   5.769 -1.7574 -1.1488  1.7784
   82MOL0     H11299   9.040   7.357   5.528 -1.7723 -2.5208 -0.6388
   82MOL0     H11300   9.222   8.494   4.631  0.2731  0.8363 -0.0898
   82MOL0     H11301   9.362   8.296   4.619  0.5157 -1.9588 -1.4171
   82MOL0     H11302   9.387   7.861   4.328  0.0113 -0.0743 -0.4976
   82MOL0     H11303   9.543   7.688   4.289 -1.9039 -1.5008  0.8165
   82MOL0     H11304   9.731   7.458   4.637 -0.0589  0.2144  1.7020
   82MOL0     H11305   9.837   7.429   4.497 -1.3310 -0.5317 -1.8109
   82MOL0     H11306   9.965   7.542   4.655 -1.7154 -2.2793  1.4298
   82MOL0     H11307   9.842   7.654   4.698  1.9470 -1.1518  2.1766
   82MOL0     H11308   9.964   7.654   4.424  1.1085  1.1984 -0.3964
   82MOL0     H11309   9.828   7.764   4.501  1.4991  2.2724  2.9820
   82MOL0     H11310  10.124   7.752   4.565 -0.8485 -1.2844 -0.0515
   82MOL0     H11311  10.008   7.860   4.644  0.2326 -0.5691  0.8076
   82MOL0     H11312  10.104   8.069   4.295  0.1595 -0.5190 -1.7892
   82MOL0     H11313   9.594   7.624   4.699  2.1010  0.1056 -1.1966
   82MOL0     H11314   9.377   7.833   4.844  0.2244  0.3253  0.1743
   82MOL0     H11315   9.536   7.764   4.865 -2.2703 -0.5577  0.4123
   82MOL0     H11316   9.502   7.939   4.827 -1.3609 -0.6753  3.8442
   83MOL0     O11317   8.918   2.971  10.795 -0.0887  0.4427  0.6096
   83MOL0     C11318   8.848   3.041  10.872  0.1504 -0.5560  0.2437
   83MOL0     O11319   8.818   3.176  10.863  0.2156  0.7561 -0.1182
   83MOL0     C11320   8.891   3.252  10.774  0.6379  0.0017 -0.2687
   83MOL0     C11321   8.811   3.315  10.667  0.2006  0.8288 -0.0453
   83MOL0     C11322   8.881   3.385  10.571  0.1288  0.5529  0.8227
   83MOL0     C11323   9.021   3.398  10.575 -0.3401  0.3480  0.2786
   83MOL0     O11324   9.068   3.471  10.468  0.0272 -0.6600  0.5097
   83MOL0     C11325   9.177   3.563  10.483  0.3260 -0.2328 -0.3214
   83MOL0     C11326   9.142   3.695  10.410 -0.3918  0.3464 -0.0870
   83MOL0     C11327   9.174   3.678  10.260  0.3215  0.0563 -0.0159
   83MOL0     C11328   9.324   3.685  10.234 -0.0711 -1.0416  1.1158
   83MOL0     C11329   9.358   3.646  10.092 -0.4529  0.2399 -0.8329
   83MOL0     C11330   9.502   3.661  10.039  0.3884 -0.6674  0.1536
   83MOL0     C11331   9.611   3.586  10.117 -0.1200  0.7908  0.0176
   83MOL0     C11332   9.592   3.431  10.090  0.3936  0.1231 -0.1870
   83MOL0     N11333   9.597   3.408   9.946 -0.0457  0.2634  0.3121
   83MOL0     C11334   9.486   3.373   9.874 -1.0723 -1.0289  0.1630
   83MOL0     C11335   9.532   3.342   9.749 -0.3082  0.3502 -0.4561
   83MOL0     C11336   9.444   3.294   9.641 -0.0470 -1.0788 -0.0905
   83MOL0     C11337   9.433   3.401   9.531  0.1897  0.1558  0.8725
   83MOL0     C11338   9.363   3.342   9.411 -0.1212 -0.1869 -0.1907
   83MOL0     C11339   9.322   3.449   9.312 -0.9415  0.2569  0.3291
   83MOL0     O11340   9.215   3.529   9.367  0.8373  0.1554 -0.0713
   83MOL0     C11341   9.097   3.517   9.301  0.3155  1.0108  0.0816
   83MOL0     C11342   9.010   3.408   9.289 -0.3173 -0.6109  0.1551
   83MOL0     C11343   8.883   3.413   9.218 -0.2871 -0.2583  0.2049
   83MOL0     C11344   8.808   3.284   9.214 -0.0079 -0.2856  0.3955
   83MOL0     C11345   8.850   3.539   9.159 -0.5581 -0.2184  0.2750
   83MOL0     C11346   8.718   3.557   9.078 -0.6015 -0.1920 -0.7941
   83MOL0     O11347   8.677   3.686   9.066 -0.4396 -0.2679  0.5782
   83MOL0     C11348   8.555   3.702   9.006  0.3228 -0.7887  0.1274
   83MOL0     C11349   8.439   3.701   9.081 -1.6476  0.2829  0.4704
   83MOL0     C11350   8.314   3.720   9.026  0.3806 -0.1276 -0.4883
   83MOL0     C11351   8.297   3.743   8.895  0.2696  0.7298  0.0230
   83MOL0     O11352   8.171   3.768   8.849  0.5885  0.0725 -0.1571
   83MOL0     C11353   8.140   3.781   8.711  0.4474 -0.6946  0.6208
   83MOL0     C11354   8.000   3.816   8.685  0.1272  0.1098 -0.1117
   83MOL0     C11355   7.964   3.845   8.539 -0.0405  0.0320 -1.0115
   83MOL0     C11356   7.813   3.890   8.526 -0.1799  0.4900  0.2022
   83MOL0     C11357   7.752   3.876   8.381 -0.7882  0.4460  0.3287
   83MOL0     C11358   7.669   3.752   8.361  0.6300  0.3802 -0.0196
   83MOL0     C11359   7.745   3.629   8.366 -0.0557  0.4197 -0.8052
   83MOL0     C11360   7.683   3.496   8.326 -1.1730  0.4297  0.9037
   83MOL0    Cl11361   7.538   3.477   8.432  0.1098  0.5645  0.2140
   83MOL0     C11362   8.409   3.740   8.807  0.9609 -0.2765 -0.0773
   83MOL0     C11363   8.543   3.718   8.865 -1.5782  0.4624  0.8913
   83MOL0     O11364   8.642   3.456   9.057 -0.6707 -0.3027 -0.6962
   83MOL0     C11365   8.950   3.645   9.163  0.7904  0.1047 -0.5146
   83MOL0     C11366   9.071   3.632   9.235 -0.1270 -0.1009  0.8443
   83MOL0     N11367   9.656   3.392   9.741 -1.3637  0.2699  0.0841
   83MOL0     N11368   9.707   3.407   9.861  0.0351 -0.4458 -0.9519
   83MOL0     C11369   9.093   3.344  10.685 -0.1332 -0.4961 -0.6471
   83MOL0     C11370   9.025   3.261  10.785 -0.9829 -0.6754  0.3329
   83MOL0     C11371   8.797   2.972  10.992  0.3024 -1.2077  0.3350
   83MOL0     C11372   8.803   3.037  11.115 -0.1189  0.3409  0.3716
   83MOL0     C11373   8.780   2.971  11.242  0.4860 -0.1659  0.7255
   83MOL0     C11374   8.736   2.834  11.226  0.3523  1.2821  0.3684
   83MOL0     O11375   8.712   2.761  11.337 -0.5713  0.5195 -0.6802
   83MOL0     C11376   8.798   2.647  11.355  1.0512 -0.2247  0.7603
   83MOL0     C11377   8.947   2.685  11.367  0.3730 -0.3624  0.4286
   83MOL0     C11378   9.032   2.569  11.324 -0.1122  0.3495 -0.4511
   83MOL0     C11379   9.176   2.583  11.362 -0.4993  0.4563  0.3010
   83MOL0     C11380   9.261   2.468  11.340 -0.4685 -0.3776  0.6684
   83MOL0     C11381   9.339   2.383  11.295  0.6578  0.8358 -1.3022
   83MOL0     C11382   8.715   2.773  11.103 -1.2600 -0.8280 -0.4344
   83MOL0     C11383   8.744   2.840  10.982  0.2174 -0.0156 -0.7472
   83MOL0     C11384   8.723   2.755  10.854  0.8507 -0.5571 -0.3151
   83MOL0     H11385   8.703   3.300  10.663  0.1432 -0.1776  2.8207
   83MOL0     H11386   8.835   3.444  10.493  3.3847 -0.8045 -2.4429
   83MOL0     H11387   9.273   3.521  10.452 -0.1338 -0.3916 -1.5901
   83MOL0     H11388   9.174   3.581  10.591 -0.6880 -0.5588 -0.2911
   83MOL0     H11389   9.034   3.705  10.428 -0.2857 -0.7338  1.3743
   83MOL0     H11390   9.193   3.782  10.452 -4.2029  2.3795  0.8419
   83MOL0     H11391   9.144   3.574  10.245 -0.4068 -0.0911  2.0231
   83MOL0     H11392   9.121   3.749  10.197 -0.5156  0.6744  1.3227
   83MOL0     H11393   9.367   3.784  10.254 -0.5211 -0.2741 -1.4389
   83MOL0     H11394   9.381   3.615  10.296  1.2636 -0.7317  0.2682
   83MOL0     H11395   9.298   3.706  10.023 -0.6165 -1.3637 -2.1804
   83MOL0     H11396   9.334   3.543  10.062  2.0236  0.4667 -4.2609
   83MOL0     H11397   9.501   3.634   9.933  0.6082  4.1953 -1.3092
   83MOL0     H11398   9.522   3.768  10.045 -2.6536  0.0426 -0.7576
   83MOL0     H11399   9.593   3.606  10.223  2.0754  1.0754  0.3790
   83MOL0     H11400   9.711   3.620  10.091  0.4295 -1.0864 -0.4701
   83MOL0     H11401   9.673   3.371  10.133 -0.4177 -0.8671  0.0090
   83MOL0     H11402   9.499   3.388  10.128 -0.0697 -0.4445 -1.8754
   83MOL0     H11403   9.380   3.374   9.896 -1.6202  1.1210 -2.1264
   83MOL0     H11404   9.340   3.297   9.674 -0.3972  0.1463 -1.2347
   83MOL0     H11405   9.481   3.199   9.599  0.5922 -0.2695 -1.4025
   83MOL0     H11406   9.369   3.485   9.561 -1.1055 -0.1923 -0.7270
   83MOL0     H11407   9.531   3.444   9.509  1.4152 -2.9645 -0.3293
   83MOL0     H11408   9.433   3.273   9.362 -2.0104  0.8096 -4.8144
   83MOL0     H11409   9.270   3.295   9.442 -1.5538  0.4302 -3.2006
   83MOL0     H11410   9.410   3.513   9.298 -0.8040 -0.0843 -0.4178
   83MOL0     H11411   9.299   3.403   9.215  0.3566 -1.7831  0.9188
   83MOL0     H11412   9.031   3.316   9.342  1.0709 -1.0914 -1.1452
   83MOL0     H11413   8.799   3.244   9.113 -0.1410  1.4311 -0.3129
   83MOL0     H11414   8.712   3.309   9.260 -0.1600  3.0024 -1.3604
   83MOL0     H11415   8.849   3.215   9.288 -0.0180 -0.1839  0.4970
   83MOL0     H11416   8.437   3.685   9.188 -1.0954 -0.6034  0.3592
   83MOL0     H11417   8.228   3.719   9.092 -0.6576  2.2915 -1.6624
   83MOL0     H11418   8.204   3.860   8.670  1.0165  0.5440  3.6124
   83MOL0     H11419   8.158   3.684   8.663 -4.1689 -1.1456 -0.6066
   83MOL0     H11420   7.928   3.748   8.733 -1.2302  1.6703  0.1623
   83MOL0     H11421   7.986   3.905   8.747 -2.5879 -1.0916  1.2065
   83MOL0     H11422   7.972   3.749   8.486  1.3571 -1.5181  1.7969
   83MOL0     H11423   8.027   3.923   8.495 -2.1896  2.1090 -0.6214
   83MOL0     H11424   7.810   3.997   8.550  2.0996  0.3943  1.1071
   83MOL0     H11425   7.752   3.837   8.600  0.9570  1.5302  1.9555
   83MOL0     H11426   7.697   3.970   8.368  0.4130  0.8811 -2.0897
   83MOL0     H11427   7.829   3.883   8.304  2.2006 -0.7378  2.9793
   83MOL0     H11428   7.602   3.765   8.276  2.2907  2.0795 -1.1318
   83MOL0     H11429   7.603   3.747   8.448  4.1404 -2.5447  2.8158
   83MOL0     H11430   7.774   3.627   8.471  1.9538  3.5578 -1.1662
   83MOL0     H11431   7.844   3.641   8.320  1.8659  3.2821  3.4601
   83MOL0     H11432   7.754   3.415   8.341 -2.4328 -0.9687 -0.3701
   83MOL0     H11433   7.658   3.498   8.220 -0.0258  3.7236  0.5593
   83MOL0     H11434   8.398   3.773   8.704 -0.1089 -0.0043  0.1099
   83MOL0     H11435   8.627   3.746   8.802 -2.7659  0.1523 -0.9264
   83MOL0     H11436   8.943   3.738   9.107  0.2626 -0.0787 -0.7629
   83MOL0     H11437   9.140   3.716   9.235  1.5296 -1.4067  1.1236
   83MOL0     H11438   9.200   3.363  10.687 -0.4795  1.8058  1.6156
   83MOL0     H11439   9.070   3.207  10.868 -3.6075  1.0851  3.1457
   83MOL0     H11440   8.810   3.145  11.105 -1.6982  0.6232  1.7154
   83MOL0     H11441   8.773   3.040  11.325 -3.2382 -1.0990  1.3725
   83MOL0     H11442   8.758   2.614  11.451 -1.1776 -1.0982 -0.3961
   83MOL0     H11443   8.785   2.573  11.276 -0.4434  2.1756 -1.4168
   83MOL0     H11444   8.971   2.710  11.471 -0.1539  3.0461 -0.1352
   83MOL0     H11445   8.977   2.770  11.304 -1.5049 -0.8443 -1.2161
   83MOL0     H11446   8.992   2.482  11.376  0.0137 -1.4061 -3.1185
   83MOL0     H11447   9.032   2.568  11.215 -0.7190  3.8451 -0.6027
   83MOL0     H11448   9.173   2.609  11.468 -2.3080 -1.6171  0.8311
   83MOL0     H11449   9.237   2.654  11.305  0.8637 -1.4441 -0.7390
   83MOL0     H11450   9.395   2.303  11.251 -0.7218 -2.1028  1.8127
   83MOL0     H11451   8.678   2.671  11.104 -2.6302 -0.3939 -2.1514
   83MOL0     H11452   8.740   2.808  10.759 -0.7276  1.0236  0.2234
   83MOL0     H11453   8.802   2.680  10.863  1.4848  0.0422 -0.7454
   83MOL0     H11454   8.620   2.719  10.844  0.4791  0.8105 -1.8698
   84MOL0     O11455   7.491   4.302   5.056  0.4039 -0.4584 -0.7595
   84MOL0     C11456   7.545   4.355   4.956  0.2950  0.6300 -0.2822
   84MOL0     O11457   7.502   4.472   4.902 -0.1316  0.0176  0.6209
   84MOL0     C11458   7.380   4.527   4.934 -0.0574  1.3622 -0.2907
   84MOL0     C11459   7.254   4.462   4.930  0.0137 -0.7486  0.1914
   84MOL0     C11460   7.141   4.521   4.975  1.3789  0.2275  0.1765
   84MOL0     C11461   7.138   4.661   5.004 -0.0818 -0.0854  0.1188
   84MOL0     O11462   7.014   4.724   5.037  0.8180 -0.1035  0.8552
   84MOL0     C11463   6.945   4.769   4.919  1.0755 -0.8012  0.1446
   84MOL0     C11464   6.843   4.859   4.989 -0.5960 -0.3753 -0.5032
   84MOL0     C11465   6.746   4.784   5.077 -0.8319  0.1142 -0.4380
   84MOL0     C11466   6.608   4.856   5.083  0.2787 -1.1960 -0.3959
   84MOL0     C11467   6.525   4.826   5.204  0.0800 -0.2559 -0.3930
   84MOL0     C11468   6.565   4.873   5.348  0.3031  1.6710  0.2557
   84MOL0     C11469   6.588   5.026   5.352  1.1494  0.0677  0.5075
   84MOL0     C11470   6.455   5.107   5.330  0.3749  0.3110 -0.7329
   84MOL0     N11471   6.338   5.054   5.405 -0.8923 -0.0381 -0.3233
   84MOL0     C11472   6.322   5.060   5.544  0.4552 -0.3290 -0.6004
   84MOL0     C11473   6.190   5.048   5.562  0.1057 -0.0282  0.1071
   84MOL0     C11474   6.105   5.049   5.685  0.1558  0.1242 -0.4696
   84MOL0     C11475   6.189   5.004   5.806  0.4045  0.0368 -0.0269
   84MOL0     C11476   6.231   4.862   5.799  0.0325 -0.1037 -0.1623
   84MOL0     C11477   6.307   4.825   5.929  0.1925 -1.2208 -0.2594
   84MOL0     O11478   6.416   4.910   5.957 -1.0019 -0.9600 -0.2379
   84MOL0     C11479   6.530   4.913   5.879  0.9628  1.1293  0.1142
   84MOL0     C11480   6.613   5.018   5.890  0.1174  0.1166 -0.0746
   84MOL0     C11481   6.724   5.027   5.811 -0.0946  0.6331  0.1748
   84MOL0     C11482   6.804   5.158   5.822 -0.7178  0.1361  0.5988
   84MOL0     C11483   6.767   4.926   5.726  0.3731  0.0579 -0.6742
   84MOL0     C11484   6.889   4.926   5.632 -0.5693 -0.3266  0.9516
   84MOL0     O11485   6.897   4.828   5.540  0.6237  0.4864  0.6396
   84MOL0     C11486   7.017   4.769   5.518  0.1475  0.2748  0.2344
   84MOL0     C11487   7.120   4.750   5.614 -0.1105  0.4083 -0.1826
   84MOL0     C11488   7.233   4.676   5.585  0.8956  0.2053  0.5009
   84MOL0     C11489   7.256   4.627   5.452  0.4331 -0.4413 -0.5066
   84MOL0     O11490   7.371   4.556   5.443 -0.1537  0.0049  0.1654
   84MOL0     C11491   7.416   4.523   5.311 -0.5889 -0.4390 -0.2759
   84MOL0     C11492   7.560   4.482   5.309  0.5353  0.0105  0.5336
   84MOL0     C11493   7.583   4.347   5.380 -0.7113 -0.4213  0.2212
   84MOL0     C11494   7.742   4.315   5.391  1.1647 -1.1012 -0.4890
   84MOL0     C11495   7.784   4.270   5.255 -0.0639  0.9349  0.8015
   84MOL0     C11496   7.937   4.236   5.243 -0.4863 -0.0132 -0.7735
   84MOL0     C11497   8.020   4.359   5.212  0.8661  0.7294  0.5116
   84MOL0     C11498   8.156   4.339   5.273  0.0601  0.0479  0.0659
   84MOL0    Cl11499   8.241   4.501   5.253  0.2900 -0.0602 -0.2745
   84MOL0     C11500   7.158   4.653   5.355  0.4015 -0.4118  0.2060
   84MOL0     C11501   7.038   4.715   5.387 -0.2415 -0.2843  0.0111
   84MOL0     O11502   6.966   5.026   5.628  0.7536  0.4906  0.6868
   84MOL0     C11503   6.680   4.815   5.718  0.5450  0.1242 -0.7935
   84MOL0     C11504   6.577   4.805   5.805 -0.5147  0.9324 -0.0097
   84MOL0     N11505   6.138   5.014   5.440 -0.6954 -0.3737  1.1267
   84MOL0     N11506   6.218   5.025   5.346 -0.4665 -0.4428 -0.3516
   84MOL0     C11507   7.258   4.737   4.990  0.0805  0.2656 -0.1051
   84MOL0     C11508   7.373   4.664   4.955 -0.4300 -1.4085 -0.1839
   84MOL0     C11509   7.658   4.287   4.904  0.1763  0.1765 -0.1994
   84MOL0     C11510   7.744   4.367   4.822 -0.4937  0.3004  0.6232
   84MOL0     C11511   7.864   4.320   4.776 -0.5308  0.3735 -0.7661
   84MOL0     C11512   7.914   4.193   4.820  1.0095  0.1122 -0.1510
   84MOL0     O11513   8.042   4.159   4.782 -0.8245 -0.2174 -0.0646
   84MOL0     C11514   8.104   4.035   4.818  0.0293 -0.2134  0.0854
   84MOL0     C11515   8.247   4.045   4.788 -0.6163 -0.2451  0.6930
   84MOL0     C11516   8.280   4.058   4.637 -0.2921 -0.4460  0.2260
   84MOL0     C11517   8.428   4.086   4.603  0.0033 -0.5277 -0.2369
   84MOL0     C11518   8.517   3.970   4.624  0.5560 -0.8323 -0.2718
   84MOL0     C11519   8.589   3.882   4.666  0.7808  0.5965 -0.1916
   84MOL0     C11520   7.823   4.114   4.893  0.0229  0.3295  1.0898
   84MOL0     C11521   7.695   4.155   4.938  0.5464 -0.3272  1.1371
   84MOL0     C11522   7.600   4.043   4.982 -0.1432 -0.1718  0.0691
   84MOL0     H11523   7.254   4.356   4.903  2.8131 -0.8879  0.3952
   84MOL0     H11524   7.052   4.460   4.982  2.8143 -2.1421 -0.8167
   84MOL0     H11525   6.894   4.689   4.865 -0.0837  0.3172 -0.4757
   84MOL0     H11526   7.012   4.831   4.857 -0.8308  0.3152 -0.8999
   84MOL0     H11527   6.904   4.917   5.059 -0.0807 -1.4867 -0.0199
   84MOL0     H11528   6.787   4.928   4.926 -1.2255 -0.1200  0.3156
   84MOL0     H11529   6.730   4.690   5.023  0.5820 -0.4513  0.0916
   84MOL0     H11530   6.771   4.768   5.183  0.4063 -0.0413 -0.7439
   84MOL0     H11531   6.641   4.959   5.096  1.1931 -1.3744 -1.1513
   84MOL0     H11532   6.545   4.850   4.994 -2.0175 -3.2760  1.2351
   84MOL0     H11533   6.512   4.717   5.199 -1.6353 -0.1480  0.8730
   84MOL0     H11534   6.424   4.859   5.179 -0.2387 -1.1889 -0.3950
   84MOL0     H11535   6.491   4.844   5.423  1.7080  0.4015  1.2052
   84MOL0     H11536   6.651   4.809   5.369 -2.6106 -3.2775 -1.1201
   84MOL0     H11537   6.649   5.062   5.268 -0.4474  1.2779 -0.1947
   84MOL0     H11538   6.631   5.064   5.445 -1.1623 -0.0223  1.6851
   84MOL0     H11539   6.462   5.212   5.358  0.8439  0.3179 -0.8648
   84MOL0     H11540   6.435   5.119   5.223  1.4938  5.8704 -0.5780
   84MOL0     H11541   6.392   5.095   5.620  1.0759  1.3339 -1.8778
   84MOL0     H11542   6.011   4.994   5.676 -0.4126  1.3931 -3.6764
   84MOL0     H11543   6.073   5.153   5.695 -3.8070 -0.4787 -3.8927
   84MOL0     H11544   6.276   5.068   5.800  0.3214  0.4225  1.9722
   84MOL0     H11545   6.152   5.023   5.908  0.9760 -1.5084  0.5006
   84MOL0     H11546   6.148   4.797   5.769  0.3618 -0.0603 -1.2102
   84MOL0     H11547   6.303   4.844   5.718 -0.4136  2.0759 -1.1207
   84MOL0     H11548   6.244   4.837   6.018 -0.5963 -2.6058 -0.5989
   84MOL0     H11549   6.340   4.720   5.932  0.1249 -1.2314  1.0934
   84MOL0     H11550   6.590   5.100   5.957  0.3076  0.0695  0.0491
   84MOL0     H11551   6.897   5.118   5.862 -1.8421 -2.4883  0.8037
   84MOL0     H11552   6.775   5.240   5.888 -0.0339  2.2234 -1.5558
   84MOL0     H11553   6.822   5.205   5.725  1.9693  0.8403  1.3574
   84MOL0     H11554   7.096   4.773   5.718 -0.3280  1.3274 -0.4211
   84MOL0     H11555   7.308   4.654   5.661 -0.3312  3.6741  2.9586
   84MOL0     H11556   7.352   4.438   5.285 -1.0358 -0.2807  0.2764
   84MOL0     H11557   7.396   4.609   5.246  1.3598  0.4922  0.2927
   84MOL0     H11558   7.583   4.472   5.202 -0.9169 -0.8140  0.2715
   84MOL0     H11559   7.629   4.554   5.353  1.3053  0.1608 -0.8515
   84MOL0     H11560   7.541   4.262   5.325  0.1513 -0.1374 -0.9139
   84MOL0     H11561   7.536   4.349   5.479  1.0464  1.9008  1.1114
   84MOL0     H11562   7.758   4.243   5.472 -2.3299  0.0802  1.4419
   84MOL0     H11563   7.794   4.408   5.417 -1.3766  0.7881 -1.7021
   84MOL0     H11564   7.734   4.175   5.237  2.0346 -0.1085  0.1782
   84MOL0     H11565   7.757   4.335   5.171 -1.4078 -1.5297 -0.7753
   84MOL0     H11566   7.941   4.160   5.164 -0.8135 -0.5844 -0.2522
   84MOL0     H11567   7.969   4.189   5.336 -0.3674  0.2941 -0.6590
   84MOL0     H11568   7.978   4.450   5.256  0.5209 -0.3621  2.5854
   84MOL0     H11569   8.033   4.369   5.104 -1.3895 -4.1737 -0.4962
   84MOL0     H11570   8.212   4.260   5.223  1.1546  0.6881  0.2600
   84MOL0     H11571   8.151   4.327   5.381  0.4415  2.8873  0.4541
   84MOL0     H11572   7.176   4.620   5.253 -1.7256 -1.4326  0.1143
   84MOL0     H11573   6.961   4.737   5.315  1.7605  0.4192 -2.0310
   84MOL0     H11574   6.700   4.720   5.669 -0.3960  0.1601 -1.2567
   84MOL0     H11575   6.527   4.710   5.816 -0.0403  0.4857 -1.4672
   84MOL0     H11576   7.251   4.842   5.017 -3.2586  0.3054 -0.6172
   84MOL0     H11577   7.467   4.718   4.943 -1.6697  1.3803  1.6202
   84MOL0     H11578   7.728   4.470   4.795  2.3206  1.3724  2.5984
   84MOL0     H11579   7.926   4.390   4.720  1.4970  1.5369  2.6654
   84MOL0     H11580   8.088   4.021   4.925 -1.4398 -0.5775 -0.1618
   84MOL0     H11581   8.057   3.951   4.765 -1.3986  0.9084 -0.5193
   84MOL0     H11582   8.296   3.959   4.836 -0.0496  0.7355  1.9275
   84MOL0     H11583   8.285   4.134   4.839 -1.5262  0.4750  0.1224
   84MOL0     H11584   8.248   3.972   4.577  1.3062 -0.0769 -1.2439
   84MOL0     H11585   8.227   4.141   4.591  1.8130  0.1618 -1.2658
   84MOL0     H11586   8.468   4.181   4.638  1.5988 -1.3595  0.2903
   84MOL0     H11587   8.424   4.091   4.493 -1.9522 -1.4283 -0.2450
   84MOL0     H11588   8.658   3.805   4.694  1.5029 -0.2355 -3.7588
   84MOL0     H11589   7.848   4.010   4.912  4.7681  0.8696 -0.7417
   84MOL0     H11590   7.495   4.047   4.950 -0.4716 -0.7599  1.0575
   84MOL0     H11591   7.636   3.946   4.948  0.4833 -0.1974  0.7935
   84MOL0     H11592   7.603   4.041   5.091 -0.7703  2.4168  0.2140
   85MOL0     O11593   0.253   0.661   4.862 -0.4180  0.1369  0.5363
   85MOL0     C11594   0.304   0.618   4.963  0.7400  0.2836  1.3751
   85MOL0     O11595   0.392   0.679   5.038  0.0461  0.1682 -0.0896
   85MOL0     C11596   0.439   0.808   5.010  0.4751  0.1808 -0.8478
   85MOL0     C11597   0.564   0.811   4.945 -0.0720 -1.1648 -0.5833
   85MOL0     C11598   0.613   0.933   4.896  0.0853  0.2754 -0.0137
   85MOL0     C11599   0.547   1.056   4.916 -0.5400  1.0047 -0.3881
   85MOL0     O11600   0.606   1.166   4.866  0.5146 -0.0319 -0.5944
   85MOL0     C11601   0.564   1.289   4.919 -0.2733 -0.5207  0.1839
   85MOL0     C11602   0.679   1.390   4.918  0.6800 -0.0284 -0.4177
   85MOL0     C11603   0.762   1.396   4.797  0.6310  0.0834  0.8569
   85MOL0     C11604   0.704   1.422   4.665  0.5210 -0.8131  0.3320
   85MOL0     C11605   0.810   1.403   4.549  0.2536  0.1706  0.0514
   85MOL0     C11606   0.807   1.270   4.474 -0.1627  0.1060 -0.3340
   85MOL0     C11607   0.930   1.270   4.376 -0.2879 -1.0159  0.5520
   85MOL0     C11608   0.934   1.138   4.287 -0.1943  0.0948  0.1432
   85MOL0     N11609   0.939   1.024   4.381 -0.8704  0.1954  0.4014
   85MOL0     C11610   1.041   0.979   4.462  0.0585  0.3382  1.3421
   85MOL0     C11611   1.003   0.866   4.518 -1.2394 -0.9584 -1.1833
   85MOL0     C11612   1.081   0.780   4.614  0.8848 -1.1375  1.0391
   85MOL0     C11613   1.123   0.879   4.729  0.6800 -0.4970 -0.6332
   85MOL0     C11614   1.184   0.811   4.853  0.2318  0.6098 -0.3877
   85MOL0     C11615   1.306   0.732   4.816 -0.5525 -0.1614  0.4754
   85MOL0     O11616   1.380   0.687   4.930 -0.3063 -0.3393  0.4698
   85MOL0     C11617   1.480   0.742   4.994  0.0229 -0.0390  0.0698
   85MOL0     C11618   1.501   0.879   4.986  0.8315 -0.1160 -0.4836
   85MOL0     C11619   1.609   0.943   5.047 -0.5816 -0.7197 -0.9467
   85MOL0     C11620   1.625   1.099   5.038  0.0479  0.1637 -0.7011
   85MOL0     C11621   1.697   0.870   5.132  0.6503 -0.5569  0.1912
   85MOL0     C11622   1.807   0.928   5.217 -0.8079  0.3486 -0.0380
   85MOL0     O11623   1.914   0.841   5.242 -0.2022 -0.3437 -0.3897
   85MOL0     C11624   2.016   0.897   5.314 -0.6147  0.3578 -0.4109
   85MOL0     C11625   1.999   0.924   5.451 -0.9957 -0.2422  0.0606
   85MOL0     C11626   2.107   0.984   5.522  0.6013 -0.2271  0.3207
   85MOL0     C11627   2.226   1.018   5.454  0.4531  0.1338 -0.4753
   85MOL0     O11628   2.338   1.084   5.508  0.0198 -0.0458 -1.0007
   85MOL0     C11629   2.336   1.120   5.651  0.0384  0.1690 -0.0318
   85MOL0     C11630   2.454   1.189   5.703 -0.3055  0.1128  0.8868
   85MOL0     C11631   2.583   1.128   5.647 -0.1259 -0.3156 -0.3583
   85MOL0     C11632   2.704   1.168   5.729  0.1403  0.1265  0.1107
   85MOL0     C11633   2.823   1.069   5.706  0.0606 -0.1779  0.2834
   85MOL0     C11634   2.949   1.101   5.790  0.4124  0.1026 -0.2724
   85MOL0     C11635   3.053   0.988   5.793  0.6348 -0.6485 -0.0933
   85MOL0     C11636   3.119   0.963   5.658  0.5566  0.3938 -0.3816
   85MOL0    Cl11637   3.161   0.797   5.632  0.2579  0.3797  0.0875
   85MOL0     C11638   2.245   0.983   5.320 -0.0771  0.4108  0.0106
   85MOL0     C11639   2.138   0.916   5.252  0.7668 -0.2978  0.1621
   85MOL0     O11640   1.800   1.047   5.255  0.0028 -0.1452  0.0366
   85MOL0     C11641   1.672   0.732   5.144 -0.2949  0.8232  0.2774
   85MOL0     C11642   1.563   0.672   5.081 -0.1387  0.4792  0.5177
   85MOL0     N11643   0.869   0.855   4.488  0.7029  0.3364  0.4760
   85MOL0     N11644   0.830   0.940   4.396  0.1440 -0.4479 -0.2920
   85MOL0     C11645   0.419   1.049   4.989 -1.0426  0.5240 -0.4286
   85MOL0     C11646   0.369   0.925   5.030  0.5495 -0.7360  0.6516
   85MOL0     C11647   0.266   0.487   5.011  0.6460 -0.2651 -0.1162
   85MOL0     C11648   0.253   0.380   4.920 -0.1111 -0.5614 -0.4221
   85MOL0     C11649   0.221   0.257   4.971  0.2953  0.1088  0.4471
   85MOL0     C11650   0.216   0.221   5.100  0.7145  0.4697 -0.9921
   85MOL0     O11651   0.192   0.093   5.147 -0.3766  0.2556  0.3479
   85MOL0     C11652   0.186  -0.025   5.072  0.2923 -0.3400  0.6359
   85MOL0     C11653   0.230  -0.139   5.166  0.9493 -0.5493  0.4588
   85MOL0     C11654   0.136  -0.171   5.289 -1.4389 -0.1866  0.0482
   85MOL0     C11655   0.175  -0.302   5.360  0.2031  1.3081  0.4886
   85MOL0     C11656   0.057  -0.347   5.426 -0.4962 -0.1736 -0.0777
   85MOL0     C11657  -0.034  -0.382   5.503  0.4602  0.2686 -0.6489
   85MOL0     C11658   0.221   0.327   5.190 -0.0692  0.0577 -0.2192
   85MOL0     C11659   0.249   0.460   5.149  0.3438 -0.2039 -0.3848
   85MOL0     C11660   0.250   0.572   5.254 -0.4249  0.8589  0.3548
   85MOL0     H11661   0.618   0.719   4.923 -0.1170 -0.7459 -2.6426
   85MOL0     H11662   0.697   0.946   4.828 -1.2360  0.3826 -1.7216
   85MOL0     H11663   0.544   1.275   5.026 -1.7585 -1.8874 -0.2430
   85MOL0     H11664   0.476   1.321   4.864 -0.2552 -3.2549 -1.5954
   85MOL0     H11665   0.639   1.487   4.945 -2.3638 -0.6588 -2.2139
   85MOL0     H11666   0.746   1.363   5.001 -1.6493 -1.0858  1.2179
   85MOL0     H11667   0.835   1.476   4.815  0.2249  0.1423  2.3210
   85MOL0     H11668   0.806   1.296   4.801  0.6011  0.0998  1.9229
   85MOL0     H11669   0.608   1.370   4.654  0.0294 -0.2728  1.8092
   85MOL0     H11670   0.667   1.525   4.655  1.2940 -0.6909 -1.7835
   85MOL0     H11671   0.911   1.424   4.585 -0.4545  2.0134  1.0738
   85MOL0     H11672   0.791   1.477   4.471  1.1067  0.8186  0.4523
   85MOL0     H11673   0.795   1.185   4.542  2.0036 -1.3104 -1.6313
   85MOL0     H11674   0.711   1.264   4.421 -1.0817 -1.4354  1.3939
   85MOL0     H11675   1.023   1.283   4.431 -0.0708  0.0803 -0.0558
   85MOL0     H11676   0.932   1.360   4.313  2.5474 -2.0626 -1.0458
   85MOL0     H11677   0.842   1.135   4.229 -0.1272  0.8700 -0.0120
   85MOL0     H11678   1.022   1.140   4.223  0.1820 -2.1654  0.5142
   85MOL0     H11679   1.141   1.023   4.458 -0.2754  1.0596  0.7240
   85MOL0     H11680   1.173   0.754   4.560  1.2382  0.3070  0.9141
   85MOL0     H11681   1.030   0.687   4.641  0.8597 -1.1358  0.9981
   85MOL0     H11682   1.201   0.947   4.695 -0.4399  0.5519 -1.2056
   85MOL0     H11683   1.044   0.946   4.766  2.2882  0.6774  0.8067
   85MOL0     H11684   1.210   0.889   4.925  3.4644  0.7283 -1.5288
   85MOL0     H11685   1.121   0.740   4.907 -0.5564 -1.2440 -3.4751
   85MOL0     H11686   1.280   0.647   4.752  2.7382 -1.0895  0.1436
   85MOL0     H11687   1.369   0.795   4.752  1.4265 -1.7483  0.7637
   85MOL0     H11688   1.433   0.948   4.937  1.1668  1.4740  1.1784
   85MOL0     H11689   1.551   1.133   4.966 -1.2452  0.2971  0.6405
   85MOL0     H11690   1.727   1.108   4.998 -0.5127  1.2689 -1.9602
   85MOL0     H11691   1.617   1.165   5.126 -2.6662  1.4983 -1.8176
   85MOL0     H11692   1.902   0.906   5.496 -0.7299 -0.3385  0.5984
   85MOL0     H11693   2.084   1.006   5.626 -0.4653 -1.1528  0.2995
   85MOL0     H11694   2.253   1.188   5.671 -1.8954 -1.6915 -1.4066
   85MOL0     H11695   2.313   1.029   5.707 -1.0327 -0.9073 -2.1220
   85MOL0     H11696   2.448   1.287   5.656 -2.3647  0.0792  1.0046
   85MOL0     H11697   2.442   1.190   5.812 -0.0405  1.7025  0.9206
   85MOL0     H11698   2.606   1.133   5.540  2.8596 -0.3580  0.1844
   85MOL0     H11699   2.569   1.021   5.668  3.3381 -1.2134 -1.7812
   85MOL0     H11700   2.677   1.185   5.833  0.1107  0.5665  0.0320
   85MOL0     H11701   2.740   1.266   5.698 -1.9997  0.8383 -0.2702
   85MOL0     H11702   2.790   0.969   5.736  1.1528 -0.0626  1.9803
   85MOL0     H11703   2.842   1.071   5.598  3.6209 -2.5337  0.7044
   85MOL0     H11704   2.911   1.117   5.891 -1.7239 -2.8220 -0.4844
   85MOL0     H11705   2.991   1.194   5.751 -0.7874  0.5113 -0.6588
   85MOL0     H11706   3.000   0.899   5.830  0.1234  0.5058  2.0793
   85MOL0     H11707   3.127   1.026   5.864  1.9508 -0.5114 -1.4843
   85MOL0     H11708   3.208   1.027   5.666  0.1255  1.0047 -0.3868
   85MOL0     H11709   3.049   0.993   5.579  1.3662 -0.1471 -1.3275
   85MOL0     H11710   2.339   1.008   5.271 -0.4849  0.2697 -0.8726
   85MOL0     H11711   2.142   0.895   5.146 -2.4867  0.0610 -0.1148
   85MOL0     H11712   1.740   0.665   5.197 -1.4663 -0.7379 -0.1446
   85MOL0     H11713   1.555   0.568   5.112  2.3622 -0.0403 -0.3687
   85MOL0     H11714   0.362   1.140   5.007 -0.4064  1.3837 -2.4185
   85MOL0     H11715   0.269   0.934   5.072  0.3555 -0.1874  0.0821
   85MOL0     H11716   0.288   0.393   4.818 -0.5885 -0.8236 -0.6223
   85MOL0     H11717   0.216   0.175   4.900 -1.7123  0.2306  0.3863
   85MOL0     H11718   0.081  -0.045   5.047  0.5482 -1.7562  0.6479
   85MOL0     H11719   0.244  -0.027   4.979 -1.1651  0.9060 -0.3607
   85MOL0     H11720   0.333  -0.123   5.198  1.0552  0.4719 -0.3695
   85MOL0     H11721   0.228  -0.222   5.094 -0.9438  1.3564 -1.8386
   85MOL0     H11722   0.136  -0.091   5.364 -2.2166 -1.3038  1.2761
   85MOL0     H11723   0.036  -0.173   5.245 -2.0271  1.2470  1.2012
   85MOL0     H11724   0.255  -0.293   5.434 -0.7004 -0.4601  1.7353
   85MOL0     H11725   0.207  -0.376   5.286  0.2526  0.3243  1.4658
   85MOL0     H11726  -0.102  -0.410   5.581  0.4794 -1.0887 -1.0838
   85MOL0     H11727   0.209   0.300   5.294 -0.3892 -2.8578 -0.9275
   85MOL0     H11728   0.237   0.525   5.352  1.9019 -2.7310 -0.8647
   85MOL0     H11729   0.345   0.625   5.265 -1.1337  1.9808  1.4345
   85MOL0     H11730   0.169   0.643   5.241 -1.8513 -1.0656 -1.9941
   86MOL0     O11731   8.577   6.936   8.586 -0.0598  0.1743  1.0690
   86MOL0     C11732   8.677   6.993   8.527  0.2092  0.7140 -0.1962
   86MOL0     O11733   8.668   7.094   8.443 -0.0789 -0.7269  0.0615
   86MOL0     C11734   8.546   7.131   8.392 -0.1394 -0.6593  0.3441
   86MOL0     C11735   8.500   7.089   8.268  0.8054  0.1006 -0.7376
   86MOL0     C11736   8.375   7.128   8.230  0.5721 -0.6246  0.0132
   86MOL0     C11737   8.296   7.218   8.310 -0.2768 -0.4447 -0.5330
   86MOL0     O11738   8.170   7.249   8.280  0.3938  0.1796 -0.0806
   86MOL0     C11739   8.119   7.228   8.153 -0.6477  0.9747 -0.0585
   86MOL0     C11740   7.996   7.319   8.134  0.2807  0.9628 -0.4540
   86MOL0     C11741   8.030   7.469   8.153  0.9006  0.5761 -0.6563
   86MOL0     C11742   7.935   7.576   8.095 -0.5789 -0.0691  0.0030
   86MOL0     C11743   7.803   7.595   8.184  0.1185  0.5205 -0.0763
   86MOL0     C11744   7.690   7.513   8.120  0.4720  1.0349 -0.1191
   86MOL0     C11745   7.579   7.492   8.217 -0.1023 -0.6640  0.1126
   86MOL0     C11746   7.516   7.618   8.274 -0.2827 -0.4415  1.3442
   86MOL0     N11747   7.439   7.587   8.386 -0.0008 -0.0406 -0.4144
   86MOL0     C11748   7.483   7.526   8.498  0.9589 -0.1135 -0.4552
   86MOL0     C11749   7.378   7.521   8.583  0.1514 -0.2983  0.0652
   86MOL0     C11750   7.359   7.443   8.715 -0.1662 -0.4808 -0.1626
   86MOL0     C11751   7.299   7.297   8.690  0.9005 -0.5262 -0.1662
   86MOL0     C11752   7.290   7.210   8.808  0.0780  0.3062 -0.0721
   86MOL0     C11753   7.214   7.075   8.767  0.8195 -0.4276 -0.0826
   86MOL0     O11754   7.297   7.007   8.666 -0.0742  0.3965 -0.2075
   86MOL0     C11755   7.406   6.938   8.716 -0.8301  0.6175 -0.2743
   86MOL0     C11756   7.491   6.870   8.631  0.3620  0.0499 -0.0528
   86MOL0     C11757   7.601   6.800   8.668  0.5427 -0.1490 -0.3103
   86MOL0     C11758   7.685   6.734   8.557  1.0417  0.0372 -0.2865
   86MOL0     C11759   7.634   6.791   8.804 -0.3374 -0.6464 -0.2978
   86MOL0     C11760   7.755   6.718   8.853 -0.8582 -0.6248 -0.1577
   86MOL0     O11761   7.812   6.757   8.974  0.3979  0.0539  0.4365
   86MOL0     C11762   7.919   6.692   9.011  0.0844  0.1804  0.1526
   86MOL0     C11763   8.047   6.733   8.989  0.4264 -0.9285  0.0736
   86MOL0     C11764   8.155   6.647   9.038 -0.1130 -0.2604  1.2308
   86MOL0     C11765   8.130   6.528   9.099 -0.4651 -0.1331  0.4217
   86MOL0     O11766   8.237   6.456   9.136 -1.0212  0.4000  0.0285
   86MOL0     C11767   8.232   6.354   9.238 -0.5163  0.1715  0.0996
   86MOL0     C11768   8.385   6.313   9.270  0.2827  0.0457 -1.2127
   86MOL0     C11769   8.429   6.201   9.177  0.1902 -0.4279  0.5872
   86MOL0     C11770   8.572   6.159   9.207  0.1685  0.5759  1.2386
   86MOL0     C11771   8.613   6.053   9.102 -0.6787  0.5861  0.8781
   86MOL0     C11772   8.749   5.982   9.141  0.0437 -0.5255  0.3719
   86MOL0     C11773   8.799   5.867   9.045  0.6230  0.2142  0.1686
   86MOL0     C11774   8.721   5.737   9.062  0.4589 -0.3315 -0.1283
   86MOL0    Cl11775   8.801   5.603   8.975 -0.3429 -0.0396  0.4331
   86MOL0     C11776   7.996   6.503   9.130 -0.0247 -0.1497  0.1377
   86MOL0     C11777   7.895   6.579   9.078  0.0813  0.4095  0.8751
   86MOL0     O11778   7.797   6.617   8.795 -0.0250  0.3827 -0.4634
   86MOL0     C11779   7.549   6.858   8.892  0.4773  0.5655 -0.4842
   86MOL0     C11780   7.432   6.929   8.852  0.5346 -0.0860  0.5098
   86MOL0     N11781   7.273   7.587   8.527  0.0916  0.2037 -0.0989
   86MOL0     N11782   7.309   7.636   8.411 -0.9968  0.3000 -0.5065
   86MOL0     C11783   8.344   7.254   8.438  0.6843 -0.2873  0.1635
   86MOL0     C11784   8.472   7.219   8.474 -0.1334 -0.3403 -0.2382
   86MOL0     C11785   8.815   6.970   8.571  0.2182  0.0416 -0.3780
   86MOL0     C11786   8.908   7.078   8.563 -0.4130 -0.3011  0.0859
   86MOL0     C11787   9.043   7.052   8.604 -0.0330 -0.4075  0.8724
   86MOL0     C11788   9.082   6.932   8.650 -0.9061  0.3796  0.3989
   86MOL0     O11789   9.205   6.921   8.704 -0.5259  0.1904 -0.6818
   86MOL0     C11790   9.272   6.789   8.736 -0.8566 -0.9752 -0.8120
   86MOL0     C11791   9.435   6.804   8.737 -0.2104  0.1560 -0.1101
   86MOL0     C11792   9.497   6.668   8.720 -1.1775  0.4488 -0.0715
   86MOL0     C11793   9.455   6.571   8.827 -0.6395  0.1742 -0.0779
   86MOL0     C11794   9.527   6.598   8.947  0.8757 -0.4088  0.2409
   86MOL0     C11795   9.600   6.600   9.046  0.3803  0.3161  0.3484
   86MOL0     C11796   8.990   6.824   8.647 -0.9256 -0.5626 -1.1781
   86MOL0     C11797   8.864   6.849   8.625 -0.7066 -1.1181  0.4282
   86MOL0     C11798   8.776   6.728   8.625  0.6373  0.5253  0.0887
   86MOL0     H11799   8.560   7.019   8.211 -0.0914 -2.3219  1.1062
   86MOL0     H11800   8.328   7.084   8.142  1.9476 -0.2897 -0.9174
   86MOL0     H11801   8.089   7.123   8.142  0.2302  0.5918  0.9279
   86MOL0     H11802   8.193   7.252   8.076 -2.0844  0.2957 -1.7367
   86MOL0     H11803   7.947   7.307   8.038 -2.2050 -2.7009  1.0420
   86MOL0     H11804   7.928   7.285   8.213 -0.2831  1.6546 -0.6422
   86MOL0     H11805   8.029   7.486   8.261 -2.6027  0.2922 -0.5091
   86MOL0     H11806   8.128   7.492   8.111  2.5791 -2.1049  1.4965
   86MOL0     H11807   7.991   7.670   8.097 -0.4631 -0.1352 -0.1145
   86MOL0     H11808   7.916   7.562   7.989  1.8084  1.3168 -0.7021
   86MOL0     H11809   7.778   7.701   8.197  0.7449  1.3034 -3.9497
   86MOL0     H11810   7.832   7.553   8.280  0.0531 -2.2725 -1.1880
   86MOL0     H11811   7.657   7.557   8.026  1.0750 -0.8787 -1.2837
   86MOL0     H11812   7.729   7.419   8.082 -0.5575  0.2644  0.6620
   86MOL0     H11813   7.627   7.431   8.294  0.4730 -1.8921 -1.1881
   86MOL0     H11814   7.496   7.435   8.175  1.4217 -5.1466  2.5650
   86MOL0     H11815   7.581   7.703   8.294 -1.9108  1.1644  0.1502
   86MOL0     H11816   7.454   7.651   8.190 -1.4572  1.2485  2.8053
   86MOL0     H11817   7.573   7.470   8.521  0.4949 -2.3519 -3.4411
   86MOL0     H11818   7.291   7.500   8.779 -0.2462 -0.2881 -0.4144
   86MOL0     H11819   7.459   7.433   8.758 -0.6388 -2.8909  0.4957
   86MOL0     H11820   7.197   7.321   8.657 -0.3092 -2.5461  1.8185
   86MOL0     H11821   7.363   7.249   8.615  2.7132  0.5461  0.6318
   86MOL0     H11822   7.391   7.187   8.844 -0.4134 -1.7388  0.1549
   86MOL0     H11823   7.240   7.269   8.886 -0.0251  1.0085 -0.6598
   86MOL0     H11824   7.189   7.013   8.853 -1.2842 -0.8960 -0.9480
   86MOL0     H11825   7.122   7.102   8.713  1.0630 -0.0514 -0.3135
   86MOL0     H11826   7.462   6.882   8.527 -4.3480 -0.7244  0.9576
   86MOL0     H11827   7.791   6.759   8.570  1.7271 -1.6578 -2.0133
   86MOL0     H11828   7.649   6.751   8.455  0.4768 -0.1732 -0.1245
   86MOL0     H11829   7.672   6.625   8.561 -0.1694  0.2125  1.5271
   86MOL0     H11830   8.048   6.827   8.934 -3.5528  0.1780  1.5589
   86MOL0     H11831   8.249   6.698   9.019 -0.6021  0.2987  0.2107
   86MOL0     H11832   8.200   6.406   9.329  0.2524 -0.5055  0.7706
   86MOL0     H11833   8.168   6.274   9.200  0.4308 -0.5411 -0.0266
   86MOL0     H11834   8.450   6.401   9.268 -0.7283  0.8701  0.1324
   86MOL0     H11835   8.390   6.266   9.369  0.6178  0.3963 -1.0584
   86MOL0     H11836   8.418   6.226   9.071 -2.6355 -2.7193  0.2377
   86MOL0     H11837   8.359   6.119   9.194 -1.9866  1.4264  1.0832
   86MOL0     H11838   8.581   6.095   9.295  1.1878 -2.0088 -0.5935
   86MOL0     H11839   8.646   6.239   9.202  0.7943 -0.0490 -1.6659
   86MOL0     H11840   8.552   5.962   9.102  0.2358 -0.0668 -0.3026
   86MOL0     H11841   8.621   6.094   9.001 -0.5013 -2.0718 -0.2546
   86MOL0     H11842   8.736   5.928   9.235 -2.6508 -3.4957 -1.5347
   86MOL0     H11843   8.823   6.062   9.157 -0.6226 -0.1499  1.7114
   86MOL0     H11844   8.905   5.846   9.058  1.0886  2.0887 -0.2933
   86MOL0     H11845   8.783   5.910   8.945  2.4000  4.2108  1.3854
   86MOL0     H11846   8.619   5.744   9.025  0.0290 -0.3539  1.0074
   86MOL0     H11847   8.705   5.714   9.168 -2.4201 -0.1855 -0.4644
   86MOL0     H11848   7.968   6.418   9.192 -1.8669 -0.3287 -0.8620
   86MOL0     H11849   7.790   6.552   9.089 -0.8617  2.4893 -1.9020
   86MOL0     H11850   7.569   6.843   8.998  0.0569 -1.0805 -0.6120
   86MOL0     H11851   7.369   6.972   8.929  0.8108 -0.0616  0.7234
   86MOL0     H11852   8.275   7.314   8.496  0.5250 -1.1208  0.8602
   86MOL0     H11853   8.495   7.258   8.573 -1.5818  2.8704 -1.0213
   86MOL0     H11854   8.884   7.179   8.531  2.4348  0.7793  1.0250
   86MOL0     H11855   9.108   7.139   8.597 -1.5701  1.0757  3.3832
   86MOL0     H11856   9.247   6.759   8.838 -1.4976  1.2626 -0.2378
   86MOL0     H11857   9.240   6.709   8.669 -0.9136  0.6312 -2.7917
   86MOL0     H11858   9.452   6.840   8.839 -1.6799 -1.6273  0.8384
   86MOL0     H11859   9.467   6.881   8.667  1.2237 -1.9335 -1.8980
   86MOL0     H11860   9.486   6.612   8.626  1.7321 -1.5278  0.6241
   86MOL0     H11861   9.606   6.677   8.712 -0.9078 -0.6614  1.8053
   86MOL0     H11862   9.485   6.472   8.791 -0.1388  0.2067  0.2492
   86MOL0     H11863   9.346   6.562   8.836 -0.7019  2.3826  3.0101
   86MOL0     H11864   9.669   6.602   9.128  1.8413  1.5463 -0.8366
   86MOL0     H11865   9.012   6.722   8.678  0.6929 -0.3008 -1.3474
   86MOL0     H11866   8.724   6.718   8.529  0.4466  1.0425  0.1341
   86MOL0     H11867   8.843   6.644   8.645  1.6790  1.6111  1.3445
   86MOL0     H11868   8.704   6.728   8.707  1.5874  3.2199  1.0251
   87MOL0     O11869   0.218   8.949   8.460  0.0099 -0.6976  0.2667
   87MOL0     C11870   0.251   9.009   8.558 -0.2948 -0.4214 -0.3944
   87MOL0     O11871   0.344   9.110   8.554  0.1859 -1.3195  0.3913
   87MOL0     C11872   0.424   9.135   8.447 -0.3382  0.4073  0.6647
   87MOL0     C11873   0.560   9.173   8.465  0.1837  0.3228  0.4953
   87MOL0     C11874   0.639   9.216   8.355  0.1100 -0.1050 -0.5579
   87MOL0     C11875   0.586   9.222   8.223 -0.1466  0.3594  0.3390
   87MOL0     O11876   0.649   9.267   8.105  0.8221 -0.1816 -0.3826
   87MOL0     C11877   0.792   9.238   8.108  0.1737 -0.1982  0.1404
   87MOL0     C11878   0.854   9.281   7.962 -0.4835  0.1855 -0.5756
   87MOL0     C11879   1.001   9.262   7.947  0.0632  0.2027  0.6504
   87MOL0     C11880   1.039   9.125   7.918 -0.5992 -0.2642 -0.2252
   87MOL0     C11881   1.077   9.094   7.773 -0.4161  0.1387 -0.8291
   87MOL0     C11882   1.102   8.945   7.753  0.1589 -0.0583 -0.2592
   87MOL0     C11883   1.148   8.908   7.618  0.7183 -0.0228 -0.0923
   87MOL0     C11884   1.037   8.914   7.505  0.0460  0.3464 -0.2378
   87MOL0     N11885   1.098   8.885   7.373  0.3213  0.7461 -0.6381
   87MOL0     C11886   1.213   8.946   7.323 -0.0570  0.1675 -0.0544
   87MOL0     C11887   1.240   8.884   7.202 -0.8171 -0.8674 -0.0640
   87MOL0     C11888   1.372   8.893   7.128 -0.6191  1.1058  0.6551
   87MOL0     C11889   1.351   8.850   6.982  0.0907 -0.3767 -0.0217
   87MOL0     C11890   1.491   8.835   6.916  0.3033 -0.1126  0.2753
   87MOL0     C11891   1.480   8.834   6.762  0.0195 -0.0787  0.7753
   87MOL0     O11892   1.595   8.786   6.686 -0.0266  0.2453 -0.0486
   87MOL0     C11893   1.651   8.668   6.733 -0.7271  0.5970  0.1019
   87MOL0     C11894   1.783   8.670   6.793 -0.0981 -0.2361  0.3477
   87MOL0     C11895   1.858   8.547   6.810  0.6267  0.0433 -0.1319
   87MOL0     C11896   2.003   8.564   6.858 -0.1437 -0.0474 -0.5495
   87MOL0     C11897   1.795   8.424   6.800 -1.0241  1.1330  1.3251
   87MOL0     C11898   1.861   8.296   6.834  0.6444 -0.0208  0.3276
   87MOL0     O11899   1.982   8.292   6.887 -0.2477 -0.1797 -0.7516
   87MOL0     C11900   2.069   8.191   6.860  0.4886 -0.0368  0.4894
   87MOL0     C11901   2.204   8.216   6.879  0.3437 -0.3441  1.1499
   87MOL0     C11902   2.307   8.117   6.844  0.0737 -1.6724 -0.9278
   87MOL0     C11903   2.273   7.994   6.797 -0.2470 -0.2276 -1.0635
   87MOL0     O11904   2.373   7.908   6.766  0.6834 -0.4239 -0.0615
   87MOL0     C11905   2.366   7.776   6.830  0.3960 -0.2138 -0.2514
   87MOL0     C11906   2.513   7.742   6.850  0.0388  0.0355 -0.1001
   87MOL0     C11907   2.606   7.777   6.735  0.4420 -0.0295 -0.2595
   87MOL0     C11908   2.725   7.676   6.721  0.1748  0.2886  0.4185
   87MOL0     C11909   2.680   7.542   6.660 -0.8474 -1.0107  0.2436
   87MOL0     C11910   2.790   7.451   6.612 -0.4223  0.2723  0.0179
   87MOL0     C11911   2.846   7.478   6.477  0.3115  0.1586  0.5515
   87MOL0     C11912   2.929   7.352   6.427 -0.1855  0.2958 -0.5583
   87MOL0    Cl11913   2.967   7.365   6.256  0.2322 -0.1545 -0.2630
   87MOL0     C11914   2.135   7.966   6.784  0.5378 -0.2901  0.0886
   87MOL0     C11915   2.038   8.066   6.809 -0.6422  0.3828 -0.6621
   87MOL0     O11916   1.793   8.200   6.817 -0.5026 -0.0829  0.1708
   87MOL0     C11917   1.661   8.423   6.754  0.1397  0.6572  1.2889
   87MOL0     C11918   1.593   8.540   6.723  0.1699 -0.3605  0.3458
   87MOL0     N11919   1.137   8.793   7.175 -0.3923  0.3301 -0.5357
   87MOL0     N11920   1.057   8.792   7.279 -0.2306 -0.8572 -0.3737
   87MOL0     C11921   0.452   9.194   8.211  0.0278  0.2189  0.7518
   87MOL0     C11922   0.376   9.147   8.317  1.1484 -0.5820  0.0196
   87MOL0     C11923   0.189   8.973   8.684 -0.2624 -0.2224  0.7791
   87MOL0     C11924   0.176   9.073   8.779 -0.2361 -0.8670 -0.5598
   87MOL0     C11925   0.113   9.050   8.900  0.3102  0.5967 -0.5632
   87MOL0     C11926   0.063   8.929   8.935 -0.1038  0.0167 -0.3112
   87MOL0     O11927   0.026   8.902   9.059  0.3021 -0.2961 -0.4751
   87MOL0     C11928  -0.082   8.811   9.076  0.2168 -0.1061 -0.2319
   87MOL0     C11929  -0.119   8.799   9.223 -0.2071 -0.1419 -0.1128
   87MOL0     C11930  -0.171   8.930   9.288  0.0369 -0.4925  1.2344
   87MOL0     C11931  -0.221   8.915   9.426 -0.0739 -1.0264 -1.5253
   87MOL0     C11932  -0.315   9.029   9.464  0.2652  0.0053 -0.4181
   87MOL0     C11933  -0.385   9.126   9.500 -0.3159  0.4485  0.0581
   87MOL0     C11934   0.077   8.830   8.840 -0.6320 -0.4080 -1.1637
   87MOL0     C11935   0.145   8.838   8.718 -0.2875 -0.5906 -0.1977
   87MOL0     C11936   0.168   8.715   8.638 -1.1304 -0.7264 -0.2500
   87MOL0     H11937   0.582   9.164   8.571  0.8553  0.8285  0.4074
   87MOL0     H11938   0.740   9.242   8.385 -1.3485  2.1210  3.1229
   87MOL0     H11939   0.817   9.133   8.128  1.2007 -0.0891 -0.5118
   87MOL0     H11940   0.840   9.302   8.182  0.6875 -0.2897 -0.1104
   87MOL0     H11941   0.806   9.238   7.874  2.2398  1.5720 -2.8673
   87MOL0     H11942   0.847   9.390   7.960 -0.3540  0.2840  1.6195
   87MOL0     H11943   1.036   9.330   7.868 -3.0730  2.0412  0.6818
   87MOL0     H11944   1.046   9.293   8.042  0.2528 -0.3725  0.7502
   87MOL0     H11945   1.130   9.114   7.979 -1.9182  2.8819  2.6324
   87MOL0     H11946   0.964   9.057   7.959 -1.0220  0.3622  0.0560
   87MOL0     H11947   1.164   9.149   7.738  0.7101 -1.8641 -1.3250
   87MOL0     H11948   0.995   9.122   7.705 -0.3273  1.1114 -0.5427
   87MOL0     H11949   1.182   8.907   7.818 -0.2654 -1.2649 -0.4211
   87MOL0     H11950   1.016   8.882   7.775  1.5114 -2.0060 -0.2848
   87MOL0     H11951   1.176   8.803   7.629  1.7125  0.4043  1.9454
   87MOL0     H11952   1.234   8.972   7.598  1.8036 -0.1021  3.6501
   87MOL0     H11953   0.963   8.839   7.531 -0.0140  0.3061 -0.5234
   87MOL0     H11954   0.985   9.010   7.498 -1.4506 -0.3320  1.1186
   87MOL0     H11955   1.272   9.023   7.370 -2.3150  0.5508  2.3971
   87MOL0     H11956   1.449   8.827   7.169 -1.8555 -2.1665 -1.7805
   87MOL0     H11957   1.389   9.000   7.113 -3.6236  2.0275  2.7777
   87MOL0     H11958   1.299   8.753   6.980 -1.8716  0.5954  0.8376
   87MOL0     H11959   1.293   8.929   6.933  0.5455 -2.0249 -3.6004
   87MOL0     H11960   1.545   8.927   6.940  1.8439 -0.5170 -1.4848
   87MOL0     H11961   1.541   8.745   6.952  0.6339 -0.1572 -0.2963
   87MOL0     H11962   1.392   8.779   6.727  1.3506 -0.4630 -2.2611
   87MOL0     H11963   1.456   8.938   6.735 -2.5480 -0.2411  2.1392
   87MOL0     H11964   1.822   8.769   6.813 -0.4068 -0.4190  2.0689
   87MOL0     H11965   2.044   8.663   6.835  1.5334 -0.7644 -0.7454
   87MOL0     H11966   2.072   8.505   6.797  2.0205 -0.7185  2.3375
   87MOL0     H11967   2.017   8.541   6.964  0.1848 -0.3869 -0.6633
   87MOL0     H11968   2.227   8.311   6.927 -3.3878  0.1242  2.3484
   87MOL0     H11969   2.410   8.137   6.872 -0.2392 -0.6686 -0.4324
   87MOL0     H11970   2.316   7.773   6.928  0.4629  0.5165 -0.1904
   87MOL0     H11971   2.312   7.708   6.764 -1.4384  0.0841  0.8840
   87MOL0     H11972   2.543   7.811   6.929  0.9013  0.1004 -0.4640
   87MOL0     H11973   2.524   7.640   6.888 -0.4943  0.1109  0.2637
   87MOL0     H11974   2.643   7.879   6.749  0.7633 -0.2381  0.4792
   87MOL0     H11975   2.541   7.764   6.648  1.5050 -0.2751 -1.0287
   87MOL0     H11976   2.777   7.652   6.815  0.5868 -1.7568 -0.2934
   87MOL0     H11977   2.798   7.718   6.652  0.3747  1.7638  1.4719
   87MOL0     H11978   2.630   7.501   6.748  1.2006 -0.3893  1.7834
   87MOL0     H11979   2.608   7.547   6.578 -1.6664 -2.2998  0.8524
   87MOL0     H11980   2.728   7.361   6.612 -1.0365  0.6680  1.1402
   87MOL0     H11981   2.874   7.440   6.682  0.0301  1.2655 -0.3523
   87MOL0     H11982   2.920   7.558   6.487  1.6708 -0.6893 -1.8332
   87MOL0     H11983   2.767   7.497   6.404  0.7013  2.2436  0.6182
   87MOL0     H11984   2.880   7.256   6.447  3.1479 -1.5499 -0.6319
   87MOL0     H11985   3.022   7.340   6.483 -2.0428  3.3529  3.7860
   87MOL0     H11986   2.109   7.866   6.751  0.8339 -1.0526  2.0291
   87MOL0     H11987   1.935   8.037   6.790 -1.0887  1.8809 -0.6348
   87MOL0     H11988   1.606   8.330   6.741  1.0897  0.1695  0.6692
   87MOL0     H11989   1.502   8.538   6.665 -0.1333  2.3604  0.5662
   87MOL0     H11990   0.410   9.198   8.111  1.9810 -2.7918 -0.3137
   87MOL0     H11991   0.270   9.134   8.299  0.7780  0.3698  1.4019
   87MOL0     H11992   0.208   9.176   8.769 -3.0393  0.1193 -0.4350
   87MOL0     H11993   0.107   9.130   8.972  0.8795 -1.2717  1.6740
   87MOL0     H11994  -0.165   8.857   9.022  0.3033  0.2730 -0.0453
   87MOL0     H11995  -0.061   8.709   9.042 -1.0030  0.5409 -3.2673
   87MOL0     H11996  -0.036   8.746   9.271  0.3251 -1.9696 -2.8871
   87MOL0     H11997  -0.206   8.733   9.231 -0.6624  0.4530 -0.0907
   87MOL0     H11998  -0.090   9.005   9.287 -0.8732  0.5884  3.1921
   87MOL0     H11999  -0.254   8.963   9.225  1.7968 -1.2325 -1.6499
   87MOL0     H12000  -0.141   8.890   9.496  0.5515  1.5930 -1.1948
   87MOL0     H12001  -0.294   8.836   9.443 -0.4821 -0.3344  0.0383
   87MOL0     H12002  -0.432   9.218   9.528 -0.5959  0.0261  1.0048
   87MOL0     H12003   0.052   8.728   8.866  1.2634 -0.7516 -0.5223
   87MOL0     H12004   0.087   8.709   8.565 -0.7829  3.5264 -1.2325
   87MOL0     H12005   0.265   8.737   8.595 -2.0924 -0.3569 -2.3326
   87MOL0     H12006   0.163   8.637   8.716 -2.8563 -0.0297  0.3847
   88MOL0     O12007   6.546   0.836   5.183 -0.3940  0.0525 -0.0329
   88MOL0     C12008   6.579   0.724   5.218 -0.5275 -0.6574 -0.1422
   88MOL0     O12009   6.708   0.678   5.225 -0.1782  1.1832 -0.4544
   88MOL0     C12010   6.800   0.761   5.171 -0.0556  0.6896 -0.9515
   88MOL0     C12011   6.840   0.874   5.241  1.1022  0.1333 -0.1415
   88MOL0     C12012   6.934   0.959   5.185 -0.2858  0.2554  0.5095
   88MOL0     C12013   6.997   0.933   5.065 -0.1834  0.0392 -0.3389
   88MOL0     O12014   7.099   1.010   5.012 -0.0597  0.2698 -0.1069
   88MOL0     C12015   7.123   1.148   5.052  0.7541  0.2098  0.8034
   88MOL0     C12016   7.242   1.161   5.131 -0.0456  0.1271 -0.7534
   88MOL0     C12017   7.272   1.309   5.169  0.3212  0.2568 -0.1263
   88MOL0     C12018   7.406   1.323   5.243 -0.3835 -0.0104 -0.6966
   88MOL0     C12019   7.443   1.466   5.307 -0.7326  0.2702 -0.2018
   88MOL0     C12020   7.425   1.473   5.457  0.3032  0.5566 -0.1792
   88MOL0     C12021   7.484   1.584   5.536  0.5094  0.5283 -0.4153
   88MOL0     C12022   7.434   1.575   5.681 -0.1217 -0.5366 -0.4034
   88MOL0     N12023   7.505   1.678   5.768  0.9174 -0.0404  0.5158
   88MOL0     C12024   7.523   1.812   5.731  0.4581  0.4580  0.7911
   88MOL0     C12025   7.628   1.856   5.812 -1.0535 -0.1535  0.2196
   88MOL0     C12026   7.696   1.986   5.809  0.5188  0.2604  0.1462
   88MOL0     C12027   7.767   2.003   5.670 -0.4598 -0.4053 -1.0887
   88MOL0     C12028   7.876   1.902   5.637 -0.0065  0.1378  1.3791
   88MOL0     C12029   8.003   1.973   5.588 -0.5207 -0.0165 -0.7819
   88MOL0     O12030   8.122   1.892   5.596  0.1137 -0.1436  0.1754
   88MOL0     C12031   8.190   1.881   5.710  0.0947  0.6222  0.3914
   88MOL0     C12032   8.208   1.988   5.806  0.5224  0.5749  1.7234
   88MOL0     C12033   8.265   1.961   5.932 -0.0854  1.3625  0.1824
   88MOL0     C12034   8.276   2.080   6.021 -0.1573 -0.1890 -0.6841
   88MOL0     C12035   8.308   1.828   5.960 -0.0169 -0.1008 -1.1751
   88MOL0     C12036   8.368   1.794   6.097 -0.8568  0.3949  0.1004
   88MOL0     O12037   8.344   1.670   6.137 -0.0401  0.5179 -0.3903
   88MOL0     C12038   8.399   1.634   6.250  0.9199  0.1946 -0.1124
   88MOL0     C12039   8.346   1.672   6.375  0.0326  0.0589 -0.0312
   88MOL0     C12040   8.403   1.624   6.487 -0.2542  0.0674 -0.3606
   88MOL0     C12041   8.503   1.526   6.479  0.9600  0.0510 -1.8598
   88MOL0     O12042   8.547   1.474   6.602  0.2025  0.0191  0.1443
   88MOL0     C12043   8.686   1.443   6.606 -0.4214  0.8149  0.3618
   88MOL0     C12044   8.742   1.453   6.751 -0.6255  0.3394 -0.2165
   88MOL0     C12045   8.779   1.602   6.779  0.5127 -0.0390 -0.8764
   88MOL0     C12046   8.934   1.634   6.771 -0.0381 -0.5604  0.5584
   88MOL0     C12047   8.971   1.770   6.802  0.2805  0.0336 -0.5237
   88MOL0     C12048   8.939   1.861   6.676 -0.1198 -0.3819  0.0841
   88MOL0     C12049   8.950   2.003   6.712 -0.5729  0.6734  0.3261
   88MOL0     C12050   8.891   2.100   6.609  1.2922  1.1235  0.0789
   88MOL0    Cl12051   8.831   2.245   6.703  0.0261  0.2265  0.1222
   88MOL0     C12052   8.559   1.485   6.359  0.2150 -0.2903  0.8283
   88MOL0     C12053   8.508   1.547   6.243  0.4399 -0.6692 -0.8701
   88MOL0     O12054   8.433   1.877   6.157  0.0728 -0.0107 -0.2012
   88MOL0     C12055   8.295   1.728   5.856  0.1726  0.2965 -1.2609
   88MOL0     C12056   8.228   1.748   5.737  0.3550  0.2303 -0.7149
   88MOL0     N12057   7.660   1.748   5.891 -0.4762 -0.1981 -0.4633
   88MOL0     N12058   7.584   1.646   5.872 -0.3857  0.0223 -0.1494
   88MOL0     C12059   6.971   0.813   5.007  0.1620  0.2741  0.2895
   88MOL0     C12060   6.872   0.729   5.063  1.1981  0.3007 -0.1824
   88MOL0     C12061   6.463   0.625   5.240  0.5368 -0.1200  0.0749
   88MOL0     C12062   6.335   0.673   5.201  0.2310  0.7438 -0.6725
   88MOL0     C12063   6.227   0.584   5.214  0.3139 -0.0003 -0.5953
   88MOL0     C12064   6.237   0.461   5.272  0.6518 -0.4318  0.5030
   88MOL0     O12065   6.120   0.397   5.299 -0.3215 -0.1201  0.1491
   88MOL0     C12066   6.128   0.256   5.316  0.6514  0.5768 -0.3338
   88MOL0     C12067   5.994   0.191   5.285  0.4944 -0.0129 -0.7820
   88MOL0     C12068   5.886   0.242   5.388 -0.7283  0.1959  0.2420
   88MOL0     C12069   5.755   0.296   5.331  0.0014 -0.1949  0.8174
   88MOL0     C12070   5.769   0.427   5.279  0.1189 -0.6907  0.7509
   88MOL0     C12071   5.798   0.531   5.220 -0.0491 -0.7617 -0.0085
   88MOL0     C12072   6.361   0.416   5.313  0.2761 -0.2194 -0.0146
   88MOL0     C12073   6.473   0.489   5.283 -0.8511 -0.7986 -0.0661
   88MOL0     C12074   6.606   0.447   5.355  0.2039  0.1492 -0.0077
   88MOL0     H12075   6.791   0.890   5.336  2.7056  2.2978  0.4107
   88MOL0     H12076   6.966   1.047   5.240 -0.8722  0.0532  1.1792
   88MOL0     H12077   7.037   1.190   5.106 -1.2161 -2.0510 -0.3826
   88MOL0     H12078   7.132   1.203   4.958 -1.6524 -1.6551 -0.6386
   88MOL0     H12079   7.226   1.108   5.225 -2.6796 -1.9221 -2.2335
   88MOL0     H12080   7.333   1.125   5.082  0.5477  0.0383  0.3951
   88MOL0     H12081   7.281   1.382   5.088 -1.8588 -0.7638 -1.4050
   88MOL0     H12082   7.190   1.353   5.227  0.1326 -1.5948  1.0863
   88MOL0     H12083   7.397   1.251   5.324 -0.8250  0.5939 -0.2002
   88MOL0     H12084   7.488   1.290   5.178  2.4862  1.8407  1.7189
   88MOL0     H12085   7.398   1.557   5.265  3.6266  2.2680 -1.0818
   88MOL0     H12086   7.549   1.486   5.293 -0.0911 -1.5274  1.6227
   88MOL0     H12087   7.316   1.470   5.454  0.2959 -1.7532  0.1058
   88MOL0     H12088   7.453   1.383   5.513 -2.5052 -0.2160  0.1539
   88MOL0     H12089   7.450   1.679   5.494 -1.2336  0.2127  0.2039
   88MOL0     H12090   7.594   1.581   5.535  0.4953 -0.8975 -0.6830
   88MOL0     H12091   7.326   1.589   5.678 -0.0018  0.2344 -2.2304
   88MOL0     H12092   7.453   1.477   5.725  3.0832  0.2758  0.2594
   88MOL0     H12093   7.464   1.859   5.653  2.0833 -1.4422 -1.7402
   88MOL0     H12094   7.762   2.005   5.894 -0.7638  0.2290  1.1902
   88MOL0     H12095   7.615   2.059   5.813 -0.2606 -0.5288 -0.6953
   88MOL0     H12096   7.695   2.024   5.590 -1.1173  1.5377 -0.0673
   88MOL0     H12097   7.817   2.100   5.677  1.5031 -1.4477  0.3512
   88MOL0     H12098   7.900   1.837   5.721 -1.0796 -4.2096 -1.3071
   88MOL0     H12099   7.840   1.845   5.550  0.0299  0.2484  1.2922
   88MOL0     H12100   7.995   2.001   5.483  1.5311  0.2976 -0.9093
   88MOL0     H12101   8.020   2.063   5.648  1.8725 -0.0295 -1.3267
   88MOL0     H12102   8.171   2.083   5.768 -0.1951 -0.9947 -1.9231
   88MOL0     H12103   8.379   2.117   6.014  0.0155 -0.2251  1.2075
   88MOL0     H12104   8.239   2.062   6.122 -2.1915  3.3185 -0.6358
   88MOL0     H12105   8.208   2.159   5.987  0.8815  1.7071  1.3961
   88MOL0     H12106   8.269   1.749   6.378 -1.8788 -1.7547 -0.0890
   88MOL0     H12107   8.370   1.662   6.583 -1.0849 -0.0892 -0.5771
   88MOL0     H12108   8.702   1.345   6.560  3.5883  1.2996  0.3705
   88MOL0     H12109   8.740   1.511   6.539  1.2354 -1.0845 -0.3327
   88MOL0     H12110   8.682   1.403   6.827 -0.1044 -0.2200 -0.1613
   88MOL0     H12111   8.844   1.413   6.755 -0.9502 -0.4987 -0.3003
   88MOL0     H12112   8.740   1.632   6.877 -0.0506 -0.4270 -0.9779
   88MOL0     H12113   8.727   1.664   6.705 -0.9800  1.0775  1.0194
   88MOL0     H12114   8.983   1.594   6.682  1.0990  0.5376  0.6611
   88MOL0     H12115   8.980   1.571   6.848  2.3242  2.9341  2.2732
   88MOL0     H12116   8.924   1.802   6.896 -0.7994 -3.1015  0.1113
   88MOL0     H12117   9.080   1.774   6.804  0.4072  3.7252 -3.9271
   88MOL0     H12118   8.831   1.855   6.662 -0.1019 -2.1772  0.4645
   88MOL0     H12119   8.994   1.844   6.583  1.5442  2.2618  0.4959
   88MOL0     H12120   9.057   2.022   6.725 -0.4074 -0.1685  0.2808
   88MOL0     H12121   8.910   2.023   6.812  1.2582  2.7662  0.7039
   88MOL0     H12122   8.804   2.054   6.562  0.7376  1.6937  0.5288
   88MOL0     H12123   8.971   2.124   6.539  0.8731  3.7689  0.3873
   88MOL0     H12124   8.630   1.406   6.337  2.3597  1.6045  0.4127
   88MOL0     H12125   8.534   1.521   6.141 -1.1217 -0.8584 -1.2335
   88MOL0     H12126   8.325   1.624   5.871 -0.6741  0.1527 -0.5286
   88MOL0     H12127   8.208   1.667   5.669  0.8608 -0.0000 -0.5992
   88MOL0     H12128   7.027   0.793   4.916 -0.4914  1.0373 -0.2936
   88MOL0     H12129   6.830   0.642   5.015  0.3363 -1.0833  2.8081
   88MOL0     H12130   6.309   0.773   5.167 -0.7760  0.6897 -0.0998
   88MOL0     H12131   6.133   0.620   5.171 -2.6886 -4.8673  1.0412
   88MOL0     H12132   6.206   0.214   5.253  1.2502  0.2006  0.6389
   88MOL0     H12133   6.161   0.236   5.418  3.6450 -1.8733 -1.6079
   88MOL0     H12134   6.003   0.082   5.281  0.7519 -0.0216 -0.0524
   88MOL0     H12135   5.955   0.224   5.187  0.4042  0.5279 -0.5712
   88MOL0     H12136   5.863   0.146   5.437 -1.5076  0.1004 -0.2884
   88MOL0     H12137   5.929   0.309   5.462  1.4982 -3.0147  2.1134
   88MOL0     H12138   5.671   0.298   5.401  0.0941  1.9762  0.9254
   88MOL0     H12139   5.728   0.227   5.251  1.7073 -0.1044  0.1094
   88MOL0     H12140   5.814   0.631   5.184 -2.1447 -0.8748 -1.5072
   88MOL0     H12141   6.356   0.321   5.365 -3.1471 -0.4813 -0.5762
   88MOL0     H12142   6.582   0.365   5.423  1.1573  1.8102  2.5173
   88MOL0     H12143   6.685   0.406   5.291 -0.3949 -1.7202  0.3885
   88MOL0     H12144   6.641   0.515   5.434  5.2461  0.5786 -2.1774
   89MOL0     O12145  11.151  10.080  10.432  0.2520  0.7592  0.5937
   89MOL0     C12146  11.207  10.012  10.343 -0.1936  0.6877 -0.9663
   89MOL0     O12147  11.342   9.972  10.354 -0.2126  1.1443 -0.3992
   89MOL0     C12148  11.397   9.982  10.478  0.5443 -0.1579 -0.7217
   89MOL0     C12149  11.439   9.870  10.555 -0.4736 -0.5867  0.9516
   89MOL0     C12150  11.497   9.887  10.676 -0.0229  0.1653  0.8546
   89MOL0     C12151  11.516  10.008  10.727 -0.0261 -0.1217  0.0534
   89MOL0     O12152  11.581  10.008  10.845  0.1376 -0.5593 -0.3910
   89MOL0     C12153  11.605  10.128  10.918 -0.3117  0.2339  0.0198
   89MOL0     C12154  11.656  10.084  11.056  0.5223  0.8133  0.0100
   89MOL0     C12155  11.807  10.076  11.049 -0.1382 -0.1709 -0.0390
   89MOL0     C12156  11.879  10.021  11.176 -0.1284  0.1639  0.4174
   89MOL0     C12157  12.030  10.004  11.161  0.4630  0.5565 -1.0209
   89MOL0     C12158  12.105   9.962  11.285 -0.0896  0.8971 -0.6443
   89MOL0     C12159  12.256   9.935  11.261  0.5079 -0.3606  0.4307
   89MOL0     C12160  12.333  10.065  11.236  0.3013 -0.0733 -0.0231
   89MOL0     N12161  12.472  10.037  11.245 -0.1544  0.5025 -0.4068
   89MOL0     C12162  12.556  10.003  11.142 -0.3911  0.2087 -0.7504
   89MOL0     C12163  12.679  10.014  11.200 -0.1007 -0.3086 -0.0479
   89MOL0     C12164  12.819   9.995  11.136 -0.2421 -0.8944 -0.6055
   89MOL0     C12165  12.934  10.078  11.203 -0.0406  0.0138  0.4072
   89MOL0     C12166  12.926  10.230  11.193 -0.2213 -0.3039 -0.1642
   89MOL0     C12167  13.072  10.269  11.223  0.2630  0.6334  0.1195
   89MOL0     O12168  13.158  10.235  11.113 -1.1282 -0.3836 -0.0702
   89MOL0     C12169  13.291  10.258  11.119  0.4839  0.0204 -0.9227
   89MOL0     C12170  13.369  10.214  11.017 -0.2792 -0.8671  0.0119
   89MOL0     C12171  13.503  10.264  11.009  0.5939 -0.1174 -0.6724
   89MOL0     C12172  13.574  10.244  10.881 -0.3731  0.6113  0.5408
   89MOL0     C12173  13.566  10.328  11.118  0.5914  0.5187 -0.1672
   89MOL0     C12174  13.704  10.373  11.105 -0.0392  0.4866 -0.0688
   89MOL0     O12175  13.793  10.272  11.076 -0.3954 -0.0339  0.2958
   89MOL0     C12176  13.930  10.272  11.063  0.5329  0.3099  0.0330
   89MOL0     C12177  13.989  10.152  11.099  0.6443 -0.4120 -0.2492
   89MOL0     C12178  14.125  10.139  11.105 -1.0200  0.2847 -0.2744
   89MOL0     C12179  14.207  10.249  11.074 -0.2550 -0.7570 -0.6259
   89MOL0     O12180  14.344  10.233  11.099 -0.4363  0.4697  0.1662
   89MOL0     C12181  14.423  10.272  10.992  0.4392  0.1941 -0.3937
   89MOL0     C12182  14.533  10.166  10.975  0.9481  0.3508 -0.4996
   89MOL0     C12183  14.478  10.030  10.940  0.0199 -0.3000 -0.0214
   89MOL0     C12184  14.585   9.945  10.884 -0.5542 -0.5727 -1.3647
   89MOL0     C12185  14.539   9.810  10.838 -1.0884 -0.4880 -0.5705
   89MOL0     C12186  14.481   9.826  10.701  0.3975  0.5543 -0.4388
   89MOL0     C12187  14.486   9.699  10.623  0.9979 -0.1673  0.8552
   89MOL0     C12188  14.622   9.617  10.630 -0.3139  0.4242 -0.7450
   89MOL0    Cl12189  14.620   9.500  10.494  0.6101 -0.1340 -0.5158
   89MOL0     C12190  14.145  10.366  11.035 -1.2126 -0.3576 -0.4448
   89MOL0     C12191  14.010  10.383  11.035  1.0612 -0.6284 -0.3455
   89MOL0     O12192  13.734  10.496  11.113 -0.2106  0.6916  0.1618
   89MOL0     C12193  13.485  10.360  11.231 -0.7126  0.0316 -0.8971
   89MOL0     C12194  13.351  10.328  11.234 -0.0117  0.6842  0.5566
   89MOL0     N12195  12.668  10.056  11.327  0.3196  0.6962 -0.6386
   89MOL0     N12196  12.542  10.076  11.349 -0.0302  0.1724 -0.4686
   89MOL0     C12197  11.473  10.124  10.658 -0.0703  0.3006  0.1033
   89MOL0     C12198  11.407  10.108  10.532  0.0013 -0.0425 -0.1296
   89MOL0     C12199  11.134   9.974  10.224  0.0076  0.2937 -0.1994
   89MOL0     C12200  11.012   9.914  10.236 -0.5070 -0.3423 -0.0086
   89MOL0     C12201  10.941   9.878  10.121 -0.2749 -0.0825 -0.0982
   89MOL0     C12202  11.001   9.895   9.992 -0.5016 -0.6783 -0.7795
   89MOL0     O12203  10.926   9.840   9.894  0.1289  0.6186  0.1340
   89MOL0     C12204  10.961   9.862   9.751 -0.7892  0.1663  0.0997
   89MOL0     C12205  10.893   9.770   9.653  1.3561 -0.2673  0.4946
   89MOL0     C12206  10.941   9.624   9.673 -0.3678 -0.0674  0.1988
   89MOL0     C12207  10.892   9.542   9.546 -0.6563  0.4566 -0.2058
   89MOL0     C12208  10.748   9.532   9.554  0.8059  0.5502 -0.1938
   89MOL0     C12209  10.623   9.517   9.581 -0.0754 -0.4967 -0.1972
   89MOL0     C12210  11.121   9.963   9.982  1.3909 -0.0975  0.0430
   89MOL0     C12211  11.188  10.000  10.097 -0.0081 -0.4477 -0.5145
   89MOL0     C12212  11.326  10.065  10.073 -1.2656 -0.2151  0.1381
   89MOL0     H12213  11.433   9.771  10.511  1.6144  0.0284 -0.9028
   89MOL0     H12214  11.522   9.805  10.743 -2.2288 -0.2510  1.2620
   89MOL0     H12215  11.509  10.178  10.933 -0.9093 -0.0615 -2.4848
   89MOL0     H12216  11.677  10.192  10.866 -1.7025  0.2459 -2.0083
   89MOL0     H12217  11.629  10.165  11.124  3.0928  0.6530  1.3481
   89MOL0     H12218  11.611   9.986  11.075  2.0552  0.1349  0.2501
   89MOL0     H12219  11.846  10.022  10.962  1.8555 -1.2041  1.4117
   89MOL0     H12220  11.844  10.178  11.032  2.0476 -1.0386 -0.8958
   89MOL0     H12221  11.867  10.078  11.269  3.0590 -2.2241  2.4944
   89MOL0     H12222  11.836   9.922  11.191 -1.8740  0.8229  0.0547
   89MOL0     H12223  12.057  10.106  11.132 -0.8891  2.0533  2.3430
   89MOL0     H12224  12.062   9.936  11.081  0.6349 -0.5297 -0.0549
   89MOL0     H12225  12.098  10.035  11.366 -0.9484 -1.8990  2.0380
   89MOL0     H12226  12.056   9.874  11.329 -1.2454  2.9248  2.4585
   89MOL0     H12227  12.286   9.875  11.174  1.3190 -0.9980  1.1253
   89MOL0     H12228  12.286   9.870  11.344  1.9532  0.8787  0.9435
   89MOL0     H12229  12.317  10.116  11.141  1.0752  1.7934  0.7983
   89MOL0     H12230  12.305  10.144  11.307 -1.6127 -0.2034 -0.5955
   89MOL0     H12231  12.545   9.981  11.036 -0.6977  1.4585 -0.9990
   89MOL0     H12232  12.812  10.031  11.033  3.4035 -0.4760 -0.8491
   89MOL0     H12233  12.856   9.892  11.132  0.4490 -0.6257 -1.3098
   89MOL0     H12234  12.937  10.059  11.311 -0.7056 -1.4268  0.1872
   89MOL0     H12235  13.023  10.039  11.153  0.9560  4.3950 -1.7104
   89MOL0     H12236  12.899  10.258  11.091  0.5923  0.0357 -0.2902
   89MOL0     H12237  12.858  10.268  11.270 -0.0525 -2.8742  1.3611
   89MOL0     H12238  13.081  10.376  11.243  1.9085  0.6625 -0.6249
   89MOL0     H12239  13.112  10.222  11.313  1.6772 -0.2620 -0.9275
   89MOL0     H12240  13.331  10.161  10.930 -0.5628 -2.8048  1.2300
   89MOL0     H12241  13.518  10.185  10.808  0.8631  1.6477 -1.3073
   89MOL0     H12242  13.659  10.181  10.908 -1.4735 -0.9819  0.4338
   89MOL0     H12243  13.590  10.334  10.820 -1.7719 -1.3994 -3.0610
   89MOL0     H12244  13.928  10.069  11.133  1.1363 -0.2103  1.1591
   89MOL0     H12245  14.179  10.051  11.139 -2.7267 -0.2305  1.2215
   89MOL0     H12246  14.361  10.283  10.902 -2.5504  0.2808  1.5705
   89MOL0     H12247  14.479  10.363  11.014  0.1911 -0.1573  1.8713
   89MOL0     H12248  14.600  10.213  10.903  2.5086  2.9444  2.3749
   89MOL0     H12249  14.585  10.151  11.070  0.5125  1.0825 -0.1327
   89MOL0     H12250  14.396  10.044  10.868  2.0186  1.7241 -2.0756
   89MOL0     H12251  14.440   9.995  11.036 -0.6933  1.4766  0.3852
   89MOL0     H12252  14.661   9.933  10.962 -1.8592  1.0039  0.2435
   89MOL0     H12253  14.637  10.000  10.805  0.2655  0.0517 -0.4276
   89MOL0     H12254  14.628   9.748  10.851 -2.2490 -2.7160 -2.3972
   89MOL0     H12255  14.472   9.774  10.917  1.6924 -1.1972  1.6034
   89MOL0     H12256  14.543   9.894  10.642  3.1668 -2.7861 -1.7601
   89MOL0     H12257  14.379   9.865  10.699 -1.4523 -3.6829 -2.7870
   89MOL0     H12258  14.448   9.730  10.525  0.7339 -2.7796  0.0527
   89MOL0     H12259  14.409   9.630  10.657  1.0207 -1.7895 -2.0753
   89MOL0     H12260  14.612   9.564  10.725  0.9108  2.1220  0.3894
   89MOL0     H12261  14.715   9.673  10.616  1.6164 -2.4536 -0.3923
   89MOL0     H12262  14.208  10.449  11.006 -1.4621  0.8678  2.2271
   89MOL0     H12263  13.952  10.471  11.010 -0.0062 -1.4841 -0.9550
   89MOL0     H12264  13.527  10.417  11.313  1.2998  2.1193 -3.2170
   89MOL0     H12265  13.298  10.366  11.321  0.6493 -0.8726  1.6921
   89MOL0     H12266  11.504  10.221  10.694  3.0267  0.6976 -3.0933
   89MOL0     H12267  11.374  10.197  10.478 -3.1925 -0.4331  0.9833
   89MOL0     H12268  10.970   9.895  10.334 -1.2977 -3.4608 -0.8341
   89MOL0     H12269  10.857   9.810  10.126  1.4072 -2.4508 -1.3912
   89MOL0     H12270  10.942   9.965   9.720  0.3588  1.0665  2.1950
   89MOL0     H12271  11.068   9.839   9.741 -1.2999 -2.3765 -0.3236
   89MOL0     H12272  10.916   9.813   9.555  1.9560  0.4261  0.9319
   89MOL0     H12273  10.784   9.783   9.661  1.1587 -0.3425 -1.5632
   89MOL0     H12274  11.050   9.617   9.680 -0.3211  1.4475  1.2806
   89MOL0     H12275  10.894   9.577   9.760 -2.0037  1.3570  0.1469
   89MOL0     H12276  10.927   9.439   9.543 -1.8370  0.0589 -0.7872
   89MOL0     H12277  10.925   9.588   9.453  2.3877 -0.4945  0.2960
   89MOL0     H12278  10.526   9.499   9.623  0.8596 -1.0238  1.8868
   89MOL0     H12279  11.170   9.987   9.888  0.3525  3.8070  0.3203
   89MOL0     H12280  11.404   9.990  10.087 -0.0864  1.0176  0.3145
   89MOL0     H12281  11.342  10.103   9.972  1.1066 -0.1516  0.4797
   89MOL0     H12282  11.343  10.144  10.147 -0.0035  1.9801 -2.3313
   90MOL0     O12283   0.561   0.616   2.245 -0.1474 -0.4635 -0.1303
   90MOL0     C12284   0.539   0.722   2.300  0.0041  0.1781  0.4641
   90MOL0     O12285   0.570   0.747   2.432 -0.7807  0.3181 -0.2315
   90MOL0     C12286   0.610   0.649   2.516 -0.1493 -0.7230  0.0883
   90MOL0     C12287   0.571   0.510   2.522  0.2805 -0.5792 -0.3059
   90MOL0     C12288   0.607   0.437   2.637 -0.0321 -0.1398 -0.0775
   90MOL0     C12289   0.677   0.489   2.749  0.6360 -0.0093 -0.3823
   90MOL0     O12290   0.694   0.415   2.862 -0.5064  0.1787 -0.5263
   90MOL0     C12291   0.711   0.484   2.990  0.1825 -0.8041 -0.2490
   90MOL0     C12292   0.662   0.406   3.109  0.6382 -0.3116  0.3788
   90MOL0     C12293   0.773   0.306   3.163  0.2769  0.6895  0.2444
   90MOL0     C12294   0.880   0.385   3.238  0.0723  0.2784  0.2849
   90MOL0     C12295   0.985   0.295   3.292 -0.1403 -0.3865  0.3727
   90MOL0     C12296   1.077   0.232   3.183 -0.1483 -0.0389 -0.3789
   90MOL0     C12297   1.188   0.135   3.242  0.0813  0.4385 -0.4347
   90MOL0     C12298   1.300   0.202   3.321  0.3153 -0.4360  0.5155
   90MOL0     N12299   1.425   0.114   3.302 -0.2307  0.0691 -0.6564
   90MOL0     C12300   1.541   0.160   3.273 -0.5352 -0.5073  0.2160
   90MOL0     C12301   1.639   0.070   3.306 -0.5364  0.2792 -0.4903
   90MOL0     C12302   1.789   0.079   3.301  0.6487 -0.4513  0.2609
   90MOL0     C12303   1.852   0.114   3.430  0.2175 -0.6283 -0.0513
   90MOL0     C12304   1.999   0.150   3.398 -0.0372 -0.0201 -0.4849
   90MOL0     C12305   2.092   0.150   3.523  0.0047 -0.0698  0.2828
   90MOL0     O12306   2.212   0.205   3.465 -0.1781 -0.2730 -0.1172
   90MOL0     C12307   2.313   0.257   3.550 -0.4237  0.0952  0.6356
   90MOL0     C12308   2.315   0.235   3.683 -0.1980 -0.8303 -0.0802
   90MOL0     C12309   2.415   0.300   3.763  0.1317 -0.1215 -0.0512
   90MOL0     C12310   2.417   0.251   3.914  0.6267  0.4486  0.6728
   90MOL0     C12311   2.495   0.396   3.713  0.7438 -0.2474  0.2312
   90MOL0     C12312   2.581   0.477   3.799 -0.8623 -0.1967  0.3063
   90MOL0     O12313   2.660   0.412   3.897  0.5636 -0.1370  0.3301
   90MOL0     C12314   2.737   0.492   3.973  0.4128  0.2322 -0.0129
   90MOL0     C12315   2.874   0.511   3.948  0.1956 -0.5069 -0.3563
   90MOL0     C12316   2.957   0.608   4.007  0.1660  0.9720  0.1846
   90MOL0     C12317   2.896   0.686   4.106 -0.3813  0.0075 -0.1403
   90MOL0     O12318   2.959   0.789   4.164  0.0374  0.2697 -0.2074
   90MOL0     C12319   2.993   0.903   4.077  0.3315  0.1661 -0.0082
   90MOL0     C12320   3.076   1.005   4.158  0.1701 -0.4410  0.6092
   90MOL0     C12321   3.209   0.951   4.202  0.2855 -0.3043 -0.9457
   90MOL0     C12322   3.286   0.842   4.109  0.5033 -0.2771 -0.2708
   90MOL0     C12323   3.401   0.770   4.193  0.2428 -0.6013  0.6540
   90MOL0     C12324   3.347   0.665   4.293 -0.4136  0.0551 -0.3434
   90MOL0     C12325   3.465   0.617   4.379 -0.1731  0.7271  1.0144
   90MOL0     C12326   3.418   0.551   4.508  0.2101  1.0158 -0.6923
   90MOL0    Cl12327   3.378   0.679   4.614  0.1774  0.0192 -0.4876
   90MOL0     C12328   2.770   0.664   4.142  0.7206  0.3977 -0.4005
   90MOL0     C12329   2.681   0.570   4.077 -0.4648  0.0021  0.2023
   90MOL0     O12330   2.599   0.594   3.759  0.6149 -0.1852  0.4826
   90MOL0     C12331   2.496   0.417   3.576  0.1412 -0.4814 -0.9331
   90MOL0     C12332   2.409   0.343   3.491  1.1253  0.7473  0.3867
   90MOL0     N12333   1.568  -0.042   3.352 -0.5596 -0.6724 -0.4616
   90MOL0     N12334   1.443  -0.013   3.361  0.5761 -0.9618 -0.4127
   90MOL0     C12335   0.712   0.626   2.739 -0.6642  0.7017 -0.1805
   90MOL0     C12336   0.669   0.700   2.631  0.3395 -0.1726 -0.6853
   90MOL0     C12337   0.476   0.835   2.218 -0.2750 -0.1386  1.0350
   90MOL0     C12338   0.444   0.956   2.286 -0.0393  0.1589  0.6401
   90MOL0     C12339   0.395   1.065   2.214 -0.1730  0.1583  0.4289
   90MOL0     C12340   0.358   1.056   2.082 -0.3672 -0.3789  0.6345
   90MOL0     O12341   0.294   1.165   2.029  0.1861  0.0435  0.4154
   90MOL0     C12342   0.306   1.176   1.886  0.6861  0.1365  0.0634
   90MOL0     C12343   0.236   1.294   1.835 -0.1472  0.1545  0.4643
   90MOL0     C12344   0.234   1.427   1.915  1.0122 -0.2828  0.1059
   90MOL0     C12345   0.373   1.492   1.948 -0.1862 -0.6864  1.0407
   90MOL0     C12346   0.459   1.528   1.830  0.4006 -0.4572 -0.2322
   90MOL0     C12347   0.539   1.558   1.736  0.7882 -0.2696  0.5802
   90MOL0     C12348   0.366   0.938   2.020 -0.2414  0.1978  0.3079
   90MOL0     C12349   0.426   0.828   2.087  0.1381  0.9136  0.0896
   90MOL0     C12350   0.432   0.701   2.009 -0.0532  0.0257 -0.4552
   90MOL0     H12351   0.514   0.473   2.438 -0.8521  0.4704 -0.0312
   90MOL0     H12352   0.574   0.334   2.645 -0.9286  0.1520  0.0761
   90MOL0     H12353   0.659   0.580   2.982 -1.6114 -1.6800  0.3334
   90MOL0     H12354   0.817   0.510   2.999  0.8775 -1.6763 -4.1655
   90MOL0     H12355   0.623   0.476   3.183 -0.3205 -0.3403 -0.0791
   90MOL0     H12356   0.573   0.350   3.082 -2.6520  3.6087  1.9774
   90MOL0     H12357   0.722   0.231   3.225  1.5521 -1.5380 -1.2346
   90MOL0     H12358   0.812   0.257   3.073  0.0028 -2.1709  1.5508
   90MOL0     H12359   0.920   0.469   3.180  1.9202 -1.9148 -1.8220
   90MOL0     H12360   0.834   0.433   3.325  1.4203  1.7040  0.2627
   90MOL0     H12361   0.938   0.215   3.350 -1.4028  0.2272  0.2398
   90MOL0     H12362   1.052   0.347   3.361 -1.7158 -0.8160  2.2984
   90MOL0     H12363   1.020   0.179   3.106  0.2933  1.4821 -1.8252
   90MOL0     H12364   1.126   0.323   3.147 -0.8558  1.4423  2.1449
   90MOL0     H12365   1.238   0.086   3.158 -0.7703 -1.2575 -0.0092
   90MOL0     H12366   1.144   0.053   3.301  1.2233  0.4251  0.4167
   90MOL0     H12367   1.322   0.302   3.281 -4.1662  0.5157 -0.1199
   90MOL0     H12368   1.271   0.207   3.426  1.1413 -0.1705  0.7388
   90MOL0     H12369   1.562   0.255   3.225 -0.5265 -1.8445 -2.6393
   90MOL0     H12370   1.798   0.162   3.229 -0.0202 -0.4880  0.1226
   90MOL0     H12371   1.832  -0.014   3.264 -0.9014 -1.4769  0.9597
   90MOL0     H12372   1.809   0.196   3.488  0.0663  1.0368 -2.3661
   90MOL0     H12373   1.852   0.024   3.492 -1.8460 -0.5785  0.0759
   90MOL0     H12374   2.049   0.081   3.329  1.3602 -2.2477  2.5439
   90MOL0     H12375   2.000   0.246   3.344  0.7799  3.1913  4.5590
   90MOL0     H12376   2.037   0.207   3.599  2.4243  1.5606  0.9483
   90MOL0     H12377   2.121   0.050   3.555  1.2305 -0.3271 -1.4498
   90MOL0     H12378   2.256   0.157   3.729  1.1889 -0.0818  3.1849
   90MOL0     H12379   2.490   0.169   3.924 -1.7593 -1.9225 -0.1588
   90MOL0     H12380   2.318   0.223   3.950 -0.4465 -0.7171 -2.8400
   90MOL0     H12381   2.440   0.336   3.979 -0.2141  3.1391 -2.3236
   90MOL0     H12382   2.920   0.447   3.873 -0.4027  1.1517 -2.2283
   90MOL0     H12383   3.065   0.619   4.000  0.4754 -2.1485 -1.6564
   90MOL0     H12384   3.039   0.873   3.982  2.2505 -0.5416  1.0943
   90MOL0     H12385   2.898   0.954   4.060  0.8992  1.4121  0.4526
   90MOL0     H12386   3.080   1.105   4.113 -0.9739  0.2524  1.9716
   90MOL0     H12387   3.013   1.025   4.245  0.4293  1.4049  0.4141
   90MOL0     H12388   3.204   0.913   4.305  2.8919  0.3598 -0.5244
   90MOL0     H12389   3.271   1.041   4.208  0.7622 -0.6748 -0.1511
   90MOL0     H12390   3.326   0.892   4.020  1.2150 -2.5399 -1.3291
   90MOL0     H12391   3.216   0.765   4.072  0.6249  0.6468 -2.6327
   90MOL0     H12392   3.473   0.727   4.122  0.0156  0.3675 -0.1955
   90MOL0     H12393   3.465   0.848   4.233 -3.7132  1.2142  4.2000
   90MOL0     H12394   3.294   0.586   4.239 -0.7688  0.8426 -1.1744
   90MOL0     H12395   3.270   0.716   4.352 -1.1763 -1.5570  0.1404
   90MOL0     H12396   3.532   0.702   4.396  0.2754  0.9139 -1.4374
   90MOL0     H12397   3.514   0.537   4.323 -1.0496 -0.1236  1.4279
   90MOL0     H12398   3.499   0.499   4.560 -1.0787 -1.5385 -1.0883
   90MOL0     H12399   3.337   0.479   4.499  1.7313 -1.1494  1.5405
   90MOL0     H12400   2.716   0.718   4.219  1.0607  1.0225 -0.5998
   90MOL0     H12401   2.575   0.576   4.102 -1.1763 -1.9575 -1.8958
   90MOL0     H12402   2.570   0.480   3.527  0.5075  0.6192  0.9210
   90MOL0     H12403   2.410   0.362   3.385 -0.5551  1.8842  0.5262
   90MOL0     H12404   0.770   0.673   2.818 -2.3937 -2.4315  3.2520
   90MOL0     H12405   0.698   0.803   2.648  0.8438 -0.7646  2.7318
   90MOL0     H12406   0.479   0.961   2.388  2.9727 -1.8159 -0.1575
   90MOL0     H12407   0.386   1.161   2.264 -6.4758  1.8626 -2.9111
   90MOL0     H12408   0.407   1.191   1.847 -0.1665 -1.2427 -3.0450
   90MOL0     H12409   0.253   1.092   1.839 -1.8876  0.9430  1.3047
   90MOL0     H12410   0.130   1.272   1.822  0.0683 -0.1774 -1.0411
   90MOL0     H12411   0.271   1.329   1.737 -1.8420  1.0092  0.1235
   90MOL0     H12412   0.175   1.506   1.868  3.4842  1.7758  0.1934
   90MOL0     H12413   0.177   1.400   2.004 -0.1083 -1.9612 -1.0722
   90MOL0     H12414   0.441   1.423   2.000  0.4489 -0.7884  0.0978
   90MOL0     H12415   0.350   1.575   2.015  1.5040 -0.0310  0.8575
   90MOL0     H12416   0.597   1.591   1.652 -0.3560  0.2924 -0.0081
   90MOL0     H12417   0.334   0.921   1.918 -1.5558 -0.4289  0.7962
   90MOL0     H12418   0.368   0.623   2.052 -0.3724 -0.4062 -1.6558
   90MOL0     H12419   0.407   0.725   1.905  0.4517 -1.2058 -0.8851
   90MOL0     H12420   0.529   0.653   1.995 -1.7349 -3.4144 -1.5424
   91MOL0     O12421  10.762  10.976   2.092 -0.9314 -0.3850  0.2943
   91MOL0     C12422  10.769  11.080   2.028 -0.4167  0.1212 -0.1520
   91MOL0     O12423  10.671  11.166   1.984 -0.1526 -0.2943  0.1552
   91MOL0     C12424  10.541  11.139   2.009  0.1726  0.1829 -0.3425
   91MOL0     C12425  10.456  11.206   1.922  0.6692  0.1554 -0.0809
   91MOL0     C12426  10.312  11.206   1.941 -0.6784  0.3642  0.1175
   91MOL0     C12427  10.258  11.123   2.045 -0.5167  0.0847 -0.2372
   91MOL0     O12428  10.122  11.120   2.067  0.0130 -0.0732  0.2993
   91MOL0     C12429  10.062  11.102   2.196  0.2720  0.1465  0.2132
   91MOL0     C12430   9.919  11.159   2.186  0.1082  0.5689 -0.3091
   91MOL0     C12431   9.829  11.088   2.082 -0.2206  0.4080  0.1348
   91MOL0     C12432   9.685  11.123   2.101 -1.2765 -0.1934 -0.3379
   91MOL0     C12433   9.584  11.029   2.037 -0.0851  0.0658  0.2258
   91MOL0     C12434   9.563  10.901   2.108  0.2650  0.1668 -0.5384
   91MOL0     C12435   9.452  10.809   2.051  0.1757  0.6181  0.8980
   91MOL0     C12436   9.305  10.853   2.090 -0.2833 -0.9927  0.2263
   91MOL0     N12437   9.201  10.786   2.018 -0.0580 -0.3351  0.0792
   91MOL0     C12438   9.146  10.673   2.073  0.0052 -0.3474 -0.1054
   91MOL0     C12439   9.050  10.642   1.978  0.1639  0.9578 -0.1884
   91MOL0     C12440   8.959  10.529   2.008 -0.4525  0.6526  0.0126
   91MOL0     C12441   9.026  10.399   1.969  1.1021 -0.8696 -0.4620
   91MOL0     C12442   8.949  10.276   2.030 -0.6003  0.3301 -0.0310
   91MOL0     C12443   9.016  10.155   1.969  0.0290 -0.3703  0.4749
   91MOL0     O12444   8.955  10.039   2.029 -0.6650 -0.3237  1.2665
   91MOL0     C12445   9.011   9.915   1.996  0.5352  0.4697 -0.1749
   91MOL0     C12446   9.126   9.893   1.917 -0.8449 -0.8083  0.9162
   91MOL0     C12447   9.178   9.769   1.885 -1.1771 -0.1985  0.0228
   91MOL0     C12448   9.307   9.773   1.804  1.0309 -0.1055  0.3464
   91MOL0     C12449   9.108   9.651   1.933  0.7064 -0.6502 -0.0377
   91MOL0     C12450   9.148   9.514   1.896  0.1461 -0.3143 -0.4901
   91MOL0     O12451   9.137   9.484   1.765 -0.4951  0.1377  0.0730
   91MOL0     C12452   9.243   9.398   1.730  1.3454 -0.0884 -0.7512
   91MOL0     C12453   9.347   9.448   1.650  0.1453  1.2059  0.8092
   91MOL0     C12454   9.466   9.383   1.627  0.3939 -0.0591 -0.3985
   91MOL0     C12455   9.472   9.244   1.646  0.2995  0.3915  0.4101
   91MOL0     O12456   9.594   9.195   1.612 -0.3331  0.1973  0.9197
   91MOL0     C12457   9.627   9.071   1.676  0.5820 -0.6205  0.2571
   91MOL0     C12458   9.754   9.010   1.626 -0.3749 -0.1699  0.3328
   91MOL0     C12459   9.766   8.992   1.476  0.0244  0.3027 -0.5483
   91MOL0     C12460   9.867   8.872   1.441  0.0455  0.3603 -0.1674
   91MOL0     C12461   9.874   8.847   1.286 -1.8208  0.3433  0.5438
   91MOL0     C12462  10.015   8.811   1.251 -0.3221 -0.0079  0.9786
   91MOL0     C12463  10.064   8.675   1.313  0.2737 -0.4634  0.4750
   91MOL0     C12464  10.197   8.689   1.387 -0.2869  0.1593 -0.0159
   91MOL0    Cl12465  10.213   8.535   1.480  0.3124  0.1164  0.1048
   91MOL0     C12466   9.362   9.184   1.717  0.1672  0.5089  0.2647
   91MOL0     C12467   9.255   9.260   1.763 -0.5532  0.0988  0.0285
   91MOL0     O12468   9.154   9.432   1.989 -0.3636  0.1717  0.1721
   91MOL0     C12469   9.000   9.679   2.018 -0.4196 -0.1871  0.4203
   91MOL0     C12470   8.950   9.801   2.049 -0.3287 -0.5522  0.2858
   91MOL0     N12471   9.045  10.742   1.884 -0.0590 -0.4671 -0.2666
   91MOL0     N12472   9.146  10.823   1.902  0.8821  0.1902  0.0780
   91MOL0     C12473  10.354  11.060   2.128 -0.4209 -0.1534 -0.2494
   91MOL0     C12474  10.488  11.073   2.116 -0.4872 -0.5883 -0.1944
   91MOL0     C12475  10.913  11.095   1.981  0.2633 -0.2080 -0.0481
   91MOL0     C12476  10.967  10.997   1.899 -0.6747  0.3733  0.4596
   91MOL0     C12477  11.108  11.000   1.862 -0.3546 -0.6775  1.2129
   91MOL0     C12478  11.185  11.106   1.904  0.2786  0.1471  0.3995
   91MOL0     O12479  11.320  11.089   1.864  0.0064 -0.4332  0.0309
   91MOL0     C12480  11.423  11.181   1.898 -0.2380  0.5049  0.3583
   91MOL0     C12481  11.463  11.164   2.049 -0.1072  1.1102  0.9901
   91MOL0     C12482  11.590  11.241   2.083 -0.3683  0.4186 -0.0816
   91MOL0     C12483  11.639  11.194   2.218  0.4394 -0.0978  0.8892
   91MOL0     C12484  11.747  11.281   2.258 -0.0160  0.0353  0.2543
   91MOL0     C12485  11.830  11.360   2.293  0.3793 -0.9925 -0.5958
   91MOL0     C12486  11.126  11.207   1.966  0.2844 -0.6654 -1.0075
   91MOL0     C12487  10.993  11.202   2.020  0.1464 -0.1965  0.4456
   91MOL0     C12488  10.953  11.323   2.107 -0.0959 -0.6111  0.9311
   91MOL0     H12489  10.492  11.249   1.829  0.8331 -4.3834 -2.4011
   91MOL0     H12490  10.248  11.249   1.864 -2.7287  0.4959  1.8265
   91MOL0     H12491  10.113  11.145   2.283  2.6598 -3.2825  0.7059
   91MOL0     H12492  10.056  10.996   2.221 -1.8795  0.3939  0.8992
   91MOL0     H12493   9.868  11.140   2.281 -1.3030 -3.6560 -1.6745
   91MOL0     H12494   9.918  11.268   2.174  3.3279  0.8898  1.2473
   91MOL0     H12495   9.865  11.128   1.987  5.2897  0.2434  1.7801
   91MOL0     H12496   9.841  10.979   2.087 -0.0607  0.4354  0.3486
   91MOL0     H12497   9.660  11.114   2.207  2.0238 -1.1425  0.5011
   91MOL0     H12498   9.652  11.222   2.071 -0.6502  0.2366  0.3612
   91MOL0     H12499   9.604  11.013   1.931 -0.3646  2.7840 -0.3105
   91MOL0     H12500   9.486  11.077   2.039 -1.4637 -2.6143  1.8114
   91MOL0     H12501   9.659  10.848   2.103  2.3917  3.7753 -2.4674
   91MOL0     H12502   9.538  10.920   2.213  1.1798 -1.4999  0.0171
   91MOL0     H12503   9.471  10.707   2.082  2.4013  0.8500  0.4469
   91MOL0     H12504   9.453  10.830   1.943  1.1800 -1.1879  0.5324
   91MOL0     H12505   9.297  10.831   2.197  0.6469  2.2454  1.0720
   91MOL0     H12506   9.297  10.958   2.064  2.8718 -0.5268  0.7229
   91MOL0     H12507   9.173  10.625   2.166  1.8641  1.0443  0.1362
   91MOL0     H12508   8.866  10.530   1.951  0.6045 -1.1624 -1.8713
   91MOL0     H12509   8.934  10.517   2.114  0.5710  2.1283  0.4610
   91MOL0     H12510   9.029  10.388   1.860  0.3632 -0.7845 -0.4934
   91MOL0     H12511   9.127  10.390   2.009  1.0639  2.4712  0.6964
   91MOL0     H12512   8.961  10.277   2.139  3.0515  2.5341 -0.2746
   91MOL0     H12513   8.844  10.288   2.003 -0.3936  1.7748 -0.2699
   91MOL0     H12514   9.021  10.161   1.860 -0.8609 -2.6459  0.2612
   91MOL0     H12515   9.122  10.146   1.993  0.0367 -2.6711 -0.2069
   91MOL0     H12516   9.174   9.980   1.873 -3.7242 -0.5245 -2.0630
   91MOL0     H12517   9.375   9.850   1.840  0.9529 -0.2731  0.8617
   91MOL0     H12518   9.298   9.790   1.696 -1.2823 -0.7322  0.3816
   91MOL0     H12519   9.353   9.674   1.814 -3.7385 -2.4429  2.5285
   91MOL0     H12520   9.348   9.549   1.610  0.5118  1.6130  1.8170
   91MOL0     H12521   9.548   9.430   1.574 -0.2379  2.0360  0.3997
   91MOL0     H12522   9.634   9.077   1.785 -0.1411 -0.4132  0.3036
   91MOL0     H12523   9.543   9.003   1.662 -1.2348  1.6754 -0.7389
   91MOL0     H12524   9.837   9.075   1.654 -0.1521 -1.2978  2.5169
   91MOL0     H12525   9.766   8.913   1.675 -2.1640  0.2892  1.7889
   91MOL0     H12526   9.798   9.088   1.433 -0.5227  0.8270  0.1919
   91MOL0     H12527   9.665   8.968   1.441 -0.0428  0.9296 -0.8014
   91MOL0     H12528   9.833   8.777   1.484  2.4476 -1.5799 -2.2631
   91MOL0     H12529   9.954   8.911   1.494  0.4859 -0.4205 -0.3127
   91MOL0     H12530   9.810   8.765   1.255 -1.3848  0.7552 -1.5882
   91MOL0     H12531   9.846   8.930   1.221  0.8423 -0.9708 -2.5946
   91MOL0     H12532  10.083   8.894   1.270  1.4174 -0.2957 -2.9057
   91MOL0     H12533  10.015   8.810   1.141  1.1061  0.3729  0.9558
   91MOL0     H12534  10.084   8.599   1.238  0.0983  0.4892 -0.5532
   91MOL0     H12535   9.995   8.624   1.381  0.4149  0.0466  1.0118
   91MOL0     H12536  10.204   8.771   1.459  0.3183  0.1258 -0.0309
   91MOL0     H12537  10.275   8.711   1.314  0.5481  0.7250  1.0172
   91MOL0     H12538   9.371   9.081   1.750  2.2059 -0.7392 -3.6239
   91MOL0     H12539   9.180   9.217   1.829 -0.5085 -1.0193 -0.6256
   91MOL0     H12540   8.941   9.590   2.038 -0.2980 -0.4680 -0.4198
   91MOL0     H12541   8.861   9.805   2.112  1.3638  0.3179  2.7505
   91MOL0     H12542  10.304  11.008   2.209  0.6642  0.1493  0.6425
   91MOL0     H12543  10.539  11.009   2.187 -1.6662 -2.8110 -1.2737
   91MOL0     H12544  10.899  10.920   1.863 -0.5707 -0.8868  2.7583
   91MOL0     H12545  11.149  10.920   1.802  0.2638  0.7090 -0.2808
   91MOL0     H12546  11.504  11.163   1.827 -0.6703  1.3575 -0.3705
   91MOL0     H12547  11.392  11.285   1.882 -1.2562  0.1983  0.2417
   91MOL0     H12548  11.490  11.058   2.062  2.2013  0.5196 -5.3735
   91MOL0     H12549  11.387  11.186   2.125 -0.2876 -1.8908  1.7994
   91MOL0     H12550  11.665  11.219   2.007  2.1047  1.1873  1.9976
   91MOL0     H12551  11.574  11.348   2.067  3.7188  1.1128 -0.4991
   91MOL0     H12552  11.658  11.088   2.202 -0.5844  0.1502 -2.9754
   91MOL0     H12553  11.566  11.219   2.296  2.5870  0.0223  2.9973
   91MOL0     H12554  11.911  11.420   2.330  1.6692 -2.5964 -0.7126
   91MOL0     H12555  11.193  11.287   1.996 -1.4104 -0.1168  1.6557
   91MOL0     H12556  10.880  11.389   2.060  2.2618  1.5446  0.1095
   91MOL0     H12557  10.906  11.293   2.201 -1.5217  3.1963  1.5895
   91MOL0     H12558  11.035  11.390   2.132  1.1162 -1.7424  0.1194
   92MOL0     O12559   2.024   7.351   5.141 -0.7890 -0.5939 -0.1671
   92MOL0     C12560   1.953   7.390   5.051 -0.9096 -0.2295  0.1405
   92MOL0     O12561   1.818   7.417   5.065  0.0612  0.5341  0.4980
   92MOL0     C12562   1.750   7.349   5.160  0.2603  0.2683 -0.8078
   92MOL0     C12563   1.683   7.236   5.130  0.2586 -0.3221 -0.0693
   92MOL0     C12564   1.612   7.161   5.226  0.0729 -0.8841  0.0057
   92MOL0     C12565   1.610   7.202   5.356 -0.5961 -0.3701 -0.1934
   92MOL0     O12566   1.525   7.147   5.451 -0.0746 -0.1953 -0.2822
   92MOL0     C12567   1.419   7.056   5.414  0.1127  0.6639  1.1932
   92MOL0     C12568   1.318   7.012   5.527  0.4398 -0.5483 -0.7767
   92MOL0     C12569   1.249   7.125   5.611 -0.3914  0.0966  0.4881
   92MOL0     C12570   1.161   7.201   5.510 -0.3758 -0.4572  0.5097
   92MOL0     C12571   1.068   7.301   5.572  0.0499  0.3562  0.5058
   92MOL0     C12572   0.965   7.351   5.468 -0.0874  0.0428  1.7810
   92MOL0     C12573   0.883   7.465   5.527  1.0147  0.2467  0.1450
   92MOL0     C12574   0.914   7.600   5.454 -0.0281  0.9587 -0.1637
   92MOL0     N12575   0.849   7.720   5.507 -0.3935  0.5207 -0.1864
   92MOL0     C12576   0.905   7.814   5.587 -0.1391  0.0735  0.2230
   92MOL0     C12577   0.799   7.886   5.626 -0.1603 -0.1092  0.3082
   92MOL0     C12578   0.806   8.022   5.704  0.1351  0.1114  0.2475
   92MOL0     C12579   0.802   7.998   5.855  1.2648 -0.1214  0.1818
   92MOL0     C12580   0.835   8.131   5.927  0.2746 -0.0155  0.1572
   92MOL0     C12581   0.831   8.124   6.083 -0.7784  0.4180  0.1792
   92MOL0     O12582   0.855   8.257   6.137  0.3970  0.5557  0.6455
   92MOL0     C12583   0.830   8.288   6.262 -0.8957 -0.7611 -0.2446
   92MOL0     C12584   0.795   8.199   6.360 -0.7781  0.5491 -0.5193
   92MOL0     C12585   0.760   8.252   6.492 -0.1154 -0.0737  0.2353
   92MOL0     C12586   0.725   8.162   6.608  0.0236  1.0809 -0.6255
   92MOL0     C12587   0.764   8.391   6.520 -0.2001  0.0328 -0.1951
   92MOL0     C12588   0.744   8.463   6.642  1.4192  0.1727 -0.0222
   92MOL0     O12589   0.694   8.593   6.629 -0.6223  0.4319 -0.3620
   92MOL0     C12590   0.677   8.669   6.745 -0.3791  0.5262 -0.5018
   92MOL0     C12591   0.546   8.691   6.783 -0.1810 -0.6838 -0.4535
   92MOL0     C12592   0.517   8.778   6.886 -0.1891  0.5761 -0.0423
   92MOL0     C12593   0.614   8.840   6.964  0.6136 -0.1984 -0.2501
   92MOL0     O12594   0.597   8.927   7.070 -0.0223 -0.2477  0.3983
   92MOL0     C12595   0.463   8.969   7.112  0.2951 -0.0953  0.9232
   92MOL0     C12596   0.478   9.077   7.214  0.0484  0.6676  0.5486
   92MOL0     C12597   0.577   9.037   7.325  0.1953  0.3093 -0.5400
   92MOL0     C12598   0.533   8.912   7.399 -0.2446 -0.2036  0.0627
   92MOL0     C12599   0.628   8.881   7.516 -0.7119 -0.0886 -0.4069
   92MOL0     C12600   0.600   8.987   7.628  0.2679 -0.2887  0.1857
   92MOL0     C12601   0.649   8.935   7.766 -0.7292 -0.3550  0.0645
   92MOL0     C12602   0.539   8.895   7.868  0.5166 -0.2859 -0.2645
   92MOL0    Cl12603   0.416   9.021   7.908 -0.1518 -0.1716 -0.1331
   92MOL0     C12604   0.743   8.811   6.931 -0.1424 -0.3093  0.6435
   92MOL0     C12605   0.780   8.727   6.824  0.0743 -0.5078  0.4545
   92MOL0     O12606   0.755   8.400   6.749 -0.2507 -0.0603 -0.3164
   92MOL0     C12607   0.809   8.472   6.411 -0.6173 -0.0997  0.2973
   92MOL0     C12608   0.829   8.423   6.287  0.0030  0.0607 -1.0206
   92MOL0     N12609   0.687   7.833   5.574  0.3989  0.3002  0.4864
   92MOL0     N12610   0.714   7.733   5.501  0.6373 -0.6355 -0.2162
   92MOL0     C12611   1.686   7.311   5.398 -0.3665  0.3181  0.7248
   92MOL0     C12612   1.748   7.387   5.295 -0.8473  0.1281  1.3186
   92MOL0     C12613   2.017   7.390   4.913  0.1184 -0.1881  0.2898
   92MOL0     C12614   1.929   7.418   4.806  0.4506 -0.9514  0.4995
   92MOL0     C12615   1.973   7.442   4.675 -0.4784 -0.1527 -0.2936
   92MOL0     C12616   2.105   7.413   4.638 -0.0577  0.5617 -0.1282
   92MOL0     O12617   2.148   7.428   4.503 -0.8050  0.2177 -0.7605
   92MOL0     C12618   2.272   7.371   4.463 -0.6077 -0.6471 -0.0418
   92MOL0     C12619   2.236   7.251   4.375 -1.1048 -1.0440 -0.0049
   92MOL0     C12620   2.126   7.284   4.275 -0.8469 -0.0767 -0.3471
   92MOL0     C12621   2.044   7.152   4.244 -0.7146  0.7384  0.7755
   92MOL0     C12622   2.131   7.050   4.178 -0.4272  0.5159  0.8041
   92MOL0     C12623   2.219   6.979   4.138 -0.7372 -0.8854 -0.2369
   92MOL0     C12624   2.187   7.369   4.745 -0.1037  0.4402 -0.1134
   92MOL0     C12625   2.145   7.359   4.882  0.3262  0.2645 -0.5062
   92MOL0     C12626   2.234   7.299   4.989 -0.9206 -0.0631 -0.4486
   92MOL0     H12627   1.691   7.198   5.029  2.2793  1.0200 -0.4664
   92MOL0     H12628   1.545   7.080   5.198 -3.0374  1.4485  0.1741
   92MOL0     H12629   1.471   6.971   5.369  1.9698  0.0483  4.1893
   92MOL0     H12630   1.353   7.091   5.335 -1.7068  0.0736  2.3924
   92MOL0     H12631   1.236   6.953   5.485 -2.5868  2.3228  0.6609
   92MOL0     H12632   1.370   6.949   5.600 -0.1588  0.4093  0.5263
   92MOL0     H12633   1.180   7.074   5.679 -2.4000  2.5477  0.4192
   92MOL0     H12634   1.328   7.176   5.666  0.2872 -1.7099  1.2868
   92MOL0     H12635   1.224   7.255   5.439  0.2506 -1.2414  0.4601
   92MOL0     H12636   1.107   7.127   5.449  2.1217 -0.4550 -1.9407
   92MOL0     H12637   1.124   7.390   5.601  0.0496 -0.1944  2.2744
   92MOL0     H12638   1.021   7.255   5.659 -1.7189 -0.1378 -0.6561
   92MOL0     H12639   1.022   7.374   5.377 -1.1954  0.0826  1.0676
   92MOL0     H12640   0.890   7.276   5.441 -1.8174  2.2806 -0.1343
   92MOL0     H12641   0.893   7.470   5.636  2.5420  1.4079 -0.0168
   92MOL0     H12642   0.777   7.453   5.506  1.3976 -1.5679 -1.0210
   92MOL0     H12643   1.019   7.628   5.469  0.1365 -0.6104  2.1800
   92MOL0     H12644   0.879   7.586   5.351  1.7473  0.5947 -0.7405
   92MOL0     H12645   1.008   7.829   5.618 -0.6235  2.5747  0.8842
   92MOL0     H12646   0.726   8.088   5.668  0.4651  3.5540  4.8939
   92MOL0     H12647   0.901   8.071   5.682  0.3895  0.3664  1.7702
   92MOL0     H12648   0.697   7.975   5.877  1.6696 -1.6875  0.5591
   92MOL0     H12649   0.859   7.915   5.896 -0.6379 -2.1116 -0.9949
   92MOL0     H12650   0.938   8.159   5.900  0.8251 -0.2861  1.8031
   92MOL0     H12651   0.757   8.204   5.905 -0.8603 -0.9521  0.9503
   92MOL0     H12652   0.732   8.101   6.123 -0.2360 -1.8288  0.3601
   92MOL0     H12653   0.897   8.047   6.124 -1.1721  0.1607  0.3328
   92MOL0     H12654   0.794   8.092   6.347 -1.8391  0.5719 -0.7631
   92MOL0     H12655   0.745   8.060   6.572  1.6694  1.0772  0.2201
   92MOL0     H12656   0.618   8.176   6.620 -0.1657  2.4743 -3.1601
   92MOL0     H12657   0.782   8.172   6.700 -4.2539  2.7782  2.1301
   92MOL0     H12658   0.464   8.647   6.727 -0.4211  2.1474 -2.5835
   92MOL0     H12659   0.414   8.811   6.891 -0.2180  1.3433 -3.5015
   92MOL0     H12660   0.409   9.014   7.028 -2.1013 -0.5368  2.1171
   92MOL0     H12661   0.403   8.887   7.153 -2.7623  0.9384 -1.1073
   92MOL0     H12662   0.524   9.167   7.171 -2.9667  1.6475 -0.8717
   92MOL0     H12663   0.384   9.101   7.264  0.2575 -1.8448  2.3589
   92MOL0     H12664   0.570   9.113   7.404 -2.0528 -0.7800  0.3997
   92MOL0     H12665   0.678   9.024   7.286  0.6337  1.7789  0.0281
   92MOL0     H12666   0.529   8.822   7.336 -1.0509  0.8912 -1.5157
   92MOL0     H12667   0.432   8.932   7.436  1.0750  3.7829  2.0036
   92MOL0     H12668   0.593   8.787   7.561 -2.3547  1.0872  0.9325
   92MOL0     H12669   0.733   8.885   7.484 -0.6698  0.6158 -0.1917
   92MOL0     H12670   0.491   8.997   7.627  0.4486  2.3083 -1.5710
   92MOL0     H12671   0.643   9.086   7.609 -0.3187  0.1471  1.0388
   92MOL0     H12672   0.712   9.012   7.811  1.1227  0.3114 -3.3306
   92MOL0     H12673   0.723   8.855   7.752 -0.5519 -0.1077 -0.4558
   92MOL0     H12674   0.590   8.870   7.961  1.5629  2.2687 -0.0720
   92MOL0     H12675   0.500   8.804   7.822 -1.1842  0.0211  0.5020
   92MOL0     H12676   0.825   8.850   6.991 -1.1576  1.6516  0.8521
   92MOL0     H12677   0.885   8.705   6.810  0.2524  1.3363 -1.6825
   92MOL0     H12678   0.817   8.580   6.421  0.0975 -0.3743  3.6928
   92MOL0     H12679   0.862   8.484   6.203 -0.2185 -0.7638 -1.7231
   92MOL0     H12680   1.696   7.322   5.506  0.4099  1.2577  0.5649
   92MOL0     H12681   1.808   7.475   5.319  1.9631 -1.2960 -0.0840
   92MOL0     H12682   1.822   7.430   4.817  0.8601  1.8130  2.8387
   92MOL0     H12683   1.902   7.469   4.597 -2.3746 -1.5518  0.8648
   92MOL0     H12684   2.320   7.445   4.399 -1.6457 -0.1695 -0.2782
   92MOL0     H12685   2.347   7.344   4.538  0.6322  0.5370 -0.8068
   92MOL0     H12686   2.206   7.178   4.450 -1.2391  0.1371  1.1259
   92MOL0     H12687   2.320   7.208   4.320  0.5993 -1.0670  2.4497
   92MOL0     H12688   2.056   7.363   4.306  1.3232  1.8721 -0.0797
   92MOL0     H12689   2.162   7.338   4.187  0.4492 -1.1122 -0.4794
   92MOL0     H12690   1.960   7.173   4.178 -1.3534 -0.8906  1.0167
   92MOL0     H12691   2.000   7.114   4.336 -4.6103 -0.6857 -1.4621
   92MOL0     H12692   2.287   6.900   4.114 -0.7514 -1.4034  1.3028
   92MOL0     H12693   2.289   7.336   4.726 -0.9496 -1.5788 -1.3849
   92MOL0     H12694   2.322   7.251   4.945 -0.3712 -2.8987  3.2386
   92MOL0     H12695   2.256   7.380   5.059 -2.4544  0.8789 -1.0038
   92MOL0     H12696   2.192   7.212   5.040 -2.0463 -1.0379 -2.8463
   93MOL0     O12697  10.431   1.202  10.905  0.3774 -0.1688  0.5669
   93MOL0     C12698  10.311   1.166  10.909 -0.2440 -0.1348  0.0980
   93MOL0     O12699  10.207   1.227  10.838 -0.4308 -0.1987 -0.0195
   93MOL0     C12700  10.243   1.315  10.746  0.3797 -0.3186 -0.2298
   93MOL0     C12701  10.262   1.276  10.618  0.6564 -0.2864 -0.6696
   93MOL0     C12702  10.283   1.362  10.514  0.5814 -0.3161 -0.1805
   93MOL0     C12703  10.286   1.500  10.531  0.4656 -1.0268  0.0183
   93MOL0     O12704  10.318   1.600  10.438 -0.0329 -0.2972  0.0362
   93MOL0     C12705  10.384   1.553  10.324  0.3799 -0.0139 -0.1189
   93MOL0     C12706  10.287   1.531  10.210 -0.0857  0.2601 -0.7084
   93MOL0     C12707  10.225   1.660  10.159 -0.1352 -0.9550  0.3712
   93MOL0     C12708  10.149   1.631  10.021  0.5299 -0.4521 -0.7317
   93MOL0     C12709  10.109   1.767   9.961  0.2953 -0.0942 -0.0328
   93MOL0     C12710  10.028   1.758   9.827  0.8721  0.0524 -0.1025
   93MOL0     C12711  10.007   1.890   9.749  0.1706  0.0856 -0.5415
   93MOL0     C12712  10.138   1.961   9.717 -1.2301  0.2015  0.3415
   93MOL0     N12713  10.214   1.865   9.639  0.0915  0.2597 -0.2105
   93MOL0     C12714  10.178   1.792   9.524  0.3440 -0.4516 -0.2196
   93MOL0     C12715  10.285   1.710   9.510  0.1730 -0.1708  0.6680
   93MOL0     C12716  10.300   1.600   9.406  0.8787  0.8349  0.2885
   93MOL0     C12717  10.259   1.461   9.464 -0.1972  0.4469  1.2090
   93MOL0     C12718  10.382   1.365   9.498  0.1981  0.1998 -1.0119
   93MOL0     C12719  10.339   1.226   9.557 -0.4880  0.4029  0.4533
   93MOL0     O12720  10.265   1.235   9.675  1.0296 -0.3453 -0.4540
   93MOL0     C12721  10.299   1.142   9.769  0.4363  0.2602 -0.9080
   93MOL0     C12722  10.391   1.164   9.863 -0.2934  0.1153 -0.4090
   93MOL0     C12723  10.422   1.064   9.959 -0.3482  0.2891 -0.4896
   93MOL0     C12724  10.524   1.108  10.056 -0.2289  0.6115 -0.5605
   93MOL0     C12725  10.361   0.934   9.955  1.6583 -0.8469  0.0068
   93MOL0     C12726  10.374   0.829  10.057  0.3890  1.2729 -0.4427
   93MOL0     O12727  10.297   0.713  10.037 -0.4726  0.8418  0.3027
   93MOL0     C12728  10.308   0.600  10.119  0.0383 -0.2824 -0.5842
   93MOL0     C12729  10.254   0.592  10.250 -0.8078  0.1032 -0.0623
   93MOL0     C12730  10.282   0.482  10.333 -0.5520 -0.2332  0.4904
   93MOL0     C12731  10.342   0.365  10.285  0.0623 -0.3380  0.4043
   93MOL0     O12732  10.344   0.257  10.357 -0.8117  0.1755 -0.1662
   93MOL0     C12733  10.464   0.189  10.386  0.5370 -0.0645 -0.3192
   93MOL0     C12734  10.433   0.084  10.484  0.3315  0.1804  0.6082
   93MOL0     C12735  10.555   0.003  10.525 -0.4362  0.4073 -0.1391
   93MOL0     C12736  10.586  -0.111  10.439  0.0636 -0.5397  0.3249
   93MOL0     C12737  10.723  -0.172  10.455  0.4904 -0.5140 -0.6601
   93MOL0     C12738  10.773  -0.302  10.381  0.4837  0.1814 -0.5324
   93MOL0     C12739  10.929  -0.325  10.389 -0.3240  0.4782 -0.6426
   93MOL0     C12740  11.021  -0.240  10.288  0.0776  0.0785 -1.0762
   93MOL0    Cl12741  11.006  -0.298  10.121 -0.3742 -0.1366  0.0763
   93MOL0     C12742  10.380   0.368  10.154  0.1974  0.4245  0.0333
   93MOL0     C12743  10.370   0.484  10.073  1.0814  0.1905 -1.4471
   93MOL0     O12744  10.450   0.836  10.156 -0.2879  0.0189  0.0175
   93MOL0     C12745  10.268   0.911   9.851  0.0954 -0.4335  0.2344
   93MOL0     C12746  10.235   1.016   9.763 -0.7016 -0.2147 -0.4262
   93MOL0     N12747  10.392   1.747   9.598  0.2714  0.1477 -0.3413
   93MOL0     N12748  10.345   1.841   9.664  0.1603 -0.5014 -0.2763
   93MOL0     C12749  10.243   1.551  10.654  0.9797  0.1123 -0.8411
   93MOL0     C12750  10.220   1.456  10.760 -0.2091  0.1454 -0.9063
   93MOL0     C12751  10.277   1.048  10.989 -0.5703 -0.6098  1.1175
   93MOL0     C12752  10.135   1.023  11.006 -1.3786  0.2732 -0.3944
   93MOL0     C12753  10.087   0.909  11.067 -0.0786  0.6055 -0.0012
   93MOL0     C12754  10.185   0.821  11.130 -1.2468 -0.8972 -0.1640
   93MOL0     O12755  10.148   0.710  11.201  0.0230 -0.2773  0.1658
   93MOL0     C12756  10.057   0.620  11.127 -0.6562  0.1882 -1.1822
   93MOL0     C12757  10.012   0.511  11.227  0.2450 -0.2282  0.4389
   93MOL0     C12758  10.123   0.443  11.314 -0.7495 -1.0570 -0.1064
   93MOL0     C12759  10.116   0.303  11.367  0.3767 -0.5209  0.5750
   93MOL0     C12760   9.981   0.287  11.431 -0.5437  0.3899 -0.5864
   93MOL0     C12761   9.876   0.250  11.486 -0.0461 -0.1051 -0.8486
   93MOL0     C12762  10.324   0.861  11.134  0.2606  1.1287 -0.1391
   93MOL0     C12763  10.368   0.969  11.066  0.3858 -0.0620  0.5577
   93MOL0     C12764  10.514   0.985  11.064  0.4137  0.1661 -0.7685
   93MOL0     H12765  10.270   1.169  10.598 -1.2541 -0.6327  0.1620
   93MOL0     H12766  10.305   1.332  10.412 -2.6304  0.5046 -1.2208
   93MOL0     H12767  10.437   1.459  10.344 -1.8824 -0.9743  1.8832
   93MOL0     H12768  10.450   1.630  10.284 -0.0811  1.2075  1.3848
   93MOL0     H12769  10.343   1.479  10.131  0.9613  2.3809 -1.4150
   93MOL0     H12770  10.207   1.470  10.254  0.4393 -1.9570 -2.5960
   93MOL0     H12771  10.152   1.696  10.232 -1.4107 -1.2301 -0.7203
   93MOL0     H12772  10.294   1.739  10.131 -1.1541  0.1258  0.8298
   93MOL0     H12773  10.200   1.573   9.944 -0.8247 -4.6529  1.2281
   93MOL0     H12774  10.055   1.578  10.038 -1.2473  2.7036  0.1066
   93MOL0     H12775  10.202   1.823   9.945  1.5979 -1.9481  0.7551
   93MOL0     H12776  10.047   1.827  10.028 -0.1199  0.2875 -0.7498
   93MOL0     H12777  10.081   1.688   9.763 -0.3634 -0.8441 -0.1940
   93MOL0     H12778   9.930   1.714   9.848  1.6566 -0.6653  2.3872
   93MOL0     H12779   9.953   1.948   9.824  0.8812  0.4938 -0.3407
   93MOL0     H12780   9.951   1.862   9.660 -1.5616  0.8323  0.2778
   93MOL0     H12781  10.109   2.049   9.658 -3.7705 -0.8794 -0.1695
   93MOL0     H12782  10.197   1.990   9.805  1.1853 -1.6591 -0.5752
   93MOL0     H12783  10.083   1.791   9.470  0.0661  0.7289  0.2216
   93MOL0     H12784  10.401   1.586   9.368 -0.5628 -0.4647 -3.5734
   93MOL0     H12785  10.234   1.617   9.320  2.2591 -0.1350 -1.0238
   93MOL0     H12786  10.179   1.466   9.539  0.1013 -2.1852  1.7866
   93MOL0     H12787  10.205   1.410   9.384  0.6607  0.3725  0.6691
   93MOL0     H12788  10.441   1.352   9.407 -0.0538  1.9581 -1.4746
   93MOL0     H12789  10.441   1.425   9.568  0.0933  0.2535 -0.9685
   93MOL0     H12790  10.275   1.179   9.481 -1.3945  2.2012  0.0379
   93MOL0     H12791  10.429   1.172   9.584 -0.8985 -0.6822 -0.2908
   93MOL0     H12792  10.448   1.255   9.878  0.2003 -0.4245  1.1432
   93MOL0     H12793  10.611   1.041  10.048 -2.0468 -1.9243 -0.2339
   93MOL0     H12794  10.489   1.098  10.159  2.2349  0.9553  0.3787
   93MOL0     H12795  10.556   1.209  10.027  0.6309 -0.1806 -2.6248
   93MOL0     H12796  10.218   0.684  10.296  1.6230 -0.0032  2.3041
   93MOL0     H12797  10.236   0.471  10.431  0.5943 -0.0605  1.0656
   93MOL0     H12798  10.516   0.145  10.301  3.1932  1.4621  0.3708
   93MOL0     H12799  10.528   0.261  10.439 -1.6357  1.6179  0.2012
   93MOL0     H12800  10.393   0.142  10.568 -1.1665 -0.2349  0.2157
   93MOL0     H12801  10.365   0.016  10.431  2.9864 -0.2553 -2.5800
   93MOL0     H12802  10.540  -0.024  10.630 -0.1045 -1.2498 -0.4858
   93MOL0     H12803  10.642   0.069  10.519 -0.5922  0.5544 -0.8167
   93MOL0     H12804  10.580  -0.072  10.337 -0.4005  0.2808  0.6545
   93MOL0     H12805  10.514  -0.193  10.452  2.5257 -3.0952 -0.8932
   93MOL0     H12806  10.791  -0.093  10.421 -0.5390  0.3235 -0.8210
   93MOL0     H12807  10.730  -0.197  10.561 -0.1042  1.7971 -0.0047
   93MOL0     H12808  10.746  -0.296  10.275 -0.4527 -0.0724 -0.3227
   93MOL0     H12809  10.720  -0.387  10.425 -1.1400  0.4133 -1.9389
   93MOL0     H12810  10.950  -0.431  10.371  0.1607  0.0307  2.1276
   93MOL0     H12811  10.963  -0.293  10.488  0.0027  0.0851 -0.6286
   93MOL0     H12812  11.124  -0.266  10.314 -0.2629  2.3479  3.5770
   93MOL0     H12813  10.999  -0.133  10.290 -0.1049  0.0281  0.0213
   93MOL0     H12814  10.414   0.278  10.104 -1.0023 -0.4095  0.6742
   93MOL0     H12815  10.400   0.488   9.969  3.1956 -0.7869 -0.9249
   93MOL0     H12816  10.218   0.815   9.838 -5.4648  2.1759 -0.9029
   93MOL0     H12817  10.160   1.009   9.685 -1.4731  1.3402  0.1349
   93MOL0     H12818  10.238   1.659  10.661  1.1509  0.3801 -3.6119
   93MOL0     H12819  10.183   1.474  10.860  0.2337 -1.0059 -0.5099
   93MOL0     H12820  10.059   1.088  10.965 -1.0959  0.6856 -0.2744
   93MOL0     H12821   9.983   0.896  11.096  0.8363 -1.6268  2.6508
   93MOL0     H12822   9.964   0.663  11.089 -1.4922 -0.1248  0.4173
   93MOL0     H12823  10.111   0.566  11.049 -2.1333 -3.6005  0.1714
   93MOL0     H12824   9.969   0.429  11.168  3.8592 -1.8931 -0.1720
   93MOL0     H12825   9.932   0.544  11.294  0.5648 -2.0642  1.8132
   93MOL0     H12826  10.221   0.452  11.266 -0.8690 -0.5730 -0.2705
   93MOL0     H12827  10.148   0.514  11.394 -2.2731 -0.6618  0.0501
   93MOL0     H12828  10.197   0.271  11.434  1.7837  0.1355 -0.7264
   93MOL0     H12829  10.116   0.229  11.286 -1.9539  0.4670 -0.4106
   93MOL0     H12830   9.789   0.201  11.524  1.1459 -1.2035  0.6001
   93MOL0     H12831  10.386   0.805  11.204 -1.1106 -0.6325 -0.2536
   93MOL0     H12832  10.559   0.924  11.142  0.1331  1.5568  0.5311
   93MOL0     H12833  10.567   0.953  10.973 -1.7357  1.3179 -2.5348
   93MOL0     H12834  10.551   1.084  11.091  1.8729 -1.0270  1.9781
   94MOL0     O12835   5.392   2.602   6.477 -0.8975  0.0161  0.1405
   94MOL0     C12836   5.441   2.718   6.466 -0.3177  1.0957  0.2147
   94MOL0     O12837   5.492   2.774   6.349 -0.4998  0.5008 -0.8017
   94MOL0     C12838   5.472   2.714   6.231 -0.0674 -1.5302 -0.1102
   94MOL0     C12839   5.368   2.629   6.190 -0.5450  0.0566 -0.4331
   94MOL0     C12840   5.367   2.571   6.061  0.3528 -0.0644  0.1443
   94MOL0     C12841   5.474   2.582   5.971  0.7086 -0.5306  0.9495
   94MOL0     O12842   5.453   2.522   5.850 -0.3432 -0.1229  0.2004
   94MOL0     C12843   5.513   2.572   5.732  0.7791 -0.3943  0.0786
   94MOL0     C12844   5.471   2.473   5.617  0.6167  0.2975 -0.2519
   94MOL0     C12845   5.531   2.513   5.485  0.2966  0.6097 -0.3918
   94MOL0     C12846   5.518   2.417   5.361  0.1713  0.8755  0.2681
   94MOL0     C12847   5.568   2.497   5.240  0.5352  0.6360  0.2760
   94MOL0     C12848   5.717   2.549   5.236 -0.4827 -0.2893 -0.9664
   94MOL0     C12849   5.817   2.431   5.250 -0.0824  0.4016 -0.0967
   94MOL0     C12850   5.802   2.318   5.148  0.4709  1.2688  0.8621
   94MOL0     N12851   5.901   2.220   5.148  0.0803 -0.3675 -0.8871
   94MOL0     C12852   6.007   2.214   5.061 -0.5108 -0.4806 -0.4082
   94MOL0     C12853   6.090   2.124   5.112 -0.0230  0.2875 -0.5174
   94MOL0     C12854   6.210   2.082   5.038 -0.0877  0.3385 -0.5071
   94MOL0     C12855   6.300   1.978   5.100  0.2289  0.2391 -0.6427
   94MOL0     C12856   6.415   1.955   5.010 -0.7007 -0.7127  0.2662
   94MOL0     C12857   6.544   2.037   5.047  0.1251  0.7051  0.5419
   94MOL0     O12858   6.661   1.981   4.982  0.0558  0.7059  0.4695
   94MOL0     C12859   6.776   2.037   5.015  0.1157  0.8687 -0.1606
   94MOL0     C12860   6.788   2.134   5.109 -1.0649 -0.0062  0.3541
   94MOL0     C12861   6.918   2.190   5.147  0.1579  0.1115 -0.4377
   94MOL0     C12862   6.922   2.300   5.244  0.0881 -0.5983  0.1612
   94MOL0     C12863   7.039   2.136   5.092  0.3542  0.2459 -0.7098
   94MOL0     C12864   7.181   2.170   5.134 -0.1564  0.2937  0.2634
   94MOL0     O12865   7.281   2.075   5.099  0.4626 -0.2142 -1.2161
   94MOL0     C12866   7.406   2.105   5.135 -0.3778  0.3196 -0.8415
   94MOL0     C12867   7.510   2.090   5.049  0.2740 -0.0955  0.3186
   94MOL0     C12868   7.639   2.119   5.082  0.6360 -0.0667  0.2549
   94MOL0     C12869   7.669   2.160   5.210 -0.6970 -0.9030 -0.6455
   94MOL0     O12870   7.797   2.189   5.243 -0.0288 -0.1732 -0.4592
   94MOL0     C12871   7.824   2.324   5.293 -0.3618  0.8721 -0.1626
   94MOL0     C12872   7.843   2.424   5.181 -0.4484 -0.6490  0.1142
   94MOL0     C12873   7.972   2.404   5.101 -0.3854  0.8480  0.1778
   94MOL0     C12874   7.976   2.508   4.991 -0.1063  0.4782  0.2921
   94MOL0     C12875   8.113   2.527   4.928 -0.6153  0.5284  0.5525
   94MOL0     C12876   8.123   2.586   4.789  0.4478  0.1127 -0.8522
   94MOL0     C12877   8.268   2.580   4.734 -0.0878  0.7136 -0.3111
   94MOL0     C12878   8.271   2.605   4.581 -0.8771  0.1896  0.2441
   94MOL0    Cl12879   8.445   2.607   4.528  0.0095 -0.0021  0.2910
   94MOL0     C12880   7.575   2.156   5.303 -0.4668  0.3546 -0.4636
   94MOL0     C12881   7.440   2.130   5.270 -0.2646  0.5820 -0.4520
   94MOL0     O12882   7.205   2.281   5.178 -0.6205 -0.6934  0.5784
   94MOL0     C12883   7.016   2.040   4.987 -0.8129 -1.1030 -0.8838
   94MOL0     C12884   6.890   1.997   4.947 -0.0077  0.0966  0.0349
   94MOL0     N12885   6.038   2.066   5.234  0.1566  0.3717  0.4378
   94MOL0     N12886   5.929   2.139   5.255 -0.0612 -0.7485 -0.0759
   94MOL0     C12887   5.582   2.655   6.008 -0.1264 -0.3107  0.3500
   94MOL0     C12888   5.577   2.723   6.139  0.4883  0.9777  0.5049
   94MOL0     C12889   5.464   2.792   6.594  1.1521  0.0956 -0.1373
   94MOL0     C12890   5.588   2.848   6.615 -0.3997  0.4271  0.7657
   94MOL0     C12891   5.634   2.912   6.738 -0.2926  0.6051 -0.8523
   94MOL0     C12892   5.553   2.919   6.849  0.4403 -0.0628 -0.9126
   94MOL0     O12893   5.581   2.969   6.973 -0.0486 -0.1681  0.4918
   94MOL0     C12894   5.711   3.011   6.996 -1.3982  0.1694 -0.4337
   94MOL0     C12895   5.732   3.161   6.951 -0.3005  0.9490 -0.4036
   94MOL0     C12896   5.639   3.251   7.034 -0.6285  0.2152 -0.5413
   94MOL0     C12897   5.677   3.400   7.028  0.1373  0.1474 -0.3651
   94MOL0     C12898   5.812   3.453   7.064 -1.6876  0.1965  1.2225
   94MOL0     C12899   5.931   3.490   7.080  0.4714  0.0005  0.9451
   94MOL0     C12900   5.426   2.858   6.833  0.1368  0.4592 -0.1184
   94MOL0     C12901   5.379   2.795   6.707 -0.8728  0.2036 -0.3330
   94MOL0     C12902   5.230   2.753   6.716  0.4009 -0.3053  0.6783
   94MOL0     H12903   5.298   2.605   6.270 -0.0399  2.3778  0.7931
   94MOL0     H12904   5.278   2.519   6.026 -0.2724  0.5839  0.7398
   94MOL0     H12905   5.621   2.585   5.731  1.0821 -2.4873  0.9395
   94MOL0     H12906   5.455   2.659   5.699 -5.8552 -4.0571  0.3092
   94MOL0     H12907   5.509   2.375   5.649  0.7266 -0.4692 -2.5937
   94MOL0     H12908   5.365   2.456   5.598  0.2758  2.2016 -0.2299
   94MOL0     H12909   5.485   2.609   5.457  0.7148  0.5230 -1.4025
   94MOL0     H12910   5.637   2.531   5.501  0.4271 -0.1031 -0.4393
   94MOL0     H12911   5.573   2.324   5.381  0.4697  0.2515 -2.8713
   94MOL0     H12912   5.412   2.390   5.358 -0.7603  3.9819  1.7213
   94MOL0     H12913   5.507   2.586   5.222  1.9373  1.2629 -1.7586
   94MOL0     H12914   5.552   2.451   5.142 -0.0435 -0.0709  0.6913
   94MOL0     H12915   5.731   2.600   5.140 -2.4214  2.7013  0.1937
   94MOL0     H12916   5.737   2.615   5.321  1.1688 -0.7628 -0.9523
   94MOL0     H12917   5.826   2.383   5.348 -0.4899 -4.4897 -2.1714
   94MOL0     H12918   5.914   2.476   5.225  0.1469 -0.5859 -1.0341
   94MOL0     H12919   5.702   2.272   5.152  1.2895 -1.0746 -1.9823
   94MOL0     H12920   5.806   2.371   5.053  1.8308  0.2490  0.3328
   94MOL0     H12921   6.028   2.275   4.973  2.8552  1.1240  1.2992
   94MOL0     H12922   6.271   2.172   5.025 -1.2484  1.2073 -0.1087
   94MOL0     H12923   6.173   2.053   4.940 -1.4986  2.1708 -0.5719
   94MOL0     H12924   6.352   2.020   5.187  2.0105 -1.2803 -0.9103
   94MOL0     H12925   6.249   1.883   5.118  0.5660  0.2920  0.6980
   94MOL0     H12926   6.448   1.851   5.017  0.0231 -0.5329 -0.3097
   94MOL0     H12927   6.386   1.964   4.905  2.4396  0.2977 -0.6181
   94MOL0     H12928   6.540   2.145   5.030  0.2498  0.4233 -1.6516
   94MOL0     H12929   6.542   2.024   5.155 -2.2258 -3.2324  0.2411
   94MOL0     H12930   6.701   2.188   5.144 -1.2020 -0.1652  0.2645
   94MOL0     H12931   6.819   2.335   5.255 -1.6970 -4.2211 -2.9845
   94MOL0     H12932   6.976   2.392   5.217 -2.9815  1.5301  0.7592
   94MOL0     H12933   6.953   2.271   5.345 -1.1153 -1.6798  0.2434
   94MOL0     H12934   7.486   2.056   4.949 -2.2664  2.3574 -0.0322
   94MOL0     H12935   7.723   2.117   5.013  0.8660 -1.6256  0.5393
   94MOL0     H12936   7.735   2.348   5.352 -1.5817 -2.3530 -0.4936
   94MOL0     H12937   7.912   2.324   5.359  0.0447 -2.1313 -0.5519
   94MOL0     H12938   7.760   2.414   5.110 -0.6137  0.0826  0.1928
   94MOL0     H12939   7.835   2.522   5.230  1.0455 -1.7631  2.8063
   94MOL0     H12940   7.974   2.302   5.063  0.3896  1.2841 -1.0206
   94MOL0     H12941   8.060   2.422   5.163  0.6790  0.8582 -1.2901
   94MOL0     H12942   7.928   2.603   5.015 -0.9877  0.1250 -0.0462
   94MOL0     H12943   7.915   2.471   4.907  1.4416 -0.3907 -0.5093
   94MOL0     H12944   8.171   2.600   4.985  0.5064  0.1593 -0.0781
   94MOL0     H12945   8.163   2.430   4.920 -1.3046  0.1132  1.1205
   94MOL0     H12946   8.103   2.694   4.793 -2.7900 -0.2521 -3.3049
   94MOL0     H12947   8.048   2.546   4.720 -0.4435  0.0536  0.1321
   94MOL0     H12948   8.304   2.480   4.760  0.0316  0.7503 -0.3379
   94MOL0     H12949   8.336   2.645   4.791  3.8436 -2.7480 -0.5723
   94MOL0     H12950   8.226   2.704   4.568 -1.7301 -0.3649 -1.1970
   94MOL0     H12951   8.214   2.532   4.524  0.7961 -2.4611  1.7195
   94MOL0     H12952   7.587   2.186   5.407 -3.1478  0.6029 -0.1578
   94MOL0     H12953   7.359   2.134   5.342  2.6695  0.1080  3.1858
   94MOL0     H12954   7.099   2.003   4.928 -0.1292 -0.4561 -0.3544
   94MOL0     H12955   6.873   1.939   4.857 -1.4219  0.2500  0.1815
   94MOL0     H12956   5.665   2.665   5.939 -1.7983 -3.2185 -2.3002
   94MOL0     H12957   5.666   2.771   6.178  0.4184  0.9202  0.7348
   94MOL0     H12958   5.664   2.847   6.537 -1.0608  1.1044  0.1025
   94MOL0     H12959   5.734   2.953   6.731  0.9707 -2.2387 -0.7030
   94MOL0     H12960   5.744   2.990   7.098 -0.4959  2.2786 -0.2364
   94MOL0     H12961   5.780   2.948   6.939 -1.5011  0.7838 -1.2473
   94MOL0     H12962   5.702   3.168   6.846 -0.4857  3.3306 -0.2487
   94MOL0     H12963   5.837   3.186   6.963 -0.0849 -1.1298  5.3068
   94MOL0     H12964   5.535   3.246   6.999 -1.1653 -2.9879  1.1298
   94MOL0     H12965   5.641   3.221   7.139  2.4653  0.9898 -0.2860
   94MOL0     H12966   5.604   3.451   7.091  0.5998  2.4474 -1.6002
   94MOL0     H12967   5.657   3.426   6.923 -3.0331  1.3510  0.4275
   94MOL0     H12968   6.031   3.527   7.090  0.2513  1.1910 -0.8691
   94MOL0     H12969   5.355   2.872   6.913  1.4164  3.1227  0.6492
   94MOL0     H12970   5.193   2.697   6.630  0.4907  1.1872 -0.3851
   94MOL0     H12971   5.222   2.696   6.809  0.3249 -0.7416  0.4070
   94MOL0     H12972   5.175   2.847   6.728  2.9852  1.3110  0.6382
   95MOL0     O12973  11.224   0.714   4.202  0.4152 -0.1432 -0.2543
   95MOL0     C12974  11.127   0.788   4.169 -0.7841  0.0425  0.6377
   95MOL0     O12975  11.153   0.920   4.126 -0.1416 -0.5910 -0.4807
   95MOL0     C12976  11.284   0.960   4.154 -0.1483 -0.3463  1.6817
   95MOL0     C12977  11.378   0.965   4.047 -0.5175  0.7213 -0.4288
   95MOL0     C12978  11.515   1.007   4.073  0.2647 -0.0771 -0.3970
   95MOL0     C12979  11.553   1.037   4.203  0.0181 -0.4396  0.6684
   95MOL0     O12980  11.685   1.064   4.216 -0.1284 -0.3130 -0.7722
   95MOL0     C12981  11.710   1.184   4.291 -0.9877  0.4343 -0.7653
   95MOL0     C12982  11.860   1.218   4.289  1.4966 -0.1944  0.1596
   95MOL0     C12983  11.947   1.108   4.349 -0.2351 -0.4887 -0.5339
   95MOL0     C12984  11.912   1.063   4.494 -0.2976  0.9943 -0.4240
   95MOL0     C12985  11.980   0.943   4.542  0.3261  1.1049 -0.4150
   95MOL0     C12986  11.933   0.819   4.457 -0.1663 -0.4312 -0.8310
   95MOL0     C12987  12.018   0.702   4.490 -0.8187 -0.4621 -0.6487
   95MOL0     C12988  12.009   0.641   4.632 -0.1893 -0.7252  0.3447
   95MOL0     N12989  12.094   0.523   4.635 -1.3853  0.1555  0.2939
   95MOL0     C12990  12.241   0.529   4.646  1.6540  0.9213 -0.2626
   95MOL0     C12991  12.270   0.397   4.635 -0.5709 -0.5084 -0.0430
   95MOL0     C12992  12.409   0.341   4.621 -0.5140  0.7138 -1.0336
   95MOL0     C12993  12.485   0.351   4.752 -0.1376 -0.3311  0.3017
   95MOL0     C12994  12.635   0.348   4.731  0.4920  0.4735  0.2339
   95MOL0     C12995  12.723   0.347   4.853 -0.7820 -0.2151  0.2857
   95MOL0     O12996  12.684   0.438   4.961  0.6040  0.4902 -0.1806
   95MOL0     C12997  12.751   0.427   5.084 -0.5551 -0.5089 -0.3777
   95MOL0     C12998  12.858   0.337   5.104  0.2633 -1.0349  0.1203
   95MOL0     C12999  12.916   0.320   5.230  0.3679  0.2311 -0.4218
   95MOL0     C13000  13.004   0.196   5.246 -0.4336 -0.9507 -0.1066
   95MOL0     C13001  12.863   0.390   5.340 -0.7272 -1.2698 -0.2903
   95MOL0     C13002  12.924   0.371   5.473  0.3181  0.0968 -0.2220
   95MOL0     O13003  12.842   0.364   5.584 -0.2015  0.0291  0.3101
   95MOL0     C13004  12.900   0.327   5.702 -1.0001 -0.1010 -0.1188
   95MOL0     C13005  12.954   0.429   5.791  0.1695 -0.0315 -0.0566
   95MOL0     C13006  13.004   0.389   5.921  0.2582  0.5543 -0.3705
   95MOL0     C13007  13.006   0.246   5.956  0.1088 -0.3863  0.4186
   95MOL0     O13008  13.074   0.191   6.064 -0.0287 -0.0096  0.3267
   95MOL0     C13009  13.077   0.260   6.189 -0.9863 -0.1412 -0.4730
   95MOL0     C13010  13.049   0.165   6.310 -0.3257 -0.8401  0.6057
   95MOL0     C13011  13.122   0.028   6.312 -1.0373 -0.5867  0.0911
   95MOL0     C13012  13.273   0.045   6.321 -0.3368 -0.2399  0.3680
   95MOL0     C13013  13.353  -0.084   6.328 -0.2459  0.6077  0.3438
   95MOL0     C13014  13.507  -0.064   6.361  0.7320 -0.0170  0.7131
   95MOL0     C13015  13.578  -0.201   6.377  0.8566 -0.1798 -1.1905
   95MOL0     C13016  13.721  -0.165   6.399 -0.1887  0.1400  0.4197
   95MOL0    Cl13017  13.814  -0.314   6.419  0.3365 -0.1017 -0.1894
   95MOL0     C13018  12.975   0.160   5.859 -0.1980 -0.3841  0.9460
   95MOL0     C13019  12.910   0.194   5.744  0.3288  0.6841 -0.1517
   95MOL0     O13020  13.044   0.354   5.478 -0.3434  0.1444  0.8808
   95MOL0     C13021  12.763   0.490   5.322 -0.4881 -0.3537  0.7151
   95MOL0     C13022  12.700   0.499   5.196  0.1207  0.6855  0.1586
   95MOL0     N13023  12.157   0.319   4.631 -0.9266 -0.5909 -1.0526
   95MOL0     N13024  12.054   0.397   4.641 -0.0201 -0.5930  0.3480
   95MOL0     C13025  11.453   1.040   4.302  0.3014  0.7922 -0.6454
   95MOL0     C13026  11.319   1.005   4.285  0.0638 -0.1216  0.3299
   95MOL0     C13027  10.982   0.754   4.190 -0.3579  0.0420  0.3670
   95MOL0     C13028  10.892   0.828   4.124  0.3045 -0.0436 -0.2732
   95MOL0     C13029  10.753   0.817   4.143 -0.5146  0.5627  0.6288
   95MOL0     C13030  10.705   0.718   4.231  1.0746 -0.3840 -0.3709
   95MOL0     O13031  10.570   0.711   4.239 -0.1290 -0.3555 -0.8570
   95MOL0     C13032  10.515   0.603   4.321  0.3967  0.1624  0.1471
   95MOL0     C13033  10.364   0.638   4.348  0.3593  0.3008 -0.3962
   95MOL0     C13034  10.289   0.527   4.419  0.0216 -0.8794 -0.3951
   95MOL0     C13035  10.139   0.511   4.387  0.0217  0.0153  0.0357
   95MOL0     C13036  10.095   0.393   4.457  0.2552  0.2765 -0.4889
   95MOL0     C13037  10.040   0.291   4.514  1.2098 -0.1964  0.7482
   95MOL0     C13038  10.802   0.652   4.307  0.0625  0.7533  0.1803
   95MOL0     C13039  10.936   0.670   4.291 -0.0611 -0.0206 -0.5215
   95MOL0     C13040  11.032   0.588   4.374 -0.0488  0.1090 -0.5800
   95MOL0     H13041  11.343   0.939   3.948 -1.4261  0.4798 -0.0553
   95MOL0     H13042  11.598   0.994   4.004  0.6194 -0.6325  0.1164
   95MOL0     H13043  11.680   1.177   4.396 -1.3081  0.7369 -0.8314
   95MOL0     H13044  11.643   1.261   4.251  1.7915  2.2603 -2.1900
   95MOL0     H13045  11.886   1.222   4.183  0.4736 -2.0151 -0.2102
   95MOL0     H13046  11.883   1.312   4.339 -1.2886 -0.1580  1.5436
   95MOL0     H13047  11.930   1.027   4.277 -2.5177  0.2419 -0.9286
   95MOL0     H13048  12.054   1.125   4.336 -0.1383  0.3604  1.1744
   95MOL0     H13049  11.941   1.146   4.559 -3.1834  1.0271  1.0070
   95MOL0     H13050  11.805   1.044   4.507  0.4771 -3.5712  0.8385
   95MOL0     H13051  11.961   0.933   4.649  1.5442  2.1205 -0.0907
   95MOL0     H13052  12.088   0.953   4.532  0.5623 -0.1291  0.7104
   95MOL0     H13053  11.827   0.797   4.473 -0.4984 -2.2331 -4.4429
   95MOL0     H13054  11.950   0.832   4.350 -1.9486 -2.4691 -1.4417
   95MOL0     H13055  12.123   0.718   4.466 -0.9906  0.1880 -0.9777
   95MOL0     H13056  12.002   0.616   4.424  1.7513 -2.0745  0.6406
   95MOL0     H13057  12.034   0.721   4.702 -0.9349 -1.6141  1.6653
   95MOL0     H13058  11.904   0.623   4.656  0.2398 -2.1183  1.2851
   95MOL0     H13059  12.303   0.618   4.652  1.7733  0.8111  0.1879
   95MOL0     H13060  12.455   0.395   4.537 -2.0738  2.7136 -0.6852
   95MOL0     H13061  12.406   0.237   4.586  0.4071  1.0529 -2.2190
   95MOL0     H13062  12.448   0.440   4.804  1.1735  0.9570 -0.8693
   95MOL0     H13063  12.468   0.265   4.817  1.7577 -0.6305  0.4567
   95MOL0     H13064  12.670   0.266   4.668  2.9956  0.3477  1.6543
   95MOL0     H13065  12.666   0.437   4.674  2.4196 -0.4455 -0.2300
   95MOL0     H13066  12.725   0.244   4.890 -2.9902  0.1076  1.4378
   95MOL0     H13067  12.823   0.376   4.821  0.6992 -0.4405  4.1044
   95MOL0     H13068  12.886   0.275   5.020 -1.3373 -0.7660 -0.6537
   95MOL0     H13069  12.993   0.151   5.345  0.4396 -1.9292 -0.4390
   95MOL0     H13070  13.105   0.239   5.242 -0.3947 -1.1188 -1.9532
   95MOL0     H13071  12.987   0.120   5.169 -0.3546 -2.2903  1.1642
   95MOL0     H13072  12.947   0.534   5.765  0.2825  0.9712  3.4044
   95MOL0     H13073  13.040   0.462   5.993 -1.3494  0.4077  0.6275
   95MOL0     H13074  13.179   0.300   6.189 -1.0139 -0.0130  1.2824
   95MOL0     H13075  13.001   0.339   6.186 -0.4120  0.4005 -1.6216
   95MOL0     H13076  13.094   0.216   6.395 -0.1077  0.2804 -0.1613
   95MOL0     H13077  12.940   0.155   6.313 -0.4562  0.5595  1.0763
   95MOL0     H13078  13.096  -0.035   6.227  0.4922 -1.7365  0.4342
   95MOL0     H13079  13.104  -0.032   6.401 -0.4582  0.7346  1.1427
   95MOL0     H13080  13.301   0.105   6.408  3.4194  0.8255 -1.3542
   95MOL0     H13081  13.300   0.092   6.226  0.0223 -3.8640 -1.4804
   95MOL0     H13082  13.314  -0.129   6.420 -3.2715  0.1685 -1.0643
   95MOL0     H13083  13.331  -0.149   6.243 -2.2707 -0.2933  1.4885
   95MOL0     H13084  13.515  -0.014   6.457  1.6785 -0.6075  0.9554
   95MOL0     H13085  13.548  -0.010   6.275  0.2819 -1.0823 -0.1984
   95MOL0     H13086  13.562  -0.257   6.284 -0.1229 -0.1662 -1.0326
   95MOL0     H13087  13.550  -0.260   6.464  2.1788  0.0558 -0.5724
   95MOL0     H13088  13.730  -0.100   6.487 -4.8234  2.4789 -0.5299
   95MOL0     H13089  13.747  -0.113   6.306 -3.3504 -0.7737 -1.0950
   95MOL0     H13090  12.993   0.055   5.879 -0.8940 -0.4034  1.5065
   95MOL0     H13091  12.884   0.114   5.675  1.7169  0.9248 -0.9928
   95MOL0     H13092  12.723   0.547   5.405  0.5113 -2.9357  3.1606
   95MOL0     H13093  12.618   0.567   5.176 -0.0388  1.4485  2.9642
   95MOL0     H13094  11.476   1.065   4.405 -0.3738  0.3080 -0.3654
   95MOL0     H13095  11.253   1.011   4.371  0.3505  0.0479  0.5405
   95MOL0     H13096  10.940   0.890   4.049  1.9328  1.6034  1.9753
   95MOL0     H13097  10.692   0.879   4.078 -0.0866 -2.5669 -3.1730
   95MOL0     H13098  10.516   0.506   4.269 -4.0315  0.0171 -0.1235
   95MOL0     H13099  10.571   0.593   4.414  2.8654  1.8296 -1.0822
   95MOL0     H13100  10.311   0.638   4.253 -0.6821  2.2856  0.1351
   95MOL0     H13101  10.347   0.732   4.401 -0.2222 -0.7158  1.2964
   95MOL0     H13102  10.338   0.432   4.396  3.0096 -0.0339  1.8259
   95MOL0     H13103  10.304   0.541   4.527 -1.0469  0.8361 -0.4299
   95MOL0     H13104  10.123   0.501   4.279 -0.8898  2.8411 -0.1712
   95MOL0     H13105  10.088   0.595   4.435  1.9183  0.7964  0.8101
   95MOL0     H13106   9.990   0.203   4.547  1.1577 -0.8009 -0.8685
   95MOL0     H13107  10.772   0.579   4.382  1.1656 -0.0733 -0.1688
   95MOL0     H13108  11.104   0.519   4.328  3.4551  1.0473  2.9339
   95MOL0     H13109  11.095   0.658   4.429  1.7076 -1.7714 -0.0505
   95MOL0     H13110  10.987   0.516   4.443  1.5864 -2.7601 -2.2998
   96MOL0     O13111   3.381   9.973   0.308 -0.8621  0.2791  0.0174
   96MOL0     C13112   3.280  10.029   0.258  0.1846  0.6856  0.2449
   96MOL0     O13113   3.275  10.119   0.153  0.4279  0.1685  0.0207
   96MOL0     C13114   3.390  10.176   0.091  0.2708 -0.7711 -0.3670
   96MOL0     C13115   3.521  10.119   0.095  0.5818 -0.3889  0.2366
   96MOL0     C13116   3.628  10.176   0.026  0.5875 -0.5280 -0.6313
   96MOL0     C13117   3.609  10.306  -0.026 -0.3825 -0.4777 -0.6160
   96MOL0     O13118   3.696  10.380  -0.093 -0.2652  0.7891 -0.0746
   96MOL0     C13119   3.827  10.375  -0.033  0.2065 -0.6025 -0.2612
   96MOL0     C13120   3.927  10.457  -0.113 -0.2532 -0.0630 -0.2552
   96MOL0     C13121   4.079  10.445  -0.066 -0.0952  0.0405  0.1798
   96MOL0     C13122   4.160  10.561  -0.109  0.3704 -0.3033  0.5861
   96MOL0     C13123   4.312  10.549  -0.080  1.2356 -0.7261  0.2304
   96MOL0     C13124   4.346  10.577   0.060 -0.0069  0.6366 -0.8772
   96MOL0     C13125   4.495  10.561   0.082 -0.3385  0.1649 -0.5138
   96MOL0     C13126   4.548  10.673   0.175 -0.1410 -0.2628  0.4303
   96MOL0     N13127   4.692  10.676   0.181  0.1514 -0.5482 -1.2500
   96MOL0     C13128   4.775  10.557   0.185  0.0321 -0.5358  0.5686
   96MOL0     C13129   4.902  10.608   0.176 -0.1326  0.3132 -0.1513
   96MOL0     C13130   5.028  10.536   0.200 -0.8875  1.1876 -0.1589
   96MOL0     C13131   5.083  10.559   0.337  0.4958  0.4359  0.5276
   96MOL0     C13132   5.205  10.464   0.370  0.8465  0.1988  0.2275
   96MOL0     C13133   5.338  10.536   0.318  1.1422  0.2529 -0.2420
   96MOL0     O13134   5.443  10.439   0.318  1.0049 -0.4992  0.4220
   96MOL0     C13135   5.557  10.458   0.245 -0.2951 -0.1676  0.8047
   96MOL0     C13136   5.595  10.579   0.179 -0.4549 -0.7025 -0.5536
   96MOL0     C13137   5.703  10.590   0.099 -0.3709 -0.2059 -0.3642
   96MOL0     C13138   5.716  10.727   0.039 -0.1413 -0.0050 -0.1235
   96MOL0     C13139   5.799  10.479   0.091 -0.2764 -0.2888 -0.3049
   96MOL0     C13140   5.930  10.482   0.014 -1.1968 -0.4213 -0.6862
   96MOL0     O13141   5.999  10.366   0.009 -0.4685  0.0134 -0.5322
   96MOL0     C13142   6.129  10.368  -0.030  0.4995  0.5619 -0.4335
   96MOL0     C13143   6.167  10.347  -0.163  1.1630  0.6140 -0.7698
   96MOL0     C13144   6.308  10.341  -0.191  0.6166  1.4859 -0.1625
   96MOL0     C13145   6.402  10.383  -0.093  0.6811  0.4172  0.4928
   96MOL0     O13146   6.537  10.412  -0.119  0.3316  0.3522  0.1137
   96MOL0     C13147   6.583  10.407  -0.258 -0.0986 -0.0400  0.7101
   96MOL0     C13148   6.730  10.428  -0.281 -0.0902 -0.2855 -0.3703
   96MOL0     C13149   6.772  10.558  -0.218  0.1379  0.2315  0.6195
   96MOL0     C13150   6.926  10.577  -0.213  0.3551  0.5217 -0.7704
   96MOL0     C13151   6.951  10.719  -0.165 -0.3140 -0.3649 -1.0132
   96MOL0     C13152   7.109  10.728  -0.153 -0.0230 -0.7295  0.2530
   96MOL0     C13153   7.132  10.871  -0.091 -0.4548  0.9489  1.1018
   96MOL0     C13154   7.288  10.868  -0.055 -0.2887  0.0018 -0.4729
   96MOL0    Cl13155   7.353  11.037  -0.031 -0.0150  0.2455 -0.4036
   96MOL0     C13156   6.355  10.416   0.033  1.0026  0.1332 -0.1821
   96MOL0     C13157   6.223  10.407   0.065  0.4843 -0.4588 -0.8486
   96MOL0     O13158   5.968  10.590  -0.037 -0.1007  0.0404 -0.1619
   96MOL0     C13159   5.764  10.361   0.157 -0.1558 -0.0369 -1.6528
   96MOL0     C13160   5.645  10.348   0.228  0.5008 -0.2558 -0.7950
   96MOL0     N13161   4.900  10.742   0.161 -0.1893  0.5230 -0.4173
   96MOL0     N13162   4.778  10.784   0.172 -0.2404 -0.8030  0.0308
   96MOL0     C13163   3.483  10.368  -0.018  0.5556 -0.2293 -0.4341
   96MOL0     C13164   3.372  10.305   0.038 -0.5101 -0.3244  0.0440
   96MOL0     C13165   3.155  10.004   0.325 -0.5115 -0.8172  0.0281
   96MOL0     C13166   3.034  10.000   0.248  0.0089 -0.0564  0.6674
   96MOL0     C13167   2.920   9.994   0.317  0.5304  0.2996  0.7952
   96MOL0     C13168   2.915   9.985   0.449 -0.4965 -0.3639 -0.6134
   96MOL0     O13169   2.797   9.970   0.520  0.0545 -1.0144  0.5774
   96MOL0     C13170   2.716  10.087   0.559 -0.2920 -0.0987  0.2780
   96MOL0     C13171   2.565  10.065   0.536  0.8061 -0.0070 -0.2466
   96MOL0     C13172   2.525  10.011   0.394  0.3428 -0.1699  0.4111
   96MOL0     C13173   2.369  10.006   0.382  0.1205 -0.3125 -0.0483
   96MOL0     C13174   2.324   9.926   0.265 -0.6484 -0.7705  0.0972
   96MOL0     C13175   2.299   9.868   0.166  0.8737  0.7657 -1.4575
   96MOL0     C13176   3.029   9.982   0.524 -0.6819 -0.6975 -0.2531
   96MOL0     C13177   3.159   9.995   0.468 -0.0184  0.4318  0.4260
   96MOL0     C13178   3.274  10.002   0.562 -0.8986  0.6226  0.6803
   96MOL0     H13179   3.545  10.025   0.142  3.2254 -0.6543 -1.4381
   96MOL0     H13180   3.721  10.125   0.005 -0.0676 -1.5221 -1.2126
   96MOL0     H13181   3.870  10.275  -0.042  0.9177 -0.1088 -3.9091
   96MOL0     H13182   3.825  10.405   0.072  1.4656  0.1057 -0.4209
   96MOL0     H13183   3.920  10.429  -0.219  0.3392  0.4318 -0.4315
   96MOL0     H13184   3.902  10.563  -0.102  2.3752  0.4348  2.1087
   96MOL0     H13185   4.081  10.425   0.041  2.2676 -5.5727 -0.5471
   96MOL0     H13186   4.119  10.348  -0.099  1.5616  0.7639 -0.0415
   96MOL0     H13187   4.156  10.562  -0.219  1.2465 -0.7058  0.5396
   96MOL0     H13188   4.116  10.656  -0.076 -0.5694 -1.3409  2.4613
   96MOL0     H13189   4.356  10.627  -0.143 -0.0747 -0.5316 -0.4823
   96MOL0     H13190   4.366  10.459  -0.111  3.9844  0.7920  0.2359
   96MOL0     H13191   4.321  10.681   0.084 -1.8476  1.1252 -4.3924
   96MOL0     H13192   4.294  10.507   0.126  1.5223 -0.8249 -1.1444
   96MOL0     H13193   4.551  10.570  -0.012  0.1823  0.8452 -0.1471
   96MOL0     H13194   4.513  10.465   0.131  1.1082  0.9961  0.6740
   96MOL0     H13195   4.517  10.767   0.128  2.7303  0.7203  0.3103
   96MOL0     H13196   4.529  10.666   0.283  1.8649 -1.0414  0.7739
   96MOL0     H13197   4.751  10.452   0.199 -1.4391 -0.3926 -0.6152
   96MOL0     H13198   5.108  10.551   0.127  0.7407 -2.3241  0.7008
   96MOL0     H13199   5.011  10.429   0.195  3.8504  0.2089  0.3061
   96MOL0     H13200   5.118  10.662   0.346 -0.7985  1.0183 -0.7264
   96MOL0     H13201   4.998  10.536   0.403 -1.8133  0.9833 -2.0467
   96MOL0     H13202   5.201  10.441   0.476 -3.5555 -4.1815 -0.5040
   96MOL0     H13203   5.179  10.367   0.326  0.5357 -0.5991  2.0814
   96MOL0     H13204   5.321  10.567   0.214 -1.5644 -0.2877 -0.0487
   96MOL0     H13205   5.360  10.628   0.373 -5.3728  1.6783  0.8328
   96MOL0     H13206   5.542  10.669   0.208  0.6675 -0.3365  0.4686
   96MOL0     H13207   5.785  10.799   0.084  2.6561 -1.1615 -2.3125
   96MOL0     H13208   5.618  10.775   0.031 -3.1934 -4.1491  5.4749
   96MOL0     H13209   5.741  10.716  -0.067 -1.7358  0.7013 -0.6075
   96MOL0     H13210   6.095  10.327  -0.242  0.2388 -0.9691  0.4248
   96MOL0     H13211   6.343  10.329  -0.293 -2.1316  3.9883 -1.5250
   96MOL0     H13212   6.553  10.310  -0.301  0.0738  0.6012 -0.9304
   96MOL0     H13213   6.532  10.483  -0.318  0.5417  2.9471  3.6551
   96MOL0     H13214   6.785  10.341  -0.244 -1.8912 -1.0624  0.5959
   96MOL0     H13215   6.734  10.437  -0.390 -0.6460  0.1923 -0.3568
   96MOL0     H13216   6.738  10.574  -0.115  3.6213 -1.5954  2.2277
   96MOL0     H13217   6.726  10.644  -0.268  2.3233  1.9992  1.5035
   96MOL0     H13218   6.985  10.553  -0.303 -0.2522 -1.1506 -0.7521
   96MOL0     H13219   6.970  10.505  -0.144 -0.0481 -2.1587 -3.1269
   96MOL0     H13220   6.901  10.795  -0.225 -4.0144 -1.4143  0.4744
   96MOL0     H13221   6.912  10.743  -0.066  1.3374  2.5999 -0.9685
   96MOL0     H13222   7.169  10.722  -0.244 -0.0920 -0.3414  0.1807
   96MOL0     H13223   7.141  10.659  -0.074  2.2839  2.1393  2.0568
   96MOL0     H13224   7.065  10.915  -0.017 -0.9010  0.9309  0.7129
   96MOL0     H13225   7.115  10.943  -0.172 -2.0642 -2.4478 -1.8029
   96MOL0     H13226   7.346  10.833  -0.141  1.9890  0.9492  0.5936
   96MOL0     H13227   7.316  10.816   0.037  3.0217  0.6451 -0.9953
   96MOL0     H13228   6.433  10.453   0.099  0.7958  1.2192 -0.5279
   96MOL0     H13229   6.191  10.442   0.163 -1.7261  1.0953 -2.0179
   96MOL0     H13230   5.839  10.283   0.162  2.7955  2.6896  1.1448
   96MOL0     H13231   5.634  10.257   0.286 -1.1573  0.7959  0.6483
   96MOL0     H13232   3.475  10.469  -0.057 -0.6179 -0.3044 -0.4080
   96MOL0     H13233   3.276  10.355   0.047 -0.7138 -0.6772 -0.1560
   96MOL0     H13234   3.033  10.023   0.142 -3.1599  0.3284  0.6938
   96MOL0     H13235   2.822  10.003   0.272  1.4541  3.0119 -0.8691
   96MOL0     H13236   2.746  10.119   0.659 -1.1304 -1.3385  0.9416
   96MOL0     H13237   2.740  10.170   0.492 -0.9191 -0.2660 -0.1645
   96MOL0     H13238   2.514  10.160   0.553  0.8673  0.4023 -2.0969
   96MOL0     H13239   2.539   9.999   0.619  1.2566 -0.1158 -0.1866
   96MOL0     H13240   2.567  10.075   0.316  0.9289 -1.0029  0.0248
   96MOL0     H13241   2.565   9.912   0.369  2.7170  1.0984 -1.2851
   96MOL0     H13242   2.330  10.106   0.359  1.1356 -0.0671 -0.7486
   96MOL0     H13243   2.322   9.964   0.472 -1.1968  1.1118 -0.0402
   96MOL0     H13244   2.275   9.822   0.072  1.1392  0.5878 -1.4391
   96MOL0     H13245   3.017   9.970   0.632 -2.2099  0.9021 -0.2159
   96MOL0     H13246   3.351  10.073   0.532 -0.6889 -0.4895 -1.6694
   96MOL0     H13247   3.241  10.022   0.664 -2.9005  3.0988 -0.3402
   96MOL0     H13248   3.330   9.908   0.568  0.6290  1.5763  2.0782
   97MOL0     O13249  10.775   1.104   7.164 -0.6197 -0.2223  0.0434
   97MOL0     C13250  10.754   0.997   7.112 -0.5705 -0.4245  0.3069
   97MOL0     O13251  10.853   0.908   7.075  0.9164 -0.2059  0.0338
   97MOL0     C13252  10.974   0.929   7.136 -0.2047 -0.1579  0.1147
   97MOL0     C13253  11.011   0.890   7.263  0.2094  0.6655 -0.2264
   97MOL0     C13254  11.135   0.924   7.311 -0.3371 -0.5717 -1.0909
   97MOL0     C13255  11.231   0.988   7.235 -1.3475 -0.4086 -0.5283
   97MOL0     O13256  11.359   1.008   7.278  0.2165 -0.0139  0.4392
   97MOL0     C13257  11.426   1.129   7.253  0.6647  0.4173 -0.8468
   97MOL0     C13258  11.562   1.136   7.319  0.7284  0.5573 -0.7030
   97MOL0     C13259  11.627   1.260   7.266 -0.4568 -0.1682 -0.7302
   97MOL0     C13260  11.748   1.292   7.362 -0.1674  0.0691 -0.2705
   97MOL0     C13261  11.838   1.395   7.300 -0.8454 -0.2044  0.1142
   97MOL0     C13262  11.977   1.379   7.366  0.4354  0.1425 -0.1993
   97MOL0     C13263  12.046   1.248   7.322 -0.7548  0.6838 -1.0188
   97MOL0     C13264  12.168   1.266   7.228 -0.1815  0.7343  0.2955
   97MOL0     N13265  12.115   1.326   7.097 -0.2723  0.3333 -1.1726
   97MOL0     C13266  12.029   1.262   7.007 -0.2638 -0.3047  0.4618
   97MOL0     C13267  11.990   1.362   6.920 -0.0880  0.1295 -0.0687
   97MOL0     C13268  11.900   1.359   6.802  0.2936  0.0969 -0.3512
   97MOL0     C13269  11.756   1.389   6.853  0.5274 -0.6006  0.8303
   97MOL0     C13270  11.720   1.542   6.853 -0.1110  0.8969 -0.4299
   97MOL0     C13271  11.588   1.572   6.908  1.1821 -0.5409 -0.1182
   97MOL0     O13272  11.499   1.454   6.911 -0.2046 -0.0870 -0.5578
   97MOL0     C13273  11.417   1.413   6.808  0.4301 -0.0569  0.2596
   97MOL0     C13274  11.422   1.479   6.683 -0.3680 -0.5971 -0.3244
   97MOL0     C13275  11.329   1.431   6.587 -0.1235 -0.0790  0.7383
   97MOL0     C13276  11.360   1.498   6.451 -1.0354  0.3153 -0.0196
   97MOL0     C13277  11.241   1.323   6.613 -0.2494 -0.2240 -0.5507
   97MOL0     C13278  11.145   1.254   6.519 -1.1066 -0.5411 -0.0085
   97MOL0     O13279  11.085   1.136   6.545 -0.0064  0.0236 -0.0104
   97MOL0     C13280  10.991   1.094   6.461  0.1673  0.7225  0.3842
   97MOL0     C13281  10.858   1.132   6.465  0.4879 -0.2136 -1.7903
   97MOL0     C13282  10.760   1.071   6.388 -0.9804  0.2768  0.4506
   97MOL0     C13283  10.784   0.964   6.303 -0.1981  0.2190 -0.8602
   97MOL0     O13284  10.680   0.910   6.232  0.0246 -0.9760  0.6482
   97MOL0     C13285  10.702   0.839   6.110 -0.4476  0.8630 -0.2705
   97MOL0     C13286  10.771   0.928   6.005  0.9075  0.2211  1.0477
   97MOL0     C13287  10.687   1.058   5.970  0.4139  0.7185 -0.9534
   97MOL0     C13288  10.707   1.098   5.830  0.5138 -0.3507 -0.5555
   97MOL0     C13289  10.640   1.236   5.786 -0.8800  0.7136 -0.5839
   97MOL0     C13290  10.657   1.257   5.635  0.3075 -0.3326  0.1020
   97MOL0     C13291  10.604   1.392   5.592  0.6146  0.0169 -0.1358
   97MOL0     C13292  10.619   1.415   5.444  0.0631 -0.4145 -0.3578
   97MOL0    Cl13293  10.780   1.493   5.415  0.4872  0.3619 -0.3788
   97MOL0     C13294  10.924   0.930   6.294  0.3881  0.1164 -0.1674
   97MOL0     C13295  11.023   0.989   6.372 -0.1895 -0.0943 -0.1695
   97MOL0     O13296  11.114   1.317   6.417 -0.4408 -0.8675  0.0223
   97MOL0     C13297  11.234   1.273   6.748 -0.1265  0.2591  0.9693
   97MOL0     C13298  11.320   1.316   6.840  0.4780  0.2862  0.0329
   97MOL0     N13299  12.041   1.478   6.978 -0.3720  0.0289  0.4610
   97MOL0     N13300  12.120   1.454   7.080 -0.9044  0.4261  0.5176
   97MOL0     C13301  11.199   1.028   7.104 -0.4201 -0.3822  0.2511
   97MOL0     C13302  11.069   0.999   7.055 -0.1983  1.0308 -0.3877
   97MOL0     C13303  10.618   0.955   7.072 -0.4599 -0.4723  0.5705
   97MOL0     C13304  10.581   0.942   6.941 -0.7090  0.8003 -0.8208
   97MOL0     C13305  10.445   0.914   6.906  1.0762  0.7078  0.1293
   97MOL0     C13306  10.357   0.891   7.011  0.2152  0.4192  0.5036
   97MOL0     O13307  10.219   0.883   6.983 -0.6224 -0.0763 -0.4010
   97MOL0     C13308  10.132   0.957   7.066 -0.0178 -0.5269 -0.1891
   97MOL0     C13309   9.994   0.949   7.004  0.1014  0.3111 -0.2556
   97MOL0     C13310   9.994   1.046   6.882  0.3455 -0.0404  0.7361
   97MOL0     C13311   9.844   1.037   6.832  0.5393  0.3467  0.0261
   97MOL0     C13312   9.835   1.134   6.726 -0.4453 -0.9000  0.7753
   97MOL0     C13313   9.855   1.208   6.632  0.4999  0.4736 -0.5014
   97MOL0     C13314  10.405   0.885   7.145 -0.8430  0.2413  0.4630
   97MOL0     C13315  10.532   0.929   7.175  0.3048  0.2549 -0.9174
   97MOL0     C13316  10.571   0.910   7.325 -0.2503  0.1010  0.0342
   97MOL0     H13317  10.937   0.833   7.319 -0.9212 -0.2387 -2.5113
   97MOL0     H13318  11.169   0.889   7.408  1.2581 -0.2981 -1.5268
   97MOL0     H13319  11.366   1.215   7.283  0.7622  0.7192 -1.5078
   97MOL0     H13320  11.455   1.131   7.148  1.4735  0.9044 -0.6225
   97MOL0     H13321  11.557   1.131   7.428  0.9412 -1.2085 -0.7375
   97MOL0     H13322  11.617   1.043   7.299  0.2079  0.2220 -0.5727
   97MOL0     H13323  11.655   1.236   7.163 -1.8244 -2.7503 -0.5918
   97MOL0     H13324  11.568   1.352   7.261  1.4646  1.0719 -2.7094
   97MOL0     H13325  11.708   1.325   7.458 -1.1150  0.7703 -0.8843
   97MOL0     H13326  11.800   1.197   7.373 -0.9504 -0.9154 -3.8910
   97MOL0     H13327  11.797   1.496   7.310 -0.4943  0.1007 -1.3774
   97MOL0     H13328  11.851   1.373   7.194 -0.5873 -1.3370  0.3634
   97MOL0     H13329  12.044   1.465   7.362  1.2579 -0.4360  0.5520
   97MOL0     H13330  11.958   1.369   7.473 -2.2650 -1.6326 -0.7480
   97MOL0     H13331  11.982   1.176   7.269  1.6697 -1.0744 -1.7723
   97MOL0     H13332  12.081   1.199   7.414 -0.4450  1.7555 -0.5593
   97MOL0     H13333  12.251   1.318   7.277 -0.1359  0.6465  0.3117
   97MOL0     H13334  12.217   1.172   7.204  1.0933  1.5029 -0.2539
   97MOL0     H13335  12.004   1.157   6.997  2.2925 -1.0263  1.0568
   97MOL0     H13336  11.894   1.264   6.746 -1.7058  1.3005 -2.3636
   97MOL0     H13337  11.922   1.431   6.723 -2.9068 -1.5550 -3.0125
   97MOL0     H13338  11.685   1.331   6.793  0.3327  0.5544 -0.0905
   97MOL0     H13339  11.748   1.350   6.955 -2.8727 -3.3721 -0.3025
   97MOL0     H13340  11.799   1.591   6.910 -0.5206  0.9308  0.1210
   97MOL0     H13341  11.717   1.579   6.750  0.2651 -0.6463 -1.0235
   97MOL0     H13342  11.599   1.582   7.016 -0.2652 -1.4676  0.1448
   97MOL0     H13343  11.535   1.654   6.857  2.2763  0.1330 -0.2008
   97MOL0     H13344  11.501   1.541   6.643 -1.4888 -0.2290 -2.1010
   97MOL0     H13345  11.282   1.511   6.375  0.6482  1.6597 -1.5957
   97MOL0     H13346  11.435   1.440   6.396 -0.0176  1.8713 -0.3404
   97MOL0     H13347  11.397   1.599   6.469 -0.8088  0.4500 -1.1969
   97MOL0     H13348  10.826   1.222   6.518 -2.7996 -2.3097  0.1123
   97MOL0     H13349  10.655   1.098   6.385 -0.2581  3.3594 -0.2011
   97MOL0     H13350  10.756   0.746   6.126 -1.1679  0.7415  1.6440
   97MOL0     H13351  10.604   0.806   6.074  0.0697  0.2338 -1.1535
   97MOL0     H13352  10.867   0.939   6.056 -0.4092  1.3825  3.4139
   97MOL0     H13353  10.774   0.886   5.904  0.4152  2.1759  0.1876
   97MOL0     H13354  10.699   1.147   6.033  3.3626  0.0945 -0.4922
   97MOL0     H13355  10.586   1.020   5.986  1.4893 -2.0869 -0.2760
   97MOL0     H13356  10.657   1.025   5.765 -1.2566  0.8144 -0.5505
   97MOL0     H13357  10.815   1.093   5.810  0.3458  0.3099 -1.7148
   97MOL0     H13358  10.534   1.245   5.812 -0.4757  0.2059  1.4158
   97MOL0     H13359  10.698   1.305   5.848  0.3795 -0.4516 -0.4259
   97MOL0     H13360  10.608   1.175   5.581  0.9003 -0.7890  0.2536
   97MOL0     H13361  10.760   1.245   5.599 -0.4066 -2.7427 -1.3711
   97MOL0     H13362  10.659   1.468   5.648  1.6983 -0.9210  0.1311
   97MOL0     H13363  10.497   1.406   5.611  0.2688  0.8315 -2.3941
   97MOL0     H13364  10.539   1.482   5.408 -0.1295 -0.3057  0.2714
   97MOL0     H13365  10.613   1.319   5.393  1.6236  0.0650 -1.5287
   97MOL0     H13366  10.958   0.858   6.220  0.4029 -0.7557  0.6636
   97MOL0     H13367  11.131   0.974   6.372 -0.0215  1.0298  0.2279
   97MOL0     H13368  11.157   1.203   6.779 -1.0715  0.4110 -0.8903
   97MOL0     H13369  11.312   1.284   6.944 -1.5423  2.4459  0.6125
   97MOL0     H13370  11.277   1.074   7.045  1.0963 -2.7755  0.2741
   97MOL0     H13371  11.060   1.042   6.956  1.8417  1.3335 -0.4915
   97MOL0     H13372  10.652   0.959   6.861 -0.1261  1.3168 -0.2051
   97MOL0     H13373  10.419   0.923   6.801 -0.1058  1.8028  0.4909
   97MOL0     H13374  10.104   0.918   7.164  0.4103  0.1003  0.1877
   97MOL0     H13375  10.157   1.062   7.079 -1.4492 -0.2017  0.0271
   97MOL0     H13376   9.911   0.984   7.067  0.2773  3.1840 -1.4648
   97MOL0     H13377   9.974   0.846   6.974 -2.6729  0.9777 -0.9860
   97MOL0     H13378  10.012   1.141   6.933 -0.4227 -0.1088  1.1437
   97MOL0     H13379  10.071   1.019   6.809 -0.7079 -0.3429 -0.2762
   97MOL0     H13380   9.759   1.045   6.901 -1.2268  0.5381 -2.0520
   97MOL0     H13381   9.815   0.942   6.786 -2.9850  1.0175  0.5376
   97MOL0     H13382   9.866   1.260   6.539  4.7165  3.0174  1.1383
   97MOL0     H13383  10.339   0.853   7.226  1.0135 -2.1336  1.1610
   97MOL0     H13384  10.652   0.837   7.330 -0.9712 -1.0202 -2.8344
   97MOL0     H13385  10.607   1.000   7.376  0.3443 -0.3602  0.4315
   97MOL0     H13386  10.486   0.881   7.388 -0.5731  0.3439 -0.2782
   98MOL0     O13387   3.733  10.464   4.692  0.6136  0.2665 -0.4438
   98MOL0     C13388   3.815  10.525   4.763 -0.4684  0.9786  0.0918
   98MOL0     O13389   3.811  10.536   4.900  0.1575 -0.4807  0.2556
   98MOL0     C13390   3.716  10.474   4.973 -1.2078  0.0998  0.2381
   98MOL0     C13391   3.575  10.485   4.939  0.3936 -0.7582 -0.1629
   98MOL0     C13392   3.473  10.431   5.028  0.0268 -0.2658  0.9030
   98MOL0     C13393   3.514  10.361   5.146 -0.2763  0.2323  0.0681
   98MOL0     O13394   3.429  10.305   5.240 -0.4523 -0.2193 -0.2442
   98MOL0     C13395   3.456  10.176   5.285  0.1891  0.8836 -0.1651
   98MOL0     C13396   3.332  10.098   5.261  0.5054 -0.2118  0.1481
   98MOL0     C13397   3.212  10.147   5.334 -0.0590 -0.3476 -0.4828
   98MOL0     C13398   3.101  10.042   5.325  0.0468 -0.3746 -1.0873
   98MOL0     C13399   2.981  10.076   5.418 -0.1274  0.3901  0.2965
   98MOL0     C13400   2.862   9.976   5.394 -0.4518  0.8452  0.4571
   98MOL0     C13401   2.735  10.042   5.443  0.2519 -0.5732  0.0115
   98MOL0     C13402   2.626   9.943   5.459  0.8015  0.1277 -0.3102
   98MOL0     N13403   2.508  10.018   5.514  0.2345 -0.1385 -0.4480
   98MOL0     C13404   2.419   9.980   5.614 -0.1494 -0.2406 -0.1876
   98MOL0     C13405   2.303  10.057   5.593  0.0608 -0.3109 -0.7458
   98MOL0     C13406   2.185  10.046   5.693 -0.0778 -0.3493 -0.1985
   98MOL0     C13407   2.113  10.176   5.732  0.2146 -0.0969 -0.4061
   98MOL0     C13408   2.075  10.275   5.613 -0.8336  0.2920  0.4003
   98MOL0     C13409   1.961  10.383   5.642 -0.0806 -1.1356  0.1598
   98MOL0     O13410   1.933  10.464   5.523  0.9388  0.1770  0.6176
   98MOL0     C13411   1.844  10.418   5.427 -0.4269  0.4497  1.1600
   98MOL0     C13412   1.801  10.498   5.329 -0.8290  0.2376  0.5059
   98MOL0     C13413   1.708  10.465   5.225 -0.2658  0.4161 -0.2206
   98MOL0     C13414   1.683  10.573   5.123  0.8072  0.8710  0.8929
   98MOL0     C13415   1.657  10.335   5.224  0.9799  0.5459  0.2517
   98MOL0     C13416   1.571  10.265   5.114  0.6420 -0.0059 -0.5496
   98MOL0     O13417   1.536  10.133   5.125 -0.3733 -0.7258  0.1869
   98MOL0     C13418   1.446  10.071   5.039  0.4856 -0.0355 -0.0637
   98MOL0     C13419   1.317  10.130   5.012 -0.3112 -0.1237 -0.6878
   98MOL0     C13420   1.239  10.055   4.930 -0.7698  0.3410  0.6157
   98MOL0     C13421   1.278   9.934   4.859 -0.4741  0.4381 -0.4544
   98MOL0     O13422   1.180   9.877   4.781  0.0823 -0.0164  0.7681
   98MOL0     C13423   1.139   9.745   4.819 -0.0187 -0.7139 -0.0822
   98MOL0     C13424   1.053   9.679   4.707 -0.3697 -1.1212 -0.2846
   98MOL0     C13425   1.127   9.678   4.578  0.1286 -0.3013 -0.2302
   98MOL0     C13426   1.068   9.569   4.478  0.1887  0.7314 -0.5089
   98MOL0     C13427   0.943   9.626   4.414 -0.0390  0.4872 -0.4227
   98MOL0     C13428   0.878   9.536   4.308 -0.2393  0.6806 -0.7006
   98MOL0     C13429   0.767   9.605   4.219 -0.5473  0.3602 -0.3245
   98MOL0     C13430   0.738   9.510   4.106  0.3173  0.5744  0.3551
   98MOL0    Cl13431   0.667   9.359   4.164  0.1067 -0.5917 -0.2296
   98MOL0     C13432   1.413   9.892   4.874  0.1966  1.4683 -0.4480
   98MOL0     C13433   1.494   9.962   4.965 -0.1629  0.4072  0.2696
   98MOL0     O13434   1.529  10.339   5.023  0.1046  0.0582  0.1808
   98MOL0     C13435   1.702  10.253   5.335  0.6380 -0.8352  0.0585
   98MOL0     C13436   1.790  10.293   5.435  0.2323 -0.2024  1.2684
   98MOL0     N13437   2.326  10.132   5.479  0.6690  0.4300  1.3269
   98MOL0     N13438   2.446  10.106   5.427  0.6542 -0.3036 -0.7003
   98MOL0     C13439   3.648  10.354   5.170 -1.1134 -1.0521 -0.1179
   98MOL0     C13440   3.753  10.402   5.090 -0.2153  0.5846  1.0051
   98MOL0     C13441   3.931  10.596   4.700  1.0586 -0.0597  0.3824
   98MOL0     C13442   4.010  10.677   4.780 -0.9806 -0.6931 -0.0604
   98MOL0     C13443   4.133  10.728   4.737 -0.6824  0.8956 -0.3188
   98MOL0     C13444   4.166  10.712   4.599 -0.4848 -0.8290 -0.5386
   98MOL0     O13445   4.293  10.749   4.550  0.3883  0.1269  0.1435
   98MOL0     C13446   4.399  10.789   4.635 -0.5301 -0.0914 -0.7223
   98MOL0     C13447   4.532  10.780   4.564  0.3537 -0.0053 -0.1727
   98MOL0     C13448   4.570  10.643   4.530 -0.6606 -0.1151  0.2385
   98MOL0     C13449   4.706  10.639   4.448 -0.4852  0.3511 -0.0249
   98MOL0     C13450   4.814  10.675   4.536  0.5234  0.4069  0.3006
   98MOL0     C13451   4.913  10.697   4.597 -0.3342  0.3111 -0.9845
   98MOL0     C13452   4.075  10.649   4.511 -0.2538 -0.2793 -0.4068
   98MOL0     C13453   3.955  10.597   4.559 -1.6338 -0.7700 -0.1332
   98MOL0     C13454   3.876  10.528   4.450 -0.1156 -0.6971 -0.3883
   98MOL0     H13455   3.535  10.530   4.848  1.3237  2.0314  0.7033
   98MOL0     H13456   3.372  10.421   4.990  1.1614  0.2397 -2.6402
   98MOL0     H13457   3.483  10.181   5.391  0.7274  1.5154 -0.3235
   98MOL0     H13458   3.535  10.131   5.225  1.0245 -0.5699  1.9357
   98MOL0     H13459   3.304  10.098   5.155  0.3092  0.2069  0.1982
   98MOL0     H13460   3.354   9.995   5.289  0.8757 -0.6058 -1.4974
   98MOL0     H13461   3.238  10.163   5.439 -1.0595 -0.1862 -0.2454
   98MOL0     H13462   3.167  10.236   5.289 -1.1316 -0.3375  0.5533
   98MOL0     H13463   3.062  10.027   5.224 -1.4133 -2.3752 -0.3068
   98MOL0     H13464   3.143   9.942   5.342  1.7189  0.7780  2.5579
   98MOL0     H13465   2.947  10.179   5.404 -1.1659  0.0082 -0.1142
   98MOL0     H13466   3.017  10.078   5.521 -0.4977  0.8150  0.4157
   98MOL0     H13467   2.853   9.947   5.289  0.8319 -1.1321  0.8453
   98MOL0     H13468   2.871   9.881   5.446 -1.4204  0.8286  0.6120
   98MOL0     H13469   2.709  10.130   5.383  0.3908  1.0334  2.1522
   98MOL0     H13470   2.760  10.078   5.544  0.9466  1.6195 -0.8880
   98MOL0     H13471   2.592   9.896   5.367 -2.1122  0.1583  0.6480
   98MOL0     H13472   2.646   9.861   5.529 -1.9457  1.1190  1.8522
   98MOL0     H13473   2.442   9.915   5.698 -2.5343  0.5904  1.2010
   98MOL0     H13474   2.233  10.014   5.786  2.4353 -0.4473 -1.4553
   98MOL0     H13475   2.116   9.964   5.675 -1.3354  0.7464 -0.5094
   98MOL0     H13476   2.025  10.151   5.791  0.1043  2.1308  0.4722
   98MOL0     H13477   2.177  10.239   5.795 -1.6847  0.7498  0.7683
   98MOL0     H13478   2.169  10.327   5.593 -2.1895  2.4757 -0.6805
   98MOL0     H13479   2.038  10.218   5.527 -0.1139  1.7579 -0.9405
   98MOL0     H13480   1.881  10.320   5.682 -0.3713 -1.5246 -0.9764
   98MOL0     H13481   1.995  10.456   5.715 -2.6571 -0.4742  0.8135
   98MOL0     H13482   1.833  10.602   5.335  0.4745 -0.2128  3.9287
   98MOL0     H13483   1.575  10.570   5.106  1.2177 -0.9204 -1.9926
   98MOL0     H13484   1.739  10.549   5.033 -0.5696  0.9810 -0.0244
   98MOL0     H13485   1.710  10.676   5.148  1.7981  0.7469  0.3706
   98MOL0     H13486   1.272  10.217   5.056  2.7694  2.8018 -2.7842
   98MOL0     H13487   1.136  10.087   4.915 -0.1055  2.0705 -0.5559
   98MOL0     H13488   1.225   9.679   4.839 -1.3642 -2.6196 -0.2969
   98MOL0     H13489   1.085   9.740   4.914  1.1293  1.5237  0.7644
   98MOL0     H13490   1.038   9.577   4.744  0.6299 -0.8712  0.8421
   98MOL0     H13491   0.959   9.734   4.691 -1.3910 -2.7326 -0.0300
   98MOL0     H13492   1.232   9.657   4.602  0.1193 -2.5781 -1.8376
   98MOL0     H13493   1.119   9.778   4.536 -0.9161  0.3671  1.4414
   98MOL0     H13494   1.034   9.479   4.529 -1.7867  0.4677 -2.1562
   98MOL0     H13495   1.135   9.543   4.395 -2.5093 -1.2252 -2.2391
   98MOL0     H13496   0.870   9.664   4.486 -1.7106  0.8137 -2.1882
   98MOL0     H13497   0.973   9.719   4.364 -0.5871  0.8869 -0.0159
   98MOL0     H13498   0.827   9.453   4.357 -2.9684  0.3416 -3.8281
   98MOL0     H13499   0.958   9.504   4.239  0.2578 -1.7808  0.8763
   98MOL0     H13500   0.805   9.700   4.179 -2.4914  1.9680  1.4246
   98MOL0     H13501   0.673   9.619   4.273 -0.8740 -3.2217  0.2905
   98MOL0     H13502   0.834   9.486   4.059 -0.6407 -3.0121 -0.1161
   98MOL0     H13503   0.674   9.547   4.025  0.4265 -3.1775 -1.6793
   98MOL0     H13504   1.446   9.800   4.826 -1.1206  0.3977  0.6389
   98MOL0     H13505   1.596   9.936   4.991 -0.6857 -1.2126  0.8123
   98MOL0     H13506   1.659  10.154   5.337 -2.5686  0.4353  0.5002
   98MOL0     H13507   1.814  10.211   5.503 -0.2045 -1.5078 -0.1045
   98MOL0     H13508   3.668  10.311   5.268  1.7941  0.6663  0.1631
   98MOL0     H13509   3.856  10.378   5.116 -0.4038 -0.5438  0.7773
   98MOL0     H13510   3.993  10.694   4.886  3.2347  3.5106  0.2821
   98MOL0     H13511   4.193  10.790   4.802  0.9178 -2.0753  1.2608
   98MOL0     H13512   4.364  10.888   4.667 -0.3097 -0.9419  2.5935
   98MOL0     H13513   4.405  10.729   4.727 -1.4508 -1.0577 -1.2670
   98MOL0     H13514   4.611  10.806   4.635  3.5848 -0.6919 -3.2092
   98MOL0     H13515   4.544  10.844   4.477  1.5178  1.3629  0.9562
   98MOL0     H13516   4.584  10.585   4.622 -2.0501 -1.6814 -0.4662
   98MOL0     H13517   4.490  10.597   4.473  0.6388 -1.1180 -0.8456
   98MOL0     H13518   4.706  10.713   4.367  2.1759 -1.3691 -1.7564
   98MOL0     H13519   4.733  10.543   4.403  0.7300  0.7095 -0.1080
   98MOL0     H13520   5.001  10.733   4.646 -1.1949  0.6882  0.3452
   98MOL0     H13521   4.109  10.655   4.409 -0.6126  0.8352 -0.4803
   98MOL0     H13522   3.861  10.421   4.467 -0.3281 -0.0625  5.4955
   98MOL0     H13523   3.776  10.571   4.460  0.4050  0.0468  2.4874
   98MOL0     H13524   3.918  10.542   4.350  1.2874  4.2533  0.6056
   99MOL0     O13525   5.690  11.148   7.238  0.3942  0.5904 -0.3617
   99MOL0     C13526   5.659  11.050   7.304  0.7309  0.5806  1.4344
   99MOL0     O13527   5.749  10.985   7.388  0.5259  0.1991  0.8178
   99MOL0     C13528   5.886  11.008   7.377  0.6280  0.9908 -0.7750
   99MOL0     C13529   5.943  11.131   7.403 -0.2820 -0.0591  0.5214
   99MOL0     C13530   6.075  11.152   7.373 -0.4264 -0.7916  0.0062
   99MOL0     C13531   6.155  11.050   7.320 -0.7235 -1.1200  0.0558
   99MOL0     O13532   6.292  11.082   7.299  0.5704  0.9796  0.3683
   99MOL0     C13533   6.377  10.990   7.369  0.0619 -0.2287  0.1497
   99MOL0     C13534   6.520  11.041   7.378 -0.1379 -0.8579  0.4701
   99MOL0     C13535   6.622  10.933   7.412  1.0758  0.2545 -0.2836
   99MOL0     C13536   6.667  10.860   7.296  0.8982  0.3552  0.1153
   99MOL0     C13537   6.819  10.862   7.260 -1.5861  0.0987 -0.3036
   99MOL0     C13538   6.890  10.998   7.244 -0.7574  0.2514  0.3398
   99MOL0     C13539   6.848  11.080   7.128  0.4297 -0.2088  0.3133
   99MOL0     C13540   6.899  11.022   7.001 -0.3768 -0.9695 -0.4280
   99MOL0     N13541   6.862  11.107   6.881 -0.3228  0.7297 -0.0507
   99MOL0     C13542   6.931  11.113   6.762 -0.5994  0.0212 -0.7238
   99MOL0     C13543   6.883  11.216   6.693 -0.1175 -1.0791  0.3243
   99MOL0     C13544   6.941  11.276   6.564 -0.3478 -0.1334 -0.6198
   99MOL0     C13545   6.865  11.259   6.429  0.6192  0.2993 -0.1827
   99MOL0     C13546   6.941  11.301   6.302 -0.3597 -0.0550 -0.5361
   99MOL0     C13547   6.847  11.307   6.187 -0.1435 -0.3645 -0.1536
   99MOL0     O13548   6.784  11.186   6.155 -0.6276  0.6644  0.4867
   99MOL0     C13549   6.669  11.168   6.083 -0.1401  0.3960 -0.6286
   99MOL0     C13550   6.587  11.048   6.088  0.2685 -0.2959 -0.3111
   99MOL0     C13551   6.460  11.039   6.020 -0.7073  0.9456  1.4446
   99MOL0     C13552   6.378  10.914   6.031 -0.5157 -0.0795  0.1344
   99MOL0     C13553   6.422  11.154   5.947  1.0528  0.9327 -0.6327
   99MOL0     C13554   6.289  11.149   5.893  0.4589 -0.2662  0.9693
   99MOL0     O13555   6.288  11.142   5.762  0.5101 -0.1050  0.0499
   99MOL0     C13556   6.173  11.146   5.683 -0.1568 -0.7459 -1.0032
   99MOL0     C13557   6.190  11.200   5.554  1.3017  0.0220  0.9804
   99MOL0     C13558   6.072  11.217   5.469 -0.7345  0.5254  0.0348
   99MOL0     C13559   5.952  11.164   5.500 -0.1130  1.0374 -0.4950
   99MOL0     O13560   5.845  11.180   5.422 -0.3207  0.2519  0.5114
   99MOL0     C13561   5.710  11.185   5.477  0.0975 -0.8092  0.6685
   99MOL0     C13562   5.619  11.213   5.359 -0.2318 -0.3035 -0.4136
   99MOL0     C13563   5.465  11.225   5.384 -0.4249 -0.6516 -0.4044
   99MOL0     C13564   5.411  11.145   5.265  0.6727 -0.2647 -0.6702
   99MOL0     C13565   5.261  11.152   5.266  0.2449 -0.0307  0.4013
   99MOL0     C13566   5.202  11.283   5.228 -0.3431  0.2326 -0.3180
   99MOL0     C13567   5.056  11.297   5.218 -0.0732 -0.1028 -0.4231
   99MOL0     C13568   4.978  11.256   5.343 -0.4682 -0.0822 -0.1614
   99MOL0    Cl13569   4.811  11.323   5.324 -0.0351 -0.0041  0.1713
   99MOL0     C13570   5.938  11.098   5.625 -0.8390  1.1106 -0.2441
   99MOL0     C13571   6.047  11.091   5.721 -0.1586 -0.0644  0.3127
   99MOL0     O13572   6.194  11.169   5.965 -0.2251 -0.0271 -0.3616
   99MOL0     C13573   6.492  11.277   5.949 -0.7569 -0.3308 -0.6133
   99MOL0     C13574   6.621  11.278   6.011 -0.4342 -0.1855 -0.3835
   99MOL0     N13575   6.774  11.260   6.760  0.8291 -0.0905 -0.3320
   99MOL0     N13576   6.765  11.192   6.871  0.3797 -0.0672 -0.1361
   99MOL0     C13577   6.102  10.927   7.308  0.5714 -0.0365  0.2922
   99MOL0     C13578   5.973  10.899   7.339  1.3193  0.0412  0.1057
   99MOL0     C13579   5.529  10.984   7.294 -0.4256 -0.1793  0.5600
   99MOL0     C13580   5.505  10.861   7.361 -0.0236  0.0258  0.2195
   99MOL0     C13581   5.381  10.795   7.358  0.1019  0.5824 -0.0052
   99MOL0     C13582   5.266  10.852   7.293 -0.6595  0.0013 -0.5812
   99MOL0     O13583   5.139  10.816   7.300  0.4653  0.3162  0.5752
   99MOL0     C13584   5.101  10.709   7.389 -0.1766  0.2307  0.1201
   99MOL0     C13585   5.112  10.771   7.527  0.0618  0.1257 -0.0636
   99MOL0     C13586   5.020  10.707   7.625  0.5923  0.8105  0.0124
   99MOL0     C13587   4.891  10.764   7.601  0.0310 -0.0951 -0.0605
   99MOL0     C13588   4.810  10.746   7.724 -0.5797  0.0240 -0.7368
   99MOL0     C13589   4.744  10.714   7.826 -0.9136  0.1253  0.8808
   99MOL0     C13590   5.288  10.970   7.224  0.4239  0.8458  0.2603
   99MOL0     C13591   5.408  11.047   7.229  0.1365  0.9786 -0.1512
   99MOL0     C13592   5.408  11.169   7.146  0.7347  0.6601 -0.6081
   99MOL0     H13593   5.875  11.203   7.447  1.3570  1.8673  0.0793
   99MOL0     H13594   6.118  11.248   7.398 -0.3018 -0.5597 -1.0479
   99MOL0     H13595   6.365  10.890   7.327 -0.4585  0.0340 -0.3479
   99MOL0     H13596   6.338  10.979   7.471 -0.9453 -1.7546 -0.3636
   99MOL0     H13597   6.543  11.100   7.289 -1.9320 -1.1750 -0.2527
   99MOL0     H13598   6.523  11.107   7.465 -0.5320 -0.5849  0.2795
   99MOL0     H13599   6.703  10.966   7.478  1.4077 -1.5102  0.2493
   99MOL0     H13600   6.571  10.858   7.474  1.0083  1.1671  0.7927
   99MOL0     H13601   6.653  10.752   7.307 -0.8313  0.6044  0.6305
   99MOL0     H13602   6.605  10.887   7.210  1.0880 -0.8520 -0.4124
   99MOL0     H13603   6.841  10.813   7.165  0.3134 -1.2932  0.8013
   99MOL0     H13604   6.886  10.812   7.330  0.5153  0.3671 -2.0153
   99MOL0     H13605   6.865  11.066   7.326 -1.9958  0.3143 -0.0711
   99MOL0     H13606   6.998  10.981   7.236 -0.8780 -0.6456  0.5639
   99MOL0     H13607   6.890  11.180   7.141 -0.8316  0.2938  0.6922
   99MOL0     H13608   6.740  11.096   7.123 -0.4252 -4.3213  1.8083
   99MOL0     H13609   7.009  11.020   7.001 -0.2716  0.1138 -3.1392
   99MOL0     H13610   6.861  10.921   6.983 -1.8424 -0.6232  0.5598
   99MOL0     H13611   7.026  11.069   6.733 -0.4657 -0.2658  0.1321
   99MOL0     H13612   7.044  11.239   6.556  0.1971  1.0992  0.3327
   99MOL0     H13613   6.941  11.385   6.572  0.7862 -0.0082 -2.0196
   99MOL0     H13614   6.842  11.154   6.411  2.5842 -0.8286  3.0773
   99MOL0     H13615   6.767  11.301   6.452  0.0554 -2.3907  3.0042
   99MOL0     H13616   6.985  11.399   6.317  3.1149 -1.3499 -1.2001
   99MOL0     H13617   7.035  11.245   6.290  0.3140  0.7844  0.6097
   99MOL0     H13618   6.774  11.384   6.215 -1.7655 -1.5340 -0.9949
   99MOL0     H13619   6.903  11.349   6.103  1.4571  2.8302  2.2555
   99MOL0     H13620   6.641  10.971   6.142  1.3840 -1.5354 -3.0125
   99MOL0     H13621   6.334  10.903   5.931  1.0736 -0.4426 -0.5510
   99MOL0     H13622   6.303  10.926   6.109  1.1840 -1.2951  2.0520
   99MOL0     H13623   6.436  10.824   6.051  2.2022  2.0577  2.9399
   99MOL0     H13624   6.285  11.227   5.508  0.3447 -0.1527 -1.2151
   99MOL0     H13625   6.088  11.250   5.367  3.6568 -0.0928  0.3518
   99MOL0     H13626   5.658  11.094   5.506 -2.3717 -0.4631 -2.1580
   99MOL0     H13627   5.695  11.268   5.546 -0.2716  0.4983 -0.9153
   99MOL0     H13628   5.647  11.303   5.304  1.8474  0.3184  1.5045
   99MOL0     H13629   5.638  11.124   5.297  0.3257 -1.5381  1.4478
   99MOL0     H13630   5.431  11.329   5.373  0.7525 -0.1273  0.7150
   99MOL0     H13631   5.442  11.187   5.484  5.0718 -1.8333  0.7126
   99MOL0     H13632   5.442  11.041   5.278  1.5249  0.1680  0.9199
   99MOL0     H13633   5.449  11.192   5.173 -0.8094  3.3698  0.4014
   99MOL0     H13634   5.226  11.072   5.199 -0.3585  1.4847 -1.1529
   99MOL0     H13635   5.222  11.128   5.365 -1.7195  2.5777  0.3480
   99MOL0     H13636   5.242  11.309   5.129  1.7505  1.1085  0.6849
   99MOL0     H13637   5.231  11.371   5.286 -0.3855  0.5590 -0.7732
   99MOL0     H13638   5.029  11.237   5.131 -1.9077 -0.1934  0.1658
   99MOL0     H13639   5.033  11.403   5.198 -0.1279 -0.2925 -1.4026
   99MOL0     H13640   5.018  11.301   5.434 -3.0105  0.9082  0.5574
   99MOL0     H13641   4.973  11.147   5.349  0.3508 -0.1874 -1.2022
   99MOL0     H13642   5.856  11.032   5.652  0.4620  0.1982  1.6942
   99MOL0     H13643   6.051  11.036   5.815 -0.3013 -0.1510  0.2676
   99MOL0     H13644   6.451  11.367   5.904  2.1440  1.4442  0.0129
   99MOL0     H13645   6.680  11.369   6.006 -0.3504 -0.1531  0.9845
   99MOL0     H13646   6.162  10.841   7.280  1.0792  0.1979  0.6560
   99MOL0     H13647   5.939  10.799   7.316  3.0407 -0.1507 -1.9168
   99MOL0     H13648   5.586  10.822   7.422  0.0222  1.0125  0.8071
   99MOL0     H13649   5.374  10.705   7.419 -0.2809  1.2276  0.9235
   99MOL0     H13650   5.001  10.679   7.356 -0.7882  0.2008  1.9060
   99MOL0     H13651   5.175  10.629   7.374 -2.4837 -1.8970 -0.6129
   99MOL0     H13652   5.098  10.878   7.506  0.1005 -0.3446 -2.8091
   99MOL0     H13653   5.212  10.740   7.561 -0.9469 -3.1391  0.1739
   99MOL0     H13654   5.019  10.599   7.609  0.3612  0.6649  0.9509
   99MOL0     H13655   5.061  10.734   7.723  1.1748  0.6765 -0.1897
   99MOL0     H13656   4.833  10.713   7.523 -2.4092  3.0430 -0.4828
   99MOL0     H13657   4.882  10.871   7.580 -0.6705 -0.7219 -3.5376
   99MOL0     H13658   4.677  10.698   7.909 -0.2623 -0.7424  1.2521
   99MOL0     H13659   5.204  10.991   7.157 -1.9316 -2.6682  1.7917
   99MOL0     H13660   5.324  11.233   7.175  1.1611  0.4321  1.2694
   99MOL0     H13661   5.496  11.229   7.168  0.0529  1.6279 -0.4411
   99MOL0     H13662   5.397  11.156   7.038 -0.5685  0.3154 -0.4518
  100MOL0     O13663   1.553   4.425   8.244 -0.2640 -0.1031 -0.3997
  100MOL0     C13664   1.523   4.507   8.330 -1.2073  0.0325 -0.2410
  100MOL0     O13665   1.403   4.524   8.393  0.3875 -0.4671 -0.8135
  100MOL0     C13666   1.317   4.415   8.399  0.7296  0.8327 -0.4756
  100MOL0     C13667   1.359   4.283   8.430 -1.1588 -0.7232  0.5761
  100MOL0     C13668   1.263   4.180   8.447 -0.0302 -0.6117 -0.1901
  100MOL0     C13669   1.125   4.216   8.430 -0.6159  0.7154  0.4789
  100MOL0     O13670   1.037   4.111   8.441 -0.0657  0.0756  0.4200
  100MOL0     C13671   0.959   4.092   8.323 -0.1270  1.0112  0.3413
  100MOL0     C13672   0.911   3.947   8.345 -0.4875 -0.0601 -0.0414
  100MOL0     C13673   0.763   3.921   8.398 -0.6911  0.5430  0.3394
  100MOL0     C13674   0.660   3.906   8.279 -0.0844 -0.3935  0.1850
  100MOL0     C13675   0.518   3.917   8.336  0.4908  0.0730 -0.4047
  100MOL0     C13676   0.411   3.973   8.239  0.0300  1.1668  0.0081
  100MOL0     C13677   0.287   4.025   8.301 -0.2251  0.0843 -0.0648
  100MOL0     C13678   0.238   4.153   8.218 -0.3859  0.1733 -0.1020
  100MOL0     N13679   0.339   4.259   8.212  0.5280  0.4205  0.3341
  100MOL0     C13680   0.415   4.317   8.309  1.1770  0.0175  0.5384
  100MOL0     C13681   0.450   4.443   8.265 -0.6031 -0.5735 -0.6210
  100MOL0     C13682   0.538   4.549   8.344  0.1456 -0.8426  0.2720
  100MOL0     C13683   0.675   4.586   8.286 -0.1272  0.4962  0.1322
  100MOL0     C13684   0.766   4.637   8.401 -0.4591  0.3945 -0.1463
  100MOL0     C13685   0.895   4.692   8.343  0.3783  0.2264 -0.8425
  100MOL0     O13686   0.976   4.726   8.460  0.5262  0.1777  0.6814
  100MOL0     C13687   1.075   4.820   8.444  1.0799 -0.7680  0.6779
  100MOL0     C13688   1.149   4.849   8.329  1.2411  0.3508  0.0127
  100MOL0     C13689   1.234   4.957   8.326 -0.4898  0.5609  0.1434
  100MOL0     C13690   1.277   4.999   8.189 -0.3363  0.7586  0.1447
  100MOL0     C13691   1.280   5.019   8.444 -0.2810  0.5107 -0.3454
  100MOL0     C13692   1.395   5.111   8.459  0.3559 -0.0876  0.0984
  100MOL0     O13693   1.425   5.174   8.340 -0.7053 -0.1709  0.3018
  100MOL0     C13694   1.513   5.281   8.347  0.5589  0.7990  0.0717
  100MOL0     C13695   1.497   5.387   8.432 -0.1039  0.1037 -0.6054
  100MOL0     C13696   1.585   5.491   8.424  0.0910 -0.7168  1.1921
  100MOL0     C13697   1.673   5.509   8.318 -0.1500  0.6720 -0.9105
  100MOL0     O13698   1.757   5.608   8.287  0.3449 -0.6649  0.1330
  100MOL0     C13699   1.815   5.684   8.396 -0.0456  0.7687  0.1570
  100MOL0     C13700   1.819   5.829   8.354  0.6480 -0.4367  1.1178
  100MOL0     C13701   1.702   5.908   8.403 -0.9481  0.0021  0.2759
  100MOL0     C13702   1.564   5.886   8.342 -0.0762  1.2741  0.6279
  100MOL0     C13703   1.456   5.863   8.455 -0.0758  0.8365  0.0576
  100MOL0     C13704   1.317   5.831   8.398  0.2234  0.1009 -0.7276
  100MOL0     C13705   1.258   5.957   8.343 -0.1043 -0.4022  0.1272
  100MOL0     C13706   1.112   5.948   8.313 -0.2525  0.2039 -0.0720
  100MOL0    Cl13707   1.033   5.982   8.470 -0.0396 -0.1613 -0.2693
  100MOL0     C13708   1.685   5.401   8.228 -0.4415 -0.4202  0.4525
  100MOL0     C13709   1.604   5.286   8.239 -0.4374  0.7745  0.6544
  100MOL0     O13710   1.454   5.125   8.565 -0.0623 -0.4162  0.2868
  100MOL0     C13711   1.218   4.978   8.564 -0.9078 -0.0531  0.4978
  100MOL0     C13712   1.121   4.882   8.559 -0.0834  0.1609 -0.1429
  100MOL0     N13713   0.397   4.463   8.142 -0.3391 -0.3272 -0.2251
  100MOL0     N13714   0.317   4.359   8.121 -0.3993 -0.3147 -0.6729
  100MOL0     C13715   1.091   4.346   8.402  0.2471  0.2510 -0.5354
  100MOL0     C13716   1.187   4.445   8.390 -0.6937 -1.0108 -1.6291
  100MOL0     C13717   1.619   4.618   8.357 -0.0964  0.0186  0.6869
  100MOL0     C13718   1.559   4.733   8.393 -0.5391 -0.2744 -0.2291
  100MOL0     C13719   1.643   4.837   8.428  0.7296  0.0975  0.4068
  100MOL0     C13720   1.786   4.829   8.413 -0.4042 -0.1630  0.1211
  100MOL0     O13721   1.873   4.929   8.432  0.4872  0.1292 -0.0487
  100MOL0     C13722   1.853   5.019   8.538 -0.4621 -0.3861 -0.5699
  100MOL0     C13723   1.855   5.168   8.500  0.1406  0.2017  0.4579
  100MOL0     C13724   1.998   5.221   8.467  0.2054 -0.8731 -0.0660
  100MOL0     C13725   2.045   5.326   8.577 -1.2227  0.4218 -0.7174
  100MOL0     C13726   2.051   5.261   8.707 -0.2245 -0.0916 -0.4144
  100MOL0     C13727   2.061   5.214   8.820 -0.3199 -0.2254 -0.3562
  100MOL0     C13728   1.840   4.711   8.360  0.6688  0.0414  0.8097
  100MOL0     C13729   1.765   4.602   8.342  0.8889  0.5279  0.2471
  100MOL0     C13730   1.839   4.473   8.291  0.0359 -0.1488 -0.2456
  100MOL0     H13731   1.464   4.254   8.432 -0.5731  1.2547  1.3441
  100MOL0     H13732   1.297   4.078   8.458 -0.7826 -0.9594 -0.9857
  100MOL0     H13733   1.022   4.100   8.234  1.3935 -0.4433  1.2383
  100MOL0     H13734   0.876   4.163   8.317  1.4845  3.0041  0.3169
  100MOL0     H13735   0.932   3.893   8.252  3.0627  0.7911  0.1153
  100MOL0     H13736   0.971   3.889   8.415 -1.2412 -1.8825 -0.8367
  100MOL0     H13737   0.749   3.832   8.459  0.7264 -0.9198 -1.3437
  100MOL0     H13738   0.753   4.011   8.459  0.4522  1.6517 -1.0470
  100MOL0     H13739   0.677   3.997   8.221  1.3769  0.7278  2.2097
  100MOL0     H13740   0.676   3.813   8.224  1.3206  0.1733 -0.4078
  100MOL0     H13741   0.526   3.980   8.425 -1.1081  0.4142 -0.4800
  100MOL0     H13742   0.487   3.818   8.368 -1.8083  1.4675  2.1146
  100MOL0     H13743   0.459   4.057   8.187  0.9472  0.7087  0.0890
  100MOL0     H13744   0.383   3.893   8.171  0.4635  0.4519  0.6431
  100MOL0     H13745   0.302   4.056   8.404 -1.8336  0.2288  0.1547
  100MOL0     H13746   0.213   3.946   8.309 -1.7462  1.6200  2.0644
  100MOL0     H13747   0.212   4.129   8.115  0.4273  2.5195 -0.9183
  100MOL0     H13748   0.157   4.190   8.282 -0.6088  0.6663 -0.6604
  100MOL0     H13749   0.454   4.266   8.397  2.2372 -0.4932 -0.2085
  100MOL0     H13750   0.562   4.508   8.443 -1.9210 -1.5215  0.5489
  100MOL0     H13751   0.483   4.641   8.366  1.2090  0.4493 -2.0813
  100MOL0     H13752   0.729   4.499   8.246  0.0254  1.8735 -2.9827
  100MOL0     H13753   0.659   4.650   8.199  0.6162  0.8766  0.2606
  100MOL0     H13754   0.715   4.707   8.468 -0.2667  1.8478 -1.4603
  100MOL0     H13755   0.797   4.552   8.464  0.7168  0.2824 -0.8430
  100MOL0     H13756   0.941   4.612   8.285 -1.5108 -1.3779 -0.2300
  100MOL0     H13757   0.870   4.778   8.281 -2.4530  2.8508  3.3792
  100MOL0     H13758   1.138   4.781   8.245 -1.7591  0.0698  0.5092
  100MOL0     H13759   1.229   4.948   8.105 -1.1344  3.0825 -0.8975
  100MOL0     H13760   1.380   4.966   8.177 -0.9582 -1.3171 -0.0598
  100MOL0     H13761   1.271   5.106   8.168 -1.3584  1.0479  1.6941
  100MOL0     H13762   1.423   5.374   8.510  1.7383  3.2716  1.8960
  100MOL0     H13763   1.573   5.581   8.482  1.0672 -1.4702  2.6117
  100MOL0     H13764   1.748   5.679   8.482 -0.2665  2.0394  0.0775
  100MOL0     H13765   1.905   5.629   8.422  0.1033  0.1731 -1.4774
  100MOL0     H13766   1.906   5.878   8.399  0.5361 -0.6641  1.5811
  100MOL0     H13767   1.839   5.843   8.247  0.3630  2.1748  1.3221
  100MOL0     H13768   1.723   6.013   8.386 -3.1156  0.1708 -1.8895
  100MOL0     H13769   1.704   5.896   8.512  1.6594 -0.7830  0.2034
  100MOL0     H13770   1.558   5.798   8.277  0.9871  1.0986  0.7511
  100MOL0     H13771   1.542   5.962   8.266 -2.1048  2.2197  2.0597
  100MOL0     H13772   1.498   5.792   8.526 -0.0343  1.8926  1.1137
  100MOL0     H13773   1.460   5.952   8.519  2.1666  0.6909  0.1944
  100MOL0     H13774   1.241   5.788   8.464 -1.3667  2.4070 -0.9442
  100MOL0     H13775   1.330   5.753   8.322  2.2868  0.3628 -0.7024
  100MOL0     H13776   1.311   5.980   8.250 -0.1273  2.5923  0.7367
  100MOL0     H13777   1.273   6.044   8.407 -4.6580 -0.6066  1.8541
  100MOL0     H13778   1.094   5.851   8.266  0.0837  1.1521 -2.3115
  100MOL0     H13779   1.080   6.024   8.241  0.3014 -0.2636 -0.8231
  100MOL0     H13780   1.761   5.409   8.151  2.0261  0.5725  2.8509
  100MOL0     H13781   1.608   5.203   8.169  0.4939  1.0791  0.3451
  100MOL0     H13782   1.247   5.023   8.658  0.4550 -0.6975  0.4124
  100MOL0     H13783   1.081   4.857   8.657  0.8868  1.8560  0.7462
  100MOL0     H13784   0.993   4.389   8.384  1.0841  2.4534 -0.1823
  100MOL0     H13785   1.155   4.545   8.363 -2.3243 -0.4655  1.7532
  100MOL0     H13786   1.456   4.745   8.425 -0.4404 -1.1351  0.4522
  100MOL0     H13787   1.602   4.930   8.466  2.1463  0.0276  2.2938
  100MOL0     H13788   1.759   4.998   8.590 -0.8370  0.2635 -0.9700
  100MOL0     H13789   1.935   4.994   8.607 -0.8715 -2.7443 -0.8561
  100MOL0     H13790   1.809   5.232   8.575 -2.2972 -1.9588  0.9221
  100MOL0     H13791   1.792   5.182   8.412  0.0114  1.4191  0.7235
  100MOL0     H13792   2.071   5.142   8.446  1.0913 -0.2282  0.5386
  100MOL0     H13793   1.992   5.274   8.371 -1.6086 -2.1616 -0.7088
  100MOL0     H13794   1.976   5.410   8.590 -1.2477  0.2215  0.5663
  100MOL0     H13795   2.146   5.353   8.542  0.4406  0.3850  3.4658
  100MOL0     H13796   2.048   5.184   8.922  0.3045 -0.0236 -0.2093
  100MOL0     H13797   1.947   4.708   8.339  0.4168 -0.6140 -0.5149
  100MOL0     H13798   1.947   4.487   8.300  0.0123 -0.4448  0.5629
  100MOL0     H13799   1.818   4.385   8.352  1.2031 -2.0406 -2.4109
  100MOL0     H13800   1.807   4.449   8.189 -1.7833 -1.6487  0.6249
  101MOL0     O13801   6.009   7.738   7.409  0.1650  0.5039  0.0771
  101MOL0     C13802   6.041   7.703   7.523  0.8056 -0.3576  0.6204
  101MOL0     O13803   6.014   7.585   7.575 -0.5949  0.6528 -0.4560
  101MOL0     C13804   5.950   7.477   7.510 -0.0095 -0.0963 -0.5618
  101MOL0     C13805   5.896   7.472   7.377  0.0473  0.5479 -0.0654
  101MOL0     C13806   5.830   7.355   7.327  0.6952 -0.2216 -0.1953
  101MOL0     C13807   5.811   7.236   7.401 -0.1909  0.2594 -0.2752
  101MOL0     O13808   5.754   7.125   7.340 -0.0451 -0.1986 -0.0109
  101MOL0     C13809   5.858   7.057   7.268  0.1506  0.3026 -1.0840
  101MOL0     C13810   5.793   6.987   7.151  0.3790 -0.7378  0.2897
  101MOL0     C13811   5.883   6.893   7.078  0.2818  0.3522  0.1358
  101MOL0     C13812   5.998   6.966   7.002 -0.1298 -0.6102 -0.3770
  101MOL0     C13813   6.059   6.908   6.878 -0.1536  0.4982  0.5834
  101MOL0     C13814   6.089   7.017   6.763 -0.8350 -0.1433 -0.1559
  101MOL0     C13815   6.141   6.954   6.635 -0.5178  0.0696 -0.8613
  101MOL0     C13816   6.190   7.055   6.520 -0.0217 -0.3104 -0.1466
  101MOL0     N13817   6.248   7.179   6.557 -0.0192 -0.1870  0.1534
  101MOL0     C13818   6.179   7.288   6.612  0.1480  0.6454  0.9536
  101MOL0     C13819   6.270   7.375   6.639 -0.3086 -0.3087  0.7770
  101MOL0     C13820   6.257   7.505   6.714  0.0748  0.1678  0.2244
  101MOL0     C13821   6.298   7.633   6.644 -0.5043  1.1054 -0.5670
  101MOL0     C13822   6.189   7.679   6.546  0.8430 -0.0225 -0.4171
  101MOL0     C13823   6.254   7.787   6.459  0.3828 -0.7426  0.1726
  101MOL0     O13824   6.213   7.915   6.513  0.1889  0.1278  0.1855
  101MOL0     C13825   6.318   7.981   6.576 -1.4270 -0.0704  0.7424
  101MOL0     C13826   6.421   8.043   6.504  0.3338 -0.0298 -0.6481
  101MOL0     C13827   6.535   8.095   6.570 -0.1813 -0.5125 -0.3126
  101MOL0     C13828   6.649   8.146   6.482 -0.8887 -0.5680 -0.4793
  101MOL0     C13829   6.546   8.088   6.713  0.2513 -0.0569 -0.3484
  101MOL0     C13830   6.658   8.147   6.803  0.1675  0.8797  0.5140
  101MOL0     O13831   6.643   8.129   6.939  0.0247 -0.2228 -0.2761
  101MOL0     C13832   6.707   8.223   7.019 -0.0530 -0.0424 -0.7068
  101MOL0     C13833   6.840   8.209   7.055  0.4710  0.5841 -0.4544
  101MOL0     C13834   6.902   8.295   7.151  0.4223  0.1104  0.9273
  101MOL0     C13835   6.821   8.408   7.202 -0.2495  0.1711  0.1955
  101MOL0     O13836   6.881   8.493   7.291 -0.0434  0.2495 -0.5783
  101MOL0     C13837   7.009   8.462   7.350 -0.3189  0.1995  0.1545
  101MOL0     C13838   7.030   8.563   7.465  0.7706 -0.3331  0.2293
  101MOL0     C13839   6.994   8.703   7.415  0.1787  0.3321 -0.3093
  101MOL0     C13840   7.064   8.750   7.284 -1.2008 -1.1489  0.1319
  101MOL0     C13841   7.050   8.899   7.249  0.4379  0.0317  0.1473
  101MOL0     C13842   6.908   8.923   7.205  0.1344  0.1385  0.2357
  101MOL0     C13843   6.888   9.056   7.119 -0.6103 -0.2862  0.2101
  101MOL0     C13844   7.001   9.086   7.015 -0.3144  1.0725  0.8235
  101MOL0    Cl13845   7.044   8.943   6.916 -0.2084  0.3087 -0.0765
  101MOL0     C13846   6.689   8.419   7.166 -0.3212 -0.1117 -0.4367
  101MOL0     C13847   6.634   8.329   7.067 -0.0067 -0.1629 -0.2700
  101MOL0     O13848   6.763   8.190   6.756 -0.0732  0.3886 -0.1655
  101MOL0     C13849   6.428   8.047   6.778 -0.9437  0.9962 -0.0682
  101MOL0     C13850   6.319   7.990   6.713  0.4185 -0.6066  0.4737
  101MOL0     N13851   6.400   7.324   6.598 -0.1362  0.2092 -1.3507
  101MOL0     N13852   6.382   7.203   6.562  0.1391  0.3147 -0.6006
  101MOL0     C13853   5.852   7.247   7.534  0.0908  0.4610 -0.3318
  101MOL0     C13854   5.920   7.360   7.590 -0.3134  0.4967 -0.0650
  101MOL0     C13855   6.124   7.799   7.603  0.8471 -0.0468  0.1649
  101MOL0     C13856   6.227   7.868   7.538 -1.2408 -1.3450 -0.6500
  101MOL0     C13857   6.296   7.968   7.616  1.1645  0.3113 -0.0214
  101MOL0     C13858   6.271   7.988   7.745 -0.6288  0.0851 -0.0255
  101MOL0     O13859   6.342   8.101   7.801 -0.6269  0.1322 -0.1648
  101MOL0     C13860   6.320   8.151   7.936  0.6385  1.1645 -0.8273
  101MOL0     C13861   6.455   8.193   7.996  0.6197  0.0346  0.1695
  101MOL0     C13862   6.450   8.248   8.135  0.1129 -1.0906 -0.5903
  101MOL0     C13863   6.588   8.301   8.184  0.1569 -0.2820 -1.2725
  101MOL0     C13864   6.570   8.424   8.266  0.0514 -0.4413 -0.4604
  101MOL0     C13865   6.552   8.531   8.324 -0.0865 -0.3331  0.3362
  101MOL0     C13866   6.171   7.918   7.810  0.4220 -0.7662 -0.7930
  101MOL0     C13867   6.096   7.824   7.740  0.7746  0.5943 -0.2016
  101MOL0     C13868   5.962   7.772   7.799 -0.1753  0.2822  0.4328
  101MOL0     H13869   5.900   7.559   7.313  0.3947 -0.3464 -1.2991
  101MOL0     H13870   5.788   7.358   7.227 -2.1415  0.8186  0.9230
  101MOL0     H13871   5.890   6.975   7.333  2.1116  0.6986 -1.4772
  101MOL0     H13872   5.944   7.119   7.242  0.9001  0.6241  1.7902
  101MOL0     H13873   5.710   6.927   7.191 -0.4098  1.2076  1.7487
  101MOL0     H13874   5.739   7.051   7.080 -1.4817  0.0960  2.3460
  101MOL0     H13875   5.917   6.809   7.139  2.5057  0.8894 -0.2414
  101MOL0     H13876   5.820   6.856   6.997 -2.3292  2.0703  1.2650
  101MOL0     H13877   5.973   7.072   6.984 -1.3537 -0.8069  0.0296
  101MOL0     H13878   6.080   6.963   7.073 -1.1027 -1.3620  0.7492
  101MOL0     H13879   6.000   6.828   6.832 -0.7067  1.0581  0.2915
  101MOL0     H13880   6.145   6.852   6.915 -2.6967 -2.8376  1.9957
  101MOL0     H13881   5.996   7.071   6.744 -1.6782 -0.0273  3.5436
  101MOL0     H13882   6.159   7.089   6.804 -1.2223  1.3947 -2.0689
  101MOL0     H13883   6.055   6.904   6.589 -0.0182  1.4756 -3.5150
  101MOL0     H13884   6.229   6.892   6.653  1.4551  2.1409 -2.6956
  101MOL0     H13885   6.253   7.002   6.448 -0.4111 -2.2507  0.8636
  101MOL0     H13886   6.099   7.080   6.464 -1.0584  1.3984  2.1394
  101MOL0     H13887   6.075   7.287   6.644 -0.2270  0.4176 -0.1885
  101MOL0     H13888   6.326   7.502   6.800  0.4078  2.9187  0.1540
  101MOL0     H13889   6.151   7.511   6.739 -0.2162 -2.1682 -0.2191
  101MOL0     H13890   6.310   7.713   6.717 -1.9075  1.9745 -1.2255
  101MOL0     H13891   6.392   7.626   6.590  0.1196  1.3926  0.4595
  101MOL0     H13892   6.165   7.588   6.489 -2.2475  0.7082 -0.4540
  101MOL0     H13893   6.099   7.716   6.597  2.1381  2.2590  0.3194
  101MOL0     H13894   6.362   7.776   6.452  0.4237  0.3962 -1.8741
  101MOL0     H13895   6.228   7.777   6.354  0.8397 -1.6443  0.1382
  101MOL0     H13896   6.418   8.045   6.395 -0.0519 -3.1351 -0.7857
  101MOL0     H13897   6.615   8.147   6.378  0.5661 -1.0394 -0.9798
  101MOL0     H13898   6.737   8.082   6.494  0.2091  0.8434 -0.7246
  101MOL0     H13899   6.681   8.240   6.528 -1.0553 -1.5798  1.8647
  101MOL0     H13900   6.903   8.135   7.008 -0.5712 -2.5060  2.5745
  101MOL0     H13901   7.003   8.276   7.184 -0.1998 -1.3784  2.1354
  101MOL0     H13902   7.013   8.362   7.393  1.8485  0.3441  0.3690
  101MOL0     H13903   7.081   8.478   7.269  0.2691 -3.5253 -0.2011
  101MOL0     H13904   6.956   8.540   7.542 -0.3771 -1.7458 -1.2232
  101MOL0     H13905   7.130   8.551   7.507  1.2909  2.1906 -0.0781
  101MOL0     H13906   7.026   8.772   7.493  1.5858  0.8526 -1.3071
  101MOL0     H13907   6.887   8.692   7.392  0.6608 -3.5998 -1.4236
  101MOL0     H13908   7.043   8.692   7.193  0.1194  1.1845 -1.7659
  101MOL0     H13909   7.166   8.726   7.314 -1.8037 -2.2436  1.4350
  101MOL0     H13910   7.075   8.954   7.340 -1.0185 -1.2263  1.3635
  101MOL0     H13911   7.122   8.920   7.170  0.5538  0.5446  0.3798
  101MOL0     H13912   6.843   8.921   7.293 -0.8752 -1.2497 -0.5050
  101MOL0     H13913   6.878   8.833   7.151  0.4403 -0.9187  1.7889
  101MOL0     H13914   6.861   9.144   7.178  2.3208  0.4803  0.5861
  101MOL0     H13915   6.795   9.034   7.066 -0.7488  1.9231 -0.5313
  101MOL0     H13916   7.092   9.132   7.055 -0.5728  1.0662  1.4330
  101MOL0     H13917   6.954   9.158   6.947 -0.2880 -0.2512 -0.6434
  101MOL0     H13918   6.628   8.493   7.218 -0.4504 -0.5460  0.0414
  101MOL0     H13919   6.528   8.337   7.046  0.3524  0.7908 -1.9143
  101MOL0     H13920   6.436   8.054   6.886  2.2259  1.5225 -0.2557
  101MOL0     H13921   6.228   7.962   6.766 -0.4892  3.4748  1.3949
  101MOL0     H13922   5.835   7.159   7.595  0.1676 -0.4850 -1.6365
  101MOL0     H13923   5.947   7.349   7.695  2.6181  0.3363 -0.7753
  101MOL0     H13924   6.246   7.866   7.431 -0.0248 -1.4043 -0.4525
  101MOL0     H13925   6.362   8.029   7.555 -1.9228  0.4415 -3.6312
  101MOL0     H13926   6.258   8.241   7.930  0.8166  1.3269 -0.2592
  101MOL0     H13927   6.286   8.070   8.001  0.2492  2.0618  0.1267
  101MOL0     H13928   6.504   8.270   7.936  0.6637 -1.0090 -1.2040
  101MOL0     H13929   6.508   8.098   8.007 -1.4793 -0.9741  2.7344
  101MOL0     H13930   6.372   8.324   8.149 -0.6770 -2.0922  0.6688
  101MOL0     H13931   6.416   8.164   8.197 -0.4035 -0.4053  0.0821
  101MOL0     H13932   6.657   8.335   8.106  0.2236  1.5679 -0.4524
  101MOL0     H13933   6.631   8.219   8.242 -0.7169 -1.3992 -2.1342
  101MOL0     H13934   6.550   8.628   8.371  2.9740 -0.4158  0.8546
  101MOL0     H13935   6.134   7.939   7.910  1.1736 -1.9070 -0.2569
  101MOL0     H13936   5.880   7.788   7.729 -0.5006 -1.5850  0.3273
  101MOL0     H13937   5.962   7.671   7.841 -1.7577  0.9161  2.0566
  101MOL0     H13938   5.927   7.846   7.872 -1.6921  2.8222 -2.6320
  102MOL0     O13939   0.470  11.315   7.676  0.1374 -0.0845  0.0930
  102MOL0     C13940   0.572  11.258   7.620 -0.1572  0.4675 -0.5621
  102MOL0     O13941   0.649  11.308   7.519  0.5484  0.0958  0.5141
  102MOL0     C13942   0.598  11.407   7.438  0.0494 -0.2972 -0.2654
  102MOL0     C13943   0.639  11.404   7.304  0.1386  0.8049  0.2660
  102MOL0     C13944   0.603  11.503   7.214  0.5500 -0.4852 -0.6477
  102MOL0     C13945   0.536  11.625   7.256  0.3489 -0.6373 -1.2968
  102MOL0     O13946   0.504  11.732   7.168  0.3074  0.0848  0.4925
  102MOL0     C13947   0.385  11.816   7.176 -0.3936 -0.0180  0.3669
  102MOL0     C13948   0.430  11.954   7.212 -0.1130 -0.1063 -0.3404
  102MOL0     C13949   0.323  12.043   7.272 -0.7517  0.4960  0.3179
  102MOL0     C13950   0.276  12.020   7.415 -0.1405  0.1249  0.5796
  102MOL0     C13951   0.188  12.136   7.465  0.0333 -0.2505 -0.0838
  102MOL0     C13952   0.275  12.254   7.507 -0.5888 -0.1707  0.2987
  102MOL0     C13953   0.319  12.252   7.655  0.4348  0.3311  1.2711
  102MOL0     C13954   0.392  12.383   7.697  0.7743  0.3022 -1.0421
  102MOL0     N13955   0.521  12.387   7.626 -0.2081  0.6224 -0.2935
  102MOL0     C13956   0.643  12.361   7.687 -0.1365  0.6151  0.2603
  102MOL0     C13957   0.733  12.385   7.592  0.1430  0.1842 -0.7564
  102MOL0     C13958   0.883  12.374   7.602 -0.5167 -0.2697  0.5469
  102MOL0     C13959   0.967  12.399   7.473  0.5126 -0.1599 -0.2129
  102MOL0     C13960   1.098  12.343   7.490 -0.2675 -0.0197  0.0966
  102MOL0     C13961   1.205  12.410   7.400  0.1705 -0.0254 -0.4319
  102MOL0     O13962   1.332  12.413   7.468 -0.4880  0.0103  0.5647
  102MOL0     C13963   1.445  12.443   7.397  0.4909  0.2191  1.0161
  102MOL0     C13964   1.441  12.499   7.262 -0.3486 -0.1346 -0.0750
  102MOL0     C13965   1.557  12.516   7.184  0.5329  0.5170  0.0693
  102MOL0     C13966   1.528  12.570   7.044 -0.1161 -0.2881 -0.1182
  102MOL0     C13967   1.684  12.483   7.239  0.0873  0.2087  0.1415
  102MOL0     C13968   1.813  12.523   7.174  0.6247  0.5082 -0.1353
  102MOL0     O13969   1.929  12.479   7.242  1.3146 -0.1778  0.3416
  102MOL0     C13970   2.051  12.499   7.194 -0.1961 -0.1326 -0.4074
  102MOL0     C13971   2.126  12.386   7.204 -0.3832 -0.1343  0.5044
  102MOL0     C13972   2.252  12.379   7.147 -0.7581  0.6378 -0.2451
  102MOL0     C13973   2.318  12.493   7.109 -0.6150  0.1374  0.8343
  102MOL0     O13974   2.447  12.509   7.055  0.6457 -0.0375 -0.0366
  102MOL0     C13975   2.549  12.414   7.078 -0.1541  0.9093  0.5473
  102MOL0     C13976   2.678  12.452   7.008  0.0460  0.4550  0.1788
  102MOL0     C13977   2.756  12.326   6.972 -0.3914  0.2740 -0.3506
  102MOL0     C13978   2.903  12.355   6.915  0.5398 -0.5622 -0.7972
  102MOL0     C13979   2.965  12.222   6.871 -0.3585 -0.0994  0.0426
  102MOL0     C13980   2.921  12.195   6.726 -0.1228  0.1108  0.4942
  102MOL0     C13981   2.939  12.047   6.679  0.2342 -0.0248 -0.8259
  102MOL0     C13982   2.895  12.012   6.541  0.6584 -0.4862  0.5736
  102MOL0    Cl13983   2.943  12.119   6.411 -0.2261  0.2711 -0.8066
  102MOL0     C13984   2.248  12.613   7.116 -1.0983 -0.2427  0.6623
  102MOL0     C13985   2.113  12.619   7.148 -0.0444  0.3345  0.3324
  102MOL0     O13986   1.811  12.562   7.056 -0.4263  0.0810  0.0240
  102MOL0     C13987   1.684  12.422   7.368  0.4736 -0.7172 -1.0264
  102MOL0     C13988   1.568  12.394   7.444 -0.0134  0.8808 -0.0897
  102MOL0     N13989   0.670  12.438   7.484  0.1968 -0.7818  0.2280
  102MOL0     N13990   0.537  12.441   7.500 -0.1045  0.2824 -0.0437
  102MOL0     C13991   0.505  11.630   7.396  0.3645 -0.8272 -0.9910
  102MOL0     C13992   0.542  11.521   7.482  0.4898 -0.6684 -0.5515
  102MOL0     C13993   0.604  11.125   7.671  0.3548 -0.1441  0.4507
  102MOL0     C13994   0.537  11.073   7.774 -0.2862  0.2088  0.3407
  102MOL0     C13995   0.582  10.958   7.845  0.6040  0.4893  0.9278
  102MOL0     C13996   0.691  10.889   7.797  0.2271  0.7008 -0.8296
  102MOL0     O13997   0.733  10.785   7.878  0.0305  0.3140 -0.4278
  102MOL0     C13998   0.800  10.672   7.824 -0.7931  0.7215  0.2216
  102MOL0     C13999   0.738  10.603   7.704  0.4786  0.4656  1.0530
  102MOL0     C14000   0.583  10.588   7.720 -0.1997  0.3461 -0.0042
  102MOL0     C14001   0.513  10.540   7.596  0.5084 -0.2221  0.7339
  102MOL0     C14002   0.369  10.544   7.606 -0.8663  0.4624 -0.5018
  102MOL0     C14003   0.247  10.551   7.622  0.6152 -0.2116  0.1908
  102MOL0     C14004   0.735  10.921   7.669  0.2262 -0.7599 -0.4063
  102MOL0     C14005   0.693  11.039   7.606  0.4501  0.0669  0.8662
  102MOL0     C14006   0.753  11.042   7.460  0.4626  0.0924 -0.3726
  102MOL0     H14007   0.717  11.338   7.268  2.1465  3.0444  0.2226
  102MOL0     H14008   0.637  11.489   7.112  0.3590 -2.0277 -0.5198
  102MOL0     H14009   0.314  11.775   7.249 -1.2173 -0.0174 -0.4169
  102MOL0     H14010   0.339  11.820   7.077 -1.4692 -2.8877  0.6535
  102MOL0     H14011   0.507  11.947   7.290  0.7862  0.3055 -1.1799
  102MOL0     H14012   0.466  12.007   7.124 -1.5123  1.4841 -0.0090
  102MOL0     H14013   0.357  12.146   7.259 -2.3487  0.8758 -1.2259
  102MOL0     H14014   0.237  12.034   7.206  0.5685 -1.8340 -1.2313
  102MOL0     H14015   0.208  11.934   7.410 -1.6913  1.3739 -1.0923
  102MOL0     H14016   0.359  12.000   7.484  0.0289 -0.7124  0.1522
  102MOL0     H14017   0.132  12.094   7.549 -1.7745 -1.0806 -1.6439
  102MOL0     H14018   0.120  12.155   7.382 -0.5564  0.6621  0.5921
  102MOL0     H14019   0.356  12.266   7.435  0.8112  0.2634  1.8954
  102MOL0     H14020   0.225  12.350   7.490  1.4277  0.9895  0.6956
  102MOL0     H14021   0.386  12.169   7.680  0.4277 -0.1846 -0.3367
  102MOL0     H14022   0.226  12.249   7.713 -1.1323 -3.0484 -1.1102
  102MOL0     H14023   0.331  12.468   7.663  3.6492  2.7040 -0.6281
  102MOL0     H14024   0.418  12.376   7.802  1.1306 -1.9141 -1.2418
  102MOL0     H14025   0.659  12.316   7.784  1.2547  1.4186  0.4186
  102MOL0     H14026   0.909  12.271   7.628 -1.3702 -0.8558 -0.7993
  102MOL0     H14027   0.912  12.448   7.677  1.1430  1.4685 -1.6505
  102MOL0     H14028   0.935  12.346   7.383  0.9576  0.2904 -0.6470
  102MOL0     H14029   0.957  12.506   7.452  0.6437 -0.6794 -3.4237
  102MOL0     H14030   1.128  12.367   7.593 -1.4220  1.6053  0.0979
  102MOL0     H14031   1.096  12.234   7.479 -0.7432  0.0523 -0.5408
  102MOL0     H14032   1.209  12.364   7.301  0.8233 -0.8767 -0.0220
  102MOL0     H14033   1.168  12.511   7.379  0.8144 -0.1762 -2.4681
  102MOL0     H14034   1.345  12.528   7.220 -1.9908 -0.1429  3.3089
  102MOL0     H14035   1.565  12.671   7.024  1.0990 -1.1060 -2.3611
  102MOL0     H14036   1.420  12.577   7.024  0.3065  1.6751 -2.2561
  102MOL0     H14037   1.571  12.507   6.965  0.2597 -0.3707  0.1507
  102MOL0     H14038   2.075  12.294   7.230  1.8368 -1.7029 -0.4127
  102MOL0     H14039   2.300  12.282   7.152 -2.7247 -0.4184 -0.7059
  102MOL0     H14040   2.561  12.391   7.184  0.7301  1.8619  0.6794
  102MOL0     H14041   2.525  12.314   7.043 -0.0551  0.8415  0.6712
  102MOL0     H14042   2.650  12.499   6.913 -1.3483  0.0214  0.3485
  102MOL0     H14043   2.738  12.520   7.069  4.2771 -2.4476 -0.3087
  102MOL0     H14044   2.699  12.281   6.890 -2.0154  0.4095  0.6577
  102MOL0     H14045   2.762  12.263   7.061  0.4098  2.1742  1.0072
  102MOL0     H14046   2.958  12.397   6.999 -2.9964 -3.3751  3.4374
  102MOL0     H14047   2.909  12.432   6.838  1.2743  2.7815  2.3226
  102MOL0     H14048   3.074  12.228   6.869 -0.3695  1.0323  1.5089
  102MOL0     H14049   2.928  12.137   6.929  1.4640 -0.4154  0.8040
  102MOL0     H14050   2.981  12.266   6.669  0.1140  1.5821  2.4673
  102MOL0     H14051   2.816  12.221   6.711  0.3827  0.4329 -3.6924
  102MOL0     H14052   2.874  11.981   6.738 -0.6488  1.4379 -0.0685
  102MOL0     H14053   3.039  12.004   6.683  0.1548 -0.1521  0.3457
  102MOL0     H14054   2.787  11.994   6.535  0.6035 -1.0987  2.6947
  102MOL0     H14055   2.932  11.910   6.533  0.2042 -0.6469  0.4628
  102MOL0     H14056   2.304  12.704   7.100  0.8286 -1.3069  1.1419
  102MOL0     H14057   2.051  12.708   7.156 -1.3132 -0.6804  3.8689
  102MOL0     H14058   1.776  12.381   7.409 -0.0472 -0.6945  0.1982
  102MOL0     H14059   1.566  12.341   7.539 -0.7590 -1.1163 -1.1441
  102MOL0     H14060   0.436  11.706   7.432  0.2106 -2.7593  3.4568
  102MOL0     H14061   0.536  11.542   7.589 -1.3296  2.4608 -1.1599
  102MOL0     H14062   0.445  11.124   7.801 -0.8995 -0.7880  0.2041
  102MOL0     H14063   0.539  10.932   7.941  1.2110  1.5723  1.5112
  102MOL0     H14064   0.902  10.700   7.794 -0.3728 -0.5228  0.4315
  102MOL0     H14065   0.800  10.599   7.905  1.7241 -0.0598 -0.3821
  102MOL0     H14066   0.784  10.504   7.696  2.4415  1.4917 -2.4608
  102MOL0     H14067   0.751  10.654   7.608 -2.8395 -0.4456  0.0111
  102MOL0     H14068   0.558  10.524   7.805  2.1324  1.0356  1.2668
  102MOL0     H14069   0.541  10.682   7.759  2.0700  0.2552  2.9900
  102MOL0     H14070   0.542  10.438   7.571  1.7110 -0.0859  1.4683
  102MOL0     H14071   0.553  10.606   7.517  0.2748 -0.4894  0.3902
  102MOL0     H14072   0.143  10.564   7.645  0.9057  1.9150  0.4612
  102MOL0     H14073   0.815  10.857   7.634  1.7864  0.5350  0.6885
  102MOL0     H14074   0.685  11.101   7.398 -0.5813 -0.0533  0.5901
  102MOL0     H14075   0.849  11.093   7.453  1.8894 -2.1027  1.7055
  102MOL0     H14076   0.762  10.941   7.418  1.2234 -1.9072  4.0088
  103MOL0     O14077   3.498   8.329   7.664  0.1448 -0.8295  0.4598
  103MOL0     C14078   3.449   8.365   7.558 -0.2697 -0.6147 -0.7252
  103MOL0     O14079   3.499   8.454   7.472 -0.2899  0.1438  0.0618
  103MOL0     C14080   3.631   8.486   7.479 -1.0451 -0.6796  0.3792
  103MOL0     C14081   3.737   8.394   7.455  0.1628  0.5201 -0.9568
  103MOL0     C14082   3.867   8.439   7.444  0.4419 -0.7605 -0.5549
  103MOL0     C14083   3.895   8.580   7.450  0.3984 -0.3455 -0.5273
  103MOL0     O14084   4.031   8.621   7.432  0.1511  0.5384  0.0782
  103MOL0     C14085   4.067   8.758   7.398  0.6791  0.5640  0.2811
  103MOL0     C14086   4.222   8.771   7.391  0.8472  0.0794 -0.0607
  103MOL0     C14087   4.294   8.713   7.515 -0.1275  0.5900  0.5995
  103MOL0     C14088   4.260   8.793   7.642 -0.2896 -0.0468  0.4153
  103MOL0     C14089   4.371   8.771   7.745 -0.2546 -0.2163 -0.7900
  103MOL0     C14090   4.366   8.883   7.843 -0.5501  0.0662 -0.6241
  103MOL0     C14091   4.391   9.024   7.788  0.4318  0.4669 -0.0562
  103MOL0     C14092   4.414   9.135   7.893 -0.6497 -0.8762 -0.4170
  103MOL0     N14093   4.483   9.243   7.833 -0.7067 -0.5819  0.1546
  103MOL0     C14094   4.608   9.287   7.872  0.0700  0.4657  0.1958
  103MOL0     C14095   4.628   9.392   7.790  0.7888  0.5896 -0.0200
  103MOL0     C14096   4.756   9.475   7.775  0.2062 -0.0115 -0.5857
  103MOL0     C14097   4.731   9.610   7.843 -1.1669  0.1899 -0.2407
  103MOL0     C14098   4.837   9.720   7.798  0.2435 -0.2629 -0.9081
  103MOL0     C14099   4.832   9.862   7.858 -0.5739  0.1635  0.3479
  103MOL0     O14100   4.857   9.859   8.002  0.2545 -0.4640  0.1344
  103MOL0     C14101   4.981   9.855   8.053  0.2040  0.4847  0.2038
  103MOL0     C14102   5.080   9.938   7.998 -0.2405 -0.7929 -0.5818
  103MOL0     C14103   5.215   9.926   8.025 -0.1651  0.6338 -0.0819
  103MOL0     C14104   5.318  10.006   7.960  0.3038 -0.0571 -0.5709
  103MOL0     C14105   5.249   9.830   8.127 -0.6227  0.0913 -0.9753
  103MOL0     C14106   5.383   9.813   8.185  0.2343  0.8144  0.0942
  103MOL0     O14107   5.410   9.876   8.308 -0.9737 -0.1293 -0.4021
  103MOL0     C14108   5.546   9.865   8.339 -1.1613 -0.3106  0.1974
  103MOL0     C14109   5.633   9.973   8.317  0.7050 -0.7248  0.3093
  103MOL0     C14110   5.771   9.967   8.346 -0.0494 -0.3233 -0.1305
  103MOL0     C14111   5.822   9.846   8.398 -1.1109  0.2736  0.5043
  103MOL0     O14112   5.956   9.825   8.423  0.3878  0.6860  0.5133
  103MOL0     C14113   6.055   9.915   8.370 -0.2467  0.4140  0.2436
  103MOL0     C14114   6.195   9.872   8.405 -0.6157 -0.3566 -0.2708
  103MOL0     C14115   6.308   9.977   8.364  0.0442  0.0268  0.1097
  103MOL0     C14116   6.319   9.975   8.198  0.5583  0.1675 -0.7120
  103MOL0     C14117   6.441  10.056   8.160 -0.0108 -0.8608  0.6677
  103MOL0     C14118   6.463  10.034   8.010 -0.1507  0.0456  0.0999
  103MOL0     C14119   6.565  10.131   7.962  0.2948 -0.3930 -0.3035
  103MOL0     C14120   6.567  10.120   7.812 -0.2750  0.8432  0.1647
  103MOL0    Cl14121   6.667  10.253   7.735  0.0580 -0.0818 -0.0766
  103MOL0     C14122   5.731   9.742   8.431 -0.1648 -0.4901  0.0642
  103MOL0     C14123   5.593   9.758   8.408 -0.1246  0.3027  0.4261
  103MOL0     O14124   5.466   9.738   8.127  0.3341 -0.4672 -0.3181
  103MOL0     C14125   5.148   9.747   8.182  0.3677 -0.1761 -0.3667
  103MOL0     C14126   5.016   9.754   8.147 -0.6694 -0.2706  0.8328
  103MOL0     N14127   4.510   9.425   7.722 -0.5043  0.5067 -0.0027
  103MOL0     N14128   4.426   9.330   7.744  0.0723 -0.2246  0.1289
  103MOL0     C14129   3.786   8.665   7.485 -0.8919  1.1725 -0.5615
  103MOL0     C14130   3.658   8.622   7.484 -0.4551  0.3017 -0.1952
  103MOL0     C14131   3.319   8.315   7.506  0.5416 -0.0543  0.9883
  103MOL0     C14132   3.266   8.394   7.402 -0.6648  0.6102  0.1244
  103MOL0     C14133   3.138   8.360   7.347  0.5936  0.0412  0.8976
  103MOL0     C14134   3.070   8.243   7.396  0.8077 -0.3441  0.6661
  103MOL0     O14135   2.943   8.196   7.363  0.7021 -0.0179 -0.9209
  103MOL0     C14136   2.845   8.278   7.288 -0.1614 -0.6092 -0.6399
  103MOL0     C14137   2.797   8.409   7.361 -0.8448 -0.1760 -0.3093
  103MOL0     C14138   2.769   8.390   7.506 -0.3171 -0.4470 -0.3630
  103MOL0     C14139   2.702   8.492   7.594  0.8711 -0.0459  0.5110
  103MOL0     C14140   2.807   8.587   7.629  0.2792 -0.2111  0.4729
  103MOL0     C14141   2.899   8.664   7.664 -0.0420  0.8421  0.0204
  103MOL0     C14142   3.132   8.164   7.487  0.0756 -0.1399 -0.2676
  103MOL0     C14143   3.248   8.204   7.557 -0.8114  0.6034 -0.7119
  103MOL0     C14144   3.299   8.102   7.663  0.0370 -0.2194  0.0365
  103MOL0     H14145   3.727   8.289   7.429 -2.7502  0.7050 -0.9682
  103MOL0     H14146   3.953   8.378   7.418  0.4677 -1.1997  0.5221
  103MOL0     H14147   4.030   8.818   7.481  0.7322  0.7034  0.2044
  103MOL0     H14148   4.017   8.794   7.308 -1.0295 -0.0927  0.9287
  103MOL0     H14149   4.255   8.718   7.301  2.4341 -1.2020  1.2131
  103MOL0     H14150   4.248   8.876   7.376 -1.0994  0.5139 -0.7267
  103MOL0     H14151   4.259   8.610   7.527  2.5159 -0.4923 -0.4176
  103MOL0     H14152   4.401   8.717   7.493 -0.3609 -1.2283 -1.1640
  103MOL0     H14153   4.257   8.898   7.612 -0.8999  0.0365  0.7471
  103MOL0     H14154   4.161   8.764   7.679  0.3266 -1.7513  0.8091
  103MOL0     H14155   4.464   8.779   7.689  0.0277  0.4185 -0.2515
  103MOL0     H14156   4.376   8.677   7.800  4.1954 -0.1766 -0.7755
  103MOL0     H14157   4.270   8.870   7.895 -0.3918 -1.0382 -0.5757
  103MOL0     H14158   4.449   8.855   7.909  0.0443  1.1618 -0.8777
  103MOL0     H14159   4.312   9.053   7.718  2.0050  0.7496 -1.7619
  103MOL0     H14160   4.478   9.021   7.723 -0.3027 -0.5301 -1.0436
  103MOL0     H14161   4.313   9.166   7.922 -0.7053 -0.8496 -0.6397
  103MOL0     H14162   4.469   9.118   7.986  0.5524  2.7475 -0.3229
  103MOL0     H14163   4.685   9.239   7.932 -1.6588 -0.3413  1.8817
  103MOL0     H14164   4.785   9.483   7.670 -0.1633  1.0273 -0.6181
  103MOL0     H14165   4.838   9.424   7.828 -0.5607  0.0264  0.6749
  103MOL0     H14166   4.634   9.651   7.812 -1.0143  0.9679  0.2720
  103MOL0     H14167   4.738   9.596   7.951  0.8040 -0.3639 -0.4111
  103MOL0     H14168   4.936   9.682   7.824 -0.2585 -0.8526  0.2438
  103MOL0     H14169   4.845   9.724   7.689 -0.0984  1.2770 -0.9045
  103MOL0     H14170   4.905   9.932   7.817 -1.2713  0.4261 -0.4711
  103MOL0     H14171   4.732   9.899   7.831 -0.2849  0.8829  0.2356
  103MOL0     H14172   5.057  10.019   7.929 -0.5364 -0.6834 -0.3543
  103MOL0     H14173   5.355  10.097   8.009  0.8774  0.1453 -1.3554
  103MOL0     H14174   5.280  10.037   7.862 -0.0968  1.7822  0.1237
  103MOL0     H14175   5.406   9.942   7.950  0.0960 -0.4096 -0.1541
  103MOL0     H14176   5.598  10.061   8.264 -1.7183 -3.1058 -2.4488
  103MOL0     H14177   5.831  10.057   8.342  1.6999 -1.3951  0.7051
  103MOL0     H14178   6.047   9.902   8.262  2.1345  0.7620 -0.0394
  103MOL0     H14179   6.041  10.018   8.404 -0.4351  1.1764 -2.0348
  103MOL0     H14180   6.202   9.864   8.514 -3.2098 -0.7920 -0.0824
  103MOL0     H14181   6.222   9.774   8.363 -1.1151  0.0862 -1.6508
  103MOL0     H14182   6.407   9.952   8.403  0.3498  3.2553  1.7494
  103MOL0     H14183   6.278  10.074   8.405  1.4270 -0.1023  1.4998
  103MOL0     H14184   6.229  10.025   8.159  0.4566  0.7308  0.2255
  103MOL0     H14185   6.337   9.874   8.160  0.3363 -0.4223  0.7077
  103MOL0     H14186   6.417  10.161   8.180  2.9008  0.5348 -2.2949
  103MOL0     H14187   6.527  10.020   8.218 -1.2875 -0.8476  2.6581
  103MOL0     H14188   6.370  10.048   7.955  1.9291 -1.5985 -4.3119
  103MOL0     H14189   6.496   9.931   7.991 -0.4333 -0.1432  0.5979
  103MOL0     H14190   6.664  10.103   8.000  0.3610  1.7204  1.2739
  103MOL0     H14191   6.535  10.233   7.985 -3.3636 -1.2251 -0.8488
  103MOL0     H14192   6.472  10.132   7.759  0.5491  3.1293 -0.9380
  103MOL0     H14193   6.605  10.019   7.795  0.0997  1.2047 -1.2530
  103MOL0     H14194   5.777   9.654   8.476  0.1251 -0.1449  0.4562
  103MOL0     H14195   5.523   9.678   8.426 -0.2900  0.5297  0.8209
  103MOL0     H14196   5.176   9.658   8.238 -2.4595 -0.7211  0.3358
  103MOL0     H14197   4.949   9.694   8.208 -3.0453 -1.8770 -3.0272
  103MOL0     H14198   3.795   8.771   7.507 -1.3539  0.8472  1.4914
  103MOL0     H14199   3.587   8.691   7.530 -1.2000 -1.7846  1.9383
  103MOL0     H14200   3.311   8.486   7.365 -0.6983  2.4610  4.1542
  103MOL0     H14201   3.116   8.410   7.254  1.6328 -2.4200 -0.7685
  103MOL0     H14202   2.895   8.302   7.193 -1.4784  0.6712 -1.0654
  103MOL0     H14203   2.754   8.220   7.267  0.6402 -1.4233 -2.0616
  103MOL0     H14204   2.705   8.451   7.318 -0.1928  1.3689 -0.2763
  103MOL0     H14205   2.873   8.484   7.340  0.2967 -0.2171  3.0997
  103MOL0     H14206   2.701   8.305   7.517 -0.3287 -0.3931 -0.0027
  103MOL0     H14207   2.863   8.369   7.557 -0.2168  0.2563 -0.2467
  103MOL0     H14208   2.666   8.432   7.677 -0.2768 -0.5343 -0.3078
  103MOL0     H14209   2.617   8.538   7.544  0.8676  0.8981  1.3609
  103MOL0     H14210   2.978   8.731   7.692 -1.8268  2.4958  1.4150
  103MOL0     H14211   3.082   8.072   7.514 -3.2270  1.2112 -1.2354
  103MOL0     H14212   3.376   8.034   7.625 -0.0709 -0.5261  0.3608
  103MOL0     H14213   3.344   8.165   7.740 -0.5914  3.5770 -2.4429
  103MOL0     H14214   3.214   8.046   7.704 -0.3240 -0.3767 -0.9189
  104MOL0     O14215   6.054  10.139   6.081  0.6184 -0.8771  0.7375
  104MOL0     C14216   6.144  10.131   5.993 -0.6348 -0.0285  0.0214
  104MOL0     O14217   6.123  10.074   5.868 -0.0638  0.2977  0.4613
  104MOL0     C14218   6.008   9.997   5.848 -1.6598 -0.4352  0.1891
  104MOL0     C14219   5.869  10.038   5.874  0.0920 -0.4833  0.6238
  104MOL0     C14220   5.763   9.975   5.814 -0.0869  0.2542 -0.1641
  104MOL0     C14221   5.785   9.868   5.730  0.4813  0.3034  0.3048
  104MOL0     O14222   5.667   9.811   5.672 -0.8626  0.2949 -0.2307
  104MOL0     C14223   5.651   9.853   5.539  0.9586 -0.2425  0.0967
  104MOL0     C14224   5.496   9.838   5.514 -0.5336 -0.0257 -0.2254
  104MOL0     C14225   5.407   9.940   5.583 -0.0667  0.4375 -0.9216
  104MOL0     C14226   5.418  10.076   5.509 -0.3770  0.5929 -0.6087
  104MOL0     C14227   5.428  10.179   5.620 -1.3878  0.3756  0.4616
  104MOL0     C14228   5.470  10.316   5.575  1.0849 -0.5956 -0.1763
  104MOL0     C14229   5.607  10.319   5.506 -0.3614 -0.6956 -0.2467
  104MOL0     C14230   5.649  10.458   5.455  0.1957  0.2736 -0.3633
  104MOL0     N14231   5.790  10.468   5.419 -0.2474  0.7356 -0.1726
  104MOL0     C14232   5.878  10.553   5.482 -0.3602  0.0449  0.4272
  104MOL0     C14233   5.995  10.556   5.414 -0.5415 -0.8914 -0.6183
  104MOL0     C14234   6.125  10.645   5.445 -0.1337  0.2581  0.4634
  104MOL0     C14235   6.112  10.792   5.398  0.5183  1.2958  0.0183
  104MOL0     C14236   6.107  10.815   5.245 -0.6923  0.3418  0.4052
  104MOL0     C14237   5.956  10.810   5.183  0.3041  0.2741 -0.1170
  104MOL0     O14238   5.869  10.897   5.247  0.0014 -0.0590  0.1282
  104MOL0     C14239   5.747  10.848   5.280  0.2245 -0.0084 -0.5583
  104MOL0     C14240   5.699  10.849   5.417 -0.2788 -0.3805  0.6453
  104MOL0     C14241   5.567  10.814   5.454 -0.2065 -0.1207  0.4619
  104MOL0     C14242   5.526  10.839   5.595  1.2428  0.0433 -0.1338
  104MOL0     C14243   5.484  10.761   5.355 -0.5310 -0.5470 -0.1304
  104MOL0     C14244   5.345  10.728   5.387 -0.3006 -0.5350  0.2842
  104MOL0     O14245   5.253  10.823   5.358  0.4373  0.6586  0.0212
  104MOL0     C14246   5.128  10.826   5.412 -0.4901  0.3138 -0.3152
  104MOL0     C14247   5.099  10.781   5.544 -0.4536 -0.1046  0.3756
  104MOL0     C14248   4.967  10.799   5.591 -0.6790  0.7465  0.4783
  104MOL0     C14249   4.865  10.852   5.508 -0.3339  0.0884  0.5889
  104MOL0     O14250   4.724  10.859   5.534  0.0382 -0.0515  0.8869
  104MOL0     C14251   4.691  10.839   5.669 -0.1154 -0.1914  1.1108
  104MOL0     C14252   4.535  10.839   5.697  0.4352  0.3165  0.5909
  104MOL0     C14253   4.475  10.705   5.648  0.0057  0.6716  0.1800
  104MOL0     C14254   4.429  10.694   5.504 -0.6576 -0.5802 -0.5834
  104MOL0     C14255   4.378  10.556   5.470 -0.2808  0.1328  0.5405
  104MOL0     C14256   4.488  10.441   5.445  0.4512 -0.4796 -0.2053
  104MOL0     C14257   4.570  10.458   5.321 -0.5860  0.6738 -0.8813
  104MOL0     C14258   4.605  10.322   5.257  0.0864  0.0557 -0.8086
  104MOL0    Cl14259   4.719  10.351   5.130  0.4182 -0.0840 -0.5909
  104MOL0     C14260   4.900  10.905   5.383 -0.2312  0.0871  1.4305
  104MOL0     C14261   5.031  10.894   5.337  0.5633  0.4495 -0.0072
  104MOL0     O14262   5.331  10.623   5.443 -0.0983  0.0286  0.2660
  104MOL0     C14263   5.526  10.746   5.230 -0.4873  0.4057 -0.3470
  104MOL0     C14264   5.652  10.794   5.189  0.7186 -0.4127  0.3150
  104MOL0     N14265   5.984  10.453   5.319  0.5750 -0.4973 -0.1918
  104MOL0     N14266   5.851  10.411   5.316  0.4541  0.4402  0.0620
  104MOL0     C14267   5.920   9.828   5.703 -0.9525  0.9566 -0.6802
  104MOL0     C14268   6.026   9.896   5.764  0.4517  0.5918  0.0123
  104MOL0     C14269   6.283  10.197   6.021  0.2438 -0.3469  0.3124
  104MOL0     C14270   6.373  10.204   5.918 -0.8686 -0.0242  0.8052
  104MOL0     C14271   6.502  10.246   5.936 -0.1887 -0.3181  0.8016
  104MOL0     C14272   6.543  10.316   6.059 -0.6028 -0.3602  0.8626
  104MOL0     O14273   6.660  10.361   6.090 -0.2516 -0.1441  0.2951
  104MOL0     C14274   6.763  10.355   5.993  0.1246  0.9391  0.3411
  104MOL0     C14275   6.890  10.414   6.052  0.3601  0.3232 -0.6297
  104MOL0     C14276   7.013  10.395   5.953  0.1836  0.0837 -0.0964
  104MOL0     C14277   7.110  10.511   5.961  0.2448 -0.1247  0.6895
  104MOL0     C14278   7.224  10.473   6.034 -0.3360  0.5434  0.6754
  104MOL0     C14279   7.324  10.438   6.093 -0.4727  0.3974  0.5500
  104MOL0     C14280   6.446  10.325   6.160 -0.4118  0.9476 -0.6858
  104MOL0     C14281   6.314  10.271   6.140  0.3521 -0.2659  0.3772
  104MOL0     C14282   6.227  10.284   6.261  0.4669  0.1309  0.5560
  104MOL0     H14283   5.849  10.131   5.927  0.2099  0.0293 -0.2116
  104MOL0     H14284   5.661  10.011   5.823  0.9884  4.2617 -2.0401
  104MOL0     H14285   5.701   9.781   5.473 -0.0769 -2.9366  2.0589
  104MOL0     H14286   5.669   9.959   5.518  0.4476 -0.9522 -4.9709
  104MOL0     H14287   5.463   9.845   5.410  3.9746 -1.1489 -1.9309
  104MOL0     H14288   5.473   9.739   5.555  0.4778 -0.3062 -0.3195
  104MOL0     H14289   5.304   9.905   5.578 -0.0545 -0.6644  2.9452
  104MOL0     H14290   5.435   9.943   5.689  0.4360 -0.6154 -1.0125
  104MOL0     H14291   5.501  10.079   5.438 -0.7494 -3.1417 -1.3928
  104MOL0     H14292   5.331  10.091   5.445 -1.0479 -0.2357  0.0852
  104MOL0     H14293   5.506  10.146   5.690 -1.7740 -1.5709  0.0312
  104MOL0     H14294   5.339  10.173   5.683 -2.1119 -2.1445 -0.7095
  104MOL0     H14295   5.394  10.356   5.507 -1.4258  1.5391  3.5501
  104MOL0     H14296   5.455  10.394   5.650 -1.1671  1.3554 -2.4692
  104MOL0     H14297   5.619  10.253   5.419 -1.4350  2.3597 -2.9135
  104MOL0     H14298   5.667  10.283   5.590 -3.7984 -2.9807  1.4551
  104MOL0     H14299   5.586  10.480   5.368 -0.7775  0.0530  0.2688
  104MOL0     H14300   5.618  10.527   5.534 -1.6995  0.1757 -0.9554
  104MOL0     H14301   5.861  10.605   5.576 -1.1886 -0.7092  0.7148
  104MOL0     H14302   6.213  10.594   5.406 -0.1413 -1.6273  2.7114
  104MOL0     H14303   6.146  10.652   5.552 -1.4361  0.3488  0.7311
  104MOL0     H14304   6.024  10.841   5.440 -0.6138 -1.3293  0.8553
  104MOL0     H14305   6.192  10.856   5.438  1.0532  1.6987 -1.6108
  104MOL0     H14306   6.149  10.914   5.225  1.5310 -0.6941 -0.4330
  104MOL0     H14307   6.174  10.739   5.204 -2.7339 -1.6100  0.4899
  104MOL0     H14308   5.961  10.830   5.075 -0.4846 -2.4947 -0.7581
  104MOL0     H14309   5.911  10.711   5.192 -1.1394  1.0294  1.8073
  104MOL0     H14310   5.773  10.893   5.482 -2.0744  2.6800  0.8158
  104MOL0     H14311   5.598  10.884   5.663 -1.0972  1.5815  1.5174
  104MOL0     H14312   5.483  10.749   5.640  0.3514  0.0333 -0.9535
  104MOL0     H14313   5.447  10.915   5.590  2.8990  1.8896  0.5413
  104MOL0     H14314   5.177  10.750   5.612 -1.2990 -2.0189  0.5444
  104MOL0     H14315   4.941  10.780   5.695  0.0629  3.4082  1.2087
  104MOL0     H14316   4.723  10.740   5.703  0.4581 -0.2853  0.3018
  104MOL0     H14317   4.744  10.912   5.730  0.1964  1.7317 -1.3344
  104MOL0     H14318   4.515  10.830   5.804  0.6489 -1.5620  0.4950
  104MOL0     H14319   4.494  10.924   5.641  0.0368  1.5638  2.6550
  104MOL0     H14320   4.387  10.686   5.709 -2.8810  1.3920 -3.3957
  104MOL0     H14321   4.538  10.617   5.663 -2.2366 -1.6005 -2.4512
  104MOL0     H14322   4.519  10.730   5.453  1.3013 -2.0516  1.5844
  104MOL0     H14323   4.342  10.760   5.493 -0.5206 -0.4283 -0.7469
  104MOL0     H14324   4.312  10.527   5.553  0.1908  1.9262  1.5999
  104MOL0     H14325   4.312  10.563   5.383 -2.0598 -2.6085  1.5498
  104MOL0     H14326   4.429  10.350   5.430 -0.5301  0.1129 -0.0251
  104MOL0     H14327   4.559  10.426   5.526 -1.2528 -4.5374  0.8010
  104MOL0     H14328   4.665  10.511   5.334  0.5637 -1.4453 -0.1126
  104MOL0     H14329   4.528  10.514   5.238  1.7035 -0.6765 -3.0873
  104MOL0     H14330   4.516  10.267   5.228  0.4752 -0.1241 -1.6925
  104MOL0     H14331   4.662  10.264   5.331  0.5982  2.0098  0.4042
  104MOL0     H14332   4.826  10.956   5.323 -0.5394 -1.0176  0.8545
  104MOL0     H14333   5.065  10.954   5.253  0.7256  1.4928  0.7832
  104MOL0     H14334   5.466  10.706   5.150 -0.1516  1.2073 -1.0207
  104MOL0     H14335   5.681  10.783   5.085 -0.2978 -0.4330  0.0273
  104MOL0     H14336   5.931   9.743   5.636  0.5304  0.1567  0.5198
  104MOL0     H14337   6.123   9.863   5.729  0.8662  1.0173  0.7366
  104MOL0     H14338   6.336  10.170   5.822 -1.9367 -1.5302  1.7025
  104MOL0     H14339   6.570  10.228   5.853 -1.4005  0.8871 -0.5071
  104MOL0     H14340   6.790  10.250   5.978  0.6595  1.0050  0.8139
  104MOL0     H14341   6.730  10.410   5.905 -1.0098 -0.0971  0.0893
  104MOL0     H14342   6.919  10.362   6.144 -1.1949 -2.3524 -1.5766
  104MOL0     H14343   6.864  10.519   6.074 -1.2257 -0.4622  1.6378
  104MOL0     H14344   7.048  10.295   5.983  1.8283  0.6421 -0.0412
  104MOL0     H14345   6.979  10.386   5.850  1.7738  0.7597 -0.6963
  104MOL0     H14346   7.061  10.605   5.988  3.0906  1.8250 -0.4211
  104MOL0     H14347   7.143  10.531   5.859  2.2877 -2.0538  0.9150
  104MOL0     H14348   7.412  10.402   6.142 -0.6692 -0.6395  0.1643
  104MOL0     H14349   6.473  10.368   6.255  1.1196  0.5871 -0.9185
  104MOL0     H14350   6.269  10.361   6.326 -3.1854  0.8874  2.2707
  104MOL0     H14351   6.126  10.316   6.233  0.7580  0.8638  0.3167
  104MOL0     H14352   6.213  10.193   6.319 -0.6770  0.1118  0.2696
  105MOL0     O14353   6.959   4.373  11.255  0.3557  0.1992 -0.2059
  105MOL0     C14354   7.009   4.278  11.202  0.1362  0.1699  0.9839
  105MOL0     O14355   7.146   4.259  11.183  0.4125  0.0023 -0.0725
  105MOL0     C14356   7.237   4.335  11.253  0.2045  0.5111 -0.1093
  105MOL0     C14357   7.248   4.469  11.241  0.5857  0.3199 -0.4257
  105MOL0     C14358   7.333   4.546  11.324 -0.2058 -0.7487 -0.2845
  105MOL0     C14359   7.416   4.486  11.427  0.4689 -0.0847 -0.2312
  105MOL0     O14360   7.496   4.565  11.515  0.6935  0.1294  0.6154
  105MOL0     C14361   7.428   4.668  11.593 -0.0653  1.3665  0.9886
  105MOL0     C14362   7.509   4.797  11.602 -0.5205 -0.1007  0.3613
  105MOL0     C14363   7.460   4.920  11.524  0.2411  0.1514 -0.0879
  105MOL0     C14364   7.507   4.922  11.378 -0.1362  0.1924  0.0200
  105MOL0     C14365   7.655   4.954  11.360  0.5181  1.0931  0.4483
  105MOL0     C14366   7.694   4.976  11.219 -0.5223  0.2093  0.6307
  105MOL0     C14367   7.851   5.004  11.225 -1.2505 -0.3181 -0.1447
  105MOL0     C14368   7.884   5.047  11.087 -0.9632 -0.2657  0.9710
  105MOL0     N14369   8.034   5.058  11.068  0.0603  0.2348  0.2938
  105MOL0     C14370   8.105   5.165  11.109 -0.0938 -0.7048  0.1597
  105MOL0     C14371   8.236   5.129  11.073  0.0801 -0.2594 -0.5549
  105MOL0     C14372   8.368   5.210  11.070  1.0517  0.1767 -0.1144
  105MOL0     C14373   8.482   5.128  11.134  0.5454  0.2859 -0.2020
  105MOL0     C14374   8.548   5.031  11.041 -0.7486  0.7881  0.3180
  105MOL0     C14375   8.668   4.950  11.109 -0.0509  0.2535 -0.2898
  105MOL0     O14376   8.674   4.820  11.051 -0.1176 -0.6144  0.3828
  105MOL0     C14377   8.777   4.737  11.079  0.2294  0.1187 -0.3714
  105MOL0     C14378   8.765   4.622  11.011 -1.1524  0.8278  0.2220
  105MOL0     C14379   8.856   4.522  11.030 -0.3151 -0.7908 -0.0770
  105MOL0     C14380   8.840   4.405  10.930  0.6669  0.6713  0.4065
  105MOL0     C14381   8.968   4.541  11.118 -0.7333 -0.2965  0.3069
  105MOL0     C14382   9.076   4.443  11.139  0.8054  0.1760 -0.9272
  105MOL0     O14383   9.157   4.469  11.247 -0.2595  0.3113 -0.1739
  105MOL0     C14384   9.283   4.411  11.238  0.3827 -0.1014  1.1642
  105MOL0     C14385   9.310   4.295  11.302  0.0765  0.0855 -0.5838
  105MOL0     C14386   9.441   4.244  11.291 -0.3007  0.0697 -0.4208
  105MOL0     C14387   9.539   4.319  11.219  0.0174  0.1665 -0.6012
  105MOL0     O14388   9.671   4.270  11.227  0.0638  0.0155  0.5205
  105MOL0     C14389   9.715   4.165  11.313 -0.2310 -0.8745  0.6142
  105MOL0     C14390   9.870   4.151  11.300  0.5371 -0.3160  0.1582
  105MOL0     C14391   9.935   4.032  11.369 -0.6457  0.7176  0.5699
  105MOL0     C14392   9.898   3.901  11.316  0.1890  0.0971  0.0418
  105MOL0     C14393   9.946   3.769  11.389 -0.0040 -0.4815 -0.2812
  105MOL0     C14394  10.099   3.750  11.406 -0.7372 -0.8243  0.0116
  105MOL0     C14395  10.139   3.632  11.495  0.9632  0.2420  0.5763
  105MOL0     C14396  10.282   3.610  11.481  0.0673 -0.1219  0.7274
  105MOL0    Cl14397  10.325   3.455  11.574  0.4039  0.0580  0.2041
  105MOL0     C14398   9.499   4.427  11.144 -0.3871  0.6555  0.2214
  105MOL0     C14399   9.372   4.475  11.155 -0.3452  0.0680  1.0023
  105MOL0     O14400   9.083   4.342  11.074 -0.0127  0.0616  0.6979
  105MOL0     C14401   8.972   4.657  11.194 -0.7966 -0.1643  0.9102
  105MOL0     C14402   8.873   4.756  11.171 -1.1073  0.5614 -0.9251
  105MOL0     N14403   8.229   5.002  11.006  0.5960 -0.2956  0.0729
  105MOL0     N14404   8.105   4.963  11.008 -0.0812  0.2588 -1.2420
  105MOL0     C14405   7.398   4.350  11.439 -0.9180  0.8414 -0.8566
  105MOL0     C14406   7.302   4.282  11.360 -0.4907  0.8801  0.0153
  105MOL0     C14407   6.925   4.170  11.139 -1.0656 -0.0717 -0.1966
  105MOL0     C14408   6.987   4.047  11.123  0.0941  0.0205 -0.7515
  105MOL0     C14409   6.925   3.937  11.080 -0.5531 -0.0427  0.7373
  105MOL0     C14410   6.793   3.946  11.038 -0.2369 -0.4107 -0.7755
  105MOL0     O14411   6.720   3.844  10.981 -0.7083 -0.2169  0.0690
  105MOL0     C14412   6.773   3.707  11.003  0.5807  0.4117 -0.3526
  105MOL0     C14413   6.652   3.618  11.004  0.2920  0.1710  0.3457
  105MOL0     C14414   6.582   3.611  10.861  0.4602  0.0970 -0.6526
  105MOL0     C14415   6.454   3.531  10.850 -0.1756  0.2145 -0.3143
  105MOL0     C14416   6.399   3.557  10.715 -1.0067  0.1027  0.4894
  105MOL0     C14417   6.330   3.578  10.621 -0.5983 -1.0934  0.7794
  105MOL0     C14418   6.724   4.066  11.048 -0.3715 -0.0070 -0.8242
  105MOL0     C14419   6.794   4.182  11.094 -0.0659 -0.3592 -0.1778
  105MOL0     C14420   6.718   4.312  11.079  0.6704 -0.5993  0.7883
  105MOL0     H14421   7.181   4.518  11.171  0.1247 -1.1553 -1.0478
  105MOL0     H14422   7.311   4.652  11.313 -0.2252 -0.4796  1.9557
  105MOL0     H14423   7.405   4.619  11.688  0.4608 -0.8277  0.0438
  105MOL0     H14424   7.328   4.688  11.553 -0.4338 -1.8513  0.0048
  105MOL0     H14425   7.492   4.813  11.708  2.5443  3.5208  0.5260
  105MOL0     H14426   7.617   4.785  11.585 -0.6001 -0.5828  0.1830
  105MOL0     H14427   7.351   4.929  11.523  0.1634 -0.2490 -2.8494
  105MOL0     H14428   7.493   5.001  11.590 -0.7527 -0.3282  1.0329
  105MOL0     H14429   7.493   4.823  11.334  1.0292 -0.1551  0.4077
  105MOL0     H14430   7.449   4.997  11.323 -2.6523 -2.7092 -1.5518
  105MOL0     H14431   7.721   4.874  11.396 -1.2878 -0.1998  1.0387
  105MOL0     H14432   7.682   5.043  11.418  0.6538  0.9135  0.6647
  105MOL0     H14433   7.673   4.891  11.153 -0.4010  0.9052 -0.3231
  105MOL0     H14434   7.664   5.072  11.176  2.9568  1.0359 -0.2498
  105MOL0     H14435   7.894   4.906  11.243 -0.6225 -0.8005 -3.6459
  105MOL0     H14436   7.877   5.081  11.299 -1.3032 -1.4896  1.1186
  105MOL0     H14437   7.857   4.974  11.010 -1.1911  2.0993 -1.3340
  105MOL0     H14438   7.832   5.141  11.070  0.7858  0.8849  1.6444
  105MOL0     H14439   8.069   5.260  11.148 -0.5805 -0.9378  0.2761
  105MOL0     H14440   8.360   5.296  11.138  2.2049  0.1354  0.1030
  105MOL0     H14441   8.388   5.248  10.970 -0.8216  2.2714  0.2234
  105MOL0     H14442   8.559   5.195  11.173  0.5067 -0.0717  0.5004
  105MOL0     H14443   8.446   5.072  11.221 -0.0385 -0.0670 -0.6590
  105MOL0     H14444   8.477   4.955  11.007 -1.6992  1.4789  0.7060
  105MOL0     H14445   8.580   5.082  10.950 -2.7139  1.1157 -0.2288
  105MOL0     H14446   8.767   4.995  11.104  0.9990 -1.9403 -0.5438
  105MOL0     H14447   8.643   4.949  11.216  2.1762 -0.8633  0.2811
  105MOL0     H14448   8.697   4.619  10.926 -0.9033  0.7237  0.0217
  105MOL0     H14449   8.897   4.312  10.943 -1.5294 -0.6590  1.0720
  105MOL0     H14450   8.868   4.447  10.834 -2.3109  1.2332 -0.2968
  105MOL0     H14451   8.734   4.379  10.936  1.2396 -2.0470  0.0891
  105MOL0     H14452   9.239   4.230  11.352 -0.4224  0.3957 -0.8747
  105MOL0     H14453   9.459   4.153  11.348 -2.0410  2.0405  3.7053
  105MOL0     H14454   9.700   4.202  11.415  0.2358  3.0465 -0.5470
  105MOL0     H14455   9.666   4.072  11.285 -2.4743 -1.0004  4.2811
  105MOL0     H14456   9.885   4.143  11.192 -4.4473 -0.4017 -0.7778
  105MOL0     H14457   9.913   4.241  11.346  2.1122 -1.4923  1.0811
  105MOL0     H14458   9.907   4.033  11.474  0.7510 -1.9614  1.0563
  105MOL0     H14459  10.043   4.038  11.360 -0.4369  0.9423  2.7246
  105MOL0     H14460   9.923   3.892  11.210 -1.5235  0.1124 -0.3881
  105MOL0     H14461   9.790   3.891  11.327  0.3482 -0.4060  1.3672
  105MOL0     H14462   9.898   3.782  11.487  1.3032  2.9414  0.0322
  105MOL0     H14463   9.921   3.674  11.341 -1.6003 -0.7201  0.9368
  105MOL0     H14464  10.145   3.844  11.437 -3.3077  0.3217  0.5990
  105MOL0     H14465  10.143   3.732  11.308  1.0867 -1.8622  0.9508
  105MOL0     H14466  10.078   3.548  11.461 -1.8138  3.1458 -2.4478
  105MOL0     H14467  10.120   3.652  11.601 -1.4250  0.0218  0.2517
  105MOL0     H14468  10.342   3.697  11.512 -1.9820  1.6652 -0.0901
  105MOL0     H14469  10.315   3.598  11.378 -2.7389  1.6669 -0.4988
  105MOL0     H14470   9.574   4.482  11.087 -0.9185  0.5354 -0.6058
  105MOL0     H14471   9.336   4.568  11.112 -4.4565 -0.2926  3.1445
  105MOL0     H14472   9.067   4.672  11.244  0.2474  0.2908 -1.0875
  105MOL0     H14473   8.887   4.851  11.221 -1.8055 -1.1968  3.0088
  105MOL0     H14474   7.436   4.294  11.525 -2.3213  3.0478  1.3329
  105MOL0     H14475   7.291   4.176  11.378 -0.7150  1.0341  0.8689
  105MOL0     H14476   7.089   4.036  11.158  0.2805  1.0672 -0.9172
  105MOL0     H14477   6.986   3.847  11.073 -0.7889 -0.1166 -0.6260
  105MOL0     H14478   6.843   3.673  10.925  2.4999  3.1501  0.0599
  105MOL0     H14479   6.826   3.710  11.098 -4.1344  0.6191  2.5568
  105MOL0     H14480   6.583   3.665  11.074 -0.0682  2.2214 -1.2784
  105MOL0     H14481   6.673   3.513  11.025  1.1878  0.2964  0.1281
  105MOL0     H14482   6.560   3.710  10.820  5.4435  1.5234 -0.5146
  105MOL0     H14483   6.657   3.565  10.796  0.3064  1.9860 -2.2691
  105MOL0     H14484   6.382   3.578  10.918  0.4228  2.3251 -1.0661
  105MOL0     H14485   6.479   3.426  10.865 -0.9399  0.1331  0.4685
  105MOL0     H14486   6.273   3.608  10.535  3.3597 -0.2528 -1.8491
  105MOL0     H14487   6.621   4.066  11.013  0.1747 -0.7920 -2.5053
  105MOL0     H14488   6.719   4.373  11.170  0.2666  0.1949  0.2705
  105MOL0     H14489   6.741   4.371  10.990 -3.2477 -3.7769 -2.7669
  105MOL0     H14490   6.615   4.280  11.059  1.3097 -1.3451 -1.6179
  106MOL0     O14491   6.517   7.038   8.667 -0.7654  0.8568 -0.5815
  106MOL0     C14492   6.396   7.070   8.665  0.1453 -0.4865 -1.0352
  106MOL0     O14493   6.310   7.040   8.777 -0.3693  0.2568 -0.6086
  106MOL0     C14494   6.366   6.987   8.893  0.3232  0.5215 -0.5913
  106MOL0     C14495   6.373   7.077   8.999  0.0504 -0.7281 -0.5706
  106MOL0     C14496   6.438   7.034   9.115 -0.1053  0.3027 -0.5706
  106MOL0     C14497   6.507   6.919   9.122  0.0773  0.1530  0.3104
  106MOL0     O14498   6.578   6.870   9.224  0.1501  0.1459 -0.7434
  106MOL0     C14499   6.658   6.956   9.300  0.3107  0.6007  0.1434
  106MOL0     C14500   6.771   6.885   9.368  0.2123 -0.3769  0.1047
  106MOL0     C14501   6.722   6.775   9.457 -0.0724 -0.1273  0.0447
  106MOL0     C14502   6.829   6.718   9.554  0.5406 -0.3132  0.4532
  106MOL0     C14503   6.782   6.613   9.653 -0.1681 -0.8201 -0.3042
  106MOL0     C14504   6.692   6.659   9.778 -0.5497  0.1326  1.0573
  106MOL0     C14505   6.770   6.757   9.856  0.4839  0.2432 -0.3331
  106MOL0     C14506   6.672   6.820   9.960  0.2097 -0.6365  0.5635
  106MOL0     N14507   6.628   6.728  10.069  0.5363 -0.6515 -0.1224
  106MOL0     C14508   6.713   6.656  10.149 -0.0289  0.6461 -0.3352
  106MOL0     C14509   6.623   6.586  10.226 -0.3462 -0.4484 -0.3692
  106MOL0     C14510   6.667   6.485  10.324 -0.5398  0.2574 -0.5232
  106MOL0     C14511   6.639   6.341  10.274 -0.3628  0.0535  0.2948
  106MOL0     C14512   6.603   6.230  10.373  0.0414  0.3354 -0.0107
  106MOL0     C14513   6.482   6.265  10.470 -0.6473  0.2702 -0.0828
  106MOL0     O14514   6.463   6.134  10.530 -0.1221  0.2311 -0.3551
  106MOL0     C14515   6.343   6.116  10.590 -0.0331 -0.8132  0.8358
  106MOL0     C14516   6.313   6.196  10.705  0.6900  0.3225  0.9111
  106MOL0     C14517   6.204   6.174  10.789  0.5807  1.0584  1.6808
  106MOL0     C14518   6.194   6.241  10.924 -0.0592 -0.2771  0.0596
  106MOL0     C14519   6.111   6.076  10.741  0.6261  0.1517  0.9531
  106MOL0     C14520   5.975   6.050  10.801  0.2711 -0.8321  0.1066
  106MOL0     O14521   5.921   6.154  10.877  0.9932 -0.2856  0.4665
  106MOL0     C14522   5.802   6.133  10.948 -0.8871 -0.2961  0.3873
  106MOL0     C14523   5.804   6.136  11.087  0.0516  0.2207 -0.0853
  106MOL0     C14524   5.686   6.110  11.156  0.3120  0.1562 -0.7807
  106MOL0     C14525   5.567   6.068  11.085  0.8565  1.3372  0.4745
  106MOL0     O14526   5.448   6.023  11.148 -1.0136  0.4511 -0.1862
  106MOL0     C14527   5.466   5.900  11.228 -0.1626  0.8222 -0.1453
  106MOL0     C14528   5.429   5.791  11.118  0.5381  0.2848 -0.3076
  106MOL0     C14529   5.371   5.664  11.183 -0.1386 -0.8576  0.2840
  106MOL0     C14530   5.481   5.599  11.260 -0.1425  1.1183 -0.1977
  106MOL0     C14531   5.566   5.507  11.161 -0.1601  0.2478 -0.3341
  106MOL0     C14532   5.693   5.458  11.218  0.1962 -0.0820 -0.1909
  106MOL0     C14533   5.676   5.374  11.339  0.9558  0.5349 -0.8069
  106MOL0     C14534   5.791   5.278  11.364  0.2026 -0.4698 -0.2386
  106MOL0    Cl14535   5.932   5.376  11.397 -0.4769 -0.2059  0.1758
  106MOL0     C14536   5.572   6.052  10.950  0.2533 -0.2702  0.6723
  106MOL0     C14537   5.685   6.091  10.875 -0.3532 -0.3278 -0.2638
  106MOL0     O14538   5.924   5.941  10.791 -0.2160  0.1055 -0.9248
  106MOL0     C14539   6.141   5.993  10.626  0.2177  0.5739  0.0167
  106MOL0     C14540   6.255   6.013  10.548  0.1246 -0.5317 -0.3923
  106MOL0     N14541   6.492   6.614  10.190 -0.2226  0.3575 -0.3591
  106MOL0     N14542   6.497   6.710  10.107 -0.0994  0.0049 -0.6367
  106MOL0     C14543   6.498   6.836   9.010 -0.2826 -0.3876 -0.2566
  106MOL0     C14544   6.429   6.870   8.894 -0.2826  0.1446  0.1608
  106MOL0     C14545   6.324   7.131   8.555 -0.1554  0.8177  0.1293
  106MOL0     C14546   6.183   7.157   8.576  0.3604  0.3591  0.3756
  106MOL0     C14547   6.108   7.210   8.469 -0.6904 -0.2142  0.5684
  106MOL0     C14548   6.171   7.231   8.343 -1.1231  0.0447  1.3205
  106MOL0     O14549   6.116   7.292   8.236  0.8793  0.4496 -0.9088
  106MOL0     C14550   5.973   7.308   8.238  0.2415 -0.3071 -0.1256
  106MOL0     C14551   5.936   7.307   8.092  0.5386 -1.1363 -0.5471
  106MOL0     C14552   5.986   7.178   8.017  0.7265 -0.3444 -0.3712
  106MOL0     C14553   5.894   7.150   7.897 -0.7695  0.5002 -0.5030
  106MOL0     C14554   5.765   7.087   7.933 -0.9849 -0.2367  0.3535
  106MOL0     C14555   5.654   7.037   7.956 -0.2623 -0.0334  0.7551
  106MOL0     C14556   6.311   7.200   8.327  1.2041 -0.9037 -0.5619
  106MOL0     C14557   6.389   7.158   8.436 -0.5399 -0.2071 -0.1571
  106MOL0     C14558   6.544   7.146   8.411 -0.0062 -0.1863 -0.4948
  106MOL0     H14559   6.322   7.172   8.993 -1.4569 -1.5512 -1.5062
  106MOL0     H14560   6.448   7.098   9.202  1.2038  2.6473 -2.3253
  106MOL0     H14561   6.601   7.010   9.376  0.8923  2.8353 -0.9073
  106MOL0     H14562   6.701   7.039   9.243  0.9105 -0.4885 -1.0613
  106MOL0     H14563   6.842   6.843   9.296  1.6022  2.5656 -0.4093
  106MOL0     H14564   6.832   6.957   9.423 -1.9440  0.0971  2.0332
  106MOL0     H14565   6.641   6.811   9.521 -0.8244 -0.4290 -0.7163
  106MOL0     H14566   6.682   6.690   9.401 -2.2421  0.5188  0.5145
  106MOL0     H14567   6.908   6.670   9.496 -2.5565 -1.8518 -2.9057
  106MOL0     H14568   6.872   6.807   9.602 -0.2272  0.1823  0.2587
  106MOL0     H14569   6.869   6.571   9.704 -0.7551  0.4885  1.9357
  106MOL0     H14570   6.742   6.528   9.599  1.5401 -0.2824 -2.5310
  106MOL0     H14571   6.606   6.707   9.731  0.2855  0.6777  0.0347
  106MOL0     H14572   6.675   6.566   9.834 -2.3286 -1.1007 -1.3268
  106MOL0     H14573   6.800   6.840   9.792 -0.4577  3.3327  2.8967
  106MOL0     H14574   6.859   6.716   9.904 -0.3126 -1.2009 -0.0212
  106MOL0     H14575   6.725   6.904  10.006 -1.6964  0.2506  1.2348
  106MOL0     H14576   6.594   6.862   9.895 -0.6470 -1.8588  0.7705
  106MOL0     H14577   6.820   6.646  10.138 -0.0867  0.5127 -0.8185
  106MOL0     H14578   6.618   6.500  10.421  0.0922 -0.6712 -0.0399
  106MOL0     H14579   6.772   6.491  10.354 -0.2148 -0.9844 -1.3239
  106MOL0     H14580   6.556   6.340  10.203  0.9970 -1.5515 -1.3557
  106MOL0     H14581   6.731   6.317  10.220  0.7043  1.9711  1.1320
  106MOL0     H14582   6.570   6.140  10.320 -2.2599 -0.2852  2.2779
  106MOL0     H14583   6.686   6.213  10.442 -1.2778  2.8100  2.3775
  106MOL0     H14584   6.508   6.341  10.544  2.7364  0.2984 -1.1091
  106MOL0     H14585   6.398   6.305  10.413  0.4263 -0.1834 -2.0890
  106MOL0     H14586   6.377   6.280  10.732 -2.0666  2.8706  0.0038
  106MOL0     H14587   6.291   6.259  10.971 -0.0960 -1.1306  0.4705
  106MOL0     H14588   6.134   6.175  10.987 -3.2039  1.2392 -1.1275
  106MOL0     H14589   6.148   6.339  10.907 -0.1882 -0.0746  1.5041
  106MOL0     H14590   5.898   6.145  11.141  1.8358 -2.8449 -2.3601
  106MOL0     H14591   5.689   6.121  11.264  0.3157  3.1726 -1.0128
  106MOL0     H14592   5.571   5.884  11.254 -0.1409 -0.4110 -0.9057
  106MOL0     H14593   5.408   5.896  11.320 -0.8413 -2.6740 -0.5816
  106MOL0     H14594   5.361   5.836  11.046  1.6122 -0.3411 -1.7696
  106MOL0     H14595   5.518   5.767  11.059  1.6112 -0.5594  1.5523
  106MOL0     H14596   5.333   5.596  11.106 -3.9759 -0.0570  1.2390
  106MOL0     H14597   5.289   5.687  11.252 -2.2460 -2.1681 -1.6335
  106MOL0     H14598   5.427   5.532  11.328  0.3081  2.2019  1.2893
  106MOL0     H14599   5.539   5.658  11.332  0.0845  0.2439  0.3580
  106MOL0     H14600   5.512   5.417  11.129 -1.0511  0.1893  1.2414
  106MOL0     H14601   5.574   5.547  11.060 -2.4957  0.6602 -0.4268
  106MOL0     H14602   5.757   5.546  11.234  0.5809 -0.6933  1.8014
  106MOL0     H14603   5.737   5.395  11.140  1.2585  0.8749 -0.4021
  106MOL0     H14604   5.584   5.314  11.333  0.8688 -0.3567  4.4860
  106MOL0     H14605   5.666   5.443  11.424 -0.2641  3.4072 -3.1139
  106MOL0     H14606   5.804   5.208  11.281 -0.7315 -0.7563 -0.1619
  106MOL0     H14607   5.758   5.221  11.452 -2.7723  0.0294 -0.9054
  106MOL0     H14608   5.490   6.013  10.891 -1.3990  3.2808  0.3926
  106MOL0     H14609   5.702   6.088  10.767 -1.0122  2.6861 -0.5602
  106MOL0     H14610   6.072   5.911  10.611  0.6609 -0.4543  2.9326
  106MOL0     H14611   6.275   5.945  10.466 -1.2596 -1.8942  0.3512
  106MOL0     H14612   6.549   6.740   9.013 -1.8834 -1.2789 -0.3860
  106MOL0     H14613   6.419   6.803   8.809  2.7170 -1.2813  0.7935
  106MOL0     H14614   6.125   7.117   8.659  1.3553 -2.7773 -0.3264
  106MOL0     H14615   6.005   7.237   8.489 -0.5320 -0.4954  1.9288
  106MOL0     H14616   5.912   7.228   8.280 -2.0999 -0.6935 -3.8758
  106MOL0     H14617   5.941   7.400   8.289 -0.6315 -2.2885  3.2315
  106MOL0     H14618   5.998   7.386   8.049 -0.8129  2.2766  3.1614
  106MOL0     H14619   5.829   7.324   8.078  0.8584  0.4704 -1.2248
  106MOL0     H14620   6.093   7.179   7.995  1.2594 -0.6484  1.9549
  106MOL0     H14621   5.977   7.091   8.082  1.6875 -0.7894 -0.8239
  106MOL0     H14622   5.951   7.090   7.825 -1.6826 -0.3526 -0.5373
  106MOL0     H14623   5.869   7.239   7.839 -0.9040 -0.9962 -2.8840
  106MOL0     H14624   5.549   7.014   7.962  0.1252 -2.0733  0.3978
  106MOL0     H14625   6.350   7.237   8.232 -0.2265 -2.3974 -1.7854
  106MOL0     H14626   6.596   7.238   8.437 -1.6438 -0.1035  3.0190
  106MOL0     H14627   6.600   7.064   8.458  0.1755 -0.6698 -1.5273
  106MOL0     H14628   6.549   7.145   8.302 -1.5883 -1.3726 -0.5899
  107MOL0     O14629   2.447   1.170   2.475  0.1605  0.6128  0.7321
  107MOL0     C14630   2.490   1.051   2.459  0.1737 -0.1084  1.1287
  107MOL0     O14631   2.610   1.007   2.497 -0.7815  0.7733 -0.0104
  107MOL0     C14632   2.688   1.077   2.584 -0.5508 -0.6795  0.9239
  107MOL0     C14633   2.836   1.071   2.554 -0.2782 -0.1497 -0.1519
  107MOL0     C14634   2.928   1.144   2.638  0.1616  0.3729  0.5716
  107MOL0     C14635   2.883   1.229   2.737 -0.3008 -0.7956 -0.1405
  107MOL0     O14636   2.990   1.304   2.796 -0.7566  0.0232  0.8218
  107MOL0     C14637   2.964   1.391   2.901 -0.2685  0.0503 -0.3869
  107MOL0     C14638   3.089   1.464   2.943 -0.3555 -0.1195  0.0116
  107MOL0     C14639   3.140   1.557   2.833 -0.1050 -0.1066  0.2267
  107MOL0     C14640   3.194   1.482   2.709 -0.0624  1.2723  0.0597
  107MOL0     C14641   3.261   1.580   2.608 -0.8217  0.6426 -0.7055
  107MOL0     C14642   3.305   1.518   2.478 -0.0128  0.7599 -0.3369
  107MOL0     C14643   3.439   1.584   2.428  1.0298 -0.7449  0.2637
  107MOL0     C14644   3.510   1.487   2.337 -0.6017 -0.3305 -0.4442
  107MOL0     N14645   3.631   1.554   2.291 -0.0429 -0.6625 -0.1293
  107MOL0     C14646   3.756   1.538   2.342 -0.2410  0.2540  0.5760
  107MOL0     C14647   3.833   1.596   2.246  0.1703 -0.0309  0.1790
  107MOL0     C14648   3.986   1.613   2.264  0.3101 -0.2526  0.1249
  107MOL0     C14649   4.042   1.701   2.156  0.6912 -0.7048  0.6335
  107MOL0     C14650   4.195   1.703   2.182 -0.2290 -0.0036 -0.6349
  107MOL0     C14651   4.272   1.737   2.056 -0.3265  0.4207 -0.1425
  107MOL0     O14652   4.412   1.695   2.071  0.2137 -0.6002 -0.1501
  107MOL0     C14653   4.512   1.770   2.123 -0.0552  0.1426 -0.2751
  107MOL0     C14654   4.504   1.904   2.175  0.8625 -0.6991  0.3798
  107MOL0     C14655   4.616   1.964   2.234 -0.4695  0.3968 -1.3235
  107MOL0     C14656   4.602   2.104   2.287 -0.8569 -0.3452 -0.7421
  107MOL0     C14657   4.745   1.901   2.227  0.1425 -0.5762 -0.0454
  107MOL0     C14658   4.876   1.962   2.259 -0.1563 -0.0427 -0.5541
  107MOL0     O14659   4.981   1.885   2.289  1.0675 -0.5180 -0.4652
  107MOL0     C14660   5.085   1.952   2.343 -0.0813  0.0866  0.0598
  107MOL0     C14661   5.213   1.956   2.283 -1.2964  0.0933 -0.8784
  107MOL0     C14662   5.323   2.021   2.344 -0.2882  0.6132  0.4964
  107MOL0     C14663   5.312   2.073   2.477  0.1368  0.1420  0.0676
  107MOL0     O14664   5.414   2.139   2.539  0.3152  0.0914 -1.1431
  107MOL0     C14665   5.539   2.080   2.541 -0.4341  0.2175  0.2204
  107MOL0     C14666   5.558   1.997   2.668  0.5495 -0.0217  0.5685
  107MOL0     C14667   5.704   1.959   2.689 -0.5529  0.2428  0.5183
  107MOL0     C14668   5.717   1.864   2.803  0.7229 -0.2944 -0.3965
  107MOL0     C14669   5.858   1.798   2.808 -0.5891  0.2930 -0.2019
  107MOL0     C14670   5.842   1.653   2.848 -0.1621  0.6003 -0.0352
  107MOL0     C14671   5.980   1.606   2.903  0.7069 -0.8637  0.4057
  107MOL0     C14672   5.995   1.459   2.924 -0.4610  0.1121  0.0442
  107MOL0    Cl14673   5.916   1.396   3.076  0.5880 -0.6016 -0.2149
  107MOL0     C14674   5.185   2.063   2.542 -0.0525 -0.1053  0.6845
  107MOL0     C14675   5.077   2.004   2.475  0.7372  0.5691  0.1915
  107MOL0     O14676   4.876   2.087   2.263 -0.1208 -0.2647  0.6753
  107MOL0     C14677   4.753   1.771   2.182 -0.6745  0.6387  0.8289
  107MOL0     C14678   4.638   1.707   2.136  0.3217 -0.7496 -0.5273
  107MOL0     N14679   3.757   1.646   2.144  0.1615  1.1364  0.7165
  107MOL0     N14680   3.631   1.623   2.170  0.1895  0.7452  0.1519
  107MOL0     C14681   2.749   1.237   2.762  0.9106  0.7979 -0.4484
  107MOL0     C14682   2.654   1.161   2.688  0.5540 -0.9737 -0.6848
  107MOL0     C14683   2.398   0.951   2.388 -0.3035  0.1441 -0.6872
  107MOL0     C14684   2.404   0.813   2.416  0.3891  0.0841 -0.0506
  107MOL0     C14685   2.324   0.722   2.358 -0.6695  0.5902  0.2005
  107MOL0     C14686   2.216   0.756   2.279  0.0053  0.7002 -0.3570
  107MOL0     O14687   2.138   0.657   2.227 -0.2365 -0.2630  0.4473
  107MOL0     C14688   2.025   0.688   2.153  0.7725  0.5608 -0.2111
  107MOL0     C14689   1.951   0.562   2.099 -0.4554 -0.5157  0.0519
  107MOL0     C14690   1.831   0.629   2.012  0.2342  0.0112 -0.3059
  107MOL0     C14691   1.729   0.528   1.950 -0.1928  0.1006 -0.2259
  107MOL0     C14692   1.805   0.440   1.865 -0.3515  0.7007  0.5180
  107MOL0     C14693   1.879   0.369   1.799  1.0291  0.0649 -0.0391
  107MOL0     C14694   2.204   0.891   2.235  0.0567  0.3969  0.2930
  107MOL0     C14695   2.291   0.983   2.295 -0.1707 -0.3896 -0.3136
  107MOL0     C14696   2.268   1.125   2.254  0.2653  0.1743 -1.2796
  107MOL0     H14697   2.860   1.008   2.469 -0.3938  0.8016 -0.9002
  107MOL0     H14698   3.032   1.133   2.609 -0.2542 -2.5247 -0.0463
  107MOL0     H14699   2.914   1.323   2.972 -0.2838  1.0007  0.5348
  107MOL0     H14700   2.888   1.457   2.859  0.3704 -0.1006 -1.8378
  107MOL0     H14701   3.077   1.516   3.039 -0.7139  0.9025 -0.5684
  107MOL0     H14702   3.173   1.397   2.966  0.8294  1.2160 -0.2599
  107MOL0     H14703   3.070   1.636   2.802  0.5541  0.4956  0.2478
  107MOL0     H14704   3.225   1.597   2.888  0.6428 -1.2523 -0.0736
  107MOL0     H14705   3.265   1.405   2.739 -0.3951  1.4007  1.2310
  107MOL0     H14706   3.106   1.441   2.658  0.0738  1.9390 -0.7502
  107MOL0     H14707   3.352   1.613   2.659 -0.8738  1.4505 -1.1071
  107MOL0     H14708   3.195   1.665   2.589 -0.1434  1.1434 -0.8770
  107MOL0     H14709   3.319   1.416   2.514 -0.5935  0.5017 -0.8318
  107MOL0     H14710   3.233   1.528   2.396 -2.0080  0.9105  1.3702
  107MOL0     H14711   3.501   1.632   2.504 -0.9571  0.9798  0.8838
  107MOL0     H14712   3.414   1.669   2.364  1.8013  0.9383  2.1126
  107MOL0     H14713   3.520   1.387   2.380 -0.9231 -1.7655 -3.4244
  107MOL0     H14714   3.447   1.473   2.249 -1.9793 -1.2064  0.6283
  107MOL0     H14715   3.786   1.476   2.427 -1.9252 -3.5009 -1.3208
  107MOL0     H14716   4.028   1.512   2.260  1.4575  0.1821  0.6847
  107MOL0     H14717   4.008   1.667   2.357  1.5821 -1.3481  0.4938
  107MOL0     H14718   4.017   1.677   2.052 -2.7250  3.2251  0.2801
  107MOL0     H14719   3.988   1.794   2.176 -1.8279 -2.4618  2.6037
  107MOL0     H14720   4.223   1.781   2.253 -2.8313 -0.3857  0.9537
  107MOL0     H14721   4.233   1.605   2.210  1.8879  1.2404  1.0527
  107MOL0     H14722   4.228   1.678   1.976  0.1966  1.1375 -0.9736
  107MOL0     H14723   4.260   1.843   2.031 -2.6852  0.2273 -0.0152
  107MOL0     H14724   4.412   1.960   2.186  1.2180  0.2311 -1.1483
  107MOL0     H14725   4.498   2.131   2.307 -0.0137  2.1513  0.6821
  107MOL0     H14726   4.646   2.175   2.217  0.8615  1.7408  2.2214
  107MOL0     H14727   4.656   2.099   2.382 -0.6908 -1.0329 -0.8665
  107MOL0     H14728   5.233   1.918   2.183  0.2858  2.1478 -1.4134
  107MOL0     H14729   5.418   2.022   2.293  0.3830  0.7404  1.6981
  107MOL0     H14730   5.553   2.005   2.463  1.2482  2.0640 -1.3674
  107MOL0     H14731   5.616   2.158   2.536  1.5177 -1.6668 -1.7274
  107MOL0     H14732   5.514   2.055   2.750 -0.5591  2.0256 -1.3888
  107MOL0     H14733   5.494   1.910   2.651  0.5024  0.3223 -1.1011
  107MOL0     H14734   5.768   2.045   2.712  0.5263 -0.4849  0.2785
  107MOL0     H14735   5.729   1.909   2.596  1.6975  3.0699 -0.5639
  107MOL0     H14736   5.646   1.786   2.773  1.5350 -1.0434 -0.4109
  107MOL0     H14737   5.688   1.907   2.899 -1.6694 -2.4866 -0.0383
  107MOL0     H14738   5.908   1.801   2.711  1.1081  1.4980  0.6492
  107MOL0     H14739   5.917   1.850   2.885  0.7905 -0.8979 -0.4081
  107MOL0     H14740   5.809   1.593   2.763 -1.6958  0.7664  0.4114
  107MOL0     H14741   5.769   1.638   2.929  0.0053 -2.3450 -0.3188
  107MOL0     H14742   6.007   1.671   2.987  1.3406 -1.2973  0.5410
  107MOL0     H14743   6.043   1.629   2.816 -1.4488 -0.8388 -1.2324
  107MOL0     H14744   6.098   1.427   2.910  0.2469  1.8542  0.9755
  107MOL0     H14745   5.932   1.414   2.847  0.7338 -1.8988  0.1749
  107MOL0     H14746   5.179   2.108   2.641  0.2890  0.4053  0.4780
  107MOL0     H14747   4.980   2.002   2.523  0.7759 -0.0531  0.2427
  107MOL0     H14748   4.850   1.724   2.182 -0.7775  0.4123  1.5424
  107MOL0     H14749   4.632   1.604   2.100  0.5179  0.3814 -4.1589
  107MOL0     H14750   2.723   1.304   2.844  2.2209  1.2650 -0.3843
  107MOL0     H14751   2.547   1.178   2.695  1.1127  2.9530  4.2667
  107MOL0     H14752   2.477   0.779   2.488 -1.4593  2.2468  3.0446
  107MOL0     H14753   2.341   0.615   2.372  1.0643  0.6154 -1.3105
  107MOL0     H14754   1.954   0.745   2.214  0.4724 -0.5240  0.4802
  107MOL0     H14755   2.056   0.759   2.076 -1.8497  3.5494  1.2561
  107MOL0     H14756   1.906   0.503   2.179 -0.7036 -0.6306 -0.1691
  107MOL0     H14757   2.020   0.494   2.048 -0.2873 -0.2135 -0.1333
  107MOL0     H14758   1.776   0.709   2.062 -3.1024 -0.0522 -3.4788
  107MOL0     H14759   1.883   0.672   1.926  1.5945  0.2950  0.6424
  107MOL0     H14760   1.659   0.587   1.890  1.5928  5.5016  2.3563
  107MOL0     H14761   1.683   0.472   2.032 -0.1054  1.3969  0.7412
  107MOL0     H14762   1.956   0.331   1.734  0.2721  0.3106 -1.1152
  107MOL0     H14763   2.134   0.923   2.159  0.0239 -3.9495 -1.8315
  107MOL0     H14764   2.360   1.182   2.238 -0.1884  1.8090  1.3139
  107MOL0     H14765   2.220   1.133   2.156  2.5069  0.2624 -2.4249
  107MOL0     H14766   2.204   1.170   2.331 -0.0777  1.1715 -2.1288
  108MOL0     O14767   1.059   0.359   8.699  0.4829 -0.7231 -0.1772
  108MOL0     C14768   0.992   0.288   8.765  1.1578 -0.0147 -0.4339
  108MOL0     O14769   0.993   0.156   8.764 -0.4261 -0.5999  0.7024
  108MOL0     C14770   1.048   0.078   8.666 -0.1354  0.3492 -0.2337
  108MOL0     C14771   1.072  -0.058   8.695 -0.5293 -0.2867  0.2269
  108MOL0     C14772   1.109  -0.155   8.602  0.3866 -0.3262 -0.2414
  108MOL0     C14773   1.152  -0.112   8.479 -0.1421 -0.4435  0.0888
  108MOL0     O14774   1.195  -0.197   8.387  0.7475 -0.7249  0.0748
  108MOL0     C14775   1.170  -0.169   8.247  0.6580 -0.1655 -0.4775
  108MOL0     C14776   1.287  -0.118   8.172  0.7375  0.0687 -0.3086
  108MOL0     C14777   1.388  -0.225   8.151 -0.1593  0.3412 -0.1253
  108MOL0     C14778   1.525  -0.172   8.104  0.3494 -0.2892 -0.1921
  108MOL0     C14779   1.626  -0.285   8.091 -0.1575  0.4292  0.8045
  108MOL0     C14780   1.633  -0.350   7.953  0.6035  0.6423 -0.5515
  108MOL0     C14781   1.679  -0.248   7.852 -0.3711  1.0163 -0.1389
  108MOL0     C14782   1.781  -0.324   7.754 -0.1463 -1.2315  0.5850
  108MOL0     N14783   1.714  -0.431   7.679 -0.2380  0.4949  0.7186
  108MOL0     C14784   1.717  -0.429   7.540  0.0568  0.7919  0.3096
  108MOL0     C14785   1.663  -0.549   7.504  0.0204  0.1684 -0.0094
  108MOL0     C14786   1.666  -0.607   7.366  0.2741  0.6371 -0.1358
  108MOL0     C14787   1.797  -0.673   7.338 -0.5356  0.5810  0.6264
  108MOL0     C14788   1.794  -0.742   7.202  0.0127  0.4037 -0.4846
  108MOL0     C14789   1.903  -0.838   7.163  0.3787  1.0426  0.0170
  108MOL0     O14790   1.961  -0.903   7.276 -0.8113  0.1529 -0.6790
  108MOL0     C14791   2.041  -1.016   7.266 -0.1454 -0.7144  0.2558
  108MOL0     C14792   2.101  -1.059   7.388 -0.2992 -0.1853 -0.4389
  108MOL0     C14793   2.221  -1.136   7.384  0.8700 -0.6294  0.6537
  108MOL0     C14794   2.280  -1.171   7.520 -0.0651  0.2849  0.3541
  108MOL0     C14795   2.271  -1.183   7.261 -0.6617 -1.0245  0.2004
  108MOL0     C14796   2.405  -1.253   7.264  0.4120  0.3882 -0.5388
  108MOL0     O14797   2.394  -1.386   7.238 -0.0959 -0.2392 -0.1642
  108MOL0     C14798   2.505  -1.464   7.248  0.3311  1.2846 -0.5600
  108MOL0     C14799   2.483  -1.603   7.286 -0.1844  0.1199 -0.7002
  108MOL0     C14800   2.589  -1.692   7.305  0.8183  0.3085 -0.5396
  108MOL0     C14801   2.722  -1.651   7.288  0.8332  0.4173 -0.1410
  108MOL0     O14802   2.809  -1.740   7.327 -0.6836  0.6367  0.3737
  108MOL0     C14803   2.946  -1.706   7.306  0.4740  0.4469  0.4782
  108MOL0     C14804   3.029  -1.820   7.376 -0.1299  0.2645 -0.6715
  108MOL0     C14805   3.160  -1.766   7.429  0.2520 -0.1503  0.4175
  108MOL0     C14806   3.154  -1.771   7.580 -0.6991  0.2336  0.3936
  108MOL0     C14807   3.276  -1.689   7.640  0.0916  0.1458 -0.2262
  108MOL0     C14808   3.259  -1.680   7.793 -0.2967 -0.2456  0.0672
  108MOL0     C14809   3.396  -1.656   7.861  0.0698 -1.4990  0.1986
  108MOL0     C14810   3.377  -1.637   8.018  0.4836 -0.9615 -0.3561
  108MOL0    Cl14811   3.531  -1.586   8.097 -0.5096  0.1797  0.0784
  108MOL0     C14812   2.743  -1.527   7.230 -0.1018 -1.3271  0.8746
  108MOL0     C14813   2.637  -1.423   7.217 -0.3904  0.2628  0.5075
  108MOL0     O14814   2.502  -1.196   7.320  0.4174 -0.9172 -0.8209
  108MOL0     C14815   2.209  -1.137   7.143 -0.0213  0.9443 -0.2156
  108MOL0     C14816   2.096  -1.055   7.142 -0.1298  0.0717  0.1349
  108MOL0     N14817   1.658  -0.628   7.619 -0.2716 -0.3538  0.6476
  108MOL0     N14818   1.683  -0.556   7.720 -0.2550 -0.1263 -0.2020
  108MOL0     C14819   1.145   0.030   8.446 -1.0037 -0.6350  0.0447
  108MOL0     C14820   1.087   0.119   8.538 -0.1460  0.3103 -0.4556
  108MOL0     C14821   0.887   0.346   8.856 -0.2316  0.2111  0.3781
  108MOL0     C14822   0.925   0.453   8.927 -0.1831  0.4512 -0.0476
  108MOL0     C14823   0.843   0.513   9.030  0.5487  0.3565  1.1268
  108MOL0     C14824   0.713   0.460   9.048 -0.3018  0.4668  0.1686
  108MOL0     O14825   0.643   0.520   9.151  1.1189  0.7194 -0.5528
  108MOL0     C14826   0.512   0.472   9.178 -0.0432  0.8379  0.4949
  108MOL0     C14827   0.511   0.347   9.275 -0.3087 -0.2298 -0.3370
  108MOL0     C14828   0.372   0.277   9.282 -0.0956 -0.3026  0.9225
  108MOL0     C14829   0.267   0.361   9.355  0.1753 -0.0082 -0.2530
  108MOL0     C14830   0.279   0.343   9.498 -0.3835 -0.3082  0.2335
  108MOL0     C14831   0.300   0.310   9.615 -0.3080  0.5100  0.6015
  108MOL0     C14832   0.680   0.343   8.976 -0.3813  0.4273 -0.0526
  108MOL0     C14833   0.760   0.289   8.872 -0.2781  0.6714  0.8152
  108MOL0     C14834   0.699   0.171   8.783  0.9977 -0.8702 -0.3009
  108MOL0     H14835   1.042  -0.088   8.794  0.1164 -0.4179  0.3900
  108MOL0     H14836   1.114  -0.262   8.621 -0.0110 -0.6211 -1.6830
  108MOL0     H14837   1.084  -0.106   8.224  0.1786 -1.9991 -4.4812
  108MOL0     H14838   1.142  -0.268   8.210 -2.4831 -0.5293  2.3555
  108MOL0     H14839   1.253  -0.077   8.077  2.3019  1.2665 -0.3793
  108MOL0     H14840   1.330  -0.033   8.225 -1.4395  0.1699  1.4532
  108MOL0     H14841   1.406  -0.272   8.248 -0.4719  0.5905  0.0568
  108MOL0     H14842   1.352  -0.291   8.072  1.7247 -0.5486 -0.3033
  108MOL0     H14843   1.514  -0.126   8.005  0.4194  2.8736  1.1323
  108MOL0     H14844   1.556  -0.106   8.186 -2.2554 -3.5490  3.7974
  108MOL0     H14845   1.599  -0.365   8.160  0.6542 -2.6097 -2.1356
  108MOL0     H14846   1.730  -0.254   8.105  0.3956 -0.8295 -0.2857
  108MOL0     H14847   1.689  -0.443   7.966 -1.4389 -0.9045 -2.3213
  108MOL0     H14848   1.532  -0.387   7.936  0.1933 -0.8326  3.8052
  108MOL0     H14849   1.739  -0.170   7.900  1.5404 -0.7790  0.5344
  108MOL0     H14850   1.590  -0.205   7.804  0.1759 -0.5170 -2.7193
  108MOL0     H14851   1.821  -0.254   7.679 -0.4664 -0.7889  0.8233
  108MOL0     H14852   1.866  -0.359   7.814 -1.3845 -5.2689  0.2377
  108MOL0     H14853   1.771  -0.361   7.475  1.5937  0.1792  0.8944
  108MOL0     H14854   1.655  -0.530   7.288 -0.8732  0.5647 -0.0632
  108MOL0     H14855   1.585  -0.680   7.356 -0.0602  0.8101  1.1526
  108MOL0     H14856   1.882  -0.604   7.341  1.2102 -0.6338 -5.8796
  108MOL0     H14857   1.808  -0.757   7.407  1.7539  0.0056 -0.3632
  108MOL0     H14858   1.692  -0.780   7.192 -0.6733  0.8212  3.4779
  108MOL0     H14859   1.792  -0.671   7.118  0.2000  1.7625  0.6243
  108MOL0     H14860   1.861  -0.913   7.095 -1.8196  1.5708  0.7022
  108MOL0     H14861   1.981  -0.787   7.106 -0.5569  2.4705 -0.0297
  108MOL0     H14862   2.059  -1.018   7.479 -0.6073  0.0699 -0.6886
  108MOL0     H14863   2.372  -1.229   7.522 -1.2323 -1.6614  3.1199
  108MOL0     H14864   2.210  -1.237   7.572 -1.0874  2.0765  1.3490
  108MOL0     H14865   2.286  -1.076   7.574 -2.3557  1.1879 -0.8381
  108MOL0     H14866   2.385  -1.638   7.315  0.5996 -0.6945  1.1369
  108MOL0     H14867   2.583  -1.795   7.339  2.0223 -0.2719 -1.9824
  108MOL0     H14868   2.972  -1.718   7.200  3.0064 -3.4229  1.3465
  108MOL0     H14869   2.965  -1.603   7.338 -0.9119  0.7237  0.4530
  108MOL0     H14870   2.967  -1.869   7.452  2.1475  3.4090  3.6612
  108MOL0     H14871   3.049  -1.899   7.303 -0.1832 -1.6579  1.2872
  108MOL0     H14872   3.182  -1.664   7.398  2.5359 -1.0165 -1.1180
  108MOL0     H14873   3.250  -1.816   7.392  2.8178  3.2195  1.5642
  108MOL0     H14874   3.168  -1.876   7.606 -1.6422 -0.0046 -0.0142
  108MOL0     H14875   3.052  -1.746   7.612 -1.9746 -4.1636  0.3907
  108MOL0     H14876   3.368  -1.738   7.607  0.9116  2.3071 -1.3036
  108MOL0     H14877   3.289  -1.592   7.592  0.1392  0.2552  0.0027
  108MOL0     H14878   3.211  -1.772   7.830  1.5336 -1.5026 -0.5225
  108MOL0     H14879   3.199  -1.593   7.819  1.0843  0.4730  0.9631
  108MOL0     H14880   3.435  -1.561   7.822 -2.0451  0.1457  1.7970
  108MOL0     H14881   3.467  -1.739   7.861  0.4901 -1.1406 -0.1696
  108MOL0     H14882   3.337  -1.732   8.055 -0.1427  0.4012  2.7662
  108MOL0     H14883   3.293  -1.568   8.037  2.7108  0.7433  5.1430
  108MOL0     H14884   2.845  -1.511   7.197 -0.2682 -2.7773 -0.4883
  108MOL0     H14885   2.655  -1.329   7.167 -0.0206 -1.5047 -3.0318
  108MOL0     H14886   2.243  -1.176   7.048  1.3850 -3.2662  1.7842
  108MOL0     H14887   2.062  -1.013   7.048 -1.6780 -1.7198 -0.1775
  108MOL0     H14888   1.171   0.064   8.347  1.7289 -0.7996  0.6167
  108MOL0     H14889   1.073   0.223   8.510  1.1532  0.0355 -2.3213
  108MOL0     H14890   1.023   0.495   8.909  0.1171 -0.2475 -0.0615
  108MOL0     H14891   0.875   0.595   9.093 -0.2402  1.8853 -0.3469
  108MOL0     H14892   0.452   0.553   9.221  0.6924  2.1844 -0.8946
  108MOL0     H14893   0.464   0.442   9.084 -0.7326 -0.9549  1.3699
  108MOL0     H14894   0.550   0.373   9.374 -1.7991 -0.7471  0.4143
  108MOL0     H14895   0.580   0.268   9.245 -1.1933 -1.5915  1.0896
  108MOL0     H14896   0.331   0.251   9.185 -0.5401  1.7067  0.5455
  108MOL0     H14897   0.386   0.182   9.335  3.5660 -0.1232  0.5235
  108MOL0     H14898   0.178   0.306   9.320  2.1685 -3.5152 -0.2440
  108MOL0     H14899   0.263   0.468   9.333 -3.4993  0.4794  1.8678
  108MOL0     H14900   0.312   0.270   9.713 -1.3851  0.6795  0.8065
  108MOL0     H14901   0.581   0.302   8.993  0.4436 -1.2997  0.8383
  108MOL0     H14902   0.678   0.080   8.839  3.8700 -2.8501 -2.1309
  108MOL0     H14903   0.606   0.207   8.738  1.6966  0.8630 -0.4604
  108MOL0     H14904   0.772   0.135   8.710 -1.8385 -4.3534 -1.6994
  109MOL0     O14905   1.372   2.152   3.636 -0.1162 -0.6974  0.2201
  109MOL0     C14906   1.422   2.052   3.686 -0.2923 -0.0211 -0.0569
  109MOL0     O14907   1.554   2.010   3.673  0.0012 -0.0748 -1.0766
  109MOL0     C14908   1.643   2.099   3.617 -0.3298  0.4911 -0.7973
  109MOL0     C14909   1.716   2.041   3.514  0.8756 -1.1197  0.1319
  109MOL0     C14910   1.805   2.119   3.443 -0.4266 -0.1553 -0.4987
  109MOL0     C14911   1.817   2.254   3.460 -0.5756 -0.0483 -0.7354
  109MOL0     O14912   1.896   2.339   3.390  0.4251 -0.7838  0.1345
  109MOL0     C14913   2.029   2.295   3.363  0.3132 -0.1889 -0.4235
  109MOL0     C14914   2.119   2.341   3.477 -0.6083  1.1399 -0.0141
  109MOL0     C14915   2.264   2.303   3.443  0.1321  0.0491 -0.6488
  109MOL0     C14916   2.291   2.155   3.473  0.0308 -0.5348  0.9252
  109MOL0     C14917   2.442   2.136   3.483 -0.4630  0.5824 -0.0282
  109MOL0     C14918   2.514   2.144   3.346  0.1464  0.0121 -0.4364
  109MOL0     C14919   2.663   2.092   3.351  0.1380  0.4200 -1.5665
  109MOL0     C14920   2.747   2.146   3.463  0.0218 -0.0728  0.0621
  109MOL0     N14921   2.886   2.089   3.468  0.6453 -0.3611  0.3629
  109MOL0     C14922   2.991   2.168   3.510 -0.0139  0.7426  0.6692
  109MOL0     C14923   3.084   2.077   3.550 -0.1027 -0.5817 -0.1188
  109MOL0     C14924   3.206   2.127   3.604  0.4569  0.0442  0.5582
  109MOL0     C14925   3.313   2.014   3.617 -0.0174 -0.4891 -0.6184
  109MOL0     C14926   3.443   2.074   3.681  0.5309 -0.8236 -0.6681
  109MOL0     C14927   3.532   2.160   3.581  1.1957  0.5899 -0.2634
  109MOL0     O14928   3.622   2.217   3.680  0.2346 -0.4092  0.3541
  109MOL0     C14929   3.748   2.256   3.656 -0.5033  0.7470  0.3942
  109MOL0     C14930   3.796   2.377   3.705 -0.1693 -0.2155 -0.2386
  109MOL0     C14931   3.929   2.411   3.689  0.2254 -0.8728  0.0270
  109MOL0     C14932   3.965   2.551   3.732  0.6067 -0.2212  0.2760
  109MOL0     C14933   4.014   2.318   3.626  0.2512 -0.0437  0.0568
  109MOL0     C14934   4.163   2.329   3.624 -0.4028 -0.3375 -0.0735
  109MOL0     O14935   4.227   2.243   3.549  0.2384  0.3062  1.1762
  109MOL0     C14936   4.348   2.275   3.502 -0.7718  0.3268  0.0517
  109MOL0     C14937   4.363   2.332   3.375 -0.2324  0.7853  0.0367
  109MOL0     C14938   4.481   2.378   3.322 -0.4976  0.0295 -0.2465
  109MOL0     C14939   4.597   2.356   3.404  0.0762  0.2408  0.5575
  109MOL0     O14940   4.718   2.406   3.362  0.3972  0.1256  0.0282
  109MOL0     C14941   4.710   2.552   3.374 -0.4641 -0.2109  0.4104
  109MOL0     C14942   4.837   2.612   3.330 -0.2451  0.0581  0.7623
  109MOL0     C14943   4.847   2.614   3.174 -0.4694 -0.5163  0.1792
  109MOL0     C14944   4.977   2.667   3.120 -0.6917  0.5302 -0.2108
  109MOL0     C14945   4.968   2.736   2.979 -1.2255 -0.0095 -0.6354
  109MOL0     C14946   5.099   2.785   2.924  0.6366  0.4262  0.0372
  109MOL0     C14947   5.082   2.841   2.779 -0.2721  0.4214  0.1489
  109MOL0     C14948   5.189   2.935   2.719  0.4087  0.0258 -0.4086
  109MOL0    Cl14949   5.144   2.932   2.549 -0.1812 -0.4540  0.0798
  109MOL0     C14950   4.592   2.277   3.523 -0.5943 -0.3415 -0.1190
  109MOL0     C14951   4.472   2.248   3.568  0.7465  0.1163  0.0430
  109MOL0     O14952   4.221   2.406   3.695  0.4353  0.7066 -0.3187
  109MOL0     C14953   3.963   2.194   3.583 -0.3260  0.7015  0.3227
  109MOL0     C14954   3.830   2.164   3.592  0.5811  0.2181 -0.9342
  109MOL0     N14955   3.043   1.947   3.523 -0.2617  0.5840 -0.4200
  109MOL0     N14956   2.923   1.951   3.481  0.5382  0.8061  0.3964
  109MOL0     C14957   1.743   2.319   3.564  0.4574 -0.2910 -0.1178
  109MOL0     C14958   1.655   2.239   3.640  0.7448  0.5505  0.6086
  109MOL0     C14959   1.342   1.969   3.780 -0.3939 -0.6120 -0.7259
  109MOL0     C14960   1.384   1.835   3.817 -0.2600  0.7438 -0.3531
  109MOL0     C14961   1.308   1.759   3.902 -0.0285 -0.3709  0.6373
  109MOL0     C14962   1.192   1.808   3.964  1.0153  0.6691 -1.1015
  109MOL0     O14963   1.117   1.730   4.053  0.0614  0.5882  0.2678
  109MOL0     C14964   1.000   1.779   4.117 -0.0621 -0.0800  0.4488
  109MOL0     C14965   0.939   1.675   4.214 -0.2224  0.2973 -0.1472
  109MOL0     C14966   0.811   1.612   4.159 -0.0931 -0.0119 -0.1970
  109MOL0     C14967   0.837   1.551   4.027 -0.0146 -0.2498  1.4476
  109MOL0     C14968   0.729   1.467   4.000 -0.3212  0.3635 -0.2847
  109MOL0     C14969   0.634   1.397   3.989 -0.1675  0.4338 -0.0763
  109MOL0     C14970   1.150   1.938   3.931  0.8849  0.2410 -0.2945
  109MOL0     C14971   1.224   2.024   3.846  1.0597  0.1324  0.3758
  109MOL0     C14972   1.165   2.161   3.819  0.4482  0.3510  0.8323
  109MOL0     H14973   1.714   1.934   3.500  2.2091 -1.2270  0.6941
  109MOL0     H14974   1.869   2.065   3.373 -2.4128 -3.1194 -0.2096
  109MOL0     H14975   2.068   2.342   3.272  2.3248 -1.9732 -0.5490
  109MOL0     H14976   2.037   2.189   3.339 -0.5348 -0.1170 -1.0753
  109MOL0     H14977   2.116   2.448   3.498  0.7927  0.5818  4.0262
  109MOL0     H14978   2.086   2.295   3.571 -1.2704 -1.0951 -1.2546
  109MOL0     H14979   2.280   2.331   3.339 -1.5749  2.7797 -0.2862
  109MOL0     H14980   2.329   2.363   3.507 -3.1029  0.3678  2.6963
  109MOL0     H14981   2.254   2.128   3.573 -3.0187  2.4286  0.7633
  109MOL0     H14982   2.248   2.090   3.397  3.3389 -1.1997 -0.5420
  109MOL0     H14983   2.451   2.040   3.534 -1.2314  0.2029 -0.5791
  109MOL0     H14984   2.487   2.208   3.551 -0.8818  0.9096 -0.0958
  109MOL0     H14985   2.460   2.078   3.277 -3.4659  0.8712  1.3172
  109MOL0     H14986   2.521   2.246   3.307  1.9302  0.2368  0.3751
  109MOL0     H14987   2.705   2.127   3.257 -0.9033 -0.2249 -2.2874
  109MOL0     H14988   2.652   1.984   3.352 -2.0088  0.5007 -4.5744
  109MOL0     H14989   2.741   2.255   3.459 -2.3298 -0.1926 -1.9882
  109MOL0     H14990   2.714   2.131   3.566 -0.0457  1.7468  0.3410
  109MOL0     H14991   2.992   2.276   3.504 -0.6547  0.7253  0.1261
  109MOL0     H14992   3.181   2.165   3.704  0.3472 -0.9282  0.9111
  109MOL0     H14993   3.248   2.207   3.542 -1.1186  1.2000  0.9143
  109MOL0     H14994   3.278   1.927   3.673  1.3857 -0.2132  0.7690
  109MOL0     H14995   3.344   1.967   3.523  0.9614 -0.5991 -0.2573
  109MOL0     H14996   3.416   2.136   3.767  0.1429  1.7027 -2.5106
  109MOL0     H14997   3.499   1.989   3.721 -0.3867 -1.2632 -0.2676
  109MOL0     H14998   3.573   2.097   3.502  0.1186 -0.7166  0.1767
  109MOL0     H14999   3.472   2.243   3.542 -3.1579 -0.0207  4.1488
  109MOL0     H15000   3.724   2.439   3.757  0.7665 -1.0725  2.1760
  109MOL0     H15001   3.987   2.607   3.640  3.1179 -1.1718  0.2404
  109MOL0     H15002   4.045   2.555   3.806  1.9837 -1.0856 -1.1165
  109MOL0     H15003   3.874   2.600   3.770  0.9002  2.3663 -1.9958
  109MOL0     H15004   4.269   2.351   3.323 -1.3823  1.0529  2.1230
  109MOL0     H15005   4.478   2.449   3.240 -2.2242  1.8690  1.2858
  109MOL0     H15006   4.631   2.603   3.318  2.1538  2.2709 -1.3534
  109MOL0     H15007   4.692   2.582   3.477 -1.1041  0.6310  0.0602
  109MOL0     H15008   4.859   2.709   3.375  5.7164 -0.1187 -0.8398
  109MOL0     H15009   4.922   2.558   3.375 -0.4679 -1.7598 -0.8541
  109MOL0     H15010   4.764   2.678   3.142  0.2984  0.3446 -0.1166
  109MOL0     H15011   4.826   2.517   3.129 -0.4331 -0.9552  1.0789
  109MOL0     H15012   5.063   2.600   3.118  0.9300  2.3720  1.7126
  109MOL0     H15013   5.014   2.738   3.195 -1.9732 -1.0389  2.0341
  109MOL0     H15014   4.947   2.659   2.904  2.4662  0.0494 -1.9393
  109MOL0     H15015   4.885   2.807   2.983 -1.5595 -0.4370  0.9460
  109MOL0     H15016   5.176   2.707   2.923  2.7260  2.0775 -5.5763
  109MOL0     H15017   5.134   2.863   2.992 -0.9620  2.8960 -1.7845
  109MOL0     H15018   4.991   2.899   2.767 -0.0053  0.8455  0.1673
  109MOL0     H15019   5.063   2.760   2.707 -1.9569  1.4876 -0.6520
  109MOL0     H15020   5.293   2.900   2.721 -0.0322 -1.3440  1.5784
  109MOL0     H15021   5.184   3.039   2.751 -3.2318  0.1523 -1.0110
  109MOL0     H15022   4.689   2.235   3.552 -1.2162 -0.6794  1.6032
  109MOL0     H15023   4.461   2.189   3.659 -1.5357 -1.1731 -0.9809
  109MOL0     H15024   4.041   2.125   3.551 -1.3258 -0.0148 -0.6331
  109MOL0     H15025   3.789   2.065   3.573  0.6649 -0.2044  0.9352
  109MOL0     H15026   1.753   2.426   3.579  3.3557 -0.7129  1.8700
  109MOL0     H15027   1.598   2.290   3.717  2.1586  2.3626  0.5402
  109MOL0     H15028   1.475   1.793   3.774  0.7724  2.1170  0.4141
  109MOL0     H15029   1.319   1.655   3.930 -0.4340 -0.8507 -0.8810
  109MOL0     H15030   1.023   1.869   4.175 -0.2459  1.1721 -1.3588
  109MOL0     H15031   0.930   1.812   4.040 -0.0765 -1.7542 -0.2941
  109MOL0     H15032   0.914   1.725   4.308 -0.2652  0.0025 -0.0015
  109MOL0     H15033   1.006   1.591   4.235  0.1405 -0.5555 -4.0757
  109MOL0     H15034   0.752   1.555   4.231  0.8608  0.2621  0.8132
  109MOL0     H15035   0.735   1.688   4.134  1.2743  0.7491 -2.3381
  109MOL0     H15036   0.928   1.492   4.034  0.2032 -0.2673 -0.8156
  109MOL0     H15037   0.849   1.622   3.945  1.7499 -0.1981  1.7214
  109MOL0     H15038   0.553   1.327   3.979  1.2890 -1.5497  1.2519
  109MOL0     H15039   1.056   1.967   3.976  0.2583 -2.7166  0.5049
  109MOL0     H15040   1.129   2.175   3.717  0.0098  0.7277  1.0358
  109MOL0     H15041   1.077   2.177   3.883 -0.3040 -2.7376  0.7491
  109MOL0     H15042   1.229   2.243   3.850  0.9208 -0.2286  1.4306
  110MOL0     O15043   1.954   6.430   3.917 -0.3392  0.9298  0.3481
  110MOL0     C15044   1.987   6.538   3.961 -0.2092 -0.5202 -0.0408
  110MOL0     O15045   2.104   6.560   4.037 -0.3832 -0.2182  0.1132
  110MOL0     C15046   2.168   6.447   4.078 -0.1812  0.6760  0.6185
  110MOL0     C15047   2.126   6.372   4.192 -0.3237 -0.5031  1.0595
  110MOL0     C15048   2.198   6.263   4.240  0.5832  0.1118 -0.1360
  110MOL0     C15049   2.316   6.211   4.170  0.4496 -0.5941 -0.4047
  110MOL0     O15050   2.391   6.103   4.211  0.9781  0.2115  0.5715
  110MOL0     C15051   2.410   6.004   4.103 -0.8512  1.2310 -0.0286
  110MOL0     C15052   2.509   5.894   4.154  0.5816  0.5817  0.7342
  110MOL0     C15053   2.651   5.944   4.189 -0.7362 -0.5464  0.1375
  110MOL0     C15054   2.741   5.826   4.241 -0.1207  0.5564 -0.1072
  110MOL0     C15055   2.700   5.788   4.379 -0.1482 -0.3375 -0.3093
  110MOL0     C15056   2.799   5.694   4.449 -0.1844 -0.1882  0.8347
  110MOL0     C15057   2.795   5.546   4.417 -0.0110  0.2896  0.5538
  110MOL0     C15058   2.666   5.472   4.446  0.2134  0.2238 -0.1214
  110MOL0     N15059   2.615   5.509   4.577 -0.9411 -0.2268  0.0072
  110MOL0     C15060   2.659   5.432   4.690 -0.5442 -0.0248 -0.6285
  110MOL0     C15061   2.573   5.465   4.790  0.8250  1.1085  0.1982
  110MOL0     C15062   2.571   5.407   4.931 -0.1805 -0.5828 -0.4990
  110MOL0     C15063   2.438   5.346   4.971 -0.0448  0.0035 -0.1298
  110MOL0     C15064   2.410   5.199   4.944  0.7920  0.3017  0.5283
  110MOL0     C15065   2.501   5.101   5.023 -0.6460 -0.4220 -0.0100
  110MOL0     O15066   2.482   4.965   4.984  0.5987  0.2804  0.3198
  110MOL0     C15067   2.517   4.912   4.860  0.2259  1.1650  0.3526
  110MOL0     C15068   2.439   4.805   4.811  0.0502 -0.3276 -0.5743
  110MOL0     C15069   2.461   4.741   4.685 -0.5762  0.3624 -0.3806
  110MOL0     C15070   2.350   4.648   4.643 -0.6605  0.3836 -0.0918
  110MOL0     C15071   2.568   4.777   4.607  0.2125 -0.0326  0.2307
  110MOL0     C15072   2.623   4.696   4.497  0.8806 -0.4618  0.2470
  110MOL0     O15073   2.570   4.571   4.475 -0.2207  0.6600 -0.1736
  110MOL0     C15074   2.643   4.494   4.389 -0.2982  0.4176 -1.2918
  110MOL0     C15075   2.735   4.407   4.452  0.2100 -0.0761 -0.2558
  110MOL0     C15076   2.834   4.328   4.383  0.0239  0.0185  0.2613
  110MOL0     C15077   2.840   4.341   4.243 -0.0854  0.9112  0.8175
  110MOL0     O15078   2.944   4.275   4.189  1.2679 -0.2495  0.3310
  110MOL0     C15079   2.984   4.300   4.056  0.2970 -0.4455  0.5547
  110MOL0     C15080   3.142   4.265   4.037  0.7074 -0.1117  0.7625
  110MOL0     C15081   3.181   4.290   3.890 -0.9955  0.3153  0.5094
  110MOL0     C15082   3.343   4.264   3.883  0.8834 -0.7613  0.1549
  110MOL0     C15083   3.388   4.299   3.736 -0.0162  0.2908 -0.5449
  110MOL0     C15084   3.540   4.271   3.711 -0.2837  0.1579 -1.3952
  110MOL0     C15085   3.568   4.281   3.561 -0.4375  0.2371 -0.3539
  110MOL0     C15086   3.685   4.184   3.520 -0.8525 -0.4897 -0.0007
  110MOL0    Cl15087   3.836   4.234   3.619 -0.5067  0.0346  0.7677
  110MOL0     C15088   2.744   4.424   4.168  0.5845  0.1599 -0.6907
  110MOL0     C15089   2.644   4.496   4.249  0.1865  0.9763  0.0546
  110MOL0     O15090   2.717   4.740   4.430 -0.8233  0.3525 -0.1452
  110MOL0     C15091   2.654   4.884   4.664  1.0010  0.7320  0.6587
  110MOL0     C15092   2.623   4.949   4.780  0.1877 -0.6167  0.0220
  110MOL0     N15093   2.482   5.554   4.739 -0.0342 -0.6704 -0.2937
  110MOL0     N15094   2.495   5.567   4.608 -0.2938 -0.3160  0.2760
  110MOL0     C15095   2.353   6.285   4.063 -0.0327 -0.5507  0.3567
  110MOL0     C15096   2.283   6.398   4.009 -0.6871  0.7597 -0.0724
  110MOL0     C15097   1.925   6.661   3.909 -0.7976  0.5485  0.2768
  110MOL0     C15098   1.990   6.779   3.943  0.3387  1.5242 -0.8967
  110MOL0     C15099   1.946   6.902   3.892 -0.4493 -1.1152  0.0765
  110MOL0     C15100   1.841   6.905   3.804  0.5784  0.7417  0.3569
  110MOL0     O15101   1.808   7.025   3.750 -0.0255 -0.2274 -0.5197
  110MOL0     C15102   1.669   7.052   3.726  0.4598 -0.1971 -0.2313
  110MOL0     C15103   1.585   7.076   3.851  0.8383  0.8949  0.2821
  110MOL0     C15104   1.646   7.184   3.929  0.2933 -0.7435  0.1083
  110MOL0     C15105   1.600   7.165   4.075 -1.0227  0.5598  0.6597
  110MOL0     C15106   1.647   7.279   4.157 -0.2440  1.0122 -0.7476
  110MOL0     C15107   1.671   7.370   4.234  0.8205  0.4636  0.1940
  110MOL0     C15108   1.773   6.789   3.773  0.3075 -0.7608  0.3110
  110MOL0     C15109   1.811   6.669   3.826  0.7000  0.4513  1.1109
  110MOL0     C15110   1.722   6.556   3.780  0.1031  0.3713  0.2030
  110MOL0     H15111   2.044   6.418   4.247  0.1815  2.6990 -0.6076
  110MOL0     H15112   2.174   6.211   4.332  0.6127  1.5142  0.6820
  110MOL0     H15113   2.450   6.048   4.012  3.2770  2.7133  2.2025
  110MOL0     H15114   2.313   5.959   4.083  0.6666 -3.6075  1.9105
  110MOL0     H15115   2.465   5.831   4.232 -2.7865 -0.1051 -1.4914
  110MOL0     H15116   2.507   5.832   4.065 -2.2453  1.5552  0.0042
  110MOL0     H15117   2.715   5.981   4.109  0.2113  0.0551  1.1605
  110MOL0     H15118   2.648   6.028   4.259  1.4217 -0.5632  0.2912
  110MOL0     H15119   2.718   5.739   4.178 -1.3057  1.4327 -0.9311
  110MOL0     H15120   2.846   5.853   4.237  0.0742 -0.0449  0.6035
  110MOL0     H15121   2.597   5.756   4.394  0.3975 -0.8832  3.1209
  110MOL0     H15122   2.687   5.880   4.437 -4.5470 -0.3361 -0.9856
  110MOL0     H15123   2.898   5.732   4.426 -0.9751  0.9540 -0.8849
  110MOL0     H15124   2.787   5.707   4.557  1.5734 -0.1002  1.0478
  110MOL0     H15125   2.879   5.497   4.469  0.6790  0.4199 -0.4148
  110MOL0     H15126   2.810   5.533   4.310 -0.3343  1.7387  0.3136
  110MOL0     H15127   2.588   5.497   4.374 -1.1477 -2.0708  0.4310
  110MOL0     H15128   2.674   5.362   4.443 -1.9176  0.0524 -1.5471
  110MOL0     H15129   2.747   5.369   4.693 -0.9829 -0.6743  2.1686
  110MOL0     H15130   2.589   5.487   5.004  1.1585 -0.5195 -0.8689
  110MOL0     H15131   2.658   5.342   4.942 -0.5577 -1.0287 -0.1131
  110MOL0     H15132   2.425   5.347   5.080 -2.5136 -1.1573 -0.3284
  110MOL0     H15133   2.349   5.393   4.928 -1.8142 -0.8001  2.3819
  110MOL0     H15134   2.306   5.180   4.972  1.0151 -0.4409  0.8697
  110MOL0     H15135   2.427   5.177   4.838 -0.9431 -0.1703  0.3048
  110MOL0     H15136   2.602   5.128   4.990  0.5408 -0.6263  3.0864
  110MOL0     H15137   2.512   5.124   5.129  0.8869  2.2566 -0.6518
  110MOL0     H15138   2.365   4.763   4.879 -0.0931  0.5231 -0.1873
  110MOL0     H15139   2.259   4.660   4.703 -0.3861 -0.9438  0.6182
  110MOL0     H15140   2.382   4.545   4.660 -0.5083  0.3514 -0.5540
  110MOL0     H15141   2.329   4.660   4.536 -1.3594  0.8366  0.0818
  110MOL0     H15142   2.733   4.394   4.560  0.9570  1.3668 -0.0301
  110MOL0     H15143   2.904   4.261   4.431 -0.1708 -0.4420 -0.0853
  110MOL0     H15144   2.921   4.236   3.994 -1.2834 -0.7615  2.3875
  110MOL0     H15145   2.956   4.401   4.027 -0.5345 -0.8830 -0.1808
  110MOL0     H15146   3.208   4.327   4.097 -1.4096  1.5462  1.4987
  110MOL0     H15147   3.154   4.162   4.073 -0.6358 -0.5423  0.0659
  110MOL0     H15148   3.169   4.397   3.867  1.6181  0.4967 -0.3056
  110MOL0     H15149   3.135   4.221   3.819  1.8781 -1.0728 -0.1354
  110MOL0     H15150   3.362   4.159   3.907  4.7946  0.3759  3.0811
  110MOL0     H15151   3.395   4.331   3.952 -0.1157 -0.3394  0.5173
  110MOL0     H15152   3.327   4.250   3.659 -0.7636  1.7277 -0.9080
  110MOL0     H15153   3.368   4.405   3.716 -3.4021  0.3415  2.2271
  110MOL0     H15154   3.568   4.174   3.754  0.5251  1.3150  0.8511
  110MOL0     H15155   3.601   4.338   3.773 -1.8010 -1.9175  2.7137
  110MOL0     H15156   3.597   4.383   3.533  0.9952  1.2430  3.9287
  110MOL0     H15157   3.481   4.263   3.498 -0.2026  0.7683 -0.8457
  110MOL0     H15158   3.714   4.184   3.414  1.7910  0.3205  0.6366
  110MOL0     H15159   3.660   4.082   3.550 -1.5105 -0.5406 -0.6873
  110MOL0     H15160   2.755   4.438   4.061  4.9736 -0.5610 -0.4956
  110MOL0     H15161   2.573   4.564   4.203  1.2295  0.6386 -2.1863
  110MOL0     H15162   2.737   4.914   4.602 -0.0298  0.4566 -0.9108
  110MOL0     H15163   2.691   5.021   4.825  1.3737 -1.2260 -0.7610
  110MOL0     H15164   2.436   6.263   3.996 -0.2418  0.5222 -0.2879
  110MOL0     H15165   2.328   6.440   3.920 -2.0900  2.2164 -0.1345
  110MOL0     H15166   2.079   6.796   4.003 -1.4329 -0.4687  2.6584
  110MOL0     H15167   1.990   6.996   3.921 -0.1107 -1.0146 -0.7247
  110MOL0     H15168   1.666   7.142   3.664 -0.1000 -0.7556 -1.0440
  110MOL0     H15169   1.613   6.985   3.660 -1.7422  2.7189 -1.5440
  110MOL0     H15170   1.594   6.993   3.921 -2.3582  1.0026  0.9751
  110MOL0     H15171   1.482   7.094   3.820  0.6797  0.4652  0.5663
  110MOL0     H15172   1.755   7.183   3.940  0.6136  0.0024 -2.3502
  110MOL0     H15173   1.603   7.279   3.894 -2.4616  0.1963  5.0764
  110MOL0     H15174   1.649   7.078   4.119  1.3757  2.0675  1.1734
  110MOL0     H15175   1.491   7.164   4.075 -1.0212 -0.7709  0.7293
  110MOL0     H15176   1.690   7.449   4.304 -0.9205  0.9318  0.1844
  110MOL0     H15177   1.688   6.792   3.706  0.5914 -0.4413 -0.0373
  110MOL0     H15178   1.759   6.504   3.692  1.4684  0.9904  0.3927
  110MOL0     H15179   1.720   6.477   3.856  2.9078 -1.4152 -1.4364
  110MOL0     H15180   1.620   6.595   3.769  0.9703  2.6241 -0.4360
  111MOL0     O15181   7.294   4.110   8.155  0.3993 -0.8015 -0.1097
  111MOL0     C15182   7.370   4.204   8.197  0.0378  0.6123 -0.1311
  111MOL0     O15183   7.441   4.200   8.312  0.5220 -0.4575  0.1359
  111MOL0     C15184   7.414   4.110   8.416 -0.6572  0.7334  0.3499
  111MOL0     C15185   7.307   4.030   8.436  0.4579 -0.3695  0.3973
  111MOL0     C15186   7.296   3.950   8.557  0.1128 -0.8773  0.5739
  111MOL0     C15187   7.401   3.942   8.652 -0.2160  0.1975 -0.1055
  111MOL0     O15188   7.397   3.838   8.747  0.1622  0.6519  0.1546
  111MOL0     C15189   7.491   3.814   8.851  0.4828 -0.6717  0.2854
  111MOL0     C15190   7.441   3.687   8.929 -0.9933 -0.1323 -0.1483
  111MOL0     C15191   7.298   3.711   8.988 -0.3569  0.3447 -0.4256
  111MOL0     C15192   7.251   3.599   9.077 -1.0567  0.1285 -0.3085
  111MOL0     C15193   7.104   3.615   9.120  0.7016 -0.6055  0.5487
  111MOL0     C15194   7.075   3.761   9.154 -0.5124  0.2701  0.0651
  111MOL0     C15195   6.951   3.761   9.222 -0.2236  0.6473 -0.3395
  111MOL0     C15196   6.967   3.710   9.368  0.0126 -0.7006  0.7996
  111MOL0     N15197   7.004   3.823   9.464 -1.0534 -0.5570 -0.7432
  111MOL0     C15198   6.935   3.937   9.475  0.6961 -0.5905 -0.4037
  111MOL0     C15199   6.976   4.004   9.590 -0.4486 -0.8313 -0.0360
  111MOL0     C15200   6.908   4.128   9.649 -0.4056  0.2989 -0.0139
  111MOL0     C15201   6.906   4.254   9.555 -1.0180  0.0440 -1.0113
  111MOL0     C15202   6.867   4.382   9.639  0.3059 -0.8147 -0.2627
  111MOL0     C15203   6.873   4.520   9.569  0.0547  0.3338 -0.2963
  111MOL0     O15204   6.775   4.611   9.626  0.3233 -0.2044 -0.1009
  111MOL0     C15205   6.643   4.601   9.596 -0.6102 -0.5210 -0.6691
  111MOL0     C15206   6.588   4.519   9.494  0.0914  0.4394 -0.2659
  111MOL0     C15207   6.454   4.511   9.470  0.3132  0.1275  0.1427
  111MOL0     C15208   6.411   4.428   9.347 -0.0191  0.4950  0.6764
  111MOL0     C15209   6.364   4.584   9.549  0.3540  0.3972 -0.6916
  111MOL0     C15210   6.225   4.603   9.508  0.0227  0.5638  0.5421
  111MOL0     O15211   6.132   4.610   9.608  0.4173  0.0113  0.9099
  111MOL0     C15212   6.009   4.664   9.576  0.5513 -0.6254  0.9454
  111MOL0     C15213   5.893   4.619   9.649 -0.1295  0.6625 -0.2966
  111MOL0     C15214   5.762   4.670   9.619 -0.0263 -0.7499 -0.4990
  111MOL0     C15215   5.746   4.766   9.522  0.5893 -0.6386  0.4777
  111MOL0     O15216   5.632   4.828   9.489  0.2931 -0.1796 -0.4134
  111MOL0     C15217   5.511   4.753   9.476  0.0696  0.1577 -0.3781
  111MOL0     C15218   5.519   4.681   9.338  0.0972 -0.6763  0.2198
  111MOL0     C15219   5.515   4.775   9.219  0.1375  0.2335  0.6439
  111MOL0     C15220   5.473   4.709   9.089 -0.3451  0.2070  0.4722
  111MOL0     C15221   5.442   4.799   8.973 -0.0734  0.3648  0.0755
  111MOL0     C15222   5.377   4.719   8.858 -0.3003 -0.2701  0.9875
  111MOL0     C15223   5.337   4.797   8.729  0.9348  0.7200  0.4348
  111MOL0     C15224   5.233   4.713   8.664  1.2580 -0.3241 -0.7930
  111MOL0    Cl15225   5.079   4.709   8.761  0.3194  0.0132 -0.0112
  111MOL0     C15226   5.851   4.797   9.442 -0.0543 -0.1419  0.0003
  111MOL0     C15227   5.978   4.756   9.471 -0.1313  0.0772  0.0633
  111MOL0     O15228   6.210   4.624   9.383 -0.7211  0.6089 -0.3687
  111MOL0     C15229   6.407   4.669   9.644  0.0995 -0.9599  0.2079
  111MOL0     C15230   6.546   4.676   9.674 -0.0768 -0.7067 -0.7827
  111MOL0     N15231   7.068   3.914   9.652  0.4073 -0.4024 -0.1365
  111MOL0     N15232   7.084   3.806   9.580  0.5172  0.4999  0.2296
  111MOL0     C15233   7.510   4.031   8.631  0.1837  0.9063 -0.3745
  111MOL0     C15234   7.514   4.113   8.515 -0.4334 -0.5687 -0.8656
  111MOL0     C15235   7.373   4.327   8.121 -0.0724  0.1373  0.2352
  111MOL0     C15236   7.274   4.426   8.131 -0.0489 -0.5153  0.1841
  111MOL0     C15237   7.266   4.534   8.047  0.2491 -0.8691 -1.0770
  111MOL0     C15238   7.373   4.570   7.969  1.1801 -0.9473 -1.2431
  111MOL0     O15239   7.346   4.672   7.881  0.7027  0.6666  0.2749
  111MOL0     C15240   7.424   4.698   7.763  0.3664 -0.4725 -0.4594
  111MOL0     C15241   7.537   4.801   7.777  0.3539  0.0592  0.2040
  111MOL0     C15242   7.475   4.941   7.767 -0.8000  0.1073  0.0635
  111MOL0     C15243   7.573   5.042   7.839  0.5620  0.0951  0.9048
  111MOL0     C15244   7.700   5.053   7.770  0.1153  0.3148 -0.3226
  111MOL0     C15245   7.793   5.079   7.702 -0.5483  0.2645  0.0863
  111MOL0     C15246   7.482   4.488   7.972  0.4245  0.2037  0.3733
  111MOL0     C15247   7.481   4.363   8.045  0.1822 -0.6753  0.6201
  111MOL0     C15248   7.612   4.291   8.037 -0.1387  0.6657  0.4487
  111MOL0     H15249   7.233   4.039   8.357  3.8963  1.3257 -2.9911
  111MOL0     H15250   7.203   3.898   8.577 -2.3512  3.3742  1.3975
  111MOL0     H15251   7.497   3.902   8.915  1.2175  0.1732 -0.9133
  111MOL0     H15252   7.590   3.798   8.807  0.0513  1.0924 -1.4301
  111MOL0     H15253   7.447   3.606   8.856  2.8235  2.0278 -2.6048
  111MOL0     H15254   7.512   3.653   9.005 -0.8504 -1.5243 -0.8703
  111MOL0     H15255   7.292   3.810   9.033  2.8590  2.0602 -3.3285
  111MOL0     H15256   7.225   3.718   8.907  0.2800 -0.7039 -1.1164
  111MOL0     H15257   7.267   3.509   9.017 -0.2060  2.3807 -3.7622
  111MOL0     H15258   7.316   3.600   9.165 -1.4521 -0.8254  0.0032
  111MOL0     H15259   7.067   3.538   9.189 -1.0469  0.5050  0.9100
  111MOL0     H15260   7.047   3.604   9.027  1.6547  1.9866 -0.4056
  111MOL0     H15261   7.158   3.805   9.209 -0.3054  0.9299 -0.7481
  111MOL0     H15262   7.066   3.810   9.057 -0.5451 -1.6683 -0.9559
  111MOL0     H15263   6.887   3.686   9.175 -0.6916  1.6367 -1.3098
  111MOL0     H15264   6.905   3.859   9.206  0.4431  1.0294  0.0029
  111MOL0     H15265   6.877   3.654   9.394 -1.2954  1.3015  0.8301
  111MOL0     H15266   7.042   3.632   9.374  0.1919 -0.7772 -1.6169
  111MOL0     H15267   6.850   3.960   9.411 -1.8222 -0.4972  2.7040
  111MOL0     H15268   6.956   4.162   9.741 -1.2443 -0.3345  0.6785
  111MOL0     H15269   6.807   4.099   9.680  0.2822 -5.6241 -1.9588
  111MOL0     H15270   7.006   4.274   9.515 -1.0129  2.7859  0.1569
  111MOL0     H15271   6.829   4.244   9.478  0.1974  0.0817 -2.2726
  111MOL0     H15272   6.762   4.368   9.667 -0.8610  1.0092 -3.2633
  111MOL0     H15273   6.930   4.400   9.726 -0.1718  0.9865 -0.2491
  111MOL0     H15274   6.962   4.576   9.598 -0.1106 -0.1599  1.3089
  111MOL0     H15275   6.859   4.517   9.461 -2.6703  0.2958 -0.0257
  111MOL0     H15276   6.645   4.450   9.431  0.4630 -2.1438  2.6680
  111MOL0     H15277   6.355   4.495   9.280  0.7933  0.4549 -0.0654
  111MOL0     H15278   6.338   4.354   9.380  1.3966 -1.4276 -0.3264
  111MOL0     H15279   6.492   4.386   9.286 -2.8650 -2.6149 -1.3296
  111MOL0     H15280   5.906   4.538   9.720  0.2286  0.6184 -0.4105
  111MOL0     H15281   5.679   4.629   9.675  0.0638 -0.6152 -0.2652
  111MOL0     H15282   5.505   4.671   9.548 -2.6456  1.0124  0.5044
  111MOL0     H15283   5.427   4.823   9.476  1.2293  1.6517  1.8691
  111MOL0     H15284   5.611   4.623   9.331  1.3429  1.3484 -1.1440
  111MOL0     H15285   5.438   4.609   9.323 -0.0684 -0.1842 -1.4019
  111MOL0     H15286   5.610   4.829   9.219  1.3142 -1.5926 -1.7974
  111MOL0     H15287   5.439   4.852   9.231  0.9950  1.2552 -0.2330
  111MOL0     H15288   5.384   4.646   9.103  1.0391 -2.3429 -1.3128
  111MOL0     H15289   5.548   4.635   9.060  2.2981  2.8016  0.2646
  111MOL0     H15290   5.378   4.884   8.997 -0.0771  1.5775 -3.6118
  111MOL0     H15291   5.538   4.837   8.936 -0.2793 -0.5574 -1.4626
  111MOL0     H15292   5.283   4.679   8.897 -0.5105  0.7726  1.5567
  111MOL0     H15293   5.440   4.632   8.833 -0.6093 -0.8207  2.0451
  111MOL0     H15294   5.422   4.818   8.664 -0.0771  0.7699 -0.9016
  111MOL0     H15295   5.286   4.892   8.745  1.3216  0.8422  0.9580
  111MOL0     H15296   5.283   4.616   8.657  2.8108  0.1016  2.4515
  111MOL0     H15297   5.212   4.761   8.568 -0.8646  1.1259  0.3230
  111MOL0     H15298   5.856   4.863   9.355  2.7878  1.4677  1.2239
  111MOL0     H15299   6.055   4.810   9.416  2.0358 -0.2505  2.5646
  111MOL0     H15300   6.338   4.711   9.717 -2.1326 -1.8798 -1.2589
  111MOL0     H15301   6.581   4.750   9.745 -2.9595  1.0986 -1.0976
  111MOL0     H15302   7.594   4.017   8.698  0.9371 -2.1277 -1.7838
  111MOL0     H15303   7.584   4.196   8.509 -0.8567 -0.1594 -0.2673
  111MOL0     H15304   7.196   4.427   8.206  2.7761 -1.1605  3.4012
  111MOL0     H15305   7.181   4.601   8.042 -0.2816 -1.5749 -1.8296
  111MOL0     H15306   7.478   4.610   7.730  0.5158 -0.1349 -1.1323
  111MOL0     H15307   7.354   4.723   7.683 -0.1572  2.6664  0.8380
  111MOL0     H15308   7.609   4.788   7.696  0.1215  0.8600 -0.1481
  111MOL0     H15309   7.584   4.776   7.873  1.7328  0.0647 -0.4509
  111MOL0     H15310   7.447   4.968   7.665 -1.5436  0.2022  0.2893
  111MOL0     H15311   7.378   4.953   7.816 -0.0396  1.5455  1.3345
  111MOL0     H15312   7.602   5.012   7.940  0.5021 -1.7669  0.4060
  111MOL0     H15313   7.530   5.142   7.845 -0.6300 -0.4151  1.2174
  111MOL0     H15314   7.869   5.110   7.633 -0.1330 -3.1679 -1.2124
  111MOL0     H15315   7.568   4.518   7.913 -0.4818 -0.0955 -1.1358
  111MOL0     H15316   7.677   4.347   8.105 -1.5848  1.9495  0.8283
  111MOL0     H15317   7.606   4.185   8.064 -2.6949  0.9936  1.3924
  111MOL0     H15318   7.650   4.284   7.934  2.6153 -1.4657  1.4773
  112MOL0     O15319   7.290   3.220   0.047 -0.7339  0.0267  0.2753
  112MOL0     C15320   7.411   3.181   0.072  1.2880 -0.3343 -0.5883
  112MOL0     O15321   7.447   3.050   0.101  1.1228 -0.0504  0.6605
  112MOL0     C15322   7.357   2.953   0.053 -0.5148 -0.0860 -0.6535
  112MOL0     C15323   7.279   2.887   0.142 -0.7789 -0.2402 -0.3163
  112MOL0     C15324   7.197   2.782   0.114 -0.4585 -0.8984  0.3276
  112MOL0     C15325   7.205   2.725  -0.014 -0.7301  0.6810  0.1610
  112MOL0     O15326   7.132   2.614  -0.042  0.5078  0.0229 -0.4307
  112MOL0     C15327   7.191   2.529  -0.143 -0.0914 -0.6562  0.7382
  112MOL0     C15328   7.129   2.388  -0.141  0.6558  0.2604 -0.8078
  112MOL0     C15329   7.140   2.322  -0.002  0.2543  0.5894 -0.4812
  112MOL0     C15330   7.276   2.234   0.020  0.2054 -0.7202  0.1325
  112MOL0     C15331   7.260   2.156   0.152 -0.5374 -0.6333  0.2568
  112MOL0     C15332   7.392   2.078   0.179 -0.6487 -0.1895  0.9361
  112MOL0     C15333   7.379   1.965   0.287  0.2945 -0.2617  0.9406
  112MOL0     C15334   7.511   1.901   0.326  0.4648  0.1752 -0.7182
  112MOL0     N15335   7.483   1.799   0.432  0.5416 -0.7022 -0.3333
  112MOL0     C15336   7.386   1.703   0.440 -0.0267 -0.2331  0.3450
  112MOL0     C15337   7.407   1.636   0.553  0.3260  0.2926  0.8248
  112MOL0     C15338   7.332   1.528   0.624  0.6174  0.2524  0.2379
  112MOL0     C15339   7.398   1.396   0.606  0.5913  0.6136 -0.5916
  112MOL0     C15340   7.322   1.290   0.701  1.0426 -1.1542  0.2539
  112MOL0     C15341   7.341   1.145   0.667  0.6283  0.7021  0.0333
  112MOL0     O15342   7.240   1.080   0.752  0.4424  0.0591  0.3992
  112MOL0     C15343   7.246   0.941   0.756  0.3210 -0.3479  0.1973
  112MOL0     C15344   7.336   0.849   0.688 -0.2468 -0.4528  0.3126
  112MOL0     C15345   7.320   0.702   0.691 -0.2467 -0.7110  0.0533
  112MOL0     C15346   7.404   0.626   0.596  0.4361  0.2300 -1.1396
  112MOL0     C15347   7.204   0.650   0.759  1.0360 -0.7956  0.4156
  112MOL0     C15348   7.177   0.496   0.771 -0.4512  0.1329 -0.1404
  112MOL0     O15349   7.046   0.470   0.801  0.0574  0.1650  0.5106
  112MOL0     C15350   7.014   0.334   0.783 -0.9178 -0.2794  0.2331
  112MOL0     C15351   7.003   0.279   0.656 -0.8154  0.4516  0.2898
  112MOL0     C15352   6.971   0.142   0.638  0.3308  1.1381  0.0718
  112MOL0     C15353   6.969   0.057   0.746  0.5310  0.5132  0.4964
  112MOL0     O15354   6.978  -0.082   0.720  0.5781  0.2446  0.4248
  112MOL0     C15355   7.038  -0.175   0.820  0.2613 -0.4693  0.1265
  112MOL0     C15356   7.009  -0.327   0.791  0.4348 -0.1709  0.4807
  112MOL0     C15357   6.851  -0.365   0.780  1.0907  0.8480  1.0118
  112MOL0     C15358   6.782  -0.363   0.926 -0.9038  0.1493  0.2452
  112MOL0     C15359   6.633  -0.367   0.920  0.3306 -1.1106 -0.0405
  112MOL0     C15360   6.586  -0.502   0.854  0.1134 -0.4643 -0.3482
  112MOL0     C15361   6.444  -0.486   0.797 -0.2065  1.0735 -0.2145
  112MOL0     C15362   6.378  -0.621   0.773  0.0566 -0.9470 -0.3415
  112MOL0    Cl15363   6.208  -0.598   0.723  0.3715 -0.1625 -0.0290
  112MOL0     C15364   6.978   0.110   0.874  0.0367 -0.1176  0.2707
  112MOL0     C15365   6.997   0.250   0.888  0.2032 -0.2543  0.1552
  112MOL0     O15366   7.270   0.415   0.756  0.0965 -0.5702  0.2208
  112MOL0     C15367   7.118   0.744   0.822 -0.0322  0.6769  0.7442
  112MOL0     C15368   7.136   0.883   0.815  0.4256 -0.3229  0.2219
  112MOL0     N15369   7.521   1.682   0.614 -0.2253  0.0372  0.1157
  112MOL0     N15370   7.568   1.784   0.543  0.2114 -0.7247 -0.0893
  112MOL0     C15371   7.284   2.787  -0.113  0.1699  0.1411  0.3928
  112MOL0     C15372   7.357   2.903  -0.079 -0.5628 -0.3838  0.2684
  112MOL0     C15373   7.520   3.279   0.097  0.0713 -1.0968 -0.3172
  112MOL0     C15374   7.646   3.231   0.124  0.3622 -0.1059  0.2480
  112MOL0     C15375   7.752   3.310   0.151  0.0431  0.9282 -0.3347
  112MOL0     C15376   7.737   3.443   0.172 -1.0199  0.1796  0.7766
  112MOL0     O15377   7.839   3.527   0.210  0.5782  0.2957  0.3458
  112MOL0     C15378   7.915   3.501   0.330  0.3620 -0.3093  0.7691
  112MOL0     C15379   8.040   3.409   0.322  0.1889 -0.2532 -0.0906
  112MOL0     C15380   8.101   3.375   0.460 -0.0621 -0.4820  0.5480
  112MOL0     C15381   8.140   3.488   0.556 -0.1387 -0.2102  0.2977
  112MOL0     C15382   8.028   3.572   0.620  0.0999  0.5739  0.0715
  112MOL0     C15383   7.939   3.632   0.677 -1.0249  0.5865  0.4124
  112MOL0     C15384   7.621   3.498   0.130  0.4924 -0.0186  0.2312
  112MOL0     C15385   7.508   3.414   0.095 -0.9520 -1.0835  0.2411
  112MOL0     C15386   7.386   3.489   0.051  0.3261 -0.3230  0.0538
  112MOL0     H15387   7.264   2.939   0.236  2.5297  0.7049 -0.1993
  112MOL0     H15388   7.126   2.743   0.187 -1.8788  2.2137  0.7873
  112MOL0     H15389   7.299   2.508  -0.142 -0.1488 -0.9515  0.8404
  112MOL0     H15390   7.166   2.571  -0.241 -4.0303 -2.0640  0.9589
  112MOL0     H15391   7.025   2.410  -0.169  1.1914  4.0146 -0.3494
  112MOL0     H15392   7.178   2.317  -0.208  0.4430 -0.9933  0.3064
  112MOL0     H15393   7.145   2.398   0.077  3.6170 -2.1808  2.3164
  112MOL0     H15394   7.056   2.254   0.014  0.4812  0.6704  1.2380
  112MOL0     H15395   7.304   2.176  -0.068  3.7026  0.7630  0.1031
  112MOL0     H15396   7.361   2.303   0.016 -0.9189  0.6529 -1.8760
  112MOL0     H15397   7.180   2.083   0.134 -2.2765  1.2169  0.0915
  112MOL0     H15398   7.223   2.218   0.233 -2.7535 -0.0553 -1.1150
  112MOL0     H15399   7.431   2.035   0.086 -1.1030 -1.1147  1.1538
  112MOL0     H15400   7.468   2.154   0.198  0.2990 -0.7997 -0.2952
  112MOL0     H15401   7.324   1.875   0.256  0.2910 -0.7301  2.2517
  112MOL0     H15402   7.331   2.002   0.378 -1.7581 -1.4942  0.4380
  112MOL0     H15403   7.552   1.852   0.237  1.7282  0.6997 -0.4391
  112MOL0     H15404   7.589   1.971   0.357 -0.0040  0.5093 -0.2695
  112MOL0     H15405   7.299   1.689   0.376 -1.3247 -1.3221  2.2307
  112MOL0     H15406   7.230   1.515   0.586  0.1185  0.7965  1.3138
  112MOL0     H15407   7.328   1.555   0.730 -3.4851  0.0665  0.2994
  112MOL0     H15408   7.398   1.344   0.510  0.4979  1.7160 -1.2147
  112MOL0     H15409   7.502   1.410   0.637  1.0963  0.3142 -2.0990
  112MOL0     H15410   7.363   1.307   0.801  0.5694 -0.4101  0.3306
  112MOL0     H15411   7.215   1.308   0.708  1.0304 -0.7187 -0.7518
  112MOL0     H15412   7.304   1.125   0.566 -2.0648 -0.6836  1.1734
  112MOL0     H15413   7.443   1.109   0.683 -0.0249  0.0082  3.3043
  112MOL0     H15414   7.424   0.878   0.632 -1.3416  0.1929 -1.1328
  112MOL0     H15415   7.479   0.567   0.649 -2.1507 -1.4591  0.9122
  112MOL0     H15416   7.473   0.690   0.540 -1.1832  0.9056 -2.4672
  112MOL0     H15417   7.350   0.555   0.532  0.8939 -0.3429 -0.8997
  112MOL0     H15418   7.024   0.341   0.569  1.1165 -0.8275 -0.2239
  112MOL0     H15419   6.952   0.095   0.542  1.3089 -0.0179  0.4140
  112MOL0     H15420   7.146  -0.159   0.818  0.1999  0.2381  1.5151
  112MOL0     H15421   7.002  -0.153   0.921 -1.5730 -1.2207 -0.3195
  112MOL0     H15422   7.054  -0.336   0.692 -0.0120 -2.6490  0.4492
  112MOL0     H15423   7.074  -0.384   0.857  2.1928 -0.7439 -1.6247
  112MOL0     H15424   6.840  -0.464   0.735  1.0866  1.0271  0.6116
  112MOL0     H15425   6.802  -0.299   0.707 -0.7680 -1.4700  0.0251
  112MOL0     H15426   6.809  -0.274   0.983 -3.0735  0.1627  1.3546
  112MOL0     H15427   6.821  -0.449   0.982  1.7493  0.4062 -1.0269
  112MOL0     H15428   6.603  -0.347   1.023  1.0403  3.1087 -0.4505
  112MOL0     H15429   6.592  -0.294   0.849  0.8305 -0.8826 -0.0943
  112MOL0     H15430   6.588  -0.576   0.933 -0.5536  1.7197  1.8371
  112MOL0     H15431   6.649  -0.542   0.773  2.1967  0.6211  0.6485
  112MOL0     H15432   6.453  -0.433   0.702 -1.3501  0.1445 -0.8823
  112MOL0     H15433   6.377  -0.438   0.870 -3.6668 -0.0927 -2.3531
  112MOL0     H15434   6.382  -0.680   0.864 -1.6129  0.3655  0.6346
  112MOL0     H15435   6.441  -0.668   0.696  0.3848  0.9220 -1.2785
  112MOL0     H15436   6.976   0.052   0.966  0.6866 -1.6776 -0.6715
  112MOL0     H15437   7.019   0.290   0.987  3.3181 -0.5044 -0.3257
  112MOL0     H15438   7.036   0.698   0.877  1.0555 -0.0358  1.8192
  112MOL0     H15439   7.066   0.949   0.866  1.1116  0.2149  0.4750
  112MOL0     H15440   7.304   2.756  -0.215  0.7085 -0.7162  0.7498
  112MOL0     H15441   7.419   2.945  -0.159 -3.2359  0.1872 -1.6648
  112MOL0     H15442   7.680   3.127   0.124  1.3660  0.1970  1.4492
  112MOL0     H15443   7.850   3.265   0.165  0.6977  2.3808 -0.0591
  112MOL0     H15444   7.942   3.606   0.346 -0.3740  0.2116 -1.0887
  112MOL0     H15445   7.849   3.460   0.407 -0.9452  0.7470  0.2581
  112MOL0     H15446   8.117   3.441   0.251 -0.4979  0.2859 -0.6040
  112MOL0     H15447   8.014   3.315   0.272 -3.9765  1.0944 -0.8777
  112MOL0     H15448   8.037   3.303   0.511 -1.6836 -0.7047 -1.6276
  112MOL0     H15449   8.199   3.333   0.437  1.0075  1.6126  1.0438
  112MOL0     H15450   8.211   3.554   0.506 -1.1482 -0.5202 -1.6434
  112MOL0     H15451   8.197   3.448   0.641  1.6750 -1.1073 -1.2737
  112MOL0     H15452   7.864   3.697   0.718 -0.7943 -0.2538  2.2825
  112MOL0     H15453   7.619   3.606   0.141  3.8187 -0.0941  3.6681
  112MOL0     H15454   7.371   3.464  -0.055  0.9317 -0.1723 -0.0718
  112MOL0     H15455   7.302   3.449   0.108  1.5728  0.3190  2.4897
  112MOL0     H15456   7.405   3.597   0.060 -0.6604 -0.2408  1.3426
  113MOL0     O15457   4.587   7.573   1.157  0.5083 -0.0043 -0.3187
  113MOL0     C15458   4.619   7.470   1.095  0.6776  0.3289 -0.3024
  113MOL0     O15459   4.548   7.353   1.097 -0.5255 -0.8954 -0.0630
  113MOL0     C15460   4.427   7.358   1.176  0.4567 -0.1559  0.4905
  113MOL0     C15461   4.321   7.442   1.130 -0.2141 -0.6249 -1.0670
  113MOL0     C15462   4.188   7.444   1.184  0.1267 -0.1226  0.3740
  113MOL0     C15463   4.166   7.375   1.300  0.2291  0.4649 -0.2927
  113MOL0     O15464   4.044   7.403   1.363  0.0319  0.9134 -0.5953
  113MOL0     C15465   4.037   7.367   1.499 -0.3094  1.1254  0.4580
  113MOL0     C15466   3.896   7.397   1.563 -0.6496 -1.1072  0.6415
  113MOL0     C15467   3.854   7.539   1.532  0.3369 -0.1974  0.0792
  113MOL0     C15468   3.725   7.563   1.615  0.9760  0.6423 -1.0201
  113MOL0     C15469   3.666   7.702   1.598  0.1616  0.2472  0.2836
  113MOL0     C15470   3.624   7.719   1.454 -1.3827 -0.5315  0.2438
  113MOL0     C15471   3.518   7.837   1.437  0.4007 -0.9235 -1.1183
  113MOL0     C15472   3.461   7.841   1.294 -0.0189 -0.0450 -1.2361
  113MOL0     N15473   3.345   7.934   1.280 -0.1093 -0.9520 -0.5259
  113MOL0     C15474   3.217   7.889   1.263  1.0718 -0.0436  0.3263
  113MOL0     C15475   3.147   7.999   1.219 -0.8496 -0.3607 -0.0865
  113MOL0     C15476   3.003   8.002   1.197 -0.2149 -0.2385  0.2492
  113MOL0     C15477   2.920   8.031   1.321 -0.0847  0.0363 -0.3830
  113MOL0     C15478   2.954   7.922   1.434 -1.0487 -0.9582 -0.0521
  113MOL0     C15479   2.845   7.925   1.545 -0.6303 -0.1225  0.4725
  113MOL0     O15480   2.821   8.063   1.593 -0.1783  0.2341 -0.3269
  113MOL0     C15481   2.708   8.073   1.676 -0.7399 -1.3783 -0.0502
  113MOL0     C15482   2.711   8.194   1.741 -0.1461  0.2336  0.3255
  113MOL0     C15483   2.622   8.240   1.831  0.0213 -0.5739  0.5478
  113MOL0     C15484   2.650   8.377   1.895 -0.9880 -0.0643 -0.3782
  113MOL0     C15485   2.508   8.153   1.857  0.0083 -0.1834 -0.4791
  113MOL0     C15486   2.393   8.188   1.947 -1.2088 -0.1013  0.7203
  113MOL0     O15487   2.288   8.101   1.943  0.4796 -0.8032 -0.3197
  113MOL0     C15488   2.176   8.141   2.015  0.4473 -0.5798 -0.4492
  113MOL0     C15489   2.180   8.184   2.146 -0.2253  0.5462  0.0514
  113MOL0     C15490   2.060   8.221   2.210  0.0321 -0.0214  0.1357
  113MOL0     C15491   1.938   8.209   2.151 -0.7494  0.1479  0.2696
  113MOL0     O15492   1.818   8.234   2.220  0.4011 -0.1354 -0.0833
  113MOL0     C15493   1.819   8.301   2.345 -0.6875 -0.4415 -0.1016
  113MOL0     C15494   1.691   8.382   2.378  0.5392 -0.2398 -0.2560
  113MOL0     C15495   1.551   8.313   2.416  0.0649 -0.1217 -0.4494
  113MOL0     C15496   1.573   8.175   2.487  0.1000  0.0353 -0.5733
  113MOL0     C15497   1.458   8.121   2.581  0.1734  0.6996 -0.6230
  113MOL0     C15498   1.426   8.224   2.695  0.2159  0.6294 -0.6565
  113MOL0     C15499   1.310   8.157   2.780 -0.4161 -0.9907 -0.6301
  113MOL0     C15500   1.247   8.270   2.867  0.7577  0.1206 -0.4247
  113MOL0    Cl15501   1.195   8.199   3.020 -0.4327  0.3536  0.6799
  113MOL0     C15502   1.941   8.170   2.016 -0.2234  0.2107 -0.5940
  113MOL0     C15503   2.053   8.133   1.952 -0.1027  0.1389 -0.2325
  113MOL0     O15504   2.400   8.291   2.004  0.1771 -0.0490 -0.4084
  113MOL0     C15505   2.506   8.018   1.800  0.5950  0.0216  0.8712
  113MOL0     C15506   2.601   7.982   1.710 -0.5612  0.0272 -0.8797
  113MOL0     N15507   3.237   8.108   1.196 -0.0882  0.2046 -0.8049
  113MOL0     N15508   3.359   8.061   1.225 -0.4081  0.0542  0.0825
  113MOL0     C15509   4.269   7.288   1.347 -0.8272  0.6700 -0.0065
  113MOL0     C15510   4.398   7.275   1.284  0.3888  0.2295 -0.3996
  113MOL0     C15511   4.746   7.466   1.013 -0.7671 -0.2702  0.0099
  113MOL0     C15512   4.804   7.335   1.003  0.7182  0.1091 -0.2657
  113MOL0     C15513   4.929   7.333   0.944 -0.7178  0.7315 -0.1576
  113MOL0     C15514   4.987   7.444   0.875  1.1457  0.1131  0.3276
  113MOL0     O15515   5.103   7.424   0.815  0.0004  0.9966 -0.6868
  113MOL0     C15516   5.185   7.529   0.766 -0.3801  0.5752  0.5291
  113MOL0     C15517   5.305   7.471   0.674 -0.6866 -1.1119 -0.9113
  113MOL0     C15518   5.357   7.329   0.714 -0.5135  1.0750  0.0336
  113MOL0     C15519   5.391   7.315   0.868  0.8468  0.1515 -0.5507
  113MOL0     C15520   5.530   7.354   0.900 -0.8596 -0.0919 -0.3113
  113MOL0     C15521   5.644   7.386   0.919  0.9041  1.0846  0.4018
  113MOL0     C15522   4.920   7.568   0.885  0.1254 -0.6133 -0.2304
  113MOL0     C15523   4.796   7.580   0.954  0.0391  0.4923 -0.2750
  113MOL0     C15524   4.725   7.716   0.961 -1.0394  0.0938  0.0901
  113MOL0     H15525   4.346   7.502   1.042 -3.3536  3.5284  0.5415
  113MOL0     H15526   4.098   7.497   1.157 -2.0103 -4.1628 -1.3858
  113MOL0     H15527   4.111   7.429   1.551  1.2666 -0.4094  0.1654
  113MOL0     H15528   4.059   7.261   1.515  2.0477  1.6772  1.3596
  113MOL0     H15529   3.828   7.321   1.523 -1.3032 -2.1036  3.4249
  113MOL0     H15530   3.905   7.373   1.669  1.7887  1.3426  1.0809
  113MOL0     H15531   3.922   7.611   1.578  0.4933 -0.3852  0.1405
  113MOL0     H15532   3.836   7.548   1.424 -0.9956 -1.6907  0.1370
  113MOL0     H15533   3.648   7.491   1.585  1.2450 -1.1562  2.2272
  113MOL0     H15534   3.757   7.554   1.719 -1.3374 -0.5760 -0.3544
  113MOL0     H15535   3.741   7.777   1.621 -1.2153  2.1979 -1.2431
  113MOL0     H15536   3.584   7.711   1.671 -0.2810 -1.6309  0.0655
  113MOL0     H15537   3.712   7.759   1.401 -1.9363  2.3882  1.3772
  113MOL0     H15538   3.585   7.625   1.414 -0.2562  0.0145 -2.3775
  113MOL0     H15539   3.556   7.930   1.481  1.0619 -2.6088  2.0939
  113MOL0     H15540   3.432   7.815   1.500  1.5497  3.5257  2.5743
  113MOL0     H15541   3.550   7.879   1.243 -0.0193 -1.3044 -2.2207
  113MOL0     H15542   3.428   7.745   1.253 -0.8261  0.3400 -1.5246
  113MOL0     H15543   3.181   7.788   1.285 -2.7365  0.4035 -2.6571
  113MOL0     H15544   2.978   7.900   1.166  1.1891 -0.6911  0.5522
  113MOL0     H15545   2.987   8.073   1.116  0.6205  1.7099  1.7341
  113MOL0     H15546   2.940   8.127   1.368 -0.5028 -1.6511  3.6790
  113MOL0     H15547   2.818   8.020   1.284  0.8599  0.9267 -3.6092
  113MOL0     H15548   2.959   7.822   1.389 -2.2877 -1.1034  0.1020
  113MOL0     H15549   3.049   7.958   1.474 -1.3410 -1.1921  0.8643
  113MOL0     H15550   2.756   7.866   1.523  0.3225 -2.2420  1.9895
  113MOL0     H15551   2.889   7.864   1.624  0.7959 -0.4961 -0.5868
  113MOL0     H15552   2.787   8.262   1.705  0.6255 -1.1554 -0.7781
  113MOL0     H15553   2.615   8.449   1.820  1.1309  0.0503 -1.3238
  113MOL0     H15554   2.756   8.395   1.914 -0.9862 -2.9698  3.3904
  113MOL0     H15555   2.598   8.385   1.990 -0.0916 -1.2245  0.2405
  113MOL0     H15556   2.278   8.190   2.192  0.2844 -0.3882 -0.8869
  113MOL0     H15557   2.060   8.256   2.313 -3.9908  4.3559 -0.9522
  113MOL0     H15558   1.836   8.234   2.430  3.3441 -0.5655 -0.8105
  113MOL0     H15559   1.900   8.373   2.357  0.2918 -1.4392 -0.4984
  113MOL0     H15560   1.722   8.436   2.469  1.2311 -0.2174 -0.4974
  113MOL0     H15561   1.669   8.451   2.296 -1.3373 -2.0563 -1.3723
  113MOL0     H15562   1.505   8.294   2.318 -0.8119  0.8144 -0.2316
  113MOL0     H15563   1.481   8.373   2.475 -1.0647 -3.2230  1.6086
  113MOL0     H15564   1.666   8.188   2.541  0.6260  3.9822 -2.1041
  113MOL0     H15565   1.593   8.102   2.407  1.9547  0.1442 -0.2519
  113MOL0     H15566   1.366   8.108   2.523 -1.0925  0.8964  1.2222
  113MOL0     H15567   1.478   8.024   2.627 -1.9009  0.7538  0.5420
  113MOL0     H15568   1.385   8.317   2.652 -0.8903  1.2396  1.5626
  113MOL0     H15569   1.511   8.253   2.756 -0.4487  2.0161 -0.3423
  113MOL0     H15570   1.347   8.083   2.851  0.4231  0.8851  0.9965
  113MOL0     H15571   1.231   8.109   2.722 -1.2883  1.1290 -1.3107
  113MOL0     H15572   1.169   8.329   2.819  1.3923  1.9335  0.6889
  113MOL0     H15573   1.325   8.341   2.897  0.4027  0.2366  0.2297
  113MOL0     H15574   1.848   8.156   1.963 -0.5033 -0.7750  0.1214
  113MOL0     H15575   2.042   8.103   1.848 -0.1290 -0.9324  0.0679
  113MOL0     H15576   2.428   7.945   1.822  0.0423 -0.6930 -2.8234
  113MOL0     H15577   2.599   7.882   1.667 -0.0206 -0.4820  0.2332
  113MOL0     H15578   4.247   7.212   1.421 -0.8498 -1.7824 -2.3643
  113MOL0     H15579   4.465   7.200   1.324  0.5966  1.0518  0.8555
  113MOL0     H15580   4.756   7.248   1.045 -0.3356 -0.0164 -1.6459
  113MOL0     H15581   4.983   7.239   0.955  0.5085  1.7010  3.1389
  113MOL0     H15582   5.117   7.594   0.710 -2.9817  1.9827  4.7762
  113MOL0     H15583   5.218   7.579   0.858  0.4923 -1.5058  1.3910
  113MOL0     H15584   5.383   7.544   0.698 -0.7341 -2.7703  7.3575
  113MOL0     H15585   5.291   7.478   0.566  1.6764  1.2818 -1.1722
  113MOL0     H15586   5.289   7.248   0.682 -0.8076  0.9024  1.0679
  113MOL0     H15587   5.456   7.312   0.670  0.7899  0.5070  2.9287
  113MOL0     H15588   5.382   7.208   0.886  2.1660  0.0439 -0.4464
  113MOL0     H15589   5.307   7.361   0.922 -1.2492 -2.5720 -1.2648
  113MOL0     H15590   5.740   7.427   0.943  1.1517  0.9966 -0.4206
  113MOL0     H15591   4.953   7.667   0.856  0.1780 -1.0282 -1.6443
  113MOL0     H15592   4.781   7.781   0.892  0.1807  0.0166  0.9640
  113MOL0     H15593   4.622   7.709   0.927 -0.3105 -1.7756 -1.9900
  113MOL0     H15594   4.744   7.757   1.061  1.9095 -1.7805  0.4360
  114MOL0     O15595   3.093   7.854   1.878 -0.0938  0.1458 -1.2882
  114MOL0     C15596   3.021   7.950   1.912 -1.1181 -0.9806  0.0048
  114MOL0     O15597   3.051   8.084   1.889 -0.8288 -0.1880  0.2545
  114MOL0     C15598   3.162   8.115   1.810 -0.1864 -0.5552 -0.8033
  114MOL0     C15599   3.151   8.163   1.676 -0.2176 -0.3440  1.4412
  114MOL0     C15600   3.269   8.192   1.604 -0.4766 -0.7725 -0.5098
  114MOL0     C15601   3.393   8.181   1.667 -0.0145 -0.0945  0.1060
  114MOL0     O15602   3.507   8.218   1.607 -0.4262  0.7056 -0.7371
  114MOL0     C15603   3.511   8.290   1.486  0.2390  0.1370 -0.3003
  114MOL0     C15604   3.654   8.293   1.442  0.0298  0.9992 -0.0755
  114MOL0     C15605   3.711   8.150   1.419 -0.3833 -1.2129 -0.1379
  114MOL0     C15606   3.858   8.163   1.367 -0.6626 -0.0403 -0.6945
  114MOL0     C15607   3.910   8.022   1.340 -0.3064 -0.2912  0.5140
  114MOL0     C15608   4.056   8.028   1.300 -0.8854  0.1626 -0.4241
  114MOL0     C15609   4.106   7.880   1.261 -1.3038  0.9868  0.4536
  114MOL0     C15610   4.230   7.897   1.171 -0.8975 -0.1419 -0.5828
  114MOL0     N15611   4.193   7.923   1.031 -0.9994 -0.1078  0.0353
  114MOL0     C15612   4.169   7.831   0.935  0.5421  0.7381 -1.2894
  114MOL0     C15613   4.193   7.895   0.815 -0.9150 -0.3677  0.7947
  114MOL0     C15614   4.201   7.828   0.681  0.8042 -0.1048  0.8938
  114MOL0     C15615   4.319   7.736   0.661 -0.7135 -0.3183 -0.1901
  114MOL0     C15616   4.460   7.798   0.683  0.2756 -0.2761  0.2624
  114MOL0     C15617   4.487   7.927   0.606  0.3961 -0.4624 -1.1000
  114MOL0     O15618   4.613   7.992   0.651 -0.3786 -0.4518  0.1815
  114MOL0     C15619   4.742   7.941   0.618  1.3255  0.1922 -0.1672
  114MOL0     C15620   4.764   7.822   0.538 -0.3828  0.1773  0.4498
  114MOL0     C15621   4.895   7.787   0.498 -0.6236  0.0490  0.1742
  114MOL0     C15622   4.918   7.684   0.407  0.5918  1.0354  0.0889
  114MOL0     C15623   5.005   7.859   0.553 -0.1478  0.3284  0.2336
  114MOL0     C15624   5.152   7.834   0.529 -0.3998 -0.6618  0.3245
  114MOL0     O15625   5.229   7.943   0.555 -0.5605  0.2523  0.6328
  114MOL0     C15626   5.365   7.917   0.539 -0.2799  0.0872 -0.5600
  114MOL0     C15627   5.450   7.851   0.636  0.7624 -0.4694  0.4502
  114MOL0     C15628   5.591   7.858   0.630 -0.6478  1.3470  0.1631
  114MOL0     C15629   5.654   7.915   0.516  0.5076  1.0519 -0.0648
  114MOL0     O15630   5.787   7.933   0.522  0.5628 -0.1051  0.2889
  114MOL0     C15631   5.840   8.030   0.428  0.6287 -0.1304 -0.8921
  114MOL0     C15632   5.996   8.022   0.433 -0.0024 -0.4027 -0.5315
  114MOL0     C15633   6.046   7.880   0.387 -0.0528 -0.2200  0.5516
  114MOL0     C15634   6.086   7.875   0.233 -0.7257  0.8237  0.6032
  114MOL0     C15635   6.127   7.740   0.181 -0.5048 -0.5939 -0.2094
  114MOL0     C15636   6.153   7.742   0.030 -0.2615 -0.3695  0.6586
  114MOL0     C15637   6.151   7.596  -0.010 -0.0736  0.1311  0.4393
  114MOL0     C15638   6.205   7.570  -0.153  0.1506 -1.1210 -0.1955
  114MOL0    Cl15639   6.202   7.397  -0.198  0.2053  0.2528  0.1793
  114MOL0     C15640   5.568   7.956   0.416 -0.0166 -0.2920 -0.1883
  114MOL0     C15641   5.431   7.957   0.424 -0.2382 -0.6489  0.1391
  114MOL0     O15642   5.197   7.721   0.513 -0.1288 -0.7145  0.2469
  114MOL0     C15643   4.977   7.969   0.645  0.0301  0.1859  0.2949
  114MOL0     C15644   4.846   8.017   0.665 -0.0473  0.3024  0.1750
  114MOL0     N15645   4.233   8.018   0.837 -1.0978 -0.6326  0.2618
  114MOL0     N15646   4.240   8.041   0.963  0.2312  0.5022  0.0269
  114MOL0     C15647   3.401   8.121   1.789  0.3725  0.1837 -0.2236
  114MOL0     C15648   3.289   8.092   1.863  0.5423 -0.7130 -0.2344
  114MOL0     C15649   2.920   7.922   2.011 -0.0444  0.3294 -0.6065
  114MOL0     C15650   2.837   7.804   1.997 -0.1388 -0.6623  0.4115
  114MOL0     C15651   2.737   7.771   2.089  0.2315 -0.3719 -0.1793
  114MOL0     C15652   2.725   7.851   2.207  0.3679 -0.7372 -0.4622
  114MOL0     O15653   2.613   7.820   2.286 -0.0909  0.8187  0.0746
  114MOL0     C15654   2.609   7.878   2.421 -0.3006  0.2970  0.4568
  114MOL0     C15655   2.470   7.872   2.476  0.1532 -0.5010  0.1506
  114MOL0     C15656   2.381   7.963   2.394 -0.4676  0.0602 -0.3815
  114MOL0     C15657   2.230   7.936   2.419  0.6982 -0.7606 -0.3670
  114MOL0     C15658   2.202   7.939   2.563  0.1026 -0.3643  0.7346
  114MOL0     C15659   2.159   7.931   2.674  0.0943 -0.3489 -0.9603
  114MOL0     C15660   2.816   7.956   2.242 -0.5079 -0.0810  0.2750
  114MOL0     C15661   2.907   7.989   2.137  0.0769 -0.0877  0.7465
  114MOL0     C15662   2.990   8.105   2.178 -0.0501  0.4289 -0.5768
  114MOL0     H15663   3.051   8.167   1.634  0.4869 -0.0212 -0.2826
  114MOL0     H15664   3.265   8.227   1.501  1.0493 -2.1136 -1.0664
  114MOL0     H15665   3.475   8.392   1.500  1.3081  0.4460  0.2730
  114MOL0     H15666   3.454   8.243   1.405  1.0341 -1.4421  0.0231
  114MOL0     H15667   3.666   8.340   1.344  3.4902 -1.8600 -1.2665
  114MOL0     H15668   3.712   8.348   1.517  1.2907 -1.2411  0.6950
  114MOL0     H15669   3.700   8.093   1.512 -1.7101  0.1123  0.5542
  114MOL0     H15670   3.649   8.089   1.353  0.3974 -0.1065 -1.9658
  114MOL0     H15671   3.863   8.223   1.276 -0.3021  1.6073  0.3603
  114MOL0     H15672   3.916   8.221   1.440 -0.1117 -1.7821  0.3019
  114MOL0     H15673   3.848   7.986   1.257  2.8149  2.7456 -3.6286
  114MOL0     H15674   3.912   7.951   1.423  0.7613 -0.2702  0.5257
  114MOL0     H15675   4.060   8.087   1.208  0.8457 -0.5502 -0.8468
  114MOL0     H15676   4.100   8.075   1.388 -0.4770 -0.7888 -0.1098
  114MOL0     H15677   4.029   7.822   1.210  0.4582  0.2525 -1.5003
  114MOL0     H15678   4.151   7.837   1.351  2.7896 -2.2535 -2.7355
  114MOL0     H15679   4.301   7.974   1.203 -1.3916  0.0605  0.0418
  114MOL0     H15680   4.282   7.800   1.166 -3.0885 -1.4753  0.9017
  114MOL0     H15681   4.148   7.725   0.952  0.8091  0.0753 -4.3548
  114MOL0     H15682   4.197   7.908   0.606  1.3515 -0.2558  0.6968
  114MOL0     H15683   4.110   7.774   0.654 -0.6126  3.5257 -2.7707
  114MOL0     H15684   4.309   7.660   0.740  0.6534  2.6850  3.1837
  114MOL0     H15685   4.298   7.686   0.566 -4.5432 -1.2620  0.9609
  114MOL0     H15686   4.473   7.818   0.790 -1.9000  0.7413  0.3975
  114MOL0     H15687   4.532   7.724   0.648  3.8589  3.7204 -1.6656
  114MOL0     H15688   4.494   7.897   0.501  1.0572 -0.7490 -0.9760
  114MOL0     H15689   4.407   8.001   0.619  0.4733 -0.5634  0.0733
  114MOL0     H15690   4.682   7.760   0.505  0.1067 -1.7149  2.5721
  114MOL0     H15691   4.829   7.622   0.395  0.5982  1.2248 -1.0010
  114MOL0     H15692   4.996   7.618   0.446  0.4882  0.1843 -1.0998
  114MOL0     H15693   4.946   7.724   0.309  0.8274 -1.1968 -0.8044
  114MOL0     H15694   5.417   7.816   0.733 -3.1128 -0.2513 -0.6277
  114MOL0     H15695   5.654   7.831   0.714 -0.8520  0.7949  0.1440
  114MOL0     H15696   5.807   8.005   0.326 -1.5358 -1.3670  0.0463
  114MOL0     H15697   5.789   8.124   0.450 -2.9211 -2.1263  0.2023
  114MOL0     H15698   6.033   8.097   0.363 -3.1762  3.1498  1.2576
  114MOL0     H15699   6.038   8.043   0.532  0.8150 -0.6058 -0.8304
  114MOL0     H15700   5.967   7.805   0.397 -0.6777  0.4270  0.5304
  114MOL0     H15701   6.128   7.852   0.454  0.3660  2.8102  1.4727
  114MOL0     H15702   6.166   7.945   0.209  0.2070 -0.3980  0.0634
  114MOL0     H15703   5.997   7.908   0.178 -0.1390  1.1415 -0.1854
  114MOL0     H15704   6.221   7.710   0.229 -0.5521  1.1986  1.0992
  114MOL0     H15705   6.059   7.661   0.214 -1.0264  0.3792  1.1190
  114MOL0     H15706   6.233   7.805  -0.010 -2.3166 -0.4367 -4.3652
  114MOL0     H15707   6.074   7.800  -0.019 -0.8202 -1.6907 -0.0543
  114MOL0     H15708   6.050   7.556  -0.020  0.3592 -1.5677  2.2181
  114MOL0     H15709   6.209   7.530   0.056  1.5759 -2.2621 -3.0777
  114MOL0     H15710   6.306   7.609  -0.166 -0.7711  0.3841 -4.3426
  114MOL0     H15711   6.154   7.625  -0.232  1.2819 -0.4036 -0.4401
  114MOL0     H15712   5.601   7.998   0.322 -0.7816 -2.5287 -1.5237
  114MOL0     H15713   5.365   8.002   0.351  1.0256  0.2076 -0.5253
  114MOL0     H15714   5.057   8.032   0.682  3.0730 -1.5998 -2.6793
  114MOL0     H15715   4.826   8.103   0.728  1.3265 -0.4373  1.6904
  114MOL0     H15716   3.497   8.104   1.835  0.0081 -0.6687  0.2535
  114MOL0     H15717   3.305   8.039   1.956  1.2438  0.2958  0.2431
  114MOL0     H15718   2.849   7.747   1.905 -1.0080  1.1184 -0.8569
  114MOL0     H15719   2.669   7.687   2.087 -0.7924  0.4307 -0.1006
  114MOL0     H15720   2.678   7.823   2.486 -1.1334  0.4824  1.5251
  114MOL0     H15721   2.633   7.985   2.419 -3.5849  1.1997  2.2323
  114MOL0     H15722   2.472   7.916   2.576  1.8128  1.0017 -0.4816
  114MOL0     H15723   2.438   7.768   2.484 -1.6980 -0.1340 -1.7890
  114MOL0     H15724   2.396   8.066   2.426  1.8926  0.6765 -2.9926
  114MOL0     H15725   2.400   7.951   2.287 -0.2005 -0.2256 -0.3031
  114MOL0     H15726   2.196   7.842   2.374  3.9277 -1.8037 -0.9174
  114MOL0     H15727   2.173   8.020   2.379 -0.1455 -1.0742  0.1562
  114MOL0     H15728   2.108   7.914   2.766  2.1253  0.7961  0.4458
  114MOL0     H15729   2.824   8.010   2.336  1.5068  0.0310  0.0728
  114MOL0     H15730   2.957   8.190   2.118 -2.5808  0.3335  0.5731
  114MOL0     H15731   2.985   8.113   2.287 -0.1786 -0.3914 -0.5158
  114MOL0     H15732   3.096   8.089   2.153  0.3143  1.9103 -0.0865
  115MOL0     O15733  10.335   9.501   1.570  0.2283  0.0402  0.3034
  115MOL0     C15734  10.235   9.513   1.640  0.1583  0.2175  0.0076
  115MOL0     O15735  10.100   9.490   1.597 -0.1659  0.4835  0.0452
  115MOL0     C15736  10.085   9.447   1.467 -0.0096 -0.0748  0.3970
  115MOL0     C15737   9.993   9.342   1.437 -0.0028  0.5200 -0.0157
  115MOL0     C15738   9.960   9.306   1.305 -0.6807  0.3515 -0.5271
  115MOL0     C15739  10.006   9.386   1.197 -0.2758  0.8998  0.1622
  115MOL0     O15740   9.973   9.365   1.064  0.0651  0.6595 -0.0268
  115MOL0     C15741   9.938   9.238   1.024  0.6032 -1.1116  1.1171
  115MOL0     C15742  10.040   9.122   1.046 -0.2770  0.4509  0.2975
  115MOL0     C15743  10.188   9.162   1.011  1.3888 -0.2140 -0.2346
  115MOL0     C15744  10.289   9.090   1.091  0.5868 -0.0704 -0.4081
  115MOL0     C15745  10.329   8.962   1.017  0.8057  0.4022 -0.2420
  115MOL0     C15746  10.453   8.906   1.080 -0.1821 -0.2096  1.1361
  115MOL0     C15747  10.462   8.760   1.039 -0.0930 -0.5303 -0.9473
  115MOL0     C15748  10.608   8.717   1.083  0.5569  0.6089 -0.0337
  115MOL0     N15749  10.617   8.570   1.104 -0.0959 -0.1572  0.1392
  115MOL0     C15750  10.597   8.470   1.011 -0.1405 -0.9693 -0.0099
  115MOL0     C15751  10.632   8.351   1.079  0.1956 -0.4740 -0.0664
  115MOL0     C15752  10.649   8.222   1.015 -2.2274 -0.6230 -0.2578
  115MOL0     C15753  10.801   8.200   0.968  0.0737  0.1229  0.2945
  115MOL0     C15754  10.855   8.308   0.868  0.9996  0.5274 -1.0133
  115MOL0     C15755  11.003   8.284   0.833  0.5020  0.7208  0.6685
  115MOL0     O15756  11.045   8.374   0.742  0.4556  1.0319  0.8025
  115MOL0     C15757  11.174   8.365   0.699 -0.1981  0.3669 -0.5348
  115MOL0     C15758  11.228   8.474   0.636 -0.4716 -0.0458 -0.7444
  115MOL0     C15759  11.367   8.468   0.589 -0.4729 -0.7060  0.1340
  115MOL0     C15760  11.423   8.589   0.523  0.2377  0.5552  0.2283
  115MOL0     C15761  11.443   8.348   0.602 -0.4842  0.3229 -0.1113
  115MOL0     C15762  11.581   8.323   0.541 -0.2549 -0.5688  0.8874
  115MOL0     O15763  11.657   8.222   0.598  0.0137 -0.0788 -0.3322
  115MOL0     C15764  11.792   8.229   0.596  0.3840  0.3602  0.0041
  115MOL0     C15765  11.868   8.347   0.615  0.7483 -0.5426 -0.0136
  115MOL0     C15766  12.013   8.341   0.599 -0.2200  0.4934  0.0004
  115MOL0     C15767  12.073   8.220   0.576 -0.5687 -0.4126 -0.3450
  115MOL0     O15768  12.211   8.237   0.572  0.5550 -0.5624 -0.2638
  115MOL0     C15769  12.265   8.105   0.573 -0.2329  0.3822  0.6181
  115MOL0     C15770  12.411   8.125   0.582 -0.3872  0.3847  0.1586
  115MOL0     C15771  12.442   8.202   0.719  0.4089  0.4430 -0.4129
  115MOL0     C15772  12.583   8.170   0.763 -0.0664  0.7055 -0.5248
  115MOL0     C15773  12.629   8.277   0.864 -0.2420 -0.2105 -0.2512
  115MOL0     C15774  12.555   8.244   0.997  0.0759 -0.0836 -0.1687
  115MOL0     C15775  12.621   8.335   1.102  0.9441  0.8284  0.3050
  115MOL0     C15776  12.562   8.339   1.245  0.3401 -0.3547  0.4037
  115MOL0    Cl15777  12.528   8.174   1.306 -0.0947  0.0532 -0.1407
  115MOL0     C15778  11.999   8.104   0.569 -0.1722  0.0226 -0.1774
  115MOL0     C15779  11.861   8.109   0.581 -0.1943  0.8082  0.0791
  115MOL0     O15780  11.629   8.393   0.446  0.0296 -0.1038 -0.1847
  115MOL0     C15781  11.384   8.239   0.675  0.8368 -0.3485  0.7666
  115MOL0     C15782  11.255   8.246   0.723 -0.1149 -0.0242  0.5985
  115MOL0     N15783  10.677   8.381   1.212  0.0737 -0.0866  0.9892
  115MOL0     N15784  10.657   8.513   1.227 -0.2162  0.2549  0.3511
  115MOL0     C15785  10.099   9.488   1.221 -0.4610 -0.5086  0.6366
  115MOL0     C15786  10.132   9.522   1.354  0.4247 -0.5909  0.6372
  115MOL0     C15787  10.247   9.569   1.784  0.1053 -0.4224 -0.3127
  115MOL0     C15788  10.131   9.544   1.867  0.1426  0.4217 -0.1452
  115MOL0     C15789  10.128   9.577   2.002 -0.3332  0.0253  0.0954
  115MOL0     C15790  10.241   9.633   2.064  0.3498  0.7073 -0.1366
  115MOL0     O15791  10.223   9.639   2.201  0.0376 -0.3787 -0.1808
  115MOL0     C15792  10.333   9.698   2.269  0.4797 -0.0362  0.6134
  115MOL0     C15793  10.309   9.723   2.416  0.2157 -0.1492  0.3502
  115MOL0     C15794  10.182   9.808   2.437  0.2975 -0.0593  0.7464
  115MOL0     C15795  10.137   9.808   2.580  0.2137  0.5005  0.4020
  115MOL0     C15796  10.069   9.681   2.612 -1.2534  0.5692 -0.6510
  115MOL0     C15797   9.998   9.584   2.649 -0.8446  0.1007  0.4921
  115MOL0     C15798  10.349   9.674   1.974  0.5459 -0.4867  0.1791
  115MOL0     C15799  10.352   9.642   1.841 -0.8164 -0.5706  1.4700
  115MOL0     C15800  10.476   9.700   1.768 -0.0180  0.0796 -0.4490
  115MOL0     H15801   9.958   9.284   1.522  0.9992  0.8565  0.6509
  115MOL0     H15802   9.902   9.215   1.302  0.6648 -0.5801  0.7106
  115MOL0     H15803   9.922   9.253   0.917 -0.3240 -1.1440  1.2460
  115MOL0     H15804   9.840   9.209   1.062 -0.7270  1.1073 -0.4288
  115MOL0     H15805  10.038   9.098   1.153  0.2485 -0.6941  0.0549
  115MOL0     H15806  10.007   9.034   0.991 -2.9588  0.3761  1.8822
  115MOL0     H15807  10.205   9.146   0.904 -0.4987  0.7786 -0.7337
  115MOL0     H15808  10.209   9.270   1.018 -0.7784  0.3467 -1.5670
  115MOL0     H15809  10.375   9.155   1.110  0.5453 -0.9141  3.4323
  115MOL0     H15810  10.257   9.058   1.191  0.3894 -0.2817 -0.5396
  115MOL0     H15811  10.340   8.973   0.909 -1.2952 -0.9683 -0.6547
  115MOL0     H15812  10.250   8.889   1.040  2.5165 -1.9165 -1.2827
  115MOL0     H15813  10.541   8.957   1.040 -1.0067  0.4826  0.1477
  115MOL0     H15814  10.450   8.909   1.189  1.1935 -2.7125  1.3150
  115MOL0     H15815  10.444   8.755   0.931 -1.6511 -2.9998 -0.6422
  115MOL0     H15816  10.380   8.703   1.083  0.6562 -1.5939 -0.9003
  115MOL0     H15817  10.667   8.739   0.994 -1.5835  0.3447 -1.5762
  115MOL0     H15818  10.620   8.777   1.174 -1.7820  0.7684  0.2342
  115MOL0     H15819  10.565   8.475   0.907 -2.2211  0.3705  0.6336
  115MOL0     H15820  10.589   8.216   0.925 -0.9289 -1.2111 -1.1233
  115MOL0     H15821  10.634   8.145   1.091  0.8527 -0.0525  1.0913
  115MOL0     H15822  10.872   8.197   1.051  0.4038  0.1028  0.0137
  115MOL0     H15823  10.803   8.096   0.934  1.1785 -0.4829  2.0806
  115MOL0     H15824  10.795   8.298   0.777 -1.0235 -0.2290  0.3525
  115MOL0     H15825  10.842   8.410   0.906  1.3394 -0.1060  0.9083
  115MOL0     H15826  11.060   8.294   0.925 -0.4793 -0.9636  1.4988
  115MOL0     H15827  11.007   8.182   0.794  1.5795  0.4639  1.4332
  115MOL0     H15828  11.182   8.570   0.615  1.4323  0.8238 -1.0972
  115MOL0     H15829  11.523   8.609   0.562 -0.2275  0.7552  1.3572
  115MOL0     H15830  11.349   8.669   0.536 -0.8761  0.1261 -2.7601
  115MOL0     H15831  11.425   8.572   0.415 -0.0531 -3.0923  0.6601
  115MOL0     H15832  11.818   8.441   0.636 -1.5034 -1.8612  0.8219
  115MOL0     H15833  12.069   8.433   0.597 -1.9138  1.5822 -2.3245
  115MOL0     H15834  12.229   8.044   0.656 -0.6063 -0.2006  0.0447
  115MOL0     H15835  12.244   8.054   0.478 -2.6434  0.3214  1.1046
  115MOL0     H15836  12.470   8.033   0.582  1.2817  1.3724 -1.4650
  115MOL0     H15837  12.444   8.183   0.495 -2.1421  0.6320 -0.3778
  115MOL0     H15838  12.376   8.171   0.800  1.2184  0.6994  0.3630
  115MOL0     H15839  12.423   8.309   0.704 -1.6233 -0.1869 -2.9626
  115MOL0     H15840  12.653   8.168   0.679  0.1406 -0.0449 -0.3360
  115MOL0     H15841  12.580   8.076   0.819 -0.4915 -0.4340 -2.3826
  115MOL0     H15842  12.736   8.266   0.879 -0.1374  1.3791  0.3799
  115MOL0     H15843  12.613   8.382   0.838 -1.8367 -0.6958 -1.4298
  115MOL0     H15844  12.569   8.142   1.036 -1.1367 -0.2979 -0.2466
  115MOL0     H15845  12.447   8.258   0.987 -0.0136 -2.0791 -3.4172
  115MOL0     H15846  12.637   8.434   1.059  2.0860  0.1472 -0.8906
  115MOL0     H15847  12.723   8.294   1.111  0.6917  0.2747  0.7766
  115MOL0     H15848  12.476   8.407   1.250  0.9053  0.3524  0.6705
  115MOL0     H15849  12.645   8.380   1.303  0.9840 -0.6304 -0.3122
  115MOL0     H15850  12.047   8.007   0.556 -0.1115 -0.1841  1.4145
  115MOL0     H15851  11.798   8.021   0.569 -1.0945  1.4219  0.2385
  115MOL0     H15852  11.439   8.147   0.692  2.6790  0.7870  1.2532
  115MOL0     H15853  11.220   8.160   0.778  0.1663 -0.9013 -0.5406
  115MOL0     H15854  10.128   9.536   1.128 -2.7807  0.3711  0.2986
  115MOL0     H15855  10.194   9.610   1.372  0.0322 -0.1045 -0.3267
  115MOL0     H15856  10.046   9.489   1.828  0.0365  3.0381 -4.2582
  115MOL0     H15857  10.046   9.561   2.072 -0.7484  1.4469 -0.0199
  115MOL0     H15858  10.420   9.634   2.250 -0.4959 -0.7791 -1.5676
  115MOL0     H15859  10.356   9.793   2.222 -2.2004  1.5619  2.2660
  115MOL0     H15860  10.382   9.787   2.467 -1.0549 -0.2141  2.3815
  115MOL0     H15861  10.296   9.628   2.470 -1.4568  0.6453  1.4521
  115MOL0     H15862  10.193   9.908   2.395 -0.2915  0.3277  1.5080
  115MOL0     H15863  10.107   9.759   2.373  1.1286 -3.1336  1.9314
  115MOL0     H15864  10.079   9.900   2.587 -1.8250 -0.6606 -0.3683
  115MOL0     H15865  10.222   9.813   2.649  0.1010 -3.3344  1.0637
  115MOL0     H15866   9.927   9.504   2.661 -0.7554 -0.2714 -1.1800
  115MOL0     H15867  10.425   9.730   2.027 -0.3594 -0.6749  1.7612
  115MOL0     H15868  10.498   9.639   1.680 -5.2320 -3.2335  0.1092
  115MOL0     H15869  10.469   9.805   1.739  0.3347  0.9860  2.4208
  115MOL0     H15870  10.561   9.707   1.837 -1.3920  1.9035  1.1389
  116MOL0     O15871  10.707  10.136   3.216  1.3298  0.5672  0.8745
  116MOL0     C15872  10.598  10.091   3.180 -0.7932 -0.7173  0.6006
  116MOL0     O15873  10.526  10.145   3.070 -0.9000 -0.0431 -0.2701
  116MOL0     C15874  10.581  10.237   2.986  0.1515 -0.2498 -0.8016
  116MOL0     C15875  10.490  10.306   2.908  0.7520 -0.4105 -0.2887
  116MOL0     C15876  10.519  10.391   2.807 -0.3631 -0.2426 -0.0641
  116MOL0     C15877  10.657  10.415   2.780  0.5381  0.3405  0.0489
  116MOL0     O15878  10.698  10.500   2.675  0.6654  0.1377 -0.7638
  116MOL0     C15879  10.618  10.528   2.562  0.2691  0.6930 -0.2207
  116MOL0     C15880  10.700  10.557   2.442  0.0889  0.3711 -0.7811
  116MOL0     C15881  10.790  10.675   2.461  0.9900 -0.5609  1.4164
  116MOL0     C15882  10.864  10.712   2.332 -0.4660 -0.1648  0.5961
  116MOL0     C15883  10.977  10.808   2.365 -0.4267 -0.3457 -0.4412
  116MOL0     C15884  11.060  10.838   2.236  0.2158  0.8552 -0.2576
  116MOL0     C15885  11.167  10.950   2.264  1.0756  0.9964  0.5748
  116MOL0     C15886  11.296  10.881   2.328  0.8682 -0.3769  0.0386
  116MOL0     N15887  11.374  10.793   2.240  0.8681  0.9631  0.6870
  116MOL0     C15888  11.381  10.786   2.101  0.3014 -0.4690  0.1903
  116MOL0     C15889  11.487  10.704   2.072 -0.4837 -0.1717 -0.2679
  116MOL0     C15890  11.543  10.688   1.934 -0.6434  1.1031  0.3077
  116MOL0     C15891  11.608  10.811   1.883  0.3315  0.5188  0.1240
  116MOL0     C15892  11.644  10.799   1.738 -0.4440 -0.2037  0.2594
  116MOL0     C15893  11.732  10.678   1.703  0.4809 -0.9327  0.2730
  116MOL0     O15894  11.856  10.682   1.773  0.0373  0.2211 -0.9983
  116MOL0     C15895  11.934  10.568   1.787  1.0109  0.3905 -0.3939
  116MOL0     C15896  11.921  10.457   1.708 -1.4050  0.0245 -0.0135
  116MOL0     C15897  12.012  10.344   1.707 -0.4184 -1.0141  0.2146
  116MOL0     C15898  11.991  10.240   1.603 -0.0630 -0.0875  0.4303
  116MOL0     C15899  12.110  10.343   1.800  0.1261 -0.0155  0.2879
  116MOL0     C15900  12.217  10.234   1.804 -0.0135  0.7065 -0.8082
  116MOL0     O15901  12.327  10.262   1.883  0.3019  0.0305 -0.4941
  116MOL0     C15902  12.433  10.167   1.888 -0.5633 -0.5642 -0.1202
  116MOL0     C15903  12.477  10.076   1.783 -0.0280 -0.0892 -0.4273
  116MOL0     C15904  12.585   9.992   1.817 -0.1652 -0.5199  0.9580
  116MOL0     C15905  12.643   9.985   1.941 -0.1848 -0.4155 -0.3823
  116MOL0     O15906  12.752   9.903   1.974 -0.2490  0.2338 -0.0130
  116MOL0     C15907  12.773   9.789   1.899 -0.9553 -0.1605  0.2176
  116MOL0     C15908  12.884   9.701   1.963 -0.5330 -0.3742 -0.1287
  116MOL0     C15909  12.840   9.635   2.095 -0.0716 -0.2571  0.3358
  116MOL0     C15910  12.959   9.571   2.172 -0.2016 -0.0348  0.6589
  116MOL0     C15911  12.917   9.481   2.283  0.1191 -0.2327 -0.1293
  116MOL0     C15912  12.819   9.365   2.250  0.0381 -0.1909  0.5236
  116MOL0     C15913  12.824   9.255   2.358  0.1228  0.1067  0.0728
  116MOL0     C15914  12.752   9.140   2.310 -0.3059 -0.0941 -0.1799
  116MOL0    Cl15915  12.702   9.028   2.441 -0.2270 -0.3654 -0.4782
  116MOL0     C15916  12.609  10.086   2.032 -0.1182  0.3730  0.3864
  116MOL0     C15917  12.505  10.173   2.014 -0.9390  0.5940 -0.0918
  116MOL0     O15918  12.205  10.127   1.743  0.0903  0.1307  0.0820
  116MOL0     C15919  12.120  10.452   1.880 -0.3074  0.0900 -0.2048
  116MOL0     C15920  12.033  10.566   1.877 -0.1418  1.4670 -0.4313
  116MOL0     N15921  11.531  10.654   2.196  0.1466 -0.1916 -0.3332
  116MOL0     N15922  11.463  10.712   2.289 -1.1089 -0.0875 -0.1748
  116MOL0     C15923  10.750  10.345   2.851 -0.7321 -0.1832 -0.1880
  116MOL0     C15924  10.713  10.267   2.963 -0.5736 -0.4234  0.7121
  116MOL0     C15925  10.529   9.996   3.264 -0.6946  0.1959 -0.7176
  116MOL0     C15926  10.387   9.991   3.255 -1.1410 -0.9087  0.0841
  116MOL0     C15927  10.314   9.910   3.342  0.6753  0.5507 -0.1044
  116MOL0     C15928  10.381   9.828   3.444  0.5114 -0.6253  0.3085
  116MOL0     O15929  10.335   9.732   3.526 -0.3050 -0.3907  0.5822
  116MOL0     C15930  10.196   9.701   3.534 -0.1769  0.4165  0.1176
  116MOL0     C15931  10.192   9.570   3.619 -0.1066  0.9272 -0.1148
  116MOL0     C15932  10.269   9.574   3.752 -0.4434 -0.2617  0.4352
  116MOL0     C15933  10.218   9.461   3.837  0.4450 -0.2696  0.1104
  116MOL0     C15934  10.277   9.467   3.970  0.2667 -0.2318 -0.4904
  116MOL0     C15935  10.335   9.478   4.080  0.2349 -0.2908 -0.0476
  116MOL0     C15936  10.515   9.845   3.456  0.1677  0.5534 -0.3234
  116MOL0     C15937  10.591   9.919   3.366 -0.7176 -0.8711  0.4066
  116MOL0     C15938  10.733   9.911   3.404 -0.5913 -0.6573 -0.0534
  116MOL0     H15939  10.388  10.288   2.939  0.9594  0.9689  1.3332
  116MOL0     H15940  10.442  10.442   2.750 -0.5900 -1.1845 -0.6217
  116MOL0     H15941  10.563  10.619   2.588  1.0492  0.4263  2.6834
  116MOL0     H15942  10.556  10.439   2.554 -0.9007  1.3011  1.5786
  116MOL0     H15943  10.755  10.463   2.426  0.3924  0.6360 -1.3162
  116MOL0     H15944  10.636  10.574   2.355  0.8035 -0.1091 -1.4135
  116MOL0     H15945  10.733  10.764   2.492 -2.3031 -2.7977  2.3481
  116MOL0     H15946  10.870  10.655   2.532 -1.2223 -0.4790  4.1157
  116MOL0     H15947  10.901  10.616   2.296 -2.9031 -0.9020 -0.1073
  116MOL0     H15948  10.796  10.754   2.258  0.8662 -1.6791 -1.5971
  116MOL0     H15949  11.047  10.772   2.441  2.4737  0.4338 -2.6109
  116MOL0     H15950  10.944  10.906   2.401 -1.7802 -0.5933 -0.9195
  116MOL0     H15951  11.100  10.743   2.197 -0.7077 -0.5924  2.0853
  116MOL0     H15952  10.992  10.880   2.160  0.2595  0.0407 -0.7681
  116MOL0     H15953  11.136  11.033   2.328 -1.0529  2.0083 -1.6120
  116MOL0     H15954  11.186  10.996   2.167 -1.2404  0.9910  0.0530
  116MOL0     H15955  11.351  10.962   2.376 -0.3237  0.4912 -0.0030
  116MOL0     H15956  11.265  10.825   2.416  1.2271  1.4879  1.4157
  116MOL0     H15957  11.324  10.830   2.021 -1.3450 -1.2724  0.8835
  116MOL0     H15958  11.459  10.650   1.876  0.4039  0.4007 -0.8061
  116MOL0     H15959  11.626  10.616   1.941 -0.3407  1.4542  0.3743
  116MOL0     H15960  11.542  10.897   1.898 -3.7630 -2.0342 -1.5845
  116MOL0     H15961  11.700  10.844   1.932  1.3786 -0.2792 -1.2462
  116MOL0     H15962  11.558  10.788   1.672 -0.5197 -1.4990  0.5490
  116MOL0     H15963  11.700  10.889   1.711  3.0492 -2.3961 -0.6107
  116MOL0     H15964  11.688  10.581   1.731 -0.9964  0.4787  3.3302
  116MOL0     H15965  11.734  10.675   1.594 -0.6032 -2.2324  0.2695
  116MOL0     H15966  11.848  10.466   1.628 -0.5418  2.6500 -0.6015
  116MOL0     H15967  12.086  10.217   1.554  0.3057  1.5178  0.3508
  116MOL0     H15968  11.918  10.276   1.530 -0.0534  1.6079  1.2150
  116MOL0     H15969  11.960  10.151   1.660  4.3113 -1.1349  1.6404
  116MOL0     H15970  12.430  10.066   1.686  1.2040 -1.1271 -0.9477
  116MOL0     H15971  12.603   9.928   1.731 -0.2306  1.7862 -0.8985
  116MOL0     H15972  12.685   9.723   1.890 -0.2604 -1.0410 -0.2938
  116MOL0     H15973  12.806   9.818   1.799 -2.4231 -1.3376 -0.6645
  116MOL0     H15974  12.902   9.619   1.892 -0.1542 -1.9723  1.7475
  116MOL0     H15975  12.970   9.769   1.971 -1.8755  1.2567  1.3893
  116MOL0     H15976  12.766   9.564   2.059  0.1747  0.0389 -0.7819
  116MOL0     H15977  12.788   9.700   2.166 -3.0884 -1.4444 -0.6240
  116MOL0     H15978  13.020   9.645   2.223 -0.0868 -0.8323  1.7087
  116MOL0     H15979  13.013   9.510   2.098 -1.7910  1.3713 -1.7905
  116MOL0     H15980  13.005   9.443   2.336  2.4282  2.9755 -1.3189
  116MOL0     H15981  12.875   9.557   2.350  1.7631  3.0251 -2.4747
  116MOL0     H15982  12.846   9.319   2.155 -1.3737  0.6514 -0.3206
  116MOL0     H15983  12.716   9.401   2.241  0.2590  0.9104  1.9831
  116MOL0     H15984  12.775   9.289   2.450 -0.8565  1.0191 -0.7546
  116MOL0     H15985  12.925   9.225   2.386 -0.6414 -1.6238  1.1847
  116MOL0     H15986  12.809   9.091   2.231  0.4220  0.0926  0.2162
  116MOL0     H15987  12.659   9.173   2.264 -1.4092  0.3945  2.2084
  116MOL0     H15988  12.659  10.093   2.128 -1.2745 -3.5042  1.4669
  116MOL0     H15989  12.463  10.245   2.083 -1.8645 -1.3313  1.4557
  116MOL0     H15990  12.201  10.452   1.953 -0.9957  1.1347  0.6013
  116MOL0     H15991  12.063  10.642   1.948 -0.1937 -0.1920  1.4607
  116MOL0     H15992  10.857  10.353   2.830  0.5623 -0.3973  5.0740
  116MOL0     H15993  10.796  10.215   3.010  1.2693  0.2621 -1.6105
  116MOL0     H15994  10.335  10.053   3.182  0.8806  1.9971  0.9416
  116MOL0     H15995  10.208   9.900   3.324  0.5440 -0.1550  0.9617
  116MOL0     H15996  10.133   9.777   3.580 -1.6499 -0.6338 -0.1117
  116MOL0     H15997  10.164   9.672   3.433  2.3446 -2.4039 -0.0294
  116MOL0     H15998  10.193   9.474   3.567 -2.1440  0.8261 -0.0370
  116MOL0     H15999  10.089   9.577   3.656  0.0846 -0.7242  0.8296
  116MOL0     H16000  10.378   9.577   3.741 -0.5322  2.5990 -0.5607
  116MOL0     H16001  10.238   9.672   3.788 -1.8303  0.8190 -3.2147
  116MOL0     H16002  10.248   9.368   3.789 -2.5243 -1.0908 -0.3827
  116MOL0     H16003  10.109   9.450   3.828  0.5151 -1.9958  0.9220
  116MOL0     H16004  10.389   9.491   4.171 -0.2083  0.0007  0.1747
  116MOL0     H16005  10.567   9.789   3.534  0.7152  0.6307 -0.6252
  116MOL0     H16006  10.759   9.998   3.464  0.5507 -0.9301 -0.1306
  116MOL0     H16007  10.763   9.820   3.457 -0.7084  0.0542  1.2826
  116MOL0     H16008  10.802   9.906   3.320  0.7664 -0.5612  1.0078
  117MOL0     O16009   5.986   0.433   8.733 -0.3320 -0.1229  0.3399
  117MOL0     C16010   6.011   0.532   8.659  0.1407 -0.4166  1.3374
  117MOL0     O16011   5.946   0.654   8.671 -0.3700  0.4082 -0.2675
  117MOL0     C16012   5.869   0.689   8.781  0.3455 -0.2412 -0.0871
  117MOL0     C16013   5.862   0.639   8.910 -0.3207  0.7995 -0.6255
  117MOL0     C16014   5.790   0.694   9.010  0.6083  0.2392 -1.3409
  117MOL0     C16015   5.723   0.810   8.990  1.0998 -0.5302  0.5998
  117MOL0     O16016   5.673   0.873   9.097  0.3011  0.2143 -0.4717
  117MOL0     C16017   5.574   0.971   9.075  0.3747  0.8400  0.1700
  117MOL0     C16018   5.484   1.004   9.198  0.4848 -0.6399 -1.0910
  117MOL0     C16019   5.578   1.040   9.317  0.5179  0.2232  0.2265
  117MOL0     C16020   5.507   1.097   9.442 -0.5187  0.1042 -0.2718
  117MOL0     C16021   5.629   1.121   9.539  1.3445  0.7696 -0.4167
  117MOL0     C16022   5.577   1.199   9.664 -0.5103 -0.1065  0.6191
  117MOL0     C16023   5.527   1.349   9.642  0.7214  0.8490  0.2000
  117MOL0     C16024   5.650   1.447   9.659 -0.2768  0.5115  0.2659
  117MOL0     N16025   5.614   1.577   9.613  0.5733 -0.4946 -0.3309
  117MOL0     C16026   5.612   1.617   9.481  0.2114  0.6000  0.1653
  117MOL0     C16027   5.584   1.751   9.486  0.1358 -1.1826  0.0235
  117MOL0     C16028   5.546   1.844   9.381 -1.1908 -0.5014  0.7954
  117MOL0     C16029   5.661   1.946   9.359 -0.3184  0.5937 -0.3632
  117MOL0     C16030   5.644   2.047   9.246 -0.0294 -0.5274  0.1050
  117MOL0     C16031   5.516   2.118   9.260  0.1467 -0.3452 -0.1601
  117MOL0     O16032   5.517   2.244   9.199  1.0574  0.1491 -0.6549
  117MOL0     C16033   5.397   2.301   9.182 -0.4919  0.0116  0.5058
  117MOL0     C16034   5.268   2.247   9.211 -0.0077 -0.2560 -0.9204
  117MOL0     C16035   5.154   2.317   9.173 -0.4674  1.0554  0.2826
  117MOL0     C16036   5.019   2.256   9.209  0.2966 -0.5303  0.8784
  117MOL0     C16037   5.169   2.438   9.098  0.6521 -0.7120 -0.4516
  117MOL0     C16038   5.053   2.517   9.037  0.2801 -0.5201 -0.1287
  117MOL0     O16039   5.088   2.617   8.963 -0.0425 -0.3680 -0.1942
  117MOL0     C16040   4.997   2.682   8.876  0.4137 -0.0163 -0.0036
  117MOL0     C16041   5.039   2.765   8.766  0.4553  0.1186 -0.2849
  117MOL0     C16042   4.963   2.861   8.702  0.4430  0.2054  0.3411
  117MOL0     C16043   4.826   2.869   8.727  0.1484  0.5451  0.5030
  117MOL0     O16044   4.732   2.952   8.670  0.1705 -0.9409  0.5155
  117MOL0     C16045   4.788   3.056   8.591  0.2446  0.2026  1.1722
  117MOL0     C16046   4.685   3.150   8.521  0.0647 -0.2258 -0.0480
  117MOL0     C16047   4.580   3.203   8.629 -0.0393  0.0895 -0.0632
  117MOL0     C16048   4.651   3.301   8.724  1.1062 -0.1457 -0.6108
  117MOL0     C16049   4.555   3.359   8.832  0.8347 -0.9486 -0.0220
  117MOL0     C16050   4.636   3.420   8.944  0.1792  0.4507 -0.1938
  117MOL0     C16051   4.556   3.453   9.073  0.6232 -0.9086  0.9939
  117MOL0     C16052   4.631   3.525   9.184 -0.3104 -0.3998 -0.4510
  117MOL0    Cl16053   4.798   3.453   9.224  0.6496 -0.3873  0.0193
  117MOL0     C16054   4.778   2.788   8.829  0.3149  0.6127 -0.4190
  117MOL0     C16055   4.858   2.697   8.906  1.2127 -1.0328 -0.0469
  117MOL0     O16056   4.937   2.492   9.072  0.5437 -0.3988  0.6113
  117MOL0     C16057   5.300   2.492   9.069 -0.1569 -0.1016  0.4559
  117MOL0     C16058   5.412   2.428   9.122  0.4063 -0.5729  0.2312
  117MOL0     N16059   5.583   1.790   9.615  0.6110 -0.1973 -0.1566
  117MOL0     N16060   5.595   1.687   9.689 -0.0782 -0.4483 -0.3048
  117MOL0     C16061   5.732   0.871   8.865 -0.5496  0.8068  0.7974
  117MOL0     C16062   5.809   0.810   8.760 -0.5981  0.1207  0.1412
  117MOL0     C16063   6.107   0.512   8.543  0.2100  0.7112  0.4807
  117MOL0     C16064   6.115   0.606   8.442 -1.0196 -0.6613  0.5985
  117MOL0     C16065   6.205   0.601   8.331  0.0023 -0.3043  0.3254
  117MOL0     C16066   6.280   0.478   8.318 -0.2581 -0.2062  0.6275
  117MOL0     O16067   6.374   0.461   8.211  0.1223 -0.1955 -0.6661
  117MOL0     C16068   6.397   0.567   8.112  0.1326  0.0265  0.4004
  117MOL0     C16069   6.480   0.527   7.988 -0.5370  0.2560 -0.3584
  117MOL0     C16070   6.623   0.526   8.032 -0.0541  0.0401 -0.1066
  117MOL0     C16071   6.719   0.522   7.908 -0.7141 -0.3765  0.0417
  117MOL0     C16072   6.669   0.442   7.801 -0.2447  1.2252 -0.7673
  117MOL0     C16073   6.636   0.355   7.712 -0.5112 -0.1003  0.3947
  117MOL0     C16074   6.278   0.381   8.423  0.3517 -0.4371 -0.6919
  117MOL0     C16075   6.190   0.395   8.530 -0.3685 -0.0306 -0.4649
  117MOL0     C16076   6.204   0.279   8.631 -0.4400  0.9557 -0.8174
  117MOL0     H16077   5.918   0.550   8.938 -2.7558 -0.7490 -0.3610
  117MOL0     H16078   5.804   0.645   9.106 -0.8457  0.2966 -1.0829
  117MOL0     H16079   5.506   0.922   9.004  1.3566 -2.1825  1.1599
  117MOL0     H16080   5.613   1.065   9.035  2.6921 -0.2376 -0.2687
  117MOL0     H16081   5.412   1.081   9.167 -1.6530 -3.1294 -2.7737
  117MOL0     H16082   5.424   0.913   9.208 -0.9939  0.3158 -0.8978
  117MOL0     H16083   5.627   0.945   9.342  0.5128  0.0854 -0.2753
  117MOL0     H16084   5.658   1.102   9.274  0.5769 -0.1547 -0.2192
  117MOL0     H16085   5.458   1.192   9.422 -2.0080 -0.7222 -0.6714
  117MOL0     H16086   5.446   1.026   9.498  1.6983 -2.6471 -1.0715
  117MOL0     H16087   5.702   1.182   9.485  0.7487  1.1701 -0.7774
  117MOL0     H16088   5.680   1.030   9.571 -0.8694 -1.2009 -2.1606
  117MOL0     H16089   5.498   1.146   9.718  0.7052 -0.6435  1.9004
  117MOL0     H16090   5.655   1.202   9.741  2.5680  0.8151 -2.2849
  117MOL0     H16091   5.437   1.383   9.693  1.5242  2.6743  0.4825
  117MOL0     H16092   5.515   1.354   9.533  0.5047  0.2415  0.1935
  117MOL0     H16093   5.684   1.459   9.762  0.1061 -1.0136  0.3428
  117MOL0     H16094   5.732   1.412   9.595 -1.2462 -2.4619  0.5009
  117MOL0     H16095   5.606   1.549   9.397  0.3770  2.7092 -1.6279
  117MOL0     H16096   5.458   1.899   9.415 -0.0944  1.9569 -0.0505
  117MOL0     H16097   5.519   1.796   9.287  1.3131  1.8940 -1.3599
  117MOL0     H16098   5.690   1.998   9.451  2.9466 -0.9676 -0.3753
  117MOL0     H16099   5.748   1.882   9.343  1.1297  1.8815  1.7905
  117MOL0     H16100   5.729   2.114   9.230  0.6869 -0.8846  2.1366
  117MOL0     H16101   5.641   1.982   9.159 -2.0220  0.3949 -0.5910
  117MOL0     H16102   5.436   2.053   9.222 -1.5777  0.3749  1.9611
  117MOL0     H16103   5.479   2.111   9.363  1.0097 -0.5854  0.1475
  117MOL0     H16104   5.261   2.152   9.263  2.0825  1.6394  3.4023
  117MOL0     H16105   4.951   2.320   9.265  1.1146 -0.7554  2.1718
  117MOL0     H16106   5.029   2.158   9.257 -2.4418 -1.1386  0.3665
  117MOL0     H16107   4.966   2.231   9.116 -2.0235  0.1994  1.9329
  117MOL0     H16108   5.145   2.773   8.744  0.4449 -1.5231 -1.1011
  117MOL0     H16109   5.019   2.930   8.640  1.2398 -1.1913 -0.5535
  117MOL0     H16110   4.860   3.116   8.647  2.9496 -1.2255 -0.5694
  117MOL0     H16111   4.852   3.013   8.513  2.4262 -0.2739  3.1069
  117MOL0     H16112   4.743   3.230   8.475  0.3067 -1.0491 -1.2249
  117MOL0     H16113   4.631   3.104   8.437  0.5547 -0.6815 -0.1184
  117MOL0     H16114   4.546   3.115   8.685  2.5019 -0.5616  0.6087
  117MOL0     H16115   4.499   3.242   8.566  1.5113 -0.1095 -2.3145
  117MOL0     H16116   4.679   3.384   8.658 -2.8002 -0.0004 -2.3671
  117MOL0     H16117   4.737   3.255   8.774  0.5743 -0.4244  0.0645
  117MOL0     H16118   4.480   3.427   8.793 -1.0255 -2.5702  0.5661
  117MOL0     H16119   4.493   3.281   8.878  0.5901 -1.0704 -0.5452
  117MOL0     H16120   4.693   3.507   8.910 -0.7262  1.3412  0.4854
  117MOL0     H16121   4.714   3.348   8.968 -1.4876 -2.0445 -1.8167
  117MOL0     H16122   4.516   3.355   9.100  1.4919 -1.0976  1.6188
  117MOL0     H16123   4.479   3.523   9.036  3.0411  0.9286 -0.8794
  117MOL0     H16124   4.560   3.528   9.267  0.7965  0.2466  0.4966
  117MOL0     H16125   4.647   3.625   9.143  1.2141 -0.4983 -0.1290
  117MOL0     H16126   4.672   2.786   8.855  0.0954 -0.9486 -1.3091
  117MOL0     H16127   4.798   2.647   8.982 -0.0705  0.0087 -0.3285
  117MOL0     H16128   5.315   2.584   9.014  0.1382  0.6810  1.7909
  117MOL0     H16129   5.510   2.468   9.101 -0.5707  1.3751 -0.9667
  117MOL0     H16130   5.689   0.969   8.847  0.9685  1.1353 -1.3460
  117MOL0     H16131   5.843   0.873   8.679  1.3919  1.3828  1.8527
  117MOL0     H16132   6.060   0.698   8.457  0.5700  0.0581  2.4726
  117MOL0     H16133   6.200   0.685   8.263 -1.5564 -0.9825 -0.4620
  117MOL0     H16134   6.294   0.592   8.085 -0.5539  1.4988  3.8697
  117MOL0     H16135   6.435   0.664   8.145  1.9923 -0.2149 -0.8976
  117MOL0     H16136   6.473   0.611   7.918  1.1612  1.6719  1.0553
  117MOL0     H16137   6.452   0.437   7.933 -5.0422  0.2190  1.6210
  117MOL0     H16138   6.639   0.616   8.092 -1.4631  0.6509 -0.6082
  117MOL0     H16139   6.646   0.434   8.085  0.4121 -0.5355 -1.2698
  117MOL0     H16140   6.814   0.479   7.943 -0.5703 -0.4742 -0.4694
  117MOL0     H16141   6.743   0.625   7.880  1.1493  0.4628  3.9274
  117MOL0     H16142   6.592   0.288   7.641 -1.0669  1.4764 -0.8147
  117MOL0     H16143   6.337   0.290   8.420 -1.1487 -1.4323 -2.0534
  117MOL0     H16144   6.289   0.212   8.617  1.3947  3.1061 -0.6597
  117MOL0     H16145   6.214   0.311   8.735 -1.1933 -1.4596  0.0426
  117MOL0     H16146   6.118   0.212   8.634  1.0873 -1.1026 -0.6076
  118MOL0     O16147   5.801   5.614   8.818 -0.5064  0.2740 -0.0311
  118MOL0     C16148   5.685   5.579   8.812  0.3503  0.4028 -0.0241
  118MOL0     O16149   5.614   5.518   8.913 -0.3146  0.0301 -1.2654
  118MOL0     C16150   5.664   5.491   9.043  0.1163 -0.6136 -0.0058
  118MOL0     C16151   5.794   5.441   9.065  0.9067 -0.3373  0.6168
  118MOL0     C16152   5.831   5.386   9.183 -0.0351 -0.8014 -1.4423
  118MOL0     C16153   5.736   5.384   9.290 -0.1605  0.2367 -0.1310
  118MOL0     O16154   5.758   5.315   9.411  0.2176 -0.7384  0.1238
  118MOL0     C16155   5.855   5.215   9.413 -0.7078  0.3879  0.3121
  118MOL0     C16156   5.857   5.155   9.554 -0.1847  0.2176  0.0809
  118MOL0     C16157   5.998   5.097   9.599 -0.2353  0.0533 -0.0181
  118MOL0     C16158   5.988   5.035   9.737 -0.4717  0.3135  0.6656
  118MOL0     C16159   6.131   4.978   9.777 -0.1283  0.2940  0.1977
  118MOL0     C16160   6.115   4.938   9.921  0.7108 -0.2430 -1.0432
  118MOL0     C16161   6.244   4.937  10.003 -0.0237  0.2979 -0.4546
  118MOL0     C16162   6.221   4.874  10.148  0.1036 -0.5872  0.7330
  118MOL0     N16163   6.349   4.845  10.209 -0.0311 -0.6130  0.0267
  118MOL0     C16164   6.395   4.905  10.325 -0.2716  0.5678 -0.2306
  118MOL0     C16165   6.509   4.840  10.363 -0.9780  0.2255 -0.2880
  118MOL0     C16166   6.575   4.870  10.497  0.0307  0.0391  0.7028
  118MOL0     C16167   6.710   4.938  10.489  0.3072  0.3132 -0.2508
  118MOL0     C16168   6.812   4.837  10.436 -0.2263 -0.2908  0.1127
  118MOL0     C16169   6.947   4.913  10.426  0.8006 -0.9255  0.1658
  118MOL0     O16170   7.005   4.936  10.553  0.0778  0.0781  0.2204
  118MOL0     C16171   7.133   4.984  10.558 -0.2217  0.1085  0.3970
  118MOL0     C16172   7.170   5.045  10.683  1.3480  0.8398  0.1352
  118MOL0     C16173   7.303   5.099  10.700 -0.2305 -0.1962  0.1972
  118MOL0     C16174   7.350   5.140  10.837  0.1729 -0.0637 -0.3471
  118MOL0     C16175   7.385   5.113  10.589  0.0859  0.2048 -0.7243
  118MOL0     C16176   7.526   5.166  10.585  0.0488  1.0215  0.1436
  118MOL0     O16177   7.565   5.261  10.675  0.4221  0.6724 -0.2402
  118MOL0     C16178   7.699   5.293  10.662  0.5269  0.0553 -0.6125
  118MOL0     C16179   7.752   5.386  10.568  0.2374  0.7546 -0.0016
  118MOL0     C16180   7.890   5.415  10.557  0.0388  0.4565 -0.7196
  118MOL0     C16181   7.978   5.346  10.643  0.0383  0.1566  0.6434
  118MOL0     O16182   8.112   5.377  10.621  0.2246 -0.4936 -0.2038
  118MOL0     C16183   8.207   5.296  10.681 -0.0263  0.4338 -0.2527
  118MOL0     C16184   8.349   5.361  10.655  0.7683  0.5226 -1.1014
  118MOL0     C16185   8.468   5.264  10.674  0.9078 -0.2808  0.3092
  118MOL0     C16186   8.593   5.342  10.673  0.3379 -0.0956  0.4407
  118MOL0     C16187   8.714   5.249  10.691  0.0580  0.0727 -0.5414
  118MOL0     C16188   8.834   5.324  10.741 -0.3262  0.2201 -0.5370
  118MOL0     C16189   8.939   5.229  10.783  0.1567 -0.4440 -0.2069
  118MOL0     C16190   9.056   5.312  10.844 -0.4335  0.2368  0.0891
  118MOL0    Cl16191   9.009   5.357  11.014  0.2736 -0.2684 -0.0140
  118MOL0     C16192   7.926   5.252  10.734  0.7554 -0.4363 -0.0207
  118MOL0     C16193   7.791   5.232  10.751  0.8177  0.0255 -0.2224
  118MOL0     O16194   7.600   5.092  10.510 -0.7370  0.2912  0.2984
  118MOL0     C16195   7.338   5.066  10.467 -0.0935  0.4117  0.3666
  118MOL0     C16196   7.215   5.004  10.449 -0.1138  0.6658  0.2422
  118MOL0     N16197   6.527   4.737  10.282 -0.4901  0.4040 -0.5151
  118MOL0     N16198   6.432   4.738  10.190 -0.5142  0.1638  0.3402
  118MOL0     C16199   5.606   5.437   9.272  0.6183 -0.2017  0.7895
  118MOL0     C16200   5.566   5.477   9.140  0.1120 -0.3064 -0.1910
  118MOL0     C16201   5.602   5.598   8.686 -0.5407 -0.1174  0.4909
  118MOL0     C16202   5.503   5.507   8.658  0.0457 -0.7314 -0.9736
  118MOL0     C16203   5.428   5.515   8.541  0.4350 -0.2925  0.1755
  118MOL0     C16204   5.462   5.608   8.442  0.0730  0.2548  0.0554
  118MOL0     O16205   5.398   5.614   8.319 -0.0786 -0.8292 -0.8735
  118MOL0     C16206   5.278   5.531   8.298 -0.2579 -0.0630 -0.2170
  118MOL0     C16207   5.250   5.529   8.151  0.7936  0.1399 -0.2523
  118MOL0     C16208   5.137   5.445   8.095 -0.5831 -0.0921  0.8114
  118MOL0     C16209   5.004   5.525   8.060 -0.0814  0.2680  0.4378
  118MOL0     C16210   4.898   5.475   7.975  0.3226  0.2903  0.4292
  118MOL0     C16211   4.817   5.430   7.890  0.3653  0.8084  0.4581
  118MOL0     C16212   5.563   5.690   8.466 -1.0157 -0.3646 -0.0521
  118MOL0     C16213   5.635   5.688   8.584  0.1097  0.8499 -0.3610
  118MOL0     C16214   5.744   5.781   8.608  0.1646  0.2011 -0.2369
  118MOL0     H16215   5.867   5.453   8.985  1.2099  1.3061  1.1067
  118MOL0     H16216   5.933   5.352   9.200  0.1949  0.7846  0.8843
  118MOL0     H16217   5.955   5.253   9.393  0.1218  0.7094  4.2479
  118MOL0     H16218   5.835   5.134   9.342  1.4407  0.5223 -0.5172
  118MOL0     H16219   5.811   5.230   9.620 -0.2108  1.4279 -1.2710
  118MOL0     H16220   5.785   5.074   9.566 -0.1271  0.4771  2.7902
  118MOL0     H16221   6.025   5.031   9.517 -0.4511  0.8293 -0.7363
  118MOL0     H16222   6.074   5.176   9.604  1.2785 -1.3969  0.5627
  118MOL0     H16223   5.970   5.118   9.806  0.5182  0.8750  0.2720
  118MOL0     H16224   5.910   4.959   9.734 -0.3839  0.2563 -0.3704
  118MOL0     H16225   6.202   5.060   9.769  1.9813 -1.5148 -0.8124
  118MOL0     H16226   6.169   4.893   9.719 -0.5146 -1.1407  1.9573
  118MOL0     H16227   6.062   5.006   9.989  4.5354 -0.5963  2.7513
  118MOL0     H16228   6.064   4.841   9.925 -3.0825  1.5819 -0.2706
  118MOL0     H16229   6.285   5.036  10.025  1.2578 -0.5153  0.9656
  118MOL0     H16230   6.320   4.879   9.949 -0.1587 -1.2932  0.9607
  118MOL0     H16231   6.163   4.939  10.214 -0.7708  0.5035 -1.0381
  118MOL0     H16232   6.169   4.778  10.135  0.6197 -0.5684 -2.3142
  118MOL0     H16233   6.362   4.999  10.367  1.1215  1.0403 -0.1285
  118MOL0     H16234   6.602   4.776  10.544  2.5179  1.0998  1.5694
  118MOL0     H16235   6.514   4.932  10.563 -0.0167  0.8132 -0.0438
  118MOL0     H16236   6.685   5.031  10.438  1.6640  0.6324 -0.3747
  118MOL0     H16237   6.732   4.962  10.594 -0.5849  0.1287 -0.0110
  118MOL0     H16238   6.822   4.751  10.503 -0.2591 -0.8236 -0.5611
  118MOL0     H16239   6.779   4.803  10.338 -2.3376  0.8336  0.3705
  118MOL0     H16240   7.021   4.847  10.380  1.1749 -0.9591  0.8075
  118MOL0     H16241   6.938   5.003  10.365  1.5923 -1.5894 -0.9682
  118MOL0     H16242   7.100   5.044  10.767  2.6297  0.7464  1.2428
  118MOL0     H16243   7.304   5.231  10.878 -0.3532 -0.6218  0.3377
  118MOL0     H16244   7.459   5.145  10.844  0.1654 -0.2112 -0.1182
  118MOL0     H16245   7.330   5.064  10.914 -1.7283  0.8533  0.1356
  118MOL0     H16246   7.680   5.424  10.496 -1.2910 -4.0102 -1.3494
  118MOL0     H16247   7.921   5.482  10.477 -0.6242  1.9203  0.1953
  118MOL0     H16248   8.195   5.293  10.789 -0.6458 -2.6507 -0.3104
  118MOL0     H16249   8.190   5.191  10.657  2.5047 -0.2276  0.5210
  118MOL0     H16250   8.357   5.407  10.555 -0.9909  0.1270 -1.4575
  118MOL0     H16251   8.359   5.440  10.730 -0.7717  0.4250 -0.7653
  118MOL0     H16252   8.473   5.186  10.598 -1.2639  0.1054 -0.3162
  118MOL0     H16253   8.445   5.225  10.774 -4.6823 -1.0858 -0.9220
  118MOL0     H16254   8.579   5.406  10.761 -0.5639 -1.1456  1.0923
  118MOL0     H16255   8.615   5.402  10.584  5.3066 -1.3159  0.5107
  118MOL0     H16256   8.669   5.182  10.765  0.7994  0.0279 -0.1213
  118MOL0     H16257   8.728   5.200  10.594 -0.5365  2.3184 -1.8299
  118MOL0     H16258   8.818   5.390  10.827 -1.4635 -1.8766  0.9704
  118MOL0     H16259   8.871   5.392  10.664 -0.9667  2.2868  0.8855
  118MOL0     H16260   8.970   5.170  10.696 -0.1352  1.0709 -1.3898
  118MOL0     H16261   8.898   5.158  10.856  3.3299 -1.8083  0.4280
  118MOL0     H16262   9.079   5.404  10.790  2.2325 -0.3612  0.0381
  118MOL0     H16263   9.148   5.254  10.835  0.6440  2.2127 -3.3255
  118MOL0     H16264   7.988   5.200  10.806 -1.1216  0.0534  2.0562
  118MOL0     H16265   7.754   5.164  10.828 -0.8302  2.2720  1.1014
  118MOL0     H16266   7.394   5.075  10.374 -0.9049  0.3890 -0.1365
  118MOL0     H16267   7.214   4.956  10.351  1.6410  1.1370 -0.0400
  118MOL0     H16268   5.531   5.425   9.349 -0.9489 -1.0908 -0.7980
  118MOL0     H16269   5.464   5.508   9.118 -0.1522 -2.5565 -2.6418
  118MOL0     H16270   5.477   5.425   8.725  0.0995  1.2058  1.5592
  118MOL0     H16271   5.357   5.436   8.519  1.9909 -0.8705 -3.5696
  118MOL0     H16272   5.292   5.428   8.330  0.8086  0.3872  0.8227
  118MOL0     H16273   5.202   5.594   8.345  2.3703  5.7503 -2.6952
  118MOL0     H16274   5.344   5.505   8.101  1.4485  2.6651 -0.4133
  118MOL0     H16275   5.243   5.635   8.122 -1.1087 -0.0256 -0.5236
  118MOL0     H16276   5.177   5.398   8.004  1.4616  1.4179  0.8674
  118MOL0     H16277   5.118   5.359   8.159 -2.0398  1.0190  1.9232
  118MOL0     H16278   5.036   5.626   8.032  1.5844  0.2631  2.1257
  118MOL0     H16279   4.963   5.551   8.158 -0.2775 -0.1040  0.4534
  118MOL0     H16280   4.740   5.398   7.823  1.5977  0.3164 -0.7738
  118MOL0     H16281   5.606   5.760   8.395  2.2770  1.8416  3.6952
  118MOL0     H16282   5.737   5.857   8.530  0.2585 -0.1113 -0.5526
  118MOL0     H16283   5.724   5.835   8.701  2.4302  0.2620  0.2745
  118MOL0     H16284   5.841   5.731   8.612  0.3107  0.5213  2.7359
  119MOL0     O16285   8.794   5.965   3.902  1.2277 -0.3326 -0.5974
  119MOL0     C16286   8.886   5.884   3.904  1.2855 -0.6004 -0.3944
  119MOL0     O16287   8.876   5.752   3.859 -0.7032  0.5102  0.1271
  119MOL0     C16288   8.786   5.734   3.758  0.0911  0.5059  0.8834
  119MOL0     C16289   8.681   5.639   3.780  0.7220 -0.9693  0.1408
  119MOL0     C16290   8.579   5.614   3.689 -0.2415  0.7066 -0.4022
  119MOL0     C16291   8.577   5.680   3.567 -0.4912 -0.1883 -1.1068
  119MOL0     O16292   8.473   5.655   3.477 -0.3252 -0.6349 -0.4476
  119MOL0     C16293   8.387   5.769   3.483 -0.2062  0.1615  0.0644
  119MOL0     C16294   8.243   5.743   3.533  0.6358 -0.5252 -0.4040
  119MOL0     C16295   8.177   5.634   3.450  0.8461  0.4788  0.3558
  119MOL0     C16296   8.135   5.681   3.313 -0.6241 -0.1383  0.6257
  119MOL0     C16297   8.121   5.564   3.211  0.3434  0.4522  0.5039
  119MOL0     C16298   8.232   5.570   3.104  0.5057  0.3563 -0.4892
  119MOL0     C16299   8.203   5.456   3.000 -0.0495 -0.1968  0.2201
  119MOL0     C16300   8.318   5.445   2.896 -0.3453  0.0398 -0.6075
  119MOL0     N16301   8.452   5.412   2.950 -0.1242  0.0070 -1.4012
  119MOL0     C16302   8.573   5.411   2.881  0.6466  0.5174  0.1953
  119MOL0     C16303   8.673   5.390   2.967  0.9607  0.5588 -0.5179
  119MOL0     C16304   8.818   5.367   2.936  0.2796  0.1241  0.0281
  119MOL0     C16305   8.905   5.484   2.968 -0.3022  0.1092 -0.5230
  119MOL0     C16306   9.043   5.460   2.921 -1.2608  0.1186  0.8651
  119MOL0     C16307   9.143   5.566   2.970 -0.0072 -0.0643  0.1284
  119MOL0     O16308   9.246   5.576   2.874 -0.3470  0.2873  0.0858
  119MOL0     C16309   9.357   5.654   2.893  0.1300 -0.2909  0.0431
  119MOL0     C16310   9.382   5.722   3.017 -0.1249 -0.2095  0.5481
  119MOL0     C16311   9.510   5.783   3.038 -0.0218 -0.0182  0.7953
  119MOL0     C16312   9.526   5.865   3.159  0.0273 -0.5309  0.3195
  119MOL0     C16313   9.617   5.755   2.944 -0.1819  0.4834 -1.6445
  119MOL0     C16314   9.763   5.776   2.974  0.2802 -1.1602 -0.2880
  119MOL0     O16315   9.842   5.693   2.906 -1.0451  0.1250  0.4833
  119MOL0     C16316   9.982   5.712   2.914 -0.0058  0.2159  0.3039
  119MOL0     C16317  10.063   5.824   2.930  0.3063 -0.1116  0.2843
  119MOL0     C16318  10.202   5.819   2.931 -0.4119 -0.5349  0.6228
  119MOL0     C16319  10.267   5.697   2.926 -0.4402  0.2138  0.4993
  119MOL0     O16320  10.407   5.692   2.939  0.9513 -0.2609 -0.1064
  119MOL0     C16321  10.452   5.585   3.032  0.1608  0.0773 -0.2405
  119MOL0     C16322  10.584   5.639   3.077  0.2505 -0.1840 -0.3426
  119MOL0     C16323  10.571   5.768   3.153 -0.3207 -0.5506  0.5627
  119MOL0     C16324  10.718   5.819   3.200  0.2894  0.4405 -0.6091
  119MOL0     C16325  10.699   5.971   3.224  0.1510 -0.5428  0.2327
  119MOL0     C16326  10.651   6.001   3.366 -0.4213 -0.3908 -0.1300
  119MOL0     C16327  10.650   6.151   3.380 -0.5540  0.0889  0.5168
  119MOL0     C16328  10.603   6.197   3.520 -0.3478  0.9580  0.5969
  119MOL0    Cl16329  10.727   6.149   3.639 -0.0041 -0.2691  0.1916
  119MOL0     C16330  10.196   5.582   2.911  0.1541  0.1475 -0.4966
  119MOL0     C16331  10.058   5.589   2.908 -0.3476 -0.2984 -0.3087
  119MOL0     O16332   9.802   5.851   3.060 -0.3248 -0.4587  0.3651
  119MOL0     C16333   9.579   5.693   2.820  0.2747  0.6927 -0.1051
  119MOL0     C16334   9.451   5.653   2.795 -0.4315 -0.1701 -0.3983
  119MOL0     N16335   8.613   5.392   3.096  0.7788 -0.4702  0.2165
  119MOL0     N16336   8.488   5.408   3.083 -0.1253  0.5143  0.5484
  119MOL0     C16337   8.686   5.756   3.536 -1.0275 -0.3808 -1.0402
  119MOL0     C16338   8.790   5.784   3.629 -1.0382 -0.6097 -0.5837
  119MOL0     C16339   9.009   5.912   3.979 -0.0224  0.7646 -0.9506
  119MOL0     C16340   8.996   5.942   4.107  0.2963  0.9341 -0.5404
  119MOL0     C16341   9.109   5.954   4.193 -0.3682 -1.4542 -0.5009
  119MOL0     C16342   9.240   5.939   4.138  0.9616 -0.5339  1.0348
  119MOL0     O16343   9.357   5.947   4.209  0.4928  0.0485 -0.4689
  119MOL0     C16344   9.360   5.961   4.353  0.7858 -0.5714  0.0248
  119MOL0     C16345   9.507   5.979   4.406 -0.2471  0.3041 -0.4049
  119MOL0     C16346   9.516   6.032   4.551 -0.5908  0.6217  0.4183
  119MOL0     C16347   9.668   6.046   4.600 -0.0326 -0.7868 -0.2435
  119MOL0     C16348   9.707   5.919   4.657  0.4629 -0.1308  1.3725
  119MOL0     C16349   9.724   5.811   4.707 -0.4011 -0.1920 -0.1614
  119MOL0     C16350   9.254   5.904   4.008  0.1069 -0.0404 -0.0405
  119MOL0     C16351   9.142   5.891   3.927  0.1979 -0.2525 -0.0786
  119MOL0     C16352   9.158   5.840   3.776 -0.2598 -0.1092  0.1761
  119MOL0     H16353   8.682   5.596   3.879 -2.5346 -1.5339  0.0246
  119MOL0     H16354   8.491   5.554   3.711 -0.1700  1.2231  1.3995
  119MOL0     H16355   8.386   5.813   3.383  0.6911 -4.3928 -2.1732
  119MOL0     H16356   8.417   5.844   3.557 -2.7053  0.0917  1.2607
  119MOL0     H16357   8.243   5.716   3.639 -2.2653  2.8465  0.6572
  119MOL0     H16358   8.185   5.836   3.536 -0.7868 -1.3625 -1.1572
  119MOL0     H16359   8.237   5.542   3.442 -1.4867 -0.9988 -1.4900
  119MOL0     H16360   8.083   5.607   3.500  0.1684  2.8904  0.5060
  119MOL0     H16361   8.044   5.742   3.318 -0.9541  0.0387 -3.9404
  119MOL0     H16362   8.206   5.757   3.281 -0.4276 -1.8871 -3.8561
  119MOL0     H16363   8.025   5.585   3.163  1.0779 -2.3238 -2.5698
  119MOL0     H16364   8.111   5.466   3.259 -0.7613  0.3316  0.0600
  119MOL0     H16365   8.242   5.666   3.054  3.6448 -0.5082 -1.7681
  119MOL0     H16366   8.324   5.561   3.163 -0.7191 -0.6655  1.4016
  119MOL0     H16367   8.109   5.483   2.951 -1.1890 -0.9636  1.8978
  119MOL0     H16368   8.185   5.358   3.046 -3.5773 -0.4751 -1.4107
  119MOL0     H16369   8.274   5.357   2.850 -0.6318 -0.6791  0.9743
  119MOL0     H16370   8.318   5.541   2.844  0.0172  0.3559 -0.0385
  119MOL0     H16371   8.580   5.410   2.772  1.1148  0.7295  0.2228
  119MOL0     H16372   8.827   5.355   2.827  0.8920  0.3093  0.0557
  119MOL0     H16373   8.849   5.281   2.995  0.3935 -1.8100 -2.6726
  119MOL0     H16374   8.860   5.571   2.920 -0.6733  0.8124  1.0476
  119MOL0     H16375   8.908   5.498   3.076  0.8208 -1.5864 -0.2968
  119MOL0     H16376   9.088   5.367   2.955  1.6781  1.2875  0.4968
  119MOL0     H16377   9.059   5.451   2.813  1.1106 -1.7061  1.2923
  119MOL0     H16378   9.091   5.658   2.998 -2.3478 -1.2590 -0.0157
  119MOL0     H16379   9.193   5.533   3.061  2.2734  1.0779 -0.6334
  119MOL0     H16380   9.295   5.721   3.082 -0.9758 -2.4210 -0.5479
  119MOL0     H16381   9.438   5.926   3.180 -0.5402 -1.2162 -0.0051
  119MOL0     H16382   9.611   5.933   3.154  0.3283 -0.6297  2.8467
  119MOL0     H16383   9.547   5.796   3.241  0.8327 -0.4491  0.1908
  119MOL0     H16384  10.026   5.924   2.953 -0.9400 -1.1302  3.1747
  119MOL0     H16385  10.273   5.901   2.941 -1.0639  0.3862 -1.5677
  119MOL0     H16386  10.388   5.568   3.119  4.1347 -1.0391  2.7277
  119MOL0     H16387  10.457   5.495   2.970 -0.2385 -0.2516  0.1976
  119MOL0     H16388  10.644   5.568   3.134  0.0636 -0.2654 -0.2478
  119MOL0     H16389  10.642   5.670   2.989  3.1112  1.6197  1.9843
  119MOL0     H16390  10.506   5.754   3.240 -1.7124  1.5622 -0.0389
  119MOL0     H16391  10.527   5.848   3.093 -0.1181 -0.4274  0.5783
  119MOL0     H16392  10.794   5.801   3.123  0.9954 -0.4537  0.2748
  119MOL0     H16393  10.744   5.764   3.290 -0.0763  1.1915 -0.0335
  119MOL0     H16394  10.798   6.017   3.229 -0.6829  1.5261 -1.1526
  119MOL0     H16395  10.641   6.026   3.150  0.4551  1.3103  1.2969
  119MOL0     H16396  10.726   5.968   3.438  0.4549  0.0929 -0.7990
  119MOL0     H16397  10.561   5.945   3.391 -0.2558 -0.6793 -0.1704
  119MOL0     H16398  10.584   6.193   3.304 -2.1146  0.7581  2.1596
  119MOL0     H16399  10.751   6.186   3.358 -0.4140  0.6970  2.0252
  119MOL0     H16400  10.508   6.152   3.550 -0.2478 -0.6154 -1.2898
  119MOL0     H16401  10.584   6.305   3.520 -0.6440  0.9079  0.4863
  119MOL0     H16402  10.231   5.479   2.914 -2.2316 -0.6939  1.4738
  119MOL0     H16403  10.012   5.491   2.903  0.4127 -0.6036 -2.3125
  119MOL0     H16404   9.658   5.669   2.751 -0.2804  0.4452 -0.6650
  119MOL0     H16405   9.424   5.609   2.699 -1.0567  0.5596 -0.5653
  119MOL0     H16406   8.674   5.801   3.437 -1.3337 -1.6952 -1.6195
  119MOL0     H16407   8.866   5.860   3.612  0.2526 -2.0052 -1.2673
  119MOL0     H16408   8.900   5.944   4.158  0.3818  3.1433 -0.3566
  119MOL0     H16409   9.094   5.986   4.296  0.2839 -0.2762 -0.7541
  119MOL0     H16410   9.298   6.046   4.383  0.5071 -0.8377  0.2069
  119MOL0     H16411   9.316   5.867   4.386  0.1204 -1.2590 -2.6203
  119MOL0     H16412   9.563   6.043   4.339  1.4729 -1.1887 -0.4662
  119MOL0     H16413   9.558   5.882   4.398  0.0425  0.4636 -0.4769
  119MOL0     H16414   9.475   6.133   4.560  2.8118  2.1648  0.0024
  119MOL0     H16415   9.452   5.967   4.611 -0.9200 -0.9313 -1.5267
  119MOL0     H16416   9.677   6.120   4.680  0.3329  0.7725 -1.6778
  119MOL0     H16417   9.735   6.064   4.515  0.8345 -0.7735  0.4298
  119MOL0     H16418   9.734   5.720   4.762 -1.5966 -0.0213  0.3803
  119MOL0     H16419   9.348   5.883   3.959 -0.8506 -2.9432 -0.8113
  119MOL0     H16420   9.120   5.737   3.774 -0.6334 -0.0221  1.5773
  119MOL0     H16421   9.101   5.890   3.698  0.0205  0.4464  0.3217
  119MOL0     H16422   9.264   5.840   3.749 -0.0310  1.0556  0.9995
  120MOL0     O16423   7.656   9.325  10.141  0.7249 -0.4270 -0.3949
  120MOL0     C16424   7.691   9.214  10.108 -0.3159 -0.0019  0.9069
  120MOL0     O16425   7.751   9.181   9.981  0.0470  0.0143 -0.6446
  120MOL0     C16426   7.749   9.289   9.895 -1.2432 -0.0648  0.3694
  120MOL0     C16427   7.859   9.381   9.900 -0.0406 -0.4184  0.8023
  120MOL0     C16428   7.882   9.489   9.806 -0.2130  0.0530  0.9163
  120MOL0     C16429   7.791   9.515   9.703  0.3783 -0.0694 -0.4673
  120MOL0     O16430   7.793   9.625   9.613  0.9682 -0.0031  0.3049
  120MOL0     C16431   7.913   9.693   9.586  0.4915  1.1798 -0.4441
  120MOL0     C16432   7.904   9.821   9.497  0.0120  0.7149 -0.3845
  120MOL0     C16433   7.857   9.942   9.575 -0.3571 -0.1919 -0.8804
  120MOL0     C16434   7.832  10.067   9.503  0.1798  1.0191  0.4024
  120MOL0     C16435   7.963  10.136   9.464 -0.4440 -0.0947  0.0017
  120MOL0     C16436   7.929  10.285   9.415 -0.5336 -0.3748  0.3279
  120MOL0     C16437   8.054  10.334   9.347 -0.4491 -0.9247  0.2714
  120MOL0     C16438   8.171  10.378   9.439 -0.4927  0.0689 -0.1896
  120MOL0     N16439   8.292  10.412   9.367 -0.0263 -0.7628 -1.1720
  120MOL0     C16440   8.319  10.527   9.305  0.5837 -0.0580  0.0881
  120MOL0     C16441   8.450  10.519   9.268  1.3272 -0.7680 -0.0044
  120MOL0     C16442   8.511  10.624   9.185  0.1921  0.2182  0.4052
  120MOL0     C16443   8.641  10.573   9.130  0.8058  0.0676 -0.4050
  120MOL0     C16444   8.728  10.687   9.081 -0.8091 -0.5632 -0.7284
  120MOL0     C16445   8.867  10.650   9.031  0.0204 -0.2276  1.0858
  120MOL0     O16446   8.918  10.754   8.947  0.5317 -0.0462  0.0122
  120MOL0     C16447   9.059  10.747   8.912  0.3119 -0.2773  0.3366
  120MOL0     C16448   9.156  10.647   8.936  1.2791  0.3973  0.4431
  120MOL0     C16449   9.285  10.654   8.891  1.0723 -0.4767 -0.2051
  120MOL0     C16450   9.377  10.546   8.943  0.3977  0.1759 -0.1701
  120MOL0     C16451   9.322  10.754   8.801 -0.4991  0.4118  0.1872
  120MOL0     C16452   9.466  10.769   8.748 -0.5309  0.0864  0.0233
  120MOL0     O16453   9.478  10.860   8.651 -0.0337  0.1948 -0.4890
  120MOL0     C16454   9.572  10.829   8.556  0.0062  0.2181 -0.1539
  120MOL0     C16455   9.546  10.753   8.440 -0.6861  0.0945 -0.0384
  120MOL0     C16456   9.657  10.730   8.355 -0.0127  0.6756  0.7452
  120MOL0     C16457   9.776  10.796   8.362 -0.0928  0.0324  0.0255
  120MOL0     O16458   9.868  10.805   8.264  0.4656 -0.5938  0.4059
  120MOL0     C16459   9.993  10.734   8.308  0.9807  1.1285  0.0560
  120MOL0     C16460  10.115  10.786   8.233 -0.2375  0.5441 -0.3629
  120MOL0     C16461  10.168  10.918   8.296  0.1215 -0.1604  0.0658
  120MOL0     C16462  10.088  11.044   8.252  0.6770 -0.1071 -0.9000
  120MOL0     C16463  10.125  11.163   8.342  0.7741  0.1963 -0.1903
  120MOL0     C16464  10.268  11.207   8.317 -0.7129  0.4336 -0.2558
  120MOL0     C16465  10.281  11.348   8.358  0.0983 -0.0319 -0.7727
  120MOL0     C16466  10.408  11.416   8.315  0.5561 -0.2514 -0.1915
  120MOL0    Cl16467  10.429  11.414   8.135 -0.5338  0.0317  0.1427
  120MOL0     C16468   9.789  10.885   8.475 -0.4216  0.6938  0.4370
  120MOL0     C16469   9.696  10.896   8.576 -0.0615  0.0658 -0.8273
  120MOL0     O16470   9.562  10.731   8.816 -0.0292  0.0440  0.4782
  120MOL0     C16471   9.232  10.852   8.769  0.1946  0.2563  0.5378
  120MOL0     C16472   9.105  10.852   8.832  0.0693 -0.0323 -0.0623
  120MOL0     N16473   8.510  10.417   9.339 -0.1237 -0.0920 -0.0013
  120MOL0     N16474   8.410  10.352   9.390  0.3251  0.2092 -0.3035
  120MOL0     C16475   7.678   9.429   9.709  1.1222 -0.1921 -0.3939
  120MOL0     C16476   7.665   9.313   9.794  0.1511 -0.5624  0.5801
  120MOL0     C16477   7.666   9.097  10.191 -0.2412  0.1669 -0.7337
  120MOL0     C16478   7.761   8.991  10.173  0.3017  1.4033  1.0679
  120MOL0     C16479   7.762   8.873  10.262 -0.4292 -0.1524  0.5115
  120MOL0     C16480   7.670   8.866  10.361  0.4221 -0.1086  0.6090
  120MOL0     O16481   7.688   8.764  10.457  0.2429 -0.2599  0.7563
  120MOL0     C16482   7.580   8.683  10.501 -0.3656  0.4564  0.9262
  120MOL0     C16483   7.488   8.635  10.391  0.0019 -0.6112 -0.3762
  120MOL0     C16484   7.535   8.526  10.303 -1.0552  0.0707  0.3255
  120MOL0     C16485   7.422   8.490  10.205 -0.2739  0.3883 -0.1930
  120MOL0     C16486   7.458   8.499  10.056 -0.1896 -0.2486  0.3009
  120MOL0     C16487   7.471   8.509   9.938  1.0434  0.0542  0.1213
  120MOL0     C16488   7.574   8.975  10.376  1.0882 -0.4327  0.7275
  120MOL0     C16489   7.573   9.087  10.294 -0.2038  0.1991  0.4641
  120MOL0     C16490   7.468   9.196  10.326 -0.2446  0.3333 -0.3059
  120MOL0     H16491   7.928   9.375   9.984  0.4767 -1.9305  0.3030
  120MOL0     H16492   7.965   9.557   9.818 -0.5013  0.4083  0.9031
  120MOL0     H16493   7.968   9.616   9.532 -0.0050  1.3483 -1.2059
  120MOL0     H16494   7.960   9.722   9.681  2.8077  0.2823 -1.2585
  120MOL0     H16495   8.006   9.840   9.462  0.5003  0.0464  0.6187
  120MOL0     H16496   7.838   9.811   9.411 -1.1597  1.9340  0.3409
  120MOL0     H16497   7.764   9.916   9.626  0.6597 -0.1909  1.0356
  120MOL0     H16498   7.918   9.959   9.663 -2.1153 -1.3778  0.6395
  120MOL0     H16499   7.770  10.044   9.415  0.0516 -0.6483  0.8883
  120MOL0     H16500   7.777  10.125   9.577  0.3107  2.0714 -0.2956
  120MOL0     H16501   8.012  10.073   9.389 -0.8844 -1.9180  1.1738
  120MOL0     H16502   8.027  10.139   9.553 -0.9875 -0.0481  0.3956
  120MOL0     H16503   7.843  10.283   9.347 -2.0528 -3.6006  2.1276
  120MOL0     H16504   7.896  10.331   9.508 -0.4260 -2.8010  1.6523
  120MOL0     H16505   8.025  10.419   9.284 -0.5535 -0.0468  1.4875
  120MOL0     H16506   8.086  10.267   9.267 -2.8238  0.2278 -1.8208
  120MOL0     H16507   8.135  10.467   9.491 -1.0590 -0.4698  0.3530
  120MOL0     H16508   8.185  10.300   9.514  0.4847  0.1178 -0.3129
  120MOL0     H16509   8.253  10.607   9.273 -2.1333 -2.2156 -0.0391
  120MOL0     H16510   8.533  10.706   9.254 -0.7549 -0.9525  2.1890
  120MOL0     H16511   8.438  10.659   9.112 -1.7825 -0.9905  1.6808
  120MOL0     H16512   8.693  10.515   9.207 -3.8916  0.0644  3.2561
  120MOL0     H16513   8.615  10.490   9.064 -0.8146 -0.4712  0.8295
  120MOL0     H16514   8.680  10.745   9.001  0.3021  0.6269 -0.5792
  120MOL0     H16515   8.746  10.757   9.163 -3.5484  1.8615 -1.9921
  120MOL0     H16516   8.928  10.620   9.117  1.5076 -2.3477 -0.5954
  120MOL0     H16517   8.862  10.564   8.964 -1.4593  1.4169 -1.0180
  120MOL0     H16518   9.120  10.553   8.978 -1.9390  1.5458  0.5182
  120MOL0     H16519   9.427  10.569   9.038 -1.7148  0.6050  0.9050
  120MOL0     H16520   9.451  10.534   8.863  0.4364 -0.4777 -0.0370
  120MOL0     H16521   9.317  10.460   8.976  1.4233  0.2884  2.2098
  120MOL0     H16522   9.451  10.717   8.400  0.3234 -0.6274 -1.9363
  120MOL0     H16523   9.649  10.675   8.261  2.7083  1.0068  0.2230
  120MOL0     H16524  10.004  10.755   8.415 -0.1935 -0.9046  0.6213
  120MOL0     H16525   9.978  10.630   8.278  1.0174  1.2866 -0.5165
  120MOL0     H16526  10.191  10.709   8.251 -1.4503 -0.7189 -0.4234
  120MOL0     H16527  10.110  10.788   8.124  2.7946 -1.9642 -0.7281
  120MOL0     H16528  10.269  10.925   8.255  0.7799  0.9403  1.7517
  120MOL0     H16529  10.194  10.918   8.402 -0.1520  0.4320  0.1347
  120MOL0     H16530   9.981  11.024   8.265  0.6113  0.5580 -0.3002
  120MOL0     H16531  10.100  11.065   8.146  2.1069 -1.5170 -1.0528
  120MOL0     H16532  10.064  11.244   8.299  5.4811  3.0988 -2.1163
  120MOL0     H16533  10.104  11.151   8.449  1.8950  3.6377  0.5595
  120MOL0     H16534  10.298  11.186   8.214  1.0353 -0.4028  0.3780
  120MOL0     H16535  10.336  11.145   8.377 -1.9588 -0.0545  0.7182
  120MOL0     H16536  10.282  11.362   8.466  2.0328 -2.4204 -0.3796
  120MOL0     H16537  10.192  11.400   8.321 -0.4396  1.6272  2.5003
  120MOL0     H16538  10.486  11.366   8.373  2.5802  0.7869 -1.8844
  120MOL0     H16539  10.411  11.519   8.352 -1.0070  0.7014 -2.4643
  120MOL0     H16540   9.883  10.934   8.497  0.7357 -1.5370  0.7972
  120MOL0     H16541   9.702  10.958   8.665 -1.0344 -1.3157  0.2475
  120MOL0     H16542   9.262  10.936   8.708 -0.8793 -0.7421 -1.4815
  120MOL0     H16543   9.033  10.930   8.808 -1.6673 -1.4741  0.2265
  120MOL0     H16544   7.593   9.458   9.648 -0.3181 -1.3438  0.9748
  120MOL0     H16545   7.566   9.268   9.794 -0.3115  0.4371  1.4424
  120MOL0     H16546   7.832   8.988  10.092 -2.2765  0.9138 -1.3314
  120MOL0     H16547   7.829   8.789  10.251 -0.6869 -0.2350 -0.5254
  120MOL0     H16548   7.607   8.594  10.561  0.7635  0.5207  0.5320
  120MOL0     H16549   7.523   8.750  10.566 -1.2287  0.6446 -0.0022
  120MOL0     H16550   7.446   8.716  10.331  0.9376  0.2818  0.1363
  120MOL0     H16551   7.395   8.597  10.434 -0.4580 -0.2013 -0.9939
  120MOL0     H16552   7.621   8.562  10.245  0.2188 -2.7876  0.2677
  120MOL0     H16553   7.567   8.440  10.362  1.7781  0.9374  0.2044
  120MOL0     H16554   7.335   8.556  10.220 -1.0141  0.0698 -2.6329
  120MOL0     H16555   7.398   8.384  10.217  2.9409 -0.4567 -0.4887
  120MOL0     H16556   7.502   8.520   9.836  2.3971 -0.0039  0.5114
  120MOL0     H16557   7.502   8.966  10.456  0.7197 -1.2879  0.3198
  120MOL0     H16558   7.514   9.281  10.377 -1.0912  1.1492 -0.8604
  120MOL0     H16559   7.434   9.233  10.229  0.7838  0.6171 -0.5752
  120MOL0     H16560   7.385   9.153  10.382 -0.9756 -0.2197 -1.7515
  121MOL0     O16561   3.027  10.274   1.983 -0.1476 -0.1334  0.1826
  121MOL0     C16562   3.140  10.280   2.035  0.0545 -0.2562  0.4020
  121MOL0     O16563   3.186  10.392   2.106 -0.4716 -0.0648  0.1781
  121MOL0     C16564   3.102  10.494   2.127  0.4718  0.0529  0.6066
  121MOL0     C16565   3.009  10.550   2.031 -0.8474  0.0579 -0.2362
  121MOL0     C16566   2.944  10.673   2.053  0.5172  0.4713  0.4676
  121MOL0     C16567   2.952  10.739   2.176  0.1829  0.6367 -0.8216
  121MOL0     O16568   2.883  10.848   2.211 -0.2118 -0.4865 -0.3393
  121MOL0     C16569   2.784  10.902   2.127  0.2234  0.2368 -0.6205
  121MOL0     C16570   2.691  10.999   2.206  0.0041  0.5000 -1.0325
  121MOL0     C16571   2.767  11.118   2.272 -0.5823 -0.0080  0.5138
  121MOL0     C16572   2.679  11.223   2.325  0.5253 -0.5854 -0.6673
  121MOL0     C16573   2.762  11.333   2.385 -0.5844 -0.0796 -0.0288
  121MOL0     C16574   2.660  11.450   2.444 -0.2067 -0.8038  0.3353
  121MOL0     C16575   2.736  11.535   2.556  0.9995  0.2484  0.2894
  121MOL0     C16576   2.809  11.646   2.494 -0.0011  0.0122 -0.2300
  121MOL0     N16577   2.920  11.683   2.584  0.1508 -0.8541 -0.1366
  121MOL0     C16578   2.906  11.750   2.700  0.0554 -0.5234  0.2513
  121MOL0     C16579   3.020  11.726   2.768 -0.4252  0.0896 -0.6226
  121MOL0     C16580   3.053  11.784   2.906  0.4786  0.0821  0.4495
  121MOL0     C16581   3.153  11.902   2.903 -0.0413  0.4118 -0.5716
  121MOL0     C16582   3.168  11.943   3.056  0.1556 -0.4020 -0.3846
  121MOL0     C16583   3.301  11.992   3.112 -0.6636 -0.2216  0.1801
  121MOL0     O16584   3.308  11.994   3.255 -0.2953  0.1624 -0.5926
  121MOL0     C16585   3.275  12.116   3.315  0.3471 -0.2556 -0.4536
  121MOL0     C16586   3.210  12.225   3.253 -0.6899 -0.2114 -0.1355
  121MOL0     C16587   3.171  12.342   3.329 -0.5238  1.1655 -0.0581
  121MOL0     C16588   3.096  12.449   3.255  0.3612 -0.7260 -0.0345
  121MOL0     C16589   3.205  12.349   3.469  0.1289 -0.7088 -0.3779
  121MOL0     C16590   3.161  12.466   3.550  0.5648 -0.0173 -0.1064
  121MOL0     O16591   3.074  12.440   3.656  0.4163  0.8184  0.2559
  121MOL0     C16592   3.002  12.536   3.728  0.1832  0.4053  0.0546
  121MOL0     C16593   3.045  12.669   3.749 -0.0821 -0.4531  0.2331
  121MOL0     C16594   2.961  12.753   3.830  0.0192  0.1480 -0.5545
  121MOL0     C16595   2.834  12.717   3.889 -0.6654 -0.6546  0.6696
  121MOL0     O16596   2.751  12.787   3.977  0.3584  0.7605  0.2351
  121MOL0     C16597   2.791  12.911   4.041 -1.0263 -0.2067  0.3800
  121MOL0     C16598   2.873  12.878   4.162  0.2470  0.1382  0.3722
  121MOL0     C16599   2.928  12.998   4.227 -0.4269  0.3949 -0.4484
  121MOL0     C16600   2.815  13.090   4.281 -0.4423  0.1532 -0.5457
  121MOL0     C16601   2.859  13.197   4.383  0.2020  0.0262  0.1561
  121MOL0     C16602   2.865  13.147   4.526  0.2007  1.0318 -0.2441
  121MOL0     C16603   2.912  13.259   4.624  0.5747 -1.1692  0.6896
  121MOL0     C16604   2.924  13.220   4.773  0.1478  0.5110 -0.6670
  121MOL0    Cl16605   2.779  13.151   4.868  0.5059 -0.4291  0.3432
  121MOL0     C16606   2.796  12.586   3.858 -0.2073  0.1851 -0.0631
  121MOL0     C16607   2.881  12.500   3.780  0.4986 -0.1071 -0.2179
  121MOL0     O16608   3.189  12.579   3.510  0.0698  0.4412  0.2516
  121MOL0     C16609   3.276  12.245   3.530 -0.1848 -0.4754  0.2102
  121MOL0     C16610   3.296  12.128   3.452 -0.5011  0.3827  0.6228
  121MOL0     N16611   3.112  11.657   2.692 -0.5111 -0.0821 -0.6249
  121MOL0     N16612   3.045  11.636   2.577  0.3679 -0.1230  0.0977
  121MOL0     C16613   3.039  10.682   2.269 -0.3352  0.1394 -0.3210
  121MOL0     C16614   3.114  10.563   2.249  0.1869 -0.0595 -0.1001
  121MOL0     C16615   3.236  10.174   2.016 -0.2233 -0.0897  0.2666
  121MOL0     C16616   3.232  10.106   1.893  0.2886  0.1054  0.8162
  121MOL0     C16617   3.325  10.009   1.861  0.3112  0.1049  0.3380
  121MOL0     C16618   3.422   9.979   1.955  0.6538  0.7138 -0.4666
  121MOL0     O16619   3.508   9.882   1.929 -0.2234  0.6846  0.5407
  121MOL0     C16620   3.534   9.828   1.794  0.4251 -0.1225 -0.0178
  121MOL0     C16621   3.656   9.740   1.816  0.2746  0.2828  1.0464
  121MOL0     C16622   3.732   9.723   1.686 -0.9527 -0.1223  0.6272
  121MOL0     C16623   3.876   9.651   1.703 -0.1359 -0.2138 -0.1206
  121MOL0     C16624   3.909   9.574   1.586 -0.0223  0.0870  0.3897
  121MOL0     C16625   3.939   9.505   1.491 -0.0928  0.0606  0.7281
  121MOL0     C16626   3.429  10.042   2.075 -0.1071  0.1187 -0.1151
  121MOL0     C16627   3.337  10.148   2.108  0.3268 -0.0039  1.1469
  121MOL0     C16628   3.353  10.226   2.241  0.0040 -0.4620 -0.5158
  121MOL0     H16629   3.012  10.522   1.927  0.5651  0.2880 -0.2835
  121MOL0     H16630   2.876  10.712   1.978 -0.2110  2.8048  2.2279
  121MOL0     H16631   2.720  10.822   2.090  1.9524 -1.3326 -0.3734
  121MOL0     H16632   2.832  10.958   2.047  0.5775 -0.6687 -1.0519
  121MOL0     H16633   2.617  11.031   2.131 -0.7883 -1.0724 -0.9701
  121MOL0     H16634   2.635  10.949   2.286  1.1558 -0.8277 -1.0242
  121MOL0     H16635   2.822  11.067   2.351 -0.7917 -2.2771 -0.7100
  121MOL0     H16636   2.840  11.156   2.200  0.3881 -0.3995  1.2740
  121MOL0     H16637   2.613  11.260   2.246 -1.8947 -0.7753  1.1387
  121MOL0     H16638   2.605  11.178   2.392  1.5888 -2.2201 -0.5288
  121MOL0     H16639   2.845  11.361   2.320 -1.2749  0.5481 -0.6500
  121MOL0     H16640   2.814  11.292   2.473  1.3965  4.2836  1.0772
  121MOL0     H16641   2.625  11.517   2.365  1.7966 -1.3580 -1.0998
  121MOL0     H16642   2.573  11.402   2.490 -0.3949  1.2839  2.3631
  121MOL0     H16643   2.802  11.477   2.621  0.7369 -0.1901  0.1698
  121MOL0     H16644   2.661  11.568   2.628  0.2476 -0.9263  0.0851
  121MOL0     H16645   2.843  11.618   2.394 -0.5146  1.7679 -0.9490
  121MOL0     H16646   2.737  11.728   2.484  0.9927  0.9454  0.0880
  121MOL0     H16647   2.822  11.804   2.742  0.7362  2.5343 -1.9790
  121MOL0     H16648   3.100  11.704   2.964  0.7235  0.4955  0.8267
  121MOL0     H16649   2.959  11.814   2.955 -1.8242 -0.8924 -3.0021
  121MOL0     H16650   3.242  11.856   2.860  0.3435  0.5512  0.0579
  121MOL0     H16651   3.119  11.986   2.841 -0.1083  1.0280  0.2803
  121MOL0     H16652   3.090  12.017   3.079  1.3490  0.1323  2.3015
  121MOL0     H16653   3.147  11.855   3.117  0.3532 -0.8666 -0.9719
  121MOL0     H16654   3.378  11.930   3.065 -1.2633 -0.7080 -0.1822
  121MOL0     H16655   3.315  12.089   3.063  3.3266 -1.8489 -2.3796
  121MOL0     H16656   3.180  12.230   3.149  2.0091  0.5591 -0.9573
  121MOL0     H16657   3.001  12.413   3.213 -1.2092  2.2170  0.6774
  121MOL0     H16658   3.145  12.491   3.166 -1.9868  0.3778 -0.9003
  121MOL0     H16659   3.063  12.531   3.320 -3.8304  0.1590 -2.8854
  121MOL0     H16660   3.145  12.688   3.713  0.1363 -3.9698 -1.4526
  121MOL0     H16661   3.005  12.851   3.849  0.7990 -0.0489 -1.2969
  121MOL0     H16662   2.849  12.981   3.979  0.6844 -0.4629  1.6323
  121MOL0     H16663   2.696  12.958   4.068 -2.4501 -0.3142 -3.6977
  121MOL0     H16664   2.804  12.836   4.235  2.3250 -3.1474  0.6442
  121MOL0     H16665   2.954  12.806   4.147 -1.9033 -2.5600  0.8475
  121MOL0     H16666   2.986  13.061   4.158  0.3365 -1.3966 -1.5174
  121MOL0     H16667   2.995  12.965   4.307 -0.0398 -2.4294 -1.8327
  121MOL0     H16668   2.733  13.030   4.321  0.2294 -2.9174 -3.3410
  121MOL0     H16669   2.773  13.144   4.195 -1.0564  1.0482  0.2888
  121MOL0     H16670   2.954  13.235   4.344  1.2074 -2.0435  0.4575
  121MOL0     H16671   2.786  13.277   4.368  0.6522  0.5639  0.7430
  121MOL0     H16672   2.920  13.053   4.534 -3.7528 -1.7031 -2.0655
  121MOL0     H16673   2.761  13.130   4.556  1.1835 -1.7301  2.0661
  121MOL0     H16674   2.827  13.328   4.633 -1.2894 -3.4605  1.5831
  121MOL0     H16675   2.998  13.320   4.595 -1.5378  0.6322 -2.4581
  121MOL0     H16676   2.955  13.317   4.812 -1.1330  1.0021 -0.8193
  121MOL0     H16677   3.012  13.155   4.778  1.1851  1.7921 -1.7460
  121MOL0     H16678   2.699  12.551   3.891  0.4818 -1.3988  0.4167
  121MOL0     H16679   2.842  12.400   3.760 -1.4003  0.2711  1.2363
  121MOL0     H16680   3.307  12.244   3.634  1.4361  3.7623 -0.0211
  121MOL0     H16681   3.336  12.034   3.490 -0.8321 -0.7737 -1.7366
  121MOL0     H16682   3.053  10.732   2.364 -2.0589 -1.1201  0.6700
  121MOL0     H16683   3.165  10.525   2.336 -1.0328  1.7309  1.4761
  121MOL0     H16684   3.151  10.124   1.822 -1.2533 -0.3829  2.3772
  121MOL0     H16685   3.321   9.953   1.768  2.1218 -2.5189  1.6994
  121MOL0     H16686   3.452   9.771   1.749 -0.8359  0.8873  0.9064
  121MOL0     H16687   3.559   9.909   1.726 -0.8270 -0.7518 -1.2684
  121MOL0     H16688   3.630   9.640   1.851  1.7096 -2.0442 -3.6579
  121MOL0     H16689   3.720   9.794   1.886  2.3347 -1.8484  0.9251
  121MOL0     H16690   3.674   9.658   1.619 -3.3257  3.8259 -1.5520
  121MOL0     H16691   3.750   9.812   1.624  0.3816 -1.8735 -1.6889
  121MOL0     H16692   3.870   9.578   1.784 -1.7580 -1.7090 -1.5235
  121MOL0     H16693   3.964   9.715   1.720 -0.2282 -0.3469  0.9239
  121MOL0     H16694   3.964   9.445   1.406  0.5420 -0.7858  1.4909
  121MOL0     H16695   3.504  10.016   2.149  0.1463  2.3241  0.4635
  121MOL0     H16696   3.405  10.158   2.309  2.5477 -2.0122 -3.7544
  121MOL0     H16697   3.403  10.323   2.237 -0.3093 -0.2798 -0.1027
  121MOL0     H16698   3.254  10.238   2.288  0.4374 -3.8080  1.6501
  122MOL0     O16699   2.269  10.752   2.044 -1.1393 -0.1451  0.6204
  122MOL0     C16700   2.382  10.707   2.001 -0.9049 -0.0640  0.1827
  122MOL0     O16701   2.438  10.734   1.872  0.4706  0.0823  0.0229
  122MOL0     C16702   2.402  10.853   1.817 -0.6159 -0.5176  0.6124
  122MOL0     C16703   2.428  10.973   1.881  0.2351  0.3120  0.5588
  122MOL0     C16704   2.415  11.098   1.819 -0.0371  0.6802 -0.9769
  122MOL0     C16705   2.366  11.103   1.690  0.3494  0.4791  0.6652
  122MOL0     O16706   2.364  11.229   1.637  0.2847 -0.1456 -0.5652
  122MOL0     C16707   2.295  11.263   1.518  0.4991 -0.0404 -0.6053
  122MOL0     C16708   2.315  11.411   1.473 -0.8097  0.3777  0.2750
  122MOL0     C16709   2.447  11.471   1.513  0.0891 -0.0459 -0.2124
  122MOL0     C16710   2.455  11.619   1.474 -0.3277 -0.5798  0.7423
  122MOL0     C16711   2.568  11.705   1.540  0.8652 -0.7624 -0.3320
  122MOL0     C16712   2.711  11.676   1.489 -0.0449 -0.0281  0.6068
  122MOL0     C16713   2.808  11.788   1.543  0.4981  0.4762  0.4276
  122MOL0     C16714   2.833  11.766   1.688 -0.5748 -0.2160 -0.8537
  122MOL0     N16715   2.903  11.894   1.724 -0.0584  0.3915 -1.0143
  122MOL0     C16716   2.841  12.017   1.736 -0.0118 -0.9013  0.5883
  122MOL0     C16717   2.940  12.098   1.770 -0.6258  0.0610  0.0034
  122MOL0     C16718   2.912  12.243   1.792 -0.7457  0.1318 -0.8145
  122MOL0     C16719   3.014  12.349   1.733  0.7357  0.5587  0.1945
  122MOL0     C16720   3.002  12.341   1.584 -1.0228 -0.3597 -0.2581
  122MOL0     C16721   3.109  12.239   1.526 -0.7021  0.7305 -1.4303
  122MOL0     O16722   3.250  12.266   1.559 -0.1113 -0.0942 -0.3329
  122MOL0     C16723   3.315  12.376   1.508  0.6671  0.9187 -0.2031
  122MOL0     C16724   3.434  12.412   1.566 -0.2473 -0.3374  0.0422
  122MOL0     C16725   3.512  12.524   1.526  0.0479  0.6359  0.4285
  122MOL0     C16726   3.651  12.550   1.591  0.4787 -0.1849 -0.0082
  122MOL0     C16727   3.461  12.606   1.425  0.8079 -0.4272  0.7708
  122MOL0     C16728   3.529  12.722   1.376 -0.2923 -0.3564 -0.3703
  122MOL0     O16729   3.533  12.756   1.240  0.1504 -0.9112  0.3064
  122MOL0     C16730   3.603  12.867   1.209  0.4990 -0.5672  0.3560
  122MOL0     C16731   3.539  12.982   1.171  0.0571  0.1303 -0.2810
  122MOL0     C16732   3.619  13.091   1.125 -1.0146  0.2357  0.6292
  122MOL0     C16733   3.763  13.084   1.147 -0.3985 -0.1399 -0.5678
  122MOL0     O16734   3.845  13.192   1.124 -0.0008  0.3098 -0.2843
  122MOL0     C16735   3.866  13.263   1.247 -0.0680 -0.0718  0.2453
  122MOL0     C16736   3.916  13.401   1.218  0.8884 -0.0865  0.0417
  122MOL0     C16737   4.047  13.407   1.143 -0.0473 -0.6976  0.0690
  122MOL0     C16738   4.159  13.339   1.219 -0.1882  0.5360  0.2090
  122MOL0     C16739   4.289  13.375   1.149 -0.7660  0.1549  0.1084
  122MOL0     C16740   4.403  13.322   1.236  0.0823 -0.0434  0.0256
  122MOL0     C16741   4.546  13.352   1.181  1.2145  0.6917 -0.4241
  122MOL0     C16742   4.657  13.287   1.254  0.6961 -0.1453  0.0715
  122MOL0    Cl16743   4.673  13.371   1.410  0.3974 -0.3422  0.2663
  122MOL0     C16744   3.824  12.969   1.211 -0.2272 -0.8757 -0.7760
  122MOL0     C16745   3.745  12.857   1.235  0.5564 -0.5937  0.0380
  122MOL0     O16746   3.581  12.794   1.461  0.5989  0.2443  0.1904
  122MOL0     C16747   3.332  12.574   1.364 -0.3771  0.8924  0.2531
  122MOL0     C16748   3.265  12.456   1.406 -0.9298  0.6080 -0.1236
  122MOL0     N16749   3.061  12.030   1.785  0.0455  0.2656  0.4429
  122MOL0     N16750   3.032  11.903   1.759  0.1184 -1.0735 -0.4715
  122MOL0     C16751   2.334  10.989   1.618  1.1917 -0.0523 -0.7710
  122MOL0     C16752   2.364  10.864   1.683 -0.1628 -0.0989  0.1326
  122MOL0     C16753   2.455  10.605   2.079  0.4400  0.4585  0.8427
  122MOL0     C16754   2.593  10.574   2.048  0.0114 -0.3456  0.6229
  122MOL0     C16755   2.670  10.483   2.120  0.0939 -0.5325  0.4708
  122MOL0     C16756   2.616  10.413   2.232 -0.3355  0.4916 -0.8064
  122MOL0     O16757   2.683  10.331   2.322 -0.3406  0.0461  0.1281
  122MOL0     C16758   2.808  10.276   2.296 -0.8435  0.2517  0.6503
  122MOL0     C16759   2.818  10.164   2.202  0.0276 -0.0713 -1.1727
  122MOL0     C16760   2.712  10.048   2.233 -0.0835 -0.0249  0.3356
  122MOL0     C16761   2.740   9.942   2.140 -0.1068  0.5947 -0.7888
  122MOL0     C16762   2.824   9.842   2.198 -0.0513  0.3304  0.8887
  122MOL0     C16763   2.870   9.741   2.246  0.1496  0.1064 -0.4139
  122MOL0     C16764   2.485  10.430   2.261 -0.2679 -0.9183  0.4255
  122MOL0     C16765   2.404  10.529   2.187  0.1999  0.9503  0.3787
  122MOL0     C16766   2.254  10.522   2.217 -0.1974  0.7682 -0.3696
  122MOL0     H16767   2.469  10.967   1.982 -1.0420 -4.6340  1.0319
  122MOL0     H16768   2.434  11.187   1.879  1.8516  1.1776 -2.2261
  122MOL0     H16769   2.189  11.237   1.522  1.1796 -4.1451 -3.1426
  122MOL0     H16770   2.335  11.209   1.432 -0.0336  2.8425 -2.8420
  122MOL0     H16771   2.312  11.429   1.365 -1.9481  1.8009  0.5103
  122MOL0     H16772   2.238  11.470   1.524  0.0727  1.6460  0.1950
  122MOL0     H16773   2.475  11.461   1.618 -1.4262 -1.4912  0.1000
  122MOL0     H16774   2.520  11.422   1.449  0.8037  0.4193  0.2358
  122MOL0     H16775   2.457  11.632   1.365  0.0436  0.7300  0.8826
  122MOL0     H16776   2.367  11.668   1.517 -0.9978 -1.1213  0.0226
  122MOL0     H16777   2.566  11.691   1.648  1.5040  1.7031  0.0437
  122MOL0     H16778   2.546  11.811   1.526  0.5928 -0.7499  0.1954
  122MOL0     H16779   2.744  11.574   1.510 -1.6484 -0.6142  0.4329
  122MOL0     H16780   2.704  11.682   1.380 -2.2235  1.2577  0.7482
  122MOL0     H16781   2.773  11.890   1.526  2.0601  1.1064  0.8519
  122MOL0     H16782   2.897  11.787   1.478 -1.5270 -0.5928 -2.5474
  122MOL0     H16783   2.742  11.757   1.747 -0.4388  2.4752 -0.0800
  122MOL0     H16784   2.896  11.678   1.700  2.1947  1.6154 -0.9450
  122MOL0     H16785   2.743  12.055   1.712 -0.3641 -1.8720  0.4356
  122MOL0     H16786   2.926  12.251   1.900 -0.2438 -0.9252 -0.7948
  122MOL0     H16787   2.808  12.267   1.767 -0.5077  0.6008 -1.3873
  122MOL0     H16788   2.984  12.439   1.788 -3.9624 -1.7143  1.8359
  122MOL0     H16789   3.115  12.314   1.759  0.2990 -1.9194 -1.1458
  122MOL0     H16790   2.898  12.316   1.563 -1.2424  0.7841 -0.5575
  122MOL0     H16791   3.018  12.436   1.533  0.2062 -0.2756  0.2575
  122MOL0     H16792   3.088  12.139   1.563 -0.2511  0.6493 -1.3848
  122MOL0     H16793   3.096  12.232   1.418  0.1991 -2.1922 -1.4341
  122MOL0     H16794   3.469  12.340   1.639  1.3250  0.5864  0.2394
  122MOL0     H16795   3.721  12.557   1.507 -0.2000 -1.5348 -0.7232
  122MOL0     H16796   3.672  12.469   1.662 -1.6789  0.0796  0.9870
  122MOL0     H16797   3.662  12.646   1.641 -0.2486  1.0724 -2.1464
  122MOL0     H16798   3.434  13.008   1.172  0.2927  1.1330 -0.0678
  122MOL0     H16799   3.560  13.170   1.080 -1.6726 -1.3246 -1.4261
  122MOL0     H16800   3.774  13.252   1.305  1.1314 -2.3674  1.8962
  122MOL0     H16801   3.931  13.211   1.318 -1.7121 -1.2367  0.9652
  122MOL0     H16802   3.844  13.462   1.161  2.3870  2.4587  0.7023
  122MOL0     H16803   3.941  13.447   1.314  1.2912  0.3700 -0.2790
  122MOL0     H16804   4.066  13.515   1.138 -0.0855 -0.5049  2.6677
  122MOL0     H16805   4.043  13.358   1.045 -0.7079  0.0204 -0.2702
  122MOL0     H16806   4.149  13.230   1.225 -0.0338  0.5017 -0.0965
  122MOL0     H16807   4.167  13.384   1.318  1.0329  0.5893  0.1007
  122MOL0     H16808   4.302  13.323   1.053 -2.8548 -2.3801  1.0703
  122MOL0     H16809   4.296  13.482   1.131 -0.9641 -0.0981 -1.7180
  122MOL0     H16810   4.389  13.213   1.242 -1.9639  0.2442  2.0633
  122MOL0     H16811   4.402  13.365   1.337  2.5871  0.1425  0.0438
  122MOL0     H16812   4.553  13.461   1.189 -0.5083  1.0327 -2.8003
  122MOL0     H16813   4.551  13.333   1.074  1.9307 -0.3198 -0.2224
  122MOL0     H16814   4.746  13.289   1.191  0.3990 -0.3041 -0.3589
  122MOL0     H16815   4.630  13.184   1.280  2.5343 -0.5321  0.5618
  122MOL0     H16816   3.932  12.958   1.223 -0.1096 -3.0361 -3.1357
  122MOL0     H16817   3.778  12.764   1.282  0.2930 -1.1476 -0.8585
  122MOL0     H16818   3.286  12.628   1.281  3.1013  0.2362 -2.3325
  122MOL0     H16819   3.166  12.435   1.366 -1.1343  4.5870 -2.1993
  122MOL0     H16820   2.286  10.987   1.521  1.2408  2.1250 -0.8719
  122MOL0     H16821   2.351  10.774   1.624  0.9778  0.3253 -0.7903
  122MOL0     H16822   2.645  10.618   1.963 -2.3457  0.6166 -0.4069
  122MOL0     H16823   2.772  10.468   2.087  0.5164  2.9765 -0.2165
  122MOL0     H16824   2.865  10.361   2.258 -0.3481 -0.4340 -0.1729
  122MOL0     H16825   2.862  10.243   2.386  2.8015 -4.5106 -2.7671
  122MOL0     H16826   2.920  10.127   2.197 -0.5286 -1.4787 -3.5907
  122MOL0     H16827   2.796  10.207   2.104  1.7632 -1.0658 -2.0374
  122MOL0     H16828   2.698  10.024   2.339 -0.5725  1.6244  0.6676
  122MOL0     H16829   2.615  10.082   2.197  0.0763 -1.2845 -1.3996
  122MOL0     H16830   2.767   9.975   2.039  2.4713  0.8730 -0.0875
  122MOL0     H16831   2.651   9.882   2.121  2.0049 -1.9413 -3.5657
  122MOL0     H16832   2.901   9.643   2.278 -2.2366 -0.3619  0.6543
  122MOL0     H16833   2.438  10.372   2.339 -0.7835 -1.0697  0.0062
  122MOL0     H16834   2.202  10.525   2.121  3.5896 -1.5269 -2.7526
  122MOL0     H16835   2.218  10.434   2.270 -0.0641  0.6594 -0.4590
  122MOL0     H16836   2.224  10.607   2.280 -1.5004 -1.9452  2.9427
  123MOL0     O16837   7.004   1.529   5.271  0.1501 -0.1771 -0.0588
  123MOL0     C16838   6.950   1.638   5.300  0.2136 -0.2388  0.2017
  123MOL0     O16839   6.832   1.693   5.260  0.0305 -0.3807 -0.5546
  123MOL0     C16840   6.789   1.649   5.137 -0.1375 -0.0487  0.9650
  123MOL0     C16841   6.883   1.604   5.033 -0.9487 -0.7418 -0.8857
  123MOL0     C16842   6.826   1.557   4.917 -0.7113  0.2532 -0.6915
  123MOL0     C16843   6.688   1.547   4.895 -0.1030 -0.0393 -0.3007
  123MOL0     O16844   6.657   1.491   4.774  0.5899  0.4807  0.4892
  123MOL0     C16845   6.522   1.444   4.742  0.0110 -0.2713  0.3608
  123MOL0     C16846   6.507   1.409   4.594  0.3618 -0.0564 -0.3876
  123MOL0     C16847   6.439   1.525   4.515  0.1933  0.0293 -0.4543
  123MOL0     C16848   6.399   1.491   4.372  0.0201 -1.0870 -0.1797
  123MOL0     C16849   6.345   1.605   4.296 -0.0569 -0.3865  0.8499
  123MOL0     C16850   6.387   1.599   4.143 -0.0664 -0.4651 -0.4516
  123MOL0     C16851   6.292   1.695   4.067 -1.3702  0.3249  0.4726
  123MOL0     C16852   6.320   1.703   3.919 -0.2758  0.0840 -0.1935
  123MOL0     N16853   6.268   1.821   3.853 -0.6476 -0.5637 -0.3037
  123MOL0     C16854   6.348   1.936   3.847  0.5392 -0.4438  0.3964
  123MOL0     C16855   6.256   2.025   3.816  0.8492 -0.5456 -0.1234
  123MOL0     C16856   6.266   2.172   3.830  0.2354  0.1380 -0.3681
  123MOL0     C16857   6.258   2.218   3.975  0.0554 -0.2794  0.0827
  123MOL0     C16858   6.119   2.211   4.048 -0.1239 -0.3823 -0.4710
  123MOL0     C16859   6.124   2.098   4.164  0.4280 -0.9207  0.1903
  123MOL0     O16860   6.047   2.138   4.284 -0.3116  0.5350 -0.7272
  123MOL0     C16861   6.030   2.045   4.384  0.7348  0.5129 -0.2428
  123MOL0     C16862   5.949   2.083   4.487  0.0510  0.0199  0.8138
  123MOL0     C16863   5.927   2.002   4.606 -0.5586  0.0120  0.6508
  123MOL0     C16864   5.845   2.076   4.711 -0.2296 -0.1742 -1.3482
  123MOL0     C16865   5.995   1.879   4.616  0.2345  0.1000 -0.6064
  123MOL0     C16866   5.989   1.789   4.741 -0.4245 -0.6690  0.4724
  123MOL0     O16867   5.864   1.772   4.791  0.1361 -0.1420  0.2247
  123MOL0     C16868   5.858   1.718   4.921  1.5970 -0.2717 -0.0608
  123MOL0     C16869   5.881   1.802   5.028  0.0353  0.9303  0.1132
  123MOL0     C16870   5.875   1.746   5.161  0.4303  0.0459 -0.1894
  123MOL0     C16871   5.856   1.607   5.181 -0.2011 -0.6841 -0.2621
  123MOL0     O16872   5.872   1.554   5.310 -0.6160  0.1152  0.4273
  123MOL0     C16873   6.005   1.489   5.313  1.0224  0.3691  0.6209
  123MOL0     C16874   6.008   1.388   5.420  0.5025 -0.2617 -0.1369
  123MOL0     C16875   5.890   1.293   5.397 -0.4197 -0.2021  0.2739
  123MOL0     C16876   5.929   1.164   5.464  0.4746  0.2020 -0.9871
  123MOL0     C16877   5.919   1.167   5.620  0.7534 -0.7097 -0.5110
  123MOL0     C16878   6.029   1.083   5.687  0.3067  0.6989  0.9837
  123MOL0     C16879   6.045   1.085   5.833 -0.2494 -0.8343 -0.2246
  123MOL0     C16880   5.961   0.981   5.905  0.5230 -0.5859  0.3542
  123MOL0    Cl16881   6.008   0.811   5.864 -0.2625 -0.4226 -0.1544
  123MOL0     C16882   5.838   1.531   5.062  1.2019  0.1897  0.4722
  123MOL0     C16883   5.829   1.587   4.934 -0.2947 -0.5264 -0.8729
  123MOL0     O16884   6.097   1.741   4.787 -0.8106 -0.4875  0.0277
  123MOL0     C16885   6.082   1.839   4.513 -0.0113  0.2974 -0.0223
  123MOL0     C16886   6.095   1.915   4.394 -0.0585  0.3035 -0.2145
  123MOL0     N16887   6.134   1.973   3.776 -0.4318  1.1402  0.8148
  123MOL0     N16888   6.146   1.843   3.789  0.0623 -0.5213  0.2139
  123MOL0     C16889   6.605   1.605   4.988  0.0866  0.1724  0.2752
  123MOL0     C16890   6.652   1.642   5.110  0.3894  0.3789 -0.6722
  123MOL0     C16891   7.003   1.710   5.419 -0.0295  0.0135 -0.5434
  123MOL0     C16892   6.934   1.707   5.540  0.7721  0.2624 -0.5456
  123MOL0     C16893   6.994   1.764   5.647 -0.3790 -0.5839  0.0351
  123MOL0     C16894   7.116   1.830   5.643  0.0853  0.7107  1.4315
  123MOL0     O16895   7.181   1.876   5.751 -0.2853 -0.6220 -0.3574
  123MOL0     C16896   7.161   1.828   5.884  0.6465 -0.4696  0.3129
  123MOL0     C16897   7.239   1.931   5.974  0.2285  0.2594 -0.5997
  123MOL0     C16898   7.224   1.895   6.127 -0.3225 -0.4689  0.0368
  123MOL0     C16899   7.094   1.938   6.193 -0.7056  0.5583  0.1685
  123MOL0     C16900   7.062   1.873   6.319  0.2187  0.0724  0.4440
  123MOL0     C16901   7.037   1.818   6.424  0.5203 -0.5853  0.9410
  123MOL0     C16902   7.187   1.848   5.520 -0.2570 -0.4759  0.8811
  123MOL0     C16903   7.118   1.795   5.408 -0.6701 -0.1681  0.0469
  123MOL0     C16904   7.179   1.828   5.272  0.1328 -0.0974 -0.5419
  123MOL0     H16905   6.991   1.609   5.031 -0.8453 -0.2015  1.9818
  123MOL0     H16906   6.896   1.514   4.846 -0.3344 -2.3899  1.1405
  123MOL0     H16907   6.443   1.510   4.779 -0.3910 -0.0612 -0.8508
  123MOL0     H16908   6.495   1.358   4.804  0.8883 -1.8177 -1.3003
  123MOL0     H16909   6.610   1.396   4.559  1.1102  0.8324  1.3807
  123MOL0     H16910   6.456   1.316   4.567 -2.0288  1.2737 -0.7280
  123MOL0     H16911   6.349   1.557   4.568 -0.2864 -1.2781 -0.4542
  123MOL0     H16912   6.512   1.606   4.518 -0.7178  1.0620 -2.9611
  123MOL0     H16913   6.493   1.453   4.331  0.5444 -0.0832  0.0737
  123MOL0     H16914   6.335   1.403   4.366 -0.4045 -0.8781  1.0383
  123MOL0     H16915   6.375   1.698   4.344  1.1595 -0.4968  0.3445
  123MOL0     H16916   6.237   1.615   4.311  0.1153  1.5272  1.1119
  123MOL0     H16917   6.492   1.625   4.123  1.1241 -4.2544 -0.0279
  123MOL0     H16918   6.365   1.497   4.110  1.2553 -0.7069 -0.6470
  123MOL0     H16919   6.298   1.792   4.117 -0.7745  0.8734 -0.6363
  123MOL0     H16920   6.190   1.658   4.084 -1.9404  1.0182 -1.1938
  123MOL0     H16921   6.428   1.714   3.906  0.1174 -0.2547  2.3054
  123MOL0     H16922   6.280   1.617   3.864  3.2160 -0.1764 -2.6886
  123MOL0     H16923   6.447   1.951   3.888  1.6077 -2.3924 -1.3383
  123MOL0     H16924   6.195   2.222   3.764 -2.0678 -2.4960 -0.0841
  123MOL0     H16925   6.369   2.201   3.809 -0.4981  1.6752 -2.1917
  123MOL0     H16926   6.334   2.166   4.034 -0.3437 -0.2189  0.6646
  123MOL0     H16927   6.284   2.324   3.976 -0.5565 -0.1192 -0.5334
  123MOL0     H16928   6.110   2.312   4.090  2.6213  0.2611 -1.1540
  123MOL0     H16929   6.036   2.203   3.978  0.3661  1.4202 -1.3453
  123MOL0     H16930   6.072   2.010   4.125  0.5978 -1.4521  1.1458
  123MOL0     H16931   6.228   2.094   4.197  0.8418  1.0722 -0.7236
  123MOL0     H16932   5.893   2.175   4.477  2.7037  1.7681  1.1846
  123MOL0     H16933   5.905   2.080   4.803 -0.4816  2.0373 -1.2315
  123MOL0     H16934   5.742   2.041   4.723 -0.1002 -0.5562 -1.3429
  123MOL0     H16935   5.845   2.180   4.678  2.2688 -0.0686 -1.2554
  123MOL0     H16936   5.904   1.909   5.025 -0.4613  1.0190 -1.2753
  123MOL0     H16937   5.889   1.811   5.247  0.2126 -0.9639  0.6195
  123MOL0     H16938   6.023   1.452   5.211  0.2912 -0.0040  0.6250
  123MOL0     H16939   6.085   1.559   5.337  1.2874  0.4105 -0.3271
  123MOL0     H16940   6.108   1.344   5.419 -0.0606 -1.8242  2.1654
  123MOL0     H16941   6.006   1.428   5.522  0.1717 -0.8740  0.1025
  123MOL0     H16942   5.859   1.272   5.294 -4.5378  0.7996  1.1163
  123MOL0     H16943   5.801   1.330   5.449  2.0842  1.9350  3.3920
  123MOL0     H16944   6.030   1.142   5.429  0.0579  0.2168 -2.2517
  123MOL0     H16945   5.851   1.093   5.434 -0.7109  0.8547  0.3896
  123MOL0     H16946   5.929   1.266   5.665 -3.1937 -0.7142  0.7641
  123MOL0     H16947   5.817   1.134   5.640 -0.2715  1.2331 -2.1325
  123MOL0     H16948   6.123   1.131   5.658  2.0077 -2.4419  0.9390
  123MOL0     H16949   6.038   0.980   5.652  5.4588  1.2034  0.1026
  123MOL0     H16950   6.017   1.186   5.865  1.8521 -1.1557  3.1043
  123MOL0     H16951   6.147   1.068   5.867 -0.5035 -1.7723  0.0988
  123MOL0     H16952   5.855   0.985   5.880  0.0982 -4.9409  0.6573
  123MOL0     H16953   5.965   0.975   6.015 -2.1636 -2.2157  0.4310
  123MOL0     H16954   5.805   1.428   5.069  3.2036 -0.4315  1.2524
  123MOL0     H16955   5.815   1.524   4.846  0.5157 -2.5204  0.3618
  123MOL0     H16956   6.148   1.753   4.520 -0.5574 -0.0869  0.4900
  123MOL0     H16957   6.161   1.876   4.317  0.3909 -0.4199  0.5375
  123MOL0     H16958   6.497   1.600   4.983 -0.0573  3.1497 -1.5941
  123MOL0     H16959   6.576   1.663   5.186 -1.1346 -2.1682 -1.3659
  123MOL0     H16960   6.844   1.647   5.549 -0.2945  1.8521 -0.1583
  123MOL0     H16961   6.948   1.767   5.745 -3.2998  3.8955 -1.1961
  123MOL0     H16962   7.058   1.844   5.914  0.5349  1.2980 -0.8414
  123MOL0     H16963   7.192   1.725   5.902  2.6713  0.0690  0.1972
  123MOL0     H16964   7.190   2.028   5.963  2.1571  1.4524  0.7347
  123MOL0     H16965   7.341   1.956   5.944 -0.4254  4.1798 -0.0586
  123MOL0     H16966   7.238   1.786   6.135 -0.4373 -0.6990 -2.3128
  123MOL0     H16967   7.311   1.938   6.179  1.9903 -2.9894 -1.4577
  123MOL0     H16968   7.016   1.935   6.116  1.3214 -1.4004 -1.9895
  123MOL0     H16969   7.086   2.046   6.206 -2.2331  0.1411  3.8459
  123MOL0     H16970   7.027   1.754   6.508  0.0212 -1.5777  0.1408
  123MOL0     H16971   7.278   1.907   5.516 -0.6792  0.1264 -0.8151
  123MOL0     H16972   7.233   1.740   5.233  2.4636  0.7346  0.6565
  123MOL0     H16973   7.094   1.856   5.209 -1.3161 -2.0147  0.4496
  123MOL0     H16974   7.256   1.904   5.281 -0.9226  0.7287  2.7920
  124MOL0     O16975   7.491   2.590   4.026 -0.8203  0.0493  0.7791
  124MOL0     C16976   7.548   2.482   4.000 -0.2115 -0.3594 -0.5707
  124MOL0     O16977   7.624   2.417   4.083  0.2113  0.0185 -0.0458
  124MOL0     C16978   7.639   2.474   4.205 -0.4711  0.4946  0.7617
  124MOL0     C16979   7.567   2.445   4.316  0.0376  0.6949 -0.0917
  124MOL0     C16980   7.600   2.492   4.442 -0.0683 -0.1298  0.2128
  124MOL0     C16981   7.713   2.577   4.456  0.8877 -0.1556 -0.2145
  124MOL0     O16982   7.746   2.613   4.582  0.1211  0.8068 -0.3515
  124MOL0     C16983   7.822   2.733   4.614 -0.8199  0.3646 -1.3115
  124MOL0     C16984   7.804   2.766   4.763  0.1873 -0.4481 -0.5175
  124MOL0     C16985   7.656   2.781   4.783  0.6080 -0.4220  0.7918
  124MOL0     C16986   7.613   2.808   4.931  0.0414  0.7947 -0.3248
  124MOL0     C16987   7.579   2.676   5.008  0.2830  0.8758  0.8002
  124MOL0     C16988   7.581   2.683   5.157  0.0127 -0.4538 -0.3854
  124MOL0     C16989   7.512   2.563   5.231  0.0762 -0.5003  0.2418
  124MOL0     C16990   7.466   2.602   5.374 -0.5046 -0.3069  0.3304
  124MOL0     N16991   7.453   2.488   5.470  0.1423 -0.2100  0.1568
  124MOL0     C16992   7.353   2.386   5.464 -0.6909 -1.1916 -0.5702
  124MOL0     C16993   7.380   2.305   5.568  0.0039 -0.5358 -0.2011
  124MOL0     C16994   7.301   2.182   5.614 -0.7288  0.4218 -0.7237
  124MOL0     C16995   7.175   2.223   5.689  0.0428  0.6614 -0.5825
  124MOL0     C16996   7.220   2.317   5.809 -0.4620 -0.5239  0.6140
  124MOL0     C16997   7.107   2.378   5.869  0.1863  0.4601  0.2958
  124MOL0     O16998   7.129   2.505   5.941 -0.5964 -0.0313  0.2724
  124MOL0     C16999   7.191   2.474   6.063  0.2731  0.1686 -0.6779
  124MOL0     C17000   7.150   2.378   6.162  0.2381 -0.2257 -1.3645
  124MOL0     C17001   7.215   2.374   6.290 -0.7400 -0.0398  0.4005
  124MOL0     C17002   7.179   2.262   6.386  0.7730 -0.1248  0.3324
  124MOL0     C17003   7.324   2.459   6.324 -0.4233  0.5784  0.6817
  124MOL0     C17004   7.409   2.447   6.443  0.7534 -0.1664 -0.3804
  124MOL0     O17005   7.535   2.503   6.431 -0.0377 -0.3291  0.3812
  124MOL0     C17006   7.608   2.520   6.545 -0.0953 -0.3512  0.0558
  124MOL0     C17007   7.567   2.574   6.679  0.5247 -0.1659  0.7403
  124MOL0     C17008   7.653   2.599   6.779 -1.0368  0.5443 -0.6290
  124MOL0     C17009   7.785   2.546   6.766  0.2374  0.2528 -0.4992
  124MOL0     O17010   7.883   2.542   6.866  0.6338 -0.5126  1.3237
  124MOL0     C17011   7.868   2.620   6.989 -0.4206 -0.2805  0.3112
  124MOL0     C17012   8.015   2.646   7.034  0.2088  0.7067 -0.4048
  124MOL0     C17013   8.018   2.758   7.134  0.4971 -0.3656  0.0938
  124MOL0     C17014   7.946   2.742   7.262 -0.6465 -0.5927  0.1746
  124MOL0     C17015   8.009   2.837   7.365 -0.0557 -0.2813 -0.0978
  124MOL0     C17016   7.946   2.804   7.501  0.4052 -0.5776  0.0620
  124MOL0     C17017   7.807   2.870   7.514  0.0828  0.2132  0.0620
  124MOL0     C17018   7.713   2.788   7.609  0.3840 -0.3112 -0.7270
  124MOL0    Cl17019   7.734   2.856   7.780  0.5048  0.4764 -0.3318
  124MOL0     C17020   7.832   2.503   6.640  0.1604 -0.0934  0.2947
  124MOL0     C17021   7.745   2.492   6.532 -0.5622  0.1317  0.7119
  124MOL0     O17022   7.368   2.391   6.545  0.3398 -0.0101 -0.6329
  124MOL0     C17023   7.358   2.549   6.218 -0.3367 -0.4074 -0.4648
  124MOL0     C17024   7.288   2.552   6.099 -0.5057 -0.4635 -0.0156
  124MOL0     N17025   7.506   2.341   5.618  0.1062 -0.3043 -0.5781
  124MOL0     N17026   7.542   2.453   5.565 -0.3245  0.0050  0.5921
  124MOL0     C17027   7.784   2.610   4.343  0.0473  0.1616 -0.5772
  124MOL0     C17028   7.745   2.555   4.223 -0.3608 -0.5510 -1.1183
  124MOL0     C17029   7.520   2.429   3.859  0.1107 -0.4207 -0.1399
  124MOL0     C17030   7.503   2.523   3.753 -0.9682 -0.3321  0.6540
  124MOL0     C17031   7.512   2.486   3.620  0.3578 -0.3397 -0.1011
  124MOL0     C17032   7.507   2.349   3.587 -0.3721  0.0500  0.1973
  124MOL0     O17033   7.476   2.318   3.456 -0.5152 -0.2431  0.1890
  124MOL0     C17034   7.483   2.184   3.423  0.0228 -0.3134  0.4757
  124MOL0     C17035   7.482   2.174   3.271  0.4743  0.9598 -0.2008
  124MOL0     C17036   7.352   2.214   3.218  1.0043 -0.6310  0.3999
  124MOL0     C17037   7.222   2.145   3.239 -0.0645  0.2173 -0.4459
  124MOL0     C17038   7.223   2.018   3.318 -0.3049  0.6213  1.4743
  124MOL0     C17039   7.216   1.911   3.382 -0.0564 -0.3478  0.0016
  124MOL0     C17040   7.525   2.257   3.690 -0.4010 -0.0552 -0.6707
  124MOL0     C17041   7.536   2.288   3.830  0.1498  0.1240 -0.2166
  124MOL0     C17042   7.561   2.173   3.931  0.8770 -0.6215  0.3254
  124MOL0     H17043   7.479   2.382   4.313 -0.0222  0.7963 -0.4954
  124MOL0     H17044   7.536   2.481   4.529 -2.0912  0.5747 -1.1109
  124MOL0     H17045   7.808   2.819   4.549  0.8141  2.7558  1.2899
  124MOL0     H17046   7.929   2.711   4.611 -0.4916  1.8727 -1.5683
  124MOL0     H17047   7.835   2.677   4.818 -3.0854 -0.1232  2.1734
  124MOL0     H17048   7.862   2.856   4.784 -2.1543  1.3120 -1.1519
  124MOL0     H17049   7.626   2.864   4.718 -1.0961 -0.2300  1.7646
  124MOL0     H17050   7.607   2.688   4.753  0.9031 -0.4131  0.2566
  124MOL0     H17051   7.678   2.873   4.990 -2.0576  1.6962  1.1149
  124MOL0     H17052   7.520   2.866   4.933  0.3495  1.2840  0.9970
  124MOL0     H17053   7.661   2.608   4.984  0.6886  0.6509  2.6421
  124MOL0     H17054   7.492   2.629   4.962  3.4017 -2.8977 -1.9791
  124MOL0     H17055   7.682   2.701   5.192  0.0115  0.3992 -0.7872
  124MOL0     H17056   7.524   2.775   5.172  0.6289  0.5840 -3.5519
  124MOL0     H17057   7.576   2.475   5.244  0.9286  0.1386  0.4940
  124MOL0     H17058   7.426   2.530   5.173  0.9408  0.9695 -2.0264
  124MOL0     H17059   7.544   2.664   5.419  1.2180  0.0075 -2.7929
  124MOL0     H17060   7.380   2.668   5.367  0.2850  0.8202  0.9267
  124MOL0     H17061   7.270   2.388   5.394 -0.2916 -1.5581 -1.0633
  124MOL0     H17062   7.354   2.114   5.682 -1.4915  1.2465  0.7393
  124MOL0     H17063   7.270   2.121   5.529 -1.4189 -1.3062  0.6980
  124MOL0     H17064   7.096   2.264   5.627  0.3103 -0.0961 -1.4431
  124MOL0     H17065   7.130   2.129   5.724 -2.3525  1.6277 -0.8800
  124MOL0     H17066   7.260   2.267   5.897 -3.9485  0.0355  2.7284
  124MOL0     H17067   7.292   2.391   5.774 -2.2222  0.0519 -2.1134
  124MOL0     H17068   7.045   2.407   5.784  0.9280 -4.5828 -2.3165
  124MOL0     H17069   7.049   2.299   5.918  0.1044  0.9221  0.9608
  124MOL0     H17070   7.067   2.310   6.149 -0.3816  0.1221  0.5020
  124MOL0     H17071   7.111   2.310   6.457  0.8119  0.5835 -0.1041
  124MOL0     H17072   7.265   2.205   6.424  0.3973 -1.6729 -1.0303
  124MOL0     H17073   7.117   2.184   6.342  0.1430  0.1441  0.7240
  124MOL0     H17074   7.465   2.611   6.683  0.9993  1.3601 -0.3563
  124MOL0     H17075   7.611   2.640   6.870  0.4096  0.2416  0.2009
  124MOL0     H17076   7.811   2.711   6.972  1.2784  0.7077 -0.3423
  124MOL0     H17077   7.821   2.567   7.073  0.1091  2.3353  2.4037
  124MOL0     H17078   8.039   2.554   7.088 -1.4360 -0.4580 -1.5497
  124MOL0     H17079   8.086   2.659   6.953 -1.5414 -0.6299 -2.2567
  124MOL0     H17080   7.983   2.848   7.083  3.8203 -0.2644 -2.2823
  124MOL0     H17081   8.124   2.782   7.146  0.0148  1.5252  0.8902
  124MOL0     H17082   7.965   2.641   7.297  1.4283 -0.2331  0.2397
  124MOL0     H17083   7.839   2.758   7.246 -0.6163 -0.5524  0.0095
  124MOL0     H17084   8.116   2.814   7.373  0.1583 -0.1616 -2.0953
  124MOL0     H17085   8.001   2.941   7.331  0.1156 -1.1196 -2.9112
  124MOL0     H17086   8.010   2.847   7.579 -1.2556  1.2691  0.4852
  124MOL0     H17087   7.937   2.696   7.512 -2.2333 -0.3415  0.6919
  124MOL0     H17088   7.769   2.874   7.412  3.5732  1.2115 -1.3455
  124MOL0     H17089   7.816   2.976   7.540  2.1668  0.7420 -2.4656
  124MOL0     H17090   7.745   2.684   7.608 -1.6358 -0.9830  0.4717
  124MOL0     H17091   7.610   2.789   7.574 -0.2987  2.5972  0.9869
  124MOL0     H17092   7.936   2.477   6.622 -0.2798 -1.6308 -0.2347
  124MOL0     H17093   7.786   2.472   6.434  2.6037  1.2268  1.6871
  124MOL0     H17094   7.446   2.606   6.246 -1.2534  0.2889  1.1269
  124MOL0     H17095   7.307   2.631   6.027  0.5837  0.3983  1.1693
  124MOL0     H17096   7.869   2.677   4.345 -1.5308  2.3937 -2.2541
  124MOL0     H17097   7.818   2.568   4.144 -1.1261  1.3685 -1.5609
  124MOL0     H17098   7.471   2.625   3.772  0.2957  0.5196 -1.4746
  124MOL0     H17099   7.484   2.547   3.535 -2.3191 -0.5520  0.5314
  124MOL0     H17100   7.582   2.158   3.463  0.5823 -0.0898 -0.7287
  124MOL0     H17101   7.393   2.134   3.460 -0.8798  0.7023 -0.2919
  124MOL0     H17102   7.491   2.068   3.246 -0.2714  0.5563  1.1211
  124MOL0     H17103   7.562   2.232   3.226  0.3495 -0.6275 -2.6543
  124MOL0     H17104   7.333   2.317   3.250  0.4190  0.4290 -2.9681
  124MOL0     H17105   7.368   2.222   3.110  0.4622 -1.3366  0.2571
  124MOL0     H17106   7.171   2.120   3.146  1.4543  2.7081 -2.0813
  124MOL0     H17107   7.149   2.214   3.283 -0.7482 -0.9158  0.2560
  124MOL0     H17108   7.225   1.821   3.439  0.9676 -0.4134 -0.2502
  124MOL0     H17109   7.518   2.153   3.659  2.2545 -1.0128  1.5270
  124MOL0     H17110   7.665   2.172   3.965  1.2630  0.6725 -0.7180
  124MOL0     H17111   7.508   2.194   4.024  0.0974 -1.0765 -0.0017
  124MOL0     H17112   7.530   2.072   3.900 -1.7544  0.1029  0.3447
  125MOL0     O17113   1.833   6.085   0.302 -0.3613 -0.1175 -0.2944
  125MOL0     C17114   1.716   6.066   0.272  0.0749  0.6412  0.3769
  125MOL0     O17115   1.625   6.158   0.226 -0.4875 -0.6427  0.2080
  125MOL0     C17116   1.667   6.287   0.226  0.1823 -0.3975 -1.4799
  125MOL0     C17117   1.647   6.362   0.119 -0.1803 -0.6343  0.3349
  125MOL0     C17118   1.696   6.496   0.101  0.5341 -0.3588  0.0329
  125MOL0     C17119   1.782   6.548   0.206 -0.0289 -0.0757  1.6312
  125MOL0     O17120   1.847   6.674   0.203 -0.2578  0.1655 -0.2079
  125MOL0     C17121   1.945   6.686   0.090  0.2733  0.4843  0.0583
  125MOL0     C17122   2.021   6.816   0.102  0.3470  0.2619 -0.0121
  125MOL0     C17123   2.165   6.814   0.047  0.7907 -0.4853  0.1689
  125MOL0     C17124   2.236   6.943   0.076  0.3408 -0.8257 -0.8558
  125MOL0     C17125   2.376   6.920   0.148  0.0018 -0.7313  0.1400
  125MOL0     C17126   2.458   7.049   0.170 -0.3288 -1.1791 -0.3032
  125MOL0     C17127   2.576   7.029   0.275 -0.7920  0.7655 -0.2992
  125MOL0     C17128   2.677   6.926   0.215 -0.5316 -0.0703 -0.1983
  125MOL0     N17129   2.790   6.913   0.322  0.5198 -0.0205 -1.1624
  125MOL0     C17130   2.790   6.832   0.434  0.3347  0.5261  0.9823
  125MOL0     C17131   2.913   6.826   0.488  0.1330 -0.2157  0.0731
  125MOL0     C17132   2.974   6.729   0.594  0.3886  0.3517 -0.2957
  125MOL0     C17133   3.109   6.671   0.555  0.1498 -0.7937 -0.1922
  125MOL0     C17134   3.172   6.599   0.670  0.1719  0.5004 -0.4577
  125MOL0     C17135   3.252   6.480   0.622 -0.6851  0.8889 -0.4444
  125MOL0     O17136   3.355   6.533   0.537 -0.1261 -0.0957 -0.0188
  125MOL0     C17137   3.487   6.521   0.588  0.3343 -0.8540  0.6427
  125MOL0     C17138   3.545   6.617   0.674  0.0337 -0.2823  1.1425
  125MOL0     C17139   3.677   6.600   0.710  0.7716 -1.0881 -1.1240
  125MOL0     C17140   3.743   6.706   0.802 -0.0597 -1.2290  0.4113
  125MOL0     C17141   3.757   6.500   0.651  0.1009  0.6829 -0.5224
  125MOL0     C17142   3.900   6.493   0.685 -0.8513 -0.4442  0.1952
  125MOL0     O17143   3.945   6.500   0.817  0.7001 -0.4676 -0.0930
  125MOL0     C17144   4.074   6.469   0.841 -0.5547 -0.0251  0.3966
  125MOL0     C17145   4.137   6.345   0.817  0.1786  0.6059  0.2690
  125MOL0     C17146   4.273   6.331   0.851  0.4593 -0.7858  0.0742
  125MOL0     C17147   4.355   6.442   0.891 -0.2185  0.0994  0.0864
  125MOL0     O17148   4.490   6.449   0.920 -0.2833  0.4782 -0.7719
  125MOL0     C17149   4.579   6.338   0.884 -0.2685 -0.5745  0.8982
  125MOL0     C17150   4.724   6.380   0.855 -0.9224 -0.9606 -0.3185
  125MOL0     C17151   4.808   6.289   0.759  0.6872 -0.1608  0.0946
  125MOL0     C17152   4.837   6.154   0.815  0.7478 -0.1627  0.5803
  125MOL0     C17153   4.950   6.098   0.733  0.0849 -0.3745 -0.0292
  125MOL0     C17154   4.894   6.004   0.631  0.3173  0.7372  1.0188
  125MOL0     C17155   5.001   5.939   0.535  1.1519  0.4079  0.3210
  125MOL0     C17156   5.104   5.852   0.598 -0.1673 -0.4175  0.4025
  125MOL0    Cl17157   5.045   5.728   0.717 -0.0419  0.1394 -0.2852
  125MOL0     C17158   4.291   6.563   0.923 -0.1386  0.0111 -0.0857
  125MOL0     C17159   4.154   6.571   0.896  0.3129  0.1851  0.4078
  125MOL0     O17160   3.976   6.489   0.589 -0.2873 -0.0266  1.0175
  125MOL0     C17161   3.702   6.407   0.556  0.0978  0.7357  0.0223
  125MOL0     C17162   3.563   6.415   0.531  0.1472  0.1664 -0.5446
  125MOL0     N17163   2.982   6.917   0.410  0.0768 -0.4149  0.5369
  125MOL0     N17164   2.911   6.968   0.313  0.5904 -0.1182 -0.0568
  125MOL0     C17165   1.780   6.477   0.319 -0.7496  0.1877 -0.1825
  125MOL0     C17166   1.727   6.349   0.332  0.7547 -0.7664 -0.3282
  125MOL0     C17167   1.662   5.930   0.280  0.2475  0.6731  0.2362
  125MOL0     C17168   1.535   5.919   0.333 -0.5272 -0.2636 -0.3940
  125MOL0     C17169   1.486   5.793   0.356  0.8779 -0.6389  0.3167
  125MOL0     C17170   1.557   5.674   0.321 -0.4683  0.3227  1.5929
  125MOL0     O17171   1.487   5.561   0.344 -0.2751  0.1442 -0.2538
  125MOL0     C17172   1.556   5.430   0.357  0.5638 -0.5290 -0.8001
  125MOL0     C17173   1.512   5.349   0.486  0.0375 -1.1230  0.1760
  125MOL0     C17174   1.582   5.413   0.620 -0.2227 -0.0108  0.1060
  125MOL0     C17175   1.543   5.323   0.737 -0.5280 -0.2931  0.3356
  125MOL0     C17176   1.630   5.343   0.853  0.4463 -0.5864  0.6362
  125MOL0     C17177   1.697   5.358   0.957 -0.1636  0.4397 -0.5509
  125MOL0     C17178   1.689   5.686   0.272  0.2410  0.9756  0.4995
  125MOL0     C17179   1.736   5.815   0.247  0.8306  0.4813  0.1543
  125MOL0     C17180   1.859   5.822   0.175 -0.7193  0.5940 -0.5558
  125MOL0     H17181   1.586   6.323   0.038  0.4348  0.8555 -0.8992
  125MOL0     H17182   1.693   6.551   0.008  3.9280 -0.5222 -0.3056
  125MOL0     H17183   1.896   6.686  -0.008 -0.8898  2.7883  0.5651
  125MOL0     H17184   2.017   6.604   0.084 -0.0423  0.2965 -2.1462
  125MOL0     H17185   1.962   6.892   0.051  0.3795  1.9204  2.2441
  125MOL0     H17186   2.022   6.849   0.207  1.4530  1.8183 -0.4727
  125MOL0     H17187   2.214   6.734   0.104  0.4011  1.5608  3.6465
  125MOL0     H17188   2.168   6.800  -0.061  0.9093 -1.0399  0.2378
  125MOL0     H17189   2.236   6.980  -0.027 -1.0856 -2.5642 -1.5124
  125MOL0     H17190   2.179   7.011   0.140 -0.1366 -0.6198 -1.4955
  125MOL0     H17191   2.436   6.859   0.079  1.1453  2.3975 -1.8543
  125MOL0     H17192   2.369   6.861   0.240 -0.0822 -1.3211 -0.2395
  125MOL0     H17193   2.497   7.087   0.076 -1.4962  1.7299  0.2825
  125MOL0     H17194   2.398   7.137   0.192  0.9783 -0.7378  1.7392
  125MOL0     H17195   2.526   6.990   0.364 -0.2138  0.1569 -0.2361
  125MOL0     H17196   2.636   7.117   0.300  1.5118 -1.1362  1.3450
  125MOL0     H17197   2.642   6.825   0.191  1.3761 -1.0020  0.7125
  125MOL0     H17198   2.715   6.965   0.120 -0.7606  1.9029  0.4713
  125MOL0     H17199   2.699   6.784   0.470 -0.6453  3.0442  2.0831
  125MOL0     H17200   2.910   6.644   0.620  1.6178  0.2312  2.5850
  125MOL0     H17201   2.981   6.794   0.681 -0.8986 -0.4177  0.4083
  125MOL0     H17202   3.109   6.602   0.469  1.4677 -1.1292  0.0549
  125MOL0     H17203   3.178   6.752   0.530  1.3164 -1.5772  0.3960
  125MOL0     H17204   3.229   6.671   0.730 -2.1649  1.6426  0.4854
  125MOL0     H17205   3.103   6.553   0.741 -0.8440  0.7113 -1.2854
  125MOL0     H17206   3.303   6.434   0.707  1.1345  1.3572 -1.2322
  125MOL0     H17207   3.186   6.412   0.568  0.2994 -1.4284  1.1350
  125MOL0     H17208   3.504   6.708   0.715 -0.3939 -0.4286  1.0475
  125MOL0     H17209   3.754   6.665   0.902  0.8059  2.9884  2.2821
  125MOL0     H17210   3.682   6.797   0.810  1.2575 -0.3458  0.8038
  125MOL0     H17211   3.841   6.735   0.763 -0.0555 -0.6416  0.8540
  125MOL0     H17212   4.084   6.255   0.787 -1.2247  0.7846  2.0596
  125MOL0     H17213   4.319   6.237   0.825 -1.7976 -2.0584  0.4241
  125MOL0     H17214   4.580   6.263   0.964 -0.0566 -1.9648 -0.3884
  125MOL0     H17215   4.542   6.279   0.800  2.3396  0.3350 -1.0169
  125MOL0     H17216   4.728   6.482   0.815  2.3098  0.0603  2.1409
  125MOL0     H17217   4.782   6.390   0.948  0.5641 -3.0908 -0.9300
  125MOL0     H17218   4.901   6.343   0.736 -0.9343  3.2460  0.8577
  125MOL0     H17219   4.749   6.280   0.667 -0.6763  0.4934  0.8689
  125MOL0     H17220   4.741   6.101   0.806  0.2791  1.0058 -2.0139
  125MOL0     H17221   4.864   6.159   0.921  2.2820 -0.3552  0.2127
  125MOL0     H17222   4.994   6.179   0.674 -1.8034 -0.1149 -1.1842
  125MOL0     H17223   5.026   6.060   0.801 -1.5116  1.6538  3.0994
  125MOL0     H17224   4.822   6.060   0.571 -0.8489 -0.9524  0.7799
  125MOL0     H17225   4.846   5.922   0.686  1.7814  1.2805  3.2842
  125MOL0     H17226   5.046   6.024   0.483  3.6598 -0.5602  0.7623
  125MOL0     H17227   4.952   5.875   0.461  0.3961 -0.5034  1.5779
  125MOL0     H17228   5.175   5.921   0.644  0.0228  1.1857 -2.1125
  125MOL0     H17229   5.168   5.814   0.518 -0.1191  0.4738  0.0001
  125MOL0     H17230   4.346   6.647   0.965  2.0409 -0.6756 -1.4260
  125MOL0     H17231   4.100   6.664   0.911  0.9484  0.5916  0.2213
  125MOL0     H17232   3.768   6.336   0.508 -0.6162  0.8991 -1.2451
  125MOL0     H17233   3.510   6.348   0.465 -1.7748  1.8963 -0.8820
  125MOL0     H17234   1.812   6.529   0.409 -0.7872  0.4519 -0.3211
  125MOL0     H17235   1.741   6.297   0.426 -1.3279 -1.0773 -0.1302
  125MOL0     H17236   1.481   6.011   0.353 -3.3506 -1.7972 -0.5072
  125MOL0     H17237   1.386   5.788   0.398  0.3512 -0.4619 -0.8728
  125MOL0     H17238   1.532   5.377   0.264  1.8646  0.3733 -1.6809
  125MOL0     H17239   1.664   5.438   0.346  0.7696 -0.4812  0.8674
  125MOL0     H17240   1.541   5.244   0.478  0.4982 -0.8288 -4.1420
  125MOL0     H17241   1.404   5.353   0.502  0.0469  1.2703 -0.0344
  125MOL0     H17242   1.691   5.426   0.628 -0.3878  1.3758  0.2681
  125MOL0     H17243   1.544   5.515   0.627 -3.9949 -0.9875 -2.6594
  125MOL0     H17244   1.545   5.219   0.704 -1.5581  0.6628 -3.1947
  125MOL0     H17245   1.440   5.347   0.765 -2.1370 -1.4465 -3.7757
  125MOL0     H17246   1.742   5.364   1.054  0.2382 -0.2228 -0.6951
  125MOL0     H17247   1.746   5.598   0.242 -3.0228 -0.7542 -1.2105
  125MOL0     H17248   1.902   5.729   0.135 -1.5819  0.0097 -0.1483
  125MOL0     H17249   1.852   5.885   0.086  0.7050  0.7136 -0.6036
  125MOL0     H17250   1.939   5.861   0.238  0.9050  2.8803 -3.7227
  126MOL0     O17251   9.286   8.545   7.999 -0.3718  0.1247 -0.6375
  126MOL0     C17252   9.240   8.492   7.898  0.4061  0.3883 -0.1781
  126MOL0     O17253   9.227   8.356   7.877  0.0919 -0.5037  0.4876
  126MOL0     C17254   9.263   8.272   7.980 -0.2651  0.3362  0.3277
  126MOL0     C17255   9.161   8.199   8.043  0.1965 -0.0366  0.1295
  126MOL0     C17256   9.193   8.104   8.140 -0.5382 -1.2825 -0.4450
  126MOL0     C17257   9.330   8.096   8.192  0.5479  0.0710 -0.8648
  126MOL0     O17258   9.358   8.012   8.297  0.4293 -0.5015  0.0079
  126MOL0     C17259   9.259   7.905   8.321  0.5773 -0.2209  0.3193
  126MOL0     C17260   9.327   7.806   8.418  0.0216 -0.1636  0.5619
  126MOL0     C17261   9.459   7.755   8.354  0.1273 -0.3846 -0.7080
  126MOL0     C17262   9.533   7.682   8.460 -0.1866  0.1985  0.9072
  126MOL0     C17263   9.654   7.638   8.401 -0.5821 -0.4270 -0.5047
  126MOL0     C17264   9.733   7.564   8.519  0.6516 -0.4894  0.0859
  126MOL0     C17265   9.854   7.492   8.459 -1.0959 -0.4853  0.2126
  126MOL0     C17266   9.944   7.435   8.568  0.0104  0.2407  0.4677
  126MOL0     N17267  10.046   7.351   8.511  0.6891  0.3994 -0.3278
  126MOL0     C17268  10.122   7.366   8.400  1.7345  0.1306 -0.0448
  126MOL0     C17269  10.192   7.245   8.395  0.1141  0.0019  0.2287
  126MOL0     C17270  10.316   7.220   8.311  0.4076  0.5098  0.6060
  126MOL0     C17271  10.418   7.139   8.382  0.6102  0.2213  0.7691
  126MOL0     C17272  10.483   7.203   8.492  0.2283 -0.7676 -0.9078
  126MOL0     C17273  10.614   7.141   8.523 -0.6508 -0.3736  0.6220
  126MOL0     O17274  10.645   7.159   8.655 -0.5695  0.7006  0.0177
  126MOL0     C17275  10.745   7.094   8.732  0.1771 -0.2811 -0.2958
  126MOL0     C17276  10.747   7.090   8.872 -0.2208 -0.3289  0.1521
  126MOL0     C17277  10.841   7.021   8.945  0.2636  0.2738  0.2094
  126MOL0     C17278  10.822   7.026   9.093  0.3638  1.4836  1.1413
  126MOL0     C17279  10.945   6.956   8.882 -1.4634  0.2014  0.9503
  126MOL0     C17280  11.049   6.862   8.953 -1.0875  0.5894  0.1898
  126MOL0     O17281  11.155   6.816   8.874  0.1072 -0.2090  0.4283
  126MOL0     C17282  11.234   6.711   8.920  0.3458  0.5842  0.5858
  126MOL0     C17283  11.374   6.740   8.932 -0.4815  0.2028  0.4887
  126MOL0     C17284  11.456   6.646   8.996  0.1677  0.6467 -0.4399
  126MOL0     C17285  11.405   6.524   9.038 -0.4161  0.5854  0.4091
  126MOL0     O17286  11.483   6.420   9.081 -0.1730  0.2363 -0.1613
  126MOL0     C17287  11.584   6.447   9.181  0.9246  1.3377 -0.2508
  126MOL0     C17288  11.564   6.358   9.303 -0.6205 -0.4749 -0.4195
  126MOL0     C17289  11.443   6.396   9.395  0.7202 -0.2677  0.2343
  126MOL0     C17290  11.436   6.307   9.510 -0.3790  0.6055 -0.2910
  126MOL0     C17291  11.312   6.341   9.591  0.0711  0.1981  0.1651
  126MOL0     C17292  11.308   6.266   9.724 -0.4896 -0.5043 -0.7265
  126MOL0     C17293  11.183   6.280   9.811  0.7985 -0.5969  0.2707
  126MOL0     C17294  11.095   6.167   9.784 -0.5893 -0.0311  0.5915
  126MOL0    Cl17295  10.937   6.186   9.868  0.4515 -0.2017 -0.1998
  126MOL0     C17296  11.270   6.495   9.014 -0.7269  0.2609  0.5656
  126MOL0     C17297  11.184   6.583   8.961 -0.4080  0.0658  0.2739
  126MOL0     O17298  11.038   6.830   9.070 -0.8542 -0.1305 -0.3870
  126MOL0     C17299  10.949   6.960   8.737 -0.3888 -0.6203 -0.7568
  126MOL0     C17300  10.848   7.027   8.665 -0.5060 -0.5403 -0.1041
  126MOL0     N17301  10.145   7.156   8.488 -0.5258 -0.6199 -0.0213
  126MOL0     N17302  10.064   7.227   8.561  0.7726  0.6018  0.0754
  126MOL0     C17303   9.432   8.158   8.122  0.3542  0.3762 -0.4528
  126MOL0     C17304   9.400   8.242   8.012 -0.3087  0.4359 -0.0306
  126MOL0     C17305   9.203   8.574   7.777  0.5045  0.7739  0.8136
  126MOL0     C17306   9.145   8.513   7.670  0.2883 -0.7544 -0.4268
  126MOL0     C17307   9.106   8.575   7.549  0.9210  0.4573  0.2629
  126MOL0     C17308   9.150   8.710   7.540  0.5840  0.6383  0.3654
  126MOL0     O17309   9.131   8.781   7.424  0.5355 -0.2724 -0.2884
  126MOL0     C17310   9.064   8.731   7.307 -0.3037  0.2489 -0.6935
  126MOL0     C17311   8.974   8.838   7.245 -0.2129 -0.9372  0.7668
  126MOL0     C17312   8.887   8.927   7.335 -0.4101 -0.1355 -0.2680
  126MOL0     C17313   8.793   8.848   7.437 -0.1693  0.4893 -0.1517
  126MOL0     C17314   8.690   8.763   7.371 -0.7941 -0.1339  0.0067
  126MOL0     C17315   8.596   8.697   7.342 -0.3015 -0.7418  0.6192
  126MOL0     C17316   9.209   8.776   7.649  1.1148 -0.0223 -0.2851
  126MOL0     C17317   9.233   8.713   7.769 -0.1414 -0.9320  0.6822
  126MOL0     C17318   9.303   8.793   7.880  0.1680  0.0706  0.5107
  126MOL0     H17319   9.056   8.201   8.013  0.8158  1.4117 -2.1599
  126MOL0     H17320   9.109   8.059   8.190  1.0750 -3.7216  0.2144
  126MOL0     H17321   9.221   7.840   8.241  1.8570 -5.1109  3.2675
  126MOL0     H17322   9.173   7.945   8.376 -0.1557 -0.8040 -0.3610
  126MOL0     H17323   9.340   7.857   8.514 -0.0050 -0.3242  0.6517
  126MOL0     H17324   9.256   7.723   8.422 -0.8391  0.6094  2.0558
  126MOL0     H17325   9.436   7.695   8.265 -1.3015  0.5610 -1.0048
  126MOL0     H17326   9.526   7.839   8.335  1.9793 -0.3447  4.5652
  126MOL0     H17327   9.562   7.745   8.544  1.0008 -0.7203  1.2078
  126MOL0     H17328   9.466   7.608   8.505 -1.7330 -0.0925 -1.6364
  126MOL0     H17329   9.708   7.726   8.364  2.8224 -3.1423 -2.5681
  126MOL0     H17330   9.633   7.561   8.325  1.0377 -2.2378  0.7946
  126MOL0     H17331   9.751   7.643   8.593  0.0843  3.4950 -3.6247
  126MOL0     H17332   9.669   7.495   8.574 -0.7925  0.4681 -0.3520
  126MOL0     H17333   9.914   7.568   8.408  0.9152 -0.4293  2.4642
  126MOL0     H17334   9.837   7.417   8.382 -0.4138 -2.2544  1.7229
  126MOL0     H17335   9.985   7.512   8.634 -1.5925  2.2949 -0.8300
  126MOL0     H17336   9.883   7.374   8.635 -0.6875  1.3987  0.9101
  126MOL0     H17337  10.123   7.449   8.330 -0.3385 -0.7621 -1.2013
  126MOL0     H17338  10.373   7.306   8.272  2.6919 -1.6960 -1.2773
  126MOL0     H17339  10.293   7.160   8.222  3.1864  2.2620 -1.5052
  126MOL0     H17340  10.374   7.045   8.415  1.6109 -1.2412 -1.7592
  126MOL0     H17341  10.495   7.112   8.309  0.1344  0.2287  0.2522
  126MOL0     H17342  10.488   7.312   8.482 -4.5152 -0.2736 -0.2570
  126MOL0     H17343  10.417   7.188   8.578 -2.0533  3.3062 -1.6636
  126MOL0     H17344  10.604   7.032   8.524  0.0123 -0.4704  2.9214
  126MOL0     H17345  10.695   7.165   8.453  0.0008 -0.6715  1.2523
  126MOL0     H17346  10.667   7.143   8.924 -0.1301  2.9239 -2.7149
  126MOL0     H17347  10.906   7.071   9.146  1.4359 -0.3745  1.0819
  126MOL0     H17348  10.808   6.924   9.130 -2.3626  1.5910  0.6675
  126MOL0     H17349  10.724   7.072   9.114  1.0003  3.2964  0.3691
  126MOL0     H17350  11.410   6.834   8.893 -1.0482 -0.6000 -2.1392
  126MOL0     H17351  11.562   6.669   9.006  0.7045 -1.9032  0.5991
  126MOL0     H17352  11.686   6.431   9.143  0.7924 -1.0453  0.2189
  126MOL0     H17353  11.581   6.546   9.226 -2.5313  0.3553  2.0464
  126MOL0     H17354  11.543   6.261   9.258  0.5930 -0.0557 -1.9773
  126MOL0     H17355  11.653   6.343   9.365  0.2201 -2.8994 -2.0615
  126MOL0     H17356  11.351   6.386   9.337  1.6104  0.5326 -1.4278
  126MOL0     H17357  11.455   6.497   9.436 -1.1021  0.8303 -1.6971
  126MOL0     H17358  11.526   6.316   9.572  0.6679 -0.1238 -1.6543
  126MOL0     H17359  11.428   6.202   9.482 -5.3321  0.3650  1.1607
  126MOL0     H17360  11.312   6.448   9.614  0.1319  0.6540 -1.7653
  126MOL0     H17361  11.222   6.310   9.537  1.4249 -3.5583 -0.2464
  126MOL0     H17362  11.387   6.298   9.793 -1.2784 -0.1173  0.0202
  126MOL0     H17363  11.317   6.157   9.717 -1.2169 -0.9673  3.0775
  126MOL0     H17364  11.132   6.366   9.766 -0.6139 -0.8094  1.4026
  126MOL0     H17365  11.199   6.304   9.916 -2.3069 -0.4348  0.8186
  126MOL0     H17366  11.149   6.077   9.817  1.3236  0.8082 -0.1050
  126MOL0     H17367  11.082   6.162   9.676  0.8742 -1.0579  0.4292
  126MOL0     H17368  11.231   6.399   9.046 -1.3226 -0.0946 -1.1394
  126MOL0     H17369  11.080   6.554   8.954 -0.6908  1.1397 -0.1028
  126MOL0     H17370  11.035   6.934   8.677  0.3592 -0.0624  0.0536
  126MOL0     H17371  10.842   7.019   8.556  2.4040  1.3227 -0.5117
  126MOL0     H17372   9.533   8.152   8.160  0.3285 -1.6564 -0.6189
  126MOL0     H17373   9.482   8.285   7.955 -1.4758 -0.5666 -2.6530
  126MOL0     H17374   9.122   8.407   7.684 -0.9672 -0.3021  1.1883
  126MOL0     H17375   9.047   8.520   7.477 -0.0891  1.8835 -0.0426
  126MOL0     H17376   9.128   8.684   7.231 -1.8402 -1.2319 -1.1442
  126MOL0     H17377   8.997   8.654   7.347  1.2554 -0.3897  0.8169
  126MOL0     H17378   8.912   8.784   7.173  1.6466 -0.1888 -1.5112
  126MOL0     H17379   9.034   8.911   7.190  0.8883 -0.7382  2.1599
  126MOL0     H17380   8.946   8.988   7.405  1.5812  0.1079 -2.0757
  126MOL0     H17381   8.826   8.999   7.279  0.3607 -0.0628 -1.0316
  126MOL0     H17382   8.730   8.919   7.491 -1.4829 -0.5304 -0.2817
  126MOL0     H17383   8.853   8.788   7.507 -2.8646 -1.9573  0.2484
  126MOL0     H17384   8.513   8.630   7.328 -0.7403  0.2018 -1.6578
  126MOL0     H17385   9.235   8.881   7.646 -2.7425  1.0928  0.1452
  126MOL0     H17386   9.352   8.883   7.843 -0.4340 -0.8368 -2.8252
  126MOL0     H17387   9.230   8.820   7.957  0.6327  0.9971  0.6289
  126MOL0     H17388   9.383   8.733   7.925  1.1390  1.0947  0.1703
  127MOL0     O17389  10.966   6.822   1.980  0.1139 -0.3721 -0.1819
  127MOL0     C17390  10.926   6.910   1.906 -0.4960  0.5269 -0.6242
  127MOL0     O17391  10.806   6.976   1.918 -0.0700  0.7002 -0.3051
  127MOL0     C17392  10.721   6.917   2.004 -0.9430 -0.3901 -0.5219
  127MOL0     C17393  10.693   6.982   2.120  1.0964  0.7994  0.1647
  127MOL0     C17394  10.604   6.924   2.216  0.0754 -0.7309  0.6227
  127MOL0     C17395  10.542   6.795   2.188 -0.3578 -1.1140 -1.1258
  127MOL0     O17396  10.450   6.733   2.276  0.1324  0.7230  1.0921
  127MOL0     C17397  10.502   6.714   2.407  1.0822 -0.0661 -0.5757
  127MOL0     C17398  10.398   6.627   2.487  0.0895  0.5710 -0.1444
  127MOL0     C17399  10.438   6.585   2.633  0.2565  0.1563 -0.1665
  127MOL0     C17400  10.308   6.515   2.699  0.0787  0.5987  0.6582
  127MOL0     C17401  10.321   6.455   2.841  0.3766 -0.4469  0.3137
  127MOL0     C17402  10.382   6.316   2.861  0.1384  0.7431  0.8919
  127MOL0     C17403  10.378   6.264   3.014 -0.2633 -0.4165 -0.6091
  127MOL0     C17404  10.237   6.219   3.050  0.2883  0.5311  0.3214
  127MOL0     N17405  10.241   6.156   3.193  0.3797  0.2577 -0.1707
  127MOL0     C17406  10.284   6.031   3.225 -0.2147 -0.1977  0.5718
  127MOL0     C17407  10.239   6.016   3.354 -0.2352 -0.3614 -0.1117
  127MOL0     C17408  10.263   5.893   3.438  0.6150  0.7543 -0.3512
  127MOL0     C17409  10.256   5.918   3.591 -0.2202  0.1194 -0.3106
  127MOL0     C17410  10.244   5.785   3.664  0.3523  0.1574  0.5768
  127MOL0     C17411  10.367   5.696   3.656  0.0554  0.2226 -1.5371
  127MOL0     O17412  10.486   5.764   3.686  0.2547 -0.3554  0.0428
  127MOL0     C17413  10.598   5.699   3.648 -0.2560 -0.4537  0.4488
  127MOL0     C17414  10.609   5.578   3.577  0.3921  0.0254  0.0627
  127MOL0     C17415  10.731   5.539   3.516 -0.2406 -1.5479  0.0878
  127MOL0     C17416  10.717   5.413   3.447 -0.2134  1.4212 -0.1741
  127MOL0     C17417  10.845   5.624   3.525  0.2308 -0.5489 -0.6182
  127MOL0     C17418  10.970   5.592   3.461  0.4270  0.6561 -0.6431
  127MOL0     O17419  11.083   5.673   3.492 -1.1476 -0.2444 -0.0426
  127MOL0     C17420  11.213   5.649   3.438  0.0191 -0.0025  0.8162
  127MOL0     C17421  11.295   5.760   3.430  0.8616  0.1547 -0.5288
  127MOL0     C17422  11.420   5.754   3.360 -0.2383  1.0508  0.4553
  127MOL0     C17423  11.453   5.641   3.285  0.2231 -0.0474 -1.1699
  127MOL0     O17424  11.569   5.644   3.223 -0.5108 -0.2927  0.5539
  127MOL0     C17425  11.553   5.653   3.075 -0.5697 -0.7670 -0.9014
  127MOL0     C17426  11.505   5.795   3.056  0.1999  0.4908  0.0694
  127MOL0     C17427  11.528   5.850   2.912 -0.1781  0.7855 -0.1600
  127MOL0     C17428  11.446   5.784   2.804  1.4169 -0.2551 -0.6274
  127MOL0     C17429  11.446   5.865   2.674 -0.0076 -0.4702  0.2353
  127MOL0     C17430  11.360   5.775   2.577  0.6892 -0.7764  0.0924
  127MOL0     C17431  11.326   5.853   2.453 -0.2581  0.0441  0.3247
  127MOL0     C17432  11.255   5.765   2.350  1.7646  1.0065 -0.0506
  127MOL0    Cl17433  11.082   5.721   2.402  0.0760 -0.0772 -0.2991
  127MOL0     C17434  11.360   5.533   3.287  0.3069 -0.1289  1.1203
  127MOL0     C17435  11.245   5.538   3.355  0.4974  0.2576  0.8881
  127MOL0     O17436  10.970   5.508   3.371 -0.5473 -0.3345  0.3512
  127MOL0     C17437  10.838   5.740   3.604 -0.8346 -0.3240 -0.3045
  127MOL0     C17438  10.713   5.770   3.665 -0.9198 -0.5251  0.2683
  127MOL0     N17439  10.196   6.136   3.404  0.1901  0.3758  0.3877
  127MOL0     N17440  10.189   6.219   3.304 -0.6449 -0.1618  0.5142
  127MOL0     C17441  10.560   6.741   2.060 -0.2082  0.1180  0.6292
  127MOL0     C17442  10.650   6.798   1.971  0.1304  0.6106 -0.7683
  127MOL0     C17443  11.021   6.953   1.801  0.1303  0.8076  0.1701
  127MOL0     C17444  11.024   7.080   1.750  0.0311  0.0668 -0.3122
  127MOL0     C17445  11.113   7.121   1.658 -0.3028 -1.4623 -0.8016
  127MOL0     C17446  11.214   7.032   1.606  0.4771 -0.2416 -0.3447
  127MOL0     O17447  11.306   7.080   1.521  0.5281  0.0222 -0.0396
  127MOL0     C17448  11.410   6.998   1.465  0.1973  0.8510 -0.1566
  127MOL0     C17449  11.358   6.918   1.336 -0.1536  0.3009 -0.3793
  127MOL0     C17450  11.366   7.023   1.223 -0.2505 -0.3221  0.3805
  127MOL0     C17451  11.326   6.994   1.071  0.0081  0.4512 -0.0887
  127MOL0     C17452  11.419   6.901   1.014 -0.3805  0.5763 -0.3785
  127MOL0     C17453  11.505   6.850   0.959  1.0022  0.2039  0.0866
  127MOL0     C17454  11.214   6.904   1.649  0.3713  0.1429 -0.8249
  127MOL0     C17455  11.126   6.860   1.750  0.6205  0.1640 -0.2008
  127MOL0     C17456  11.136   6.712   1.787 -0.5051 -0.9360 -0.4631
  127MOL0     H17457  10.741   7.077   2.143 -0.4871  1.4811  0.7905
  127MOL0     H17458  10.594   6.978   2.309  2.1696  0.0259  0.4734
  127MOL0     H17459  10.495   6.808   2.462 -0.4173 -1.5084  1.9173
  127MOL0     H17460  10.605   6.677   2.411  1.4339  0.8946  3.6915
  127MOL0     H17461  10.302   6.679   2.500 -0.2012  0.1829 -0.6944
  127MOL0     H17462  10.378   6.534   2.434  0.7143 -0.9326  2.1003
  127MOL0     H17463  10.517   6.509   2.634  2.4187  2.2693 -1.2664
  127MOL0     H17464  10.471   6.665   2.700 -0.4938 -1.5132  2.3344
  127MOL0     H17465  10.225   6.586   2.706  0.9752  1.5130  2.8316
  127MOL0     H17466  10.275   6.438   2.629  0.3018 -2.4805  3.7003
  127MOL0     H17467  10.220   6.457   2.883 -1.1681  1.1625 -3.0457
  127MOL0     H17468  10.376   6.529   2.900  2.3561 -1.7385  0.1508
  127MOL0     H17469  10.339   6.240   2.795  4.3076  0.6120 -2.0218
  127MOL0     H17470  10.486   6.332   2.832 -0.7516 -0.4092 -3.7264
  127MOL0     H17471  10.404   6.341   3.088  1.9894  0.5728 -2.2890
  127MOL0     H17472  10.444   6.177   3.019 -1.4657 -1.4224 -1.6699
  127MOL0     H17473  10.172   6.304   3.030 -0.7516 -0.6643 -1.6812
  127MOL0     H17474  10.214   6.137   2.981 -0.0138  2.8354 -2.4958
  127MOL0     H17475  10.338   5.967   3.156 -0.4101 -1.1781  1.3164
  127MOL0     H17476  10.365   5.860   3.417  0.6537  0.0444  0.8457
  127MOL0     H17477  10.188   5.814   3.424  2.0955 -0.7274 -0.2769
  127MOL0     H17478  10.346   5.976   3.615 -1.9679  3.2908 -0.8936
  127MOL0     H17479  10.171   5.985   3.606 -0.0604  0.5995 -1.4067
  127MOL0     H17480  10.229   5.819   3.767 -3.3359  0.1460  0.1689
  127MOL0     H17481  10.161   5.725   3.629  1.5414 -0.4714 -1.3471
  127MOL0     H17482  10.355   5.611   3.723  2.9316 -1.1154 -2.5679
  127MOL0     H17483  10.364   5.666   3.551 -0.6279 -3.4588 -0.5967
  127MOL0     H17484  10.521   5.515   3.567  2.9298 -3.3650 -4.3205
  127MOL0     H17485  10.788   5.347   3.499  0.9817  2.9224  0.1667
  127MOL0     H17486  10.740   5.424   3.341 -1.2863 -1.1117 -0.7418
  127MOL0     H17487  10.619   5.365   3.454 -0.2538  1.5445  0.1025
  127MOL0     H17488  11.256   5.852   3.472 -0.4502  0.7535 -2.8968
  127MOL0     H17489  11.484   5.842   3.353  2.4475 -0.8215 -0.3082
  127MOL0     H17490  11.651   5.640   3.029 -1.0531  0.1489 -2.2477
  127MOL0     H17491  11.479   5.582   3.038 -3.4225  0.5219  1.8113
  127MOL0     H17492  11.397   5.794   3.073  0.3202  1.3888  1.0174
  127MOL0     H17493  11.562   5.857   3.127 -0.2690 -2.1229  2.9570
  127MOL0     H17494  11.631   5.843   2.878  0.0570 -3.7952  0.8660
  127MOL0     H17495  11.505   5.956   2.924  0.5596  0.9928 -0.5751
  127MOL0     H17496  11.343   5.796   2.836  2.5173  0.3252  3.0823
  127MOL0     H17497  11.479   5.680   2.796  2.2933 -0.0171 -0.2587
  127MOL0     H17498  11.414   5.967   2.696 -2.6267 -0.6646 -2.0554
  127MOL0     H17499  11.545   5.872   2.628 -0.1633 -3.9926 -0.8940
  127MOL0     H17500  11.271   5.741   2.631 -1.6713  2.8166 -1.1591
  127MOL0     H17501  11.421   5.690   2.542 -1.4163 -2.2134 -0.2958
  127MOL0     H17502  11.419   5.892   2.410  1.4576 -3.0340  0.9585
  127MOL0     H17503  11.252   5.932   2.470 -1.1651  0.1258 -3.1255
  127MOL0     H17504  11.296   5.665   2.339  1.0537  0.4900  1.6326
  127MOL0     H17505  11.248   5.818   2.255 -0.4857  0.2566 -0.3551
  127MOL0     H17506  11.369   5.441   3.231 -3.0462  0.1559 -0.1123
  127MOL0     H17507  11.188   5.447   3.371  0.4539  0.4178  1.7179
  127MOL0     H17508  10.919   5.809   3.623 -1.7535  1.2438 -1.8350
  127MOL0     H17509  10.715   5.870   3.707  2.1324 -0.2238 -0.3859
  127MOL0     H17510  10.506   6.653   2.029  0.9316 -0.7785  1.1163
  127MOL0     H17511  10.651   6.749   1.874 -0.6082 -0.9339 -0.0337
  127MOL0     H17512  10.958   7.157   1.790  1.6135  1.8235 -0.9359
  127MOL0     H17513  11.106   7.227   1.640  1.4520 -0.7350  2.0729
  127MOL0     H17514  11.495   7.063   1.442  2.0300 -0.4216  2.4921
  127MOL0     H17515  11.445   6.919   1.532 -1.3302 -2.1378 -2.6361
  127MOL0     H17516  11.257   6.879   1.354  0.3597 -0.3056  1.3561
  127MOL0     H17517  11.426   6.835   1.314  1.1716  1.4088 -0.5971
  127MOL0     H17518  11.311   7.117   1.238  1.6667  0.9617 -0.1344
  127MOL0     H17519  11.469   7.059   1.234 -0.4003 -0.5432  3.0591
  127MOL0     H17520  11.341   7.087   1.015  2.0788 -1.7095 -3.5244
  127MOL0     H17521  11.223   6.958   1.065 -0.0284  0.2894  1.1414
  127MOL0     H17522  11.593   6.805   0.919 -0.4079 -2.1924 -0.5307
  127MOL0     H17523  11.277   6.828   1.604  0.1533 -1.2187  1.0758
  127MOL0     H17524  11.039   6.666   1.765 -1.2091  0.1415  0.3018
  127MOL0     H17525  11.228   6.664   1.754  0.5434  0.3391  0.4636
  127MOL0     H17526  11.148   6.704   1.895 -0.2338 -1.1559 -0.5104
  128MOL0     O17527   7.990   1.290   8.365  0.2260 -0.3134 -0.2577
  128MOL0     C17528   8.090   1.228   8.329 -0.3625 -1.0968  0.2936
  128MOL0     O17529   8.095   1.096   8.301 -0.7015 -0.5206 -0.1964
  128MOL0     C17530   8.013   1.011   8.358 -0.4282 -0.8979 -0.7439
  128MOL0     C17531   7.876   1.003   8.325  0.0315 -0.1266  0.5346
  128MOL0     C17532   7.793   0.908   8.371  0.0855 -0.1709 -0.5764
  128MOL0     C17533   7.845   0.804   8.447 -0.6721  0.5157 -0.0286
  128MOL0     O17534   7.775   0.716   8.524 -0.0348  0.5371 -0.4830
  128MOL0     C17535   7.636   0.720   8.519 -0.4110  0.1569 -0.8911
  128MOL0     C17536   7.581   0.596   8.587  0.6230 -0.6345 -0.5185
  128MOL0     C17537   7.436   0.579   8.554 -0.0307  0.2556  0.3028
  128MOL0     C17538   7.342   0.646   8.656 -0.7689 -0.3819 -0.7405
  128MOL0     C17539   7.205   0.576   8.664 -1.0655  1.3888  1.1797
  128MOL0     C17540   7.129   0.630   8.778 -0.1897  0.0321 -0.8446
  128MOL0     C17541   7.100   0.781   8.783 -0.0779  0.6442  0.1451
  128MOL0     C17542   7.010   0.817   8.667 -0.2968 -0.4609  0.1469
  128MOL0     N17543   6.944   0.950   8.692  0.0006 -0.5190  0.3006
  128MOL0     C17544   6.843   0.976   8.778 -0.4553 -0.2963 -0.6005
  128MOL0     C17545   6.800   1.099   8.741  0.2950 -0.0411 -0.1068
  128MOL0     C17546   6.692   1.177   8.807 -0.7114  1.2925 -0.0986
  128MOL0     C17547   6.558   1.109   8.795 -0.6866  0.5370  0.1172
  128MOL0     C17548   6.439   1.191   8.857  0.0022  0.9065 -0.6417
  128MOL0     C17549   6.467   1.296   8.965  0.6271 -0.0319  0.8100
  128MOL0     O17550   6.345   1.362   8.994  0.1135  0.2980 -0.1725
  128MOL0     C17551   6.335   1.455   9.093  1.2864  0.3588  0.1309
  128MOL0     C17552   6.430   1.484   9.186  0.3788  1.0993  0.0157
  128MOL0     C17553   6.407   1.566   9.297  1.1196 -1.0531 -0.2720
  128MOL0     C17554   6.520   1.567   9.396 -0.0298 -0.3732  0.7456
  128MOL0     C17555   6.274   1.618   9.320 -0.2867  0.4862  0.6152
  128MOL0     C17556   6.245   1.704   9.430  0.9809  0.1851 -1.1148
  128MOL0     O17557   6.112   1.750   9.443 -0.1885  0.3758  0.1978
  128MOL0     C17558   6.068   1.840   9.535 -0.3573  0.7249  0.1959
  128MOL0     C17559   6.123   1.964   9.559 -0.7183 -0.9334 -0.4040
  128MOL0     C17560   6.075   2.065   9.646  0.1579  0.3113 -0.4342
  128MOL0     C17561   5.955   2.037   9.714 -0.6452  0.3813 -1.1811
  128MOL0     O17562   5.903   2.136   9.793  0.1189 -0.1340  0.2723
  128MOL0     C17563   5.766   2.127   9.848 -1.1951 -0.2135 -0.2958
  128MOL0     C17564   5.661   2.157   9.734 -0.1852 -0.6763 -0.4000
  128MOL0     C17565   5.627   2.307   9.712  0.3128 -0.3437 -0.6092
  128MOL0     C17566   5.487   2.329   9.656 -0.4145 -0.6137  0.2157
  128MOL0     C17567   5.468   2.464   9.580 -0.0262 -0.0982  0.4322
  128MOL0     C17568   5.503   2.586   9.674  0.3813  0.1227  0.2183
  128MOL0     C17569   5.507   2.715   9.602 -0.6689 -1.0865 -0.3330
  128MOL0     C17570   5.587   2.820   9.685 -0.0553  0.0894 -0.2538
  128MOL0    Cl17571   5.538   2.973   9.614  0.1673 -0.8657  0.4182
  128MOL0     C17572   5.892   1.907   9.690  0.1961  0.0025  0.4339
  128MOL0     C17573   5.948   1.814   9.602  0.5394 -0.0199 -1.1124
  128MOL0     O17574   6.329   1.732   9.516  0.9881  0.2066 -0.0219
  128MOL0     C17575   6.174   1.589   9.219 -1.0857  0.2879 -0.4379
  128MOL0     C17576   6.209   1.514   9.110  0.3796 -0.3067  0.1558
  128MOL0     N17577   6.880   1.155   8.641 -0.2087 -0.3128 -0.2075
  128MOL0     N17578   6.971   1.071   8.629 -0.0450  0.1731  0.7139
  128MOL0     C17579   7.981   0.797   8.477 -0.4133  0.1384  0.2021
  128MOL0     C17580   8.067   0.900   8.432 -0.2109 -0.6636  0.3253
  128MOL0     C17581   8.199   1.321   8.292 -0.9741 -0.5558  0.4997
  128MOL0     C17582   8.279   1.283   8.181 -0.2285 -0.2068 -1.1395
  128MOL0     C17583   8.390   1.361   8.141 -1.2597 -2.0091 -0.1319
  128MOL0     C17584   8.420   1.478   8.210  1.1443 -0.1129 -0.3110
  128MOL0     O17585   8.521   1.567   8.175 -0.6722  0.7606 -0.5429
  128MOL0     C17586   8.477   1.686   8.109  0.3298  0.8381  0.3883
  128MOL0     C17587   8.598   1.764   8.064 -0.6675 -0.4756  0.2970
  128MOL0     C17588   8.684   1.800   8.177  0.0465 -0.3108 -0.0012
  128MOL0     C17589   8.720   1.950   8.202  0.7856 -0.4378 -0.9309
  128MOL0     C17590   8.596   2.024   8.196 -0.6036  1.2518 -0.3365
  128MOL0     C17591   8.490   2.085   8.189  0.0058  1.1638 -0.4075
  128MOL0     C17592   8.334   1.516   8.314  0.1820  0.3772 -0.5135
  128MOL0     C17593   8.225   1.439   8.354  0.2512  0.1942  0.8712
  128MOL0     C17594   8.155   1.484   8.486 -0.1478 -0.2205  0.6150
  128MOL0     H17595   7.832   1.084   8.268  0.3481 -0.8280 -0.7394
  128MOL0     H17596   7.688   0.926   8.349  0.1024  1.2986  0.3777
  128MOL0     H17597   7.611   0.696   8.415  0.6796  0.7197 -1.2995
  128MOL0     H17598   7.590   0.812   8.557 -0.5770 -1.5819  3.8838
  128MOL0     H17599   7.641   0.509   8.561 -0.1412 -1.8679  1.5972
  128MOL0     H17600   7.592   0.598   8.696 -1.3013  1.3033 -0.2954
  128MOL0     H17601   7.413   0.615   8.453 -2.4463  0.2227  0.7965
  128MOL0     H17602   7.427   0.470   8.550 -0.3584  0.3103 -2.4160
  128MOL0     H17603   7.388   0.638   8.755  3.0765  1.0578 -2.2225
  128MOL0     H17604   7.338   0.749   8.620 -4.2570 -0.4206 -0.8553
  128MOL0     H17605   7.215   0.467   8.671  0.0271  1.4981  1.5302
  128MOL0     H17606   7.151   0.605   8.574 -2.5472  0.8384  1.8490
  128MOL0     H17607   7.030   0.586   8.783 -0.3264  0.4104  0.1323
  128MOL0     H17608   7.182   0.602   8.870  2.0111  0.2512 -1.9683
  128MOL0     H17609   7.193   0.840   8.780 -0.0733  0.6439  0.2878
  128MOL0     H17610   7.048   0.804   8.877  0.3139 -0.3917  0.6342
  128MOL0     H17611   7.070   0.816   8.576  0.5498 -2.9752  0.6362
  128MOL0     H17612   6.928   0.745   8.651 -0.9815  0.5922 -1.2192
  128MOL0     H17613   6.780   0.918   8.844 -1.4500  1.1713 -0.1980
  128MOL0     H17614   6.679   1.277   8.765  1.3274  0.6571 -2.4955
  128MOL0     H17615   6.726   1.192   8.910 -0.4579  1.2554 -0.1758
  128MOL0     H17616   6.550   1.103   8.686  0.3611  1.5583 -0.0281
  128MOL0     H17617   6.545   1.009   8.837 -1.8250  1.3804  1.9433
  128MOL0     H17618   6.406   1.247   8.769  0.7313  0.3547 -1.2864
  128MOL0     H17619   6.362   1.127   8.900  1.1403  0.4891  0.8494
  128MOL0     H17620   6.507   1.235   9.046 -4.0131 -0.8695  2.8386
  128MOL0     H17621   6.544   1.370   8.943 -1.6483  1.5148 -3.0595
  128MOL0     H17622   6.527   1.436   9.178  0.4531 -0.5790  6.1194
  128MOL0     H17623   6.613   1.525   9.356  1.3664  2.4417  0.7977
  128MOL0     H17624   6.492   1.509   9.484  1.5020 -1.7457  0.3848
  128MOL0     H17625   6.552   1.669   9.416 -1.1059 -0.2601  1.9709
  128MOL0     H17626   6.202   2.007   9.498 -1.0942  0.6512  0.1631
  128MOL0     H17627   6.133   2.156   9.659  1.1527 -0.4600  0.6878
  128MOL0     H17628   5.756   2.025   9.887  1.3668 -0.4505 -0.0482
  128MOL0     H17629   5.755   2.195   9.933  1.1524  1.1854 -0.9979
  128MOL0     H17630   5.693   2.113   9.639  3.2512  0.3358  0.1493
  128MOL0     H17631   5.573   2.099   9.764  0.3387 -1.4914 -0.4015
  128MOL0     H17632   5.694   2.350   9.637 -0.4309  1.8892 -0.0794
  128MOL0     H17633   5.639   2.369   9.801 -0.7357 -0.5723 -0.2903
  128MOL0     H17634   5.413   2.320   9.736 -0.6000 -2.8728 -0.1495
  128MOL0     H17635   5.449   2.248   9.594 -4.1029  0.5901  0.6826
  128MOL0     H17636   5.527   2.458   9.488  1.0648 -0.4421  1.1284
  128MOL0     H17637   5.364   2.454   9.548 -0.2060  0.0442  0.9623
  128MOL0     H17638   5.591   2.566   9.735  0.3375  0.4177  0.3756
  128MOL0     H17639   5.432   2.598   9.756  0.3702  0.2522  0.1896
  128MOL0     H17640   5.409   2.756   9.578  0.2819  1.5165 -0.0625
  128MOL0     H17641   5.568   2.706   9.511  1.3646 -0.5818  0.9019
  128MOL0     H17642   5.695   2.806   9.677  0.0926  0.9079  0.2239
  128MOL0     H17643   5.544   2.832   9.785 -1.6452  4.7243 -1.2351
  128MOL0     H17644   5.798   1.883   9.737  1.0293  1.2748  2.9383
  128MOL0     H17645   5.893   1.721   9.594  0.0964 -0.0391  1.4181
  128MOL0     H17646   6.075   1.632   9.227 -0.2456  2.2343  0.0289
  128MOL0     H17647   6.122   1.503   9.045  0.8546 -2.0027 -0.2322
  128MOL0     H17648   8.021   0.713   8.532  1.4752  0.2643 -0.9190
  128MOL0     H17649   8.171   0.890   8.460 -0.0688  0.5466  0.2808
  128MOL0     H17650   8.253   1.193   8.127 -0.1055 -1.3477  0.6142
  128MOL0     H17651   8.430   1.333   8.045  0.4023  0.8386 -0.3602
  128MOL0     H17652   8.419   1.658   8.021 -0.2104 -1.4034  1.3877
  128MOL0     H17653   8.421   1.746   8.182  1.0718 -2.8053  4.3723
  128MOL0     H17654   8.561   1.843   7.998 -1.3527 -2.3761 -1.6952
  128MOL0     H17655   8.657   1.707   7.991 -1.1338 -0.0396 -0.4374
  128MOL0     H17656   8.645   1.756   8.269 -1.2511  0.4336 -0.1695
  128MOL0     H17657   8.782   1.753   8.164  1.7880  2.5900  1.5503
  128MOL0     H17658   8.797   1.999   8.141  3.5669 -0.9233  1.8997
  128MOL0     H17659   8.757   1.976   8.302 -0.4076  2.3516 -1.1195
  128MOL0     H17660   8.395   2.134   8.186 -1.2296 -1.1150 -2.5759
  128MOL0     H17661   8.357   1.604   8.373 -1.0953 -0.5835  1.5464
  128MOL0     H17662   8.109   1.399   8.538 -2.8627  0.0622 -1.1313
  128MOL0     H17663   8.219   1.555   8.540 -0.7610  1.7745 -1.1601
  128MOL0     H17664   8.078   1.555   8.456 -1.7547 -2.1872 -0.1916
  129MOL0     O17665   1.995   0.439  11.470  0.5003  0.4407  0.5450
  129MOL0     C17666   2.030   0.342  11.406  0.2346  0.0532  0.5486
  129MOL0     O17667   2.148   0.278  11.410 -0.1539 -0.3897 -0.1348
  129MOL0     C17668   2.248   0.320  11.498 -0.4854 -0.0999  0.2105
  129MOL0     C17669   2.262   0.450  11.553 -0.9384 -0.5219  0.7078
  129MOL0     C17670   2.362   0.483  11.643 -0.7491  0.3296 -0.3133
  129MOL0     C17671   2.463   0.390  11.667 -0.0436 -0.3305  0.3001
  129MOL0     O17672   2.580   0.412  11.749  0.1835 -0.5208  0.6391
  129MOL0     C17673   2.650   0.542  11.755  0.3035 -0.5809  0.0369
  129MOL0     C17674   2.720   0.564  11.890 -0.4985  0.1655 -0.0386
  129MOL0     C17675   2.863   0.500  11.900  0.0705 -0.3478  0.1006
  129MOL0     C17676   2.861   0.353  11.896  0.4369 -0.0351  0.9308
  129MOL0     C17677   3.006   0.296  11.914  0.3896  0.0305 -0.7188
  129MOL0     C17678   3.116   0.362  11.826  0.3756  0.1254 -0.5034
  129MOL0     C17679   3.256   0.294  11.851  0.0615 -0.1847  0.4765
  129MOL0     C17680   3.351   0.377  11.933  0.1888  0.3758  0.7954
  129MOL0     N17681   3.353   0.363  12.083  0.2255  0.5070  0.0599
  129MOL0     C17682   3.310   0.249  12.150  0.1297 -0.0758 -0.4824
  129MOL0     C17683   3.318   0.279  12.276 -0.2832 -0.7594  1.0040
  129MOL0     C17684   3.298   0.188  12.388  0.4805 -0.2155 -0.5575
  129MOL0     C17685   3.149   0.145  12.404  0.5546  0.1785 -0.3526
  129MOL0     C17686   3.114   0.032  12.307 -0.0289  0.6017  0.3596
  129MOL0     C17687   2.972  -0.022  12.328  0.5590  0.0007  0.0192
  129MOL0     O17688   2.873   0.070  12.271 -0.4185 -0.8039  0.2665
  129MOL0     C17689   2.827   0.035  12.145 -0.8646 -1.1357  0.5033
  129MOL0     C17690   2.901  -0.015  12.037 -0.3013 -0.2482  0.2463
  129MOL0     C17691   2.832  -0.046  11.909  0.1388  0.0340  0.0872
  129MOL0     C17692   2.919  -0.068  11.789  0.0135 -0.4809 -0.3352
  129MOL0     C17693   2.687  -0.044  11.904 -0.5617  0.6708  0.1292
  129MOL0     C17694   2.606  -0.096  11.786  0.3447  0.2065 -0.6637
  129MOL0     O17695   2.658  -0.172  11.687  0.1331 -0.3513 -0.6907
  129MOL0     C17696   2.574  -0.193  11.578 -0.3330 -0.6946 -0.3088
  129MOL0     C17697   2.523  -0.326  11.555 -0.3077 -0.8446 -0.0695
  129MOL0     C17698   2.447  -0.348  11.449 -0.5056 -0.1282  0.6072
  129MOL0     C17699   2.408  -0.242  11.368  0.6280 -0.2857  0.2001
  129MOL0     O17700   2.313  -0.268  11.276  0.7124 -0.5561 -0.1562
  129MOL0     C17701   2.229  -0.162  11.238  0.4446 -0.2498  0.9593
  129MOL0     C17702   2.111  -0.214  11.144  0.8926  0.3250 -0.4922
  129MOL0     C17703   2.151  -0.289  11.017 -0.5902 -0.7194 -0.9507
  129MOL0     C17704   2.045  -0.388  10.969  0.6669 -0.0493 -0.6594
  129MOL0     C17705   2.110  -0.476  10.866 -0.2268 -0.7085 -0.1532
  129MOL0     C17706   2.006  -0.577  10.822  0.1511 -0.1673  0.1637
  129MOL0     C17707   1.956  -0.543  10.677 -0.5163  0.0740 -0.4459
  129MOL0     C17708   2.057  -0.535  10.562  0.0663  0.1153 -0.3883
  129MOL0    Cl17709   2.105  -0.363  10.520 -0.0481  0.0039  0.2864
  129MOL0     C17710   2.467  -0.120  11.384 -0.2722 -0.7722  0.0883
  129MOL0     C17711   2.547  -0.088  11.487 -0.2251 -0.6646 -1.0446
  129MOL0     O17712   2.487  -0.064  11.794 -0.1101 -1.0445 -0.9462
  129MOL0     C17713   2.625  -0.015  12.019 -0.4566 -0.3028  0.1787
  129MOL0     C17714   2.699   0.027  12.126 -0.7808 -0.2253  0.1162
  129MOL0     N17715   3.393   0.399  12.292 -0.2791 -0.3718  0.5703
  129MOL0     N17716   3.418   0.444  12.174  0.0353 -0.0145  0.3198
  129MOL0     C17717   2.458   0.255  11.617 -0.4440 -0.6115 -0.4704
  129MOL0     C17718   2.352   0.224  11.526 -0.8959 -0.7776 -1.0836
  129MOL0     C17719   1.945   0.307  11.285  0.5640 -0.8310  0.4908
  129MOL0     C17720   1.998   0.241  11.171  0.0983  0.2163 -0.6024
  129MOL0     C17721   1.923   0.192  11.061  0.3068 -0.1548 -0.3314
  129MOL0     C17722   1.788   0.216  11.047  0.1411 -1.0483  0.6297
  129MOL0     O17723   1.721   0.174  10.938  0.2690  0.0334 -0.2526
  129MOL0     C17724   1.597   0.101  10.978 -0.8005 -0.2944  0.5338
  129MOL0     C17725   1.485   0.161  10.901  0.3874  0.4916  0.0083
  129MOL0     C17726   1.341   0.151  10.972  0.2783 -0.1300  0.2484
  129MOL0     C17727   1.233   0.244  10.926  0.4681  0.6501  0.4112
  129MOL0     C17728   1.221   0.241  10.774 -0.1412 -0.1798  0.2213
  129MOL0     C17729   1.211   0.235  10.651  0.1286  2.0165  0.2506
  129MOL0     C17730   1.729   0.284  11.158  0.7123  0.2688 -0.5924
  129MOL0     C17731   1.803   0.333  11.269 -0.4971  0.7917 -1.0300
  129MOL0     C17732   1.718   0.396  11.382 -0.2745  0.4621 -0.1738
  129MOL0     H17733   2.192   0.530  11.533  0.8688  1.0467  0.3270
  129MOL0     H17734   2.372   0.577  11.695 -2.0762  0.5653 -0.4349
  129MOL0     H17735   2.576   0.622  11.746 -0.5308 -1.2437  0.6913
  129MOL0     H17736   2.725   0.559  11.678  1.0057  0.7408  0.9852
  129MOL0     H17737   2.745   0.670  11.902  1.0830 -0.1336 -0.5066
  129MOL0     H17738   2.657   0.549  11.978  0.5647 -1.7957  0.4431
  129MOL0     H17739   2.915   0.535  11.810 -0.8750  0.8322 -0.0133
  129MOL0     H17740   2.920   0.543  11.983  1.3206  0.4799 -1.1501
  129MOL0     H17741   2.791   0.300  11.962 -2.9602  0.3390 -2.0325
  129MOL0     H17742   2.821   0.327  11.797 -0.2211  3.5088  0.1263
  129MOL0     H17743   3.011   0.188  11.897  1.2491 -0.0450 -0.0662
  129MOL0     H17744   3.035   0.292  12.019  1.0416 -2.3189 -0.9444
  129MOL0     H17745   3.094   0.345  11.720  2.8911 -1.6286 -0.8287
  129MOL0     H17746   3.130   0.470  11.836  1.3491 -0.2225  3.2103
  129MOL0     H17747   3.312   0.258  11.764  3.6844 -3.3642  3.7741
  129MOL0     H17748   3.242   0.206  11.914  1.5739  1.4983  3.3831
  129MOL0     H17749   3.454   0.359  11.902 -1.0702 -0.8711 -3.2053
  129MOL0     H17750   3.328   0.483  11.919 -0.6910  0.2571  1.2559
  129MOL0     H17751   3.281   0.153  12.108  1.1837 -0.5960 -0.0606
  129MOL0     H17752   3.327   0.239  12.481 -1.0721  0.4595 -0.4129
  129MOL0     H17753   3.354   0.094  12.391 -1.1494 -1.2397 -1.2657
  129MOL0     H17754   3.123   0.118  12.507  1.5374  1.3040  0.2252
  129MOL0     H17755   3.088   0.230  12.371  2.3036  0.4802 -3.0716
  129MOL0     H17756   3.120   0.075  12.207  1.8573  3.1046  1.4370
  129MOL0     H17757   3.183  -0.052  12.318 -0.5967  0.0976  0.1496
  129MOL0     H17758   2.953  -0.122  12.287  2.0427 -0.0903 -0.5054
  129MOL0     H17759   2.953  -0.030  12.435  1.6358 -2.0095  0.0979
  129MOL0     H17760   3.009  -0.016  12.047 -0.3636  0.3833  1.0461
  129MOL0     H17761   2.957  -0.171  11.795 -0.5673 -0.8038 -1.9165
  129MOL0     H17762   3.010  -0.008  11.798 -0.4313  0.0662  0.7778
  129MOL0     H17763   2.871  -0.039  11.696  0.3084  2.1532  0.2560
  129MOL0     H17764   2.552  -0.413  11.613 -0.9799 -0.8914  0.2036
  129MOL0     H17765   2.405  -0.445  11.430 -0.0669 -0.2377  0.1798
  129MOL0     H17766   2.191  -0.112  11.327  0.0369  0.1916  0.5484
  129MOL0     H17767   2.280  -0.088  11.175 -3.8259  0.6638 -1.9277
  129MOL0     H17768   2.042  -0.278  11.200 -0.6066  1.6498 -0.7785
  129MOL0     H17769   2.049  -0.133  11.105 -2.1797 -2.0843 -1.0724
  129MOL0     H17770   2.252  -0.329  11.032  0.0960  0.0180 -3.0920
  129MOL0     H17771   2.181  -0.220  10.937  0.0189  1.6381  1.1917
  129MOL0     H17772   1.968  -0.324  10.924  2.4404  2.4569 -0.3596
  129MOL0     H17773   2.001  -0.442  11.054 -1.0133 -0.0406 -1.4753
  129MOL0     H17774   2.143  -0.409  10.786  0.7018 -0.3140  0.5390
  129MOL0     H17775   2.198  -0.525  10.911 -0.7601 -2.2473 -0.7187
  129MOL0     H17776   1.916  -0.579  10.884  0.1501 -0.0414  0.1663
  129MOL0     H17777   2.050  -0.676  10.808  0.0171 -0.4146  1.3608
  129MOL0     H17778   1.889  -0.458  10.689  0.5573  1.4769 -3.4916
  129MOL0     H17779   1.895  -0.630  10.649  0.5664 -0.7580 -0.3027
  129MOL0     H17780   2.016  -0.573  10.468 -1.5699  1.8148 -0.4304
  129MOL0     H17781   2.146  -0.592  10.588  1.0498  1.7913  0.0415
  129MOL0     H17782   2.441  -0.044  11.310  1.4674 -1.9300 -1.8427
  129MOL0     H17783   2.590   0.008  11.513  2.6289 -1.6864 -1.6391
  129MOL0     H17784   2.519  -0.037  12.028 -0.1006 -1.5392  1.7664
  129MOL0     H17785   2.637   0.053  12.211  2.5128 -0.3998  2.7488
  129MOL0     H17786   2.535   0.184  11.643  0.2563 -0.4688 -1.9956
  129MOL0     H17787   2.338   0.122  11.492  1.3148 -1.0688 -1.2484
  129MOL0     H17788   2.102   0.213  11.155 -0.1184 -1.5895  0.8459
  129MOL0     H17789   1.975   0.147  10.976  0.3731 -1.0146  0.1486
  129MOL0     H17790   1.620  -0.004  10.961 -0.8911 -0.2349  0.0166
  129MOL0     H17791   1.573   0.094  11.084  0.9924 -3.2588  0.8557
  129MOL0     H17792   1.473   0.131  10.797  0.7663 -0.9774  0.3576
  129MOL0     H17793   1.517   0.264  10.919  1.8929 -0.2776  2.1983
  129MOL0     H17794   1.290   0.054  10.968 -2.5647  1.2265  0.7416
  129MOL0     H17795   1.352   0.161  11.081 -0.8454  1.3965  0.2653
  129MOL0     H17796   1.236   0.348  10.959 -2.7038  0.8938  0.3172
  129MOL0     H17797   1.140   0.210  10.973 -1.2484  0.8315 -2.6055
  129MOL0     H17798   1.216   0.221  10.545 -2.2574  1.5199  0.1417
  129MOL0     H17799   1.621   0.290  11.161  0.6060  1.8036 -3.4770
  129MOL0     H17800   1.616   0.420  11.352 -0.0019  4.3067  1.4115
  129MOL0     H17801   1.703   0.320  11.458 -1.6466 -0.0777 -0.9477
  129MOL0     H17802   1.767   0.489  11.414 -0.7681  0.6725 -0.0239
  130MOL0     O17803   0.906   0.338   9.867 -0.4179  0.5342 -0.5861
  130MOL0     C17804   0.951   0.439   9.923  0.3426  0.0859 -0.0987
  130MOL0     O17805   1.064   0.498   9.891  0.4908  0.1451  0.2742
  130MOL0     C17806   1.159   0.448   9.808  0.1005 -1.1524 -0.0573
  130MOL0     C17807   1.275   0.523   9.818 -1.0519 -0.6339 -0.4389
  130MOL0     C17808   1.380   0.490   9.732  0.2449 -0.5849 -0.0738
  130MOL0     C17809   1.371   0.390   9.634  0.8593 -0.3306 -0.2277
  130MOL0     O17810   1.489   0.367   9.558  0.6176  0.0472 -0.3931
  130MOL0     C17811   1.484   0.277   9.455  0.4005  0.9792  0.1805
  130MOL0     C17812   1.616   0.293   9.376 -0.6551  0.3615 -0.1602
  130MOL0     C17813   1.614   0.185   9.260 -0.2213  0.1916  0.4471
  130MOL0     C17814   1.758   0.144   9.204 -0.1008  0.4632 -1.0782
  130MOL0     C17815   1.819   0.259   9.132  0.7237 -0.4939 -0.4345
  130MOL0     C17816   1.940   0.224   9.054  0.3428  0.4560  0.8117
  130MOL0     C17817   1.918   0.140   8.932 -0.6591  1.1906  0.5549
  130MOL0     C17818   2.046   0.097   8.856 -0.0370 -0.1805  0.5003
  130MOL0     N17819   2.015  -0.029   8.782 -0.3772 -0.2080  0.1430
  130MOL0     C17820   2.032  -0.151   8.835  0.1995  0.0230 -0.6042
  130MOL0     C17821   2.015  -0.238   8.739 -1.0984 -1.2634  0.1563
  130MOL0     C17822   2.020  -0.390   8.750  0.2861 -0.4244  0.0751
  130MOL0     C17823   1.884  -0.458   8.748  0.3467 -0.0529 -0.8862
  130MOL0     C17824   1.785  -0.393   8.849  0.1421  0.0394  0.6607
  130MOL0     C17825   1.652  -0.469   8.854  0.2254  0.1252  0.2554
  130MOL0     O17826   1.662  -0.589   8.922 -0.0776  0.0531  0.4149
  130MOL0     C17827   1.551  -0.610   9.003 -0.3152 -0.5057 -0.7054
  130MOL0     C17828   1.543  -0.563   9.134  0.6959  0.0068 -0.3982
  130MOL0     C17829   1.445  -0.620   9.225 -0.0788  0.2738 -0.8054
  130MOL0     C17830   1.465  -0.575   9.364 -0.0700 -0.3464  0.1761
  130MOL0     C17831   1.345  -0.705   9.180  0.0426  0.0770  0.0927
  130MOL0     C17832   1.225  -0.756   9.255  0.1053 -0.1538 -0.4669
  130MOL0     O17833   1.205  -0.887   9.244  0.1751  0.0819  0.9060
  130MOL0     C17834   1.110  -0.948   9.313 -0.6031  0.3711  0.7313
  130MOL0     C17835   1.145  -1.010   9.436  0.2221 -0.0653 -0.4865
  130MOL0     C17836   1.044  -1.082   9.501  0.4030 -0.1588 -0.5030
  130MOL0     C17837   0.906  -1.070   9.458  0.5913 -0.6337 -0.3901
  130MOL0     O17838   0.800  -1.129   9.518 -0.1365  0.4809 -0.1580
  130MOL0     C17839   0.803  -1.121   9.662 -0.0381  0.3551 -0.2031
  130MOL0     C17840   0.770  -0.981   9.712  0.9204 -0.2196  0.4777
  130MOL0     C17841   0.776  -0.964   9.862  0.3477 -0.7382 -0.6936
  130MOL0     C17842   0.920  -0.935   9.910  0.9454  0.1747 -0.2718
  130MOL0     C17843   0.914  -0.859  10.045 -0.1602  0.0243  0.5995
  130MOL0     C17844   1.046  -0.817  10.100  0.4242  1.3089  0.0730
  130MOL0     C17845   1.145  -0.930  10.137  0.5562 -0.4552 -0.2013
  130MOL0     C17846   1.260  -0.933  10.039  0.6179  0.0157  0.3906
  130MOL0    Cl17847   1.386  -1.036  10.109  0.5047  0.6373  0.4879
  130MOL0     C17848   0.878  -1.008   9.341  0.2072  0.2007 -0.1739
  130MOL0     C17849   0.981  -0.952   9.265 -0.8429 -0.2908  0.2056
  130MOL0     O17850   1.154  -0.681   9.323 -0.7618 -0.2190 -0.0200
  130MOL0     C17851   1.350  -0.753   9.049  0.6394  0.2570 -0.0441
  130MOL0     C17852   1.450  -0.701   8.960  0.2362  0.1943  0.3586
  130MOL0     N17853   2.009  -0.165   8.625  0.9197 -0.1968  0.2885
  130MOL0     N17854   2.032  -0.038   8.650 -0.4440 -0.2263  0.2407
  130MOL0     C17855   1.250   0.327   9.618 -0.2030 -0.8530 -0.7548
  130MOL0     C17856   1.151   0.353   9.705 -0.0823 -0.3900 -0.5565
  130MOL0     C17857   0.878   0.486  10.043  0.0203  0.1801 -0.5374
  130MOL0     C17858   0.956   0.559  10.135 -0.3746 -0.3739 -0.3748
  130MOL0     C17859   0.904   0.618  10.242  0.1893  0.1456 -0.8682
  130MOL0     C17860   0.767   0.613  10.276 -0.6904  0.0218 -0.3346
  130MOL0     O17861   0.714   0.673  10.381 -0.3761  0.1841  0.4982
  130MOL0     C17862   0.732   0.608  10.508 -0.7335 -0.1780 -0.6414
  130MOL0     C17863   0.699   0.710  10.616 -0.6617  0.3437  0.7881
  130MOL0     C17864   0.650   0.647  10.747 -0.5886  0.6211 -1.1116
  130MOL0     C17865   0.674   0.732  10.867 -0.1058 -0.5299 -0.4069
  130MOL0     C17866   0.595   0.859  10.854  0.0326 -0.0484  0.7137
  130MOL0     C17867   0.530   0.956  10.821  0.1108 -0.7470  0.2519
  130MOL0     C17868   0.687   0.546  10.192  0.5532 -0.9287 -0.3889
  130MOL0     C17869   0.736   0.483  10.073 -0.2355 -0.7581 -0.0871
  130MOL0     C17870   0.640   0.407   9.997  0.3296  0.0608  0.2352
  130MOL0     H17871   1.295   0.603   9.889 -1.2796  0.4818 -1.5886
  130MOL0     H17872   1.471   0.546   9.750 -1.7423  2.1299  2.5301
  130MOL0     H17873   1.400   0.296   9.388  1.9536 -2.4868 -3.1436
  130MOL0     H17874   1.470   0.174   9.490  1.4991  1.2390  1.4609
  130MOL0     H17875   1.618   0.393   9.330  2.0978  1.2787  1.7282
  130MOL0     H17876   1.703   0.291   9.441 -0.8503 -0.0334  0.0917
  130MOL0     H17877   1.559   0.098   9.297  0.9462 -1.1082 -0.7380
  130MOL0     H17878   1.550   0.215   9.176 -1.2968 -2.0547  0.3720
  130MOL0     H17879   1.813   0.100   9.287 -2.0408 -0.3581 -0.1631
  130MOL0     H17880   1.736   0.058   9.140 -1.4999 -0.3610  0.4371
  130MOL0     H17881   1.835   0.347   9.195  1.4056  0.5928 -2.0771
  130MOL0     H17882   1.742   0.281   9.058  0.7045 -2.0267 -0.9101
  130MOL0     H17883   1.972   0.317   9.006 -0.4979  0.1198 -0.4451
  130MOL0     H17884   2.024   0.183   9.111  2.4058 -1.3958 -3.2262
  130MOL0     H17885   1.847   0.182   8.860  0.0257  0.8283 -0.3577
  130MOL0     H17886   1.868   0.052   8.973 -1.1249  2.0258  1.8306
  130MOL0     H17887   2.067   0.179   8.786 -2.7386 -0.4637 -0.7756
  130MOL0     H17888   2.131   0.082   8.923 -0.0128 -1.8425  0.1466
  130MOL0     H17889   2.016  -0.182   8.937  0.0123 -0.5463 -0.8063
  130MOL0     H17890   2.062  -0.417   8.848  2.1849 -0.2066 -0.6496
  130MOL0     H17891   2.080  -0.447   8.678 -3.5443 -4.6712 -0.2376
  130MOL0     H17892   1.839  -0.452   8.649 -0.4470 -1.9797 -0.7031
  130MOL0     H17893   1.903  -0.562   8.776  3.2656  0.4573 -0.6612
  130MOL0     H17894   1.832  -0.374   8.946 -0.7371 -2.1444  1.5921
  130MOL0     H17895   1.772  -0.291   8.811  0.9463  0.1488  0.6669
  130MOL0     H17896   1.587  -0.401   8.911 -2.0568 -0.6229 -1.3402
  130MOL0     H17897   1.594  -0.481   8.763 -1.5359  0.9783  1.2005
  130MOL0     H17898   1.621  -0.497   9.169  0.6029 -0.5026  0.8170
  130MOL0     H17899   1.416  -0.644   9.434 -0.0819 -2.2090 -1.5573
  130MOL0     H17900   1.417  -0.478   9.377 -1.2428  0.4106 -6.4082
  130MOL0     H17901   1.574  -0.574   9.378  0.1835 -0.3023 -1.5874
  130MOL0     H17902   1.243  -1.000   9.482 -1.3026 -1.0334  3.3483
  130MOL0     H17903   1.056  -1.136   9.594 -0.9649 -0.9905 -0.7709
  130MOL0     H17904   0.721  -1.190   9.685 -0.3269 -0.4425 -3.1363
  130MOL0     H17905   0.888  -1.172   9.710 -0.2234 -1.2767 -1.5071
  130MOL0     H17906   0.829  -0.905   9.660  2.9086 -2.3954 -0.6337
  130MOL0     H17907   0.663  -0.970   9.695  0.6531 -0.1454  2.0244
  130MOL0     H17908   0.728  -1.042   9.920  0.5559 -0.3314  0.0411
  130MOL0     H17909   0.719  -0.871   9.874 -3.3339 -2.9963  0.8278
  130MOL0     H17910   0.980  -0.876   9.839  3.5028 -1.1231  0.6692
  130MOL0     H17911   0.974  -1.029   9.926 -2.4781 -2.0091 -0.5677
  130MOL0     H17912   0.862  -0.765  10.023 -0.6165 -0.1785  0.8035
  130MOL0     H17913   0.854  -0.911  10.120 -0.6572 -1.1240 -0.5736
  130MOL0     H17914   1.032  -0.771  10.198  3.2397 -0.2028  1.2948
  130MOL0     H17915   1.087  -0.742  10.032 -0.3702  0.9839 -0.8097
  130MOL0     H17916   1.095  -1.026  10.129 -1.6738  0.3384  2.7093
  130MOL0     H17917   1.179  -0.917  10.240 -0.8533 -0.7181  0.3155
  130MOL0     H17918   1.309  -0.837  10.022 -4.2150  3.2275  2.1107
  130MOL0     H17919   1.234  -0.963   9.937  1.5679 -1.6929  0.6007
  130MOL0     H17920   0.781  -0.991   9.296  0.2526  0.0667 -0.3261
  130MOL0     H17921   0.956  -0.910   9.168  0.8756 -0.5447 -0.3857
  130MOL0     H17922   1.273  -0.815   9.004 -1.2522  2.1275  0.4655
  130MOL0     H17923   1.446  -0.751   8.864 -0.8912 -0.8285  0.9115
  130MOL0     H17924   1.234   0.247   9.547 -1.4141 -1.3246  0.0177
  130MOL0     H17925   1.058   0.298   9.695 -0.3830 -0.0480  0.3289
  130MOL0     H17926   1.064   0.563  10.127 -0.3869  0.8906 -0.0221
  130MOL0     H17927   0.975   0.678  10.297 -0.8800  0.6838 -0.0298
  130MOL0     H17928   0.663   0.525  10.524  2.0538 -2.2871  1.6852
  130MOL0     H17929   0.835   0.570  10.517  0.4965  2.5313 -2.1697
  130MOL0     H17930   0.614   0.769  10.579  1.4378  2.9881 -0.1695
  130MOL0     H17931   0.786   0.776  10.625  0.7288 -0.9335 -2.0447
  130MOL0     H17932   0.547   0.611  10.741  0.0562 -1.2787 -1.6463
  130MOL0     H17933   0.705   0.553  10.762 -0.5072  0.5233 -1.9806
  130MOL0     H17934   0.780   0.752  10.886 -0.3622  0.6903 -0.1396
  130MOL0     H17935   0.627   0.678  10.950  3.8295  0.3398  2.7210
  130MOL0     H17936   0.470   1.042  10.799  0.5687 -1.0684 -2.6623
  130MOL0     H17937   0.581   0.542  10.216 -0.0631  0.7458 -2.4798
  130MOL0     H17938   0.635   0.452   9.898  0.6785  0.7393  0.5208
  130MOL0     H17939   0.667   0.301   9.992 -1.2888 -0.5037  2.0266
  130MOL0     H17940   0.536   0.414  10.032  0.5429 -0.0125  0.8972
  131MOL0     O17941   1.875   4.187   6.293 -0.2884  0.3010 -0.0277
  131MOL0     C17942   1.821   4.269   6.368  0.7703 -0.4158  0.2541
  131MOL0     O17943   1.888   4.344   6.455 -0.0085  0.0324 -0.1768
  131MOL0     C17944   2.018   4.338   6.439  0.3245 -0.0297 -0.2712
  131MOL0     C17945   2.073   4.400   6.327  0.5847  0.6969 -0.3083
  131MOL0     C17946   2.206   4.387   6.303 -0.4141  0.5360 -0.1702
  131MOL0     C17947   2.293   4.327   6.396 -0.1059  0.0056 -0.0331
  131MOL0     O17948   2.431   4.326   6.380 -0.3168 -0.2874  0.2209
  131MOL0     C17949   2.502   4.414   6.293 -0.0190  0.3670 -0.0178
  131MOL0     C17950   2.649   4.410   6.334  0.6441 -1.3871  0.0147
  131MOL0     C17951   2.671   4.509   6.452  0.7106  0.1377 -0.1258
  131MOL0     C17952   2.802   4.497   6.527 -0.1976 -0.9533  0.2512
  131MOL0     C17953   2.930   4.543   6.442  0.1548 -0.6681 -0.2688
  131MOL0     C17954   3.065   4.523   6.516 -1.9140 -0.0686  1.2300
  131MOL0     C17955   3.186   4.621   6.483  0.0851  0.6545  0.0904
  131MOL0     C17956   3.321   4.554   6.515 -0.7343 -0.3527  0.4513
  131MOL0     N17957   3.433   4.646   6.505  0.3818 -0.1467 -0.1648
  131MOL0     C17958   3.489   4.690   6.392 -0.3464  1.5013  0.3649
  131MOL0     C17959   3.579   4.774   6.430 -0.0049 -0.8293 -0.2256
  131MOL0     C17960   3.684   4.824   6.335  0.8117 -0.2205  0.7639
  131MOL0     C17961   3.781   4.935   6.374 -0.0867  0.3785 -0.0928
  131MOL0     C17962   3.701   5.058   6.403 -0.9131 -1.0193 -0.4077
  131MOL0     C17963   3.793   5.182   6.412 -0.0105 -0.3875  0.2020
  131MOL0     O17964   3.868   5.175   6.532 -0.0390 -0.5368  0.2805
  131MOL0     C17965   3.938   5.292   6.560 -0.3066 -0.3934 -0.7525
  131MOL0     C17966   3.964   5.395   6.473 -0.1388 -0.8233  0.4203
  131MOL0     C17967   4.038   5.513   6.520 -0.5225  0.7164  0.0556
  131MOL0     C17968   4.063   5.621   6.418 -0.4270  0.2858  0.3355
  131MOL0     C17969   4.090   5.519   6.658 -0.0558 -0.1446 -0.1570
  131MOL0     C17970   4.165   5.633   6.720  0.5627  0.6600 -0.6557
  131MOL0     O17971   4.186   5.620   6.853  0.3118  0.3852  0.4287
  131MOL0     C17972   4.283   5.700   6.896  0.1325 -0.4404  0.7351
  131MOL0     C17973   4.259   5.833   6.942 -0.1494 -0.4767 -0.1191
  131MOL0     C17974   4.359   5.929   6.975  0.0731  2.0086  0.3433
  131MOL0     C17975   4.486   5.879   6.969  0.2529 -0.1147 -0.4111
  131MOL0     O17976   4.587   5.962   7.002  0.6242 -0.2236 -0.5977
  131MOL0     C17977   4.587   6.091   6.942  0.8064 -0.3598  0.1408
  131MOL0     C17978   4.735   6.136   6.931 -0.0313 -0.2363  0.4431
  131MOL0     C17979   4.738   6.271   6.860 -1.1361  0.0160  0.3563
  131MOL0     C17980   4.889   6.307   6.845  0.1411 -0.1280  0.1365
  131MOL0     C17981   4.914   6.447   6.774  0.3865 -0.2323 -0.6085
  131MOL0     C17982   5.060   6.484   6.803  0.1597 -0.4081 -0.1268
  131MOL0     C17983   5.105   6.622   6.766  0.1642 -0.5125  0.2898
  131MOL0     C17984   5.184   6.614   6.640  0.4806 -0.5491  0.1274
  131MOL0    Cl17985   5.271   6.764   6.609  0.6710 -0.2058  0.1309
  131MOL0     C17986   4.509   5.743   6.937  0.3011 -0.0996  0.9264
  131MOL0     C17987   4.412   5.649   6.907  0.7173 -0.7355 -1.0554
  131MOL0     O17988   4.186   5.734   6.658  0.0083 -0.0077 -0.0627
  131MOL0     C17989   4.077   5.406   6.739  0.3160  0.0424 -0.7611
  131MOL0     C17990   4.001   5.300   6.687  0.3034 -0.7010  0.5906
  131MOL0     N17991   3.562   4.790   6.569  0.4797 -0.6066 -0.1093
  131MOL0     N17992   3.468   4.717   6.616  0.2685  0.2577  0.1803
  131MOL0     C17993   2.236   4.275   6.517 -0.4394 -0.8421 -0.0592
  131MOL0     C17994   2.089   4.290   6.546 -0.0523  0.0597 -1.0496
  131MOL0     C17995   1.669   4.284   6.363  0.5462  0.2545  0.7020
  131MOL0     C17996   1.615   4.307   6.490 -0.1378 -0.3161  0.6496
  131MOL0     C17997   1.476   4.327   6.499  0.6618 -0.9279 -0.1544
  131MOL0     C17998   1.397   4.314   6.385 -0.1508  0.2917 -0.0595
  131MOL0     O17999   1.259   4.335   6.391  0.3533  0.1159  0.1196
  131MOL0     C18000   1.218   4.431   6.500 -0.7142 -0.2880 -0.6925
  131MOL0     C18001   1.076   4.473   6.472  0.4415 -0.0411 -0.0531
  131MOL0     C18002   1.074   4.601   6.392  0.1903 -1.1515 -0.2927
  131MOL0     C18003   0.930   4.645   6.383 -0.0280  0.0753  0.1845
  131MOL0     C18004   0.912   4.752   6.284  0.1095 -0.2460  0.1061
  131MOL0     C18005   0.899   4.845   6.205  0.6619 -0.4956 -1.2459
  131MOL0     C18006   1.454   4.305   6.259  0.2940 -0.0820 -0.2264
  131MOL0     C18007   1.595   4.282   6.246  0.5240 -1.3418  0.8742
  131MOL0     C18008   1.650   4.256   6.105 -0.2931 -0.6129  0.2237
  131MOL0     H18009   2.013   4.431   6.242 -1.8500 -1.9547  0.2701
  131MOL0     H18010   2.245   4.430   6.211  0.3070  1.7791  0.6854
  131MOL0     H18011   2.459   4.514   6.298  0.6528  0.6944 -0.5792
  131MOL0     H18012   2.492   4.387   6.188 -1.9387  1.8230 -0.2472
  131MOL0     H18013   2.677   4.306   6.351  0.8823 -1.7550 -2.2881
  131MOL0     H18014   2.707   4.445   6.248 -2.2113  1.0682 -1.0933
  131MOL0     H18015   2.660   4.609   6.409 -1.9779 -0.0246  0.0234
  131MOL0     H18016   2.592   4.502   6.527  0.5718  0.3180 -0.2559
  131MOL0     H18017   2.793   4.554   6.620 -1.9906 -1.1072  0.2097
  131MOL0     H18018   2.815   4.396   6.567 -2.7764 -0.2863  3.1307
  131MOL0     H18019   2.926   4.649   6.418 -0.7179 -0.7075 -0.3308
  131MOL0     H18020   2.928   4.483   6.350 -1.3157  0.0988 -0.7599
  131MOL0     H18021   3.032   4.540   6.619  0.7619 -1.4109  2.3813
  131MOL0     H18022   3.105   4.423   6.500  0.9252  1.0462  0.7615
  131MOL0     H18023   3.159   4.715   6.530 -0.3175  1.2457 -1.2586
  131MOL0     H18024   3.190   4.628   6.373 -0.6922 -2.2301 -0.2185
  131MOL0     H18025   3.322   4.531   6.622  0.0876 -0.8850  0.3367
  131MOL0     H18026   3.333   4.472   6.445 -2.6636  0.4336 -0.8928
  131MOL0     H18027   3.462   4.653   6.294 -1.9568  0.0109  1.3160
  131MOL0     H18028   3.625   4.858   6.249 -0.5669  1.8668  2.4360
  131MOL0     H18029   3.751   4.744   6.301  3.2117  1.8371  0.3528
  131MOL0     H18030   3.843   4.898   6.456 -0.8304  0.2522  0.4291
  131MOL0     H18031   3.849   4.964   6.293  0.4530  1.5450  0.7446
  131MOL0     H18032   3.633   5.066   6.318  2.3881  0.2898 -3.1695
  131MOL0     H18033   3.654   5.052   6.502 -1.8366  0.2005 -0.7502
  131MOL0     H18034   3.866   5.200   6.333  0.5814  2.2679  1.2214
  131MOL0     H18035   3.712   5.256   6.406 -0.3643 -0.2961  3.6869
  131MOL0     H18036   3.943   5.407   6.367 -2.6618 -1.3946  0.7951
  131MOL0     H18037   3.999   5.701   6.458 -0.7477  0.7845 -1.1272
  131MOL0     H18038   4.029   5.596   6.318 -1.4875  1.5647  0.3450
  131MOL0     H18039   4.170   5.646   6.412  0.0011 -0.1422  3.9112
  131MOL0     H18040   4.153   5.857   6.941 -0.5228 -1.9219 -2.5358
  131MOL0     H18041   4.331   6.029   7.007  0.4633  2.1174  0.3436
  131MOL0     H18042   4.540   6.083   6.843  1.8022  2.1515 -0.6155
  131MOL0     H18043   4.531   6.163   7.002 -0.4589 -1.7307  0.6606
  131MOL0     H18044   4.781   6.148   7.029  1.7849 -0.3548 -0.3635
  131MOL0     H18045   4.800   6.065   6.880  0.2263 -1.0143  1.8144
  131MOL0     H18046   4.671   6.347   6.901 -2.1175 -0.1949 -0.8140
  131MOL0     H18047   4.710   6.258   6.756  0.8750 -1.1655 -0.0928
  131MOL0     H18048   4.948   6.231   6.792 -0.7733 -0.8839  0.1848
  131MOL0     H18049   4.928   6.330   6.944 -0.6065 -2.1347  0.9369
  131MOL0     H18050   4.896   6.449   6.667 -2.4287 -1.8847 -0.2816
  131MOL0     H18051   4.854   6.529   6.814 -0.2741 -0.9304 -0.1159
  131MOL0     H18052   5.121   6.409   6.752  0.8424  0.1778 -0.1874
  131MOL0     H18053   5.096   6.479   6.906 -2.3786  0.5362  0.8988
  131MOL0     H18054   5.165   6.671   6.843  1.8511 -1.5660 -0.2949
  131MOL0     H18055   5.023   6.689   6.738  0.0835 -1.1901 -1.2103
  131MOL0     H18056   5.115   6.590   6.558 -2.2457 -3.3798  2.9809
  131MOL0     H18057   5.258   6.533   6.638 -0.6396 -1.5961  0.1497
  131MOL0     H18058   4.607   5.698   6.930  0.4984  0.5795 -2.8062
  131MOL0     H18059   4.436   5.544   6.895 -1.0343 -1.3835  0.5035
  131MOL0     H18060   4.118   5.400   6.839 -2.7211  1.4432  0.7061
  131MOL0     H18061   3.973   5.205   6.733 -1.5852 -1.4947 -1.9579
  131MOL0     H18062   2.296   4.235   6.598  1.1081  0.0351 -0.7224
  131MOL0     H18063   2.045   4.264   6.642  0.5879  2.2701 -0.0988
  131MOL0     H18064   1.681   4.317   6.576  2.4829 -0.5846 -1.2292
  131MOL0     H18065   1.440   4.351   6.599  1.5604  1.1365 -0.2903
  131MOL0     H18066   1.222   4.390   6.601 -2.1044 -1.0355 -0.9189
  131MOL0     H18067   1.290   4.513   6.501  0.1468 -0.7557 -4.8642
  131MOL0     H18068   1.018   4.490   6.563 -3.7345  0.2848 -2.4855
  131MOL0     H18069   1.016   4.394   6.426 -1.0627  1.7412 -1.3187
  131MOL0     H18070   1.125   4.681   6.447 -2.8637  0.2248  0.7568
  131MOL0     H18071   1.125   4.578   6.298  2.1443  0.8497  0.2097
  131MOL0     H18072   0.891   4.681   6.479  0.6883  0.3101  0.3936
  131MOL0     H18073   0.869   4.561   6.348 -1.3570  0.2577  1.9234
  131MOL0     H18074   0.873   4.941   6.165  1.2638  0.8453  1.3196
  131MOL0     H18075   1.381   4.324   6.181  1.5648  0.8524 -1.2535
  131MOL0     H18076   1.576   4.283   6.029  0.3619  1.2890  0.2042
  131MOL0     H18077   1.742   4.312   6.088 -0.1823 -0.7453  0.3894
  131MOL0     H18078   1.667   4.149   6.086 -0.4661 -0.5580 -0.2725
  132MOL0     O18079   2.954   0.840   2.207  0.1431 -1.0807 -0.2434
  132MOL0     C18080   2.945   0.729   2.254 -0.1776  0.2409 -0.6746
  132MOL0     O18081   2.846   0.635   2.232  0.1507 -0.8043  0.0939
  132MOL0     C18082   2.742   0.644   2.141 -0.2050 -0.3818 -0.3020
  132MOL0     C18083   2.674   0.771   2.120  0.2241 -0.5631  0.5624
  132MOL0     C18084   2.568   0.779   2.026  0.7511  0.3657 -0.0149
  132MOL0     C18085   2.531   0.667   1.954 -0.3297  0.8181  0.0119
  132MOL0     O18086   2.414   0.663   1.883 -0.1853  0.0442  0.5875
  132MOL0     C18087   2.328   0.775   1.858 -0.6991 -0.0396  0.2036
  132MOL0     C18088   2.276   0.746   1.714  0.2350  0.1863  0.0691
  132MOL0     C18089   2.179   0.849   1.654  0.8128  0.6981 -0.3612
  132MOL0     C18090   2.042   0.822   1.723  0.6076  0.0192 -0.1353
  132MOL0     C18091   1.918   0.886   1.646 -0.1949 -0.1885  0.3140
  132MOL0     C18092   1.788   0.899   1.726 -0.0700  0.1035 -0.8760
  132MOL0     C18093   1.787   1.001   1.830 -0.7071 -0.3599 -0.3244
  132MOL0     C18094   1.648   1.038   1.887  0.1172 -0.7031  0.1070
  132MOL0     N18095   1.603   0.927   1.976 -0.1336 -0.4489 -0.4269
  132MOL0     C18096   1.601   0.929   2.112 -0.4868  0.7732  0.7181
  132MOL0     C18097   1.530   0.818   2.147  0.4863 -0.2797  0.9649
  132MOL0     C18098   1.509   0.752   2.286 -0.0119  0.4087 -1.1787
  132MOL0     C18099   1.624   0.662   2.313  0.2074 -1.1081 -0.6677
  132MOL0     C18100   1.634   0.614   2.457  0.4496  1.0090 -1.5901
  132MOL0     C18101   1.696   0.708   2.567  0.3523  0.0730 -0.4030
  132MOL0     O18102   1.832   0.738   2.540  0.2239  0.5289  0.7476
  132MOL0     C18103   1.910   0.777   2.640  0.0288 -1.1431 -0.1019
  132MOL0     C18104   1.872   0.788   2.779 -0.6945 -0.4296  0.5999
  132MOL0     C18105   1.974   0.839   2.868 -0.6040  0.3884  0.0039
  132MOL0     C18106   1.924   0.850   3.016  0.2188 -0.1223  1.3120
  132MOL0     C18107   2.103   0.875   2.823  1.0549 -0.5268 -0.3313
  132MOL0     C18108   2.222   0.922   2.908  0.1638  0.8231  0.6205
  132MOL0     O18109   2.321   0.983   2.846  0.4994  0.0149  0.6837
  132MOL0     C18110   2.426   1.028   2.926 -0.4483  0.0912  0.1891
  132MOL0     C18111   2.429   1.160   2.977 -0.2961 -0.1088  0.2146
  132MOL0     C18112   2.536   1.205   3.067  0.0896  0.3408  0.0599
  132MOL0     C18113   2.639   1.116   3.107  0.1925  0.0408 -0.2922
  132MOL0     O18114   2.746   1.141   3.186 -0.0082 -1.0792  0.7358
  132MOL0     C18115   2.742   1.241   3.281  0.7214 -0.3572 -0.1475
  132MOL0     C18116   2.881   1.263   3.340 -0.8784  0.9798  0.1173
  132MOL0     C18117   2.897   1.384   3.434  0.5462 -0.0515  0.3437
  132MOL0     C18118   3.035   1.440   3.421  0.4955  0.1799 -0.5419
  132MOL0     C18119   3.080   1.525   3.545 -0.0376 -0.0550  0.2589
  132MOL0     C18120   3.225   1.520   3.552 -0.8490 -0.1961 -0.8676
  132MOL0     C18121   3.306   1.616   3.459  0.9075  0.8166 -0.5963
  132MOL0     C18122   3.440   1.639   3.515 -0.1705  0.3125 -0.1310
  132MOL0    Cl18123   3.552   1.696   3.393 -0.1153  0.0480  0.3026
  132MOL0     C18124   2.629   0.988   3.061  0.9102  0.1574 -0.2566
  132MOL0     C18125   2.532   0.944   2.971  1.1007 -0.8173  1.4731
  132MOL0     O18126   2.219   0.885   3.025 -0.1475  0.0032 -0.2772
  132MOL0     C18127   2.129   0.868   2.682 -0.0250 -0.1291  0.8284
  132MOL0     C18128   2.038   0.818   2.597  1.1689 -1.0239  0.0294
  132MOL0     N18129   1.475   0.763   2.033  0.9370  0.3736  0.4380
  132MOL0     N18130   1.520   0.824   1.933  0.2940 -0.0621  0.4217
  132MOL0     C18131   2.594   0.542   1.975  0.0893  0.4834  0.2439
  132MOL0     C18132   2.705   0.529   2.067  0.5840 -0.3717 -0.4335
  132MOL0     C18133   3.052   0.682   2.346 -0.0264  0.2383 -0.5344
  132MOL0     C18134   3.029   0.555   2.404 -0.0724 -0.0997 -0.2248
  132MOL0     C18135   3.123   0.499   2.498  1.3781  0.0103  0.6721
  132MOL0     C18136   3.233   0.577   2.536 -0.2091  0.3273  0.2760
  132MOL0     O18137   3.309   0.515   2.620 -0.2762 -0.0668 -0.4194
  132MOL0     C18138   3.434   0.470   2.567  0.2999  0.5220  0.2433
  132MOL0     C18139   3.419   0.337   2.483 -0.0086 -0.3913  0.3987
  132MOL0     C18140   3.403   0.215   2.572  0.8879 -0.4060 -1.2523
  132MOL0     C18141   3.342   0.096   2.495 -0.0996 -0.0739  0.4755
  132MOL0     C18142   3.445   0.014   2.421 -0.2053 -0.1063 -0.1991
  132MOL0     C18143   3.515  -0.071   2.365  0.5122  0.2026  0.3979
  132MOL0     C18144   3.259   0.705   2.482  1.0585 -0.3506 -0.1431
  132MOL0     C18145   3.171   0.756   2.381 -0.4575  0.0776  0.6446
  132MOL0     C18146   3.198   0.892   2.325 -0.6346  0.6062  0.5535
  132MOL0     H18147   2.707   0.860   2.171 -0.5650 -0.2786  0.5958
  132MOL0     H18148   2.521   0.877   2.024 -0.7373 -0.2939 -2.4832
  132MOL0     H18149   2.383   0.869   1.852 -0.3711 -0.2374 -0.0002
  132MOL0     H18150   2.255   0.777   1.939  0.8049  1.0903  1.5967
  132MOL0     H18151   2.366   0.746   1.651  0.3888  1.8797  0.2363
  132MOL0     H18152   2.245   0.642   1.705 -0.3387  0.3621 -0.0689
  132MOL0     H18153   2.214   0.952   1.659 -1.3414  1.6413 -2.7282
  132MOL0     H18154   2.176   0.841   1.545 -1.7950  1.6694 -0.4368
  132MOL0     H18155   2.015   0.716   1.728  2.7470 -0.5087  1.7488
  132MOL0     H18156   2.056   0.857   1.826  2.4653  1.4101 -0.8006
  132MOL0     H18157   1.893   0.823   1.560 -1.3987  1.6455 -0.7427
  132MOL0     H18158   1.957   0.981   1.610 -1.3624 -0.1576 -0.9766
  132MOL0     H18159   1.715   0.939   1.654  0.4542  0.9184 -0.9671
  132MOL0     H18160   1.749   0.804   1.764  2.2671  0.6698  3.5277
  132MOL0     H18161   1.829   1.097   1.799  0.4939 -0.3486  1.2136
  132MOL0     H18162   1.851   0.984   1.917  0.9126  3.3335 -0.6061
  132MOL0     H18163   1.665   1.132   1.941  2.7917 -0.9525 -0.1757
  132MOL0     H18164   1.578   1.057   1.804  0.5711 -2.6867 -0.7843
  132MOL0     H18165   1.663   0.993   2.173  0.2851  0.9737 -0.2447
  132MOL0     H18166   1.421   0.688   2.274  0.0250  0.3674 -1.2273
  132MOL0     H18167   1.496   0.827   2.364 -2.9288 -0.2012 -0.9879
  132MOL0     H18168   1.602   0.571   2.257 -0.2118 -1.3715 -0.0829
  132MOL0     H18169   1.715   0.705   2.270 -0.7229  1.4586 -0.2708
  132MOL0     H18170   1.534   0.588   2.493  1.6241 -2.8951 -0.6506
  132MOL0     H18171   1.680   0.515   2.463 -2.5974 -0.4543  0.4624
  132MOL0     H18172   1.626   0.792   2.578  1.8582  1.7129 -2.4142
  132MOL0     H18173   1.689   0.650   2.659  2.6991  2.1849  1.2605
  132MOL0     H18174   1.771   0.754   2.798 -1.1018  0.4997  0.1989
  132MOL0     H18175   1.956   0.941   3.068  0.7512  1.4483 -1.5656
  132MOL0     H18176   1.957   0.757   3.064 -0.6384 -0.7342  0.7269
  132MOL0     H18177   1.815   0.857   3.015  0.1751 -0.8680  0.5463
  132MOL0     H18178   2.348   1.231   2.964  0.6683  0.5495 -3.2618
  132MOL0     H18179   2.535   1.299   3.122 -0.0945 -0.2954  1.1883
  132MOL0     H18180   2.714   1.335   3.233  2.2912 -0.4536 -1.3236
  132MOL0     H18181   2.682   1.193   3.360  1.3511  0.8086  1.0770
  132MOL0     H18182   2.910   1.167   3.384  0.6627  0.2998 -2.1975
  132MOL0     H18183   2.952   1.273   3.258 -1.4072 -1.9962 -0.8208
  132MOL0     H18184   2.882   1.350   3.537  3.4965  1.6453  1.4470
  132MOL0     H18185   2.826   1.464   3.412  1.8736  1.4236  1.2269
  132MOL0     H18186   3.045   1.498   3.328  1.3347  1.2252  0.1790
  132MOL0     H18187   3.105   1.356   3.412  0.0283  0.0086 -3.4655
  132MOL0     H18188   3.043   1.627   3.534 -1.1741 -0.5675 -0.9647
  132MOL0     H18189   3.039   1.483   3.637 -1.7351 -2.6605 -1.5487
  132MOL0     H18190   3.271   1.422   3.535 -0.2911  0.2200 -1.8002
  132MOL0     H18191   3.254   1.550   3.653 -3.3008 -0.2972 -0.0526
  132MOL0     H18192   3.264   1.716   3.451  3.5161  2.0985  0.6071
  132MOL0     H18193   3.309   1.579   3.356 -1.4759 -0.1358 -0.3919
  132MOL0     H18194   3.491   1.546   3.541  3.9434  1.8167 -1.8825
  132MOL0     H18195   3.432   1.704   3.602  1.6382 -1.6315  1.5692
  132MOL0     H18196   2.704   0.923   3.103 -2.2882 -0.5873  5.2348
  132MOL0     H18197   2.528   0.841   2.937  0.3752  0.2599 -2.1477
  132MOL0     H18198   2.219   0.894   2.628 -2.6102  1.4914 -3.1280
  132MOL0     H18199   2.046   0.805   2.490 -1.1125  1.0226 -0.4939
  132MOL0     H18200   2.544   0.459   1.927 -0.2409 -0.3555  1.9399
  132MOL0     H18201   2.757   0.438   2.096 -1.0201 -0.6755  1.7587
  132MOL0     H18202   2.945   0.490   2.381 -0.5892  1.0526 -1.7327
  132MOL0     H18203   3.111   0.407   2.554 -1.6344  0.2693  0.6561
  132MOL0     H18204   3.490   0.549   2.515  0.0422  1.9110  1.9880
  132MOL0     H18205   3.501   0.456   2.652  0.7499  1.1184 -0.0074
  132MOL0     H18206   3.502   0.319   2.414  0.1772  1.5612  0.0453
  132MOL0     H18207   3.327   0.351   2.426 -3.1946 -0.7706  4.9240
  132MOL0     H18208   3.500   0.179   2.608  0.2760  0.8189  1.8628
  132MOL0     H18209   3.348   0.251   2.659  1.3264 -0.9193 -0.7505
  132MOL0     H18210   3.260   0.126   2.429  0.8702 -0.7378 -1.0978
  132MOL0     H18211   3.304   0.024   2.568  0.4909 -0.9109 -0.0125
  132MOL0     H18212   3.593  -0.136   2.331  1.7383  1.9702 -0.3592
  132MOL0     H18213   3.351   0.758   2.506  1.5829 -1.0229 -0.6312
  132MOL0     H18214   3.293   0.928   2.366 -1.0070  0.4873  1.5302
  132MOL0     H18215   3.222   0.882   2.219  2.0967  0.9005  1.0499
  132MOL0     H18216   3.116   0.964   2.333 -1.7245 -0.7853  2.9185
  133MOL0     O18217   6.637   5.369   1.030 -0.6940  0.0941  0.0358
  133MOL0     C18218   6.603   5.487   1.029 -0.1064 -0.3553 -0.5554
  133MOL0     O18219   6.473   5.535   1.006 -0.7552 -0.1831  0.2021
  133MOL0     C18220   6.371   5.455   0.955 -0.8944  0.5245 -0.0310
  133MOL0     C18221   6.397   5.346   0.865  0.0299 -0.3032  0.2759
  133MOL0     C18222   6.278   5.290   0.815  0.0226  0.6633  0.1266
  133MOL0     C18223   6.148   5.324   0.855 -0.4115  0.3331  0.5521
  133MOL0     O18224   6.037   5.258   0.803  0.0730 -0.5741 -0.7331
  133MOL0     C18225   6.031   5.245   0.653  0.0006  0.1254 -0.1575
  133MOL0     C18226   5.896   5.176   0.635  0.1101 -0.1139  0.5225
  133MOL0     C18227   5.868   5.161   0.489  0.0857 -1.2071  0.1541
  133MOL0     C18228   5.722   5.132   0.454 -0.6585 -0.1499 -0.6464
  133MOL0     C18229   5.650   5.051   0.570 -0.0057 -0.4918  0.6283
  133MOL0     C18230   5.522   4.987   0.519 -0.2622  0.5857  0.3916
  133MOL0     C18231   5.495   4.848   0.586 -0.8697  0.0351  0.5353
  133MOL0     C18232   5.465   4.841   0.737 -0.5498 -0.6371  0.3302
  133MOL0     N18233   5.350   4.935   0.764 -0.1471  0.4083 -0.1043
  133MOL0     C18234   5.355   5.025   0.865 -0.3184 -0.7350  0.2497
  133MOL0     C18235   5.237   5.094   0.864  0.2405 -0.8954 -0.7325
  133MOL0     C18236   5.190   5.218   0.941  0.2929 -0.1383 -0.2405
  133MOL0     C18237   5.303   5.267   1.030 -0.0369 -0.3324  0.5791
  133MOL0     C18238   5.282   5.403   1.101  0.4089  0.1933  0.6741
  133MOL0     C18239   5.177   5.410   1.216 -0.2450  1.3703 -0.6070
  133MOL0     O18240   5.161   5.539   1.274  0.0012  0.8048 -0.6714
  133MOL0     C18241   5.275   5.588   1.318 -0.6635  0.1791 -0.5271
  133MOL0     C18242   5.322   5.573   1.449 -0.4918 -0.1263  0.1733
  133MOL0     C18243   5.429   5.644   1.504 -0.1263 -0.0177  0.6002
  133MOL0     C18244   5.465   5.620   1.646  0.0246  0.2530 -0.3253
  133MOL0     C18245   5.497   5.738   1.419 -0.6053  0.5439 -0.0054
  133MOL0     C18246   5.618   5.804   1.453 -0.3784 -0.3114 -0.4609
  133MOL0     O18247   5.702   5.854   1.363 -0.8300 -0.5791 -0.1709
  133MOL0     C18248   5.815   5.915   1.400 -0.7620 -0.5385  0.0141
  133MOL0     C18249   5.931   5.849   1.453  0.9264 -0.1902  0.1922
  133MOL0     C18250   6.032   5.923   1.508 -0.1329 -0.1536 -0.5035
  133MOL0     C18251   6.024   6.067   1.527 -0.1413  0.6419  0.0213
  133MOL0     O18252   6.130   6.139   1.582 -0.3131  0.1250 -0.7119
  133MOL0     C18253   6.109   6.186   1.716 -0.4280 -0.3586  0.6261
  133MOL0     C18254   6.224   6.258   1.783 -0.5825 -0.4242 -0.3171
  133MOL0     C18255   6.212   6.279   1.941 -0.2214  0.2313  0.3515
  133MOL0     C18256   6.280   6.168   2.019 -0.4758 -0.5148  0.5413
  133MOL0     C18257   6.321   6.208   2.157 -0.8216  0.0943 -0.2411
  133MOL0     C18258   6.432   6.122   2.223  0.0021  0.5949  0.0314
  133MOL0     C18259   6.504   6.189   2.335 -0.7622 -0.1901  0.5506
  133MOL0     C18260   6.605   6.091   2.392  0.4112 -0.3041  0.0200
  133MOL0    Cl18261   6.670   6.164   2.538  0.5570  0.3346  0.1469
  133MOL0     C18262   5.916   6.124   1.462 -0.1330  0.0833 -0.6315
  133MOL0     C18263   5.824   6.056   1.389 -0.3063 -0.0920 -0.4276
  133MOL0     O18264   5.634   5.827   1.569  0.1568  0.3845  0.5256
  133MOL0     C18265   5.455   5.733   1.279  0.0419  0.5314  0.2771
  133MOL0     C18266   5.346   5.667   1.234  0.2297 -0.8238 -0.1577
  133MOL0     N18267   5.155   5.027   0.766 -0.4371 -0.0043 -0.5507
  133MOL0     N18268   5.228   4.943   0.704 -0.4865 -0.7459  0.3466
  133MOL0     C18269   6.128   5.420   0.954  0.9132  0.8220  0.0405
  133MOL0     C18270   6.242   5.488   1.001  0.9186 -0.4625 -0.9538
  133MOL0     C18271   6.705   5.598   1.042 -0.4661 -0.6735  0.8570
  133MOL0     C18272   6.677   5.716   1.122  0.6266 -0.0061  0.4389
  133MOL0     C18273   6.773   5.810   1.152  0.2416  0.5509 -0.0684
  133MOL0     C18274   6.899   5.796   1.097  0.2837  1.1152 -0.4663
  133MOL0     O18275   7.002   5.879   1.119  0.1514 -0.4958  0.4016
  133MOL0     C18276   7.007   5.982   1.225 -0.8454  0.0389  0.2700
  133MOL0     C18277   7.160   6.020   1.229  0.3554 -0.2471 -0.3029
  133MOL0     C18278   7.205   6.150   1.299  0.7293  0.2839 -0.4124
  133MOL0     C18279   7.236   6.130   1.444 -0.0842 -0.4955  0.0447
  133MOL0     C18280   7.121   6.090   1.528  0.2097 -0.2640 -0.2457
  133MOL0     C18281   7.014   6.054   1.587 -0.6248 -0.1538 -0.0821
  133MOL0     C18282   6.928   5.688   1.019 -0.0577 -0.2192  0.4909
  133MOL0     C18283   6.836   5.590   0.990 -0.6057  0.6780 -0.2370
  133MOL0     C18284   6.880   5.470   0.916 -0.0644 -0.4574 -0.4157
  133MOL0     H18285   6.497   5.308   0.851 -0.0592 -0.6663  0.5796
  133MOL0     H18286   6.285   5.205   0.748 -0.0057 -0.1440  1.1366
  133MOL0     H18287   6.105   5.172   0.620  0.3967 -0.5405  2.0597
  133MOL0     H18288   6.046   5.337   0.596 -0.1029 -0.2046 -0.7163
  133MOL0     H18289   5.898   5.073   0.673  0.3269  0.1224  1.1534
  133MOL0     H18290   5.816   5.236   0.678 -1.3848 -1.7517  0.1560
  133MOL0     H18291   5.894   5.256   0.442  1.1069 -2.4980 -2.0758
  133MOL0     H18292   5.930   5.087   0.437  1.4241 -0.2989  0.4141
  133MOL0     H18293   5.679   5.232   0.468 -0.7763 -0.6278  3.6300
  133MOL0     H18294   5.721   5.094   0.351 -1.9404 -2.1052  0.0363
  133MOL0     H18295   5.630   5.107   0.662 -0.9707 -0.1360  0.2079
  133MOL0     H18296   5.722   4.977   0.607  0.5177  1.6637  4.5133
  133MOL0     H18297   5.444   5.058   0.549 -2.0224 -1.7170  1.6078
  133MOL0     H18298   5.518   4.965   0.412 -1.9188 -0.7285  0.6697
  133MOL0     H18299   5.592   4.800   0.569  0.8372  2.6640  2.1878
  133MOL0     H18300   5.419   4.795   0.527  0.3018 -2.9030  1.4931
  133MOL0     H18301   5.439   4.741   0.771  0.2958 -1.7803 -2.1698
  133MOL0     H18302   5.545   4.886   0.796 -2.3647  0.2380  2.2633
  133MOL0     H18303   5.447   5.053   0.916 -0.0417 -0.5148 -0.3663
  133MOL0     H18304   5.110   5.174   1.001 -1.3410  0.4714 -1.8677
  133MOL0     H18305   5.155   5.300   0.877  2.4565  1.1278  0.0983
  133MOL0     H18306   5.313   5.192   1.109  1.1530  1.3001  2.0423
  133MOL0     H18307   5.399   5.266   0.978  0.4783 -0.0477  1.5127
  133MOL0     H18308   5.383   5.431   1.134  1.9418 -2.5355 -1.2674
  133MOL0     H18309   5.260   5.475   1.022  1.1315  0.7186  0.9358
  133MOL0     H18310   5.082   5.365   1.186 -0.5540  1.5389  0.1125
  133MOL0     H18311   5.208   5.346   1.299 -4.2823 -0.4020 -0.2307
  133MOL0     H18312   5.252   5.521   1.513 -0.3161 -0.1198  0.3722
  133MOL0     H18313   5.404   5.536   1.679  1.2742 -0.5056  0.1077
  133MOL0     H18314   5.438   5.698   1.718  0.5550 -2.2864  2.8196
  133MOL0     H18315   5.571   5.598   1.660 -0.3458 -0.5892  1.3738
  133MOL0     H18316   5.943   5.741   1.448 -1.3070 -0.4655 -0.4089
  133MOL0     H18317   6.109   5.867   1.560 -0.7601  0.8020  1.5909
  133MOL0     H18318   6.021   6.249   1.699 -1.0528 -2.2274 -4.8168
  133MOL0     H18319   6.086   6.100   1.780 -1.3671  1.5900  3.0797
  133MOL0     H18320   6.322   6.224   1.750  0.4346  2.1807 -0.1721
  133MOL0     H18321   6.219   6.351   1.725  2.4114 -1.1942 -2.0252
  133MOL0     H18322   6.105   6.280   1.967 -0.0294 -1.4060  1.3460
  133MOL0     H18323   6.251   6.380   1.949  0.6094  0.0811 -1.2704
  133MOL0     H18324   6.372   6.148   1.964 -1.7820 -3.6225 -0.7621
  133MOL0     H18325   6.225   6.074   2.005 -0.4496 -0.5449  0.6434
  133MOL0     H18326   6.372   6.304   2.158  0.3189 -0.4824  1.4254
  133MOL0     H18327   6.230   6.214   2.218 -1.5820 -1.7173 -1.1086
  133MOL0     H18328   6.507   6.100   2.147  1.8889  3.1395  0.9783
  133MOL0     H18329   6.384   6.033   2.264  0.0030  0.0672 -1.0657
  133MOL0     H18330   6.432   6.241   2.400 -0.1989  0.2056  0.8678
  133MOL0     H18331   6.569   6.267   2.294  2.2199 -3.0812 -0.6231
  133MOL0     H18332   6.679   6.083   2.313 -0.9833 -2.8860 -1.1387
  133MOL0     H18333   6.563   5.992   2.412 -1.6274  0.3315 -0.8470
  133MOL0     H18334   5.906   6.232   1.466  2.5985  0.3533  2.0019
  133MOL0     H18335   5.751   6.101   1.322  3.2097  0.7925 -4.0909
  133MOL0     H18336   5.501   5.792   1.201 -3.1405  2.4885 -0.2846
  133MOL0     H18337   5.312   5.686   1.132 -1.1099 -1.9470  0.0465
  133MOL0     H18338   6.025   5.431   0.989  0.7056 -3.1043  1.0611
  133MOL0     H18339   6.233   5.568   1.074 -3.3048  0.2934 -2.0517
  133MOL0     H18340   6.580   5.732   1.168  0.6448 -1.4531  1.0346
  133MOL0     H18341   6.725   5.893   1.203 -0.4125 -0.2818  0.7029
  133MOL0     H18342   6.956   6.071   1.189  1.7306  2.1631  1.5422
  133MOL0     H18343   6.959   5.949   1.318  0.6046  0.5986  1.2344
  133MOL0     H18344   7.197   6.025   1.126  1.6193  2.6567  0.2039
  133MOL0     H18345   7.198   5.935   1.286  0.8353 -0.5984 -1.1262
  133MOL0     H18346   7.294   6.193   1.252 -0.0636  0.9225 -1.3801
  133MOL0     H18347   7.128   6.228   1.292  0.5861  0.1338 -0.5309
  133MOL0     H18348   7.278   6.222   1.487  1.2220 -0.8290 -0.4509
  133MOL0     H18349   7.320   6.060   1.453  1.4473  1.4732  2.2680
  133MOL0     H18350   6.920   6.038   1.637  1.9705 -0.5039  5.4329
  133MOL0     H18351   7.029   5.699   0.981 -1.2255  5.4801 -2.0873
  133MOL0     H18352   6.894   5.388   0.988  0.5491 -0.8282 -0.9426
  133MOL0     H18353   6.812   5.451   0.833  3.6541 -0.7420 -3.6888
  133MOL0     H18354   6.973   5.475   0.858 -1.5260  1.0175 -2.7920
  134MOL0     O18355   0.652   0.921   0.888  0.3701 -0.6854 -1.0085
  134MOL0     C18356   0.679   0.922   0.768  1.0340 -0.2027 -0.1685
  134MOL0     O18357   0.680   1.035   0.690  0.1792  0.1747  0.6546
  134MOL0     C18358   0.579   1.126   0.702 -0.1851 -0.7200  0.7890
  134MOL0     C18359   0.586   1.256   0.642  0.0988  0.1545 -0.0967
  134MOL0     C18360   0.481   1.350   0.669  0.0560 -0.5272  0.3370
  134MOL0     C18361   0.353   1.311   0.703  0.1773  0.7617 -0.4001
  134MOL0     O18362   0.241   1.383   0.709  0.1306 -0.8463 -0.4498
  134MOL0     C18363   0.238   1.491   0.810 -0.1690  0.1547  0.6067
  134MOL0     C18364   0.262   1.625   0.746  0.4853 -0.5918  0.0855
  134MOL0     C18365   0.163   1.671   0.638 -1.5041 -0.0590 -0.4406
  134MOL0     C18366   0.183   1.823   0.624  0.1029 -0.0782  0.0852
  134MOL0     C18367   0.103   1.883   0.507 -0.8260  0.0541  0.8377
  134MOL0     C18368   0.135   2.030   0.499  0.3470  0.1547  0.8587
  134MOL0     C18369   0.026   2.086   0.407  0.2553 -0.2284  1.1677
  134MOL0     C18370   0.063   2.232   0.363  0.7731 -0.4807 -0.3614
  134MOL0     N18371  -0.059   2.304   0.324 -0.1900 -0.1536  0.6758
  134MOL0     C18372  -0.167   2.344   0.399  0.3069 -0.3027 -0.4232
  134MOL0     C18373  -0.249   2.399   0.308  0.9270 -0.2974  0.9880
  134MOL0     C18374  -0.382   2.466   0.337  0.5094  0.2690  0.0825
  134MOL0     C18375  -0.485   2.371   0.406  0.6109 -0.6606  0.3672
  134MOL0     C18376  -0.574   2.301   0.302  0.9962 -1.4151 -0.5381
  134MOL0     C18377  -0.511   2.181   0.226 -0.7031 -1.0905 -0.5307
  134MOL0     O18378  -0.477   2.095   0.334  0.1369  0.4849  0.0162
  134MOL0     C18379  -0.408   1.981   0.309  0.2135 -0.0061  0.0771
  134MOL0     C18380  -0.412   1.875   0.394 -0.9319  0.6578 -0.7061
  134MOL0     C18381  -0.318   1.766   0.397 -0.2080  0.0854 -1.0886
  134MOL0     C18382  -0.338   1.670   0.508 -0.0712  0.1756  0.3035
  134MOL0     C18383  -0.197   1.780   0.320  0.7564  0.9925 -0.4461
  134MOL0     C18384  -0.092   1.676   0.322 -1.0274 -0.4725 -0.1325
  134MOL0     O18385  -0.000   1.702   0.223 -0.6985  0.1524  0.3712
  134MOL0     C18386   0.089   1.605   0.183  0.6463  0.2270 -0.2453
  134MOL0     C18387   0.195   1.657   0.112 -0.2481 -0.1234 -0.3021
  134MOL0     C18388   0.307   1.581   0.077  0.2832 -0.6238  0.6317
  134MOL0     C18389   0.310   1.443   0.103  0.4664  0.0927 -0.3210
  134MOL0     O18390   0.414   1.354   0.081 -0.0802 -0.2902 -0.4427
  134MOL0     C18391   0.493   1.378  -0.035  0.6892  0.3089 -0.2657
  134MOL0     C18392   0.560   1.250  -0.088  0.7040 -0.0616 -0.4685
  134MOL0     C18393   0.697   1.279  -0.144 -0.8192  0.0192 -0.8798
  134MOL0     C18394   0.767   1.147  -0.173 -0.0972  0.6959  0.2343
  134MOL0     C18395   0.919   1.164  -0.213 -0.0900 -0.0268  0.2285
  134MOL0     C18396   1.001   1.042  -0.257  0.3750 -0.3331 -1.0369
  134MOL0     C18397   0.994   0.924  -0.164  0.0849 -0.4519  0.0143
  134MOL0     C18398   1.044   0.942  -0.026 -0.0220  0.3037 -0.9176
  134MOL0    Cl18399   1.212   0.999  -0.009 -0.1434  0.8777 -0.2438
  134MOL0     C18400   0.200   1.387   0.180  0.8786  0.3581 -0.2271
  134MOL0     C18401   0.090   1.468   0.215  0.5300  0.3289 -0.5611
  134MOL0     O18402  -0.091   1.582   0.397  0.0155 -0.1683 -0.1521
  134MOL0     C18403  -0.192   1.886   0.238 -0.0197 -0.4578  0.7788
  134MOL0     C18404  -0.299   1.975   0.225 -0.0059 -0.1550  1.1766
  134MOL0     N18405  -0.204   2.376   0.180 -0.0270  0.1435 -0.3914
  134MOL0     N18406  -0.090   2.327   0.195 -0.6946  0.4075 -0.4041
  134MOL0     C18407   0.347   1.182   0.762 -0.4350  0.3839  0.1936
  134MOL0     C18408   0.454   1.093   0.764 -1.0884  0.3603 -0.0659
  134MOL0     C18409   0.737   0.793   0.725  0.0416 -0.0871  0.4064
  134MOL0     C18410   0.736   0.673   0.802  0.9160 -0.8940  0.7315
  134MOL0     C18411   0.797   0.554   0.770 -0.4515 -0.3589  0.1739
  134MOL0     C18412   0.872   0.555   0.652 -0.2037 -0.7697 -0.5974
  134MOL0     O18413   0.935   0.435   0.643  0.3608  0.3335  0.2077
  134MOL0     C18414   1.039   0.418   0.547 -0.1154 -0.4052 -0.5930
  134MOL0     C18415   1.092   0.278   0.549 -0.3683 -0.1532 -1.2301
  134MOL0     C18416   1.137   0.235   0.697  0.3089  0.0312 -0.2636
  134MOL0     C18417   1.139   0.084   0.741 -0.1470  0.3642  0.4048
  134MOL0     C18418   1.007   0.030   0.732  0.5148  0.2968 -0.3744
  134MOL0     C18419   0.882   0.004   0.739  0.5392  0.1105  0.1354
  134MOL0     C18420   0.863   0.660   0.566 -0.1598 -0.2839  0.0078
  134MOL0     C18421   0.808   0.782   0.606 -0.6276  0.5589  1.5862
  134MOL0     C18422   0.828   0.883   0.497 -0.6831  0.2688  0.0302
  134MOL0     H18423   0.676   1.278   0.586  1.0393 -0.6775  1.0628
  134MOL0     H18424   0.493   1.451   0.630 -1.0270 -0.8868 -0.9790
  134MOL0     H18425   0.303   1.461   0.893  1.2408  3.5515  0.8740
  134MOL0     H18426   0.138   1.494   0.855  0.5133 -2.3874  2.5207
  134MOL0     H18427   0.251   1.690   0.833  0.3684  0.8777 -1.0049
  134MOL0     H18428   0.369   1.628   0.721  1.1581 -2.6475  2.2666
  134MOL0     H18429   0.176   1.609   0.549  0.8133 -2.6441  1.5254
  134MOL0     H18430   0.063   1.645   0.673 -1.6074 -0.0648 -0.7436
  134MOL0     H18431   0.156   1.868   0.720  1.3332 -2.7991  1.8108
  134MOL0     H18432   0.289   1.832   0.599  0.8838  1.6126  3.4191
  134MOL0     H18433  -0.004   1.871   0.525 -0.7792 -1.0716  0.4545
  134MOL0     H18434   0.134   1.847   0.408 -2.6949  2.8267 -0.9072
  134MOL0     H18435   0.136   2.078   0.597 -1.4095  3.6730 -0.6809
  134MOL0     H18436   0.232   2.042   0.450  1.1716  0.0007  2.4037
  134MOL0     H18437  -0.074   2.080   0.451 -1.1342  0.7672 -1.5821
  134MOL0     H18438   0.018   2.030   0.314 -1.8995 -3.2503  2.9983
  134MOL0     H18439   0.104   2.286   0.449 -2.6766  0.1754  1.0206
  134MOL0     H18440   0.134   2.236   0.280 -0.9960 -0.1588 -1.9090
  134MOL0     H18441  -0.186   2.342   0.506  0.5655  2.4783 -0.2692
  134MOL0     H18442  -0.425   2.507   0.245  0.5107  2.1153  0.8713
  134MOL0     H18443  -0.344   2.547   0.399  1.8297  1.2420 -1.9078
  134MOL0     H18444  -0.435   2.300   0.472  2.7805  2.4601  2.3861
  134MOL0     H18445  -0.553   2.431   0.469  1.3684  0.6416 -0.0162
  134MOL0     H18446  -0.669   2.263   0.340  0.6347 -1.6811 -1.6796
  134MOL0     H18447  -0.612   2.374   0.230  1.7985 -0.4521 -0.0167
  134MOL0     H18448  -0.585   2.129   0.165 -1.3827  0.1218 -0.7799
  134MOL0     H18449  -0.415   2.206   0.181 -0.0312 -2.5839  0.0032
  134MOL0     H18450  -0.492   1.863   0.466  3.3755 -4.9488  4.1730
  134MOL0     H18451  -0.275   1.681   0.596 -0.9316 -1.2442  1.1405
  134MOL0     H18452  -0.326   1.568   0.470  0.5265  0.5272 -0.4671
  134MOL0     H18453  -0.442   1.669   0.544  0.4326  1.4183  1.8883
  134MOL0     H18454   0.201   1.765   0.103 -2.0312 -0.0901 -1.4562
  134MOL0     H18455   0.381   1.637   0.021 -2.0963 -0.3624 -2.5353
  134MOL0     H18456   0.436   1.424  -0.116  2.6619  0.9225 -1.3689
  134MOL0     H18457   0.573   1.446  -0.006  1.7879 -1.2913  0.5957
  134MOL0     H18458   0.571   1.175  -0.009 -1.8723 -1.2135 -1.0831
  134MOL0     H18459   0.487   1.207  -0.158 -0.6061  0.6846  0.3919
  134MOL0     H18460   0.758   1.335  -0.072  1.5570 -1.5578 -1.5486
  134MOL0     H18461   0.693   1.341  -0.234  0.3238  0.1118 -0.8863
  134MOL0     H18462   0.730   1.089  -0.257  2.4963 -2.1833  0.8947
  134MOL0     H18463   0.759   1.093  -0.078 -0.1459  0.3656  0.0412
  134MOL0     H18464   0.917   1.226  -0.303  1.4620 -2.1802 -1.4016
  134MOL0     H18465   0.983   1.220  -0.145  0.7329  1.2013 -1.4886
  134MOL0     H18466   1.105   1.071  -0.270  1.6547 -1.8997  3.5385
  134MOL0     H18467   0.959   1.013  -0.354 -3.1190  1.6059 -0.2817
  134MOL0     H18468   1.050   0.841  -0.208 -0.1333 -0.4861 -0.1973
  134MOL0     H18469   0.891   0.887  -0.162  0.2419 -1.4420 -3.4290
  134MOL0     H18470   1.020   0.850   0.027  1.3205  0.6493  0.3525
  134MOL0     H18471   0.980   1.019   0.019 -0.2310 -0.3026 -0.1682
  134MOL0     H18472   0.196   1.279   0.194 -0.3156  0.3150 -0.8519
  134MOL0     H18473   0.003   1.424   0.263  0.5087 -2.4283 -2.8629
  134MOL0     H18474  -0.112   1.903   0.166 -1.0372 -0.6567 -0.4453
  134MOL0     H18475  -0.289   2.062   0.160  1.2867 -0.4038  0.9961
  134MOL0     H18476   0.251   1.175   0.813 -0.1487  1.2014  0.8723
  134MOL0     H18477   0.446   0.989   0.796 -1.0419 -0.0474 -1.3147
  134MOL0     H18478   0.680   0.683   0.894 -0.3517 -4.0043  0.4096
  134MOL0     H18479   0.804   0.475   0.844 -0.2751 -2.2503 -1.7564
  134MOL0     H18480   0.996   0.440   0.449  2.9498 -1.3900 -2.2929
  134MOL0     H18481   1.115   0.493   0.573 -1.5138  1.6265 -2.0766
  134MOL0     H18482   1.178   0.272   0.482 -0.3066 -0.5167 -1.1164
  134MOL0     H18483   1.019   0.212   0.502 -1.4828  0.6410 -0.6735
  134MOL0     H18484   1.243   0.254   0.717 -0.2362  0.8095  2.2365
  134MOL0     H18485   1.070   0.292   0.761 -0.1399  0.3289 -0.9889
  134MOL0     H18486   1.171   0.079   0.846  1.6360  3.6072  0.1541
  134MOL0     H18487   1.190   0.023   0.666 -5.1530 -2.7355 -0.9043
  134MOL0     H18488   0.780  -0.027   0.742  0.8742 -1.5761 -2.5477
  134MOL0     H18489   0.913   0.655   0.470 -2.5734  0.5259 -1.3706
  134MOL0     H18490   0.730   0.898   0.450  0.1858 -1.9585 -2.8026
  134MOL0     H18491   0.881   0.968   0.540  2.5035 -3.0041  3.2781
  134MOL0     H18492   0.893   0.853   0.414  2.0233  2.5990  1.1456
  135MOL0     O18493   7.335  11.426   7.704 -0.3212  0.5879 -0.3352
  135MOL0     C18494   7.413  11.511   7.667  0.1360 -0.1383  0.8267
  135MOL0     O18495   7.448  11.624   7.726 -0.5135  0.0801 -0.1201
  135MOL0     C18496   7.365  11.678   7.826 -0.1885  0.5108  0.6651
  135MOL0     C18497   7.437  11.721   7.942 -0.1275 -0.4548  1.1464
  135MOL0     C18498   7.364  11.781   8.044 -0.1680 -0.0799 -0.4095
  135MOL0     C18499   7.220  11.797   8.044 -0.3473 -0.3857  0.0270
  135MOL0     O18500   7.150  11.848   8.151 -0.4616 -1.2042  0.5030
  135MOL0     C18501   7.195  11.806   8.282 -0.9360  0.6347  0.7965
  135MOL0     C18502   7.099  11.852   8.389 -0.2702 -0.7642 -0.2412
  135MOL0     C18503   6.955  11.807   8.361  0.0362  0.4567 -0.6305
  135MOL0     C18504   6.859  11.846   8.465  1.0340  0.1217 -0.3963
  135MOL0     C18505   6.717  11.836   8.416 -0.6430  0.8567  0.3218
  135MOL0     C18506   6.675  11.710   8.326  0.1500 -0.6894 -0.4324
  135MOL0     C18507   6.687  11.579   8.400  0.1329  0.4711  0.2288
  135MOL0     C18508   6.647  11.449   8.335  0.5893  0.0866 -0.1815
  135MOL0     N18509   6.712  11.424   8.211 -1.1130 -0.3080  0.6591
  135MOL0     C18510   6.853  11.418   8.206  0.2992 -0.9579  0.6351
  135MOL0     C18511   6.884  11.442   8.075  0.3256  0.8580 -0.0526
  135MOL0     C18512   7.010  11.445   8.005 -0.0404 -0.3297  0.3908
  135MOL0     C18513   7.132  11.450   8.100  0.8045  0.4685  0.1028
  135MOL0     C18514   7.252  11.374   8.041  0.2501  0.1232  0.1223
  135MOL0     C18515   7.378  11.360   8.133  0.6654 -0.0966 -0.3214
  135MOL0     O18516   7.488  11.276   8.089  0.2025  0.3053  0.1495
  135MOL0     C18517   7.589  11.330   8.014  0.0818 -0.1039 -0.2976
  135MOL0     C18518   7.668  11.436   8.052 -0.6026 -1.3500  0.2267
  135MOL0     C18519   7.749  11.506   7.964 -0.0360  0.1108 -1.4505
  135MOL0     C18520   7.819  11.628   8.013  0.9788 -0.1895  0.0939
  135MOL0     C18521   7.771  11.449   7.837  0.1279 -0.1712  0.2785
  135MOL0     C18522   7.862  11.502   7.730  0.5583  0.6806 -0.6144
  135MOL0     O18523   7.958  11.422   7.682 -0.4754  0.5909  0.2407
  135MOL0     C18524   8.053  11.466   7.587  1.5413  0.0417  1.0540
  135MOL0     C18525   8.010  11.531   7.468 -0.0012  0.2627  0.1391
  135MOL0     C18526   8.106  11.540   7.363 -0.6885 -0.1618 -1.0899
  135MOL0     C18527   8.242  11.498   7.373 -0.2903  0.1448 -0.1630
  135MOL0     O18528   8.343  11.513   7.278  0.9676 -0.0703  0.2237
  135MOL0     C18529   8.321  11.599   7.162  0.3240  0.2009  0.8974
  135MOL0     C18530   8.446  11.656   7.104 -1.1595 -0.6673  0.3031
  135MOL0     C18531   8.402  11.739   6.970 -0.3702  0.7009 -0.1216
  135MOL0     C18532   8.350  11.656   6.852  0.1519 -0.2481  0.3354
  135MOL0     C18533   8.444  11.553   6.794  0.0961 -0.4684 -0.1055
  135MOL0     C18534   8.575  11.605   6.748 -0.3675  0.5182  0.0946
  135MOL0     C18535   8.618  11.524   6.618 -0.4029  0.2521  0.1300
  135MOL0     C18536   8.718  11.592   6.534 -0.0093 -0.4624 -0.4502
  135MOL0    Cl18537   8.765  11.480   6.406 -0.2981  0.1924  0.5989
  135MOL0     C18538   8.276  11.431   7.496  0.2574 -0.9950  0.8279
  135MOL0     C18539   8.180  11.412   7.597 -0.2634  0.1701  0.3682
  135MOL0     O18540   7.854  11.616   7.701  0.1009  0.1911 -0.5877
  135MOL0     C18541   7.682  11.353   7.794  0.5003  0.4047  0.5179
  135MOL0     C18542   7.586  11.297   7.885  0.2898  0.1406  0.5594
  135MOL0     N18543   6.765  11.445   8.009 -0.1899 -0.2827  0.2502
  135MOL0     N18544   6.658  11.441   8.087 -0.7546 -0.6510  0.4702
  135MOL0     C18545   7.149  11.748   7.928 -0.3528  0.4226 -0.1732
  135MOL0     C18546   7.227  11.699   7.822  0.1280 -0.6415  0.0747
  135MOL0     C18547   7.475  11.478   7.527  0.6512  0.4407 -0.3356
  135MOL0     C18548   7.584  11.561   7.472 -0.3537 -0.3433 -0.4695
  135MOL0     C18549   7.635  11.541   7.352 -0.6796  0.1476  0.2235
  135MOL0     C18550   7.596  11.430   7.272  0.0762  0.6949  0.3666
  135MOL0     O18551   7.637  11.405   7.148 -0.1155 -0.1320  0.1046
  135MOL0     C18552   7.778  11.376   7.131 -0.8026  0.7643  0.1113
  135MOL0     C18553   7.809  11.226   7.156 -0.0422 -0.4987  0.8608
  135MOL0     C18554   7.820  11.207   7.305 -0.3976 -0.6458 -0.0273
  135MOL0     C18555   7.812  11.064   7.340  0.4759  0.3375 -0.0670
  135MOL0     C18556   7.808  11.030   7.487 -0.5236  0.8113 -0.2975
  135MOL0     C18557   7.827  10.993   7.602 -0.1995 -0.0821  0.7237
  135MOL0     C18558   7.494  11.353   7.318  0.1881 -0.1433 -0.5391
  135MOL0     C18559   7.430  11.369   7.444  0.5702  0.4008 -0.3718
  135MOL0     C18560   7.317  11.261   7.477 -0.2957  0.3269 -0.1824
  135MOL0     H18561   7.545  11.713   7.946  0.3833  2.3043 -2.1656
  135MOL0     H18562   7.409  11.830   8.130 -0.9408 -1.4802  0.8563
  135MOL0     H18563   7.289  11.852   8.311  0.3697 -2.4592  1.8910
  135MOL0     H18564   7.211  11.697   8.285  1.3809  0.7684 -2.1502
  135MOL0     H18565   7.131  11.817   8.488  1.5806  0.7041 -0.2540
  135MOL0     H18566   7.096  11.961   8.399  2.9973 -0.5878 -0.1436
  135MOL0     H18567   6.923  11.850   8.265 -0.5381  0.7004 -0.3382
  135MOL0     H18568   6.960  11.698   8.364 -0.1548  0.3861 -2.0185
  135MOL0     H18569   6.867  11.778   8.550  0.6129 -0.3320 -0.7071
  135MOL0     H18570   6.881  11.948   8.498 -0.0727  0.8392 -1.7267
  135MOL0     H18571   6.692  11.926   8.360 -0.0637  1.2347  0.6705
  135MOL0     H18572   6.648  11.845   8.501 -0.0205  1.2010  0.7924
  135MOL0     H18573   6.571  11.727   8.296 -0.4816 -0.8830  1.5177
  135MOL0     H18574   6.749  11.719   8.246 -0.6154  0.4527 -1.0422
  135MOL0     H18575   6.610  11.595   8.476 -0.6735 -0.4977 -0.3641
  135MOL0     H18576   6.783  11.564   8.451 -0.4842  1.1750  1.6639
  135MOL0     H18577   6.665  11.366   8.403 -1.2807 -0.3926 -0.2362
  135MOL0     H18578   6.539  11.448   8.321 -0.0317 -1.9562  3.6337
  135MOL0     H18579   6.919  11.391   8.287 -0.3569 -2.3607  0.7300
  135MOL0     H18580   7.008  11.535   7.944 -0.4351 -0.9166 -0.4714
  135MOL0     H18581   7.018  11.361   7.936  0.0340 -0.5277  0.6417
  135MOL0     H18582   7.165  11.554   8.109  2.0000  0.2356 -1.1425
  135MOL0     H18583   7.110  11.406   8.198  2.9212 -1.9256 -0.3639
  135MOL0     H18584   7.212  11.277   8.010 -0.7242 -0.8926  3.9744
  135MOL0     H18585   7.278  11.435   7.954 -1.3433  0.0577 -0.4499
  135MOL0     H18586   7.417  11.460   8.157  1.7782 -0.5684 -0.1031
  135MOL0     H18587   7.340  11.325   8.229  0.2200 -0.0430 -0.4797
  135MOL0     H18588   7.665  11.468   8.156 -2.2681 -2.7691  0.6861
  135MOL0     H18589   7.924  11.628   7.984  1.2308 -1.5363  0.9054
  135MOL0     H18590   7.818  11.633   8.122  2.3089 -1.0089  0.1615
  135MOL0     H18591   7.778  11.721   7.972  0.7674  0.7952  2.3991
  135MOL0     H18592   7.907  11.560   7.454  0.2768  1.3418  0.1824
  135MOL0     H18593   8.085  11.584   7.266  0.3870 -0.4359 -1.4572
  135MOL0     H18594   8.276  11.529   7.091  0.9684 -0.5694  1.2381
  135MOL0     H18595   8.255  11.685   7.178  2.2975  2.6158 -2.3563
  135MOL0     H18596   8.496  11.731   7.166 -2.4655  0.6125 -0.1342
  135MOL0     H18597   8.517  11.573   7.098  1.3437  1.4220 -1.5655
  135MOL0     H18598   8.492  11.789   6.934 -0.0322 -0.3384 -0.7842
  135MOL0     H18599   8.329  11.813   7.004  2.4587  3.6720 -0.0090
  135MOL0     H18600   8.328  11.728   6.773  3.3177  0.5833  0.0843
  135MOL0     H18601   8.261  11.612   6.897 -0.5001 -0.8065 -1.4368
  135MOL0     H18602   8.474  11.475   6.865 -0.9545 -0.5887  0.2263
  135MOL0     H18603   8.382  11.500   6.721  0.1638 -2.7454  1.3810
  135MOL0     H18604   8.652  11.597   6.825  1.4106  1.2358 -1.5303
  135MOL0     H18605   8.549  11.704   6.709 -1.6798  0.4501  0.7329
  135MOL0     H18606   8.533  11.503   6.553 -0.0721 -0.7285 -0.0052
  135MOL0     H18607   8.670  11.432   6.647  0.4964  0.5301 -0.5842
  135MOL0     H18608   8.800  11.621   6.599 -2.6468  2.0227  2.0669
  135MOL0     H18609   8.670  11.683   6.497 -2.3859 -0.4329  2.3144
  135MOL0     H18610   8.378  11.395   7.492  0.0404 -1.4941 -1.3976
  135MOL0     H18611   8.207  11.360   7.688  1.2134 -3.4416 -1.9173
  135MOL0     H18612   7.682  11.310   7.694  1.9944  0.7418  0.3420
  135MOL0     H18613   7.515  11.222   7.850  2.1677 -0.2595 -2.7929
  135MOL0     H18614   7.040  11.757   7.928 -0.7566 -2.9298 -0.3498
  135MOL0     H18615   7.180  11.676   7.727  3.8362 -0.8152 -1.9213
  135MOL0     H18616   7.624  11.636   7.539 -0.1552 -2.3619  1.8092
  135MOL0     H18617   7.703  11.610   7.304 -0.2879 -0.9654 -0.8998
  135MOL0     H18618   7.799  11.368   7.024  1.6464 -1.6651  0.6689
  135MOL0     H18619   7.849  11.446   7.175 -0.4824 -0.8501  2.3560
  135MOL0     H18620   7.906  11.192   7.119  0.2950  0.5876  0.6893
  135MOL0     H18621   7.734  11.163   7.108  0.4149 -0.6550  0.3400
  135MOL0     H18622   7.909  11.263   7.334 -0.5944 -1.4834  2.4027
  135MOL0     H18623   7.744  11.260   7.364  1.9384  0.7946  1.8679
  135MOL0     H18624   7.889  11.010   7.283 -2.5591 -5.8559  0.8406
  135MOL0     H18625   7.725  11.012   7.298 -0.4863  1.0941  0.9366
  135MOL0     H18626   7.862  10.959   7.698 -0.3673 -1.2236  0.3887
  135MOL0     H18627   7.467  11.267   7.257  1.0500 -1.2883  0.6381
  135MOL0     H18628   7.224  11.309   7.511 -0.2658 -0.4057  1.0053
  135MOL0     H18629   7.289  11.199   7.391  0.3586 -1.5355  0.8907
  135MOL0     H18630   7.348  11.190   7.554 -1.0119 -0.6677 -0.7925
  136MOL0     O18631   8.585   8.060  10.309  0.3148 -0.2267  0.0510
  136MOL0     C18632   8.520   8.131  10.379 -0.6968 -1.2546  0.4501
  136MOL0     O18633   8.566   8.249  10.432  0.0869 -0.6396  0.2797
  136MOL0     C18634   8.685   8.298  10.391 -0.7324 -0.3647 -0.1104
  136MOL0     C18635   8.694   8.431  10.350  0.0317 -0.2811  0.2167
  136MOL0     C18636   8.823   8.474  10.311 -0.7584 -0.8588  0.0578
  136MOL0     C18637   8.943   8.404  10.335  0.3475 -0.9405 -1.2686
  136MOL0     O18638   9.068   8.461  10.322  0.6222  0.4180 -0.0223
  136MOL0     C18639   9.086   8.604  10.294 -0.7917 -0.0431 -0.3191
  136MOL0     C18640   9.233   8.647  10.288 -0.1041 -0.2528 -0.6797
  136MOL0     C18641   9.317   8.570  10.398 -0.0038 -0.3286 -0.1443
  136MOL0     C18642   9.441   8.649  10.450  0.3997  0.4582  0.2872
  136MOL0     C18643   9.529   8.564  10.540 -0.5812  0.7185  0.0715
  136MOL0     C18644   9.660   8.631  10.590  0.3701  0.1187 -0.7574
  136MOL0     C18645   9.635   8.755  10.674 -0.3631  0.4332  0.7959
  136MOL0     C18646   9.579   8.723  10.809  0.6870 -0.5344  0.4385
  136MOL0     N18647   9.698   8.707  10.911  0.2792  0.8325 -0.4051
  136MOL0     C18648   9.726   8.581  10.975 -0.0205 -0.5003  0.4663
  136MOL0     C18649   9.816   8.611  11.073  0.0253  0.0623  0.4714
  136MOL0     C18650   9.887   8.512  11.166  0.0910 -0.0260 -1.3285
  136MOL0     C18651   9.847   8.371  11.151 -0.2740  0.3316 -0.0967
  136MOL0     C18652   9.950   8.282  11.212  0.0060  0.4296 -0.2221
  136MOL0     C18653  10.013   8.325  11.349  0.1846 -0.7164  0.5265
  136MOL0     O18654  10.094   8.220  11.403 -0.3980  0.0004 -0.3977
  136MOL0     C18655  10.169   8.257  11.514  0.2950  0.1690 -1.7390
  136MOL0     C18656  10.181   8.383  11.578  0.1912 -1.3504  0.2510
  136MOL0     C18657  10.263   8.402  11.683  0.2095 -0.3196  0.4144
  136MOL0     C18658  10.271   8.537  11.746 -0.0515  0.1465  0.9408
  136MOL0     C18659  10.346   8.293  11.739  0.1390 -0.2384  0.8139
  136MOL0     C18660  10.448   8.297  11.848 -0.2353  0.2545  0.4254
  136MOL0     O18661  10.418   8.387  11.947 -0.7528  0.7010 -0.7603
  136MOL0     C18662  10.516   8.450  12.012  0.0024 -1.1176 -0.3023
  136MOL0     C18663  10.653   8.420  12.030 -0.4648 -0.0586 -0.4447
  136MOL0     C18664  10.738   8.517  12.092  0.0558  0.3950  0.8626
  136MOL0     C18665  10.683   8.633  12.140 -1.6379  0.4715 -0.9377
  136MOL0     O18666  10.752   8.738  12.210 -1.0456  0.2129  0.1448
  136MOL0     C18667  10.900   8.725  12.218  0.9315 -0.2494 -0.3635
  136MOL0     C18668  10.977   8.839  12.280 -0.6231  0.6074  0.3956
  136MOL0     C18669  11.130   8.818  12.274  0.0012 -0.4687 -0.4471
  136MOL0     C18670  11.211   8.941  12.327  0.0396 -0.1107 -0.0310
  136MOL0     C18671  11.362   8.943  12.304  0.2522  0.2806  1.2024
  136MOL0     C18672  11.445   8.845  12.395 -0.4250 -0.1545  0.1663
  136MOL0     C18673  11.592   8.869  12.386  0.3256 -0.0633 -0.3298
  136MOL0     C18674  11.661   8.776  12.488  0.4497  0.7864  0.2475
  136MOL0    Cl18675  11.620   8.589  12.482 -0.3690 -0.4277 -0.3851
  136MOL0     C18676  10.553   8.656  12.131  0.7151  0.0238 -0.6918
  136MOL0     C18677  10.467   8.562  12.078 -0.5796 -0.0903 -0.3538
  136MOL0     O18678  10.547   8.221  11.839  0.1551  0.0426  0.0872
  136MOL0     C18679  10.337   8.173  11.674  0.1617 -0.3942  0.9884
  136MOL0     C18680  10.243   8.156  11.573  0.7648  0.4552 -0.3295
  136MOL0     N18681   9.844   8.748  11.078 -0.0833  0.4196 -1.2031
  136MOL0     N18682   9.774   8.799  10.975 -0.1012 -0.1277 -0.2569
  136MOL0     C18683   8.930   8.274  10.388 -0.7298  0.2631  0.7687
  136MOL0     C18684   8.801   8.228  10.417 -0.2639  0.2380 -0.0876
  136MOL0     C18685   8.368   8.110  10.395 -1.0578 -0.1063 -0.3026
  136MOL0     C18686   8.298   8.185  10.491 -0.0907 -0.3939  0.5227
  136MOL0     C18687   8.163   8.186  10.505  0.3528 -0.6166 -1.0205
  136MOL0     C18688   8.088   8.101  10.435 -0.1108 -0.4980  0.2035
  136MOL0     O18689   7.957   8.098  10.476 -0.1234  0.0677 -0.5134
  136MOL0     C18690   7.880   7.982  10.446 -0.4751  0.4625  0.3126
  136MOL0     C18691   7.778   8.039  10.354 -0.1887 -0.3051  0.2618
  136MOL0     C18692   7.662   8.105  10.434 -0.3409  0.6655 -0.2865
  136MOL0     C18693   7.544   8.157  10.351 -0.2394  0.6868  0.0049
  136MOL0     C18694   7.466   8.042  10.305  0.2347 -0.1953  0.2771
  136MOL0     C18695   7.412   7.946  10.261  0.6042 -0.7223  0.8227
  136MOL0     C18696   8.147   8.032  10.332 -0.7625  1.2293 -0.8330
  136MOL0     C18697   8.286   8.027  10.307 -0.5159  0.2696  0.1141
  136MOL0     C18698   8.342   7.939  10.194 -0.0880  0.0476  0.1924
  136MOL0     H18699   8.605   8.490  10.334 -1.9154 -2.9683  0.3576
  136MOL0     H18700   8.836   8.570  10.262  1.3208 -0.3189  1.5604
  136MOL0     H18701   9.028   8.650  10.374 -3.7166 -1.5985 -1.3610
  136MOL0     H18702   9.043   8.643  10.202  0.9205 -0.0853 -1.1604
  136MOL0     H18703   9.287   8.640  10.193  0.2362  1.7883 -0.6750
  136MOL0     H18704   9.244   8.753  10.313 -0.9084  0.8172 -4.2603
  136MOL0     H18705   9.257   8.555  10.489  1.8376  3.5905  1.9844
  136MOL0     H18706   9.353   8.473  10.363  1.2264  0.1312 -0.2018
  136MOL0     H18707   9.498   8.671  10.359 -1.2896 -0.0697 -0.9643
  136MOL0     H18708   9.424   8.750  10.487  0.1464  0.7653 -0.6266
  136MOL0     H18709   9.546   8.461  10.507 -0.7354  0.0222  2.0172
  136MOL0     H18710   9.469   8.548  10.630 -0.7643 -0.8102 -0.2998
  136MOL0     H18711   9.725   8.562  10.645 -1.1900 -1.0164 -0.2861
  136MOL0     H18712   9.718   8.649  10.498 -1.1039 -0.3068 -1.8107
  136MOL0     H18713   9.573   8.825  10.617 -0.0346 -0.2946 -0.4884
  136MOL0     H18714   9.728   8.807  10.700 -0.6113 -0.2409  3.2005
  136MOL0     H18715   9.519   8.811  10.832  0.7151 -0.6397  0.9250
  136MOL0     H18716   9.518   8.633  10.810  0.3787 -0.3191  1.3675
  136MOL0     H18717   9.669   8.491  10.954 -2.2924  0.8191  0.6799
  136MOL0     H18718   9.855   8.547  11.265 -1.1708  0.0005 -1.7231
  136MOL0     H18719   9.996   8.517  11.154  0.2504 -0.2833 -0.1026
  136MOL0     H18720   9.746   8.355  11.190 -0.0138  0.5471  0.6835
  136MOL0     H18721   9.837   8.344  11.046  0.6062 -1.7245  0.2838
  136MOL0     H18722   9.922   8.176  11.225 -1.1704  0.7082 -0.3588
  136MOL0     H18723  10.034   8.283  11.143  0.4217  0.6904  0.2756
  136MOL0     H18724  10.079   8.411  11.330 -0.6202  0.4874  2.8314
  136MOL0     H18725   9.934   8.361  11.415 -1.0928  1.9534 -2.1927
  136MOL0     H18726  10.115   8.465  11.553  1.7428 -0.5891 -1.6418
  136MOL0     H18727  10.220   8.615  11.689  1.0001 -0.7549 -1.3636
  136MOL0     H18728  10.374   8.573  11.750 -0.6003  1.7212  1.7914
  136MOL0     H18729  10.217   8.532  11.841 -2.5361 -0.3256 -0.3944
  136MOL0     H18730  10.701   8.331  11.991  1.7133  1.8252 -2.3991
  136MOL0     H18731  10.841   8.485  12.103 -0.5846 -2.0879  0.2243
  136MOL0     H18732  10.927   8.640  12.280  2.5617  0.1017 -0.5484
  136MOL0     H18733  10.956   8.701  12.127  4.6454  0.4946  1.5442
  136MOL0     H18734  10.954   8.930  12.223  1.3869  0.6267 -0.4838
  136MOL0     H18735  10.941   8.836  12.383  0.9402 -1.8380  0.9597
  136MOL0     H18736  11.159   8.781  12.175 -0.9740 -2.4889 -0.0272
  136MOL0     H18737  11.161   8.743  12.347  0.6676 -0.7223 -0.9849
  136MOL0     H18738  11.194   8.945  12.435 -0.6545  0.4728 -0.1562
  136MOL0     H18739  11.172   9.026  12.271 -0.2525 -0.4792 -0.4020
  136MOL0     H18740  11.396   8.914  12.204  0.2034  0.9878  0.9739
  136MOL0     H18741  11.400   9.045  12.318  0.9456  0.5174 -1.7843
  136MOL0     H18742  11.425   8.740  12.371  1.5280 -1.2800  2.9751
  136MOL0     H18743  11.421   8.853  12.501  1.2938  0.9061  0.5198
  136MOL0     H18744  11.611   8.974  12.411  0.7659 -0.5549  1.5353
  136MOL0     H18745  11.629   8.861  12.283 -0.6611 -1.7274 -0.6025
  136MOL0     H18746  11.637   8.805  12.591  0.9976  1.6312  0.1463
  136MOL0     H18747  11.770   8.785  12.484  0.4245  1.5436  0.9120
  136MOL0     H18748  10.515   8.754  12.158  0.9240 -0.2699  0.7776
  136MOL0     H18749  10.360   8.574  12.090 -0.2544  3.0352  0.4527
  136MOL0     H18750  10.406   8.093  11.700 -0.5854 -0.6196  2.3634
  136MOL0     H18751  10.229   8.058  11.529  0.3411  0.5010 -0.3045
  136MOL0     H18752   9.014   8.212  10.416 -0.5518  0.2408  0.1985
  136MOL0     H18753   8.783   8.132  10.464  1.5343 -1.0283 -1.8140
  136MOL0     H18754   8.357   8.256  10.549  3.5350 -0.8230 -2.2530
  136MOL0     H18755   8.109   8.250  10.574 -0.8851  1.3078 -3.5826
  136MOL0     H18756   7.933   7.901  10.395 -0.4407 -0.0841  1.1942
  136MOL0     H18757   7.842   7.924  10.530  0.3335  1.3465  1.3166
  136MOL0     H18758   7.739   7.947  10.311  0.3057 -0.9557  1.1714
  136MOL0     H18759   7.821   8.112  10.284 -4.7483  1.4249 -1.1079
  136MOL0     H18760   7.635   8.039  10.517 -1.0309  4.1811  2.5554
  136MOL0     H18761   7.703   8.197  10.477 -2.6831  0.8539  1.7557
  136MOL0     H18762   7.582   8.211  10.264  1.9433  0.1854  0.5888
  136MOL0     H18763   7.482   8.210  10.423 -0.3449 -2.4181  2.4380
  136MOL0     H18764   7.341   7.872  10.230  2.5241 -1.5132 -2.0310
  136MOL0     H18765   8.081   7.975  10.268  0.8051 -2.6063  0.6807
  136MOL0     H18766   8.439   7.892  10.213  0.8230 -0.6460 -4.7589
  136MOL0     H18767   8.275   7.853  10.183  3.0795 -2.4809 -1.3234
  136MOL0     H18768   8.341   8.005  10.106  0.8022 -0.0565  0.0969
  137MOL0     O18769   3.746   0.038   8.174  0.1795 -0.1306 -0.3601
  137MOL0     C18770   3.742   0.154   8.204  0.4130 -0.1551  0.1323
  137MOL0     O18771   3.637   0.217   8.262  0.2762  0.0649  0.1404
  137MOL0     C18772   3.510   0.154   8.280 -0.6960 -0.0008  0.4520
  137MOL0     C18773   3.442   0.076   8.178  0.1447 -0.4426 -0.3785
  137MOL0     C18774   3.306   0.033   8.191 -0.2415  0.7107 -0.0090
  137MOL0     C18775   3.239   0.063   8.315 -0.3095  0.5853 -0.1224
  137MOL0     O18776   3.103   0.019   8.335 -0.6711 -0.2857  0.2221
  137MOL0     C18777   3.037   0.048   8.463 -0.5247  1.1362  0.6795
  137MOL0     C18778   2.890  -0.016   8.466 -1.3767  0.4018  1.5609
  137MOL0     C18779   2.829   0.014   8.598 -0.2215  0.4250 -0.0002
  137MOL0     C18780   2.693  -0.056   8.629 -0.3596 -0.5959  0.4083
  137MOL0     C18781   2.644  -0.017   8.777  0.5097 -0.0273  0.0427
  137MOL0     C18782   2.519  -0.093   8.829 -0.3737 -0.1053  0.2916
  137MOL0     C18783   2.389  -0.078   8.753  0.1942  0.6527 -0.5602
  137MOL0     C18784   2.375  -0.162   8.627  0.5722 -0.3615 -1.2657
  137MOL0     N18785   2.436  -0.290   8.634 -0.7207 -0.3065  0.3754
  137MOL0     C18786   2.382  -0.403   8.687  0.6242 -0.5562  0.0602
  137MOL0     C18787   2.451  -0.505   8.626 -0.3189  0.6909  0.1246
  137MOL0     C18788   2.458  -0.657   8.649 -0.1406 -0.4626 -0.6841
  137MOL0     C18789   2.562  -0.685   8.757 -0.0023  0.1949 -0.0792
  137MOL0     C18790   2.597  -0.834   8.744 -0.6541 -0.2238  0.7961
  137MOL0     C18791   2.684  -0.890   8.864  0.6166  0.6144 -0.2791
  137MOL0     O18792   2.637  -0.855   8.998  0.3986  0.4721  0.2414
  137MOL0     C18793   2.517  -0.903   9.044 -0.0550 -0.7606 -0.6299
  137MOL0     C18794   2.475  -0.847   9.162 -0.4898 -0.5873 -1.6205
  137MOL0     C18795   2.361  -0.872   9.232  0.5570  1.1925 -0.2004
  137MOL0     C18796   2.338  -0.796   9.365  0.5174 -0.2252 -0.3171
  137MOL0     C18797   2.287  -0.981   9.179  0.2140  1.0231  0.1678
  137MOL0     C18798   2.166  -1.052   9.252 -0.2536 -0.6258 -0.2301
  137MOL0     O18799   2.084  -1.114   9.168  0.2016 -0.0593  0.0219
  137MOL0     C18800   1.974  -1.186   9.205  0.1039  0.3745 -0.7452
  137MOL0     C18801   1.941  -1.287   9.112 -0.1199  0.4671  0.2321
  137MOL0     C18802   1.830  -1.371   9.136  0.2989 -1.1479  0.4739
  137MOL0     C18803   1.750  -1.365   9.255  0.2951 -0.7690 -0.0764
  137MOL0     O18804   1.643  -1.451   9.282 -0.0975 -0.4025 -0.0957
  137MOL0     C18805   1.600  -1.517   9.172  0.5166 -0.1070  0.5743
  137MOL0     C18806   1.478  -1.596   9.210  0.1585 -0.9709  0.2796
  137MOL0     C18807   1.501  -1.712   9.311  0.3555 -0.3891  0.6741
  137MOL0     C18808   1.391  -1.817   9.278 -0.6413  0.0316 -1.0550
  137MOL0     C18809   1.407  -1.937   9.382  0.2651 -0.5837  0.3675
  137MOL0     C18810   1.277  -2.022   9.385  0.6478  0.4186  0.2167
  137MOL0     C18811   1.293  -2.156   9.462  0.0559  0.3195 -0.3589
  137MOL0     C18812   1.173  -2.164   9.557 -0.0887 -0.3862  0.0243
  137MOL0    Cl18813   1.157  -2.330   9.618  0.1089  0.6522  0.2850
  137MOL0     C18814   1.786  -1.262   9.350  0.4355 -0.1230 -0.0667
  137MOL0     C18815   1.900  -1.177   9.327  0.4560  0.6631  0.4856
  137MOL0     O18816   2.148  -1.048   9.377 -0.6879 -0.1724  0.1630
  137MOL0     C18817   2.329  -1.050   9.065  0.0573  0.6523  0.6038
  137MOL0     C18818   2.434  -1.002   8.990 -0.7479  0.3195  0.3426
  137MOL0     N18819   2.541  -0.455   8.538 -0.2576  0.2116  0.3313
  137MOL0     N18820   2.536  -0.329   8.546 -0.0771 -0.6725 -0.2291
  137MOL0     C18821   3.306   0.144   8.410 -0.1021  0.5601 -0.8920
  137MOL0     C18822   3.441   0.179   8.393 -0.5138  0.5196 -1.3390
  137MOL0     C18823   3.862   0.235   8.191  0.2517 -0.5451  0.7617
  137MOL0     C18824   3.952   0.205   8.087 -0.1092  0.3228  0.2500
  137MOL0     C18825   4.076   0.269   8.073  1.3935 -0.6582 -0.5129
  137MOL0     C18826   4.097   0.386   8.148  0.8465 -0.5940  0.3326
  137MOL0     O18827   4.206   0.468   8.143  0.4371  0.1451 -0.6085
  137MOL0     C18828   4.298   0.444   8.042 -0.1059 -1.2122  0.0869
  137MOL0     C18829   4.386   0.569   8.039  1.0283 -0.4603  0.2213
  137MOL0     C18830   4.518   0.563   8.125 -0.0063 -0.6636  0.0169
  137MOL0     C18831   4.584   0.695   8.178  0.0013 -0.4906  0.6575
  137MOL0     C18832   4.603   0.795   8.072  0.0608  0.1644 -0.3337
  137MOL0     C18833   4.630   0.890   7.994 -0.2189  1.1369  0.1882
  137MOL0     C18834   4.013   0.420   8.253 -0.7618  1.1655 -1.4029
  137MOL0     C18835   3.895   0.343   8.277 -0.2248 -0.6277 -0.6249
  137MOL0     C18836   3.812   0.367   8.405 -0.1484 -1.0636  0.9640
  137MOL0     H18837   3.496   0.067   8.085 -1.4517  0.9777 -1.4888
  137MOL0     H18838   3.252  -0.026   8.117  0.5780  2.1686 -1.8519
  137MOL0     H18839   3.034   0.157   8.465 -1.0109  1.1275  0.5126
  137MOL0     H18840   3.099   0.014   8.547  2.8954  0.3445 -1.9629
  137MOL0     H18841   2.833   0.022   8.380  0.4575 -2.1509 -0.9761
  137MOL0     H18842   2.889  -0.125   8.457 -0.4883  0.5040 -0.1730
  137MOL0     H18843   2.900  -0.022   8.674  0.7494  1.3002 -0.4638
  137MOL0     H18844   2.833   0.121   8.620  1.3715  0.1818  1.1167
  137MOL0     H18845   2.619  -0.034   8.552  1.3695 -1.6833 -1.6477
  137MOL0     H18846   2.706  -0.164   8.628  0.9372 -0.4556 -0.8670
  137MOL0     H18847   2.610   0.086   8.764 -0.5321 -0.3615 -0.0171
  137MOL0     H18848   2.728  -0.011   8.847  0.2197 -2.7470  0.7294
  137MOL0     H18849   2.544  -0.198   8.847  0.4908  0.1816  0.8205
  137MOL0     H18850   2.501  -0.051   8.929  0.8005 -0.1208  0.5292
  137MOL0     H18851   2.360   0.026   8.742  1.0568  1.1762  1.6400
  137MOL0     H18852   2.319  -0.118   8.827 -0.1492  3.5635  0.8036
  137MOL0     H18853   2.270  -0.171   8.600 -0.4261  0.2920  1.9436
  137MOL0     H18854   2.443  -0.117   8.554 -0.0780  1.3071 -0.8960
  137MOL0     H18855   2.307  -0.406   8.765  1.2064 -0.0350  0.6452
  137MOL0     H18856   2.486  -0.710   8.558  0.8745 -5.0228  1.9795
  137MOL0     H18857   2.360  -0.697   8.676  0.4284 -2.6719 -1.7414
  137MOL0     H18858   2.641  -0.610   8.751 -2.7940  3.6861  2.0612
  137MOL0     H18859   2.516  -0.657   8.853  0.9436  3.2552 -0.4263
  137MOL0     H18860   2.511  -0.902   8.739  1.8365 -3.5559 -1.1282
  137MOL0     H18861   2.651  -0.843   8.649 -2.2234 -1.7197 -0.0283
  137MOL0     H18862   2.702  -0.997   8.851  1.0329  0.4289  1.5481
  137MOL0     H18863   2.781  -0.841   8.851 -0.3311  1.8583 -3.5745
  137MOL0     H18864   2.539  -0.762   9.180  1.3626 -1.9559 -1.3561
  137MOL0     H18865   2.386  -0.854   9.444 -1.5536 -0.4042  0.9006
  137MOL0     H18866   2.233  -0.775   9.390  0.8938 -0.8437  2.0518
  137MOL0     H18867   2.396  -0.703   9.359  0.1131 -0.0464 -2.5267
  137MOL0     H18868   1.987  -1.291   9.014 -0.2146 -1.7364  0.2223
  137MOL0     H18869   1.814  -1.442   9.055 -1.0433  1.3936 -1.6386
  137MOL0     H18870   1.579  -1.448   9.089  0.1378  0.1233  0.8544
  137MOL0     H18871   1.670  -1.589   9.129  1.4314  0.3300  1.3049
  137MOL0     H18872   1.404  -1.527   9.251  1.8911  1.7201 -0.8351
  137MOL0     H18873   1.438  -1.635   9.116 -0.4355 -4.1376  1.7085
  137MOL0     H18874   1.498  -1.676   9.415 -0.0194  1.0629  0.1908
  137MOL0     H18875   1.603  -1.745   9.290  0.9515  0.3169  2.2852
  137MOL0     H18876   1.401  -1.842   9.172 -2.0662 -0.2359 -1.1462
  137MOL0     H18877   1.293  -1.772   9.295 -0.8563 -0.0346 -2.0723
  137MOL0     H18878   1.491  -2.002   9.357  1.6371  1.0389  0.5952
  137MOL0     H18879   1.420  -1.904   9.486  2.0774 -1.9479  0.6202
  137MOL0     H18880   1.230  -2.045   9.289  1.1112  0.2586  0.0238
  137MOL0     H18881   1.204  -1.957   9.434  1.1465  1.6128 -0.5804
  137MOL0     H18882   1.388  -2.170   9.513  0.1778 -0.8046 -0.8552
  137MOL0     H18883   1.280  -2.248   9.403 -3.4139  1.3202 -1.3972
  137MOL0     H18884   1.085  -2.132   9.501 -0.5044  1.8221  1.8226
  137MOL0     H18885   1.176  -2.096   9.642 -0.2503  1.0871 -1.1229
  137MOL0     H18886   1.738  -1.253   9.447 -0.7342  0.0188 -0.6371
  137MOL0     H18887   1.927  -1.109   9.408  1.0170 -1.3971  2.1187
  137MOL0     H18888   2.264  -1.127   9.025  2.0898 -1.0937  0.5257
  137MOL0     H18889   2.461  -1.052   8.897  0.3768  1.0564  0.2506
  137MOL0     H18890   3.259   0.181   8.501  1.2421  1.2384 -0.4324
  137MOL0     H18891   3.491   0.236   8.471 -1.7891 -0.2035  0.0724
  137MOL0     H18892   3.931   0.110   8.040  0.2056  0.4271 -0.1037
  137MOL0     H18893   4.135   0.226   7.993  1.5336 -1.6109  0.0812
  137MOL0     H18894   4.367   0.363   8.067  1.0439  0.0108  0.9774
  137MOL0     H18895   4.244   0.424   7.949 -0.0690 -2.4092  0.3008
  137MOL0     H18896   4.330   0.657   8.070  0.7493 -1.2114  1.9807
  137MOL0     H18897   4.424   0.591   7.938  0.4743  1.6888  0.4240
  137MOL0     H18898   4.482   0.512   8.215 -0.0619  1.7956  1.5034
  137MOL0     H18899   4.600   0.511   8.075 -1.1900 -1.6490 -0.9535
  137MOL0     H18900   4.681   0.679   8.224 -0.1687  1.0563  1.6032
  137MOL0     H18901   4.522   0.744   8.253  0.7416  4.2510 -1.4493
  137MOL0     H18902   4.651   0.967   7.922  0.6616  0.0481 -0.7611
  137MOL0     H18903   4.052   0.497   8.319  3.9493 -2.8542  1.1968
  137MOL0     H18904   3.708   0.395   8.386  0.4441  0.1483 -0.7781
  137MOL0     H18905   3.796   0.277   8.464  0.3188  0.2672  3.2387
  137MOL0     H18906   3.867   0.440   8.465 -0.2697  0.4541 -0.6991
  138MOL0     O18907  10.155   9.073   6.558  0.3347  0.1281  0.2264
  138MOL0     C18908  10.046   9.125   6.539  0.0478  0.2155 -0.5122
  138MOL0     O18909  10.025   9.251   6.479 -0.1839  0.4642 -0.4736
  138MOL0     C18910  10.126   9.313   6.416  0.4556 -0.4865 -0.3778
  138MOL0     C18911  10.180   9.443   6.459  0.2983  0.8326  0.6933
  138MOL0     C18912  10.273   9.511   6.381 -0.2135  0.4929  0.5225
  138MOL0     C18913  10.334   9.454   6.269 -0.0947 -0.4605  0.8192
  138MOL0     O18914  10.422   9.535   6.199 -0.1807  0.0955  0.2444
  138MOL0     C18915  10.457   9.511   6.059  0.2782 -0.7615 -0.5890
  138MOL0     C18916  10.522   9.637   5.990  0.4963  0.3222  0.0199
  138MOL0     C18917  10.667   9.675   6.032 -0.0981 -0.9981 -0.0452
  138MOL0     C18918  10.729   9.780   5.945 -0.3843 -0.0450 -0.8761
  138MOL0     C18919  10.874   9.770   5.988 -0.1185 -0.0410 -0.1933
  138MOL0     C18920  10.951   9.880   5.912  0.1226  0.4665 -0.0239
  138MOL0     C18921  11.089   9.904   5.992 -0.0600 -0.5584 -0.4774
  138MOL0     C18922  11.185   9.783   5.993 -0.3287  0.3446  0.3823
  138MOL0     N18923  11.297   9.792   5.904  0.1136  0.3511  0.0687
  138MOL0     C18924  11.293   9.837   5.774  0.0756  0.7783  0.1330
  138MOL0     C18925  11.416   9.849   5.734  0.3656  0.6556  0.5033
  138MOL0     C18926  11.470   9.891   5.594  0.7790  0.4880  0.6085
  138MOL0     C18927  11.522   9.776   5.503 -0.5800 -0.9109 -0.3490
  138MOL0     C18928  11.584   9.815   5.367  0.5896 -0.1932  0.2556
  138MOL0     C18929  11.646   9.696   5.283  0.4103 -0.0794 -0.2336
  138MOL0     O18930  11.555   9.587   5.270  0.4913  0.6265  0.1862
  138MOL0     C18931  11.450   9.599   5.168  0.3885  0.0337 -0.7985
  138MOL0     C18932  11.452   9.680   5.060  0.2555 -0.7956  0.1970
  138MOL0     C18933  11.347   9.683   4.972  0.3627 -0.0061 -0.6480
  138MOL0     C18934  11.355   9.784   4.869 -0.6301  0.0926 -0.2503
  138MOL0     C18935  11.235   9.600   4.996  0.5092  0.3307 -0.2392
  138MOL0     C18936  11.112   9.606   4.913 -0.4176 -0.2936  0.0562
  138MOL0     O18937  11.075   9.491   4.868  0.3444 -0.4318 -0.2668
  138MOL0     C18938  11.003   9.486   4.745 -0.7561  0.1829  0.7749
  138MOL0     C18939  10.976   9.353   4.708 -1.0596  0.2418 -0.5066
  138MOL0     C18940  10.933   9.321   4.580 -0.6008 -0.2686 -0.5430
  138MOL0     C18941  10.897   9.422   4.487 -0.0090  0.6658 -0.2051
  138MOL0     O18942  10.845   9.387   4.366  0.7446  0.7856 -0.3434
  138MOL0     C18943  10.750   9.476   4.302 -0.5142  1.5812 -0.1474
  138MOL0     C18944  10.690   9.401   4.175  0.1694  0.3209 -0.5648
  138MOL0     C18945  10.596   9.283   4.207 -0.3146  0.0062  0.3458
  138MOL0     C18946  10.550   9.193   4.086 -0.4759 -0.5631 -0.1886
  138MOL0     C18947  10.508   9.051   4.135 -0.1788  0.6293 -0.5566
  138MOL0     C18948  10.357   9.060   4.169  0.7146 -1.0019 -0.1469
  138MOL0     C18949  10.305   8.939   4.258 -0.4728 -0.5144  0.0687
  138MOL0     C18950  10.237   8.979   4.385  0.3852  0.0283 -0.4642
  138MOL0    Cl18951  10.347   9.057   4.502  0.1308 -0.0291 -0.3822
  138MOL0     C18952  10.928   9.557   4.524 -1.2808  0.3017 -1.0767
  138MOL0     C18953  10.986   9.589   4.655  0.1295  0.3591 -0.5450
  138MOL0     O18954  11.041   9.714   4.906 -1.0090  0.8582  0.6071
  138MOL0     C18955  11.236   9.513   5.106 -0.1039 -0.2973 -0.7897
  138MOL0     C18956  11.348   9.504   5.185 -0.0670  0.0199  0.3967
  138MOL0     N18957  11.502   9.821   5.843 -0.0618  1.2428  0.4413
  138MOL0     N18958  11.431   9.769   5.937  0.7309 -0.8041  0.4499
  138MOL0     C18959  10.282   9.331   6.219  0.7053  0.1729  0.1440
  138MOL0     C18960  10.179   9.258   6.303 -0.1895  0.5400  0.3842
  138MOL0     C18961   9.927   9.065   6.592  0.4583 -0.2441 -0.8098
  138MOL0     C18962   9.819   9.154   6.629  0.5087 -0.0690  0.3858
  138MOL0     C18963   9.706   9.109   6.698 -0.2148  0.0440 -0.1139
  138MOL0     C18964   9.690   8.980   6.735  0.4968 -0.1173  0.0400
  138MOL0     O18965   9.581   8.942   6.796  0.3657  0.3101 -0.3065
  138MOL0     C18966   9.586   8.970   6.938 -0.8735 -0.5750  1.0358
  138MOL0     C18967   9.595   8.841   7.019 -0.1546 -0.4726 -0.3065
  138MOL0     C18968   9.501   8.716   6.984 -1.2452  0.2075 -0.3465
  138MOL0     C18969   9.441   8.646   7.107  0.7013  0.2355  0.3549
  138MOL0     C18970   9.417   8.506   7.077 -0.6485  0.1160 -0.3459
  138MOL0     C18971   9.417   8.383   7.091 -0.2755 -0.3525 -0.2814
  138MOL0     C18972   9.791   8.891   6.694  1.1330  0.4020 -0.7852
  138MOL0     C18973   9.909   8.928   6.628  0.0308 -0.1169 -0.5437
  138MOL0     C18974  10.012   8.823   6.595  0.4428  0.1721 -0.0978
  138MOL0     H18975  10.140   9.481   6.553 -1.5570 -1.3691  0.8940
  138MOL0     H18976  10.312   9.606   6.417 -0.4950  0.3146  1.2993
  138MOL0     H18977  10.363   9.488   6.009  1.5150  0.5371 -3.7650
  138MOL0     H18978  10.526   9.426   6.061 -1.0159 -1.9290  3.2588
  138MOL0     H18979  10.521   9.627   5.881  2.8258 -0.3281  0.0206
  138MOL0     H18980  10.464   9.729   6.005 -0.2770 -0.5581  3.2644
  138MOL0     H18981  10.666   9.711   6.135  0.0827  2.0248 -1.0034
  138MOL0     H18982  10.724   9.582   6.023  0.8150 -0.3363 -1.6131
  138MOL0     H18983  10.733   9.751   5.840 -0.7803 -1.7341 -0.4693
  138MOL0     H18984  10.681   9.874   5.973 -0.4481 -1.2122  3.8869
  138MOL0     H18985  10.916   9.673   5.960 -0.6146  0.4324 -2.8231
  138MOL0     H18986  10.883   9.794   6.095 -1.0165  3.1763 -0.7191
  138MOL0     H18987  10.980   9.846   5.812  1.6421  0.6081  0.3430
  138MOL0     H18988  10.887   9.969   5.916 -0.0547  0.3003  1.6118
  138MOL0     H18989  11.063   9.926   6.096  0.0622  0.7078 -0.7086
  138MOL0     H18990  11.138   9.997   5.963 -1.6456  1.0389  1.6479
  138MOL0     H18991  11.233   9.770   6.090  0.8164 -0.1681 -0.2324
  138MOL0     H18992  11.131   9.693   5.961 -0.7967  1.3630 -1.8927
  138MOL0     H18993  11.203   9.857   5.717 -1.4542  1.5505  2.6671
  138MOL0     H18994  11.550   9.961   5.618 -0.2574  1.7981  0.4108
  138MOL0     H18995  11.393   9.951   5.543 -1.8547 -1.8168  1.6101
  138MOL0     H18996  11.605   9.740   5.565 -0.5117 -0.2293 -0.0349
  138MOL0     H18997  11.447   9.699   5.486  0.3333 -2.1839  1.1042
  138MOL0     H18998  11.505   9.859   5.306  0.4488 -3.7919 -2.4659
  138MOL0     H18999  11.674   9.876   5.386  1.3304 -0.8934 -0.8879
  138MOL0     H19000  11.687   9.740   5.191 -2.2111  3.8778  0.2554
  138MOL0     H19001  11.723   9.659   5.352  0.9547  2.8872  0.8813
  138MOL0     H19002  11.543   9.738   5.052  0.6215 -1.4272 -0.3474
  138MOL0     H19003  11.368   9.731   4.774 -1.7151  2.5885 -1.9045
  138MOL0     H19004  11.433   9.860   4.881 -1.2992  0.9731 -1.2838
  138MOL0     H19005  11.265   9.845   4.860 -0.4301  0.4929  0.3595
  138MOL0     H19006  10.995   9.283   4.789  1.1847  4.8119  3.3778
  138MOL0     H19007  10.911   9.216   4.564 -1.2217 -0.7407  2.6514
  138MOL0     H19008  10.670   9.513   4.367  0.4800  2.6919  0.4846
  138MOL0     H19009  10.811   9.560   4.268 -0.7324  0.9747 -2.2139
  138MOL0     H19010  10.637   9.476   4.116 -0.2833  1.9444  1.7515
  138MOL0     H19011  10.777   9.368   4.118 -1.8605 -0.0400 -3.6551
  138MOL0     H19012  10.502   9.323   4.245 -1.2646  0.9284 -2.6940
  138MOL0     H19013  10.641   9.220   4.284  1.0036  0.6046  0.1014
  138MOL0     H19014  10.624   9.183   4.007 -1.0741 -3.6709 -0.4597
  138MOL0     H19015  10.456   9.227   4.042 -1.2375 -3.3979 -0.9171
  138MOL0     H19016  10.525   8.973   4.061 -2.0572  1.3313 -1.7970
  138MOL0     H19017  10.555   9.014   4.226  0.9825  1.0956 -0.9492
  138MOL0     H19018  10.298   9.083   4.080  0.1691  0.4353  0.5666
  138MOL0     H19019  10.336   9.147   4.231  1.7613 -0.4697 -0.5203
  138MOL0     H19020  10.395   8.879   4.277 -0.2855 -1.1594 -2.4912
  138MOL0     H19021  10.242   8.870   4.201 -0.0354 -1.2973  0.5123
  138MOL0     H19022  10.201   8.888   4.432 -2.9946  1.4882  0.0932
  138MOL0     H19023  10.153   9.050   4.380 -0.3931 -0.4887  3.0104
  138MOL0     H19024  10.889   9.641   4.466  0.1879 -0.5668 -3.4607
  138MOL0     H19025  11.000   9.696   4.671  0.0805  0.7397 -2.7252
  138MOL0     H19026  11.171   9.433   5.140  4.1663 -2.7530  2.8659
  138MOL0     H19027  11.347   9.432   5.266  0.7404  0.3974  0.7471
  138MOL0     H19028  10.313   9.289   6.124  0.9146  0.5598  0.0381
  138MOL0     H19029  10.137   9.175   6.249 -0.5494 -0.5970  2.3337
  138MOL0     H19030   9.823   9.258   6.600  0.3344  0.3710  1.8461
  138MOL0     H19031   9.635   9.184   6.730  0.0632  0.1145  0.3471
  138MOL0     H19032   9.663   9.046   6.956  0.0788 -1.1059 -0.5385
  138MOL0     H19033   9.488   9.015   6.953 -1.4089 -0.7804 -1.4209
  138MOL0     H19034   9.565   8.872   7.119 -1.9053 -2.6758 -0.0780
  138MOL0     H19035   9.699   8.810   7.024  0.8537  2.2826 -2.0444
  138MOL0     H19036   9.423   8.748   6.914 -2.7561  1.2240  1.6868
  138MOL0     H19037   9.566   8.646   6.931  3.6298  3.3868  0.7608
  138MOL0     H19038   9.344   8.687   7.138  0.3137 -1.8174  2.1939
  138MOL0     H19039   9.514   8.666   7.185  2.9282  0.9784 -1.8112
  138MOL0     H19040   9.434   8.280   7.117 -2.5386 -1.4375 -2.6016
  138MOL0     H19041   9.774   8.794   6.741 -0.7743  0.2039 -1.7997
  138MOL0     H19042  10.096   8.849   6.660 -1.3719  2.4911  1.4908
  138MOL0     H19043   9.976   8.721   6.612 -0.9787  0.3605 -1.7009
  138MOL0     H19044  10.056   8.839   6.497  1.6182 -0.7630  0.2567
  139MOL0     O19045   1.297   9.364   1.695 -0.6909 -0.2632 -0.6247
  139MOL0     C19046   1.236   9.345   1.798 -0.2271 -0.2062 -0.0163
  139MOL0     O19047   1.267   9.244   1.886 -0.1127 -0.4522 -0.6245
  139MOL0     C19048   1.372   9.164   1.844  0.0212  0.0750  1.2688
  139MOL0     C19049   1.349   9.042   1.788 -0.2831  0.3707  0.5071
  139MOL0     C19050   1.448   8.959   1.735 -0.6886 -0.3614  0.1272
  139MOL0     C19051   1.582   9.003   1.744  0.7450 -0.4389  0.0926
  139MOL0     O19052   1.678   8.918   1.691 -0.0279  0.8178 -0.3010
  139MOL0     C19053   1.819   8.954   1.672  0.5040  0.0407 -0.1526
  139MOL0     C19054   1.899   8.839   1.620  0.1258  0.0016 -0.3815
  139MOL0     C19055   2.032   8.885   1.550  0.0025 -0.2316 -0.0354
  139MOL0     C19056   2.099   8.785   1.463  0.0878  0.6880 -0.7813
  139MOL0     C19057   2.219   8.846   1.384 -0.4518  0.2246 -0.3641
  139MOL0     C19058   2.297   8.744   1.306  0.0024 -0.3478  0.2973
  139MOL0     C19059   2.202   8.665   1.217  0.2368  0.1137 -0.2193
  139MOL0     C19060   2.263   8.544   1.145 -0.0159 -0.1328  0.0815
  139MOL0     N19061   2.359   8.592   1.044  0.1153  0.1517 -0.0560
  139MOL0     C19062   2.491   8.624   1.075  1.2494  0.6500  0.6543
  139MOL0     C19063   2.549   8.643   0.954 -0.7372 -0.5638 -0.1747
  139MOL0     C19064   2.693   8.675   0.917 -0.1920 -0.9397  0.0008
  139MOL0     C19065   2.788   8.571   0.864 -0.0213  0.3695 -0.8421
  139MOL0     C19066   2.751   8.532   0.725  0.2386 -0.5178 -0.1614
  139MOL0     C19067   2.824   8.410   0.670  0.7017  0.0210 -1.0169
  139MOL0     O19068   2.747   8.294   0.705 -0.2515  0.1485  0.3054
  139MOL0     C19069   2.683   8.220   0.608  0.6463 -0.2677  0.8479
  139MOL0     C19070   2.545   8.230   0.592  0.4533  0.5610  0.2185
  139MOL0     C19071   2.483   8.171   0.481 -0.1623  0.4578  0.0877
  139MOL0     C19072   2.336   8.194   0.468  1.1295  0.2074  0.2554
  139MOL0     C19073   2.550   8.092   0.384 -1.1494 -0.2885  0.0483
  139MOL0     C19074   2.494   8.025   0.263  0.7359  0.1380  0.0105
  139MOL0     O19075   2.360   8.046   0.237 -0.1853 -0.1402  0.7435
  139MOL0     C19076   2.306   7.970   0.133  1.1157  0.4100  0.0111
  139MOL0     C19077   2.269   8.026   0.014  0.8022 -0.3452  1.0630
  139MOL0     C19078   2.243   7.945  -0.099  0.5093 -0.6232 -0.2189
  139MOL0     C19079   2.230   7.808  -0.075  0.3526  0.1771 -0.5406
  139MOL0     O19080   2.198   7.729  -0.186  0.1465  0.2297  0.3795
  139MOL0     C19081   2.296   7.622  -0.231  0.7036  0.2264 -0.7942
  139MOL0     C19082   2.243   7.550  -0.357 -0.1802 -0.5335  0.1831
  139MOL0     C19083   2.098   7.499  -0.327 -0.0042  0.5842 -1.0142
  139MOL0     C19084   1.993   7.600  -0.352 -0.4188  0.3190 -0.3627
  139MOL0     C19085   1.863   7.526  -0.335 -0.5982 -0.2075 -0.4664
  139MOL0     C19086   1.744   7.611  -0.339  0.5433 -0.8431  0.3286
  139MOL0     C19087   1.609   7.539  -0.360 -0.2109 -0.8714  0.3489
  139MOL0     C19088   1.496   7.640  -0.388  0.3228  0.1891 -1.0306
  139MOL0    Cl19089   1.533   7.744  -0.537  0.1279 -0.4218 -0.6672
  139MOL0     C19090   2.254   7.755   0.053 -0.1012 -0.4434  0.7117
  139MOL0     C19091   2.289   7.833   0.157  0.0446 -0.3188 -0.5915
  139MOL0     O19092   2.568   7.951   0.201 -0.2744  0.0891 -0.1881
  139MOL0     C19093   2.689   8.081   0.403 -0.2671  0.0076  0.2061
  139MOL0     C19094   2.754   8.155   0.508  0.5383  0.0216  0.2862
  139MOL0     N19095   2.447   8.643   0.855 -0.3121 -1.3770 -0.1751
  139MOL0     N19096   2.340   8.611   0.916  1.1580  0.0319  0.2864
  139MOL0     C19097   1.612   9.129   1.796  1.0286  0.2590 -0.0294
  139MOL0     C19098   1.502   9.215   1.844 -0.7883  0.8819  0.7865
  139MOL0     C19099   1.125   9.437   1.847  0.2521 -0.1162 -1.2151
  139MOL0     C19100   1.056   9.410   1.971  0.1910  1.2052  0.0389
  139MOL0     C19101   0.954   9.484   2.020  0.3765 -0.4226 -0.1334
  139MOL0     C19102   0.906   9.595   1.953 -0.7439 -0.2294 -0.6088
  139MOL0     O19103   0.801   9.667   2.010  0.1982  0.4125  0.0073
  139MOL0     C19104   0.833   9.797   2.060 -0.7396 -1.6603 -0.3291
  139MOL0     C19105   0.783   9.806   2.208 -0.3168 -0.5090 -0.2926
  139MOL0     C19106   0.851   9.713   2.312  0.3887  0.2950  0.2843
  139MOL0     C19107   1.005   9.715   2.316 -0.4082 -0.1900  0.6200
  139MOL0     C19108   1.045   9.611   2.414  0.5302  0.3606  0.8380
  139MOL0     C19109   1.083   9.523   2.489  0.0294  0.0046  0.2537
  139MOL0     C19110   0.964   9.628   1.832  0.5036  0.5250  0.5913
  139MOL0     C19111   1.066   9.547   1.773 -0.9098  0.1748  0.1980
  139MOL0     C19112   1.114   9.573   1.625  0.7621  0.0259  0.6489
  139MOL0     H19113   1.247   9.004   1.781  0.2428 -0.8050 -1.9509
  139MOL0     H19114   1.436   8.861   1.691 -0.0355 -0.5922  0.4417
  139MOL0     H19115   1.864   9.000   1.760 -1.4781 -0.8570  1.4069
  139MOL0     H19116   1.822   9.031   1.594  4.5427  1.8316  1.4894
  139MOL0     H19117   1.927   8.765   1.696 -3.1250 -1.5400 -0.4985
  139MOL0     H19118   1.829   8.797   1.546 -0.8306  0.6930  0.0997
  139MOL0     H19119   2.013   8.979   1.498 -4.3701  3.9740  7.3435
  139MOL0     H19120   2.097   8.922   1.630 -1.7578  5.0329 -0.6508
  139MOL0     H19121   2.133   8.698   1.519  2.1302  0.0062 -2.9417
  139MOL0     H19122   2.013   8.758   1.401 -2.0686 -1.1754  2.7002
  139MOL0     H19123   2.281   8.889   1.464 -2.6149  1.8982  0.5024
  139MOL0     H19124   2.171   8.918   1.317  1.0858  2.2271  0.5644
  139MOL0     H19125   2.374   8.793   1.244  0.0865 -0.2182  0.5014
  139MOL0     H19126   2.347   8.677   1.376 -0.5392 -1.0809 -0.0168
  139MOL0     H19127   2.156   8.730   1.142  0.0302  0.9836  0.6432
  139MOL0     H19128   2.124   8.617   1.277 -0.3289  0.6344 -0.5221
  139MOL0     H19129   2.329   8.496   1.219 -0.7528  0.5882  1.2436
  139MOL0     H19130   2.183   8.474   1.119  1.8599 -1.6623 -1.9194
  139MOL0     H19131   2.534   8.617   1.175 -2.4106  4.1945  2.7922
  139MOL0     H19132   2.741   8.729   0.999  2.2007 -0.1935 -1.7601
  139MOL0     H19133   2.691   8.752   0.839  1.4132  0.0662  0.8971
  139MOL0     H19134   2.886   8.620   0.864  1.1785 -1.9096 -0.4603
  139MOL0     H19135   2.785   8.486   0.933  0.4546  0.9228 -0.1171
  139MOL0     H19136   2.643   8.519   0.716  0.1153  1.3742 -3.3018
  139MOL0     H19137   2.766   8.623   0.665 -0.8488 -0.1683  0.0580
  139MOL0     H19138   2.828   8.414   0.560 -3.3423 -2.5404 -1.4751
  139MOL0     H19139   2.916   8.415   0.730 -1.8431 -0.0728  3.2750
  139MOL0     H19140   2.484   8.269   0.672  0.8269  0.7833  0.3994
  139MOL0     H19141   2.270   8.113   0.499  1.5617  0.7636  2.8463
  139MOL0     H19142   2.311   8.225   0.366  2.2897  0.0114 -0.1114
  139MOL0     H19143   2.302   8.278   0.530  3.0470  1.4271 -0.2408
  139MOL0     H19144   2.279   8.134   0.013  1.1869 -0.3640 -0.4637
  139MOL0     H19145   2.219   7.990  -0.194 -1.4979 -0.1077  0.4878
  139MOL0     H19146   2.396   7.658  -0.259  1.0501  1.6814  1.9248
  139MOL0     H19147   2.313   7.547  -0.153 -3.4019 -1.2355 -1.1025
  139MOL0     H19148   2.242   7.609  -0.449  0.8744  2.4402  1.9416
  139MOL0     H19149   2.315   7.469  -0.371  0.2494 -0.5102  2.0261
  139MOL0     H19150   2.092   7.472  -0.221  1.2682  0.1365 -1.0371
  139MOL0     H19151   2.094   7.419  -0.402  1.1213 -1.0172  0.5636
  139MOL0     H19152   2.003   7.642  -0.452  0.1871 -1.3353 -1.0257
  139MOL0     H19153   1.987   7.683  -0.281 -2.2435 -0.7685  0.8368
  139MOL0     H19154   1.866   7.454  -0.418 -3.0408  0.5407 -1.2817
  139MOL0     H19155   1.862   7.463  -0.246  0.7949 -0.3347 -0.5231
  139MOL0     H19156   1.757   7.680  -0.422  2.1535 -0.1434  1.1181
  139MOL0     H19157   1.736   7.661  -0.242  0.8086 -1.0405  0.4536
  139MOL0     H19158   1.590   7.482  -0.268  2.3396 -0.2789  1.3164
  139MOL0     H19159   1.621   7.473  -0.446 -2.1543  0.9024 -1.4030
  139MOL0     H19160   1.485   7.708  -0.303 -0.8546 -1.6165  0.3469
  139MOL0     H19161   1.401   7.588  -0.403  0.6096 -2.1390  3.3088
  139MOL0     H19162   2.240   7.647   0.059 -1.9598 -0.3013 -0.3819
  139MOL0     H19163   2.316   7.792   0.254 -0.2960 -0.1051 -0.4049
  139MOL0     H19164   2.760   8.026   0.344 -0.2085  1.5816 -1.2672
  139MOL0     H19165   2.861   8.137   0.521  0.6681  1.8494  2.2807
  139MOL0     H19166   1.714   9.166   1.795  1.1604 -0.1016  0.0578
  139MOL0     H19167   1.526   9.314   1.882 -0.4431 -0.0038  3.0732
  139MOL0     H19168   1.090   9.336   2.043 -1.0742 -0.4455 -0.9865
  139MOL0     H19169   0.909   9.454   2.115  3.4490  1.8164  2.2398
  139MOL0     H19170   0.937   9.830   2.060 -1.8106  2.7300 -3.5347
  139MOL0     H19171   0.777   9.879   2.014 -0.1787 -1.9198 -1.5175
  139MOL0     H19172   0.675   9.788   2.200 -0.7590  1.0256  1.4300
  139MOL0     H19173   0.793   9.907   2.249  1.2313 -1.2875  1.3719
  139MOL0     H19174   0.817   9.759   2.405 -0.9442  0.4377 -0.2403
  139MOL0     H19175   0.812   9.610   2.311  2.2085 -0.4619  1.3951
  139MOL0     H19176   1.056   9.809   2.339  0.4244 -0.4913  0.0628
  139MOL0     H19177   1.036   9.688   2.215 -0.6926  0.1784  0.4321
  139MOL0     H19178   1.130   9.446   2.546 -1.8763 -0.3999  1.3641
  139MOL0     H19179   0.919   9.707   1.773  2.2035  1.3286  0.3345
  139MOL0     H19180   1.103   9.482   1.566 -1.7622  0.5543  0.1805
  139MOL0     H19181   1.056   9.657   1.583  1.8222  1.2103  1.4844
  139MOL0     H19182   1.219   9.602   1.614  0.6433  0.7075  1.2290
  140MOL0     O19183   8.348   0.264   8.178  0.4843  0.9385 -0.1524
  140MOL0     C19184   8.239   0.246   8.240 -0.8368  0.3634  0.5857
  140MOL0     O19185   8.133   0.338   8.227 -0.0217  0.0457 -0.3538
  140MOL0     C19186   8.159   0.447   8.144 -0.8597 -0.2983  0.3522
  140MOL0     C19187   8.118   0.578   8.190  0.4529  0.1793 -0.4716
  140MOL0     C19188   8.124   0.686   8.104  0.0916 -0.1050  0.1619
  140MOL0     C19189   8.168   0.672   7.974 -0.4857 -1.0262  0.4580
  140MOL0     O19190   8.141   0.783   7.893 -0.5334  0.2033  0.2010
  140MOL0     C19191   8.048   0.890   7.911  0.0710 -0.6203  0.6484
  140MOL0     C19192   8.062   1.010   7.816 -0.5056 -0.2297 -0.0017
  140MOL0     C19193   8.190   1.095   7.812 -0.4925 -0.6334  0.1395
  140MOL0     C19194   8.188   1.219   7.710  0.5218  0.1549  0.3073
  140MOL0     C19195   8.274   1.331   7.767  0.0591 -1.5702 -0.3633
  140MOL0     C19196   8.266   1.462   7.679 -0.6851  0.0079  0.0484
  140MOL0     C19197   8.318   1.584   7.745 -0.4943 -0.1845 -0.0183
  140MOL0     C19198   8.470   1.604   7.766 -0.1948  0.0339  0.1198
  140MOL0     N19199   8.543   1.600   7.639 -0.3436 -0.3821 -0.3224
  140MOL0     C19200   8.502   1.652   7.519  0.7382  0.4846 -0.8728
  140MOL0     C19201   8.598   1.616   7.436  1.0161  0.8565  0.4588
  140MOL0     C19202   8.574   1.653   7.292  0.1176  0.3926 -0.9024
  140MOL0     C19203   8.698   1.627   7.199 -0.3226 -0.1855 -1.3210
  140MOL0     C19204   8.721   1.478   7.179  0.6314 -0.3731 -0.6377
  140MOL0     C19205   8.868   1.437   7.144 -0.2671 -1.1562  0.0274
  140MOL0     O19206   8.881   1.312   7.073 -0.0847  0.1041  0.1620
  140MOL0     C19207   8.925   1.196   7.126  1.1857 -0.0724 -0.2941
  140MOL0     C19208   8.909   1.081   7.054 -0.0121  0.0890  0.4014
  140MOL0     C19209   8.959   0.953   7.102  0.0966  0.0566  0.1528
  140MOL0     C19210   8.949   0.842   6.994  0.1933 -0.7943 -0.9900
  140MOL0     C19211   9.017   0.946   7.230  0.0432  0.3935  0.6795
  140MOL0     C19212   9.076   0.823   7.291 -0.2538 -0.4575  1.0198
  140MOL0     O19213   9.130   0.840   7.414 -0.3972  0.2674  0.5498
  140MOL0     C19214   9.216   0.751   7.462  0.1113 -0.6518  0.7656
  140MOL0     C19215   9.300   0.668   7.384 -0.0069 -0.8281 -0.0837
  140MOL0     C19216   9.384   0.569   7.434  0.0383 -0.6549  0.4381
  140MOL0     C19217   9.374   0.547   7.572 -0.5194 -0.0939 -0.4158
  140MOL0     O19218   9.445   0.446   7.627 -0.7677 -0.1054 -0.1397
  140MOL0     C19219   9.453   0.318   7.561 -0.3474 -0.1516  0.2017
  140MOL0     C19220   9.569   0.240   7.628  0.1164  0.1623 -0.3848
  140MOL0     C19221   9.551   0.095   7.613 -0.2417  0.2798 -0.1169
  140MOL0     C19222   9.450   0.027   7.701 -0.1016  0.9168  0.4040
  140MOL0     C19223   9.481   0.041   7.849 -0.0131 -0.2065 -0.2803
  140MOL0     C19224   9.376  -0.037   7.927 -0.6153 -0.0777 -0.2065
  140MOL0     C19225   9.400  -0.030   8.072 -1.3629 -0.4131  0.2160
  140MOL0     C19226   9.280  -0.080   8.143 -0.5936  0.6566  0.4296
  140MOL0    Cl19227   9.150   0.053   8.142 -0.1297  0.1356 -0.2693
  140MOL0     C19228   9.306   0.635   7.652 -0.4388  0.7443  0.4028
  140MOL0     C19229   9.222   0.737   7.602 -0.3472  0.0016  0.5695
  140MOL0     O19230   9.061   0.720   7.225 -0.4343 -0.3288 -0.6128
  140MOL0     C19231   9.018   1.059   7.311 -0.5786  0.1047  0.1679
  140MOL0     C19232   8.973   1.177   7.259  0.4628  0.3470  0.3794
  140MOL0     N19233   8.709   1.570   7.505  0.5156  0.1415 -0.1522
  140MOL0     N19234   8.672   1.545   7.629 -0.2291 -0.4683 -0.3525
  140MOL0     C19235   8.211   0.549   7.929  1.0085  1.0864 -0.2757
  140MOL0     C19236   8.209   0.436   8.015  0.0413 -0.0446 -0.5890
  140MOL0     C19237   8.222   0.109   8.308  0.3548 -0.9969  0.4155
  140MOL0     C19238   8.094   0.073   8.327  0.1525 -0.0041 -0.5363
  140MOL0     C19239   8.061  -0.047   8.380 -0.1901 -0.2804 -0.3391
  140MOL0     C19240   8.153  -0.142   8.416  0.4983  0.3598  0.0632
  140MOL0     O19241   8.110  -0.260   8.477 -0.0819  0.6014 -0.2755
  140MOL0     C19242   8.201  -0.335   8.558 -0.0366 -0.4234  0.0383
  140MOL0     C19243   8.306  -0.426   8.477 -0.5867 -0.1829 -1.0253
  140MOL0     C19244   8.424  -0.487   8.566 -0.4760 -0.8253 -0.3517
  140MOL0     C19245   8.532  -0.383   8.620 -0.2955 -0.1362  0.3774
  140MOL0     C19246   8.639  -0.443   8.709  0.1578  0.2900  0.0367
  140MOL0     C19247   8.736  -0.489   8.763 -0.1662 -0.1070  0.5691
  140MOL0     C19248   8.288  -0.105   8.392 -0.5334  0.0314 -0.4898
  140MOL0     C19249   8.322   0.014   8.334 -0.8431 -1.0003  0.1630
  140MOL0     C19250   8.459   0.036   8.293  0.3550  0.1043  0.4027
  140MOL0     H19251   8.083   0.596   8.292  1.7563  1.1712 -0.1673
  140MOL0     H19252   8.092   0.779   8.150  0.4471 -0.0744  0.3581
  140MOL0     H19253   8.050   0.935   8.011  0.0866  1.3425 -0.1934
  140MOL0     H19254   7.951   0.844   7.890  1.0771 -2.9220  0.7373
  140MOL0     H19255   8.059   0.963   7.717  1.1804  0.4872 -0.4234
  140MOL0     H19256   7.977   1.077   7.830  0.8846  1.5527  0.2721
  140MOL0     H19257   8.212   1.137   7.910 -2.5235  1.5581 -0.2642
  140MOL0     H19258   8.274   1.036   7.773 -0.2277  0.6567 -1.3424
  140MOL0     H19259   8.216   1.179   7.611  1.2516 -0.2920  0.6879
  140MOL0     H19260   8.087   1.256   7.691  0.9285  0.1498 -2.3589
  140MOL0     H19261   8.379   1.301   7.772  0.1836 -1.5719 -2.1262
  140MOL0     H19262   8.236   1.363   7.864  3.4847  0.5055  0.4664
  140MOL0     H19263   8.315   1.441   7.584 -1.6150  0.6620 -0.5922
  140MOL0     H19264   8.163   1.488   7.652 -0.6858 -0.9212 -0.8949
  140MOL0     H19265   8.256   1.584   7.835 -1.6619  1.3874 -0.7820
  140MOL0     H19266   8.290   1.664   7.676  0.2982  1.5547  1.5875
  140MOL0     H19267   8.497   1.702   7.807  1.2600  0.5938 -2.0337
  140MOL0     H19268   8.503   1.523   7.832 -1.6150 -2.9423 -2.5677
  140MOL0     H19269   8.413   1.703   7.484  1.0123  1.1098 -0.6819
  140MOL0     H19270   8.535   1.756   7.287  3.5820  1.7909 -1.4981
  140MOL0     H19271   8.494   1.584   7.264  2.5141 -1.5612 -3.4409
  140MOL0     H19272   8.685   1.667   7.098 -1.0219 -0.9027 -1.5159
  140MOL0     H19273   8.779   1.680   7.250 -0.9042 -0.3905 -0.1426
  140MOL0     H19274   8.688   1.415   7.261  0.0038 -0.6145 -1.0672
  140MOL0     H19275   8.657   1.465   7.091  0.5891 -0.4207 -0.5984
  140MOL0     H19276   8.908   1.513   7.077 -2.3019  0.0027  0.0786
  140MOL0     H19277   8.925   1.430   7.238 -0.6012 -3.2600  0.1276
  140MOL0     H19278   8.860   1.089   6.957  1.2298 -1.0215 -0.3359
  140MOL0     H19279   8.862   0.777   7.012  1.8368 -2.3182  2.1488
  140MOL0     H19280   9.028   0.768   6.978  0.5142 -0.2950 -1.7834
  140MOL0     H19281   8.948   0.888   6.894 -1.2781  0.8154 -0.2807
  140MOL0     H19282   9.295   0.668   7.276 -0.9916 -0.3049 -0.0417
  140MOL0     H19283   9.432   0.501   7.365 -0.8188 -0.5896 -0.2359
  140MOL0     H19284   9.357   0.267   7.569 -1.0064  0.9703 -0.1958
  140MOL0     H19285   9.485   0.317   7.456  0.6121 -1.3039  0.4886
  140MOL0     H19286   9.663   0.258   7.575  0.6290 -0.3301  0.3492
  140MOL0     H19287   9.580   0.270   7.733  0.7617 -2.7764  0.4762
  140MOL0     H19288   9.644   0.042   7.634 -1.2348 -1.6782 -0.4587
  140MOL0     H19289   9.517   0.069   7.512  1.3539  0.0841 -0.6346
  140MOL0     H19290   9.450  -0.080   7.677 -3.1598  0.4328  2.0190
  140MOL0     H19291   9.344   0.054   7.688 -1.7260 -3.6843  1.9476
  140MOL0     H19292   9.580  -0.002   7.861  1.5388  2.7582 -1.4891
  140MOL0     H19293   9.478   0.143   7.887  1.2612 -1.1943  2.7688
  140MOL0     H19294   9.379  -0.142   7.897 -1.1639 -0.6567  1.6208
  140MOL0     H19295   9.281   0.007   7.895  0.3150  1.5656 -0.8074
  140MOL0     H19296   9.425   0.070   8.107  0.1551 -0.7580  0.2194
  140MOL0     H19297   9.482  -0.101   8.087 -0.1230 -1.5074 -7.5175
  140MOL0     H19298   9.313  -0.115   8.242  0.3084  0.6439  0.1284
  140MOL0     H19299   9.232  -0.164   8.092 -0.6183 -0.2603  1.9031
  140MOL0     H19300   9.311   0.637   7.761  1.0608  2.1078  0.3568
  140MOL0     H19301   9.151   0.793   7.663 -0.9471 -1.6501  1.4374
  140MOL0     H19302   9.060   1.048   7.410 -0.8232 -1.1395  0.1525
  140MOL0     H19303   8.988   1.257   7.331 -1.2469 -0.8736  2.1849
  140MOL0     H19304   8.248   0.546   7.827  0.6785  0.9720 -0.3922
  140MOL0     H19305   8.238   0.339   7.977  0.4930  0.1113 -0.6524
  140MOL0     H19306   8.013   0.145   8.323 -0.9829 -1.1092  1.4171
  140MOL0     H19307   7.956  -0.071   8.394  0.2934 -2.1968  0.3663
  140MOL0     H19308   8.254  -0.271   8.629 -1.3868  2.9307 -1.7400
  140MOL0     H19309   8.139  -0.400   8.621 -0.0253  0.1565  0.6627
  140MOL0     H19310   8.360  -0.376   8.396  0.7271 -1.5040 -1.0179
  140MOL0     H19311   8.256  -0.512   8.432  1.8975 -2.3669  0.1050
  140MOL0     H19312   8.371  -0.539   8.647  1.0549  1.2138  2.1268
  140MOL0     H19313   8.471  -0.557   8.497  0.9410  1.2922 -1.6483
  140MOL0     H19314   8.477  -0.311   8.683  1.5022 -1.8993  4.2646
  140MOL0     H19315   8.584  -0.333   8.538 -1.3663  0.1408 -0.1587
  140MOL0     H19316   8.827  -0.529   8.805 -0.4253 -1.3792 -0.0425
  140MOL0     H19317   8.374  -0.171   8.407  0.8036  0.7343 -4.1259
  140MOL0     H19318   8.509   0.128   8.326  0.3468  1.8703 -3.8615
  140MOL0     H19319   8.506  -0.060   8.315 -2.5081 -1.3161  0.7575
  140MOL0     H19320   8.460   0.052   8.185 -2.7868 -1.6266  0.0118
  141MOL0     O19321   4.216   7.639   3.591  0.7318 -0.0686 -0.3701
  141MOL0     C19322   4.332   7.643   3.550  0.4903 -0.7891 -0.5302
  141MOL0     O19323   4.374   7.611   3.425 -0.5211 -0.3098 -0.2402
  141MOL0     C19324   4.291   7.548   3.335 -0.6677  0.6788 -1.3597
  141MOL0     C19325   4.272   7.408   3.347 -0.7177 -0.0292 -0.5359
  141MOL0     C19326   4.185   7.342   3.259 -0.3251  0.6834 -0.3096
  141MOL0     C19327   4.125   7.411   3.152 -0.3089 -0.2022 -0.7691
  141MOL0     O19328   4.047   7.360   3.052  0.1763  0.2010 -0.3359
  141MOL0     C19329   4.016   7.222   3.045 -0.0908  0.2412 -0.1233
  141MOL0     C19330   3.946   7.204   2.905 -0.0735 -0.3043  0.3322
  141MOL0     C19331   4.021   7.243   2.778 -0.5326  0.3523 -0.5664
  141MOL0     C19332   3.937   7.184   2.659 -1.1288  0.2447  0.5296
  141MOL0     C19333   4.030   7.161   2.543  0.4713  0.9619  0.5423
  141MOL0     C19334   4.057   7.299   2.479 -0.6064  0.1926 -0.5477
  141MOL0     C19335   4.116   7.289   2.340  0.3419 -0.0814 -0.7179
  141MOL0     C19336   4.177   7.416   2.283  0.9856  0.7876  0.7470
  141MOL0     N19337   4.094   7.466   2.173 -0.2507  0.5930  0.3423
  141MOL0     C19338   3.973   7.529   2.172 -0.5294 -0.7252  0.4338
  141MOL0     C19339   3.926   7.512   2.048  0.5480  0.3233 -0.4702
  141MOL0     C19340   3.790   7.565   1.996 -0.4255  0.1993 -0.6806
  141MOL0     C19341   3.717   7.634   2.098  0.1384  0.1798 -0.6946
  141MOL0     C19342   3.615   7.732   2.055 -0.8137  0.6103  0.1568
  141MOL0     C19343   3.489   7.673   1.984  0.9314 -0.0451 -0.0589
  141MOL0     O19344   3.438   7.563   2.063  0.2028 -0.0416  0.0562
  141MOL0     C19345   3.320   7.496   2.039  0.8350  0.1455  0.3195
  141MOL0     C19346   3.300   7.373   2.109 -0.2504  0.2228 -0.1168
  141MOL0     C19347   3.177   7.312   2.121 -0.1719 -0.4284 -0.2925
  141MOL0     C19348   3.171   7.192   2.208 -0.2109  0.0712  0.4494
  141MOL0     C19349   3.064   7.372   2.053 -0.7731  1.0147 -0.7786
  141MOL0     C19350   2.923   7.315   2.045  0.4659 -0.0977  0.1060
  141MOL0     O19351   2.828   7.396   1.985 -0.7753  0.2796  0.6181
  141MOL0     C19352   2.702   7.365   1.971 -0.2951  0.1671 -0.5542
  141MOL0     C19353   2.657   7.280   1.871 -0.1435  0.1019  0.0781
  141MOL0     C19354   2.521   7.247   1.853 -0.1220  0.1027  0.2573
  141MOL0     C19355   2.423   7.304   1.931  0.1746 -0.3147 -0.1099
  141MOL0     O19356   2.293   7.278   1.910  0.6468 -0.7078  0.2217
  141MOL0     C19357   2.251   7.302   1.771 -0.0326 -0.2123  0.6715
  141MOL0     C19358   2.101   7.348   1.761 -0.5662 -0.3949  0.1001
  141MOL0     C19359   1.993   7.255   1.807  0.3095  0.2597  0.2500
  141MOL0     C19360   1.851   7.331   1.803 -1.2484  0.8557 -0.0862
  141MOL0     C19361   1.799   7.349   1.660 -0.1517  0.7659  0.0481
  141MOL0     C19362   1.693   7.454   1.645 -1.0145  0.4866 -0.1573
  141MOL0     C19363   1.641   7.472   1.506  0.5222  0.1893 -0.3447
  141MOL0     C19364   1.742   7.558   1.420 -0.6719 -0.2622 -0.4088
  141MOL0    Cl19365   1.853   7.459   1.308  0.1015  0.2041 -0.1036
  141MOL0     C19366   2.461   7.388   2.038  0.4072  0.3254  0.4674
  141MOL0     C19367   2.597   7.418   2.057  0.2322  0.2930 -0.2955
  141MOL0     O19368   2.899   7.203   2.093  0.0756 -0.4120 -0.3332
  141MOL0     C19369   3.094   7.481   1.957  0.5235  0.5220  0.4019
  141MOL0     C19370   3.221   7.538   1.948 -0.3308  0.2625  0.7754
  141MOL0     N19371   4.016   7.441   1.976  0.6936 -0.0971 -0.1426
  141MOL0     N19372   4.122   7.422   2.044  0.1578  0.0601  0.0053
  141MOL0     C19373   4.140   7.549   3.135 -0.3545  0.2815  0.1373
  141MOL0     C19374   4.224   7.615   3.234  0.4141  0.2271 -0.3158
  141MOL0     C19375   4.436   7.704   3.644 -0.3664  1.0116  0.8825
  141MOL0     C19376   4.561   7.734   3.584 -0.0777  1.1863  0.2150
  141MOL0     C19377   4.657   7.800   3.660  0.8232  1.1465  0.6249
  141MOL0     C19378   4.633   7.822   3.797  0.0482 -0.1663 -0.2794
  141MOL0     O19379   4.720   7.862   3.894  0.0307 -0.3215  0.1009
  141MOL0     C19380   4.839   7.935   3.859 -0.1815 -0.7178  0.8505
  141MOL0     C19381   4.794   8.074   3.783 -0.1458  1.0577 -0.4554
  141MOL0     C19382   4.730   8.173   3.876 -0.4618 -0.0602 -0.3838
  141MOL0     C19383   4.659   8.284   3.801 -0.3521  0.6498  0.8638
  141MOL0     C19384   4.601   8.385   3.894 -0.0767 -0.5143 -0.3604
  141MOL0     C19385   4.540   8.462   3.974  0.0674  0.3741  0.6155
  141MOL0     C19386   4.508   7.797   3.857  1.5937  0.6323  0.4665
  141MOL0     C19387   4.405   7.749   3.776 -0.1045  0.0508  0.1676
  141MOL0     C19388   4.280   7.725   3.851  0.6225  0.2971  0.4252
  141MOL0     H19389   4.318   7.358   3.432 -1.4410  1.1368  0.5658
  141MOL0     H19390   4.168   7.235   3.269  1.4381  0.5302  1.7195
  141MOL0     H19391   3.956   7.186   3.129  1.7188 -0.7383  0.7912
  141MOL0     H19392   4.107   7.162   3.045 -1.4978 -2.0099  0.8000
  141MOL0     H19393   3.891   7.111   2.889 -5.1605  2.4424 -0.2836
  141MOL0     H19394   3.855   7.265   2.915  0.6297  0.5194  2.1112
  141MOL0     H19395   4.025   7.350   2.758  0.9803  0.6030  0.8497
  141MOL0     H19396   4.121   7.198   2.789 -1.5119 -1.7745  0.2504
  141MOL0     H19397   3.901   7.084   2.686  1.9213 -1.9487 -2.6603
  141MOL0     H19398   3.856   7.254   2.634 -1.7778 -1.0219 -1.0615
  141MOL0     H19399   3.988   7.099   2.464 -0.3051 -0.0921  1.7433
  141MOL0     H19400   4.132   7.137   2.574  0.7042  2.9878  1.5262
  141MOL0     H19401   3.961   7.351   2.471 -1.7938 -2.0448 -1.6560
  141MOL0     H19402   4.124   7.353   2.546  0.2390  1.8770 -2.6298
  141MOL0     H19403   4.037   7.248   2.276 -1.0770 -1.1992  1.6424
  141MOL0     H19404   4.192   7.210   2.336 -2.1933 -2.7253  0.0717
  141MOL0     H19405   4.187   7.497   2.356  2.2416 -1.9787  3.9325
  141MOL0     H19406   4.273   7.386   2.239 -0.7351 -0.7191 -2.3017
  141MOL0     H19407   3.928   7.575   2.259  0.1395 -0.4422  0.6389
  141MOL0     H19408   3.734   7.482   1.953  1.2536 -1.5802  0.4078
  141MOL0     H19409   3.818   7.635   1.916 -1.9458 -1.2684 -2.5865
  141MOL0     H19410   3.683   7.559   2.170  1.5320  1.6310  1.5896
  141MOL0     H19411   3.781   7.705   2.149 -0.1518 -0.2026  0.2250
  141MOL0     H19412   3.586   7.774   2.152  0.7991  2.0893  0.0527
  141MOL0     H19413   3.654   7.813   1.992 -0.9926  0.4011 -0.2261
  141MOL0     H19414   3.410   7.743   1.953  0.7272 -1.2675 -2.6416
  141MOL0     H19415   3.509   7.635   1.883  1.2885 -0.0259  0.0061
  141MOL0     H19416   3.385   7.329   2.161 -1.7473 -3.0004 -0.1152
  141MOL0     H19417   3.264   7.148   2.246 -1.5497 -1.4006  2.2039
  141MOL0     H19418   3.118   7.114   2.153  1.9289  0.1787 -1.9196
  141MOL0     H19419   3.109   7.212   2.296  0.0257  0.7685  0.4635
  141MOL0     H19420   2.729   7.226   1.811 -0.1736  1.1121 -0.8966
  141MOL0     H19421   2.484   7.175   1.781 -0.6478 -0.2749  0.8957
  141MOL0     H19422   2.321   7.377   1.733  2.2541 -1.3935  2.3063
  141MOL0     H19423   2.252   7.206   1.717 -2.3512 -0.9212  1.7789
  141MOL0     H19424   2.101   7.450   1.798 -0.7059 -0.1430 -0.5844
  141MOL0     H19425   2.093   7.357   1.653 -1.2660  2.2304  0.3252
  141MOL0     H19426   2.015   7.219   1.909 -2.3636 -1.8996  0.2112
  141MOL0     H19427   1.989   7.170   1.738  0.5368  0.3875  0.0805
  141MOL0     H19428   1.859   7.427   1.856 -1.7695  1.5023 -1.1433
  141MOL0     H19429   1.776   7.276   1.859  1.5111 -1.3700  1.6881
  141MOL0     H19430   1.879   7.389   1.596  0.0986  0.9912  0.4961
  141MOL0     H19431   1.757   7.255   1.625  2.9928 -1.2973  1.3615
  141MOL0     H19432   1.739   7.549   1.674 -0.2669  1.3017 -3.6547
  141MOL0     H19433   1.615   7.430   1.717 -0.7567 -0.5309 -0.2036
  141MOL0     H19434   1.554   7.536   1.522  1.4142  1.2678  0.3528
  141MOL0     H19435   1.605   7.379   1.463  1.7618  0.6497 -2.5649
  141MOL0     H19436   1.810   7.610   1.488 -0.7438 -1.9726  1.0374
  141MOL0     H19437   1.681   7.627   1.362  0.5880  0.5867 -0.7570
  141MOL0     H19438   2.382   7.421   2.104  1.7003  1.9499  1.2898
  141MOL0     H19439   2.628   7.470   2.148  0.7709  0.7442 -0.7314
  141MOL0     H19440   3.017   7.521   1.892  3.0232  0.2608 -2.9816
  141MOL0     H19441   3.242   7.627   1.889  0.5328 -0.0193  0.6333
  141MOL0     H19442   4.095   7.603   3.053  1.5902 -1.3896 -2.1754
  141MOL0     H19443   4.219   7.723   3.226  1.6798  0.2572 -1.0316
  141MOL0     H19444   4.568   7.726   3.476  0.5877 -0.6150  0.3577
  141MOL0     H19445   4.742   7.827   3.599 -0.2620  1.0894 -0.9892
  141MOL0     H19446   4.895   7.976   3.943  1.1578 -1.0058  0.1292
  141MOL0     H19447   4.902   7.864   3.805  1.5493 -2.2233  4.5120
  141MOL0     H19448   4.731   8.053   3.696 -0.8377  2.6574 -0.3590
  141MOL0     H19449   4.879   8.115   3.727 -0.6376  1.3256 -1.0086
  141MOL0     H19450   4.654   8.137   3.946 -0.4458  0.4075 -0.1195
  141MOL0     H19451   4.806   8.219   3.940 -1.4867  1.3553 -0.1451
  141MOL0     H19452   4.577   8.247   3.738 -1.0440  2.9915  0.2709
  141MOL0     H19453   4.734   8.343   3.749  1.9698 -2.0335  0.9147
  141MOL0     H19454   4.511   8.532   4.050 -1.4356  0.2775  0.1677
  141MOL0     H19455   4.495   7.810   3.964 -1.5754  1.5670  0.0721
  141MOL0     H19456   4.282   7.781   3.946  0.5514 -0.0578  0.6383
  141MOL0     H19457   4.187   7.762   3.808 -0.3782 -1.1023  1.3099
  141MOL0     H19458   4.259   7.619   3.867 -1.0774  0.5756  0.2190
  142MOL0     O19459  10.383   7.709   0.863  0.1072  0.1089  0.3699
  142MOL0     C19460  10.286   7.677   0.794 -0.2952 -0.5649  0.4776
  142MOL0     O19461  10.291   7.675   0.655 -0.1522  0.1186 -0.5500
  142MOL0     C19462  10.405   7.710   0.589 -0.2570  0.2379  0.4850
  142MOL0     C19463  10.459   7.619   0.495  0.1522  0.7422  0.2749
  142MOL0     C19464  10.570   7.649   0.412 -1.0299 -0.9013 -0.4899
  142MOL0     C19465  10.633   7.777   0.418  0.3012  0.8378 -0.1383
  142MOL0     O19466  10.731   7.791   0.330  0.2795 -0.3424  0.5273
  142MOL0     C19467  10.792   7.921   0.305  0.3541  0.6172  0.3154
  142MOL0     C19468  10.894   7.975   0.419 -0.4490 -1.2228  0.6515
  142MOL0     C19469  10.915   8.123   0.393 -0.4264  0.2987 -0.4484
  142MOL0     C19470  11.011   8.172   0.275  0.1110  0.5364 -0.4176
  142MOL0     C19471  11.080   8.297   0.318 -0.2411 -0.2553 -0.1380
  142MOL0     C19472  11.164   8.376   0.215 -0.6613  0.4826  0.4061
  142MOL0     C19473  11.283   8.300   0.163  0.4115  0.5553 -0.6377
  142MOL0     C19474  11.403   8.392   0.147 -0.6082  0.0148  0.1325
  142MOL0     N19475  11.523   8.317   0.111 -0.8837 -0.6527  0.8705
  142MOL0     C19476  11.601   8.227   0.180 -0.4501 -0.3201 -0.1005
  142MOL0     C19477  11.698   8.181   0.093 -0.5331  0.2344  0.3476
  142MOL0     C19478  11.815   8.086   0.121 -0.1065  0.9548 -0.5664
  142MOL0     C19479  11.935   8.174   0.173  0.2093  0.4165 -0.5831
  142MOL0     C19480  12.057   8.081   0.183  0.4684  0.5936  0.8000
  142MOL0     C19481  12.181   8.169   0.216  0.2970 -0.5706  0.6783
  142MOL0     O19482  12.299   8.084   0.229  0.6630 -0.5873  0.1695
  142MOL0     C19483  12.421   8.147   0.215  0.8188 -0.3257  0.2881
  142MOL0     C19484  12.529   8.072   0.272 -0.5069  0.4119  0.3862
  142MOL0     C19485  12.664   8.116   0.268 -0.1419 -0.0140  0.8953
  142MOL0     C19486  12.774   8.015   0.307 -0.5267 -0.4006  0.4550
  142MOL0     C19487  12.684   8.244   0.210 -0.0154 -0.2124 -0.3752
  142MOL0     C19488  12.822   8.309   0.198 -0.0797  0.2083 -0.6402
  142MOL0     O19489  12.835   8.396   0.094  0.2250 -0.4249  0.5149
  142MOL0     C19490  12.926   8.497   0.100 -0.2997 -0.1782 -0.2180
  142MOL0     C19491  13.058   8.470   0.069 -0.2438  0.0110 -0.6889
  142MOL0     C19492  13.154   8.576   0.062  0.0348 -0.2670 -0.5244
  142MOL0     C19493  13.121   8.705   0.110 -0.2928 -0.1644 -0.0841
  142MOL0     O19494  13.206   8.807   0.125  0.1895 -0.1085 -0.9313
  142MOL0     C19495  13.335   8.797   0.057 -0.7540  0.4172 -0.8432
  142MOL0     C19496  13.413   8.929   0.063  0.3235 -0.4843 -0.4362
  142MOL0     C19497  13.332   9.062   0.038  0.7753  0.4796 -0.4082
  142MOL0     C19498  13.361   9.113  -0.104  0.3916  0.4151 -0.1551
  142MOL0     C19499  13.330   9.266  -0.119 -1.1352 -0.4047 -0.6263
  142MOL0     C19500  13.324   9.307  -0.262 -0.8528 -0.0669  0.2143
  142MOL0     C19501  13.329   9.452  -0.274 -0.5671 -0.0782  0.3117
  142MOL0     C19502  13.383   9.500  -0.410 -0.0968  0.2227  0.2209
  142MOL0    Cl19503  13.295   9.409  -0.542  0.4353 -0.2069 -0.2809
  142MOL0     C19504  12.991   8.726   0.152  0.0469 -0.0876 -0.1209
  142MOL0     C19505  12.890   8.628   0.150  0.5068  0.5004 -0.9420
  142MOL0     O19506  12.909   8.287   0.285  0.0275 -0.3204 -0.0848
  142MOL0     C19507  12.571   8.324   0.179  0.5374  0.1518  0.1981
  142MOL0     C19508  12.437   8.283   0.188 -0.2389  0.2501  0.8543
  142MOL0     N19509  11.683   8.249  -0.028  0.8262  0.4375  0.3225
  142MOL0     N19510  11.572   8.323  -0.017 -0.0142  0.0807 -0.3746
  142MOL0     C19511  10.571   7.876   0.503 -0.9037  0.2695 -1.0978
  142MOL0     C19512  10.457   7.839   0.588 -0.3152 -0.0235  0.1286
  142MOL0     C19513  10.169   7.642   0.888 -0.0205  0.5481 -0.8815
  142MOL0     C19514  10.143   7.707   1.007  0.3298 -0.7764 -0.5469
  142MOL0     C19515  10.035   7.672   1.083  1.1850  0.1078 -0.2267
  142MOL0     C19516   9.935   7.578   1.042  0.6176  0.1734  0.6860
  142MOL0     O19517   9.821   7.545   1.108 -0.3551 -0.0672 -0.5243
  142MOL0     C19518   9.790   7.602   1.245  0.1556  0.2826 -0.6943
  142MOL0     C19519   9.865   7.532   1.367  0.2042  0.7832  0.0928
  142MOL0     C19520   9.786   7.562   1.497 -0.7909  1.3646  0.4872
  142MOL0     C19521   9.784   7.701   1.543  0.2234  0.1981  0.8680
  142MOL0     C19522   9.690   7.730   1.658 -1.0247  0.5787  0.1233
  142MOL0     C19523   9.611   7.759   1.749 -0.3323  0.0223 -0.8199
  142MOL0     C19524   9.967   7.505   0.926 -0.2768 -0.2969  0.2801
  142MOL0     C19525  10.076   7.543   0.852  0.3656  1.0573  0.9503
  142MOL0     C19526  10.099   7.448   0.737 -0.1339 -0.0418 -0.2791
  142MOL0     H19527  10.413   7.523   0.473  1.3897 -0.6087  3.0886
  142MOL0     H19528  10.603   7.592   0.326  0.3972 -1.9627  0.6948
  142MOL0     H19529  10.714   7.993   0.279 -0.9636 -0.9517 -0.2127
  142MOL0     H19530  10.847   7.904   0.212 -0.3090 -2.3282  0.3524
  142MOL0     H19531  10.851   7.968   0.519  1.6032  0.5509  1.7393
  142MOL0     H19532  10.989   7.921   0.412 -0.4000 -0.9749 -1.2177
  142MOL0     H19533  10.816   8.165   0.371 -1.4962 -0.2577  2.7302
  142MOL0     H19534  10.957   8.162   0.486  1.4274  0.0522 -1.1474
  142MOL0     H19535  11.085   8.099   0.243 -0.0697  0.6206 -1.0432
  142MOL0     H19536  10.948   8.197   0.188 -1.3325 -1.3313  0.0310
  142MOL0     H19537  11.135   8.268   0.409 -2.2972  0.8173  1.5444
  142MOL0     H19538  11.002   8.357   0.366  0.6315  1.2643 -0.5635
  142MOL0     H19539  11.109   8.412   0.128  2.4070 -0.9906 -2.3757
  142MOL0     H19540  11.195   8.467   0.268 -1.4478  0.3830  1.0627
  142MOL0     H19541  11.260   8.258   0.065 -0.9938  0.0428 -0.1164
  142MOL0     H19542  11.305   8.216   0.229 -1.8326 -0.7107 -1.3798
  142MOL0     H19543  11.394   8.473   0.074  0.7458 -2.1598 -2.6623
  142MOL0     H19544  11.421   8.438   0.244 -0.3560  0.6140 -0.1935
  142MOL0     H19545  11.577   8.205   0.283 -0.2961  0.6124  0.1491
  142MOL0     H19546  11.839   8.024   0.034 -0.4225 -2.1445  1.4198
  142MOL0     H19547  11.783   8.027   0.207  1.0865 -1.2967 -1.5709
  142MOL0     H19548  11.966   8.257   0.110  1.5907  0.0605 -0.4016
  142MOL0     H19549  11.907   8.214   0.271 -0.3674  1.3214 -1.1053
  142MOL0     H19550  12.041   8.020   0.272 -2.5103 -0.9228 -0.5955
  142MOL0     H19551  12.067   8.011   0.099 -2.9348  0.3275  0.4634
  142MOL0     H19552  12.187   8.238   0.132 -0.0756 -1.3476  0.0036
  142MOL0     H19553  12.179   8.228   0.308  4.0676 -2.0741  1.9297
  142MOL0     H19554  12.503   7.970   0.296 -1.8959  0.2858 -1.4875
  142MOL0     H19555  12.784   8.009   0.416  1.1605 -2.9953  0.2604
  142MOL0     H19556  12.874   8.039   0.269 -0.1222 -0.1663  1.6144
  142MOL0     H19557  12.754   7.912   0.279  3.2260 -0.9815 -0.7390
  142MOL0     H19558  13.092   8.372   0.036  0.7651 -0.3851  1.3924
  142MOL0     H19559  13.253   8.551   0.026 -0.7987 -2.1830 -1.6982
  142MOL0     H19560  13.396   8.722   0.108  0.2644  0.9585 -1.2245
  142MOL0     H19561  13.344   8.767  -0.048  1.7667 -0.6234 -0.4204
  142MOL0     H19562  13.443   8.941   0.168 -1.0037 -1.4213  0.0797
  142MOL0     H19563  13.499   8.927  -0.004 -0.1506 -1.2670 -1.0310
  142MOL0     H19564  13.355   9.138   0.113 -0.9498  0.2167  0.4537
  142MOL0     H19565  13.223   9.052   0.050  0.6657  1.1983 -0.7334
  142MOL0     H19566  13.299   9.052  -0.169  0.8476  2.4306 -2.6419
  142MOL0     H19567  13.468   9.097  -0.120  0.7476  1.9004  0.5080
  142MOL0     H19568  13.235   9.295  -0.072 -0.7761  1.2341 -0.8295
  142MOL0     H19569  13.404   9.324  -0.062 -2.6185  0.8802  0.0684
  142MOL0     H19570  13.239   9.255  -0.307  0.9582 -2.8406 -0.2796
  142MOL0     H19571  13.416   9.266  -0.303 -1.0062  0.4282 -0.6441
  142MOL0     H19572  13.386   9.493  -0.190 -2.3014  3.4874 -0.0636
  142MOL0     H19573  13.229   9.492  -0.257 -0.1843  1.7976 -1.4317
  142MOL0     H19574  13.489   9.488  -0.431 -0.4334 -1.7095 -0.5695
  142MOL0     H19575  13.364   9.608  -0.420 -0.9244  0.2317  1.6276
  142MOL0     H19576  12.979   8.830   0.181  2.8752  0.0553  0.8586
  142MOL0     H19577  12.791   8.642   0.192  1.1153 -2.3508  1.8444
  142MOL0     H19578  12.588   8.422   0.136 -3.4383  0.5399 -0.8509
  142MOL0     H19579  12.349   8.341   0.162  0.8163  1.8499  0.7368
  142MOL0     H19580  10.614   7.974   0.518 -1.3461  0.2181  0.8300
  142MOL0     H19581  10.417   7.923   0.644  0.6406  0.6489 -0.1735
  142MOL0     H19582  10.209   7.784   1.047  0.7590 -1.3076 -0.2266
  142MOL0     H19583  10.022   7.726   1.177 -2.0180 -0.4506 -0.2303
  142MOL0     H19584   9.807   7.710   1.249  1.9648  0.0883 -1.8705
  142MOL0     H19585   9.682   7.591   1.258  0.2228  0.5367  0.1628
  142MOL0     H19586   9.964   7.578   1.373 -1.0787  3.5824  2.0224
  142MOL0     H19587   9.868   7.425   1.344 -0.3473  1.4901 -4.2213
  142MOL0     H19588   9.678   7.545   1.492 -0.7827  0.4283  2.5767
  142MOL0     H19589   9.824   7.498   1.577 -4.6999 -1.5859  0.2816
  142MOL0     H19590   9.762   7.762   1.455  1.3163  0.0073  0.4591
  142MOL0     H19591   9.886   7.725   1.573  0.0459 -0.3110  1.9167
  142MOL0     H19592   9.541   7.770   1.829  0.5765 -3.1447  0.5760
  142MOL0     H19593   9.901   7.426   0.893 -0.9849  0.5636 -0.4180
  142MOL0     H19594  10.191   7.393   0.760 -1.2063 -1.9255 -0.3098
  142MOL0     H19595  10.026   7.369   0.716 -1.7620  1.8954 -2.3149
  142MOL0     H19596  10.108   7.507   0.646  1.0742  1.4642  0.7680
  143MOL0     O19597   3.568   9.104  10.946 -0.3069 -0.5974 -0.8038
  143MOL0     C19598   3.665   9.031  10.967 -0.3480  0.3039  0.2287
  143MOL0     O19599   3.652   8.916  11.024 -0.7830  0.0045 -0.5194
  143MOL0     C19600   3.572   8.921  11.134 -0.4342 -0.6795  0.1664
  143MOL0     C19601   3.638   8.928  11.259 -0.0239  0.4057 -0.0302
  143MOL0     C19602   3.561   8.922  11.378 -0.8263 -0.1902 -0.0381
  143MOL0     C19603   3.425   8.901  11.376  0.2542  0.4380  1.0215
  143MOL0     O19604   3.366   8.886  11.500 -0.1786  0.1542 -0.5434
  143MOL0     C19605   3.277   8.992  11.516  0.5865  0.4398  0.2947
  143MOL0     C19606   3.235   8.995  11.668  0.0142 -0.7057 -0.3210
  143MOL0     C19607   3.156   9.120  11.720  0.5789  0.2722 -0.7083
  143MOL0     C19608   3.050   9.199  11.625 -0.0716  0.4693  0.9860
  143MOL0     C19609   2.920   9.131  11.621  0.2706 -0.1344  0.1878
  143MOL0     C19610   2.833   9.192  11.515  0.4276 -0.0779  0.3402
  143MOL0     C19611   2.876   9.191  11.375  0.6463  0.0794  0.8945
  143MOL0     C19612   2.899   9.042  11.325 -0.6058  1.0483  0.2013
  143MOL0     N19613   2.965   9.033  11.194 -0.4918 -0.8791 -0.3144
  143MOL0     C19614   2.954   9.121  11.091 -0.1109 -0.3581 -0.5651
  143MOL0     C19615   3.029   9.076  10.988  0.6717  0.1220 -0.1258
  143MOL0     C19616   3.045   9.150  10.856  0.0538 -0.3107 -0.0179
  143MOL0     C19617   3.193   9.155  10.817  0.0488 -0.2055  0.0807
  143MOL0     C19618   3.221   9.250  10.699 -0.5520  0.1919 -0.1826
  143MOL0     C19619   3.360   9.235  10.638  0.0066  0.7521 -0.8363
  143MOL0     O19620   3.355   9.309  10.519 -0.7029 -0.0811 -0.6030
  143MOL0     C19621   3.475   9.341  10.447  0.4028  0.7483  0.2342
  143MOL0     C19622   3.601   9.307  10.492 -0.0639 -0.0059 -0.3594
  143MOL0     C19623   3.715   9.339  10.416 -0.0118 -0.1388 -0.1672
  143MOL0     C19624   3.851   9.309  10.491 -0.5426 -0.2760  0.4609
  143MOL0     C19625   3.697   9.405  10.290  0.5884 -0.5308  0.0643
  143MOL0     C19626   3.808   9.430  10.196 -0.6921 -0.5572  0.1259
  143MOL0     O19627   3.938   9.400  10.236 -0.4401 -0.0815 -0.2950
  143MOL0     C19628   4.042   9.470  10.178  0.4545  0.5298 -1.2489
  143MOL0     C19629   4.171   9.414  10.183  0.7244 -0.4484 -0.0971
  143MOL0     C19630   4.275   9.479  10.120  0.3490  0.5170 -0.1480
  143MOL0     C19631   4.268   9.606  10.065  0.3246  1.3540 -0.2213
  143MOL0     O19632   4.387   9.664  10.024  0.0359 -0.3358  0.5430
  143MOL0     C19633   4.388   9.746   9.906 -0.1389  0.2830 -0.6348
  143MOL0     C19634   4.483   9.693   9.798  0.0344 -0.3144 -1.0308
  143MOL0     C19635   4.632   9.677   9.850 -0.3807 -0.4429  0.6942
  143MOL0     C19636   4.709   9.805   9.852 -0.7769  0.9780 -0.4349
  143MOL0     C19637   4.710   9.888   9.717  0.3020  0.4320 -1.3006
  143MOL0     C19638   4.799  10.009   9.732 -0.0841  0.2873 -0.2992
  143MOL0     C19639   4.955   9.999   9.739  0.9432  0.0471  1.0416
  143MOL0     C19640   5.035  10.125   9.720  0.6585 -0.1431 -0.0669
  143MOL0    Cl19641   5.015  10.185   9.550  0.0167 -0.5217  0.1987
  143MOL0     C19642   4.142   9.660  10.065  0.9117 -0.0562 -0.5344
  143MOL0     C19643   4.024   9.593  10.116 -0.8588 -0.4071  1.5383
  143MOL0     O19644   3.778   9.448  10.079  0.0557 -0.5737 -0.4215
  143MOL0     C19645   3.562   9.435  10.249 -0.1777 -1.0008 -0.0989
  143MOL0     C19646   3.456   9.412  10.331  0.4244 -0.3800  0.6432
  143MOL0     N19647   3.083   8.955  11.025 -0.5860 -0.2248  0.0912
  143MOL0     N19648   3.046   8.933  11.149 -0.5415  0.1022  0.5895
  143MOL0     C19649   3.365   8.877  11.247  0.2982  1.1918  0.4722
  143MOL0     C19650   3.436   8.897  11.127 -0.4539 -0.6781  0.0725
  143MOL0     C19651   3.786   9.056  10.897 -0.4573  0.9075 -0.1187
  143MOL0     C19652   3.870   8.949  10.860 -0.8608  1.4735  0.1888
  143MOL0     C19653   3.991   8.962  10.788  0.0743 -0.8642 -0.9468
  143MOL0     C19654   4.033   9.091  10.755 -0.3412  0.2577 -0.1778
  143MOL0     O19655   4.156   9.102  10.696 -0.3829  0.0118  0.0227
  143MOL0     C19656   4.199   9.230  10.641  1.1798  0.4228 -0.7186
  143MOL0     C19657   4.341   9.217  10.600  0.2060  0.3632  0.4837
  143MOL0     C19658   4.372   9.179  10.459 -0.7844  0.2761  0.7306
  143MOL0     C19659   4.492   9.246  10.396  0.1426  0.2022 -0.2534
  143MOL0     C19660   4.503   9.208  10.254 -0.6639 -0.2955  0.3826
  143MOL0     C19661   4.516   9.195  10.135 -0.2591  0.0494  0.3653
  143MOL0     C19662   3.958   9.199  10.793 -0.1992 -0.1547  0.3806
  143MOL0     C19663   3.837   9.182  10.867 -0.0377  0.3278  0.5162
  143MOL0     C19664   3.753   9.304  10.881 -0.0996  0.7775  0.5450
  143MOL0     H19665   3.744   8.954  11.261  0.0435  0.1702 -0.3662
  143MOL0     H19666   3.615   8.939  11.470  0.0775 -1.4334 -0.3096
  143MOL0     H19667   3.192   8.975  11.449  1.0653 -0.8047 -0.0177
  143MOL0     H19668   3.318   9.088  11.484  0.0869  0.3773 -0.5880
  143MOL0     H19669   3.174   8.908  11.695  0.4985 -1.4629 -1.6013
  143MOL0     H19670   3.333   9.000  11.716 -0.3634  2.0826  0.2846
  143MOL0     H19671   3.096   9.087  11.805  0.0597  1.7551 -0.4751
  143MOL0     H19672   3.225   9.198  11.752 -0.6372  0.7682  0.8340
  143MOL0     H19673   3.037   9.303  11.655 -1.9077  0.3346  0.8273
  143MOL0     H19674   3.093   9.204  11.524 -1.9284  2.5600  0.1979
  143MOL0     H19675   2.868   9.151  11.715 -0.0221  0.8878 -0.1731
  143MOL0     H19676   2.927   9.022  11.611  0.1750 -0.0734 -0.6577
  143MOL0     H19677   2.730   9.157  11.527  0.4668 -0.0363  0.8417
  143MOL0     H19678   2.827   9.298  11.540  0.6712  0.0820 -0.2571
  143MOL0     H19679   2.963   9.256  11.373  0.9110 -0.2775 -0.0429
  143MOL0     H19680   2.797   9.229  11.309  2.3533  1.1957 -0.5972
  143MOL0     H19681   2.953   8.982  11.399  6.8836  0.2887 -4.7336
  143MOL0     H19682   2.800   8.996  11.315  0.8736 -2.2570 -0.8959
  143MOL0     H19683   2.900   9.215  11.099  0.3262 -0.2624  2.6343
  143MOL0     H19684   3.001   9.250  10.859 -1.2832 -0.8652 -0.3043
  143MOL0     H19685   2.991   9.103  10.773 -1.9721  3.0150 -0.7653
  143MOL0     H19686   3.242   9.194  10.906 -0.3060  0.9388 -0.2136
  143MOL0     H19687   3.225   9.054  10.787 -0.1400  0.4474 -2.5669
  143MOL0     H19688   3.153   9.213  10.621 -0.3593 -0.6778  0.0441
  143MOL0     H19689   3.212   9.354  10.730  1.9644  0.2162  0.7155
  143MOL0     H19690   3.435   9.266  10.712  0.9091 -0.4109 -1.2483
  143MOL0     H19691   3.393   9.133  10.618  2.9227  0.9304  2.2055
  143MOL0     H19692   3.607   9.249  10.583  1.3066 -1.3133 -1.2326
  143MOL0     H19693   3.921   9.244  10.438  0.1572 -0.4274  1.5375
  143MOL0     H19694   3.837   9.277  10.594  0.3196 -1.8736  0.1163
  143MOL0     H19695   3.914   9.398  10.501  0.9490 -1.5494  3.4890
  143MOL0     H19696   4.187   9.314  10.222  0.0180 -0.7567 -0.5553
  143MOL0     H19697   4.380   9.450  10.114 -0.2988 -1.8412 -1.3011
  143MOL0     H19698   4.290   9.763   9.860 -0.9796  1.6541  1.5025
  143MOL0     H19699   4.433   9.844   9.924 -0.9858  0.5180  0.2684
  143MOL0     H19700   4.460   9.594   9.757  0.2558  0.0041 -1.9388
  143MOL0     H19701   4.482   9.756   9.709  1.0131  1.7465  0.3590
  143MOL0     H19702   4.677   9.622   9.767 -0.3029  0.7365 -0.0646
  143MOL0     H19703   4.647   9.617   9.941  0.8368 -1.5345 -0.1862
  143MOL0     H19704   4.811   9.780   9.883 -2.0237 -1.0130  2.5818
  143MOL0     H19705   4.674   9.859   9.940  0.9522 -2.1186  2.3719
  143MOL0     H19706   4.738   9.831   9.628  2.0225  0.5501 -0.8649
  143MOL0     H19707   4.603   9.911   9.716 -0.1851 -1.5854 -0.6590
  143MOL0     H19708   4.774  10.066   9.822 -0.8176 -0.4757 -0.0118
  143MOL0     H19709   4.774  10.057   9.637 -1.0263 -2.5928 -1.6256
  143MOL0     H19710   5.000   9.923   9.675  3.2050  1.9169  0.2714
  143MOL0     H19711   4.977   9.980   9.845 -2.1621  1.2605  2.0191
  143MOL0     H19712   5.140  10.097   9.734  0.9910  1.2232  0.3893
  143MOL0     H19713   5.010  10.203   9.792  4.6823  2.0310 -0.6886
  143MOL0     H19714   4.114   9.753  10.016 -3.9441  0.2215  2.0595
  143MOL0     H19715   3.933   9.652  10.121 -0.3020  0.5347  0.8645
  143MOL0     H19716   3.533   9.472  10.151 -2.9895 -0.1379  0.9743
  143MOL0     H19717   3.353   9.438  10.306  0.3975 -1.1954 -0.1664
  143MOL0     H19718   3.263   8.839  11.250  0.7274  0.0591  2.0986
  143MOL0     H19719   3.371   8.891  11.040 -2.4454  0.2124  1.4262
  143MOL0     H19720   3.832   8.851  10.887  2.3686  0.7877  3.0459
  143MOL0     H19721   4.056   8.880  10.759 -0.3729 -1.0138 -1.5457
  143MOL0     H19722   4.125   9.250  10.563 -1.2266 -1.5727  0.8916
  143MOL0     H19723   4.199   9.305  10.720  0.8726 -1.7420  1.4496
  143MOL0     H19724   4.382   9.143  10.670 -1.2754  0.1740  1.2005
  143MOL0     H19725   4.388   9.314  10.619 -1.7800  1.3322  0.6826
  143MOL0     H19726   4.377   9.071  10.447 -0.8017  0.2980  0.5157
  143MOL0     H19727   4.282   9.211  10.404 -3.4852 -1.3494  3.9047
  143MOL0     H19728   4.581   9.210  10.448  1.0309  0.3040 -1.6668
  143MOL0     H19729   4.485   9.355  10.401  1.5307  0.5019 -3.1237
  143MOL0     H19730   4.538   9.184  10.031 -0.0657 -2.7983  0.6328
  143MOL0     H19731   3.988   9.301  10.769 -0.1670 -0.4169 -0.7067
  143MOL0     H19732   3.684   9.298  10.797 -0.5147 -0.5389  0.9645
  143MOL0     H19733   3.694   9.300  10.973 -3.3514 -0.8836 -1.4559
  143MOL0     H19734   3.805   9.399  10.866 -1.4528  1.4494 -0.0221
  144MOL0     O19735   0.265   1.810   2.273  0.0374  0.3036 -0.2632
  144MOL0     C19736   0.239   1.859   2.380  0.1272 -0.5211 -0.0360
  144MOL0     O19737   0.321   1.944   2.446 -0.4207  0.8732  0.4706
  144MOL0     C19738   0.455   1.958   2.409 -0.7775 -1.0339  0.1972
  144MOL0     C19739   0.546   1.895   2.487 -0.4187 -0.5512 -0.2694
  144MOL0     C19740   0.680   1.922   2.472  0.2097  0.1424  0.4741
  144MOL0     C19741   0.730   2.010   2.369  0.4680  0.4480 -0.8773
  144MOL0     O19742   0.857   2.045   2.352  0.3965  0.3118  0.6836
  144MOL0     C19743   0.951   1.938   2.366 -0.7027  0.9464  0.1112
  144MOL0     C19744   1.081   1.999   2.400  0.4663 -0.5393  0.3657
  144MOL0     C19745   1.206   1.905   2.367 -0.3557 -1.0049 -0.1915
  144MOL0     C19746   1.246   1.895   2.220  0.4575 -0.4169 -0.2450
  144MOL0     C19747   1.352   1.778   2.202 -0.0402  0.1392 -0.1619
  144MOL0     C19748   1.387   1.758   2.046  0.3636 -0.3400 -0.1611
  144MOL0     C19749   1.483   1.634   2.031  0.0002 -1.2941  0.3222
  144MOL0     C19750   1.535   1.637   1.888  0.4976 -0.0508 -0.5414
  144MOL0     N19751   1.630   1.530   1.866  0.1314  0.9175 -0.0672
  144MOL0     C19752   1.758   1.543   1.902 -0.8465  0.3257  0.0803
  144MOL0     C19753   1.814   1.434   1.838 -1.1022  0.3588 -0.6540
  144MOL0     C19754   1.962   1.420   1.847  0.5530 -1.5926  0.6606
  144MOL0     C19755   2.015   1.361   1.710  0.8734  0.3866 -0.3967
  144MOL0     C19756   2.163   1.338   1.690  0.5207  0.2234  0.2012
  144MOL0     C19757   2.229   1.477   1.665 -0.2004  0.0928 -0.4533
  144MOL0     O19758   2.361   1.451   1.624  0.5650  0.4152 -1.1914
  144MOL0     C19759   2.451   1.541   1.578 -0.5250 -0.1455  0.6360
  144MOL0     C19760   2.430   1.684   1.594  1.0655  0.2661 -0.0134
  144MOL0     C19761   2.515   1.782   1.551 -0.2583 -0.1190  0.4250
  144MOL0     C19762   2.458   1.917   1.571  0.1633 -0.1258 -0.2776
  144MOL0     C19763   2.640   1.742   1.501  0.1367 -0.3852 -0.0681
  144MOL0     C19764   2.753   1.833   1.463 -0.0180  1.2516 -0.5717
  144MOL0     O19765   2.722   1.964   1.465  0.0385 -0.0434  0.0121
  144MOL0     C19766   2.819   2.063   1.455  0.1523  0.0887 -0.4737
  144MOL0     C19767   2.947   2.068   1.516 -0.3451  0.1990 -0.0800
  144MOL0     C19768   3.030   2.180   1.512 -0.0533 -0.2314 -0.5507
  144MOL0     C19769   2.980   2.299   1.454 -0.3750 -0.4274 -0.4714
  144MOL0     O19770   3.067   2.402   1.459  0.2228 -0.6035  0.1332
  144MOL0     C19771   3.031   2.535   1.413  0.2054 -0.1391 -0.4820
  144MOL0     C19772   3.147   2.640   1.435  0.1876  0.3290  0.2056
  144MOL0     C19773   3.285   2.610   1.382  0.1149  0.3802  0.4579
  144MOL0     C19774   3.407   2.707   1.417  0.1475 -0.0261  0.1970
  144MOL0     C19775   3.530   2.673   1.334  0.6442 -0.5047  0.1628
  144MOL0     C19776   3.645   2.767   1.356  0.2731 -0.6224  0.3750
  144MOL0     C19777   3.772   2.715   1.298 -0.0462  0.8893 -0.8426
  144MOL0     C19778   3.867   2.830   1.298  0.0245 -0.6862  0.5473
  144MOL0    Cl19779   4.022   2.767   1.235 -0.0897 -0.3276  0.3706
  144MOL0     C19780   2.859   2.297   1.389 -0.3888 -0.4127 -0.4575
  144MOL0     C19781   2.781   2.179   1.390  0.5617  0.1445  0.0102
  144MOL0     O19782   2.861   1.785   1.438 -0.5224  1.0438 -0.3402
  144MOL0     C19783   2.660   1.595   1.485  0.1517 -0.7935  0.0792
  144MOL0     C19784   2.573   1.499   1.526 -0.0629 -0.3675  0.8546
  144MOL0     N19785   1.722   1.359   1.764  0.1435  0.3482  1.1384
  144MOL0     N19786   1.607   1.414   1.780 -0.2383  0.7392  1.4915
  144MOL0     C19787   0.631   2.073   2.292  1.2836  0.1799 -0.3451
  144MOL0     C19788   0.494   2.053   2.305 -0.3301 -0.1515 -1.1918
  144MOL0     C19789   0.102   1.817   2.429 -0.2340  0.2047  0.5762
  144MOL0     C19790   0.030   1.918   2.487  1.1171 -0.2805 -0.4076
  144MOL0     C19791  -0.086   1.889   2.558  0.7705  0.1426 -0.4841
  144MOL0     C19792  -0.135   1.758   2.575 -0.5369  0.1925 -0.1696
  144MOL0     O19793  -0.241   1.723   2.655  0.1835 -0.1240  0.3592
  144MOL0     C19794  -0.300   1.828   2.738  0.7302 -0.7132 -0.5768
  144MOL0     C19795  -0.416   1.765   2.822  0.3414 -0.8664  0.9030
  144MOL0     C19796  -0.384   1.663   2.927 -0.5519 -0.1976 -0.6503
  144MOL0     C19797  -0.470   1.539   2.910 -0.1340 -0.1301  0.1198
  144MOL0     C19798  -0.429   1.455   2.801 -0.5252  0.7446  0.1458
  144MOL0     C19799  -0.387   1.381   2.711  0.2925  0.7592  0.2465
  144MOL0     C19800  -0.054   1.654   2.516  0.2661 -0.1868  0.0478
  144MOL0     C19801   0.056   1.680   2.433 -0.2777 -0.5238  0.5812
  144MOL0     C19802   0.129   1.553   2.380 -0.1260  0.3169 -0.7277
  144MOL0     H19803   0.515   1.821   2.560  1.8786  0.5478  1.9636
  144MOL0     H19804   0.752   1.866   2.531  1.4018 -0.5887 -1.5746
  144MOL0     H19805   0.961   1.876   2.276 -1.2771 -2.6724  2.3375
  144MOL0     H19806   0.928   1.866   2.444 -1.7607  0.7799 -0.3475
  144MOL0     H19807   1.098   2.093   2.346 -0.0533 -0.8417 -0.3478
  144MOL0     H19808   1.075   2.031   2.505  1.6574 -1.0328  0.6047
  144MOL0     H19809   1.283   1.958   2.424 -4.2430  3.4494  1.5759
  144MOL0     H19810   1.188   1.804   2.406 -0.3441 -0.9394 -0.0174
  144MOL0     H19811   1.159   1.867   2.160 -0.4403 -0.8108  1.1920
  144MOL0     H19812   1.282   1.991   2.180 -0.9997  0.8858  1.4284
  144MOL0     H19813   1.302   1.684   2.229  2.2761 -1.5103 -1.2723
  144MOL0     H19814   1.442   1.796   2.261  1.9177 -0.5946 -2.7312
  144MOL0     H19815   1.290   1.743   1.998 -1.3945 -1.6200  3.4450
  144MOL0     H19816   1.445   1.842   2.008 -0.1716 -0.8502 -2.2219
  144MOL0     H19817   1.424   1.547   2.061  2.2683 -2.5862  1.2504
  144MOL0     H19818   1.572   1.649   2.093  1.7889 -2.9254 -1.7270
  144MOL0     H19819   1.447   1.619   1.826 -2.4756  2.8473  2.3956
  144MOL0     H19820   1.569   1.739   1.867  2.4764 -0.6218 -0.3849
  144MOL0     H19821   1.821   1.618   1.948  1.7322  0.4012 -3.1482
  144MOL0     H19822   1.984   1.356   1.933  0.1449  0.6563  2.5333
  144MOL0     H19823   2.000   1.517   1.878  0.8056 -0.8659 -1.7019
  144MOL0     H19824   1.966   1.264   1.694 -0.2950  0.5739  1.6328
  144MOL0     H19825   1.984   1.423   1.626  0.3366  0.5504 -0.0802
  144MOL0     H19826   2.191   1.293   1.785 -1.2964 -0.6429  0.3722
  144MOL0     H19827   2.184   1.265   1.611 -1.2227  1.3022 -1.3760
  144MOL0     H19828   2.181   1.524   1.578 -0.7957  2.1831  0.9213
  144MOL0     H19829   2.224   1.551   1.746  1.9897  0.8822 -0.9701
  144MOL0     H19830   2.340   1.707   1.651  0.6619 -4.0709  1.5158
  144MOL0     H19831   2.354   1.919   1.605 -0.4109 -2.3984 -1.6992
  144MOL0     H19832   2.474   1.992   1.493 -1.2559  0.8116  0.2907
  144MOL0     H19833   2.516   1.949   1.658 -0.5580  0.6153 -0.0574
  144MOL0     H19834   2.977   1.977   1.568  0.4732  0.3543 -0.2823
  144MOL0     H19835   3.124   2.175   1.565 -0.1285  1.6858 -0.1788
  144MOL0     H19836   3.020   2.536   1.305  3.0505 -0.6568 -0.8697
  144MOL0     H19837   2.945   2.574   1.468  1.1837  0.9469  0.3471
  144MOL0     H19838   3.120   2.734   1.388  2.7577  0.4159 -1.2904
  144MOL0     H19839   3.151   2.659   1.543  1.0712 -2.0687  0.6647
  144MOL0     H19840   3.272   2.613   1.273  2.4124  0.7029  0.1319
  144MOL0     H19841   3.304   2.513   1.429  0.5167  1.4755  2.7226
  144MOL0     H19842   3.429   2.691   1.523  1.0106 -2.6765 -0.3030
  144MOL0     H19843   3.361   2.804   1.396  2.3091  0.5777 -2.2032
  144MOL0     H19844   3.555   2.569   1.361 -1.6821 -0.7339  1.6364
  144MOL0     H19845   3.493   2.666   1.231  1.3137 -1.3367 -0.0449
  144MOL0     H19846   3.662   2.774   1.464 -0.0283  3.5829  0.3066
  144MOL0     H19847   3.619   2.869   1.330  2.0437 -0.5789 -1.4546
  144MOL0     H19848   3.756   2.677   1.197  0.1027 -4.0813  0.7280
  144MOL0     H19849   3.821   2.632   1.350  1.8806  0.8387 -2.6247
  144MOL0     H19850   3.876   2.873   1.398  1.2969  0.1761  0.0749
  144MOL0     H19851   3.832   2.908   1.230 -0.2173 -2.4802 -1.5062
  144MOL0     H19852   2.842   2.389   1.334  3.6176  2.2992  2.3059
  144MOL0     H19853   2.689   2.168   1.333  3.1751 -1.0652 -4.4491
  144MOL0     H19854   2.754   1.558   1.447  0.4084  1.7665 -2.0834
  144MOL0     H19855   2.601   1.394   1.532 -1.9931 -0.8934  1.1694
  144MOL0     H19856   0.663   2.138   2.211  0.4784  2.0699  0.7701
  144MOL0     H19857   0.417   2.105   2.250 -0.7479  2.0071  1.1949
  144MOL0     H19858   0.060   2.018   2.455  2.5394 -0.2150  0.9831
  144MOL0     H19859  -0.144   1.976   2.590  1.8925  0.3064  1.2102
  144MOL0     H19860  -0.220   1.870   2.800  0.7551 -0.4380 -0.7905
  144MOL0     H19861  -0.337   1.911   2.676 -0.5405 -0.2978  0.6834
  144MOL0     H19862  -0.489   1.730   2.748  3.0486 -2.7199 -1.1062
  144MOL0     H19863  -0.452   1.854   2.873 -0.5221 -1.3928  1.2385
  144MOL0     H19864  -0.278   1.633   2.923 -0.2050  0.8870 -0.0865
  144MOL0     H19865  -0.388   1.704   3.029 -1.7827  0.7878 -1.0779
  144MOL0     H19866  -0.573   1.576   2.905  0.1757  1.1834  2.4281
  144MOL0     H19867  -0.471   1.475   2.998  0.9497  2.3012  2.0114
  144MOL0     H19868  -0.346   1.325   2.629 -0.2212 -2.4607  2.0291
  144MOL0     H19869  -0.099   1.556   2.522  2.7849 -1.4954 -0.7288
  144MOL0     H19870   0.235   1.562   2.403  0.1861 -2.8336 -0.6331
  144MOL0     H19871   0.088   1.475   2.446  2.3536  1.3839  2.3196
  144MOL0     H19872   0.102   1.525   2.278  0.1279 -4.2313  0.2690
  145MOL0     O19873   4.688  10.463   6.636 -0.8844  0.5609 -1.1002
  145MOL0     C19874   4.618  10.398   6.554 -0.1008 -0.2947 -0.1951
  145MOL0     O19875   4.660  10.327   6.443 -0.1113 -0.2582  0.2542
  145MOL0     C19876   4.783  10.340   6.380 -0.2428 -0.5045 -0.3036
  145MOL0     C19877   4.784  10.317   6.238 -0.5072 -0.1325 -1.2545
  145MOL0     C19878   4.909  10.308   6.171 -0.9585  0.1634  0.5356
  145MOL0     C19879   5.024  10.354   6.235  0.1202  0.3852  0.7919
  145MOL0     O19880   5.144  10.351   6.162 -0.7602 -0.1578 -0.6112
  145MOL0     C19881   5.151  10.251   6.053  0.2508 -0.3273 -0.5630
  145MOL0     C19882   5.298  10.258   6.003  0.1342 -0.2962 -0.7321
  145MOL0     C19883   5.396  10.201   6.114  0.4700 -0.2537  0.4645
  145MOL0     C19884   5.543  10.204   6.089 -0.0156  0.8394 -0.0605
  145MOL0     C19885   5.618  10.196   6.217  0.2952  0.5219  0.4461
  145MOL0     C19886   5.621  10.062   6.287  1.0182 -0.2486  0.3440
  145MOL0     C19887   5.690  10.061   6.419 -0.2855  0.6532  0.4962
  145MOL0     C19888   5.840  10.069   6.417 -0.2182 -0.4472 -0.6352
  145MOL0     N19889   5.890   9.928   6.388  0.3402 -1.0496 -0.1162
  145MOL0     C19890   5.900   9.874   6.258  1.1163  0.1493 -0.4680
  145MOL0     C19891   5.940   9.747   6.276 -0.0808 -0.2312  0.5820
  145MOL0     C19892   5.962   9.651   6.159 -0.3650 -0.5017 -0.1488
  145MOL0     C19893   6.094   9.661   6.079  0.7304  0.5687  0.3925
  145MOL0     C19894   6.088   9.565   5.949 -0.3475 -1.2565  0.7319
  145MOL0     C19895   6.227   9.521   5.906  0.4248 -0.2282 -0.0476
  145MOL0     O19896   6.268   9.604   5.797 -0.2933 -0.2474 -0.5896
  145MOL0     C19897   6.390   9.572   5.737  0.6652 -1.2355  0.7894
  145MOL0     C19898   6.402   9.603   5.595  0.0336  0.5201  0.2906
  145MOL0     C19899   6.532   9.593   5.523 -0.7592  0.0074 -1.0711
  145MOL0     C19900   6.528   9.605   5.370 -0.2730 -0.9352 -0.0006
  145MOL0     C19901   6.642   9.555   5.604  0.0600 -0.0773 -0.6031
  145MOL0     C19902   6.770   9.570   5.546 -0.0620  0.7934  0.6041
  145MOL0     O19903   6.812   9.465   5.459 -0.4846  0.3487 -0.0458
  145MOL0     C19904   6.943   9.474   5.409 -0.9281  0.4332  0.1894
  145MOL0     C19905   7.038   9.379   5.449 -1.1087 -0.0459 -0.0974
  145MOL0     C19906   7.164   9.387   5.390 -0.5854 -0.1174 -0.4899
  145MOL0     C19907   7.209   9.493   5.326 -0.7229 -0.6167  0.2746
  145MOL0     O19908   7.346   9.495   5.295 -0.3175 -0.3921 -0.3774
  145MOL0     C19909   7.401   9.635   5.276  0.3903  0.2167 -0.0560
  145MOL0     C19910   7.551   9.616   5.253 -1.2997  0.3371 -0.0142
  145MOL0     C19911   7.628   9.539   5.349  0.0005  0.9172  0.0480
  145MOL0     C19912   7.780   9.567   5.343  0.2827  0.0923  0.4093
  145MOL0     C19913   7.851   9.477   5.456  0.4136 -0.3078  0.0840
  145MOL0     C19914   7.992   9.516   5.489  0.3943  0.1021  0.5291
  145MOL0     C19915   8.054   9.423   5.593  0.3570 -0.8261 -0.7288
  145MOL0     C19916   7.999   9.427   5.739 -0.3543  0.4925 -0.2201
  145MOL0    Cl19917   8.123   9.387   5.870 -0.4654 -0.2367 -0.0813
  145MOL0     C19918   7.118   9.592   5.295  0.3798  0.5671 -0.4262
  145MOL0     C19919   6.985   9.582   5.334 -0.6307  0.3351  0.0078
  145MOL0     O19920   6.838   9.664   5.574 -0.0505 -0.5791 -0.4137
  145MOL0     C19921   6.632   9.542   5.749  0.2447 -0.6292 -0.7575
  145MOL0     C19922   6.504   9.556   5.817  0.5405  0.0373 -0.0355
  145MOL0     N19923   5.967   9.725   6.409  0.9280 -0.0642 -0.4802
  145MOL0     N19924   5.925   9.832   6.479  0.2906  0.3863  0.2335
  145MOL0     C19925   5.024  10.392   6.362 -0.1797 -0.3028 -0.1710
  145MOL0     C19926   4.906  10.375   6.441 -0.2632  0.1299  0.9912
  145MOL0     C19927   4.477  10.364   6.595  0.7712  0.1274 -0.2898
  145MOL0     C19928   4.404  10.261   6.526  0.9473 -0.4216 -0.3695
  145MOL0     C19929   4.282  10.208   6.578  0.4530 -0.5335  0.4485
  145MOL0     C19930   4.215  10.270   6.692 -0.2328 -0.1041  1.4107
  145MOL0     O19931   4.092  10.240   6.751 -0.1001 -0.1000  0.2552
  145MOL0     C19932   4.053  10.100   6.748 -0.5588 -0.7459 -0.1811
  145MOL0     C19933   3.914  10.076   6.689  0.0900  0.3097  0.1843
  145MOL0     C19934   3.891  10.121   6.544 -0.3808 -0.8577 -0.0780
  145MOL0     C19935   3.748  10.099   6.500 -0.2907  0.9465  0.9391
  145MOL0     C19936   3.746   9.954   6.469  0.9519  0.0307 -0.2280
  145MOL0     C19937   3.732   9.836   6.433 -0.5860  1.1480  0.1095
  145MOL0     C19938   4.278  10.391   6.743  0.0648  0.3645 -0.0279
  145MOL0     C19939   4.401  10.441   6.698  1.2929  0.1617  0.3525
  145MOL0     C19940   4.443  10.567   6.771  0.1769 -0.3288 -0.3835
  145MOL0     H19941   4.685  10.289   6.202 -0.4924  0.2451 -1.5819
  145MOL0     H19942   4.906  10.269   6.070  2.8144  2.3120 -0.5879
  145MOL0     H19943   5.085  10.281   5.971  0.1995 -1.0208 -0.7793
  145MOL0     H19944   5.128  10.152   6.092 -0.1817  0.4492  1.2561
  145MOL0     H19945   5.302  10.189   5.918 -0.6452 -3.3506  1.5547
  145MOL0     H19946   5.328  10.358   5.971 -0.1992 -0.0295 -0.2193
  145MOL0     H19947   5.393  10.262   6.205 -2.0354 -2.6410  2.1478
  145MOL0     H19948   5.365  10.099   6.137  2.8849 -1.7440 -2.3586
  145MOL0     H19949   5.569  10.126   6.016 -2.9526 -0.8734  0.5254
  145MOL0     H19950   5.568  10.301   6.046  0.3082  0.1301 -1.5574
  145MOL0     H19951   5.591  10.281   6.281  5.1650  1.3964  1.7281
  145MOL0     H19952   5.721  10.224   6.197 -0.5774  1.0357 -4.6619
  145MOL0     H19953   5.517  10.035   6.308  0.3103  2.0566  0.0976
  145MOL0     H19954   5.658   9.989   6.215  3.5358  0.3171  0.9578
  145MOL0     H19955   5.649   9.975   6.472 -0.9962 -0.0711 -1.1220
  145MOL0     H19956   5.655  10.147   6.476  0.3041 -0.0620  1.9680
  145MOL0     H19957   5.883  10.147   6.354 -0.0413 -1.6218 -2.0321
  145MOL0     H19958   5.874  10.098   6.517  0.6699 -3.8249  0.1900
  145MOL0     H19959   5.869   9.932   6.171  0.0535  2.5400  1.3913
  145MOL0     H19960   5.882   9.659   6.085  0.8969 -1.9212 -1.7368
  145MOL0     H19961   5.968   9.546   6.189  3.8087 -0.9622 -1.9752
  145MOL0     H19962   6.124   9.764   6.057  1.7881  0.2096  0.0974
  145MOL0     H19963   6.183   9.626   6.132  0.6897 -3.0445 -1.6276
  145MOL0     H19964   6.031   9.473   5.966  0.2896 -1.7752  0.1058
  145MOL0     H19965   6.055   9.630   5.867  1.5465 -0.5562  0.4593
  145MOL0     H19966   6.297   9.512   5.990 -1.0648  0.9468  1.3807
  145MOL0     H19967   6.207   9.420   5.871  1.2921  0.7648 -3.8405
  145MOL0     H19968   6.309   9.628   5.545 -1.4292 -0.2385  2.4673
  145MOL0     H19969   6.566   9.701   5.335 -2.1734 -0.2431 -0.3115
  145MOL0     H19970   6.425   9.590   5.335  0.1917 -5.6050  0.0048
  145MOL0     H19971   6.576   9.516   5.328 -2.5531 -1.7604 -1.0404
  145MOL0     H19972   7.026   9.302   5.524  1.8918  0.6100  1.1730
  145MOL0     H19973   7.225   9.301   5.417  0.5853  0.8052 -0.0798
  145MOL0     H19974   7.355   9.685   5.190 -1.2278 -2.8986 -1.1771
  145MOL0     H19975   7.383   9.689   5.369  0.5910  2.1383 -1.0947
  145MOL0     H19976   7.575   9.560   5.162  2.8190  2.7356 -0.6683
  145MOL0     H19977   7.594   9.717   5.256 -1.4388  0.3700  1.2032
  145MOL0     H19978   7.625   9.432   5.327  0.7460  1.6298 -4.3884
  145MOL0     H19979   7.590   9.557   5.450  0.0806 -1.8084  0.6556
  145MOL0     H19980   7.796   9.672   5.368  0.3653 -0.5122  3.1814
  145MOL0     H19981   7.818   9.556   5.241  0.4318  0.3328  0.4399
  145MOL0     H19982   7.798   9.490   5.551 -6.2296 -2.1127 -2.7755
  145MOL0     H19983   7.847   9.372   5.428  0.4453  0.1612 -1.7565
  145MOL0     H19984   7.999   9.616   5.533 -2.7648  0.5763  0.2114
  145MOL0     H19985   8.061   9.519   5.404  0.8119 -0.3375  0.8477
  145MOL0     H19986   8.161   9.448   5.591  0.1039  1.0504  2.4341
  145MOL0     H19987   8.044   9.320   5.557 -3.9297 -0.9703  0.3814
  145MOL0     H19988   7.912   9.362   5.752 -0.5530  1.0556  1.5306
  145MOL0     H19989   7.953   9.523   5.761 -1.9536 -0.1358 -0.6495
  145MOL0     H19990   7.139   9.675   5.229  1.4331 -1.4048 -2.7000
  145MOL0     H19991   6.914   9.658   5.304 -1.9166 -1.7225 -2.6821
  145MOL0     H19992   6.729   9.528   5.796 -0.9229 -1.7933  1.4627
  145MOL0     H19993   6.491   9.533   5.922  3.6698 -1.6514  0.0923
  145MOL0     H19994   5.121  10.426   6.398 -0.5500 -0.2655  0.8458
  145MOL0     H19995   4.902  10.390   6.549  0.9053  0.3958  1.0071
  145MOL0     H19996   4.453  10.213   6.443  0.0178  0.8888 -1.7281
  145MOL0     H19997   4.224  10.126   6.538 -1.0393  1.2692 -1.2826
  145MOL0     H19998   4.127  10.038   6.697 -0.6049 -0.5441 -0.4953
  145MOL0     H19999   4.045  10.053   6.847  1.1367  1.2728  0.9860
  145MOL0     H20000   3.834  10.120   6.749 -2.9264  3.0688 -5.0971
  145MOL0     H20001   3.893   9.968   6.686  1.9534 -0.0637 -0.9951
  145MOL0     H20002   3.907  10.228   6.531 -2.8265 -0.5320 -0.9254
  145MOL0     H20003   3.961  10.071   6.477 -1.9492 -2.4063 -0.6428
  145MOL0     H20004   3.721  10.148   6.406  1.7371 -1.3070 -0.9521
  145MOL0     H20005   3.676  10.123   6.579 -1.3439  0.8336  0.0345
  145MOL0     H20006   3.708   9.739   6.395 -0.4282  0.6667  1.2203
  145MOL0     H20007   4.218  10.434   6.823 -1.0989 -3.1809  1.1967
  145MOL0     H20008   4.428  10.661   6.716  0.0689 -1.0491 -1.6326
  145MOL0     H20009   4.388  10.579   6.864  1.5879  0.7640  0.3517
  145MOL0     H20010   4.548  10.567   6.802 -0.1965  0.9181  0.9503
  146MOL0     O20011   2.612   8.777  11.243 -0.0621 -0.0118 -0.3569
  146MOL0     C20012   2.557   8.882  11.201  0.1094  0.8436 -0.0954
  146MOL0     O20013   2.530   8.912  11.069  0.1416  0.7049  0.5605
  146MOL0     C20014   2.595   8.831  10.975  0.1489  0.0089 -0.5614
  146MOL0     C20015   2.724   8.874  10.929 -0.4947  0.2360  0.2016
  146MOL0     C20016   2.797   8.793  10.844  0.2673  0.6878 -0.4685
  146MOL0     C20017   2.750   8.661  10.824  0.5296  0.6270 -1.1472
  146MOL0     O20018   2.826   8.564  10.758  0.4166  1.0585 -0.7708
  146MOL0     C20019   2.921   8.608  10.658  0.1779 -0.6014  0.2171
  146MOL0     C20020   2.955   8.489  10.575 -0.4369 -0.4711  0.6444
  146MOL0     C20021   3.042   8.528  10.453  0.2099 -0.2554  0.6731
  146MOL0     C20022   3.186   8.572  10.484  0.7385 -0.8450  0.0161
  146MOL0     C20023   3.254   8.616  10.351 -0.3542  0.4688 -0.1441
  146MOL0     C20024   3.402   8.632  10.370 -0.8165  0.2284  0.6702
  146MOL0     C20025   3.471   8.628  10.237  0.2834 -0.0577 -0.6884
  146MOL0     C20026   3.429   8.730  10.133  0.5885 -0.2713 -0.1593
  146MOL0     N20027   3.492   8.704  10.004 -0.3702 -0.6163 -0.6605
  146MOL0     C20028   3.617   8.660   9.986 -0.6152  0.0361  0.0560
  146MOL0     C20029   3.645   8.680   9.855 -0.2972  0.3417  0.5026
  146MOL0     C20030   3.764   8.630   9.783 -0.0165 -0.4648 -0.5342
  146MOL0     C20031   3.760   8.476   9.770  0.4058  0.6283 -0.2185
  146MOL0     C20032   3.891   8.423   9.726  0.2089  0.6920  0.0930
  146MOL0     C20033   3.895   8.273   9.726 -0.6877 -0.3186 -0.6163
  146MOL0     O20034   3.880   8.224   9.861 -0.0821  0.2517  0.2761
  146MOL0     C20035   3.778   8.139   9.893 -0.5101  0.3427 -0.1985
  146MOL0     C20036   3.643   8.163   9.860 -0.1170 -0.5996 -0.2097
  146MOL0     C20037   3.546   8.070   9.899 -0.4609  0.9101 -0.5266
  146MOL0     C20038   3.412   8.083   9.840  0.2267 -0.3308  0.3215
  146MOL0     C20039   3.581   7.958   9.981 -1.2015  0.0843 -0.8057
  146MOL0     C20040   3.488   7.847  10.026  0.6714 -0.6928  0.3135
  146MOL0     O20041   3.520   7.799  10.154 -0.0676  0.0939  0.6058
  146MOL0     C20042   3.443   7.709  10.217  0.3633  0.2101 -0.1977
  146MOL0     C20043   3.398   7.593  10.149  0.3033  0.7108 -0.8020
  146MOL0     C20044   3.331   7.491  10.216  0.2699  0.3025  0.0472
  146MOL0     C20045   3.297   7.503  10.356  0.9080  0.1081 -0.4726
  146MOL0     O20046   3.233   7.400  10.419  0.3937  0.2357  0.7351
  146MOL0     C20047   3.188   7.429  10.553 -0.7560  0.8573 -0.3537
  146MOL0     C20048   3.113   7.305  10.599  0.3279  0.5059  0.3659
  146MOL0     C20049   3.099   7.310  10.751 -0.5161  0.8699  1.2182
  146MOL0     C20050   2.989   7.224  10.811  0.2528  0.5398 -0.2741
  146MOL0     C20051   3.019   7.186  10.961  0.3564 -0.2642  0.5111
  146MOL0     C20052   3.007   7.312  11.045  0.2495 -0.2508 -0.3555
  146MOL0     C20053   2.865   7.383  11.022  0.1120  0.4983 -1.5617
  146MOL0     C20054   2.833   7.461  11.149  0.0519 -0.4332 -1.0958
  146MOL0    Cl20055   2.664   7.517  11.139 -0.0010 -0.0324 -0.0478
  146MOL0     C20056   3.341   7.624  10.415 -0.9524  1.0132 -0.1684
  146MOL0     C20057   3.407   7.727  10.353 -0.8166  0.7388  0.0082
  146MOL0     O20058   3.385   7.818   9.957 -0.0180 -0.4147 -0.2878
  146MOL0     C20059   3.719   7.944  10.015  0.9115  0.0580 -0.0803
  146MOL0     C20060   3.816   8.041   9.981  1.0241  0.4930  0.5783
  146MOL0     N20061   3.531   8.733   9.798 -0.2597 -0.1591 -0.1002
  146MOL0     N20062   3.440   8.744   9.887  0.0462 -0.7517  0.9741
  146MOL0     C20063   2.628   8.626  10.874  0.1340 -0.0110 -0.3276
  146MOL0     C20064   2.545   8.712  10.939  0.7290  0.7675 -0.3198
  146MOL0     C20065   2.511   8.979  11.296  0.2135  0.7872 -0.2277
  146MOL0     C20066   2.470   9.101  11.244 -0.1842  0.1066 -0.3620
  146MOL0     C20067   2.419   9.205  11.328  0.1904  0.9787 -0.1508
  146MOL0     C20068   2.400   9.169  11.465 -0.1181 -1.2123  0.0870
  146MOL0     O20069   2.338   9.250  11.559  0.2459 -0.1183 -0.7180
  146MOL0     C20070   2.241   9.343  11.531 -0.2878 -0.6570 -0.2908
  146MOL0     C20071   2.212   9.419  11.654  0.5959  0.1860 -0.1221
  146MOL0     C20072   2.099   9.526  11.629 -0.1165  0.4741  0.0038
  146MOL0     C20073   2.073   9.607  11.756 -0.1692 -0.1097 -0.3493
  146MOL0     C20074   1.960   9.701  11.733 -1.2696 -0.1201 -0.5878
  146MOL0     C20075   1.866   9.772  11.733  0.1199  0.1746  0.2868
  146MOL0     C20076   2.440   9.050  11.515 -0.3743  0.5037 -0.0635
  146MOL0     C20077   2.497   8.959  11.436  0.1234  0.3215  0.6438
  146MOL0     C20078   2.536   8.832  11.509  0.0715 -0.8547  0.5363
  146MOL0     H20079   2.751   8.974  10.961  0.3041 -0.9520  3.7051
  146MOL0     H20080   2.889   8.816  10.792  0.8619  0.2862  0.3918
  146MOL0     H20081   3.010   8.653  10.703  1.4016 -1.6477 -1.0858
  146MOL0     H20082   2.874   8.678  10.588 -0.9545 -2.2336 -0.7071
  146MOL0     H20083   3.008   8.430  10.650 -2.8309 -0.5921  2.3546
  146MOL0     H20084   2.871   8.428  10.542 -2.5563  2.1624  0.7722
  146MOL0     H20085   3.051   8.440  10.389  5.8471  0.6899 -0.3524
  146MOL0     H20086   2.989   8.605  10.396 -0.0108 -1.4696 -0.8087
  146MOL0     H20087   3.185   8.657  10.553 -0.2270  0.9935 -2.1420
  146MOL0     H20088   3.242   8.494  10.537  0.4355 -0.8501  0.3350
  146MOL0     H20089   3.212   8.709  10.313 -1.0453  0.6348  0.9880
  146MOL0     H20090   3.239   8.537  10.276  0.9181  1.5702 -1.6037
  146MOL0     H20091   3.421   8.726  10.422  3.3493  0.3734 -0.7647
  146MOL0     H20092   3.441   8.547  10.427  0.2897  0.5494  0.4158
  146MOL0     H20093   3.468   8.526  10.198 -0.3463  0.1580 -1.2133
  146MOL0     H20094   3.578   8.640  10.256  0.6265 -0.5386 -2.1821
  146MOL0     H20095   3.323   8.709  10.118  0.2834 -1.4819  2.9709
  146MOL0     H20096   3.442   8.833  10.168  0.2615 -0.9519  2.1689
  146MOL0     H20097   3.674   8.611  10.065  0.2181  1.9168  0.6822
  146MOL0     H20098   3.856   8.660   9.833 -1.2534  0.5327  1.2317
  146MOL0     H20099   3.759   8.671   9.682 -0.5275 -1.3401 -0.8812
  146MOL0     H20100   3.740   8.437   9.871  3.1589 -2.2539 -0.6009
  146MOL0     H20101   3.677   8.437   9.711  0.8746 -4.0183  1.7442
  146MOL0     H20102   3.921   8.461   9.627  0.0767  0.3124 -0.0960
  146MOL0     H20103   3.972   8.452   9.793  2.6023 -1.3665 -1.6988
  146MOL0     H20104   3.819   8.232   9.659  0.0488  1.7749 -2.8606
  146MOL0     H20105   3.996   8.249   9.690  0.0707 -0.5173  1.4705
  146MOL0     H20106   3.618   8.245   9.793 -2.1911 -0.4092  0.7194
  146MOL0     H20107   3.388   7.995   9.781  1.3033 -0.3951 -0.0393
  146MOL0     H20108   3.400   8.172   9.778  1.3332  0.3641  1.0675
  146MOL0     H20109   3.352   8.091   9.932  1.9988 -0.3438  1.5379
  146MOL0     H20110   3.407   7.581  10.041 -1.1033  0.6824 -0.9434
  146MOL0     H20111   3.307   7.395  10.171  3.6411  0.2748 -1.9625
  146MOL0     H20112   3.275   7.446  10.618  1.1362  0.8215 -2.7313
  146MOL0     H20113   3.124   7.516  10.534  0.0801  0.8445 -4.0414
  146MOL0     H20114   3.011   7.315  10.560  0.6157 -0.7096 -0.7883
  146MOL0     H20115   3.150   7.209  10.563  1.2039  1.2150 -0.6795
  146MOL0     H20116   3.080   7.411  10.789 -0.8540  0.8588  1.0811
  146MOL0     H20117   3.198   7.278  10.783 -0.2506 -1.8318 -1.8132
  146MOL0     H20118   2.967   7.134  10.753  1.4727  0.1663 -0.1970
  146MOL0     H20119   2.897   7.282  10.811  1.5473  2.7030 -0.7084
  146MOL0     H20120   2.951   7.104  10.988  0.9915 -0.8435  0.3671
  146MOL0     H20121   3.118   7.145  10.982 -0.5184 -1.5440  2.3829
  146MOL0     H20122   3.095   7.376  11.032  1.4043 -1.5493  0.6759
  146MOL0     H20123   3.011   7.281  11.150  1.6131 -2.9571 -1.1072
  146MOL0     H20124   2.784   7.313  11.003 -3.3146  3.0892  1.8627
  146MOL0     H20125   2.880   7.466  10.952  0.7307  4.5295  2.8662
  146MOL0     H20126   2.900   7.546  11.165  2.1819 -2.2800  0.4295
  146MOL0     H20127   2.843   7.397  11.237  0.3536  0.0099 -0.7981
  146MOL0     H20128   3.320   7.632  10.522 -2.3448  0.0829 -0.3364
  146MOL0     H20129   3.456   7.810  10.403  3.5143 -2.0932  1.0924
  146MOL0     H20130   3.747   7.850  10.062  1.9018 -0.7609 -2.1513
  146MOL0     H20131   3.918   8.024  10.013  1.3716  0.5901 -0.4383
  146MOL0     H20132   2.575   8.531  10.875 -1.7516  0.8942  3.2600
  146MOL0     H20133   2.448   8.676  10.973 -0.0218  0.0493 -2.9638
  146MOL0     H20134   2.462   9.126  11.138 -3.0265 -1.2095 -0.5518
  146MOL0     H20135   2.387   9.301  11.289  1.0991  1.3494 -0.0232
  146MOL0     H20136   2.273   9.406  11.448  1.0483  0.3845  0.9474
  146MOL0     H20137   2.141   9.309  11.504  0.1462 -1.3340 -1.0695
  146MOL0     H20138   2.298   9.481  11.683 -0.3836  3.7553 -3.8257
  146MOL0     H20139   2.184   9.348  11.732 -1.9290  2.3223  1.1059
  146MOL0     H20140   2.134   9.594  11.551  0.1020 -0.1421 -0.4404
  146MOL0     H20141   2.012   9.485  11.578  0.9158  2.1826 -3.4618
  146MOL0     H20142   2.163   9.664  11.782  0.1803 -1.8731  2.7352
  146MOL0     H20143   2.052   9.540  11.840  2.1697  1.6968  1.8031
  146MOL0     H20144   1.767   9.812  11.723  1.0547  2.9511  1.1660
  146MOL0     H20145   2.422   9.032  11.621 -4.3505 -2.5875 -1.0260
  146MOL0     H20146   2.488   8.743  11.466  1.5542 -0.6387 -1.7457
  146MOL0     H20147   2.643   8.814  11.502 -0.2811 -2.7591 -0.9921
  146MOL0     H20148   2.522   8.841  11.617  3.1475 -1.3916  1.0468
  147MOL0     O20149  10.568   4.485   7.559  0.5013 -0.7598  0.2070
  147MOL0     C20150  10.492   4.407   7.499 -0.4686  0.1470  0.3404
  147MOL0     O20151  10.519   4.269   7.498  0.4184  0.1443 -0.1988
  147MOL0     C20152  10.640   4.233   7.559  0.0269 -0.8225  1.3854
  147MOL0     C20153  10.720   4.146   7.486 -0.7407 -0.1394 -0.2355
  147MOL0     C20154  10.835   4.075   7.541 -0.3370 -0.4203  0.1232
  147MOL0     C20155  10.867   4.097   7.680  0.4162  0.3934  0.3330
  147MOL0     O20156  10.980   4.044   7.743  0.9045  0.0612 -0.5015
  147MOL0     C20157  11.085   3.993   7.663 -1.1354  0.2412  0.0176
  147MOL0     C20158  11.169   4.109   7.605 -0.8843  0.9593  0.6986
  147MOL0     C20159  11.209   4.213   7.711  0.0398 -0.3557 -0.5079
  147MOL0     C20160  11.320   4.309   7.662  0.0858 -0.1825  0.2338
  147MOL0     C20161  11.392   4.383   7.770 -0.1176  0.2729 -0.1805
  147MOL0     C20162  11.519   4.453   7.728 -0.1282 -0.8172  0.6796
  147MOL0     C20163  11.589   4.514   7.850 -0.0627 -0.4875  0.6377
  147MOL0     C20164  11.491   4.619   7.903 -0.6721  0.2763 -0.6088
  147MOL0     N20165  11.566   4.723   7.963  0.5636 -0.3712 -0.5755
  147MOL0     C20166  11.675   4.712   8.044  0.2442  0.5307  0.5525
  147MOL0     C20167  11.730   4.837   8.054 -1.2412 -0.3837 -0.2186
  147MOL0     C20168  11.850   4.887   8.135 -0.8463 -0.4147 -0.5608
  147MOL0     C20169  11.979   4.878   8.061 -0.0004  0.7651 -0.0211
  147MOL0     C20170  12.096   4.913   8.155 -0.0891 -0.1609  0.2442
  147MOL0     C20171  12.239   4.918   8.093  0.0588 -0.0257 -0.6936
  147MOL0     O20172  12.334   4.986   8.174  0.0097  0.0909  0.3665
  147MOL0     C20173  12.342   5.124   8.168 -0.5697 -0.5415  1.0374
  147MOL0     C20174  12.457   5.179   8.240  0.8545  0.1588  0.3948
  147MOL0     C20175  12.475   5.315   8.230 -0.6194 -0.3836  0.5211
  147MOL0     C20176  12.593   5.362   8.302 -0.3628  0.4825  0.1113
  147MOL0     C20177  12.388   5.398   8.147 -0.3880 -0.9133  0.1891
  147MOL0     C20178  12.408   5.548   8.121  0.1187  0.2090 -0.2128
  147MOL0     O20179  12.364   5.599   7.998  0.2757  0.6641 -0.4446
  147MOL0     C20180  12.404   5.725   7.973 -0.5838 -0.5112  0.0778
  147MOL0     C20181  12.480   5.748   7.858  0.2550  0.0535 -0.3350
  147MOL0     C20182  12.522   5.882   7.822 -0.6261  0.0700  0.4595
  147MOL0     C20183  12.475   5.983   7.888  0.1813 -0.2199  0.3275
  147MOL0     O20184  12.508   6.110   7.850  0.0513  0.8288  0.8089
  147MOL0     C20185  12.541   6.205   7.954 -1.0613 -0.1326 -0.2148
  147MOL0     C20186  12.673   6.269   7.913  0.2549 -0.0004  0.2079
  147MOL0     C20187  12.694   6.379   8.020 -0.0276 -1.6240  0.8846
  147MOL0     C20188  12.738   6.319   8.158  0.4076  0.6856  0.0442
  147MOL0     C20189  12.806   6.425   8.238 -0.1557 -0.2110 -0.6428
  147MOL0     C20190  12.794   6.411   8.388  0.6285  0.2131 -0.0359
  147MOL0     C20191  12.844   6.532   8.473  0.0544  0.8333  0.3602
  147MOL0     C20192  12.992   6.517   8.498 -0.8619  0.1287 -0.3845
  147MOL0    Cl20193  13.043   6.659   8.583 -0.5070 -0.4033 -0.0745
  147MOL0     C20194  12.384   5.960   7.991 -0.7341 -0.0783 -1.1006
  147MOL0     C20195  12.350   5.834   8.035 -0.8029  0.2845 -1.4057
  147MOL0     O20196  12.476   5.608   8.208  0.0248  0.3322 -0.5645
  147MOL0     C20197  12.275   5.341   8.080 -0.3999 -0.1590 -0.3124
  147MOL0     C20198  12.259   5.203   8.086 -1.2537 -1.0643  0.4878
  147MOL0     N20199  11.656   4.914   7.963 -0.9261  0.2765  0.1360
  147MOL0     N20200  11.557   4.853   7.914 -0.1662  0.2659 -0.1490
  147MOL0     C20201  10.788   4.188   7.754  0.1142  0.2751  0.1770
  147MOL0     C20202  10.669   4.250   7.699 -0.0159  0.1312 -0.4936
  147MOL0     C20203  10.361   4.460   7.436 -0.5201  0.1366  0.4241
  147MOL0     C20204  10.319   4.592   7.456 -0.2991  0.4659 -0.2854
  147MOL0     C20205  10.189   4.638   7.422 -1.4016  0.4797  0.0003
  147MOL0     C20206  10.103   4.541   7.370  0.8466 -0.6770  0.1724
  147MOL0     O20207   9.969   4.562   7.336  0.6420  0.1117  1.2733
  147MOL0     C20208   9.899   4.684   7.360  0.1755  0.8205 -0.1133
  147MOL0     C20209   9.853   4.689   7.503  0.4953 -0.3467 -1.2111
  147MOL0     C20210   9.708   4.637   7.516 -0.0080  0.3719  0.0666
  147MOL0     C20211   9.657   4.611   7.661 -1.0774  0.1173 -0.1241
  147MOL0     C20212   9.524   4.658   7.687 -0.3614  0.4747  0.5578
  147MOL0     C20213   9.405   4.668   7.708 -0.4433  0.0426  1.0305
  147MOL0     C20214  10.149   4.416   7.350 -0.4024  0.1591  0.5533
  147MOL0     C20215  10.279   4.369   7.368 -0.3847  0.2038 -0.1853
  147MOL0     C20216  10.297   4.222   7.334 -0.1497 -0.2250  0.2965
  147MOL0     H20217  10.694   4.154   7.381  0.0083 -0.1692 -0.4271
  147MOL0     H20218  10.896   4.013   7.476 -2.1875 -3.1031  0.7622
  147MOL0     H20219  11.045   3.926   7.586  2.6905 -1.1576 -0.9537
  147MOL0     H20220  11.137   3.935   7.739 -0.2724  0.6273 -0.2702
  147MOL0     H20221  11.261   4.073   7.558  0.9405  1.0943  3.8826
  147MOL0     H20222  11.122   4.170   7.528  0.6975 -1.3667 -2.3720
  147MOL0     H20223  11.123   4.271   7.745  0.7510 -0.7596  2.2169
  147MOL0     H20224  11.244   4.158   7.799  2.7075  2.2736  0.2543
  147MOL0     H20225  11.394   4.249   7.608 -1.1582 -0.9853 -0.6355
  147MOL0     H20226  11.272   4.382   7.595  0.9698  1.8815  1.7345
  147MOL0     H20227  11.429   4.303   7.835 -2.2093 -1.5640 -1.1298
  147MOL0     H20228  11.323   4.440   7.834  0.7790 -1.8067  2.8664
  147MOL0     H20229  11.576   4.398   7.652 -1.3876 -0.2860 -0.7141
  147MOL0     H20230  11.485   4.530   7.657  3.1732 -1.9334 -2.4376
  147MOL0     H20231  11.676   4.566   7.810 -0.9635  1.0615  0.5978
  147MOL0     H20232  11.622   4.437   7.921  1.9281 -0.3965 -0.1269
  147MOL0     H20233  11.425   4.662   7.828  0.6181 -1.0586 -2.6015
  147MOL0     H20234  11.431   4.578   7.985  1.7303  0.4333  1.3702
  147MOL0     H20235  11.708   4.617   8.085 -2.3937 -0.3095  0.8730
  147MOL0     H20236  11.854   4.833   8.230 -2.2081  0.3958 -0.0287
  147MOL0     H20237  11.845   4.993   8.159  2.6588 -0.6332  1.8900
  147MOL0     H20238  11.983   4.775   8.025 -1.9380  1.1524 -1.4742
  147MOL0     H20239  11.970   4.943   7.974 -0.2836 -0.1763 -0.7082
  147MOL0     H20240  12.077   5.015   8.190 -1.7914  0.7832 -3.0760
  147MOL0     H20241  12.105   4.854   8.247 -0.4848 -0.5411  0.0403
  147MOL0     H20242  12.277   4.818   8.070  1.1032  0.5324 -1.4605
  147MOL0     H20243  12.225   4.967   7.996  3.5032 -0.1224 -1.3671
  147MOL0     H20244  12.524   5.104   8.280 -2.0072 -2.6793  0.2521
  147MOL0     H20245  12.655   5.414   8.229  1.4940 -2.5095 -0.6146
  147MOL0     H20246  12.656   5.284   8.346  0.2858  1.8394  1.7027
  147MOL0     H20247  12.567   5.426   8.387 -0.4347 -0.4956  0.8560
  147MOL0     H20248  12.515   5.661   7.803  1.7486 -0.2846  1.0733
  147MOL0     H20249  12.587   5.887   7.736 -1.3178  1.0616 -0.0102
  147MOL0     H20250  12.466   6.285   7.964 -1.9115 -1.0927  1.6080
  147MOL0     H20251  12.541   6.162   8.055 -0.5080  1.7662  0.6453
  147MOL0     H20252  12.759   6.202   7.915 -0.2783 -0.8206 -1.7533
  147MOL0     H20253  12.648   6.310   7.814 -3.7841 -1.5521  0.3754
  147MOL0     H20254  12.604   6.441   8.019  1.4758  0.6999  0.4892
  147MOL0     H20255  12.774   6.443   7.980 -0.4475 -2.0677 -0.7359
  147MOL0     H20256  12.816   6.248   8.129  0.2774 -0.2595  1.8892
  147MOL0     H20257  12.662   6.264   8.214  0.2977  1.4367  0.6454
  147MOL0     H20258  12.910   6.427   8.206  0.0901  1.7141  0.1638
  147MOL0     H20259  12.768   6.527   8.228  1.5046  0.4125 -0.7763
  147MOL0     H20260  12.855   6.326   8.419  0.3032 -0.0096 -0.0022
  147MOL0     H20261  12.690   6.392   8.417  0.3777  2.8778  1.0700
  147MOL0     H20262  12.789   6.516   8.566  2.2369 -0.5286  1.5004
  147MOL0     H20263  12.813   6.628   8.431 -1.7888  1.5806  3.1181
  147MOL0     H20264  13.042   6.493   8.403 -0.1747 -0.0163  0.0073
  147MOL0     H20265  13.001   6.430   8.564 -1.1083  0.2845 -0.1431
  147MOL0     H20266  12.348   6.046   8.047  2.6887  0.6679  0.1562
  147MOL0     H20267  12.274   5.823   8.112  1.4918  0.6528  1.0511
  147MOL0     H20268  12.216   5.403   8.013  0.0540  2.4172  1.4961
  147MOL0     H20269  12.178   5.166   8.025 -1.6843 -0.8548  0.9318
  147MOL0     H20270  10.823   4.202   7.856 -0.3450  1.3307  0.1992
  147MOL0     H20271  10.606   4.321   7.752 -1.1798 -0.0416 -1.6059
  147MOL0     H20272  10.394   4.657   7.501 -0.8151  1.0019 -0.1864
  147MOL0     H20273  10.160   4.742   7.436  0.8691  1.7841 -3.3869
  147MOL0     H20274   9.967   4.765   7.330  2.4099 -1.7170 -2.4803
  147MOL0     H20275   9.809   4.689   7.299  1.8386 -0.2464 -2.8700
  147MOL0     H20276   9.854   4.792   7.539 -3.0704 -0.5522 -0.0720
  147MOL0     H20277   9.918   4.632   7.570 -1.4964 -2.2863 -0.7752
  147MOL0     H20278   9.643   4.700   7.455 -0.7974 -0.5514 -0.0761
  147MOL0     H20279   9.717   4.539   7.468  1.0868  0.0560  0.8716
  147MOL0     H20280   9.720   4.669   7.729  0.0081 -1.6030  0.3985
  147MOL0     H20281   9.659   4.504   7.684 -2.6305  0.4214  1.7141
  147MOL0     H20282   9.301   4.694   7.717 -0.8345 -0.5305 -1.1967
  147MOL0     H20283  10.075   4.348   7.307  3.1803 -2.2630 -2.4636
  147MOL0     H20284  10.216   4.169   7.284 -0.2617 -0.2752  0.5321
  147MOL0     H20285  10.376   4.215   7.259 -2.1519  2.0423 -2.2253
  147MOL0     H20286  10.334   4.167   7.421 -0.4303  0.9209  1.1698
  148MOL0     O20287   5.226   6.727   4.318 -0.7949 -0.9340 -0.0933
  148MOL0     C20288   5.209   6.703   4.203  0.3841  0.2900  0.9295
  148MOL0     O20289   5.300   6.645   4.121 -1.2100  0.7260  0.8154
  148MOL0     C20290   5.427   6.611   4.157  0.1629  0.1505  0.7552
  148MOL0     C20291   5.511   6.692   4.228  0.6049 -0.3874  0.1835
  148MOL0     C20292   5.646   6.658   4.248  0.6647 -0.6590  0.0798
  148MOL0     C20293   5.705   6.545   4.187  0.0138 -0.2411  0.5095
  148MOL0     O20294   5.837   6.512   4.187 -0.2720  0.2613  0.0339
  148MOL0     C20295   5.935   6.609   4.221  1.0579  0.3270  0.3027
  148MOL0     C20296   6.030   6.537   4.313 -0.1147  0.8837 -0.7574
  148MOL0     C20297   6.140   6.632   4.368 -0.7285  0.1409  0.7517
  148MOL0     C20298   6.243   6.665   4.254  0.0599 -0.1344  0.1779
  148MOL0     C20299   6.376   6.700   4.326 -0.2659 -0.2996 -0.0376
  148MOL0     C20300   6.486   6.744   4.222  0.5167  0.8225  0.0864
  148MOL0     C20301   6.624   6.773   4.284 -0.0040  0.1766 -0.2023
  148MOL0     C20302   6.672   6.676   4.395  0.2270  0.0600  0.1441
  148MOL0     N20303   6.816   6.661   4.420  0.1562 -0.3948 -0.1671
  148MOL0     C20304   6.901   6.763   4.436 -0.1909 -0.4413  0.4327
  148MOL0     C20305   7.029   6.710   4.410 -0.3570 -0.2222 -1.3882
  148MOL0     C20306   7.151   6.776   4.406 -0.1606 -0.2486 -0.4491
  148MOL0     C20307   7.152   6.851   4.279 -0.2736 -0.0455  0.2495
  148MOL0     C20308   7.290   6.916   4.260  0.2985  0.1455  0.1150
  148MOL0     C20309   7.306   6.995   4.131  0.1055 -0.9328 -0.4353
  148MOL0     O20310   7.439   7.049   4.107 -0.4355 -0.5936  0.0532
  148MOL0     C20311   7.492   7.160   4.174  0.0435 -0.1722  0.7148
  148MOL0     C20312   7.629   7.197   4.153  0.6665 -0.4264 -0.1980
  148MOL0     C20313   7.680   7.316   4.202  0.3323  0.0102  0.2888
  148MOL0     C20314   7.835   7.328   4.168  0.9802 -0.2732 -0.7209
  148MOL0     C20315   7.584   7.406   4.275 -0.6163  0.5636  0.2227
  148MOL0     C20316   7.617   7.535   4.334 -0.3195  0.3759  0.3539
  148MOL0     O20317   7.521   7.612   4.391  0.2400  0.3283 -0.2321
  148MOL0     C20318   7.525   7.750   4.373 -0.5132 -0.0807  1.0461
  148MOL0     C20319   7.528   7.812   4.246  0.2710  0.0187 -0.0788
  148MOL0     C20320   7.543   7.950   4.234  0.2161 -0.3063 -1.1417
  148MOL0     C20321   7.552   8.031   4.348  0.3880  1.5429  0.1312
  148MOL0     O20322   7.595   8.160   4.323  0.4686  0.6195 -0.9448
  148MOL0     C20323   7.631   8.235   4.434 -0.0852  0.0138 -0.2439
  148MOL0     C20324   7.697   8.375   4.413  0.5301  0.7191 -0.8971
  148MOL0     C20325   7.771   8.396   4.282 -0.2560 -0.2884 -0.1235
  148MOL0     C20326   7.686   8.415   4.160  0.0659 -0.4096  1.6073
  148MOL0     C20327   7.783   8.406   4.031 -0.6991 -0.3574 -1.2877
  148MOL0     C20328   7.704   8.388   3.912 -0.5661  0.4508 -0.3331
  148MOL0     C20329   7.794   8.394   3.785 -0.1705  0.2690  0.4783
  148MOL0     C20330   7.724   8.381   3.649 -0.2849  0.1889 -0.6500
  148MOL0    Cl20331   7.627   8.223   3.638 -0.1334  0.0229  0.5433
  148MOL0     C20332   7.527   7.972   4.470 -0.1696 -0.7139 -0.0652
  148MOL0     C20333   7.520   7.830   4.482  0.2140  0.0372 -0.2984
  148MOL0     O20334   7.726   7.572   4.294  0.1750  0.7362  0.5291
  148MOL0     C20335   7.449   7.361   4.292 -0.5534 -0.2928 -0.3232
  148MOL0     C20336   7.407   7.239   4.244  0.2281  0.3365 -0.3788
  148MOL0     N20337   7.012   6.574   4.410 -0.1740 -0.2121 -0.6962
  148MOL0     N20338   6.884   6.542   4.418 -1.2369 -0.2061 -0.2076
  148MOL0     C20339   5.611   6.456   4.123 -0.0589 -1.3911  0.2725
  148MOL0     C20340   5.482   6.495   4.099 -0.4496 -0.0088 -0.1448
  148MOL0     C20341   5.082   6.728   4.146 -0.4840 -0.2097  0.2830
  148MOL0     C20342   5.012   6.840   4.191  0.4993  0.6294  0.0471
  148MOL0     C20343   4.887   6.864   4.138  0.3605 -0.6371  0.1029
  148MOL0     C20344   4.821   6.784   4.046  0.2513  0.1130 -0.4333
  148MOL0     O20345   4.699   6.823   4.004  0.2866  0.4972  0.5695
  148MOL0     C20346   4.621   6.712   3.972  0.2582  0.4839  0.8161
  148MOL0     C20347   4.477   6.759   3.941  0.0687 -0.6734  1.0914
  148MOL0     C20348   4.418   6.852   4.046 -0.3784 -0.0019  0.9096
  148MOL0     C20349   4.385   6.786   4.179  0.4523 -0.4639 -0.2353
  148MOL0     C20350   4.503   6.740   4.258  0.8002  0.6413  0.1836
  148MOL0     C20351   4.605   6.704   4.304 -0.7430  0.5898  0.3139
  148MOL0     C20352   4.894   6.667   4.008  0.3524 -0.8649 -0.8377
  148MOL0     C20353   5.017   6.640   4.055 -0.5918  0.2057 -0.2156
  148MOL0     C20354   5.073   6.509   4.013  0.4694  0.1038 -0.8316
  148MOL0     H20355   5.471   6.780   4.278 -0.6420 -0.7554 -0.1329
  148MOL0     H20356   5.699   6.733   4.306 -0.6949 -0.3102  0.9098
  148MOL0     H20357   5.896   6.695   4.276  2.5570  1.1294  0.1625
  148MOL0     H20358   5.997   6.642   4.137  1.9978  0.2133  0.9249
  148MOL0     H20359   5.976   6.495   4.397  2.6626  1.4887  1.4973
  148MOL0     H20360   6.058   6.444   4.263 -0.6960  0.8768 -1.0814
  148MOL0     H20361   6.106   6.723   4.419  0.2158  1.1027 -0.2799
  148MOL0     H20362   6.205   6.585   4.443 -1.5170  1.9467  2.6497
  148MOL0     H20363   6.252   6.585   4.180  0.1366  0.7983 -0.8630
  148MOL0     H20364   6.211   6.755   4.201  0.5700  0.4081  0.7694
  148MOL0     H20365   6.411   6.619   4.391  0.7059 -1.0216 -1.4131
  148MOL0     H20366   6.353   6.791   4.381 -1.0990  0.4915 -1.6175
  148MOL0     H20367   6.492   6.670   4.141 -1.0704  1.9975 -1.1660
  148MOL0     H20368   6.448   6.833   4.171 -1.4459 -0.9881 -1.8576
  148MOL0     H20369   6.631   6.867   4.339  2.0767  0.5478 -1.0267
  148MOL0     H20370   6.697   6.774   4.202 -0.2704  1.8449 -0.4534
  148MOL0     H20371   6.608   6.694   4.482 -1.2367 -0.1425 -0.8575
  148MOL0     H20372   6.637   6.575   4.370 -0.8316  0.8274 -1.6081
  148MOL0     H20373   6.872   6.867   4.436 -2.0879 -0.8485 -2.5540
  148MOL0     H20374   7.234   6.705   4.413 -2.7869 -3.3458  3.1754
  148MOL0     H20375   7.162   6.841   4.493  1.8178 -1.2807  0.1217
  148MOL0     H20376   7.134   6.782   4.196 -1.7135  1.8647 -1.0977
  148MOL0     H20377   7.076   6.928   4.269 -0.5941 -0.5601 -1.6929
  148MOL0     H20378   7.311   6.977   4.349  0.8823  0.1084  0.0084
  148MOL0     H20379   7.359   6.832   4.254 -1.8280 -1.8996  2.3004
  148MOL0     H20380   7.271   6.936   4.046 -1.6688  1.2762 -1.3147
  148MOL0     H20381   7.237   7.079   4.137  1.0432 -0.2137  1.3756
  148MOL0     H20382   7.678   7.118   4.097 -1.1041 -1.1027 -0.8762
  148MOL0     H20383   7.858   7.424   4.120 -2.9273  1.8738  1.2063
  148MOL0     H20384   7.872   7.239   4.117 -1.4677 -0.8960 -1.5173
  148MOL0     H20385   7.881   7.338   4.267  2.3318  2.8125 -1.5266
  148MOL0     H20386   7.526   7.749   4.157  1.7787  2.1329 -1.7380
  148MOL0     H20387   7.558   7.991   4.135  2.9229  1.8541  0.0460
  148MOL0     H20388   7.538   8.269   4.480  0.8559  1.6859  0.5271
  148MOL0     H20389   7.682   8.172   4.507 -1.3674  2.8386  3.3594
  148MOL0     H20390   7.631   8.462   4.417  2.3276  2.3115 -3.1674
  148MOL0     H20391   7.755   8.396   4.503 -0.8364  1.2838 -0.1324
  148MOL0     H20392   7.831   8.308   4.260 -0.1354 -0.8565  2.1553
  148MOL0     H20393   7.831   8.486   4.302  1.2489 -0.9580 -1.4791
  148MOL0     H20394   7.643   8.515   4.168  2.6013  1.0335 -0.9300
  148MOL0     H20395   7.605   8.344   4.145 -1.0312  1.3957 -1.8425
  148MOL0     H20396   7.842   8.498   4.021 -3.5915  1.6833 -1.0458
  148MOL0     H20397   7.849   8.319   4.031  1.2516  1.0561 -1.0105
  148MOL0     H20398   7.628   8.466   3.923  1.2838  2.0692  1.7579
  148MOL0     H20399   7.649   8.293   3.915 -0.4485  0.3875  2.3063
  148MOL0     H20400   7.866   8.313   3.797  0.2722  0.9502  3.2175
  148MOL0     H20401   7.853   8.485   3.794 -3.0260  2.3107  0.0294
  148MOL0     H20402   7.806   8.388   3.577  1.9158  1.7443  1.7988
  148MOL0     H20403   7.656   8.465   3.635 -0.6565  0.2887  1.3967
  148MOL0     H20404   7.519   8.035   4.558  0.7463 -1.9933  0.9770
  148MOL0     H20405   7.521   7.776   4.576 -1.7000  1.7567  0.7981
  148MOL0     H20406   7.382   7.424   4.351  1.5318  1.2311  0.5266
  148MOL0     H20407   7.307   7.209   4.274  1.2023 -2.1001  0.7147
  148MOL0     H20408   5.641   6.359   4.087  0.6115 -1.4354  0.9196
  148MOL0     H20409   5.419   6.428   4.040 -1.4320 -0.2026  1.0710
  148MOL0     H20410   5.058   6.924   4.242 -1.1091  1.7243 -0.2121
  148MOL0     H20411   4.849   6.956   4.181  0.7306 -0.7057  0.5963
  148MOL0     H20412   4.660   6.653   3.890 -0.1322 -0.1984  1.1109
  148MOL0     H20413   4.618   6.644   4.058 -0.3213 -2.9046 -1.7090
  148MOL0     H20414   4.398   6.689   3.914 -0.7021  0.7989 -0.7004
  148MOL0     H20415   4.487   6.820   3.850  4.5385 -0.5509  1.4157
  148MOL0     H20416   4.478   6.939   4.074  0.9512 -1.1404  1.7104
  148MOL0     H20417   4.324   6.892   4.007 -0.9266 -1.3783  0.7606
  148MOL0     H20418   4.315   6.707   4.149 -0.6204 -0.2529  1.5844
  148MOL0     H20419   4.324   6.851   4.242  0.6199 -0.5452  0.0133
  148MOL0     H20420   4.699   6.667   4.341 -0.4680  0.6736 -0.2806
  148MOL0     H20421   4.844   6.600   3.938  0.3385  2.4708 -4.3478
  148MOL0     H20422   5.118   6.462   4.101  1.7953 -1.1793 -2.1445
  148MOL0     H20423   5.002   6.441   3.966 -1.1944  2.3463 -1.7606
  148MOL0     H20424   5.156   6.537   3.948  0.4793 -0.1561 -0.9288
  149MOL0     O20425   4.828   4.050   7.157  0.1304 -0.1797  0.8361
  149MOL0     C20426   4.789   4.091   7.267  0.6281  0.8911 -0.4711
  149MOL0     O20427   4.853   4.158   7.358  0.2073 -0.2552  0.6380
  149MOL0     C20428   4.963   4.232   7.338  0.4595 -0.6656 -0.3689
  149MOL0     C20429   4.983   4.351   7.409 -0.3254 -0.3775  0.1482
  149MOL0     C20430   5.094   4.434   7.394  1.4693 -0.0410  0.5699
  149MOL0     C20431   5.199   4.391   7.314 -0.2075 -0.5054 -0.3119
  149MOL0     O20432   5.315   4.463   7.317 -0.4886  0.2178 -0.7582
  149MOL0     C20433   5.423   4.401   7.250  0.9424 -0.5494 -0.1386
  149MOL0     C20434   5.545   4.488   7.231 -0.7051 -0.4095 -0.3474
  149MOL0     C20435   5.660   4.406   7.171 -0.4215  0.6831 -0.5912
  149MOL0     C20436   5.795   4.482   7.162 -0.0821  0.8359  0.9854
  149MOL0     C20437   5.894   4.402   7.075 -0.1387 -0.6357 -0.0149
  149MOL0     C20438   6.019   4.480   7.067 -0.4454 -1.2799  0.6722
  149MOL0     C20439   6.133   4.400   6.997  0.2655 -0.0133 -0.9017
  149MOL0     C20440   6.104   4.405   6.849 -0.0799  0.4897  0.0860
  149MOL0     N20441   6.193   4.312   6.776  0.1689 -0.8405  0.1774
  149MOL0     C20442   6.155   4.203   6.704  0.5449  0.1302  0.5111
  149MOL0     C20443   6.261   4.173   6.620  0.0813 -0.9378 -0.0016
  149MOL0     C20444   6.284   4.053   6.533 -0.0133  0.5969  0.1571
  149MOL0     C20445   6.416   4.015   6.473 -0.4495 -0.4682  0.6164
  149MOL0     C20446   6.403   4.022   6.322 -0.8327  0.4811  0.7921
  149MOL0     C20447   6.539   4.009   6.254  0.0632 -0.3587  0.1709
  149MOL0     O20448   6.514   4.057   6.115  0.6126 -0.2270  0.2558
  149MOL0     C20449   6.550   3.987   6.009 -0.7765  0.6778 -0.1321
  149MOL0     C20450   6.646   3.893   6.012  0.1130  0.9318  0.7798
  149MOL0     C20451   6.689   3.832   5.889  0.8505 -0.1641 -0.4917
  149MOL0     C20452   6.794   3.728   5.906  0.3105 -0.2377  0.7761
  149MOL0     C20453   6.625   3.852   5.765  0.3395 -0.4081 -0.1385
  149MOL0     C20454   6.658   3.794   5.633 -0.1363  0.0807 -0.5633
  149MOL0     O20455   6.603   3.850   5.517  0.0666  0.2645  0.3814
  149MOL0     C20456   6.652   3.797   5.399  0.4264  0.1683 -0.6601
  149MOL0     C20457   6.612   3.673   5.356  0.2019  0.0078 -0.2154
  149MOL0     C20458   6.667   3.614   5.241  0.1750  0.3848  0.7792
  149MOL0     C20459   6.773   3.678   5.175 -0.2116  0.0057  0.0644
  149MOL0     O20460   6.821   3.628   5.058 -0.1722 -0.1523 -0.6349
  149MOL0     C20461   6.858   3.485   5.058 -0.7418  0.4250 -0.8130
  149MOL0     C20462   6.984   3.468   4.958  0.4916 -0.7671 -1.4207
  149MOL0     C20463   6.928   3.482   4.816 -0.3031  0.6242 -0.4197
  149MOL0     C20464   7.032   3.446   4.706 -0.4048 -0.1287  0.8528
  149MOL0     C20465   6.963   3.424   4.576 -0.1062  0.3632  0.4403
  149MOL0     C20466   7.056   3.438   4.460  0.7224 -0.3359  0.1338
  149MOL0     C20467   6.990   3.401   4.323  0.4836 -0.7088 -0.2927
  149MOL0     C20468   6.965   3.251   4.299  0.4182 -0.6029  0.4877
  149MOL0    Cl20469   7.124   3.171   4.322 -0.1734  0.1259  0.3679
  149MOL0     C20470   6.810   3.797   5.217 -0.0925 -0.8198 -0.0282
  149MOL0     C20471   6.756   3.864   5.331  0.6193  0.0651  0.7459
  149MOL0     O20472   6.734   3.699   5.635  0.0325  0.0579  1.0082
  149MOL0     C20473   6.522   3.952   5.771  0.2110  0.1756 -0.3055
  149MOL0     C20474   6.485   4.010   5.894 -0.1693  0.5783  0.3193
  149MOL0     N20475   6.366   4.267   6.643  0.0070  0.0742  0.1062
  149MOL0     N20476   6.316   4.346   6.731  0.8521 -0.5414 -0.4188
  149MOL0     C20477   5.185   4.270   7.241  0.0839  1.0244 -0.4826
  149MOL0     C20478   5.070   4.187   7.256  0.3252 -0.3519 -0.6623
  149MOL0     C20479   4.653   4.048   7.308  0.6266 -0.3683  0.7241
  149MOL0     C20480   4.629   3.908   7.330  1.1754  0.1544  0.1889
  149MOL0     C20481   4.503   3.882   7.394  0.1675  0.0128  0.2934
  149MOL0     C20482   4.398   3.977   7.423 -0.4919 -0.5935  0.7357
  149MOL0     O20483   4.280   3.931   7.472  0.0909  0.2529  0.3905
  149MOL0     C20484   4.170   4.025   7.482 -1.1525  0.4223  0.6896
  149MOL0     C20485   4.150   4.089   7.612  0.0705  0.8478  0.7978
  149MOL0     C20486   4.006   4.146   7.621  0.8704 -0.4967  0.1634
  149MOL0     C20487   3.974   4.184   7.764  1.5937  0.1847  0.7287
  149MOL0     C20488   4.083   4.255   7.838  0.3884 -0.3409  0.1108
  149MOL0     C20489   4.175   4.313   7.882 -0.5888 -0.5015 -0.1179
  149MOL0     C20490   4.432   4.111   7.398 -0.3454 -0.8086 -0.0586
  149MOL0     C20491   4.554   4.148   7.335  0.1800 -0.2981 -0.1573
  149MOL0     C20492   4.570   4.291   7.305 -0.3858  0.1219  0.2889
  149MOL0     H20493   4.894   4.379   7.465 -1.1381  1.1660 -1.7654
  149MOL0     H20494   5.118   4.521   7.453  1.7972  0.9225 -0.9215
  149MOL0     H20495   5.385   4.396   7.148 -4.4232  3.1907  1.1944
  149MOL0     H20496   5.449   4.307   7.298  0.4307 -0.2047  0.8483
  149MOL0     H20497   5.520   4.563   7.155  0.4846  1.2307  0.7843
  149MOL0     H20498   5.571   4.545   7.322  3.2843 -3.0280  0.3824
  149MOL0     H20499   5.669   4.321   7.239 -0.0892  1.8546  0.8836
  149MOL0     H20500   5.636   4.371   7.070  1.3306  1.6387 -1.3880
  149MOL0     H20501   5.776   4.575   7.107 -3.5593 -0.3431 -0.0307
  149MOL0     H20502   5.827   4.524   7.258  0.0683  2.9663  0.0794
  149MOL0     H20503   5.849   4.394   6.976  1.1366  1.6284 -0.8685
  149MOL0     H20504   5.908   4.310   7.133 -3.4993  0.8623  3.6721
  149MOL0     H20505   6.001   4.568   7.004  2.5173 -0.1977  1.1905
  149MOL0     H20506   6.043   4.520   7.166 -3.3556 -2.0202  1.7801
  149MOL0     H20507   6.140   4.301   7.043 -0.1930  1.6353  3.2311
  149MOL0     H20508   6.228   4.454   7.008 -0.0166  0.2941  0.2664
  149MOL0     H20509   6.001   4.378   6.822 -0.1586  0.3873  0.4897
  149MOL0     H20510   6.109   4.504   6.801  0.6124 -0.8302 -2.7809
  149MOL0     H20511   6.076   4.131   6.726 -1.4126  2.3487  1.1267
  149MOL0     H20512   6.212   4.064   6.452  1.5083  3.4596 -0.9674
  149MOL0     H20513   6.248   3.966   6.588 -1.3449  2.0268  1.6336
  149MOL0     H20514   6.484   4.097   6.497 -0.9831  0.5982 -1.2964
  149MOL0     H20515   6.463   3.929   6.521  0.8130  0.4155  1.0079
  149MOL0     H20516   6.345   3.932   6.300  0.3360  0.0549 -0.7088
  149MOL0     H20517   6.355   4.113   6.285  1.8541  1.4690 -0.5978
  149MOL0     H20518   6.606   4.079   6.304  1.3619 -1.0352 -0.5825
  149MOL0     H20519   6.592   3.915   6.269  3.4595  1.0353 -1.9287
  149MOL0     H20520   6.684   3.861   6.108  1.0915  0.7952  0.3616
  149MOL0     H20521   6.867   3.749   5.828 -1.8772 -0.7664 -1.5328
  149MOL0     H20522   6.750   3.628   5.909  1.4538 -0.8147 -0.5436
  149MOL0     H20523   6.850   3.741   5.999  2.2143 -2.8129  0.1092
  149MOL0     H20524   6.530   3.626   5.411 -0.3724  1.9064  0.6545
  149MOL0     H20525   6.623   3.525   5.195 -0.4733  1.8246 -1.5997
  149MOL0     H20526   6.909   3.448   5.148  0.5081  0.9193 -1.2930
  149MOL0     H20527   6.772   3.422   5.034 -2.7340  2.1069  1.4121
  149MOL0     H20528   7.058   3.544   4.985 -2.7557  2.3437 -0.3677
  149MOL0     H20529   7.032   3.371   4.970 -1.7808 -1.9318 -1.1688
  149MOL0     H20530   6.898   3.585   4.798  0.2948  0.7810 -0.5254
  149MOL0     H20531   6.834   3.429   4.802  0.8464 -1.3523 -1.0624
  149MOL0     H20532   7.091   3.358   4.730 -0.3072  0.3889  2.6954
  149MOL0     H20533   7.096   3.535   4.704 -1.4210  0.6187  0.5255
  149MOL0     H20534   6.953   3.315   4.570  2.8218  0.0423  0.1044
  149MOL0     H20535   6.869   3.481   4.574 -0.7280 -0.6005  1.1021
  149MOL0     H20536   7.150   3.385   4.479  0.4517 -1.7336 -2.0620
  149MOL0     H20537   7.080   3.544   4.460 -0.2493 -0.1095  0.1739
  149MOL0     H20538   7.059   3.442   4.248 -2.4871 -1.2603 -3.5764
  149MOL0     H20539   6.890   3.445   4.316  0.3813 -0.9192 -0.1704
  149MOL0     H20540   6.922   3.243   4.198  0.9442 -4.5505  0.4196
  149MOL0     H20541   6.887   3.209   4.364 -2.7766  2.2187 -1.2053
  149MOL0     H20542   6.885   3.848   5.157 -1.0651 -2.5035 -2.8657
  149MOL0     H20543   6.789   3.965   5.355 -3.5653  1.8047 -0.0635
  149MOL0     H20544   6.456   3.979   5.689 -1.3828 -2.5860 -0.0291
  149MOL0     H20545   6.410   4.088   5.893 -0.6085  0.1565 -0.2307
  149MOL0     H20546   5.266   4.215   7.194 -2.6158 -3.4660 -0.5586
  149MOL0     H20547   5.058   4.088   7.213  1.1018 -1.3321  1.2760
  149MOL0     H20548   4.710   3.840   7.307  4.6670  3.7381  0.9606
  149MOL0     H20549   4.476   3.779   7.411  0.1765  0.0576  0.5769
  149MOL0     H20550   4.174   4.100   7.402 -4.6135 -1.1965 -1.2275
  149MOL0     H20551   4.079   3.965   7.473 -0.6449 -0.5385  1.7913
  149MOL0     H20552   4.216   4.173   7.633 -1.4760  3.1730 -2.7176
  149MOL0     H20553   4.148   4.017   7.695 -0.5591 -1.0181 -0.7551
  149MOL0     H20554   4.016   4.239   7.564 -0.4350 -0.4999 -0.1157
  149MOL0     H20555   3.929   4.084   7.574  0.8352 -2.1867  2.3108
  149MOL0     H20556   3.939   4.096   7.818  0.0931 -0.3734 -1.0552
  149MOL0     H20557   3.881   4.242   7.757  0.5458 -1.6279 -2.6408
  149MOL0     H20558   4.264   4.367   7.906  0.1095 -2.1363  1.1417
  149MOL0     H20559   4.364   4.189   7.429  2.4715  1.0433  1.9515
  149MOL0     H20560   4.489   4.335   7.246 -0.5681  0.7041  0.9569
  149MOL0     H20561   4.564   4.345   7.400 -2.1379  0.4700  0.0034
  149MOL0     H20562   4.663   4.313   7.250 -1.2059  0.1344 -1.1410
  150MOL0     O20563   2.315   8.541   7.597  0.1519 -0.3583 -0.0645
  150MOL0     C20564   2.237   8.498   7.506  0.0828  0.6536 -0.1845
  150MOL0     O20565   2.116   8.442   7.526 -0.7578 -0.3749  0.4383
  150MOL0     C20566   2.061   8.446   7.649  0.1776  0.1574 -0.6756
  150MOL0     C20567   2.057   8.333   7.737  0.3411 -1.5211  0.9866
  150MOL0     C20568   2.001   8.337   7.867  0.2030  0.3509  0.6618
  150MOL0     C20569   1.941   8.452   7.906 -0.1413  0.8870 -0.4396
  150MOL0     O20570   1.896   8.475   8.033 -0.2362  0.3501 -0.3730
  150MOL0     C20571   1.966   8.410   8.136  0.6550  0.9025  0.3499
  150MOL0     C20572   1.936   8.484   8.264  0.4067 -0.3826  0.3253
  150MOL0     C20573   1.979   8.627   8.245 -0.2416  0.2299  0.1204
  150MOL0     C20574   2.126   8.641   8.269  0.2226  0.6342  0.9532
  150MOL0     C20575   2.168   8.784   8.260 -0.4385  0.3367 -0.6008
  150MOL0     C20576   2.289   8.807   8.347 -0.5927 -0.2138 -0.4053
  150MOL0     C20577   2.345   8.949   8.354  0.2499 -0.0504  0.6953
  150MOL0     C20578   2.260   9.048   8.435  0.4379 -0.2533 -0.7965
  150MOL0     N20579   2.332   9.172   8.447 -0.6476 -0.3029 -0.6287
  150MOL0     C20580   2.341   9.244   8.560 -0.7080 -0.7863  0.6047
  150MOL0     C20581   2.397   9.366   8.529  0.8379 -0.1333 -0.0602
  150MOL0     C20582   2.407   9.499   8.613 -0.2516 -0.3535  0.6718
  150MOL0     C20583   2.535   9.517   8.700 -0.2152  0.1664 -0.6114
  150MOL0     C20584   2.582   9.398   8.780  0.2376  0.6564  0.2464
  150MOL0     C20585   2.711   9.437   8.856 -0.0648  0.1120 -0.1943
  150MOL0     O20586   2.768   9.326   8.925 -0.4846 -0.2938 -0.4258
  150MOL0     C20587   2.702   9.285   9.035  0.3243 -0.6973 -0.1968
  150MOL0     C20588   2.658   9.152   9.040 -0.4215  0.1303 -0.6437
  150MOL0     C20589   2.580   9.096   9.150  0.6775 -1.3250 -0.0311
  150MOL0     C20590   2.566   8.940   9.145 -0.3700  0.1197  1.2110
  150MOL0     C20591   2.534   9.182   9.246 -0.3526  0.0762  0.8899
  150MOL0     C20592   2.464   9.140   9.364  0.5089  0.1018  0.0241
  150MOL0     O20593   2.378   9.242   9.420 -0.2577 -0.1576 -0.4364
  150MOL0     C20594   2.334   9.208   9.543  0.5340  0.9767 -0.9149
  150MOL0     C20595   2.199   9.194   9.561 -0.0359  0.5098 -0.1439
  150MOL0     C20596   2.152   9.176   9.685  0.3404  0.1310  0.0327
  150MOL0     C20597   2.240   9.154   9.792  0.4311 -0.7235  0.7950
  150MOL0     O20598   2.198   9.135   9.923  0.4321  0.2765  0.2223
  150MOL0     C20599   2.072   9.087   9.939 -0.0191 -0.3331 -0.1690
  150MOL0     C20600   2.054   9.036  10.074  0.5053  0.5907  0.0879
  150MOL0     C20601   1.898   9.024  10.094 -0.4121 -0.3257 -0.3501
  150MOL0     C20602   1.872   9.001  10.247  0.7106 -1.4074  0.6065
  150MOL0     C20603   1.892   8.852  10.284 -0.6749 -0.8920  0.2674
  150MOL0     C20604   1.873   8.830  10.433 -0.1289 -0.9783 -0.2996
  150MOL0     C20605   1.889   8.685  10.481  0.8433 -0.2587 -0.8578
  150MOL0     C20606   1.911   8.676  10.638 -0.4802  0.0680 -0.1586
  150MOL0    Cl20607   2.059   8.758  10.678  0.0112  0.3152 -0.3778
  150MOL0     C20608   2.370   9.176   9.772 -0.1602 -0.3316  0.4662
  150MOL0     C20609   2.424   9.204   9.645 -0.9799  0.8406  0.2630
  150MOL0     O20610   2.469   9.023   9.397 -0.2260 -0.1521 -0.2089
  150MOL0     C20611   2.572   9.322   9.238  0.3824  0.4317  0.8495
  150MOL0     C20612   2.656   9.367   9.139  0.7571  0.3515  0.6950
  150MOL0     N20613   2.420   9.356   8.393 -0.9741  0.6615 -0.0624
  150MOL0     N20614   2.379   9.245   8.347 -0.7778  0.4171  0.6355
  150MOL0     C20615   1.934   8.562   7.813 -0.1944  0.4883  0.5376
  150MOL0     C20616   1.993   8.550   7.688  0.4094 -0.2424  0.2132
  150MOL0     C20617   2.303   8.481   7.379 -0.1955  0.5382 -0.0962
  150MOL0     C20618   2.279   8.352   7.319 -0.5207  0.2012  1.1365
  150MOL0     C20619   2.333   8.325   7.194 -0.0569  0.3171 -0.0806
  150MOL0     C20620   2.428   8.405   7.134  0.9226 -0.6466 -0.1749
  150MOL0     O20621   2.475   8.357   7.012  0.0974  0.0487 -0.2613
  150MOL0     C20622   2.582   8.417   6.938 -0.5396  1.0416 -0.2895
  150MOL0     C20623   2.598   8.328   6.813 -0.4699  0.2252 -0.5120
  150MOL0     C20624   2.693   8.385   6.709 -0.3304  0.1703 -0.3030
  150MOL0     C20625   2.634   8.439   6.578 -0.0285 -0.2909 -0.5850
  150MOL0     C20626   2.567   8.572   6.577 -0.9776 -0.0613 -0.7567
  150MOL0     C20627   2.514   8.677   6.586 -0.4365 -0.6944  0.1268
  150MOL0     C20628   2.456   8.529   7.194 -0.2721  0.1284 -0.0940
  150MOL0     C20629   2.386   8.577   7.314  0.2495  0.0356 -0.4452
  150MOL0     C20630   2.412   8.714   7.369 -0.4862  0.3309 -0.2875
  150MOL0     H20631   2.110   8.245   7.703  0.5353 -0.5896 -1.2840
  150MOL0     H20632   2.005   8.249   7.931 -0.8432 -0.8665 -0.8886
  150MOL0     H20633   2.075   8.403   8.123  0.6466 -2.5837  1.0129
  150MOL0     H20634   1.929   8.308   8.150  0.1967  0.9533 -0.4489
  150MOL0     H20635   1.829   8.467   8.278 -0.8399  4.0645 -2.0465
  150MOL0     H20636   1.991   8.438   8.347 -2.0156  1.5578  3.2166
  150MOL0     H20637   1.947   8.674   8.152 -3.4794 -0.8640  0.5532
  150MOL0     H20638   1.928   8.690   8.318  1.5443  1.2432  0.5561
  150MOL0     H20639   2.155   8.594   8.364  0.3992 -1.9543 -0.2742
  150MOL0     H20640   2.184   8.591   8.191 -2.0767 -1.7895  0.6315
  150MOL0     H20641   2.093   8.852   8.301  0.5185 -0.8508  3.5623
  150MOL0     H20642   2.197   8.808   8.157  2.3597 -1.7911 -0.4275
  150MOL0     H20643   2.269   8.773   8.449 -0.5849 -1.0913 -0.6808
  150MOL0     H20644   2.368   8.742   8.309 -0.4507 -1.0072  1.1507
  150MOL0     H20645   2.348   8.982   8.250 -0.7910 -2.2581 -0.1106
  150MOL0     H20646   2.449   8.954   8.389  0.9362  0.5399 -1.2531
  150MOL0     H20647   2.158   9.067   8.399 -0.5986 -0.7162  1.6935
  150MOL0     H20648   2.251   9.006   8.535  0.3885 -4.2855 -2.3333
  150MOL0     H20649   2.299   9.226   8.659 -1.7006  1.9812  0.7850
  150MOL0     H20650   2.326   9.521   8.682 -1.3456 -2.3234  0.0852
  150MOL0     H20651   2.417   9.586   8.547  1.9795 -0.2890  0.9980
  150MOL0     H20652   2.614   9.557   8.636 -0.5460  2.2233  0.1749
  150MOL0     H20653   2.503   9.590   8.775 -0.9000 -1.6496  0.9715
  150MOL0     H20654   2.501   9.365   8.846 -1.4241  1.5082 -1.2868
  150MOL0     H20655   2.610   9.329   8.701  2.3277 -0.1700  1.6204
  150MOL0     H20656   2.787   9.474   8.788 -0.8036 -0.5216 -1.4087
  150MOL0     H20657   2.685   9.511   8.931 -0.6499  0.5907 -0.8578
  150MOL0     H20658   2.694   9.081   8.966 -0.2012 -1.0624  0.5659
  150MOL0     H20659   2.607   8.894   9.054 -2.7151 -2.1401  1.1917
  150MOL0     H20660   2.462   8.907   9.152 -0.6534  0.6666 -0.0321
  150MOL0     H20661   2.618   8.895   9.229  1.8645 -2.9799 -1.5440
  150MOL0     H20662   2.132   9.197   9.475 -1.5802 -0.0523  0.9923
  150MOL0     H20663   2.044   9.170   9.691  0.2711  2.0644  1.8461
  150MOL0     H20664   2.010   9.176   9.922  1.1941  0.1762 -2.4270
  150MOL0     H20665   2.055   9.011   9.861 -2.0409  0.4943 -0.6019
  150MOL0     H20666   2.086   8.931  10.070  0.0992  0.4810 -0.6442
  150MOL0     H20667   2.098   9.098  10.152  0.8919  0.8695 -0.3444
  150MOL0     H20668   1.860   8.935  10.042 -0.2357 -1.2382  1.0465
  150MOL0     H20669   1.834   9.104  10.054  0.5907  0.0519 -1.2626
  150MOL0     H20670   1.772   9.032  10.279  0.2883 -1.9124 -0.1842
  150MOL0     H20671   1.939   9.061  10.309  1.4422  0.5404 -1.8835
  150MOL0     H20672   1.814   8.798  10.229 -2.9219  1.9597  0.4411
  150MOL0     H20673   1.985   8.813  10.242 -1.7409 -3.1190 -0.1859
  150MOL0     H20674   1.766   8.845  10.450  0.0583  0.7582 -0.4655
  150MOL0     H20675   1.931   8.901  10.494 -0.5865 -0.3015 -0.6390
  150MOL0     H20676   1.974   8.654  10.420  1.5459  2.9938 -1.7039
  150MOL0     H20677   1.802   8.627  10.448  1.7168 -1.8648 -0.4396
  150MOL0     H20678   1.912   8.570  10.665 -0.5739  0.6616  2.3796
  150MOL0     H20679   1.823   8.717  10.689 -1.3545 -1.0840 -0.6870
  150MOL0     H20680   2.430   9.170   9.862 -0.1560 -1.8873  0.3968
  150MOL0     H20681   2.529   9.225   9.626 -0.9814 -0.5239 -1.5132
  150MOL0     H20682   2.537   9.389   9.317  1.2432  0.0576  1.5686
  150MOL0     H20683   2.675   9.474   9.135  0.1162  0.4437 -0.5697
  150MOL0     H20684   1.901   8.661   7.845 -1.1044  0.1596  0.6232
  150MOL0     H20685   1.988   8.631   7.616  0.4257 -0.9372 -0.5867
  150MOL0     H20686   2.213   8.276   7.358 -1.8617 -0.1694 -1.5935
  150MOL0     H20687   2.287   8.245   7.136 -2.0290  1.0573  0.3839
  150MOL0     H20688   2.568   8.522   6.911 -0.7877  1.3408  0.9195
  150MOL0     H20689   2.676   8.404   6.993  0.0501  1.8092 -1.0882
  150MOL0     H20690   2.507   8.313   6.753 -4.1373 -2.8005  4.9408
  150MOL0     H20691   2.617   8.225   6.845 -3.0791  0.4272  2.1086
  150MOL0     H20692   2.759   8.464   6.746 -0.4705 -0.2501  0.9190
  150MOL0     H20693   2.764   8.307   6.679  2.2318  2.1886  0.1189
  150MOL0     H20694   2.564   8.363   6.542 -1.6089  1.1468 -0.6546
  150MOL0     H20695   2.715   8.437   6.505  1.3762 -2.4521  0.9128
  150MOL0     H20696   2.460   8.769   6.586  1.7741  0.6636  0.3663
  150MOL0     H20697   2.532   8.590   7.146  0.0919  1.6279  2.2716
  150MOL0     H20698   2.329   8.775   7.334 -2.4698 -2.8237 -1.4860
  150MOL0     H20699   2.435   8.725   7.475 -0.3988  1.6240 -0.4226
  150MOL0     H20700   2.504   8.741   7.317 -2.4363 -1.4344 -5.1955
  151MOL0     O20701   7.414   7.037  10.159 -0.5771 -0.3324 -0.1678
  151MOL0     C20702   7.470   6.972  10.068 -0.4751 -0.1475 -0.8219
  151MOL0     O20703   7.515   7.026   9.946  0.6538  0.7058 -0.1968
  151MOL0     C20704   7.577   7.150   9.944  0.0167  0.9952 -0.0579
  151MOL0     C20705   7.593   7.195   9.812  0.2377 -0.4630 -0.1536
  151MOL0     C20706   7.657   7.321   9.794 -0.1244 -0.5058  0.0872
  151MOL0     C20707   7.710   7.386   9.901  0.4922 -0.2255 -0.2539
  151MOL0     O20708   7.785   7.506   9.880  0.0737 -0.0862 -0.1806
  151MOL0     C20709   7.880   7.571   9.969  0.4884  0.1463  0.4371
  151MOL0     C20710   7.828   7.718   9.993  0.1590  0.7952  0.9345
  151MOL0     C20711   7.678   7.738  10.021 -1.3246  0.3432  0.0751
  151MOL0     C20712   7.632   7.879   9.994  0.0115 -0.0339 -0.8525
  151MOL0     C20713   7.639   7.938   9.852 -0.5416 -0.4588 -0.5395
  151MOL0     C20714   7.587   8.087   9.850  0.7601  0.2613 -0.9521
  151MOL0     C20715   7.640   8.172   9.731  0.4754  0.4653  0.0883
  151MOL0     C20716   7.792   8.205   9.742  0.9517  0.2778 -0.5029
  151MOL0     N20717   7.833   8.222   9.880 -0.2329  0.0358 -0.1015
  151MOL0     C20718   7.820   8.332   9.964  0.2616  0.1040 -0.3836
  151MOL0     C20719   7.892   8.314  10.069 -0.2783 -0.8251  0.2577
  151MOL0     C20720   7.920   8.411  10.173  0.2488  0.5995 -0.0863
  151MOL0     C20721   8.072   8.439  10.183  0.4419  0.6059 -0.0419
  151MOL0     C20722   8.124   8.523  10.300 -0.2860 -0.2141  0.5788
  151MOL0     C20723   8.267   8.559  10.267 -0.0987  0.7516  0.2301
  151MOL0     O20724   8.306   8.644  10.376  0.2323  0.4932 -0.5315
  151MOL0     C20725   8.423   8.720  10.366 -1.0919  0.7585  0.1173
  151MOL0     C20726   8.444   8.806  10.468  0.1429  0.6266  0.0737
  151MOL0     C20727   8.556   8.893  10.475 -0.0099  0.9576  0.0754
  151MOL0     C20728   8.558   8.984  10.593 -1.0296 -0.5848  0.6306
  151MOL0     C20729   8.655   8.899  10.365 -0.4746 -0.5720  0.4347
  151MOL0     C20730   8.773   8.993  10.362  0.5429 -0.0075 -0.4422
  151MOL0     O20731   8.810   9.043  10.474 -0.1593 -0.1700 -0.0576
  151MOL0     C20732   8.899   9.155  10.465  0.5118  0.4170 -0.2882
  151MOL0     C20733   8.852   9.281  10.513  0.2132 -0.1615  0.0643
  151MOL0     C20734   8.948   9.376  10.542  0.2899 -0.5613 -0.4997
  151MOL0     C20735   9.087   9.360  10.511  0.5242  0.3230  0.4148
  151MOL0     O20736   9.167   9.469  10.507 -0.7942 -0.5280 -0.1472
  151MOL0     C20737   9.306   9.444  10.536 -0.6315 -0.4287 -0.3278
  151MOL0     C20738   9.338   9.519  10.671 -0.6510 -0.0272  0.2072
  151MOL0     C20739   9.497   9.513  10.696 -0.1436 -0.1251 -0.0536
  151MOL0     C20740   9.549   9.652  10.723 -1.1589  0.4732  1.0881
  151MOL0     C20741   9.559   9.722  10.585 -0.2584 -0.0512 -0.1068
  151MOL0     C20742   9.631   9.857  10.606 -1.1534  0.1076  0.3658
  151MOL0     C20743   9.691   9.913  10.474  0.0924  0.7736  0.3328
  151MOL0     C20744   9.803  10.005  10.508 -0.4631 -0.1843  0.3064
  151MOL0    Cl20745   9.941   9.910  10.563 -0.5377 -0.1952  0.1126
  151MOL0     C20746   9.123   9.228  10.470  1.2740  0.0154 -0.0548
  151MOL0     C20747   9.035   9.134  10.452  0.3339  0.3107  0.3605
  151MOL0     O20748   8.818   9.023  10.252 -0.4175  1.0567  0.0162
  151MOL0     C20749   8.625   8.812  10.255 -0.4105 -0.0979 -0.6341
  151MOL0     C20750   8.509   8.729  10.260  0.7725 -0.2094  0.3338
  151MOL0     N20751   7.950   8.187  10.053 -0.6722  0.0688  0.0420
  151MOL0     N20752   7.914   8.134   9.941  0.2881  0.4370  0.2587
  151MOL0     C20753   7.677   7.348  10.033  0.7075  0.2584  0.4410
  151MOL0     C20754   7.604   7.236  10.058 -0.3424 -0.0359 -0.2301
  151MOL0     C20755   7.473   6.821  10.093  0.4073 -0.1534 -0.5231
  151MOL0     C20756   7.498   6.746   9.980 -0.9528 -0.8923  0.2599
  151MOL0     C20757   7.526   6.612   9.987 -0.3987 -0.6352 -0.2954
  151MOL0     C20758   7.516   6.548  10.109  0.1354 -0.2586 -0.6621
  151MOL0     O20759   7.513   6.416  10.120  0.3204  0.6079  0.4257
  151MOL0     C20760   7.595   6.327  10.038  0.5141 -0.8179 -0.6989
  151MOL0     C20761   7.516   6.271   9.920 -0.2595  0.1596  0.0034
  151MOL0     C20762   7.578   6.143   9.857  0.3539 -0.5620 -0.0279
  151MOL0     C20763   7.706   6.160   9.766 -0.8994  0.8043 -1.3266
  151MOL0     C20764   7.824   6.198   9.845 -1.1156 -0.5493  0.3063
  151MOL0     C20765   7.925   6.223   9.903 -0.3564  0.2232  1.3026
  151MOL0     C20766   7.478   6.625  10.222  0.6437 -0.1763  0.0104
  151MOL0     C20767   7.463   6.760  10.220  0.1258  0.7097 -0.4606
  151MOL0     C20768   7.453   6.828  10.352 -0.2371 -0.3495 -0.2682
  151MOL0     H20769   7.552   7.156   9.720 -0.1925  1.0003 -0.6107
  151MOL0     H20770   7.674   7.367   9.697  1.5150  2.7850  1.7863
  151MOL0     H20771   7.982   7.566   9.930  0.3217 -1.0375  0.1237
  151MOL0     H20772   7.887   7.519  10.065  3.1426  0.3192  0.3963
  151MOL0     H20773   7.884   7.754  10.079 -0.1966  1.6234  0.8302
  151MOL0     H20774   7.842   7.775   9.901 -0.8751  0.2924  0.4480
  151MOL0     H20775   7.615   7.675   9.958  0.8562 -0.1471 -1.7079
  151MOL0     H20776   7.661   7.713  10.126  0.2623 -1.2769 -0.0000
  151MOL0     H20777   7.532   7.893  10.037  0.5986  0.2656  0.4754
  151MOL0     H20778   7.701   7.934  10.059 -0.8245 -1.3342  1.2348
  151MOL0     H20779   7.578   7.884   9.779  0.8034  0.0983 -2.1484
  151MOL0     H20780   7.741   7.930   9.812 -0.8246 -0.7727 -1.2146
  151MOL0     H20781   7.479   8.077   9.836  0.7280 -0.6572 -0.1392
  151MOL0     H20782   7.591   8.142   9.944 -2.3116  2.9472 -2.2124
  151MOL0     H20783   7.593   8.271   9.738  0.7830  0.7113 -1.1263
  151MOL0     H20784   7.600   8.128   9.639  0.1223  0.0854  0.4180
  151MOL0     H20785   7.840   8.110   9.715  1.0558 -0.0510  0.8115
  151MOL0     H20786   7.826   8.296   9.690 -4.3647  2.9970  0.1405
  151MOL0     H20787   7.779   8.428   9.937  1.9043  0.8495 -0.3223
  151MOL0     H20788   7.878   8.366  10.263  1.1206 -0.6908 -0.3027
  151MOL0     H20789   7.860   8.502  10.161 -1.2586 -0.5782 -1.9878
  151MOL0     H20790   8.113   8.339  10.202 -1.3214 -0.1834 -0.1777
  151MOL0     H20791   8.101   8.481  10.086 -0.0001  0.9083 -0.0490
  151MOL0     H20792   8.053   8.606  10.300 -0.1644  0.0559 -2.8888
  151MOL0     H20793   8.112   8.473  10.396 -0.4960  0.9923  1.1949
  151MOL0     H20794   8.331   8.472  10.253  1.0705  1.3259  1.7511
  151MOL0     H20795   8.267   8.613  10.172 -0.0272  0.5394  0.1112
  151MOL0     H20796   8.374   8.803  10.551 -0.1857 -0.9142 -0.2168
  151MOL0     H20797   8.652   9.001  10.647 -0.5860 -1.7613  0.2525
  151MOL0     H20798   8.498   8.944  10.675 -0.8273 -0.5775  0.7836
  151MOL0     H20799   8.512   9.077  10.559  1.1076  0.7455  1.1608
  151MOL0     H20800   8.745   9.292  10.526  0.4235  0.9511  1.0526
  151MOL0     H20801   8.910   9.477  10.554  0.7783 -0.3316 -0.8609
  151MOL0     H20802   9.338   9.342  10.559 -1.5384 -0.0572  3.1654
  151MOL0     H20803   9.367   9.475  10.451 -3.4136 -0.0199 -2.3342
  151MOL0     H20804   9.307   9.624  10.670  0.9159  0.4583 -0.0594
  151MOL0     H20805   9.293   9.474  10.760  1.1621  0.2854  1.3315
  151MOL0     H20806   9.554   9.471  10.613  0.3364  0.7982 -0.2006
  151MOL0     H20807   9.514   9.447  10.781  1.4113  5.1920  4.3840
  151MOL0     H20808   9.647   9.639  10.770 -0.6502 -0.7731 -0.2339
  151MOL0     H20809   9.489   9.706  10.798  0.1288 -0.2027  2.6687
  151MOL0     H20810   9.609   9.655  10.515 -1.1408 -4.5105  3.1000
  151MOL0     H20811   9.457   9.727  10.544  0.6646 -2.2446 -3.0682
  151MOL0     H20812   9.704   9.844  10.686 -2.2291 -1.1460  1.1997
  151MOL0     H20813   9.560   9.931  10.644  2.8938  3.2519  2.5990
  151MOL0     H20814   9.613   9.975  10.429 -0.4913  1.4181  2.1251
  151MOL0     H20815   9.727   9.838  10.403  0.0368 -1.2808  2.3391
  151MOL0     H20816   9.783  10.067  10.596  2.1253 -1.5697  1.9843
  151MOL0     H20817   9.828  10.058  10.415 -1.4913 -2.7204 -1.5213
  151MOL0     H20818   9.223   9.207  10.432  2.6866  4.3605  0.6823
  151MOL0     H20819   9.080   9.037  10.433  3.1647  1.1339  2.2110
  151MOL0     H20820   8.696   8.810  10.173 -1.1143  0.5423 -1.2804
  151MOL0     H20821   8.474   8.657  10.186 -2.3303 -1.1550  2.5407
  151MOL0     H20822   7.703   7.407  10.121  2.7834  1.8211 -1.1161
  151MOL0     H20823   7.584   7.204  10.160  1.4997 -0.8583 -0.0785
  151MOL0     H20824   7.501   6.795   9.883 -0.9275  0.4801  0.9377
  151MOL0     H20825   7.555   6.554   9.901  1.0567 -0.6781  0.1938
  151MOL0     H20826   7.683   6.387  10.012 -0.3946  2.7419  3.2981
  151MOL0     H20827   7.620   6.245  10.106  1.1598  0.6626  0.9364
  151MOL0     H20828   7.480   6.338   9.842 -2.6794 -1.1184 -0.0823
  151MOL0     H20829   7.433   6.225   9.975 -0.1829  0.6534  0.5435
  151MOL0     H20830   7.600   6.076   9.941  0.7126 -1.7267 -1.0130
  151MOL0     H20831   7.502   6.107   9.788 -1.4210 -1.6225  2.3248
  151MOL0     H20832   7.680   6.247   9.706 -0.6862  0.2019 -2.3014
  151MOL0     H20833   7.733   6.072   9.709  2.3263  0.0603  1.0463
  151MOL0     H20834   8.015   6.261   9.946  1.2368 -0.9583 -0.7519
  151MOL0     H20835   7.446   6.576  10.313 -1.3240  1.5820  0.3552
  151MOL0     H20836   7.522   6.912  10.352 -2.6910  1.7896 -0.5686
  151MOL0     H20837   7.351   6.857  10.381 -0.3370  0.3856 -1.2899
  151MOL0     H20838   7.480   6.766  10.438 -2.1502 -0.5527  0.2464
  152MOL0     O20839   3.545   8.499  10.737  0.5247 -1.2793  0.3139
  152MOL0     C20840   3.484   8.603  10.773 -0.1450  0.3456  0.5395
  152MOL0     O20841   3.507   8.728  10.729  0.0131  0.1152 -0.8125
  152MOL0     C20842   3.608   8.766  10.648 -0.7974 -0.4103 -0.5452
  152MOL0     C20843   3.608   8.904  10.631 -0.2548  0.6314 -0.1559
  152MOL0     C20844   3.708   8.961  10.545  0.3520  0.3221  0.3831
  152MOL0     C20845   3.799   8.887  10.471 -0.8314  0.9355 -0.1721
  152MOL0     O20846   3.882   8.956  10.389  0.0607  1.2539  0.6853
  152MOL0     C20847   3.944   8.880  10.292  0.2384 -0.2790  0.2480
  152MOL0     C20848   4.035   8.970  10.226 -0.1833 -0.1631  0.0065
  152MOL0     C20849   4.085   8.918  10.096 -0.9471  0.5889  1.2104
  152MOL0     C20850   4.206   8.998  10.040  0.0767  0.0780  0.3717
  152MOL0     C20851   4.269   8.914   9.928  0.2153 -0.5601 -0.1466
  152MOL0     C20852   4.174   8.859   9.819 -0.1040  0.5944 -0.2605
  152MOL0     C20853   4.258   8.772   9.722  0.5247  0.1272  0.5019
  152MOL0     C20854   4.168   8.697   9.626  0.6324  0.3270 -0.4026
  152MOL0     N20855   4.228   8.568   9.584 -0.0165 -0.1110  0.3301
  152MOL0     C20856   4.337   8.548   9.501  0.3770  0.6860  0.9412
  152MOL0     C20857   4.341   8.405   9.480  0.4088 -0.0068  0.2046
  152MOL0     C20858   4.453   8.334   9.404 -0.8152  0.0111  0.2805
  152MOL0     C20859   4.536   8.430   9.318  0.4866 -0.1333 -0.2787
  152MOL0     C20860   4.647   8.352   9.237 -0.2644 -0.0667 -0.0197
  152MOL0     C20861   4.720   8.464   9.165  0.3552  0.3868  0.1457
  152MOL0     O20862   4.802   8.410   9.059 -0.2345  0.1468 -0.4412
  152MOL0     C20863   4.864   8.512   8.988  0.4436 -0.1813 -0.6774
  152MOL0     C20864   4.967   8.462   8.914  0.3104 -0.5422 -0.1967
  152MOL0     C20865   5.057   8.543   8.842  0.1992 -1.0763  0.0095
  152MOL0     C20866   5.159   8.474   8.761 -0.0861 -0.2872  0.0872
  152MOL0     C20867   5.029   8.685   8.833 -0.1501 -0.5820 -0.4935
  152MOL0     C20868   5.099   8.788   8.755  0.6117  0.9260 -0.7231
  152MOL0     O20869   5.029   8.890   8.695 -0.0647  0.3442 -0.3326
  152MOL0     C20870   5.094   8.990   8.619 -0.2743 -0.1530  0.6007
  152MOL0     C20871   5.209   9.041   8.668 -0.8129 -0.2044  0.2662
  152MOL0     C20872   5.275   9.145   8.592 -0.1367  0.3886 -1.0022
  152MOL0     C20873   5.228   9.178   8.463 -0.1610  0.6126 -0.0537
  152MOL0     O20874   5.293   9.269   8.381  0.2563 -0.7117 -0.0784
  152MOL0     C20875   5.430   9.282   8.412 -0.0290 -0.0892  0.0415
  152MOL0     C20876   5.508   9.362   8.301  0.2331  0.2971 -0.1487
  152MOL0     C20877   5.655   9.371   8.307 -1.3568  0.3347  0.3183
  152MOL0     C20878   5.715   9.446   8.180  0.4449  0.1479  0.0332
  152MOL0     C20879   5.868   9.465   8.201  0.9696 -1.0228  0.3639
  152MOL0     C20880   5.919   9.578   8.099  0.0542  0.3317  0.9278
  152MOL0     C20881   6.070   9.606   8.111 -0.2294 -0.0771 -0.4679
  152MOL0     C20882   6.123   9.686   7.998 -0.3690  0.0347  0.4657
  152MOL0    Cl20883   6.039   9.843   7.988  0.3835 -0.6227 -0.7598
  152MOL0     C20884   5.118   9.108   8.409  0.4676 -0.2865 -0.1726
  152MOL0     C20885   5.051   9.026   8.496  1.2437 -0.3732 -0.3482
  152MOL0     O20886   5.220   8.758   8.732  0.4187  0.1953  0.6039
  152MOL0     C20887   4.921   8.739   8.911  0.1265 -0.0996 -0.7066
  152MOL0     C20888   4.842   8.656   8.986 -0.9698  1.4264 -1.2694
  152MOL0     N20889   4.237   8.353   9.558 -0.5348  0.3619  0.9803
  152MOL0     N20890   4.176   8.447   9.621 -0.5164 -0.3229 -0.1422
  152MOL0     C20891   3.795   8.749  10.487 -0.8254  0.9028  0.3042
  152MOL0     C20892   3.697   8.691  10.572  0.3044  0.2486  1.1521
  152MOL0     C20893   3.376   8.573  10.872  0.1866 -0.0361 -0.1129
  152MOL0     C20894   3.267   8.655  10.879  0.6209 -0.3124 -0.5475
  152MOL0     C20895   3.153   8.634  10.957 -0.2813 -0.8059 -0.3676
  152MOL0     C20896   3.156   8.520  11.041  0.0695 -0.5355  1.1040
  152MOL0     O20897   3.069   8.501  11.135  0.4708 -0.5944 -0.0259
  152MOL0     C20898   2.956   8.429  11.092 -0.6305 -0.5595 -0.6176
  152MOL0     C20899   2.887   8.385  11.225  0.1724 -0.6814 -0.1421
  152MOL0     C20900   2.764   8.471  11.262 -0.5705 -0.2712 -0.3055
  152MOL0     C20901   2.702   8.434  11.395 -0.3210  0.5457 -0.4590
  152MOL0     C20902   2.638   8.300  11.378 -0.9489 -0.0614 -0.4092
  152MOL0     C20903   2.580   8.202  11.340 -0.7937  1.1139  1.4364
  152MOL0     C20904   3.264   8.431  11.040  0.2328  0.3205 -0.8901
  152MOL0     C20905   3.374   8.456  10.953 -0.4270 -0.9493  0.7560
  152MOL0     C20906   3.486   8.357  10.962  0.2930 -0.3485  0.6071
  152MOL0     H20907   3.533   8.966  10.679 -0.8661  1.3538 -1.9346
  152MOL0     H20908   3.717   9.069  10.547  2.3469  0.2402 -1.0757
  152MOL0     H20909   3.862   8.853  10.225  0.4109  0.6384 -0.3438
  152MOL0     H20910   3.999   8.793  10.329 -3.8729 -2.7687  1.1724
  152MOL0     H20911   4.003   9.067  10.188 -2.0979 -1.9863 -3.4962
  152MOL0     H20912   4.122   8.975  10.293  0.1596  1.9585 -0.5308
  152MOL0     H20913   4.135   8.822  10.115 -2.4561 -0.8665 -1.5279
  152MOL0     H20914   4.011   8.908  10.016 -0.5246  2.4048  0.5568
  152MOL0     H20915   4.171   9.098  10.011 -0.7250  0.5900  2.9047
  152MOL0     H20916   4.287   9.022  10.109  0.4011 -0.7151  0.2754
  152MOL0     H20917   4.313   8.826   9.975 -2.2539  0.0327  3.7202
  152MOL0     H20918   4.346   8.977   9.884  0.1331  0.6157  1.3188
  152MOL0     H20919   4.090   8.794   9.844 -2.4875  2.5320 -2.6657
  152MOL0     H20920   4.123   8.935   9.760 -1.7440 -0.2053  0.0899
  152MOL0     H20921   4.327   8.703   9.772 -2.0298 -2.8551  0.1906
  152MOL0     H20922   4.324   8.841   9.668 -1.6621  1.6026 -0.4169
  152MOL0     H20923   4.069   8.679   9.670  0.4476  1.6280 -0.2545
  152MOL0     H20924   4.163   8.757   9.535  0.9373  2.4758  0.9260
  152MOL0     H20925   4.387   8.630   9.451 -1.5956  1.2274 -0.2730
  152MOL0     H20926   4.428   8.250   9.339  1.3686 -0.4072 -0.1112
  152MOL0     H20927   4.522   8.292   9.478 -0.6741 -0.5372 -0.1635
  152MOL0     H20928   4.472   8.487   9.250 -2.8818 -0.9894  1.9343
  152MOL0     H20929   4.588   8.498   9.386 -2.2390 -0.6315  2.5201
  152MOL0     H20930   4.723   8.310   9.303  0.7540 -0.8461 -1.6345
  152MOL0     H20931   4.613   8.278   9.165  0.3820  0.5704 -1.0110
  152MOL0     H20932   4.641   8.525   9.120 -1.3051  0.0870  2.4553
  152MOL0     H20933   4.783   8.512   9.240 -0.9856 -0.3156  1.7634
  152MOL0     H20934   4.983   8.354   8.915 -0.9297 -0.7261  0.3669
  152MOL0     H20935   5.159   8.499   8.655 -0.3663 -2.4566 -0.4871
  152MOL0     H20936   5.152   8.365   8.769 -4.1861 -0.1352  0.4888
  152MOL0     H20937   5.256   8.516   8.788  0.4239 -0.1544 -1.7801
  152MOL0     H20938   5.237   9.005   8.766 -1.3660  1.0731  0.9200
  152MOL0     H20939   5.371   9.185   8.623 -0.2871 -1.8113  2.9550
  152MOL0     H20940   5.435   9.334   8.508 -1.0408  0.1099 -0.0104
  152MOL0     H20941   5.476   9.184   8.423 -1.3822 -0.8541 -0.8729
  152MOL0     H20942   5.496   9.301   8.211  4.0397 -1.5712  0.4214
  152MOL0     H20943   5.471   9.466   8.301  0.6496  0.4459 -0.3575
  152MOL0     H20944   5.685   9.267   8.322 -0.4987  0.1450 -2.1635
  152MOL0     H20945   5.678   9.425   8.400 -1.0500 -0.5948  0.7916
  152MOL0     H20946   5.668   9.544   8.170  0.6097  0.1643 -0.6233
  152MOL0     H20947   5.694   9.394   8.086  4.5719  0.6976 -1.3895
  152MOL0     H20948   5.887   9.498   8.303 -0.2349 -0.2939  0.3734
  152MOL0     H20949   5.933   9.380   8.178  0.4198 -2.3282  3.2885
  152MOL0     H20950   5.861   9.669   8.117  1.0886  1.4342 -1.0149
  152MOL0     H20951   5.894   9.542   7.999 -2.7187  3.1042  0.4520
  152MOL0     H20952   6.128   9.513   8.122 -0.4887 -0.2737 -0.7529
  152MOL0     H20953   6.099   9.652   8.206  0.7109 -2.1235  0.2968
  152MOL0     H20954   6.098   9.637   7.904  0.7555 -0.3023  0.3325
  152MOL0     H20955   6.230   9.705   8.014 -0.1402  1.2941 -2.0681
  152MOL0     H20956   5.092   9.131   8.306  2.4408 -0.3855 -0.7412
  152MOL0     H20957   4.959   8.984   8.455  2.3192 -0.4246 -2.8849
  152MOL0     H20958   4.905   8.846   8.921  1.0049 -0.1505  2.6647
  152MOL0     H20959   4.778   8.712   9.053  0.3827  1.2164  0.2703
  152MOL0     H20960   3.852   8.672  10.437 -2.8283 -0.3400 -0.2051
  152MOL0     H20961   3.705   8.584  10.590 -1.7433  0.0136  0.8586
  152MOL0     H20962   3.269   8.752  10.830 -0.7609 -0.1507 -0.3350
  152MOL0     H20963   3.071   8.705  10.957  0.5269  0.1486 -0.8874
  152MOL0     H20964   2.895   8.490  11.025 -0.0727  0.1995 -0.4430
  152MOL0     H20965   2.994   8.342  11.038 -0.8268 -0.6520 -0.6095
  152MOL0     H20966   2.948   8.386  11.315 -3.3285 -0.7820  2.4313
  152MOL0     H20967   2.853   8.281  11.218  1.7266 -1.3232  1.1904
  152MOL0     H20968   2.807   8.572  11.261  1.2978 -0.9095 -4.0528
  152MOL0     H20969   2.688   8.469  11.183 -1.7503  1.2129  0.7337
  152MOL0     H20970   2.627   8.504  11.433 -0.7383 -1.4729  2.9347
  152MOL0     H20971   2.770   8.429  11.481 -0.2278  3.8758 -0.2339
  152MOL0     H20972   2.528   8.123  11.290  3.0663 -0.5370 -0.3945
  152MOL0     H20973   3.262   8.352  11.114  1.4922  0.9407 -0.1729
  152MOL0     H20974   3.477   8.289  10.877  0.2792  0.3675  0.0253
  152MOL0     H20975   3.581   8.411  10.950  0.1689 -0.4118 -0.8139
  152MOL0     H20976   3.476   8.307  11.059 -3.5820 -0.1389  0.4747
  153MOL0     O20977   4.169   2.117   2.121  0.1499 -0.9767 -0.1648
  153MOL0     C20978   4.138   2.213   2.047  0.9649 -0.0250 -0.1433
  153MOL0     O20979   4.013   2.248   2.023 -0.3917  0.1054  0.7313
  153MOL0     C20980   3.904   2.194   2.085  0.5109  1.0197  0.3919
  153MOL0     C20981   3.871   2.058   2.061 -1.3881  0.2716 -0.3633
  153MOL0     C20982   3.769   1.995   2.118  0.6714  0.0059 -0.4426
  153MOL0     C20983   3.685   2.062   2.203 -0.2776 -0.1349 -0.2406
  153MOL0     O20984   3.614   1.990   2.294  0.3701 -0.2678 -0.4559
  153MOL0     C20985   3.493   1.930   2.240 -0.2472  0.1961 -0.0851
  153MOL0     C20986   3.388   1.977   2.346 -0.2478  0.1794  0.3267
  153MOL0     C20987   3.244   1.959   2.302 -0.1395 -0.0899  0.4184
  153MOL0     C20988   3.146   2.012   2.407  0.6833 -0.0190  0.0908
  153MOL0     C20989   3.157   1.964   2.550 -0.8995  0.3760  1.3303
  153MOL0     C20990   3.070   2.053   2.633 -0.2601  0.1089 -0.9261
  153MOL0     C20991   2.946   1.993   2.705 -0.2175  0.2929 -0.4259
  153MOL0     C20992   2.832   2.083   2.758 -0.5417 -0.5474  0.5622
  153MOL0     N20993   2.884   2.181   2.854  0.1719 -0.0575 -0.5159
  153MOL0     C20994   2.947   2.155   2.973 -0.8335 -0.7629 -0.3648
  153MOL0     C20995   2.921   2.267   3.049 -1.0067  0.4650 -0.9165
  153MOL0     C20996   2.951   2.277   3.202  0.3034 -0.2079  0.8551
  153MOL0     C20997   3.084   2.342   3.240  0.6563  0.7424 -0.2899
  153MOL0     C20998   3.195   2.244   3.240 -0.0509  0.5675 -0.2555
  153MOL0     C20999   3.329   2.310   3.241  0.0253  0.5496 -0.0405
  153MOL0     O21000   3.341   2.391   3.362  0.2980 -0.7551 -0.6389
  153MOL0     C21001   3.453   2.472   3.375  0.2442  0.3451  0.1823
  153MOL0     C21002   3.573   2.455   3.311  0.3698 -0.0873  0.5090
  153MOL0     C21003   3.680   2.535   3.348  0.0133 -0.5875  0.0715
  153MOL0     C21004   3.814   2.496   3.285 -0.9904  0.2006  1.1332
  153MOL0     C21005   3.659   2.653   3.431  0.3447  0.3270  0.5950
  153MOL0     C21006   3.775   2.739   3.460 -0.6612 -0.3422 -1.1558
  153MOL0     O21007   3.741   2.837   3.552  0.8983 -0.1980  0.1738
  153MOL0     C21008   3.836   2.920   3.600 -0.1916  0.1919  0.6335
  153MOL0     C21009   3.904   3.009   3.520 -0.1126  0.0726  0.6770
  153MOL0     C21010   4.002   3.081   3.582  0.4042 -0.5666 -0.1440
  153MOL0     C21011   4.045   3.057   3.713  0.7443 -0.2192  0.6084
  153MOL0     O21012   4.145   3.134   3.768 -0.7392  0.7246 -0.1893
  153MOL0     C21013   4.221   3.225   3.688  0.4948 -0.1998 -0.2217
  153MOL0     C21014   4.327   3.306   3.776  0.7921  0.0318  0.1743
  153MOL0     C21015   4.265   3.358   3.903 -0.6881  0.3550 -0.0501
  153MOL0     C21016   4.363   3.451   3.983  1.8326  0.1647  1.1079
  153MOL0     C21017   4.473   3.368   4.045 -0.1774 -0.0316  0.9976
  153MOL0     C21018   4.577   3.462   4.102 -0.1958 -0.2296  0.3460
  153MOL0     C21019   4.694   3.395   4.178  0.6453  0.1056  0.1450
  153MOL0     C21020   4.788   3.320   4.094  0.1428  0.5789 -0.6499
  153MOL0    Cl21021   4.835   3.384   3.942  0.3724  0.4684 -0.0075
  153MOL0     C21022   3.970   2.969   3.797  0.7344  0.4630 -0.2751
  153MOL0     C21023   3.865   2.900   3.734 -0.0660 -0.6690  0.3217
  153MOL0     O21024   3.878   2.736   3.401 -0.1332 -0.0094 -0.6184
  153MOL0     C21025   3.535   2.666   3.496  0.3511  0.2975  0.4383
  153MOL0     C21026   3.439   2.570   3.470 -0.0063  0.4159 -0.5085
  153MOL0     N21027   2.861   2.367   2.976  0.9979  0.3007 -0.7188
  153MOL0     N21028   2.840   2.311   2.861  0.1331 -0.5334 -0.1358
  153MOL0     C21029   3.708   2.197   2.219  0.3938 -0.0257 -0.1706
  153MOL0     C21030   3.820   2.268   2.174 -0.2797 -0.1278 -0.4120
  153MOL0     C21031   4.243   2.290   1.986 -0.5700 -0.1712 -0.3256
  153MOL0     C21032   4.364   2.293   2.050 -0.4955  0.5818 -0.3607
  153MOL0     C21033   4.472   2.371   2.007  0.7081 -0.1602  0.3696
  153MOL0     C21034   4.471   2.438   1.881  0.4621  0.0454  0.2579
  153MOL0     O21035   4.570   2.516   1.832 -0.1116  0.4826  0.8282
  153MOL0     C21036   4.593   2.637   1.907 -0.1231  0.7594 -0.6229
  153MOL0     C21037   4.715   2.626   1.998 -0.0884 -0.1765 -0.6488
  153MOL0     C21038   4.842   2.637   1.916 -0.7972  1.0198  0.3214
  153MOL0     C21039   4.861   2.534   1.802  0.4377 -0.1274 -0.9136
  153MOL0     C21040   4.874   2.398   1.850  0.5028 -0.2603  0.4071
  153MOL0     C21041   4.861   2.290   1.911 -1.0761 -0.6910  0.8171
  153MOL0     C21042   4.352   2.433   1.812  0.3078  0.4463 -0.7568
  153MOL0     C21043   4.240   2.359   1.864 -0.6860  0.1338  0.2418
  153MOL0     C21044   4.121   2.346   1.776 -0.2913  0.1039 -0.2608
  153MOL0     H21045   3.941   2.012   1.992 -1.6193  1.2638 -1.2861
  153MOL0     H21046   3.752   1.891   2.092  0.7796 -0.1646  0.1449
  153MOL0     H21047   3.504   1.821   2.233 -0.3026  0.1522  0.5112
  153MOL0     H21048   3.471   1.972   2.141  1.9419  0.3077 -0.5730
  153MOL0     H21049   3.393   1.902   2.426 -2.4157 -0.7990 -0.3795
  153MOL0     H21050   3.410   2.081   2.372  0.3994  0.0721  0.2310
  153MOL0     H21051   3.234   2.017   2.210 -2.2394  1.0359  1.2914
  153MOL0     H21052   3.220   1.856   2.275  0.0363 -0.4620  1.6280
  153MOL0     H21053   3.152   2.122   2.411 -0.6920  0.0739 -0.0291
  153MOL0     H21054   3.042   1.999   2.377  0.6781 -0.4581  0.3084
  153MOL0     H21055   3.262   1.961   2.581 -0.0360  0.6090 -1.3174
  153MOL0     H21056   3.133   1.857   2.551  3.0795 -0.7526 -1.1792
  153MOL0     H21057   3.141   2.080   2.712  0.3665 -1.3857 -0.9507
  153MOL0     H21058   3.039   2.144   2.580 -1.3841 -0.7467 -1.7911
  153MOL0     H21059   2.991   1.928   2.781 -2.3891  1.0623  1.6020
  153MOL0     H21060   2.907   1.920   2.632  2.0305 -0.5959 -0.8306
  153MOL0     H21061   2.787   2.135   2.673  1.4788  0.2229 -0.0917
  153MOL0     H21062   2.753   2.021   2.802 -0.2635 -2.7826 -1.8034
  153MOL0     H21063   2.991   2.060   2.999 -0.7239 -0.1759  1.7965
  153MOL0     H21064   2.952   2.171   3.232  0.4257  0.4783  3.5777
  153MOL0     H21065   2.877   2.334   3.258  0.9732  0.1993  1.3368
  153MOL0     H21066   3.096   2.423   3.168  0.1957 -0.0918 -1.3404
  153MOL0     H21067   3.082   2.387   3.339 -0.5873  0.1592 -0.0157
  153MOL0     H21068   3.186   2.166   3.316 -3.7988 -0.4349 -1.4940
  153MOL0     H21069   3.189   2.183   3.149  6.0607 -0.6560 -0.2721
  153MOL0     H21070   3.408   2.234   3.232 -1.5930 -2.0116  4.1803
  153MOL0     H21071   3.340   2.388   3.166  0.1108 -0.9368 -1.6532
  153MOL0     H21072   3.581   2.366   3.249 -1.6201 -0.1459  0.2722
  153MOL0     H21073   3.846   2.563   3.205  0.0754 -0.3489  1.0815
  153MOL0     H21074   3.793   2.403   3.231 -2.5554  0.2942  1.5284
  153MOL0     H21075   3.893   2.493   3.361  0.9972 -0.5749 -0.8535
  153MOL0     H21076   3.888   3.015   3.413  2.0788 -0.3002  0.2745
  153MOL0     H21077   4.072   3.136   3.520  1.7791  0.2603  1.9868
  153MOL0     H21078   4.255   3.170   3.600  0.0356 -0.5033 -0.2162
  153MOL0     H21079   4.147   3.300   3.658 -0.3184 -0.5897  0.7369
  153MOL0     H21080   4.407   3.232   3.783  0.7157 -0.2578 -1.6315
  153MOL0     H21081   4.369   3.395   3.729  4.2379 -1.6885 -0.2786
  153MOL0     H21082   4.233   3.277   3.970  2.1503 -0.0832  0.8824
  153MOL0     H21083   4.175   3.415   3.877 -1.3873  0.8181  2.9959
  153MOL0     H21084   4.304   3.493   4.065  0.4516  1.0844 -0.2983
  153MOL0     H21085   4.402   3.519   3.906  0.4979 -0.4556 -0.1624
  153MOL0     H21086   4.430   3.306   4.124 -2.7010 -0.3474 -0.5092
  153MOL0     H21087   4.519   3.304   3.969  3.0771  3.3151 -0.1425
  153MOL0     H21088   4.529   3.520   4.181  0.9681 -0.5375  1.3032
  153MOL0     H21089   4.624   3.528   4.028  2.4594  0.6290  2.6235
  153MOL0     H21090   4.651   3.319   4.244  0.4796  0.3137  0.2774
  153MOL0     H21091   4.745   3.473   4.235 -1.9024  0.6654  1.8430
  153MOL0     H21092   4.766   3.214   4.080 -1.2416  0.7990 -0.2374
  153MOL0     H21093   4.876   3.305   4.157  0.7673 -0.5184 -1.7187
  153MOL0     H21094   3.986   2.940   3.900 -2.2627 -2.4823 -0.4304
  153MOL0     H21095   3.807   2.825   3.786 -0.6522 -1.1136 -0.9277
  153MOL0     H21096   3.525   2.738   3.577 -1.3506 -0.0576  0.5938
  153MOL0     H21097   3.343   2.581   3.519  0.1580  0.9427 -0.3095
  153MOL0     H21098   3.638   2.258   2.275  1.9419  1.3482  0.3695
  153MOL0     H21099   3.855   2.368   2.200  0.8514 -1.0337  1.7619
  153MOL0     H21100   4.373   2.239   2.144  0.0303 -0.6950 -1.1134
  153MOL0     H21101   4.559   2.350   2.068  1.5142 -3.1648 -1.5908
  153MOL0     H21102   4.610   2.722   1.840 -0.9042  1.3396 -0.0970
  153MOL0     H21103   4.509   2.652   1.975  1.3742  1.8278  1.0730
  153MOL0     H21104   4.724   2.532   2.054  2.0877 -0.3060 -1.1289
  153MOL0     H21105   4.714   2.707   2.072 -1.8343 -1.4113  0.7588
  153MOL0     H21106   4.870   2.734   1.874  0.5931 -0.2661 -1.9255
  153MOL0     H21107   4.922   2.609   1.985  0.3890  0.3673 -1.2640
  153MOL0     H21108   4.953   2.555   1.748  0.3711 -1.5625 -1.6272
  153MOL0     H21109   4.782   2.540   1.726  1.8882 -1.9360 -2.6609
  153MOL0     H21110   4.852   2.195   1.959  1.6460 -2.0139 -1.0323
  153MOL0     H21111   4.348   2.480   1.714  0.5136  0.3692 -0.8017
  153MOL0     H21112   4.043   2.411   1.816 -0.6151  1.0423 -2.3015
  153MOL0     H21113   4.145   2.376   1.674 -0.4059  1.0930 -0.0108
  153MOL0     H21114   4.078   2.245   1.779  0.8399 -0.3956  2.4827
  154MOL0     O21115  10.029   8.701   4.216 -0.3202 -0.2049  0.3635
  154MOL0     C21116   9.931   8.659   4.275  0.4480  0.4440 -0.1125
  154MOL0     O21117   9.904   8.523   4.300  0.8821  0.8177 -0.3979
  154MOL0     C21118  10.005   8.430   4.278 -0.5439 -0.1552 -0.5491
  154MOL0     C21119  10.110   8.416   4.376 -0.3160  0.8412 -0.0906
  154MOL0     C21120  10.221   8.340   4.335 -0.2396  0.4705 -0.0963
  154MOL0     C21121  10.223   8.273   4.214 -0.2805  0.6643  0.5052
  154MOL0     O21122  10.349   8.207   4.197 -0.2917 -0.5595  0.1916
  154MOL0     C21123  10.358   8.148   4.060  0.2199  0.1823 -0.1416
  154MOL0     C21124  10.503   8.083   4.030  0.8827 -0.0914 -0.7341
  154MOL0     C21125  10.622   8.168   4.071  0.4397  0.2293  0.3453
  154MOL0     C21126  10.749   8.087   4.068  0.4063 -0.1425 -0.2237
  154MOL0     C21127  10.858   8.172   4.127  1.1074  0.2508  0.6178
  154MOL0     C21128  10.984   8.096   4.080 -0.5960  0.1441  0.5702
  154MOL0     C21129  11.001   7.943   4.125 -0.1710  0.5141 -0.5532
  154MOL0     C21130  11.000   7.928   4.277 -0.2645 -0.5352 -0.1044
  154MOL0     N21131  11.121   7.981   4.345  0.0092 -0.1821 -0.9136
  154MOL0     C21132  11.223   7.908   4.401 -0.0901 -0.8192  0.0086
  154MOL0     C21133  11.314   8.002   4.443 -0.1886  0.1649  0.6494
  154MOL0     C21134  11.436   7.964   4.514 -1.0945 -0.6304  0.0879
  154MOL0     C21135  11.504   8.084   4.568  0.6499 -0.2085  0.1996
  154MOL0     C21136  11.636   8.068   4.620 -0.6228 -0.1491 -0.1448
  154MOL0     C21137  11.691   8.196   4.698 -0.6904  0.4006  0.4027
  154MOL0     O21138  11.816   8.159   4.766 -0.3083 -0.3439  0.3569
  154MOL0     C21139  11.877   8.250   4.853 -0.1131  0.3420 -0.3361
  154MOL0     C21140  11.813   8.373   4.878  0.3720  0.4966 -0.0496
  154MOL0     C21141  11.875   8.457   4.974  0.3608  0.1040  0.0172
  154MOL0     C21142  11.797   8.594   5.001 -0.2755 -0.3588 -0.0087
  154MOL0     C21143  11.991   8.423   5.042 -1.0960 -0.1216 -0.5849
  154MOL0     C21144  12.062   8.508   5.151 -0.4309 -0.2733 -0.3456
  154MOL0     O21145  12.174   8.456   5.208  0.5252  0.0678 -0.2107
  154MOL0     C21146  12.223   8.501   5.322 -0.0706  0.1115 -0.0352
  154MOL0     C21147  12.286   8.622   5.320  0.8554 -0.4552  0.4074
  154MOL0     C21148  12.370   8.661   5.423 -0.2544 -0.6242 -0.1257
  154MOL0     C21149  12.374   8.578   5.537  0.3809  0.4654 -0.2481
  154MOL0     O21150  12.445   8.610   5.653 -0.1238 -0.6708  0.6907
  154MOL0     C21151  12.390   8.595   5.784  0.0291  0.1324  0.0449
  154MOL0     C21152  12.441   8.695   5.881 -0.1403  0.1951 -1.3462
  154MOL0     C21153  12.413   8.833   5.819  0.6919 -0.0471 -0.0559
  154MOL0     C21154  12.436   8.944   5.922 -0.4861  0.1553 -0.1173
  154MOL0     C21155  12.583   8.944   5.980  0.8577 -0.2070  0.8031
  154MOL0     C21156  12.613   9.078   6.049 -0.2868  0.9693 -0.5059
  154MOL0     C21157  12.743   9.058   6.137 -0.6881  0.0583  0.8224
  154MOL0     C21158  12.811   9.189   6.169  0.5549  0.1349 -0.8873
  154MOL0    Cl21159  12.711   9.280   6.278  0.0962 -0.4619 -0.4100
  154MOL0     C21160  12.310   8.457   5.542 -0.2002  0.8748  0.1957
  154MOL0     C21161  12.243   8.413   5.432 -0.2672  1.0457  0.8399
  154MOL0     O21162  11.999   8.608   5.189 -0.1177  0.2424  0.0274
  154MOL0     C21163  12.044   8.293   5.017 -0.1053 -0.3775 -0.1680
  154MOL0     C21164  11.987   8.209   4.925 -0.7072 -0.8926 -0.2721
  154MOL0     N21165  11.261   8.128   4.417  0.1357  0.3770 -0.3462
  154MOL0     N21166  11.141   8.112   4.371  0.3190 -0.1919 -0.2708
  154MOL0     C21167  10.113   8.269   4.128 -0.9841  0.3801 -0.2126
  154MOL0     C21168  10.005   8.353   4.163 -0.1821 -0.2739 -0.0832
  154MOL0     C21169   9.825   8.760   4.310  1.1276  0.7755  0.6065
  154MOL0     C21170   9.863   8.894   4.300  0.8554  0.6555  0.9102
  154MOL0     C21171   9.776   8.997   4.335  0.2577 -0.4073  0.7867
  154MOL0     C21172   9.649   8.965   4.383  1.1540 -0.0102 -0.3582
  154MOL0     O21173   9.560   9.058   4.411  0.0317 -0.1847  0.5603
  154MOL0     C21174   9.590   9.196   4.381 -0.8310  0.4081  0.0716
  154MOL0     C21175   9.497   9.301   4.440 -0.1027  0.8226 -0.6023
  154MOL0     C21176   9.541   9.440   4.424 -0.9843 -0.1026  0.7894
  154MOL0     C21177   9.429   9.535   4.459 -0.0332  0.1117  0.3271
  154MOL0     C21178   9.314   9.532   4.372  0.4673 -1.1732  0.6444
  154MOL0     C21179   9.205   9.516   4.319 -0.4894 -0.1540  0.6537
  154MOL0     C21180   9.610   8.836   4.399  0.1907  0.2867 -1.2326
  154MOL0     C21181   9.698   8.724   4.363  0.2123 -0.7523  0.3448
  154MOL0     C21182   9.634   8.590   4.376 -0.2046 -0.6520  0.3728
  154MOL0     H21183  10.116   8.473   4.468  3.3232  2.2556 -1.0511
  154MOL0     H21184  10.309   8.338   4.398  1.7017  2.3133 -2.5351
  154MOL0     H21185  10.322   8.210   3.978  0.4796 -1.8261 -1.8763
  154MOL0     H21186  10.294   8.059   4.051  0.2842 -0.1748  2.3062
  154MOL0     H21187  10.502   7.989   4.085 -0.8611  1.1199  1.4865
  154MOL0     H21188  10.515   8.058   3.924  1.4223  2.1687 -1.2681
  154MOL0     H21189  10.637   8.257   4.009 -0.2306 -0.4554 -0.8344
  154MOL0     H21190  10.605   8.209   4.171 -1.3118  0.8468 -0.1704
  154MOL0     H21191  10.735   7.995   4.125 -1.7789  0.6802  0.6801
  154MOL0     H21192  10.775   8.062   3.965 -0.2544 -1.8049 -0.0117
  154MOL0     H21193  10.849   8.192   4.234 -2.3815  2.8072  0.0310
  154MOL0     H21194  10.861   8.273   4.085  1.0377 -0.5064 -1.2816
  154MOL0     H21195  11.001   8.105   3.972  1.2209  0.0485  0.8224
  154MOL0     H21196  11.060   8.162   4.120 -0.6247  0.2433  0.4628
  154MOL0     H21197  11.092   7.902   4.082  0.5235  0.7811  0.6273
  154MOL0     H21198  10.920   7.876   4.093 -0.6243 -0.3199  2.0998
  154MOL0     H21199  10.905   7.957   4.324 -0.6365 -0.6883 -0.7326
  154MOL0     H21200  11.019   7.823   4.303  1.5336  0.4227  2.8370
  154MOL0     H21201  11.233   7.800   4.410  1.2103 -0.7408 -0.3398
  154MOL0     H21202  11.507   7.926   4.439  0.4198 -1.6663  1.9391
  154MOL0     H21203  11.426   7.887   4.591  2.2069  1.8711  3.3869
  154MOL0     H21204  11.516   8.165   4.496 -0.2486  0.2880  0.6039
  154MOL0     H21205  11.444   8.123   4.651 -2.5054  1.7848 -2.7437
  154MOL0     H21206  11.647   7.983   4.688  1.3849 -0.0449 -0.2722
  154MOL0     H21207  11.702   8.047   4.535 -2.1470 -1.9768 -0.9576
  154MOL0     H21208  11.723   8.277   4.632  1.6757 -0.2510  0.6620
  154MOL0     H21209  11.604   8.232   4.754 -1.1276  0.3372 -0.2254
  154MOL0     H21210  11.728   8.400   4.817 -0.0538 -3.9227 -1.7803
  154MOL0     H21211  11.743   8.585   5.096 -0.7289 -0.0199 -0.2277
  154MOL0     H21212  11.725   8.618   4.922 -0.6995  1.8791  0.9814
  154MOL0     H21213  11.865   8.680   5.010 -2.0403  1.4276 -2.3492
  154MOL0     H21214  12.279   8.683   5.231  0.3458 -2.7000 -1.1604
  154MOL0     H21215  12.413   8.761   5.422  1.1845 -1.0996  2.9792
  154MOL0     H21216  12.281   8.595   5.782  0.0365  0.3393 -0.3738
  154MOL0     H21217  12.425   8.497   5.817  0.2601  0.1400 -0.1764
  154MOL0     H21218  12.393   8.679   5.978  2.1269 -0.5999 -0.2777
  154MOL0     H21219  12.549   8.682   5.890 -0.1881  0.1420 -0.8077
  154MOL0     H21220  12.311   8.851   5.782  0.4498  2.1354  1.5225
  154MOL0     H21221  12.481   8.837   5.733 -2.2987 -2.3164 -2.7909
  154MOL0     H21222  12.359   8.941   6.000 -3.2149  2.0650 -2.4946
  154MOL0     H21223  12.419   9.041   5.875 -0.6450  0.8431  1.3119
  154MOL0     H21224  12.573   8.870   6.060 -3.5181 -0.7062  0.0057
  154MOL0     H21225  12.659   8.926   5.903 -0.6707  0.3736 -0.9161
  154MOL0     H21226  12.535   9.096   6.124  0.5894 -0.8316  0.9245
  154MOL0     H21227  12.613   9.163   5.981 -0.2693 -1.0701 -3.2266
  154MOL0     H21228  12.820   9.014   6.073 -1.3613  2.9553 -2.3093
  154MOL0     H21229  12.724   9.011   6.234 -2.3447 -0.6846  0.1725
  154MOL0     H21230  12.803   9.247   6.077 -3.7794 -2.2244 -2.2855
  154MOL0     H21231  12.914   9.187   6.204  0.8711 -0.6981 -1.8456
  154MOL0     H21232  12.319   8.408   5.639  0.4927  2.0049  0.7270
  154MOL0     H21233  12.217   8.308   5.426 -1.8465  1.4692 -0.8380
  154MOL0     H21234  12.129   8.271   5.082 -1.8869  0.0355  2.4353
  154MOL0     H21235  12.043   8.121   4.894  0.3287 -0.5999  0.6790
  154MOL0     H21236  10.114   8.215   4.033  1.7912 -1.5355  0.7801
  154MOL0     H21237   9.920   8.372   4.098  0.9940  0.0123 -1.5917
  154MOL0     H21238   9.960   8.924   4.261  0.2059  1.2352 -0.2890
  154MOL0     H21239   9.812   9.099   4.325  1.6973 -1.0780 -2.3887
  154MOL0     H21240   9.688   9.217   4.423  0.4083  1.4711 -3.0510
  154MOL0     H21241   9.587   9.209   4.273 -1.7932  0.8199  0.1334
  154MOL0     H21242   9.482   9.278   4.546 -4.1421 -2.2159 -1.5888
  154MOL0     H21243   9.405   9.286   4.382  1.2362  0.0241 -2.6235
  154MOL0     H21244   9.634   9.456   4.480 -0.9008  0.2801  0.5454
  154MOL0     H21245   9.557   9.459   4.318  0.6969  3.3803  1.5226
  154MOL0     H21246   9.464   9.639   4.458  0.7462 -0.1334  0.7456
  154MOL0     H21247   9.390   9.502   4.556  0.2253 -0.3575  0.2747
  154MOL0     H21248   9.105   9.500   4.284  0.0524 -0.9240 -0.6181
  154MOL0     H21249   9.506   8.823   4.427  1.3699 -2.3306  2.8075
  154MOL0     H21250   9.560   8.595   4.456  0.5636 -2.1658  1.2315
  154MOL0     H21251   9.598   8.561   4.277  0.7045  2.9118 -1.1700
  154MOL0     H21252   9.706   8.515   4.411  0.5264  0.7958  2.0880
  155MOL0     O21253   7.898   5.739   7.641 -0.2216 -0.2592  0.8214
  155MOL0     C21254   7.975   5.664   7.708 -0.2359 -0.1592 -0.2801
  155MOL0     O21255   8.018   5.699   7.838 -0.0283 -0.9662  0.0943
  155MOL0     C21256   7.980   5.814   7.891 -1.0422 -0.5493 -0.7424
  155MOL0     C21257   8.058   5.934   7.884 -0.2455  0.1670 -0.7445
  155MOL0     C21258   8.035   6.041   7.964  0.4121 -0.5243  0.4138
  155MOL0     C21259   7.933   6.034   8.060  0.0886 -0.3625 -0.0999
  155MOL0     O21260   7.902   6.128   8.148  0.2935  0.3439  0.0625
  155MOL0     C21261   7.998   6.241   8.172 -1.0003  0.3810  0.4762
  155MOL0     C21262   8.124   6.210   8.244 -0.3419  0.1112  1.0238
  155MOL0     C21263   8.227   6.319   8.242  0.9000 -0.1618 -0.9826
  155MOL0     C21264   8.329   6.287   8.352  0.3316 -0.4692 -0.1921
  155MOL0     C21265   8.439   6.397   8.351 -0.0619  0.2699  0.5765
  155MOL0     C21266   8.510   6.445   8.230  0.2227 -0.8272  0.0701
  155MOL0     C21267   8.434   6.559   8.154 -0.0409  0.0709  0.6295
  155MOL0     C21268   8.511   6.648   8.063  0.3919 -0.7530 -0.3892
  155MOL0     N21269   8.416   6.731   7.981  0.3749 -0.5107  0.0873
  155MOL0     C21270   8.317   6.681   7.899 -0.9957  1.1171  0.3942
  155MOL0     C21271   8.243   6.790   7.865  0.3994  0.4417  0.2632
  155MOL0     C21272   8.127   6.786   7.768  0.1108  1.6686  0.4476
  155MOL0     C21273   8.157   6.798   7.623  0.6946 -0.1118  0.8335
  155MOL0     C21274   8.032   6.810   7.529 -0.5007 -0.6773  0.1273
  155MOL0     C21275   8.070   6.876   7.399  0.1896 -0.6542 -0.4140
  155MOL0     O21276   7.951   6.938   7.350  0.5906 -0.2507  0.1326
  155MOL0     C21277   7.948   6.951   7.212 -0.5390 -0.6957 -0.1450
  155MOL0     C21278   7.885   6.853   7.140  0.2052  0.9865 -0.2840
  155MOL0     C21279   7.896   6.838   6.999 -0.3565 -0.0134 -0.3261
  155MOL0     C21280   7.848   6.717   6.933 -1.0040  0.7232  0.7610
  155MOL0     C21281   7.958   6.946   6.929  0.3736 -0.4531  0.0564
  155MOL0     C21282   7.958   6.956   6.781  0.0991  0.2444 -0.6744
  155MOL0     O21283   7.865   6.894   6.702  0.1778 -0.9292 -0.0399
  155MOL0     C21284   7.844   6.933   6.570 -0.2866  0.6444 -0.3844
  155MOL0     C21285   7.933   6.984   6.474 -0.4063  0.1239 -0.4468
  155MOL0     C21286   7.899   7.026   6.352  0.3764 -0.4796  0.6405
  155MOL0     C21287   7.770   7.004   6.301  0.0617  0.0881 -0.1054
  155MOL0     O21288   7.748   7.045   6.174 -0.4472  0.3651 -0.4884
  155MOL0     C21289   7.791   6.942   6.079 -0.1025 -0.4877 -0.4423
  155MOL0     C21290   7.726   6.941   5.947  0.6497 -0.2621  1.0984
  155MOL0     C21291   7.572   6.923   5.945 -0.0428 -0.0786 -0.3944
  155MOL0     C21292   7.538   6.779   6.011  0.8573 -0.2723  0.5910
  155MOL0     C21293   7.396   6.737   5.994 -0.6988  0.8866  1.0621
  155MOL0     C21294   7.297   6.789   6.099 -0.7881  0.2004 -0.2101
  155MOL0     C21295   7.157   6.728   6.073  0.0905 -0.4117  0.2683
  155MOL0     C21296   7.047   6.775   6.175  0.3667  0.4615 -0.2690
  155MOL0    Cl21297   6.998   6.937   6.123 -0.1788  0.3696  0.2352
  155MOL0     C21298   7.677   6.948   6.379  0.6170  0.5494 -0.0113
  155MOL0     C21299   7.719   6.905   6.510 -0.2537  0.7980 -0.2678
  155MOL0     O21300   8.043   7.034   6.736 -0.4213  0.2341 -0.1989
  155MOL0     C21301   8.022   7.049   7.008 -0.2588  0.4592  0.3319
  155MOL0     C21302   8.016   7.058   7.152 -0.4754 -0.4329  0.0153
  155MOL0     N21303   8.297   6.897   7.929  0.3704 -0.2805  0.5531
  155MOL0     N21304   8.402   6.863   7.997 -0.0188 -0.8481 -0.6443
  155MOL0     C21305   7.849   5.923   8.063 -0.5516  0.8233  0.4236
  155MOL0     C21306   7.877   5.808   7.980  0.1404  0.7167 -0.6231
  155MOL0     C21307   8.012   5.536   7.648  0.0140  1.1563 -0.1129
  155MOL0     C21308   7.910   5.482   7.564  1.0078  0.0194 -0.4155
  155MOL0     C21309   7.933   5.367   7.487  0.1961 -0.9912  0.5332
  155MOL0     C21310   8.057   5.304   7.495  0.3206  0.3826  0.0722
  155MOL0     O21311   8.073   5.193   7.424  0.1440  0.1403 -1.0703
  155MOL0     C21312   8.198   5.183   7.340 -0.7780  0.2348  0.5582
  155MOL0     C21313   8.161   5.220   7.202 -0.2464  0.0552 -0.2036
  155MOL0     C21314   8.041   5.148   7.140 -0.3843 -0.0528 -0.1917
  155MOL0     C21315   8.072   5.006   7.093 -0.8593 -1.0703 -0.2534
  155MOL0     C21316   8.186   4.997   6.989 -0.2183 -0.1934 -0.2182
  155MOL0     C21317   8.284   4.990   6.923  0.1926  0.4217 -0.1784
  155MOL0     C21318   8.155   5.350   7.584 -0.4600 -0.4453 -0.0045
  155MOL0     C21319   8.135   5.467   7.660  0.6452 -0.2914  0.0565
  155MOL0     C21320   8.251   5.507   7.748  0.2496  0.1297  0.0457
  155MOL0     H21321   8.132   5.941   7.805 -1.8706  1.3974 -2.2337
  155MOL0     H21322   8.097   6.130   7.962  0.5483 -0.5135  2.8909
  155MOL0     H21323   7.949   6.312   8.240  0.7732 -1.4420  3.8991
  155MOL0     H21324   8.029   6.289   8.079  1.7981 -2.4368 -0.2224
  155MOL0     H21325   8.098   6.178   8.346 -1.9973 -1.0577  0.2677
  155MOL0     H21326   8.166   6.117   8.205 -1.5941 -0.8899  1.9553
  155MOL0     H21327   8.270   6.338   8.143 -1.4330 -0.6037 -2.1709
  155MOL0     H21328   8.175   6.411   8.269 -1.2247 -0.9706 -2.0616
  155MOL0     H21329   8.272   6.286   8.446 -2.6404 -1.5171 -1.8532
  155MOL0     H21330   8.368   6.185   8.339 -0.1286 -0.2772 -4.3715
  155MOL0     H21331   8.518   6.346   8.407 -0.4844 -1.1181 -0.0486
  155MOL0     H21332   8.385   6.483   8.393 -1.5035  0.2831 -1.1708
  155MOL0     H21333   8.602   6.494   8.262 -1.3354  0.5952  2.7410
  155MOL0     H21334   8.531   6.368   8.156 -1.0438 -2.4904  1.3468
  155MOL0     H21335   8.385   6.617   8.232 -2.1464 -2.6263  1.4712
  155MOL0     H21336   8.352   6.514   8.097  1.4998 -3.4319  0.9174
  155MOL0     H21337   8.576   6.716   8.118 -1.1322  1.2229 -0.8550
  155MOL0     H21338   8.569   6.581   7.998 -0.7412 -3.1161  0.9221
  155MOL0     H21339   8.297   6.578   7.872 -2.6121 -0.0566  5.1021
  155MOL0     H21340   8.057   6.866   7.794  1.5362  2.2508  2.7050
  155MOL0     H21341   8.075   6.696   7.802 -0.3588  1.1494 -1.5350
  155MOL0     H21342   8.226   6.882   7.611  2.3151 -1.2604  1.7625
  155MOL0     H21343   8.196   6.701   7.590 -3.1069 -0.8491 -2.2145
  155MOL0     H21344   8.001   6.709   7.500 -0.3326 -0.7265  0.1217
  155MOL0     H21345   7.959   6.870   7.584  0.6384  1.6875 -0.8079
  155MOL0     H21346   8.145   6.952   7.423 -0.0335 -0.3937 -0.5402
  155MOL0     H21347   8.118   6.808   7.327 -0.8228 -1.0222 -0.7498
  155MOL0     H21348   7.828   6.780   7.197  0.3591  1.1074  0.0296
  155MOL0     H21349   7.910   6.694   6.846 -0.2275  0.9400  1.2511
  155MOL0     H21350   7.743   6.731   6.903  0.0196  0.8794 -3.3302
  155MOL0     H21351   7.849   6.628   6.997  1.1602  1.0894  1.2895
  155MOL0     H21352   8.034   7.010   6.505 -1.0962  1.9395  0.3888
  155MOL0     H21353   7.963   7.080   6.283 -2.0477  2.0277  0.1570
  155MOL0     H21354   7.896   6.962   6.059 -0.5830  1.9218 -0.9412
  155MOL0     H21355   7.779   6.844   6.126 -0.0056 -0.1382  0.3227
  155MOL0     H21356   7.750   7.035   5.896 -0.8480 -1.8224 -2.9521
  155MOL0     H21357   7.768   6.872   5.873  1.3365  0.6502  0.6161
  155MOL0     H21358   7.523   6.909   5.848 -1.1858 -1.7379  0.3735
  155MOL0     H21359   7.531   7.009   5.998  2.2581 -1.1081  3.5015
  155MOL0     H21360   7.549   6.783   6.120  0.2078  0.1799  0.6392
  155MOL0     H21361   7.608   6.712   5.960  0.4747  2.1927 -3.6389
  155MOL0     H21362   7.357   6.765   5.895  1.1877 -0.8178 -0.2433
  155MOL0     H21363   7.389   6.628   5.998 -1.0126  0.8536  0.0240
  155MOL0     H21364   7.291   6.898   6.088 -0.3179  0.2605  0.0905
  155MOL0     H21365   7.327   6.780   6.204 -0.2728  1.3851 -0.2360
  155MOL0     H21366   7.161   6.619   6.086 -2.1338 -0.6023 -0.3119
  155MOL0     H21367   7.121   6.752   5.973 -0.2459 -1.3232  0.1667
  155MOL0     H21368   7.090   6.773   6.275 -2.4676 -1.7467  1.0080
  155MOL0     H21369   6.964   6.705   6.185 -0.3939  1.6508  2.4467
  155MOL0     H21370   7.580   6.927   6.336  0.8560 -1.3160  0.2833
  155MOL0     H21371   7.639   6.852   6.560 -1.2530 -0.1599 -2.7258
  155MOL0     H21372   8.071   7.133   6.960  2.2789 -0.8211  0.4657
  155MOL0     H21373   8.062   7.136   7.211 -1.2052  0.2031 -0.2388
  155MOL0     H21374   7.770   5.915   8.137  0.4867 -0.0493  1.4745
  155MOL0     H21375   7.828   5.712   7.990 -2.4672  1.6800 -2.8616
  155MOL0     H21376   7.815   5.533   7.548  0.4581 -1.5990 -3.1311
  155MOL0     H21377   7.866   5.326   7.413  1.6476  1.2859 -2.2376
  155MOL0     H21378   8.280   5.248   7.373 -0.5373  2.2266 -3.4134
  155MOL0     H21379   8.236   5.080   7.337 -1.8704 -0.1499 -2.5454
  155MOL0     H21380   8.253   5.208   7.144 -0.1631  1.6001 -0.4334
  155MOL0     H21381   8.133   5.326   7.201 -1.9755 -0.3497  1.0785
  155MOL0     H21382   7.962   5.150   7.216 -0.0379 -1.6186  0.2570
  155MOL0     H21383   8.001   5.206   7.057 -0.4641 -0.5760 -0.5249
  155MOL0     H21384   7.975   4.968   7.062 -2.2108 -0.3706  2.7629
  155MOL0     H21385   8.090   4.943   7.181 -1.9831  1.4818  1.9557
  155MOL0     H21386   8.374   4.975   6.867  0.8236  0.5723  0.7730
  155MOL0     H21387   8.252   5.303   7.566 -2.1759 -2.8823 -4.4449
  155MOL0     H21388   8.244   5.463   7.848  0.1770  0.7172  0.3081
  155MOL0     H21389   8.343   5.485   7.693  0.1896 -0.6915  0.2708
  155MOL0     H21390   8.263   5.615   7.760  2.6372  0.0788 -1.2072
  156MOL0     O21391   0.843   8.778   8.014 -0.0202 -0.0816  0.4391
  156MOL0     C21392   0.810   8.664   8.046 -0.2144  0.1417 -0.4870
  156MOL0     O21393   0.872   8.550   8.013  0.2212 -0.8684 -0.0431
  156MOL0     C21394   0.960   8.545   7.913  0.5096  0.0507  0.3258
  156MOL0     C21395   1.072   8.464   7.922 -1.0015 -0.0065 -0.2402
  156MOL0     C21396   1.144   8.428   7.807 -0.2586  0.3841 -0.0488
  156MOL0     C21397   1.113   8.484   7.680  0.3242  0.6605 -0.6941
  156MOL0     O21398   1.182   8.441   7.577  0.3681  0.0801  0.3828
  156MOL0     C21399   1.205   8.532   7.461  0.4641 -0.0793  1.0860
  156MOL0     C21400   1.343   8.510   7.396 -0.1274 -0.5084 -0.0475
  156MOL0     C21401   1.360   8.377   7.331  0.2986  0.5815 -0.2108
  156MOL0     C21402   1.426   8.395   7.195  0.1677 -0.1093  0.3186
  156MOL0     C21403   1.452   8.262   7.121  0.2633 -0.2472 -0.5026
  156MOL0     C21404   1.573   8.187   7.184 -0.5494  0.1397  0.1494
  156MOL0     C21405   1.708   8.226   7.136 -0.4535 -0.6664  0.5001
  156MOL0     C21406   1.784   8.282   7.257  0.3414  0.1362  0.2168
  156MOL0     N21407   1.862   8.180   7.332  0.1933 -0.0075  0.0023
  156MOL0     C21408   1.812   8.127   7.448 -0.1314 -0.3866 -0.6519
  156MOL0     C21409   1.915   8.068   7.510  0.1027  0.3508 -0.1174
  156MOL0     C21410   1.921   8.003   7.645 -0.1844 -1.1231  0.1974
  156MOL0     C21411   1.952   7.861   7.618 -0.2026 -0.1317  0.4657
  156MOL0     C21412   1.848   7.796   7.520  0.3031 -1.2788 -1.2373
  156MOL0     C21413   1.842   7.644   7.536  0.1302  0.6455 -0.1863
  156MOL0     O21414   1.796   7.595   7.668  0.2793 -0.9044  0.7312
  156MOL0     C21415   1.659   7.586   7.700  0.1057  0.3651 -0.2545
  156MOL0     C21416   1.644   7.546   7.833 -0.4455  0.2828 -0.4140
  156MOL0     C21417   1.525   7.529   7.899  1.0787  0.6538 -0.2963
  156MOL0     C21418   1.540   7.472   8.042  0.5549 -0.9060  0.4194
  156MOL0     C21419   1.403   7.573   7.835  0.1651  0.7273  0.3449
  156MOL0     C21420   1.269   7.576   7.896  1.2337 -1.3334 -0.6015
  156MOL0     O21421   1.171   7.647   7.824  0.1000 -0.9373 -0.0365
  156MOL0     C21422   1.059   7.687   7.896 -0.2649  0.1430  0.4103
  156MOL0     C21423   1.041   7.819   7.926  0.0459  0.3239  0.4100
  156MOL0     C21424   0.919   7.862   7.977  0.3383 -0.2387 -0.1554
  156MOL0     C21425   0.821   7.772   8.008  1.1311 -0.6879  0.1602
  156MOL0     O21426   0.698   7.827   8.052 -0.1072  0.5861  0.1627
  156MOL0     C21427   0.603   7.730   8.107 -0.4464 -0.6293  0.9475
  156MOL0     C21428   0.487   7.795   8.180  1.2597 -0.4451  0.1333
  156MOL0     C21429   0.414   7.891   8.088  0.2669  0.0098 -0.0220
  156MOL0     C21430   0.328   7.820   7.984 -0.6564  0.8583 -0.9649
  156MOL0     C21431   0.307   7.881   7.844 -0.1441  0.6915 -0.5288
  156MOL0     C21432   0.262   8.028   7.850 -0.5427 -0.4981  0.3128
  156MOL0     C21433   0.253   8.079   7.702  0.2526 -1.2195 -0.0551
  156MOL0     C21434   0.237   8.235   7.695 -0.2245  0.0994  0.2697
  156MOL0    Cl21435   0.079   8.278   7.767 -0.1500  0.1712  0.1403
  156MOL0     C21436   0.839   7.639   7.971 -0.1163  0.2886 -0.2804
  156MOL0     C21437   0.955   7.602   7.916 -0.3023  0.2281  0.6412
  156MOL0     O21438   1.246   7.508   7.995 -0.6164 -0.1088  0.5030
  156MOL0     C21439   1.415   7.608   7.702  0.2867  0.1793  1.0550
  156MOL0     C21440   1.541   7.619   7.634  0.1091  0.2530 -0.4373
  156MOL0     N21441   2.027   8.085   7.422 -0.2165  0.6487 -0.4800
  156MOL0     N21442   1.994   8.151   7.319 -0.4825 -0.0019 -0.4511
  156MOL0     C21443   0.988   8.561   7.675  0.3694 -0.3656 -0.1843
  156MOL0     C21444   0.921   8.598   7.790 -0.0553  0.2646 -0.0566
  156MOL0     C21445   0.666   8.655   8.096 -0.7206 -0.3302  0.5192
  156MOL0     C21446   0.590   8.558   8.026  0.1182  0.5153 -0.7346
  156MOL0     C21447   0.452   8.557   8.047  0.8130  0.3178 -0.0467
  156MOL0     C21448   0.383   8.645   8.137 -0.2046 -0.7802 -0.9476
  156MOL0     O21449   0.251   8.622   8.163 -0.2053  0.2973 -0.2744
  156MOL0     C21450   0.181   8.702   8.258 -0.0900  0.4154 -0.1945
  156MOL0     C21451   0.049   8.628   8.279 -0.4758  0.5049 -0.2388
  156MOL0     C21452   0.063   8.497   8.369  0.2045 -0.0749  0.0696
  156MOL0     C21453   0.053   8.361   8.287  0.1820 -0.0129  0.0777
  156MOL0     C21454  -0.073   8.353   8.222  0.5067  1.0837  0.3784
  156MOL0     C21455  -0.185   8.347   8.163 -0.2323  0.0686 -0.5823
  156MOL0     C21456   0.461   8.736   8.207 -0.2401  0.0647 -0.5991
  156MOL0     C21457   0.597   8.746   8.185  0.2260  0.3017  0.3150
  156MOL0     C21458   0.673   8.860   8.247 -0.2037 -0.7533  0.2396
  156MOL0     H21459   1.115   8.432   8.017 -3.9320  1.1694  1.6259
  156MOL0     H21460   1.229   8.360   7.812 -0.2585  0.3781 -0.1289
  156MOL0     H21461   1.218   8.637   7.488  0.0113  0.7522 -1.6593
  156MOL0     H21462   1.125   8.526   7.386  2.4391  2.5731 -1.4757
  156MOL0     H21463   1.362   8.584   7.319 -2.6220 -1.0860 -1.3363
  156MOL0     H21464   1.428   8.530   7.462  0.0368 -2.0248  0.2299
  156MOL0     H21465   1.426   8.312   7.391 -1.6041  2.5728  4.4936
  156MOL0     H21466   1.267   8.324   7.311  0.7584 -0.2220 -0.2860
  156MOL0     H21467   1.346   8.440   7.135 -0.3081 -1.2594  0.0688
  156MOL0     H21468   1.517   8.454   7.203  0.2848 -0.2695  0.1671
  156MOL0     H21469   1.474   8.277   7.015 -2.0944  0.3244 -0.9714
  156MOL0     H21470   1.354   8.213   7.125  0.5714 -0.8588 -0.2424
  156MOL0     H21471   1.560   8.198   7.292  2.3455  1.6583  0.4325
  156MOL0     H21472   1.560   8.082   7.156 -1.0025  0.0801  0.5767
  156MOL0     H21473   1.709   8.302   7.057 -1.4648  1.6430  2.5741
  156MOL0     H21474   1.755   8.141   7.085  2.2968  0.1984  1.4483
  156MOL0     H21475   1.860   8.353   7.224  0.1631 -0.0879 -0.7300
  156MOL0     H21476   1.719   8.336   7.327  0.4198 -2.1276  2.1366
  156MOL0     H21477   1.715   8.144   7.492  0.0537  0.7557 -0.6276
  156MOL0     H21478   1.825   8.020   7.694 -2.0920  2.0807 -4.0593
  156MOL0     H21479   2.005   8.041   7.704 -2.0248  2.5013  0.7556
  156MOL0     H21480   2.050   7.857   7.570  0.0796  2.6361  0.6959
  156MOL0     H21481   1.961   7.804   7.711  1.8372 -0.0926  0.3403
  156MOL0     H21482   1.751   7.844   7.535  2.0356  1.6008  2.2524
  156MOL0     H21483   1.888   7.825   7.423  1.4265  2.2293  0.1210
  156MOL0     H21484   1.779   7.616   7.451 -0.7295 -2.0528  1.2103
  156MOL0     H21485   1.936   7.598   7.506 -0.4959 -1.5147  0.9879
  156MOL0     H21486   1.733   7.511   7.886  0.0351  1.5268 -0.3625
  156MOL0     H21487   1.538   7.554   8.115  0.4081 -0.3782 -0.1661
  156MOL0     H21488   1.637   7.424   8.038  2.2587  2.2824 -3.8238
  156MOL0     H21489   1.459   7.404   8.071  2.4422 -3.1116  0.7402
  156MOL0     H21490   1.115   7.893   7.900 -0.3435  0.6570  0.2408
  156MOL0     H21491   0.909   7.967   7.999  0.8697  0.6270 -3.5597
  156MOL0     H21492   0.565   7.668   8.026  2.4887 -0.0048 -1.0605
  156MOL0     H21493   0.646   7.662   8.181 -0.5642 -0.9828  0.6898
  156MOL0     H21494   0.416   7.716   8.208  0.6808 -0.1152 -0.3722
  156MOL0     H21495   0.525   7.847   8.268 -0.1313 -1.6636  1.5186
  156MOL0     H21496   0.490   7.949   8.035 -0.1266  0.8537  0.3263
  156MOL0     H21497   0.349   7.955   8.148  1.8259  0.1851  1.5442
  156MOL0     H21498   0.229   7.820   8.030  0.1192 -0.4572  0.8633
  156MOL0     H21499   0.355   7.714   7.971 -0.6025  0.3629  2.3556
  156MOL0     H21500   0.406   7.867   7.798  0.7133  0.4368  1.3007
  156MOL0     H21501   0.238   7.824   7.781  1.7889  1.0548 -3.1779
  156MOL0     H21502   0.339   8.085   7.903 -0.9333 -1.7589  2.3399
  156MOL0     H21503   0.163   8.037   7.894 -0.1566  1.3668  0.9225
  156MOL0     H21504   0.180   8.022   7.643 -0.3618 -1.4478  0.9048
  156MOL0     H21505   0.349   8.054   7.656  0.3642  0.2708 -0.6997
  156MOL0     H21506   0.256   8.287   7.601  0.1718  0.1371  0.3658
  156MOL0     H21507   0.303   8.278   7.772 -3.5936  1.9776  2.3456
  156MOL0     H21508   0.766   7.563   7.998 -1.0561  0.2614 -2.6472
  156MOL0     H21509   0.962   7.496   7.890 -1.2777  0.1352  0.7097
  156MOL0     H21510   1.321   7.639   7.655  0.2976  1.0989  1.6140
  156MOL0     H21511   1.550   7.657   7.532 -1.5441  1.4796 -0.1779
  156MOL0     H21512   0.941   8.594   7.583  1.3705 -2.9628 -1.7149
  156MOL0     H21513   0.828   8.653   7.777  0.8066  2.5439  2.3834
  156MOL0     H21514   0.627   8.462   7.991 -1.8927 -0.5871  0.0398
  156MOL0     H21515   0.388   8.474   8.016 -0.6883  0.5136  2.2583
  156MOL0     H21516   0.226   8.717   8.356  0.6741  1.4338 -0.6789
  156MOL0     H21517   0.156   8.800   8.216 -3.6302 -0.7113 -1.0661
  156MOL0     H21518   0.017   8.615   8.175  2.9851  1.6692 -1.6030
  156MOL0     H21519  -0.017   8.695   8.336 -2.2815 -2.0060  0.8127
  156MOL0     H21520   0.169   8.499   8.394  0.6809  1.0585 -1.7951
  156MOL0     H21521  -0.002   8.509   8.456 -2.1268  0.0806 -1.5830
  156MOL0     H21522   0.081   8.285   8.360  3.1372 -0.1385 -1.0441
  156MOL0     H21523   0.132   8.377   8.212 -1.5166  1.7615 -1.4597
  156MOL0     H21524  -0.276   8.332   8.108 -0.4467 -2.3461  0.3465
  156MOL0     H21525   0.405   8.808   8.265  3.0036  1.8210  0.6102
  156MOL0     H21526   0.700   8.934   8.171  0.6793 -0.5088  0.7712
  156MOL0     H21527   0.600   8.897   8.318  0.0880 -0.6725  0.5013
  156MOL0     H21528   0.766   8.826   8.293  0.8490  0.5525 -0.8220
  157MOL0     O21529   9.179   4.659   7.972  0.0442  0.7629  1.1115
  157MOL0     C21530   9.163   4.624   8.088  0.6093  0.0879 -0.4464
  157MOL0     O21531   9.267   4.598   8.170 -0.6561  0.1969  0.0569
  157MOL0     C21532   9.395   4.582   8.114  0.4174  0.1531  0.4255
  157MOL0     C21533   9.452   4.458   8.074  0.5944 -0.0877 -0.4568
  157MOL0     C21534   9.592   4.458   8.039 -0.2621  0.9618 -0.7014
  157MOL0     C21535   9.682   4.562   8.054  0.1045 -0.0461 -0.4351
  157MOL0     O21536   9.818   4.550   8.027  0.0653  0.1393 -0.4733
  157MOL0     C21537   9.885   4.426   8.054  0.7365 -0.3059  0.5554
  157MOL0     C21538   9.908   4.341   7.931  0.6030  0.5679 -0.1937
  157MOL0     C21539   9.961   4.417   7.805 -0.1122  0.1547 -0.2498
  157MOL0     C21540   9.941   4.339   7.678  0.2871 -0.3211  0.0882
  157MOL0     C21541  10.058   4.244   7.637  0.1790 -0.2610 -0.5484
  157MOL0     C21542  10.094   4.128   7.736 -0.5503  0.5840 -0.4596
  157MOL0     C21543  10.196   4.034   7.681 -0.0674 -0.4919  1.0527
  157MOL0     C21544  10.335   4.082   7.692 -0.4858 -0.5627 -0.3022
  157MOL0     N21545  10.377   4.047   7.828 -0.5425  0.1055 -0.4564
  157MOL0     C21546  10.434   3.933   7.875  0.2893  0.6652  0.6264
  157MOL0     C21547  10.481   3.964   8.004  0.5168  0.4432  0.0022
  157MOL0     C21548  10.539   3.866   8.104 -0.4752 -0.4167 -0.0142
  157MOL0     C21549  10.688   3.902   8.130 -0.0286  1.3800  0.2385
  157MOL0     C21550  10.798   3.801   8.093 -0.2306  0.9675 -0.4007
  157MOL0     C21551  10.931   3.826   8.178 -0.4969 -0.1954 -0.6614
  157MOL0     O21552  10.956   3.970   8.177  0.0002  0.0086 -0.3692
  157MOL0     C21553  11.070   4.020   8.231  0.1493  0.5875 -0.6929
  157MOL0     C21554  11.115   4.144   8.187  0.1232 -0.3998  0.2172
  157MOL0     C21555  11.239   4.192   8.238 -0.2933 -0.6849  0.0033
  157MOL0     C21556  11.281   4.326   8.178  0.0628 -0.6509  0.4739
  157MOL0     C21557  11.295   4.125   8.348 -0.7530 -0.3244 -0.4361
  157MOL0     C21558  11.410   4.193   8.426 -0.0036  0.3185  1.2131
  157MOL0     O21559  11.424   4.333   8.416 -0.3192  0.2983 -0.4899
  157MOL0     C21560  11.521   4.398   8.473 -0.4297  1.2978 -0.8464
  157MOL0     C21561  11.564   4.374   8.599  0.3845 -0.1630 -0.4168
  157MOL0     C21562  11.674   4.445   8.654  0.5272  0.4497 -0.4827
  157MOL0     C21563  11.735   4.548   8.582  0.2224 -0.3805  0.3338
  157MOL0     O21564  11.838   4.626   8.625  0.3016 -0.1742 -0.4252
  157MOL0     C21565  11.884   4.615   8.763  0.2534 -0.1922 -0.1461
  157MOL0     C21566  12.002   4.711   8.772  0.0271  0.0624 -0.1754
  157MOL0     C21567  12.083   4.693   8.900  0.4268  0.8177 -0.5339
  157MOL0     C21568  12.171   4.812   8.923  0.2759 -0.0337 -0.2931
  157MOL0     C21569  12.276   4.798   9.044 -0.1428 -0.1219 -0.2845
  157MOL0     C21570  12.378   4.925   9.043 -0.1430 -0.5734 -0.2644
  157MOL0     C21571  12.490   4.916   9.147  0.9307  0.1696 -0.2562
  157MOL0     C21572  12.564   5.047   9.151 -0.3396 -0.0583  0.1324
  157MOL0    Cl21573  12.610   5.103   8.988 -0.2643 -0.5246  0.2595
  157MOL0     C21574  11.685   4.579   8.459 -0.2592 -0.5017 -0.0069
  157MOL0     C21575  11.582   4.497   8.404 -0.8551 -0.1365  0.0298
  157MOL0     O21576  11.482   4.114   8.489  0.1275  0.1633 -0.6141
  157MOL0     C21577  11.252   3.999   8.385 -0.0167  0.7705 -0.4497
  157MOL0     C21578  11.136   3.955   8.331  0.0170  0.1946 -0.7968
  157MOL0     N21579  10.470   4.101   8.026  0.6720 -0.0707  0.2280
  157MOL0     N21580  10.401   4.141   7.926 -0.2503  0.1995 -0.1600
  157MOL0     C21581   9.628   4.686   8.086  0.8706  0.5743 -0.5503
  157MOL0     C21582   9.491   4.691   8.113  1.3358 -0.1301 -0.6783
  157MOL0     C21583   9.028   4.601   8.142 -1.1708  0.3058  0.1556
  157MOL0     C21584   9.004   4.532   8.263 -0.1580 -0.0473  0.5142
  157MOL0     C21585   8.875   4.511   8.313  0.9628 -0.0292  0.2147
  157MOL0     C21586   8.774   4.551   8.230 -0.5082 -0.7300  0.1948
  157MOL0     O21587   8.642   4.531   8.256  0.4102 -0.0847  0.3051
  157MOL0     C21588   8.597   4.549   8.392 -0.0850  0.0280  1.0441
  157MOL0     C21589   8.441   4.571   8.377 -0.1981 -0.7838 -0.1051
  157MOL0     C21590   8.404   4.718   8.357  0.0400 -0.9874 -0.3394
  157MOL0     C21591   8.265   4.736   8.285  0.0978  0.5388 -0.1330
  157MOL0     C21592   8.158   4.691   8.377 -0.2673  0.4010 -0.3558
  157MOL0     C21593   8.065   4.670   8.450  0.2742  0.2475 -0.8448
  157MOL0     C21594   8.797   4.621   8.112  0.1999 -0.0882 -0.1145
  157MOL0     C21595   8.919   4.638   8.062 -0.9520 -0.0655 -0.4405
  157MOL0     C21596   8.927   4.739   7.955  0.7265 -0.0083  0.4242
  157MOL0     H21597   9.386   4.372   8.079  0.2884  0.1425 -0.5693
  157MOL0     H21598   9.623   4.357   8.014 -0.2831  0.4890  0.9971
  157MOL0     H21599   9.837   4.363   8.130  1.0583 -0.6441  0.4809
  157MOL0     H21600   9.980   4.461   8.095  0.7545 -0.1188  0.3551
  157MOL0     H21601   9.977   4.259   7.953 -0.8416 -0.3592  1.0958
  157MOL0     H21602   9.813   4.297   7.899  0.9231 -0.4006  0.1265
  157MOL0     H21603   9.896   4.505   7.801 -0.8499  0.0967  4.5646
  157MOL0     H21604  10.065   4.446   7.827 -1.2179  2.9129  1.9545
  157MOL0     H21605   9.854   4.273   7.688 -1.3602  1.9294  1.6693
  157MOL0     H21606   9.932   4.409   7.594 -1.8075 -0.1470  0.4057
  157MOL0     H21607  10.144   4.308   7.614  0.6297 -0.8459 -0.4958
  157MOL0     H21608  10.017   4.197   7.547  0.9617  0.2371 -1.1779
  157MOL0     H21609  10.139   4.180   7.821 -2.4941  0.6844  0.5401
  157MOL0     H21610  10.014   4.065   7.774  0.7214 -0.8652 -0.0632
  157MOL0     H21611  10.191   4.004   7.576  1.4506  0.0838  0.7910
  157MOL0     H21612  10.186   3.935   7.727  1.2924 -1.1185  0.0849
  157MOL0     H21613  10.403   4.029   7.625 -0.3773 -2.0370  0.9417
  157MOL0     H21614  10.339   4.191   7.676 -3.2598 -0.7088 -2.8842
  157MOL0     H21615  10.445   3.839   7.822 -0.8758  1.5393 -1.3150
  157MOL0     H21616  10.535   3.762   8.071 -0.1584 -0.6929  0.7902
  157MOL0     H21617  10.477   3.871   8.194 -1.2549 -0.1185 -0.5518
  157MOL0     H21618  10.719   3.992   8.077  2.4654  0.5089  0.0609
  157MOL0     H21619  10.692   3.908   8.239 -2.6344 -1.7914  0.6693
  157MOL0     H21620  10.774   3.696   8.110  2.5560  0.4743  1.2789
  157MOL0     H21621  10.822   3.806   7.987 -0.2480 -0.8663 -0.5233
  157MOL0     H21622  10.931   3.768   8.271  2.1681 -0.3281 -0.6815
  157MOL0     H21623  11.010   3.781   8.118 -0.0382  0.1421 -0.3184
  157MOL0     H21624  11.067   4.201   8.108  2.3848  2.9945  1.0799
  157MOL0     H21625  11.229   4.347   8.084  0.8075  3.8674  0.8618
  157MOL0     H21626  11.384   4.318   8.142 -0.7899 -0.8483 -2.1222
  157MOL0     H21627  11.274   4.414   8.242 -2.3899 -0.6296  0.2385
  157MOL0     H21628  11.526   4.288   8.652  0.7864 -0.0551  0.0569
  157MOL0     H21629  11.716   4.418   8.750 -3.2937  2.9645  2.2124
  157MOL0     H21630  11.810   4.645   8.838  1.9049  1.6569  0.8391
  157MOL0     H21631  11.924   4.517   8.789  1.1298 -1.1682 -4.4630
  157MOL0     H21632  12.069   4.688   8.688 -2.0132  0.7378 -2.0872
  157MOL0     H21633  11.977   4.817   8.764  2.2588  0.6760  0.2497
  157MOL0     H21634  12.149   4.606   8.899  0.0333  0.4207  1.8677
  157MOL0     H21635  12.016   4.682   8.986 -0.9994  2.3263 -1.3982
  157MOL0     H21636  12.108   4.900   8.942 -2.0648 -1.7318  0.2692
  157MOL0     H21637  12.219   4.829   8.827  0.8146  1.4545  0.2110
  157MOL0     H21638  12.228   4.809   9.142  3.5275 -0.0338  1.6564
  157MOL0     H21639  12.335   4.706   9.043 -1.9902 -1.3787 -2.0949
  157MOL0     H21640  12.320   5.016   9.056 -0.2584 -0.8832  1.7501
  157MOL0     H21641  12.414   4.945   8.942 -2.6270  2.4575 -0.6686
  157MOL0     H21642  12.551   4.829   9.121  1.0207 -0.1306  0.9402
  157MOL0     H21643  12.445   4.891   9.243 -0.9199 -2.5596 -1.6926
  157MOL0     H21644  12.658   5.034   9.205 -0.6032 -1.3552  0.3055
  157MOL0     H21645  12.495   5.118   9.196  0.0753 -0.7650  1.9735
  157MOL0     H21646  11.726   4.656   8.394  0.4901 -0.1036  0.9136
  157MOL0     H21647  11.540   4.524   8.308  1.8369 -0.3805 -1.2943
  157MOL0     H21648  11.302   3.937   8.460 -0.7868 -0.6792 -1.0848
  157MOL0     H21649  11.102   3.856   8.361 -3.0745  0.9685 -1.4981
  157MOL0     H21650   9.695   4.770   8.099  1.4088  0.4128 -2.0794
  157MOL0     H21651   9.450   4.787   8.145  2.8284  0.5119 -0.6101
  157MOL0     H21652   9.093   4.516   8.323  1.5594  3.8974 -0.6248
  157MOL0     H21653   8.855   4.458   8.405  1.1785 -1.8793 -0.7552
  157MOL0     H21654   8.613   4.461   8.455 -4.1869 -0.6126  1.4685
  157MOL0     H21655   8.642   4.635   8.442  1.1760  0.9840 -1.4998
  157MOL0     H21656   8.391   4.527   8.464 -2.4434  2.0098  0.1401
  157MOL0     H21657   8.404   4.505   8.298 -1.5242 -3.6395  2.6944
  157MOL0     H21658   8.405   4.773   8.452 -1.4141  0.3943 -1.0718
  157MOL0     H21659   8.475   4.765   8.288 -0.2924  0.4957  0.2794
  157MOL0     H21660   8.261   4.694   8.184 -1.7664  0.8118 -0.2019
  157MOL0     H21661   8.245   4.843   8.274  0.4604  0.7058  0.7362
  157MOL0     H21662   7.991   4.645   8.523  1.0768  1.2111  0.3470
  157MOL0     H21663   8.712   4.652   8.051 -0.1780 -1.5621 -0.3753
  157MOL0     H21664   8.826   4.769   7.923  0.4106 -1.0086  0.4504
  157MOL0     H21665   8.958   4.833   8.002 -3.1289  1.3795  0.5348
  157MOL0     H21666   8.990   4.725   7.866  0.9180 -1.7939  0.8198
  158MOL0     O21667   0.691   9.831   7.118  0.0361 -0.6808  0.2313
  158MOL0     C21668   0.657   9.895   7.017 -1.1288 -0.1448 -0.1445
  158MOL0     O21669   0.735   9.911   6.905  0.2230 -0.6537 -0.0174
  158MOL0     C21670   0.866   9.874   6.920 -0.4350  0.0657  0.0094
  158MOL0     C21671   0.960   9.977   6.914  0.1205 -0.4496  0.5426
  158MOL0     C21672   1.098   9.947   6.905  0.3442 -0.1674  0.3717
  158MOL0     C21673   1.148   9.823   6.900  0.6421  1.2964 -0.5286
  158MOL0     O21674   1.278   9.784   6.905 -0.6073 -0.6335 -0.6497
  158MOL0     C21675   1.369   9.852   6.987  0.4438 -0.1946  0.0837
  158MOL0     C21676   1.480   9.760   7.006 -0.6765  0.1227  0.4511
  158MOL0     C21677   1.554   9.717   6.871  0.2926  0.5365 -0.0334
  158MOL0     C21678   1.706   9.674   6.883  0.7749  0.2656  0.0529
  158MOL0     C21679   1.756   9.620   6.753  0.2036 -0.0583  0.3722
  158MOL0     C21680   1.910   9.600   6.768 -0.0483 -0.1266  1.3093
  158MOL0     C21681   1.974   9.609   6.633  0.3981  0.1961  1.0868
  158MOL0     C21682   2.032   9.476   6.589 -0.7523 -0.2298 -0.2225
  158MOL0     N21683   2.063   9.477   6.443  0.1070 -0.3201 -0.0319
  158MOL0     C21684   2.101   9.585   6.368 -0.5373  0.0966 -0.3878
  158MOL0     C21685   2.101   9.531   6.244 -0.0112 -0.3233 -0.3586
  158MOL0     C21686   2.134   9.615   6.124 -0.2948 -0.6441  0.0739
  158MOL0     C21687   1.998   9.682   6.090 -0.6368  0.3775  0.9163
  158MOL0     C21688   2.004   9.754   5.952  0.3857 -0.1856  0.2401
  158MOL0     C21689   1.979   9.672   5.819  0.6756 -0.3203 -0.1327
  158MOL0     O21690   2.042   9.544   5.819 -0.6317  0.1723  0.5496
  158MOL0     C21691   2.150   9.549   5.731  0.2129 -0.5206  0.1162
  158MOL0     C21692   2.191   9.423   5.675 -0.4318 -1.2661  0.4499
  158MOL0     C21693   2.291   9.412   5.582 -0.2886  0.9171  0.6436
  158MOL0     C21694   2.296   9.273   5.517 -0.8773 -0.2082 -1.4711
  158MOL0     C21695   2.367   9.521   5.546 -0.2876  0.2008  0.5045
  158MOL0     C21696   2.475   9.514   5.434  0.4536  0.1918 -0.4966
  158MOL0     O21697   2.526   9.636   5.406 -0.0463 -0.7178 -0.4742
  158MOL0     C21698   2.638   9.636   5.319 -1.0213 -0.2870 -0.2962
  158MOL0     C21699   2.630   9.628   5.178 -0.3431 -0.2570 -1.1169
  158MOL0     C21700   2.748   9.621   5.105  0.3814  0.6493 -0.3256
  158MOL0     C21701   2.872   9.640   5.164 -0.3130  0.1339  0.6782
  158MOL0     O21702   2.978   9.645   5.082  0.6750 -0.6130 -0.3246
  158MOL0     C21703   3.118   9.655   5.131  0.1164  0.5110 -0.7792
  158MOL0     C21704   3.185   9.719   5.015 -0.7324  0.8743  0.3458
  158MOL0     C21705   3.333   9.734   5.034 -0.2261 -0.0484  0.2751
  158MOL0     C21706   3.393   9.817   4.920 -0.1919  0.2456 -0.1905
  158MOL0     C21707   3.548   9.835   4.921 -0.3431  0.1953  0.2682
  158MOL0     C21708   3.590   9.943   5.012 -0.2311 -0.8953 -0.7889
  158MOL0     C21709   3.732  10.004   4.989 -0.2027 -0.4325  0.6609
  158MOL0     C21710   3.728  10.109   4.870  0.2200 -0.0596  0.1687
  158MOL0    Cl21711   3.887  10.166   4.843 -0.3646 -0.4718 -0.2505
  158MOL0     C21712   2.877   9.642   5.309  0.1907  0.8224  0.2875
  158MOL0     C21713   2.761   9.644   5.383  0.5404 -0.3081  0.7175
  158MOL0     O21714   2.515   9.405   5.394  0.0635  0.7401  0.1209
  158MOL0     C21715   2.346   9.644   5.605  0.3621  0.2983  0.6589
  158MOL0     C21716   2.238   9.655   5.697 -0.5085  0.0723  0.5833
  158MOL0     N21717   2.063   9.397   6.246  0.4740 -0.4773 -0.1753
  158MOL0     N21718   2.059   9.364   6.368 -0.0275 -0.5833 -0.7322
  158MOL0     C21719   1.051   9.714   6.910 -0.0292 -0.2981 -0.9058
  158MOL0     C21720   0.916   9.739   6.916  0.8864 -0.2574 -1.0139
  158MOL0     C21721   0.534   9.967   7.038 -0.3443 -0.0868  0.3553
  158MOL0     C21722   0.442   9.928   7.143  0.2528  1.5403 -0.5488
  158MOL0     C21723   0.316   9.983   7.160 -0.4281  0.2233 -0.2169
  158MOL0     C21724   0.277  10.083   7.070 -0.9733 -0.4827  0.4734
  158MOL0     O21725   0.158  10.156   7.081 -0.2113  0.2415  0.1950
  158MOL0     C21726   0.044  10.098   7.008 -0.2060 -0.9205 -0.0035
  158MOL0     C21727  -0.059  10.211   6.969  0.6587  0.0755  0.3741
  158MOL0     C21728  -0.175  10.164   6.882 -0.1775  0.0317 -0.5994
  158MOL0     C21729  -0.233  10.277   6.797  0.4131  0.2084 -0.2436
  158MOL0     C21730  -0.281  10.379   6.885 -0.6426 -0.1505  0.3983
  158MOL0     C21731  -0.341  10.462   6.941 -0.3158 -0.0283  0.4198
  158MOL0     C21732   0.366  10.123   6.965  0.4359  0.0518 -0.5725
  158MOL0     C21733   0.493  10.076   6.952 -0.2501  0.3916  0.3617
  158MOL0     C21734   0.579  10.141   6.842 -0.0732  0.8472  0.3474
  158MOL0     H21735   0.937  10.082   6.927 -0.1480 -0.7311  2.8852
  158MOL0     H21736   1.170  10.028   6.915  0.0323  0.0647  0.7755
  158MOL0     H21737   1.323   9.864   7.086  1.0666 -3.1569  0.8326
  158MOL0     H21738   1.397   9.945   6.936 -1.5185  0.2352 -0.2959
  158MOL0     H21739   1.560   9.796   7.070  0.8439 -1.6747 -0.3704
  158MOL0     H21740   1.443   9.669   7.052  2.3153 -1.1592  0.5154
  158MOL0     H21741   1.489   9.641   6.825 -1.1582  1.3596  0.5824
  158MOL0     H21742   1.547   9.801   6.800 -3.7250 -0.4397 -1.0829
  158MOL0     H21743   1.764   9.766   6.896  1.2520  0.2978 -1.8549
  158MOL0     H21744   1.727   9.597   6.958  0.3227 -2.1667 -2.1656
  158MOL0     H21745   1.739   9.696   6.676 -0.4851  0.0282  0.5944
  158MOL0     H21746   1.702   9.532   6.718 -1.3368  0.4055  1.4529
  158MOL0     H21747   1.958   9.661   6.844  1.0894  0.6740  0.0057
  158MOL0     H21748   1.925   9.500   6.809 -3.0169 -0.7294  1.1007
  158MOL0     H21749   2.055   9.682   6.644  0.3503  0.1436  1.8589
  158MOL0     H21750   1.903   9.634   6.554  1.5321  0.1600  0.0441
  158MOL0     H21751   2.123   9.449   6.643 -1.0511  2.8601  2.1566
  158MOL0     H21752   1.955   9.402   6.613  0.0545 -1.0887 -0.2435
  158MOL0     H21753   2.143   9.680   6.402  3.3831 -1.3352 -0.6874
  158MOL0     H21754   2.173   9.561   6.038 -1.1840  1.7436 -1.9560
  158MOL0     H21755   2.210   9.677   6.172 -0.4922 -2.2537  2.6594
  158MOL0     H21756   1.921   9.607   6.071  2.6390 -2.5584 -2.2460
  158MOL0     H21757   1.968   9.737   6.179 -0.9171 -0.4652  1.3518
  158MOL0     H21758   1.919   9.823   5.961  0.0514 -0.7707  1.9661
  158MOL0     H21759   2.096   9.813   5.951 -0.6047  1.4423  0.4549
  158MOL0     H21760   1.871   9.654   5.812  0.1052  2.9538 -1.6673
  158MOL0     H21761   2.006   9.735   5.733  1.2587 -0.1028  0.2062
  158MOL0     H21762   2.139   9.337   5.716 -2.8522  0.3714  1.0040
  158MOL0     H21763   2.222   9.197   5.544  1.3032 -2.7755 -2.2396
  158MOL0     H21764   2.394   9.227   5.536 -3.0165 -3.8797  2.0180
  158MOL0     H21765   2.277   9.282   5.409  0.1349  1.1406 -1.5699
  158MOL0     H21766   2.528   9.608   5.146 -0.4193 -1.6586 -0.0997
  158MOL0     H21767   2.758   9.610   4.997  0.5298 -0.6394 -0.2012
  158MOL0     H21768   3.132   9.701   5.229 -1.8358 -1.7709  0.6923
  158MOL0     H21769   3.156   9.553   5.140 -0.3269  0.4654  1.0199
  158MOL0     H21770   3.169   9.646   4.935 -0.8601 -0.8788  1.8912
  158MOL0     H21771   3.140   9.810   4.974  0.5019  1.5857  0.5225
  158MOL0     H21772   3.370   9.632   5.051 -0.9784 -0.3028  0.4333
  158MOL0     H21773   3.343   9.788   5.128 -0.6406  3.0382 -1.3234
  158MOL0     H21774   3.352   9.918   4.935  2.1040  1.0121  1.4531
  158MOL0     H21775   3.348   9.780   4.828 -2.0331  1.0324  0.3507
  158MOL0     H21776   3.599   9.746   4.959 -0.8409  0.0277  0.5426
  158MOL0     H21777   3.582   9.862   4.820 -2.1897  1.9997  0.0571
  158MOL0     H21778   3.594   9.899   5.112  0.0813 -2.5384 -1.4883
  158MOL0     H21779   3.515  10.022   5.017  1.3119  0.6604 -1.2321
  158MOL0     H21780   3.806   9.928   4.962 -0.2565 -0.2335 -0.0627
  158MOL0     H21781   3.769  10.056   5.078  0.6735 -0.4481  0.3082
  158MOL0     H21782   3.647  10.180   4.887 -0.3928 -0.6394 -0.2403
  158MOL0     H21783   3.705  10.055   4.777  1.2365  1.6681 -1.1363
  158MOL0     H21784   2.973   9.639   5.359 -0.4496 -2.6565  1.5950
  158MOL0     H21785   2.760   9.649   5.491 -0.6356  1.6152  0.6740
  158MOL0     H21786   2.420   9.723   5.599  2.1154 -1.0774  2.6353
  158MOL0     H21787   2.224   9.747   5.753 -0.4348 -0.0726  0.8404
  158MOL0     H21788   1.082   9.610   6.909  2.9814  0.4238  1.6083
  158MOL0     H21789   0.849   9.655   6.930  0.8904  0.2011  3.1010
  158MOL0     H21790   0.452   9.854   7.221 -2.7210  1.6593  0.0829
  158MOL0     H21791   0.254   9.943   7.239 -2.4188 -0.2299 -1.9246
  158MOL0     H21792   0.088  10.047   6.922  1.0749 -0.1409  0.1549
  158MOL0     H21793  -0.004  10.027   7.075 -0.2990  0.3003  1.2652
  158MOL0     H21794  -0.009  10.292   6.914  0.4743 -1.2507 -1.8568
  158MOL0     H21795  -0.091  10.260   7.062  4.3103  1.5726  1.0204
  158MOL0     H21796  -0.140  10.083   6.817 -1.6185 -2.4092  1.4838
  158MOL0     H21797  -0.254  10.127   6.948  0.8999  0.1386  0.8036
  158MOL0     H21798  -0.320  10.241   6.741 -2.1816  1.3534  2.7919
  158MOL0     H21799  -0.150  10.302   6.729  0.1159 -1.0995 -1.1220
  158MOL0     H21800  -0.400  10.546   6.970 -0.8263 -0.4371  0.5849
  158MOL0     H21801   0.322  10.196   6.898 -2.4834  1.5588  2.6886
  158MOL0     H21802   0.569  10.080   6.752  1.0375 -0.0212  0.8014
  158MOL0     H21803   0.540  10.242   6.824 -0.6692  0.6493  0.4859
  158MOL0     H21804   0.683  10.143   6.874  0.6197  0.0236 -1.6949
  159MOL0     O21805   9.642   0.244   4.301  0.0725  0.0373 -0.1696
  159MOL0     C21806   9.584   0.289   4.199 -0.2521 -0.6509  0.5489
  159MOL0     O21807   9.456   0.259   4.161 -0.5077 -0.2297  0.1221
  159MOL0     C21808   9.399   0.164   4.234  0.8317 -1.1411 -0.5013
  159MOL0     C21809   9.446   0.035   4.227  0.3968 -0.3711 -0.0475
  159MOL0     C21810   9.379  -0.066   4.290  0.2702 -0.0302 -0.4403
  159MOL0     C21811   9.276  -0.038   4.382 -0.6437  0.2419 -0.0467
  159MOL0     O21812   9.209  -0.149   4.433 -0.0978 -0.2198  0.2529
  159MOL0     C21813   9.179  -0.144   4.572  0.3004  0.5357  0.8726
  159MOL0     C21814   9.174  -0.286   4.615  0.2210  0.2945 -0.7642
  159MOL0     C21815   9.061  -0.371   4.554 -0.1116  0.3213  0.6159
  159MOL0     C21816   9.066  -0.509   4.629 -0.5486  0.0864  1.0092
  159MOL0     C21817   8.932  -0.580   4.608 -0.0292 -0.3819  0.9958
  159MOL0     C21818   8.909  -0.693   4.702 -0.3706 -0.5942  0.3158
  159MOL0     C21819   8.765  -0.751   4.690  0.1206 -0.0254 -0.3730
  159MOL0     C21820   8.753  -0.889   4.759 -0.3512 -0.2034  0.3811
  159MOL0     N21821   8.790  -0.880   4.904 -0.6135 -0.4710 -0.7971
  159MOL0     C21822   8.707  -0.840   5.007  0.5291 -0.5230  0.2621
  159MOL0     C21823   8.749  -0.894   5.120 -0.2472 -0.5095  0.4560
  159MOL0     C21824   8.658  -0.907   5.242  0.6828  0.2604 -0.5452
  159MOL0     C21825   8.634  -1.055   5.267 -0.5464 -0.1147 -0.2462
  159MOL0     C21826   8.573  -1.118   5.140 -0.1789  0.2259 -0.0338
  159MOL0     C21827   8.509  -1.252   5.177 -0.8441  0.8129  0.5446
  159MOL0     O21828   8.497  -1.324   5.055  0.4450 -0.4897 -0.2632
  159MOL0     C21829   8.398  -1.419   5.056  0.8781  0.2275  0.1554
  159MOL0     C21830   8.324  -1.424   4.939 -0.0931  0.6371 -0.0334
  159MOL0     C21831   8.220  -1.507   4.926  0.3132  0.1424 -0.5614
  159MOL0     C21832   8.145  -1.511   4.802 -0.2774  0.3782  0.3006
  159MOL0     C21833   8.175  -1.589   5.035 -0.5749 -0.0270  0.7523
  159MOL0     C21834   8.070  -1.694   5.022  0.1418 -0.1781  0.1390
  159MOL0     O21835   8.103  -1.785   4.935 -0.2946 -0.0293 -0.2831
  159MOL0     C21836   8.045  -1.913   4.938 -0.1696 -0.1462  0.7078
  159MOL0     C21837   8.123  -2.026   4.973  0.3011  1.1613  0.4882
  159MOL0     C21838   8.071  -2.154   4.960 -0.6698 -0.3678 -0.1984
  159MOL0     C21839   7.930  -2.165   4.931 -0.5580  0.6913  0.2771
  159MOL0     O21840   7.865  -2.284   4.930 -0.6457 -0.2493 -0.5956
  159MOL0     C21841   7.810  -2.307   5.050  0.1804 -0.0026  0.2209
  159MOL0     C21842   7.743  -2.446   5.044  0.0953 -0.1515  0.2014
  159MOL0     C21843   7.690  -2.478   5.184 -0.1809 -0.5617 -0.9027
  159MOL0     C21844   7.611  -2.606   5.187  0.2912 -0.0969 -0.1061
  159MOL0     C21845   7.568  -2.648   5.333  0.0811  0.2312 -0.1359
  159MOL0     C21846   7.470  -2.763   5.327 -0.1749  0.5865 -0.2998
  159MOL0     C21847   7.372  -2.779   5.456 -0.5988  0.4013  0.0535
  159MOL0     C21848   7.265  -2.668   5.462 -0.1974  0.2521  0.1044
  159MOL0    Cl21849   7.166  -2.681   5.311  0.7742 -0.0166  0.2142
  159MOL0     C21850   7.853  -2.054   4.901  0.0045 -0.0280  0.1044
  159MOL0     C21851   7.912  -1.924   4.902 -0.1701 -0.0588  0.2804
  159MOL0     O21852   7.986  -1.703   5.112 -0.3069  0.8856 -0.2165
  159MOL0     C21853   8.249  -1.581   5.157  0.6913  0.2080 -1.0320
  159MOL0     C21854   8.352  -1.489   5.166 -0.6941 -0.3250  0.0094
  159MOL0     N21855   8.877  -0.941   5.088 -0.5564 -0.1453  0.3979
  159MOL0     N21856   8.900  -0.933   4.965  0.2690  0.0435  0.5463
  159MOL0     C21857   9.223   0.093   4.393 -0.1201 -0.4938  0.4479
  159MOL0     C21858   9.287   0.194   4.313  0.1917  0.5246  0.2006
  159MOL0     C21859   9.667   0.365   4.100 -0.1611  0.0851  0.2749
  159MOL0     C21860   9.789   0.419   4.147 -0.1316  0.2285 -0.7369
  159MOL0     C21861   9.858   0.501   4.067  0.1672 -0.9795 -0.8721
  159MOL0     C21862   9.826   0.525   3.935  0.7758  0.5000 -0.1893
  159MOL0     O21863   9.899   0.609   3.861  0.0403  0.2891 -0.4851
  159MOL0     C21864   9.846   0.686   3.750  0.1167  0.4112  0.0311
  159MOL0     C21865   9.890   0.833   3.782  1.3396  0.9511  0.3198
  159MOL0     C21866   9.834   0.890   3.924 -0.1458  0.8228  0.1200
  159MOL0     C21867   9.862   1.042   3.941 -0.6326  0.4651  0.2901
  159MOL0     C21868   9.879   1.072   4.083 -0.3525  0.9769 -1.2301
  159MOL0     C21869   9.892   1.084   4.202  0.5024  0.1509 -0.2296
  159MOL0     C21870   9.720   0.461   3.884  0.1764 -0.3808  0.2391
  159MOL0     C21871   9.635   0.382   3.967 -0.2310 -1.8091  1.0887
  159MOL0     C21872   9.513   0.324   3.896 -0.0642  0.2333  0.2904
  159MOL0     H21873   9.526   0.009   4.158  0.5985  1.1618 -0.4282
  159MOL0     H21874   9.399  -0.172   4.284 -2.1833 -0.5686 -0.3395
  159MOL0     H21875   9.077  -0.105   4.585 -0.3661 -1.4626  2.1914
  159MOL0     H21876   9.249  -0.086   4.633  0.3847  0.1395  1.1570
  159MOL0     H21877   9.275  -0.329   4.608  0.7420  1.4016 -0.3906
  159MOL0     H21878   9.149  -0.293   4.721 -1.4162 -1.7388 -1.2289
  159MOL0     H21879   8.969  -0.318   4.582  0.4383  1.3681  0.4826
  159MOL0     H21880   9.069  -0.391   4.447  1.2430  1.5393  0.4690
  159MOL0     H21881   9.144  -0.573   4.587 -1.0057 -0.2695  0.6958
  159MOL0     H21882   9.086  -0.496   4.736 -2.9486 -0.4279  1.5816
  159MOL0     H21883   8.922  -0.626   4.509  0.9884 -0.0625  0.7268
  159MOL0     H21884   8.850  -0.508   4.618 -0.8120 -0.9487 -0.8673
  159MOL0     H21885   8.986  -0.767   4.680  1.2580  1.4426 -1.3425
  159MOL0     H21886   8.924  -0.664   4.806 -1.7949 -1.6274  0.8412
  159MOL0     H21887   8.736  -0.758   4.585 -1.0685  1.3890 -0.1700
  159MOL0     H21888   8.707  -0.675   4.743  1.8411  0.9040  0.2462
  159MOL0     H21889   8.655  -0.936   4.750 -0.7683  0.5012  1.0809
  159MOL0     H21890   8.828  -0.952   4.711 -1.0286  0.0551 -1.0625
  159MOL0     H21891   8.618  -0.782   4.981  1.1002  0.6595  0.8577
  159MOL0     H21892   8.565  -0.850   5.229  0.6114  0.4465  0.6898
  159MOL0     H21893   8.712  -0.864   5.326  1.5114  0.8767 -1.3665
  159MOL0     H21894   8.733  -1.097   5.283 -0.7622  0.2841  2.9399
  159MOL0     H21895   8.577  -1.075   5.359  1.7547 -0.4530  1.1802
  159MOL0     H21896   8.499  -1.049   5.097 -0.1778  0.8941  0.9967
  159MOL0     H21897   8.649  -1.146   5.067 -1.4510 -2.1424 -0.5456
  159MOL0     H21898   8.580  -1.299   5.245 -1.5276  1.0037  1.4105
  159MOL0     H21899   8.417  -1.237   5.234 -0.4057  0.5570  1.3461
  159MOL0     H21900   8.358  -1.369   4.852  1.0425 -2.3366 -1.6015
  159MOL0     H21901   8.165  -1.587   4.726 -4.6630  2.1186 -3.0633
  159MOL0     H21902   8.155  -1.418   4.745  1.0203  0.8489  1.2513
  159MOL0     H21903   8.037  -1.516   4.821 -0.7878  1.5805 -1.9208
  159MOL0     H21904   8.225  -2.009   5.007  2.0554 -3.5282 -1.6054
  159MOL0     H21905   8.129  -2.241   4.990  4.3421  2.4757 -0.5892
  159MOL0     H21906   7.884  -2.299   5.131 -0.6739 -0.5246  1.0680
  159MOL0     H21907   7.731  -2.236   5.077 -0.5124 -0.6042 -0.2081
  159MOL0     H21908   7.654  -2.442   4.981  0.2426 -0.5764 -0.0352
  159MOL0     H21909   7.811  -2.520   5.001  0.1634 -1.1147  1.9024
  159MOL0     H21910   7.631  -2.391   5.213 -0.9136 -1.0159 -0.9850
  159MOL0     H21911   7.773  -2.490   5.255 -1.2983 -0.4161  0.4880
  159MOL0     H21912   7.650  -2.686   5.123 -3.5533 -0.8268 -1.8406
  159MOL0     H21913   7.515  -2.587   5.138 -0.2897 -0.4974  0.8460
  159MOL0     H21914   7.655  -2.677   5.393  0.9385  2.9231  0.0419
  159MOL0     H21915   7.526  -2.557   5.377 -1.4187 -0.8522  0.7905
  159MOL0     H21916   7.543  -2.844   5.321  0.5632  0.8970  2.6862
  159MOL0     H21917   7.408  -2.748   5.238 -0.6784  2.2068  0.2896
  159MOL0     H21918   7.435  -2.780   5.545 -1.7532  0.4047  0.8876
  159MOL0     H21919   7.324  -2.876   5.440  0.7522 -0.2288 -0.4175
  159MOL0     H21920   7.321  -2.574   5.468  4.9270 -2.4361  0.6085
  159MOL0     H21921   7.216  -2.684   5.558  1.8980  0.5597  1.2827
  159MOL0     H21922   7.750  -2.062   4.870  0.3853  1.3421 -1.7212
  159MOL0     H21923   7.858  -1.841   4.858  1.7829 -0.3029 -2.8673
  159MOL0     H21924   8.226  -1.650   5.237 -2.1300 -1.1055 -2.8370
  159MOL0     H21925   8.412  -1.482   5.256  2.5194 -1.2276 -1.8966
  159MOL0     H21926   9.130   0.117   4.443  0.8679 -2.0995  3.2650
  159MOL0     H21927   9.247   0.295   4.308  2.0746  1.2626 -0.8066
  159MOL0     H21928   9.820   0.420   4.251  1.3150  1.4897 -1.1320
  159MOL0     H21929   9.944   0.558   4.100  0.1612  0.2225 -2.7588
  159MOL0     H21930   9.865   0.660   3.646 -1.7654 -2.1529  0.2250
  159MOL0     H21931   9.737   0.699   3.758 -0.4080 -1.8847 -2.3216
  159MOL0     H21932   9.862   0.907   3.706  0.5580  1.1836  0.8213
  159MOL0     H21933   9.998   0.840   3.794  1.2674  1.8733  0.5347
  159MOL0     H21934   9.728   0.870   3.943  0.5731 -0.7552  3.2287
  159MOL0     H21935   9.890   0.839   4.003 -0.5527 -0.9504 -0.6719
  159MOL0     H21936   9.775   1.104   3.915 -0.5412 -0.0410 -1.3377
  159MOL0     H21937   9.954   1.066   3.888  0.3430 -1.0701  1.2101
  159MOL0     H21938   9.917   1.093   4.306 -0.2981 -2.9536  0.3521
  159MOL0     H21939   9.705   0.469   3.777  1.0900  2.5397  0.2541
  159MOL0     H21940   9.504   0.342   3.788 -3.0381 -2.7149 -0.1066
  159MOL0     H21941   9.515   0.216   3.912  0.6276  0.4344  1.7130
  159MOL0     H21942   9.427   0.369   3.948 -0.2397  0.9534 -0.5904
  160MOL0     O21943   7.653   8.242   7.789  0.2196 -0.0707  0.2067
  160MOL0     C21944   7.775   8.261   7.792 -0.8518 -0.4605 -0.0722
  160MOL0     O21945   7.855   8.264   7.683  0.8941 -0.2435  0.5547
  160MOL0     C21946   7.801   8.231   7.561  0.2862 -0.0128 -0.7903
  160MOL0     C21947   7.748   8.323   7.470  0.2499  0.0327  0.3346
  160MOL0     C21948   7.699   8.273   7.345 -0.0413 -0.0884 -0.8829
  160MOL0     C21949   7.695   8.142   7.310  0.7897  0.0717 -0.3864
  160MOL0     O21950   7.649   8.112   7.190  0.5831  0.3346 -0.3445
  160MOL0     C21951   7.603   7.981   7.157 -0.4009 -0.1530 -0.1012
  160MOL0     C21952   7.727   7.908   7.106  0.7451 -0.5135 -0.6280
  160MOL0     C21953   7.692   7.765   7.049  0.6807  1.2080  0.0060
  160MOL0     C21954   7.600   7.756   6.931 -0.7974  0.2255 -0.6502
  160MOL0     C21955   7.674   7.832   6.812 -0.3087 -0.5340 -0.1199
  160MOL0     C21956   7.595   7.804   6.683 -0.4860  0.7467 -0.5620
  160MOL0     C21957   7.655   7.859   6.565 -0.1094  0.1473  0.3345
  160MOL0     C21958   7.574   7.829   6.440 -0.7092  0.4059  0.1843
  160MOL0     N21959   7.648   7.890   6.325  0.2345 -0.5548  0.2182
  160MOL0     C21960   7.627   7.997   6.244  0.6537  0.8882 -0.2308
  160MOL0     C21961   7.710   7.982   6.132  0.1919  0.0973 -0.6677
  160MOL0     C21962   7.717   8.069   6.009  0.6380 -0.3005 -0.0461
  160MOL0     C21963   7.802   8.202   6.025  0.4510  0.4804 -0.7370
  160MOL0     C21964   7.957   8.181   6.002  0.2356  0.0107 -0.5093
  160MOL0     C21965   8.004   8.209   5.855 -1.3052  0.4232  0.2161
  160MOL0     O21966   8.137   8.168   5.834  1.1102 -0.0110  0.3980
  160MOL0     C21967   8.206   8.184   5.721  0.0109  0.4727  0.0199
  160MOL0     C21968   8.138   8.238   5.610 -0.6232 -0.6570 -0.6743
  160MOL0     C21969   8.207   8.248   5.493  0.7187  0.4950 -0.3539
  160MOL0     C21970   8.136   8.316   5.380 -1.0276 -0.7417  0.3433
  160MOL0     C21971   8.347   8.211   5.483 -0.0261  0.2315 -0.3365
  160MOL0     C21972   8.422   8.223   5.357 -0.9258 -0.2944 -0.4337
  160MOL0     O21973   8.555   8.272   5.379  0.7963 -0.4276  0.4001
  160MOL0     C21974   8.622   8.331   5.273  0.1133 -0.5876  0.1040
  160MOL0     C21975   8.759   8.317   5.281  0.6859 -0.2517  0.0294
  160MOL0     C21976   8.837   8.383   5.188  0.2898  0.5681  0.3756
  160MOL0     C21977   8.787   8.458   5.076 -0.1123 -0.8783 -0.8244
  160MOL0     O21978   8.870   8.526   4.987 -0.0035 -0.7368  0.0678
  160MOL0     C21979   9.007   8.562   5.004  0.2679 -0.2377 -0.2420
  160MOL0     C21980   9.092   8.443   4.956 -0.3988 -0.0172 -0.4304
  160MOL0     C21981   9.238   8.460   5.002 -0.1248 -0.1753  0.3319
  160MOL0     C21982   9.297   8.326   5.030  0.8702  0.7538  0.1796
  160MOL0     C21983   9.445   8.317   5.053 -0.3096 -0.1709 -0.2053
  160MOL0     C21984   9.482   8.187   5.111  0.2798 -0.6165 -0.2964
  160MOL0     C21985   9.633   8.166   5.134  0.0035  0.3682 -0.0727
  160MOL0     C21986   9.652   8.030   5.208 -0.6154  0.4962 -0.0681
  160MOL0    Cl21987   9.628   7.885   5.098  0.0576  0.4717 -0.3771
  160MOL0     C21988   8.648   8.486   5.083 -0.3437  0.1107  0.5155
  160MOL0     C21989   8.560   8.421   5.173 -1.7547  0.3265 -0.1696
  160MOL0     O21990   8.380   8.195   5.246 -0.4205 -0.2073  0.1373
  160MOL0     C21991   8.410   8.175   5.596  0.3765 -0.8127  0.1780
  160MOL0     C21992   8.345   8.165   5.717  0.4408 -0.4775 -0.0702
  160MOL0     N21993   7.789   7.870   6.161 -0.4534  0.2587 -0.0236
  160MOL0     N21994   7.742   7.813   6.265 -0.0785  0.0702 -1.3756
  160MOL0     C21995   7.751   8.049   7.408  0.5641  0.1706  0.5662
  160MOL0     C21996   7.798   8.097   7.528  0.8665  0.2128  0.1414
  160MOL0     C21997   7.848   8.266   7.927 -1.0860  0.3889  0.1375
  160MOL0     C21998   7.967   8.200   7.941  0.0473  0.3037 -0.4770
  160MOL0     C21999   8.030   8.190   8.067  0.0466 -0.2839  0.4635
  160MOL0     C22000   7.980   8.257   8.177  0.1676 -0.5836 -0.7347
  160MOL0     O22001   8.054   8.264   8.292  0.1794 -0.3640 -0.1890
  160MOL0     C22002   8.178   8.194   8.323 -0.1382  0.6436  0.1959
  160MOL0     C22003   8.170   8.037   8.343 -0.2877 -0.9194 -0.7767
  160MOL0     C22004   8.055   7.986   8.432  0.5669  0.1759 -1.6640
  160MOL0     C22005   8.069   8.023   8.574 -0.0358  0.1018 -0.2727
  160MOL0     C22006   8.210   8.017   8.616 -0.2573 -0.0266  0.6927
  160MOL0     C22007   8.324   8.033   8.654  0.1863 -0.2575 -0.5330
  160MOL0     C22008   7.855   8.318   8.169 -0.3621 -0.7466 -0.0512
  160MOL0     C22009   7.786   8.325   8.043 -0.9396  0.8797 -0.4086
  160MOL0     C22010   7.652   8.404   8.033  0.0909 -0.3603  0.2822
  160MOL0     H22011   7.758   8.431   7.481  1.3602  0.1391 -1.4055
  160MOL0     H22012   7.662   8.349   7.277  0.8530  3.5106  2.3799
  160MOL0     H22013   7.544   7.975   7.065  1.6496  3.4585 -1.8845
  160MOL0     H22014   7.563   7.937   7.249 -0.0430  1.3087  0.7988
  160MOL0     H22015   7.779   7.974   7.037  1.5825 -0.8449 -0.3290
  160MOL0     H22016   7.795   7.893   7.191 -1.3895  1.1881  1.5136
  160MOL0     H22017   7.787   7.724   7.014 -0.3954 -1.7200  0.2412
  160MOL0     H22018   7.652   7.716   7.138 -0.9866  1.3108 -0.6660
  160MOL0     H22019   7.582   7.651   6.905  2.3762 -0.1647 -1.7726
  160MOL0     H22020   7.507   7.805   6.961  0.4172  2.2858 -0.0836
  160MOL0     H22021   7.778   7.802   6.798 -0.2916  0.1828 -1.7867
  160MOL0     H22022   7.673   7.940   6.831  1.0127  0.0071 -2.7076
  160MOL0     H22023   7.586   7.695   6.684  1.3674  0.5500  0.1750
  160MOL0     H22024   7.503   7.860   6.693 -0.0984  1.1620  0.8326
  160MOL0     H22025   7.755   7.815   6.549 -0.2221 -0.0591  0.1869
  160MOL0     H22026   7.661   7.966   6.582  1.3764 -0.2780  3.0718
  160MOL0     H22027   7.573   7.722   6.416  3.9872  0.6853 -2.4795
  160MOL0     H22028   7.474   7.873   6.446 -0.5055  0.6569  2.2999
  160MOL0     H22029   7.548   8.068   6.267 -0.7153 -0.3698 -0.8762
  160MOL0     H22030   7.618   8.091   5.969  0.8083  0.7310  0.0613
  160MOL0     H22031   7.755   8.007   5.927  2.1603  0.7188 -0.1678
  160MOL0     H22032   7.760   8.284   5.967  1.8798 -0.6479 -3.5590
  160MOL0     H22033   7.797   8.220   6.133  0.1889 -1.3026 -0.4034
  160MOL0     H22034   8.020   8.252   6.056  1.5376 -1.7980  0.4718
  160MOL0     H22035   7.977   8.077   6.029 -2.3293 -0.0965  1.2594
  160MOL0     H22036   7.935   8.160   5.786 -1.6384 -1.2211  1.6580
  160MOL0     H22037   7.996   8.317   5.838 -2.5168  0.7096  2.2634
  160MOL0     H22038   8.033   8.263   5.611 -0.8880 -0.7725 -5.2914
  160MOL0     H22039   8.211   8.394   5.359 -0.9401 -0.5694  1.2882
  160MOL0     H22040   8.043   8.361   5.415 -1.5452 -0.4923 -1.2703
  160MOL0     H22041   8.122   8.254   5.291 -0.3691  1.1518 -1.1596
  160MOL0     H22042   8.810   8.239   5.339  1.3827 -0.2904 -0.6178
  160MOL0     H22043   8.945   8.374   5.195  0.0867 -1.4052  2.4914
  160MOL0     H22044   9.025   8.644   4.935  1.2999 -1.2504 -1.2178
  160MOL0     H22045   9.016   8.580   5.112 -1.9640  1.9550 -0.3426
  160MOL0     H22046   9.055   8.348   4.997  0.6766 -1.1446 -1.9734
  160MOL0     H22047   9.093   8.427   4.848 -2.0609 -0.9050 -0.3442
  160MOL0     H22048   9.235   8.518   5.094  0.2323  0.1703  0.1305
  160MOL0     H22049   9.292   8.511   4.921 -0.2852 -0.5267  0.0035
  160MOL0     H22050   9.279   8.261   4.944 -0.3115 -1.8411  2.2463
  160MOL0     H22051   9.235   8.285   5.110 -1.5947  0.7020 -1.6282
  160MOL0     H22052   9.499   8.341   4.960 -0.7519  1.0508 -0.1592
  160MOL0     H22053   9.469   8.404   5.115 -2.6821  0.1467  0.3636
  160MOL0     H22054   9.444   8.105   5.049  1.4312 -0.4152 -1.3216
  160MOL0     H22055   9.430   8.181   5.207  0.0047  0.5113 -0.3672
  160MOL0     H22056   9.671   8.250   5.192  0.9461 -2.2002  3.4079
  160MOL0     H22057   9.698   8.166   5.046  2.9811  2.1648  1.9523
  160MOL0     H22058   9.586   8.030   5.295  1.5387  0.7140  1.6161
  160MOL0     H22059   9.745   8.034   5.264 -1.4633  1.6978  1.3300
  160MOL0     H22060   8.619   8.558   5.006 -1.3976 -1.3633 -0.5421
  160MOL0     H22061   8.453   8.439   5.174 -1.8240  0.0274  1.4273
  160MOL0     H22062   8.507   8.130   5.579 -0.0246 -1.0234 -1.7544
  160MOL0     H22063   8.386   8.145   5.816  1.8427  1.2497 -0.2521
  160MOL0     H22064   7.749   7.941   7.398 -2.6403  0.3249 -2.5893
  160MOL0     H22065   7.827   8.021   7.599 -2.3602 -1.1555  0.1875
  160MOL0     H22066   8.005   8.143   7.858 -1.2238  1.3947 -1.8655
  160MOL0     H22067   8.125   8.138   8.055 -0.1009 -0.1085 -1.8810
  160MOL0     H22068   8.252   8.197   8.243 -0.1340 -0.1191  0.1583
  160MOL0     H22069   8.223   8.245   8.408 -0.0599 -0.8820  1.1053
  160MOL0     H22070   8.269   8.008   8.380  0.7491  1.8374 -1.1820
  160MOL0     H22071   8.154   7.987   8.247  0.7130 -0.3950 -1.2305
  160MOL0     H22072   7.951   8.006   8.406  0.2010  0.1605 -0.2976
  160MOL0     H22073   8.066   7.877   8.425  0.1009 -0.2484  2.0171
  160MOL0     H22074   8.005   7.953   8.629 -0.6232  1.1831  0.4772
  160MOL0     H22075   8.033   8.125   8.591 -3.2320 -1.4184  3.5672
  160MOL0     H22076   8.427   8.044   8.682  1.0628 -0.8545 -3.2066
  160MOL0     H22077   7.812   8.354   8.262  0.3850 -1.2195  0.4830
  160MOL0     H22078   7.567   8.335   8.038  1.6303 -2.3960 -0.4990
  160MOL0     H22079   7.632   8.472   8.116  1.5066 -0.4400  0.7092
  160MOL0     H22080   7.643   8.456   7.937 -3.4724 -2.3689 -0.6536
  161MOL0     O22081   5.904   2.582   3.810  0.2458  0.3711 -0.4500
  161MOL0     C22082   5.946   2.546   3.702 -0.2221 -0.7476 -0.3676
  161MOL0     O22083   5.939   2.421   3.645 -0.0138 -0.0052  0.5923
  161MOL0     C22084   5.853   2.327   3.681  0.6473 -0.0980  0.3119
  161MOL0     C22085   5.907   2.201   3.716  0.0332  0.6158  0.1898
  161MOL0     C22086   5.818   2.097   3.757  0.1098 -0.8841  0.9684
  161MOL0     C22087   5.678   2.122   3.761 -0.6077 -0.2691 -0.1907
  161MOL0     O22088   5.592   2.018   3.771 -0.1294 -0.1181 -0.3923
  161MOL0     C22089   5.470   2.037   3.847  0.3132  1.1798 -0.4286
  161MOL0     C22090   5.386   1.902   3.845 -0.7587  0.6423 -0.0321
  161MOL0     C22091   5.365   1.870   3.703  0.0186  0.1778  0.3901
  161MOL0     C22092   5.314   1.739   3.682  0.6018 -0.0147  0.0520
  161MOL0     C22093   5.185   1.706   3.759 -0.9667 -0.7479 -1.1991
  161MOL0     C22094   5.147   1.560   3.770  1.5652  1.2082 -0.5094
  161MOL0     C22095   5.074   1.521   3.645  0.6628  0.6960 -0.4597
  161MOL0     C22096   5.059   1.364   3.646 -0.8145 -0.5993  0.3760
  161MOL0     N22097   5.175   1.302   3.572  0.5643  0.6294  0.2609
  161MOL0     C22098   5.204   1.312   3.437  0.6982 -0.1251 -1.6339
  161MOL0     C22099   5.289   1.211   3.417  1.2128  0.3555 -0.0845
  161MOL0     C22100   5.325   1.168   3.282  0.1674  0.3108 -0.8403
  161MOL0     C22101   5.286   1.027   3.240  0.2174  0.0623 -0.3630
  161MOL0     C22102   5.401   0.949   3.182 -0.5160 -0.4810 -0.0676
  161MOL0     C22103   5.357   0.801   3.186 -0.0113  0.4302  0.0275
  161MOL0     O22104   5.246   0.764   3.100 -0.6437 -0.0621 -0.2744
  161MOL0     C22105   5.120   0.759   3.163 -0.1097  0.8442  0.8475
  161MOL0     C22106   5.021   0.844   3.121  0.1079  0.1491  0.4586
  161MOL0     C22107   4.895   0.853   3.180  0.1392 -0.0378 -0.6124
  161MOL0     C22108   4.793   0.937   3.113 -0.2384  0.6982  0.7265
  161MOL0     C22109   4.864   0.771   3.295  0.1380  0.0521  0.3861
  161MOL0     C22110   4.729   0.761   3.356 -0.3491  1.2631 -0.0301
  161MOL0     O22111   4.726   0.735   3.491 -0.0972  0.2238  0.8228
  161MOL0     C22112   4.607   0.693   3.548 -0.1330  0.0858 -0.4548
  161MOL0     C22113   4.488   0.768   3.545  0.4380  0.1745 -0.4477
  161MOL0     C22114   4.366   0.716   3.595  0.3395  0.6376 -0.3817
  161MOL0     C22115   4.365   0.595   3.668  0.5373 -0.3953 -0.9502
  161MOL0     O22116   4.253   0.553   3.746 -0.0205  0.1655  0.1943
  161MOL0     C22117   4.230   0.412   3.758  0.0830 -0.3051 -0.4951
  161MOL0     C22118   4.089   0.385   3.736 -0.7400  0.0341 -1.1798
  161MOL0     C22119   4.068   0.355   3.591 -0.3585  0.0828 -0.2671
  161MOL0     C22120   3.944   0.283   3.574  0.0270  0.2646  0.1341
  161MOL0     C22121   3.892   0.307   3.429  0.1715  0.3262 -0.4618
  161MOL0     C22122   3.801   0.445   3.419  0.8210  0.1690 -0.6272
  161MOL0     C22123   3.714   0.448   3.279  0.0008  1.3380  0.5925
  161MOL0     C22124   3.635   0.574   3.268 -0.2792 -0.7002 -0.2385
  161MOL0    Cl22125   3.743   0.717   3.280 -0.1813  0.1047 -0.0317
  161MOL0     C22126   4.486   0.524   3.684 -0.8347  0.5489 -0.1750
  161MOL0     C22127   4.603   0.565   3.618  0.1137 -0.4997 -0.5972
  161MOL0     O22128   4.631   0.780   3.283 -0.0158  0.0356 -0.0322
  161MOL0     C22129   4.968   0.689   3.337 -0.0289 -0.2006 -0.0088
  161MOL0     C22130   5.099   0.682   3.277  0.3082  0.8195 -0.1002
  161MOL0     N22131   5.325   1.156   3.540  0.4340 -0.0001  0.2776
  161MOL0     N22132   5.251   1.208   3.631  0.0844 -0.4006 -0.2508
  161MOL0     C22133   5.630   2.245   3.729 -0.2673 -0.4968 -0.1577
  161MOL0     C22134   5.715   2.355   3.704  0.4403  0.2502 -0.3842
  161MOL0     C22135   6.035   2.650   3.634  0.4915 -0.7643 -0.8215
  161MOL0     C22136   6.038   2.783   3.690 -0.0129  1.5833  0.7418
  161MOL0     C22137   6.113   2.885   3.631 -0.2221 -0.1673  0.3459
  161MOL0     C22138   6.177   2.859   3.505 -0.1095  0.6604  0.1432
  161MOL0     O22139   6.242   2.950   3.418  0.1292 -0.9906 -0.1925
  161MOL0     C22140   6.312   3.065   3.469  0.0876  0.2667  0.2497
  161MOL0     C22141   6.456   3.056   3.521 -0.2338 -0.3767  0.0826
  161MOL0     C22142   6.551   3.002   3.414 -0.3306  0.6669  0.1022
  161MOL0     C22143   6.689   2.996   3.480  0.0229 -0.5359 -0.0206
  161MOL0     C22144   6.779   2.919   3.396 -0.1380  0.2975  0.1540
  161MOL0     C22145   6.842   2.859   3.312 -0.8548 -0.0043 -0.2753
  161MOL0     C22146   6.179   2.734   3.450 -0.2104 -0.3812 -0.0045
  161MOL0     C22147   6.102   2.629   3.511 -0.1779 -0.5533  0.6574
  161MOL0     C22148   6.092   2.516   3.421 -0.6486  1.2354 -0.2831
  161MOL0     H22149   6.015   2.192   3.715  0.1509  1.8228  0.2537
  161MOL0     H22150   5.862   2.000   3.778  1.1270 -0.6415  0.0286
  161MOL0     H22151   5.408   2.122   3.817 -1.4228  2.6465  5.8238
  161MOL0     H22152   5.497   2.046   3.952  3.0550 -0.2515 -0.9256
  161MOL0     H22153   5.453   1.831   3.895  2.6329  4.0190  0.7475
  161MOL0     H22154   5.291   1.922   3.894 -0.1223 -2.2388  2.7194
  161MOL0     H22155   5.287   1.931   3.657 -4.9551 -4.6849  1.3207
  161MOL0     H22156   5.453   1.873   3.638 -0.5013 -3.0702 -0.6736
  161MOL0     H22157   5.280   1.739   3.578 -1.8651  0.3706  0.7884
  161MOL0     H22158   5.381   1.653   3.692 -2.0592 -2.2639 -0.2045
  161MOL0     H22159   5.098   1.760   3.720 -1.1936  1.2951  1.7875
  161MOL0     H22160   5.187   1.747   3.860 -0.9789 -1.5481 -0.8607
  161MOL0     H22161   5.237   1.499   3.786 -0.1314 -1.2195  0.3055
  161MOL0     H22162   5.076   1.541   3.851 -0.4452  3.7170 -1.5362
  161MOL0     H22163   5.114   1.551   3.548 -4.5592  2.1097 -2.5241
  161MOL0     H22164   4.983   1.581   3.637  0.0413 -0.3166 -1.1985
  161MOL0     H22165   5.061   1.325   3.748  2.3673 -2.4459 -0.2716
  161MOL0     H22166   4.967   1.332   3.596  0.9265 -0.7467 -3.0061
  161MOL0     H22167   5.153   1.376   3.366  0.0209  1.8086  0.4749
  161MOL0     H22168   5.434   1.171   3.290  0.1698 -1.7230  1.1892
  161MOL0     H22169   5.291   1.236   3.204 -0.4282  2.3345  1.0854
  161MOL0     H22170   5.257   0.957   3.319  1.2311 -0.0001 -0.0320
  161MOL0     H22171   5.202   1.036   3.170 -0.6337 -0.3097  0.5956
  161MOL0     H22172   5.438   0.982   3.084  0.0600 -0.7046  0.0676
  161MOL0     H22173   5.481   0.961   3.256 -0.4909 -0.6013 -0.0768
  161MOL0     H22174   5.443   0.741   3.154 -0.4500 -0.5736  0.6563
  161MOL0     H22175   5.344   0.775   3.292 -3.5413 -2.3566 -0.9077
  161MOL0     H22176   5.046   0.897   3.030 -1.1488 -1.1510 -0.6950
  161MOL0     H22177   4.730   0.868   3.055  0.2910 -1.0373  2.1044
  161MOL0     H22178   4.837   1.011   3.046 -1.1020  1.4485  0.9709
  161MOL0     H22179   4.741   0.991   3.192 -0.7878  0.4228  0.5583
  161MOL0     H22180   4.475   0.867   3.502 -2.0142  0.0698 -0.0961
  161MOL0     H22181   4.283   0.784   3.592 -1.5373 -1.5329 -2.9130
  161MOL0     H22182   4.303   0.366   3.691  2.5425  1.3667  0.8389
  161MOL0     H22183   4.264   0.387   3.859 -1.1687 -1.7868 -0.4043
  161MOL0     H22184   4.060   0.299   3.798 -3.0728  2.5523  1.5205
  161MOL0     H22185   4.029   0.468   3.775 -1.9659 -1.0757 -0.6147
  161MOL0     H22186   4.147   0.288   3.556 -0.5480 -1.3950  1.9370
  161MOL0     H22187   4.069   0.444   3.527  0.0692 -0.3984 -0.9468
  161MOL0     H22188   3.871   0.321   3.646 -1.2212  0.5036 -1.2192
  161MOL0     H22189   3.961   0.175   3.587  2.8076  0.2682 -2.4291
  161MOL0     H22190   3.974   0.313   3.357 -2.5157 -2.7354 -4.1921
  161MOL0     H22191   3.838   0.216   3.402 -1.7459  0.8995  1.1401
  161MOL0     H22192   3.860   0.534   3.439  1.4962 -0.7637  2.1010
  161MOL0     H22193   3.729   0.435   3.502  1.2401  2.0435  0.0037
  161MOL0     H22194   3.654   0.358   3.263  1.1916  0.8736 -1.6459
  161MOL0     H22195   3.783   0.456   3.195 -1.6328  2.8782 -0.7014
  161MOL0     H22196   3.565   0.580   3.352 -0.4235  0.3973 -0.4228
  161MOL0     H22197   3.582   0.572   3.173 -2.3457  3.1180  0.6461
  161MOL0     H22198   4.494   0.451   3.764 -0.4085 -2.1159 -2.4837
  161MOL0     H22199   4.693   0.503   3.619  0.5965  0.1281  1.6535
  161MOL0     H22200   4.955   0.618   3.418  0.2235 -1.2194 -0.8420
  161MOL0     H22201   5.178   0.617   3.315  1.1640  2.0282  0.2757
  161MOL0     H22202   5.526   2.255   3.700 -0.1807  0.1218 -0.2732
  161MOL0     H22203   5.671   2.453   3.696  0.9083  0.6995  1.8519
  161MOL0     H22204   5.979   2.817   3.774  0.6802  2.3132  0.9453
  161MOL0     H22205   6.112   2.987   3.667  2.7725  0.0320  0.1036
  161MOL0     H22206   6.310   3.132   3.383 -0.3905 -2.4505 -1.9902
  161MOL0     H22207   6.244   3.107   3.544 -0.1676 -0.8968  0.6880
  161MOL0     H22208   6.462   3.003   3.616 -1.2066  0.6454  0.7443
  161MOL0     H22209   6.496   3.154   3.551 -1.3623  0.6619 -1.6396
  161MOL0     H22210   6.520   2.902   3.384 -1.5458  0.4146  2.0022
  161MOL0     H22211   6.548   3.071   3.329 -0.8673  0.0863 -0.3651
  161MOL0     H22212   6.674   2.937   3.571 -1.9570  0.8615  0.6193
  161MOL0     H22213   6.723   3.097   3.503  0.4077 -1.0238  1.7162
  161MOL0     H22214   6.887   2.794   3.241  0.0247 -1.3641  1.4537
  161MOL0     H22215   6.230   2.716   3.356  1.0530 -1.9048  0.9331
  161MOL0     H22216   6.138   2.421   3.450  0.5782  0.6212 -3.8116
  161MOL0     H22217   5.984   2.497   3.411 -0.1189 -4.0105  1.0048
  161MOL0     H22218   6.143   2.540   3.328  0.3376 -2.3182 -0.8188
  162MOL0     O22219   2.431  11.470   6.178 -0.5750 -0.0160  0.3233
  162MOL0     C22220   2.552  11.488   6.150  0.5964 -1.3298 -0.3898
  162MOL0     O22221   2.650  11.524   6.237 -0.3916  0.9998  0.1228
  162MOL0     C22222   2.631  11.517   6.375  0.2024  0.5455  0.1153
  162MOL0     C22223   2.635  11.632   6.458 -0.4226  0.1943 -0.9395
  162MOL0     C22224   2.600  11.617   6.595 -0.2117 -0.3613  0.6540
  162MOL0     C22225   2.569  11.495   6.654  0.8324 -0.3823 -0.4011
  162MOL0     O22226   2.527  11.490   6.785 -0.2189 -0.9967  0.2864
  162MOL0     C22227   2.572  11.393   6.871  0.0835 -0.3855  0.0952
  162MOL0     C22228   2.460  11.383   6.975  0.7311  0.4265  0.3696
  162MOL0     C22229   2.514  11.291   7.091 -0.7746 -0.2145 -0.0349
  162MOL0     C22230   2.411  11.281   7.201  0.2835  0.1860 -0.7320
  162MOL0     C22231   2.449  11.179   7.306 -0.3139 -0.1155 -0.2670
  162MOL0     C22232   2.576  11.220   7.379 -0.0154 -0.2033 -0.3592
  162MOL0     C22233   2.635  11.122   7.480  0.3347 -0.3939 -0.9303
  162MOL0     C22234   2.528  11.077   7.585  0.0087  0.0013 -0.1257
  162MOL0     N22235   2.591  11.011   7.706 -0.5044 -0.4119  0.8093
  162MOL0     C22236   2.542  11.027   7.832 -0.6257 -0.6949  0.9910
  162MOL0     C22237   2.619  10.941   7.903 -0.2397 -0.5231 -0.7839
  162MOL0     C22238   2.610  10.910   8.046  0.0028 -0.9681  0.9899
  162MOL0     C22239   2.590  11.042   8.129 -0.4540  0.8300 -0.1761
  162MOL0     C22240   2.713  11.139   8.130  0.3552  0.0149  0.8291
  162MOL0     C22241   2.668  11.280   8.166  0.9900 -0.7903  0.1776
  162MOL0     O22242   2.557  11.331   8.085  0.5547 -0.2413  0.3779
  162MOL0     C22243   2.585  11.367   7.951 -0.1842  0.0071  0.4763
  162MOL0     C22244   2.480  11.413   7.876 -0.3102 -0.7613 -0.0253
  162MOL0     C22245   2.498  11.479   7.753 -0.2834 -0.2517 -0.6913
  162MOL0     C22246   2.373  11.538   7.691 -0.0553  0.0855  0.5784
  162MOL0     C22247   2.626  11.486   7.693 -0.0999  0.2464  0.2443
  162MOL0     C22248   2.666  11.575   7.566 -0.7567  0.7745  0.6177
  162MOL0     O22249   2.795  11.595   7.539  0.2212 -0.3949  0.1937
  162MOL0     C22250   2.845  11.636   7.416  1.0347 -0.5247 -0.8454
  162MOL0     C22251   2.974  11.681   7.422 -0.9638  0.5912 -0.4009
  162MOL0     C22252   3.045  11.719   7.305 -0.0198 -0.2483 -0.2332
  162MOL0     C22253   2.983  11.708   7.175 -0.0013 -0.4811 -0.2032
  162MOL0     O22254   3.038  11.735   7.055  0.2873 -0.0267  0.1214
  162MOL0     C22255   3.169  11.677   7.041  0.0758  0.8057 -0.1684
  162MOL0     C22256   3.224  11.746   6.902  0.8283 -0.1361  0.2824
  162MOL0     C22257   3.372  11.762   6.929  0.6580  0.3729  0.3690
  162MOL0     C22258   3.443  11.845   6.815 -0.8730 -0.3720 -0.1581
  162MOL0     C22259   3.427  11.999   6.838  1.0713 -0.3950  0.9835
  162MOL0     C22260   3.461  12.080   6.709  0.3174  0.3870  0.2123
  162MOL0     C22261   3.447  12.232   6.730 -0.4282 -0.4804 -0.6862
  162MOL0     C22262   3.310  12.282   6.704  0.2100 -0.3560 -0.3450
  162MOL0    Cl22263   3.311  12.409   6.581 -0.5000 -1.0041 -0.1285
  162MOL0     C22264   2.846  11.686   7.172 -0.0171  0.4825 -0.5824
  162MOL0     C22265   2.784  11.638   7.294  0.2867  0.2381 -0.5687
  162MOL0     O22266   2.571  11.610   7.497  0.5776 -0.5563 -0.1707
  162MOL0     C22267   2.731  11.421   7.759 -0.6921  0.4561 -0.2334
  162MOL0     C22268   2.710  11.361   7.886 -0.7153  1.7257  0.3737
  162MOL0     N22269   2.718  10.889   7.824  0.0531 -0.4192 -0.1486
  162MOL0     N22270   2.690  10.927   7.707 -0.6673  0.4882 -0.7323
  162MOL0     C22271   2.572  11.390   6.571  0.2533 -0.6634 -0.1073
  162MOL0     C22272   2.604  11.400   6.440  0.5220  0.8785 -0.4270
  162MOL0     C22273   2.598  11.451   6.008  0.0028 -0.4304  0.0225
  162MOL0     C22274   2.728  11.406   5.980  0.2636 -0.3944 -0.1366
  162MOL0     C22275   2.776  11.361   5.861 -0.9932 -0.5753 -0.5902
  162MOL0     C22276   2.682  11.346   5.750 -0.3415 -1.0815 -0.4779
  162MOL0     O22277   2.708  11.298   5.626  0.1507  0.0457 -0.9551
  162MOL0     C22278   2.832  11.251   5.591 -0.5150 -0.7358  0.4632
  162MOL0     C22279   2.853  11.227   5.445  0.1422 -0.5967 -0.2443
  162MOL0     C22280   2.733  11.164   5.374 -0.8871  0.3984 -0.4243
  162MOL0     C22281   2.777  11.127   5.230  0.4114 -0.3590  1.0453
  162MOL0     C22282   2.834  10.995   5.215 -0.5032 -0.7671 -0.8372
  162MOL0     C22283   2.889  10.890   5.200  0.1402 -0.3939 -0.6122
  162MOL0     C22284   2.554  11.395   5.774 -0.0160  0.8495 -0.2496
  162MOL0     C22285   2.512  11.441   5.896  0.3930  0.2844 -0.6097
  162MOL0     C22286   2.377  11.493   5.909  0.5963  0.7475 -0.3670
  162MOL0     H22287   2.670  11.730   6.428 -0.2082  0.0933 -1.0243
  162MOL0     H22288   2.587  11.701   6.662 -1.4461  0.3789 -0.4721
  162MOL0     H22289   2.663  11.436   6.914  1.3585 -1.0877 -1.7886
  162MOL0     H22290   2.603  11.296   6.830  5.9573  1.6547 -1.2345
  162MOL0     H22291   2.434  11.484   7.007  0.3030  0.8852 -1.3496
  162MOL0     H22292   2.372  11.338   6.929  0.7985 -0.0369  0.6855
  162MOL0     H22293   2.538  11.197   7.041 -0.6910 -1.4310  2.1589
  162MOL0     H22294   2.612  11.333   7.116  0.0090 -1.0350 -1.5613
  162MOL0     H22295   2.402  11.379   7.248 -0.7140  0.0622 -0.6408
  162MOL0     H22296   2.318  11.260   7.147 -0.5224  2.1828 -0.1978
  162MOL0     H22297   2.475  11.081   7.266  1.9751  0.3845 -0.1352
  162MOL0     H22298   2.368  11.172   7.378  0.3540 -2.8769  0.3326
  162MOL0     H22299   2.664  11.246   7.320 -0.9071  3.7870 -0.2294
  162MOL0     H22300   2.544  11.308   7.436  0.5668  0.2077 -0.6624
  162MOL0     H22301   2.711  11.186   7.527  1.6526 -2.6768  0.2269
  162MOL0     H22302   2.680  11.031   7.440  0.3516 -0.6677 -0.3076
  162MOL0     H22303   2.479  11.168   7.621  2.3866  0.5055  2.2314
  162MOL0     H22304   2.463  11.004   7.537  1.4375  0.5898 -3.2136
  162MOL0     H22305   2.463  11.089   7.873  0.7386  0.4586  1.9528
  162MOL0     H22306   2.703  10.859   8.072  0.3000 -1.1516 -0.3291
  162MOL0     H22307   2.525  10.843   8.062 -0.1197 -0.8624  0.7873
  162MOL0     H22308   2.500  11.094   8.095 -0.9114 -0.2384 -0.6486
  162MOL0     H22309   2.570  11.011   8.232 -0.0810 -3.1787 -1.1508
  162MOL0     H22310   2.780  11.103   8.208 -0.4241 -0.4198  1.3063
  162MOL0     H22311   2.763  11.145   8.033  0.3091  0.7115  0.8418
  162MOL0     H22312   2.636  11.275   8.270 -0.0535 -1.7418 -0.1730
  162MOL0     H22313   2.753  11.349   8.161  0.2769 -0.0001 -2.0316
  162MOL0     H22314   2.380  11.428   7.915 -0.4489  3.3258 -1.4738
  162MOL0     H22315   2.373  11.646   7.674  4.4225 -0.0024 -1.4340
  162MOL0     H22316   2.293  11.498   7.754 -0.2510  1.4761  1.2309
  162MOL0     H22317   2.354  11.478   7.601 -1.6074 -2.2615  2.3218
  162MOL0     H22318   3.035  11.694   7.511  1.8689 -0.5095 -2.0541
  162MOL0     H22319   3.150  11.745   7.307 -0.0433 -0.1621  0.4686
  162MOL0     H22320   3.224  11.721   7.124 -0.8207  2.4467 -0.4064
  162MOL0     H22321   3.181  11.569   7.054 -1.8838  0.8289  2.9381
  162MOL0     H22322   3.222  11.685   6.811  2.5007  1.0441 -0.6172
  162MOL0     H22323   3.176  11.841   6.876 -0.0772  0.2209  3.0034
  162MOL0     H22324   3.420  11.665   6.940  4.3325  2.0308  0.3756
  162MOL0     H22325   3.387  11.815   7.024  0.5666  1.7186 -0.3316
  162MOL0     H22326   3.408  11.806   6.719 -1.9517 -0.9830  0.4623
  162MOL0     H22327   3.551  11.830   6.822 -0.1623  2.9387 -1.9401
  162MOL0     H22328   3.323  12.009   6.870  0.8512 -2.6930  1.1356
  162MOL0     H22329   3.479  12.038   6.926 -2.4579 -0.1864  3.1693
  162MOL0     H22330   3.407  12.052   6.618 -1.8836 -0.0784  1.5967
  162MOL0     H22331   3.568  12.068   6.691  0.0030 -3.3420  0.0094
  162MOL0     H22332   3.513  12.281   6.657  1.3816  0.3429  1.3969
  162MOL0     H22333   3.482  12.267   6.828  2.8589 -2.2989 -1.0628
  162MOL0     H22334   3.277  12.330   6.797  0.3720  0.6901 -0.8085
  162MOL0     H22335   3.239  12.206   6.671 -2.6745  2.0920 -0.2156
  162MOL0     H22336   2.797  11.701   7.077 -3.0186  1.9133  1.0564
  162MOL0     H22337   2.676  11.624   7.288  0.0891  1.9320 -1.8791
  162MOL0     H22338   2.833  11.420   7.721 -0.2948 -1.8261  0.6982
  162MOL0     H22339   2.792  11.323   7.945 -1.2527 -0.0729  0.0004
  162MOL0     H22340   2.543  11.291   6.604  0.1025 -0.7522 -0.5051
  162MOL0     H22341   2.592  11.314   6.375  0.5231 -1.9668  3.0386
  162MOL0     H22342   2.806  11.426   6.053  1.9217  0.8118 -2.1480
  162MOL0     H22343   2.882  11.340   5.849  0.4443  3.7494  1.9608
  162MOL0     H22344   2.912  11.318   5.625 -0.7983 -0.2112  0.1118
  162MOL0     H22345   2.869  11.165   5.647  3.8886  1.0864  0.7416
  162MOL0     H22346   2.936  11.156   5.435 -0.5073 -1.2984 -0.7433
  162MOL0     H22347   2.895  11.309   5.386  0.3258 -1.4827 -1.3969
  162MOL0     H22348   2.703  11.073   5.426  0.5332 -0.0090 -0.2785
  162MOL0     H22349   2.644  11.227   5.366 -1.5858 -0.1599  2.0094
  162MOL0     H22350   2.830  11.214   5.191 -1.3634  1.5710  2.6789
  162MOL0     H22351   2.688  11.108   5.170  1.2747 -2.7191  0.4119
  162MOL0     H22352   2.936  10.796   5.180  1.2120  0.6394 -3.4451
  162MOL0     H22353   2.473  11.406   5.702 -2.9746  1.6322  2.9365
  162MOL0     H22354   2.367  11.590   5.960 -0.3303  0.7320 -0.4904
  162MOL0     H22355   2.345  11.507   5.806  1.5537 -2.0639 -1.1321
  162MOL0     H22356   2.310  11.421   5.957  0.1228  1.4410  0.0285
  163MOL0     O22357   3.278   6.221  10.008  0.2755  0.2289 -0.0250
  163MOL0     C22358   3.172   6.170   9.982 -0.0253  0.3149 -0.0348
  163MOL0     O22359   3.089   6.201   9.875  0.3883 -0.2024 -0.4345
  163MOL0     C22360   3.095   6.332   9.824  0.1445  0.0844 -0.4451
  163MOL0     C22361   3.050   6.433   9.910  0.4226  0.6507 -0.9551
  163MOL0     C22362   3.067   6.567   9.886 -0.1449 -0.4601  0.4832
  163MOL0     C22363   3.119   6.603   9.760  0.6895  0.2654 -0.6696
  163MOL0     O22364   3.130   6.732   9.744 -0.7156 -0.3399 -0.3039
  163MOL0     C22365   3.240   6.777   9.659  0.1620 -0.5846 -0.3215
  163MOL0     C22366   3.267   6.922   9.695 -0.5420  0.2546  0.4276
  163MOL0     C22367   3.170   7.019   9.631  0.1618 -0.2976 -0.4807
  163MOL0     C22368   3.240   7.147   9.588 -0.9878 -0.1337 -0.2577
  163MOL0     C22369   3.327   7.117   9.458  0.4494  0.2912 -0.5104
  163MOL0     C22370   3.250   7.070   9.336  0.2174 -0.9025 -0.6119
  163MOL0     C22371   3.348   7.055   9.211 -0.1058  0.3124 -0.3030
  163MOL0     C22372   3.458   6.957   9.228  0.2908  0.1868 -0.8978
  163MOL0     N22373   3.408   6.819   9.258 -0.3988  0.6058  0.2730
  163MOL0     C22374   3.408   6.710   9.173 -0.1418 -0.0124  0.1473
  163MOL0     C22375   3.384   6.606   9.254  0.6130  0.4177  0.6567
  163MOL0     C22376   3.364   6.455   9.227 -0.9848 -0.0503  0.3716
  163MOL0     C22377   3.503   6.390   9.191 -0.6437 -0.5643  0.1560
  163MOL0     C22378   3.588   6.368   9.320  0.8049  0.7194 -0.2663
  163MOL0     C22379   3.695   6.262   9.316 -0.4040 -0.3089 -0.4719
  163MOL0     O22380   3.618   6.138   9.324 -0.8338  0.0128  0.2438
  163MOL0     C22381   3.686   6.025   9.363  0.4572 -0.6435  0.0545
  163MOL0     C22382   3.612   5.912   9.369 -1.0087 -0.5804  0.4413
  163MOL0     C22383   3.668   5.790   9.400  0.5083  0.5594 -0.2456
  163MOL0     C22384   3.576   5.672   9.423  1.6180 -0.3287  0.4283
  163MOL0     C22385   3.812   5.777   9.423 -0.1342  0.0581  0.9785
  163MOL0     C22386   3.887   5.647   9.429 -1.0091 -0.4081 -0.3392
  163MOL0     O22387   4.008   5.629   9.371 -0.9106 -0.5522  0.4330
  163MOL0     C22388   4.056   5.503   9.381 -0.5663 -0.7135  0.4501
  163MOL0     C22389   4.011   5.417   9.280 -0.1825  0.2573  0.5750
  163MOL0     C22390   4.061   5.294   9.275  0.5006 -0.0627 -0.9918
  163MOL0     C22391   4.155   5.256   9.363 -0.9298 -0.5466 -0.0711
  163MOL0     O22392   4.198   5.126   9.340  0.6763  0.3939  0.5537
  163MOL0     C22393   4.271   5.057   9.440 -0.3288  0.6817 -0.9699
  163MOL0     C22394   4.159   4.990   9.511 -0.1096 -0.1073 -0.3337
  163MOL0     C22395   4.207   4.848   9.562 -0.0669  0.2082  0.0081
  163MOL0     C22396   4.114   4.788   9.661 -0.4486 -0.3113 -0.2647
  163MOL0     C22397   4.171   4.655   9.718  0.2576 -0.2693 -0.2141
  163MOL0     C22398   4.185   4.554   9.602 -0.4096 -0.0011  0.6955
  163MOL0     C22399   4.228   4.410   9.640  1.0565  0.1571 -0.0676
  163MOL0     C22400   4.225   4.318   9.518  0.2834 -0.3282  0.0324
  163MOL0    Cl22401   4.358   4.363   9.413  0.1902  0.2274  0.0865
  163MOL0     C22402   4.216   5.348   9.451 -1.1688  0.2929  0.3463
  163MOL0     C22403   4.161   5.469   9.461 -0.3706  0.4437 -0.1547
  163MOL0     O22404   3.847   5.571   9.517  0.1724 -0.6014 -0.0486
  163MOL0     C22405   3.885   5.892   9.437 -0.3217  0.2782  0.4475
  163MOL0     C22406   3.822   6.015   9.411 -0.0501  0.3951  0.1339
  163MOL0     N22407   3.372   6.655   9.385  0.2696  0.2376 -0.3147
  163MOL0     N22408   3.374   6.782   9.383 -0.2223 -0.2396  0.1615
  163MOL0     C22409   3.167   6.511   9.674  0.7059 -0.1559  0.0013
  163MOL0     C22410   3.166   6.374   9.703  0.1620 -0.3773 -0.3000
  163MOL0     C22411   3.141   6.043  10.045 -0.4949 -0.2019  0.3837
  163MOL0     C22412   3.222   5.931  10.012  0.0344 -0.4148  0.0399
  163MOL0     C22413   3.191   5.802  10.065  0.6008 -0.7083 -0.5182
  163MOL0     C22414   3.087   5.790  10.153  0.2633 -0.2007  0.7496
  163MOL0     O22415   3.048   5.666  10.190 -0.0779  0.2463 -0.4368
  163MOL0     C22416   2.995   5.585  10.081  0.2254 -0.2630  0.3307
  163MOL0     C22417   2.936   5.460  10.142 -0.0255 -0.0085 -0.1563
  163MOL0     C22418   3.018   5.359  10.221  0.8376  0.0949 -0.0999
  163MOL0     C22419   3.118   5.281  10.142 -0.3207  0.5957  0.8738
  163MOL0     C22420   3.045   5.185  10.058 -0.1789 -0.6201  0.3249
  163MOL0     C22421   2.985   5.102   9.987 -0.6294 -0.0326 -0.3787
  163MOL0     C22422   3.011   5.906  10.191 -0.3256 -0.4304 -0.5725
  163MOL0     C22423   3.029   6.028  10.133 -1.0074  0.7242  0.7713
  163MOL0     C22424   2.934   6.146  10.162 -0.3559  0.5073  0.4616
  163MOL0     H22425   2.997   6.417  10.003 -1.0946 -0.3303 -1.9573
  163MOL0     H22426   3.056   6.644   9.962  0.4617  0.1521 -0.0327
  163MOL0     H22427   3.195   6.765   9.560 -3.5423 -2.8227  1.4158
  163MOL0     H22428   3.334   6.721   9.663  0.9217  0.6670 -0.2872
  163MOL0     H22429   3.255   6.930   9.804 -1.8107 -4.9333  0.9326
  163MOL0     H22430   3.370   6.937   9.662  0.4474 -0.7801  2.7886
  163MOL0     H22431   3.111   6.970   9.552  0.7831 -0.7345 -0.6853
  163MOL0     H22432   3.099   7.061   9.703 -1.0870 -1.1500 -1.1745
  163MOL0     H22433   3.184   7.240   9.576  1.0570  1.2539  0.4165
  163MOL0     H22434   3.304   7.173   9.673 -1.7284  0.9752 -0.0121
  163MOL0     H22435   3.421   7.062   9.474  1.1961  1.1146 -1.8625
  163MOL0     H22436   3.371   7.216   9.441  0.9004  0.2716  0.4701
  163MOL0     H22437   3.197   6.979   9.365  0.6140 -2.1399 -3.4624
  163MOL0     H22438   3.177   7.149   9.316 -0.8571 -1.3297  1.3741
  163MOL0     H22439   3.398   7.149   9.187 -0.4182  0.6300  0.2646
  163MOL0     H22440   3.297   7.030   9.117  0.1506  1.8050 -0.8686
  163MOL0     H22441   3.521   6.952   9.139  2.2077  1.3906  0.3162
  163MOL0     H22442   3.533   6.982   9.304  1.0547 -1.8223 -0.9329
  163MOL0     H22443   3.413   6.699   9.065 -2.0623  0.8809 -0.0751
  163MOL0     H22444   3.298   6.462   9.139  0.8204 -0.0171 -1.0418
  163MOL0     H22445   3.307   6.399   9.301 -2.7481  1.8142  0.5146
  163MOL0     H22446   3.501   6.306   9.121  0.4916 -0.4104 -0.0813
  163MOL0     H22447   3.556   6.467   9.135 -3.9518  1.2423 -0.7683
  163MOL0     H22448   3.641   6.458   9.349 -1.0218  2.2273 -1.3679
  163MOL0     H22449   3.517   6.341   9.399  2.0955  2.1972  1.4553
  163MOL0     H22450   3.750   6.279   9.223  0.9362  0.0795  0.3775
  163MOL0     H22451   3.754   6.267   9.407 -1.6194  0.2186  0.3125
  163MOL0     H22452   3.505   5.925   9.350 -1.2685  1.6991  2.7722
  163MOL0     H22453   3.599   5.599   9.501  2.1914  0.2517  0.8094
  163MOL0     H22454   3.558   5.619   9.329 -0.2445 -0.7393  0.9670
  163MOL0     H22455   3.481   5.713   9.459  1.0104 -3.2387  2.6020
  163MOL0     H22456   3.938   5.459   9.212  1.0363  0.6260 -0.5552
  163MOL0     H22457   4.034   5.225   9.196 -0.4797  1.1545 -1.7597
  163MOL0     H22458   4.346   4.987   9.403 -0.3763 -0.2271  0.5365
  163MOL0     H22459   4.309   5.122   9.520 -5.9198  0.5181  2.3410
  163MOL0     H22460   4.142   5.056   9.597 -0.4472  1.6253 -1.6764
  163MOL0     H22461   4.068   4.981   9.452 -0.0670  1.5434 -0.6996
  163MOL0     H22462   4.308   4.859   9.602 -0.4238 -2.3366  1.8308
  163MOL0     H22463   4.220   4.788   9.471 -0.0154  3.4239 -2.3212
  163MOL0     H22464   4.015   4.772   9.617 -0.4301 -0.2042 -0.3463
  163MOL0     H22465   4.112   4.855   9.747  0.3074  0.6072 -0.9472
  163MOL0     H22466   4.262   4.691   9.766 -1.1186  1.0479  1.5810
  163MOL0     H22467   4.107   4.614   9.797 -1.5135  0.7060 -1.0704
  163MOL0     H22468   4.258   4.598   9.532  0.1421 -0.4843  0.9660
  163MOL0     H22469   4.085   4.542   9.558 -0.8314  0.0859  1.6169
  163MOL0     H22470   4.160   4.363   9.712 -0.7285  0.4694 -1.4773
  163MOL0     H22471   4.328   4.415   9.683  2.0335  0.7377 -2.2558
  163MOL0     H22472   4.133   4.337   9.461  0.6739  0.0842 -0.4642
  163MOL0     H22473   4.217   4.214   9.551 -1.2612 -0.9827 -2.1772
  163MOL0     H22474   4.290   5.324   9.526 -0.8194  0.9339  0.2033
  163MOL0     H22475   4.209   5.549   9.516 -1.4326  1.2056 -0.3166
  163MOL0     H22476   3.991   5.893   9.456 -0.2479  1.0511  0.0295
  163MOL0     H22477   3.883   6.104   9.425  0.1302  0.1855  0.7395
  163MOL0     H22478   3.226   6.540   9.587 -0.1377 -1.2530 -0.9611
  163MOL0     H22479   3.222   6.309   9.637  2.8955  1.9740 -0.5126
  163MOL0     H22480   3.306   5.945   9.945  1.5141 -1.8768  1.5035
  163MOL0     H22481   3.248   5.715  10.032 -0.5652 -1.4185 -0.6974
  163MOL0     H22482   2.926   5.634  10.012  2.5560  0.0244 -1.9548
  163MOL0     H22483   3.077   5.564  10.011  1.0436 -0.6508  1.3576
  163MOL0     H22484   2.874   5.412  10.066  0.8411  0.6931 -1.3629
  163MOL0     H22485   2.859   5.492  10.212 -0.7959 -0.9588 -0.5499
  163MOL0     H22486   3.067   5.405  10.307  0.8249  0.6340 -0.3795
  163MOL0     H22487   2.946   5.295  10.274  2.3081 -1.0331  0.6194
  163MOL0     H22488   3.173   5.228  10.220 -0.8920  0.6001  1.2917
  163MOL0     H22489   3.178   5.347  10.079 -2.0557  1.8876  0.5100
  163MOL0     H22490   2.940   5.032   9.920  2.0696 -3.3455  0.9435
  163MOL0     H22491   2.916   5.907  10.244  0.1212  1.1283  0.2630
  163MOL0     H22492   2.861   6.113  10.235  0.9158 -0.2990  1.4089
  163MOL0     H22493   2.985   6.231  10.210  0.0588  0.4624  0.1096
  163MOL0     H22494   2.889   6.176  10.067  1.7754  0.5902 -0.6008
  164MOL0     O22495   6.244  11.077   4.851  0.3220 -1.3514  0.2379
  164MOL0     C22496   6.138  11.122   4.868 -0.3645  0.0871 -0.6973
  164MOL0     O22497   6.118  11.252   4.890 -0.0576  0.2721 -0.0401
  164MOL0     C22498   6.220  11.329   4.953  0.3130 -0.3248  0.3519
  164MOL0     C22499   6.317  11.277   5.041 -0.0050  1.1547  0.1353
  164MOL0     C22500   6.408  11.357   5.098 -0.5933 -1.4032  0.0862
  164MOL0     C22501   6.414  11.489   5.060  0.2904 -0.6044  0.7610
  164MOL0     O22502   6.505  11.577   5.120  0.2669  0.4725 -0.0009
  164MOL0     C22503   6.632  11.581   5.050 -0.4253 -0.1737 -0.1129
  164MOL0     C22504   6.724  11.697   5.100 -0.1071 -1.4428  0.4213
  164MOL0     C22505   6.795  11.669   5.236 -0.1112  0.1776 -0.0973
  164MOL0     C22506   6.919  11.766   5.246 -0.1708  0.1397 -0.2764
  164MOL0     C22507   7.036  11.710   5.339  0.0401  0.0910 -0.7476
  164MOL0     C22508   6.977  11.683   5.474  0.4795 -0.7236  0.4097
  164MOL0     C22509   6.887  11.789   5.543 -0.4593 -0.0310 -0.1042
  164MOL0     C22510   6.859  11.758   5.686 -0.1417  0.1573 -0.4773
  164MOL0     N22511   6.756  11.858   5.726 -0.2352  0.0001 -0.4587
  164MOL0     C22512   6.761  11.994   5.713 -0.1839  0.8999 -0.1001
  164MOL0     C22513   6.657  12.043   5.770  0.0644 -1.7420 -0.4589
  164MOL0     C22514   6.637  12.190   5.788  0.8407 -0.1585  0.0544
  164MOL0     C22515   6.565  12.245   5.658  0.8553 -0.2356 -1.4608
  164MOL0     C22516   6.406  12.231   5.674  0.3526 -0.1074  0.0307
  164MOL0     C22517   6.335  12.283   5.548 -0.3096  0.2973 -0.3760
  164MOL0     O22518   6.196  12.288   5.574  0.0462 -0.3138 -0.0120
  164MOL0     C22519   6.112  12.301   5.467 -0.2078 -0.5557  0.0227
  164MOL0     C22520   6.141  12.385   5.360 -0.5678  0.0018 -0.5977
  164MOL0     C22521   6.040  12.431   5.271 -0.4547 -0.4366 -0.7150
  164MOL0     C22522   6.096  12.518   5.164  0.0972 -0.0394  0.0175
  164MOL0     C22523   5.902  12.391   5.307  0.1593  0.2051  0.6193
  164MOL0     C22524   5.786  12.449   5.236 -0.4475  0.0010 -0.2498
  164MOL0     O22525   5.801  12.534   5.128 -0.2527 -0.4261  0.0079
  164MOL0     C22526   5.702  12.583   5.050 -0.0221  0.1837  0.3915
  164MOL0     C22527   5.750  12.673   4.952  0.2110  0.2900  0.9645
  164MOL0     C22528   5.663  12.748   4.870 -0.1325  0.2092  0.3849
  164MOL0     C22529   5.521  12.717   4.870 -0.1483  0.1315 -0.4213
  164MOL0     O22530   5.433  12.778   4.788  0.3412  0.0568  0.0790
  164MOL0     C22531   5.488  12.896   4.710  0.0192 -0.0818 -0.6534
  164MOL0     C22532   5.372  12.942   4.636 -0.4761 -0.4048 -0.6472
  164MOL0     C22533   5.392  13.081   4.580 -0.5482 -0.1673 -0.3777
  164MOL0     C22534   5.366  13.181   4.686 -0.4330  0.9932  0.4148
  164MOL0     C22535   5.357  13.323   4.614  0.3254  0.1535  0.8906
  164MOL0     C22536   5.316  13.441   4.703  0.5181  0.2284 -0.9587
  164MOL0     C22537   5.170  13.437   4.755 -0.5814 -0.3759  1.6206
  164MOL0     C22538   5.127  13.566   4.825 -0.0573  0.3335  1.0354
  164MOL0    Cl22539   4.971  13.535   4.909 -0.2877  0.0245 -0.1359
  164MOL0     C22540   5.472  12.616   4.959 -0.3822 -0.5328  0.3129
  164MOL0     C22541   5.561  12.565   5.057 -0.2881  0.4024 -0.2150
  164MOL0     O22542   5.674  12.417   5.283 -0.6461  0.8824 -0.3221
  164MOL0     C22543   5.877  12.296   5.405 -0.8055 -0.8569  0.2687
  164MOL0     C22544   5.986  12.254   5.486 -0.8841  0.0490  0.1456
  164MOL0     N22545   6.575  11.947   5.810 -0.4862  0.9974  0.5227
  164MOL0     N22546   6.636  11.833   5.787 -0.8668 -0.3684  0.8779
  164MOL0     C22547   6.315  11.543   4.976 -0.0372 -0.2259  0.1514
  164MOL0     C22548   6.223  11.466   4.914  0.1430  0.3622 -0.2444
  164MOL0     C22549   6.018  11.022   4.872  0.0584 -0.6113  0.3167
  164MOL0     C22550   6.035  10.890   4.825  0.5647  0.2719  0.2274
  164MOL0     C22551   5.926  10.803   4.812 -0.2263  0.1631 -0.2956
  164MOL0     C22552   5.797  10.826   4.850  0.3109 -0.0344 -0.4729
  164MOL0     O22553   5.686  10.745   4.823 -0.3148 -0.2726 -0.2107
  164MOL0     C22554   5.725  10.604   4.840 -1.1464 -0.4120 -0.7928
  164MOL0     C22555   5.602  10.525   4.880  0.4243  0.1138  0.0072
  164MOL0     C22556   5.624  10.412   4.974 -0.3183  0.1626 -0.1962
  164MOL0     C22557   5.492  10.333   5.005 -0.3197  0.0587  0.5179
  164MOL0     C22558   5.398  10.408   5.087  0.3157 -0.1110 -0.5089
  164MOL0     C22559   5.330  10.458   5.171  0.2763  0.1771  0.0967
  164MOL0     C22560   5.776  10.961   4.900  0.0389 -0.1238  0.0230
  164MOL0     C22561   5.882  11.059   4.914  0.2697  0.8442  0.1507
  164MOL0     C22562   5.833  11.199   4.949 -0.2348  0.1680  0.4626
  164MOL0     H22563   6.325  11.171   5.064 -0.1625  1.2505  0.6480
  164MOL0     H22564   6.485  11.333   5.171  0.6780 -0.2159 -0.8299
  164MOL0     H22565   6.624  11.579   4.941  0.6841  1.0534 -0.2338
  164MOL0     H22566   6.674  11.484   5.081  1.1891  1.6867  4.3707
  164MOL0     H22567   6.795  11.731   5.023  1.0239 -0.3639  1.8750
  164MOL0     H22568   6.655  11.782   5.106  1.1039 -0.2396 -1.4329
  164MOL0     H22569   6.723  11.691   5.316  1.0366  0.1066  0.9934
  164MOL0     H22570   6.823  11.563   5.236 -2.7703 -0.7109 -3.7960
  164MOL0     H22571   6.976  11.785   5.154  0.6323  1.0224  0.3860
  164MOL0     H22572   6.896  11.867   5.282  0.9817  0.7973 -1.2987
  164MOL0     H22573   7.112  11.788   5.332 -0.4749  0.4263 -3.6367
  164MOL0     H22574   7.083  11.617   5.307 -0.5967 -1.3121  2.1187
  164MOL0     H22575   6.913  11.595   5.476  2.9325 -2.5865  0.9744
  164MOL0     H22576   7.058  11.670   5.546  2.6218 -0.3064 -1.7767
  164MOL0     H22577   6.793  11.808   5.491 -1.3941  2.1693  2.1963
  164MOL0     H22578   6.939  11.885   5.532  1.2161 -1.1116 -2.6031
  164MOL0     H22579   6.830  11.654   5.706  0.7082 -0.4874 -2.2928
  164MOL0     H22580   6.947  11.779   5.747 -0.5999 -3.1791  1.5922
  164MOL0     H22581   6.848  12.051   5.682 -1.1132  3.0103  1.0216
  164MOL0     H22582   6.736  12.237   5.786 -0.5404  3.0245 -0.7656
  164MOL0     H22583   6.580  12.200   5.880  0.2246  0.3097 -0.3709
  164MOL0     H22584   6.584  12.352   5.656  2.7928 -0.3361  2.1160
  164MOL0     H22585   6.600  12.207   5.562  1.7364  0.7687 -1.5500
  164MOL0     H22586   6.379  12.127   5.692 -2.4069  0.8202  1.7719
  164MOL0     H22587   6.388  12.295   5.761  1.1775 -2.5272  2.1094
  164MOL0     H22588   6.385  12.378   5.524  0.3637 -0.6495 -3.0717
  164MOL0     H22589   6.348  12.211   5.466  2.1145  0.0556  0.1434
  164MOL0     H22590   6.237  12.431   5.339  0.1109  0.4095  2.8566
  164MOL0     H22591   6.048  12.483   5.072 -2.7637  0.8392  1.0815
  164MOL0     H22592   6.204  12.521   5.147  0.2286  3.2365  0.8810
  164MOL0     H22593   6.060  12.621   5.172  0.6928  0.0314  3.0523
  164MOL0     H22594   5.855  12.671   4.928 -0.2811 -2.5502 -1.5226
  164MOL0     H22595   5.715  12.822   4.810 -1.3952 -0.8164 -2.1000
  164MOL0     H22596   5.531  12.974   4.773 -0.6249  0.4091 -0.8023
  164MOL0     H22597   5.559  12.856   4.637 -0.6384 -2.0729 -0.2570
  164MOL0     H22598   5.346  12.881   4.549 -4.1153  2.3443 -1.7623
  164MOL0     H22599   5.283  12.943   4.700 -0.1380 -1.6741 -0.1211
  164MOL0     H22600   5.312  13.092   4.506 -3.9750 -3.2489  2.4481
  164MOL0     H22601   5.489  13.102   4.535  0.0154 -2.0249 -0.1262
  164MOL0     H22602   5.441  13.174   4.766  0.1750 -0.1089 -0.2342
  164MOL0     H22603   5.268  13.156   4.728  0.5588  1.2882  3.1595
  164MOL0     H22604   5.459  13.339   4.577  0.8197 -0.8618  1.7529
  164MOL0     H22605   5.295  13.322   4.525  0.8571  1.3745  0.4910
  164MOL0     H22606   5.339  13.537   4.656  3.6137  1.4881  2.6710
  164MOL0     H22607   5.387  13.438   4.786 -1.3858 -3.2009  0.7777
  164MOL0     H22608   5.158  13.341   4.805  1.6931 -1.2572  0.5959
  164MOL0     H22609   5.105  13.428   4.668 -0.9640  0.5229  1.8022
  164MOL0     H22610   5.105  13.652   4.761  2.7184  1.4653  1.4528
  164MOL0     H22611   5.207  13.590   4.895 -0.6567  0.7585  1.5820
  164MOL0     H22612   5.366  12.592   4.966 -0.3076 -1.5919 -1.5550
  164MOL0     H22613   5.522  12.488   5.123  3.0019 -2.4153 -1.2635
  164MOL0     H22614   5.778  12.262   5.436 -2.5931  2.4485 -1.2990
  164MOL0     H22615   5.979  12.202   5.581 -0.3013 -0.6295 -0.1749
  164MOL0     H22616   6.325  11.649   4.954  1.3800 -0.0189  1.6029
  164MOL0     H22617   6.142  11.500   4.851 -2.0054  0.1508  2.1923
  164MOL0     H22618   6.129  10.848   4.790  1.9866  1.6481  2.1368
  164MOL0     H22619   5.941  10.715   4.749 -1.7734  1.6956 -2.9745
  164MOL0     H22620   5.781  10.571   4.752  0.9321  1.2952 -0.1986
  164MOL0     H22621   5.793  10.598   4.926 -0.1686 -0.0557 -1.5168
  164MOL0     H22622   5.554  10.493   4.787 -1.4572 -0.2329  1.0286
  164MOL0     H22623   5.533  10.592   4.932  0.2508 -0.9098  1.1583
  164MOL0     H22624   5.681  10.331   4.928 -1.8143  0.0107 -1.9159
  164MOL0     H22625   5.666  10.447   5.069 -1.0057  0.3141  0.0615
  164MOL0     H22626   5.525  10.242   5.056 -3.5925 -1.5319  0.0528
  164MOL0     H22627   5.443  10.308   4.911  2.3257  0.2625 -0.9890
  164MOL0     H22628   5.263  10.504   5.241  0.8102  4.0212 -1.6466
  164MOL0     H22629   5.676  10.994   4.925 -0.3524  1.5607 -3.2028
  164MOL0     H22630   5.841  11.221   5.056 -0.0015  1.9815  0.0998
  164MOL0     H22631   5.887  11.280   4.900  0.5025  1.1305  2.7146
  164MOL0     H22632   5.727  11.210   4.926 -0.2435  0.3497  0.5844
  165MOL0     O22633   2.312   4.955   2.619 -0.1831 -0.9360 -0.2239
  165MOL0     C22634   2.272   4.856   2.558  0.2908  0.6245  0.8756
  165MOL0     O22635   2.314   4.803   2.436  0.2609 -0.4010 -0.2489
  165MOL0     C22636   2.441   4.822   2.393 -0.2159  0.2246 -0.1242
  165MOL0     C22637   2.561   4.845   2.459  0.6339 -1.0182 -0.3610
  165MOL0     C22638   2.689   4.855   2.396  0.2814 -0.2334 -0.2105
  165MOL0     C22639   2.695   4.840   2.259 -0.6264 -0.7792 -0.4976
  165MOL0     O22640   2.811   4.845   2.189  0.1335  0.3187 -0.6128
  165MOL0     C22641   2.936   4.855   2.259 -0.6437 -0.2560  0.8496
  165MOL0     C22642   3.050   4.830   2.156 -0.0793  0.7299 -0.2983
  165MOL0     C22643   3.049   4.690   2.081 -1.2159 -0.1211 -0.5260
  165MOL0     C22644   3.144   4.689   1.961  0.1197 -0.2183 -0.7231
  165MOL0     C22645   3.167   4.544   1.904  0.4460 -0.7918  0.0191
  165MOL0     C22646   3.260   4.460   1.996  0.6367 -0.3325  0.1033
  165MOL0     C22647   3.407   4.483   1.962  0.2329  0.6691  0.1827
  165MOL0     C22648   3.500   4.409   2.062  0.4181  0.2874 -0.6021
  165MOL0     N22649   3.644   4.438   2.055  0.2872  0.5051  0.3914
  165MOL0     C22650   3.720   4.396   1.952  1.0738 -0.0124 -0.8772
  165MOL0     C22651   3.837   4.457   1.984 -0.5817 -0.4307  1.1365
  165MOL0     C22652   3.956   4.458   1.877  0.4400 -0.1869 -0.8848
  165MOL0     C22653   4.099   4.469   1.952  0.9697 -0.0332 -0.0036
  165MOL0     C22654   4.189   4.352   1.911 -0.0034 -0.7133 -0.1393
  165MOL0     C22655   4.332   4.366   1.960 -0.4067  0.2242 -0.1526
  165MOL0     O22656   4.371   4.497   1.926 -0.3004  0.1084  0.1533
  165MOL0     C22657   4.502   4.531   1.952 -0.6876  0.4411 -0.3241
  165MOL0     C22658   4.609   4.441   1.919 -0.3317 -0.3199  0.4125
  165MOL0     C22659   4.745   4.464   1.960  0.0289 -0.2172  1.4618
  165MOL0     C22660   4.847   4.359   1.928  0.2075 -0.6184  0.3879
  165MOL0     C22661   4.776   4.586   2.027  0.0809  0.5482  0.2110
  165MOL0     C22662   4.908   4.632   2.097  0.4948  0.5980  0.2988
  165MOL0     O22663   4.900   4.736   2.186 -0.3627 -0.0377  0.0682
  165MOL0     C22664   5.001   4.764   2.275 -0.1585  0.1545  0.0795
  165MOL0     C22665   4.959   4.789   2.408  0.3866 -0.3744  0.3941
  165MOL0     C22666   5.054   4.816   2.504 -0.6313  0.1481 -1.3003
  165MOL0     C22667   5.185   4.834   2.467 -0.6231  1.1878 -0.3266
  165MOL0     O22668   5.278   4.868   2.564 -0.3102  0.5176 -0.1464
  165MOL0     C22669   5.306   4.759   2.646 -1.0471 -0.9861 -0.5469
  165MOL0     C22670   5.352   4.814   2.780 -0.7271 -0.1688 -0.1303
  165MOL0     C22671   5.246   4.857   2.881 -0.5607  0.4960  1.4438
  165MOL0     C22672   5.301   4.919   3.005 -0.3818  0.2920  0.1680
  165MOL0     C22673   5.204   4.990   3.092  0.2366  0.6746 -0.1705
  165MOL0     C22674   5.271   5.020   3.230 -0.2351 -0.2303  0.0027
  165MOL0     C22675   5.183   5.089   3.336  0.3004  0.4324  0.3738
  165MOL0     C22676   5.168   5.240   3.334 -0.4581  0.0964  0.0395
  165MOL0    Cl22677   5.302   5.312   3.420 -0.2088 -0.1142 -0.4966
  165MOL0     C22678   5.228   4.813   2.343 -0.3314  0.0342 -0.1124
  165MOL0     C22679   5.138   4.780   2.240 -0.6554 -0.6637  0.1939
  165MOL0     O22680   5.010   4.566   2.069 -0.0463 -0.4220  0.2409
  165MOL0     C22681   4.665   4.677   2.047 -0.0713 -0.3201 -0.4882
  165MOL0     C22682   4.532   4.655   2.005 -0.0813  0.1778  0.4843
  165MOL0     N22683   3.826   4.532   2.100  0.7313  0.1129  0.7484
  165MOL0     N22684   3.706   4.517   2.138  0.3065  0.3521 -0.1380
  165MOL0     C22685   2.581   4.815   2.187  0.7776  0.3733 -0.0222
  165MOL0     C22686   2.460   4.803   2.255 -0.3680 -0.0085  0.4484
  165MOL0     C22687   2.143   4.789   2.613 -0.3325 -0.2282  0.0393
  165MOL0     C22688   2.095   4.676   2.551  0.8297  0.5424  0.2358
  165MOL0     C22689   1.974   4.623   2.573 -0.3556  0.1598 -1.0062
  165MOL0     C22690   1.880   4.691   2.664 -0.0845 -0.3537 -1.2563
  165MOL0     O22691   1.751   4.646   2.690 -0.0037 -0.1534  0.2834
  165MOL0     C22692   1.678   4.672   2.807 -0.7472 -0.4978 -0.0699
  165MOL0     C22693   1.600   4.811   2.798  0.2921 -0.4784 -0.6179
  165MOL0     C22694   1.525   4.838   2.667 -0.8884  0.4553  0.6622
  165MOL0     C22695   1.446   4.968   2.656 -1.3807 -0.5734  0.0769
  165MOL0     C22696   1.519   5.096   2.680  0.7039  0.4519  0.5290
  165MOL0     C22697   1.572   5.199   2.697 -0.2772  0.0191  0.4621
  165MOL0     C22698   1.938   4.799   2.746  0.4186  0.0644 -0.6491
  165MOL0     C22699   2.065   4.848   2.719  0.3237  0.1139 -0.0458
  165MOL0     C22700   2.102   4.973   2.807 -0.2777  0.0943  0.7875
  165MOL0     H22701   2.552   4.845   2.567  0.2018 -1.4679 -0.3911
  165MOL0     H22702   2.776   4.882   2.456  0.5162  2.6710 -1.7028
  165MOL0     H22703   2.937   4.781   2.340 -2.2525 -1.5801 -0.2796
  165MOL0     H22704   2.955   4.954   2.302  0.6439  0.6215 -1.5571
  165MOL0     H22705   3.053   4.913   2.085 -1.5140  2.0410  1.0774
  165MOL0     H22706   3.133   4.830   2.227 -1.5370  0.3102  1.4741
  165MOL0     H22707   3.063   4.603   2.146 -1.4557 -0.9068 -1.4879
  165MOL0     H22708   2.949   4.685   2.037 -1.2580  1.0851 -0.5926
  165MOL0     H22709   3.106   4.752   1.881  0.3267  0.1310 -0.5482
  165MOL0     H22710   3.240   4.733   1.990 -0.9585  1.4233  0.5351
  165MOL0     H22711   3.199   4.558   1.800 -2.8988  1.1259 -0.9231
  165MOL0     H22712   3.064   4.508   1.893 -0.6942  1.8278  1.1449
  165MOL0     H22713   3.241   4.463   2.103  0.0654  0.3175 -0.0022
  165MOL0     H22714   3.222   4.362   1.966 -0.5737  0.9313 -2.9551
  165MOL0     H22715   3.426   4.590   1.976 -0.3148  0.3992  4.1190
  165MOL0     H22716   3.448   4.445   1.868 -1.5085 -0.5173 -0.1404
  165MOL0     H22717   3.474   4.435   2.165 -0.5669 -0.9289 -0.5279
  165MOL0     H22718   3.486   4.301   2.048 -0.3517  0.7943 -4.9692
  165MOL0     H22719   3.692   4.349   1.858 -1.1813  0.7673 -0.6598
  165MOL0     H22720   3.931   4.542   1.811 -0.7088 -2.5495 -3.7192
  165MOL0     H22721   3.955   4.372   1.808  1.2603  1.2016 -2.7260
  165MOL0     H22722   4.149   4.560   1.917 -0.1453  0.2829 -0.8176
  165MOL0     H22723   4.079   4.480   2.059  2.2448 -0.0678  0.2582
  165MOL0     H22724   4.147   4.254   1.932  1.0890 -1.1101  0.2392
  165MOL0     H22725   4.191   4.354   1.801  0.3892 -2.1573 -0.1729
  165MOL0     H22726   4.339   4.350   2.067 -1.3090  0.3494 -0.0650
  165MOL0     H22727   4.381   4.288   1.901 -1.4420 -1.3011  0.9566
  165MOL0     H22728   4.586   4.347   1.869 -0.4826 -0.7317  1.2406
  165MOL0     H22729   4.893   4.397   1.836 -0.7125 -2.0973 -0.7347
  165MOL0     H22730   4.806   4.259   1.911 -0.3858 -0.6039  1.6303
  165MOL0     H22731   4.912   4.359   2.016 -0.8618  1.0348  1.2317
  165MOL0     H22732   4.851   4.788   2.420 -0.1727  2.0702 -2.9305
  165MOL0     H22733   5.027   4.828   2.608 -1.9774  0.2064 -1.6332
  165MOL0     H22734   5.222   4.693   2.672  1.2062 -4.1922 -0.7343
  165MOL0     H22735   5.385   4.697   2.600  1.7932  2.0056 -0.0705
  165MOL0     H22736   5.409   4.740   2.837  0.7319  0.9063 -0.1335
  165MOL0     H22737   5.423   4.895   2.759 -0.0219 -0.7026  0.1516
  165MOL0     H22738   5.175   4.775   2.899 -1.0085  0.6751  0.5792
  165MOL0     H22739   5.193   4.932   2.822  0.8855 -1.1247 -2.2833
  165MOL0     H22740   5.379   4.985   2.966 -0.1301  1.2745  2.2042
  165MOL0     H22741   5.344   4.835   3.061  1.0208  1.7703  1.4110
  165MOL0     H22742   5.167   5.083   3.048  0.5226  0.7503 -0.2546
  165MOL0     H22743   5.117   4.926   3.105  0.2718  0.9301  1.5369
  165MOL0     H22744   5.361   5.082   3.221 -0.0138 -0.5659 -0.0700
  165MOL0     H22745   5.306   4.926   3.273  0.1021  0.1676  0.6218
  165MOL0     H22746   5.220   5.053   3.432 -0.7156 -0.8905  0.3069
  165MOL0     H22747   5.084   5.042   3.336  1.8343 -3.1227 -0.3275
  165MOL0     H22748   5.075   5.284   3.371 -1.8741 -1.5556 -1.2981
  165MOL0     H22749   5.165   5.263   3.227  3.2618 -2.4502 -0.8087
  165MOL0     H22750   5.334   4.818   2.321 -0.0081  0.1137  1.3372
  165MOL0     H22751   5.182   4.752   2.145 -0.7570  0.0087 -0.0521
  165MOL0     H22752   4.679   4.765   2.109 -1.5230  0.0184 -0.5989
  165MOL0     H22753   4.458   4.732   2.022 -0.3522  0.4408 -1.5810
  165MOL0     H22754   2.581   4.782   2.084 -1.2276 -0.2290  0.1197
  165MOL0     H22755   2.376   4.772   2.193  0.2720  0.2627 -0.5940
  165MOL0     H22756   2.155   4.631   2.473  0.8721  1.1726 -0.1052
  165MOL0     H22757   1.937   4.537   2.519 -4.7418  0.6338  0.8292
  165MOL0     H22758   1.607   4.592   2.828 -0.6544 -0.6998 -0.5046
  165MOL0     H22759   1.743   4.687   2.894  1.5511 -0.9213 -1.6308
  165MOL0     H22760   1.672   4.889   2.824 -0.8024  0.9527 -1.7477
  165MOL0     H22761   1.522   4.823   2.874  1.3802  1.2036  0.2797
  165MOL0     H22762   1.607   4.826   2.595 -2.1109 -3.3445 -0.3467
  165MOL0     H22763   1.453   4.757   2.648 -0.5708  0.5907 -1.3202
  165MOL0     H22764   1.350   4.967   2.709 -1.7774  3.1895 -0.3103
  165MOL0     H22765   1.428   4.971   2.548  0.8999  0.9293 -0.3194
  165MOL0     H22766   1.604   5.301   2.710 -0.4436  0.0817  0.3724
  165MOL0     H22767   1.890   4.846   2.832 -0.0716 -1.4706 -0.0388
  165MOL0     H22768   2.018   5.003   2.870 -0.4692 -1.3183  1.2342
  165MOL0     H22769   2.191   4.940   2.862  0.1132  0.6835  0.5251
  165MOL0     H22770   2.120   5.062   2.746  0.2490  0.9210  2.1136
  166MOL0     O22771   0.527  11.321   0.899  0.1761  0.3136  0.4220
  166MOL0     C22772   0.503  11.356   1.013  0.3150  0.7115 -0.2823
  166MOL0     O22773   0.586  11.369   1.115 -0.1326  0.4834 -0.2001
  166MOL0     C22774   0.718  11.348   1.103 -0.0021 -0.1313  0.1342
  166MOL0     C22775   0.764  11.242   1.026 -0.2617  0.5472  0.4525
  166MOL0     C22776   0.903  11.216   1.024  0.2819  0.3776 -0.1427
  166MOL0     C22777   0.999  11.301   1.090  0.6322  0.4004 -0.0093
  166MOL0     O22778   1.126  11.277   1.069 -0.8785 -1.1134  0.0010
  166MOL0     C22779   1.215  11.272   1.182  0.0517 -0.0346 -0.1308
  166MOL0     C22780   1.354  11.220   1.147 -0.8689  0.0987 -0.0054
  166MOL0     C22781   1.443  11.327   1.058  0.6756 -0.1053  0.0330
  166MOL0     C22782   1.458  11.461   1.127  0.1967 -1.0983  0.7329
  166MOL0     C22783   1.580  11.550   1.074  0.7891  0.2474  0.0008
  166MOL0     C22784   1.579  11.701   1.126 -0.9862  0.2066 -0.3162
  166MOL0     C22785   1.692  11.782   1.053 -0.3015 -0.2549  0.4656
  166MOL0     C22786   1.698  11.928   1.106  0.4266  0.3844  0.4423
  166MOL0     N22787   1.816  12.004   1.051  0.0692 -0.6594  0.6969
  166MOL0     C22788   1.911  12.076   1.119 -0.4803 -0.5520 -0.2306
  166MOL0     C22789   2.002  12.117   1.028 -0.7694  0.0991 -0.4503
  166MOL0     C22790   2.128  12.177   1.081  0.5155 -0.6309  0.0023
  166MOL0     C22791   2.126  12.334   1.058  0.6000  0.4470  0.2963
  166MOL0     C22792   2.248  12.391   1.131  0.0294  0.0056  0.2642
  166MOL0     C22793   2.246  12.540   1.118  0.1046  0.0787 -0.1018
  166MOL0     O22794   2.333  12.593   1.218 -0.3682  0.2197  0.2209
  166MOL0     C22795   2.471  12.597   1.197 -0.8940 -0.3522  0.0488
  166MOL0     C22796   2.541  12.635   1.308 -0.0283 -0.5505 -0.2394
  166MOL0     C22797   2.680  12.629   1.318 -0.1404  0.2880  0.1144
  166MOL0     C22798   2.746  12.639   1.456 -0.1586  0.0511 -0.2852
  166MOL0     C22799   2.746  12.628   1.198 -0.8058  0.4300  0.7361
  166MOL0     C22800   2.895  12.619   1.189  0.9156  0.3428  0.1223
  166MOL0     O22801   2.941  12.588   1.065 -0.0424  0.0481  0.6884
  166MOL0     C22802   3.074  12.552   1.048 -0.3881  0.8320 -0.4706
  166MOL0     C22803   3.117  12.421   1.083  0.2797 -0.5861 -0.5889
  166MOL0     C22804   3.250  12.385   1.067 -0.2214  0.2098  0.3353
  166MOL0     C22805   3.341  12.478   1.030 -0.6569 -0.5944  0.1191
  166MOL0     O22806   3.468  12.432   1.018 -0.7806  0.2379  0.2061
  166MOL0     C22807   3.572  12.514   0.965 -0.7137 -0.6474  0.5609
  166MOL0     C22808   3.696  12.433   0.961 -0.4102 -0.4890 -0.0520
  166MOL0     C22809   3.748  12.409   1.100  0.0421 -0.0268 -0.8023
  166MOL0     C22810   3.871  12.322   1.083 -0.6071 -0.2859 -0.8678
  166MOL0     C22811   3.916  12.278   1.230 -0.1126 -0.1109  0.5631
  166MOL0     C22812   3.967  12.383   1.317  0.7249  0.0425  0.1227
  166MOL0     C22813   4.113  12.404   1.299  0.6352  0.6385  0.0968
  166MOL0     C22814   4.158  12.508   1.392  0.1835 -0.2646  0.5910
  166MOL0    Cl22815   4.334  12.490   1.415 -0.7501 -0.3021 -0.1984
  166MOL0     C22816   3.304  12.608   0.988 -0.6276 -0.1742 -1.1608
  166MOL0     C22817   3.174  12.644   1.003  0.4568  0.2950  0.2084
  166MOL0     O22818   2.962  12.658   1.284  0.5721  0.5389 -0.0891
  166MOL0     C22819   2.675  12.612   1.073  0.1271  0.4254 -0.0670
  166MOL0     C22820   2.540  12.589   1.071 -0.0932 -0.1216 -1.3839
  166MOL0     N22821   1.968  12.065   0.910  0.6736 -0.5092 -0.3283
  166MOL0     N22822   1.853  12.002   0.920  0.0587 -0.4495 -0.2899
  166MOL0     C22823   0.946  11.401   1.172 -0.7923 -0.0295 -0.8089
  166MOL0     C22824   0.808  11.430   1.176 -0.3200  0.3025  0.7615
  166MOL0     C22825   0.354  11.377   1.038 -0.3486  0.1691  0.3354
  166MOL0     C22826   0.264  11.303   0.954 -0.3998 -0.4359 -0.0195
  166MOL0     C22827   0.126  11.313   0.968 -0.2986  0.4124  0.0707
  166MOL0     C22828   0.069  11.394   1.065 -0.2535 -0.6237  0.5088
  166MOL0     O22829  -0.065  11.424   1.086  0.5376 -0.2707 -0.3056
  166MOL0     C22830  -0.155  11.339   1.013  0.5115  0.0020  0.1614
  166MOL0     C22831  -0.299  11.382   1.044  0.5775 -0.2353 -0.2616
  166MOL0     C22832  -0.410  11.332   0.950  0.5200  0.3387  0.2949
  166MOL0     C22833  -0.477  11.203   1.008 -0.1771 -0.0934  0.3250
  166MOL0     C22834  -0.606  11.173   0.940 -0.2521  0.2779  0.2646
  166MOL0     C22835  -0.713  11.145   0.891  0.2935  0.7856 -0.2117
  166MOL0     C22836   0.153  11.462   1.147 -0.0598  1.0714 -0.3938
  166MOL0     C22837   0.292  11.459   1.135 -0.8705 -0.1906 -0.2555
  166MOL0     C22838   0.365  11.559   1.221 -0.3602  0.1957  0.4221
  166MOL0     H22839   0.706  11.169   0.971  2.2530  0.1998 -1.9736
  166MOL0     H22840   0.939  11.141   0.954  0.3890 -0.7391  1.0738
  166MOL0     H22841   1.169  11.206   1.256  3.2553 -1.4147  0.7728
  166MOL0     H22842   1.220  11.371   1.227  2.1836  0.7915 -1.9783
  166MOL0     H22843   1.402  11.195   1.243 -0.1900  0.0519 -0.3495
  166MOL0     H22844   1.352  11.128   1.087  1.0073  0.9354 -1.4729
  166MOL0     H22845   1.537  11.270   1.052  0.4002 -0.9229  2.3174
  166MOL0     H22846   1.399  11.351   0.961  3.6942  1.5833 -1.0502
  166MOL0     H22847   1.374  11.527   1.104  3.3979  2.8389 -0.8804
  166MOL0     H22848   1.468  11.438   1.234  1.3038  0.0889  0.9159
  166MOL0     H22849   1.572  11.544   0.965  1.7675  1.3900 -0.1499
  166MOL0     H22850   1.679  11.515   1.103  1.7705  1.0818 -2.1168
  166MOL0     H22851   1.484  11.754   1.120 -0.1356  1.7510 -0.4997
  166MOL0     H22852   1.597  11.695   1.233 -1.4323  3.2124 -0.0093
  166MOL0     H22853   1.672  11.776   0.945 -0.6734 -1.2412  0.5776
  166MOL0     H22854   1.787  11.731   1.071 -0.7806 -2.3810 -2.2507
  166MOL0     H22855   1.607  11.980   1.075  1.4057  0.9420 -1.7319
  166MOL0     H22856   1.700  11.938   1.215 -2.5415 -1.6159  0.7973
  166MOL0     H22857   1.929  12.078   1.226  0.0175 -0.3528 -0.3170
  166MOL0     H22858   2.218  12.137   1.032  1.8638 -0.7307  2.3975
  166MOL0     H22859   2.129  12.158   1.189 -4.0471 -0.9434  0.1775
  166MOL0     H22860   2.142  12.350   0.952  0.0495 -1.3930 -0.1068
  166MOL0     H22861   2.035  12.383   1.095  0.8807  0.0844  1.5154
  166MOL0     H22862   2.234  12.368   1.237 -3.0624  4.7295  1.1928
  166MOL0     H22863   2.346  12.357   1.096 -0.6379 -0.6908 -0.9875
  166MOL0     H22864   2.279  12.560   1.015  0.2433 -2.1115 -0.5185
  166MOL0     H22865   2.146  12.583   1.134 -0.5597 -1.1802 -0.7177
  166MOL0     H22866   2.496  12.652   1.405 -0.5327  0.0105 -0.5621
  166MOL0     H22867   2.811  12.726   1.470 -1.9806  1.2459  1.3132
  166MOL0     H22868   2.806  12.549   1.468  0.2590  0.0555 -2.0067
  166MOL0     H22869   2.670  12.634   1.534  0.1282 -0.0738 -0.0149
  166MOL0     H22870   3.048  12.350   1.127 -0.8766  1.1947  0.6560
  166MOL0     H22871   3.280  12.281   1.070 -0.0711  0.2666  0.8876
  166MOL0     H22872   3.544  12.533   0.861  0.2245  1.0696  0.5967
  166MOL0     H22873   3.584  12.603   1.026  1.1085 -1.0551  0.8379
  166MOL0     H22874   3.677  12.339   0.908 -3.3201 -1.3601  2.2347
  166MOL0     H22875   3.771  12.489   0.905  2.5371 -2.0359  2.0195
  166MOL0     H22876   3.683  12.347   1.162  0.5804 -1.0814 -1.2819
  166MOL0     H22877   3.772  12.506   1.146  1.0140  0.0387 -1.4095
  166MOL0     H22878   3.957  12.364   1.029 -0.3911  0.1565 -0.1930
  166MOL0     H22879   3.845  12.229   1.031  0.3469 -0.6870 -0.6374
  166MOL0     H22880   3.841  12.220   1.284  0.5732 -0.0975  1.5615
  166MOL0     H22881   3.998  12.206   1.229 -0.6371 -0.7114  0.5974
  166MOL0     H22882   3.951  12.359   1.422  0.9424  1.1103  0.4147
  166MOL0     H22883   3.912  12.477   1.303  0.4770 -0.1566 -0.2469
  166MOL0     H22884   4.140  12.437   1.198 -1.7825  1.4887 -0.3465
  166MOL0     H22885   4.163  12.309   1.321  0.2627  0.3696 -0.2101
  166MOL0     H22886   4.115  12.493   1.492  0.4108 -3.4910  0.3051
  166MOL0     H22887   4.128  12.604   1.349 -0.0104 -0.7733 -0.4174
  166MOL0     H22888   3.371  12.685   0.951  0.1796  0.7921  1.9798
  166MOL0     H22889   3.142  12.738   0.960  0.3816 -0.9811 -2.7972
  166MOL0     H22890   2.727  12.625   0.979  1.2003 -1.0987  0.2853
  166MOL0     H22891   2.496  12.566   0.974  1.1813  0.7269 -2.1954
  166MOL0     H22892   1.017  11.473   1.212 -1.3985  0.2229 -0.1647
  166MOL0     H22893   0.771  11.513   1.236  0.2344  1.2529 -0.1768
  166MOL0     H22894   0.301  11.230   0.883  4.3046 -0.2052  1.8439
  166MOL0     H22895   0.071  11.256   0.894 -0.4975  1.0828 -0.2962
  166MOL0     H22896  -0.136  11.344   0.905  3.7218  0.8957  0.6855
  166MOL0     H22897  -0.147  11.234   1.043 -3.1658 -0.2099  0.9205
  166MOL0     H22898  -0.288  11.491   1.038 -0.9496 -0.0720 -0.3490
  166MOL0     H22899  -0.315  11.359   1.149  3.9803  3.2545  1.2571
  166MOL0     H22900  -0.493  11.403   0.956  0.2740 -0.0609  3.2111
  166MOL0     H22901  -0.375  11.328   0.847 -0.1398  0.1441  0.0725
  166MOL0     H22902  -0.494  11.209   1.116  4.8453 -4.2713  1.7262
  166MOL0     H22903  -0.409  11.118   0.998 -0.6832 -0.8244  2.4979
  166MOL0     H22904  -0.813  11.121   0.860 -0.1481  1.8555  0.3354
  166MOL0     H22905   0.110  11.539   1.210  2.1011  0.6097  1.7924
  166MOL0     H22906   0.420  11.508   1.301  0.5683  0.1997 -0.1906
  166MOL0     H22907   0.442  11.617   1.167 -1.1221  1.1742  0.3662
  166MOL0     H22908   0.302  11.634   1.269  0.2358  0.3417  0.9851
  167MOL0     O22909   7.259   9.562   9.374 -0.0160 -0.4776  0.0864
  167MOL0     C22910   7.258   9.459   9.309 -0.0422 -0.1993  0.7394
  167MOL0     O22911   7.347   9.425   9.200 -0.0436  0.2256 -0.3826
  167MOL0     C22912   7.469   9.471   9.178  0.4924 -0.2790  0.2103
  167MOL0     C22913   7.517   9.598   9.212 -0.0055  0.2421 -0.1692
  167MOL0     C22914   7.650   9.634   9.182  0.4482  0.4909 -0.3457
  167MOL0     C22915   7.735   9.542   9.128  0.6918 -0.3292 -0.3975
  167MOL0     O22916   7.856   9.595   9.110 -0.6442  0.8235  0.2139
  167MOL0     C22917   7.960   9.507   9.053  0.4068 -0.0144  0.0684
  167MOL0     C22918   8.092   9.588   9.042 -0.0021  0.4625  0.0662
  167MOL0     C22919   8.226   9.506   9.040 -0.0924 -0.3583  0.8511
  167MOL0     C22920   8.336   9.600   8.981 -0.5458 -0.0990  0.4264
  167MOL0     C22921   8.483   9.570   8.987  0.3735  1.5253 -0.8496
  167MOL0     C22922   8.515   9.457   8.893 -1.1686  0.4636  0.3952
  167MOL0     C22923   8.674   9.442   8.851  0.8001 -0.2482 -0.1755
  167MOL0     C22924   8.709   9.309   8.778 -0.0872 -0.4514  0.5369
  167MOL0     N22925   8.848   9.312   8.751 -0.6083 -0.3386  0.1218
  167MOL0     C22926   8.957   9.280   8.836  0.1248  0.3511 -0.0089
  167MOL0     C22927   9.070   9.285   8.753 -0.0247  0.4162 -0.5220
  167MOL0     C22928   9.208   9.252   8.805  0.6999 -0.2035 -0.3492
  167MOL0     C22929   9.316   9.270   8.700 -0.2384  0.2769 -0.2492
  167MOL0     C22930   9.427   9.159   8.716  0.7051 -0.0098 -0.7366
  167MOL0     C22931   9.537   9.162   8.606 -0.6545 -0.0749  0.2970
  167MOL0     O22932   9.621   9.280   8.616  0.0336  1.0397  0.0335
  167MOL0     C22933   9.732   9.284   8.702 -0.6591  0.0744  0.3048
  167MOL0     C22934   9.763   9.187   8.791  0.5548 -0.8696  0.2208
  167MOL0     C22935   9.879   9.199   8.867 -0.4468 -0.3217  1.0465
  167MOL0     C22936   9.901   9.081   8.955  0.5750 -0.4638 -0.4621
  167MOL0     C22937   9.968   9.314   8.856  0.2755  0.1416  0.8753
  167MOL0     C22938  10.110   9.306   8.903  0.8133 -1.0536  0.5471
  167MOL0     O22939  10.177   9.419   8.885  0.2433 -0.2064 -0.5120
  167MOL0     C22940  10.307   9.428   8.943  1.0989  0.9855  0.6522
  167MOL0     C22941  10.409   9.466   8.867 -0.6244 -0.9211 -0.2417
  167MOL0     C22942  10.541   9.475   8.913 -1.0121 -1.3542 -0.1750
  167MOL0     C22943  10.569   9.443   9.048  0.2118 -0.6540  0.0180
  167MOL0     O22944  10.693   9.439   9.098 -0.1671  0.6019 -0.2245
  167MOL0     C22945  10.724   9.364   9.226 -0.3756 -0.2205 -0.6008
  167MOL0     C22946  10.868   9.307   9.210  0.6411  0.2578 -0.5269
  167MOL0     C22947  10.882   9.223   9.094  0.4233 -0.2312  0.2337
  167MOL0     C22948  11.026   9.162   9.085  0.0954 -1.0115  0.6201
  167MOL0     C22949  11.023   9.072   8.961 -0.0624 -0.1909  0.5278
  167MOL0     C22950  11.143   9.000   8.920  0.8141 -0.5846 -0.1694
  167MOL0     C22951  11.134   8.974   8.776  0.0955  0.5966  0.3744
  167MOL0     C22952  11.275   8.953   8.722 -0.3757  0.7325 -0.1630
  167MOL0    Cl22953  11.273   8.929   8.550 -0.4118  0.2545  0.1632
  167MOL0     C22954  10.461   9.416   9.130 -0.6879 -1.0486 -0.5898
  167MOL0     C22955  10.330   9.405   9.078 -0.6124  0.5109  0.9695
  167MOL0     O22956  10.158   9.206   8.948 -0.3446  0.0162 -0.2980
  167MOL0     C22957   9.926   9.419   8.773 -0.3549  0.1512 -0.5806
  167MOL0     C22958   9.811   9.402   8.703  0.1634 -1.1180  0.4314
  167MOL0     N22959   9.028   9.330   8.629 -0.6427 -0.3862 -0.1688
  167MOL0     N22960   8.898   9.339   8.623  0.2009  0.2769  0.0986
  167MOL0     C22961   7.694   9.409   9.099  0.0625  0.0932 -0.2768
  167MOL0     C22962   7.564   9.377   9.131 -0.7945 -0.3688 -0.8436
  167MOL0     C22963   7.158   9.357   9.333  0.4550  0.8123 -1.4860
  167MOL0     C22964   7.107   9.289   9.220 -0.7030  0.2649 -0.8694
  167MOL0     C22965   7.023   9.180   9.245 -1.2420  0.3565  0.1419
  167MOL0     C22966   6.989   9.142   9.378 -0.8600  0.9729 -0.6954
  167MOL0     O22967   6.907   9.033   9.397  0.3925 -0.4872  0.8068
  167MOL0     C22968   6.955   8.908   9.350 -0.7358 -0.5856 -0.6159
  167MOL0     C22969   6.845   8.828   9.288  0.3735 -0.6819 -0.6223
  167MOL0     C22970   6.746   8.763   9.389 -0.4229  0.2566  0.8155
  167MOL0     C22971   6.673   8.859   9.488 -0.3623 -0.2055  0.0822
  167MOL0     C22972   6.531   8.822   9.528 -0.3384 -0.3020 -0.1228
  167MOL0     C22973   6.423   8.794   9.585  0.6596 -1.1661  0.4466
  167MOL0     C22974   7.031   9.212   9.488 -0.6255 -0.8040  0.6087
  167MOL0     C22975   7.115   9.322   9.469  0.0907  0.0320 -0.0228
  167MOL0     C22976   7.154   9.398   9.592  0.4054  0.2678  0.1515
  167MOL0     H22977   7.447   9.667   9.258 -0.8702  0.4033 -1.6887
  167MOL0     H22978   7.685   9.729   9.222 -0.1382  0.1734  0.9929
  167MOL0     H22979   7.924   9.471   8.956 -2.0982  1.1261  0.4831
  167MOL0     H22980   7.970   9.416   9.113 -0.0879 -0.4837 -0.5426
  167MOL0     H22981   8.095   9.640   8.945 -1.9912 -1.1487 -0.9471
  167MOL0     H22982   8.103   9.655   9.127 -0.1314 -0.3983  0.7658
  167MOL0     H22983   8.264   9.467   9.135  1.2754  1.7558  1.2231
  167MOL0     H22984   8.219   9.411   8.986  2.8988 -0.4402  0.4516
  167MOL0     H22985   8.308   9.620   8.877  0.1892 -1.0447  0.0280
  167MOL0     H22986   8.333   9.697   9.031  1.2668 -0.4365  1.2516
  167MOL0     H22987   8.524   9.540   9.083  0.7893 -1.3660 -1.8474
  167MOL0     H22988   8.538   9.660   8.957  2.5420  0.4329 -0.3460
  167MOL0     H22989   8.481   9.364   8.939  2.3692 -1.4891 -0.5588
  167MOL0     H22990   8.461   9.462   8.798 -1.1693  0.2429  0.3828
  167MOL0     H22991   8.731   9.454   8.944  0.9043  1.6686 -0.4446
  167MOL0     H22992   8.704   9.518   8.779  1.2469 -0.9231 -0.7140
  167MOL0     H22993   8.680   9.215   8.826 -0.1640 -3.7400 -5.1329
  167MOL0     H22994   8.647   9.309   8.688 -0.1932  1.5761  0.5592
  167MOL0     H22995   8.960   9.254   8.941  5.1359  1.5777  0.4027
  167MOL0     H22996   9.216   9.156   8.858  4.6976  0.0163 -0.2535
  167MOL0     H22997   9.238   9.321   8.884  0.1361  0.4653 -0.7093
  167MOL0     H22998   9.283   9.265   8.596  0.6035 -1.8809 -0.4659
  167MOL0     H22999   9.369   9.364   8.717  0.0040  0.0128  0.4867
  167MOL0     H23000   9.460   9.170   8.820 -2.2322 -2.7490  0.6453
  167MOL0     H23001   9.389   9.057   8.720  1.7946 -0.5037 -2.1190
  167MOL0     H23002   9.600   9.073   8.618  3.3601  2.6107  1.6231
  167MOL0     H23003   9.489   9.161   8.508  2.7601  0.1113 -1.5528
  167MOL0     H23004   9.701   9.100   8.809  1.9146 -1.5089  2.1533
  167MOL0     H23005   9.958   9.099   9.047 -1.5577  0.0382  0.8391
  167MOL0     H23006   9.942   8.995   8.901 -2.3751 -1.2305 -1.6895
  167MOL0     H23007   9.808   9.041   8.997 -0.8457  1.0417 -2.0310
  167MOL0     H23008  10.384   9.491   8.765 -1.2150  0.2405  0.1617
  167MOL0     H23009  10.614   9.525   8.849 -2.5733  0.1368 -0.8808
  167MOL0     H23010  10.709   9.439   9.304 -1.9252  1.6323 -2.5725
  167MOL0     H23011  10.661   9.275   9.237 -0.7469  0.0537 -0.5148
  167MOL0     H23012  10.930   9.397   9.203 -1.7380  2.0663  0.2667
  167MOL0     H23013  10.888   9.250   9.301 -2.9506 -0.7212 -0.1939
  167MOL0     H23014  10.857   9.283   9.006 -0.4800 -1.4732 -0.3925
  167MOL0     H23015  10.814   9.137   9.102  0.0524  0.0079 -0.2465
  167MOL0     H23016  11.044   9.104   9.176  0.1489 -0.1883  1.1438
  167MOL0     H23017  11.098   9.244   9.078 -2.0031  0.8179 -1.8544
  167MOL0     H23018  10.945   8.998   8.980 -2.3636  1.3305 -2.1184
  167MOL0     H23019  10.992   9.141   8.882  1.1564  0.0292  0.2210
  167MOL0     H23020  11.151   8.918   8.992 -2.5993  1.3258  2.6965
  167MOL0     H23021  11.227   9.067   8.943  0.3190 -1.1770  3.9923
  167MOL0     H23022  11.097   9.060   8.719 -1.7286 -0.4536 -0.1045
  167MOL0     H23023  11.087   8.879   8.750 -0.2248  0.0973  2.5908
  167MOL0     H23024  11.329   8.875   8.778 -1.4795 -1.7830 -2.3775
  167MOL0     H23025  11.339   9.038   8.745 -0.6776  0.9332 -0.0682
  167MOL0     H23026  10.478   9.389   9.234 -0.1372  3.1015  0.5713
  167MOL0     H23027  10.244   9.381   9.140 -0.2054 -1.9554  0.6828
  167MOL0     H23028   9.987   9.508   8.762 -0.0330 -0.2466 -2.2764
  167MOL0     H23029   9.770   9.486   8.648 -1.6504 -2.2970 -0.1044
  167MOL0     H23030   7.765   9.330   9.077  0.9609  0.8418 -0.1092
  167MOL0     H23031   7.521   9.277   9.129 -0.4424 -0.7432  2.8214
  167MOL0     H23032   7.143   9.323   9.123  0.9783  0.8680 -0.0785
  167MOL0     H23033   6.984   9.128   9.159  0.9905  0.0195 -0.7463
  167MOL0     H23034   7.041   8.914   9.282  0.9849  1.8106  1.5921
  167MOL0     H23035   7.003   8.858   9.435 -2.2599  0.0925  0.6874
  167MOL0     H23036   6.904   8.759   9.226  4.0783 -0.6318  2.4554
  167MOL0     H23037   6.792   8.885   9.211 -1.2065 -1.3358 -0.0627
  167MOL0     H23038   6.678   8.718   9.316  3.7319 -0.7598 -2.8708
  167MOL0     H23039   6.800   8.685   9.443 -0.2329  0.1952  0.5408
  167MOL0     H23040   6.663   8.957   9.442 -2.5956 -1.3542 -2.1100
  167MOL0     H23041   6.745   8.856   9.570  0.9075 -1.2137 -1.0357
  167MOL0     H23042   6.324   8.769   9.618 -0.5164  1.0599 -1.0589
  167MOL0     H23043   6.999   9.187   9.589 -1.7230 -0.1681  0.4303
  167MOL0     H23044   7.130   9.505   9.589  2.6411  0.9114  2.0023
  167MOL0     H23045   7.106   9.352   9.680 -2.0615 -0.9494 -1.6937
  167MOL0     H23046   7.263   9.400   9.603  0.4898 -1.2523 -0.2166
  168MOL0     O23047   4.778   9.211   3.032 -0.0835  1.1469 -0.3220
  168MOL0     C23048   4.752   9.099   2.998 -0.8790  0.8577  1.0833
  168MOL0     O23049   4.843   8.994   3.018  0.1928 -0.2873 -0.0944
  168MOL0     C23050   4.962   9.024   3.077 -0.5713  0.5682  0.2025
  168MOL0     C23051   4.975   9.015   3.214 -0.1290 -0.5895  0.3946
  168MOL0     C23052   5.097   9.052   3.278  0.5301 -0.8986  0.1480
  168MOL0     C23053   5.203   9.097   3.206  0.5506 -0.3428  0.6501
  168MOL0     O23054   5.312   9.132   3.275  0.3392 -0.0181 -0.5611
  168MOL0     C23055   5.418   9.202   3.214 -1.3987  0.3258 -0.1324
  168MOL0     C23056   5.542   9.235   3.296 -0.5163 -0.3024 -0.2432
  168MOL0     C23057   5.637   9.317   3.204  0.0644 -0.4452  0.7933
  168MOL0     C23058   5.779   9.322   3.273 -0.1664 -0.3701  0.1765
  168MOL0     C23059   5.889   9.357   3.175 -0.2482 -0.8449 -0.3415
  168MOL0     C23060   5.871   9.502   3.124  0.0136  0.3317 -1.0586
  168MOL0     C23061   5.954   9.547   3.005 -0.0747  0.6650  0.8466
  168MOL0     C23062   6.107   9.546   3.026  0.5821  0.2928 -0.3452
  168MOL0     N23063   6.193   9.597   2.919  0.7288 -0.3232  0.3961
  168MOL0     C23064   6.245   9.726   2.907 -0.6612  0.1473  0.2240
  168MOL0     C23065   6.297   9.721   2.780 -0.4501  0.4604  0.6142
  168MOL0     C23066   6.355   9.846   2.718  0.1138  0.8315 -0.2833
  168MOL0     C23067   6.505   9.857   2.732  1.1248  0.5593 -0.2408
  168MOL0     C23068   6.559   9.766   2.618  0.2556 -0.2803 -0.8602
  168MOL0     C23069   6.712   9.764   2.623 -0.2760 -0.3163 -0.7855
  168MOL0     O23070   6.766   9.700   2.744  0.1299  0.3958  0.8882
  168MOL0     C23071   6.898   9.715   2.779  0.6024  0.5977  1.0204
  168MOL0     C23072   6.994   9.797   2.708  0.3267 -0.1261  0.6508
  168MOL0     C23073   7.127   9.810   2.745  0.5330  0.5288  1.3783
  168MOL0     C23074   7.196   9.912   2.664 -0.7310 -0.4972 -0.0905
  168MOL0     C23075   7.178   9.722   2.844 -0.1105  0.2200 -0.1594
  168MOL0     C23076   7.325   9.716   2.866  0.4389 -0.1286  0.4689
  168MOL0     O23077   7.407   9.761   2.765  0.0754  1.1006  0.2324
  168MOL0     C23078   7.539   9.743   2.771 -0.3175 -0.0767 -0.2135
  168MOL0     C23079   7.612   9.853   2.724  0.7351  0.3317 -0.5317
  168MOL0     C23080   7.750   9.844   2.723 -0.6401  0.6830  0.4574
  168MOL0     C23081   7.825   9.724   2.767  0.3300 -0.4554  0.8457
  168MOL0     O23082   7.957   9.705   2.755  0.0874 -0.0381 -0.0381
  168MOL0     C23083   8.039   9.820   2.729  0.2161  0.4864 -0.6649
  168MOL0     C23084   8.183   9.760   2.720 -0.0883  0.1836 -0.1456
  168MOL0     C23085   8.286   9.856   2.645  0.3976  0.1244 -0.1647
  168MOL0     C23086   8.415   9.789   2.589  0.0121  0.1087 -0.7065
  168MOL0     C23087   8.401   9.689   2.464  0.2214  0.0661 -0.2422
  168MOL0     C23088   8.368   9.769   2.334 -0.9372  1.0701 -0.1813
  168MOL0     C23089   8.508   9.818   2.270  0.6724 -0.3288 -0.0986
  168MOL0     C23090   8.566   9.736   2.154 -0.7836  0.0913  0.0950
  168MOL0    Cl23091   8.665   9.595   2.215  0.1691  0.2971  0.0403
  168MOL0     C23092   7.749   9.623   2.822 -0.2680 -0.0198 -0.7162
  168MOL0     C23093   7.613   9.636   2.825 -0.4253 -0.4196  0.1219
  168MOL0     O23094   7.360   9.659   2.970  0.4655 -0.2264  0.0527
  168MOL0     C23095   7.089   9.637   2.914  0.9236 -0.4972 -0.1052
  168MOL0     C23096   6.947   9.645   2.888 -0.6154  0.4187 -0.7690
  168MOL0     N23097   6.271   9.602   2.719  0.2370  0.0662  0.8263
  168MOL0     N23098   6.210   9.527   2.804  0.8029 -0.3550  0.4698
  168MOL0     C23099   5.188   9.098   3.065  0.8219 -1.1168  0.5226
  168MOL0     C23100   5.070   9.056   3.003  0.4728 -0.1440  0.4747
  168MOL0     C23101   4.625   9.071   2.925  0.0252  1.2615 -1.0676
  168MOL0     C23102   4.589   8.931   2.925  0.3561 -0.1460  0.5721
  168MOL0     C23103   4.467   8.885   2.875  0.3670 -0.0251 -0.0709
  168MOL0     C23104   4.372   8.982   2.826  0.6488  0.1935 -0.1066
  168MOL0     O23105   4.255   8.928   2.786  0.4870  1.0232 -0.0823
  168MOL0     C23106   4.141   8.996   2.829 -0.5700 -0.3732 -1.5042
  168MOL0     C23107   4.025   8.907   2.833 -0.3916 -1.2844 -0.9895
  168MOL0     C23108   3.895   8.978   2.849  0.3634 -0.1692  0.8798
  168MOL0     C23109   3.867   9.072   2.955 -0.1102  0.2314 -0.0846
  168MOL0     C23110   3.937   9.031   3.084  0.7384  0.0580 -0.2318
  168MOL0     C23111   3.981   8.983   3.186  1.0766  0.3435 -0.7577
  168MOL0     C23112   4.401   9.118   2.839 -0.8712 -0.2753  0.0262
  168MOL0     C23113   4.526   9.163   2.872 -0.5640  0.8009 -0.0969
  168MOL0     C23114   4.549   9.312   2.862  0.1051  0.4402 -0.8484
  168MOL0     H23115   4.893   8.971   3.268  0.2085  0.6921  2.0467
  168MOL0     H23116   5.117   9.041   3.384  1.0864  0.2626  0.1734
  168MOL0     H23117   5.377   9.290   3.165 -1.4242  1.1018  1.2471
  168MOL0     H23118   5.464   9.144   3.133  1.0816  0.9666  0.7172
  168MOL0     H23119   5.506   9.303   3.375  1.2636 -1.8095  1.9976
  168MOL0     H23120   5.584   9.144   3.340 -1.6667 -1.3568 -1.2879
  168MOL0     H23121   5.650   9.281   3.102 -2.0553  2.5586 -0.6852
  168MOL0     H23122   5.599   9.418   3.188  3.9832  1.1797  0.6470
  168MOL0     H23123   5.761   9.399   3.349 -2.4906  0.1351 -0.8081
  168MOL0     H23124   5.801   9.226   3.320 -0.2457 -0.5587 -0.1695
  168MOL0     H23125   5.891   9.291   3.088  3.5987 -1.1548 -0.1940
  168MOL0     H23126   5.987   9.361   3.223 -1.2817  0.8894  1.8390
  168MOL0     H23127   5.769   9.536   3.103 -0.1302 -0.1672 -1.1750
  168MOL0     H23128   5.910   9.556   3.210 -0.1011 -1.2990  0.0651
  168MOL0     H23129   5.917   9.646   2.977 -2.0223 -0.1144  0.4423
  168MOL0     H23130   5.938   9.486   2.915 -2.1393 -1.7755  2.7186
  168MOL0     H23131   6.133   9.603   3.115  0.4045 -0.1019 -0.0368
  168MOL0     H23132   6.136   9.444   3.051 -1.9216 -0.4416 -0.1373
  168MOL0     H23133   6.254   9.806   2.980 -0.2003  1.9016 -1.6833
  168MOL0     H23134   6.304   9.931   2.766 -2.1726  0.8987 -2.5978
  168MOL0     H23135   6.323   9.867   2.615 -0.6857  2.3180  0.2363
  168MOL0     H23136   6.531   9.964   2.730 -1.6779  1.3256 -1.9264
  168MOL0     H23137   6.540   9.817   2.827 -1.6579  0.1676  0.7019
  168MOL0     H23138   6.525   9.664   2.635 -4.7092  1.1294 -0.7092
  168MOL0     H23139   6.514   9.799   2.524 -1.5106 -0.8023 -0.2258
  168MOL0     H23140   6.743   9.707   2.534 -0.5134  0.5582 -1.4442
  168MOL0     H23141   6.760   9.862   2.611 -0.4505 -0.1204  0.0782
  168MOL0     H23142   6.960   9.854   2.622 -2.3053  0.2769  1.8414
  168MOL0     H23143   7.138   9.998   2.631 -0.5275 -0.0913  0.5885
  168MOL0     H23144   7.227   9.870   2.568  1.2670  3.5405 -1.4545
  168MOL0     H23145   7.287   9.947   2.713 -0.8801 -0.6010  0.2648
  168MOL0     H23146   7.560   9.943   2.691  2.8762  1.7025 -0.3846
  168MOL0     H23147   7.800   9.927   2.674 -1.2414  0.0039 -1.3686
  168MOL0     H23148   8.010   9.856   2.629 -0.6158 -0.8184 -0.9128
  168MOL0     H23149   8.036   9.888   2.815  0.4065  0.3187 -0.5260
  168MOL0     H23150   8.208   9.747   2.826 -1.4003  0.4622  0.2258
  168MOL0     H23151   8.182   9.671   2.657 -2.4809  0.6794 -0.9397
  168MOL0     H23152   8.316   9.930   2.719 -1.9115 -0.9379  2.0123
  168MOL0     H23153   8.241   9.907   2.559  1.4874  2.4812  0.5769
  168MOL0     H23154   8.456   9.728   2.670  1.4175 -0.5033 -1.8370
  168MOL0     H23155   8.482   9.871   2.563 -1.4565  1.6358  0.1274
  168MOL0     H23156   8.490   9.625   2.469  0.7081  0.7693  0.4130
  168MOL0     H23157   8.312   9.630   2.487  0.5481  0.2538  1.7457
  168MOL0     H23158   8.298   9.851   2.354 -1.6550  0.7460 -1.3142
  168MOL0     H23159   8.319   9.703   2.263  1.6652 -0.6152 -0.5343
  168MOL0     H23160   8.587   9.838   2.343  1.5391 -3.0508 -0.1923
  168MOL0     H23161   8.490   9.919   2.232 -0.7078 -0.1064  1.0444
  168MOL0     H23162   8.635   9.792   2.091 -1.2394  2.1226  1.3294
  168MOL0     H23163   8.479   9.702   2.096 -0.0702  0.4808 -1.2559
  168MOL0     H23164   7.808   9.539   2.856  0.7840  1.7621  2.2680
  168MOL0     H23165   7.559   9.544   2.844  3.0328 -2.1561  2.4568
  168MOL0     H23166   7.129   9.566   2.985  2.5992 -2.7746 -3.1064
  168MOL0     H23167   6.889   9.576   2.948 -1.8363  1.5214 -0.6295
  168MOL0     H23168   5.272   9.105   2.995  0.4981  1.0695  0.2629
  168MOL0     H23169   5.066   9.041   2.895  0.3257  1.6141  0.2076
  168MOL0     H23170   4.655   8.856   2.968  2.5620  1.2965 -0.1500
  168MOL0     H23171   4.429   8.784   2.880 -1.9605  0.7853 -0.1254
  168MOL0     H23172   4.152   9.042   2.928 -1.1094 -0.0636 -1.5843
  168MOL0     H23173   4.128   9.078   2.758  2.8209 -0.2567 -2.1868
  168MOL0     H23174   4.042   8.841   2.919 -0.5820 -0.2707 -0.1533
  168MOL0     H23175   4.018   8.839   2.748 -0.3495 -3.2826  0.5168
  168MOL0     H23176   3.855   9.014   2.753  2.1614 -1.5590 -0.4519
  168MOL0     H23177   3.819   8.901   2.866  0.1417 -1.3844 -3.9546
  168MOL0     H23178   3.760   9.087   2.971  0.0383  0.6740  0.5584
  168MOL0     H23179   3.911   9.171   2.935  1.5478 -0.9057 -2.5336
  168MOL0     H23180   4.018   8.933   3.274 -1.8915 -0.1659  0.2941
  168MOL0     H23181   4.338   9.195   2.796  1.6417  1.2427 -1.1882
  168MOL0     H23182   4.490   9.351   2.778  0.7319  0.1802 -1.4092
  168MOL0     H23183   4.521   9.363   2.955  0.8710  0.4002 -0.5881
  168MOL0     H23184   4.650   9.344   2.835  0.1038  1.0067 -0.1940
  169MOL0     O23185   0.184   9.330  10.149 -0.0954 -0.4494  0.0961
  169MOL0     C23186   0.252   9.235  10.117  0.5063 -0.8902 -0.1200
  169MOL0     O23187   0.222   9.141  10.034 -0.0883  0.3838 -0.4581
  169MOL0     C23188   0.097   9.133   9.989  0.0836  0.6068  0.1331
  169MOL0     C23189   0.014   9.078  10.088  0.9261 -0.2198 -0.0632
  169MOL0     C23190  -0.121   9.048  10.070  0.2236 -0.1762  0.9012
  169MOL0     C23191  -0.175   9.090   9.940  0.2717  0.7903  0.3960
  169MOL0     O23192  -0.295   9.067   9.890  0.4086 -0.6133 -0.8227
  169MOL0     C23193  -0.359   8.951   9.935 -0.2191 -0.3840 -0.2103
  169MOL0     C23194  -0.497   8.973   9.879  0.3465 -0.5970 -0.7194
  169MOL0     C23195  -0.581   9.091   9.942  0.3210  0.3651 -0.1788
  169MOL0     C23196  -0.723   9.094   9.874  0.3797 -0.1703  0.0771
  169MOL0     C23197  -0.813   9.216   9.905 -0.3432 -0.8594 -0.1894
  169MOL0     C23198  -0.950   9.213   9.834 -0.0176 -0.2374 -0.3383
  169MOL0     C23199  -1.037   9.329   9.873 -0.5524 -0.5742 -0.0757
  169MOL0     C23200  -1.190   9.320   9.832 -0.2452  0.7804  0.4620
  169MOL0     N23201  -1.186   9.296   9.684  0.3696 -0.8602 -0.4945
  169MOL0     C23202  -1.230   9.177   9.626 -0.2980  1.1570  0.5039
  169MOL0     C23203  -1.244   9.204   9.494 -0.3200  0.1884  0.2654
  169MOL0     C23204  -1.279   9.095   9.389  0.3340 -0.0113  0.4570
  169MOL0     C23205  -1.161   9.045   9.301  0.6716 -0.4813 -0.4699
  169MOL0     C23206  -1.044   8.984   9.377  0.1226 -1.0449  0.6080
  169MOL0     C23207  -0.933   8.936   9.288  0.3065  0.3266 -0.2772
  169MOL0     O23208  -0.821   8.932   9.371  0.4105  0.1115  0.2590
  169MOL0     C23209  -0.720   8.850   9.338 -0.0384 -0.1741 -0.9295
  169MOL0     C23210  -0.645   8.775   9.434 -0.0066  1.0556  0.3810
  169MOL0     C23211  -0.549   8.685   9.387 -0.6148 -0.3869 -0.5873
  169MOL0     C23212  -0.467   8.617   9.502 -0.2009 -0.0361  0.2762
  169MOL0     C23213  -0.523   8.664   9.250 -0.3638 -0.5092  0.5920
  169MOL0     C23214  -0.423   8.561   9.198  0.8891 -0.3908 -0.5586
  169MOL0     O23215  -0.360   8.593   9.086  0.3158  0.6801  0.1252
  169MOL0     C23216  -0.258   8.525   9.025  0.3526 -0.5514 -0.0874
  169MOL0     C23217  -0.249   8.549   8.888 -0.6801  0.3072  0.1396
  169MOL0     C23218  -0.162   8.466   8.814  0.1369 -0.8035  0.1733
  169MOL0     C23219  -0.072   8.373   8.875 -0.3769  0.7402 -0.4033
  169MOL0     O23220   0.023   8.308   8.792 -0.0682 -0.0434 -1.2987
  169MOL0     C23221   0.152   8.262   8.857  0.6027  0.0234  0.0270
  169MOL0     C23222   0.234   8.172   8.760  0.7774  0.3157 -0.3803
  169MOL0     C23223   0.274   8.243   8.628  0.0645  0.6250  0.2144
  169MOL0     C23224   0.375   8.166   8.545  0.6408 -0.2413 -0.3749
  169MOL0     C23225   0.362   8.179   8.390 -0.1223  0.2668  0.3020
  169MOL0     C23226   0.502   8.175   8.326 -0.8456  0.3411  0.9798
  169MOL0     C23227   0.589   8.304   8.324 -0.3523 -0.5563  0.7943
  169MOL0     C23228   0.712   8.302   8.232 -0.7468  0.1118  0.7304
  169MOL0    Cl23229   0.821   8.170   8.281  0.0143  0.2360 -0.1374
  169MOL0     C23230  -0.065   8.377   9.019 -0.4545 -0.2106 -0.4239
  169MOL0     C23231  -0.169   8.446   9.090 -0.4595  0.0596 -0.0001
  169MOL0     O23232  -0.425   8.455   9.255  0.3193  0.5944 -0.0658
  169MOL0     C23233  -0.595   8.747   9.157 -0.2632 -0.4521  0.2812
  169MOL0     C23234  -0.686   8.840   9.204  0.3063  0.2028  0.2755
  169MOL0     N23235  -1.203   9.335   9.471 -0.1214  0.1888  0.8336
  169MOL0     N23236  -1.183   9.397   9.592  0.8720  0.0291 -0.2297
  169MOL0     C23237  -0.095   9.168   9.852  0.6671  0.4642 -0.6867
  169MOL0     C23238   0.042   9.189   9.875  0.0259  0.1895 -0.4758
  169MOL0     C23239   0.393   9.234  10.164  0.8288  1.6373  0.8113
  169MOL0     C23240   0.437   9.101  10.179 -0.4703 -0.0772 -0.2423
  169MOL0     C23241   0.561   9.085  10.242 -0.4955 -0.2114 -0.1443
  169MOL0     C23242   0.652   9.187  10.267 -0.3460  0.1427  0.0219
  169MOL0     O23243   0.783   9.175  10.299 -0.5090 -0.3181 -0.1817
  169MOL0     C23244   0.835   9.040  10.309  0.2263  0.4687  0.6076
  169MOL0     C23245   0.986   9.045  10.332 -0.4689 -0.1246  0.1593
  169MOL0     C23246   1.064   9.135  10.237  0.3391  0.3388  1.2166
  169MOL0     C23247   1.021   9.111  10.086  0.1703 -0.0572 -1.1302
  169MOL0     C23248   1.116   9.178  10.011 -0.2979  0.7161  0.3132
  169MOL0     C23249   1.198   9.237   9.942  0.9545  0.6568 -0.7215
  169MOL0     C23250   0.604   9.316  10.240 -0.8646 -0.3939  0.6785
  169MOL0     C23251   0.476   9.338  10.188 -0.3683  0.9024 -0.3873
  169MOL0     C23252   0.430   9.474  10.158 -0.0611 -0.2585 -0.4967
  169MOL0     H23253   0.069   9.056  10.179  2.0160  0.2914 -0.5807
  169MOL0     H23254  -0.171   8.989  10.146  1.6249 -0.5489  1.5736
  169MOL0     H23255  -0.350   8.947  10.044  0.1725  0.1735 -0.2237
  169MOL0     H23256  -0.310   8.867   9.884  1.8649  1.7239 -1.8927
  169MOL0     H23257  -0.480   8.989   9.773  0.0924 -2.1313 -1.0092
  169MOL0     H23258  -0.558   8.883   9.892 -2.3009  0.7455 -2.8235
  169MOL0     H23259  -0.585   9.077  10.050  1.3485  0.6579 -0.0917
  169MOL0     H23260  -0.532   9.184   9.912 -0.1958 -0.1864 -3.0528
  169MOL0     H23261  -0.695   9.093   9.769  1.1849 -0.3422  0.2810
  169MOL0     H23262  -0.778   9.009   9.914  0.7307  0.4401  2.0120
  169MOL0     H23263  -0.754   9.306   9.883 -0.2274 -0.4006  1.7914
  169MOL0     H23264  -0.832   9.238  10.011  1.0943  4.0954 -0.6942
  169MOL0     H23265  -0.931   9.211   9.726  0.1659 -1.4025 -0.3038
  169MOL0     H23266  -0.995   9.117   9.862  1.3523 -0.9955 -0.6676
  169MOL0     H23267  -1.002   9.420   9.825  0.7920 -1.4689 -0.8510
  169MOL0     H23268  -1.029   9.333   9.982  1.6929 -1.7567 -0.1363
  169MOL0     H23269  -1.245   9.240   9.882  1.2121 -0.2533  0.4747
  169MOL0     H23270  -1.235   9.414   9.864  0.3742  1.0404  0.5822
  169MOL0     H23271  -1.256   9.082   9.672  0.7359  1.2727  1.3717
  169MOL0     H23272  -1.356   9.139   9.326 -0.0108 -0.1126  0.8061
  169MOL0     H23273  -1.327   9.016   9.447  2.4991 -3.0455 -1.5902
  169MOL0     H23274  -1.199   8.967   9.235 -1.2155  0.8384 -1.0592
  169MOL0     H23275  -1.124   9.137   9.256  1.5721  0.8428  2.6469
  169MOL0     H23276  -1.018   9.062   9.450 -0.6362  0.2095 -0.4209
  169MOL0     H23277  -1.083   8.889   9.414  1.3221 -3.3651 -3.5043
  169MOL0     H23278  -0.957   8.839   9.243  0.3605  1.4169 -2.8380
  169MOL0     H23279  -0.914   9.003   9.203 -2.1866  0.2489 -0.9740
  169MOL0     H23280  -0.657   8.786   9.541 -0.7717  1.0192  0.3059
  169MOL0     H23281  -0.368   8.595   9.459 -1.2033 -2.0797 -1.1543
  169MOL0     H23282  -0.520   8.527   9.533 -0.9830  0.7499  1.2653
  169MOL0     H23283  -0.460   8.681   9.590  1.8633 -1.5364  1.2811
  169MOL0     H23284  -0.314   8.622   8.841 -0.4093 -0.0594 -0.8215
  169MOL0     H23285  -0.162   8.495   8.709  1.0367  0.7189  0.5628
  169MOL0     H23286   0.207   8.354   8.880 -0.0898  0.5355 -0.2998
  169MOL0     H23287   0.146   8.211   8.953  0.3249  0.5081  0.2674
  169MOL0     H23288   0.322   8.126   8.805 -0.7977 -1.9740  0.5801
  169MOL0     H23289   0.170   8.085   8.741  0.0563  0.0915  2.5770
  169MOL0     H23290   0.321   8.338   8.653  1.8676 -0.7229  2.3358
  169MOL0     H23291   0.193   8.267   8.559  0.8586  1.6497 -0.3997
  169MOL0     H23292   0.372   8.061   8.576  0.2235  0.4724  2.3360
  169MOL0     H23293   0.467   8.203   8.591  1.6007 -1.9540 -0.8571
  169MOL0     H23294   0.301   8.094   8.358  1.4446 -1.6649  2.1371
  169MOL0     H23295   0.306   8.269   8.364 -1.5561 -0.5794  0.3518
  169MOL0     H23296   0.494   8.142   8.221  3.1819  0.9693  0.3412
  169MOL0     H23297   0.559   8.097   8.377 -0.9098 -0.2235  0.2181
  169MOL0     H23298   0.623   8.343   8.420 -0.2266  2.9064 -0.5128
  169MOL0     H23299   0.524   8.381   8.280 -0.1147  1.2252  3.3552
  169MOL0     H23300   0.762   8.399   8.235  4.0915 -2.0889  1.1685
  169MOL0     H23301   0.692   8.273   8.129  2.7286 -2.8732  0.6839
  169MOL0     H23302   0.005   8.308   9.065 -0.4907 -0.7536 -1.1746
  169MOL0     H23303  -0.183   8.438   9.197 -0.1926  3.2262  0.3675
  169MOL0     H23304  -0.579   8.722   9.053 -1.4506 -1.0554  0.2272
  169MOL0     H23305  -0.746   8.890   9.128  2.0712 -2.0913 -2.8453
  169MOL0     H23306  -0.146   9.188   9.758 -1.4814 -2.8046 -0.4165
  169MOL0     H23307   0.118   9.239   9.815  3.9724 -0.9972  3.0083
  169MOL0     H23308   0.378   9.011  10.166  0.7376 -1.2523  1.9673
  169MOL0     H23309   0.589   8.984  10.269  1.2132  0.9329  2.7999
  169MOL0     H23310   0.784   9.004  10.398 -0.7433 -0.1103 -0.1688
  169MOL0     H23311   0.808   8.979  10.222 -0.6374  1.4777  0.1366
  169MOL0     H23312   1.022   8.942  10.336  0.0295  0.0072 -0.6591
  169MOL0     H23313   0.998   9.088  10.431  3.6510 -1.7075  0.5401
  169MOL0     H23314   1.035   9.239  10.257  0.7824  1.5167 -3.2425
  169MOL0     H23315   1.172   9.116  10.241  0.4531 -0.6457 -2.4627
  169MOL0     H23316   0.919   9.144  10.064 -1.1754 -2.1081  1.3268
  169MOL0     H23317   1.024   9.004  10.063  0.0856 -0.3212  0.0014
  169MOL0     H23318   1.268   9.276   9.872  0.5153 -0.0067 -1.5449
  169MOL0     H23319   0.665   9.405  10.255  0.1319 -0.8087 -0.7121
  169MOL0     H23320   0.398   9.490  10.055  1.5256 -1.1178 -1.1735
  169MOL0     H23321   0.349   9.499  10.227  0.3060 -3.5940  1.3684
  169MOL0     H23322   0.514   9.541  10.178 -1.6705  2.1684 -1.5071
  170MOL0     O23323   7.385   0.372   2.705  0.5566 -0.2093  0.1245
  170MOL0     C23324   7.400   0.334   2.588  0.1757 -0.3081 -0.4233
  170MOL0     O23325   7.506   0.377   2.508  0.1002  0.4404  0.1041
  170MOL0     C23326   7.584   0.480   2.560 -0.1401  0.1729  0.0016
  170MOL0     C23327   7.578   0.612   2.511  0.1532  0.2083  0.8679
  170MOL0     C23328   7.670   0.712   2.559 -0.5166  0.5890 -0.0197
  170MOL0     C23329   7.777   0.672   2.639 -0.4073  0.3360 -1.1725
  170MOL0     O23330   7.872   0.752   2.693 -0.5665  0.2938 -0.3524
  170MOL0     C23331   7.908   0.869   2.620 -0.7470  0.1871 -0.3896
  170MOL0     C23332   8.057   0.904   2.627  0.5633 -0.1492  0.8397
  170MOL0     C23333   8.108   0.938   2.759  0.6691  0.7259  0.5688
  170MOL0     C23334   8.262   0.930   2.755 -0.0111  0.2388  0.4083
  170MOL0     C23335   8.290   0.944   2.907  0.2398  0.3248 -0.3006
  170MOL0     C23336   8.438   0.940   2.935  0.1066 -0.1846 -0.3499
  170MOL0     C23337   8.465   0.966   3.090  0.3705 -0.7311  0.0584
  170MOL0     C23338   8.612   1.030   3.106 -0.7918 -0.7852  0.4876
  170MOL0     N23339   8.619   1.176   3.117  0.4314  0.1031 -0.3902
  170MOL0     C23340   8.710   1.251   3.180 -0.8886 -0.4295 -0.4567
  170MOL0     C23341   8.690   1.378   3.131 -0.2538 -0.2015 -0.7845
  170MOL0     C23342   8.756   1.505   3.174 -0.2805 -0.3552  0.2828
  170MOL0     C23343   8.890   1.479   3.249 -0.9480  0.0987 -0.4544
  170MOL0     C23344   8.988   1.582   3.212 -0.4974  0.0120  0.1017
  170MOL0     C23345   8.973   1.717   3.288 -1.1473  0.4119 -0.9003
  170MOL0     O23346   9.047   1.813   3.211 -0.0635  0.3588  0.0241
  170MOL0     C23347   9.111   1.914   3.279 -0.4912  0.3616 -0.9705
  170MOL0     C23348   9.225   1.962   3.230  0.2027  0.7228 -0.2747
  170MOL0     C23349   9.304   2.062   3.283  0.3279 -1.3356 -0.2206
  170MOL0     C23350   9.431   2.123   3.221  0.4601 -0.4962 -0.8614
  170MOL0     C23351   9.262   2.102   3.414 -0.4453 -1.3134  0.7328
  170MOL0     C23352   9.329   2.208   3.490 -0.2639  0.3328 -0.3394
  170MOL0     O23353   9.348   2.340   3.429 -0.0641 -0.1503 -0.3617
  170MOL0     C23354   9.413   2.428   3.513  0.3101  0.1373  0.0736
  170MOL0     C23355   9.331   2.492   3.609 -0.0505 -0.3416  0.8754
  170MOL0     C23356   9.382   2.591   3.694 -0.5535 -0.1011 -1.0876
  170MOL0     C23357   9.525   2.612   3.702  0.2473 -0.7775 -0.1557
  170MOL0     O23358   9.594   2.702   3.777 -0.2921  0.8591  0.1145
  170MOL0     C23359   9.548   2.735   3.909  0.2750  0.7658  0.1188
  170MOL0     C23360   9.667   2.768   4.003 -0.0008 -0.2308  0.5910
  170MOL0     C23361   9.625   2.810   4.145 -0.7106 -0.4975 -0.2284
  170MOL0     C23362   9.751   2.830   4.230  0.2065  0.8729  0.0635
  170MOL0     C23363   9.731   2.880   4.367  0.4972  0.2876 -0.7704
  170MOL0     C23364   9.870   2.868   4.436 -0.1630 -0.4953 -0.9521
  170MOL0     C23365   9.863   2.895   4.584 -0.0169 -0.0959 -0.1183
  170MOL0     C23366  10.002   2.884   4.650  1.0197 -0.7118 -0.8532
  170MOL0    Cl23367  10.077   2.724   4.648 -0.1737 -0.1816  0.6170
  170MOL0     C23368   9.604   2.547   3.605 -0.0634  0.2464 -1.2581
  170MOL0     C23369   9.554   2.454   3.515  0.8524  0.6723  0.4622
  170MOL0     O23370   9.387   2.169   3.590 -0.8527 -0.4531  0.0307
  170MOL0     C23371   9.147   2.059   3.469  0.5952 -0.6816 -0.3449
  170MOL0     C23372   9.064   1.970   3.396  0.0551 -0.0963  0.2038
  170MOL0     N23373   8.583   1.376   3.048 -0.3219 -0.0932 -0.2358
  170MOL0     N23374   8.537   1.260   3.045 -0.4643 -0.1924 -0.3721
  170MOL0     C23375   7.792   0.531   2.674 -0.2777 -0.6054  0.3895
  170MOL0     C23376   7.696   0.447   2.631  0.7367  0.1301  0.5882
  170MOL0     C23377   7.321   0.207   2.553 -1.1540 -0.8265  0.1120
  170MOL0     C23378   7.385   0.131   2.449  0.4584  0.7451  0.9306
  170MOL0     C23379   7.339   0.016   2.401  0.6521  0.8007  1.0599
  170MOL0     C23380   7.223  -0.041   2.456 -0.0601  0.2594 -0.4984
  170MOL0     O23381   7.170  -0.165   2.416  0.3860 -0.2506  0.0776
  170MOL0     C23382   7.211  -0.214   2.290 -0.1663  0.3419 -0.2833
  170MOL0     C23383   7.115  -0.314   2.226  0.8006  0.1304  0.4636
  170MOL0     C23384   6.961  -0.301   2.256  0.0438  0.5134 -0.6918
  170MOL0     C23385   6.910  -0.165   2.209  0.4670  0.1200 -0.0453
  170MOL0     C23386   6.915  -0.156   2.061 -0.6083 -0.8818 -0.4538
  170MOL0     C23387   6.926  -0.138   1.944  0.0034 -0.1920 -0.2664
  170MOL0     C23388   7.154   0.025   2.553  0.9008 -0.8405 -0.5703
  170MOL0     C23389   7.200   0.146   2.604  0.1230 -0.7811 -0.3053
  170MOL0     C23390   7.112   0.214   2.709  0.4760 -0.0550  0.7880
  170MOL0     H23391   7.501   0.640   2.440  0.7462 -1.5201 -0.5491
  170MOL0     H23392   7.645   0.816   2.544  1.2105  1.0065 -0.2042
  170MOL0     H23393   7.851   0.953   2.660 -3.2027 -0.8909 -1.4501
  170MOL0     H23394   7.875   0.852   2.517 -1.8139  0.0386 -0.0267
  170MOL0     H23395   8.103   0.810   2.595 -2.2196 -1.5540  0.6846
  170MOL0     H23396   8.078   0.974   2.546 -2.3868  2.1013  1.8752
  170MOL0     H23397   8.077   1.039   2.790  0.2225  0.8554 -0.2824
  170MOL0     H23398   8.067   0.867   2.831 -2.4931  0.7850 -1.0125
  170MOL0     H23399   8.303   0.839   2.712  0.1065 -0.2657  1.5663
  170MOL0     H23400   8.308   1.015   2.704  1.4342  0.7661  2.4724
  170MOL0     H23401   8.256   0.852   2.954 -1.2693 -0.1424 -2.2021
  170MOL0     H23402   8.247   1.032   2.957 -2.0654 -0.1504 -1.3325
  170MOL0     H23403   8.484   0.846   2.902 -0.3728 -1.0580  1.3508
  170MOL0     H23404   8.481   1.021   2.875  2.1603  0.9054  2.4083
  170MOL0     H23405   8.450   0.872   3.143 -0.4156 -0.9044 -0.4519
  170MOL0     H23406   8.394   1.041   3.127  2.7120  1.0113  1.2748
  170MOL0     H23407   8.647   0.987   3.200 -1.8777  0.7284  1.6440
  170MOL0     H23408   8.684   1.010   3.027 -0.6344  0.8016  0.1921
  170MOL0     H23409   8.776   1.217   3.260 -1.3355 -1.5761 -0.5673
  170MOL0     H23410   8.679   1.561   3.228 -1.4092 -0.2456 -1.3381
  170MOL0     H23411   8.775   1.562   3.083 -1.1086 -2.0327 -1.0017
  170MOL0     H23412   8.868   1.470   3.356 -0.0434  0.1321 -0.2575
  170MOL0     H23413   8.932   1.387   3.207  0.3890  0.8348 -0.8014
  170MOL0     H23414   9.085   1.537   3.235 -1.2125 -1.5858  0.0977
  170MOL0     H23415   8.995   1.594   3.103  1.6853  0.6287  0.2626
  170MOL0     H23416   8.873   1.762   3.298  0.8133  5.7426 -1.7381
  170MOL0     H23417   9.026   1.703   3.383  0.8944 -1.8789 -2.2798
  170MOL0     H23418   9.252   1.910   3.139 -2.3261 -1.0841 -0.0935
  170MOL0     H23419   9.408   2.228   3.202  2.3232  0.3596  1.2036
  170MOL0     H23420   9.460   2.066   3.132  1.2005  0.8086 -1.4819
  170MOL0     H23421   9.511   2.120   3.296 -1.7722  1.8809  1.8376
  170MOL0     H23422   9.226   2.463   3.614  0.3980 -2.5998 -1.0889
  170MOL0     H23423   9.327   2.637   3.775 -0.5727 -0.2532 -1.0142
  170MOL0     H23424   9.464   2.804   3.903 -1.0460 -0.8757 -1.3309
  170MOL0     H23425   9.507   2.642   3.950 -1.1605  1.8904  1.3062
  170MOL0     H23426   9.731   2.679   3.998 -2.9740 -2.6432  1.7328
  170MOL0     H23427   9.720   2.846   3.950  0.1990 -2.1264 -2.2150
  170MOL0     H23428   9.550   2.742   4.187  0.6560 -1.1217  1.2778
  170MOL0     H23429   9.601   2.917   4.137 -0.2263 -0.4009 -0.4573
  170MOL0     H23430   9.827   2.895   4.185  2.4552 -1.4138  0.2844
  170MOL0     H23431   9.792   2.729   4.236 -1.6090  0.0196 -1.2823
  170MOL0     H23432   9.700   2.984   4.356 -1.1761  0.3189  2.8110
  170MOL0     H23433   9.658   2.829   4.430  2.8007 -1.5437  0.5667
  170MOL0     H23434   9.953   2.919   4.385  0.3682 -0.8545 -0.4657
  170MOL0     H23435   9.895   2.761   4.429  3.4500 -0.0007  1.4492
  170MOL0     H23436   9.809   2.808   4.622  1.1466 -0.3265  1.0724
  170MOL0     H23437   9.823   2.994   4.608  0.4429  0.0325  0.1257
  170MOL0     H23438   9.973   2.896   4.755  2.3264  0.1773 -0.5642
  170MOL0     H23439  10.068   2.967   4.623 -0.1792  2.0725  3.5456
  170MOL0     H23440   9.711   2.557   3.617 -0.1400  0.6164 -0.8323
  170MOL0     H23441   9.608   2.402   3.436 -3.4409 -0.3977 -2.0816
  170MOL0     H23442   9.108   2.113   3.555  1.5299 -1.1256  0.3780
  170MOL0     H23443   8.959   1.957   3.422 -0.7323  1.7962 -1.6842
  170MOL0     H23444   7.873   0.498   2.738 -1.4704 -0.1002  2.2485
  170MOL0     H23445   7.692   0.340   2.650 -3.1547  0.1638  0.9077
  170MOL0     H23446   7.477   0.171   2.406  0.4048  0.8124  0.8763
  170MOL0     H23447   7.409  -0.038   2.338 -0.8146  1.2588 -1.0637
  170MOL0     H23448   7.230  -0.132   2.219  0.9122  0.4588  0.1269
  170MOL0     H23449   7.306  -0.264   2.310 -1.2747 -1.2770  1.1939
  170MOL0     H23450   7.140  -0.414   2.264 -1.1312 -0.4823  0.2065
  170MOL0     H23451   7.133  -0.319   2.119  0.9738 -2.9805  0.5469
  170MOL0     H23452   6.916  -0.386   2.204 -1.0313  2.4424 -3.1159
  170MOL0     H23453   6.948  -0.321   2.362 -3.4052  0.5314 -0.9988
  170MOL0     H23454   6.961  -0.082   2.258  1.1143 -0.2841 -0.0202
  170MOL0     H23455   6.807  -0.155   2.243  0.9378 -0.3654  1.6496
  170MOL0     H23456   6.904  -0.113   1.842 -3.3251 -1.3192  0.0429
  170MOL0     H23457   7.062  -0.031   2.568 -0.0646  0.5669 -1.1438
  170MOL0     H23458   7.054   0.140   2.764 -3.0769  0.1177 -2.3217
  170MOL0     H23459   7.164   0.287   2.772 -0.1029  0.6468  0.4749
  170MOL0     H23460   7.029   0.272   2.668 -1.2406 -2.1339  1.1541
  171MOL0     O23461   1.660   0.217   2.186  0.0684 -0.2453 -0.7122
  171MOL0     C23462   1.725   0.115   2.153  0.1356 -1.1131  0.1321
  171MOL0     O23463   1.857   0.092   2.189 -0.6847  1.1785  0.5548
  171MOL0     C23464   1.920   0.167   2.289 -0.3867  0.4087  0.0827
  171MOL0     C23465   2.049   0.136   2.314  0.2283 -0.4060 -0.3081
  171MOL0     C23466   2.131   0.201   2.406  0.3786 -0.2787  0.8810
  171MOL0     C23467   2.086   0.301   2.486 -0.0742  0.3477  0.2734
  171MOL0     O23468   2.161   0.341   2.594 -0.1929 -0.0472 -0.4149
  171MOL0     C23469   2.097   0.447   2.674 -0.6063 -0.4249 -0.0531
  171MOL0     C23470   2.195   0.506   2.778 -0.1269 -0.1404 -1.6426
  171MOL0     C23471   2.203   0.426   2.908 -0.4141 -0.3101  0.4295
  171MOL0     C23472   2.270   0.515   3.024  0.0249 -0.1120  0.0573
  171MOL0     C23473   2.352   0.427   3.117 -0.3652 -0.8445 -0.7030
  171MOL0     C23474   2.496   0.416   3.061 -0.7525 -0.1716 -0.4165
  171MOL0     C23475   2.560   0.278   3.091  0.2617 -0.2407 -0.3702
  171MOL0     C23476   2.693   0.269   3.014  1.0114 -0.8321 -0.4778
  171MOL0     N23477   2.751   0.139   3.034  0.8824  0.2246 -0.1081
  171MOL0     C23478   2.768   0.091   3.161 -0.1831  0.7223  0.5314
  171MOL0     C23479   2.834  -0.027   3.138 -0.5139 -0.1510  0.3490
  171MOL0     C23480   2.890  -0.120   3.236  0.1597  0.8226 -0.7187
  171MOL0     C23481   3.033  -0.097   3.246  0.0813  0.0007 -0.3749
  171MOL0     C23482   3.092  -0.187   3.357  0.6166  0.4757 -0.0235
  171MOL0     C23483   3.246  -0.193   3.352  0.4658 -0.0582 -0.4217
  171MOL0     O23484   3.296  -0.259   3.240 -0.1105 -0.1119 -0.3782
  171MOL0     C23485   3.431  -0.225   3.220 -0.4788  0.3870  0.6085
  171MOL0     C23486   3.470  -0.091   3.185 -0.4497 -0.4661  0.0233
  171MOL0     C23487   3.613  -0.065   3.150 -0.6541  0.1446 -0.6590
  171MOL0     C23488   3.656   0.084   3.132 -0.0416  0.5748  0.9065
  171MOL0     C23489   3.701  -0.172   3.138 -0.5158  0.4510  0.6021
  171MOL0     C23490   3.842  -0.169   3.081 -0.4794 -0.9451 -0.6488
  171MOL0     O23491   3.874  -0.065   2.992 -0.6608 -0.2952  0.0420
  171MOL0     C23492   4.008  -0.052   2.967 -0.5505  0.4980 -0.5711
  171MOL0     C23493   4.071  -0.123   2.859 -0.2761 -0.3654  0.1341
  171MOL0     C23494   4.208  -0.120   2.841 -0.2119  0.3254 -0.8211
  171MOL0     C23495   4.283  -0.024   2.914 -0.4792 -0.0974 -0.9126
  171MOL0     O23496   4.417  -0.025   2.890  0.6890  0.4930  1.0649
  171MOL0     C23497   4.460   0.109   2.860 -0.4937 -0.4423 -0.0827
  171MOL0     C23498   4.610   0.115   2.833 -0.3413 -0.2412 -0.2128
  171MOL0     C23499   4.702   0.115   2.957  0.8760  0.8129 -0.2892
  171MOL0     C23500   4.685  -0.023   3.038  0.3896 -0.2848 -0.3790
  171MOL0     C23501   4.812  -0.058   3.116 -0.7030 -0.2634 -1.0268
  171MOL0     C23502   4.809  -0.172   3.212  0.4405 -0.2410 -0.4512
  171MOL0     C23503   4.833  -0.308   3.143  0.1293  0.9098  0.4782
  171MOL0     C23504   4.852  -0.408   3.253  0.2770  0.5259  0.3083
  171MOL0    Cl23505   4.855  -0.566   3.189  0.1074  0.2656  0.2684
  171MOL0     C23506   4.221   0.055   3.011  0.2531  0.0993 -0.5414
  171MOL0     C23507   4.084   0.036   3.047  0.3134 -0.3530  0.8217
  171MOL0     O23508   3.919  -0.258   3.117 -0.7575 -0.2598 -0.1837
  171MOL0     C23509   3.646  -0.301   3.154 -0.0528  0.3857 -0.7378
  171MOL0     C23510   3.528  -0.324   3.202  0.1883  0.1667 -1.1271
  171MOL0     N23511   2.860  -0.037   3.001  0.0153 -0.5925  0.0625
  171MOL0     N23512   2.801   0.057   2.939  1.1230 -0.2182 -0.0902
  171MOL0     C23513   1.954   0.343   2.455  0.4356 -0.8941 -0.6204
  171MOL0     C23514   1.874   0.275   2.365 -0.1647 -0.1840  0.6663
  171MOL0     C23515   1.647   0.017   2.075  0.7915 -0.8477  0.0239
  171MOL0     C23516   1.665  -0.119   2.104 -0.2123 -0.7774  0.6488
  171MOL0     C23517   1.596  -0.210   2.028 -0.1558  0.5250 -0.1427
  171MOL0     C23518   1.508  -0.179   1.917 -0.0564  0.8108 -0.5270
  171MOL0     O23519   1.421  -0.272   1.861  0.5134  0.6092 -0.4918
  171MOL0     C23520   1.455  -0.322   1.724 -0.6208 -0.0728  0.0483
  171MOL0     C23521   1.610  -0.339   1.706 -0.1973  0.4674  0.2250
  171MOL0     C23522   1.654  -0.370   1.560  1.1944 -0.3409 -0.9776
  171MOL0     C23523   1.807  -0.354   1.551  1.1197  0.0371  0.0858
  171MOL0     C23524   1.894  -0.450   1.614  0.2536 -0.0398 -0.2885
  171MOL0     C23525   1.955  -0.531   1.684  0.6210 -0.4143 -0.1107
  171MOL0     C23526   1.499  -0.049   1.885  0.8046 -0.2199  0.3304
  171MOL0     C23527   1.564   0.052   1.960  0.6909 -0.0967 -0.3564
  171MOL0     C23528   1.550   0.189   1.910 -0.6827  0.0731  0.1139
  171MOL0     H23529   2.089   0.051   2.260 -0.1100  1.1651 -3.2190
  171MOL0     H23530   2.226   0.149   2.417  1.0189  0.5771 -0.3428
  171MOL0     H23531   2.003   0.409   2.716  0.4044 -3.3733 -0.1781
  171MOL0     H23532   2.069   0.527   2.605  2.9873 -0.4130 -1.7321
  171MOL0     H23533   2.294   0.522   2.734  0.8468 -2.4549 -0.5125
  171MOL0     H23534   2.156   0.604   2.807 -1.2424 -0.9502 -0.2675
  171MOL0     H23535   2.106   0.384   2.937 -0.6971 -0.4660 -0.7099
  171MOL0     H23536   2.270   0.342   2.888 -0.7239 -0.1870 -1.3164
  171MOL0     H23537   2.334   0.592   2.979 -2.8418  2.0642 -0.5704
  171MOL0     H23538   2.187   0.565   3.075 -1.7903 -2.4715 -0.3944
  171MOL0     H23539   2.305   0.329   3.128 -1.3875 -0.1164  2.1766
  171MOL0     H23540   2.358   0.469   3.218 -0.0177  2.1622 -1.8674
  171MOL0     H23541   2.493   0.424   2.952 -0.2196 -1.5622 -0.5592
  171MOL0     H23542   2.563   0.496   3.095 -1.8558  0.8641 -0.6216
  171MOL0     H23543   2.492   0.194   3.074  0.4991 -0.4704 -0.2042
  171MOL0     H23544   2.574   0.286   3.199 -1.9897 -1.7780  0.0990
  171MOL0     H23545   2.663   0.282   2.910 -1.3899 -1.2825  0.0926
  171MOL0     H23546   2.758   0.351   3.047  0.8813 -0.9985  0.2034
  171MOL0     H23547   2.735   0.122   3.260  0.2053  0.1458  0.8503
  171MOL0     H23548   2.857  -0.222   3.216 -1.9785  0.9653  1.5188
  171MOL0     H23549   2.843  -0.103   3.334  0.5870 -2.9877  0.3067
  171MOL0     H23550   3.088  -0.114   3.153  1.6954 -1.5017  0.7775
  171MOL0     H23551   3.046   0.010   3.266 -4.2336  1.0765 -2.0885
  171MOL0     H23552   3.061  -0.154   3.456  1.5332 -0.8475  0.7413
  171MOL0     H23553   3.058  -0.290   3.342  3.1466 -0.1884 -2.0650
  171MOL0     H23554   3.274  -0.088   3.366 -0.9761  0.0774  1.9833
  171MOL0     H23555   3.275  -0.240   3.447 -3.4640 -1.6853  0.1306
  171MOL0     H23556   3.388  -0.019   3.181 -0.3332 -0.3198 -3.4630
  171MOL0     H23557   3.750   0.113   3.180 -0.4023  1.4646  1.0762
  171MOL0     H23558   3.588   0.161   3.165 -1.2512 -0.1176  0.1090
  171MOL0     H23559   3.669   0.088   3.023 -3.4094 -2.2830  0.1963
  171MOL0     H23560   4.008  -0.186   2.798 -4.1877  1.9961  1.4125
  171MOL0     H23561   4.252  -0.179   2.761 -0.1305 -2.7267  1.3179
  171MOL0     H23562   4.406   0.143   2.771  0.1379  0.4111 -0.1528
  171MOL0     H23563   4.437   0.180   2.939 -0.7746 -0.4365 -0.1686
  171MOL0     H23564   4.637   0.029   2.771  3.8093  0.7761 -0.0965
  171MOL0     H23565   4.625   0.202   2.768 -0.1880  0.0622  0.2233
  171MOL0     H23566   4.669   0.204   3.012 -0.1397 -0.8054  1.8447
  171MOL0     H23567   4.806   0.127   2.924  0.0175  1.9663 -2.9288
  171MOL0     H23568   4.663  -0.112   2.980 -2.6963  0.4343 -0.4699
  171MOL0     H23569   4.605  -0.023   3.113  0.5637 -2.1140 -0.1492
  171MOL0     H23570   4.889  -0.076   3.041  1.7151  2.7539  0.4959
  171MOL0     H23571   4.849   0.028   3.173  1.6238 -2.9386  1.9169
  171MOL0     H23572   4.710  -0.177   3.259  0.0806 -2.2438 -1.3634
  171MOL0     H23573   4.882  -0.150   3.291  1.1730  3.4888 -1.9357
  171MOL0     H23574   4.921  -0.308   3.077  0.5314 -0.0833  0.9953
  171MOL0     H23575   4.743  -0.318   3.080  2.2307  3.3311 -3.3431
  171MOL0     H23576   4.767  -0.397   3.322  0.0651  0.6400  0.0306
  171MOL0     H23577   4.953  -0.400   3.294  0.4058 -1.1442  0.3696
  171MOL0     H23578   4.281   0.120   3.072 -1.9531  0.6305  1.2246
  171MOL0     H23579   4.030   0.091   3.124  0.6462  1.1127  0.0438
  171MOL0     H23580   3.705  -0.387   3.126  2.1232  1.7199 -0.4653
  171MOL0     H23581   3.493  -0.427   3.213 -1.6020  0.9547  1.6817
  171MOL0     H23582   1.911   0.430   2.503 -1.6761 -1.5140 -1.2939
  171MOL0     H23583   1.773   0.314   2.354 -0.1041  0.3227  1.8053
  171MOL0     H23584   1.729  -0.155   2.184  1.5571 -1.3434 -0.9777
  171MOL0     H23585   1.582  -0.317   2.044 -2.6013  0.8658  0.3292
  171MOL0     H23586   1.400  -0.416   1.710  0.1242 -1.2786  3.8709
  171MOL0     H23587   1.429  -0.248   1.648  2.1715 -0.6274 -1.5591
  171MOL0     H23588   1.645  -0.422   1.768 -1.5873 -0.2137  0.1272
  171MOL0     H23589   1.657  -0.246   1.738  0.9504  0.0659 -0.2385
  171MOL0     H23590   1.623  -0.473   1.540  2.6905 -1.5847  2.3672
  171MOL0     H23591   1.607  -0.311   1.481  1.9744  0.4748 -0.8478
  171MOL0     H23592   1.833  -0.254   1.588 -1.0563  1.7442 -2.5764
  171MOL0     H23593   1.840  -0.345   1.447 -1.3142  0.8471 -0.7063
  171MOL0     H23594   2.010  -0.588   1.755  0.0819 -1.8220 -0.7966
  171MOL0     H23595   1.468  -0.011   1.788  3.6109 -2.0464 -1.4329
  171MOL0     H23596   1.600   0.189   1.813 -3.0373  0.6636 -1.1986
  171MOL0     H23597   1.447   0.225   1.895 -0.7495 -0.7396 -1.7075
  171MOL0     H23598   1.604   0.262   1.970  2.6643 -0.4651 -1.9730
  172MOL0     O23599   8.504  11.046   1.147  0.6299  0.0988  0.3589
  172MOL0     C23600   8.553  10.946   1.093 -0.0559 -0.4864  0.2671
  172MOL0     O23601   8.695  10.920   1.098  0.1092 -0.1856 -0.1182
  172MOL0     C23602   8.781  10.991   1.180  0.6617 -0.0252  0.3945
  172MOL0     C23603   8.844  10.922   1.286  0.0326  0.3374 -0.3943
  172MOL0     C23604   8.933  10.976   1.380  0.3741  0.3835 -0.6482
  172MOL0     C23605   8.955  11.114   1.366  0.1560  0.1283 -0.4913
  172MOL0     O23606   9.026  11.191   1.455 -0.1758  0.9689  0.2798
  172MOL0     C23607   9.089  11.119   1.562  0.7107 -0.1453  0.5969
  172MOL0     C23608   9.180  11.201   1.645 -0.1394 -0.3184  0.5298
  172MOL0     C23609   9.307  11.223   1.565  0.4781  0.2256  0.3870
  172MOL0     C23610   9.402  11.316   1.635 -0.3990  0.0374 -0.0974
  172MOL0     C23611   9.523  11.346   1.555 -0.2535 -0.0389 -0.7569
  172MOL0     C23612   9.604  11.231   1.495  0.3439  0.0185 -0.2973
  172MOL0     C23613   9.713  11.302   1.405  0.8061 -0.6867  0.7356
  172MOL0     C23614   9.669  11.326   1.258  1.3782 -0.2602  0.7850
  172MOL0     N23615   9.580  11.449   1.241 -0.0880  0.5021 -0.5355
  172MOL0     C23616   9.619  11.582   1.255 -0.8108  0.9103 -0.7501
  172MOL0     C23617   9.523  11.643   1.177  1.0679 -0.2289 -0.6340
  172MOL0     C23618   9.535  11.785   1.139 -0.0792  0.3294 -0.2603
  172MOL0     C23619   9.556  11.797   0.997 -0.5024  0.1983 -0.4669
  172MOL0     C23620   9.619  11.928   0.946  0.9972 -0.0260  0.3160
  172MOL0     C23621   9.517  12.044   0.942  0.0357  0.9709 -0.5649
  172MOL0     O23622   9.454  12.048   0.816 -0.5415 -1.0823  0.3430
  172MOL0     C23623   9.375  12.163   0.795 -0.0185  0.1639  0.3554
  172MOL0     C23624   9.271  12.186   0.877 -0.2227  0.4911 -0.6436
  172MOL0     C23625   9.188  12.300   0.856  0.1497  0.8656 -0.5595
  172MOL0     C23626   9.072  12.304   0.956 -0.3649 -0.4351  0.2560
  172MOL0     C23627   9.230  12.398   0.763 -0.2938  0.5805  1.3029
  172MOL0     C23628   9.141  12.509   0.722  0.0689 -0.4298 -0.5210
  172MOL0     O23629   9.179  12.595   0.634  0.4140  0.1130  1.2273
  172MOL0     C23630   9.083  12.673   0.576 -0.3157 -0.0447 -0.6262
  172MOL0     C23631   9.026  12.777   0.653 -0.0958  0.6525  0.0054
  172MOL0     C23632   8.937  12.866   0.596 -0.1495  0.1546 -0.4981
  172MOL0     C23633   8.899  12.853   0.459  0.0743  0.0731 -0.0147
  172MOL0     O23634   8.827  12.955   0.399 -0.6210  0.4376 -0.6797
  172MOL0     C23635   8.704  12.925   0.335  0.3923  0.0689 -0.4980
  172MOL0     C23636   8.617  13.056   0.350 -0.2658  0.2631 -0.4174
  172MOL0     C23637   8.632  13.150   0.231 -0.0751 -0.1999  0.4099
  172MOL0     C23638   8.578  13.294   0.249 -0.7019  0.6242 -0.2786
  172MOL0     C23639   8.552  13.352   0.101 -0.5559  0.1957 -0.7931
  172MOL0     C23640   8.663  13.439   0.060  0.1925  0.8435 -0.3426
  172MOL0     C23641   8.653  13.578   0.106 -0.1607  0.5132  0.4154
  172MOL0     C23642   8.784  13.653   0.098  0.3739  0.4129 -0.9859
  172MOL0    Cl23643   8.762  13.822   0.142  0.1623 -0.1923 -0.2757
  172MOL0     C23644   8.959  12.748   0.386  0.0649 -0.0643 -0.0389
  172MOL0     C23645   9.040  12.652   0.447 -0.4627  0.2437  0.2371
  172MOL0     O23646   9.026  12.510   0.767  0.4101  1.1961  1.2386
  172MOL0     C23647   9.349  12.375   0.685 -0.6056  1.0880 -0.6131
  172MOL0     C23648   9.416  12.254   0.698 -0.2062 -0.0527 -0.0696
  172MOL0     N23649   9.428  11.551   1.132  0.3278 -1.0195 -0.0835
  172MOL0     N23650   9.460  11.436   1.181 -0.0935 -0.6466  0.1757
  172MOL0     C23651   8.897  11.188   1.262 -1.2436  0.7337 -0.9255
  172MOL0     C23652   8.817  11.132   1.163  0.5469  0.5116  0.0040
  172MOL0     C23653   8.473  10.859   1.017  0.0524  0.1711  0.1804
  172MOL0     C23654   8.490  10.721   1.035  0.2138 -0.2629  0.1319
  172MOL0     C23655   8.405  10.626   0.975  0.3577 -0.2837  0.8913
  172MOL0     C23656   8.297  10.669   0.891  0.0893 -0.1024 -0.1594
  172MOL0     O23657   8.227  10.584   0.813 -0.2624  0.9951 -0.2501
  172MOL0     C23658   8.213  10.440   0.846 -0.1442  0.2677  0.3667
  172MOL0     C23659   8.150  10.380   0.719  0.8565 -0.2457  0.0895
  172MOL0     C23660   8.157  10.225   0.726 -0.2817  0.4671  1.1700
  172MOL0     C23661   8.119  10.159   0.590  0.2286  0.9201  0.3993
  172MOL0     C23662   7.990  10.204   0.546 -0.0665  0.4243 -1.0255
  172MOL0     C23663   7.886  10.236   0.511 -0.6829 -0.8876  0.7198
  172MOL0     C23664   8.289  10.804   0.868  0.3571  0.4134 -0.8067
  172MOL0     C23665   8.377  10.896   0.929 -0.1493 -0.6173 -0.0368
  172MOL0     C23666   8.372  11.039   0.882 -1.0105  0.6079 -0.4301
  172MOL0     H23667   8.825  10.816   1.299  0.7850  0.2407  0.0270
  172MOL0     H23668   8.966  10.926   1.471 -2.2615  1.4933  1.0617
  172MOL0     H23669   9.164  11.050   1.523 -0.3304 -1.2625  0.5129
  172MOL0     H23670   9.013  11.069   1.624 -0.5038  0.6967 -0.1733
  172MOL0     H23671   9.133  11.297   1.669  0.7520 -0.1164  1.5627
  172MOL0     H23672   9.207  11.148   1.737  1.4447 -0.6319 -0.0759
  172MOL0     H23673   9.347  11.122   1.548 -1.2777 -0.6028  0.9152
  172MOL0     H23674   9.281  11.257   1.464  2.0591 -2.6339 -1.1202
  172MOL0     H23675   9.368  11.405   1.689 -0.2675  0.6884 -1.0427
  172MOL0     H23676   9.434  11.260   1.723  1.6381 -0.3283 -1.0168
  172MOL0     H23677   9.597  11.400   1.614 -1.6806 -0.0361  1.1496
  172MOL0     H23678   9.499  11.421   1.479 -1.6482  0.6519  0.3092
  172MOL0     H23679   9.651  11.165   1.569  0.0149 -0.4544 -0.5000
  172MOL0     H23680   9.546  11.155   1.440  1.5277 -0.3361 -1.0917
  172MOL0     H23681   9.786  11.223   1.388  0.6415 -0.3783 -1.9948
  172MOL0     H23682   9.771  11.387   1.441  0.4993  1.2692 -2.8733
  172MOL0     H23683   9.765  11.339   1.208  0.4373  0.2345 -0.9451
  172MOL0     H23684   9.613  11.238   1.223  1.2847  0.2257 -0.3175
  172MOL0     H23685   9.707  11.613   1.311  0.4139 -1.4230 -1.2727
  172MOL0     H23686   9.612  11.827   1.204  0.7689  0.5581 -1.3766
  172MOL0     H23687   9.448  11.843   1.170  1.1111  1.5053  1.0115
  172MOL0     H23688   9.629  11.722   0.966  1.2167  1.4638  0.3255
  172MOL0     H23689   9.459  11.782   0.950 -1.2991 -2.5935  1.7635
  172MOL0     H23690   9.704  11.954   1.009  0.0990 -2.0247  2.4692
  172MOL0     H23691   9.658  11.910   0.845  1.8515 -0.1352  0.6617
  172MOL0     H23692   9.441  12.050   1.021 -1.1010  2.5269 -1.7441
  172MOL0     H23693   9.578  12.134   0.940  0.6774  0.5821  0.4607
  172MOL0     H23694   9.247  12.108   0.948  2.1691 -0.6806 -0.9996
  172MOL0     H23695   9.083  12.399   1.008 -3.7206 -1.1551  2.6744
  172MOL0     H23696   9.083  12.225   1.031 -1.2282 -0.6070  0.2171
  172MOL0     H23697   8.976  12.287   0.906 -2.3471  5.2402  1.4253
  172MOL0     H23698   9.052  12.770   0.759 -0.2325  1.0993  0.0694
  172MOL0     H23699   8.892  12.937   0.665  0.5462 -1.3539  1.6081
  172MOL0     H23700   8.718  12.889   0.233 -1.1624  1.7152 -1.3517
  172MOL0     H23701   8.650  12.853   0.397 -1.1763  0.6389 -1.1521
  172MOL0     H23702   8.516  13.022   0.376  0.2883  0.1642  1.8124
  172MOL0     H23703   8.650  13.108   0.440 -0.4114 -0.3626  0.0097
  172MOL0     H23704   8.584  13.106   0.144 -1.3111  1.5004  0.1927
  172MOL0     H23705   8.738  13.155   0.203 -0.1686 -2.1816 -0.4594
  172MOL0     H23706   8.641  13.361   0.307 -2.0868  3.3679 -1.7327
  172MOL0     H23707   8.481  13.296   0.298  0.3342  0.8200  1.8746
  172MOL0     H23708   8.534  13.273   0.027 -1.3027  1.4372 -1.9736
  172MOL0     H23709   8.451  13.393   0.112  0.0361  1.2763  1.0971
  172MOL0     H23710   8.663  13.439  -0.049 -1.1723 -0.2848 -0.3605
  172MOL0     H23711   8.756  13.402   0.103 -1.2594  0.2699  2.5222
  172MOL0     H23712   8.626  13.587   0.212 -1.8379 -0.2167  0.0843
  172MOL0     H23713   8.577  13.632   0.049 -0.9881  2.6808  3.2851
  172MOL0     H23714   8.822  13.643  -0.004  2.7288 -3.0097  0.0740
  172MOL0     H23715   8.856  13.601   0.162 -0.1889  0.2028 -0.5137
  172MOL0     H23716   8.929  12.732   0.283  1.8771 -2.4960 -0.2663
  172MOL0     H23717   9.068  12.563   0.390  1.3025  2.4494 -2.6466
  172MOL0     H23718   9.370  12.444   0.605  0.8185  1.9842  0.4811
  172MOL0     H23719   9.502  12.239   0.634  0.5351  1.3064  0.5642
  172MOL0     H23720   8.913  11.295   1.267 -0.7299  0.6285  4.2756
  172MOL0     H23721   8.771  11.196   1.088  2.4463  1.3772 -0.4817
  172MOL0     H23722   8.564  10.678   1.101 -1.2346 -2.6336  0.3489
  172MOL0     H23723   8.428  10.520   0.980  2.4199  0.1719  2.1935
  172MOL0     H23724   8.316  10.406   0.861 -0.1323  0.6130  1.1118
  172MOL0     H23725   8.158  10.405   0.935  3.5776 -0.7155  2.4958
  172MOL0     H23726   8.211  10.415   0.635  1.1796 -0.9495  0.0233
  172MOL0     H23727   8.045  10.411   0.711  0.5379 -1.1697  0.6048
  172MOL0     H23728   8.254  10.191   0.763  0.1598  1.3986  0.8846
  172MOL0     H23729   8.090  10.174   0.797 -1.7515 -0.0850 -0.5193
  172MOL0     H23730   8.116  10.050   0.582  3.0581  0.7777  0.0784
  172MOL0     H23731   8.198  10.193   0.522  0.7402 -0.5340  0.2397
  172MOL0     H23732   7.789  10.270   0.480 -1.7939 -2.8938  1.8377
  172MOL0     H23733   8.233  10.846   0.785  1.8143 -0.0884 -2.0915
  172MOL0     H23734   8.287  11.054   0.815  1.0533  3.5929 -2.6194
  172MOL0     H23735   8.356  11.117   0.958  0.1267 -1.0343  1.5737
  172MOL0     H23736   8.458  11.048   0.816 -0.2448 -2.9899 -0.0932
  173MOL0     O23737   7.774   2.410   7.458 -0.5145 -0.7260 -0.3500
  173MOL0     C23738   7.826   2.303   7.495 -0.3643  0.4599  0.8145
  173MOL0     O23739   7.944   2.287   7.564  0.2997  1.0103  0.8525
  173MOL0     C23740   7.980   2.398   7.643 -0.5824  0.5032 -0.1143
  173MOL0     C23741   7.900   2.450   7.741 -0.0537 -1.1169 -0.6393
  173MOL0     C23742   7.940   2.558   7.815  0.2817 -0.5377  0.1037
  173MOL0     C23743   8.061   2.621   7.797 -0.1273 -0.2294 -0.8119
  173MOL0     O23744   8.074   2.737   7.872 -0.0247 -0.8969  0.1587
  173MOL0     C23745   8.201   2.800   7.867 -0.6723 -0.1108 -0.4233
  173MOL0     C23746   8.310   2.719   7.949 -1.0617 -1.1433  0.2321
  173MOL0     C23747   8.281   2.716   8.098 -0.9408 -0.0967  0.4245
  173MOL0     C23748   8.317   2.843   8.181  0.6733 -0.0041  0.0693
  173MOL0     C23749   8.202   2.881   8.281 -0.2244 -0.3688  0.1928
  173MOL0     C23750   8.229   3.019   8.337 -0.6749 -0.7429 -0.0912
  173MOL0     C23751   8.137   3.050   8.460  0.2359  0.3339  0.6181
  173MOL0     C23752   8.219   3.105   8.579 -0.1924  0.3453  0.0594
  173MOL0     N23753   8.271   2.998   8.666 -0.8593  0.9754 -0.3791
  173MOL0     C23754   8.399   2.992   8.733 -0.4017  0.1449 -0.6746
  173MOL0     C23755   8.392   2.877   8.810 -1.5947 -0.2736  0.3747
  173MOL0     C23756   8.515   2.821   8.882  0.4809  0.2971  0.1962
  173MOL0     C23757   8.494   2.671   8.910  0.2466  0.2436  0.5960
  173MOL0     C23758   8.615   2.623   8.991 -0.5279  0.2319  1.1822
  173MOL0     C23759   8.599   2.463   9.015  0.0127 -0.4531  0.3208
  173MOL0     O23760   8.710   2.399   9.070 -0.2959 -0.3840 -0.2615
  173MOL0     C23761   8.821   2.363   8.996 -0.0258 -0.1116 -0.8992
  173MOL0     C23762   8.913   2.273   9.054  0.6805 -0.0239  0.3750
  173MOL0     C23763   9.039   2.246   9.007 -0.4666  0.4877  0.3245
  173MOL0     C23764   9.108   2.130   9.077  0.4128  0.7930 -0.4648
  173MOL0     C23765   9.079   2.303   8.888  0.2905 -0.1868  0.5029
  173MOL0     C23766   9.203   2.268   8.819 -1.2123  0.0055 -0.9017
  173MOL0     O23767   9.185   2.255   8.681 -0.1141  0.1764  0.0235
  173MOL0     C23768   9.296   2.212   8.621  0.5172  0.1589 -0.0188
  173MOL0     C23769   9.372   2.299   8.548 -0.0569 -1.4807  0.7862
  173MOL0     C23770   9.492   2.261   8.498 -0.2102  0.3182 -0.3427
  173MOL0     C23771   9.543   2.132   8.528  0.4400  0.1644  0.5863
  173MOL0     O23772   9.669   2.100   8.484  0.0281  0.3327  0.0607
  173MOL0     C23773   9.768   2.198   8.454  0.1554  0.5676 -0.0716
  173MOL0     C23774   9.907   2.132   8.444  0.2711 -0.3814  0.0088
  173MOL0     C23775   9.972   2.082   8.573  0.0564  0.8001 -0.3184
  173MOL0     C23776  10.110   2.029   8.547 -0.1412  0.6571  0.0529
  173MOL0     C23777  10.175   1.994   8.684  0.0828 -0.0003 -0.7842
  173MOL0     C23778  10.327   1.947   8.662  0.4193  0.3143 -0.7327
  173MOL0     C23779  10.326   1.799   8.625 -0.0102 -1.3422 -0.2197
  173MOL0     C23780  10.430   1.713   8.701  0.0971  0.2178 -0.7765
  173MOL0    Cl23781  10.389   1.536   8.710  0.2461 -0.2554  0.4260
  173MOL0     C23782   9.462   2.035   8.589  0.2885  0.5715 -0.9156
  173MOL0     C23783   9.337   2.084   8.638 -0.5351 -0.6078  0.4465
  173MOL0     O23784   9.310   2.262   8.889 -0.0148 -0.2763  0.5019
  173MOL0     C23785   8.986   2.390   8.820  0.7848  1.2274  0.1634
  173MOL0     C23786   8.865   2.430   8.881 -0.4239 -0.2379  0.8485
  173MOL0     N23787   8.265   2.829   8.803  0.5879  0.0360  0.6365
  173MOL0     N23788   8.190   2.903   8.724 -0.0584 -0.0996 -0.5179
  173MOL0     C23789   8.155   2.552   7.719  1.1717 -0.1391  0.5450
  173MOL0     C23790   8.111   2.439   7.641  0.1037  0.4740  0.1890
  173MOL0     C23791   7.765   2.186   7.441  0.1689 -0.2211  0.8762
  173MOL0     C23792   7.748   2.168   7.305  0.6041  0.0714 -0.0058
  173MOL0     C23793   7.703   2.051   7.241  0.1650 -0.2013 -1.1823
  173MOL0     C23794   7.663   1.945   7.324 -0.2977 -0.2060  0.6568
  173MOL0     O23795   7.610   1.824   7.283  0.5209  0.1674  0.4412
  173MOL0     C23796   7.536   1.814   7.154 -0.4046 -0.7418  0.3698
  173MOL0     C23797   7.420   1.908   7.153  0.1634  0.6447 -0.2056
  173MOL0     C23798   7.313   1.885   7.269  1.0940 -0.4007  0.0128
  173MOL0     C23799   7.208   2.002   7.257  0.3591  0.5448  0.6473
  173MOL0     C23800   7.099   1.964   7.354 -0.3762 -0.3417  0.5704
  173MOL0     C23801   7.004   1.941   7.430 -0.3931 -0.3848 -0.1384
  173MOL0     C23802   7.682   1.959   7.461  0.0403  0.9688 -0.9784
  173MOL0     C23803   7.728   2.075   7.521  0.1634 -0.3662  1.0152
  173MOL0     C23804   7.742   2.080   7.670  1.4328 -0.8321 -0.1689
  173MOL0     H23805   7.805   2.408   7.770  0.3256 -1.5054  0.0710
  173MOL0     H23806   7.884   2.603   7.897  2.4680  0.7494  0.9914
  173MOL0     H23807   8.192   2.902   7.906 -1.5115 -0.2720 -0.1626
  173MOL0     H23808   8.239   2.814   7.765  0.3774  2.2033  0.2222
  173MOL0     H23809   8.316   2.613   7.920  2.2253 -0.5009 -2.0082
  173MOL0     H23810   8.408   2.764   7.935 -0.7635 -2.4081 -2.4261
  173MOL0     H23811   8.181   2.687   8.131 -2.3676  2.8131 -1.0128
  173MOL0     H23812   8.356   2.646   8.137 -2.0050 -1.7406 -0.3592
  173MOL0     H23813   8.415   2.832   8.227  0.5965  0.2921  0.3043
  173MOL0     H23814   8.337   2.929   8.116 -0.7293  0.4868  0.2493
  173MOL0     H23815   8.231   2.805   8.354  1.6012 -0.4333 -0.5304
  173MOL0     H23816   8.103   2.880   8.235 -0.1275 -0.8218 -0.0159
  173MOL0     H23817   8.335   3.031   8.358 -0.2670  0.0656 -2.3318
  173MOL0     H23818   8.221   3.095   8.259 -4.0212 -0.5792  0.2632
  173MOL0     H23819   8.076   2.960   8.471  0.7683 -0.2176 -0.6811
  173MOL0     H23820   8.053   3.117   8.441 -0.1117 -0.0072  0.9323
  173MOL0     H23821   8.313   3.148   8.543 -1.3731  0.1123 -3.6946
  173MOL0     H23822   8.167   3.181   8.638 -2.7853 -1.2083 -0.0991
  173MOL0     H23823   8.486   3.056   8.727  2.6509 -3.6656 -0.7767
  173MOL0     H23824   8.521   2.878   8.975  1.7152 -1.4471  1.2564
  173MOL0     H23825   8.599   2.841   8.814 -2.4211  1.0986 -3.4602
  173MOL0     H23826   8.398   2.662   8.962 -0.2071  3.1724  0.4318
  173MOL0     H23827   8.483   2.608   8.822 -2.6704  0.4871  0.7060
  173MOL0     H23828   8.700   2.645   8.925 -2.2675  1.6373 -0.7002
  173MOL0     H23829   8.624   2.680   9.084  1.2743 -2.8377  3.0687
  173MOL0     H23830   8.524   2.453   9.094 -1.6541  0.6676 -1.0452
  173MOL0     H23831   8.574   2.417   8.919 -0.8142 -0.9107  0.7510
  173MOL0     H23832   8.888   2.212   9.141 -1.7656  0.5840  0.1871
  173MOL0     H23833   9.042   2.046   9.097  1.7375 -0.0355  0.6508
  173MOL0     H23834   9.137   2.158   9.179 -1.4287  1.2140 -0.0271
  173MOL0     H23835   9.199   2.093   9.028  0.4636  0.3456 -0.0344
  173MOL0     H23836   9.336   2.400   8.532  3.3269 -0.4642 -1.4206
  173MOL0     H23837   9.539   2.332   8.431  1.8882 -0.8983 -0.2520
  173MOL0     H23838   9.748   2.236   8.353  1.6437  1.0990 -0.1900
  173MOL0     H23839   9.778   2.282   8.523  1.3257 -0.3947  0.9837
  173MOL0     H23840   9.904   2.041   8.383 -4.6809 -0.2752 -0.2763
  173MOL0     H23841   9.975   2.208   8.404  0.0832  1.7006  3.3129
  173MOL0     H23842   9.908   2.000   8.606  0.8604 -0.0296 -0.7949
  173MOL0     H23843   9.963   2.167   8.642 -1.8150  0.9043 -0.6337
  173MOL0     H23844  10.165   2.115   8.505 -0.9372  1.1842  0.0754
  173MOL0     H23845  10.110   1.940   8.484 -0.8905  2.6009 -2.9262
  173MOL0     H23846  10.188   2.081   8.750 -2.8167  1.0865 -1.5009
  173MOL0     H23847  10.121   1.918   8.741 -1.6441  1.5892 -0.2067
  173MOL0     H23848  10.387   1.954   8.754  0.3412  0.0257 -0.6604
  173MOL0     H23849  10.370   1.999   8.576 -1.0793 -0.4801 -2.0018
  173MOL0     H23850  10.346   1.794   8.517  0.3746 -1.2427 -0.1524
  173MOL0     H23851  10.228   1.750   8.637  1.2756 -3.6095  1.8451
  173MOL0     H23852  10.437   1.749   8.805 -0.4039  0.8419 -0.9451
  173MOL0     H23853  10.527   1.742   8.661 -0.9464  0.0039 -3.6908
  173MOL0     H23854   9.498   1.937   8.620 -0.2491 -0.2355 -2.7143
  173MOL0     H23855   9.261   2.028   8.692 -2.8199  2.7669  1.0526
  173MOL0     H23856   9.018   2.442   8.730  2.4510  2.5247  1.4470
  173MOL0     H23857   8.790   2.486   8.825 -0.6061 -0.5745  0.7506
  173MOL0     H23858   8.259   2.584   7.715  0.8137  1.1144  0.7220
  173MOL0     H23859   8.187   2.393   7.578 -0.4665 -0.5819  0.2505
  173MOL0     H23860   7.769   2.256   7.245  1.5585 -0.4578 -0.4858
  173MOL0     H23861   7.672   2.055   7.137  2.3587  0.0128 -1.8783
  173MOL0     H23862   7.602   1.845   7.072 -1.2186  2.3819  0.7635
  173MOL0     H23863   7.507   1.712   7.127  1.6251 -1.3344  0.2070
  173MOL0     H23864   7.358   1.897   7.063 -0.4298 -3.0277  0.4705
  173MOL0     H23865   7.457   2.010   7.152  3.3164 -0.3888 -1.3131
  173MOL0     H23866   7.259   1.792   7.253  0.6961  0.2051 -2.7623
  173MOL0     H23867   7.356   1.895   7.370  1.1481  2.0733 -0.1783
  173MOL0     H23868   7.165   1.993   7.157  3.9795 -0.3590 -0.9909
  173MOL0     H23869   7.258   2.097   7.276  2.1107  0.0813 -1.3273
  173MOL0     H23870   6.923   1.919   7.496  0.6046  1.7041  1.9462
  173MOL0     H23871   7.665   1.872   7.523  0.9615 -0.7422 -3.0265
  173MOL0     H23872   7.724   2.184   7.699 -0.9462 -0.6289 -1.9921
  173MOL0     H23873   7.664   2.029   7.728 -0.4654  1.3231 -0.6650
  173MOL0     H23874   7.832   2.033   7.709  3.1652  0.0686 -2.8289
  174MOL0     O23875   7.953  11.460   4.472 -0.2996 -0.5846 -0.4335
  174MOL0     C23876   8.064  11.413   4.484  0.3072  0.4431 -0.0442
  174MOL0     O23877   8.092  11.282   4.505  0.2893  0.6891 -0.1541
  174MOL0     C23878   8.218  11.246   4.462 -0.3424  0.3788 -0.3107
  174MOL0     C23879   8.332  11.235   4.540 -0.5212  0.4739  0.4460
  174MOL0     C23880   8.448  11.165   4.487  0.6867  0.0704  0.7173
  174MOL0     C23881   8.456  11.134   4.351  0.4018 -0.1730  0.1901
  174MOL0     O23882   8.568  11.096   4.285 -0.3772  0.4337  0.1319
  174MOL0     C23883   8.590  10.951   4.298 -0.1315 -0.3712  0.2197
  174MOL0     C23884   8.734  10.932   4.264  0.2508 -0.3128 -0.2471
  174MOL0     C23885   8.766  10.783   4.271 -0.0762  0.5839 -1.1924
  174MOL0     C23886   8.906  10.751   4.208  0.3182  0.2751  0.1231
  174MOL0     C23887   9.026  10.827   4.262 -0.4062  0.1015  0.3508
  174MOL0     C23888   9.147  10.815   4.170 -0.5069 -0.0246 -0.1715
  174MOL0     C23889   9.280  10.852   4.242  0.3501 -0.1837 -0.6470
  174MOL0     C23890   9.403  10.829   4.149  0.0155  0.1224  0.4257
  174MOL0     N23891   9.532  10.901   4.176 -0.6577  0.8757  0.3785
  174MOL0     C23892   9.552  10.982   4.280 -0.8538  0.2421  0.3001
  174MOL0     C23893   9.683  11.024   4.274 -0.8801  0.4974 -0.1968
  174MOL0     C23894   9.755  11.138   4.342 -0.1844 -0.1053  0.5574
  174MOL0     C23895   9.665  11.254   4.304 -0.0289  0.0137  0.2286
  174MOL0     C23896   9.756  11.379   4.285 -0.2071 -0.0755 -0.7112
  174MOL0     C23897   9.752  11.467   4.413  0.5106  0.1003  1.0348
  174MOL0     O23898   9.798  11.397   4.527 -0.4670  0.4690  0.4507
  174MOL0     C23899   9.707  11.402   4.632  0.0023  0.1398  0.1533
  174MOL0     C23900   9.671  11.281   4.694 -0.1357  0.1499 -0.7541
  174MOL0     C23901   9.588  11.269   4.805  0.4794 -0.1494 -1.1237
  174MOL0     C23902   9.575  11.128   4.870 -0.1368 -0.6755 -0.6677
  174MOL0     C23903   9.511  11.378   4.845 -0.1260 -0.0304 -0.2120
  174MOL0     C23904   9.421  11.370   4.954  0.1939  0.8294 -0.2316
  174MOL0     O23905   9.291  11.341   4.925 -1.3714 -0.3964  0.7127
  174MOL0     C23906   9.202  11.332   5.035  0.2155  0.5113  0.5653
  174MOL0     C23907   9.089  11.415   5.042  0.8540  0.5032  0.1504
  174MOL0     C23908   9.003  11.398   5.157 -0.1192 -0.6420  0.6492
  174MOL0     C23909   9.036  11.307   5.260 -0.3922  0.2707 -0.4710
  174MOL0     O23910   8.966  11.318   5.380  0.5693 -0.8687 -0.0981
  174MOL0     C23911   9.030  11.287   5.505 -0.0266  0.1200 -0.2307
  174MOL0     C23912   9.125  11.392   5.534 -0.4280 -0.0232  0.3226
  174MOL0     C23913   9.163  11.393   5.686  0.8129  0.9124  1.1130
  174MOL0     C23914   9.245  11.274   5.729 -0.0887  0.0551  0.2040
  174MOL0     C23915   9.289  11.286   5.875  0.0290  0.2122  0.6639
  174MOL0     C23916   9.351  11.160   5.931 -0.4352 -0.2624  1.3218
  174MOL0     C23917   9.250  11.036   5.901 -0.5048  0.3304 -0.0234
  174MOL0     C23918   9.287  10.913   5.994  0.2623 -0.3506 -0.6563
  174MOL0    Cl23919   9.442  10.824   5.932 -0.3199 -0.7211  0.2574
  174MOL0     C23920   9.137  11.213   5.233 -0.1282  0.4248 -0.1817
  174MOL0     C23921   9.217  11.227   5.121  0.0781  0.4152  1.5075
  174MOL0     O23922   9.464  11.402   5.065 -0.5523  0.8517  0.7042
  174MOL0     C23923   9.537  11.502   4.783 -0.8191 -0.2440  0.2560
  174MOL0     C23924   9.632  11.514   4.679 -0.1502 -0.3726  0.4578
  174MOL0     N23925   9.747  10.947   4.166  0.8720  0.1182 -0.1883
  174MOL0     N23926   9.660  10.863   4.120  1.1849 -0.4202  0.8057
  174MOL0     C23927   8.342  11.153   4.270  0.0057  0.8487  0.2462
  174MOL0     C23928   8.226  11.199   4.332 -0.2186  1.0871  0.9793
  174MOL0     C23929   8.164  11.508   4.496  0.3337 -1.0752  0.5135
  174MOL0     C23930   8.234  11.551   4.377 -0.7776 -0.7528  1.3043
  174MOL0     C23931   8.336  11.649   4.382 -0.2706  0.7279  0.4703
  174MOL0     C23932   8.376  11.689   4.509 -0.8463 -0.4810  0.4700
  174MOL0     O23933   8.481  11.779   4.521  0.6106  0.0211  0.0624
  174MOL0     C23934   8.439  11.912   4.499  1.1208  0.3751  0.3804
  174MOL0     C23935   8.549  12.004   4.559  0.1014 -0.6167  0.6297
  174MOL0     C23936   8.514  12.149   4.559  0.4341 -0.7010  0.5280
  174MOL0     C23937   8.517  12.221   4.418 -0.5608  0.4059 -0.6541
  174MOL0     C23938   8.580  12.349   4.424 -0.0198 -0.7775 -0.1266
  174MOL0     C23939   8.638  12.464   4.425 -0.2303  1.1693 -0.6929
  174MOL0     C23940   8.314  11.649   4.627  0.8090 -0.6058  0.3897
  174MOL0     C23941   8.205  11.560   4.622 -0.3461 -0.6631  0.3821
  174MOL0     C23942   8.141  11.519   4.745  0.1898 -1.4308  0.1365
  174MOL0     H23943   8.337  11.261   4.646 -0.0594 -0.5752  0.6923
  174MOL0     H23944   8.535  11.145   4.548 -0.6707 -2.1092  2.0822
  174MOL0     H23945   8.525  10.908   4.222 -0.1128 -0.1135  0.0581
  174MOL0     H23946   8.567  10.914   4.399 -0.6248  2.0279  1.0482
  174MOL0     H23947   8.751  10.971   4.163  0.4163  0.6162  0.1236
  174MOL0     H23948   8.784  10.993   4.341 -1.4728  2.0554 -0.8806
  174MOL0     H23949   8.772  10.747   4.374  3.3633  3.3779 -0.2213
  174MOL0     H23950   8.682  10.726   4.230  0.0669 -0.5008 -0.0694
  174MOL0     H23951   8.927  10.644   4.215  2.2008  0.5429 -0.6910
  174MOL0     H23952   8.899  10.766   4.100 -1.6277  1.2675  0.3429
  174MOL0     H23953   9.056  10.797   4.363  0.2979 -1.5761 -0.3110
  174MOL0     H23954   8.987  10.928   4.275 -2.8251  0.0339 -4.3080
  174MOL0     H23955   9.157  10.713   4.133  1.0315  0.0402 -0.0072
  174MOL0     H23956   9.129  10.860   4.072 -2.5971 -2.3843 -0.9698
  174MOL0     H23957   9.293  10.778   4.322 -3.6761 -1.7088 -1.1922
  174MOL0     H23958   9.263  10.952   4.283 -3.6796 -0.6552 -0.8077
  174MOL0     H23959   9.436  10.725   4.140  0.4087  0.1230  1.6732
  174MOL0     H23960   9.378  10.876   4.053  1.0511 -2.9868 -1.4903
  174MOL0     H23961   9.475  11.026   4.343 -0.8836  0.2762  0.2408
  174MOL0     H23962   9.853  11.144   4.293 -1.2701  0.4887 -1.6955
  174MOL0     H23963   9.759  11.117   4.449  2.6667 -0.3188  0.4975
  174MOL0     H23964   9.625  11.235   4.204  0.1786  2.4666 -0.3855
  174MOL0     H23965   9.581  11.266   4.374 -0.9932  0.1703 -0.9196
  174MOL0     H23966   9.856  11.343   4.262 -0.3769  0.6411 -2.7828
  174MOL0     H23967   9.731  11.437   4.195  0.8138  0.9630 -0.3577
  174MOL0     H23968   9.815  11.557   4.405 -0.5806  0.7303 -1.0960
  174MOL0     H23969   9.655  11.518   4.418  0.4374  0.3110 -1.3995
  174MOL0     H23970   9.724  11.191   4.666  0.4468 -1.9010  5.4706
  174MOL0     H23971   9.648  11.056   4.832  1.6967 -0.3902  1.9907
  174MOL0     H23972   9.478  11.080   4.854 -0.0805 -0.3419 -2.1836
  174MOL0     H23973   9.595  11.135   4.978 -3.3769  0.6150 -0.0335
  174MOL0     H23974   9.062  11.487   4.966 -1.6521  1.3324  1.7196
  174MOL0     H23975   8.920  11.468   5.165 -1.0606 -1.8310  1.6140
  174MOL0     H23976   8.958  11.277   5.587  1.3016 -1.3256  0.8383
  174MOL0     H23977   9.095  11.199   5.499  0.1463  0.3188 -1.5541
  174MOL0     H23978   9.205  11.379   5.461 -1.8552  0.8026 -1.4547
  174MOL0     H23979   9.080  11.491   5.522 -2.1999 -0.7887  0.3869
  174MOL0     H23980   9.076  11.408   5.750 -0.2259  1.2880 -0.3313
  174MOL0     H23981   9.230  11.477   5.707  0.7686  1.3959 -0.5381
  174MOL0     H23982   9.330  11.237   5.671 -0.7009 -1.2173  0.0751
  174MOL0     H23983   9.176  11.189   5.722  0.3552 -0.2539 -0.6160
  174MOL0     H23984   9.366  11.364   5.881  1.7320 -1.4495  1.9746
  174MOL0     H23985   9.209  11.327   5.937  0.7737  1.0251  1.1053
  174MOL0     H23986   9.364  11.164   6.040  2.2459  0.0087  1.0576
  174MOL0     H23987   9.447  11.143   5.882 -1.0840 -2.1661  0.5967
  174MOL0     H23988   9.270  11.007   5.797 -1.1164 -1.1173  0.2283
  174MOL0     H23989   9.148  11.066   5.926  0.3525  3.1369  0.4992
  174MOL0     H23990   9.205  10.842   5.996 -1.1152  1.1897  0.6091
  174MOL0     H23991   9.294  10.941   6.100  1.8557 -0.2961 -0.7480
  174MOL0     H23992   9.176  11.142   5.306 -0.9182  0.6388  0.4737
  174MOL0     H23993   9.298  11.158   5.100 -0.5162  0.4648 -1.2377
  174MOL0     H23994   9.486  11.593   4.813 -1.2134 -0.8003  1.3172
  174MOL0     H23995   9.666  11.604   4.629 -1.1039 -0.2247  0.0567
  174MOL0     H23996   8.334  11.121   4.167 -1.8209 -0.2978  0.6917
  174MOL0     H23997   8.137  11.192   4.270  0.0898 -0.8131  0.6883
  174MOL0     H23998   8.219  11.498   4.283  1.1283 -2.6695  2.0276
  174MOL0     H23999   8.389  11.689   4.296 -0.2115  3.0315  1.5208
  174MOL0     H24000   8.414  11.923   4.393 -0.9094  0.8676  0.8639
  174MOL0     H24001   8.348  11.935   4.554  1.0282  1.3261 -0.1389
  174MOL0     H24002   8.641  11.980   4.506  0.4184 -0.1718  0.9720
  174MOL0     H24003   8.566  11.983   4.665 -0.6348  1.0921  1.1409
  174MOL0     H24004   8.422  12.176   4.613  1.3088  1.3168  1.1094
  174MOL0     H24005   8.578  12.193   4.635 -1.5062  1.1875  1.1606
  174MOL0     H24006   8.417  12.232   4.375  0.6337  1.8188 -3.3260
  174MOL0     H24007   8.579  12.150   4.362  1.2773  2.3821 -1.2847
  174MOL0     H24008   8.691  12.557   4.427  0.8533  0.6050  2.6933
  174MOL0     H24009   8.350  11.688   4.721  2.9232  0.6593 -0.8485
  174MOL0     H24010   8.036  11.550   4.745  0.3048 -0.7016 -2.9011
  174MOL0     H24011   8.145  11.411   4.760  3.6870 -1.2944  1.1078
  174MOL0     H24012   8.195  11.565   4.829  2.2917  1.5257 -2.5815
  175MOL0     O24013   3.497   9.797   5.373 -0.4400 -0.1295  0.4388
  175MOL0     C24014   3.463   9.832   5.485 -0.1862 -0.0038 -0.8659
  175MOL0     O24015   3.533   9.911   5.565  0.1862 -0.0999  0.2491
  175MOL0     C24016   3.661   9.957   5.544  0.1780  1.0350  0.7572
  175MOL0     C24017   3.684  10.088   5.562 -0.2164 -0.1007 -0.7426
  175MOL0     C24018   3.808  10.144   5.543 -1.0953 -0.1224 -0.0898
  175MOL0     C24019   3.924  10.064   5.496  0.5301 -1.0665 -0.6342
  175MOL0     O24020   4.036  10.113   5.455 -0.4646 -0.3539 -0.1146
  175MOL0     C24021   4.033  10.194   5.336  0.2635  0.3408 -0.3166
  175MOL0     C24022   4.169  10.241   5.284  0.7289  0.0646  0.1892
  175MOL0     C24023   4.156  10.291   5.141  0.8422 -0.3959 -0.1876
  175MOL0     C24024   4.249  10.400   5.104  0.2739 -0.3826  0.8702
  175MOL0     C24025   4.236  10.450   4.962  0.6587  0.6719  0.2321
  175MOL0     C24026   4.263  10.348   4.853  0.0922 -0.0747 -0.0672
  175MOL0     C24027   4.218  10.396   4.716 -0.7655 -0.3344 -0.3909
  175MOL0     C24028   4.235  10.280   4.621  0.4673  0.5991  0.1211
  175MOL0     N24029   4.197  10.304   4.478  0.2473  0.2823 -0.4497
  175MOL0     C24030   4.262  10.369   4.381  0.0414 -0.1630 -0.6092
  175MOL0     C24031   4.187  10.358   4.267  0.5570 -0.8182  0.0718
  175MOL0     C24032   4.216  10.432   4.140  0.6461  0.0906 -0.7703
  175MOL0     C24033   4.207  10.355   4.011 -0.0503  0.3594  0.3379
  175MOL0     C24034   4.273  10.220   4.019 -0.8062  0.3043 -0.2802
  175MOL0     C24035   4.246  10.129   3.903 -0.1715  0.9389  0.6341
  175MOL0     O24036   4.345  10.136   3.789 -0.0491  0.1647  0.2027
  175MOL0     C24037   4.458  10.053   3.774  0.5996  0.3078 -0.4454
  175MOL0     C24038   4.501   9.971   3.873  0.0959  0.1047 -0.3170
  175MOL0     C24039   4.608   9.880   3.850  0.6346  0.4276 -0.2696
  175MOL0     C24040   4.645   9.785   3.962  0.5682  0.4453 -0.8733
  175MOL0     C24041   4.684   9.880   3.726  0.1879 -0.1641  0.3064
  175MOL0     C24042   4.799   9.792   3.702 -0.1163  0.8432 -0.3306
  175MOL0     O24043   4.897   9.824   3.614  0.7334 -0.0666 -0.6725
  175MOL0     C24044   5.013   9.760   3.643 -0.5442 -0.8521 -0.9678
  175MOL0     C24045   5.101   9.810   3.750  0.9522  0.5650  0.5440
  175MOL0     C24046   5.212   9.749   3.782 -0.5346 -0.9062  0.2023
  175MOL0     C24047   5.260   9.637   3.710 -0.6330 -0.9851  0.1596
  175MOL0     O24048   5.387   9.596   3.750  0.1405  0.5471  0.1108
  175MOL0     C24049   5.446   9.495   3.672  0.2085  0.4064  0.1120
  175MOL0     C24050   5.573   9.470   3.745 -0.5718  0.7619 -0.6836
  175MOL0     C24051   5.680   9.404   3.663  0.6407 -0.6548 -0.1455
  175MOL0     C24052   5.817   9.420   3.746  0.3746  0.2451 -0.3701
  175MOL0     C24053   5.952   9.407   3.668 -0.0217  0.5257  0.2976
  175MOL0     C24054   6.071   9.383   3.758 -0.5117  0.1088  0.3451
  175MOL0     C24055   6.206   9.424   3.677  0.5561  0.6648 -0.4713
  175MOL0     C24056   6.321   9.399   3.777  0.2431  0.2093  0.7001
  175MOL0    Cl24057   6.461   9.465   3.697 -0.0950 -0.0682 -0.0208
  175MOL0     C24058   5.182   9.596   3.604 -0.0682  0.8929  0.4457
  175MOL0     C24059   5.061   9.654   3.569  0.0868 -0.3799 -0.5790
  175MOL0     O24060   4.784   9.676   3.739 -0.6371  0.1939  0.1955
  175MOL0     C24061   4.640   9.972   3.629 -0.1276  0.5396  0.1344
  175MOL0     C24062   4.526  10.049   3.650  0.9032 -0.4103 -0.8872
  175MOL0     N24063   4.073  10.289   4.294 -0.2238 -0.5357 -0.2610
  175MOL0     N24064   4.080  10.265   4.423  0.2261 -0.0811 -0.2098
  175MOL0     C24065   3.898   9.928   5.477 -0.3279  0.6978  0.0681
  175MOL0     C24066   3.767   9.874   5.490  0.3162 -0.7172 -0.0367
  175MOL0     C24067   3.327   9.774   5.537 -0.1876  0.0583  0.6855
  175MOL0     C24068   3.253   9.851   5.624 -0.3336  0.0342 -0.4364
  175MOL0     C24069   3.129   9.814   5.681  0.4749  0.6372 -0.4879
  175MOL0     C24070   3.084   9.688   5.659 -0.2103  0.8816 -0.9151
  175MOL0     O24071   2.969   9.629   5.715 -0.2162 -0.3200 -0.2870
  175MOL0     C24072   2.873   9.736   5.755  1.2308 -0.4317 -0.0705
  175MOL0     C24073   2.742   9.675   5.808  0.2753  0.1633 -0.9730
  175MOL0     C24074   2.650   9.786   5.865 -0.1034  0.5415  0.3562
  175MOL0     C24075   2.530   9.721   5.936  0.5044  0.1290 -0.2629
  175MOL0     C24076   2.441   9.813   6.006 -0.1074 -0.6399  0.2730
  175MOL0     C24077   2.363   9.897   6.050  0.7847  0.3923 -0.6584
  175MOL0     C24078   3.163   9.600   5.589  0.5549  0.1747  0.4198
  175MOL0     C24079   3.278   9.640   5.517 -0.0103 -0.4977 -0.7098
  175MOL0     C24080   3.350   9.545   5.435  0.8872 -0.5256  0.1501
  175MOL0     H24081   3.598  10.144   5.598  0.0950 -0.5809  0.7959
  175MOL0     H24082   3.820  10.252   5.543 -2.1385  0.0074 -0.5240
  175MOL0     H24083   3.985  10.290   5.357 -1.6828 -0.5425 -0.5000
  175MOL0     H24084   3.983  10.139   5.257  0.0034  1.1012 -0.6823
  175MOL0     H24085   4.206  10.324   5.345 -0.5202  0.4058  0.5141
  175MOL0     H24086   4.246  10.163   5.290 -1.9312 -2.6511  1.6730
  175MOL0     H24087   4.183  10.204   5.080 -2.2838  0.2630 -2.7818
  175MOL0     H24088   4.056  10.316   5.104  0.3774 -3.0418 -0.8892
  175MOL0     H24089   4.207  10.487   5.156 -6.6227 -2.3548 -0.3908
  175MOL0     H24090   4.356  10.391   5.126  0.1765  1.4883  2.3513
  175MOL0     H24091   4.314  10.527   4.951  1.5997  0.2882  3.3193
  175MOL0     H24092   4.138  10.490   4.936  0.7515 -0.2279 -1.6923
  175MOL0     H24093   4.368  10.321   4.857 -0.6358 -3.2419  0.7148
  175MOL0     H24094   4.203  10.261   4.881  0.8128 -1.0362 -1.4081
  175MOL0     H24095   4.275  10.481   4.678 -3.6163  0.7457 -2.6751
  175MOL0     H24096   4.112  10.421   4.732 -0.2943  0.5963  1.5793
  175MOL0     H24097   4.340  10.251   4.631 -0.7094 -3.7192  1.9032
  175MOL0     H24098   4.173  10.196   4.654 -0.2855  0.1322 -2.2365
  175MOL0     H24099   4.356  10.422   4.392 -0.6333  0.8507  0.6400
  175MOL0     H24100   4.306  10.492   4.154 -0.3927  0.8696  4.4358
  175MOL0     H24101   4.137  10.508   4.134 -0.5949 -1.1361 -0.7543
  175MOL0     H24102   4.107  10.326   3.979  0.8757 -1.2342 -1.3114
  175MOL0     H24103   4.247  10.416   3.930 -0.1006 -1.6595 -1.3029
  175MOL0     H24104   4.381  10.233   4.028 -0.6790  0.6505 -1.8934
  175MOL0     H24105   4.238  10.164   4.105 -0.5116  1.6262  0.7376
  175MOL0     H24106   4.245  10.025   3.935  0.7896 -0.0363 -2.1512
  175MOL0     H24107   4.154  10.165   3.856 -0.1835  2.3733  1.6789
  175MOL0     H24108   4.445   9.941   3.961 -1.4144 -2.1083 -1.9267
  175MOL0     H24109   4.627   9.684   3.925  2.0049 -1.5389  3.1754
  175MOL0     H24110   4.595   9.809   4.056  3.5893  1.3076  0.6737
  175MOL0     H24111   4.753   9.790   3.982  0.1793 -0.5567  1.9942
  175MOL0     H24112   5.072   9.898   3.807  2.1463 -0.0438  2.1578
  175MOL0     H24113   5.279   9.780   3.861  0.5704 -1.7681 -0.3440
  175MOL0     H24114   5.377   9.410   3.670 -0.4480  0.8376  2.0243
  175MOL0     H24115   5.477   9.531   3.574 -1.1132  2.1918  0.2892
  175MOL0     H24116   5.603   9.570   3.778  3.3861 -0.1126 -1.0917
  175MOL0     H24117   5.559   9.414   3.838  0.3337  1.0270 -0.3797
  175MOL0     H24118   5.698   9.441   3.562 -0.7543  0.9931  0.1648
  175MOL0     H24119   5.652   9.298   3.659  2.1164 -1.0624 -0.1763
  175MOL0     H24120   5.811   9.336   3.816 -3.9420 -0.5021 -1.3322
  175MOL0     H24121   5.824   9.514   3.802  0.3831 -0.8079  1.4639
  175MOL0     H24122   5.945   9.330   3.591 -2.4903 -0.2667  1.1962
  175MOL0     H24123   5.963   9.501   3.613 -1.5860  0.9386  0.6244
  175MOL0     H24124   6.078   9.280   3.793 -0.3376  0.3491  1.0354
  175MOL0     H24125   6.066   9.440   3.851  0.1778 -1.0992  1.1357
  175MOL0     H24126   6.196   9.531   3.653 -0.5469  0.7470  0.2913
  175MOL0     H24127   6.213   9.365   3.585  0.4765 -0.0229 -0.0358
  175MOL0     H24128   6.327   9.293   3.804  2.1264  0.5394  1.7187
  175MOL0     H24129   6.297   9.461   3.864 -0.1398  0.4681  0.4152
  175MOL0     H24130   5.206   9.509   3.544 -2.0955  2.0075 -2.2022
  175MOL0     H24131   5.004   9.643   3.478 -0.1421  1.3364 -0.6792
  175MOL0     H24132   4.699   9.990   3.540 -2.2243 -1.5495 -1.8141
  175MOL0     H24133   4.493  10.121   3.576  1.5193  0.5592 -0.2342
  175MOL0     H24134   3.986   9.871   5.448 -0.8533  0.4223 -1.0568
  175MOL0     H24135   3.747   9.768   5.485 -3.3207 -0.1380 -0.1484
  175MOL0     H24136   3.284   9.952   5.650 -1.8329  0.0636  1.4579
  175MOL0     H24137   3.071   9.882   5.743  0.2493  0.3015 -0.3328
  175MOL0     H24138   2.918   9.794   5.836  0.9282 -0.1720 -0.0865
  175MOL0     H24139   2.849   9.813   5.682  0.2513  0.6274  1.3106
  175MOL0     H24140   2.778   9.603   5.882  0.9119  0.3362 -1.1134
  175MOL0     H24141   2.696   9.618   5.726 -1.9715  1.1344 -0.4793
  175MOL0     H24142   2.707   9.840   5.941  3.4123 -0.7117 -1.1697
  175MOL0     H24143   2.609   9.857   5.794 -1.2175  0.7176  1.1547
  175MOL0     H24144   2.562   9.658   6.019 -0.4161  1.3861  1.0962
  175MOL0     H24145   2.482   9.659   5.859  1.1727 -1.7675  0.7871
  175MOL0     H24146   2.289   9.964   6.090  0.3214 -0.6682  0.2927
  175MOL0     H24147   3.141   9.495   5.603  2.1273  0.0255  2.1844
  175MOL0     H24148   3.303   9.447   5.447 -0.6493  0.3819  2.0780
  175MOL0     H24149   3.346   9.572   5.329 -0.6809 -0.7393  0.1285
  175MOL0     H24150   3.450   9.524   5.474  0.4572 -3.3158 -0.0192
  176MOL0     O24151   7.218   2.229  10.756  0.3631 -0.8094 -0.0281
  176MOL0     C24152   7.172   2.126  10.703 -0.4128 -0.5315 -0.1132
  176MOL0     O24153   7.058   2.067  10.737  0.2011 -0.5217 -0.3013
  176MOL0     C24154   6.991   2.071  10.865 -0.2723 -1.2845 -0.3037
  176MOL0     C24155   7.053   2.108  10.985  0.4238  0.5421 -0.7095
  176MOL0     C24156   6.969   2.108  11.100 -1.1907  0.1696  0.1183
  176MOL0     C24157   6.836   2.082  11.097  0.2220  0.3181  0.0008
  176MOL0     O24158   6.768   2.100  11.211  0.7021 -0.1121  0.2215
  176MOL0     C24159   6.699   2.230  11.223  0.4343  0.1934  0.5093
  176MOL0     C24160   6.549   2.195  11.229  0.2003  0.6588 -0.3070
  176MOL0     C24161   6.467   2.315  11.243  0.2197 -0.3715  0.3825
  176MOL0     C24162   6.326   2.291  11.288 -0.0217 -0.5366  0.2181
  176MOL0     C24163   6.223   2.269  11.176  0.0549 -0.6079 -1.1412
  176MOL0     C24164   6.081   2.245  11.242  0.3054  1.0438 -0.5733
  176MOL0     C24165   6.012   2.367  11.288 -0.0959  0.0567 -0.9895
  176MOL0     C24166   5.879   2.332  11.359 -0.4064 -0.5320  0.9585
  176MOL0     N24167   5.815   2.456  11.410 -0.7023 -0.0455  0.2464
  176MOL0     C24168   5.779   2.571  11.337  0.3395 -0.4995 -0.8808
  176MOL0     C24169   5.716   2.642  11.424 -0.1104  0.1880 -1.6939
  176MOL0     C24170   5.648   2.772  11.411  0.4570  0.3362  0.8720
  176MOL0     C24171   5.755   2.861  11.469 -0.2044  0.2601 -0.0930
  176MOL0     C24172   5.700   2.995  11.427  0.0200  0.7044  0.2644
  176MOL0     C24173   5.817   3.088  11.442  0.1694  0.0678 -0.4471
  176MOL0     O24174   5.864   3.118  11.315  0.5554  0.3702  0.4251
  176MOL0     C24175   5.972   3.200  11.304 -1.0223  0.0565 -0.1191
  176MOL0     C24176   5.993   3.267  11.177  2.2390  0.7209 -0.0662
  176MOL0     C24177   6.098   3.345  11.144 -0.6868 -0.9024  0.0843
  176MOL0     C24178   6.100   3.386  11.001 -0.7918  0.2281  0.0790
  176MOL0     C24179   6.199   3.368  11.248  1.1283 -0.2276  0.9374
  176MOL0     C24180   6.324   3.443  11.231  0.0425  0.2230  0.0202
  176MOL0     O24181   6.430   3.408  11.313  0.4603  0.1036  0.2349
  176MOL0     C24182   6.553   3.486  11.328 -0.3343  0.9768 -0.2431
  176MOL0     C24183   6.676   3.428  11.343  0.4990 -0.2368  0.7952
  176MOL0     C24184   6.782   3.509  11.369 -0.2223 -0.0192  0.0407
  176MOL0     C24185   6.773   3.648  11.377 -0.8256  0.3798  0.6726
  176MOL0     O24186   6.896   3.710  11.403 -0.2337  0.5715 -0.3425
  176MOL0     C24187   6.897   3.850  11.455 -0.0070  0.8740 -0.6553
  176MOL0     C24188   7.035   3.897  11.502  0.1192  0.2235 -0.0553
  176MOL0     C24189   7.089   3.792  11.605 -0.6322 -0.2607 -0.2493
  176MOL0     C24190   7.233   3.830  11.653  0.0247 -0.1629  0.1256
  176MOL0     C24191   7.272   3.766  11.790 -0.1012 -0.6269  0.0623
  176MOL0     C24192   7.419   3.825  11.819  0.7695  0.3848 -0.7775
  176MOL0     C24193   7.488   3.738  11.918 -0.3032  0.5351 -0.3586
  176MOL0     C24194   7.628   3.796  11.956 -1.7842  0.6022 -0.0587
  176MOL0    Cl24195   7.746   3.814  11.826 -0.5565  0.5360 -0.1875
  176MOL0     C24196   6.649   3.706  11.382  0.3260 -0.2540  0.1517
  176MOL0     C24197   6.537   3.619  11.363 -0.2250  0.4841  0.5104
  176MOL0     O24198   6.326   3.533  11.152 -0.1170 -0.3449  0.4192
  176MOL0     C24199   6.181   3.305  11.372  0.0302  0.6438  0.8078
  176MOL0     C24200   6.074   3.223  11.403  0.3764  0.7611 -0.1471
  176MOL0     N24201   5.723   2.584  11.547 -0.6330  0.0552  0.8431
  176MOL0     N24202   5.774   2.466  11.536 -0.1690  0.6531 -0.1471
  176MOL0     C24203   6.774   2.048  10.982  0.3282  0.1099 -0.2093
  176MOL0     C24204   6.845   2.044  10.864 -1.6556 -0.6590 -0.4649
  176MOL0     C24205   7.241   2.066  10.586 -0.5096 -0.9026 -0.3337
  176MOL0     C24206   7.183   1.984  10.496  0.0843  0.1612 -0.0303
  176MOL0     C24207   7.239   1.945  10.373  0.6745 -0.4376 -0.6364
  176MOL0     C24208   7.371   1.979  10.341 -0.1009  0.2956  0.1474
  176MOL0     O24209   7.435   1.947  10.224 -0.6300  0.2987 -0.1985
  176MOL0     C24210   7.373   1.971  10.104 -0.0900 -0.5360 -0.2358
  176MOL0     C24211   7.419   1.861  10.004 -0.2194  0.1218  0.1371
  176MOL0     C24212   7.575   1.856   9.974  0.2030  0.7403  0.3457
  176MOL0     C24213   7.629   1.967   9.885  0.0560 -0.6393  0.1695
  176MOL0     C24214   7.580   1.949   9.746 -0.2252 -0.1158  0.0742
  176MOL0     C24215   7.539   1.949   9.631 -0.0759  0.0265 -0.8988
  176MOL0     C24216   7.440   2.056  10.441  0.2610  0.3634 -0.1603
  176MOL0     C24217   7.385   2.102  10.565  1.2206  0.5316 -0.0696
  176MOL0     C24218   7.479   2.194  10.646  0.9611  1.0322 -0.6630
  176MOL0     H24219   7.158   2.131  10.997 -0.0680  3.0081 -0.5150
  176MOL0     H24220   7.015   2.119  11.198 -0.4401 -1.3561 -0.0300
  176MOL0     H24221   6.697   2.283  11.127 -3.1351  1.1731  0.9717
  176MOL0     H24222   6.728   2.302  11.299  1.4941  0.5217 -0.1802
  176MOL0     H24223   6.527   2.133  11.142  0.2217 -1.0903  0.8954
  176MOL0     H24224   6.523   2.134  11.316 -0.2081 -0.9783 -1.5330
  176MOL0     H24225   6.517   2.382  11.313 -1.1822 -0.9483  2.0068
  176MOL0     H24226   6.454   2.357  11.142 -0.3534  1.9910  1.3554
  176MOL0     H24227   6.329   2.207  11.358  0.9757  0.1373  1.0221
  176MOL0     H24228   6.289   2.380  11.340 -1.5655 -0.3098 -1.1942
  176MOL0     H24229   6.245   2.178  11.120 -1.7023 -2.5516  1.1395
  176MOL0     H24230   6.222   2.358  11.112  2.1696  1.5667  1.6357
  176MOL0     H24231   6.016   2.194  11.169 -1.1980 -0.9862  2.0184
  176MOL0     H24232   6.091   2.170  11.321  0.0343  2.4981  0.8948
  176MOL0     H24233   6.010   2.432  11.200  0.5823  1.1411 -0.2280
  176MOL0     H24234   6.078   2.423  11.355  0.6691 -1.1984 -0.6487
  176MOL0     H24235   5.800   2.286  11.299 -3.0645  1.6674  2.5120
  176MOL0     H24236   5.905   2.273  11.448  1.4721  1.5635  1.8735
  176MOL0     H24237   5.797   2.594  11.232 -1.7108  1.0643 -0.9553
  176MOL0     H24238   5.555   2.766  11.469 -0.2402  2.9906  0.1497
  176MOL0     H24239   5.634   2.789  11.304  2.7649  0.6053  0.5504
  176MOL0     H24240   5.759   2.853  11.578  1.6322 -1.0331 -0.2047
  176MOL0     H24241   5.857   2.843  11.435  0.1089 -0.8150  1.3050
  176MOL0     H24242   5.667   2.999  11.323  0.6485 -0.1390  0.0177
  176MOL0     H24243   5.617   3.024  11.492 -0.4816 -1.0715  0.4445
  176MOL0     H24244   5.788   3.185  11.482  0.3394 -0.0090 -0.1243
  176MOL0     H24245   5.897   3.056  11.510  0.8973  1.1950 -0.7569
  176MOL0     H24246   5.919   3.249  11.100  1.9546 -0.7049  0.5102
  176MOL0     H24247   6.036   3.469  10.971  0.2233  0.6370 -1.0242
  176MOL0     H24248   6.066   3.300  10.942 -0.4974  0.3200 -0.2304
  176MOL0     H24249   6.205   3.408  10.979 -0.2695 -1.4072  0.7815
  176MOL0     H24250   6.679   3.321  11.327  1.3240 -0.2676  1.1047
  176MOL0     H24251   6.877   3.459  11.354  0.0611  1.2518 -3.1829
  176MOL0     H24252   6.868   3.923  11.379 -1.6499  1.3049  0.3489
  176MOL0     H24253   6.828   3.850  11.540  1.2552  1.9545  0.4298
  176MOL0     H24254   7.102   3.908  11.416  0.0563  1.7178  0.0590
  176MOL0     H24255   7.017   3.993  11.550 -1.3313  0.5315 -1.1469
  176MOL0     H24256   7.095   3.696  11.553  0.2914  0.0463 -0.7361
  176MOL0     H24257   7.031   3.782  11.697  0.2952  0.2792  0.4215
  176MOL0     H24258   7.232   3.939  11.655 -1.6209  0.0302 -3.5945
  176MOL0     H24259   7.296   3.792  11.572  0.7149 -0.0844  0.6146
  176MOL0     H24260   7.198   3.799  11.863 -0.1970 -1.5558  0.3839
  176MOL0     H24261   7.272   3.657  11.790 -2.4242 -0.6676  0.7964
  176MOL0     H24262   7.428   3.926  11.861  0.4228  0.0701  0.0719
  176MOL0     H24263   7.472   3.822  11.723 -1.2384  3.7270 -2.2011
  176MOL0     H24264   7.489   3.638  11.875 -0.2441  0.6470 -0.6200
  176MOL0     H24265   7.432   3.722  12.011  2.2557 -1.8025  0.9265
  176MOL0     H24266   7.673   3.721  12.022 -3.9992 -2.3739 -1.7018
  176MOL0     H24267   7.635   3.900  11.991 -1.3567 -0.1529  2.2357
  176MOL0     H24268   6.617   3.807  11.404 -0.5893 -0.6863  0.8851
  176MOL0     H24269   6.437   3.662  11.361 -1.2379 -1.7474  0.7446
  176MOL0     H24270   6.255   3.323  11.450 -0.5751  0.7082  1.3796
  176MOL0     H24271   6.082   3.160  11.492 -0.3238  1.1646  0.2051
  176MOL0     H24272   6.669   2.021  10.986 -0.0457  1.1494 -1.8636
  176MOL0     H24273   6.805   2.004  10.772  1.7235 -0.5581 -2.1544
  176MOL0     H24274   7.086   1.940  10.519  0.3136 -0.8694 -0.9890
  176MOL0     H24275   7.182   1.874  10.315 -2.3466  1.3016 -0.0166
  176MOL0     H24276   7.269   1.983  10.135  0.5473  1.8889  1.1822
  176MOL0     H24277   7.390   2.068  10.057 -1.8232 -0.1867 -0.1987
  176MOL0     H24278   7.359   1.877   9.914  0.2657  3.3370  0.2627
  176MOL0     H24279   7.385   1.764  10.041 -1.1212  0.4849  0.2919
  176MOL0     H24280   7.618   1.850  10.075  1.5672 -0.6618 -0.2841
  176MOL0     H24281   7.591   1.761   9.923  0.6771  1.5162 -0.9831
  176MOL0     H24282   7.738   1.962   9.890  0.2172  1.8184  0.4719
  176MOL0     H24283   7.584   2.063   9.914  0.9610  0.3684 -1.6083
  176MOL0     H24284   7.482   1.944   9.540 -1.1124  1.0050 -0.3252
  176MOL0     H24285   7.544   2.083  10.428 -0.4766  2.0407 -3.4711
  176MOL0     H24286   7.433   2.294  10.649  1.8095  1.4205  1.3591
  176MOL0     H24287   7.477   2.161  10.751  0.1124  2.9148 -0.0369
  176MOL0     H24288   7.581   2.206  10.610  0.6130 -0.2520 -2.1571
  177MOL0     O24289   0.867   4.307   6.152  0.2369 -0.3451  0.3831
  177MOL0     C24290   0.921   4.201   6.189  0.4186  0.1554  0.1302
  177MOL0     O24291   0.874   4.116   6.283  0.4151 -0.2599  0.9157
  177MOL0     C24292   0.739   4.116   6.319 -0.5996  0.9213  0.7125
  177MOL0     C24293   0.663   4.222   6.355  0.2183  0.9108 -0.4618
  177MOL0     C24294   0.528   4.188   6.406 -0.7550 -0.8528  0.4600
  177MOL0     C24295   0.480   4.063   6.413 -0.6363  0.0405 -0.0929
  177MOL0     O24296   0.359   4.046   6.478 -0.1787 -0.1180 -0.4360
  177MOL0     C24297   0.295   3.923   6.504  0.1662  0.3661 -0.3272
  177MOL0     C24298   0.164   3.934   6.578 -0.3113  0.1851  0.2082
  177MOL0     C24299   0.033   3.928   6.491 -0.5500  0.0278  0.2003
  177MOL0     C24300  -0.040   4.059   6.446  0.4507  0.5702  0.5758
  177MOL0     C24301  -0.183   4.032   6.404  0.1277  0.7689 -0.4473
  177MOL0     C24302  -0.174   3.964   6.263 -0.2264 -0.0653  0.5932
  177MOL0     C24303  -0.295   3.982   6.163  0.5566  0.2771 -0.2926
  177MOL0     C24304  -0.292   4.136   6.119  0.1157  0.7333 -0.1605
  177MOL0     N24305  -0.186   4.178   6.029  0.3593 -0.2125  0.3050
  177MOL0     C24306  -0.161   4.148   5.899  0.0901  0.9178  0.5460
  177MOL0     C24307  -0.046   4.206   5.868 -0.1737 -0.3210 -0.2116
  177MOL0     C24308   0.027   4.196   5.743  0.1273 -0.0727 -0.0405
  177MOL0     C24309   0.127   4.082   5.745 -0.6145 -0.3509  1.2049
  177MOL0     C24310   0.179   4.054   5.595  0.5067 -0.4102  0.1343
  177MOL0     C24311   0.271   3.924   5.581  0.5857 -0.1453 -0.1494
  177MOL0     O24312   0.312   3.900   5.444 -0.9211 -0.7559  0.1890
  177MOL0     C24313   0.286   3.778   5.394  0.7068 -0.6121 -0.4946
  177MOL0     C24314   0.170   3.765   5.318  0.5452 -0.2416  0.4955
  177MOL0     C24315   0.114   3.635   5.314  0.7984 -0.3471  0.1849
  177MOL0     C24316  -0.021   3.622   5.242 -1.0748 -0.8011  0.1420
  177MOL0     C24317   0.173   3.527   5.385  1.2346  1.2290  0.1742
  177MOL0     C24318   0.105   3.390   5.390  0.4767 -0.5066 -0.6238
  177MOL0     O24319   0.186   3.295   5.429 -0.3997 -0.4880 -0.3323
  177MOL0     C24320   0.140   3.160   5.422 -0.6425 -0.2174  0.5457
  177MOL0     C24321   0.049   3.112   5.321  0.2899  0.2102 -0.5215
  177MOL0     C24322   0.007   2.975   5.325 -0.0714 -1.5915 -0.1729
  177MOL0     C24323   0.043   2.894   5.439 -0.8594 -0.2570 -0.0578
  177MOL0     O24324   0.009   2.760   5.462 -0.1138  0.9270  0.0445
  177MOL0     C24325  -0.110   2.731   5.384  0.2756  0.5052 -0.3568
  177MOL0     C24326  -0.172   2.611   5.465 -0.0858  0.1744 -0.6568
  177MOL0     C24327  -0.280   2.529   5.392  0.5383  0.0322  0.1063
  177MOL0     C24328  -0.377   2.617   5.315 -0.6937  0.3481  0.0002
  177MOL0     C24329  -0.488   2.690   5.398 -0.2083 -0.4263 -0.3440
  177MOL0     C24330  -0.565   2.768   5.303 -0.5782  0.3405  0.0220
  177MOL0     C24331  -0.641   2.882   5.373  0.4081  0.5763 -0.3207
  177MOL0     C24332  -0.741   2.951   5.280  0.3940  0.1069  1.2166
  177MOL0    Cl24333  -0.914   2.954   5.335 -0.0347  0.1235  0.2927
  177MOL0     C24334   0.132   2.942   5.530 -0.0721 -0.4805  0.6049
  177MOL0     C24335   0.182   3.073   5.512  0.2661  0.3650 -0.1545
  177MOL0     O24336  -0.019   3.374   5.387  0.1843 -0.3767  0.0589
  177MOL0     C24337   0.295   3.546   5.437  0.7904  0.6488  0.4186
  177MOL0     C24338   0.347   3.670   5.452 -0.8879  0.2396 -1.0932
  177MOL0     N24339  -0.008   4.281   5.983 -0.5679  0.8848 -0.1106
  177MOL0     N24340  -0.080   4.242   6.077 -1.0205  0.1113  0.2762
  177MOL0     C24341   0.558   3.953   6.368 -0.6705  0.6915  0.5612
  177MOL0     C24342   0.695   3.978   6.334 -1.1162 -0.8281  0.5532
  177MOL0     C24343   1.053   4.172   6.124 -0.3682 -0.1227  0.7061
  177MOL0     C24344   1.103   4.266   6.039 -0.0880 -0.1524  0.9101
  177MOL0     C24345   1.205   4.237   5.948  0.1613 -0.8747 -0.1244
  177MOL0     C24346   1.295   4.135   5.975  0.1591  0.0729 -0.2572
  177MOL0     O24347   1.408   4.103   5.890 -0.5006 -0.0795  0.0281
  177MOL0     C24348   1.429   4.198   5.783  0.5186 -0.0069 -0.9064
  177MOL0     C24349   1.555   4.166   5.699  0.2679  0.6343 -0.4747
  177MOL0     C24350   1.603   4.286   5.621 -0.5595 -0.2588  0.1253
  177MOL0     C24351   1.732   4.233   5.555  0.0318 -1.1128  0.0035
  177MOL0     C24352   1.805   4.348   5.490  0.0265  0.0958  0.1823
  177MOL0     C24353   1.862   4.445   5.450  0.0553 -0.1682 -0.9262
  177MOL0     C24354   1.248   4.036   6.057 -0.3501  0.1009 -0.2116
  177MOL0     C24355   1.127   4.052   6.133  0.5106  0.0324  0.3826
  177MOL0     C24356   1.085   3.933   6.224 -0.4669 -0.4352  0.0597
  177MOL0     H24357   0.703   4.323   6.358  0.9862  0.6842  3.7225
  177MOL0     H24358   0.473   4.269   6.453 -0.3867  0.0361 -0.5890
  177MOL0     H24359   0.355   3.852   6.562 -0.9516 -1.3931 -1.2507
  177MOL0     H24360   0.284   3.865   6.412  1.2563  0.0323 -0.2616
  177MOL0     H24361   0.162   3.860   6.658  1.1940  0.4130  0.4998
  177MOL0     H24362   0.169   4.032   6.627  1.1131  0.6384 -0.7787
  177MOL0     H24363   0.063   3.885   6.395  2.0399  2.5546 -0.2350
  177MOL0     H24364  -0.032   3.850   6.534 -1.0344  0.2897 -0.0444
  177MOL0     H24365  -0.045   4.132   6.528 -1.0367  1.2706 -0.0995
  177MOL0     H24366   0.007   4.114   6.365  2.3003  0.6861  1.6560
  177MOL0     H24367  -0.244   4.122   6.401 -3.1732 -1.3077 -1.1004
  177MOL0     H24368  -0.223   3.961   6.477 -0.5992  0.3032 -1.2680
  177MOL0     H24369  -0.082   4.004   6.219  1.8059 -0.7156  3.8952
  177MOL0     H24370  -0.175   3.859   6.295 -1.1288  0.5259  2.6107
  177MOL0     H24371  -0.388   3.957   6.216 -1.4349  3.1163 -2.1662
  177MOL0     H24372  -0.296   3.909   6.082  0.2835 -1.7060  1.4181
  177MOL0     H24373  -0.388   4.155   6.072 -1.0207  1.2020  2.1920
  177MOL0     H24374  -0.294   4.203   6.206  0.3763  1.9927 -1.0970
  177MOL0     H24375  -0.219   4.086   5.831  0.4756  2.9541 -1.7601
  177MOL0     H24376   0.059   4.300   5.735 -1.3679  0.3124 -1.5794
  177MOL0     H24377  -0.046   4.188   5.662 -0.2706  0.2602  0.2889
  177MOL0     H24378   0.205   4.100   5.819  2.3501 -0.9036 -1.5667
  177MOL0     H24379   0.079   3.990   5.781 -1.8758  0.9636  3.0773
  177MOL0     H24380   0.092   4.047   5.529  0.7757 -0.2485 -0.2415
  177MOL0     H24381   0.237   4.144   5.573  1.6377 -0.7961  1.3749
  177MOL0     H24382   0.347   3.943   5.658 -1.7411 -1.4605  2.6799
  177MOL0     H24383   0.228   3.831   5.620  0.3281  0.1012  0.1549
  177MOL0     H24384   0.102   3.846   5.293 -2.2536 -3.2336 -2.5101
  177MOL0     H24385  -0.099   3.632   5.318 -1.0532 -2.2178  0.3854
  177MOL0     H24386  -0.038   3.527   5.190  3.0339 -2.3025  1.0986
  177MOL0     H24387  -0.028   3.702   5.168 -0.6729 -1.0441 -0.1694
  177MOL0     H24388   0.000   3.172   5.245 -1.4010 -1.0152 -0.4546
  177MOL0     H24389  -0.068   2.942   5.253 -1.4534 -0.0959  0.5349
  177MOL0     H24390  -0.170   2.822   5.381 -0.4216  0.0411 -0.7841
  177MOL0     H24391  -0.086   2.702   5.282 -0.7517  1.1731 -0.8051
  177MOL0     H24392  -0.089   2.546   5.495 -0.5906  0.0218  0.4716
  177MOL0     H24393  -0.212   2.643   5.562 -0.6889 -0.2396 -0.7622
  177MOL0     H24394  -0.334   2.468   5.466 -1.5322  0.5921 -0.8747
  177MOL0     H24395  -0.241   2.456   5.321 -2.6972 -1.6895 -0.0928
  177MOL0     H24396  -0.422   2.547   5.244  1.5465 -2.3829  1.0806
  177MOL0     H24397  -0.327   2.688   5.247 -1.9755  2.8572  1.5294
  177MOL0     H24398  -0.549   2.622   5.458  0.3755  0.2000  1.0047
  177MOL0     H24399  -0.441   2.763   5.464 -0.2973  0.9973 -1.8111
  177MOL0     H24400  -0.642   2.708   5.253  0.4660  0.3846 -1.7119
  177MOL0     H24401  -0.501   2.816   5.228 -1.2886 -0.5781 -1.2246
  177MOL0     H24402  -0.571   2.955   5.415  0.2686  0.3751  0.2785
  177MOL0     H24403  -0.698   2.835   5.454 -0.6547  3.0354  0.4382
  177MOL0     H24404  -0.733   2.895   5.187 -0.2873 -1.5817  2.1348
  177MOL0     H24405  -0.708   3.054   5.260  0.1595  0.2683  1.6306
  177MOL0     H24406   0.161   2.879   5.614 -0.5476  0.8825  1.8278
  177MOL0     H24407   0.253   3.092   5.592  2.3553 -2.0024 -1.2695
  177MOL0     H24408   0.355   3.471   5.489 -0.7783  0.2675  1.7877
  177MOL0     H24409   0.441   3.674   5.505  0.1165 -2.5372 -2.4736
  177MOL0     H24410   0.522   3.850   6.373  1.3164 -0.2208 -1.9945
  177MOL0     H24411   0.766   3.897   6.330  0.6578  0.6952 -0.4950
  177MOL0     H24412   1.056   4.364   6.033  0.6545  0.1344 -1.3787
  177MOL0     H24413   1.217   4.321   5.881 -0.8667  1.5714  2.5623
  177MOL0     H24414   1.341   4.201   5.718 -2.0254  0.8212  2.2693
  177MOL0     H24415   1.425   4.296   5.831  1.5474 -1.5470  2.6239
  177MOL0     H24416   1.534   4.079   5.637  0.3899  0.8493 -0.8251
  177MOL0     H24417   1.643   4.138   5.758 -1.2465 -2.0596  0.6679
  177MOL0     H24418   1.535   4.317   5.542 -0.4558  3.4118  1.3015
  177MOL0     H24419   1.628   4.371   5.685 -1.7140  0.6062 -0.5256
  177MOL0     H24420   1.700   4.168   5.473  3.1544 -2.2642 -0.4121
  177MOL0     H24421   1.793   4.171   5.622 -0.0777  2.0879  3.3878
  177MOL0     H24422   1.910   4.534   5.414 -1.7535  1.2944  0.0728
  177MOL0     H24423   1.303   3.946   6.082 -1.5100 -0.6097 -0.1514
  177MOL0     H24424   1.146   3.847   6.194  1.9032  1.4510 -0.8998
  177MOL0     H24425   1.107   3.970   6.324  2.3995 -0.0943 -0.6066
  177MOL0     H24426   0.979   3.912   6.210 -0.5797  1.0906 -1.7657
  178MOL0     O24427   8.275   2.864   0.839  0.5944  0.7109 -0.9092
  178MOL0     C24428   8.184   2.787   0.798 -0.6376 -0.3305 -0.4493
  178MOL0     O24429   8.200   2.705   0.693  0.3460 -0.2701 -0.4441
  178MOL0     C24430   8.318   2.645   0.687 -0.6206  0.2200  0.2423
  178MOL0     C24431   8.429   2.725   0.649  0.1494 -0.1890 -0.2142
  178MOL0     C24432   8.555   2.668   0.643 -0.2711 -0.3315 -0.0584
  178MOL0     C24433   8.575   2.534   0.667  0.6414 -0.8707 -0.3389
  178MOL0     O24434   8.692   2.472   0.660  0.0796  0.4736 -0.1704
  178MOL0     C24435   8.792   2.503   0.564  0.7473 -0.0987 -0.2005
  178MOL0     C24436   8.883   2.387   0.569 -0.5417 -0.1025  0.3334
  178MOL0     C24437   8.827   2.257   0.512 -0.1524 -0.1325 -0.2359
  178MOL0     C24438   8.928   2.145   0.522 -0.1093 -0.2127 -0.1215
  178MOL0     C24439   8.860   2.017   0.482 -0.2970 -0.4396  0.4483
  178MOL0     C24440   8.955   1.898   0.461  1.0714 -0.0351  0.0621
  178MOL0     C24441   9.063   1.855   0.561 -0.7496  0.2652 -0.0990
  178MOL0     C24442   9.005   1.805   0.686  0.4729 -0.5422  0.0636
  178MOL0     N24443   9.107   1.727   0.762 -0.5859 -0.4246 -1.1715
  178MOL0     C24444   9.088   1.668   0.893 -0.0827  0.7168 -0.1811
  178MOL0     C24445   9.212   1.620   0.929 -0.3556 -0.1417  0.4407
  178MOL0     C24446   9.247   1.552   1.060  0.7866  0.5281  0.1679
  178MOL0     C24447   9.377   1.489   1.068 -1.1155 -0.9588  0.2198
  178MOL0     C24448   9.404   1.368   0.984 -0.8973  0.8839  0.0651
  178MOL0     C24449   9.551   1.318   1.022  0.2318  0.6642 -0.2262
  178MOL0     O24450   9.583   1.239   0.910  0.8454  0.6697 -0.4448
  178MOL0     C24451   9.716   1.202   0.901 -0.6140 -0.3243  0.4287
  178MOL0     C24452   9.746   1.116   0.794  0.3899  0.3803  0.3122
  178MOL0     C24453   9.865   1.054   0.774 -0.7777 -0.4812  0.0367
  178MOL0     C24454   9.870   0.962   0.657  0.0568 -0.3603 -0.0970
  178MOL0     C24455   9.973   1.090   0.862  0.4561  0.1770 -0.0546
  178MOL0     C24456  10.103   1.027   0.849 -0.6751  0.3743 -1.2313
  178MOL0     O24457  10.207   1.080   0.928  0.2834 -0.4727 -0.5387
  178MOL0     C24458  10.337   1.020   0.919  0.0679  0.0639  0.2328
  178MOL0     C24459  10.407   0.967   1.029  0.6837  0.3038 -0.3548
  178MOL0     C24460  10.527   0.891   1.007 -0.2329 -0.0879  0.5129
  178MOL0     C24461  10.587   0.907   0.887 -0.7059  0.6497 -0.9497
  178MOL0     O24462  10.712   0.864   0.844  0.1345 -0.4608  0.2294
  178MOL0     C24463  10.801   0.797   0.938  1.1410 -0.2266  0.0486
  178MOL0     C24464  10.933   0.756   0.866  0.1129 -0.6098 -0.1195
  178MOL0     C24465  11.021   0.880   0.871  0.4850 -0.1233  0.2099
  178MOL0     C24466  11.145   0.870   0.779 -0.1190 -1.1321 -0.2036
  178MOL0     C24467  11.239   0.997   0.775  0.5181  0.6252 -0.4307
  178MOL0     C24468  11.286   1.037   0.638  0.2350  0.1354 -0.7983
  178MOL0     C24469  11.360   1.169   0.656 -0.2646  0.9886 -0.1082
  178MOL0     C24470  11.367   1.265   0.535 -0.0617  0.0138  0.2684
  178MOL0    Cl24471  11.403   1.164   0.395 -0.2560  0.1717 -0.1082
  178MOL0     C24472  10.523   0.976   0.786  0.0751  0.1012 -0.2676
  178MOL0     C24473  10.395   1.014   0.794  0.6599  1.3789 -0.3893
  178MOL0     O24474  10.114   0.922   0.788  0.4335  0.4144  0.4828
  178MOL0     C24475   9.952   1.179   0.972  0.4143  0.7056 -0.0910
  178MOL0     C24476   9.818   1.223   0.990  0.7031 -0.1521  0.7370
  178MOL0     N24477   9.303   1.649   0.829  0.7328 -0.0985 -0.6583
  178MOL0     N24478   9.238   1.706   0.735  0.3709  0.0104  0.7694
  178MOL0     C24479   8.464   2.454   0.706 -0.0280 -0.6646  0.2393
  178MOL0     C24480   8.338   2.508   0.717 -0.2571 -0.5070 -0.3486
  178MOL0     C24481   8.043   2.795   0.857 -0.0523  0.4269 -0.2165
  178MOL0     C24482   7.934   2.751   0.778 -0.4516 -0.2603  0.5326
  178MOL0     C24483   7.802   2.765   0.813  0.3484 -0.5262  0.2319
  178MOL0     C24484   7.771   2.813   0.938 -0.2715 -0.8660  0.5519
  178MOL0     O24485   7.643   2.816   0.979  0.1512 -0.5224  0.4107
  178MOL0     C24486   7.537   2.781   0.899 -0.1482 -0.5610 -0.0821
  178MOL0     C24487   7.401   2.771   0.963  0.6460 -0.9854  0.4057
  178MOL0     C24488   7.336   2.634   0.945  1.0215 -0.3753 -0.0166
  178MOL0     C24489   7.192   2.628   0.994 -0.0707 -0.4526 -0.1120
  178MOL0     C24490   7.133   2.514   0.929  0.7566 -0.7362  0.0159
  178MOL0     C24491   7.075   2.420   0.881  0.0392  0.1020 -1.0464
  178MOL0     C24492   7.876   2.848   1.023 -0.1990  0.0811 -0.6171
  178MOL0     C24493   8.011   2.833   0.986  0.0861  0.1294 -0.9598
  178MOL0     C24494   8.104   2.869   1.096  0.1822  0.6938  0.6412
  178MOL0     H24495   8.411   2.831   0.635 -1.8120 -0.3918  0.5387
  178MOL0     H24496   8.637   2.736   0.622  0.0384 -0.2770  1.1859
  178MOL0     H24497   8.850   2.591   0.594  0.1587 -0.1057  0.9743
  178MOL0     H24498   8.751   2.513   0.463  0.8633 -3.6284 -0.7336
  178MOL0     H24499   8.970   2.415   0.509 -0.6904  1.1371  0.6868
  178MOL0     H24500   8.923   2.374   0.670 -0.5693  0.5565  0.4289
  178MOL0     H24501   8.736   2.238   0.569  0.1842 -1.1411 -0.0182
  178MOL0     H24502   8.790   2.262   0.409  0.9938 -1.5067 -0.7467
  178MOL0     H24503   9.018   2.141   0.459  1.7940 -1.7144  2.4653
  178MOL0     H24504   8.953   2.136   0.628 -2.5887 -1.0879  0.4399
  178MOL0     H24505   8.809   2.033   0.387 -1.3466 -0.7679  0.9470
  178MOL0     H24506   8.785   1.979   0.552  1.0778 -3.5446  0.4089
  178MOL0     H24507   8.886   1.814   0.446 -0.8420  1.1544  1.6680
  178MOL0     H24508   9.025   1.923   0.381  2.5563 -0.3581  1.2071
  178MOL0     H24509   9.128   1.940   0.587 -0.4674 -0.3093  1.1456
  178MOL0     H24510   9.127   1.786   0.505 -1.5395 -0.8722  0.3592
  178MOL0     H24511   8.957   1.887   0.740  1.5139  0.6658 -0.8051
  178MOL0     H24512   8.920   1.737   0.670 -0.5630  0.3010  1.7220
  178MOL0     H24513   8.993   1.677   0.944 -0.0513  5.1858 -0.5105
  178MOL0     H24514   9.175   1.470   1.068 -0.6412  1.6477 -0.6953
  178MOL0     H24515   9.229   1.631   1.134  0.6816  1.3320 -0.6898
  178MOL0     H24516   9.454   1.559   1.034  1.3656 -2.8322  1.5812
  178MOL0     H24517   9.388   1.460   1.173 -0.4649  1.3578  0.8452
  178MOL0     H24518   9.330   1.289   0.998 -1.3631  1.4178  0.6942
  178MOL0     H24519   9.406   1.391   0.877 -0.4826  1.4097  0.1822
  178MOL0     H24520   9.619   1.401   1.041  0.5699  0.0199  1.6062
  178MOL0     H24521   9.534   1.258   1.113 -0.4842  1.4534  0.1722
  178MOL0     H24522   9.669   1.080   0.727  0.6441 -0.9716  0.7002
  178MOL0     H24523   9.865   0.855   0.678  0.9745 -0.5981 -0.9572
  178MOL0     H24524   9.968   0.967   0.607 -2.1544 -1.2676 -5.2425
  178MOL0     H24525   9.794   0.993   0.584 -1.2808  0.7278  1.6828
  178MOL0     H24526  10.369   0.968   1.131  6.2272 -1.2680  2.1198
  178MOL0     H24527  10.578   0.836   1.085 -0.2650 -0.9860 -0.0832
  178MOL0     H24528  10.807   0.863   1.024  0.9359  0.3372 -0.3659
  178MOL0     H24529  10.749   0.707   0.972 -0.4779  1.1088  1.2844
  178MOL0     H24530  10.986   0.676   0.920  1.4443  1.6177  2.0584
  178MOL0     H24531  10.909   0.719   0.766 -1.8241 -0.2174  0.1503
  178MOL0     H24532  11.061   0.884   0.973 -0.0162 -0.0586  0.4069
  178MOL0     H24533  10.967   0.975   0.862  1.3125  0.8315  3.7820
  178MOL0     H24534  11.110   0.844   0.678 -0.4656 -2.9648  0.3459
  178MOL0     H24535  11.210   0.786   0.804 -1.3659 -1.4090  2.5400
  178MOL0     H24536  11.165   1.074   0.799  0.1695  0.5785 -1.3121
  178MOL0     H24537  11.320   0.983   0.847 -0.4659 -3.5094  0.1074
  178MOL0     H24538  11.201   1.057   0.574 -1.7974 -3.5084  0.4699
  178MOL0     H24539  11.348   0.965   0.584 -2.1800 -0.2114 -3.3260
  178MOL0     H24540  11.462   1.156   0.692 -0.2918  0.4798 -0.2107
  178MOL0     H24541  11.318   1.230   0.736 -0.1415  3.1275 -1.5699
  178MOL0     H24542  11.442   1.345   0.527 -1.8336  1.7513  0.3633
  178MOL0     H24543  11.269   1.311   0.523 -0.2593 -0.1856  1.0609
  178MOL0     H24544  10.577   0.983   0.692 -0.6137  0.0966 -0.6635
  178MOL0     H24545  10.337   1.056   0.713 -1.7187  0.6001  0.8222
  178MOL0     H24546  10.018   1.203   1.056 -0.5345  0.8983  0.6211
  178MOL0     H24547   9.803   1.278   1.083  4.5272  0.8278  0.9306
  178MOL0     H24548   8.489   2.353   0.737  0.3599 -1.0404 -1.2460
  178MOL0     H24549   8.254   2.441   0.730 -0.5118  0.1435  1.8688
  178MOL0     H24550   7.947   2.699   0.683 -0.6615 -2.1826  1.5082
  178MOL0     H24551   7.734   2.728   0.737  2.8335 -3.2677 -0.8287
  178MOL0     H24552   7.538   2.851   0.815  1.0979  0.7559  0.9843
  178MOL0     H24553   7.556   2.683   0.855  1.4318 -1.1606  1.7919
  178MOL0     H24554   7.339   2.852   0.925  2.8046 -0.4537 -2.3095
  178MOL0     H24555   7.412   2.799   1.068 -0.5379  1.2118  0.0011
  178MOL0     H24556   7.344   2.613   0.838 -0.8377 -1.0741 -0.0414
  178MOL0     H24557   7.388   2.547   0.987 -1.8644 -2.6110 -0.8092
  178MOL0     H24558   7.132   2.717   0.972 -0.4647 -0.5189  0.6747
  178MOL0     H24559   7.203   2.625   1.102  2.2471 -2.5851 -0.3085
  178MOL0     H24560   7.018   2.337   0.844 -1.2562 -0.1013  1.2197
  178MOL0     H24561   7.838   2.876   1.121 -2.9256  0.1224 -1.6038
  178MOL0     H24562   8.105   2.979   1.103 -1.9652  0.7302  1.1383
  178MOL0     H24563   8.080   2.817   1.189  1.1136 -0.0313  0.4835
  178MOL0     H24564   8.206   2.836   1.077  1.0430  2.1791  2.3455
  179MOL0     O24565   7.201   6.589   8.463 -0.4674 -0.5632  0.1772
  179MOL0     C24566   7.296   6.624   8.388  0.2460  0.5143 -0.2175
  179MOL0     O24567   7.286   6.732   8.305  0.4527  1.2208 -0.2704
  179MOL0     C24568   7.166   6.794   8.295  0.4491  0.6055 -0.2987
  179MOL0     C24569   7.114   6.799   8.162  0.1414 -0.0347 -0.2326
  179MOL0     C24570   6.994   6.872   8.136 -0.4080  0.4278  0.1579
  179MOL0     C24571   6.938   6.954   8.235 -0.2431 -0.2929 -0.0420
  179MOL0     O24572   6.818   7.014   8.223 -0.2392 -0.0853  0.1241
  179MOL0     C24573   6.788   7.108   8.115  0.2304  0.5959 -0.3535
  179MOL0     C24574   6.673   7.060   8.029  0.6574  0.0301  0.3678
  179MOL0     C24575   6.682   7.120   7.888  0.2219 -0.3727 -0.0452
  179MOL0     C24576   6.759   7.030   7.795 -0.3409 -0.0365  0.4089
  179MOL0     C24577   6.751   7.080   7.651  0.6414 -1.1166  0.7269
  179MOL0     C24578   6.821   6.989   7.559 -0.5649  0.6616  0.0203
  179MOL0     C24579   6.780   7.027   7.407 -0.0879 -0.3414  0.0287
  179MOL0     C24580   6.843   6.915   7.318  0.3175  0.1385 -0.5138
  179MOL0     N24581   6.829   6.936   7.177  0.0183  0.2086 -0.1620
  179MOL0     C24582   6.896   7.031   7.103 -0.3622 -0.1997 -1.1677
  179MOL0     C24583   6.852   7.015   6.978  0.0964 -0.0005 -0.1292
  179MOL0     C24584   6.900   7.105   6.855 -0.1825  0.0835 -0.5474
  179MOL0     C24585   6.800   7.134   6.743 -0.6459 -0.2789  0.4991
  179MOL0     C24586   6.663   7.206   6.774 -0.8939 -0.5753  0.5363
  179MOL0     C24587   6.657   7.292   6.905  0.6948 -0.2548 -0.3315
  179MOL0     O24588   6.768   7.379   6.927 -0.0530  0.1334 -0.1459
  179MOL0     C24589   6.775   7.436   7.052 -0.1230  0.6755  0.4898
  179MOL0     C24590   6.877   7.520   7.077  0.4217 -0.3240 -0.3483
  179MOL0     C24591   6.902   7.565   7.204  0.1498  0.9280  0.5700
  179MOL0     C24592   7.019   7.655   7.221 -0.3838  1.0847 -0.6542
  179MOL0     C24593   6.826   7.524   7.316 -0.6898 -0.0073  1.0045
  179MOL0     C24594   6.862   7.556   7.460 -0.1817  0.5373 -0.5256
  179MOL0     O24595   6.858   7.454   7.552 -0.3030  0.4673  0.3107
  179MOL0     C24596   6.916   7.484   7.674  0.0514 -0.5199 -0.2726
  179MOL0     C24597   7.060   7.512   7.689  0.0686  0.3769 -0.3056
  179MOL0     C24598   7.119   7.534   7.817 -0.0655  0.6174 -0.4219
  179MOL0     C24599   7.037   7.530   7.929  0.0598 -0.3482 -0.6220
  179MOL0     O24600   7.099   7.549   8.045 -0.0048  0.2074 -0.1818
  179MOL0     C24601   7.049   7.491   8.165 -0.2122  0.0960 -0.6833
  179MOL0     C24602   7.030   7.339   8.170  0.0188  1.2675  1.0142
  179MOL0     C24603   7.175   7.260   8.139  0.2107 -0.2790  0.2460
  179MOL0     C24604   7.267   7.260   8.264 -0.0003 -0.7660  0.4763
  179MOL0     C24605   7.388   7.161   8.242  0.1124  0.3477  0.6330
  179MOL0     C24606   7.496   7.152   8.356 -0.2634 -0.0302 -0.3450
  179MOL0     C24607   7.636   7.103   8.307 -0.0103  0.5421  1.4016
  179MOL0     C24608   7.738   7.062   8.418 -1.2460 -0.5657  0.1590
  179MOL0    Cl24609   7.759   7.188   8.538 -0.0776 -0.1149  0.1714
  179MOL0     C24610   6.898   7.504   7.910  0.2579 -1.0539 -1.0006
  179MOL0     C24611   6.833   7.484   7.784  0.3047  0.6405 -0.3594
  179MOL0     O24612   6.874   7.677   7.486 -0.2505 -0.4114 -0.1045
  179MOL0     C24613   6.733   7.425   7.296  0.3676  0.6210 -0.2944
  179MOL0     C24614   6.721   7.369   7.169  0.0249 -0.4635 -0.3681
  179MOL0     N24615   6.758   6.917   6.981 -0.4555 -0.1519  0.0077
  179MOL0     N24616   6.742   6.868   7.101 -0.4241 -0.1308 -0.0378
  179MOL0     C24617   7.001   6.963   8.361  0.7713  0.0945  0.0433
  179MOL0     C24618   7.114   6.888   8.393  0.0538  0.0349 -0.2252
  179MOL0     C24619   7.420   6.539   8.395 -0.2819  0.4473 -0.2088
  179MOL0     C24620   7.417   6.418   8.473 -0.5435 -0.6777 -0.2568
  179MOL0     C24621   7.529   6.329   8.477  0.6075  0.2213  0.1609
  179MOL0     C24622   7.630   6.343   8.382  0.0808  0.4576  0.3923
  179MOL0     O24623   7.720   6.239   8.376  0.4177  0.4700 -0.2716
  179MOL0     C24624   7.799   6.197   8.490 -0.6162  0.7480  0.8665
  179MOL0     C24625   7.768   6.054   8.527 -0.7579 -0.2913 -0.3339
  179MOL0     C24626   7.788   6.034   8.671 -0.2137 -0.0269  0.0194
  179MOL0     C24627   7.721   5.909   8.726  0.6206  0.3768  0.9265
  179MOL0     C24628   7.810   5.792   8.716  0.6467  0.3761  0.1857
  179MOL0     C24629   7.889   5.697   8.707  0.0409  0.1390  0.3619
  179MOL0     C24630   7.628   6.452   8.293 -0.0509 -0.1671  0.0231
  179MOL0     C24631   7.533   6.550   8.304  0.9037 -0.1407  0.3308
  179MOL0     C24632   7.549   6.674   8.217 -0.3235  0.0008  0.3466
  179MOL0     H24633   7.149   6.738   8.079 -0.7100  0.6211 -1.0952
  179MOL0     H24634   6.944   6.873   8.040 -1.3739 -1.3207  0.5908
  179MOL0     H24635   6.875   7.111   8.050  1.0331 -3.2588  0.2940
  179MOL0     H24636   6.756   7.208   8.146 -0.7878 -0.1114  1.0078
  179MOL0     H24637   6.650   6.955   8.009 -0.4792  0.8414 -3.5425
  179MOL0     H24638   6.587   7.109   8.075  0.6850  2.0191 -1.5385
  179MOL0     H24639   6.583   7.127   7.843 -0.0212 -0.7417  0.4243
  179MOL0     H24640   6.728   7.219   7.890 -0.0664 -0.2364 -0.0863
  179MOL0     H24641   6.863   7.036   7.828  0.1232 -1.2506 -0.7329
  179MOL0     H24642   6.728   6.925   7.795 -0.1357 -0.1009  0.7783
  179MOL0     H24643   6.802   7.175   7.634  1.1251 -1.4499  0.2522
  179MOL0     H24644   6.644   7.094   7.634  1.1375  1.7265 -0.6471
  179MOL0     H24645   6.925   6.995   7.592 -0.3426  0.8956 -0.6980
  179MOL0     H24646   6.792   6.885   7.579  0.0362 -0.0330 -2.4032
  179MOL0     H24647   6.810   7.130   7.384 -0.2801  0.1566  1.8615
  179MOL0     H24648   6.673   7.020   7.386 -0.3130 -0.8323  1.2418
  179MOL0     H24649   6.949   6.892   7.335 -0.5701 -2.5783  2.1433
  179MOL0     H24650   6.785   6.829   7.352 -1.0230  1.4529  0.6429
  179MOL0     H24651   6.980   7.094   7.134 -0.2337 -1.4434  1.3114
  179MOL0     H24652   6.981   7.049   6.809  2.0761  2.9787 -0.3843
  179MOL0     H24653   6.940   7.203   6.881  1.2521 -0.7657  0.5482
  179MOL0     H24654   6.864   7.190   6.674 -1.5174 -1.9966 -1.8300
  179MOL0     H24655   6.769   7.042   6.692  0.0666  0.0780 -0.6118
  179MOL0     H24656   6.638   7.266   6.686  3.8097 -0.0444 -0.7000
  179MOL0     H24657   6.583   7.132   6.785 -0.2404 -1.3448  0.1760
  179MOL0     H24658   6.560   7.342   6.911  0.9833  0.1169  1.6017
  179MOL0     H24659   6.645   7.211   6.978  1.3475  1.5129  1.8279
  179MOL0     H24660   6.936   7.555   6.993 -2.8471 -0.1862 -2.7889
  179MOL0     H24661   7.092   7.598   7.279 -1.7636  0.8092  0.8939
  179MOL0     H24662   7.007   7.746   7.281  2.1339  0.1688  1.4292
  179MOL0     H24663   7.068   7.670   7.125  0.6151 -1.1707 -0.5530
  179MOL0     H24664   7.115   7.523   7.596  1.1213  0.3485  0.3053
  179MOL0     H24665   7.222   7.566   7.816  1.3152 -3.2486  0.1921
  179MOL0     H24666   7.116   7.512   8.250  0.7562  0.3033 -1.4743
  179MOL0     H24667   6.950   7.534   8.184 -0.1231 -0.4604  1.3225
  179MOL0     H24668   6.986   7.295   8.260  1.3355 -3.7364 -0.4683
  179MOL0     H24669   6.966   7.303   8.089 -0.6690 -0.0308  2.1012
  179MOL0     H24670   7.237   7.311   8.065 -0.8653  1.6159  0.5809
  179MOL0     H24671   7.152   7.156   8.113 -1.2966 -0.1321  0.8605
  179MOL0     H24672   7.202   7.234   8.348  0.7019 -2.4928  0.5313
  179MOL0     H24673   7.289   7.367   8.264 -1.4689 -0.3972 -1.4143
  179MOL0     H24674   7.355   7.059   8.224  0.4573  0.5273 -1.1678
  179MOL0     H24675   7.431   7.192   8.146  0.7515 -0.5805  0.6116
  179MOL0     H24676   7.465   7.074   8.426  2.7725 -1.3895 -0.3771
  179MOL0     H24677   7.518   7.248   8.404  3.0942 -1.3838  1.1108
  179MOL0     H24678   7.679   7.182   8.243 -0.7406 -1.8654 -2.3540
  179MOL0     H24679   7.627   7.025   8.232  0.2616  1.5453  0.2883
  179MOL0     H24680   7.830   7.035   8.366 -0.9776 -2.0845  1.3465
  179MOL0     H24681   7.711   6.970   8.471  0.2343  0.0263  2.0540
  179MOL0     H24682   6.830   7.508   7.994  3.2670  0.3429  1.5975
  179MOL0     H24683   6.728   7.456   7.775  0.9751 -2.2214 -0.0539
  179MOL0     H24684   6.676   7.384   7.378  1.9936 -0.6395  0.2604
  179MOL0     H24685   6.659   7.281   7.152  1.6966 -1.4156 -1.8712
  179MOL0     H24686   6.956   7.029   8.435  2.6299  0.8998  0.5037
  179MOL0     H24687   7.163   6.901   8.490  1.8555  1.7769 -1.3040
  179MOL0     H24688   7.327   6.399   8.530 -2.1291 -2.3197 -3.0511
  179MOL0     H24689   7.514   6.240   8.537 -1.1184 -0.6957 -1.5104
  179MOL0     H24690   7.903   6.218   8.464 -1.6435  5.0436 -0.5395
  179MOL0     H24691   7.766   6.260   8.573 -2.0815  1.7918 -0.4544
  179MOL0     H24692   7.829   5.988   8.464  1.2032  3.4258 -2.7383
  179MOL0     H24693   7.664   6.032   8.503 -0.7807  0.6127 -1.1441
  179MOL0     H24694   7.895   6.044   8.692 -0.3180  0.4722  0.3067
  179MOL0     H24695   7.751   6.121   8.725  3.1147  1.4737  0.1624
  179MOL0     H24696   7.638   5.876   8.663  0.6803  2.3501 -0.2391
  179MOL0     H24697   7.680   5.922   8.827  0.9975 -3.6418  1.7721
  179MOL0     H24698   7.964   5.622   8.691  1.1320  1.5836 -1.9379
  179MOL0     H24699   7.718   6.457   8.233  1.4255 -1.1386  2.0258
  179MOL0     H24700   7.489   6.644   8.130  2.1725 -0.8240 -1.1863
  179MOL0     H24701   7.520   6.767   8.268 -0.4735  0.7046 -0.9836
  179MOL0     H24702   7.655   6.686   8.193 -0.3347 -1.5265 -0.5958
  180MOL0     O24703   9.813   1.243  11.034  0.6150 -0.7514  0.2096
  180MOL0     C24704   9.796   1.203  11.143  0.6285 -0.1193 -0.4345
  180MOL0     O24705   9.834   1.266  11.254 -0.3112  0.9104 -0.3545
  180MOL0     C24706   9.820   1.398  11.272 -0.8528  0.6317 -0.1346
  180MOL0     C24707   9.931   1.470  11.295  0.3383  0.1634  0.0123
  180MOL0     C24708   9.912   1.602  11.332  0.1561 -1.3489  0.6012
  180MOL0     C24709   9.784   1.664  11.337 -0.2137 -0.0112  0.6186
  180MOL0     O24710   9.757   1.790  11.372 -0.4048 -0.3412 -0.3663
  180MOL0     C24711   9.822   1.839  11.487  0.0836  0.1346 -0.2477
  180MOL0     C24712   9.733   1.943  11.553  0.2702 -0.3710 -0.4637
  180MOL0     C24713   9.676   2.051  11.467 -0.3324 -0.4384  0.7901
  180MOL0     C24714   9.793   2.141  11.424 -0.2040 -0.0039  0.9328
  180MOL0     C24715   9.740   2.270  11.367 -0.3019  0.0842  0.1184
  180MOL0     C24716   9.695   2.372  11.473  0.7920 -0.5600  0.4573
  180MOL0     C24717   9.634   2.501  11.399  0.1870  0.2556  1.2726
  180MOL0     C24718   9.739   2.600  11.344 -0.2367  0.2340  0.3433
  180MOL0     N24719   9.683   2.697  11.253 -0.3749  0.5568  0.0215
  180MOL0     C24720   9.551   2.719  11.226  0.2697  0.3031  0.3397
  180MOL0     C24721   9.551   2.783  11.101  0.0441 -0.2748 -0.0605
  180MOL0     C24722   9.441   2.836  11.015  1.0432  0.6789  0.9082
  180MOL0     C24723   9.293   2.758  11.026  0.4941 -1.2065 -0.3278
  180MOL0     C24724   9.301   2.619  10.974  0.0467  0.1581  0.2053
  180MOL0     C24725   9.313   2.625  10.823  0.4397  0.1619  0.2865
  180MOL0     O24726   9.392   2.528  10.759 -0.2518  0.1833  0.1920
  180MOL0     C24727   9.521   2.536  10.783 -0.1158 -0.1588  0.1080
  180MOL0     C24728   9.575   2.460  10.887  0.3298 -0.4537  0.2721
  180MOL0     C24729   9.715   2.450  10.910  0.3937 -0.6008  0.0168
  180MOL0     C24730   9.750   2.364  11.030  0.0135  0.4023 -1.5695
  180MOL0     C24731   9.807   2.526  10.831  0.3446  0.1605 -0.2585
  180MOL0     C24732   9.951   2.526  10.861 -0.7001 -0.2050 -0.7155
  180MOL0     O24733  10.014   2.641  10.825 -0.4516 -0.6835 -0.9389
  180MOL0     C24734  10.143   2.669  10.876  0.6812 -0.2341  0.1729
  180MOL0     C24735  10.168   2.745  10.985  0.7262 -0.0650  0.2951
  180MOL0     C24736  10.305   2.780  11.011  0.6009 -0.0689  0.3784
  180MOL0     C24737  10.410   2.738  10.940  0.2013  0.6491  0.6147
  180MOL0     O24738  10.541   2.764  10.968 -0.0492 -0.4187  0.6297
  180MOL0     C24739  10.579   2.852  11.072 -0.4201  0.0401 -0.1495
  180MOL0     C24740  10.732   2.834  11.093  0.1801  0.3776  0.1885
  180MOL0     C24741  10.802   2.970  11.103 -0.7194 -0.2887  1.0003
  180MOL0     C24742  10.958   2.968  11.141  0.7741  0.4167  0.1707
  180MOL0     C24743  11.031   3.102  11.109  0.5690  0.1386 -0.0116
  180MOL0     C24744  11.181   3.082  11.120 -0.9591  0.4343  1.2311
  180MOL0     C24745  11.260   3.201  11.067  0.7193 -0.0043 -0.0619
  180MOL0     C24746  11.235   3.240  10.923 -0.1560  0.3791  0.8813
  180MOL0    Cl24747  11.366   3.344  10.871 -0.1683  0.3528  0.0562
  180MOL0     C24748  10.387   2.656  10.827  0.7044  0.2838 -0.2542
  180MOL0     C24749  10.256   2.621  10.793  0.2592 -0.3875 -0.8518
  180MOL0     O24750  10.013   2.430  10.915 -0.1676  0.0185 -0.0272
  180MOL0     C24751   9.753   2.588  10.708  0.6634  0.0061  0.1950
  180MOL0     C24752   9.608   2.592  10.689  0.0152 -0.1835 -0.7462
  180MOL0     N24753   9.685   2.800  11.064  0.0010 -0.2978  0.6182
  180MOL0     N24754   9.757   2.753  11.154  0.4857  0.6382  0.1193
  180MOL0     C24755   9.672   1.592  11.291 -0.5253  0.0280  0.3579
  180MOL0     C24756   9.690   1.451  11.272  0.3188 -0.0653  0.5710
  180MOL0     C24757   9.760   1.063  11.163  0.5567 -0.4527  0.5543
  180MOL0     C24758   9.675   1.011  11.066  0.7208  0.3481 -1.3696
  180MOL0     C24759   9.610   0.886  11.090  0.0611 -0.6973 -0.9782
  180MOL0     C24760   9.657   0.807  11.197 -0.8055 -0.1167  0.3708
  180MOL0     O24761   9.609   0.688  11.231 -0.1779  0.8329 -0.0652
  180MOL0     C24762   9.472   0.675  11.215 -0.5123 -0.2051  0.5515
  180MOL0     C24763   9.448   0.533  11.252 -0.4928 -0.3727 -0.2653
  180MOL0     C24764   9.454   0.508  11.412  0.1298 -0.2721  0.0587
  180MOL0     C24765   9.371   0.386  11.436 -0.7513  0.4928 -0.0383
  180MOL0     C24766   9.457   0.266  11.415 -0.0992  0.0175 -0.3451
  180MOL0     C24767   9.502   0.155  11.416 -0.0443  0.4075 -0.3594
  180MOL0     C24768   9.749   0.862  11.285  0.6482  0.4887  0.5047
  180MOL0     C24769   9.805   0.989  11.271 -0.1431 -0.0634  0.6917
  180MOL0     C24770   9.912   1.014  11.376 -0.2377  1.3739 -0.6113
  180MOL0     H24771  10.031   1.430  11.279  0.2453 -0.8318  1.7155
  180MOL0     H24772   9.999   1.664  11.350 -0.1551 -1.3561  2.3025
  180MOL0     H24773   9.923   1.876  11.467 -0.3028  1.7243  0.5087
  180MOL0     H24774   9.842   1.756  11.555  1.3429 -0.9897 -1.9264
  180MOL0     H24775   9.653   1.887  11.602  0.9967 -1.4510 -0.4620
  180MOL0     H24776   9.788   1.999  11.628  2.8302  2.4359 -4.0458
  180MOL0     H24777   9.632   2.003  11.379 -0.0532  0.8131 -0.0667
  180MOL0     H24778   9.590   2.102  11.513  0.3346 -0.3102  1.9325
  180MOL0     H24779   9.864   2.159  11.505 -0.8547 -0.4839  1.6121
  180MOL0     H24780   9.842   2.090  11.340 -3.9337  0.8984 -2.0812
  180MOL0     H24781   9.655   2.242  11.305  1.2578  0.7121 -2.4480
  180MOL0     H24782   9.815   2.328  11.313 -2.1182  5.3417  2.5778
  180MOL0     H24783   9.613   2.325  11.529 -1.9751 -0.0954 -2.8360
  180MOL0     H24784   9.787   2.401  11.524  1.3413  1.4797 -1.5340
  180MOL0     H24785   9.569   2.562  11.462  2.9733  5.6568 -0.4157
  180MOL0     H24786   9.580   2.462  11.313  1.0127  1.2906  0.2550
  180MOL0     H24787   9.789   2.648  11.429 -0.1311 -1.6289  1.3938
  180MOL0     H24788   9.808   2.532  11.292 -3.7559 -3.6588  0.2293
  180MOL0     H24789   9.466   2.686  11.286  0.4123 -0.4828  0.1250
  180MOL0     H24790   9.467   2.835  10.909  0.9590  0.3666  0.8886
  180MOL0     H24791   9.423   2.942  11.036  3.0109  0.7339  2.5952
  180MOL0     H24792   9.254   2.750  11.128  2.5429 -0.2780  0.6034
  180MOL0     H24793   9.226   2.810  10.957  1.2153  0.7557  0.3682
  180MOL0     H24794   9.379   2.572  11.034 -0.9962 -0.7729  0.8766
  180MOL0     H24795   9.206   2.574  11.003 -0.0385  1.1596  1.5693
  180MOL0     H24796   9.209   2.612  10.790 -0.2024  1.2459  1.7938
  180MOL0     H24797   9.336   2.726  10.788 -1.1738  0.8910  1.1927
  180MOL0     H24798   9.505   2.401  10.945 -1.5471  1.0399 -0.3708
  180MOL0     H24799   9.666   2.352  11.099  1.7404 -0.7878  0.4936
  180MOL0     H24800   9.823   2.432  11.077  0.3213 -0.3605 -0.9078
  180MOL0     H24801   9.785   2.265  11.000  1.7522  0.6420 -0.5472
  180MOL0     H24802  10.094   2.801  11.042  1.6426  0.3550  1.0987
  180MOL0     H24803  10.319   2.851  11.092  1.1350 -0.4483  0.6168
  180MOL0     H24804  10.542   2.953  11.055 -1.9535 -0.8160 -2.3554
  180MOL0     H24805  10.537   2.821  11.168 -1.5428  4.9042  1.1690
  180MOL0     H24806  10.747   2.781  11.188  0.6850  1.7408  0.8967
  180MOL0     H24807  10.784   2.780  11.014 -1.2951 -0.9551  0.0785
  180MOL0     H24808  10.746   3.036  11.170 -1.7826  1.1082 -1.1331
  180MOL0     H24809  10.796   3.026  11.009 -1.8688  0.5565  1.5595
  180MOL0     H24810  11.007   2.883  11.092 -0.0659 -0.1799  0.3461
  180MOL0     H24811  10.962   2.946  11.249  2.2043  0.4822  0.1567
  180MOL0     H24812  10.995   3.135  11.011 -1.5581 -1.0043  0.3223
  180MOL0     H24813  11.002   3.177  11.184  1.1225 -0.3874  0.7561
  180MOL0     H24814  11.214   2.993  11.067  1.6582  1.6714  0.6210
  180MOL0     H24815  11.213   3.092  11.224 -1.0874  1.7972  1.1609
  180MOL0     H24816  11.366   3.180  11.085  0.2395 -0.6291  2.2742
  180MOL0     H24817  11.220   3.288  11.120  2.5244 -0.0282  1.4640
  180MOL0     H24818  11.137   3.282  10.898  1.1005  2.5251 -0.7730
  180MOL0     H24819  11.233   3.153  10.856  1.3566  2.2737 -1.7826
  180MOL0     H24820  10.470   2.629  10.763  1.1941  0.0670  0.4610
  180MOL0     H24821  10.220   2.556  10.713 -6.0608  2.0716 -0.6052
  180MOL0     H24822   9.827   2.612  10.633  0.8906 -3.2475 -0.7522
  180MOL0     H24823   9.569   2.627  10.594 -1.5631 -3.1137 -1.2991
  180MOL0     H24824   9.581   1.647  11.268 -0.8986  0.0085  1.6868
  180MOL0     H24825   9.606   1.383  11.258 -1.1201  2.0420 -1.9923
  180MOL0     H24826   9.637   1.075  10.988  2.7946  2.8773 -0.4368
  180MOL0     H24827   9.541   0.850  11.015 -0.3990 -1.3195 -0.2687
  180MOL0     H24828   9.429   0.755  11.276  3.6151  1.1525  2.0164
  180MOL0     H24829   9.439   0.686  11.112  0.9779 -0.5516  0.0090
  180MOL0     H24830   9.513   0.471  11.189 -1.2599 -0.3221 -1.1378
  180MOL0     H24831   9.346   0.506  11.223 -1.5560  1.0879  1.8830
  180MOL0     H24832   9.558   0.507  11.448  0.1212  1.7163  0.2842
  180MOL0     H24833   9.409   0.592  11.466 -0.7813 -0.0362 -1.0528
  180MOL0     H24834   9.284   0.380  11.369  0.7689  1.5773 -2.2234
  180MOL0     H24835   9.335   0.371  11.539 -0.9509 -1.0127 -0.3005
  180MOL0     H24836   9.523   0.052  11.438 -2.5203 -0.4307 -1.5942
  180MOL0     H24837   9.767   0.807  11.377  1.0697 -0.3546 -0.0718
  180MOL0     H24838   9.912   1.105  11.435 -0.9043  0.9990 -0.0133
  180MOL0     H24839   9.904   0.931  11.447  1.5588  2.2320  0.6661
  180MOL0     H24840  10.012   1.007  11.332 -0.0375 -1.8802  0.0986
  181MOL0     O24841  10.393   2.592   0.509  0.5309  0.7616 -0.1705
  181MOL0     C24842  10.302   2.518   0.541 -0.7696 -0.4054 -0.2432
  181MOL0     O24843  10.273   2.392   0.504  0.1366 -0.0964  0.3076
  181MOL0     C24844  10.361   2.327   0.411 -0.3445 -1.3331  0.2771
  181MOL0     C24845  10.471   2.253   0.456  0.8052  0.0934 -0.3315
  181MOL0     C24846  10.550   2.185   0.365  0.1902 -0.1173  0.3096
  181MOL0     C24847  10.525   2.184   0.230 -0.5528 -0.1048 -0.2976
  181MOL0     O24848  10.620   2.120   0.160  0.6845  0.0794 -0.2031
  181MOL0     C24849  10.649   2.178   0.035  0.7317  0.1581  0.4276
  181MOL0     C24850  10.770   2.115  -0.040  0.0105  0.3575  0.1626
  181MOL0     C24851  10.731   2.078  -0.183 -0.4441 -0.1365  0.3970
  181MOL0     C24852  10.852   2.029  -0.270  0.4896 -0.2148 -0.7232
  181MOL0     C24853  10.829   2.035  -0.415 -0.6358 -0.2612 -0.0375
  181MOL0     C24854  10.952   1.990  -0.492 -0.4533 -0.7438  0.0936
  181MOL0     C24855  10.925   1.981  -0.648 -0.2005  0.3689  0.9425
  181MOL0     C24856  11.049   1.931  -0.726  0.3880 -0.4112 -0.4388
  181MOL0     N24857  11.109   1.807  -0.681  0.5694 -0.3717 -0.4839
  181MOL0     C24858  11.066   1.686  -0.707 -0.5087 -0.0861  1.1327
  181MOL0     C24859  11.167   1.606  -0.665 -0.7966  0.3837 -0.9888
  181MOL0     C24860  11.187   1.458  -0.671  0.4483  0.2503  0.8524
  181MOL0     C24861  11.229   1.415  -0.819 -0.6100  0.2643  0.5719
  181MOL0     C24862  11.231   1.264  -0.811 -0.2045 -0.5431 -0.2846
  181MOL0     C24863  11.320   1.219  -0.936 -0.1780  0.3251 -0.2530
  181MOL0     O24864  11.282   1.078  -0.957 -0.0909 -0.2841  0.2850
  181MOL0     C24865  11.190   1.039  -1.045  0.8108 -0.8177  0.0348
  181MOL0     C24866  11.207   0.908  -1.100  0.6155 -1.4074  1.1161
  181MOL0     C24867  11.137   0.854  -1.210  0.4457 -0.2405  0.4210
  181MOL0     C24868  11.184   0.723  -1.267 -0.2243  0.2912 -0.4771
  181MOL0     C24869  11.043   0.940  -1.270 -0.3692  0.7799  0.4586
  181MOL0     C24870  10.959   0.900  -1.386 -0.8142 -1.0194 -0.5258
  181MOL0     O24871  10.914   0.775  -1.383 -0.1521 -0.4057 -0.7873
  181MOL0     C24872  10.858   0.709  -1.485  0.1044 -0.6560 -0.6058
  181MOL0     C24873  10.720   0.724  -1.501 -0.0409 -1.3765 -0.5644
  181MOL0     C24874  10.656   0.680  -1.614  0.3647 -0.2187 -0.8154
  181MOL0     C24875  10.726   0.604  -1.712 -0.1284 -0.7326  0.3953
  181MOL0     O24876  10.674   0.558  -1.829  0.0153 -0.3096 -0.5820
  181MOL0     C24877  10.566   0.644  -1.883 -0.9783 -0.0666 -0.3295
  181MOL0     C24878  10.547   0.623  -2.024 -0.7106  0.3652  0.8925
  181MOL0     C24879  10.430   0.700  -2.093 -0.0522 -0.1636  0.9049
  181MOL0     C24880  10.291   0.669  -2.034  0.1938 -0.1152  0.6636
  181MOL0     C24881  10.166   0.704  -2.118 -0.9659  0.0061 -0.0171
  181MOL0     C24882  10.145   0.853  -2.149  0.2231  0.1457 -0.2471
  181MOL0     C24883  10.012   0.854  -2.219  0.7111  0.2170  0.3241
  181MOL0     C24884   9.978   0.995  -2.274  0.6206  0.2255  0.5484
  181MOL0    Cl24885   9.960   1.123  -2.144 -0.1767  0.5055 -0.0145
  181MOL0     C24886  10.857   0.566  -1.679 -0.4549 -0.3317 -0.2662
  181MOL0     C24887  10.919   0.622  -1.564 -0.6568  0.9408  0.1332
  181MOL0     O24888  10.932   0.979  -1.479  0.4927 -0.2705  0.4386
  181MOL0     C24889  11.034   1.067  -1.231  1.0662 -0.3536  0.3141
  181MOL0     C24890  11.104   1.120  -1.122  0.5325 -0.2757  0.1004
  181MOL0     N24891  11.263   1.686  -0.606 -0.5761 -0.2161  0.1910
  181MOL0     N24892  11.220   1.808  -0.616 -1.3908  0.9764 -0.2751
  181MOL0     C24893  10.411   2.248   0.181  0.0887  0.0884 -0.1835
  181MOL0     C24894  10.326   2.319   0.276  0.1856  0.1380 -1.0600
  181MOL0     C24895  10.199   2.568   0.634  0.1336 -0.2585  0.0669
  181MOL0     C24896  10.150   2.470   0.726 -0.8938  0.2510 -0.3146
  181MOL0     C24897  10.049   2.509   0.811  0.9002 -0.6557 -0.0599
  181MOL0     C24898   9.980   2.639   0.804 -0.0215  0.0970 -0.0070
  181MOL0     O24899   9.875   2.670   0.884 -0.2245 -0.0807  0.3739
  181MOL0     C24900   9.811   2.557   0.955  0.2472 -0.0218  0.4556
  181MOL0     C24901   9.727   2.472   0.865  1.7647  0.1749 -0.4350
  181MOL0     C24902   9.629   2.548   0.771 -0.9550  0.2328 -0.4947
  181MOL0     C24903   9.545   2.452   0.676 -0.3486  0.0675 -0.3737
  181MOL0     C24904   9.473   2.345   0.762 -0.1118 -0.0361  0.9153
  181MOL0     C24905   9.418   2.259   0.830 -0.1449  0.0772 -0.0284
  181MOL0     C24906  10.032   2.724   0.709  0.8085  0.5397  0.0561
  181MOL0     C24907  10.135   2.693   0.624  0.3448 -0.0598 -0.6067
  181MOL0     C24908  10.172   2.794   0.515 -0.3640 -0.4839  0.7327
  181MOL0     H24909  10.508   2.256   0.558 -1.9445 -1.7383  0.8320
  181MOL0     H24910  10.628   2.123   0.408  1.6130  0.7944 -0.8576
  181MOL0     H24911  10.677   2.284   0.043 -4.7909  1.9260  0.4614
  181MOL0     H24912  10.566   2.161  -0.035  2.8802 -1.8430 -1.8341
  181MOL0     H24913  10.855   2.185  -0.040 -0.6768  1.4487 -3.9172
  181MOL0     H24914  10.795   2.022   0.012  0.0922 -0.2374 -0.9049
  181MOL0     H24915  10.660   1.995  -0.183 -0.3028 -0.2582  0.9396
  181MOL0     H24916  10.689   2.163  -0.238  0.4259 -0.5160 -0.9211
  181MOL0     H24917  10.941   2.090  -0.249 -1.0786  2.3622 -1.1614
  181MOL0     H24918  10.866   1.922  -0.250 -0.5678 -0.1042  0.7830
  181MOL0     H24919  10.809   2.135  -0.453  2.2039 -0.1849 -1.6179
  181MOL0     H24920  10.743   1.970  -0.434 -0.7327  0.5114 -2.6400
  181MOL0     H24921  11.038   2.054  -0.470 -2.3423  1.2164  2.2663
  181MOL0     H24922  10.985   1.894  -0.452 -1.7421  0.1653  3.7250
  181MOL0     H24923  10.889   2.078  -0.685 -3.6421 -1.5337 -1.3053
  181MOL0     H24924  10.839   1.917  -0.670 -2.4203  3.4512 -0.0548
  181MOL0     H24925  11.018   1.914  -0.830 -2.4865  0.5934  0.1821
  181MOL0     H24926  11.123   2.012  -0.719  0.8589 -0.8269 -0.5851
  181MOL0     H24927  10.982   1.655  -0.767 -0.5339 -0.7038  1.4806
  181MOL0     H24928  11.099   1.408  -0.631  1.8943 -2.5165  0.8343
  181MOL0     H24929  11.272   1.421  -0.613  1.5234  1.4093  0.0796
  181MOL0     H24930  11.152   1.450  -0.889 -0.8908 -0.1734  0.6561
  181MOL0     H24931  11.325   1.454  -0.854  1.9115 -4.0561  2.0156
  181MOL0     H24932  11.290   1.224  -0.728  0.7038 -3.6598 -2.2464
  181MOL0     H24933  11.129   1.227  -0.808 -0.3546 -0.3495 -1.8463
  181MOL0     H24934  11.321   1.274  -1.030  1.7593  1.7800  0.5200
  181MOL0     H24935  11.427   1.223  -0.913 -0.1048 -1.1147 -0.2606
  181MOL0     H24936  11.279   0.850  -1.043  0.8528 -0.1680  2.1213
  181MOL0     H24937  11.287   0.707  -1.234 -0.3068 -0.5923 -0.6424
  181MOL0     H24938  11.205   0.726  -1.375  4.2664 -3.2902  0.0063
  181MOL0     H24939  11.116   0.642  -1.242 -0.9444  1.0900  0.2168
  181MOL0     H24940  10.671   0.781  -1.422  2.0747  0.0397 -0.2139
  181MOL0     H24941  10.553   0.701  -1.639 -0.1558 -1.3993  0.2340
  181MOL0     H24942  10.472   0.624  -1.831 -0.3026  0.2516  1.0653
  181MOL0     H24943  10.569   0.753  -1.877  0.2029 -0.0582 -0.8298
  181MOL0     H24944  10.643   0.636  -2.075  0.8889  1.6073  3.9650
  181MOL0     H24945  10.530   0.520  -2.055 -1.1155  1.4165 -2.9439
  181MOL0     H24946  10.433   0.691  -2.202  0.8985  1.6852  0.7466
  181MOL0     H24947  10.443   0.807  -2.076  0.1086 -0.1881  0.9335
  181MOL0     H24948  10.298   0.732  -1.944  0.8732  0.3191  0.3156
  181MOL0     H24949  10.283   0.567  -1.997 -0.6199  0.8039  3.2691
  181MOL0     H24950  10.177   0.660  -2.218  1.2377 -0.5394  0.4147
  181MOL0     H24951  10.081   0.660  -2.064  0.7872 -1.8185  1.4273
  181MOL0     H24952  10.232   0.893  -2.201  1.5156  0.6544  2.1626
  181MOL0     H24953  10.135   0.908  -2.055  0.2555  0.1695 -0.2575
  181MOL0     H24954   9.924   0.831  -2.157 -0.7321  2.3622 -0.8031
  181MOL0     H24955  10.021   0.778  -2.297 -0.3907  1.4443 -1.0425
  181MOL0     H24956   9.883   0.994  -2.328 -0.9807  3.2682  2.9815
  181MOL0     H24957  10.050   1.040  -2.344 -1.7963  0.6982 -1.8268
  181MOL0     H24958  10.896   0.485  -1.740 -0.0971 -0.4866  0.1626
  181MOL0     H24959  11.020   0.586  -1.545 -1.1534  0.0893  1.3003
  181MOL0     H24960  10.974   1.139  -1.285  0.5551 -0.7940  0.2912
  181MOL0     H24961  11.093   1.227  -1.113 -0.9649 -0.1014 -2.7757
  181MOL0     H24962  10.373   2.231   0.081 -2.7232 -0.9057  0.9767
  181MOL0     H24963  10.232   2.354   0.235 -0.4538 -1.1474 -0.7357
  181MOL0     H24964  10.195   2.372   0.736 -1.8622  0.0059  2.3192
  181MOL0     H24965  10.019   2.435   0.884  1.2855 -2.0421 -1.2783
  181MOL0     H24966   9.881   2.494   1.011 -0.8623 -1.9179 -0.1843
  181MOL0     H24967   9.748   2.596   1.035  0.4492 -0.2698  0.7402
  181MOL0     H24968   9.686   2.393   0.929  2.6411  2.1056  2.7623
  181MOL0     H24969   9.791   2.414   0.799 -1.0288 -1.2047 -2.1323
  181MOL0     H24970   9.561   2.607   0.834  0.0585 -2.4807  3.5190
  181MOL0     H24971   9.685   2.619   0.711  2.9474 -2.2714 -0.1955
  181MOL0     H24972   9.612   2.405   0.604 -0.2284  2.5201 -1.9895
  181MOL0     H24973   9.483   2.511   0.608 -0.6559 -0.5395 -0.6330
  181MOL0     H24974   9.367   2.187   0.889  1.4875  0.0559  1.4404
  181MOL0     H24975   9.969   2.812   0.699 -2.4787 -1.8873 -3.1682
  181MOL0     H24976  10.087   2.860   0.494  0.9529  1.9156  2.4196
  181MOL0     H24977  10.260   2.855   0.539 -0.2654 -1.8322  4.4048
  181MOL0     H24978  10.178   2.730   0.426  1.0313 -0.6096  0.8907
  182MOL0     O24979  11.161   0.449   5.205 -0.0252 -0.2968 -0.0998
  182MOL0     C24980  11.207   0.420   5.100  0.5006  0.2002 -0.6593
  182MOL0     O24981  11.235   0.292   5.060  0.6957  0.0009  0.2756
  182MOL0     C24982  11.220   0.187   5.150  0.3769 -0.2989 -1.1486
  182MOL0     C24983  11.092   0.146   5.190 -0.1593  0.9772  0.2958
  182MOL0     C24984  11.073   0.047   5.286 -0.2382 -0.2013  0.3220
  182MOL0     C24985  11.184  -0.011   5.348 -0.2854  0.0707  0.9873
  182MOL0     O24986  11.170  -0.114   5.441  0.1703 -0.1669 -0.4503
  182MOL0     C24987  11.042  -0.121   5.509  0.6133  0.8103  0.0341
  182MOL0     C24988  11.046  -0.238   5.613 -1.1756  0.3229  0.6596
  182MOL0     C24989  11.182  -0.246   5.692 -0.6385  0.0016 -0.0362
  182MOL0     C24990  11.194  -0.138   5.811  0.6574 -0.1996  0.4829
  182MOL0     C24991  11.322  -0.138   5.885  0.7028 -0.3885 -1.4997
  182MOL0     C24992  11.345  -0.279   5.949  0.1746 -0.7798  0.6784
  182MOL0     C24993  11.468  -0.272   6.039 -0.1372  0.3987  1.0444
  182MOL0     C24994  11.601  -0.272   5.960 -0.5355 -0.0272 -0.1619
  182MOL0     N24995  11.708  -0.304   6.050  0.1410  0.0968 -0.0695
  182MOL0     C24996  11.789  -0.223   6.124  0.2515  1.0667  0.3740
  182MOL0     C24997  11.869  -0.299   6.200 -0.4127  0.3006  1.1943
  182MOL0     C24998  11.995  -0.247   6.262  0.6547  0.8107  0.6698
  182MOL0     C24999  11.971  -0.163   6.386 -0.1183  0.4299  0.1869
  182MOL0     C25000  12.093  -0.074   6.424 -0.2356  0.5468  0.4477
  182MOL0     C25001  12.074   0.005   6.553  0.8796  1.0223 -0.2122
  182MOL0     O25002  12.072  -0.086   6.665  0.1729  0.3560  0.2160
  182MOL0     C25003  11.981  -0.091   6.764  0.5836 -0.8218  0.8137
  182MOL0     C25004  11.978  -0.205   6.838 -0.2647 -0.1112 -0.6096
  182MOL0     C25005  11.911  -0.215   6.963  0.2788 -0.8462  0.3523
  182MOL0     C25006  11.916  -0.351   7.027 -0.2969 -0.0378  0.0724
  182MOL0     C25007  11.845  -0.093   7.014  1.6266 -0.5956 -0.2538
  182MOL0     C25008  11.761  -0.089   7.139  0.4545  0.1937  0.6452
  182MOL0     O25009  11.716   0.032   7.188 -0.2181  0.5720  0.0421
  182MOL0     C25010  11.667   0.045   7.321 -0.0639 -0.0485  0.3658
  182MOL0     C25011  11.566   0.140   7.343  0.3584 -0.0380 -0.0266
  182MOL0     C25012  11.513   0.167   7.470  0.4773  0.1713  0.2585
  182MOL0     C25013  11.560   0.099   7.577 -0.5427  1.4679 -0.3763
  182MOL0     O25014  11.516   0.139   7.703 -0.3669 -0.1825 -0.4170
  182MOL0     C25015  11.571   0.262   7.755  0.0896  0.1620  0.2457
  182MOL0     C25016  11.480   0.302   7.873  0.8081 -0.8286 -0.3301
  182MOL0     C25017  11.541   0.419   7.947 -0.4856 -0.3473  0.5253
  182MOL0     C25018  11.435   0.493   8.027 -0.2402  0.6416 -0.4235
  182MOL0     C25019  11.507   0.593   8.105  0.2389 -0.6286  0.4709
  182MOL0     C25020  11.407   0.654   8.206  0.5827 -0.2038  0.4948
  182MOL0     C25021  11.364   0.555   8.318 -0.7077 -0.9297 -0.1136
  182MOL0     C25022  11.282   0.610   8.434  0.5255 -1.0838  0.3838
  182MOL0    Cl25023  11.285   0.480   8.557  0.3745  0.3202 -0.1663
  182MOL0     C25024  11.651  -0.004   7.559  0.7184 -0.3793  0.6363
  182MOL0     C25025  11.703  -0.034   7.429 -0.0049 -0.0314  0.3149
  182MOL0     O25026  11.721  -0.199   7.173 -0.5358 -0.3689 -0.0446
  182MOL0     C25027  11.849   0.026   6.939 -0.8651  0.3879  0.4317
  182MOL0     C25028  11.915   0.019   6.814 -0.7033 -0.6239  0.8236
  182MOL0     N25029  11.833  -0.426   6.181  0.4541 -0.5709 -0.8464
  182MOL0     N25030  11.732  -0.429   6.101 -0.4373  0.2422 -0.5821
  182MOL0     C25031  11.311   0.022   5.306 -0.3115  0.1297 -0.6980
  182MOL0     C25032  11.336   0.127   5.211  0.9048  0.4571 -0.4003
  182MOL0     C25033  11.223   0.524   4.995  0.5038 -0.7729 -1.4208
  182MOL0     C25034  11.348   0.512   4.934  0.2217 -0.1023  0.6581
  182MOL0     C25035  11.391   0.606   4.844 -0.7348  0.3874 -0.8583
  182MOL0     C25036  11.308   0.716   4.818  0.4977 -0.7721  0.5502
  182MOL0     O25037  11.337   0.816   4.721 -0.0555  0.3682  0.4730
  182MOL0     C25038  11.464   0.827   4.670 -0.0810 -0.3561 -0.5864
  182MOL0     C25039  11.551   0.903   4.778 -1.8088  0.7139 -0.7726
  182MOL0     C25040  11.487   1.039   4.826 -0.6029 -0.2019 -0.1546
  182MOL0     C25041  11.574   1.144   4.905  1.1700  0.3009  0.6859
  182MOL0     C25042  11.664   1.215   4.813  0.8747 -0.7105 -1.2574
  182MOL0     C25043  11.743   1.279   4.740 -0.2304  0.5930 -0.6841
  182MOL0     C25044  11.185   0.726   4.884  0.4225 -1.1732 -1.0293
  182MOL0     C25045  11.142   0.637   4.977 -0.0057 -0.6060 -0.5019
  182MOL0     C25046  11.003   0.668   5.050 -1.1302 -0.1959 -0.1966
  182MOL0     H25047  11.010   0.204   5.150 -0.3051  0.4857 -0.1436
  182MOL0     H25048  10.974   0.006   5.305 -0.5021  0.5206  0.5109
  182MOL0     H25049  10.959  -0.154   5.444  1.9417  0.0079 -1.3258
  182MOL0     H25050  11.019  -0.024   5.554 -2.4930  0.3277 -0.2807
  182MOL0     H25051  10.967  -0.242   5.688 -2.3966  0.1252 -0.6042
  182MOL0     H25052  11.044  -0.331   5.555 -0.9259  0.8748 -0.2480
  182MOL0     H25053  11.191  -0.345   5.739  2.3214  1.2982  2.4381
  182MOL0     H25054  11.266  -0.241   5.624  2.5115  3.0917  3.6273
  182MOL0     H25055  11.169  -0.044   5.762  1.3767 -0.2397  0.0375
  182MOL0     H25056  11.112  -0.154   5.882 -2.2827  1.6023 -2.2589
  182MOL0     H25057  11.314  -0.062   5.964 -0.3821 -0.5382 -1.4403
  182MOL0     H25058  11.401  -0.104   5.818  2.0593 -0.7477 -0.1286
  182MOL0     H25059  11.261  -0.291   6.019 -2.2734 -3.2769 -2.3507
  182MOL0     H25060  11.356  -0.366   5.884 -0.5769 -0.4501  0.0883
  182MOL0     H25061  11.466  -0.367   6.094 -4.3035  0.0564  0.6088
  182MOL0     H25062  11.478  -0.189   6.109  4.9463  0.0439  1.1243
  182MOL0     H25063  11.595  -0.352   5.887 -1.8041 -0.0237 -0.0856
  182MOL0     H25064  11.626  -0.176   5.915 -1.3700  1.5749  2.5048
  182MOL0     H25065  11.801  -0.115   6.117  0.2484  1.0779  0.5458
  182MOL0     H25066  12.044  -0.186   6.186 -0.9507  0.4992 -0.6883
  182MOL0     H25067  12.057  -0.330   6.297  0.8651  0.6097 -0.1693
  182MOL0     H25068  11.877  -0.108   6.377 -0.2501  0.2842  0.6297
  182MOL0     H25069  11.957  -0.232   6.470  3.0109  0.8506  1.1559
  182MOL0     H25070  12.177  -0.144   6.424  0.9855  1.9560  0.7681
  182MOL0     H25071  12.118  -0.008   6.341 -0.2988  0.2924  0.2224
  182MOL0     H25072  12.148   0.084   6.567  1.0462  0.7308  0.6518
  182MOL0     H25073  11.985   0.068   6.554 -0.4173 -0.6603  2.6215
  182MOL0     H25074  12.041  -0.291   6.816 -2.4020 -2.4618  1.6838
  182MOL0     H25075  12.015  -0.396   7.015 -1.1822 -1.3539 -3.5511
  182MOL0     H25076  11.839  -0.416   6.983 -5.2727  3.9406  1.8497
  182MOL0     H25077  11.891  -0.349   7.134 -2.8273 -0.7975 -0.4227
  182MOL0     H25078  11.545   0.199   7.254  1.2992 -0.5925 -0.6293
  182MOL0     H25079  11.450   0.255   7.481 -0.6952 -0.2115 -2.4596
  182MOL0     H25080  11.673   0.241   7.789  0.6043  1.2033 -0.6018
  182MOL0     H25081  11.576   0.340   7.678  2.5741 -1.1779 -1.0778
  182MOL0     H25082  11.387   0.338   7.830  0.1466 -0.5701  1.2287
  182MOL0     H25083  11.465   0.227   7.952 -0.6427 -0.4994 -0.2645
  182MOL0     H25084  11.586   0.497   7.884  1.0261  0.7950  2.8963
  182MOL0     H25085  11.622   0.377   8.007  1.1065 -0.5096 -1.6179
  182MOL0     H25086  11.370   0.427   8.084  0.8345 -0.2985 -0.2618
  182MOL0     H25087  11.371   0.543   7.953  0.1457 -0.6117 -1.6430
  182MOL0     H25088  11.602   0.563   8.151  3.1245  1.4904 -3.5058
  182MOL0     H25089  11.536   0.681   8.047 -0.5419  1.7254  3.3853
  182MOL0     H25090  11.318   0.691   8.154 -1.7993 -1.7722  3.1828
  182MOL0     H25091  11.450   0.743   8.252 -2.4540  1.9718 -0.5132
  182MOL0     H25092  11.449   0.517   8.374 -0.7927  0.7367  1.2403
  182MOL0     H25093  11.322   0.463   8.275  0.0072 -0.9713 -0.7277
  182MOL0     H25094  11.182   0.635   8.398  1.0196 -0.6786 -0.7464
  182MOL0     H25095  11.325   0.707   8.462 -2.0352  0.7779 -1.6330
  182MOL0     H25096  11.688  -0.065   7.641  1.0953 -0.9591  0.0485
  182MOL0     H25097  11.763  -0.122   7.407 -0.6354 -0.7182  1.2639
  182MOL0     H25098  11.803   0.114   6.983  0.2924  0.9201  0.6377
  182MOL0     H25099  11.899   0.103   6.748 -1.2528 -1.8957 -0.7388
  182MOL0     H25100  11.386  -0.033   5.362 -2.0639 -1.9099 -0.2368
  182MOL0     H25101  11.436   0.152   5.176  1.6761 -1.5019  0.2505
  182MOL0     H25102  11.407   0.421   4.945 -1.8832 -1.6265  0.0086
  182MOL0     H25103  11.491   0.587   4.807  0.2973  1.2790  1.3082
  182MOL0     H25104  11.507   0.737   4.625  0.6768 -0.3438  0.0921
  182MOL0     H25105  11.478   0.895   4.586  0.0126  1.7809  1.0518
  182MOL0     H25106  11.640   0.950   4.737 -0.8244  0.3989  0.8934
  182MOL0     H25107  11.571   0.840   4.865 -0.4678  0.3720 -1.3112
  182MOL0     H25108  11.454   1.093   4.736  0.2480  0.4872 -0.0639
  182MOL0     H25109  11.404   1.014   4.893 -2.0130 -1.6455 -2.3053
  182MOL0     H25110  11.623   1.107   4.996  2.0740  0.8421  0.4298
  182MOL0     H25111  11.501   1.214   4.946  0.2456  0.0027 -0.3792
  182MOL0     H25112  11.807   1.340   4.681  1.3319 -0.3854 -0.0702
  182MOL0     H25113  11.113   0.804   4.865  1.6316 -0.0367 -1.0612
  182MOL0     H25114  10.933   0.736   5.001 -0.3441  0.5134 -0.3569
  182MOL0     H25115  10.955   0.570   5.060  0.7395 -1.0401  1.0531
  182MOL0     H25116  11.005   0.706   5.152  0.6548  0.6302 -0.5168
  183MOL0     O25117   6.063   7.467  10.881 -0.0187  0.3133 -0.0427
  183MOL0     C25118   6.106   7.447  10.773 -0.0101 -0.1700  0.0723
  183MOL0     O25119   6.207   7.503  10.720 -0.5965 -0.9520 -0.0339
  183MOL0     C25120   6.283   7.588  10.802  0.6799 -0.5933 -0.6789
  183MOL0     C25121   6.295   7.726  10.785 -0.3092  0.5440 -0.6081
  183MOL0     C25122   6.376   7.802  10.872 -0.0712  0.5022  0.2983
  183MOL0     C25123   6.432   7.750  10.987 -0.5538 -0.0822  0.7154
  183MOL0     O25124   6.521   7.836  11.060  0.4007  0.1998  0.1261
  183MOL0     C25125   6.521   7.820  11.200  0.6345  0.2145 -0.7766
  183MOL0     C25126   6.598   7.937  11.258 -0.6794  0.1830 -0.6455
  183MOL0     C25127   6.505   8.054  11.257 -0.5920 -0.0200 -0.0093
  183MOL0     C25128   6.563   8.159  11.357 -0.4510  0.9413  0.0590
  183MOL0     C25129   6.461   8.267  11.391 -0.0036 -0.6281 -0.3629
  183MOL0     C25130   6.465   8.370  11.286 -0.0186 -0.0559  0.8689
  183MOL0     C25131   6.390   8.502  11.306  0.7706  0.1625 -0.3656
  183MOL0     C25132   6.437   8.593  11.420 -0.9359 -0.6671 -0.3109
  183MOL0     N25133   6.348   8.718  11.423  0.6178  0.8428 -0.1397
  183MOL0     C25134   6.234   8.743  11.492 -0.4663  0.5429  0.2599
  183MOL0     C25135   6.195   8.872  11.452 -0.1972  0.1909  0.3882
  183MOL0     C25136   6.078   8.958  11.506 -0.6008  0.4705  0.2296
  183MOL0     C25137   5.963   8.931  11.401 -0.3758 -0.4256  0.3293
  183MOL0     C25138   5.849   9.027  11.419 -0.1486  0.3244  0.3190
  183MOL0     C25139   5.822   9.087  11.554  0.2867 -0.3060 -0.1309
  183MOL0     O25140   5.688   9.138  11.556 -1.1372 -0.5266 -0.5455
  183MOL0     C25141   5.642   9.207  11.670 -0.7864 -0.3466 -0.8732
  183MOL0     C25142   5.727   9.251  11.777 -0.9222  0.3854  0.1918
  183MOL0     C25143   5.679   9.324  11.884 -0.7064 -0.7180  0.2318
  183MOL0     C25144   5.780   9.355  11.996  0.7590  0.9341  0.2198
  183MOL0     C25145   5.536   9.347  11.900 -0.0851  0.1535  1.1550
  183MOL0     C25146   5.478   9.424  12.010  1.3982  1.1688 -0.0108
  183MOL0     O25147   5.341   9.436  11.987  1.3779  0.3043  0.3600
  183MOL0     C25148   5.260   9.498  12.079  0.3839 -0.1555  0.2470
  183MOL0     C25149   5.145   9.430  12.130  0.6117  0.6394  1.3054
  183MOL0     C25150   5.053   9.493  12.221  0.2084 -1.1212 -0.0450
  183MOL0     C25151   5.094   9.619  12.274 -0.5488  0.2389 -0.1667
  183MOL0     O25152   5.031   9.670  12.384  0.5193  0.3723 -0.0626
  183MOL0     C25153   5.103   9.718  12.492 -0.0469 -0.5825 -0.2203
  183MOL0     C25154   5.002   9.724  12.603  0.3132 -0.9536  0.4941
  183MOL0     C25155   5.069   9.781  12.737 -0.5629  0.6912  0.0344
  183MOL0     C25156   4.981   9.836  12.856 -0.0504 -0.1325 -0.1360
  183MOL0     C25157   4.959   9.724  12.952 -0.0089 -0.8183  0.9271
  183MOL0     C25158   4.865   9.782  13.058 -0.5944 -0.2343  0.3210
  183MOL0     C25159   4.838   9.678  13.167 -0.4264 -0.0246 -0.5016
  183MOL0     C25160   4.711   9.713  13.240  0.3108  0.3446 -0.2515
  183MOL0    Cl25161   4.722   9.847  13.349  0.1276  0.3537  0.0659
  183MOL0     C25162   5.207   9.683  12.218 -0.8911 -0.6635  0.7657
  183MOL0     C25163   5.281   9.627  12.117 -0.2485  0.1979  0.4091
  183MOL0     O25164   5.534   9.470  12.113  0.3374 -0.0719 -1.2024
  183MOL0     C25165   5.454   9.294  11.792  0.6996 -0.3140  1.0887
  183MOL0     C25166   5.510   9.240  11.678 -0.1913  0.2839  0.2239
  183MOL0     N25167   6.278   8.926  11.368  0.0190  0.3978  1.4050
  183MOL0     N25168   6.368   8.833  11.355 -1.0373 -0.4990  0.4429
  183MOL0     C25169   6.431   7.609  11.013  1.1805  0.2671  0.3231
  183MOL0     C25170   6.352   7.538  10.919  0.0484  0.8601  0.1545
  183MOL0     C25171   6.067   7.312  10.716 -0.2719 -0.6571 -0.3738
  183MOL0     C25172   6.031   7.207  10.804 -0.0671 -0.0580 -0.0787
  183MOL0     C25173   5.993   7.078  10.754  0.2311  0.5981  0.2865
  183MOL0     C25174   5.991   7.059  10.611 -0.8192 -0.2100 -0.1609
  183MOL0     O25175   5.948   6.929  10.572 -0.0621 -0.5077  1.0110
  183MOL0     C25176   5.956   6.890  10.435 -0.6388 -0.6209  0.3256
  183MOL0     C25177   6.108   6.868  10.409  0.7558 -0.4949  0.5919
  183MOL0     C25178   6.171   6.786  10.520  0.9860  0.3185  0.4757
  183MOL0     C25179   6.295   6.708  10.483 -0.2654  1.0888 -0.0214
  183MOL0     C25180   6.394   6.680  10.599 -0.3651  0.3501  0.6340
  183MOL0     C25181   6.470   6.651  10.694 -0.0773 -0.0165 -0.4809
  183MOL0     C25182   6.021   7.159  10.520  0.4370  0.4549  0.4433
  183MOL0     C25183   6.063   7.285  10.578  0.4046  0.3990  0.3214
  183MOL0     C25184   6.107   7.379  10.477 -0.2475 -0.5750 -0.4255
  183MOL0     H25185   6.237   7.750  10.697 -0.0714  0.3173 -0.8285
  183MOL0     H25186   6.377   7.909  10.851 -3.5440  0.0370 -3.5420
  183MOL0     H25187   6.577   7.730  11.228 -2.1980 -1.3140  0.3292
  183MOL0     H25188   6.416   7.813  11.229 -0.0741 -0.4537 -3.2252
  183MOL0     H25189   6.619   7.916  11.363 -1.5659 -1.4635 -0.7689
  183MOL0     H25190   6.697   7.951  11.211  0.3588 -1.3533  0.9746
  183MOL0     H25191   6.497   8.109  11.162  2.0522  0.4133 -0.0482
  183MOL0     H25192   6.414   8.015  11.301  0.3341 -0.5343  1.5131
  183MOL0     H25193   6.595   8.107  11.448  2.9314  3.2469  0.3543
  183MOL0     H25194   6.654   8.200  11.312 -1.1254  1.8682 -0.4769
  183MOL0     H25195   6.480   8.313  11.489 -1.9182  1.6947 -0.9783
  183MOL0     H25196   6.358   8.230  11.402 -0.3843  0.1623 -1.1781
  183MOL0     H25197   6.573   8.383  11.270 -0.3801  0.8934 -1.0992
  183MOL0     H25198   6.432   8.313  11.199  4.4219 -2.8531  0.6997
  183MOL0     H25199   6.286   8.475  11.325 -0.0603  2.1019 -1.8322
  183MOL0     H25200   6.386   8.549  11.208 -0.0476 -0.7830 -0.7998
  183MOL0     H25201   6.442   8.534  11.512  2.6197 -0.8229 -0.4698
  183MOL0     H25202   6.538   8.630  11.402 -1.0723 -0.1609 -0.0349
  183MOL0     H25203   6.176   8.680  11.559  0.9472  0.6373  1.6193
  183MOL0     H25204   6.100   9.065  11.502 -1.9934  0.7436 -0.7256
  183MOL0     H25205   6.067   8.939  11.614  1.0070 -2.9299 -0.0853
  183MOL0     H25206   6.005   8.934  11.300 -0.0263 -0.6345  0.4666
  183MOL0     H25207   5.917   8.833  11.409  1.4377 -1.4518 -1.0933
  183MOL0     H25208   5.851   9.107  11.344  2.3865  2.8045  2.8086
  183MOL0     H25209   5.765   8.963  11.392  0.5299 -0.7707  0.7597
  183MOL0     H25210   5.827   8.999  11.620 -1.4028  0.1055  0.6175
  183MOL0     H25211   5.902   9.153  11.587 -0.0262 -0.0106  0.0475
  183MOL0     H25212   5.832   9.228  11.770 -0.7445  0.8519  1.1284
  183MOL0     H25213   5.743   9.306  12.086  1.7123  1.2518  0.7977
  183MOL0     H25214   5.794   9.461  12.017 -1.9475  1.6729 -1.2034
  183MOL0     H25215   5.873   9.303  11.972 -1.0435 -1.8676 -1.1899
  183MOL0     H25216   5.121   9.327  12.106  0.1331  0.8913  0.6526
  183MOL0     H25217   4.974   9.440  12.272 -0.2647  0.8675  1.4257
  183MOL0     H25218   5.187   9.653  12.517 -1.7491 -2.2522  1.5221
  183MOL0     H25219   5.131   9.823  12.481 -1.1007  0.0590  2.3932
  183MOL0     H25220   4.915   9.788  12.586 -0.4218 -0.9981  3.4229
  183MOL0     H25221   4.962   9.623  12.621 -3.8541  0.0932 -1.7655
  183MOL0     H25222   5.139   9.859  12.705  1.1521 -0.4676  0.7953
  183MOL0     H25223   5.134   9.698  12.767  1.9895  1.4880 -2.6767
  183MOL0     H25224   4.883   9.856  12.810 -1.5449 -3.9379  1.0138
  183MOL0     H25225   5.024   9.928  12.895  0.4133  0.0581 -1.0505
  183MOL0     H25226   4.905   9.639  12.910 -0.4802 -0.8991  1.6711
  183MOL0     H25227   5.054   9.684  12.990  1.9827  2.0348 -0.6441
  183MOL0     H25228   4.773   9.806  13.003 -0.0226 -1.2451 -1.1459
  183MOL0     H25229   4.898   9.880  13.095  0.2685  0.7024 -2.6364
  183MOL0     H25230   4.908   9.671  13.251 -1.3831  3.9699  0.8106
  183MOL0     H25231   4.813   9.580  13.123 -1.0174  0.4208 -1.1794
  183MOL0     H25232   4.699   9.623  13.301  1.9706 -1.3045 -2.2288
  183MOL0     H25233   4.619   9.720  13.181 -0.3823  2.9257  0.9874
  183MOL0     H25234   5.221   9.788  12.241  0.2637 -0.7721  0.6429
  183MOL0     H25235   5.363   9.685  12.077  0.4271  0.3338  1.9090
  183MOL0     H25236   5.346   9.310  11.792  0.9219  1.4721  0.2249
  183MOL0     H25237   5.449   9.207  11.595  0.4606  0.4786 -0.3378
  183MOL0     H25238   6.497   7.571  11.091 -0.0555 -1.0835  0.7508
  183MOL0     H25239   6.360   7.429  10.922 -1.2466  0.5886 -2.8460
  183MOL0     H25240   6.019   7.213  10.911  3.0609 -2.1747  0.5263
  183MOL0     H25241   5.962   7.001  10.824  0.7786  0.5102  0.4408
  183MOL0     H25242   5.895   6.799  10.431  1.5683 -2.2663  1.5119
  183MOL0     H25243   5.912   6.966  10.370  1.3550  0.2880 -0.0494
  183MOL0     H25244   6.159   6.963  10.386  0.6219 -0.5585  0.0050
  183MOL0     H25245   6.115   6.809  10.317 -0.2321  0.5766 -0.2199
  183MOL0     H25246   6.202   6.857  10.597 -3.7573  1.8804  1.3026
  183MOL0     H25247   6.111   6.704  10.561 -1.3538  1.9741  0.5686
  183MOL0     H25248   6.356   6.757  10.407  2.6709  0.9665  2.0974
  183MOL0     H25249   6.246   6.621  10.437  0.0915  1.7849 -1.8080
  183MOL0     H25250   6.537   6.611  10.768 -2.5311  0.8927  2.4782
  183MOL0     H25251   6.025   7.146  10.413  1.5565 -2.7164  0.7807
  183MOL0     H25252   6.074   7.482  10.495  1.8154  0.2000 -0.7669
  183MOL0     H25253   6.216   7.386  10.472 -0.2628  2.8351  1.2526
  183MOL0     H25254   6.073   7.346  10.378 -0.1526  1.0531 -1.0373
  184MOL0     O25255   2.149   3.753   7.899  0.4961  0.2265  0.2391
  184MOL0     C25256   2.246   3.792   7.835 -0.6060 -0.0095  0.1016
  184MOL0     O25257   2.274   3.752   7.707  0.1353 -0.0793 -0.7446
  184MOL0     C25258   2.178   3.669   7.646  0.6297 -0.7195  0.4520
  184MOL0     C25259   2.095   3.739   7.555  0.3379 -0.1548  0.6768
  184MOL0     C25260   2.003   3.660   7.475 -0.0763  0.5068 -0.3134
  184MOL0     C25261   1.998   3.522   7.495 -0.7043 -0.4335  0.2277
  184MOL0     O25262   1.908   3.448   7.416  0.5848  0.3355 -0.3212
  184MOL0     C25263   1.880   3.315   7.460  1.3922  0.3711 -0.6410
  184MOL0     C25264   1.768   3.253   7.383  0.6042  0.8377  0.0849
  184MOL0     C25265   1.632   3.275   7.454 -1.4272  1.0562  0.0779
  184MOL0     C25266   1.512   3.199   7.392 -0.4730  1.1262  0.6590
  184MOL0     C25267   1.498   3.249   7.240  0.2128  0.3445  0.4771
  184MOL0     C25268   1.373   3.231   7.153  0.3206 -0.3732 -0.0928
  184MOL0     C25269   1.299   3.101   7.191  0.5593 -0.0947  0.8556
  184MOL0     C25270   1.179   3.081   7.098 -0.4659  0.8954 -0.8534
  184MOL0     N25271   1.209   2.990   6.989 -0.3194  0.2669  0.3224
  184MOL0     C25272   1.248   2.860   7.010 -0.0564  0.6669  0.9727
  184MOL0     C25273   1.290   2.814   6.883 -0.5473 -0.6317 -0.1047
  184MOL0     C25274   1.333   2.671   6.859 -0.2827  0.0111  0.1378
  184MOL0     C25275   1.216   2.600   6.775  1.1420  0.4199  0.4440
  184MOL0     C25276   1.256   2.471   6.701  0.2512  0.0262 -1.3063
  184MOL0     C25277   1.142   2.407   6.621  0.0913  0.2163 -0.4220
  184MOL0     O25278   1.054   2.322   6.695 -1.0672 -0.2723 -0.1059
  184MOL0     C25279   1.033   2.194   6.650  0.4723  1.1398 -0.7597
  184MOL0     C25280   1.131   2.099   6.650 -0.4149  0.1600  0.4715
  184MOL0     C25281   1.117   1.962   6.617  0.8751  0.2301  0.1896
  184MOL0     C25282   1.232   1.867   6.625  1.4082  0.1639  0.0087
  184MOL0     C25283   0.991   1.926   6.579  0.9330 -0.2728  0.6389
  184MOL0     C25284   0.956   1.784   6.544  0.3516  0.0945  0.4030
  184MOL0     O25285   0.923   1.699   6.640 -0.4446 -0.7081  0.1303
  184MOL0     C25286   0.853   1.587   6.622  0.0158  0.6531  0.0992
  184MOL0     C25287   0.862   1.497   6.735  0.7006  0.4209 -0.0666
  184MOL0     C25288   0.807   1.370   6.725 -0.1016 -0.7306 -0.9388
  184MOL0     C25289   0.734   1.327   6.615  0.2394 -0.7840  0.6424
  184MOL0     O25290   0.679   1.204   6.611 -0.2008  0.2872 -0.3282
  184MOL0     C25291   0.716   1.098   6.701 -0.2439  0.4550 -0.2683
  184MOL0     C25292   0.608   0.981   6.696 -0.1540  0.1178 -0.2732
  184MOL0     C25293   0.596   0.918   6.557  0.0689 -0.2500  0.5685
  184MOL0     C25294   0.469   0.842   6.547  0.7016  0.5458 -0.2872
  184MOL0     C25295   0.440   0.795   6.403 -0.2650  0.6961 -0.5138
  184MOL0     C25296   0.284   0.787   6.387 -0.4156  0.0596 -0.5964
  184MOL0     C25297   0.219   0.658   6.432  0.3139  0.4035 -0.3913
  184MOL0     C25298   0.067   0.658   6.453 -0.5860 -0.5655  1.0026
  184MOL0    Cl25299  -0.006   0.749   6.317  0.3341 -0.4231  0.2146
  184MOL0     C25300   0.724   1.414   6.502  0.3077 -0.4231  0.6207
  184MOL0     C25301   0.775   1.544   6.511 -0.5008  0.6466 -0.5100
  184MOL0     O25302   0.955   1.762   6.426 -0.0270  0.1492  0.7877
  184MOL0     C25303   0.888   2.021   6.575 -0.1552  0.3701  0.4025
  184MOL0     C25304   0.908   2.154   6.607 -0.2344 -0.5671  0.1300
  184MOL0     N25305   1.277   2.913   6.790  0.1397  0.4620  1.0850
  184MOL0     N25306   1.231   3.021   6.860 -0.5041 -0.6237  0.3611
  184MOL0     C25307   2.082   3.463   7.596  0.2079  0.2848  1.3964
  184MOL0     C25308   2.172   3.531   7.673 -0.4113  0.0317 -0.4231
  184MOL0     C25309   2.346   3.884   7.900  0.2188  0.3932 -0.1976
  184MOL0     C25310   2.306   3.982   7.985 -0.3955 -0.3464 -0.4500
  184MOL0     C25311   2.395   4.073   8.043 -0.6462  0.6902  0.2649
  184MOL0     C25312   2.528   4.045   8.046  0.3966  0.3052  0.5570
  184MOL0     O25313   2.619   4.120   8.113 -0.1641 -0.0545  0.0054
  184MOL0     C25314   2.691   4.040   8.202 -0.4762 -0.0587  0.7425
  184MOL0     C25315   2.749   4.133   8.313 -0.4934 -0.2977 -0.1894
  184MOL0     C25316   2.637   4.163   8.420  0.0085  0.3249 -0.6728
  184MOL0     C25317   2.687   4.176   8.565 -1.2635 -0.6118  0.2179
  184MOL0     C25318   2.715   4.048   8.617  0.3194 -0.1956 -1.3774
  184MOL0     C25319   2.741   3.933   8.657  0.4592  0.2646 -0.1741
  184MOL0     C25320   2.572   3.940   7.968 -0.2364  0.6913 -0.5896
  184MOL0     C25321   2.486   3.859   7.894  0.5649  0.6288  0.0447
  184MOL0     C25322   2.545   3.749   7.806 -0.5367 -0.3870 -0.4963
  184MOL0     H25323   2.105   3.847   7.552  0.7432 -0.2123 -2.3263
  184MOL0     H25324   1.931   3.699   7.404 -2.8550 -2.7434  0.4172
  184MOL0     H25325   1.857   3.314   7.567 -2.9986 -1.0458 -1.4167
  184MOL0     H25326   1.965   3.255   7.426 -1.1915 -2.6736 -2.1765
  184MOL0     H25327   1.764   3.295   7.282 -1.8498  1.7502  0.4917
  184MOL0     H25328   1.791   3.147   7.372  0.1967  0.9562 -2.4920
  184MOL0     H25329   1.650   3.234   7.554 -2.2695  0.1568 -0.1230
  184MOL0     H25330   1.613   3.383   7.459  0.3954  1.3312  2.1116
  184MOL0     H25331   1.526   3.090   7.394 -0.3320  1.1150 -0.3389
  184MOL0     H25332   1.422   3.211   7.453  0.0712  0.7892  1.5503
  184MOL0     H25333   1.573   3.187   7.191 -2.6424 -4.3981  1.4182
  184MOL0     H25334   1.515   3.356   7.250  3.5392 -0.0927  0.6467
  184MOL0     H25335   1.306   3.316   7.167 -0.8194 -0.6674 -3.0427
  184MOL0     H25336   1.396   3.240   7.047 -1.1114 -0.2306 -0.4059
  184MOL0     H25337   1.259   3.117   7.291 -3.7877 -0.7930 -0.5914
  184MOL0     H25338   1.361   3.010   7.187 -2.8203 -2.6380 -3.9521
  184MOL0     H25339   1.099   3.027   7.148  0.0308 -0.3384 -1.3563
  184MOL0     H25340   1.144   3.176   7.055 -2.5890  0.4776 -0.1447
  184MOL0     H25341   1.267   2.812   7.105  4.1721 -0.9745 -0.4563
  184MOL0     H25342   1.355   2.621   6.954 -1.3767 -0.4589  0.1634
  184MOL0     H25343   1.426   2.667   6.802 -1.4457  1.0883 -1.9671
  184MOL0     H25344   1.126   2.586   6.836  1.4093  0.5255  0.8680
  184MOL0     H25345   1.174   2.662   6.694 -2.0461 -1.1625  0.7445
  184MOL0     H25346   1.330   2.505   6.628  1.7962 -0.4738 -0.0429
  184MOL0     H25347   1.308   2.401   6.766  2.6799  3.2033  0.4711
  184MOL0     H25348   1.073   2.477   6.575 -3.0603 -1.5273  1.3212
  184MOL0     H25349   1.194   2.355   6.540 -0.6392 -0.2160 -0.6231
  184MOL0     H25350   1.229   2.121   6.692 -0.4716 -0.7471  1.0935
  184MOL0     H25351   1.288   1.907   6.711 -1.2621  3.3963  0.4369
  184MOL0     H25352   1.284   1.871   6.529 -1.9242 -0.2053 -1.9704
  184MOL0     H25353   1.206   1.762   6.643 -0.0108  0.7367  1.5437
  184MOL0     H25354   0.915   1.523   6.826 -0.4964  3.0221 -0.0224
  184MOL0     H25355   0.804   1.310   6.815  1.2564 -1.2135 -1.2022
  184MOL0     H25356   0.818   1.059   6.687  0.3230  2.1825 -1.2993
  184MOL0     H25357   0.715   1.143   6.800  0.2242  3.4713 -1.5233
  184MOL0     H25358   0.649   0.904   6.762 -1.6431  0.9945  1.7744
  184MOL0     H25359   0.520   1.025   6.743  1.2284 -0.7451  3.4351
  184MOL0     H25360   0.686   0.864   6.527 -0.8035 -0.4726 -1.9046
  184MOL0     H25361   0.582   0.998   6.483 -1.0280 -0.5670  0.4230
  184MOL0     H25362   0.389   0.896   6.599 -0.0318 -1.7423  1.1160
  184MOL0     H25363   0.481   0.755   6.612  0.3136  0.5820 -0.1641
  184MOL0     H25364   0.496   0.846   6.325  3.8725 -1.3668  0.7864
  184MOL0     H25365   0.470   0.689   6.401 -2.0436  0.1579 -1.3353
  184MOL0     H25366   0.259   0.803   6.281 -2.2406  1.0812 -0.0622
  184MOL0     H25367   0.235   0.862   6.449 -1.4919  0.2987 -1.6915
  184MOL0     H25368   0.259   0.635   6.531 -0.0945  0.3364 -0.2391
  184MOL0     H25369   0.254   0.583   6.361 -1.0727  0.7586 -1.4928
  184MOL0     H25370   0.033   0.715   6.539 -2.3545  0.3589 -0.2514
  184MOL0     H25371   0.032   0.554   6.459 -0.0559 -0.8161  0.0550
  184MOL0     H25372   0.675   1.378   6.413 -0.5851 -0.0073  0.9360
  184MOL0     H25373   0.761   1.611   6.427  1.2411  1.1569 -0.4483
  184MOL0     H25374   0.792   1.992   6.533  1.5796 -3.4094 -1.3864
  184MOL0     H25375   0.820   2.217   6.615 -0.1507 -0.4891  0.4449
  184MOL0     H25376   2.091   3.357   7.616 -2.9223 -0.1901  0.8329
  184MOL0     H25377   2.246   3.507   7.749 -0.0766  1.0097 -0.4226
  184MOL0     H25378   2.200   3.979   8.008 -0.3843  0.6619 -0.2165
  184MOL0     H25379   2.377   4.169   8.090 -0.6554  0.0158  1.6869
  184MOL0     H25380   2.639   3.950   8.235  0.9211 -0.5824  1.5412
  184MOL0     H25381   2.778   3.996   8.153 -1.4461 -0.0736 -1.0503
  184MOL0     H25382   2.777   4.228   8.267 -5.5364  2.5023  1.7418
  184MOL0     H25383   2.833   4.085   8.364 -0.5112 -1.8161 -1.4899
  184MOL0     H25384   2.593   4.260   8.398 -1.1221  0.2864  1.1946
  184MOL0     H25385   2.560   4.085   8.415  1.4110 -1.0521 -2.3575
  184MOL0     H25386   2.623   4.231   8.634  0.4473  3.4503 -1.1256
  184MOL0     H25387   2.777   4.239   8.561 -0.3728 -1.8519  0.2774
  184MOL0     H25388   2.749   3.833   8.694  1.1041  0.0134 -0.9793
  184MOL0     H25389   2.678   3.920   7.959 -0.2273  0.2193  0.3915
  184MOL0     H25390   2.495   3.657   7.834  1.7770 -1.2082  1.2807
  184MOL0     H25391   2.545   3.784   7.702 -0.3121  0.1915 -0.3115
  184MOL0     H25392   2.647   3.721   7.834 -0.7195 -1.5748 -0.9756
  185MOL0     O25393   6.220   8.221   9.625  0.1866 -0.3690  0.1712
  185MOL0     C25394   6.158   8.297   9.701  0.4891 -0.8707 -0.1071
  185MOL0     O25395   6.111   8.271   9.822  0.8553  0.0788 -0.1915
  185MOL0     C25396   6.119   8.153   9.883 -0.6951  0.7601  0.2859
  185MOL0     C25397   6.097   8.158  10.020 -0.3415  0.6253  0.0957
  185MOL0     C25398   6.112   8.046  10.096 -0.0263 -0.3693  0.0460
  185MOL0     C25399   6.135   7.917  10.044 -0.7891 -0.5115 -0.8729
  185MOL0     O25400   6.139   7.805  10.123 -0.1700 -0.5105  0.7401
  185MOL0     C25401   6.231   7.824  10.233 -0.4772 -0.2878  0.0588
  185MOL0     C25402   6.326   7.700  10.236 -0.8073  0.0551 -1.0434
  185MOL0     C25403   6.437   7.708  10.334 -0.1881  0.3122 -0.0242
  185MOL0     C25404   6.529   7.583  10.328 -0.1020  1.0674  0.6041
  185MOL0     C25405   6.621   7.589  10.445  0.2424 -0.7327 -0.0777
  185MOL0     C25406   6.715   7.466  10.458  0.7445  0.5662  0.1439
  185MOL0     C25407   6.638   7.340  10.511  0.0182 -0.7616  0.4737
  185MOL0     C25408   6.522   7.362  10.604 -0.1906  0.0539  0.0778
  185MOL0     N25409   6.479   7.234  10.652  0.1281  0.2790 -0.5185
  185MOL0     C25410   6.485   7.194  10.780  0.7342 -1.0449  0.5624
  185MOL0     C25411   6.423   7.078  10.783  0.2485  0.0959 -1.4730
  185MOL0     C25412   6.400   6.979  10.899  0.1645  0.3357  0.1165
  185MOL0     C25413   6.342   7.038  11.030  0.0826 -0.3224  0.3811
  185MOL0     C25414   6.348   6.938  11.147  0.7188 -0.7822 -0.7439
  185MOL0     C25415   6.292   6.979  11.280 -1.0647 -0.2969  0.6473
  185MOL0     O25416   6.284   6.868  11.374 -0.2753  0.8371  0.4392
  185MOL0     C25417   6.245   6.895  11.497 -0.2157 -0.0577 -0.6084
  185MOL0     C25418   6.267   6.782  11.579  0.4091  0.0582 -0.1024
  185MOL0     C25419   6.237   6.784  11.718 -0.2445 -0.2499  0.4236
  185MOL0     C25420   6.261   6.653  11.788  0.5336 -0.1100  0.3171
  185MOL0     C25421   6.188   6.903  11.779  0.4174  0.2566  0.7672
  185MOL0     C25422   6.145   6.912  11.916  0.1486 -0.3477  0.0648
  185MOL0     O25423   6.031   6.976  11.949  0.4449  0.5417  0.8586
  185MOL0     C25424   5.967   6.942  12.064 -0.5649 -0.1401  0.2617
  185MOL0     C25425   5.866   7.036  12.096 -0.6026 -0.0278  0.0540
  185MOL0     C25426   5.795   7.011  12.214 -0.4815  0.4564  0.7645
  185MOL0     C25427   5.814   6.910  12.306  0.9913  0.8377  0.7199
  185MOL0     O25428   5.753   6.905  12.427  0.5584 -0.4937  0.9202
  185MOL0     C25429   5.651   7.000  12.465 -1.1109 -0.5574 -0.8080
  185MOL0     C25430   5.601   6.977  12.612  0.1046  0.6290 -0.4986
  185MOL0     C25431   5.494   7.075  12.652  0.0442  0.6611  0.6857
  185MOL0     C25432   5.355   7.025  12.619 -0.1551 -0.6280  0.2854
  185MOL0     C25433   5.241   7.119  12.661  0.9733  0.9315 -0.5304
  185MOL0     C25434   5.230   7.111  12.819  1.1201 -1.1644 -0.7876
  185MOL0     C25435   5.091   7.168  12.874  0.2880 -0.8490  0.3137
  185MOL0     C25436   5.118   7.258  13.000 -0.0917  0.6738 -0.3006
  185MOL0    Cl25437   4.980   7.211  13.118 -0.3122  0.1844 -0.3189
  185MOL0     C25438   5.915   6.817  12.264 -0.1085  0.3152 -0.0134
  185MOL0     C25439   5.988   6.822  12.140  0.9383 -0.6472  0.4440
  185MOL0     O25440   6.232   6.888  11.998 -0.5805  0.4151  0.2373
  185MOL0     C25441   6.168   7.016  11.696 -0.4371  0.2999 -0.7620
  185MOL0     C25442   6.208   7.019  11.562  0.7384  0.1006 -0.0739
  185MOL0     N25443   6.369   7.049  10.662 -0.1067 -0.2775  0.2586
  185MOL0     N25444   6.415   7.143  10.579  0.2992  0.1378 -0.1200
  185MOL0     C25445   6.147   7.903   9.902 -0.4450 -0.2610  0.1181
  185MOL0     C25446   6.144   8.026   9.829  0.4110 -0.9631 -0.3911
  185MOL0     C25447   6.134   8.438   9.657 -0.3716 -0.5081 -0.1392
  185MOL0     C25448   6.093   8.459   9.524 -0.2195  0.1391  0.0275
  185MOL0     C25449   6.034   8.574   9.483  0.7660  1.2520 -0.5760
  185MOL0     C25450   6.014   8.678   9.566 -0.2258  0.3822  0.4466
  185MOL0     O25451   5.949   8.787   9.499  0.2954 -0.5415  0.5079
  185MOL0     C25452   5.966   8.910   9.568 -0.3604 -0.0623 -0.0645
  185MOL0     C25453   5.911   9.026   9.483 -0.5961 -1.0357 -0.3648
  185MOL0     C25454   5.759   9.029   9.485  0.6923 -0.0524  0.6113
  185MOL0     C25455   5.704   9.118   9.367 -0.6447 -0.3103 -0.2528
  185MOL0     C25456   5.558   9.141   9.377 -0.0935 -0.0071 -0.6246
  185MOL0     C25457   5.444   9.173   9.376  0.0556 -0.3166  0.0516
  185MOL0     C25458   6.055   8.666   9.697  0.1683 -0.7764 -0.0069
  185MOL0     C25459   6.123   8.554   9.738 -0.0391  0.1393  0.4732
  185MOL0     C25460   6.169   8.563   9.880 -0.9533  0.6177  0.3553
  185MOL0     H25461   6.091   8.253  10.072 -1.6447  0.8660 -0.4726
  185MOL0     H25462   6.097   8.050  10.203 -0.6776  0.0028 -0.0530
  185MOL0     H25463   6.175   7.810  10.326 -2.1719 -1.4968 -1.0749
  185MOL0     H25464   6.287   7.917  10.245 -0.6593 -0.5566  5.5482
  185MOL0     H25465   6.272   7.607  10.254  1.1464 -1.3918 -2.2667
  185MOL0     H25466   6.354   7.695  10.131  0.9754  1.8074 -0.7172
  185MOL0     H25467   6.495   7.800  10.324 -4.1144  3.2383  1.4844
  185MOL0     H25468   6.392   7.698  10.433 -1.1610  0.1035 -0.4709
  185MOL0     H25469   6.477   7.487  10.332  0.8802  0.4592 -0.4800
  185MOL0     H25470   6.595   7.587  10.241 -0.5700  0.4702  0.2101
  185MOL0     H25471   6.556   7.595  10.533  0.0503  0.6248 -0.2921
  185MOL0     H25472   6.687   7.676  10.443 -0.3860 -0.2138  0.9516
  185MOL0     H25473   6.753   7.446  10.357  0.7227  3.5666 -0.5795
  185MOL0     H25474   6.802   7.496  10.517  1.6174  2.7892 -2.0640
  185MOL0     H25475   6.701   7.259  10.550  1.1037 -0.5031 -0.7049
  185MOL0     H25476   6.594   7.300  10.419  2.5008  2.1837 -2.2233
  185MOL0     H25477   6.556   7.426  10.686  1.8911  1.2321 -1.5917
  185MOL0     H25478   6.442   7.416  10.554  0.0107  0.3911  0.1213
  185MOL0     H25479   6.542   7.251  10.854 -1.0461  0.8021  0.5900
  185MOL0     H25480   6.491   6.925  10.923  0.1795  0.7464  1.0223
  185MOL0     H25481   6.324   6.910  10.861  0.5963  0.2547 -0.6153
  185MOL0     H25482   6.403   7.127  11.046 -0.5363 -0.1519  1.9509
  185MOL0     H25483   6.237   7.058  11.004 -0.3467  3.2721  3.9597
  185MOL0     H25484   6.302   6.844  11.117  0.0577 -0.4350 -0.8287
  185MOL0     H25485   6.453   6.910  11.164  0.3238 -1.7966  0.0843
  185MOL0     H25486   6.352   7.060  11.322 -1.4990 -0.7445  2.1815
  185MOL0     H25487   6.188   7.011  11.263 -0.9843 -0.4223 -0.1185
  185MOL0     H25488   6.307   6.697  11.526 -1.0046 -0.6047 -0.1651
  185MOL0     H25489   6.234   6.559  11.740  0.6871 -0.5856  1.1557
  185MOL0     H25490   6.192   6.649  11.873 -0.9880 -4.2902 -0.8568
  185MOL0     H25491   6.365   6.655  11.821  0.6478  2.3066 -0.0043
  185MOL0     H25492   5.843   7.121  12.033  2.7922  1.8759  1.1657
  185MOL0     H25493   5.714   7.079  12.238 -1.1571 -0.5966  1.5511
  185MOL0     H25494   5.676   7.105  12.447 -3.7018 -0.1600 -2.4864
  185MOL0     H25495   5.569   6.963  12.404  0.2001 -2.2735 -1.6071
  185MOL0     H25496   5.570   6.872  12.623 -1.4288  1.2626  1.7158
  185MOL0     H25497   5.684   6.993  12.681  2.4330 -2.5704 -2.2415
  185MOL0     H25498   5.504   7.169  12.597  0.2725 -0.7962 -1.9609
  185MOL0     H25499   5.511   7.094  12.758  0.4922  0.3463  0.6750
  185MOL0     H25500   5.344   6.928  12.669 -1.8640  1.3297  4.1409
  185MOL0     H25501   5.351   7.025  12.510 -1.1963 -1.4715  0.3073
  185MOL0     H25502   5.262   7.223  12.635  1.0310  0.7510 -1.2042
  185MOL0     H25503   5.149   7.084  12.612  2.7530 -2.0565 -2.0356
  185MOL0     H25504   5.315   7.161  12.866 -1.5876  1.5569  1.6008
  185MOL0     H25505   5.220   7.008  12.854  0.7986  0.5300  5.1085
  185MOL0     H25506   5.016   7.090  12.894 -0.8869  0.8367  3.1323
  185MOL0     H25507   5.048   7.229  12.794  0.6281 -1.0077  0.0125
  185MOL0     H25508   5.120   7.367  12.984 -2.0516  0.9233  0.8847
  185MOL0     H25509   5.209   7.230  13.055 -2.3120 -2.4744  2.1063
  185MOL0     H25510   5.925   6.735  12.335 -0.8626  0.2634  0.0330
  185MOL0     H25511   6.029   6.726  12.110 -1.2074 -1.7827  0.9875
  185MOL0     H25512   6.121   7.104  11.738 -0.7416 -1.0318  1.9046
  185MOL0     H25513   6.183   7.116  11.520 -4.2007 -0.3433  1.1799
  185MOL0     H25514   6.183   7.817   9.845  0.3481  2.4205 -3.8620
  185MOL0     H25515   6.172   8.012   9.725 -0.0061  0.6394 -0.7366
  185MOL0     H25516   6.102   8.377   9.453 -2.2497 -0.0540 -0.0864
  185MOL0     H25517   6.003   8.584   9.380  0.3554  1.2526 -0.4528
  185MOL0     H25518   5.917   8.913   9.666  2.4146 -0.1560  1.4494
  185MOL0     H25519   6.071   8.933   9.589 -0.9625  1.4761  1.5005
  185MOL0     H25520   5.955   9.024   9.383  3.7962 -3.3370  1.3548
  185MOL0     H25521   5.941   9.121   9.529  0.3330  0.5972 -3.9815
  185MOL0     H25522   5.706   8.933   9.485  1.8369 -0.7051  0.3407
  185MOL0     H25523   5.711   9.065   9.576 -2.0031 -0.8350 -0.3965
  185MOL0     H25524   5.722   9.054   9.280  0.9656  0.6003 -0.6184
  185MOL0     H25525   5.763   9.207   9.345 -1.5716 -0.1116 -2.2124
  185MOL0     H25526   5.338   9.189   9.384  0.1672  0.7150 -0.4645
  185MOL0     H25527   6.049   8.752   9.763  1.0118 -2.0869  1.8446
  185MOL0     H25528   6.231   8.480   9.913 -1.5448 -0.6413 -1.5316
  185MOL0     H25529   6.238   8.647   9.885 -1.9264  1.6589 -2.0309
  185MOL0     H25530   6.080   8.576   9.943 -2.2545 -1.8377 -0.8219
  186MOL0     O25531   2.174   6.505   6.433 -0.0114  0.2378 -0.3395
  186MOL0     C25532   2.084   6.425   6.405  0.7152 -0.6125 -0.1449
  186MOL0     O25533   2.102   6.309   6.330 -0.2595  0.0628  0.3318
  186MOL0     C25534   2.216   6.272   6.271 -0.8429  0.4291 -1.1282
  186MOL0     C25535   2.213   6.188   6.167 -0.1517  0.1360  0.2140
  186MOL0     C25536   2.334   6.141   6.101  0.3945  0.3674  0.2103
  186MOL0     C25537   2.453   6.156   6.171  0.6138 -0.9707  0.1807
  186MOL0     O25538   2.574   6.107   6.141 -0.4776 -0.6901  0.8007
  186MOL0     C25539   2.606   6.099   6.000 -0.1436  0.3393 -0.1578
  186MOL0     C25540   2.747   6.052   5.994 -0.4238  0.2450 -0.3812
  186MOL0     C25541   2.789   6.019   5.849 -0.0834 -0.4779 -0.0134
  186MOL0     C25542   2.937   6.034   5.837  0.9041 -0.0605 -0.3924
  186MOL0     C25543   2.994   6.039   5.692  0.0695 -0.7545 -0.0187
  186MOL0     C25544   2.991   5.903   5.618  0.3118 -0.4172 -0.0342
  186MOL0     C25545   3.012   5.920   5.468  0.0272 -0.2514 -0.9806
  186MOL0     C25546   3.025   5.781   5.394 -0.0456 -0.2687  0.7938
  186MOL0     N25547   3.063   5.812   5.259 -0.0183  1.0465  0.3834
  186MOL0     C25548   2.977   5.871   5.162  0.2771 -0.2663  0.5629
  186MOL0     C25549   3.055   5.878   5.045  0.1225 -0.0837  0.1223
  186MOL0     C25550   2.985   5.907   4.916 -0.2855  0.5593  0.6312
  186MOL0     C25551   2.891   5.805   4.858  0.0652  0.1164 -0.1777
  186MOL0     C25552   2.967   5.665   4.822  0.4054 -0.4204 -0.3713
  186MOL0     C25553   2.931   5.551   4.917 -0.1606 -0.4663 -0.4676
  186MOL0     O25554   2.961   5.430   4.843 -0.8775 -0.5235  0.9820
  186MOL0     C25555   2.967   5.310   4.913  0.3702  0.5380  0.0126
  186MOL0     C25556   3.000   5.202   4.829  0.3095 -0.5610 -1.1254
  186MOL0     C25557   2.978   5.067   4.872  0.5188  0.7798  0.1944
  186MOL0     C25558   3.001   4.954   4.770  0.6217 -0.2128 -0.0931
  186MOL0     C25559   2.940   5.040   5.006 -1.0584  0.2505 -0.2326
  186MOL0     C25560   2.907   4.902   5.057 -0.3741  0.4071 -0.7227
  186MOL0     O25561   2.804   4.896   5.151  0.0671 -0.6468  0.9667
  186MOL0     C25562   2.755   4.778   5.192  0.2834 -0.2033  1.2607
  186MOL0     C25563   2.657   4.706   5.126  0.2545 -0.5843  0.0121
  186MOL0     C25564   2.620   4.574   5.161 -0.7367 -1.0064 -0.1512
  186MOL0     C25565   2.675   4.516   5.276 -0.0355 -0.3340  0.0139
  186MOL0     O25566   2.613   4.404   5.326 -0.3269 -0.2139  0.7081
  186MOL0     C25567   2.644   4.379   5.460  0.5534  0.1780 -0.5111
  186MOL0     C25568   2.554   4.261   5.500  0.4004  0.3890 -0.4649
  186MOL0     C25569   2.406   4.279   5.464  0.3727 -0.0269 -0.1585
  186MOL0     C25570   2.329   4.151   5.443  0.5400  0.4538  0.3880
  186MOL0     C25571   2.183   4.178   5.395 -0.4389  0.8881  0.3637
  186MOL0     C25572   2.121   4.059   5.321 -0.0961 -0.3960 -0.3240
  186MOL0     C25573   2.076   3.963   5.414 -0.7204  0.3042  0.1141
  186MOL0     C25574   1.972   3.876   5.364  0.4540  0.2062 -0.5233
  186MOL0    Cl25575   1.827   3.950   5.300 -0.0005  0.0866  0.3287
  186MOL0     C25576   2.769   4.594   5.344  0.2486  0.9624  0.0925
  186MOL0     C25577   2.809   4.718   5.302 -0.0521 -0.5543  0.4876
  186MOL0     O25578   2.975   4.804   5.028  0.1118 -0.1699 -0.4946
  186MOL0     C25579   2.910   5.154   5.085  0.0280  0.4049  0.1088
  186MOL0     C25580   2.916   5.286   5.039 -0.6436  0.1917  0.0335
  186MOL0     N25581   3.178   5.828   5.063 -0.5489  0.1532  1.3692
  186MOL0     N25582   3.174   5.778   5.184 -0.0045  0.6764 -0.2427
  186MOL0     C25583   2.452   6.247   6.284 -0.5939  0.3821  0.9111
  186MOL0     C25584   2.346   6.304   6.327  0.6286 -0.0877  0.3977
  186MOL0     C25585   1.942   6.470   6.432 -1.1092 -0.2626 -0.0563
  186MOL0     C25586   1.927   6.573   6.522  0.5824 -0.7268  0.1349
  186MOL0     C25587   1.804   6.634   6.542 -0.0197 -1.4388  0.2284
  186MOL0     C25588   1.688   6.578   6.487 -0.4710  0.8955 -0.7460
  186MOL0     O25589   1.574   6.646   6.517 -0.0113 -0.1371 -0.3553
  186MOL0     C25590   1.447   6.582   6.500  0.0102  0.1357  0.3473
  186MOL0     C25591   1.344   6.644   6.590  0.1041  0.4397  0.2707
  186MOL0     C25592   1.394   6.716   6.710 -0.3456 -0.1426  0.2655
  186MOL0     C25593   1.284   6.740   6.813 -0.4411 -0.5645  0.0341
  186MOL0     C25594   1.263   6.615   6.875  0.8832 -0.6431 -0.8853
  186MOL0     C25595   1.252   6.519   6.951  0.6886  0.3880 -1.2983
  186MOL0     C25596   1.704   6.465   6.421 -0.4012  0.6228 -0.8208
  186MOL0     C25597   1.823   6.405   6.396  0.0788  0.2300  0.0042
  186MOL0     C25598   1.818   6.279   6.300 -0.3740 -0.2478 -0.0997
  186MOL0     H25599   2.114   6.166   6.128  0.6773 -2.9620 -0.3482
  186MOL0     H25600   2.338   6.080   6.011  0.3406  2.3137 -1.1639
  186MOL0     H25601   2.597   6.197   5.952 -0.6214 -0.0761 -0.9348
  186MOL0     H25602   2.549   6.022   5.949 -0.1688  0.9188 -1.0238
  186MOL0     H25603   2.814   6.130   6.033 -0.5317 -0.1923  0.7132
  186MOL0     H25604   2.766   5.975   6.069  0.1517  3.4495  3.1031
  186MOL0     H25605   2.772   5.913   5.830 -0.3958 -0.2376 -1.1625
  186MOL0     H25606   2.738   6.085   5.778  2.0147  1.6366  0.3133
  186MOL0     H25607   2.968   6.122   5.895  0.9149  0.2301 -0.8305
  186MOL0     H25608   2.978   5.944   5.884 -1.1931 -0.8789 -0.0216
  186MOL0     H25609   3.091   6.090   5.700 -0.8674  0.9996  0.7586
  186MOL0     H25610   2.926   6.113   5.648 -2.2795 -0.8850  3.0967
  186MOL0     H25611   3.064   5.839   5.670  1.1643  0.2052 -0.4358
  186MOL0     H25612   2.895   5.853   5.629 -1.2870  2.4573 -0.0287
  186MOL0     H25613   3.091   5.992   5.443  0.1207 -0.3923 -1.0905
  186MOL0     H25614   2.925   5.974   5.431 -0.2547 -0.7164 -0.9981
  186MOL0     H25615   3.092   5.707   5.438 -1.7956 -1.4254  1.6073
  186MOL0     H25616   2.924   5.738   5.394  0.0796 -0.5728  1.5860
  186MOL0     H25617   2.877   5.901   5.190 -0.9739 -1.4894 -2.1876
  186MOL0     H25618   3.074   5.918   4.853  0.9286 -0.2406  2.1707
  186MOL0     H25619   2.936   6.004   4.904 -0.9527  0.0316 -1.3943
  186MOL0     H25620   2.809   5.782   4.928  0.8893 -0.6113  0.5784
  186MOL0     H25621   2.846   5.854   4.772  1.7349  2.3851  0.1631
  186MOL0     H25622   2.941   5.635   4.720  1.1343 -0.9778 -0.4035
  186MOL0     H25623   3.073   5.691   4.830 -0.0689  1.2997  0.7828
  186MOL0     H25624   2.992   5.555   5.008 -3.0311 -2.3056  1.6893
  186MOL0     H25625   2.825   5.548   4.941 -0.4486  2.2691 -1.0237
  186MOL0     H25626   3.035   5.218   4.728 -0.8205 -2.7820 -1.9212
  186MOL0     H25627   3.012   4.997   4.670  2.9978  1.0954  0.6433
  186MOL0     H25628   2.915   4.886   4.768  0.2074  0.2946  0.3562
  186MOL0     H25629   3.097   4.902   4.784  1.0409 -0.3615 -2.8868
  186MOL0     H25630   2.617   4.743   5.032 -0.5462  2.0404  1.2947
  186MOL0     H25631   2.541   4.522   5.108 -1.1837  0.2788 -0.7656
  186MOL0     H25632   2.746   4.344   5.477  1.0871  2.2420  0.9065
  186MOL0     H25633   2.632   4.471   5.519 -0.0984 -0.3095  0.1365
  186MOL0     H25634   2.591   4.163   5.465  1.6362 -0.0004  1.7440
  186MOL0     H25635   2.557   4.259   5.609 -1.8311  2.9584 -0.2608
  186MOL0     H25636   2.384   4.342   5.377 -3.0082 -0.5240  0.1783
  186MOL0     H25637   2.348   4.325   5.545  0.1891  3.4302 -2.0252
  186MOL0     H25638   2.325   4.096   5.538  1.8234 -0.3817 -0.0185
  186MOL0     H25639   2.375   4.094   5.362  0.6472  3.6841 -1.9805
  186MOL0     H25640   2.126   4.212   5.482 -0.3441  2.9317 -0.3130
  186MOL0     H25641   2.178   4.268   5.332  0.9160  2.9626  3.0269
  186MOL0     H25642   2.186   4.019   5.242 -0.4328 -0.3541 -0.6257
  186MOL0     H25643   2.032   4.098   5.271 -0.4800 -1.4316 -0.4728
  186MOL0     H25644   2.016   4.013   5.491 -0.0624  1.1247  0.1191
  186MOL0     H25645   2.156   3.909   5.467 -1.0209  0.3176  0.5908
  186MOL0     H25646   1.964   3.807   5.448 -2.6883  2.0884  0.8837
  186MOL0     H25647   2.027   3.827   5.283  0.3329  0.1999 -0.6010
  186MOL0     H25648   2.810   4.571   5.442 -1.1332  2.3509  1.0329
  186MOL0     H25649   2.883   4.769   5.364 -1.4114 -0.6982  2.2968
  186MOL0     H25650   2.875   5.143   5.187 -0.7146 -0.8093 -0.2554
  186MOL0     H25651   2.891   5.378   5.090  1.0105 -0.3180  1.8886
  186MOL0     H25652   2.543   6.258   6.342  0.1836 -2.8722  0.5001
  186MOL0     H25653   2.339   6.366   6.415  0.4515  2.1697 -1.1309
  186MOL0     H25654   2.007   6.615   6.582  1.0719 -0.4063 -0.7170
  186MOL0     H25655   1.796   6.714   6.614  0.1347 -2.2972  1.2160
  186MOL0     H25656   1.418   6.591   6.395 -2.4977 -1.4204  0.8456
  186MOL0     H25657   1.440   6.477   6.527 -1.4587  0.1553  0.1174
  186MOL0     H25658   1.284   6.559   6.622  0.2127 -0.8142 -2.6196
  186MOL0     H25659   1.286   6.711   6.525 -1.4331 -2.5727 -1.6726
  186MOL0     H25660   1.467   6.652   6.761 -0.2210  0.8491  1.3746
  186MOL0     H25661   1.432   6.814   6.679 -2.2721  1.3249  2.2362
  186MOL0     H25662   1.189   6.766   6.764  0.1836  0.6440 -0.5925
  186MOL0     H25663   1.304   6.808   6.896  0.2208 -1.4993  0.6529
  186MOL0     H25664   1.251   6.440   7.023 -0.9190 -0.1778 -1.9056
  186MOL0     H25665   1.615   6.413   6.386 -1.4967 -0.5087  3.0918
  186MOL0     H25666   1.853   6.310   6.201 -0.0270 -1.4515 -0.3703
  186MOL0     H25667   1.871   6.194   6.343 -0.7904 -0.8013 -0.6698
  186MOL0     H25668   1.711   6.257   6.293 -1.1578  2.3214  1.9719
  187MOL0     O25669  10.065   3.605   2.918 -0.5528  0.2514  0.0176
  187MOL0     C25670  10.087   3.577   2.801 -0.0860  0.4604  0.4712
  187MOL0     O25671  10.206   3.537   2.749  0.7969  0.0267 -0.0345
  187MOL0     C25672  10.326   3.533   2.822  0.2277 -0.1485  0.5305
  187MOL0     C25673  10.391   3.405   2.838 -0.4175  0.3676  0.1142
  187MOL0     C25674  10.516   3.404   2.902  0.2935 -0.9947  0.5705
  187MOL0     C25675  10.568   3.521   2.952 -0.8369 -1.0184  0.3764
  187MOL0     O25676  10.685   3.513   3.010 -0.1372 -0.7160  0.3062
  187MOL0     C25677  10.782   3.616   2.960  0.7892 -0.4729  0.2192
  187MOL0     C25678  10.924   3.572   2.984 -0.6132  0.0342 -0.4682
  187MOL0     C25679  10.948   3.552   3.129 -0.4674  0.6006 -0.2740
  187MOL0     C25680  11.087   3.506   3.177  0.4234  0.5065 -0.1618
  187MOL0     C25681  11.141   3.368   3.123 -0.3608 -0.0535  0.1340
  187MOL0     C25682  11.285   3.354   3.175  0.1417  0.2497 -1.5815
  187MOL0     C25683  11.375   3.235   3.126 -0.7852 -0.0082 -0.8397
  187MOL0     C25684  11.411   3.237   2.982  0.4274 -0.3925 -0.7071
  187MOL0     N25685  11.481   3.359   2.951  0.7043  0.4451 -0.3006
  187MOL0     C25686  11.424   3.477   2.905 -0.4955  0.1005 -0.1548
  187MOL0     C25687  11.531   3.565   2.892 -0.5333  0.8280 -0.5719
  187MOL0     C25688  11.539   3.704   2.824  0.5868  0.3693 -0.1477
  187MOL0     C25689  11.657   3.719   2.730  0.3743 -0.0796  0.8278
  187MOL0     C25690  11.672   3.863   2.691  0.1896 -0.2167  0.3509
  187MOL0     C25691  11.782   3.882   2.583 -0.6926  0.6381  0.2005
  187MOL0     O25692  11.912   3.896   2.656  0.2337  0.4453 -0.2629
  187MOL0     C25693  12.023   3.897   2.576 -0.6434  0.4170 -0.1569
  187MOL0     C25694  12.031   3.939   2.436 -0.0060 -0.0302 -0.7269
  187MOL0     C25695  12.151   3.928   2.360  0.0698  0.1902  0.0216
  187MOL0     C25696  12.147   3.981   2.220  0.2385 -0.6367 -0.0346
  187MOL0     C25697  12.269   3.873   2.418  0.5408 -0.0988  0.5584
  187MOL0     C25698  12.407   3.857   2.355 -0.3393 -0.4461 -0.8535
  187MOL0     O25699  12.493   3.775   2.423 -0.0482  0.0380  0.4227
  187MOL0     C25700  12.622   3.766   2.380 -0.3762  1.1514 -1.1341
  187MOL0     C25701  12.700   3.883   2.350 -0.0053 -0.2994  0.9913
  187MOL0     C25702  12.822   3.877   2.297 -0.4539 -0.0152  0.2717
  187MOL0     C25703  12.879   3.758   2.264 -0.3634 -0.4281 -0.4217
  187MOL0     O25704  12.986   3.764   2.183 -0.2926  0.2754 -0.2170
  187MOL0     C25705  13.045   3.647   2.120 -0.1725 -0.7349  0.4544
  187MOL0     C25706  13.073   3.678   1.971  0.4774 -0.3385  1.0147
  187MOL0     C25707  12.956   3.669   1.875  0.5714  0.2507  0.0126
  187MOL0     C25708  12.846   3.752   1.927  0.6527 -0.4061  0.0989
  187MOL0     C25709  12.733   3.759   1.821 -0.3996 -0.1140 -0.0748
  187MOL0     C25710  12.618   3.828   1.878 -0.1715  0.4771 -0.5101
  187MOL0     C25711  12.512   3.839   1.767  0.1213 -0.3764 -0.1822
  187MOL0     C25712  12.409   3.941   1.817  0.6982  0.2743 -0.3729
  187MOL0    Cl25713  12.317   4.021   1.688 -0.1846 -0.1348 -0.0598
  187MOL0     C25714  12.816   3.651   2.304  0.9316 -0.2170  0.4176
  187MOL0     C25715  12.683   3.642   2.359  0.5405 -0.3981 -0.7048
  187MOL0     O25716  12.423   3.914   2.246 -0.4452 -0.4544 -0.4545
  187MOL0     C25717  12.259   3.844   2.555 -0.0677  0.4806  0.8385
  187MOL0     C25718  12.144   3.842   2.630  0.3994  0.1485  0.8502
  187MOL0     N25719  11.648   3.493   2.932  0.2896 -0.3817  0.3730
  187MOL0     N25720  11.612   3.366   2.971 -0.4024  0.3664  0.6839
  187MOL0     C25721  10.498   3.642   2.945 -0.1435 -0.6237  0.5173
  187MOL0     C25722  10.375   3.653   2.875  0.1925  0.4532  0.1448
  187MOL0     C25723   9.978   3.576   2.710 -0.2014  0.7396  0.1439
  187MOL0     C25724   9.985   3.656   2.600 -0.5400  0.7137  1.2826
  187MOL0     C25725   9.878   3.684   2.516  0.5002  0.2916 -0.1512
  187MOL0     C25726   9.755   3.623   2.541 -0.1674 -0.2217 -0.1526
  187MOL0     O25727   9.651   3.661   2.459 -0.5941 -0.0017 -0.8054
  187MOL0     C25728   9.612   3.555   2.372  0.4830  0.7964 -0.1685
  187MOL0     C25729   9.532   3.617   2.257 -0.4255  1.3452  0.1061
  187MOL0     C25730   9.384   3.623   2.291  0.6900 -0.0033  0.1026
  187MOL0     C25731   9.313   3.710   2.180 -1.0514  0.4425  0.9928
  187MOL0     C25732   9.172   3.733   2.207  0.0967  0.9261  0.8338
  187MOL0     C25733   9.058   3.774   2.221  0.2593 -0.1609 -1.1666
  187MOL0     C25734   9.745   3.530   2.651  0.3828 -0.3511  1.7533
  187MOL0     C25735   9.857   3.507   2.738  0.5249 -0.7725  0.2120
  187MOL0     C25736   9.837   3.410   2.851 -0.5442 -0.0562 -0.2054
  187MOL0     H25737  10.348   3.316   2.792  0.7456 -0.0215 -0.2426
  187MOL0     H25738  10.563   3.306   2.912  0.6997 -0.5939  3.4379
  187MOL0     H25739  10.770   3.714   3.009  0.9072  2.0514 -4.2725
  187MOL0     H25740  10.773   3.644   2.855 -1.9854  1.0335  0.7568
  187MOL0     H25741  10.933   3.482   2.923  2.6419 -1.7550  2.3556
  187MOL0     H25742  10.991   3.650   2.947 -0.5826 -1.4907 -4.0277
  187MOL0     H25743  10.920   3.643   3.183 -3.3713 -0.3316 -0.0804
  187MOL0     H25744  10.888   3.466   3.161  0.0123  1.5279  3.7209
  187MOL0     H25745  11.147   3.584   3.130 -2.5388  1.8839 -1.9400
  187MOL0     H25746  11.093   3.519   3.285  0.3055  1.4279 -0.2620
  187MOL0     H25747  11.144   3.380   3.015  1.2840 -0.4983  0.1134
  187MOL0     H25748  11.080   3.283   3.156  0.6107 -0.2341  1.5513
  187MOL0     H25749  11.339   3.448   3.166 -1.7421  1.2780 -2.7232
  187MOL0     H25750  11.260   3.336   3.280  2.4357 -0.5197 -1.1098
  187MOL0     H25751  11.316   3.144   3.140  1.0140 -0.9656  1.0214
  187MOL0     H25752  11.463   3.231   3.190 -1.3043 -1.1833 -0.1759
  187MOL0     H25753  11.478   3.158   2.947  0.7277  1.1040 -3.9376
  187MOL0     H25754  11.318   3.249   2.926 -0.2134  0.5165  0.5209
  187MOL0     H25755  11.324   3.502   2.870  0.6600  2.5873 -1.9904
  187MOL0     H25756  11.540   3.783   2.899  1.2139  0.7984 -0.5903
  187MOL0     H25757  11.446   3.731   2.773  0.8936  1.6118 -0.0771
  187MOL0     H25758  11.745   3.679   2.781  1.0356  0.3346  0.0408
  187MOL0     H25759  11.635   3.660   2.640  1.6258 -2.1965  1.8473
  187MOL0     H25760  11.574   3.888   2.651 -0.7891 -1.3518  1.9314
  187MOL0     H25761  11.700   3.928   2.775  1.5008  1.7039 -1.4540
  187MOL0     H25762  11.782   3.786   2.531 -0.5350 -0.3525  1.9194
  187MOL0     H25763  11.760   3.961   2.512 -3.3018 -0.4807 -0.3503
  187MOL0     H25764  11.934   3.972   2.399  1.4694  1.1670 -3.9802
  187MOL0     H25765  12.042   4.009   2.208  0.5162 -0.2914 -2.1152
  187MOL0     H25766  12.168   3.915   2.135  0.7102  2.4989 -2.5745
  187MOL0     H25767  12.213   4.068   2.215  2.5932 -2.2538  1.2593
  187MOL0     H25768  12.657   3.983   2.356  0.5361  0.0642 -0.7227
  187MOL0     H25769  12.868   3.973   2.273 -1.0174 -0.1826 -1.5885
  187MOL0     H25770  13.137   3.627   2.176  1.1932  2.8115 -0.2031
  187MOL0     H25771  12.980   3.560   2.124 -0.2723 -1.0982 -4.0404
  187MOL0     H25772  13.132   3.770   1.960 -0.9758  0.4121 -1.1268
  187MOL0     H25773  13.146   3.604   1.938  0.5181  1.0029 -2.2555
  187MOL0     H25774  12.928   3.563   1.873  0.2115  0.2865 -3.4800
  187MOL0     H25775  12.983   3.709   1.777 -1.0498  2.3101  0.3503
  187MOL0     H25776  12.883   3.854   1.921  0.3877 -0.3881 -2.4398
  187MOL0     H25777  12.817   3.733   2.031  3.1662  0.5957  1.0383
  187MOL0     H25778  12.763   3.810   1.729  0.9800 -0.3658  0.2064
  187MOL0     H25779  12.705   3.655   1.806  0.8740 -0.2932 -1.4910
  187MOL0     H25780  12.648   3.923   1.924  0.2015  0.2076 -0.1864
  187MOL0     H25781  12.583   3.771   1.965  2.4752 -0.4370  0.0410
  187MOL0     H25782  12.471   3.738   1.757  0.2993 -0.6696  1.6722
  187MOL0     H25783  12.551   3.866   1.668 -1.8076 -0.4324 -1.0136
  187MOL0     H25784  12.458   4.021   1.873 -2.5083  2.5255 -0.4946
  187MOL0     H25785  12.336   3.894   1.885 -0.6155  3.2308  0.4050
  187MOL0     H25786  12.866   3.557   2.285  3.2566  0.8712  0.8325
  187MOL0     H25787  12.621   3.556   2.380 -1.7197  0.9828 -1.3537
  187MOL0     H25788  12.346   3.821   2.615 -0.8467 -4.6309  0.4632
  187MOL0     H25789  12.137   3.807   2.732 -1.9432 -0.0103  0.6895
  187MOL0     H25790  10.540   3.735   2.982 -1.3598  1.0471 -1.9966
  187MOL0     H25791  10.318   3.745   2.866 -1.3018 -0.4072  0.5249
  187MOL0     H25792  10.084   3.699   2.583  0.2933  0.4331  4.7420
  187MOL0     H25793   9.901   3.765   2.448  1.0048  1.7111  1.6272
  187MOL0     H25794   9.704   3.515   2.328  0.3112  0.3017 -0.0810
  187MOL0     H25795   9.549   3.476   2.414  0.0647  1.0676 -0.2777
  187MOL0     H25796   9.547   3.547   2.174 -0.4848 -1.6088  2.4072
  187MOL0     H25797   9.582   3.710   2.230  1.0073  0.8515  0.9346
  187MOL0     H25798   9.329   3.528   2.287 -1.2971  0.9515  2.3148
  187MOL0     H25799   9.365   3.666   2.390 -2.0450  0.6923 -0.6393
  187MOL0     H25800   9.335   3.673   2.079  0.6028  2.8446  0.3555
  187MOL0     H25801   9.372   3.803   2.186  3.9410 -2.1866 -0.9542
  187MOL0     H25802   8.960   3.814   2.235  1.5962  2.5705  1.3028
  187MOL0     H25803   9.642   3.506   2.677 -0.8403  2.5911  0.1439
  187MOL0     H25804   9.894   3.442   2.939 -2.8103  3.4645  0.1945
  187MOL0     H25805   9.729   3.403   2.866 -0.8846 -1.8791 -2.8628
  187MOL0     H25806   9.881   3.315   2.823 -0.9997 -0.1309 -0.6802
  188MOL0     O25807  10.619   6.890   0.538  0.5609 -0.4108 -0.0574
  188MOL0     C25808  10.658   7.003   0.566  0.4616 -0.8205 -0.9171
  188MOL0     O25809  10.608   7.085   0.665 -0.8970  0.5620  0.3613
  188MOL0     C25810  10.534   7.036   0.762  0.0003 -0.3409 -0.1488
  188MOL0     C25811  10.395   7.023   0.743 -0.2612 -0.2406 -0.5457
  188MOL0     C25812  10.312   6.962   0.838 -0.5185  0.1766 -0.2268
  188MOL0     C25813  10.366   6.930   0.962 -0.1604 -0.3613  0.4252
  188MOL0     O25814  10.282   6.907   1.066 -0.3712  0.2796  0.4187
  188MOL0     C25815  10.151   6.847   1.045 -0.0586  0.4006 -0.3223
  188MOL0     C25816  10.098   6.780   1.182 -0.3905  0.2560  0.1053
  188MOL0     C25817  10.217   6.698   1.241  0.2005 -0.0023 -0.3548
  188MOL0     C25818  10.158   6.607   1.350  0.2908 -0.1162 -0.9710
  188MOL0     C25819  10.263   6.556   1.439  0.2102 -0.9979 -0.4846
  188MOL0     C25820  10.334   6.443   1.375  0.3972  0.2745 -0.3800
  188MOL0     C25821  10.463   6.403   1.447 -0.6498  0.3996 -1.0353
  188MOL0     C25822  10.581   6.494   1.425  0.2724  0.2629  0.4544
  188MOL0     N25823  10.700   6.442   1.492 -0.6868 -0.2597 -0.2759
  188MOL0     C25824  10.745   6.474   1.620 -0.3284 -0.4286  1.4458
  188MOL0     C25825  10.868   6.409   1.627 -0.1796  0.3718  0.4032
  188MOL0     C25826  10.953   6.386   1.745 -0.1916 -0.6205 -0.0828
  188MOL0     C25827  11.102   6.349   1.708 -0.1320  0.8654  0.6376
  188MOL0     C25828  11.166   6.284   1.836 -0.3944 -0.1890  0.0458
  188MOL0     C25829  11.281   6.190   1.808 -0.2186  0.2680  0.1565
  188MOL0     O25830  11.362   6.199   1.922  0.6060  0.6733 -0.0716
  188MOL0     C25831  11.485   6.155   1.910 -0.7626  0.6133 -0.0274
  188MOL0     C25832  11.599   6.235   1.964 -0.0472 -0.1483 -0.5047
  188MOL0     C25833  11.726   6.191   1.958 -1.5586  0.0610  0.2786
  188MOL0     C25834  11.832   6.266   2.035  0.4458 -0.8799 -0.0096
  188MOL0     C25835  11.764   6.080   1.883 -1.0361 -0.7394  0.5146
  188MOL0     C25836  11.906   6.026   1.843 -0.9545 -0.1172  0.0057
  188MOL0     O25837  11.907   5.905   1.781 -0.4036  0.6073 -0.6861
  188MOL0     C25838  12.020   5.863   1.716 -0.5106  0.1855 -0.6843
  188MOL0     C25839  12.039   5.886   1.577 -0.2425 -0.0767  0.0681
  188MOL0     C25840  12.162   5.863   1.520  0.9057  0.1132 -0.4218
  188MOL0     C25841  12.268   5.813   1.587  0.8178  0.2466 -0.0773
  188MOL0     O25842  12.388   5.799   1.526  0.4346 -0.2788  0.2946
  188MOL0     C25843  12.411   5.657   1.525 -0.0633  0.5191  0.1254
  188MOL0     C25844  12.510   5.612   1.415  0.3862  0.1697 -0.1557
  188MOL0     C25845  12.644   5.681   1.426  0.3450 -0.7246  0.1607
  188MOL0     C25846  12.732   5.632   1.313 -0.6557  0.2574  0.4970
  188MOL0     C25847  12.762   5.482   1.302  0.3332 -0.2186 -1.1639
  188MOL0     C25848  12.884   5.455   1.213  0.2936 -0.7120  0.8511
  188MOL0     C25849  12.918   5.305   1.190  0.0557 -0.7273  0.3304
  188MOL0     C25850  12.809   5.221   1.129 -0.0286 -0.5895  0.1354
  188MOL0    Cl25851  12.781   5.264   0.951 -0.0538 -0.6479  0.1359
  188MOL0     C25852  12.254   5.787   1.725  0.1213 -1.0127  0.7835
  188MOL0     C25853  12.135   5.815   1.794  0.0754  0.3033 -0.1562
  188MOL0     O25854  12.006   6.103   1.842  0.2903 -0.5890  0.0172
  188MOL0     C25855  11.656   6.006   1.819  0.5232  0.0183 -0.3527
  188MOL0     C25856  11.519   6.034   1.846  0.3322  0.0231  0.0196
  188MOL0     N25857  10.878   6.335   1.507 -0.0705 -0.3303 -0.8967
  188MOL0     N25858  10.784   6.365   1.422  0.1327  0.0521  0.3607
  188MOL0     C25859  10.499   6.953   0.987  0.4110 -0.3919  0.1449
  188MOL0     C25860  10.588   7.001   0.886  0.3502 -0.3134 -0.8147
  188MOL0     C25861  10.753   7.063   0.468  0.7682 -0.6840  0.4810
  188MOL0     C25862  10.827   7.172   0.523 -0.1162 -0.3908  0.3314
  188MOL0     C25863  10.920   7.231   0.448  0.4475  0.0844 -0.0408
  188MOL0     C25864  10.955   7.187   0.317 -0.4602 -0.1273 -0.9614
  188MOL0     O25865  11.066   7.230   0.250 -0.1336 -0.0388 -0.7683
  188MOL0     C25866  11.107   7.370   0.269 -0.0370 -0.4621 -0.2370
  188MOL0     C25867  11.018   7.457   0.184  0.5380  0.4406  0.4175
  188MOL0     C25868  11.072   7.594   0.154  1.0410  0.3165 -0.8621
  188MOL0     C25869  11.022   7.645   0.016 -0.2045 -0.0717  0.5964
  188MOL0     C25870  11.110   7.612  -0.097  0.4398 -0.4983  0.5773
  188MOL0     C25871  11.173   7.576  -0.198 -0.1793 -0.8312  1.0033
  188MOL0     C25872  10.883   7.084   0.264  0.3760 -0.7151 -0.2124
  188MOL0     C25873  10.783   7.014   0.332 -0.8301 -0.5653 -0.2049
  188MOL0     C25874  10.721   6.905   0.250  0.1816 -0.3394  0.3910
  188MOL0     H25875  10.351   7.057   0.649 -2.2343 -1.3735 -0.0835
  188MOL0     H25876  10.208   6.946   0.814  0.1875 -0.3608 -3.3598
  188MOL0     H25877  10.159   6.774   0.964 -2.0336 -0.5173  0.2371
  188MOL0     H25878  10.078   6.920   1.009 -0.2778  0.9079  1.0825
  188MOL0     H25879  10.065   6.856   1.253  1.1248 -0.0433  1.1739
  188MOL0     H25880  10.006   6.729   1.152 -0.4497  0.6656 -0.4455
  188MOL0     H25881  10.271   6.633   1.171  1.6889 -1.3899  1.9607
  188MOL0     H25882  10.286   6.767   1.291  0.3419 -1.7599  2.0558
  188MOL0     H25883  10.091   6.666   1.414  0.2877  1.9664 -2.7645
  188MOL0     H25884  10.107   6.525   1.298 -0.0102  0.2870 -1.3118
  188MOL0     H25885  10.216   6.514   1.529  1.0100  0.3533  0.6119
  188MOL0     H25886  10.319   6.646   1.465 -1.0859 -0.1513 -0.5387
  188MOL0     H25887  10.273   6.356   1.401  1.9638 -0.8053 -0.1129
  188MOL0     H25888  10.344   6.458   1.267  0.5007  1.6294 -0.2030
  188MOL0     H25889  10.478   6.302   1.406 -0.7433  0.8699 -2.2697
  188MOL0     H25890  10.441   6.405   1.554 -1.4364 -0.4391 -1.1665
  188MOL0     H25891  10.598   6.508   1.318  3.1798 -0.1961  0.7722
  188MOL0     H25892  10.562   6.595   1.461 -1.3782 -0.0971  0.6796
  188MOL0     H25893  10.685   6.530   1.690  2.3451  2.1491  1.8585
  188MOL0     H25894  10.907   6.308   1.806 -0.8628 -0.0957  0.0932
  188MOL0     H25895  10.964   6.470   1.815 -1.0389 -0.7704  0.2470
  188MOL0     H25896  11.110   6.278   1.625  0.6119  1.8553 -0.1651
  188MOL0     H25897  11.166   6.436   1.691  3.7709 -1.5115  1.7825
  188MOL0     H25898  11.191   6.362   1.909 -1.6027  1.8688 -1.6311
  188MOL0     H25899  11.090   6.220   1.882  2.1452 -2.3232  1.5315
  188MOL0     H25900  11.250   6.086   1.797  1.2090 -0.5125  2.7115
  188MOL0     H25901  11.346   6.214   1.724  2.7745 -7.1466 -0.4198
  188MOL0     H25902  11.574   6.324   2.021  0.6809 -2.0669  3.0735
  188MOL0     H25903  11.868   6.353   1.980 -2.6263  2.7864  3.1947
  188MOL0     H25904  11.919   6.203   2.056 -0.5704 -2.0515  0.8793
  188MOL0     H25905  11.795   6.306   2.130 -0.8397  1.2267 -1.3295
  188MOL0     H25906  11.950   5.921   1.525  0.5751  5.0768  1.6083
  188MOL0     H25907  12.159   5.892   1.415 -2.8964 -0.1943 -0.5494
  188MOL0     H25908  12.444   5.630   1.626 -1.3038  0.0471  0.4145
  188MOL0     H25909  12.318   5.601   1.514 -0.5229  1.0604  1.1066
  188MOL0     H25910  12.508   5.503   1.419 -0.1219  0.0677 -2.3093
  188MOL0     H25911  12.471   5.624   1.314  0.3453  3.0034  0.1254
  188MOL0     H25912  12.683   5.657   1.525  1.0232  0.3567  0.1700
  188MOL0     H25913  12.637   5.790   1.415  0.6869 -0.8162 -1.1242
  188MOL0     H25914  12.826   5.686   1.330 -0.7530  0.2170  1.2024
  188MOL0     H25915  12.691   5.657   1.215  1.8564  1.0205 -0.4583
  188MOL0     H25916  12.765   5.437   1.401 -0.4930  3.0393  0.4719
  188MOL0     H25917  12.676   5.443   1.247  1.1016 -0.6999 -2.0713
  188MOL0     H25918  12.969   5.513   1.247  1.9138 -2.0417 -0.6975
  188MOL0     H25919  12.850   5.488   1.114 -0.3542  0.8192  1.5667
  188MOL0     H25920  12.959   5.263   1.283 -0.7769 -1.3249  0.4303
  188MOL0     H25921  13.003   5.309   1.121  0.9961  0.4078  1.4773
  188MOL0     H25922  12.718   5.240   1.185  0.2218  3.6461 -0.5235
  188MOL0     H25923  12.831   5.114   1.135 -1.0107 -0.7755  0.5989
  188MOL0     H25924  12.348   5.773   1.778  1.3545  0.0300 -1.0442
  188MOL0     H25925  12.141   5.795   1.900  1.0819  0.9797 -0.0720
  188MOL0     H25926  11.678   5.924   1.750 -0.4543  1.0805 -2.0014
  188MOL0     H25927  11.445   5.972   1.798  1.6454 -1.9626  0.4304
  188MOL0     H25928  10.533   6.949   1.090 -1.3773  1.0960  0.8634
  188MOL0     H25929  10.696   7.014   0.897  0.1430  0.0521  1.0818
  188MOL0     H25930  10.813   7.199   0.628 -2.3996  2.9324 -0.6723
  188MOL0     H25931  10.997   7.286   0.500  0.6673 -0.8203  0.5967
  188MOL0     H25932  11.101   7.408   0.372  0.4054 -1.8318  0.3139
  188MOL0     H25933  11.208   7.383   0.227  0.3204 -1.2816  0.3416
  188MOL0     H25934  10.921   7.473   0.232  1.2074 -0.3522  2.0992
  188MOL0     H25935  11.007   7.400   0.091  1.7464 -2.0021  1.6860
  188MOL0     H25936  11.030   7.662   0.228 -1.3131 -2.2536  0.3145
  188MOL0     H25937  11.182   7.589   0.156  1.0243 -1.7663 -1.8745
  188MOL0     H25938  11.015   7.754   0.021 -3.9302 -0.2162  0.8398
  188MOL0     H25939  10.927   7.604  -0.018  0.0315  0.2092 -0.4525
  188MOL0     H25940  11.222   7.521  -0.275  1.8537 -2.3975  3.2635
  188MOL0     H25941  10.909   7.060   0.161 -3.8862  0.0325 -1.6589
  188MOL0     H25942  10.789   6.835   0.203 -0.4217  0.3995 -1.6806
  188MOL0     H25943  10.632   6.859   0.294 -0.7871 -1.4535 -2.5289
  188MOL0     H25944  10.669   6.955   0.168  0.8788 -1.2608 -0.6264
  189MOL0     O25945   6.266   1.013   1.238 -0.5961 -0.1271 -0.3257
  189MOL0     C25946   6.389   1.027   1.214  0.4786 -0.5082 -0.0594
  189MOL0     O25947   6.451   0.986   1.095 -0.3870 -0.6549  0.1653
  189MOL0     C25948   6.581   1.032   1.078  0.2112 -0.4788  1.1531
  189MOL0     C25949   6.692   0.967   1.135 -0.1081  0.2402  0.2004
  189MOL0     C25950   6.819   1.020   1.122  0.8056 -0.1575  0.7056
  189MOL0     C25951   6.845   1.131   1.042 -0.4728  0.9195 -1.0021
  189MOL0     O25952   6.978   1.174   1.033  0.6640 -0.0557 -0.0622
  189MOL0     C25953   7.003   1.309   0.996  1.0026  0.7068 -0.0559
  189MOL0     C25954   7.150   1.338   1.025 -0.4190 -0.3160 -0.7056
  189MOL0     C25955   7.179   1.381   1.171 -0.9824  0.5919 -0.5660
  189MOL0     C25956   7.333   1.392   1.197 -0.5670  0.0227  0.4038
  189MOL0     C25957   7.365   1.517   1.283 -1.5813  0.6492 -0.7167
  189MOL0     C25958   7.515   1.537   1.275  0.0794 -0.5303 -0.4526
  189MOL0     C25959   7.561   1.654   1.367 -0.0346  0.4217  0.0257
  189MOL0     C25960   7.710   1.687   1.369 -0.9882 -0.2409  0.2394
  189MOL0     N25961   7.806   1.579   1.413  0.1978 -1.1005 -1.4229
  189MOL0     C25962   7.889   1.500   1.334  0.5063 -0.2477  0.5994
  189MOL0     C25963   7.993   1.467   1.411  0.5947 -0.5851 -0.5127
  189MOL0     C25964   8.105   1.390   1.356 -0.0092  0.2113  0.3287
  189MOL0     C25965   8.227   1.492   1.346 -0.1678  0.5819 -0.2627
  189MOL0     C25966   8.288   1.516   1.481 -0.0353  0.9345  0.0859
  189MOL0     C25967   8.401   1.621   1.471 -0.6737  0.6858  0.1114
  189MOL0     O25968   8.475   1.603   1.350 -0.1971 -0.0835 -0.4970
  189MOL0     C25969   8.590   1.524   1.348 -0.3730 -0.0873 -0.3169
  189MOL0     C25970   8.685   1.526   1.249  0.9496  0.2993  0.4334
  189MOL0     C25971   8.794   1.445   1.235 -0.4032  1.0580  0.6345
  189MOL0     C25972   8.867   1.440   1.103 -0.5478 -0.2998 -0.6865
  189MOL0     C25973   8.817   1.350   1.335  0.3547 -0.1127 -0.0116
  189MOL0     C25974   8.919   1.251   1.313  0.0229  1.0919 -0.7691
  189MOL0     O25975   9.034   1.297   1.259 -0.0187  0.1625 -0.7505
  189MOL0     C25976   9.140   1.199   1.252  0.2569 -0.1214 -0.1961
  189MOL0     C25977   9.187   1.134   1.136 -0.6744  0.2725 -0.4259
  189MOL0     C25978   9.299   1.048   1.139  0.7815  0.0959 -0.1934
  189MOL0     C25979   9.368   1.017   1.261 -0.1471  0.1819 -0.3028
  189MOL0     O25980   9.486   0.942   1.267  0.4764  0.0198 -0.3505
  189MOL0     C25981   9.552   0.919   1.141 -0.0927 -0.0407 -0.2520
  189MOL0     C25982   9.701   0.922   1.169  0.4192  0.6699 -0.3758
  189MOL0     C25983   9.738   0.804   1.257  0.2272 -0.1771 -0.4240
  189MOL0     C25984   9.887   0.787   1.262 -0.7054  1.1986 -0.0447
  189MOL0     C25985   9.968   0.759   1.123  1.0003 -0.0779  0.1269
  189MOL0     C25986  10.087   0.671   1.144  1.0873  0.0394  0.3264
  189MOL0     C25987  10.224   0.713   1.088 -0.1198  0.5456 -1.9854
  189MOL0     C25988  10.313   0.597   1.070 -0.0390 -0.7120  0.1883
  189MOL0    Cl25989  10.366   0.532   1.238 -0.2543  0.2867  0.1134
  189MOL0     C25990   9.313   1.075   1.378 -0.5609 -0.2837  0.3702
  189MOL0     C25991   9.205   1.171   1.368 -0.4156  0.6829 -0.5266
  189MOL0     O25992   8.897   1.140   1.359  0.2985 -0.9829 -0.1742
  189MOL0     C25993   8.735   1.354   1.444 -0.4943 -0.1017 -0.2170
  189MOL0     C25994   8.624   1.439   1.448  0.3840 -0.3184 -0.7104
  189MOL0     N25995   7.971   1.502   1.542  0.5045  0.1711 -0.1784
  189MOL0     N25996   7.855   1.569   1.541 -0.3031  0.4790  0.4602
  189MOL0     C25997   6.732   1.190   0.977 -0.6012  0.1877 -0.1871
  189MOL0     C25998   6.600   1.142   0.997  0.2523 -1.1636 -0.6220
  189MOL0     C25999   6.467   1.083   1.325 -0.5266  0.9953 -0.2873
  189MOL0     C26000   6.498   1.219   1.330 -0.3362 -0.9114 -0.1918
  189MOL0     C26001   6.568   1.266   1.437  0.5431 -0.0888 -0.5139
  189MOL0     C26002   6.612   1.188   1.541 -0.1147  0.4468  0.2509
  189MOL0     O26003   6.703   1.238   1.633 -0.7148 -1.6364  0.5774
  189MOL0     C26004   6.707   1.186   1.767  0.4194 -0.8433 -0.4327
  189MOL0     C26005   6.841   1.108   1.792 -0.3858 -1.6775 -0.0391
  189MOL0     C26006   6.952   1.205   1.738  0.2257  0.0142 -0.4108
  189MOL0     C26007   7.089   1.167   1.792 -0.2226 -0.0496 -0.0213
  189MOL0     C26008   7.195   1.237   1.718  0.0465 -0.7889  1.3070
  189MOL0     C26009   7.272   1.296   1.643 -0.2143 -0.2317 -0.2326
  189MOL0     C26010   6.570   1.050   1.538 -0.3475  0.9636 -0.0977
  189MOL0     C26011   6.510   0.993   1.432  1.9255  0.0313  0.4864
  189MOL0     C26012   6.500   0.845   1.428 -0.2080  0.4592  0.1412
  189MOL0     H26013   6.681   0.874   1.189  1.5354 -0.3119 -0.3402
  189MOL0     H26014   6.894   0.971   1.182  0.3813 -1.3095  0.3159
  189MOL0     H26015   6.937   1.369   1.058 -1.5727 -0.7825 -1.2173
  189MOL0     H26016   6.973   1.326   0.893 -1.6288 -2.9733 -0.0881
  189MOL0     H26017   7.208   1.246   1.013  1.4731  0.9058 -1.5149
  189MOL0     H26018   7.187   1.414   0.955  0.5582 -0.8761 -0.8271
  189MOL0     H26019   7.132   1.480   1.180 -0.4525  1.0007 -2.0549
  189MOL0     H26020   7.133   1.313   1.243  3.3105 -0.4079  1.5687
  189MOL0     H26021   7.376   1.301   1.241 -1.3772 -1.1540 -1.1340
  189MOL0     H26022   7.387   1.404   1.103 -1.0019  0.7664  0.2459
  189MOL0     H26023   7.328   1.503   1.385 -4.1107  0.3510 -1.6126
  189MOL0     H26024   7.313   1.605   1.243 -2.6586  0.5669  0.4489
  189MOL0     H26025   7.574   1.449   1.301  2.8094  0.1971 -3.4994
  189MOL0     H26026   7.538   1.569   1.173 -0.7041  0.9431 -0.1844
  189MOL0     H26027   7.533   1.629   1.470  0.1479 -2.4136 -0.5194
  189MOL0     H26028   7.512   1.748   1.344 -0.1160  0.2887 -0.3489
  189MOL0     H26029   7.745   1.706   1.267  0.9351  0.5443  1.0026
  189MOL0     H26030   7.724   1.775   1.432  2.3074 -2.0684  2.3385
  189MOL0     H26031   7.869   1.462   1.234  1.4685 -1.1987  0.7332
  189MOL0     H26032   8.064   1.351   1.262 -2.3527 -3.3106  2.5538
  189MOL0     H26033   8.131   1.306   1.420 -0.8655  0.7857  1.4655
  189MOL0     H26034   8.303   1.437   1.289 -0.0541 -0.6581  0.9983
  189MOL0     H26035   8.194   1.585   1.299  0.1618  1.6324  1.4852
  189MOL0     H26036   8.209   1.563   1.539  0.6653  1.3687  0.7006
  189MOL0     H26037   8.321   1.427   1.536  3.0141  0.5538 -2.0916
  189MOL0     H26038   8.355   1.719   1.459 -1.7611 -0.0942 -3.2469
  189MOL0     H26039   8.467   1.622   1.559 -1.1928  1.3529  0.5043
  189MOL0     H26040   8.661   1.610   1.184  1.1024  0.3620  0.4589
  189MOL0     H26041   8.882   1.339   1.063 -0.0857 -0.0354 -1.2018
  189MOL0     H26042   8.958   1.499   1.116  0.3358 -2.1255  2.6934
  189MOL0     H26043   8.801   1.494   1.035 -1.6026 -0.2074  0.3843
  189MOL0     H26044   9.138   1.158   1.042  1.5868 -0.5433 -1.8899
  189MOL0     H26045   9.320   0.991   1.049  0.5253 -2.1457  1.0976
  189MOL0     H26046   9.533   0.815   1.111  1.1930 -1.0281  2.0789
  189MOL0     H26047   9.524   0.986   1.059  0.6655  2.2611  1.2822
  189MOL0     H26048   9.769   0.917   1.083  2.7868 -0.0875  1.4043
  189MOL0     H26049   9.717   1.013   1.227  0.0242 -0.1179  1.0216
  189MOL0     H26050   9.686   0.713   1.227  0.5070 -0.3781 -0.3076
  189MOL0     H26051   9.698   0.816   1.358  1.6050 -1.7168  0.3478
  189MOL0     H26052   9.908   0.694   1.316  4.5527  1.4133 -1.1624
  189MOL0     H26053   9.936   0.865   1.321  1.2708  3.4773 -4.2275
  189MOL0     H26054   9.896   0.722   1.050 -0.8268 -0.7622  2.1592
  189MOL0     H26055  10.001   0.858   1.091 -0.0834  0.0079 -0.7897
  189MOL0     H26056  10.058   0.573   1.105 -2.2412  1.9817 -2.6291
  189MOL0     H26057  10.101   0.671   1.253  2.6092  0.5040  0.1501
  189MOL0     H26058  10.271   0.778   1.163  1.0793 -1.5387 -0.8346
  189MOL0     H26059  10.205   0.778   1.002 -0.7811  1.5243 -1.1327
  189MOL0     H26060  10.396   0.635   1.010  2.3103 -3.4525  1.4978
  189MOL0     H26061  10.262   0.519   1.013 -0.7690 -0.0664 -0.0642
  189MOL0     H26062   9.354   1.054   1.476  1.0861  0.1603 -0.1861
  189MOL0     H26063   9.171   1.207   1.464  3.3021  3.1665  0.0534
  189MOL0     H26064   8.757   1.282   1.522 -0.3310  1.1179  0.8863
  189MOL0     H26065   8.559   1.441   1.535 -2.3473 -1.2992 -2.6233
  189MOL0     H26066   6.748   1.275   0.911  0.3184  1.3450  1.4524
  189MOL0     H26067   6.511   1.180   0.947 -0.3236 -0.0701  1.1286
  189MOL0     H26068   6.457   1.278   1.248 -2.0983 -0.3318  1.0419
  189MOL0     H26069   6.579   1.374   1.445 -1.4869  0.0481  1.5626
  189MOL0     H26070   6.700   1.268   1.839  2.8450 -1.7979  1.0159
  189MOL0     H26071   6.618   1.125   1.788 -1.9984  1.6429 -2.6978
  189MOL0     H26072   6.845   1.012   1.739 -1.7878 -1.3061 -0.8922
  189MOL0     H26073   6.840   1.086   1.899 -1.6496  0.9398  0.5744
  189MOL0     H26074   6.946   1.208   1.629 -2.3558 -0.2056 -0.3340
  189MOL0     H26075   6.928   1.304   1.777  1.1362 -0.0917  0.4898
  189MOL0     H26076   7.099   1.061   1.768  2.6985 -0.1030  1.0425
  189MOL0     H26077   7.098   1.174   1.901  0.4441  0.8192 -0.1193
  189MOL0     H26078   7.331   1.352   1.574  0.2283 -3.1158 -2.3983
  189MOL0     H26079   6.616   0.979   1.605  1.0812  1.7572 -0.1992
  189MOL0     H26080   6.573   0.795   1.493 -0.9803  1.2165  1.6457
  189MOL0     H26081   6.399   0.813   1.456 -0.0664 -1.1417 -1.0088
  189MOL0     H26082   6.517   0.805   1.328  2.4818  1.9625 -0.0828
  190MOL0     O26083   1.277   5.815   3.212 -0.0383 -0.3456  0.5746
  190MOL0     C26084   1.243   5.724   3.290 -0.3913 -1.0778  0.2553
  190MOL0     O26085   1.325   5.661   3.370 -0.2196 -0.2071 -0.0828
  190MOL0     C26086   1.461   5.669   3.353 -0.3875  0.4271 -0.3560
  190MOL0     C26087   1.524   5.660   3.227  0.1326 -0.8048  0.3000
  190MOL0     C26088   1.662   5.672   3.218  0.0242 -1.0127  0.1829
  190MOL0     C26089   1.750   5.675   3.334  0.5323 -1.0466  0.8017
  190MOL0     O26090   1.888   5.675   3.329  0.4274  1.1702  0.3903
  190MOL0     C26091   1.952   5.714   3.204 -0.4792  0.6806  0.5305
  190MOL0     C26092   2.107   5.711   3.237  0.2247  1.2287 -0.4933
  190MOL0     C26093   2.165   5.618   3.340  0.7383 -0.7045  0.4548
  190MOL0     C26094   2.308   5.660   3.356 -0.4227  0.1019  0.2477
  190MOL0     C26095   2.393   5.575   3.442 -0.4818 -0.1317 -0.2801
  190MOL0     C26096   2.533   5.634   3.425  0.1831 -0.0532 -1.1722
  190MOL0     C26097   2.643   5.560   3.503 -0.0243 -0.1267 -0.3600
  190MOL0     C26098   2.694   5.425   3.462  0.2916 -0.0450 -0.5236
  190MOL0     N26099   2.755   5.420   3.325  0.8403 -0.3772  0.1129
  190MOL0     C26100   2.781   5.527   3.243 -0.7129 -0.3405 -0.6581
  190MOL0     C26101   2.845   5.479   3.135  0.5652 -0.3125  0.4161
  190MOL0     C26102   2.899   5.583   3.025 -0.0775 -0.1928 -0.2487
  190MOL0     C26103   3.044   5.559   2.987 -0.3799  0.6763  0.9175
  190MOL0     C26104   3.070   5.633   2.854 -0.0091  0.4668 -0.7047
  190MOL0     C26105   3.219   5.639   2.809 -0.0643  0.3282  0.0740
  190MOL0     O26106   3.259   5.499   2.811 -0.2037  0.1412  0.2684
  190MOL0     C26107   3.391   5.471   2.772 -0.8827  0.9900  0.4220
  190MOL0     C26108   3.417   5.335   2.736  0.7668  0.3913 -0.2807
  190MOL0     C26109   3.543   5.295   2.692  0.3366  0.5617  0.4893
  190MOL0     C26110   3.563   5.152   2.650 -0.1611  0.9334 -0.6766
  190MOL0     C26111   3.646   5.390   2.685  1.0791  0.0510 -0.6349
  190MOL0     C26112   3.783   5.361   2.638 -0.1558 -0.1831  0.4317
  190MOL0     O26113   3.876   5.442   2.684  1.1406  0.1760 -0.6231
  190MOL0     C26114   4.005   5.438   2.635 -0.0370 -0.2910  0.6782
  190MOL0     C26115   4.068   5.565   2.618 -0.5266  0.4966  0.0559
  190MOL0     C26116   4.203   5.573   2.594  0.5248 -0.6163  0.4152
  190MOL0     C26117   4.280   5.452   2.598  0.1673  0.8732 -0.5961
  190MOL0     O26118   4.416   5.463   2.576  0.1269 -0.5553  0.9021
  190MOL0     C26119   4.508   5.381   2.645 -0.0023  0.7809  0.8179
  190MOL0     C26120   4.563   5.259   2.563  0.1368 -0.4018  0.4691
  190MOL0     C26121   4.654   5.303   2.448 -0.1699  0.5078 -0.0648
  190MOL0     C26122   4.772   5.213   2.454 -0.6482 -0.0545  0.4121
  190MOL0     C26123   4.872   5.251   2.343 -0.3377  0.3063  0.2961
  190MOL0     C26124   5.011   5.206   2.385 -0.5830  0.3001 -0.2983
  190MOL0     C26125   5.104   5.227   2.272 -0.4587  0.0636 -0.3998
  190MOL0     C26126   5.251   5.195   2.309 -0.2323 -0.0469 -0.2331
  190MOL0    Cl26127   5.301   5.306   2.446 -0.0110 -0.1231 -0.1992
  190MOL0     C26128   4.221   5.323   2.606  0.1694 -0.6734 -0.1049
  190MOL0     C26129   4.081   5.317   2.620 -1.0457 -0.2269 -0.0734
  190MOL0     O26130   3.798   5.277   2.555 -0.4305  0.4203  0.0592
  190MOL0     C26131   3.622   5.524   2.733  0.3826 -0.1039 -0.4298
  190MOL0     C26132   3.496   5.560   2.778 -0.9101  0.2689 -0.0600
  190MOL0     N26133   2.848   5.339   3.147  0.0856  0.0071 -0.1411
  190MOL0     N26134   2.793   5.299   3.257  0.5645  0.1142  0.3708
  190MOL0     C26135   1.689   5.658   3.457  0.8503  0.0186 -0.0888
  190MOL0     C26136   1.543   5.660   3.463 -0.2169 -0.4758 -0.3567
  190MOL0     C26137   1.099   5.685   3.302  0.0175 -0.6602  0.2833
  190MOL0     C26138   1.052   5.639   3.426 -0.6557  0.0557 -0.4627
  190MOL0     C26139   0.922   5.606   3.451 -0.2035 -0.2627  0.4865
  190MOL0     C26140   0.828   5.594   3.346  0.4337 -0.8986  0.6379
  190MOL0     O26141   0.695   5.566   3.380 -0.6048  0.0134 -0.4373
  190MOL0     C26142   0.589   5.585   3.290 -0.0520  0.3868 -0.1386
  190MOL0     C26143   0.448   5.530   3.346  0.1139 -0.7652 -0.6411
  190MOL0     C26144   0.434   5.398   3.420 -0.0183  0.0596 -0.2147
  190MOL0     C26145   0.289   5.367   3.455 -0.2706  1.4234  0.4825
  190MOL0     C26146   0.264   5.220   3.483 -1.1753 -0.5484 -0.2847
  190MOL0     C26147   0.236   5.098   3.486 -0.8468 -0.1834  0.0363
  190MOL0     C26148   0.880   5.633   3.216  1.4369  0.3767  0.5080
  190MOL0     C26149   1.005   5.685   3.197  0.6973 -0.7982  0.3391
  190MOL0     C26150   1.038   5.709   3.052  0.3732  0.8069  0.8410
  190MOL0     H26151   1.470   5.642   3.134  3.8565 -1.7037 -1.8994
  190MOL0     H26152   1.692   5.685   3.114 -0.9560  0.7203  0.0750
  190MOL0     H26153   1.926   5.813   3.165  3.9755  1.8391 -0.1347
  190MOL0     H26154   1.926   5.639   3.129 -0.8105 -0.0915  1.4026
  190MOL0     H26155   2.160   5.685   3.145  2.6460 -1.4969  1.5025
  190MOL0     H26156   2.118   5.815   3.271  2.5364  0.7280  0.4583
  190MOL0     H26157   2.112   5.620   3.436  0.0757 -1.0514  0.1075
  190MOL0     H26158   2.156   5.522   3.289 -0.7639  0.7138 -2.1900
  190MOL0     H26159   2.353   5.653   3.257  0.1088 -1.1569  0.5603
  190MOL0     H26160   2.313   5.760   3.402  5.0043 -0.3527  1.3362
  190MOL0     H26161   2.382   5.469   3.418 -0.9347 -0.4912  1.3764
  190MOL0     H26162   2.356   5.592   3.544  0.2224  4.5675 -0.5584
  190MOL0     H26163   2.561   5.638   3.320  2.3652  1.3116 -0.5914
  190MOL0     H26164   2.530   5.733   3.471  1.3791 -0.2654 -0.6140
  190MOL0     H26165   2.612   5.541   3.606  1.8477  1.8256  0.6636
  190MOL0     H26166   2.729   5.628   3.498  1.1605 -1.6397 -1.3277
  190MOL0     H26167   2.756   5.389   3.545  0.6187 -2.9791 -1.8962
  190MOL0     H26168   2.601   5.367   3.463  1.8152 -2.6256  1.2452
  190MOL0     H26169   2.780   5.633   3.269 -1.0696 -0.0546 -1.7834
  190MOL0     H26170   2.901   5.677   3.080 -0.0695 -0.4334  0.1695
  190MOL0     H26171   2.837   5.588   2.935 -1.4948 -1.0607  0.6351
  190MOL0     H26172   3.107   5.605   3.063 -0.9544  1.8813  0.6787
  190MOL0     H26173   3.072   5.456   2.963  0.3443  1.2337 -0.7877
  190MOL0     H26174   3.012   5.582   2.776 -0.7761  1.2554 -0.6681
  190MOL0     H26175   3.034   5.736   2.863  0.2436  0.5162 -0.2187
  190MOL0     H26176   3.233   5.683   2.710 -0.2842 -1.6634 -0.8956
  190MOL0     H26177   3.276   5.691   2.888 -0.6280 -1.8567  2.0383
  190MOL0     H26178   3.345   5.262   2.773  0.8741  1.3695  2.0237
  190MOL0     H26179   3.663   5.111   2.666  0.4442  2.7327  0.3975
  190MOL0     H26180   3.548   5.155   2.541  2.5061  1.6565 -1.0929
  190MOL0     H26181   3.492   5.090   2.704  0.1557  3.0866  2.4943
  190MOL0     H26182   4.009   5.655   2.630 -0.2179  1.1362 -2.7006
  190MOL0     H26183   4.254   5.668   2.588  0.2111 -0.5294 -1.2164
  190MOL0     H26184   4.595   5.447   2.657  1.1571 -0.2736 -1.2196
  190MOL0     H26185   4.471   5.358   2.745  0.4560  0.9548  1.0337
  190MOL0     H26186   4.612   5.191   2.634 -0.9281 -1.4323  0.2508
  190MOL0     H26187   4.488   5.202   2.507  0.3589 -0.6563  0.4242
  190MOL0     H26188   4.683   5.409   2.454 -0.5874  0.6857 -0.9821
  190MOL0     H26189   4.605   5.291   2.351 -3.2434  0.5525  1.3596
  190MOL0     H26190   4.751   5.106   2.446 -0.3178 -0.0790 -0.2412
  190MOL0     H26191   4.825   5.221   2.549  0.9607  0.3121 -0.4845
  190MOL0     H26192   4.850   5.204   2.247  1.8308 -1.8608  0.7564
  190MOL0     H26193   4.880   5.358   2.319  2.7596 -0.2535 -1.8296
  190MOL0     H26194   5.008   5.100   2.415  0.2723  0.6881  1.2668
  190MOL0     H26195   5.048   5.259   2.473  0.6043 -0.2057 -0.4708
  190MOL0     H26196   5.109   5.332   2.245  1.6503 -0.0997 -0.8205
  190MOL0     H26197   5.081   5.178   2.177  0.7251 -0.9228 -0.2168
  190MOL0     H26198   5.303   5.231   2.220 -1.7428  1.5506 -0.5315
  190MOL0     H26199   5.263   5.088   2.328 -1.7414 -0.1801  0.1412
  190MOL0     H26200   4.285   5.237   2.590  3.0059  1.0410  1.1569
  190MOL0     H26201   4.031   5.221   2.627  1.6409 -1.8448 -1.7898
  190MOL0     H26202   3.697   5.603   2.738 -1.7963  2.0977 -0.3700
  190MOL0     H26203   3.474   5.663   2.804 -2.2893 -0.1729  0.5993
  190MOL0     H26204   1.746   5.643   3.548  0.6857  1.8282  0.3435
  190MOL0     H26205   1.480   5.654   3.551 -3.9963 -3.1805 -2.9693
  190MOL0     H26206   1.123   5.619   3.506  1.0940  1.8555 -1.4737
  190MOL0     H26207   0.886   5.572   3.548  0.7153 -2.6708  0.0464
  190MOL0     H26208   0.576   5.687   3.254  1.8543  0.7860  0.2038
  190MOL0     H26209   0.626   5.544   3.196 -0.5504 -0.2389 -0.0680
  190MOL0     H26210   0.376   5.533   3.264 -0.8766 -0.5466  0.2066
  190MOL0     H26211   0.426   5.606   3.422  2.8538 -0.6765  0.1770
  190MOL0     H26212   0.466   5.317   3.354  2.5753  0.4773  0.3978
  190MOL0     H26213   0.497   5.401   3.509 -0.1544  3.6317 -0.0744
  190MOL0     H26214   0.239   5.383   3.359  0.1473 -0.2262 -0.0453
  190MOL0     H26215   0.235   5.434   3.522 -0.7194  0.6981  0.8631
  190MOL0     H26216   0.215   4.993   3.499  0.8798 -0.5818 -0.2390
  190MOL0     H26217   0.818   5.605   3.132  0.6575 -2.2018  1.8401
  190MOL0     H26218   1.104   5.630   3.014  1.7610  1.8016  1.1484
  190MOL0     H26219   0.947   5.707   2.991  0.2344 -1.9294  0.9965
  190MOL0     H26220   1.085   5.803   3.024 -0.3841  0.7063 -0.9188
  191MOL0     O26221  11.149  10.968  10.515 -0.0883 -0.1246 -0.6908
  191MOL0     C26222  11.204  10.954  10.627 -0.2899 -0.0897 -0.1648
  191MOL0     O26223  11.132  10.942  10.739 -1.0623 -0.7368  0.9733
  191MOL0     C26224  11.003  10.992  10.752  0.4208  0.4072 -0.1185
  191MOL0     C26225  10.976  11.130  10.760  0.2875  0.0422 -0.6763
  191MOL0     C26226  10.843  11.174  10.778  0.1547  0.2564  0.0050
  191MOL0     C26227  10.743  11.088  10.772  0.1732  0.4189  0.2928
  191MOL0     O26228  10.624  11.151  10.766  0.5292 -0.0698  0.0030
  191MOL0     C26229  10.504  11.056  10.764  0.0017  0.1546 -0.4182
  191MOL0     C26230  10.375  11.140  10.784  0.0016  0.7008 -0.9926
  191MOL0     C26231  10.260  11.047  10.761 -1.0994  0.1007  0.6175
  191MOL0     C26232  10.234  10.998  10.609 -0.0322  0.1055 -0.6344
  191MOL0     C26233  10.204  11.121  10.512 -0.0117  0.5590 -0.1569
  191MOL0     C26234  10.177  11.081  10.364 -0.1905  0.7724 -0.8234
  191MOL0     C26235  10.034  11.041  10.324 -0.0339 -0.1357 -0.7236
  191MOL0     C26236   9.969  11.172  10.296  0.1371 -0.2313 -0.4719
  191MOL0     N26237   9.831  11.142  10.257  0.2510  1.0845 -0.3517
  191MOL0     C26238   9.790  11.166  10.132  0.5068 -0.0896 -0.4012
  191MOL0     C26239   9.655  11.144  10.141  0.6303  0.2758 -0.3640
  191MOL0     C26240   9.556  11.166  10.037 -0.2467  0.0885 -0.7695
  191MOL0     C26241   9.484  11.311  10.043 -0.7271  0.7052 -0.2158
  191MOL0     C26242   9.382  11.326   9.922  0.2947 -0.5447 -0.2265
  191MOL0     C26243   9.308  11.461   9.918  0.0280 -0.0452 -0.2254
  191MOL0     O26244   9.397  11.568   9.944 -0.2637  0.1223  0.3349
  191MOL0     C26245   9.369  11.701   9.904 -0.4582 -0.0461  0.5408
  191MOL0     C26246   9.266  11.746   9.825  0.0016  0.3194  0.2351
  191MOL0     C26247   9.233  11.884   9.823  0.0087 -0.3742  0.3158
  191MOL0     C26248   9.106  11.912   9.741  0.6372 -0.0547  0.2854
  191MOL0     C26249   9.332  11.980   9.861  0.6351 -0.3116 -0.6863
  191MOL0     C26250   9.319  12.132   9.853 -0.8576 -0.4339  0.0626
  191MOL0     O26251   9.416  12.202   9.917 -0.0515 -0.0447 -0.9496
  191MOL0     C26252   9.422  12.333   9.884 -0.4215 -0.3193 -0.2249
  191MOL0     C26253   9.332  12.431   9.943 -0.1318 -0.2260  1.0476
  191MOL0     C26254   9.341  12.569   9.926 -0.1500 -0.5159 -0.0444
  191MOL0     C26255   9.442  12.613   9.843 -1.0541 -0.4385  0.2080
  191MOL0     O26256   9.458  12.753   9.818  0.3663 -0.0823 -0.1577
  191MOL0     C26257   9.337  12.825   9.773 -0.0195 -1.0899  0.5400
  191MOL0     C26258   9.354  12.978   9.759 -0.4629 -0.1519  0.1126
  191MOL0     C26259   9.360  13.037   9.902 -0.5197  0.3405  0.1176
  191MOL0     C26260   9.417  13.177   9.899  0.4731  0.0416  0.0005
  191MOL0     C26261   9.344  13.283   9.815 -0.2244 -0.2244  0.0129
  191MOL0     C26262   9.425  13.410   9.802  0.6241 -0.8929 -0.4998
  191MOL0     C26263   9.443  13.481   9.934 -0.3935  0.3793  0.6443
  191MOL0     C26264   9.510  13.619   9.918 -1.2319  0.3958 -0.5679
  191MOL0    Cl26265   9.681  13.572   9.876 -0.2943 -0.4688 -0.3322
  191MOL0     C26266   9.536  12.524   9.791  0.0653  0.0541  0.3207
  191MOL0     C26267   9.525  12.388   9.805  0.6314  0.3785 -0.3920
  191MOL0     O26268   9.234  12.188   9.784 -0.0275  0.0160  0.2699
  191MOL0     C26269   9.441  11.927   9.933  0.1189 -0.6244 -0.5659
  191MOL0     C26270   9.459  11.793   9.958  0.1862  0.3974 -0.3652
  191MOL0     N26271   9.618  11.114  10.277 -0.4345 -0.0986 -0.8062
  191MOL0     N26272   9.725  11.110  10.338  0.1812  0.1499  0.3425
  191MOL0     C26273  10.765  10.949  10.752 -0.0229  0.5592  0.0254
  191MOL0     C26274  10.897  10.901  10.750 -0.5600  0.2175 -0.7876
  191MOL0     C26275  11.349  10.931  10.632 -0.1875 -0.0253  0.0192
  191MOL0     C26276  11.404  10.871  10.748  0.7394  0.0718 -0.1213
  191MOL0     C26277  11.533  10.867  10.781  0.1958 -0.5452  0.1411
  191MOL0     C26278  11.627  10.914  10.684  0.3531  0.1329  0.0782
  191MOL0     O26279  11.766  10.886  10.687  0.3959 -0.5381 -0.9610
  191MOL0     C26280  11.822  10.846  10.823  0.3009 -0.7753  0.4680
  191MOL0     C26281  11.960  10.900  10.840 -0.2026  0.2597 -0.3086
  191MOL0     C26282  11.991  10.878  10.991 -0.9266 -0.4831  1.3417
  191MOL0     C26283  12.123  10.958  11.010 -0.9119 -0.3185 -0.5187
  191MOL0     C26284  12.184  10.906  11.132  0.3072 -0.3132  0.0930
  191MOL0     C26285  12.210  10.867  11.247 -0.1344 -0.3140  0.5463
  191MOL0     C26286  11.575  10.976  10.566 -0.1208 -0.4738 -0.2699
  191MOL0     C26287  11.439  10.991  10.542 -0.1117  0.4809 -0.3634
  191MOL0     C26288  11.399  11.064  10.419 -0.4606  0.0607  0.2780
  191MOL0     H26289  11.051  11.207  10.744 -1.1387  1.3117 -1.5031
  191MOL0     H26290  10.819  11.280  10.786 -0.0874  0.3192 -1.3944
  191MOL0     H26291  10.508  10.977  10.839 -2.1016 -0.3661 -0.8141
  191MOL0     H26292  10.502  10.998  10.671 -1.1111 -1.9182  0.8333
  191MOL0     H26293  10.377  11.158  10.892 -1.9966 -4.0079  0.0637
  191MOL0     H26294  10.367  11.238  10.736  1.6808  0.6655 -1.4029
  191MOL0     H26295  10.267  10.959  10.825  0.0578 -0.2877 -0.0253
  191MOL0     H26296  10.167  11.095  10.793 -0.4482  1.3548  0.7160
  191MOL0     H26297  10.307  10.937  10.555  1.7815 -1.2035  2.9187
  191MOL0     H26298  10.138  10.946  10.616  0.5561 -0.9192  0.1469
  191MOL0     H26299  10.285  11.192  10.527  0.0402  1.1221 -2.7377
  191MOL0     H26300  10.120  11.179  10.551 -2.1105 -2.0516 -0.4429
  191MOL0     H26301  10.215  11.168  10.310 -1.1664  1.3465 -0.5973
  191MOL0     H26302  10.250  11.006  10.331 -0.5078  0.1498 -0.1210
  191MOL0     H26303   9.987  10.991  10.410 -2.8960 -0.3499 -2.3018
  191MOL0     H26304  10.038  10.973  10.239 -0.6351 -1.1949  0.0640
  191MOL0     H26305   9.971  11.241  10.380  0.5556  1.5821 -1.9015
  191MOL0     H26306  10.026  11.224  10.218  2.0472 -1.7263 -0.1315
  191MOL0     H26307   9.841  11.192  10.040  0.5383  0.6084 -0.1977
  191MOL0     H26308   9.477  11.092  10.053 -0.3071  0.3928  0.4362
  191MOL0     H26309   9.603  11.149   9.940  0.1324  1.9804 -0.9471
  191MOL0     H26310   9.434  11.316  10.140 -1.8941  0.8919 -0.8109
  191MOL0     H26311   9.558  11.392  10.040  3.0719 -2.3863  1.1421
  191MOL0     H26312   9.438  11.306   9.831 -0.4846 -0.3814 -0.7594
  191MOL0     H26313   9.292  11.263   9.925 -0.9030  1.0346 -1.1472
  191MOL0     H26314   9.269  11.491   9.821  1.8719  2.7053 -0.2510
  191MOL0     H26315   9.230  11.467   9.995  2.2235  2.0938  2.0451
  191MOL0     H26316   9.198  11.669   9.788 -1.8665  1.3320  1.3945
  191MOL0     H26317   9.099  11.871   9.640  1.0462 -0.3584  0.3783
  191MOL0     H26318   9.075  12.017   9.743 -1.5838 -0.6382 -0.3422
  191MOL0     H26319   9.021  11.876   9.800 -0.2884  1.7509  0.1529
  191MOL0     H26320   9.249  12.392  10.001  0.2496 -1.2550  0.9268
  191MOL0     H26321   9.276  12.633   9.983 -0.5940  0.1919 -1.2936
  191MOL0     H26322   9.298  12.789   9.677  2.2407  0.8734 -1.2156
  191MOL0     H26323   9.268  12.801   9.855  1.8319 -1.1038  2.1686
  191MOL0     H26324   9.425  13.018   9.686 -1.5836  0.6333 -0.5673
  191MOL0     H26325   9.261  13.011   9.712  0.2754 -2.2203 -3.0990
  191MOL0     H26326   9.423  12.976   9.967 -3.0887 -0.9094  1.5961
  191MOL0     H26327   9.263  13.043   9.952  0.2699  1.0924  1.6429
  191MOL0     H26328   9.515  13.166   9.852  0.8635  0.3802  0.7149
  191MOL0     H26329   9.419  13.216  10.001  0.1626 -1.3670  0.5651
  191MOL0     H26330   9.333  13.249   9.712  3.4306 -0.2875 -0.4628
  191MOL0     H26331   9.245  13.294   9.862 -0.2391 -1.0467  0.2037
  191MOL0     H26332   9.378  13.486   9.738 -0.6021 -1.3813 -0.1907
  191MOL0     H26333   9.514  13.383   9.744 -0.2892 -2.0885 -1.4084
  191MOL0     H26334   9.504  13.425  10.006  0.6599 -0.0120 -0.5156
  191MOL0     H26335   9.345  13.494   9.981  0.6679  1.2445  2.7471
  191MOL0     H26336   9.513  13.661  10.019 -0.5956  0.5780 -0.6598
  191MOL0     H26337   9.464  13.693   9.851 -1.5134  2.6265  1.9200
  191MOL0     H26338   9.618  12.560   9.730  1.7988 -2.6936  0.8119
  191MOL0     H26339   9.595  12.314   9.767 -1.3661 -1.3981 -0.8555
  191MOL0     H26340   9.523  11.988   9.970 -1.0998  0.3791  0.5892
  191MOL0     H26341   9.554  11.763  10.000  1.0915 -1.0440 -3.1988
  191MOL0     H26342  10.688  10.885  10.712  2.5252 -3.0412  0.3625
  191MOL0     H26343  10.915  10.795  10.738  1.6056  0.5628 -1.0497
  191MOL0     H26344  11.335  10.828  10.820 -1.3234  4.6481  1.0506
  191MOL0     H26345  11.571  10.837  10.878  0.4975  2.2868  0.9953
  191MOL0     H26346  11.763  10.897  10.900 -3.9177 -2.4619 -1.3306
  191MOL0     H26347  11.817  10.738  10.836  1.8936 -0.9328 -0.1425
  191MOL0     H26348  11.957  11.007  10.818  0.3928  0.2562 -0.4217
  191MOL0     H26349  12.034  10.851  10.776 -0.5107  0.3578 -0.7404
  191MOL0     H26350  11.919  10.925  11.059  1.1566  4.8058  0.3457
  191MOL0     H26351  12.013  10.772  11.009 -0.6041 -0.9687 -1.4720
  191MOL0     H26352  12.092  11.062  11.019  1.7329  0.4317  1.0830
  191MOL0     H26353  12.189  10.938  10.925  0.6011 -1.2595  0.8011
  191MOL0     H26354  12.235  10.820  11.341 -2.2136 -0.0491  1.2965
  191MOL0     H26355  11.646  11.032  10.508 -0.5938  0.2051 -0.2049
  191MOL0     H26356  11.340  11.000  10.354 -0.0925  0.8574 -0.8659
  191MOL0     H26357  11.342  11.151  10.454  0.0041  0.7958 -0.7485
  191MOL0     H26358  11.488  11.103  10.370 -0.0421 -0.3095  0.7327
  192MOL0     O26359   9.344   3.576   2.687  0.5390 -0.1032 -0.1764
  192MOL0     C26360   9.284   3.530   2.787 -0.5806 -0.3256 -0.2092
  192MOL0     O26361   9.320   3.549   2.917 -0.0928 -0.9001  0.3075
  192MOL0     C26362   9.429   3.618   2.961  0.9106 -0.9718 -0.1121
  192MOL0     C26363   9.521   3.691   2.883 -1.1781  0.2894 -0.2968
  192MOL0     C26364   9.631   3.752   2.944  0.7438  0.1481  0.7453
  192MOL0     C26365   9.650   3.739   3.080 -1.0519  0.0657  0.6133
  192MOL0     O26366   9.758   3.801   3.149  0.1815  0.1733 -0.0185
  192MOL0     C26367   9.873   3.868   3.097 -0.1473  0.6123  0.5352
  192MOL0     C26368   9.951   3.910   3.221 -0.9079  0.4017  0.8150
  192MOL0     C26369  10.054   3.795   3.252 -0.3609 -0.4878  0.8588
  192MOL0     C26370  10.195   3.851   3.255 -0.2134  0.7193 -0.2705
  192MOL0     C26371  10.311   3.763   3.246 -0.2718  0.7448 -0.8122
  192MOL0     C26372  10.313   3.664   3.368  0.3741 -0.1183  0.7492
  192MOL0     C26373  10.439   3.576   3.354 -0.8453  0.3360 -0.0055
  192MOL0     C26374  10.567   3.645   3.382 -0.7209 -0.0599  0.5356
  192MOL0     N26375  10.565   3.717   3.508 -0.3416 -0.1183  0.5823
  192MOL0     C26376  10.523   3.670   3.630 -0.3455 -0.5750  0.7455
  192MOL0     C26377  10.521   3.779   3.709 -0.1614 -0.1678  0.1404
  192MOL0     C26378  10.475   3.776   3.854 -0.7715  0.3207  0.0974
  192MOL0     C26379  10.413   3.647   3.901 -0.5422  0.4821  0.4587
  192MOL0     C26380  10.370   3.668   4.048  1.4096  0.2259  0.7264
  192MOL0     C26381  10.387   3.539   4.134 -0.0816  0.0784  0.3605
  192MOL0     O26382  10.323   3.429   4.061  0.3586  0.4819 -1.0274
  192MOL0     C26383  10.326   3.309   4.126 -0.6435  0.4306 -0.4684
  192MOL0     C26384  10.352   3.282   4.261 -0.0929  0.9679 -0.1994
  192MOL0     C26385  10.345   3.151   4.305  0.6726 -0.5513  0.5497
  192MOL0     C26386  10.373   3.129   4.448 -1.0716 -0.4813  0.1874
  192MOL0     C26387  10.322   3.042   4.213  0.5728 -0.8071  0.4220
  192MOL0     C26388  10.318   2.899   4.257 -0.1294 -0.3876  0.3394
  192MOL0     O26389  10.414   2.819   4.196 -0.2660 -0.1117 -0.0258
  192MOL0     C26390  10.391   2.682   4.194 -0.8560  0.1308 -0.0364
  192MOL0     C26391  10.489   2.594   4.244  0.2860 -0.4833 -0.6204
  192MOL0     C26392  10.483   2.450   4.228  0.4815  0.2603  0.0073
  192MOL0     C26393  10.371   2.396   4.175 -0.4499 -0.0261 -0.1061
  192MOL0     O26394  10.342   2.266   4.153 -0.9009 -0.0521  0.4489
  192MOL0     C26395  10.406   2.159   4.231  0.5661 -0.4009 -0.4292
  192MOL0     C26396  10.411   2.028   4.156  0.5302  0.3546  1.4100
  192MOL0     C26397  10.275   2.005   4.074 -0.6576 -0.1931 -0.0037
  192MOL0     C26398  10.254   1.857   4.052 -0.6964 -0.4465 -0.5384
  192MOL0     C26399  10.113   1.850   4.001 -0.1039 -0.8979 -0.6461
  192MOL0     C26400  10.067   1.701   4.010 -0.5721 -0.1814 -0.4585
  192MOL0     C26401  10.137   1.615   3.902 -0.2879  0.7150  0.5408
  192MOL0     C26402  10.090   1.468   3.916 -0.4026 -0.0740  0.7337
  192MOL0    Cl26403   9.909   1.446   3.883  0.4882 -0.6464 -0.2841
  192MOL0     C26404  10.272   2.484   4.142 -0.4435 -0.5434  1.0703
  192MOL0     C26405  10.277   2.616   4.150 -0.6335  0.0113  0.1465
  192MOL0     O26406  10.225   2.865   4.323  0.5223  0.3471 -0.2561
  192MOL0     C26407  10.303   3.069   4.078  0.1054  0.0886 -0.3258
  192MOL0     C26408  10.307   3.199   4.041  0.1437 -0.3010  0.0720
  192MOL0     N26409  10.559   3.886   3.635  0.5584  0.1191  0.0098
  192MOL0     N26410  10.582   3.852   3.513  0.0142 -0.0729 -0.8481
  192MOL0     C26411   9.552   3.674   3.159  0.6776 -0.3051 -0.5094
  192MOL0     C26412   9.441   3.608   3.105 -0.5932  0.6778 -0.3882
  192MOL0     C26413   9.162   3.434   2.767  0.3649 -1.9359 -0.0696
  192MOL0     C26414   9.100   3.384   2.883  0.0892  0.0382 -0.1261
  192MOL0     C26415   8.988   3.295   2.884  0.0198  0.5854  0.1875
  192MOL0     C26416   8.933   3.258   2.758 -0.4567  0.2771  0.5392
  192MOL0     O26417   8.833   3.176   2.738  0.5374  0.0324 -0.3607
  192MOL0     C26418   8.761   3.111   2.838 -0.0521 -0.8114  0.2212
  192MOL0     C26419   8.791   2.965   2.829  0.1337 -0.3244 -0.9032
  192MOL0     C26420   8.926   2.936   2.900 -0.9791  0.6191  0.5738
  192MOL0     C26421   8.947   2.783   2.912  0.0910 -0.0466  0.5589
  192MOL0     C26422   9.078   2.740   2.945 -0.5277 -0.3556 -0.2589
  192MOL0     C26423   9.189   2.706   2.977 -0.4094  0.4964 -0.5038
  192MOL0     C26424   8.997   3.310   2.641  0.3439 -0.0290  0.2338
  192MOL0     C26425   9.102   3.406   2.645 -0.1341  0.8548  0.1179
  192MOL0     C26426   9.162   3.438   2.509 -0.3617  0.8579  0.1694
  192MOL0     H26427   9.516   3.705   2.776 -0.6357  1.4773 -0.1820
  192MOL0     H26428   9.705   3.796   2.879  1.2779 -1.6993  0.0480
  192MOL0     H26429   9.845   3.965   3.053 -1.0393  0.7208  1.3040
  192MOL0     H26430   9.928   3.797   3.036 -1.6880 -2.4399  2.4600
  192MOL0     H26431  10.006   4.003   3.202  3.8248 -2.0158  1.1826
  192MOL0     H26432   9.886   3.923   3.308 -0.6143 -0.4148  1.1641
  192MOL0     H26433  10.030   3.734   3.339 -2.2504 -1.4105 -0.2347
  192MOL0     H26434  10.048   3.719   3.174 -0.1245 -0.8447  1.1896
  192MOL0     H26435  10.197   3.903   3.159  0.7796  1.2049  0.0018
  192MOL0     H26436  10.209   3.921   3.338 -3.4663  2.3313 -0.8785
  192MOL0     H26437  10.399   3.826   3.232 -1.5428  2.4539 -1.4991
  192MOL0     H26438  10.306   3.703   3.155  2.4372 -1.9847  0.6525
  192MOL0     H26439  10.313   3.709   3.467  1.6152 -1.8479  1.5931
  192MOL0     H26440  10.240   3.583   3.366  1.4487 -1.2020  2.5306
  192MOL0     H26441  10.446   3.539   3.252 -0.7675 -0.9142  0.4314
  192MOL0     H26442  10.418   3.493   3.423 -1.5120  0.6833  0.2228
  192MOL0     H26443  10.653   3.578   3.390  0.7663  1.7959  0.5110
  192MOL0     H26444  10.592   3.716   3.303 -0.3461 -0.2555  0.4762
  192MOL0     H26445  10.493   3.568   3.651 -0.9563 -0.3672  0.9034
  192MOL0     H26446  10.398   3.854   3.861 -1.4780 -0.5036  2.4951
  192MOL0     H26447  10.564   3.799   3.913 -0.8825  0.6639  0.1350
  192MOL0     H26448  10.329   3.610   3.842 -1.2633  1.4340  0.8752
  192MOL0     H26449  10.494   3.574   3.892 -1.5571 -0.4545 -1.8255
  192MOL0     H26450  10.432   3.741   4.099  1.5819  0.1153  0.6752
  192MOL0     H26451  10.267   3.706   4.040  0.8571 -1.5982 -2.9035
  192MOL0     H26452  10.491   3.516   4.159  1.1251  4.2404 -0.1965
  192MOL0     H26453  10.336   3.560   4.229  0.1352 -0.0468  0.5070
  192MOL0     H26454  10.384   3.364   4.325  0.0575  1.0588 -0.3910
  192MOL0     H26455  10.349   3.032   4.493  1.1728 -0.6668  1.1277
  192MOL0     H26456  10.327   3.206   4.511  1.1734  0.7733  0.4028
  192MOL0     H26457  10.481   3.122   4.463 -1.1613 -0.6722  0.7581
  192MOL0     H26458  10.584   2.632   4.280 -0.2916 -2.8092  4.1769
  192MOL0     H26459  10.573   2.392   4.246 -0.1066 -1.0192 -0.9442
  192MOL0     H26460  10.504   2.195   4.264  0.2651  1.4493 -1.4519
  192MOL0     H26461  10.347   2.134   4.319 -0.8421 -0.3058 -1.3193
  192MOL0     H26462  10.487   2.031   4.078 -0.9155  0.8416 -0.0426
  192MOL0     H26463  10.436   1.944   4.220  0.0406 -2.2708 -1.6090
  192MOL0     H26464  10.279   2.060   3.979 -1.7101  2.7580  1.5103
  192MOL0     H26465  10.198   2.057   4.132  2.7829  2.4793  2.6269
  192MOL0     H26466  10.263   1.800   4.145  0.0373 -0.5367 -0.6637
  192MOL0     H26467  10.330   1.826   3.980  0.7380  0.0010  0.7349
  192MOL0     H26468  10.047   1.913   4.061  0.4635 -1.8754  1.0494
  192MOL0     H26469  10.102   1.883   3.897 -0.7695 -0.9795 -0.6028
  192MOL0     H26470   9.961   1.712   3.985 -0.5876 -0.1599 -0.3849
  192MOL0     H26471  10.086   1.666   4.111 -2.2817 -0.5097 -0.2149
  192MOL0     H26472  10.244   1.628   3.916 -0.2491  1.5226 -0.3687
  192MOL0     H26473  10.111   1.649   3.801  0.7725 -2.2453 -0.8270
  192MOL0     H26474  10.111   1.422   4.013  0.8397 -0.5638  0.2453
  192MOL0     H26475  10.142   1.409   3.840 -0.8192  0.9983 -0.4239
  192MOL0     H26476  10.177   2.439   4.113 -2.9174  4.0424  1.1723
  192MOL0     H26477  10.196   2.674   4.108  0.0177 -0.0476 -1.2653
  192MOL0     H26478  10.291   2.989   4.006  0.6540  1.9427 -2.6206
  192MOL0     H26479  10.284   3.231   3.940 -1.1746  0.3579  0.5535
  192MOL0     H26480   9.570   3.675   3.267  0.1215 -0.2343 -0.4184
  192MOL0     H26481   9.361   3.553   3.152 -1.6776  2.1561 -0.4469
  192MOL0     H26482   9.141   3.412   2.979  0.7357 -0.4979 -0.2335
  192MOL0     H26483   8.941   3.241   2.965  0.7702 -0.4766 -0.0579
  192MOL0     H26484   8.768   3.144   2.942 -0.8777 -0.9458  0.3283
  192MOL0     H26485   8.654   3.127   2.817 -0.3064 -2.4255  0.2130
  192MOL0     H26486   8.798   2.935   2.724 -0.8727 -3.0207 -0.2606
  192MOL0     H26487   8.707   2.930   2.889  0.6622 -0.2946 -0.1288
  192MOL0     H26488   9.008   2.966   2.835 -1.8665 -0.7782 -1.2661
  192MOL0     H26489   8.931   2.992   2.994  2.7353  3.3830 -1.0033
  192MOL0     H26490   8.897   2.748   2.821 -4.7320 -0.4413  3.0382
  192MOL0     H26491   8.881   2.745   2.991  1.8473  0.4040  2.3344
  192MOL0     H26492   9.291   2.673   2.982 -0.3821  0.6620  0.2163
  192MOL0     H26493   8.984   3.270   2.540  1.3773 -0.4454  0.2596
  192MOL0     H26494   9.105   3.411   2.420  1.0158  1.3817 -0.8938
  192MOL0     H26495   9.168   3.547   2.512  0.0599  0.8487  3.0338
  192MOL0     H26496   9.260   3.395   2.489 -0.5993  1.2474 -2.0730
  193MOL0     O26497   9.147   5.118  10.475  0.6885  0.2499  0.2626
  193MOL0     C26498   9.179   5.207  10.397  0.2685 -0.6489 -0.2441
  193MOL0     O26499   9.117   5.235  10.272 -0.1029  0.6315 -0.2992
  193MOL0     C26500   9.000   5.176  10.231 -0.3105  0.7798 -0.2195
  193MOL0     C26501   9.000   5.076  10.129 -0.1777  0.1234 -0.4101
  193MOL0     C26502   8.884   5.010  10.096  0.3043 -0.0020 -0.6301
  193MOL0     C26503   8.763   5.058  10.143  0.4814 -0.8779 -0.5083
  193MOL0     O26504   8.645   5.007  10.101  0.3390  0.7356 -0.5218
  193MOL0     C26505   8.580   4.920  10.200  0.5432  0.0326 -0.2186
  193MOL0     C26506   8.500   4.817  10.114 -0.9391 -0.5813 -0.0719
  193MOL0     C26507   8.427   4.703  10.185  0.2389 -0.0343  0.4813
  193MOL0     C26508   8.282   4.741  10.231  0.8941  0.8063  0.2327
  193MOL0     C26509   8.182   4.635  10.279 -1.0571  0.4510  0.0625
  193MOL0     C26510   8.227   4.524  10.373 -0.6479 -0.5511  0.1422
  193MOL0     C26511   8.125   4.414  10.375 -0.1510  0.0215  0.0291
  193MOL0     C26512   8.166   4.301  10.479  0.1336  0.8464 -0.4772
  193MOL0     N26513   8.197   4.364  10.614  0.7132 -1.5264 -0.6987
  193MOL0     C26514   8.103   4.409  10.703  0.0555  0.4822  0.6470
  193MOL0     C26515   8.170   4.447  10.813 -0.2970 -0.5764 -0.7213
  193MOL0     C26516   8.115   4.515  10.930  0.2420 -0.1219  0.5759
  193MOL0     C26517   8.170   4.443  11.057  0.5557  0.0732 -0.5971
  193MOL0     C26518   8.293   4.498  11.121 -0.4873  0.5072 -0.0379
  193MOL0     C26519   8.314   4.477  11.274  0.2989  0.7504 -0.3696
  193MOL0     O26520   8.330   4.336  11.306 -0.0609  1.0879 -0.6152
  193MOL0     C26521   8.461   4.297  11.357  0.1144  0.6367 -0.9139
  193MOL0     C26522   8.479   4.215  11.469 -0.1983  0.2883  0.4930
  193MOL0     C26523   8.615   4.190  11.519 -0.6255  0.1768 -0.0964
  193MOL0     C26524   8.617   4.117  11.656  0.1728 -0.5909  0.0916
  193MOL0     C26525   8.731   4.230  11.444  0.3029  0.4528 -0.0716
  193MOL0     C26526   8.872   4.202  11.480  0.6880  0.3574  0.3771
  193MOL0     O26527   8.905   4.118  11.585 -0.1102 -0.9969  0.4184
  193MOL0     C26528   9.036   4.105  11.624 -0.2583 -0.7952 -0.7935
  193MOL0     C26529   9.077   4.161  11.745 -0.0125 -0.1780 -0.1906
  193MOL0     C26530   9.206   4.126  11.799  0.2261 -0.3267  0.2186
  193MOL0     C26531   9.291   4.039  11.718 -0.1317 -0.0538 -0.5036
  193MOL0     O26532   9.416   4.012  11.770  0.0615 -0.1739 -0.0164
  193MOL0     C26533   9.516   3.937  11.697 -0.1847  0.4414 -0.6538
  193MOL0     C26534   9.621   3.867  11.787 -0.4016  0.0159 -0.7527
  193MOL0     C26535   9.730   3.969  11.816  0.0292 -0.9060  0.0435
  193MOL0     C26536   9.849   3.899  11.891  0.9240 -0.2080  0.1294
  193MOL0     C26537   9.973   3.993  11.861 -0.2508 -0.7447  0.5779
  193MOL0     C26538   9.965   4.122  11.959 -0.4198 -0.5108 -0.5741
  193MOL0     C26539  10.084   4.207  11.939 -0.2324 -0.3566 -0.1878
  193MOL0     C26540  10.085   4.334  12.028 -0.1600 -0.6526 -0.5194
  193MOL0    Cl26541   9.937   4.417  12.046 -0.1685  0.1655  0.0323
  193MOL0     C26542   9.244   4.007  11.595 -0.8565 -0.6280 -0.2097
  193MOL0     C26543   9.120   4.034  11.544 -0.4792 -0.0350  0.3953
  193MOL0     O26544   8.950   4.282  11.422 -0.3566  0.2468 -0.0522
  193MOL0     C26545   8.705   4.295  11.324 -0.6058  0.8596 -0.3096
  193MOL0     C26546   8.579   4.335  11.291  0.2425  0.0809 -0.0792
  193MOL0     N26547   8.302   4.416  10.781 -0.1096  0.2352  0.7937
  193MOL0     N26548   8.321   4.362  10.667 -0.8501 -0.0307  0.1352
  193MOL0     C26549   8.760   5.151  10.253  0.5240  0.0974 -0.2672
  193MOL0     C26550   8.883   5.209  10.299 -0.1208 -0.7026 -0.0179
  193MOL0     C26551   9.330   5.239  10.392 -0.0269 -0.9188 -1.1031
  193MOL0     C26552   9.403   5.236  10.277 -0.1363  0.2551  1.2712
  193MOL0     C26553   9.545   5.253  10.281  0.0332 -0.2139  0.5028
  193MOL0     C26554   9.616   5.276  10.391  0.7342 -0.3078  0.3698
  193MOL0     O26555   9.755   5.265  10.390  0.0116 -0.1375 -0.0176
  193MOL0     C26556   9.806   5.163  10.480  0.3774  0.9777 -0.3901
  193MOL0     C26557   9.952   5.119  10.439  0.0488  0.0251 -0.0610
  193MOL0     C26558   9.989   4.989  10.515  0.4485  0.5200  0.9528
  193MOL0     C26559  10.124   4.932  10.482 -0.5361 -0.7059  1.1658
  193MOL0     C26560  10.230   5.022  10.534  0.3849 -0.1384  0.5057
  193MOL0     C26561  10.321   5.101  10.557  0.3344 -0.1902  1.0706
  193MOL0     C26562   9.547   5.277  10.510  0.4343 -0.2444  0.9242
  193MOL0     C26563   9.408   5.266  10.516  0.1976  0.1156  0.2110
  193MOL0     C26564   9.344   5.275  10.648  0.5055  0.0022  0.0674
  193MOL0     H26565   9.085   5.047  10.069 -0.3065 -3.5353  0.9264
  193MOL0     H26566   8.876   4.932  10.022 -4.3539 -1.7318  1.3533
  193MOL0     H26567   8.514   4.986  10.258  1.2345  0.6779 -0.1445
  193MOL0     H26568   8.657   4.872  10.261  0.9365  0.6010 -0.2521
  193MOL0     H26569   8.425   4.874  10.060  1.2681  1.3385 -1.3065
  193MOL0     H26570   8.575   4.776  10.046 -1.1562 -0.3392 -0.4601
  193MOL0     H26571   8.432   4.614  10.122 -0.0334  0.1003  0.2661
  193MOL0     H26572   8.477   4.672  10.277  2.0361 -0.4143 -0.5798
  193MOL0     H26573   8.283   4.819  10.308  1.2442  3.2941 -2.1194
  193MOL0     H26574   8.234   4.801  10.153  1.4885  1.8522  0.6548
  193MOL0     H26575   8.133   4.596  10.190 -1.2000  1.2833 -0.2361
  193MOL0     H26576   8.114   4.700  10.335 -1.9167 -1.8689  1.8486
  193MOL0     H26577   8.322   4.484  10.337  1.4705  1.2527  3.3377
  193MOL0     H26578   8.234   4.561  10.476 -2.2268 -0.9340  0.4161
  193MOL0     H26579   8.112   4.371  10.275  1.7771 -2.9318  0.9423
  193MOL0     H26580   8.028   4.453  10.407  0.0388  1.3670 -0.9321
  193MOL0     H26581   8.082   4.232  10.478 -0.1727  1.1890 -2.1254
  193MOL0     H26582   8.256   4.247  10.447  0.0422  1.0930 -1.1701
  193MOL0     H26583   7.996   4.416  10.687  0.2195  1.1591 -0.2162
  193MOL0     H26584   8.006   4.509  10.930 -0.0064  2.2155 -2.2190
  193MOL0     H26585   8.133   4.623  10.932 -0.6607  0.0372  0.4012
  193MOL0     H26586   8.093   4.473  11.129 -1.3594 -1.6371 -1.8074
  193MOL0     H26587   8.191   4.335  11.053  1.4543  0.1856  0.6505
  193MOL0     H26588   8.386   4.450  11.089  0.0926  1.9007 -0.4882
  193MOL0     H26589   8.307   4.604  11.098  2.8313 -0.2846 -2.2663
  193MOL0     H26590   8.402   4.529  11.312  0.6648 -0.9731  1.2851
  193MOL0     H26591   8.226   4.505  11.331 -0.0155  0.7073 -0.8233
  193MOL0     H26592   8.384   4.197  11.517  1.3498 -1.9307  3.0245
  193MOL0     H26593   8.683   4.173  11.723  1.0120 -0.5310 -0.7694
  193MOL0     H26594   8.638   4.009  11.650  0.9376 -0.3916 -1.2439
  193MOL0     H26595   8.516   4.130  11.695  0.2876  0.6415  0.0140
  193MOL0     H26596   9.009   4.234  11.787  3.0581  1.7268  1.8455
  193MOL0     H26597   9.224   4.169  11.897  0.9483  1.4520 -0.6274
  193MOL0     H26598   9.467   3.854  11.645  0.4938  0.4324 -1.2878
  193MOL0     H26599   9.556   3.997  11.614 -2.2506  0.4252 -1.7346
  193MOL0     H26600   9.570   3.839  11.880 -2.5027  1.2908 -1.4330
  193MOL0     H26601   9.664   3.778  11.742  0.5801 -1.2072  2.3512
  193MOL0     H26602   9.679   4.052  11.865 -1.5364 -1.9547  0.2678
  193MOL0     H26603   9.770   4.006  11.720  0.0906 -1.8639 -0.3127
  193MOL0     H26604   9.867   3.801  11.846 -1.5158 -0.6284 -0.0162
  193MOL0     H26605   9.819   3.876  11.994 -1.6880 -1.5644 -0.8580
  193MOL0     H26606  10.065   3.943  11.896  1.5469  1.6136 -0.5228
  193MOL0     H26607   9.972   4.027  11.758 -0.4281 -1.3034  0.3909
  193MOL0     H26608   9.965   4.094  12.064  2.8046 -1.1919 -0.6489
  193MOL0     H26609   9.874   4.182  11.948 -0.7188 -0.9004 -0.2528
  193MOL0     H26610  10.096   4.250  11.840  1.9038  1.4888  0.7740
  193MOL0     H26611  10.174   4.148  11.963 -0.2284 -0.8590 -1.3924
  193MOL0     H26612  10.151   4.410  11.985 -2.4044  2.0450  0.4294
  193MOL0     H26613  10.124   4.330  12.130 -0.7534  3.6200  0.0879
  193MOL0     H26614   9.323   3.956  11.540 -2.1420 -1.5447 -1.2758
  193MOL0     H26615   9.092   4.012  11.442 -2.7379  1.8827  0.5165
  193MOL0     H26616   8.783   4.322  11.254 -0.0190  0.8061  0.3194
  193MOL0     H26617   8.549   4.391  11.203 -2.5449  0.3393  0.9190
  193MOL0     H26618   8.661   5.183  10.287  1.0743  2.4651 -0.7139
  193MOL0     H26619   8.889   5.290  10.371 -1.5083 -1.2113  0.7014
  193MOL0     H26620   9.362   5.199  10.183 -2.2197  2.5539  1.1678
  193MOL0     H26621   9.596   5.237  10.186 -1.3341 -1.4412 -0.0639
  193MOL0     H26622   9.807   5.201  10.583  0.1119 -0.2589  0.0891
  193MOL0     H26623   9.743   5.073  10.476 -0.6370  1.6537 -0.2440
  193MOL0     H26624  10.024   5.199  10.461 -1.9620  1.8306  0.2784
  193MOL0     H26625   9.954   5.104  10.331  0.9041  0.7239 -0.1522
  193MOL0     H26626   9.970   4.982  10.623  0.4277 -2.4662  0.8272
  193MOL0     H26627   9.920   4.918  10.469  0.9077  0.8575 -0.3065
  193MOL0     H26628  10.119   4.943  10.373 -1.0189 -0.8547  1.1745
  193MOL0     H26629  10.117   4.828  10.514 -0.5147 -1.0316  0.1532
  193MOL0     H26630  10.409   5.161  10.563 -1.0174  1.7880  2.5813
  193MOL0     H26631   9.617   5.291  10.591  0.3537 -2.1072  1.3689
  193MOL0     H26632   9.410   5.319  10.724 -2.6921  0.3838  2.8367
  193MOL0     H26633   9.245   5.321  10.649  0.9361  0.9532  0.5163
  193MOL0     H26634   9.334   5.172  10.683  0.9338 -0.4419 -1.0869
  194MOL0     O26635   7.298   8.719   4.253  0.7297 -0.0350  0.1131
  194MOL0     C26636   7.282   8.821   4.315 -0.1515  0.5458  0.0201
  194MOL0     O26637   7.370   8.924   4.325  0.5010 -0.7357 -0.0598
  194MOL0     C26638   7.504   8.904   4.297  0.4170 -0.7786  0.0612
  194MOL0     C26639   7.559   8.990   4.198 -1.0929 -0.7546  0.3076
  194MOL0     C26640   7.700   8.975   4.169 -0.0686 -0.1003  1.0190
  194MOL0     C26641   7.778   8.877   4.237 -0.2556 -0.7279  0.2586
  194MOL0     O26642   7.912   8.872   4.212 -0.2497 -0.5285 -0.3596
  194MOL0     C26643   7.962   8.737   4.212 -0.0410 -0.8913  0.2725
  194MOL0     C26644   8.046   8.731   4.084  0.0024 -0.0404 -0.5323
  194MOL0     C26645   8.157   8.624   4.092 -0.5080 -0.0315  0.5816
  194MOL0     C26646   8.215   8.598   3.952  1.6743 -0.4784  0.8993
  194MOL0     C26647   8.244   8.717   3.864 -0.2630  0.5650  0.0788
  194MOL0     C26648   8.351   8.682   3.758  0.3216 -0.5623  0.6270
  194MOL0     C26649   8.360   8.800   3.655 -0.0355  1.2820  0.0161
  194MOL0     C26650   8.470   8.780   3.541  0.0904  0.7959 -0.5024
  194MOL0     N26651   8.593   8.710   3.586 -0.0249 -0.0876 -1.0383
  194MOL0     C26652   8.663   8.742   3.709  0.3913 -0.4341 -0.1455
  194MOL0     C26653   8.744   8.639   3.724 -0.5803  0.7643 -0.1156
  194MOL0     C26654   8.835   8.627   3.847  0.2622  0.0663 -1.0302
  194MOL0     C26655   8.743   8.599   3.969  0.9863 -0.1656 -0.2481
  194MOL0     C26656   8.820   8.582   4.102  0.3614  0.5492  0.6324
  194MOL0     C26657   8.729   8.518   4.210  1.2183  0.1785  0.8232
  194MOL0     O26658   8.700   8.377   4.195 -0.4975  0.0291  0.5960
  194MOL0     C26659   8.629   8.296   4.281  0.0073 -0.0558  0.8593
  194MOL0     C26660   8.507   8.323   4.341  0.2106  0.6927 -0.4019
  194MOL0     C26661   8.439   8.227   4.415 -0.1142  0.4925 -0.5864
  194MOL0     C26662   8.300   8.268   4.457 -0.2405 -0.4753  0.5334
  194MOL0     C26663   8.487   8.095   4.436 -0.6479  1.0257  0.6076
  194MOL0     C26664   8.412   7.989   4.514 -0.8225 -0.2339 -0.3945
  194MOL0     O26665   8.468   7.865   4.491  0.1408  0.1291 -0.6806
  194MOL0     C26666   8.454   7.757   4.576  0.4294  1.2740 -0.2602
  194MOL0     C26667   8.554   7.653   4.569  0.0528  0.2130  0.5199
  194MOL0     C26668   8.558   7.541   4.654  1.2967  0.3623  0.4293
  194MOL0     C26669   8.454   7.519   4.741  1.1913 -0.7869 -0.4190
  194MOL0     O26670   8.441   7.394   4.804  0.6441 -0.4149  0.6054
  194MOL0     C26671   8.319   7.356   4.872 -0.3684  1.2311 -0.4701
  194MOL0     C26672   8.323   7.232   4.963  0.1522 -0.7453  0.1643
  194MOL0     C26673   8.431   7.243   5.070 -0.0105 -0.0471  0.7145
  194MOL0     C26674   8.419   7.127   5.167  0.5643 -0.4993  0.5092
  194MOL0     C26675   8.501   7.148   5.293  0.3657 -0.2425 -0.5538
  194MOL0     C26676   8.656   7.116   5.259 -0.1753  0.5287 -0.3851
  194MOL0     C26677   8.735   7.101   5.394  0.0467 -0.4088 -0.3487
  194MOL0     C26678   8.886   7.088   5.363 -0.0514 -0.2535 -0.3604
  194MOL0    Cl26679   8.912   6.921   5.284  0.1568  0.4360 -0.4747
  194MOL0     C26680   8.350   7.621   4.746 -0.0103 -0.5421 -0.7929
  194MOL0     C26681   8.343   7.735   4.659 -0.4666 -0.2881 -0.2236
  194MOL0     O26682   8.322   8.020   4.595  0.2746  0.9097 -0.6061
  194MOL0     C26683   8.609   8.069   4.370 -0.0922 -0.3584 -0.0037
  194MOL0     C26684   8.676   8.168   4.298  0.6237 -0.6783 -0.4076
  194MOL0     N26685   8.717   8.550   3.626  0.5319  0.3297 -0.0867
  194MOL0     N26686   8.623   8.586   3.544  0.1157 -0.1995  0.4224
  194MOL0     C26687   7.722   8.818   4.348  0.7212  0.7886  0.4680
  194MOL0     C26688   7.584   8.829   4.382  0.0001  0.0475 -0.3364
  194MOL0     C26689   7.152   8.840   4.379  0.4229 -0.2563  0.9024
  194MOL0     C26690   7.097   8.965   4.385 -0.7377  0.4109  0.0598
  194MOL0     C26691   6.979   8.990   4.442 -0.2615 -0.5055 -0.7535
  194MOL0     C26692   6.902   8.897   4.505 -0.2084  0.4054  0.0073
  194MOL0     O26693   6.778   8.929   4.558  0.1872 -0.1717  0.0566
  194MOL0     C26694   6.691   8.833   4.623 -0.0525 -0.6515  0.7519
  194MOL0     C26695   6.579   8.903   4.706 -0.3850 -0.8018 -0.0061
  194MOL0     C26696   6.632   8.986   4.819  0.3847  0.0033  0.8686
  194MOL0     C26697   6.510   9.017   4.909 -0.6070  0.3598 -0.1377
  194MOL0     C26698   6.474   8.898   4.983 -1.0670  0.5416  0.2708
  194MOL0     C26699   6.459   8.794   5.040 -0.5628 -0.5262 -0.1048
  194MOL0     C26700   6.959   8.770   4.516 -0.2572 -0.3325  0.1193
  194MOL0     C26701   7.085   8.735   4.458  0.4295 -0.8204 -0.7499
  194MOL0     C26702   7.143   8.607   4.494 -0.8482  0.3126  0.1455
  194MOL0     H26703   7.497   9.062   4.146  0.3860  1.2127  1.1188
  194MOL0     H26704   7.744   9.036   4.091  2.2138  1.0528  3.0790
  194MOL0     H26705   7.882   8.665   4.197  0.1652 -0.8019 -1.5412
  194MOL0     H26706   8.013   8.724   4.307 -1.4499  0.9357  1.3565
  194MOL0     H26707   7.981   8.728   3.996 -1.0060  2.0330  0.0601
  194MOL0     H26708   8.093   8.830   4.077 -1.5590  0.9587  1.6913
  194MOL0     H26709   8.234   8.653   4.164  0.0174 -1.4205  0.6010
  194MOL0     H26710   8.116   8.529   4.127 -1.6750  0.3363  0.2652
  194MOL0     H26711   8.297   8.527   3.966  0.7174 -1.8194 -0.0935
  194MOL0     H26712   8.144   8.536   3.897  1.0282  1.5228 -0.6225
  194MOL0     H26713   8.285   8.799   3.923 -0.6852  1.0113 -0.2429
  194MOL0     H26714   8.153   8.757   3.819 -0.3714  1.2531  0.9029
  194MOL0     H26715   8.446   8.649   3.801  1.0510  0.4182 -0.1959
  194MOL0     H26716   8.314   8.595   3.702 -0.0117 -1.3327  1.9862
  194MOL0     H26717   8.393   8.882   3.719  2.3705  1.8524 -1.7885
  194MOL0     H26718   8.265   8.834   3.613 -1.5158 -0.7490  1.5153
  194MOL0     H26719   8.429   8.736   3.449  0.6714  2.7673 -1.7517
  194MOL0     H26720   8.493   8.879   3.502 -3.7636  2.5843  1.1966
  194MOL0     H26721   8.631   8.825   3.770  1.4661 -1.2139  1.5608
  194MOL0     H26722   8.900   8.715   3.856 -0.2411  0.5772 -2.1286
  194MOL0     H26723   8.909   8.547   3.852  3.4825  2.8609  1.2465
  194MOL0     H26724   8.665   8.676   3.976 -0.6496 -1.7673 -0.0059
  194MOL0     H26725   8.689   8.506   3.949  0.6560 -0.6690  2.5606
  194MOL0     H26726   8.916   8.533   4.085 -0.6437 -1.4919  0.5131
  194MOL0     H26727   8.846   8.684   4.130  2.6649 -0.2983  1.7636
  194MOL0     H26728   8.776   8.525   4.309 -0.8953  0.4599  1.8551
  194MOL0     H26729   8.638   8.578   4.220  0.7561 -0.3546 -0.0498
  194MOL0     H26730   8.473   8.425   4.326 -0.7433  0.5417  0.6098
  194MOL0     H26731   8.263   8.365   4.422  2.7297  1.4416  2.2074
  194MOL0     H26732   8.300   8.270   4.566 -0.8114 -1.2445  0.5546
  194MOL0     H26733   8.226   8.192   4.431  0.3012 -0.9817  0.4557
  194MOL0     H26734   8.630   7.657   4.492 -0.6598  0.2112 -0.1965
  194MOL0     H26735   8.634   7.463   4.651 -0.7588 -1.9842  3.3341
  194MOL0     H26736   8.292   7.424   4.954 -2.5434 -1.6347  1.3638
  194MOL0     H26737   8.235   7.347   4.803  1.4620 -0.6716 -2.6160
  194MOL0     H26738   8.230   7.218   5.018  1.3931  1.9019  3.2819
  194MOL0     H26739   8.329   7.145   4.897 -0.9956  0.3303 -1.4356
  194MOL0     H26740   8.425   7.336   5.126  0.3805  0.2493  0.2730
  194MOL0     H26741   8.522   7.241   5.010 -1.0596  1.2314 -1.0251
  194MOL0     H26742   8.456   7.036   5.120 -1.7274 -1.5528  0.6146
  194MOL0     H26743   8.315   7.104   5.192 -0.7286  2.5432 -1.3979
  194MOL0     H26744   8.488   7.248   5.336 -0.0622  0.1334 -1.5303
  194MOL0     H26745   8.474   7.073   5.368  2.4403 -1.0181 -0.5166
  194MOL0     H26746   8.696   7.202   5.203  2.7087 -0.3165  0.2287
  194MOL0     H26747   8.673   7.031   5.193  0.0906  0.4626 -0.2339
  194MOL0     H26748   8.690   7.019   5.451 -2.6219  0.6024 -0.8721
  194MOL0     H26749   8.717   7.183   5.463 -1.9445 -1.7333  0.8201
  194MOL0     H26750   8.939   7.063   5.455  2.8635 -1.9109 -2.2966
  194MOL0     H26751   8.924   7.168   5.298 -1.4366  1.4075  0.8078
  194MOL0     H26752   8.271   7.612   4.820  0.4313  1.6078  0.0086
  194MOL0     H26753   8.260   7.805   4.650  2.8283  3.6627 -4.1821
  194MOL0     H26754   8.668   7.978   4.371 -0.0180 -0.3087  0.7340
  194MOL0     H26755   8.769   8.140   4.249  0.8737  3.0760 -2.4468
  194MOL0     H26756   7.784   8.750   4.406  1.5760 -2.1228 -3.4336
  194MOL0     H26757   7.549   8.779   4.471 -0.5351  0.6288 -0.2103
  194MOL0     H26758   7.149   9.052   4.345 -0.5396  0.4647  0.4291
  194MOL0     H26759   6.941   9.091   4.431 -1.6981 -0.9414 -0.0424
  194MOL0     H26760   6.654   8.766   4.545 -0.1911 -1.4100  1.4502
  194MOL0     H26761   6.756   8.770   4.685 -1.7498 -0.5218  2.7929
  194MOL0     H26762   6.503   8.830   4.736  1.5746 -2.1796  1.8957
  194MOL0     H26763   6.529   8.968   4.633  0.9880 -1.3912 -1.5557
  194MOL0     H26764   6.704   8.928   4.877  1.6252  2.0233  1.4313
  194MOL0     H26765   6.680   9.078   4.786  2.3963 -2.3017 -3.3854
  194MOL0     H26766   6.431   9.058   4.846  1.5606  1.6954 -2.1688
  194MOL0     H26767   6.537   9.097   4.978  2.4028 -1.9288  1.6366
  194MOL0     H26768   6.447   8.699   5.086  1.0433 -0.8708 -0.3109
  194MOL0     H26769   6.911   8.687   4.568 -1.6700 -1.9756 -3.4736
  194MOL0     H26770   7.251   8.613   4.477 -0.9306  0.7007 -0.2517
  194MOL0     H26771   7.135   8.593   4.603 -2.4437  3.0233  0.4727
  194MOL0     H26772   7.109   8.528   4.428  0.2979  1.2961 -1.7069
  195MOL0     O26773  11.247   6.007   7.812 -0.8677  0.0830  0.3874
  195MOL0     C26774  11.145   6.080   7.815 -0.0896  0.7587 -0.0878
  195MOL0     O26775  11.140   6.211   7.795  0.3174 -0.5044  0.2469
  195MOL0     C26776  11.246   6.286   7.749  0.4614  0.6206  0.9631
  195MOL0     C26777  11.347   6.243   7.653  0.1163  0.8060  0.1013
  195MOL0     C26778  11.451   6.324   7.615 -1.4156 -0.4729 -0.1382
  195MOL0     C26779  11.466   6.448   7.673 -0.6724 -0.1331 -0.2527
  195MOL0     O26780  11.576   6.530   7.644 -0.9873 -0.0898 -0.5070
  195MOL0     C26781  11.680   6.524   7.749  0.5529 -0.1449 -0.0811
  195MOL0     C26782  11.795   6.622   7.719  0.0333 -0.1616 -0.5806
  195MOL0     C26783  11.908   6.605   7.829  0.3919 -0.5258 -0.4873
  195MOL0     C26784  12.000   6.725   7.825 -0.8760 -0.0558  1.2081
  195MOL0     C26785  12.098   6.724   7.944  0.6580  0.2604  0.2092
  195MOL0     C26786  12.204   6.825   7.944  0.5508 -0.6151 -0.0817
  195MOL0     C26787  12.259   6.855   8.084  0.3800 -0.9721 -1.1032
  195MOL0     C26788  12.324   6.733   8.144  0.1327  0.0874  0.5273
  195MOL0     N26789  12.381   6.764   8.272  0.0072  0.2515  0.9407
  195MOL0     C26790  12.480   6.849   8.295 -1.2079 -0.1267 -1.1392
  195MOL0     C26791  12.516   6.827   8.424  0.0424 -0.1777  0.5282
  195MOL0     C26792  12.608   6.915   8.504  0.6446  0.4021  0.3112
  195MOL0     C26793  12.521   7.029   8.553  0.3275 -0.0862  0.7575
  195MOL0     C26794  12.593   7.125   8.647  0.3353  0.1105 -0.4394
  195MOL0     C26795  12.509   7.239   8.692  0.2067  0.6556  1.4315
  195MOL0     O26796  12.593   7.348   8.739 -0.5202  0.0782  0.3035
  195MOL0     C26797  12.527   7.469   8.765 -0.2658  0.5329  1.0603
  195MOL0     C26798  12.415   7.518   8.701 -0.8346  0.8542  0.0969
  195MOL0     C26799  12.355   7.647   8.739  0.1324  0.7958  0.2305
  195MOL0     C26800  12.233   7.690   8.662  0.5412  1.0449  0.4559
  195MOL0     C26801  12.412   7.718   8.844  0.4480 -0.1459 -0.1261
  195MOL0     C26802  12.360   7.851   8.884  0.5111  0.0365 -0.2468
  195MOL0     O26803  12.329   7.941   8.784 -0.6133  0.0345 -0.3214
  195MOL0     C26804  12.249   8.050   8.813  0.3629  0.0552 -0.0098
  195MOL0     C26805  12.239   8.161   8.717  0.1746  1.0639  0.3722
  195MOL0     C26806  12.159   8.275   8.746 -0.0497  0.5795  0.1852
  195MOL0     C26807  12.092   8.286   8.874  0.0525 -0.1837  0.5557
  195MOL0     O26808  12.013   8.394   8.892  0.0519 -0.0024  0.4206
  195MOL0     C26809  11.976   8.420   9.030  0.2164 -0.2902  0.5098
  195MOL0     C26810  11.926   8.564   9.013  0.8749 -0.4704  0.2093
  195MOL0     C26811  11.910   8.636   9.152  0.0221  0.4590  0.4090
  195MOL0     C26812  11.773   8.697   9.177  0.2509 -0.3285 -0.6313
  195MOL0     C26813  11.758   8.756   9.324 -0.0355 -0.5651 -0.3702
  195MOL0     C26814  11.795   8.908   9.314 -0.0951  0.7035  0.0724
  195MOL0     C26815  11.824   8.983   9.443  0.6566 -0.1367 -0.3545
  195MOL0     C26816  11.783   9.128   9.434  0.8485  1.0994  0.5909
  195MOL0    Cl26817  11.615   9.150   9.462 -0.0829  0.0838  0.3128
  195MOL0     C26818  12.108   8.179   8.958  0.7427 -0.2511  0.0949
  195MOL0     C26819  12.171   8.065   8.934 -0.7358  0.2473 -0.0265
  195MOL0     O26820  12.374   7.878   9.001  0.0024 -0.6575  0.5127
  195MOL0     C26821  12.521   7.666   8.908 -0.1501 -0.8511 -0.2477
  195MOL0     C26822  12.581   7.546   8.863 -0.1729 -0.2532 -0.4223
  195MOL0     N26823  12.442   6.716   8.474  0.1257  0.7327  0.7945
  195MOL0     N26824  12.359   6.687   8.379  0.2550  0.4658  0.2774
  195MOL0     C26825  11.361   6.502   7.750  1.0688  0.5460 -0.5116
  195MOL0     C26826  11.251   6.423   7.781 -0.5209 -0.6619 -0.6074
  195MOL0     C26827  11.029   6.017   7.885 -0.5775 -0.5291  0.1745
  195MOL0     C26828  11.055   5.898   7.960  0.7505  0.3327  0.2884
  195MOL0     C26829  10.939   5.835   8.021  0.3848  1.0171  0.2348
  195MOL0     C26830  10.825   5.897   8.053 -0.3826 -0.2672 -0.3091
  195MOL0     O26831  10.732   5.831   8.135 -0.5255  0.4862  0.1906
  195MOL0     C26832  10.620   5.914   8.157 -0.2633 -0.2486 -0.0762
  195MOL0     C26833  10.533   5.839   8.260  0.0203 -0.4080 -1.1038
  195MOL0     C26834  10.406   5.920   8.301 -0.2373 -0.5111  0.5761
  195MOL0     C26835  10.445   5.997   8.427  0.4677  0.1717 -0.1473
  195MOL0     C26836  10.331   6.075   8.487 -1.0877  0.0665 -0.4902
  195MOL0     C26837  10.236   6.144   8.522 -0.2981  0.5280 -0.1590
  195MOL0     C26838  10.813   6.022   7.991  0.0851  0.1330  0.5213
  195MOL0     C26839  10.908   6.079   7.905  0.3691  1.2696 -0.0462
  195MOL0     C26840  10.870   6.212   7.839  0.6636  0.2184 -0.0404
  195MOL0     H26841  11.323   6.156   7.593  1.0240  0.0875  0.7460
  195MOL0     H26842  11.512   6.271   7.543 -3.2254 -1.4182 -1.0412
  195MOL0     H26843  11.711   6.420   7.758 -0.2326 -0.5929 -2.0235
  195MOL0     H26844  11.640   6.539   7.850  0.1639  2.5769 -0.5611
  195MOL0     H26845  11.844   6.599   7.624 -1.9623 -0.2692 -1.6251
  195MOL0     H26846  11.761   6.726   7.718  3.3980  1.1012 -2.9641
  195MOL0     H26847  11.859   6.599   7.926  0.3481 -0.8521 -0.5283
  195MOL0     H26848  11.964   6.513   7.810 -0.7493 -1.6422  1.3353
  195MOL0     H26849  12.059   6.729   7.733  0.2758 -0.4832  1.9027
  195MOL0     H26850  11.947   6.821   7.819 -1.4085 -0.3717  0.7711
  195MOL0     H26851  12.145   6.626   7.956  0.5241  0.5442  4.8241
  195MOL0     H26852  12.032   6.744   8.029  2.0130  4.1410  0.5418
  195MOL0     H26853  12.283   6.800   7.873 -0.4720  1.0018 -1.9045
  195MOL0     H26854  12.153   6.914   7.905 -2.4221 -1.1022  2.2696
  195MOL0     H26855  12.187   6.901   8.153  2.1029 -0.0025  0.1126
  195MOL0     H26856  12.331   6.937   8.081 -1.8299  1.1331 -0.6977
  195MOL0     H26857  12.247   6.658   8.159  1.4235 -2.0599 -2.5150
  195MOL0     H26858  12.401   6.685   8.082 -0.6852  0.3938 -0.7677
  195MOL0     H26859  12.512   6.920   8.220  0.0840  1.5733  0.8784
  195MOL0     H26860  12.689   6.954   8.443  0.6514 -0.4392 -0.2344
  195MOL0     H26861  12.642   6.861   8.593 -0.4463 -1.1637 -0.1846
  195MOL0     H26862  12.482   7.087   8.469 -1.8339  0.8250  2.2980
  195MOL0     H26863  12.431   6.984   8.594  0.7676  0.4436  2.3801
  195MOL0     H26864  12.626   7.069   8.735 -2.6023 -2.0755 -0.5531
  195MOL0     H26865  12.685   7.154   8.594 -0.0550 -2.2195 -2.6113
  195MOL0     H26866  12.456   7.281   8.605  0.3985  1.0236  1.4897
  195MOL0     H26867  12.434   7.202   8.762 -2.1144  2.6682  0.1764
  195MOL0     H26868  12.372   7.459   8.621 -0.0144  1.9535 -1.1971
  195MOL0     H26869  12.262   7.745   8.572 -2.8421 -0.2248 -1.6171
  195MOL0     H26870  12.166   7.746   8.728 -1.8085 -1.4256  0.3492
  195MOL0     H26871  12.185   7.601   8.618  2.5689  0.7179 -1.2256
  195MOL0     H26872  12.297   8.152   8.625  2.7725  2.9013  1.7004
  195MOL0     H26873  12.157   8.357   8.674  2.6742  0.3456 -0.2462
  195MOL0     H26874  11.897   8.350   9.060  0.2845 -1.1641 -1.2660
  195MOL0     H26875  12.062   8.417   9.097 -0.1861 -1.1571  1.0050
  195MOL0     H26876  11.994   8.634   8.962  1.9289 -1.6504 -0.0635
  195MOL0     H26877  11.825   8.553   8.972 -0.3995 -4.4933  3.8235
  195MOL0     H26878  11.981   8.718   9.167 -2.0685  2.5838 -0.6655
  195MOL0     H26879  11.923   8.571   9.239  0.2897  2.9145  2.2997
  195MOL0     H26880  11.702   8.616   9.159  1.9315 -2.1096  0.3331
  195MOL0     H26881  11.749   8.769   9.098 -3.5505 -2.6826 -1.9105
  195MOL0     H26882  11.651   8.743   9.342  0.2111 -3.3618 -0.5145
  195MOL0     H26883  11.814   8.696   9.396  0.5996 -0.6453 -0.9183
  195MOL0     H26884  11.710   8.952   9.261  0.5026  1.1162 -0.5600
  195MOL0     H26885  11.880   8.913   9.245  1.3251 -0.7931  1.6204
  195MOL0     H26886  11.931   8.983   9.461  1.1996  1.9510 -2.9627
  195MOL0     H26887  11.771   8.935   9.526 -1.6908  1.5764 -0.7371
  195MOL0     H26888  11.815   9.176   9.341 -1.2408  0.5892 -0.4540
  195MOL0     H26889  11.828   9.189   9.514  1.4643  1.6015 -0.1297
  195MOL0     H26890  12.061   8.192   9.055 -1.2385  1.1114 -0.9784
  195MOL0     H26891  12.177   7.993   9.014 -1.2600 -2.3294 -2.1714
  195MOL0     H26892  12.565   7.712   8.996 -0.4401 -2.4146  0.7441
  195MOL0     H26893  12.662   7.517   8.930 -1.6064 -0.4785  1.2824
  195MOL0     H26894  11.367   6.608   7.772  2.1134  0.3447  0.2365
  195MOL0     H26895  11.175   6.467   7.845  0.4266 -0.3683  0.3376
  195MOL0     H26896  11.156   5.859   7.972  0.5816 -1.0557 -2.2199
  195MOL0     H26897  10.945   5.736   8.065  0.4325  0.2629 -1.3865
  195MOL0     H26898  10.649   6.010   8.202  1.8514 -0.2574 -1.2789
  195MOL0     H26899  10.565   5.924   8.063 -0.3103 -0.2136 -0.0446
  195MOL0     H26900  10.591   5.824   8.352 -0.1553 -3.5561 -1.3676
  195MOL0     H26901  10.519   5.735   8.228  3.1975 -1.4522  0.4934
  195MOL0     H26902  10.364   5.987   8.225  0.2052  0.2517  0.9915
  195MOL0     H26903  10.324   5.853   8.329 -1.4235  1.4729  2.0573
  195MOL0     H26904  10.524   6.068   8.401 -1.1791  2.2101  0.1232
  195MOL0     H26905  10.480   5.926   8.503 -0.0393 -0.6188 -0.6381
  195MOL0     H26906  10.147   6.195   8.551 -1.6217 -1.8946  0.2987
  195MOL0     H26907  10.730   6.087   8.017 -0.2643 -0.1885  0.2198
  195MOL0     H26908  10.767   6.241   7.860  0.9241 -0.2116  1.9960
  195MOL0     H26909  10.937   6.287   7.883  0.5746 -0.1093  0.6590
  195MOL0     H26910  10.885   6.217   7.731 -2.4950 -1.6593 -0.6819
  196MOL0     O26911   5.362   6.652   7.487  0.1885 -0.2530 -0.0240
  196MOL0     C26912   5.463   6.634   7.553  0.0647 -0.3412  0.0304
  196MOL0     O26913   5.594   6.611   7.499  0.0728  0.0560 -0.1409
  196MOL0     C26914   5.613   6.602   7.365 -0.4251 -0.6164  0.2271
  196MOL0     C26915   5.702   6.502   7.311  0.2255  0.3758  0.7908
  196MOL0     C26916   5.722   6.487   7.176 -0.9680 -0.5322 -0.8029
  196MOL0     C26917   5.662   6.586   7.093 -0.8033  0.2439  0.3413
  196MOL0     O26918   5.689   6.563   6.963  0.6118 -0.1032 -0.6026
  196MOL0     C26919   5.635   6.657   6.872  0.1645  1.0818  0.0535
  196MOL0     C26920   5.731   6.655   6.748 -0.0943 -0.3093 -0.7458
  196MOL0     C26921   5.695   6.781   6.665 -0.2405  0.5147  0.6669
  196MOL0     C26922   5.788   6.787   6.545 -0.5420  0.1890  0.3599
  196MOL0     C26923   5.788   6.930   6.477  0.0582 -0.2301 -0.2839
  196MOL0     C26924   5.651   6.969   6.415  1.0464  0.6400  0.2519
  196MOL0     C26925   5.650   7.115   6.369 -0.1935 -0.2411 -0.5168
  196MOL0     C26926   5.516   7.166   6.316 -0.2306  1.2508 -0.6123
  196MOL0     N26927   5.414   7.177   6.417  0.3716  0.7937 -0.6048
  196MOL0     C26928   5.337   7.082   6.475 -0.1647 -0.3823 -0.6719
  196MOL0     C26929   5.237   7.147   6.552 -0.4516 -1.4193 -0.4931
  196MOL0     C26930   5.137   7.083   6.644 -0.1431  0.9148  0.9281
  196MOL0     C26931   5.038   7.000   6.560 -0.6013 -0.0841  0.3118
  196MOL0     C26932   4.899   7.046   6.495 -0.2171  0.2646  0.1354
  196MOL0     C26933   4.891   7.186   6.441  0.5538 -0.0138 -0.8182
  196MOL0     O26934   4.773   7.215   6.357  0.0703  0.6219 -0.2678
  196MOL0     C26935   4.647   7.190   6.406  0.3365 -0.6321  0.3828
  196MOL0     C26936   4.597   7.249   6.516  0.6432 -0.4637  0.2046
  196MOL0     C26937   4.468   7.226   6.567  1.3401 -0.1121  0.1649
  196MOL0     C26938   4.428   7.294   6.697 -0.5571  0.0416  0.0129
  196MOL0     C26939   4.393   7.125   6.506  0.6883  0.2038  0.2559
  196MOL0     C26940   4.269   7.063   6.569  0.0529 -0.3424  0.2843
  196MOL0     O26941   4.207   7.123   6.677 -0.1504 -0.7403 -0.4191
  196MOL0     C26942   4.107   7.061   6.746 -0.7096 -0.6904  0.3904
  196MOL0     C26943   4.146   6.953   6.822  0.6821  0.2002 -0.4426
  196MOL0     C26944   4.058   6.870   6.888  0.8104  0.4278  0.5450
  196MOL0     C26945   3.926   6.909   6.890  0.4248 -0.0945  0.1317
  196MOL0     O26946   3.840   6.832   6.967 -0.3160 -0.2604 -0.4322
  196MOL0     C26947   3.762   6.745   6.885 -0.6347 -0.1412  0.3813
  196MOL0     C26948   3.698   6.625   6.959  0.3565  0.6367 -0.5331
  196MOL0     C26949   3.665   6.512   6.867 -1.2547 -0.0797 -0.0239
  196MOL0     C26950   3.565   6.420   6.921  0.2172  0.3707  0.6490
  196MOL0     C26951   3.501   6.320   6.831 -0.1525  0.3446  0.4332
  196MOL0     C26952   3.393   6.238   6.908 -0.2223  0.3371 -0.5410
  196MOL0     C26953   3.330   6.125   6.818  0.5808 -0.4512  0.2160
  196MOL0     C26954   3.250   6.169   6.689 -0.2304 -0.3017  0.9365
  196MOL0    Cl26955   3.197   6.020   6.622 -0.3680 -0.0137  0.1271
  196MOL0     C26956   3.886   7.030   6.822 -0.3835  0.0994 -0.1106
  196MOL0     C26957   3.976   7.103   6.742  0.2265  0.1208 -0.4522
  196MOL0     O26958   4.236   6.957   6.526 -0.0177  0.7186  0.0669
  196MOL0     C26959   4.439   7.063   6.383 -0.4325 -0.8607  0.2702
  196MOL0     C26960   4.563   7.101   6.338 -1.5294  0.0632  0.5700
  196MOL0     N26961   5.251   7.283   6.534 -0.4636 -0.2244  1.4398
  196MOL0     N26962   5.352   7.293   6.455 -0.2538  0.2960 -0.5601
  196MOL0     C26963   5.579   6.687   7.142  0.9907 -0.3053 -0.4456
  196MOL0     C26964   5.553   6.699   7.280 -0.6889  0.9025  0.4822
  196MOL0     C26965   5.459   6.655   7.702 -0.3226 -0.8366  0.2516
  196MOL0     C26966   5.581   6.688   7.771 -0.8450 -0.2956 -1.6782
  196MOL0     C26967   5.571   6.729   7.905 -0.1173  0.1144 -0.7110
  196MOL0     C26968   5.446   6.722   7.979  0.4319  0.0758 -0.5237
  196MOL0     O26969   5.452   6.753   8.113 -0.4283  0.0156  0.2772
  196MOL0     C26970   5.325   6.764   8.191  0.1991 -0.7257 -0.8328
  196MOL0     C26971   5.350   6.835   8.326  0.5751  1.2880 -0.0705
  196MOL0     C26972   5.403   6.981   8.315  0.4133  0.5290  0.7046
  196MOL0     C26973   5.361   7.074   8.431 -0.8539 -0.4434 -0.1131
  196MOL0     C26974   5.422   7.211   8.412 -0.4932  0.9369  0.4597
  196MOL0     C26975   5.474   7.317   8.372  0.3785 -0.5861  0.1300
  196MOL0     C26976   5.326   6.686   7.911  0.0399  1.2378 -0.2358
  196MOL0     C26977   5.335   6.658   7.776  0.4977  0.2423 -0.1213
  196MOL0     C26978   5.198   6.616   7.708 -0.1106 -0.6098 -0.4790
  196MOL0     H26979   5.731   6.433   7.389 -0.2741 -1.2565 -0.4192
  196MOL0     H26980   5.783   6.411   7.128 -0.8292 -0.9080 -0.0592
  196MOL0     H26981   5.640   6.762   6.903  3.0456  0.9157  0.3989
  196MOL0     H26982   5.530   6.636   6.846 -0.3126  2.4242  0.7737
  196MOL0     H26983   5.835   6.660   6.782 -0.4851  1.4365  0.3314
  196MOL0     H26984   5.709   6.567   6.685 -1.1717 -0.1321 -0.6465
  196MOL0     H26985   5.588   6.775   6.643 -0.4901  0.1805  1.8828
  196MOL0     H26986   5.704   6.878   6.713  2.4477  0.2908  0.8005
  196MOL0     H26987   5.888   6.778   6.588  0.6852  1.3896 -2.0593
  196MOL0     H26988   5.780   6.703   6.476  0.5774 -0.4976  1.0406
  196MOL0     H26989   5.866   6.925   6.401  4.3960 -0.6254  3.7210
  196MOL0     H26990   5.820   7.000   6.554 -0.7027  0.0250 -0.1906
  196MOL0     H26991   5.645   6.901   6.330  0.2661  0.0802  0.7396
  196MOL0     H26992   5.573   6.946   6.488  1.0644 -1.0240 -0.2219
  196MOL0     H26993   5.719   7.125   6.285 -2.4509  0.5413 -2.3812
  196MOL0     H26994   5.687   7.178   6.451 -1.3184  1.9289 -1.5925
  196MOL0     H26995   5.532   7.264   6.270 -1.1913  1.6435 -0.1359
  196MOL0     H26996   5.490   7.105   6.228 -0.4891  0.8224 -0.2485
  196MOL0     H26997   5.348   6.974   6.470 -1.8964 -0.6612  0.4267
  196MOL0     H26998   5.072   7.151   6.700 -2.1482  2.2784 -2.6883
  196MOL0     H26999   5.188   7.011   6.708 -1.3067 -0.6777  0.1356
  196MOL0     H27000   5.104   6.952   6.486 -0.8167 -2.1232  1.3791
  196MOL0     H27001   5.009   6.912   6.617  2.3230 -0.9834  0.5772
  196MOL0     H27002   4.887   6.984   6.406  0.9431  1.0367 -0.5871
  196MOL0     H27003   4.817   7.035   6.567 -0.0163 -0.9687  0.1846
  196MOL0     H27004   4.892   7.250   6.530 -1.5778 -1.1358  0.0735
  196MOL0     H27005   4.985   7.199   6.386  3.7461  3.3580  4.4531
  196MOL0     H27006   4.665   7.317   6.566  1.9078  0.5729 -2.7206
  196MOL0     H27007   4.488   7.384   6.711 -2.9077  1.7630 -0.4209
  196MOL0     H27008   4.450   7.225   6.779 -0.5316 -1.1755 -0.9763
  196MOL0     H27009   4.326   7.330   6.713 -0.4412 -0.3116  1.6639
  196MOL0     H27010   4.252   6.934   6.829  1.0827  0.6353 -3.6242
  196MOL0     H27011   4.085   6.780   6.942 -3.1940 -1.9447 -0.9780
  196MOL0     H27012   3.684   6.801   6.832 -1.8522  0.1973  2.4295
  196MOL0     H27013   3.833   6.707   6.812  1.1074 -2.2753  3.0181
  196MOL0     H27014   3.760   6.579   7.037 -0.5471 -0.5812 -0.5102
  196MOL0     H27015   3.602   6.657   7.001  1.5103  2.2334  1.0105
  196MOL0     H27016   3.760   6.463   6.841 -0.5381  1.5896 -0.6847
  196MOL0     H27017   3.639   6.563   6.774  1.6054  0.7220 -0.4722
  196MOL0     H27018   3.486   6.490   6.950  1.3749  1.3174  1.5654
  196MOL0     H27019   3.615   6.374   7.007  2.0001  0.0955 -0.4933
  196MOL0     H27020   3.451   6.378   6.753  0.1320  0.4648  0.3390
  196MOL0     H27021   3.575   6.252   6.786 -2.4800 -0.8138 -1.8922
  196MOL0     H27022   3.320   6.300   6.959 -0.0124 -0.5713  0.9383
  196MOL0     H27023   3.450   6.187   6.986  3.0650  0.2455 -2.7590
  196MOL0     H27024   3.270   6.056   6.878 -1.7038  1.4819  0.3176
  196MOL0     H27025   3.410   6.058   6.785  0.8891  0.0404 -0.0528
  196MOL0     H27026   3.317   6.226   6.624 -2.4785 -0.6325 -1.8886
  196MOL0     H27027   3.169   6.240   6.710 -1.4731 -0.7620 -1.8722
  196MOL0     H27028   3.781   7.056   6.813 -0.5429 -0.1124  1.0366
  196MOL0     H27029   3.956   7.194   6.687 -2.0477  0.2987  0.5685
  196MOL0     H27030   4.387   6.981   6.334  0.8918 -2.2678  1.1210
  196MOL0     H27031   4.608   7.064   6.246  1.3219  2.2749  0.9369
  196MOL0     H27032   5.539   6.765   7.078 -1.7679 -2.2446 -1.2663
  196MOL0     H27033   5.504   6.785   7.325 -1.0583  0.8366  0.2101
  196MOL0     H27034   5.681   6.703   7.732  0.3766  1.8318  1.8393
  196MOL0     H27035   5.655   6.757   7.967 -1.8120  4.7793 -0.0983
  196MOL0     H27036   5.254   6.827   8.137 -0.2618  0.2740  0.8412
  196MOL0     H27037   5.299   6.661   8.219  2.2642 -0.9769  0.3633
  196MOL0     H27038   5.422   6.780   8.388  3.0829  2.5143 -1.7655
  196MOL0     H27039   5.255   6.825   8.379  0.5117 -1.4132 -0.5742
  196MOL0     H27040   5.512   6.973   8.312  0.2708 -1.7766 -1.0311
  196MOL0     H27041   5.370   7.026   8.222  1.4881  0.8973  0.4837
  196MOL0     H27042   5.387   7.021   8.523  0.3450 -0.2499 -0.3129
  196MOL0     H27043   5.253   7.086   8.421 -0.7656  0.3912 -0.1164
  196MOL0     H27044   5.510   7.415   8.348  1.4235 -0.9803 -0.0039
  196MOL0     H27045   5.231   6.687   7.964  2.3602  4.1997  4.5322
  196MOL0     H27046   5.209   6.531   7.641 -1.6472  0.2568 -1.8960
  196MOL0     H27047   5.121   6.593   7.783 -0.8911  0.6476 -0.8599
  196MOL0     H27048   5.157   6.699   7.650 -1.5310  0.1767  1.5409
  197MOL0     O27049   0.144   3.011   3.868 -0.5287 -0.1586  0.0343
  197MOL0     C27050   0.236   3.068   3.923 -0.8428 -0.5612  0.0690
  197MOL0     O27051   0.359   3.071   3.879 -0.3498 -0.4099  0.1335
  197MOL0     C27052   0.401   3.041   3.748 -0.3501 -1.1093  0.0547
  197MOL0     C27053   0.513   2.966   3.715  0.0568  0.4871  1.3882
  197MOL0     C27054   0.544   2.947   3.575 -0.2193 -0.4619  0.1060
  197MOL0     C27055   0.459   3.000   3.472 -0.0700 -0.2089 -0.2075
  197MOL0     O27056   0.474   2.964   3.343 -0.4292  0.3276  0.6355
  197MOL0     C27057   0.579   3.009   3.259 -0.1919 -0.1396 -0.5491
  197MOL0     C27058   0.600   3.161   3.275  0.0875  0.3089 -0.3839
  197MOL0     C27059   0.710   3.223   3.194  0.0562 -0.4836  0.1875
  197MOL0     C27060   0.727   3.374   3.229 -0.2034  0.0010 -0.7936
  197MOL0     C27061   0.845   3.449   3.168 -0.7075  1.1979 -0.1732
  197MOL0     C27062   0.852   3.450   3.018  0.4053 -0.4526  0.6106
  197MOL0     C27063   0.976   3.518   2.966 -1.1187 -0.9973 -0.3615
  197MOL0     C27064   0.951   3.598   2.829 -0.1158 -0.6428  0.2787
  197MOL0     N27065   1.055   3.700   2.810  1.0984  0.8923 -0.0942
  197MOL0     C27066   1.176   3.683   2.765  0.1234 -0.5640  0.4513
  197MOL0     C27067   1.253   3.785   2.818  0.5025 -0.5547 -1.1205
  197MOL0     C27068   1.401   3.808   2.800 -0.2153  0.3123 -0.5456
  197MOL0     C27069   1.440   3.850   2.648  0.8720  0.6305 -0.7104
  197MOL0     C27070   1.589   3.863   2.637  0.1908 -0.3593  0.0690
  197MOL0     C27071   1.640   3.876   2.486  0.6958  0.1113  0.4756
  197MOL0     O27072   1.777   3.920   2.497  1.0907  0.0520  0.7160
  197MOL0     C27073   1.831   3.972   2.388 -0.1240 -0.9855  0.0052
  197MOL0     C27074   1.896   4.097   2.395 -0.8142  0.0780 -0.2105
  197MOL0     C27075   1.955   4.164   2.286  0.2953  0.8499 -0.0484
  197MOL0     C27076   2.004   4.314   2.299 -0.0395  0.8321 -0.7042
  197MOL0     C27077   1.956   4.098   2.154 -0.0203 -0.3857 -0.0117
  197MOL0     C27078   2.021   4.147   2.029  0.6019 -0.2074  0.1124
  197MOL0     O27079   1.982   4.091   1.907 -0.5376  0.2452  0.4936
  197MOL0     C27080   2.070   4.099   1.802 -1.0221 -0.8292 -0.1641
  197MOL0     C27081   2.211   4.085   1.808  0.3506  0.3447 -0.6376
  197MOL0     C27082   2.293   4.087   1.698 -0.5706 -0.2740  0.2976
  197MOL0     C27083   2.234   4.101   1.570 -0.3685  0.0994 -0.2202
  197MOL0     O27084   2.293   4.065   1.450  0.5656  0.0594  0.1064
  197MOL0     C27085   2.432   4.082   1.433  0.5107 -0.0267 -0.6772
  197MOL0     C27086   2.503   3.954   1.454  0.6308 -0.6516  0.0031
  197MOL0     C27087   2.641   3.952   1.389  0.8137 -0.0108 -0.3502
  197MOL0     C27088   2.733   4.073   1.425 -0.5632  0.3304  0.5447
  197MOL0     C27089   2.804   4.070   1.563 -0.8955 -0.5422 -0.0318
  197MOL0     C27090   2.719   4.101   1.686 -0.6806  0.2232 -0.0472
  197MOL0     C27091   2.788   4.081   1.823  0.0091 -0.2565 -0.2656
  197MOL0     C27092   2.724   4.159   1.935 -0.5129 -0.7195 -0.4473
  197MOL0    Cl27093   2.560   4.099   1.972  0.2111 -0.6216 -0.0131
  197MOL0     C27094   2.096   4.121   1.561  0.2388 -0.4668 -0.7134
  197MOL0     C27095   2.019   4.120   1.674  0.1651 -0.6837 -0.1450
  197MOL0     O27096   2.107   4.233   2.044 -0.1837  1.3237  0.2148
  197MOL0     C27097   1.875   3.978   2.137  0.3987  0.5518 -0.3672
  197MOL0     C27098   1.804   3.924   2.253 -0.2225  0.4470  0.7671
  197MOL0     N27099   1.177   3.863   2.899  0.2938 -0.0357 -0.4809
  197MOL0     N27100   1.059   3.806   2.892 -0.1761  0.5507 -0.0590
  197MOL0     C27101   0.352   3.080   3.510  0.7611  0.6231  0.5407
  197MOL0     C27102   0.323   3.099   3.646 -0.7659 -0.1366  0.0611
  197MOL0     C27103   0.208   3.132   4.047 -0.1580  0.7121  0.9346
  197MOL0     C27104   0.279   3.088   4.160 -0.0254 -0.3387 -0.1011
  197MOL0     C27105   0.218   3.118   4.288 -0.3197 -0.0672  0.2833
  197MOL0     C27106   0.109   3.218   4.299  0.7835 -0.0057  1.0446
  197MOL0     O27107   0.073   3.276   4.424 -0.8200 -0.3074  0.2671
  197MOL0     C27108   0.169   3.284   4.535 -0.1340 -0.8744 -0.1039
  197MOL0     C27109   0.134   3.389   4.642 -0.3388  0.3414  0.2707
  197MOL0     C27110   0.107   3.533   4.607 -0.1341 -0.7489  0.4405
  197MOL0     C27111   0.216   3.579   4.507  0.2469 -0.9448  0.6595
  197MOL0     C27112   0.348   3.569   4.571  0.5320  0.6600  0.8997
  197MOL0     C27113   0.454   3.565   4.621  0.1286  0.5353 -0.5824
  197MOL0     C27114   0.049   3.258   4.185  0.1080 -0.3101  0.3943
  197MOL0     C27115   0.089   3.216   4.055 -0.4778 -0.4238  0.1547
  197MOL0     C27116   0.013   3.280   3.942  0.5164 -0.4313 -0.0777
  197MOL0     H27117   0.582   2.925   3.788 -1.4007 -1.1153  1.9297
  197MOL0     H27118   0.639   2.902   3.548 -1.5470 -2.3925 -1.6488
  197MOL0     H27119   0.547   2.986   3.157  2.5549 -0.8271 -1.3296
  197MOL0     H27120   0.672   2.954   3.275  2.3374  4.2883  1.5785
  197MOL0     H27121   0.505   3.205   3.243  1.0555  0.9084 -2.6188
  197MOL0     H27122   0.608   3.185   3.382  0.4102 -0.2849 -0.2694
  197MOL0     H27123   0.805   3.169   3.209  1.6182  1.9526 -0.3586
  197MOL0     H27124   0.680   3.207   3.090  1.3055  1.0799 -0.4530
  197MOL0     H27125   0.635   3.426   3.199 -0.4292 -0.3894 -0.7790
  197MOL0     H27126   0.741   3.382   3.337  1.1247 -2.2266 -0.7528
  197MOL0     H27127   0.936   3.406   3.210 -0.7834  0.9268 -0.2844
  197MOL0     H27128   0.831   3.552   3.204 -0.5664  0.3573  2.5243
  197MOL0     H27129   0.866   3.347   2.982  2.2374 -0.0677  0.1152
  197MOL0     H27130   0.752   3.483   2.990  0.7792  1.4704  1.3664
  197MOL0     H27131   1.060   3.448   2.955 -0.5488 -0.0914 -2.0571
  197MOL0     H27132   1.012   3.591   3.039 -0.9385  0.8515 -2.2286
  197MOL0     H27133   0.957   3.533   2.742 -0.5458  1.0546 -1.0658
  197MOL0     H27134   0.853   3.643   2.818  0.4429  0.4429 -0.3841
  197MOL0     H27135   1.216   3.603   2.704 -2.4761  0.3693 -2.7735
  197MOL0     H27136   1.453   3.714   2.819  2.0066  1.6132  0.2137
  197MOL0     H27137   1.434   3.881   2.874 -1.2316 -1.3293  1.6601
  197MOL0     H27138   1.406   3.770   2.581 -0.2188 -1.3563  2.0479
  197MOL0     H27139   1.389   3.940   2.614  0.2441  1.0342  1.2336
  197MOL0     H27140   1.612   3.955   2.693 -2.8332  0.8688 -0.5138
  197MOL0     H27141   1.630   3.789   2.707  1.7454  2.3143  2.2115
  197MOL0     H27142   1.629   3.783   2.429 -3.3929  0.5100  0.3205
  197MOL0     H27143   1.582   3.951   2.430  1.9123  1.4204  0.9196
  197MOL0     H27144   1.902   4.145   2.493  0.6826  3.1503 -1.6839
  197MOL0     H27145   1.977   4.376   2.214 -0.8084  2.5630  0.7404
  197MOL0     H27146   2.111   4.326   2.320 -0.7399  2.0493  2.7267
  197MOL0     H27147   1.949   4.368   2.376  0.4999 -0.7940  0.9065
  197MOL0     H27148   2.251   4.048   1.902 -0.1511 -1.5220 -1.1100
  197MOL0     H27149   2.398   4.059   1.710 -0.1813  1.8251  2.4337
  197MOL0     H27150   2.450   4.127   1.335  1.4237  1.8922  0.3180
  197MOL0     H27151   2.469   4.153   1.507 -0.3285 -0.1571 -0.1170
  197MOL0     H27152   2.514   3.945   1.563 -0.9022  1.5502  0.4090
  197MOL0     H27153   2.442   3.877   1.405 -0.7948  1.8590 -2.4221
  197MOL0     H27154   2.616   3.945   1.283  0.5283 -1.3977 -0.2164
  197MOL0     H27155   2.692   3.857   1.411  1.6704  0.7227  0.9167
  197MOL0     H27156   2.685   4.171   1.429 -2.8482 -0.5303 -2.2498
  197MOL0     H27157   2.825   4.088   1.367 -0.1053 -0.2983  1.0866
  197MOL0     H27158   2.852   3.974   1.582  0.2123 -0.0277 -0.1544
  197MOL0     H27159   2.882   4.146   1.574 -0.7272 -1.0530  2.8176
  197MOL0     H27160   2.619   4.055   1.689 -1.0509  0.9840 -0.4215
  197MOL0     H27161   2.702   4.209   1.679  0.8238  0.3647 -3.1249
  197MOL0     H27162   2.891   4.117   1.821  0.6851 -2.1229 -2.3678
  197MOL0     H27163   2.784   3.974   1.843  0.2158 -0.2315 -0.0827
  197MOL0     H27164   2.724   4.264   1.905 -2.4702 -0.1944  1.1877
  197MOL0     H27165   2.792   4.165   2.020  0.0786 -1.3311 -0.8699
  197MOL0     H27166   2.054   4.136   1.462 -2.0412  1.8212  0.4817
  197MOL0     H27167   1.913   4.137   1.663 -0.1709 -3.0716 -1.2419
  197MOL0     H27168   1.861   3.931   2.040 -0.0892 -2.3924  1.0107
  197MOL0     H27169   1.754   3.829   2.243 -0.8211  0.9607 -1.8956
  197MOL0     H27170   0.293   3.132   3.435  0.0913  0.9169  1.2576
  197MOL0     H27171   0.233   3.159   3.656 -0.7417  1.3464 -5.6091
  197MOL0     H27172   0.366   3.026   4.146 -0.9334 -1.3508 -1.3822
  197MOL0     H27173   0.271   3.098   4.381 -1.4520  0.6040  1.1043
  197MOL0     H27174   0.170   3.188   4.588  1.7341  0.2492  2.1337
  197MOL0     H27175   0.272   3.301   4.502  0.2741  0.6680  1.7529
  197MOL0     H27176   0.222   3.386   4.708 -0.0026  0.8019 -0.1431
  197MOL0     H27177   0.044   3.351   4.690 -1.3216  0.3192 -1.5006
  197MOL0     H27178   0.019   3.545   4.543  1.8004  4.3156 -1.8253
  197MOL0     H27179   0.095   3.595   4.696  3.0413 -1.1908  1.2849
  197MOL0     H27180   0.197   3.682   4.476  0.3321 -0.9624  0.5494
  197MOL0     H27181   0.211   3.515   4.419 -0.4934 -1.6509  1.2082
  197MOL0     H27182   0.537   3.569   4.689 -2.9284  0.3034  3.5921
  197MOL0     H27183  -0.035   3.326   4.186  2.7724  3.2700  1.6609
  197MOL0     H27184   0.068   3.278   3.848  2.1746  0.6296  0.8079
  197MOL0     H27185  -0.074   3.216   3.925  1.1475 -0.5798 -3.4194
  197MOL0     H27186  -0.017   3.381   3.973  1.8255 -0.5110  1.6060
  198MOL0     O27187   4.415   9.819   6.213  0.0781  0.9160  0.3775
  198MOL0     C27188   4.409   9.714   6.145 -0.5296 -0.8142  0.3188
  198MOL0     O27189   4.500   9.687   6.041 -0.2642 -0.0270 -0.6458
  198MOL0     C27190   4.601   9.776   6.020  1.1616  1.4196  0.7109
  198MOL0     C27191   4.578   9.911   5.982  0.1938 -0.4187 -0.8942
  198MOL0     C27192   4.684   9.993   5.951 -0.1428  0.8288 -0.1551
  198MOL0     C27193   4.806   9.938   5.915 -0.2396  0.4808 -0.6730
  198MOL0     O27194   4.907  10.020   5.881  0.0848  0.7942 -0.1658
  198MOL0     C27195   4.992   9.993   5.764  0.1438  0.1919  0.4822
  198MOL0     C27196   5.052  10.122   5.714  0.3606  0.5725 -0.8054
  198MOL0     C27197   4.953  10.236   5.708 -0.2679 -0.0306 -0.9898
  198MOL0     C27198   5.022  10.373   5.672 -0.2516 -0.2142  0.0355
  198MOL0     C27199   4.953  10.428   5.549 -0.0351 -0.3576 -0.1984
  198MOL0     C27200   5.026  10.399   5.415 -0.4557 -0.4819 -0.2556
  198MOL0     C27201   5.039  10.252   5.390  0.4277 -1.4883  0.3723
  198MOL0     C27202   5.076  10.229   5.247 -0.4708  0.0706 -0.8215
  198MOL0     N27203   5.074  10.090   5.212  0.3704  1.0310  0.6232
  198MOL0     C27204   5.140  10.039   5.098  0.0733  0.1717 -0.9494
  198MOL0     C27205   5.137   9.904   5.116  0.1612 -0.3993 -0.5699
  198MOL0     C27206   5.182   9.790   5.027  0.1007 -0.6168  0.3223
  198MOL0     C27207   5.326   9.808   4.965 -0.0164 -0.5932  0.6870
  198MOL0     C27208   5.372   9.682   4.900  1.0524 -0.0902  0.2212
  198MOL0     C27209   5.527   9.690   4.874  0.6942 -0.4838  0.3737
  198MOL0     O27210   5.542   9.782   4.762  0.0886 -0.5573  0.6613
  198MOL0     C27211   5.643   9.884   4.766 -0.2505 -0.8399 -0.3227
  198MOL0     C27212   5.626   9.989   4.680  0.1539 -0.5963 -0.7155
  198MOL0     C27213   5.719  10.095   4.664  0.5316  0.4722 -0.1738
  198MOL0     C27214   5.676  10.193   4.551 -1.2431  0.1625  0.4748
  198MOL0     C27215   5.832  10.098   4.751 -0.0681  0.3235  0.1824
  198MOL0     C27216   5.929  10.208   4.756 -0.3563 -0.0086  0.0100
  198MOL0     O27217   5.995  10.222   4.870  0.5823 -0.3174  0.3935
  198MOL0     C27218   6.089  10.326   4.864  0.4254  0.3228 -0.0914
  198MOL0     C27219   6.072  10.424   4.961  0.3897  0.8152 -0.8480
  198MOL0     C27220   6.158  10.532   4.982 -0.6026  0.5137  0.2029
  198MOL0     C27221   6.267  10.543   4.890 -0.2129 -0.1941  0.4102
  198MOL0     O27222   6.350  10.653   4.915 -0.0734 -0.0912 -0.0647
  198MOL0     C27223   6.384  10.736   4.807 -0.0183 -1.0703 -0.1888
  198MOL0     C27224   6.537  10.748   4.798  0.1520 -0.2127 -0.1402
  198MOL0     C27225   6.598  10.779   4.932 -0.4293 -0.3222 -0.1128
  198MOL0     C27226   6.745  10.807   4.920 -1.5971  0.0944  0.0323
  198MOL0     C27227   6.824  10.827   5.057  1.3332 -0.8110 -0.5826
  198MOL0     C27228   6.750  10.942   5.135 -1.1050 -0.3916  0.0650
  198MOL0     C27229   6.854  11.007   5.240 -0.3464 -0.2311  0.0730
  198MOL0     C27230   6.780  11.106   5.330 -0.0799 -0.4498 -0.4138
  198MOL0    Cl27231   6.759  11.267   5.274 -0.0881  0.3347  0.0537
  198MOL0     C27232   6.294  10.436   4.798 -0.0921  0.1926 -0.7674
  198MOL0     C27233   6.210  10.325   4.787  0.7339  0.1350 -0.7034
  198MOL0     O27234   5.955  10.274   4.653 -0.4909 -0.5498 -0.1790
  198MOL0     C27235   5.854   9.990   4.835  0.0732  0.6192  0.6450
  198MOL0     C27236   5.761   9.883   4.839 -0.5945 -0.1564  0.1786
  198MOL0     N27237   5.080   9.880   5.243  0.0075 -0.1703  0.6918
  198MOL0     N27238   5.045   9.993   5.303 -0.2952  0.5663  0.2881
  198MOL0     C27239   4.829   9.807   5.937 -0.3518  0.7636  0.5276
  198MOL0     C27240   4.731   9.728   5.994  0.1695 -0.3866  0.4309
  198MOL0     C27241   4.318   9.603   6.188  0.9462  0.4590 -0.1606
  198MOL0     C27242   4.348   9.476   6.139  0.7026  0.5328  0.5377
  198MOL0     C27243   4.266   9.373   6.165  0.4668 -0.3381 -0.1317
  198MOL0     C27244   4.154   9.383   6.251 -0.1250  0.3590  0.1596
  198MOL0     O27245   4.058   9.284   6.273 -0.1913 -0.0964  0.1014
  198MOL0     C27246   4.110   9.150   6.236  0.7578  0.0330 -0.1390
  198MOL0     C27247   3.999   9.065   6.285 -0.5446  0.2979 -0.4009
  198MOL0     C27248   3.879   9.079   6.192  0.2336 -0.6624  0.5248
  198MOL0     C27249   3.775   8.977   6.233  1.4038 -0.7638  0.2738
  198MOL0     C27250   3.660   8.989   6.133 -0.0539 -1.1699 -0.3047
  198MOL0     C27251   3.583   9.002   6.039  0.0845 -0.8316  0.2438
  198MOL0     C27252   4.129   9.509   6.309  0.7388 -0.3605  0.0394
  198MOL0     C27253   4.208   9.618   6.286  0.0463  0.0069  0.5355
  198MOL0     C27254   4.162   9.748   6.348  0.4364 -0.4295 -0.6755
  198MOL0     H27255   4.480   9.957   5.969 -0.4468 -1.6272 -0.5063
  198MOL0     H27256   4.673  10.100   5.937  4.4030  1.4129 -0.9628
  198MOL0     H27257   4.923   9.950   5.691 -0.6954  0.7537  0.9361
  198MOL0     H27258   5.078   9.931   5.794  2.1478  2.2390 -0.7397
  198MOL0     H27259   5.133  10.141   5.785 -0.9761  4.3889 -0.0248
  198MOL0     H27260   5.091  10.108   5.613 -0.7427 -0.3206 -1.1376
  198MOL0     H27261   4.874  10.215   5.635  0.5383 -1.2298 -1.5464
  198MOL0     H27262   4.898  10.246   5.802  2.1319  2.3851  0.3088
  198MOL0     H27263   5.016  10.432   5.765  0.4521 -1.1013  0.6581
  198MOL0     H27264   5.128  10.358   5.654 -0.5409 -3.0781  0.3691
  198MOL0     H27265   4.944  10.534   5.576  0.3299 -0.6258  1.0358
  198MOL0     H27266   4.849  10.394   5.550  0.3398 -1.5371  0.4049
  198MOL0     H27267   4.974  10.451   5.335  0.1344 -2.9307 -2.3300
  198MOL0     H27268   5.130  10.434   5.421 -1.6933  3.8352 -0.6317
  198MOL0     H27269   4.945  10.201   5.413  0.6793 -2.1421 -0.0170
  198MOL0     H27270   5.119  10.206   5.449  1.1642 -0.9199 -0.1662
  198MOL0     H27271   5.010  10.292   5.187  1.3632  0.8609 -2.1119
  198MOL0     H27272   5.181  10.257   5.229 -0.6176  0.2765 -1.4031
  198MOL0     H27273   5.160  10.098   5.009 -1.5206 -0.9573 -2.1119
  198MOL0     H27274   5.106   9.782   4.949  3.1566  1.1444 -3.1812
  198MOL0     H27275   5.192   9.693   5.076 -1.6715 -1.0709 -0.1362
  198MOL0     H27276   5.321   9.888   4.891 -2.1741 -0.2822  1.1101
  198MOL0     H27277   5.393   9.826   5.049  0.8022 -3.9046  0.9067
  198MOL0     H27278   5.339   9.601   4.966  0.2262  1.6085  1.9941
  198MOL0     H27279   5.313   9.653   4.812 -1.1432  0.5719  1.4000
  198MOL0     H27280   5.576   9.720   4.967  1.9605 -2.6824  0.4756
  198MOL0     H27281   5.571   9.594   4.846  1.6131  0.5278 -1.8257
  198MOL0     H27282   5.532   9.989   4.624  0.7379 -1.4477 -1.7372
  198MOL0     H27283   5.679  10.296   4.589  0.1635  0.4302 -0.2959
  198MOL0     H27284   5.571  10.178   4.525 -1.2756  1.5798 -0.3681
  198MOL0     H27285   5.745  10.180   4.468 -0.5020 -2.0807  1.3656
  198MOL0     H27286   5.988  10.420   5.030  2.5820  4.6167  2.4959
  198MOL0     H27287   6.151  10.608   5.060 -1.4916  1.6402 -0.9404
  198MOL0     H27288   6.358  10.699   4.708  0.3885  2.1564 -1.6357
  198MOL0     H27289   6.329  10.827   4.834  0.4214 -1.8645  4.0374
  198MOL0     H27290   6.583  10.656   4.762  0.9294  1.2522 -3.2691
  198MOL0     H27291   6.564  10.834   4.736  1.5442 -0.2339  0.4107
  198MOL0     H27292   6.577  10.690   4.993 -3.5959  0.7642  0.5380
  198MOL0     H27293   6.562  10.871   4.979  0.3853 -0.8367  1.5909
  198MOL0     H27294   6.757  10.903   4.870 -1.6794 -0.1524 -0.4666
  198MOL0     H27295   6.793  10.735   4.853 -0.0835  1.0602  0.0312
  198MOL0     H27296   6.841  10.741   5.122 -0.9577 -0.7350  0.2045
  198MOL0     H27297   6.917  10.870   5.019  0.9414  0.0167 -0.6469
  198MOL0     H27298   6.676  10.887   5.194 -0.0858 -3.8961 -1.6462
  198MOL0     H27299   6.695  11.021   5.083 -3.6918 -0.5129  2.3941
  198MOL0     H27300   6.944  11.048   5.194 -0.4201  2.5493  2.1567
  198MOL0     H27301   6.881  10.919   5.300 -2.9731 -0.1687  1.4837
  198MOL0     H27302   6.839  11.110   5.422  0.1219  2.0549 -0.5645
  198MOL0     H27303   6.680  11.062   5.342 -0.0453 -0.3398  0.3430
  198MOL0     H27304   6.394  10.431   4.756 -1.0416 -3.7680 -3.0537
  198MOL0     H27305   6.217  10.251   4.708 -2.4842  1.2568 -2.2027
  198MOL0     H27306   5.942   9.992   4.899  1.1746  1.3759 -0.8395
  198MOL0     H27307   5.787   9.799   4.902 -0.3645 -0.2906 -0.0922
  198MOL0     H27308   4.923   9.759   5.915  0.6563  3.1518 -0.8183
  198MOL0     H27309   4.756   9.624   6.010 -0.7374 -0.6020  0.4910
  198MOL0     H27310   4.435   9.465   6.074  1.4782 -2.0809  1.8730
  198MOL0     H27311   4.287   9.270   6.140 -0.8783 -0.5954 -0.3199
  198MOL0     H27312   4.141   9.133   6.133  3.4401  0.8500  0.4803
  198MOL0     H27313   4.201   9.123   6.290  0.6791 -1.1060 -0.5547
  198MOL0     H27314   3.975   9.083   6.390  1.0330  0.2544 -0.0108
  198MOL0     H27315   4.041   8.965   6.281  2.1739  1.2719 -6.0575
  198MOL0     H27316   3.835   9.177   6.211 -1.7228 -1.2381 -0.8095
  198MOL0     H27317   3.912   9.072   6.088  4.2175  0.1810  1.5539
  198MOL0     H27318   3.741   8.996   6.335  1.7359 -0.1117  0.2727
  198MOL0     H27319   3.816   8.876   6.220 -1.4567 -1.9515 -0.1840
  198MOL0     H27320   3.517   9.036   5.962  2.5805  1.7509 -0.9778
  198MOL0     H27321   4.040   9.513   6.372  0.0861  1.5493 -0.9203
  198MOL0     H27322   4.200   9.829   6.285 -1.2119  0.6710 -0.3151
  198MOL0     H27323   4.053   9.752   6.350  0.4164  3.1701 -1.4500
  198MOL0     H27324   4.198   9.764   6.450 -0.2789  1.7896 -0.7109
  199MOL0     O27325   4.044  11.255   1.663  0.2184 -0.6330  0.1656
  199MOL0     C27326   4.007  11.287   1.781  0.1038 -0.3220  0.4044
  199MOL0     O27327   4.073  11.239   1.887  0.3876  0.8120 -0.0572
  199MOL0     C27328   4.204  11.194   1.876 -1.0111  0.1132  0.9719
  199MOL0     C27329   4.302  11.271   1.802  0.2433  0.2872 -0.2757
  199MOL0     C27330   4.438  11.239   1.800  0.0019  0.3477 -0.0223
  199MOL0     C27331   4.477  11.118   1.847  0.0679 -0.6146 -0.6233
  199MOL0     O27332   4.602  11.079   1.834  0.5844 -0.3301  0.6723
  199MOL0     C27333   4.677  11.049   1.950 -0.8212  0.1482  0.7130
  199MOL0     C27334   4.819  11.088   1.924  0.2290 -0.1586  0.5460
  199MOL0     C27335   4.891  11.008   1.815  0.3320  0.0722 -0.0130
  199MOL0     C27336   5.046  11.002   1.822 -0.7463 -0.1568 -0.1184
  199MOL0     C27337   5.097  10.908   1.941 -1.0451 -1.3317  1.3152
  199MOL0     C27338   5.251  10.881   1.923 -0.8019  0.6936 -0.0089
  199MOL0     C27339   5.285  10.767   2.022 -0.3478  0.4160  0.3006
  199MOL0     C27340   5.438  10.737   2.011 -0.4543 -0.2276 -0.6878
  199MOL0     N27341   5.477  10.688   1.875 -0.5596 -0.0551  0.2854
  199MOL0     C27342   5.419  10.583   1.804  0.7859  0.6280 -0.4563
  199MOL0     C27343   5.496  10.558   1.697  1.2638  0.1237  0.8443
  199MOL0     C27344   5.454  10.442   1.604 -0.0705  0.9312  0.4400
  199MOL0     C27345   5.588  10.369   1.582  0.3755  0.2888 -0.2666
  199MOL0     C27346   5.569  10.230   1.529 -1.2742  0.0335  0.6164
  199MOL0     C27347   5.692  10.156   1.475  0.1524 -0.2747  0.0073
  199MOL0     O27348   5.791  10.134   1.586 -0.4365  0.2845  0.1236
  199MOL0     C27349   5.800  10.003   1.632  0.1391  0.2953 -0.0772
  199MOL0     C27350   5.932   9.964   1.654  0.1196  0.5835 -0.3252
  199MOL0     C27351   5.954   9.830   1.704  0.3357 -0.1133  1.3529
  199MOL0     C27352   6.089   9.809   1.766 -0.1826 -0.9532 -0.4233
  199MOL0     C27353   5.841   9.735   1.715  0.1522 -0.2683  0.2693
  199MOL0     C27354   5.859   9.595   1.742 -0.3267 -0.9157 -0.2294
  199MOL0     O27355   5.746   9.527   1.770  0.4016  0.0296  0.0487
  199MOL0     C27356   5.729   9.387   1.778 -0.8814  0.5015  0.4182
  199MOL0     C27357   5.645   9.305   1.695  0.2943  0.9007 -1.2292
  199MOL0     C27358   5.610   9.165   1.724 -0.3038 -0.1058  0.2541
  199MOL0     C27359   5.692   9.099   1.827 -0.1041 -0.1997  0.2695
  199MOL0     O27360   5.656   8.971   1.868 -0.9667 -0.3441  0.4280
  199MOL0     C27361   5.741   8.912   1.971  0.0536 -0.5096 -0.7975
  199MOL0     C27362   5.678   8.787   2.032 -0.2290  0.2376 -0.5291
  199MOL0     C27363   5.532   8.798   2.068 -0.4995  0.0381 -0.0351
  199MOL0     C27364   5.493   8.690   2.167  0.8137 -0.0556  0.2205
  199MOL0     C27365   5.346   8.697   2.199 -0.1294  0.2858  0.5536
  199MOL0     C27366   5.307   8.829   2.269 -0.1779  0.0140 -0.2500
  199MOL0     C27367   5.188   8.828   2.360 -0.1453 -0.2728  0.2050
  199MOL0     C27368   5.215   8.805   2.506  0.1421  0.6156 -0.0617
  199MOL0    Cl27369   5.296   8.647   2.516  0.2637 -0.1660  0.3280
  199MOL0     C27370   5.797   9.177   1.891 -0.2065  0.1484  0.2625
  199MOL0     C27371   5.811   9.318   1.879 -0.1055  0.1037 -0.4103
  199MOL0     O27372   5.969   9.543   1.731  0.0186  0.1804 -0.0607
  199MOL0     C27373   5.710   9.785   1.690  0.9260 -0.2655  0.7019
  199MOL0     C27374   5.686   9.920   1.667 -0.7471 -0.6071  0.0478
  199MOL0     N27375   5.595  10.654   1.690  0.0843  0.1315 -0.5175
  199MOL0     N27376   5.582  10.734   1.795 -0.1161 -0.1558 -0.1735
  199MOL0     C27377   4.379  11.035   1.911  0.0914 -0.2269  0.2301
  199MOL0     C27378   4.245  11.077   1.929 -0.4509 -0.2252 -0.1937
  199MOL0     C27379   3.882  11.366   1.801  0.2890  0.5429  0.8592
  199MOL0     C27380   3.855  11.395   1.933 -0.5245 -0.4427 -0.4840
  199MOL0     C27381   3.741  11.461   1.977 -0.6210 -0.1206  0.8375
  199MOL0     C27382   3.646  11.498   1.878  1.1746  0.9756 -1.0543
  199MOL0     O27383   3.535  11.566   1.927 -1.2114  0.3198  0.1554
  199MOL0     C27384   3.405  11.503   1.900 -0.5197  0.7800 -0.3202
  199MOL0     C27385   3.279  11.599   1.920 -0.0538 -0.1167 -0.4222
  199MOL0     C27386   3.273  11.671   2.063  0.3766 -0.7849 -0.0791
  199MOL0     C27387   3.132  11.749   2.079 -0.8938 -1.2690 -0.2553
  199MOL0     C27388   3.011  11.660   2.086 -0.6086 -1.0175  0.6005
  199MOL0     C27389   2.921  11.576   2.096  0.1321 -0.0422  0.4150
  199MOL0     C27390   3.664  11.463   1.747 -0.7040  0.0836  0.2288
  199MOL0     C27391   3.785  11.401   1.699 -0.4165  0.4810 -0.3040
  199MOL0     C27392   3.799  11.372   1.549  0.7533 -0.3379 -1.1347
  199MOL0     H27393   4.261  11.356   1.748 -1.8117 -0.8091 -0.5290
  199MOL0     H27394   4.516  11.304   1.761 -0.7112  0.4825 -1.2587
  199MOL0     H27395   4.670  10.942   1.967 -0.3821 -0.5345 -2.7405
  199MOL0     H27396   4.640  11.103   2.038 -4.4851  0.8161 -1.0860
  199MOL0     H27397   4.818  11.192   1.891  0.1383 -1.0769 -2.6536
  199MOL0     H27398   4.884  11.072   2.011  0.0574 -1.0484  0.5272
  199MOL0     H27399   4.843  10.910   1.814  0.4586 -0.0748  2.4360
  199MOL0     H27400   4.855  11.055   1.723  0.1987 -1.8744 -0.9998
  199MOL0     H27401   5.083  10.963   1.727 -3.7908  0.5723 -1.7199
  199MOL0     H27402   5.080  11.106   1.829 -4.3189  1.4550 -3.0580
  199MOL0     H27403   5.038  10.817   1.943  0.5020 -2.4416 -0.4490
  199MOL0     H27404   5.093  10.960   2.037 -3.2851  1.1341  0.0224
  199MOL0     H27405   5.269  10.851   1.820 -1.4035  1.4001 -0.3263
  199MOL0     H27406   5.301  10.972   1.955  1.7712 -0.6770  0.1196
  199MOL0     H27407   5.237  10.671   1.998 -4.4003  2.2298  0.3449
  199MOL0     H27408   5.258  10.800   2.122 -0.9202  1.6771 -0.2521
  199MOL0     H27409   5.502  10.823   2.034 -0.3129 -0.7625  1.0383
  199MOL0     H27410   5.470  10.664   2.086 -0.2170  0.7577  0.1796
  199MOL0     H27411   5.323  10.540   1.828  0.6492 -0.1550 -2.3000
  199MOL0     H27412   5.419  10.475   1.506 -0.8504  0.9337  0.7140
  199MOL0     H27413   5.374  10.379   1.643  0.2621 -1.5512 -2.6052
  199MOL0     H27414   5.648  10.430   1.514 -0.3870  0.7982 -0.4898
  199MOL0     H27415   5.648  10.360   1.673  1.4167 -2.4049 -1.1244
  199MOL0     H27416   5.519  10.163   1.599 -1.0649 -0.0045  0.7285
  199MOL0     H27417   5.497  10.253   1.450 -2.2377  3.9914  2.4023
  199MOL0     H27418   5.653  10.063   1.433  0.6484  0.0840 -1.2893
  199MOL0     H27419   5.736  10.212   1.392 -2.5393  1.5021 -0.3417
  199MOL0     H27420   6.013  10.032   1.632  0.1812  0.6723  0.1807
  199MOL0     H27421   6.091   9.861   1.863 -1.3755  0.8816 -1.3231
  199MOL0     H27422   6.170   9.833   1.697 -0.3042 -0.5495 -0.4269
  199MOL0     H27423   6.105   9.706   1.797  0.7533 -0.9446 -0.8367
  199MOL0     H27424   5.608   9.352   1.604  2.4693  1.0308 -2.0973
  199MOL0     H27425   5.532   9.117   1.666  2.0033 -0.3373 -2.9821
  199MOL0     H27426   5.835   8.895   1.919  0.5031 -0.2253 -0.1036
  199MOL0     H27427   5.761   8.985   2.051  0.5790  0.2537 -1.6086
  199MOL0     H27428   5.701   8.695   1.978  1.3224 -1.9743  3.5157
  199MOL0     H27429   5.730   8.771   2.127 -3.1522 -1.2352  0.9303
  199MOL0     H27430   5.470   8.800   1.978  0.7619  1.2004 -0.9098
  199MOL0     H27431   5.512   8.896   2.113 -0.7474  0.6990 -1.5190
  199MOL0     H27432   5.555   8.697   2.256 -0.9757 -1.7833  1.6945
  199MOL0     H27433   5.513   8.595   2.115 -0.0770  1.1253 -2.4733
  199MOL0     H27434   5.285   8.691   2.109 -1.7848  0.6071  1.6083
  199MOL0     H27435   5.308   8.619   2.265 -1.0436 -2.9428 -3.4377
  199MOL0     H27436   5.286   8.898   2.187  0.1403 -0.9513 -1.1698
  199MOL0     H27437   5.394   8.875   2.316  0.2185  0.5979 -1.5193
  199MOL0     H27438   5.128   8.746   2.320 -0.4252 -0.0472  0.1623
  199MOL0     H27439   5.130   8.919   2.341  1.2184  0.4611 -0.6461
  199MOL0     H27440   5.120   8.812   2.561  0.5246 -1.2797  0.9292
  199MOL0     H27441   5.281   8.886   2.541  2.3461 -0.7080 -0.9693
  199MOL0     H27442   5.870   9.122   1.950 -1.5069 -3.9580 -1.6128
  199MOL0     H27443   5.883   9.368   1.942 -2.6248 -0.4612  3.2160
  199MOL0     H27444   5.622   9.724   1.709 -0.9686  1.2937 -2.2561
  199MOL0     H27445   5.585   9.958   1.660 -0.8171 -1.0127 -1.5404
  199MOL0     H27446   4.427  10.949   1.957  4.4655  1.6809 -0.2095
  199MOL0     H27447   4.172  11.015   1.981  1.2130 -1.5090  0.7167
  199MOL0     H27448   3.921  11.348   2.004  0.3801  1.8429  0.2596
  199MOL0     H27449   3.732  11.500   2.078  2.0820  0.4011  0.9309
  199MOL0     H27450   3.397  11.467   1.797 -0.6395  2.3945 -0.9009
  199MOL0     H27451   3.396  11.426   1.977  0.6538  1.5664  0.6404
  199MOL0     H27452   3.200  11.523   1.912  0.3717 -0.7944  1.3589
  199MOL0     H27453   3.275  11.680   1.846 -2.2617  0.1523 -0.0887
  199MOL0     H27454   3.283  11.592   2.137 -0.4095 -2.5952 -1.7969
  199MOL0     H27455   3.355  11.742   2.075  0.4477 -0.0344 -3.7742
  199MOL0     H27456   3.119  11.829   2.006 -0.7759 -0.0806  0.9823
  199MOL0     H27457   3.136  11.803   2.173  0.6440  1.9218 -2.0025
  199MOL0     H27458   2.848  11.500   2.117  2.3080 -2.3315  0.1966
  199MOL0     H27459   3.576  11.471   1.683  0.8864  0.8942 -1.9683
  199MOL0     H27460   3.876  11.443   1.516 -0.3716  1.3084 -0.3426
  199MOL0     H27461   3.835  11.269   1.539 -2.4605 -1.6183 -0.6909
  199MOL0     H27462   3.712  11.379   1.484 -2.0326 -1.2903  2.2302
  200MOL0     O27463  10.406   5.110   7.374 -0.5461  0.2777 -0.6708
  200MOL0     C27464  10.335   5.162   7.453  0.1999  0.6759  0.8041
  200MOL0     O27465  10.383   5.240   7.552 -0.2428 -0.5454 -0.4181
  200MOL0     C27466  10.505   5.308   7.557  0.6734  0.3514 -0.2016
  200MOL0     C27467  10.569   5.324   7.685 -0.2218  0.1535 -0.1226
  200MOL0     C27468  10.698   5.392   7.683 -0.0491  0.4937 -0.4271
  200MOL0     C27469  10.748   5.450   7.567 -0.0775  0.1221 -0.5557
  200MOL0     O27470  10.860   5.523   7.554  0.3716  0.1270  0.4853
  200MOL0     C27471  10.913   5.575   7.672  0.3388 -0.2691 -0.4683
  200MOL0     C27472  11.048   5.646   7.643  0.9346 -0.7081  0.0634
  200MOL0     C27473  11.163   5.570   7.569  0.0738  0.2090  0.0059
  200MOL0     C27474  11.290   5.654   7.576  0.5899 -0.3050  0.1106
  200MOL0     C27475  11.416   5.591   7.518  0.7299  0.3209 -0.3061
  200MOL0     C27476  11.545   5.662   7.573 -0.2132 -0.0471  0.5787
  200MOL0     C27477  11.561   5.817   7.577  0.3594  0.1284  0.5644
  200MOL0     C27478  11.595   5.876   7.439 -0.1740 -0.6283  0.1491
  200MOL0     N27479  11.718   5.815   7.385  0.5095 -0.3002 -0.6757
  200MOL0     C27480  11.716   5.765   7.255  0.5018 -0.3879 -0.9580
  200MOL0     C27481  11.852   5.718   7.237  0.1470  0.9021  0.2051
  200MOL0     C27482  11.905   5.646   7.117  0.3302  0.6758 -0.7678
  200MOL0     C27483  12.050   5.627   7.117  0.2514  0.6941 -0.6216
  200MOL0     C27484  12.082   5.513   7.208  0.4713 -0.0484 -0.1200
  200MOL0     C27485  12.230   5.478   7.213  0.4166 -0.3404  0.5913
  200MOL0     O27486  12.280   5.453   7.080  0.5896  0.4570  0.7499
  200MOL0     C27487  12.413   5.479   7.053 -0.1186  0.3658 -0.8325
  200MOL0     C27488  12.460   5.478   6.926  0.5880  0.3564 -0.1547
  200MOL0     C27489  12.591   5.517   6.890 -0.3326 -0.5685  0.3487
  200MOL0     C27490  12.614   5.525   6.743 -0.2326 -0.1983 -0.9354
  200MOL0     C27491  12.689   5.551   6.988 -0.1137 -0.6903  0.6353
  200MOL0     C27492  12.835   5.569   6.959  0.3912  0.0824 -0.1772
  200MOL0     O27493  12.881   5.509   6.849  0.2558  0.5368 -0.3634
  200MOL0     C27494  13.016   5.519   6.828 -0.1995 -0.7275  0.0667
  200MOL0     C27495  13.078   5.630   6.771 -0.6363 -0.4843 -0.2736
  200MOL0     C27496  13.214   5.631   6.735  0.3950  0.3322  0.2506
  200MOL0     C27497  13.291   5.515   6.746 -0.4169 -0.2857 -0.5931
  200MOL0     O27498  13.415   5.518   6.687  0.0175 -0.0035 -0.1463
  200MOL0     C27499  13.465   5.402   6.618 -0.8940  0.2245  0.4555
  200MOL0     C27500  13.548   5.314   6.715  0.2506 -0.7418  0.1706
  200MOL0     C27501  13.630   5.209   6.629  0.3486  0.5654  0.8215
  200MOL0     C27502  13.775   5.243   6.632 -0.7277 -0.5037  0.6726
  200MOL0     C27503  13.868   5.120   6.579 -0.2169 -0.6622  0.7970
  200MOL0     C27504  14.001   5.170   6.560  0.1970  0.7327  0.8598
  200MOL0     C27505  14.106   5.074   6.623  0.4768 -0.0458  1.0268
  200MOL0     C27506  14.245   5.126   6.615  0.6745  1.3518  0.0658
  200MOL0    Cl27507  14.320   5.076   6.461 -0.0934 -0.4920 -0.0253
  200MOL0     C27508  13.230   5.401   6.804 -0.3984 -0.6967  0.5163
  200MOL0     C27509  13.099   5.410   6.843  1.0043 -0.1359  0.2395
  200MOL0     O27510  12.899   5.620   7.049 -0.0296 -0.2692 -1.1504
  200MOL0     C27511  12.640   5.563   7.115  0.1976 -0.2462  0.1093
  200MOL0     C27512  12.506   5.522   7.145 -0.1136 -0.8715 -0.3249
  200MOL0     N27513  11.920   5.766   7.353  0.4299  0.1858  0.2033
  200MOL0     N27514  11.847   5.817   7.434  0.2024  0.1713 -0.3778
  200MOL0     C27515  10.676   5.439   7.449 -0.3834 -0.3998  0.0754
  200MOL0     C27516  10.560   5.363   7.435 -0.3548 -0.7417 -0.0116
  200MOL0     C27517  10.182   5.143   7.433  0.2758  0.5014 -0.1410
  200MOL0     C27518  10.107   5.201   7.541  0.7298 -0.4068 -0.2789
  200MOL0     C27519   9.966   5.201   7.534  0.5899 -0.3150  0.0772
  200MOL0     C27520   9.904   5.144   7.426  0.3709 -0.4556  1.0979
  200MOL0     O27521   9.767   5.161   7.435  0.1838 -0.0959 -0.8143
  200MOL0     C27522   9.684   5.043   7.433 -1.2643  0.3051 -0.7564
  200MOL0     C27523   9.544   5.075   7.390  1.0753  0.4134 -0.0340
  200MOL0     C27524   9.471   5.155   7.500  0.5746  0.9241 -0.6395
  200MOL0     C27525   9.314   5.167   7.487  0.7080  0.0334  0.2439
  200MOL0     C27526   9.233   5.041   7.515  0.0265  0.1270 -0.4102
  200MOL0     C27527   9.191   4.933   7.499  0.8161  1.2736 -0.2652
  200MOL0     C27528   9.977   5.082   7.324  1.1378 -0.5798 -0.4711
  200MOL0     C27529  10.109   5.086   7.321  0.2848  0.2342  0.0600
  200MOL0     C27530  10.169   5.014   7.201  0.1739 -0.6855  0.6445
  200MOL0     H27531  10.520   5.273   7.768  0.1735 -1.6058 -0.9178
  200MOL0     H27532  10.748   5.393   7.780 -3.2442  0.2815  1.3635
  200MOL0     H27533  10.921   5.486   7.735 -2.5806 -1.9438 -2.2966
  200MOL0     H27534  10.843   5.649   7.712 -2.3135 -1.3241 -2.8462
  200MOL0     H27535  11.031   5.744   7.598 -1.9940 -1.1696 -0.0885
  200MOL0     H27536  11.085   5.673   7.742  2.7230 -2.4400 -0.0757
  200MOL0     H27537  11.179   5.471   7.612 -1.6448 -2.4353 -4.6633
  200MOL0     H27538  11.143   5.544   7.464  3.2304 -2.4837 -0.0852
  200MOL0     H27539  11.270   5.738   7.508  0.2301 -2.0411 -2.0396
  200MOL0     H27540  11.306   5.683   7.680 -1.9383  0.7709  0.2787
  200MOL0     H27541  11.431   5.607   7.411 -1.7841  2.3562 -0.4571
  200MOL0     H27542  11.403   5.484   7.536 -1.0003  0.5311 -0.0691
  200MOL0     H27543  11.558   5.624   7.675  1.0826 -0.1027  0.4197
  200MOL0     H27544  11.633   5.617   7.526  0.4994  1.3727  0.4978
  200MOL0     H27545  11.643   5.847   7.643  1.4266 -2.7521  0.6953
  200MOL0     H27546  11.460   5.849   7.604 -0.2639  1.7053 -3.0370
  200MOL0     H27547  11.508   5.857   7.376  0.7036 -1.0235 -0.9708
  200MOL0     H27548  11.610   5.985   7.433 -0.5091 -0.6546 -1.8240
  200MOL0     H27549  11.634   5.767   7.184 -0.6402 -0.4150  0.3221
  200MOL0     H27550  11.866   5.705   7.034  1.1856  0.0970 -1.6019
  200MOL0     H27551  11.867   5.543   7.115 -1.3201  1.1579  1.2027
  200MOL0     H27552  12.078   5.599   7.016 -1.0575 -3.0043 -0.0798
  200MOL0     H27553  12.096   5.723   7.143  0.1693  0.6468 -0.2993
  200MOL0     H27554  12.062   5.527   7.315 -2.0724 -1.9698 -0.2739
  200MOL0     H27555  12.022   5.426   7.184  0.8127 -0.4450  0.4445
  200MOL0     H27556  12.278   5.567   7.253 -0.2612  1.1307 -1.7159
  200MOL0     H27557  12.244   5.391   7.279  0.1167  0.0478  1.1805
  200MOL0     H27558  12.400   5.448   6.841  0.9981  1.9887 -1.0544
  200MOL0     H27559  12.518   5.556   6.702 -1.0957  0.4152  1.3736
  200MOL0     H27560  12.641   5.423   6.715  0.9839 -0.4009  0.7754
  200MOL0     H27561  12.693   5.596   6.717  0.7160 -0.5208  0.8930
  200MOL0     H27562  13.027   5.725   6.754 -1.5658 -0.6839  1.1833
  200MOL0     H27563  13.252   5.711   6.672  0.6904 -1.0605 -1.3966
  200MOL0     H27564  13.397   5.334   6.567  2.4274 -2.6625 -0.5376
  200MOL0     H27565  13.529   5.446   6.541 -3.1045  2.5568 -0.1931
  200MOL0     H27566  13.613   5.374   6.779 -0.8341 -1.0613  1.6290
  200MOL0     H27567  13.481   5.268   6.789  0.8455 -3.4190 -0.8459
  200MOL0     H27568  13.599   5.196   6.525 -0.9261 -0.0248  1.2593
  200MOL0     H27569  13.620   5.108   6.669  0.5803  0.5799  0.9175
  200MOL0     H27570  13.806   5.275   6.732 -0.5182 -1.4356  0.9120
  200MOL0     H27571  13.791   5.322   6.558  1.7709 -0.4867  1.1467
  200MOL0     H27572  13.862   5.039   6.651 -0.5778  0.5458  2.1823
  200MOL0     H27573  13.832   5.084   6.482 -0.3957  3.7279 -1.0351
  200MOL0     H27574  14.018   5.266   6.611  0.2271  1.5063 -0.5455
  200MOL0     H27575  14.015   5.188   6.453  0.6654  1.8537  1.0903
  200MOL0     H27576  14.101   4.977   6.572  0.8840 -0.4567  1.7565
  200MOL0     H27577  14.083   5.073   6.730 -0.4199  1.8092  0.9075
  200MOL0     H27578  14.307   5.092   6.699 -0.3379 -0.8826 -0.0128
  200MOL0     H27579  14.238   5.235   6.617  0.9531  1.3841 -0.5413
  200MOL0     H27580  13.291   5.311   6.813  2.8439  1.3127  0.4118
  200MOL0     H27581  13.054   5.317   6.878  0.8362  0.7693  2.6635
  200MOL0     H27582  12.701   5.590   7.200 -2.7889  3.6345  1.3186
  200MOL0     H27583  12.488   5.532   7.251  1.7111 -0.7308  0.0025
  200MOL0     H27584  10.728   5.503   7.378  1.0774  1.0419  2.3076
  200MOL0     H27585  10.515   5.345   7.338 -1.9515 -1.2443  0.7873
  200MOL0     H27586  10.164   5.231   7.628  2.8793 -0.3866 -1.6142
  200MOL0     H27587   9.902   5.261   7.598 -0.2784 -2.2008  1.0702
  200MOL0     H27588   9.731   4.969   7.368 -3.6637 -2.5856  0.5317
  200MOL0     H27589   9.679   4.993   7.530  0.8945  1.2124 -0.1079
  200MOL0     H27590   9.487   4.984   7.369  1.6914  0.3067 -1.3564
  200MOL0     H27591   9.542   5.122   7.291  3.7010 -0.0784 -0.4108
  200MOL0     H27592   9.498   5.119   7.600  0.5325  2.3199 -0.0961
  200MOL0     H27593   9.505   5.259   7.500 -1.1385  1.5415 -2.9859
  200MOL0     H27594   9.290   5.201   7.386 -1.2823  0.5122  0.8442
  200MOL0     H27595   9.280   5.244   7.557 -0.8270 -0.4046  0.0030
  200MOL0     H27596   9.152   4.835   7.479  1.3425  0.9741  0.1653
  200MOL0     H27597   9.920   5.036   7.243 -1.9784  0.5452  0.9293
  200MOL0     H27598  10.094   5.020   7.122  2.1174  0.3723 -1.2306
  200MOL0     H27599  10.254   5.074   7.165  0.4319 -0.2895  1.8783
  200MOL0     H27600  10.196   4.908   7.205  0.4198 -0.7795 -1.7006
  201MOL0     O27601   1.993   7.365   7.388  0.1594 -1.0012 -0.2965
  201MOL0     C27602   2.102   7.307   7.401 -0.0706  0.2632  0.4168
  201MOL0     O27603   2.148   7.225   7.508 -0.3760 -0.6044  0.3311
  201MOL0     C27604   2.082   7.220   7.631  1.0578 -0.2545  0.2481
  201MOL0     C27605   2.062   7.104   7.700 -0.0551  0.6341 -0.3893
  201MOL0     C27606   2.016   7.101   7.836 -0.3609  0.2925  0.9628
  201MOL0     C27607   1.984   7.216   7.900  0.3757  0.2032 -0.4776
  201MOL0     O27608   1.934   7.202   8.022 -0.6704 -0.3238  0.5484
  201MOL0     C27609   1.933   7.320   8.110  0.3397  0.0936 -0.1025
  201MOL0     C27610   1.875   7.274   8.246  0.2064  0.0011  0.6049
  201MOL0     C27611   1.918   7.356   8.370 -0.2665 -0.1890  0.1425
  201MOL0     C27612   1.891   7.510   8.346 -0.8229 -1.1450 -0.3616
  201MOL0     C27613   1.919   7.587   8.477  0.0409  0.9159  0.5874
  201MOL0     C27614   1.939   7.745   8.464  0.3926 -0.2867  0.1083
  201MOL0     C27615   2.019   7.814   8.579  0.6978 -0.1550  0.4174
  201MOL0     C27616   2.044   7.958   8.554  0.3006 -0.7263  0.6552
  201MOL0     N27617   1.928   8.048   8.515 -0.2069 -0.2880 -0.4376
  201MOL0     C27618   1.831   8.078   8.613 -0.1678  0.0367 -0.8387
  201MOL0     C27619   1.764   8.184   8.572 -0.2930  0.0537  0.1629
  201MOL0     C27620   1.643   8.251   8.631 -0.8863 -0.2455  0.2450
  201MOL0     C27621   1.627   8.400   8.579 -0.2987 -0.4625 -0.3921
  201MOL0     C27622   1.725   8.492   8.656  0.3083 -0.8328  1.0945
  201MOL0     C27623   1.723   8.645   8.607 -0.6452  1.4857 -0.7903
  201MOL0     O27624   1.818   8.721   8.679 -0.7932 -0.6244 -0.3872
  201MOL0     C27625   1.846   8.851   8.648  0.0803  0.9025 -0.1328
  201MOL0     C27626   1.827   8.918   8.525  0.5566 -1.0540  0.7126
  201MOL0     C27627   1.859   9.053   8.517  0.4789 -0.2754 -0.8950
  201MOL0     C27628   1.852   9.108   8.376  0.2330 -0.4369 -0.1122
  201MOL0     C27629   1.916   9.126   8.627  0.3230  0.2894 -0.6919
  201MOL0     C27630   1.983   9.254   8.605  0.4396 -1.0531  0.3124
  201MOL0     O27631   1.953   9.322   8.497 -0.3803  0.4273 -0.3896
  201MOL0     C27632   2.041   9.427   8.466  0.5796 -0.1743 -0.3990
  201MOL0     C27633   2.049   9.541   8.553 -0.0210 -0.2097  0.8092
  201MOL0     C27634   2.125   9.656   8.509 -1.2786  0.0429 -0.2924
  201MOL0     C27635   2.180   9.664   8.379  0.7392  0.1463 -0.4170
  201MOL0     O27636   2.245   9.781   8.337  0.3127 -0.0302  0.0934
  201MOL0     C27637   2.333   9.776   8.223 -0.9139  0.2941 -1.0335
  201MOL0     C27638   2.437   9.887   8.232 -0.7616  0.1329 -0.2887
  201MOL0     C27639   2.575   9.839   8.280  0.1823 -0.2862  0.2248
  201MOL0     C27640   2.595   9.758   8.408  0.4605  0.5501 -0.1487
  201MOL0     C27641   2.731   9.809   8.469 -0.2164 -0.5222 -0.0639
  201MOL0     C27642   2.718   9.929   8.566  0.6350  0.1725 -0.1036
  201MOL0     C27643   2.859  10.003   8.590  0.7390 -0.0644 -0.2165
  201MOL0     C27644   2.947   9.930   8.677 -0.4899  0.6369 -0.2710
  201MOL0    Cl27645   3.095  10.043   8.674 -0.1398  0.0588  0.1208
  201MOL0     C27646   2.169   9.556   8.300  0.6309 -0.5940  0.5820
  201MOL0     C27647   2.113   9.434   8.338 -0.1418  0.6016  0.7030
  201MOL0     O27648   2.072   9.284   8.690  0.1950 -1.1794  0.8475
  201MOL0     C27649   1.943   9.048   8.744  0.5348 -0.2396 -0.2696
  201MOL0     C27650   1.907   8.915   8.752 -0.0300 -0.6712 -0.5354
  201MOL0     N27651   1.830   8.236   8.459 -0.2822 -0.3570 -0.0580
  201MOL0     N27652   1.927   8.152   8.426  0.3167 -0.2030 -0.6988
  201MOL0     C27653   1.980   7.338   7.830  1.4320  0.7798  0.4599
  201MOL0     C27654   2.030   7.342   7.695 -0.2388 -0.4627  0.2545
  201MOL0     C27655   2.196   7.350   7.298 -0.5473 -0.7718 -0.4753
  201MOL0     C27656   2.282   7.248   7.257  0.2856 -0.2489  0.4665
  201MOL0     C27657   2.396   7.273   7.177 -0.4849 -0.2990 -0.4705
  201MOL0     C27658   2.435   7.404   7.154 -0.3587  0.1617 -0.4541
  201MOL0     O27659   2.544   7.420   7.070  0.2569  0.0597 -0.6309
  201MOL0     C27660   2.668   7.358   7.117  0.0138 -0.1704  0.9960
  201MOL0     C27661   2.784   7.455   7.074 -0.4774  0.2532 -0.9436
  201MOL0     C27662   2.913   7.408   7.144 -0.4310  0.2912 -0.1982
  201MOL0     C27663   2.975   7.269   7.083 -0.2477  0.3082  0.6784
  201MOL0     C27664   2.999   7.282   6.936 -0.1475 -0.2390 -0.2025
  201MOL0     C27665   3.015   7.286   6.816 -0.3961 -0.1146 -0.8982
  201MOL0     C27666   2.355   7.512   7.190 -0.3916  0.7748 -0.0604
  201MOL0     C27667   2.237   7.483   7.265 -0.4482  0.4611  0.4995
  201MOL0     C27668   2.169   7.608   7.322  0.2914  0.7314 -0.9711
  201MOL0     H27669   2.118   7.023   7.653  2.2046  2.2670 -0.7251
  201MOL0     H27670   2.038   7.017   7.901 -0.1849 -1.3048 -1.0717
  201MOL0     H27671   1.871   7.402   8.072  1.0713  2.5775  3.5105
  201MOL0     H27672   2.037   7.350   8.119 -0.0666  0.9597  2.6508
  201MOL0     H27673   1.766   7.269   8.247  0.0670  0.1806 -2.4644
  201MOL0     H27674   1.922   7.178   8.269 -0.4295 -0.2424  0.9270
  201MOL0     H27675   1.849   7.321   8.447 -2.0626  1.6555 -0.5470
  201MOL0     H27676   2.023   7.336   8.394  0.0699  3.6471  2.6891
  201MOL0     H27677   1.947   7.552   8.262 -2.5457  1.8542 -0.1425
  201MOL0     H27678   1.785   7.525   8.323 -0.6446  0.1915 -0.3924
  201MOL0     H27679   2.010   7.538   8.512 -2.0631 -3.5569  0.4780
  201MOL0     H27680   1.834   7.572   8.544  0.5327  1.3738  1.3311
  201MOL0     H27681   1.984   7.763   8.366 -1.2832  0.8138 -0.5039
  201MOL0     H27682   1.841   7.793   8.451  0.7202  0.9743  1.8367
  201MOL0     H27683   2.109   7.758   8.607 -1.4428 -3.4188  1.3850
  201MOL0     H27684   1.949   7.801   8.663 -2.0492  0.7947 -1.5906
  201MOL0     H27685   2.103   7.992   8.640 -0.0701  1.3022  0.1749
  201MOL0     H27686   2.107   7.973   8.465  1.0495  1.9039  1.5319
  201MOL0     H27687   1.813   8.013   8.698 -1.6145  0.3747 -0.8487
  201MOL0     H27688   1.637   8.248   8.740 -4.4377  1.2242  0.2272
  201MOL0     H27689   1.553   8.196   8.604 -0.4190  0.4263 -3.2246
  201MOL0     H27690   1.649   8.412   8.473  2.5665  1.8662  0.3139
  201MOL0     H27691   1.523   8.427   8.597 -0.3493  0.1233 -1.4783
  201MOL0     H27692   1.712   8.493   8.765  1.0181 -1.2348  1.1884
  201MOL0     H27693   1.827   8.455   8.645  1.2596  1.5607  1.2116
  201MOL0     H27694   1.761   8.634   8.504  0.6337 -2.4169 -0.0384
  201MOL0     H27695   1.625   8.693   8.604 -1.8105 -0.7879 -0.3509
  201MOL0     H27696   1.808   8.857   8.438  1.7200 -0.1673 -0.1823
  201MOL0     H27697   1.950   9.143   8.340  1.3281 -1.9441  1.2725
  201MOL0     H27698   1.776   9.187   8.374  2.4858  1.9178  0.8295
  201MOL0     H27699   1.816   9.033   8.305 -2.3064 -0.9078  1.5507
  201MOL0     H27700   1.998   9.540   8.649  0.4490 -1.3140  1.0695
  201MOL0     H27701   2.129   9.742   8.574 -0.0901 -0.2791  0.0825
  201MOL0     H27702   2.382   9.680   8.204  0.5184  1.0492 -1.2946
  201MOL0     H27703   2.260   9.782   8.142 -2.8747 -2.6854  0.2955
  201MOL0     H27704   2.446   9.950   8.142 -0.0889  0.4441 -0.0138
  201MOL0     H27705   2.406   9.960   8.308 -1.7973 -0.0814 -0.4960
  201MOL0     H27706   2.636   9.929   8.294  1.3441 -1.1830  1.0940
  201MOL0     H27707   2.608   9.771   8.201 -0.3776  0.9629 -1.1354
  201MOL0     H27708   2.602   9.653   8.375 -1.3549  1.2286 -3.0631
  201MOL0     H27709   2.514   9.770   8.480 -0.5580  3.3692 -1.6254
  201MOL0     H27710   2.775   9.730   8.530  1.5711  0.1669 -0.4089
  201MOL0     H27711   2.809   9.823   8.394  0.0263  2.9484  0.6842
  201MOL0     H27712   2.677   9.886   8.658  0.7180 -1.0189 -0.6031
  201MOL0     H27713   2.643  10.002   8.533 -2.4239 -2.4594  0.5891
  201MOL0     H27714   2.845  10.104   8.629 -1.3091  0.9005 -3.1549
  201MOL0     H27715   2.902  10.021   8.491  0.9509  1.6603  0.1669
  201MOL0     H27716   2.973   9.834   8.631  1.4253  1.3815 -0.8458
  201MOL0     H27717   2.907   9.917   8.778  1.6306  0.7756  0.6330
  201MOL0     H27718   2.235   9.551   8.214  1.1909 -0.7069  1.0106
  201MOL0     H27719   2.115   9.346   8.273 -0.3979  0.8772  0.3166
  201MOL0     H27720   2.006   9.092   8.821 -2.3315  2.1016  0.9453
  201MOL0     H27721   1.941   8.871   8.846 -0.2992  1.9454  0.8652
  201MOL0     H27722   1.942   7.430   7.872  0.6650  0.9572 -0.5689
  201MOL0     H27723   2.045   7.431   7.636 -2.3631 -0.7544 -0.7884
  201MOL0     H27724   2.254   7.145   7.280  0.0220 -0.5236 -1.0130
  201MOL0     H27725   2.456   7.190   7.140 -0.9633 -1.1645  0.6252
  201MOL0     H27726   2.677   7.345   7.225 -0.9282 -0.8530  1.0046
  201MOL0     H27727   2.682   7.264   7.062 -0.0282 -0.6086  1.7266
  201MOL0     H27728   2.756   7.557   7.103  1.4459  0.5913 -0.1009
  201MOL0     H27729   2.796   7.453   6.965 -1.6888  0.8336 -1.1025
  201MOL0     H27730   2.991   7.485   7.139 -0.2865  0.1980  0.4428
  201MOL0     H27731   2.888   7.383   7.248 -0.2620  0.0024 -0.2282
  201MOL0     H27732   2.917   7.178   7.103 -0.0231 -0.1201 -0.5557
  201MOL0     H27733   3.068   7.256   7.140 -0.0723 -0.9767  0.1296
  201MOL0     H27734   3.042   7.309   6.715 -0.5439 -2.4635 -1.5307
  201MOL0     H27735   2.379   7.613   7.161 -0.3573  1.2229  1.4336
  201MOL0     H27736   2.222   7.700   7.293 -0.6441  1.7983  0.5658
  201MOL0     H27737   2.066   7.608   7.286 -0.0706  0.3550  0.0489
  201MOL0     H27738   2.164   7.614   7.431 -1.0454 -0.8266 -0.9237
  202MOL0     O27739   6.180   2.638  10.620  0.1481 -0.3697 -0.1765
  202MOL0     C27740   6.183   2.743  10.560 -0.4780  0.9535  1.0064
  202MOL0     O27741   6.305   2.811  10.537  0.2179 -1.4334  0.2739
  202MOL0     C27742   6.432   2.754  10.554  0.0974 -0.9540 -0.2797
  202MOL0     C27743   6.464   2.617  10.547 -0.0270  0.2643  0.2362
  202MOL0     C27744   6.595   2.578  10.575  0.1264 -0.7636 -0.5131
  202MOL0     C27745   6.691   2.668  10.612 -1.0116 -0.7607 -0.3156
  202MOL0     O27746   6.816   2.616  10.622  0.3929 -0.6397  0.4685
  202MOL0     C27747   6.916   2.679  10.702  1.1172  0.4193  0.1216
  202MOL0     C27748   7.018   2.573  10.731  0.3101 -0.1462  0.2196
  202MOL0     C27749   7.115   2.627  10.831  0.0248  0.0669  0.0219
  202MOL0     C27750   7.234   2.533  10.859 -0.0216 -0.3062  0.3721
  202MOL0     C27751   7.332   2.597  10.949  0.2871 -0.0192  0.2429
  202MOL0     C27752   7.451   2.519  11.004 -0.6895  0.1104 -0.3718
  202MOL0     C27753   7.413   2.385  11.079 -0.4118  0.3096  0.1043
  202MOL0     C27754   7.531   2.292  11.100 -0.3494  0.0915  0.7138
  202MOL0     N27755   7.493   2.143  11.109 -0.3551 -0.4667  0.4811
  202MOL0     C27756   7.530   2.058  11.205 -0.4496 -0.9101  0.9302
  202MOL0     C27757   7.483   1.942  11.174 -0.7962  0.0524  0.8607
  202MOL0     C27758   7.498   1.805  11.236  0.6492 -0.6781  0.2119
  202MOL0     C27759   7.592   1.725  11.158  0.0024 -0.1514  0.1512
  202MOL0     C27760   7.593   1.580  11.203  0.3902  0.9683  0.9653
  202MOL0     C27761   7.687   1.492  11.140 -0.9360 -0.3196 -0.3623
  202MOL0     O27762   7.815   1.554  11.141 -1.2390 -0.3900  0.6632
  202MOL0     C27763   7.921   1.485  11.090 -0.1211 -0.1633  0.2516
  202MOL0     C27764   7.910   1.352  11.049  0.1092 -0.1162 -0.2008
  202MOL0     C27765   8.032   1.290  11.005 -0.8238  0.8127 -0.3583
  202MOL0     C27766   8.033   1.152  10.957  0.3671  0.4122 -0.1798
  202MOL0     C27767   8.158   1.360  11.021 -0.5541  0.2763 -0.9064
  202MOL0     C27768   8.284   1.313  10.968  0.4359 -0.3639 -0.2395
  202MOL0     O27769   8.317   1.192  10.989  0.0443  0.5483  0.0663
  202MOL0     C27770   8.437   1.141  10.952 -0.5263  0.9155 -0.0398
  202MOL0     C27771   8.563   1.205  10.965 -0.1894  0.7714 -0.4322
  202MOL0     C27772   8.685   1.138  10.941  0.5230  0.2143  0.4838
  202MOL0     C27773   8.682   1.010  10.883 -0.6708 -0.4015  0.9966
  202MOL0     O27774   8.807   0.959  10.850 -0.4807 -0.0408  0.3388
  202MOL0     C27775   8.817   0.861  10.747  0.2353  0.5004 -0.3387
  202MOL0     C27776   8.797   0.902  10.607  0.6141 -0.1167 -0.0806
  202MOL0     C27777   8.923   0.981  10.554  1.1221 -0.1521  0.7377
  202MOL0     C27778   8.975   0.931  10.421  0.6513  0.0917 -0.6153
  202MOL0     C27779   9.063   0.812  10.448 -0.1091 -0.3562  0.5951
  202MOL0     C27780   9.199   0.827  10.372  0.1291  0.4099 -0.0169
  202MOL0     C27781   9.262   0.694  10.353 -1.2688 -0.4213 -0.5159
  202MOL0     C27782   9.381   0.687  10.257 -0.7105 -0.4242 -0.7577
  202MOL0    Cl27783   9.451   0.529  10.245 -0.3210  0.0467 -0.4783
  202MOL0     C27784   8.559   0.947  10.860  0.5826 -0.1599  0.6431
  202MOL0     C27785   8.444   1.014  10.882  0.2189  0.4271 -0.2109
  202MOL0     O27786   8.345   1.395  10.900 -0.1000  0.1843  0.3297
  202MOL0     C27787   8.161   1.491  11.077  0.1049 -0.0577 -0.2142
  202MOL0     C27788   8.038   1.546  11.110  0.1289  0.2967  0.0224
  202MOL0     N27789   7.419   1.954  11.050 -0.2644 -0.0399 -0.0923
  202MOL0     N27790   7.422   2.073  11.014  0.1575  0.5115 -0.7942
  202MOL0     C27791   6.667   2.806  10.603  0.4323  0.1950 -0.3362
  202MOL0     C27792   6.537   2.847  10.579  0.1658 -0.2091  0.3459
  202MOL0     C27793   6.049   2.807  10.520 -0.8593 -0.2765 -0.1055
  202MOL0     C27794   5.925   2.769  10.576  0.2641  0.4520 -0.6861
  202MOL0     C27795   5.799   2.817  10.538  0.7615 -0.4883  0.3187
  202MOL0     C27796   5.798   2.926  10.450  0.5984 -0.4582 -0.0576
  202MOL0     O27797   5.691   2.998  10.407  0.3949 -0.3355 -0.4662
  202MOL0     C27798   5.573   3.007  10.488  0.4076  0.1260  0.6966
  202MOL0     C27799   5.595   3.037  10.634  0.5651  0.2803  0.4896
  202MOL0     C27800   5.461   3.076  10.684 -0.5278  0.5241  0.4986
  202MOL0     C27801   5.466   3.161  10.807 -0.7489  0.7093  0.3261
  202MOL0     C27802   5.459   3.084  10.934 -0.1198  0.0739 -0.6345
  202MOL0     C27803   5.434   3.008  11.025 -0.7016  0.4922 -1.1530
  202MOL0     C27804   5.919   2.968  10.403  0.1049 -0.2593  0.5754
  202MOL0     C27805   6.037   2.910  10.433 -0.2163  0.3633 -0.4374
  202MOL0     C27806   6.155   2.971  10.356 -0.2489  0.0372 -0.5585
  202MOL0     H27807   6.392   2.539  10.530 -0.6752  1.0956 -0.9635
  202MOL0     H27808   6.613   2.472  10.564 -2.6258 -1.2672 -0.9264
  202MOL0     H27809   6.877   2.711  10.799  0.1669 -2.4785  0.7888
  202MOL0     H27810   6.961   2.767  10.655  1.1288  1.3555  1.8054
  202MOL0     H27811   6.980   2.483  10.781 -0.9079  0.7164  0.9029
  202MOL0     H27812   7.067   2.545  10.638 -0.5489  4.5503 -1.9524
  202MOL0     H27813   7.153   2.727  10.809  4.2255 -1.2398  0.4072
  202MOL0     H27814   7.061   2.644  10.925 -3.9258  2.2950 -2.3893
  202MOL0     H27815   7.191   2.441  10.900  0.3047 -1.2097 -1.2245
  202MOL0     H27816   7.288   2.508  10.767 -0.0232  0.5585  0.1349
  202MOL0     H27817   7.267   2.636  11.029 -0.2974 -0.9679  0.2405
  202MOL0     H27818   7.369   2.685  10.895 -1.4814  0.8392  0.3728
  202MOL0     H27819   7.529   2.496  10.931  1.6722  1.9759  1.3461
  202MOL0     H27820   7.497   2.581  11.082 -0.1529 -0.0487 -0.5597
  202MOL0     H27821   7.336   2.332  11.022  0.6219 -2.3070  0.9859
  202MOL0     H27822   7.378   2.415  11.179 -1.2074  0.0053 -0.0774
  202MOL0     H27823   7.593   2.297  11.011 -1.5487 -0.4233 -0.1853
  202MOL0     H27824   7.597   2.331  11.179 -0.4292  1.0933  0.3026
  202MOL0     H27825   7.589   2.072  11.295  0.7491 -1.1299  0.1943
  202MOL0     H27826   7.397   1.763  11.234 -0.3460  1.3187  2.8114
  202MOL0     H27827   7.514   1.819  11.343 -0.0269  0.1933  0.2090
  202MOL0     H27828   7.564   1.726  11.052 -1.8103  2.6474  0.5476
  202MOL0     H27829   7.690   1.771  11.169  0.2549 -0.3670 -1.0346
  202MOL0     H27830   7.602   1.575  11.311 -1.1389 -0.2568  1.0593
  202MOL0     H27831   7.495   1.546  11.169  1.6216  0.0941 -2.0560
  202MOL0     H27832   7.689   1.395  11.190  4.0888 -1.6975 -2.6412
  202MOL0     H27833   7.657   1.468  11.038 -2.5797 -0.7005  0.1766
  202MOL0     H27834   7.812   1.306  11.047 -0.5727  1.2084  0.8644
  202MOL0     H27835   8.106   1.123  10.881  1.2108  2.8996 -0.4302
  202MOL0     H27836   7.943   1.136  10.898  1.8178  1.4510 -2.8096
  202MOL0     H27837   8.044   1.086  11.044 -1.3253  0.3045 -0.0169
  202MOL0     H27838   8.569   1.299  11.019 -1.0909  0.2629  0.5679
  202MOL0     H27839   8.784   1.183  10.940  0.8357  0.4232 -6.2461
  202MOL0     H27840   8.921   0.826  10.750 -0.3148 -1.3473 -1.3053
  202MOL0     H27841   8.763   0.770  10.775  3.0660 -1.6433 -1.3314
  202MOL0     H27842   8.768   0.820  10.540 -1.8142  0.7090 -0.1702
  202MOL0     H27843   8.702   0.954  10.588  0.8160 -0.2476 -1.6202
  202MOL0     H27844   9.006   0.979  10.625  0.9274 -2.3036  0.9562
  202MOL0     H27845   8.887   1.081  10.528 -1.0089 -1.5880 -2.6119
  202MOL0     H27846   9.023   1.023  10.385 -2.4551  3.0622  2.0574
  202MOL0     H27847   8.890   0.917  10.355  0.8666  0.2759 -0.9359
  202MOL0     H27848   9.080   0.790  10.554  2.0773  2.6195  1.0063
  202MOL0     H27849   9.013   0.724  10.409  2.8010 -0.4987 -3.4172
  202MOL0     H27850   9.271   0.895  10.419  0.6529 -0.1070 -0.0606
  202MOL0     H27851   9.173   0.862  10.271 -2.1117 -0.4263  0.2150
  202MOL0     H27852   9.182   0.630  10.316 -0.5758 -3.7235  2.9971
  202MOL0     H27853   9.282   0.660  10.456 -0.2152  4.2692  1.0552
  202MOL0     H27854   9.454   0.764  10.282  0.8157 -2.5926  2.1273
  202MOL0     H27855   9.339   0.715  10.160 -2.4021  1.5786  0.4586
  202MOL0     H27856   8.571   0.844  10.829  0.2629  0.5912 -2.2050
  202MOL0     H27857   8.348   0.968  10.865 -0.7734  1.1717  2.7868
  202MOL0     H27858   8.255   1.545  11.080  0.1229 -0.1129  0.4774
  202MOL0     H27859   8.050   1.651  11.133 -1.6380  0.5486 -0.0262
  202MOL0     H27860   6.751   2.874  10.617  1.4608 -0.2371 -3.5653
  202MOL0     H27861   6.504   2.946  10.609 -1.6716 -0.3878 -0.8912
  202MOL0     H27862   5.926   2.686  10.646  1.0367 -0.6526 -1.9465
  202MOL0     H27863   5.708   2.769  10.573  0.3129 -2.0335 -2.6527
  202MOL0     H27864   5.521   3.095  10.447 -0.3289 -0.3604  0.5613
  202MOL0     H27865   5.508   2.919  10.477 -0.9216  1.0938  0.5195
  202MOL0     H27866   5.670   3.116  10.644 -1.0603  1.6404  3.0325
  202MOL0     H27867   5.638   2.953  10.690  0.5230  1.0325  1.7030
  202MOL0     H27868   5.396   3.122  10.609 -0.6056 -1.6622 -0.8959
  202MOL0     H27869   5.423   2.977  10.711  0.6215  0.0569  0.4751
  202MOL0     H27870   5.382   3.230  10.808 -3.2860 -2.1529 -0.5138
  202MOL0     H27871   5.553   3.226  10.792  0.1022 -0.5349 -0.3768
  202MOL0     H27872   5.433   2.938  11.105  2.9062  0.0535 -1.3169
  202MOL0     H27873   5.923   3.040  10.321  1.2343 -1.4428 -0.4717
  202MOL0     H27874   6.126   3.041  10.277 -1.4554 -1.1248 -1.1799
  202MOL0     H27875   6.225   3.021  10.424 -0.7783 -0.4750  0.3724
  202MOL0     H27876   6.215   2.898  10.300  0.5800 -0.0091  0.3699
  203MOL0     O27877   1.728   6.323   1.215 -0.5372  0.3048 -0.5883
  203MOL0     C27878   1.701   6.230   1.289 -0.1620  0.3599 -0.2449
  203MOL0     O27879   1.783   6.151   1.367  0.5910 -0.6090  0.3000
  203MOL0     C27880   1.916   6.167   1.361 -0.2713 -0.1576  0.7430
  203MOL0     C27881   1.982   6.127   1.475  0.1099 -0.0399  0.6342
  203MOL0     C27882   2.125   6.142   1.482 -0.5141  0.5345  0.3869
  203MOL0     C27883   2.198   6.184   1.367  0.4587 -0.6019  0.0244
  203MOL0     O27884   2.332   6.176   1.383  0.9810  0.0926 -0.3101
  203MOL0     C27885   2.417   6.274   1.330  0.2845 -0.5008  0.2803
  203MOL0     C27886   2.398   6.422   1.374 -0.2678  0.9940 -0.4085
  203MOL0     C27887   2.475   6.523   1.281  0.8808  0.9136  0.5084
  203MOL0     C27888   2.625   6.506   1.298  0.4710  0.8179 -0.3798
  203MOL0     C27889   2.691   6.616   1.215  0.4135  0.9669  0.7155
  203MOL0     C27890   2.835   6.602   1.261  0.1095 -0.1975 -0.2548
  203MOL0     C27891   2.942   6.663   1.175 -0.9022  0.2449 -0.3630
  203MOL0     C27892   2.902   6.808   1.159  0.3101  0.3504 -0.5693
  203MOL0     N27893   3.006   6.893   1.106 -0.8334  0.1381 -0.5110
  203MOL0     C27894   3.018   6.947   0.978  0.0039  1.1088 -0.3258
  203MOL0     C27895   3.132   7.012   0.973 -0.9307 -0.0977 -1.2535
  203MOL0     C27896   3.195   7.070   0.845  0.3619 -0.2567  0.4841
  203MOL0     C27897   3.205   7.223   0.870 -0.9694  0.6440  0.9931
  203MOL0     C27898   3.281   7.290   0.752 -0.4308 -0.1776 -0.4527
  203MOL0     C27899   3.424   7.302   0.779 -0.2453  0.8635  0.9741
  203MOL0     O27900   3.502   7.343   0.672  0.5042  0.3381 -0.7069
  203MOL0     C27901   3.633   7.363   0.691  0.2376 -0.6214 -0.0619
  203MOL0     C27902   3.676   7.444   0.797  0.3824 -0.4809 -1.0473
  203MOL0     C27903   3.815   7.468   0.802  0.1385  0.6837 -0.4321
  203MOL0     C27904   3.861   7.538   0.929  0.1678  0.5663  0.9493
  203MOL0     C27905   3.903   7.419   0.694 -0.4691 -0.4572 -0.3065
  203MOL0     C27906   4.054   7.443   0.690  1.9423 -0.4346 -0.0569
  203MOL0     O27907   4.119   7.418   0.575  0.5416  0.2820  0.5511
  203MOL0     C27908   4.254   7.408   0.578 -0.9599  0.5344 -0.5327
  203MOL0     C27909   4.339   7.373   0.683  0.0250  0.2306 -0.6704
  203MOL0     C27910   4.471   7.347   0.655  0.1798 -0.6586 -0.2430
  203MOL0     C27911   4.540   7.363   0.534 -0.1163 -0.7720 -0.2480
  203MOL0     O27912   4.678   7.345   0.514  1.0043 -0.0708  0.3883
  203MOL0     C27913   4.749   7.283   0.618 -0.3630 -0.2733  0.7252
  203MOL0     C27914   4.874   7.216   0.568  0.1075  0.8635 -0.6667
  203MOL0     C27915   4.958   7.316   0.481  0.7180  1.0051 -0.2702
  203MOL0     C27916   5.089   7.262   0.443  0.0470  0.2389 -0.1747
  203MOL0     C27917   5.165   7.356   0.334  1.0492 -0.0964 -0.3571
  203MOL0     C27918   5.304   7.320   0.326 -0.1659  0.3785  0.5831
  203MOL0     C27919   5.376   7.422   0.233  0.4759  0.2130  0.8726
  203MOL0     C27920   5.520   7.398   0.234  0.5737 -0.2623 -0.7833
  203MOL0    Cl27921   5.578   7.251   0.144 -0.1535 -0.1212 -0.3005
  203MOL0     C27922   4.457   7.409   0.429 -0.0339  0.0657  0.3377
  203MOL0     C27923   4.316   7.423   0.452  0.2687  0.6797  0.0070
  203MOL0     O27924   4.100   7.511   0.782  0.3765 -0.7501 -0.6811
  203MOL0     C27925   3.843   7.358   0.579  0.2419 -0.5920 -0.3743
  203MOL0     C27926   3.715   7.324   0.580  0.3581 -0.2468 -0.8077
  203MOL0     N27927   3.185   7.006   1.102  0.1353 -0.9670  0.2076
  203MOL0     N27928   3.114   6.936   1.182  0.7561  0.6565  0.5538
  203MOL0     C27929   2.129   6.242   1.260 -0.5366  0.6263  0.2216
  203MOL0     C27930   1.991   6.229   1.256  0.2110  0.3514 -0.4064
  203MOL0     C27931   1.566   6.177   1.276  0.1364  0.4310  0.4622
  203MOL0     C27932   1.487   6.167   1.396 -0.1006  0.2794  0.4614
  203MOL0     C27933   1.353   6.140   1.392  0.8423  0.3180  0.5302
  203MOL0     C27934   1.283   6.105   1.272 -0.2734 -0.1831 -0.5795
  203MOL0     O27935   1.156   6.064   1.255  0.2391  0.5971  0.0748
  203MOL0     C27936   1.056   6.069   1.355 -0.0372 -0.2022 -0.1723
  203MOL0     C27937   0.996   6.205   1.376 -0.2878  0.0392 -0.0463
  203MOL0     C27938   0.933   6.276   1.255 -0.8349  0.0016  0.3962
  203MOL0     C27939   0.793   6.333   1.284  0.3236  0.0719 -0.2441
  203MOL0     C27940   0.728   6.389   1.166  0.9932 -1.0518 -0.6370
  203MOL0     C27941   0.661   6.436   1.074  0.3737 -1.0829 -0.3894
  203MOL0     C27942   1.351   6.130   1.155 -0.4387 -0.3736  0.6867
  203MOL0     C27943   1.492   6.167   1.155 -0.8405  0.3822 -0.0486
  203MOL0     C27944   1.565   6.167   1.022 -0.3140  0.0033  0.3356
  203MOL0     H27945   1.934   6.113   1.572  2.5879  1.3999  2.1816
  203MOL0     H27946   2.179   6.121   1.574 -1.2351  1.3081  1.0048
  203MOL0     H27947   2.409   6.281   1.221  1.7276  0.3716  0.2132
  203MOL0     H27948   2.518   6.236   1.345 -0.2452 -2.6768 -1.1288
  203MOL0     H27949   2.294   6.455   1.380 -0.4970  0.1738  0.3079
  203MOL0     H27950   2.431   6.429   1.478 -2.4933  0.1228  0.4225
  203MOL0     H27951   2.455   6.518   1.174 -0.1229  0.4676  0.7049
  203MOL0     H27952   2.442   6.622   1.315 -1.9671  0.4112 -0.5500
  203MOL0     H27953   2.645   6.525   1.404 -0.6352 -1.3469  0.2744
  203MOL0     H27954   2.650   6.405   1.264  0.6278  0.0902  1.7494
  203MOL0     H27955   2.651   6.715   1.238  1.3935  1.8277 -1.0776
  203MOL0     H27956   2.694   6.598   1.107 -1.2065  3.0517  0.2540
  203MOL0     H27957   2.855   6.635   1.364  0.8231 -0.4092 -0.3179
  203MOL0     H27958   2.849   6.494   1.253 -0.2009 -0.1508 -1.6629
  203MOL0     H27959   2.953   6.608   1.081 -2.1219 -4.1401  1.7782
  203MOL0     H27960   3.040   6.648   1.221 -1.2099  2.1623  1.0398
  203MOL0     H27961   2.817   6.818   1.092  1.2285 -0.8578 -1.9733
  203MOL0     H27962   2.881   6.844   1.260  0.0833  1.1026 -0.8782
  203MOL0     H27963   2.951   6.938   0.893  0.9769  0.7235 -1.0609
  203MOL0     H27964   3.136   7.056   0.754  1.5807  1.2334 -0.5767
  203MOL0     H27965   3.289   7.017   0.833 -1.6022 -3.7922 -0.7898
  203MOL0     H27966   3.101   7.258   0.865 -1.0388  0.2774 -1.5403
  203MOL0     H27967   3.256   7.259   0.960 -0.5184 -0.6975  1.2847
  203MOL0     H27968   3.267   7.243   0.655  3.9894  2.0407 -2.4708
  203MOL0     H27969   3.233   7.388   0.742 -1.1339 -0.5124 -0.3868
  203MOL0     H27970   3.426   7.373   0.862 -0.3161  0.2058  1.5495
  203MOL0     H27971   3.456   7.200   0.802 -3.9289 -0.7928 -0.4838
  203MOL0     H27972   3.617   7.467   0.885 -1.3408  1.2941 -2.5747
  203MOL0     H27973   3.775   7.559   0.993 -0.5935  1.1157 -0.2129
  203MOL0     H27974   3.912   7.632   0.906  1.9157 -0.7569 -0.9633
  203MOL0     H27975   3.929   7.470   0.981 -1.9994 -0.4901  2.5943
  203MOL0     H27976   4.305   7.343   0.781  1.1369  2.8394  0.6178
  203MOL0     H27977   4.529   7.310   0.740  1.6024 -2.9920 -2.1207
  203MOL0     H27978   4.771   7.363   0.690 -2.0394 -1.1567  2.3123
  203MOL0     H27979   4.687   7.204   0.662  0.4740 -0.7557  1.0527
  203MOL0     H27980   4.931   7.185   0.656 -2.1927  1.0459  0.9905
  203MOL0     H27981   4.829   7.132   0.513 -0.7497  0.6645  0.3037
  203MOL0     H27982   4.976   7.414   0.526 -0.6961  1.5446 -0.8296
  203MOL0     H27983   4.896   7.330   0.392  2.6581 -0.5479 -1.9846
  203MOL0     H27984   5.076   7.166   0.391 -2.4995  1.2833 -1.6657
  203MOL0     H27985   5.149   7.249   0.534 -3.2396 -1.2958  1.9585
  203MOL0     H27986   5.109   7.351   0.241  0.7816 -0.1364 -0.1940
  203MOL0     H27987   5.167   7.462   0.363 -0.3678 -0.2317  0.3202
  203MOL0     H27988   5.322   7.219   0.290  0.3111 -0.2833  2.6040
  203MOL0     H27989   5.343   7.321   0.428  0.2109  0.0209  0.4435
  203MOL0     H27990   5.362   7.521   0.278 -0.7088  0.3642  0.2166
  203MOL0     H27991   5.341   7.413   0.130  1.3842  0.6420  0.5199
  203MOL0     H27992   5.569   7.392   0.332 -0.6657 -4.5712 -0.2153
  203MOL0     H27993   5.571   7.488   0.198  0.6702  1.0556  2.3218
  203MOL0     H27994   4.504   7.408   0.332  0.8468 -1.0135  0.7579
  203MOL0     H27995   4.250   7.434   0.366 -1.6870  1.8046  1.5549
  203MOL0     H27996   3.904   7.332   0.494  0.1506 -1.4653 -0.1869
  203MOL0     H27997   3.664   7.279   0.495 -1.2512 -0.2926  0.1425
  203MOL0     H27998   2.188   6.282   1.178  1.7317 -0.7689  1.0816
  203MOL0     H27999   1.935   6.281   1.180 -1.6542  3.2712  2.6779
  203MOL0     H28000   1.537   6.199   1.487 -0.9408  1.6406  0.4603
  203MOL0     H28001   1.292   6.129   1.481 -1.5022  0.7011 -0.9386
  203MOL0     H28002   0.981   5.992   1.335 -2.2813  1.7327  0.4591
  203MOL0     H28003   1.101   6.050   1.453  2.1144 -0.2770 -1.1181
  203MOL0     H28004   1.077   6.271   1.407 -0.2592  0.1784 -0.4205
  203MOL0     H28005   0.924   6.201   1.458  0.9481 -3.3391  1.0604
  203MOL0     H28006   0.991   6.353   1.203 -0.1806 -1.9132 -1.8826
  203MOL0     H28007   0.925   6.192   1.185  1.3900 -1.9912  2.3810
  203MOL0     H28008   0.804   6.422   1.347  3.3601 -0.2952 -0.1073
  203MOL0     H28009   0.721   6.262   1.325 -0.8852  1.1002 -0.5235
  203MOL0     H28010   0.587   6.473   1.007  3.0143  3.0897 -1.4154
  203MOL0     H28011   1.297   6.098   1.067 -0.3131 -2.0892  1.2098
  203MOL0     H28012   1.658   6.109   1.026 -2.8065 -4.3491  1.3544
  203MOL0     H28013   1.508   6.128   0.938  0.0750  2.6588 -1.2694
  203MOL0     H28014   1.584   6.273   1.000 -2.1653  0.5967  1.3527
  204MOL0     O28015   1.811   4.772   3.117  0.2627  0.3588 -0.8259
  204MOL0     C28016   1.822   4.685   3.207  0.2516 -0.1668 -0.7579
  204MOL0     O28017   1.720   4.631   3.274  0.7773  0.2990  0.1471
  204MOL0     C28018   1.597   4.648   3.207  0.2807  0.1291 -0.4012
  204MOL0     C28019   1.551   4.534   3.144  0.0368 -0.0679 -0.6592
  204MOL0     C28020   1.436   4.542   3.065 -0.4455  0.0822 -0.1349
  204MOL0     C28021   1.363   4.658   3.056  0.2334 -0.3752  0.3520
  204MOL0     O28022   1.243   4.670   2.985  0.2976 -0.2784  0.7044
  204MOL0     C28023   1.205   4.604   2.858  0.1844 -0.1488 -0.6775
  204MOL0     C28024   1.070   4.661   2.798  0.0821  0.0071  0.5570
  204MOL0     C28025   1.020   4.572   2.683 -1.1153  1.0293 -0.4823
  204MOL0     C28026   0.893   4.634   2.633  0.4732 -0.4889 -0.0721
  204MOL0     C28027   0.877   4.613   2.470  1.1431 -0.6776  0.2403
  204MOL0     C28028   0.765   4.702   2.412  0.0782  0.5941 -0.3978
  204MOL0     C28029   0.630   4.673   2.473  0.2937  0.3605 -0.4610
  204MOL0     C28030   0.523   4.729   2.376  0.4100  0.0546 -0.1173
  204MOL0     N28031   0.500   4.880   2.379  0.0878  0.0689 -0.0488
  204MOL0     C28032   0.464   4.950   2.494 -0.3897 -0.7343 -1.1845
  204MOL0     C28033   0.484   5.078   2.456 -0.9307 -0.2928  0.4813
  204MOL0     C28034   0.463   5.211   2.528 -0.4661  0.6377  0.6576
  204MOL0     C28035   0.486   5.199   2.680 -0.3381 -1.0319 -0.1574
  204MOL0     C28036   0.634   5.188   2.716  1.5574  0.0959 -0.5509
  204MOL0     C28037   0.650   5.150   2.867 -0.0802 -0.5872 -0.1775
  204MOL0     O28038   0.768   5.220   2.912 -1.0563 -0.2906 -1.0803
  204MOL0     C28039   0.797   5.223   3.045 -0.2811  0.3965 -0.7633
  204MOL0     C28040   0.921   5.266   3.085  0.5684 -0.6429 -0.0141
  204MOL0     C28041   0.973   5.278   3.211  0.4934 -0.1885  0.9594
  204MOL0     C28042   1.128   5.309   3.233  0.7544 -1.0335 -0.0811
  204MOL0     C28043   0.879   5.260   3.316  0.1994  0.5146  0.4258
  204MOL0     C28044   0.913   5.283   3.457  0.0880 -1.1350  0.5219
  204MOL0     O28045   0.809   5.244   3.549 -0.0086 -0.2255 -0.7092
  204MOL0     C28046   0.824   5.266   3.680  0.6520  0.2299 -0.1659
  204MOL0     C28047   0.932   5.217   3.758  0.5974 -0.2346 -0.4643
  204MOL0     C28048   0.931   5.236   3.898  0.4255  0.3428 -0.0412
  204MOL0     C28049   0.822   5.294   3.959  0.2805 -1.3809 -0.9963
  204MOL0     O28050   0.823   5.312   4.096  0.3384  0.2466 -0.0655
  204MOL0     C28051   0.700   5.360   4.166 -0.5452  1.0618 -0.2947
  204MOL0     C28052   0.722   5.340   4.317 -0.0835  0.3281 -0.3839
  204MOL0     C28053   0.841   5.426   4.375  0.7482 -0.3556 -0.1093
  204MOL0     C28054   0.841   5.413   4.531 -0.2971 -0.3737 -0.8738
  204MOL0     C28055   0.961   5.500   4.599  0.3386  0.4517  0.1474
  204MOL0     C28056   0.935   5.523   4.752 -0.2217 -0.0237 -0.0784
  204MOL0     C28057   1.068   5.605   4.791  0.1598 -0.4158 -0.3822
  204MOL0     C28058   1.069   5.620   4.948 -0.0474  0.4975 -0.5531
  204MOL0    Cl28059   1.246   5.637   4.995  0.2180 -0.2983 -0.1525
  204MOL0     C28060   0.716   5.344   3.884 -0.2904 -0.3294  0.0457
  204MOL0     C28061   0.718   5.327   3.739 -0.1528  0.4471 -0.2712
  204MOL0     O28062   1.025   5.328   3.487 -0.3529 -0.4159  0.3355
  204MOL0     C28063   0.746   5.224   3.280 -0.8428 -0.3370  0.2711
  204MOL0     C28064   0.711   5.196   3.152 -0.1151  0.4336 -0.5958
  204MOL0     N28065   0.521   5.079   2.323  0.1631  0.8723 -0.2775
  204MOL0     N28066   0.537   4.960   2.280 -0.0984  0.0943  0.2856
  204MOL0     C28067   1.408   4.770   3.124  0.6235  1.1680  0.9605
  204MOL0     C28068   1.527   4.771   3.191  0.1958  0.4526 -0.8646
  204MOL0     C28069   1.948   4.643   3.268 -0.4190 -0.7711 -0.7350
  204MOL0     C28070   1.949   4.525   3.347  0.4770 -0.0953  0.3466
  204MOL0     C28071   2.067   4.479   3.410  0.3093  0.0258 -0.2881
  204MOL0     C28072   2.178   4.564   3.409 -0.4184  1.2712  0.1915
  204MOL0     O28073   2.304   4.533   3.462 -0.0003  0.2584  0.3305
  204MOL0     C28074   2.324   4.399   3.514  0.0268  0.0137  0.5337
  204MOL0     C28075   2.468   4.373   3.534  0.0053  0.1695 -0.2218
  204MOL0     C28076   2.504   4.346   3.685 -0.0826  0.5618  0.1286
  204MOL0     C28077   2.623   4.267   3.718 -0.6198  0.3939  0.0266
  204MOL0     C28078   2.607   4.123   3.691  1.3900 -0.1653 -0.5182
  204MOL0     C28079   2.577   4.007   3.674  0.5667 -0.1677  0.3439
  204MOL0     C28080   2.181   4.680   3.334 -0.3826 -0.1538  0.6291
  204MOL0     C28081   2.071   4.717   3.253  0.5815 -0.6789  0.5757
  204MOL0     C28082   2.086   4.842   3.164  0.5478 -0.0240  0.5622
  204MOL0     H28083   1.608   4.443   3.163  0.5119 -0.3071 -2.9310
  204MOL0     H28084   1.387   4.454   3.026 -0.2248 -0.0804 -0.0443
  204MOL0     H28085   1.183   4.500   2.884  4.7655 -1.0952  0.3511
  204MOL0     H28086   1.286   4.598   2.785  1.0160  1.1972  0.0874
  204MOL0     H28087   0.996   4.658   2.879 -1.5900 -3.1763 -0.8937
  204MOL0     H28088   1.086   4.761   2.759 -0.7796  1.2107  3.0603
  204MOL0     H28089   1.089   4.546   2.602 -0.4431 -2.5449  1.0498
  204MOL0     H28090   0.994   4.470   2.713 -1.2514  1.0469 -0.5383
  204MOL0     H28091   0.803   4.594   2.679 -0.1520  1.3481  0.3833
  204MOL0     H28092   0.887   4.740   2.659  0.9245 -0.9897  2.2662
  204MOL0     H28093   0.865   4.506   2.448  1.5008 -0.6429 -0.1357
  204MOL0     H28094   0.961   4.653   2.412  0.0034 -1.0779 -1.7746
  204MOL0     H28095   0.779   4.811   2.414 -0.0309  0.6103 -0.5225
  204MOL0     H28096   0.768   4.683   2.305  2.0153  4.1245 -1.1429
  204MOL0     H28097   0.612   4.724   2.569 -0.5919  2.6232 -1.7443
  204MOL0     H28098   0.624   4.564   2.482 -5.0407  0.3688 -0.5017
  204MOL0     H28099   0.537   4.686   2.276 -1.7779 -4.4110  1.2170
  204MOL0     H28100   0.426   4.696   2.414  0.1516  3.2976  2.4881
  204MOL0     H28101   0.434   4.920   2.593  1.2355  0.9304 -0.1264
  204MOL0     H28102   0.359   5.234   2.505  0.3005  2.6687 -1.2680
  204MOL0     H28103   0.516   5.292   2.476 -1.0646  2.6086  2.9442
  204MOL0     H28104   0.435   5.283   2.728 -2.5667 -1.5222 -1.4846
  204MOL0     H28105   0.432   5.109   2.711 -2.4874  1.0693  2.7920
  204MOL0     H28106   0.676   5.106   2.656 -0.8456 -0.9251 -0.9240
  204MOL0     H28107   0.691   5.277   2.689 -0.0257  0.3009 -3.5438
  204MOL0     H28108   0.564   5.182   2.926  1.5313  4.7215 -0.2107
  204MOL0     H28109   0.661   5.041   2.869 -4.7656 -1.2558  0.6263
  204MOL0     H28110   0.985   5.290   3.000  1.6240 -0.2881  0.8604
  204MOL0     H28111   1.172   5.313   3.132 -2.3419 -1.6118 -1.5802
  204MOL0     H28112   1.168   5.225   3.289 -0.5269 -1.5994  0.0161
  204MOL0     H28113   1.149   5.404   3.283 -1.2851  0.1073 -1.2880
  204MOL0     H28114   1.018   5.162   3.722  1.2759 -0.4415  1.3741
  204MOL0     H28115   1.007   5.202   3.967  1.8236  0.7771 -1.3348
  204MOL0     H28116   0.698   5.466   4.140  1.7379  1.4625  0.9627
  204MOL0     H28117   0.607   5.312   4.134 -0.7376  1.9039 -1.0410
  204MOL0     H28118   0.637   5.378   4.375  1.7066  2.4933  0.9764
  204MOL0     H28119   0.743   5.236   4.343 -1.8215 -0.6207 -2.4492
  204MOL0     H28120   0.825   5.533   4.359  3.7993 -0.1301 -2.6976
  204MOL0     H28121   0.932   5.393   4.324 -0.2440  0.0943 -2.3243
  204MOL0     H28122   0.853   5.310   4.566  3.4629  0.0849 -0.4597
  204MOL0     H28123   0.752   5.457   4.577 -0.6729  0.7064 -2.5375
  204MOL0     H28124   1.048   5.436   4.583 -0.2047 -0.3305  0.2731
  204MOL0     H28125   0.990   5.596   4.555  0.2638  0.0633 -0.7563
  204MOL0     H28126   0.925   5.426   4.802  0.5082  0.0261  0.1831
  204MOL0     H28127   0.845   5.577   4.782 -0.5986  0.5398 -2.0589
  204MOL0     H28128   1.080   5.707   4.755  2.6033 -1.3264 -2.4244
  204MOL0     H28129   1.153   5.548   4.754 -1.9427 -1.1075 -4.8285
  204MOL0     H28130   1.032   5.534   5.005 -1.2668  0.7350 -0.9594
  204MOL0     H28131   1.000   5.697   4.984 -0.4682 -0.7703  1.5048
  204MOL0     H28132   0.639   5.396   3.940  1.3518  3.2228 -0.7168
  204MOL0     H28133   0.634   5.355   3.676 -1.4322 -0.3555  1.0030
  204MOL0     H28134   0.671   5.208   3.357 -1.6613  2.1205  0.0507
  204MOL0     H28135   0.610   5.159   3.135 -0.4643  0.8547  0.4620
  204MOL0     H28136   1.347   4.859   3.112 -0.4642  0.4024  0.5939
  204MOL0     H28137   1.557   4.859   3.247 -0.0263 -1.2378  2.1459
  204MOL0     H28138   1.857   4.468   3.354 -0.1159  0.4024 -2.3764
  204MOL0     H28139   2.062   4.383   3.460  0.8501 -0.8439 -1.8659
  204MOL0     H28140   2.272   4.390   3.609  1.7189  2.2563  1.7705
  204MOL0     H28141   2.281   4.328   3.443 -0.7644  1.6663 -0.7083
  204MOL0     H28142   2.524   4.461   3.502  1.1847 -0.3104  0.4213
  204MOL0     H28143   2.506   4.290   3.473  0.2510  1.0184 -1.2445
  204MOL0     H28144   2.513   4.443   3.734  1.3919  0.1242  0.7939
  204MOL0     H28145   2.428   4.284   3.733  0.3771 -1.2174 -1.3163
  204MOL0     H28146   2.649   4.278   3.823  1.3628  0.8477 -0.4818
  204MOL0     H28147   2.707   4.308   3.661  0.0277 -0.5839  0.2576
  204MOL0     H28148   2.567   3.901   3.662 -0.1011 -0.3895  2.3619
  204MOL0     H28149   2.279   4.726   3.318  0.1072 -0.7399  1.8509
  204MOL0     H28150   2.060   4.834   3.058  1.9713  2.1052 -0.0124
  204MOL0     H28151   2.043   4.930   3.212 -1.5050 -1.6434  1.8815
  204MOL0     H28152   2.194   4.857   3.156  0.7250 -0.5062  1.8975
  205MOL0     O28153   5.647   8.738   6.636 -0.6366 -0.4164  0.3355
  205MOL0     C28154   5.618   8.684   6.744  0.3484 -0.6968  0.2864
  205MOL0     O28155   5.711   8.616   6.834  0.3236 -0.7904 -0.8945
  205MOL0     C28156   5.833   8.590   6.790  0.2046 -0.3846  0.1432
  205MOL0     C28157   5.858   8.491   6.699 -0.0121  0.2586 -0.1953
  205MOL0     C28158   5.988   8.470   6.634  0.7180 -0.7691  0.5577
  205MOL0     C28159   6.092   8.546   6.678 -0.0421  0.0485 -0.4944
  205MOL0     O28160   6.214   8.549   6.621 -0.0093  0.0400 -0.4041
  205MOL0     C28161   6.274   8.423   6.586 -0.3917  0.0960  0.8395
  205MOL0     C28162   6.433   8.438   6.585  0.7653 -0.1826 -0.5340
  205MOL0     C28163   6.473   8.546   6.696 -0.5740 -0.1916 -0.1285
  205MOL0     C28164   6.628   8.539   6.714 -0.8433  0.2733  0.2386
  205MOL0     C28165   6.673   8.650   6.802 -0.4044  0.3388 -0.2082
  205MOL0     C28166   6.685   8.786   6.738  0.3193  0.4812 -0.1153
  205MOL0     C28167   6.690   8.896   6.851 -0.0716 -0.4279  0.1617
  205MOL0     C28168   6.688   9.049   6.800  0.8994  0.7122  0.7067
  205MOL0     N28169   6.571   9.079   6.727  0.6512 -0.6146  0.3737
  205MOL0     C28170   6.442   9.078   6.761  1.1117  0.3025 -0.4497
  205MOL0     C28171   6.376   9.077   6.639  1.1631  0.5919  1.3031
  205MOL0     C28172   6.232   9.094   6.601  0.5288  0.5533  0.0770
  205MOL0     C28173   6.156   8.964   6.606 -0.3857  0.6673 -0.9145
  205MOL0     C28174   6.005   8.971   6.615 -0.5903 -0.0546  0.0127
  205MOL0     C28175   5.958   9.047   6.744  1.0262  0.0195 -0.3959
  205MOL0     O28176   5.982   8.976   6.866  0.0184 -0.4976  0.0254
  205MOL0     C28177   5.892   8.993   6.968 -0.9889 -0.1198 -0.1963
  205MOL0     C28178   5.754   8.972   6.957  0.5543 -0.7354  0.7945
  205MOL0     C28179   5.665   8.999   7.063 -0.1576  0.3690  0.2270
  205MOL0     C28180   5.524   8.974   7.033 -0.1544 -0.1196 -0.3583
  205MOL0     C28181   5.718   9.038   7.185 -0.0681  0.6018 -0.2513
  205MOL0     C28182   5.636   9.034   7.306 -0.3075  0.5900  0.2443
  205MOL0     O28183   5.671   9.122   7.396 -0.2437 -0.3123 -0.0789
  205MOL0     C28184   5.696   9.085   7.526  0.0825  0.2312 -0.1253
  205MOL0     C28185   5.697   9.189   7.618 -0.1774  0.5298  0.2112
  205MOL0     C28186   5.709   9.159   7.758  0.2238  0.3121  0.1984
  205MOL0     C28187   5.734   9.030   7.797 -0.5446 -0.5152  1.2806
  205MOL0     O28188   5.754   9.002   7.935 -0.0041  0.4127  0.2635
  205MOL0     C28189   5.814   9.098   8.029 -0.4628 -0.3208 -0.1467
  205MOL0     C28190   5.847   9.017   8.156  0.6135  0.7404 -0.5016
  205MOL0     C28191   5.936   9.083   8.269 -0.0247  0.3322 -0.8141
  205MOL0     C28192   6.083   9.104   8.222 -0.1501 -0.1252 -0.3799
  205MOL0     C28193   6.163   9.157   8.338 -0.2832  0.2523  0.5439
  205MOL0     C28194   6.311   9.186   8.310  0.7377  0.1182 -0.3644
  205MOL0     C28195   6.325   9.276   8.190  0.0805 -0.9049 -0.4112
  205MOL0     C28196   6.435   9.372   8.205  1.0433  0.4439  0.2288
  205MOL0    Cl28197   6.391   9.488   8.334 -0.1340 -0.0155 -0.4229
  205MOL0     C28198   5.742   8.929   7.706 -0.7731  0.6452 -0.1066
  205MOL0     C28199   5.716   8.954   7.575 -0.8285 -0.6562  0.4505
  205MOL0     O28200   5.569   8.931   7.320 -0.1532 -0.4044  0.1959
  205MOL0     C28201   5.858   9.044   7.201  0.7265  0.1451  0.6995
  205MOL0     C28202   5.943   9.026   7.092 -0.3565 -0.1960 -0.6514
  205MOL0     N28203   6.465   9.086   6.535 -0.0878  1.3442 -0.2838
  205MOL0     N28204   6.578   9.078   6.587 -0.7741 -0.0285  0.5727
  205MOL0     C28205   6.066   8.631   6.785 -0.2794 -0.4360  0.2249
  205MOL0     C28206   5.942   8.659   6.841 -1.0811  0.7168  0.5875
  205MOL0     C28207   5.473   8.663   6.778 -0.0434  0.3177  0.2299
  205MOL0     C28208   5.433   8.551   6.852 -0.7799 -0.1950 -0.4121
  205MOL0     C28209   5.301   8.537   6.898 -0.3345  0.2844 -0.2573
  205MOL0     C28210   5.200   8.628   6.863  0.1836 -0.5259 -0.9964
  205MOL0     O28211   5.072   8.607   6.907  0.1987 -0.0361  0.1741
  205MOL0     C28212   5.022   8.474   6.921  0.2846  0.0804 -0.6940
  205MOL0     C28213   4.880   8.477   6.877 -0.1752 -0.4680  0.9452
  205MOL0     C28214   4.786   8.585   6.948 -0.4192  0.3089 -0.3246
  205MOL0     C28215   4.675   8.610   6.845  0.3939  0.3369 -0.7105
  205MOL0     C28216   4.584   8.714   6.898  0.2365 -1.2288  0.7042
  205MOL0     C28217   4.529   8.812   6.944 -0.9022  0.2615  0.3333
  205MOL0     C28218   5.244   8.744   6.797 -0.1115 -0.3454 -0.1067
  205MOL0     C28219   5.374   8.760   6.751 -0.4447  0.0149  0.1679
  205MOL0     C28220   5.404   8.879   6.654 -0.0536 -0.1795 -0.8626
  205MOL0     H28221   5.776   8.428   6.666  1.2565 -1.2208 -0.6766
  205MOL0     H28222   6.005   8.412   6.544 -2.5505 -1.9953  0.5813
  205MOL0     H28223   6.241   8.398   6.485 -1.0745 -1.4480  1.4265
  205MOL0     H28224   6.232   8.345   6.649 -2.6914  0.0221 -0.6683
  205MOL0     H28225   6.468   8.336   6.601 -0.6172 -0.2834  2.4720
  205MOL0     H28226   6.467   8.462   6.484  2.3552 -0.0500 -0.0067
  205MOL0     H28227   6.443   8.641   6.650 -0.2419 -0.9686 -2.0545
  205MOL0     H28228   6.431   8.528   6.796  1.8424  0.6514  1.1207
  205MOL0     H28229   6.653   8.450   6.772  1.6271 -0.3202 -1.5721
  205MOL0     H28230   6.681   8.545   6.619  1.9838  2.6994  1.7785
  205MOL0     H28231   6.771   8.619   6.839 -0.8187 -0.2991  0.3928
  205MOL0     H28232   6.610   8.649   6.891  1.5702  0.9556  1.2591
  205MOL0     H28233   6.772   8.793   6.671 -1.4781 -0.5090 -2.7011
  205MOL0     H28234   6.595   8.805   6.679  0.6187  1.1161 -0.3771
  205MOL0     H28235   6.782   8.877   6.908 -0.6313 -3.0244  0.3032
  205MOL0     H28236   6.608   8.872   6.918  0.5217 -1.4476  0.5443
  205MOL0     H28237   6.691   9.118   6.884 -0.9679 -0.1506  1.5265
  205MOL0     H28238   6.775   9.071   6.738 -1.1453  0.6474 -2.3895
  205MOL0     H28239   6.395   9.062   6.858  0.9321 -0.1172 -0.6037
  205MOL0     H28240   6.231   9.140   6.502  1.5871  1.5288  0.4936
  205MOL0     H28241   6.191   9.173   6.665  1.4696  1.8275 -0.8403
  205MOL0     H28242   6.191   8.908   6.518  0.1189 -0.5503  0.0171
  205MOL0     H28243   6.195   8.915   6.696  1.5374  2.0392 -0.9271
  205MOL0     H28244   5.980   9.026   6.524 -2.3689 -1.1151 -0.1677
  205MOL0     H28245   5.977   8.866   6.612  3.4380 -1.3642  1.3652
  205MOL0     H28246   5.996   9.149   6.750 -0.5110  0.5634  0.6376
  205MOL0     H28247   5.850   9.055   6.730  0.5912 -1.9210  1.4023
  205MOL0     H28248   5.716   8.943   6.859 -0.6045 -1.0769  1.3289
  205MOL0     H28249   5.464   9.038   7.099 -0.8601 -3.1473  2.1744
  205MOL0     H28250   5.490   8.873   7.056 -1.9812  0.6248  0.4282
  205MOL0     H28251   5.507   8.993   6.927  1.5229 -3.7581 -1.4259
  205MOL0     H28252   5.680   9.294   7.598 -2.1877  0.3117  0.4974
  205MOL0     H28253   5.695   9.241   7.828 -2.7400 -0.7445  0.9861
  205MOL0     H28254   5.905   9.145   7.990 -0.4126  2.0031  2.4630
  205MOL0     H28255   5.744   9.167   8.076 -0.9022 -1.5325  1.0471
  205MOL0     H28256   5.750   8.981   8.192  1.5628 -3.3870 -1.6622
  205MOL0     H28257   5.907   8.934   8.118  0.7404 -0.1316  1.4637
  205MOL0     H28258   5.922   9.031   8.364  1.6393  0.3718 -0.5184
  205MOL0     H28259   5.891   9.176   8.303 -1.9624 -1.0855  0.6698
  205MOL0     H28260   6.082   9.168   8.133 -2.4131  0.2555 -0.1487
  205MOL0     H28261   6.131   9.009   8.200 -0.8930 -1.0180  1.6434
  205MOL0     H28262   6.123   9.255   8.365  0.0044  0.2215  1.0992
  205MOL0     H28263   6.152   9.087   8.422 -2.2005  0.5242  0.5615
  205MOL0     H28264   6.379   9.103   8.290  0.3435  0.0357 -1.4301
  205MOL0     H28265   6.348   9.232   8.402 -0.9139  1.5860 -0.3759
  205MOL0     H28266   6.233   9.334   8.180  0.6950 -0.1874 -2.5143
  205MOL0     H28267   6.340   9.209   8.104 -2.1319 -3.3954  1.0125
  205MOL0     H28268   6.453   9.427   8.112 -0.6510  3.2364  1.4406
  205MOL0     H28269   6.531   9.325   8.230  1.5241  0.7654 -0.9453
  205MOL0     H28270   5.767   8.828   7.735  0.2831  1.4135  1.8436
  205MOL0     H28271   5.721   8.879   7.497  1.2841  0.4871 -0.6197
  205MOL0     H28272   5.892   9.064   7.302  1.3629  2.1425  0.1371
  205MOL0     H28273   6.049   9.049   7.094 -0.1160 -1.2987  1.1078
  205MOL0     H28274   6.154   8.684   6.819 -1.6376  1.2848  1.2125
  205MOL0     H28275   5.946   8.734   6.919 -0.4464  0.0958  1.1752
  205MOL0     H28276   5.512   8.482   6.880 -2.2429 -1.4779  0.7242
  205MOL0     H28277   5.270   8.460   6.968 -3.6427  2.4101  0.8276
  205MOL0     H28278   5.079   8.401   6.863 -1.9593 -2.2007 -0.1677
  205MOL0     H28279   5.042   8.437   7.021  0.1610 -0.6847 -0.9463
  205MOL0     H28280   4.846   8.374   6.889 -2.7007  0.2004  0.1430
  205MOL0     H28281   4.876   8.488   6.769 -3.5863 -0.3327  0.9709
  205MOL0     H28282   4.749   8.534   7.037 -1.6951 -1.8864 -1.9854
  205MOL0     H28283   4.838   8.678   6.971 -0.4426  0.3218 -0.3266
  205MOL0     H28284   4.627   8.516   6.816  1.8223 -0.1399 -1.6086
  205MOL0     H28285   4.717   8.649   6.752  1.3541  0.9759 -0.0291
  205MOL0     H28286   4.492   8.902   6.988 -0.4096  0.6239  0.0152
  205MOL0     H28287   5.177   8.827   6.777  0.0944  0.0822  0.9212
  205MOL0     H28288   5.486   8.941   6.691 -0.7120 -0.5811  1.4655
  205MOL0     H28289   5.422   8.851   6.550 -0.9954  0.5029 -1.2213
  205MOL0     H28290   5.318   8.945   6.658  1.2114  1.4791  2.1809
  206MOL0     O28291  10.050   6.110   6.663  0.4334  0.1945 -0.5952
  206MOL0     C28292  10.118   6.181   6.740  0.1659  0.1572  0.5773
  206MOL0     O28293  10.247   6.171   6.777 -0.1244  0.1956  0.1324
  206MOL0     C28294  10.328   6.074   6.720  0.1160 -0.2138  1.1555
  206MOL0     C28295  10.373   5.974   6.809  0.8437  0.2543 -0.2880
  206MOL0     C28296  10.475   5.886   6.772 -0.1184 -0.0972 -0.6161
  206MOL0     C28297  10.528   5.887   6.644  0.4462 -0.3722  0.3285
  206MOL0     O28298  10.618   5.783   6.612  0.0100  0.3919 -0.4549
  206MOL0     C28299  10.611   5.717   6.491  0.0219  1.0239 -0.2450
  206MOL0     C28300  10.515   5.593   6.487 -0.0410 -0.7340  0.0564
  206MOL0     C28301  10.377   5.637   6.456  1.2075 -0.6149 -0.5897
  206MOL0     C28302  10.275   5.520   6.469  0.0330 -0.0199 -1.1538
  206MOL0     C28303  10.128   5.560   6.494 -0.0052  0.3574 -0.6653
  206MOL0     C28304  10.066   5.646   6.380 -0.3672 -0.8098  0.1615
  206MOL0     C28305  10.107   5.591   6.239  0.2683 -0.3538 -0.1823
  206MOL0     C28306  10.045   5.455   6.212 -0.6346 -0.5034  0.3013
  206MOL0     N28307  10.049   5.426   6.064 -0.1746 -0.3606 -0.2356
  206MOL0     C28308  10.112   5.316   6.004 -0.2613  0.1788 -1.3187
  206MOL0     C28309  10.107   5.344   5.875  0.5582  0.3670  1.0578
  206MOL0     C28310  10.150   5.251   5.766 -0.3536 -1.0810  0.0452
  206MOL0     C28311  10.300   5.239   5.744  1.5654 -0.7135 -0.3860
  206MOL0     C28312  10.374   5.149   5.843  0.2686  0.0473 -0.5601
  206MOL0     C28313  10.320   5.003   5.855  0.3816 -0.2761  0.3295
  206MOL0     O28314  10.232   4.999   5.969 -0.8787  0.4155 -0.4864
  206MOL0     C28315  10.199   4.870   6.013  1.0429  0.0662 -0.4071
  206MOL0     C28316  10.101   4.871   6.119 -0.1099 -0.3849  0.2377
  206MOL0     C28317  10.035   4.758   6.166  0.6683  0.8600 -0.0944
  206MOL0     C28318   9.910   4.781   6.250  0.6958  0.6374  0.6156
  206MOL0     C28319  10.090   4.632   6.125 -0.9262 -0.2291  0.4269
  206MOL0     C28320  10.049   4.494   6.180 -1.1901  0.5028  0.0052
  206MOL0     O28321  10.098   4.388   6.112 -0.9325 -0.5778 -0.4798
  206MOL0     C28322  10.101   4.263   6.165  0.2525  0.7915  0.5362
  206MOL0     C28323  10.217   4.189   6.156 -0.0773  0.1650 -0.4157
  206MOL0     C28324  10.229   4.067   6.202  0.2910 -0.1296 -0.0801
  206MOL0     C28325  10.129   3.997   6.259  0.1553 -0.5806 -0.2139
  206MOL0     O28326  10.137   3.869   6.312 -0.6403  0.3012  0.4559
  206MOL0     C28327  10.259   3.793   6.308 -1.2715 -0.7081 -0.0078
  206MOL0     C28328  10.309   3.748   6.170  0.0400 -0.2380  0.0981
  206MOL0     C28329  10.445   3.687   6.155 -0.1222 -0.1240  0.6061
  206MOL0     C28330  10.469   3.563   6.247 -0.1665 -1.4373 -0.1615
  206MOL0     C28331  10.533   3.451   6.178 -0.2435 -0.2313 -0.3807
  206MOL0     C28332  10.568   3.328   6.260  0.6501 -0.4570  0.2303
  206MOL0     C28333  10.584   3.212   6.164  0.4835 -1.5576  0.3318
  206MOL0     C28334  10.600   3.076   6.246 -0.0304  0.2973  0.5102
  206MOL0    Cl28335  10.752   3.066   6.329  0.2295 -0.1521 -0.0784
  206MOL0     C28336  10.004   4.062   6.264 -0.0354 -0.4795  0.1170
  206MOL0     C28337   9.987   4.192   6.217 -0.3621 -0.3782 -0.5207
  206MOL0     O28338   9.987   4.495   6.283  0.6066 -0.2007  0.1642
  206MOL0     C28339  10.200   4.630   6.031 -0.1792  0.3162 -0.0947
  206MOL0     C28340  10.248   4.742   5.968  0.3401 -0.6314  0.0897
  206MOL0     N28341  10.050   5.464   5.849 -0.1751 -0.3463 -0.1348
  206MOL0     N28342  10.019   5.513   5.967 -0.3115  0.3709 -0.4118
  206MOL0     C28343  10.491   5.986   6.556 -0.5555  0.6543  0.4552
  206MOL0     C28344  10.394   6.084   6.591 -0.6244 -0.2608 -0.1165
  206MOL0     C28345  10.043   6.306   6.783  0.0850  0.3440 -0.8654
  206MOL0     C28346   9.964   6.376   6.692  0.4387 -0.7042  0.5040
  206MOL0     C28347   9.904   6.500   6.719 -0.2229  0.1516  0.2889
  206MOL0     C28348   9.919   6.557   6.851 -0.2931 -0.7042  0.0528
  206MOL0     O28349   9.864   6.683   6.861  0.3925 -0.0888  0.1404
  206MOL0     C28350   9.874   6.762   6.976 -0.3461  0.4472  0.1082
  206MOL0     C28351   9.806   6.898   6.947 -0.1023  0.0404 -0.5318
  206MOL0     C28352   9.651   6.871   6.927  0.2710 -0.3736  0.9331
  206MOL0     C28353   9.578   7.001   6.902  0.6691  0.0163  0.0234
  206MOL0     C28354   9.439   6.961   6.866  0.0644  0.6637 -0.4705
  206MOL0     C28355   9.327   6.932   6.841  0.3713 -0.2847  0.4992
  206MOL0     C28356   9.981   6.491   6.957 -0.2336 -0.2728  0.2703
  206MOL0     C28357  10.049   6.369   6.917  0.0292  0.0598 -0.4491
  206MOL0     C28358  10.120   6.289   7.025  0.6838 -0.0377 -0.6295
  206MOL0     H28359  10.325   5.969   6.907  0.6018  0.7368 -0.3756
  206MOL0     H28360  10.494   5.808   6.845 -0.0859 -2.0137 -2.5793
  206MOL0     H28361  10.708   5.669   6.473  1.9045  2.6066  4.2637
  206MOL0     H28362  10.601   5.779   6.402  2.9123  1.8222 -0.1048
  206MOL0     H28363  10.554   5.528   6.408 -2.2933 -1.4455 -0.5457
  206MOL0     H28364  10.518   5.542   6.584 -1.5081 -0.2486  0.3792
  206MOL0     H28365  10.358   5.720   6.525 -0.0204 -0.8449 -0.6375
  206MOL0     H28366  10.379   5.677   6.355 -0.8989  0.0381 -0.4278
  206MOL0     H28367  10.286   5.450   6.385  2.2476 -0.8852 -0.2402
  206MOL0     H28368  10.304   5.472   6.563 -0.8496  4.6795  1.8050
  206MOL0     H28369  10.122   5.614   6.589 -2.4715 -0.0292 -0.5376
  206MOL0     H28370  10.071   5.467   6.507 -1.7124  1.6585  2.1728
  206MOL0     H28371   9.958   5.637   6.386 -0.6239 -0.2346 -2.6105
  206MOL0     H28372  10.096   5.751   6.379 -4.2251  0.4419  0.8522
  206MOL0     H28373  10.216   5.594   6.225  0.8491 -2.9855  2.6636
  206MOL0     H28374  10.067   5.660   6.164  1.7343  0.3654 -0.3341
  206MOL0     H28375  10.102   5.385   6.274 -0.3207 -0.6064 -0.0952
  206MOL0     H28376   9.940   5.437   6.235 -0.5180 -0.8180  0.5933
  206MOL0     H28377  10.142   5.225   6.057  3.4407  1.5228 -0.8668
  206MOL0     H28378  10.096   5.296   5.682 -3.6997 -1.2935  1.9344
  206MOL0     H28379  10.114   5.152   5.792 -0.0446 -0.6663  2.2652
  206MOL0     H28380  10.311   5.195   5.644 -2.4696 -0.6030 -1.0536
  206MOL0     H28381  10.344   5.339   5.732  1.7749 -0.7942 -0.2890
  206MOL0     H28382  10.482   5.148   5.826  0.3175 -0.6817 -0.2467
  206MOL0     H28383  10.359   5.181   5.947 -0.5636 -3.7692  0.6428
  206MOL0     H28384  10.273   4.962   5.765 -0.3458  0.1976  0.4915
  206MOL0     H28385  10.410   4.942   5.870  1.7494  1.0830 -1.8246
  206MOL0     H28386  10.067   4.973   6.140 -2.1168 -1.2937  1.7464
  206MOL0     H28387   9.816   4.766   6.196  2.0588 -1.1064 -1.4167
  206MOL0     H28388   9.918   4.883   6.290  0.6742  1.4239 -1.2852
  206MOL0     H28389   9.907   4.717   6.339  1.4586  1.5357  1.3159
  206MOL0     H28390  10.311   4.232   6.123  0.3066  0.5215  1.0636
  206MOL0     H28391  10.326   4.017   6.197 -0.1684 -0.9322 -1.4776
  206MOL0     H28392  10.342   3.841   6.359  0.3000 -4.2290  1.0721
  206MOL0     H28393  10.239   3.705   6.370  1.6163 -1.1022  0.5051
  206MOL0     H28394  10.242   3.673   6.126  0.6844  0.3241 -1.9566
  206MOL0     H28395  10.289   3.837   6.110  0.2097  0.8758  1.6247
  206MOL0     H28396  10.529   3.756   6.169  3.4108 -3.5583 -1.3400
  206MOL0     H28397  10.454   3.654   6.051  1.0131 -0.1776  0.7017
  206MOL0     H28398  10.375   3.526   6.288 -0.4840 -0.0094  0.4540
  206MOL0     H28399  10.535   3.600   6.326  1.0802  0.7187 -2.1084
  206MOL0     H28400  10.464   3.427   6.097 -0.6626  0.8538 -0.3605
  206MOL0     H28401  10.623   3.478   6.123 -0.7030 -2.4730 -2.3672
  206MOL0     H28402  10.478   3.297   6.313  0.3540 -2.0082 -1.0883
  206MOL0     H28403  10.655   3.350   6.322  0.7088  4.2375 -1.1267
  206MOL0     H28404  10.672   3.234   6.104  1.0974 -3.2511  0.5496
  206MOL0     H28405  10.500   3.216   6.093  1.9094  0.2741 -1.3486
  206MOL0     H28406  10.578   2.995   6.175 -1.6516  0.4363  0.8003
  206MOL0     H28407  10.517   3.074   6.318  0.0480 -1.1947  0.5869
  206MOL0     H28408   9.926   4.012   6.320 -1.3358  1.0309 -0.2766
  206MOL0     H28409   9.898   4.249   6.242 -1.0568 -0.8597 -1.8165
  206MOL0     H28410  10.247   4.539   5.994 -1.5353 -0.0756 -0.9393
  206MOL0     H28411  10.329   4.721   5.898 -1.6373 -1.5497 -2.0423
  206MOL0     H28412  10.550   5.998   6.466  0.2267 -1.4161  0.6363
  206MOL0     H28413  10.369   6.170   6.530  0.5789  0.2126  0.0280
  206MOL0     H28414   9.969   6.342   6.589  1.0024 -1.4526  0.7705
  206MOL0     H28415   9.846   6.558   6.649  0.2098 -1.4167 -1.4340
  206MOL0     H28416   9.825   6.712   7.060 -2.8964  2.7821  0.1882
  206MOL0     H28417   9.978   6.783   6.999 -0.3244 -0.6163  1.0501
  206MOL0     H28418   9.850   6.948   6.860  0.6455  1.2351  0.5064
  206MOL0     H28419   9.810   6.962   7.035 -1.6284  0.4051 -0.7007
  206MOL0     H28420   9.641   6.805   6.840 -1.2240  0.2023  0.6441
  206MOL0     H28421   9.602   6.816   7.007 -0.5053  1.4702  1.7864
  206MOL0     H28422   9.631   7.041   6.815 -0.6035  0.8702 -0.3790
  206MOL0     H28423   9.590   7.081   6.976  2.0522  0.5831 -0.7703
  206MOL0     H28424   9.225   6.905   6.820 -0.2648  4.0918 -3.9289
  206MOL0     H28425   9.976   6.530   7.058 -2.2959  1.0727 -0.2957
  206MOL0     H28426  10.112   6.337   7.123  1.0843 -1.9251  0.3805
  206MOL0     H28427  10.071   6.191   7.025  2.2602 -0.8713  0.4616
  206MOL0     H28428  10.226   6.271   7.004  0.8280 -0.4736  0.3729
  207MOL0     O28429   0.845   7.791   4.742 -0.0907 -0.1163  0.4189
  207MOL0     C28430   0.934   7.696   4.719 -1.1616 -0.0119 -0.3495
  207MOL0     O28431   1.066   7.709   4.758 -0.4121  0.4933  0.0688
  207MOL0     C28432   1.097   7.782   4.864 -0.4387 -0.4122 -0.2889
  207MOL0     C28433   1.038   7.747   4.985  0.6922  0.1450  1.5671
  207MOL0     C28434   1.083   7.802   5.101 -0.2946  0.5110  0.2362
  207MOL0     C28435   1.186   7.902   5.097  0.4166 -0.5201  0.2060
  207MOL0     O28436   1.215   7.965   5.215  0.3906  0.4366  0.0488
  207MOL0     C28437   1.356   8.016   5.225 -0.0527 -0.6025 -0.1419
  207MOL0     C28438   1.462   7.906   5.272  0.2140 -0.7082  0.0921
  207MOL0     C28439   1.596   7.980   5.296  0.2173 -0.4508  0.3168
  207MOL0     C28440   1.692   7.889   5.379 -0.4834 -0.8339 -0.3844
  207MOL0     C28441   1.809   7.967   5.429 -0.3136  0.4007  0.7409
  207MOL0     C28442   1.920   7.877   5.492  0.0923  0.2141  0.3358
  207MOL0     C28443   2.012   7.968   5.572  0.3934 -0.4672 -0.3744
  207MOL0     C28444   2.136   7.889   5.602  0.1447  0.6992  0.3400
  207MOL0     N28445   2.214   7.856   5.480 -0.2739 -1.0777 -0.1359
  207MOL0     C28446   2.232   7.727   5.428 -0.0545 -0.3224 -1.0436
  207MOL0     C28447   2.287   7.739   5.306 -0.3424 -0.9011 -1.2973
  207MOL0     C28448   2.323   7.632   5.209 -0.3664  1.2780  0.3972
  207MOL0     C28449   2.436   7.538   5.268 -0.0169  0.1999  0.0739
  207MOL0     C28450   2.578   7.581   5.242  0.9023  0.6457  1.0488
  207MOL0     C28451   2.682   7.482   5.304  0.4349 -0.3275  0.0453
  207MOL0     O28452   2.675   7.343   5.280  0.0634  0.5228 -0.4393
  207MOL0     C28453   2.667   7.293   5.151 -0.3827  0.1384 -0.9021
  207MOL0     C28454   2.603   7.170   5.132  0.4765  0.1141 -0.7811
  207MOL0     C28455   2.574   7.122   4.995 -0.0461 -0.1829 -0.4347
  207MOL0     C28456   2.515   6.988   4.972  0.2790  0.2689  0.6601
  207MOL0     C28457   2.610   7.209   4.881  1.4786  0.2466 -0.3910
  207MOL0     C28458   2.573   7.183   4.737 -0.4071 -0.5193 -0.0371
  207MOL0     O28459   2.637   7.270   4.653 -0.1053  0.8467 -0.4187
  207MOL0     C28460   2.634   7.256   4.519 -0.1011 -0.3127  0.5045
  207MOL0     C28461   2.624   7.373   4.447 -0.3936  0.5625 -0.5669
  207MOL0     C28462   2.619   7.358   4.308 -0.4529 -1.2131 -1.0986
  207MOL0     C28463   2.620   7.234   4.234 -0.0877 -0.2663  0.1220
  207MOL0     O28464   2.600   7.236   4.092 -0.2106  0.3890  0.0259
  207MOL0     C28465   2.553   7.117   4.035  0.2493  0.5128 -0.1909
  207MOL0     C28466   2.519   7.167   3.892  1.0078  0.6945 -0.9270
  207MOL0     C28467   2.369   7.214   3.889  0.4800 -0.9649 -0.1515
  207MOL0     C28468   2.337   7.253   3.744  0.2410  1.0980 -0.9437
  207MOL0     C28469   2.188   7.295   3.718  0.7624  0.7082  0.1275
  207MOL0     C28470   2.144   7.401   3.813 -0.4378  0.1534 -0.0234
  207MOL0     C28471   1.997   7.427   3.778 -0.4451  0.5428 -0.2056
  207MOL0     C28472   1.915   7.521   3.863  0.6415 -0.1386  0.3593
  207MOL0    Cl28473   1.900   7.463   4.030 -0.0005 -0.3477  0.1998
  207MOL0     C28474   2.642   7.124   4.315 -0.4711 -0.2309  0.4104
  207MOL0     C28475   2.651   7.130   4.457 -0.8280 -0.1484  0.3841
  207MOL0     O28476   2.493   7.100   4.694  0.9630  0.0312 -0.0282
  207MOL0     C28477   2.680   7.325   4.907  0.1537  1.0379 -0.4621
  207MOL0     C28478   2.711   7.368   5.040  0.1030 -0.2016 -0.0917
  207MOL0     N28479   2.306   7.878   5.290 -1.0463 -0.5080 -0.9270
  207MOL0     N28480   2.260   7.948   5.393 -0.3469  0.5318  0.4365
  207MOL0     C28481   1.235   7.942   4.967 -0.7058  0.6944  0.9216
  207MOL0     C28482   1.195   7.870   4.851 -0.6765 -0.8523  0.4866
  207MOL0     C28483   0.889   7.570   4.653 -0.4703  0.4335 -0.2584
  207MOL0     C28484   0.994   7.482   4.611  0.3979 -0.0384 -0.0567
  207MOL0     C28485   0.971   7.369   4.544  0.4470  0.7237  0.5457
  207MOL0     C28486   0.842   7.336   4.506 -1.1183 -0.3844  0.0326
  207MOL0     O28487   0.824   7.216   4.445  0.2195 -0.1594 -0.3321
  207MOL0     C28488   0.701   7.184   4.372 -0.1082 -0.9283 -0.6871
  207MOL0     C28489   0.670   7.251   4.238  0.4121 -0.6811  0.3449
  207MOL0     C28490   0.785   7.250   4.137  0.8099  0.0060  0.0784
  207MOL0     C28491   0.903   7.345   4.166 -0.2395 -0.1797 -0.0006
  207MOL0     C28492   0.866   7.479   4.180 -0.8945 -0.1398 -0.5482
  207MOL0     C28493   0.827   7.598   4.197 -0.6190 -0.0561  0.4612
  207MOL0     C28494   0.737   7.416   4.550  0.4972 -0.5838 -0.1353
  207MOL0     C28495   0.757   7.539   4.622 -0.2011 -0.2957 -0.4907
  207MOL0     C28496   0.635   7.614   4.680  0.1223 -0.3656  0.4131
  207MOL0     H28497   0.960   7.671   4.983  1.5759 -0.8080 -0.4866
  207MOL0     H28498   1.054   7.761   5.197  1.4666  1.1142  1.0859
  207MOL0     H28499   1.351   8.094   5.301  0.7230 -0.1969 -0.4996
  207MOL0     H28500   1.404   8.062   5.138  1.6804  3.1940  2.5759
  207MOL0     H28501   1.419   7.853   5.357 -3.4910  1.1692 -0.3869
  207MOL0     H28502   1.469   7.828   5.196  1.6144 -1.5152  1.0110
  207MOL0     H28503   1.642   8.002   5.199 -1.6298  0.1935 -0.4543
  207MOL0     H28504   1.587   8.078   5.343 -0.1307 -0.0570 -0.5402
  207MOL0     H28505   1.642   7.860   5.471  1.3536  0.2707  1.0250
  207MOL0     H28506   1.731   7.806   5.319  3.1993 -0.0860  0.7024
  207MOL0     H28507   1.785   8.041   5.506  1.0945  0.8529  0.7618
  207MOL0     H28508   1.860   8.033   5.358 -1.0319  1.8288  1.4964
  207MOL0     H28509   1.884   7.799   5.559  0.1936  0.4816  0.7075
  207MOL0     H28510   1.970   7.822   5.411 -2.7238 -0.1031 -1.2940
  207MOL0     H28511   1.957   8.001   5.661 -3.3325  1.9852 -3.2913
  207MOL0     H28512   2.050   8.061   5.529 -0.1819  0.7923  1.6643
  207MOL0     H28513   2.200   7.953   5.664 -0.8249  0.1099  2.0164
  207MOL0     H28514   2.135   7.794   5.655  2.2412 -2.2014 -4.1557
  207MOL0     H28515   2.188   7.640   5.474 -0.3024  0.6672  0.6583
  207MOL0     H28516   2.358   7.681   5.118  0.4517 -1.0362 -0.5979
  207MOL0     H28517   2.235   7.570   5.189 -0.6455  1.2644  1.6089
  207MOL0     H28518   2.418   7.525   5.375 -2.0609  0.5174 -0.1919
  207MOL0     H28519   2.427   7.441   5.219  1.2418 -0.2994  0.7732
  207MOL0     H28520   2.588   7.590   5.133  0.0327  0.9587  0.9810
  207MOL0     H28521   2.601   7.676   5.291 -0.4739  1.5329  0.0773
  207MOL0     H28522   2.779   7.509   5.259  0.3780 -2.1294 -1.2562
  207MOL0     H28523   2.679   7.503   5.411 -1.1842 -0.9221  0.1410
  207MOL0     H28524   2.578   7.119   5.225  1.1513  2.3859  0.7571
  207MOL0     H28525   2.412   6.989   4.935  0.7934 -1.8461 -1.0392
  207MOL0     H28526   2.517   6.926   5.062 -2.3935 -0.6013  0.2201
  207MOL0     H28527   2.577   6.947   4.892 -0.5668  1.8517 -0.8777
  207MOL0     H28528   2.612   7.467   4.498  0.8023 -0.0062  0.8340
  207MOL0     H28529   2.580   7.449   4.263 -5.1944 -0.5226  3.4581
  207MOL0     H28530   2.619   7.032   4.056 -0.9342 -0.2995  0.3629
  207MOL0     H28531   2.458   7.086   4.080  0.6941  1.3622  1.3932
  207MOL0     H28532   2.591   7.239   3.852 -1.3796  3.9287  0.1424
  207MOL0     H28533   2.517   7.078   3.829  0.4116  0.2596 -0.3051
  207MOL0     H28534   2.356   7.298   3.958 -1.1562  0.5458 -2.1677
  207MOL0     H28535   2.314   7.124   3.920  0.1488 -1.8331 -2.9596
  207MOL0     H28536   2.362   7.159   3.694  3.6289  1.1267  0.4551
  207MOL0     H28537   2.407   7.333   3.721  2.0729  0.2009  1.2116
  207MOL0     H28538   2.189   7.320   3.611 -1.0206  0.8731  0.1108
  207MOL0     H28539   2.117   7.211   3.727 -0.3776  1.5901 -0.3171
  207MOL0     H28540   2.220   7.479   3.800 -1.3871  1.0960  0.0335
  207MOL0     H28541   2.147   7.357   3.913 -0.6421 -3.4734 -1.4657
  207MOL0     H28542   1.952   7.328   3.792 -0.3165  0.6196  0.8446
  207MOL0     H28543   1.997   7.465   3.675  2.5144  2.6291  0.4300
  207MOL0     H28544   1.821   7.528   3.807  1.4936  1.9285 -0.9129
  207MOL0     H28545   1.950   7.624   3.857  0.2128 -0.0551 -1.0965
  207MOL0     H28546   2.658   7.022   4.281  1.5874  0.4641 -0.8849
  207MOL0     H28547   2.657   7.032   4.503 -0.0654 -1.8636 -3.0623
  207MOL0     H28548   2.729   7.374   4.824  0.5665 -0.4516 -1.1468
  207MOL0     H28549   2.765   7.460   5.061  0.2932 -0.6190  1.3616
  207MOL0     H28550   1.300   8.028   4.958 -0.3047  0.3248  0.1766
  207MOL0     H28551   1.228   7.911   4.756 -2.1793 -2.7495 -0.9665
  207MOL0     H28552   1.094   7.513   4.639 -0.3863  1.1166  1.7164
  207MOL0     H28553   1.047   7.297   4.515  1.9419  2.5111 -0.2325
  207MOL0     H28554   0.695   7.077   4.350 -0.8516 -0.5812 -2.3842
  207MOL0     H28555   0.611   7.205   4.431 -0.6968  2.5094 -2.5274
  207MOL0     H28556   0.643   7.353   4.265 -0.7549 -0.5771 -1.0682
  207MOL0     H28557   0.582   7.203   4.196 -1.1428  0.1848  2.4683
  207MOL0     H28558   0.811   7.143   4.136 -1.1302 -0.5105 -1.2764
  207MOL0     H28559   0.747   7.267   4.037  0.2490 -0.6961  0.1593
  207MOL0     H28560   0.967   7.334   4.078 -0.2225  2.1223 -0.3288
  207MOL0     H28561   0.971   7.324   4.250  4.5166  2.0640 -2.8798
  207MOL0     H28562   0.791   7.695   4.226  0.1657 -0.8333  4.6327
  207MOL0     H28563   0.638   7.382   4.523 -0.0839  0.6360  0.4008
  207MOL0     H28564   0.645   7.719   4.652 -0.4056 -0.2031  0.8058
  207MOL0     H28565   0.546   7.565   4.639  0.2278  0.6403 -1.1046
  207MOL0     H28566   0.633   7.609   4.789 -0.4772 -2.5949  0.3508
  208MOL0     O28567   9.683   6.938  11.411 -0.4428 -0.2235  0.0231
  208MOL0     C28568   9.622   6.971  11.518 -0.1656  1.2318  0.7177
  208MOL0     O28569   9.636   7.091  11.583  0.0806  0.0282 -0.6295
  208MOL0     C28570   9.738   7.166  11.545 -0.0962 -0.0393 -0.4877
  208MOL0     C28571   9.718   7.245  11.436 -0.4878 -0.4773  0.1533
  208MOL0     C28572   9.820   7.323  11.384 -1.3650 -0.3295 -0.8448
  208MOL0     C28573   9.952   7.317  11.433  0.6456 -0.1863  0.8221
  208MOL0     O28574  10.058   7.386  11.391  0.1046 -0.3171 -0.1433
  208MOL0     C28575  10.033   7.447  11.262  0.3001 -0.4579  0.4579
  208MOL0     C28576  10.162   7.509  11.211  1.0097  0.9017  0.4504
  208MOL0     C28577  10.146   7.529  11.062  0.4773 -0.1427 -0.3843
  208MOL0     C28578  10.264   7.611  11.015  0.1953 -0.2524 -0.4432
  208MOL0     C28579  10.274   7.616  10.862 -0.0010  0.1596 -0.4292
  208MOL0     C28580  10.398   7.700  10.811 -0.3493  1.3417 -0.1804
  208MOL0     C28581  10.399   7.842  10.856  0.0303 -0.1915  0.8285
  208MOL0     C28582  10.508   7.920  10.778  0.0754 -0.6993 -0.9693
  208MOL0     N28583  10.641   7.857  10.796 -0.3117  1.1055  0.4589
  208MOL0     C28584  10.719   7.866  10.903  0.1980  0.2807 -0.0041
  208MOL0     C28585  10.823   7.777  10.877  0.1462  0.0936 -0.2022
  208MOL0     C28586  10.928   7.726  10.977  0.0556 -0.1174  0.0392
  208MOL0     C28587  10.862   7.707  11.119  0.9600 -0.3602  0.0309
  208MOL0     C28588  10.748   7.598  11.132  0.3871 -0.0267 -0.6830
  208MOL0     C28589  10.773   7.476  11.049  0.5758  0.6112 -0.3443
  208MOL0     O28590  10.884   7.395  11.099  0.1019 -0.2234  0.7916
  208MOL0     C28591  10.972   7.342  11.010  0.4627  0.0554  1.0277
  208MOL0     C28592  10.975   7.351  10.870 -0.4782 -0.7170  0.9738
  208MOL0     C28593  11.068   7.302  10.780 -0.0959 -0.1793 -0.0073
  208MOL0     C28594  11.049   7.340  10.632  0.5668  0.5717 -1.0144
  208MOL0     C28595  11.183   7.243  10.838 -0.1805 -0.2009 -0.3939
  208MOL0     C28596  11.302   7.171  10.764  0.1620  0.1888 -0.1479
  208MOL0     O28597  11.345   7.050  10.814  0.6103 -0.3476 -0.1370
  208MOL0     C28598  11.415   6.953  10.744 -0.0739 -1.3790 -0.1217
  208MOL0     C28599  11.499   6.862  10.810 -0.1964  0.4575  0.4975
  208MOL0     C28600  11.568   6.763  10.738 -0.7770 -0.5242 -0.1538
  208MOL0     C28601  11.550   6.753  10.596 -0.6836  0.2703 -0.3725
  208MOL0     O28602  11.624   6.674  10.520 -0.4886  0.8866 -0.1036
  208MOL0     C28603  11.675   6.550  10.563  0.2226 -0.6841  0.4065
  208MOL0     C28604  11.720   6.473  10.447  1.2333  0.2679 -0.1756
  208MOL0     C28605  11.775   6.331  10.487  0.4175  0.6918 -0.8942
  208MOL0     C28606  11.811   6.232  10.382 -0.3087  1.3613  0.9273
  208MOL0     C28607  11.686   6.155  10.343  0.4710 -0.4857 -1.1887
  208MOL0     C28608  11.714   6.051  10.236  0.1741  0.1777  0.1353
  208MOL0     C28609  11.794   5.937  10.289 -0.0114  0.6296  0.6792
  208MOL0     C28610  11.803   5.836  10.180 -1.1977  0.6250 -0.1088
  208MOL0    Cl28611  11.931   5.702  10.212 -0.3685  0.3818  0.3066
  208MOL0     C28612  11.472   6.842  10.533 -0.7314  0.5539 -0.9595
  208MOL0     C28613  11.409   6.943  10.600 -0.8601  0.3135  0.2779
  208MOL0     O28614  11.343   7.225  10.663 -0.3358 -0.4157  0.0486
  208MOL0     C28615  11.180   7.221  10.980  0.2227  0.4845 -0.1305
  208MOL0     C28616  11.077   7.262  11.061 -0.3373 -0.8424  0.5319
  208MOL0     N28617  10.804   7.726  10.750  0.3194  0.2432  0.5829
  208MOL0     N28618  10.707   7.795  10.692 -0.7888 -0.7285  0.0005
  208MOL0     C28619   9.975   7.223  11.536  0.2453  0.3750 -0.7229
  208MOL0     C28620   9.870   7.163  11.604 -0.0300  0.1600  0.9159
  208MOL0     C28621   9.547   6.859  11.582  0.3136 -0.2472  0.0013
  208MOL0     C28622   9.602   6.729  11.570  0.2172  0.0857 -0.1367
  208MOL0     C28623   9.551   6.623  11.646 -1.1885  1.0729  0.3307
  208MOL0     C28624   9.452   6.645  11.740 -0.1877  0.8506 -0.4305
  208MOL0     O28625   9.412   6.538  11.819  0.2165 -0.2853 -0.5614
  208MOL0     C28626   9.502   6.527  11.932 -0.3725 -0.6120 -0.4437
  208MOL0     C28627   9.484   6.376  11.976 -0.3576 -0.3938 -0.0820
  208MOL0     C28628   9.594   6.351  12.079  0.1865  0.1181  0.1742
  208MOL0     C28629   9.603   6.198  12.110  0.4253  0.7173  0.1993
  208MOL0     C28630   9.672   6.124  11.998  1.3028  0.0772  0.0511
  208MOL0     C28631   9.722   6.064  11.908 -0.3512 -0.1984 -0.0706
  208MOL0     C28632   9.391   6.768  11.750 -0.0972  0.3977 -0.9260
  208MOL0     C28633   9.444   6.877  11.679  0.1954  0.0558  0.1267
  208MOL0     C28634   9.387   7.008  11.722 -0.2178 -0.0067 -0.2689
  208MOL0     H28635   9.619   7.240  11.392 -0.3941  1.5613 -0.4127
  208MOL0     H28636   9.800   7.401  11.310  0.3795  1.7736  0.7724
  208MOL0     H28637   9.953   7.521  11.272 -0.8200 -1.7156  1.1577
  208MOL0     H28638  10.005   7.382  11.178  1.4061  0.8718 -1.0214
  208MOL0     H28639  10.174   7.606  11.261  0.4128  0.3123  1.7961
  208MOL0     H28640  10.243   7.439  11.234  1.2904  0.1740 -2.3827
  208MOL0     H28641  10.172   7.432  11.020  0.1067 -0.0041 -0.9419
  208MOL0     H28642  10.047   7.570  11.040 -0.5615 -2.3547 -0.0616
  208MOL0     H28643  10.246   7.713  11.051 -1.2455 -0.8916  0.7343
  208MOL0     H28644  10.361   7.589  11.061 -0.2791 -0.4170  0.5156
  208MOL0     H28645  10.183   7.671  10.833 -1.0689 -2.3159 -2.1147
  208MOL0     H28646  10.262   7.518  10.815 -2.0389  0.8998 -1.6004
  208MOL0     H28647  10.490   7.651  10.845 -1.1578 -1.5257 -1.7649
  208MOL0     H28648  10.403   7.689  10.702  4.2387 -4.9851  0.0733
  208MOL0     H28649  10.431   7.852  10.960  3.3077 -1.4866  0.0760
  208MOL0     H28650  10.301   7.884  10.831  0.0052 -1.9245 -2.3957
  208MOL0     H28651  10.484   7.910  10.671  1.9766  0.2733 -1.5217
  208MOL0     H28652  10.514   8.027  10.798  0.8779 -0.6423 -1.4492
  208MOL0     H28653  10.707   7.936  10.985 -1.7181 -1.9006  1.7173
  208MOL0     H28654  11.005   7.804  10.985 -3.6926  4.1426 -1.6052
  208MOL0     H28655  10.975   7.632  10.946 -0.7412 -0.3068 -0.6212
  208MOL0     H28656  10.946   7.674  11.180  0.7670 -3.7932 -1.3308
  208MOL0     H28657  10.829   7.801  11.163  2.4525 -0.4317  1.3698
  208MOL0     H28658  10.728   7.563  11.233 -1.1511  2.5017 -0.0508
  208MOL0     H28659  10.654   7.641  11.097  0.4021  0.9752  0.4726
  208MOL0     H28660  10.681   7.417  11.045  0.4929  0.7310 -0.2195
  208MOL0     H28661  10.777   7.511  10.946  1.1333 -0.8570 -0.8438
  208MOL0     H28662  10.888   7.398  10.825 -0.5251 -0.8634  0.9120
  208MOL0     H28663  11.049   7.448  10.616  2.2990  1.1787  2.2347
  208MOL0     H28664  10.946   7.305  10.617  1.1254 -2.0622  0.6545
  208MOL0     H28665  11.116   7.290  10.562  0.0062  1.1828 -2.0198
  208MOL0     H28666  11.504   6.863  10.918  1.0556  2.7970  0.4822
  208MOL0     H28667  11.625   6.686  10.789 -2.5447 -0.7605  1.5437
  208MOL0     H28668  11.760   6.576  10.627  0.9453 -0.8770 -0.4468
  208MOL0     H28669  11.601   6.495  10.621 -0.0064  0.4584  1.2084
  208MOL0     H28670  11.634   6.464  10.380  0.0583 -1.8020  1.4772
  208MOL0     H28671  11.804   6.521  10.397  2.2436  0.3108  1.5227
  208MOL0     H28672  11.705   6.295  10.564  1.1315  1.7524  0.2798
  208MOL0     H28673  11.870   6.342  10.540 -0.7635  2.3670  1.0337
  208MOL0     H28674  11.881   6.161  10.428 -2.7574 -0.8232  1.5738
  208MOL0     H28675  11.869   6.279  10.302  0.0417 -1.2337 -0.4569
  208MOL0     H28676  11.652   6.096  10.428 -0.9961  0.9591 -0.7211
  208MOL0     H28677  11.605   6.225  10.320  0.5705 -0.1437 -0.5112
  208MOL0     H28678  11.761   6.100  10.150 -1.0972  0.3010 -0.5246
  208MOL0     H28679  11.616   6.021  10.195 -0.6984  1.2269  1.3858
  208MOL0     H28680  11.754   5.881  10.374 -2.1973  0.5900 -0.2954
  208MOL0     H28681  11.898   5.966  10.309  0.1067 -0.0884  1.1220
  208MOL0     H28682  11.822   5.884  10.083 -1.3973 -1.5807 -1.3041
  208MOL0     H28683  11.712   5.776  10.173  0.8353 -2.8136  0.8287
  208MOL0     H28684  11.481   6.839  10.425 -0.7785 -1.8965 -0.9496
  208MOL0     H28685  11.360   7.021  10.542  0.7032  2.2909  1.4679
  208MOL0     H28686  11.262   7.161  11.018 -0.3551 -0.7971 -0.8175
  208MOL0     H28687  11.113   7.249  11.163  6.5019  0.2129 -1.2265
  208MOL0     H28688  10.077   7.206  11.569  0.0791  0.6163 -0.0704
  208MOL0     H28689   9.892   7.102  11.691  1.6555  2.8298  2.5004
  208MOL0     H28690   9.688   6.705  11.508 -0.1715 -1.2402 -0.1964
  208MOL0     H28691   9.604   6.533  11.617  1.0291  2.3257  0.3022
  208MOL0     H28692   9.605   6.545  11.901  0.0151 -1.3418  0.3669
  208MOL0     H28693   9.473   6.596  12.012 -0.7913 -2.7806  1.3918
  208MOL0     H28694   9.499   6.311  11.889 -3.1722 -0.4658 -0.6254
  208MOL0     H28695   9.383   6.361  12.015  0.8998 -4.5386  2.1920
  208MOL0     H28696   9.694   6.391  12.057  0.1186  0.3337  0.2593
  208MOL0     H28697   9.562   6.398  12.173  0.0353  0.2847  0.0410
  208MOL0     H28698   9.498   6.170  12.108  1.1191 -2.1150 -0.4827
  208MOL0     H28699   9.646   6.176  12.209 -2.4048 -1.4564  1.0651
  208MOL0     H28700   9.775   6.020  11.826  0.2935 -0.2847  0.3812
  208MOL0     H28701   9.304   6.779  11.814 -0.8628 -2.8424 -1.2038
  208MOL0     H28702   9.318   7.006  11.807  0.0608  1.1757  0.0053
  208MOL0     H28703   9.464   7.072  11.767 -1.3304  1.7747 -0.8052
  208MOL0     H28704   9.333   7.069  11.649 -1.9029  1.1003  1.8069
  209MOL0     O28705  10.771   5.237   0.416 -0.1861 -0.0520 -0.9203
  209MOL0     C28706  10.723   5.258   0.302 -0.2447 -0.4371 -0.0996
  209MOL0     O28707  10.739   5.381   0.233  0.9438  0.4777  0.1272
  209MOL0     C28708  10.866   5.435   0.218  0.2067  0.4794 -0.5647
  209MOL0     C28709  10.994   5.400   0.281  0.5413 -0.1467 -0.9576
  209MOL0     C28710  11.108   5.474   0.256  0.3847  0.5097  0.6270
  209MOL0     C28711  11.104   5.575   0.154  0.5596  0.4169  0.6722
  209MOL0     O28712  11.201   5.655   0.114  0.0468 -0.0792 -0.0164
  209MOL0     C28713  11.328   5.631   0.187 -1.2369 -0.2412  0.3882
  209MOL0     C28714  11.432   5.733   0.160 -0.1320  0.7040 -0.3181
  209MOL0     C28715  11.463   5.757   0.006 -0.4214 -0.3396  0.3304
  209MOL0     C28716  11.588   5.835  -0.013  0.5483 -0.8131 -0.4995
  209MOL0     C28717  11.661   5.828  -0.150  1.0325  0.5013  0.8782
  209MOL0     C28718  11.778   5.913  -0.161  0.5752  0.2002 -0.0564
  209MOL0     C28719  11.865   5.908  -0.290  0.7272  0.6158 -0.3357
  209MOL0     C28720  11.949   5.776  -0.297  0.4190  0.1022 -0.1021
  209MOL0     N28721  12.046   5.779  -0.408 -0.3795 -0.3400  0.5252
  209MOL0     C28722  12.017   5.720  -0.530 -0.1628 -1.0226 -0.4374
  209MOL0     C28723  12.133   5.736  -0.598  0.2675  0.4960  0.0458
  209MOL0     C28724  12.157   5.672  -0.730 -1.0179  0.1288 -0.1442
  209MOL0     C28725  12.311   5.677  -0.758  0.2568  0.6631 -0.1873
  209MOL0     C28726  12.329   5.638  -0.903 -0.3317  0.3002 -0.5133
  209MOL0     C28727  12.473   5.684  -0.955  0.0876 -0.4166 -0.0591
  209MOL0     O28728  12.582   5.654  -0.864  0.0311 -0.0345  0.4557
  209MOL0     C28729  12.629   5.518  -0.867  0.3272 -0.2633 -0.1668
  209MOL0     C28730  12.717   5.480  -0.769 -0.7025 -0.4474  0.4120
  209MOL0     C28731  12.784   5.355  -0.771  0.1146  1.0482 -0.0931
  209MOL0     C28732  12.882   5.330  -0.662 -0.4764 -0.1979  0.3679
  209MOL0     C28733  12.738   5.246  -0.847 -0.2648 -0.5940 -0.2777
  209MOL0     C28734  12.773   5.096  -0.839  0.0636 -0.3523  0.3511
  209MOL0     O28735  12.734   5.016  -0.942 -0.1691 -0.0764 -0.1508
  209MOL0     C28736  12.795   4.894  -0.957 -0.2545 -0.0866  0.8375
  209MOL0     C28737  12.926   4.875  -0.925  0.5077  0.4369  0.1445
  209MOL0     C28738  12.983   4.745  -0.927  0.0690  0.0252  0.1284
  209MOL0     C28739  12.909   4.632  -0.974  0.4098  0.4640  0.3669
  209MOL0     O28740  12.961   4.507  -0.964  0.3980  0.3991  0.1315
  209MOL0     C28741  12.914   4.454  -0.842 -0.1657 -0.1037 -0.0167
  209MOL0     C28742  12.973   4.304  -0.851 -0.2878 -0.8070 -0.3992
  209MOL0     C28743  12.890   4.221  -0.940  0.9727  0.4805 -0.3134
  209MOL0     C28744  12.915   4.076  -0.917 -0.1032 -0.4573 -0.1170
  209MOL0     C28745  12.860   3.990  -1.037 -0.2474  0.1695  0.2359
  209MOL0     C28746  12.911   3.845  -1.048  0.4015  0.3286 -0.8308
  209MOL0     C28747  12.817   3.773  -1.133  0.0015 -0.1687 -0.0341
  209MOL0     C28748  12.852   3.624  -1.150  0.0809  0.1896  0.6901
  209MOL0    Cl28749  12.952   3.595  -1.296 -0.0277 -0.3396  0.1987
  209MOL0     C28750  12.778   4.663  -1.034 -0.6456  0.6326 -0.7880
  209MOL0     C28751  12.727   4.790  -1.017  0.1576  0.2298  0.7409
  209MOL0     O28752  12.826   5.063  -0.733  0.8643  0.5715 -0.8056
  209MOL0     C28753  12.642   5.286  -0.941  0.4740 -0.2994  0.1047
  209MOL0     C28754  12.599   5.417  -0.964 -0.1452  1.0973 -0.3580
  209MOL0     N28755  12.209   5.821  -0.522  1.3645 -0.3367 -0.6680
  209MOL0     N28756  12.159   5.838  -0.408 -0.0152 -0.7562  0.4771
  209MOL0     C28757  10.980   5.603   0.092  0.2277  0.9201 -0.1653
  209MOL0     C28758  10.865   5.542   0.129  0.5666 -0.2193  0.0821
  209MOL0     C28759  10.669   5.139   0.226  0.3031  1.2369 -0.1642
  209MOL0     C28760  10.611   5.166   0.101  0.7782 -0.3142  0.5345
  209MOL0     C28761  10.577   5.064   0.013  0.2500 -0.5549  0.4314
  209MOL0     C28762  10.559   4.934   0.065 -0.4161  0.7264  0.1168
  209MOL0     O28763  10.523   4.820  -0.020 -0.8615 -0.1634 -0.7793
  209MOL0     C28764  10.403   4.851  -0.096 -0.2565  0.4070 -0.7911
  209MOL0     C28765  10.274   4.837  -0.005 -0.6823 -0.0156  0.8533
  209MOL0     C28766  10.143   4.886  -0.063  0.3487  0.0248  0.2471
  209MOL0     C28767  10.024   4.872   0.035  0.5597 -0.4723 -0.6774
  209MOL0     C28768  10.017   4.988   0.126 -0.4303  0.3648 -1.0875
  209MOL0     C28769  10.007   5.072   0.214 -0.2865 -0.9442 -0.3059
  209MOL0     C28770  10.588   4.912   0.195  0.1022 -0.4669 -0.5286
  209MOL0     C28771  10.654   5.006   0.276 -0.4265 -0.0533 -0.5083
  209MOL0     C28772  10.691   4.951   0.415  0.4549  0.5426 -0.7327
  209MOL0     H28773  10.996   5.316   0.350  3.3671 -0.0425 -0.8038
  209MOL0     H28774  11.198   5.444   0.309  0.2074 -0.3001  0.4940
  209MOL0     H28775  11.370   5.536   0.153  0.0927  0.2720  0.5456
  209MOL0     H28776  11.316   5.638   0.295  0.6067 -2.9728  0.8468
  209MOL0     H28777  11.380   5.822   0.197 -1.7669  0.6238 -2.2672
  209MOL0     H28778  11.526   5.701   0.206 -0.6307 -1.1296 -0.4977
  209MOL0     H28779  11.466   5.660  -0.044 -1.2556 -1.0562  1.6058
  209MOL0     H28780  11.378   5.817  -0.028 -0.5440  0.3199  1.7089
  209MOL0     H28781  11.556   5.939   0.002 -2.6959 -1.0421 -4.2671
  209MOL0     H28782  11.654   5.812   0.072  0.2664  1.1456  0.3119
  209MOL0     H28783  11.580   5.844  -0.222 -0.1320  1.8477  2.4116
  209MOL0     H28784  11.700   5.729  -0.177 -0.3218  0.0700  0.4086
  209MOL0     H28785  11.742   6.016  -0.148  0.1636 -0.2182  2.7993
  209MOL0     H28786  11.836   5.885  -0.072  0.6580  0.6603  0.0403
  209MOL0     H28787  11.931   5.995  -0.292  0.3526  0.8877 -1.6528
  209MOL0     H28788  11.795   5.904  -0.374  2.2241 -1.4376 -1.5849
  209MOL0     H28789  12.021   5.774  -0.215  2.1224 -0.9962 -1.5645
  209MOL0     H28790  11.885   5.687  -0.292 -1.0086  1.0756 -0.3604
  209MOL0     H28791  11.924   5.672  -0.559  0.2753 -2.5971  0.6278
  209MOL0     H28792  12.111   5.738  -0.804  0.7393  1.6481  0.0337
  209MOL0     H28793  12.122   5.569  -0.730 -0.7766  0.0370  0.7219
  209MOL0     H28794  12.354   5.777  -0.748  0.0886  0.8949 -1.5836
  209MOL0     H28795  12.365   5.601  -0.700  2.0571  2.5690  0.7698
  209MOL0     H28796  12.314   5.533  -0.930 -0.6106  0.3537 -0.5710
  209MOL0     H28797  12.264   5.707  -0.957  1.1737 -0.1335 -3.0389
  209MOL0     H28798  12.491   5.646  -1.056 -0.2773  3.9554 -1.9987
  209MOL0     H28799  12.459   5.792  -0.965  0.1378 -0.4120 -0.0806
  209MOL0     H28800  12.760   5.544  -0.692  1.7998 -0.4104 -0.8987
  209MOL0     H28801  12.966   5.265  -0.690  2.1721  1.6182  3.4248
  209MOL0     H28802  12.825   5.282  -0.582 -2.0193 -0.0459 -0.6015
  209MOL0     H28803  12.918   5.425  -0.622  0.8807 -0.3202 -0.4949
  209MOL0     H28804  12.985   4.959  -0.891 -2.5761  3.4699 -1.4348
  209MOL0     H28805  13.081   4.718  -0.888 -0.0759 -1.9395 -0.7596
  209MOL0     H28806  12.960   4.509  -0.758  0.4412 -1.5172  0.6024
  209MOL0     H28807  12.806   4.458  -0.828  0.0900 -0.0780  2.4673
  209MOL0     H28808  13.076   4.294  -0.887 -1.2170 -2.4360 -2.9633
  209MOL0     H28809  12.959   4.263  -0.751 -1.0013  1.5111  0.4885
  209MOL0     H28810  12.917   4.244  -1.043  2.1427  1.3031  0.1533
  209MOL0     H28811  12.783   4.238  -0.932  0.9684 -0.2754  1.9138
  209MOL0     H28812  12.862   4.049  -0.825 -0.9752  2.2310  0.2392
  209MOL0     H28813  13.021   4.053  -0.910  0.3382  1.6274  0.7965
  209MOL0     H28814  12.758   3.981  -0.997  0.2657 -1.6261  1.2499
  209MOL0     H28815  12.857   4.032  -1.138  0.5646 -2.8924 -1.1804
  209MOL0     H28816  12.915   3.801  -0.948 -1.5115  0.9779 -0.4330
  209MOL0     H28817  13.005   3.848  -1.104 -1.4168 -1.7401 -4.2908
  209MOL0     H28818  12.795   3.815  -1.232 -1.1026 -1.3853 -0.3411
  209MOL0     H28819  12.721   3.774  -1.081  1.2973  4.7960  2.8875
  209MOL0     H28820  12.756   3.571  -1.158  1.0005 -1.4100 -0.0751
  209MOL0     H28821  12.903   3.577  -1.066 -1.0914 -2.0061  0.2615
  209MOL0     H28822  12.722   4.581  -1.077 -1.0833  0.2054  0.5675
  209MOL0     H28823  12.637   4.823  -1.067  0.3616  1.7974  1.3448
  209MOL0     H28824  12.604   5.214  -1.013  0.1998 -0.8519  0.7922
  209MOL0     H28825  12.534   5.429  -1.050 -0.4438  0.5455 -0.2155
  209MOL0     H28826  10.972   5.675   0.011  2.7636 -0.7837 -2.0864
  209MOL0     H28827  10.784   5.566   0.060  0.8788 -0.7384 -0.4691
  209MOL0     H28828  10.610   5.265   0.057  0.2414  0.4172  2.1241
  209MOL0     H28829  10.558   5.106  -0.085 -3.3498  0.8413  1.5779
  209MOL0     H28830  10.402   4.945  -0.151  2.1055  1.8920  1.4896
  209MOL0     H28831  10.405   4.778  -0.178 -3.2715 -1.6361  0.7495
  209MOL0     H28832  10.284   4.886   0.092 -1.6401  1.9259  0.0465
  209MOL0     H28833  10.269   4.730   0.015 -3.3629  0.1832  1.6469
  209MOL0     H28834  10.164   4.989  -0.092  4.4687 -0.2233  1.7664
  209MOL0     H28835  10.124   4.831  -0.156  0.2680  1.5445 -0.6587
  209MOL0     H28836  10.039   4.782   0.095 -0.4637  0.1698  0.5931
  209MOL0     H28837   9.927   4.872  -0.014  1.4152 -0.1027 -2.4474
  209MOL0     H28838   9.999   5.140   0.296  0.8111 -2.7670  1.4215
  209MOL0     H28839  10.576   4.812   0.236  4.0032 -0.6945  0.4779
  209MOL0     H28840  10.786   4.986   0.457 -1.0738  1.7723  2.0144
  209MOL0     H28841  10.608   4.967   0.485 -1.6699 -4.1749 -1.7849
  209MOL0     H28842  10.694   4.842   0.409 -0.0910  0.5181 -0.5802
  210MOL0     O28843   9.218   8.776   4.806 -1.0244 -0.5607  0.6307
  210MOL0     C28844   9.261   8.866   4.723  0.4038 -0.6703 -0.2281
  210MOL0     O28845   9.387   8.872   4.667  0.2055 -0.3727  0.8311
  210MOL0     C28846   9.478   8.796   4.738 -0.1747  0.5085  0.3862
  210MOL0     C28847   9.489   8.663   4.709  0.8946  0.4073  0.0187
  210MOL0     C28848   9.567   8.574   4.787 -0.2204  0.4165 -0.1062
  210MOL0     C28849   9.634   8.620   4.897 -0.1671  0.4818  0.9313
  210MOL0     O28850   9.714   8.531   4.966  0.2393 -0.0291  0.4297
  210MOL0     C28851   9.852   8.558   4.964  0.3020 -0.4557  0.1114
  210MOL0     C28852   9.913   8.444   5.044 -0.1730  1.7412 -0.4402
  210MOL0     C28853  10.065   8.457   5.073 -0.1518 -0.5160 -0.4739
  210MOL0     C28854  10.104   8.384   5.198  0.5479  0.3410  0.2110
  210MOL0     C28855  10.237   8.423   5.259  0.3169 -0.4494 -0.6758
  210MOL0     C28856  10.282   8.327   5.369  0.3004 -0.2586  1.2213
  210MOL0     C28857  10.429   8.361   5.398 -0.8966  0.2591  0.7007
  210MOL0     C28858  10.468   8.507   5.436 -0.1405  0.5889 -0.1378
  210MOL0     N28859  10.389   8.524   5.555  0.1045 -0.4439 -0.4967
  210MOL0     C28860  10.415   8.478   5.685  0.7190 -0.0366  0.0746
  210MOL0     C28861  10.303   8.501   5.760 -0.3176 -0.2895  0.1400
  210MOL0     C28862  10.254   8.480   5.895 -0.3720  0.5574  0.8750
  210MOL0     C28863  10.337   8.538   6.001  0.3228 -0.4558 -0.2649
  210MOL0     C28864  10.466   8.464   6.030 -0.0091  0.3790 -0.6666
  210MOL0     C28865  10.519   8.472   6.172 -0.8276 -0.4799  0.5850
  210MOL0     O28866  10.643   8.395   6.161 -0.2192 -0.4487  0.3416
  210MOL0     C28867  10.723   8.403   6.273  0.0700  0.2061 -0.4552
  210MOL0     C28868  10.759   8.286   6.331 -0.3670  0.6907  0.4982
  210MOL0     C28869  10.842   8.279   6.447 -0.0318 -0.2992 -0.1371
  210MOL0     C28870  10.888   8.143   6.499  0.5545  0.4667 -0.7869
  210MOL0     C28871  10.896   8.399   6.494  0.0881 -0.7293 -0.3089
  210MOL0     C28872  11.000   8.409   6.601  0.3428  0.6057  0.1582
  210MOL0     O28873  11.010   8.299   6.689 -0.0638 -0.3231 -0.4213
  210MOL0     C28874  11.106   8.309   6.790  0.1595 -0.1145  0.3946
  210MOL0     C28875  11.241   8.287   6.775 -0.5049 -0.6635 -0.1358
  210MOL0     C28876  11.331   8.317   6.873  0.3237  0.1552 -0.4350
  210MOL0     C28877  11.293   8.370   6.991  0.1330  0.3890 -0.3765
  210MOL0     O28878  11.369   8.407   7.100 -0.7334  0.6076  0.6758
  210MOL0     C28879  11.495   8.342   7.106 -0.7293  0.5655 -0.6158
  210MOL0     C28880  11.544   8.329   7.247 -0.5133 -0.5933 -0.5430
  210MOL0     C28881  11.456   8.228   7.328  0.2510  0.5001  0.1628
  210MOL0     C28882  11.451   8.077   7.280  0.5349 -0.5443 -0.6651
  210MOL0     C28883  11.410   7.989   7.400  0.3575 -0.0065  0.6109
  210MOL0     C28884  11.391   7.841   7.343 -0.5817 -1.1481 -1.0859
  210MOL0     C28885  11.345   7.750   7.450 -0.1502 -0.1898 -0.5890
  210MOL0     C28886  11.450   7.738   7.574  0.4060 -0.3871  0.6962
  210MOL0    Cl28887  11.614   7.709   7.513 -0.0741  0.2018  0.5752
  210MOL0     C28888  11.155   8.390   7.009 -0.3807  0.3236 -0.9784
  210MOL0     C28889  11.058   8.358   6.912  0.3403  0.1950  0.2296
  210MOL0     O28890  11.052   8.516   6.626 -0.2236 -0.3428  0.0329
  210MOL0     C28891  10.853   8.524   6.432  0.2770  0.0200 -0.7354
  210MOL0     C28892  10.761   8.526   6.325  0.6922 -0.3489 -0.7980
  210MOL0     N28893  10.213   8.565   5.677  0.3924 -0.0836  0.7275
  210MOL0     N28894  10.264   8.576   5.557 -0.0179  0.0378  0.4466
  210MOL0     C28895   9.620   8.757   4.931  0.6698 -0.4871  0.0482
  210MOL0     C28896   9.542   8.844   4.855  0.5487  0.0580 -0.1403
  210MOL0     C28897   9.177   8.982   4.683 -0.0871 -0.3555  0.0283
  210MOL0     C28898   9.240   9.087   4.608 -0.0500 -0.2778 -0.2788
  210MOL0     C28899   9.168   9.216   4.578 -0.7477 -0.5589  0.3801
  210MOL0     C28900   9.038   9.232   4.622  0.1538  0.3940 -0.3255
  210MOL0     O28901   8.986   9.354   4.587  0.2359  0.3038 -0.4616
  210MOL0     C28902   8.861   9.388   4.664 -0.2991  0.4497 -0.3462
  210MOL0     C28903   8.850   9.545   4.673  1.5182  0.4837 -0.8849
  210MOL0     C28904   8.881   9.630   4.555  0.4804  0.7138 -0.4142
  210MOL0     C28905   8.778   9.628   4.442  0.0660  0.0529 -0.9891
  210MOL0     C28906   8.812   9.719   4.339  0.7058  0.0311 -0.8288
  210MOL0     C28907   8.818   9.785   4.239 -0.1138  0.5084  0.2079
  210MOL0     C28908   8.975   9.114   4.676  0.1031 -0.9766 -0.4493
  210MOL0     C28909   9.045   8.997   4.709  1.1259  0.2144  0.3714
  210MOL0     C28910   8.953   8.904   4.803  0.0198 -0.4221  0.5177
  210MOL0     H28911   9.436   8.622   4.624 -1.0339 -0.1324  1.4129
  210MOL0     H28912   9.568   8.469   4.757 -0.1417  0.0926  0.9829
  210MOL0     H28913   9.872   8.660   5.001  0.8375  0.1294 -1.6986
  210MOL0     H28914   9.889   8.541   4.863  1.5905 -3.1777  0.9573
  210MOL0     H28915   9.862   8.447   5.140 -0.5030  0.1714 -0.5507
  210MOL0     H28916   9.887   8.349   4.997  2.7567  0.4244  0.3359
  210MOL0     H28917  10.114   8.404   4.990  0.0364 -4.7377  2.0578
  210MOL0     H28918  10.095   8.563   5.069  1.3343 -0.7952  1.5391
  210MOL0     H28919  10.025   8.405   5.271 -1.7116  0.0250 -1.9867
  210MOL0     H28920  10.098   8.278   5.171 -2.5934  0.2338  0.9459
  210MOL0     H28921  10.231   8.526   5.295 -1.5211 -1.0483  0.8738
  210MOL0     H28922  10.317   8.424   5.184  1.6424 -0.4509  0.6978
  210MOL0     H28923  10.212   8.328   5.453 -0.6110 -1.3506  0.5093
  210MOL0     H28924  10.272   8.225   5.330  1.1954 -0.0623  0.4498
  210MOL0     H28925  10.486   8.325   5.312 -1.2496 -0.7223  0.8671
  210MOL0     H28926  10.455   8.293   5.479  0.8653 -0.8597 -0.7097
  210MOL0     H28927  10.576   8.497   5.447 -0.3034 -1.0692  0.1280
  210MOL0     H28928  10.444   8.583   5.361  2.4837  0.5802 -1.0696
  210MOL0     H28929  10.509   8.440   5.723  1.0726  1.6408  0.9684
  210MOL0     H28930  10.243   8.373   5.912 -0.7013  0.5590  0.6685
  210MOL0     H28931  10.150   8.514   5.900 -1.1405 -0.6309 -3.1908
  210MOL0     H28932  10.353   8.645   5.985 -3.2632 -0.0132 -1.7118
  210MOL0     H28933  10.271   8.531   6.087  1.6246  0.8155  0.8980
  210MOL0     H28934  10.466   8.358   6.006  0.5909  0.7992 -2.7098
  210MOL0     H28935  10.530   8.505   5.951  0.2475  2.5676  0.5925
  210MOL0     H28936  10.536   8.580   6.176 -1.4123 -0.2127 -2.1190
  210MOL0     H28937  10.450   8.439   6.250 -1.5560  3.1927  1.7215
  210MOL0     H28938  10.720   8.203   6.273 -2.5429  2.3050 -0.4997
  210MOL0     H28939  10.830   8.063   6.452 -1.0188  1.3494 -0.4217
  210MOL0     H28940  10.855   8.135   6.603  1.9594  2.9163 -0.0845
  210MOL0     H28941  10.996   8.126   6.485  0.6369 -0.4412  0.7198
  210MOL0     H28942  11.282   8.254   6.680  0.2172  0.0717 -0.0948
  210MOL0     H28943  11.433   8.287   6.853  0.5840 -1.2671  2.4455
  210MOL0     H28944  11.496   8.243   7.060 -0.2500  0.8038 -1.1358
  210MOL0     H28945  11.569   8.406   7.055 -0.6443 -0.6390 -2.0844
  210MOL0     H28946  11.647   8.295   7.257 -0.8542 -1.2880  0.8630
  210MOL0     H28947  11.538   8.424   7.300  2.1673 -1.2981  1.2017
  210MOL0     H28948  11.354   8.266   7.323  0.7502  1.7153 -2.6531
  210MOL0     H28949  11.500   8.228   7.428 -1.3932 -2.2274  0.9716
  210MOL0     H28950  11.550   8.059   7.238  0.4537  0.0543 -1.1300
  210MOL0     H28951  11.377   8.065   7.200 -0.3090  1.0994 -0.1904
  210MOL0     H28952  11.494   7.994   7.470  1.0012 -0.3945 -0.1213
  210MOL0     H28953  11.322   8.027   7.453  0.7552  0.2241  1.1189
  210MOL0     H28954  11.486   7.807   7.301 -0.6997 -1.9617 -0.7040
  210MOL0     H28955  11.319   7.835   7.261  3.1470 -2.7253 -4.5579
  210MOL0     H28956  11.339   7.647   7.413 -1.7089 -0.3529  0.0497
  210MOL0     H28957  11.246   7.769   7.492  1.1571  0.1222  2.7243
  210MOL0     H28958  11.404   7.653   7.625 -2.5559  0.1877 -0.7229
  210MOL0     H28959  11.452   7.822   7.643  2.3547 -0.6258  0.9739
  210MOL0     H28960  11.120   8.423   7.106  0.6297  0.2237 -0.5709
  210MOL0     H28961  10.951   8.369   6.925  0.3451  0.4290  0.0800
  210MOL0     H28962  10.884   8.622   6.467 -2.1215  1.7931 -3.1710
  210MOL0     H28963  10.731   8.612   6.266 -0.2610 -1.3747 -1.8605
  210MOL0     H28964   9.670   8.792   5.021  0.6400 -2.8016  1.0238
  210MOL0     H28965   9.516   8.941   4.896 -3.7458 -0.6216 -0.8052
  210MOL0     H28966   9.341   9.076   4.570  0.6192  0.4588  1.1904
  210MOL0     H28967   9.205   9.304   4.527 -2.4166  0.8189  1.4471
  210MOL0     H28968   8.771   9.349   4.616 -1.5270  4.0927 -1.3278
  210MOL0     H28969   8.854   9.350   4.767 -1.5367  0.1057 -0.5450
  210MOL0     H28970   8.919   9.575   4.753  1.0573 -0.4182 -0.1343
  210MOL0     H28971   8.752   9.575   4.712  1.2021 -2.2691  0.6813
  210MOL0     H28972   8.881   9.736   4.584  3.5735  0.0318  2.8005
  210MOL0     H28973   8.984   9.607   4.527  0.4348 -1.4223  0.9635
  210MOL0     H28974   8.675   9.637   4.478  0.9586 -0.6884  2.0749
  210MOL0     H28975   8.791   9.527   4.405 -1.5978 -0.4737 -0.2401
  210MOL0     H28976   8.808   9.847   4.152 -0.1713 -1.9430 -1.6350
  210MOL0     H28977   8.867   9.116   4.690 -0.1121  3.2440 -1.2840
  210MOL0     H28978   8.960   8.800   4.772 -0.9973 -0.0420 -1.1168
  210MOL0     H28979   8.987   8.909   4.907  1.4622  0.9301  0.0200
  210MOL0     H28980   8.846   8.927   4.799  0.2714  1.4324  2.3468
  211MOL0     O28981   5.753   7.336   9.222  0.8097  0.3723  0.0825
  211MOL0     C28982   5.848   7.262   9.202 -0.0758  0.0861 -0.3260
  211MOL0     O28983   5.943   7.237   9.298 -0.2273 -1.1651 -0.0051
  211MOL0     C28984   5.941   7.319   9.415 -1.0742  0.0261 -0.0445
  211MOL0     C28985   5.903   7.258   9.537  0.8963 -0.1470  0.8168
  211MOL0     C28986   5.896   7.333   9.656  0.8679 -0.0555  0.6895
  211MOL0     C28987   5.956   7.458   9.652  0.9330 -0.1721  1.0025
  211MOL0     O28988   5.954   7.526   9.774 -0.8237 -0.2848  0.3685
  211MOL0     C28989   5.828   7.585   9.807  0.2322  0.0017  0.1609
  211MOL0     C28990   5.835   7.741   9.823  1.0706 -0.0494  0.0044
  211MOL0     C28991   5.688   7.783   9.863  0.1742 -0.0197 -0.0545
  211MOL0     C28992   5.692   7.927   9.900  0.1177 -0.2022  0.1334
  211MOL0     C28993   5.558   7.993   9.939  0.6933 -0.3374  0.7552
  211MOL0     C28994   5.582   8.115  10.026  0.1080  0.6654 -0.5896
  211MOL0     C28995   5.650   8.234   9.955 -0.5108  0.3148 -0.3345
  211MOL0     C28996   5.786   8.274  10.022 -0.4114  0.5091 -0.1300
  211MOL0     N28997   5.782   8.368  10.132 -0.4449 -0.0609 -0.0676
  211MOL0     C28998   5.708   8.352  10.245 -0.7427 -0.4399 -0.0497
  211MOL0     C28999   5.735   8.468  10.306  0.0709  0.2378 -0.2761
  211MOL0     C29000   5.657   8.510  10.432  0.3161 -0.3168 -0.1189
  211MOL0     C29001   5.716   8.440  10.561 -0.3145 -0.5434  0.6826
  211MOL0     C29002   5.835   8.518  10.614 -0.5748 -0.4572 -0.7974
  211MOL0     C29003   5.920   8.425  10.699  0.7056  0.7419 -0.0338
  211MOL0     O29004   5.983   8.508  10.792 -0.3829  0.1387 -0.0897
  211MOL0     C29005   6.105   8.567  10.765  0.1891  0.6935 -0.2013
  211MOL0     C29006   6.164   8.658  10.857 -0.0836  0.3855 -0.7695
  211MOL0     C29007   6.291   8.729  10.831 -0.5422 -0.1307 -0.2139
  211MOL0     C29008   6.344   8.824  10.938 -0.7461 -0.3092 -0.4965
  211MOL0     C29009   6.364   8.692  10.706  0.6821 -0.2322 -0.0415
  211MOL0     C29010   6.490   8.755  10.665  0.5118 -0.3087 -0.1051
  211MOL0     O29011   6.512   8.748  10.533  0.5572 -0.0867  0.2069
  211MOL0     C29012   6.615   8.827  10.485  0.3612  0.6852  0.7033
  211MOL0     C29013   6.750   8.791  10.500  0.8064  0.1793 -0.3010
  211MOL0     C29014   6.856   8.866  10.451  0.2097  0.5367  0.1708
  211MOL0     C29015   6.826   8.992  10.399 -0.0265 -0.1676 -0.8292
  211MOL0     O29016   6.930   9.073  10.369  0.5180 -0.2864  0.4231
  211MOL0     C29017   6.914   9.211  10.400 -0.1078  0.3794  0.2651
  211MOL0     C29018   7.058   9.278  10.376  0.9645  0.0387 -0.2536
  211MOL0     C29019   7.055   9.416  10.423 -0.2355 -0.3464  0.1390
  211MOL0     C29020   7.200   9.477  10.397 -0.6280 -0.2807  0.3948
  211MOL0     C29021   7.234   9.585  10.504  0.2874 -0.6002 -0.3144
  211MOL0     C29022   7.377   9.613  10.500 -0.2940 -0.8278 -0.9867
  211MOL0     C29023   7.428   9.731  10.585  0.1171 -0.5723  0.0233
  211MOL0     C29024   7.584   9.732  10.565 -0.4393  0.3280 -0.4920
  211MOL0    Cl29025   7.671   9.597  10.641  0.3115 -0.1167 -0.0119
  211MOL0     C29026   6.695   9.033  10.384  0.4141 -0.3952 -0.4456
  211MOL0     C29027   6.588   8.953  10.425  0.3060 -0.0294 -0.3507
  211MOL0     O29028   6.561   8.816  10.748  0.4952  0.0446  0.6683
  211MOL0     C29029   6.295   8.606  10.617 -0.3463 -0.2933  0.6212
  211MOL0     C29030   6.173   8.551  10.640 -0.4480  0.5554 -0.1330
  211MOL0     N29031   5.834   8.539  10.257  0.4045 -0.1842  0.0788
  211MOL0     N29032   5.865   8.475  10.152  0.0505 -0.7528 -0.1788
  211MOL0     C29033   6.011   7.515   9.541  0.1481  0.1012  0.7270
  211MOL0     C29034   5.993   7.450   9.412  0.5042 -0.8475  0.0105
  211MOL0     C29035   5.872   7.198   9.069  0.6454  0.4813  0.6612
  211MOL0     C29036   5.792   7.246   8.965  0.1107  0.9766 -0.7024
  211MOL0     C29037   5.788   7.195   8.839 -0.1754 -0.1775  0.7499
  211MOL0     C29038   5.876   7.089   8.805 -0.0294  0.5945 -0.1148
  211MOL0     O29039   5.874   7.027   8.675 -0.4050 -0.5734 -0.4413
  211MOL0     C29040   5.748   7.014   8.607 -0.7779  0.2395  0.6493
  211MOL0     C29041   5.760   6.889   8.521  0.0343  0.6785 -0.3491
  211MOL0     C29042   5.846   6.925   8.399 -0.1913  0.3225 -0.3173
  211MOL0     C29043   5.825   6.808   8.297 -0.7673  0.8337 -0.4083
  211MOL0     C29044   5.922   6.819   8.187  0.4067  0.2996  0.0677
  211MOL0     C29045   5.990   6.830   8.089  0.1723  0.4695 -0.0824
  211MOL0     C29046   5.967   7.039   8.901  0.4339  0.0784 -0.2797
  211MOL0     C29047   5.961   7.088   9.034 -0.1648 -0.2742 -0.2690
  211MOL0     C29048   6.043   7.016   9.135  0.6778  0.0164 -0.1922
  211MOL0     H29049   5.876   7.153   9.535  2.4780 -0.5663  0.1737
  211MOL0     H29050   5.837   7.299   9.741 -0.0875 -0.0220  0.0589
  211MOL0     H29051   5.795   7.551   9.906  0.3426 -1.8946 -0.4059
  211MOL0     H29052   5.748   7.560   9.736 -0.0312 -1.5830  0.9574
  211MOL0     H29053   5.912   7.764   9.897  2.1652 -0.7356 -0.8873
  211MOL0     H29054   5.878   7.791   9.736  0.4839 -1.4665 -1.1489
  211MOL0     H29055   5.621   7.760   9.780 -0.0410  0.6264 -0.0656
  211MOL0     H29056   5.659   7.734   9.957 -0.6393 -4.1688 -2.2598
  211MOL0     H29057   5.777   7.944   9.966  0.2814 -1.8976  0.3896
  211MOL0     H29058   5.724   7.973   9.806  1.5526 -1.7158 -0.1532
  211MOL0     H29059   5.490   7.931   9.998  0.1074 -0.0501  0.3841
  211MOL0     H29060   5.510   8.020   9.845 -2.5547  1.3984  2.7439
  211MOL0     H29061   5.479   8.150  10.038  0.4218  1.6904 -0.7713
  211MOL0     H29062   5.634   8.091  10.119  2.1321  2.8939 -1.0156
  211MOL0     H29063   5.584   8.319   9.934 -0.1152  1.0842  1.3461
  211MOL0     H29064   5.670   8.196   9.855 -0.5792 -0.4995 -0.0447
  211MOL0     H29065   5.833   8.182  10.060 -2.5056 -0.3478  0.4889
  211MOL0     H29066   5.847   8.320   9.944  0.3244 -0.1720  0.0184
  211MOL0     H29067   5.627   8.284  10.267  2.1107 -3.8874  0.5324
  211MOL0     H29068   5.551   8.488  10.417  0.5542 -1.7108  0.0571
  211MOL0     H29069   5.659   8.619  10.443  0.2036 -0.4441  1.3432
  211MOL0     H29070   5.646   8.437  10.645 -0.7845 -1.2495  0.2792
  211MOL0     H29071   5.742   8.340  10.525 -2.9577 -0.4119 -2.0274
  211MOL0     H29072   5.910   8.542  10.539  1.2763 -0.5308  0.9393
  211MOL0     H29073   5.803   8.607  10.669  0.1313  0.5992 -2.0383
  211MOL0     H29074   5.849   8.362  10.753 -0.1215  2.4199  0.9057
  211MOL0     H29075   5.993   8.377  10.634  0.3580  1.2486 -0.8129
  211MOL0     H29076   6.108   8.674  10.949  0.9819 -0.1218 -0.0255
  211MOL0     H29077   6.427   8.781  10.995  0.2748  1.1527 -0.8055
  211MOL0     H29078   6.262   8.854  11.003  0.1107 -4.2672  2.7768
  211MOL0     H29079   6.392   8.907  10.884  2.6677 -1.2069  0.8786
  211MOL0     H29080   6.781   8.702  10.554  0.4383  0.1721 -0.0951
  211MOL0     H29081   6.955   8.824  10.438 -0.1613 -0.2711 -0.1108
  211MOL0     H29082   6.849   9.255  10.323  3.6433  1.5244 -2.5982
  211MOL0     H29083   6.877   9.239  10.499  0.5723  2.2091  0.0543
  211MOL0     H29084   7.134   9.223  10.432  1.3980  2.6533  1.9415
  211MOL0     H29085   7.075   9.281  10.268 -2.1834 -2.7967 -1.0072
  211MOL0     H29086   7.026   9.413  10.529 -0.6611 -1.4424  0.0049
  211MOL0     H29087   6.971   9.470  10.379 -1.5256 -2.7345 -0.5620
  211MOL0     H29088   7.211   9.509  10.293 -1.6363  1.0684  0.6691
  211MOL0     H29089   7.265   9.393  10.420  1.7924  0.7933 -2.0338
  211MOL0     H29090   7.166   9.670  10.490  1.0754  0.4055  1.6982
  211MOL0     H29091   7.214   9.547  10.604  0.1150  1.9074  0.6702
  211MOL0     H29092   7.394   9.629  10.393  0.2349 -2.0845 -1.1080
  211MOL0     H29093   7.428   9.525  10.539 -0.7711 -1.4620 -1.7588
  211MOL0     H29094   7.401   9.734  10.690  1.7473  0.5197  0.4514
  211MOL0     H29095   7.383   9.824  10.548  1.0348  0.7278  2.0357
  211MOL0     H29096   7.619   9.825  10.611  1.1205 -0.4316 -0.1155
  211MOL0     H29097   7.615   9.733  10.460  0.0788  1.1430 -0.3388
  211MOL0     H29098   6.686   9.128  10.332 -2.2276 -1.2748 -1.7501
  211MOL0     H29099   6.484   8.977  10.404 -0.8159 -4.4471 -0.8537
  211MOL0     H29100   6.316   8.592  10.512  3.2646 -0.2687  1.2034
  211MOL0     H29101   6.138   8.482  10.564  0.7659  0.2099 -0.3954
  211MOL0     H29102   6.060   7.612   9.539  1.5338 -0.5800  1.2733
  211MOL0     H29103   6.022   7.497   9.318  0.2818  1.5063  1.0502
  211MOL0     H29104   5.718   7.325   8.981 -1.1604 -0.1033 -1.0833
  211MOL0     H29105   5.735   7.241   8.757  1.7683 -1.2357 -1.2237
  211MOL0     H29106   5.667   6.998   8.679 -1.3524 -2.5618 -0.5204
  211MOL0     H29107   5.734   7.105   8.548  0.5778 -1.5281 -2.6540
  211MOL0     H29108   5.661   6.853   8.491  1.4564 -1.8878 -2.3469
  211MOL0     H29109   5.808   6.811   8.580  2.4561  0.1869 -2.7758
  211MOL0     H29110   5.808   7.018   8.356 -3.1161  1.1812  3.5720
  211MOL0     H29111   5.951   6.930   8.430 -0.2232 -1.5544  0.2027
  211MOL0     H29112   5.721   6.811   8.262 -2.0405  2.8103  3.1050
  211MOL0     H29113   5.843   6.712   8.345  2.3040  1.0508 -0.8964
  211MOL0     H29114   6.045   6.849   7.999  1.1000  0.0644  0.3783
  211MOL0     H29115   6.029   6.956   8.870  1.1745  0.8214 -0.8265
  211MOL0     H29116   6.131   7.073   9.168 -0.2002  1.9076 -1.0004
  211MOL0     H29117   5.968   6.980   9.206 -0.1050 -3.9485 -2.7024
  211MOL0     H29118   6.081   6.925   9.086 -2.9072  0.6903 -4.9499
  212MOL0     O29119  10.771   2.696   6.576 -0.1145  0.0660 -0.0614
  212MOL0     C29120  10.671   2.747   6.510 -0.5268  0.2071 -0.3438
  212MOL0     O29121  10.579   2.847   6.551 -0.7609  0.2755  0.7682
  212MOL0     C29122  10.595   2.907   6.672 -0.4643  0.1483 -0.2425
  212MOL0     C29123  10.676   3.024   6.679  1.2060  0.2726  0.0103
  212MOL0     C29124  10.685   3.075   6.811  0.2702 -0.3338 -0.2968
  212MOL0     C29125  10.623   3.022   6.924 -0.3891  0.9741  0.2247
  212MOL0     O29126  10.650   3.086   7.043  0.8569 -0.3343  0.5731
  212MOL0     C29127  10.651   3.020   7.167  0.4879  0.1451  0.0570
  212MOL0     C29128  10.740   2.896   7.173 -0.6586 -0.4835  0.0513
  212MOL0     C29129  10.891   2.934   7.153  1.0209  0.3411  0.0805
  212MOL0     C29130  10.967   2.801   7.170 -0.4815  0.4096 -1.1292
  212MOL0     C29131  11.105   2.815   7.109 -0.0346 -0.2471 -0.6307
  212MOL0     C29132  11.211   2.905   7.162  0.0398  0.6828  0.2107
  212MOL0     C29133  11.334   2.913   7.072  0.5156  0.8229 -0.4527
  212MOL0     C29134  11.445   2.991   7.142 -0.5443  0.5550 -0.7183
  212MOL0     N29135  11.436   3.131   7.131  0.2326 -0.3109  0.0581
  212MOL0     C29136  11.455   3.217   7.239 -0.2330  0.2513 -0.0622
  212MOL0     C29137  11.500   3.329   7.182 -0.2321  0.5337  0.0063
  212MOL0     C29138  11.539   3.437   7.284  0.1166  0.5221  0.4424
  212MOL0     C29139  11.634   3.539   7.218  0.0598 -0.2182  0.0184
  212MOL0     C29140  11.764   3.489   7.161  0.6094 -0.3018  0.2730
  212MOL0     C29141  11.824   3.591   7.069 -0.7423  0.0572 -0.3869
  212MOL0     O29142  11.933   3.517   7.011 -0.0062 -0.4379 -0.1628
  212MOL0     C29143  12.062   3.512   7.056  1.0841  0.3596  0.2109
  212MOL0     C29144  12.147   3.431   6.981  0.3385 -0.4001 -0.1609
  212MOL0     C29145  12.283   3.424   7.010 -0.3199 -0.8271  0.6083
  212MOL0     C29146  12.366   3.349   6.911 -0.2656 -0.0827  0.9728
  212MOL0     C29147  12.344   3.499   7.112 -0.2696 -0.6281  0.2554
  212MOL0     C29148  12.491   3.511   7.121  0.0749 -0.7391  0.1960
  212MOL0     O29149  12.544   3.638   7.108 -0.0577 -0.9606 -0.0717
  212MOL0     C29150  12.677   3.650   7.102  0.0373 -0.7367 -0.2968
  212MOL0     C29151  12.752   3.668   7.219 -0.2886  0.5055  0.5133
  212MOL0     C29152  12.890   3.665   7.208 -1.1116 -1.3918 -0.6234
  212MOL0     C29153  12.962   3.655   7.091 -0.0074 -0.0400  0.7693
  212MOL0     O29154  13.097   3.646   7.089 -0.4801  1.0608  0.0904
  212MOL0     C29155  13.158   3.549   6.995 -0.2197 -0.4387 -0.2754
  212MOL0     C29156  13.294   3.504   7.053  0.5324  0.4406 -0.0080
  212MOL0     C29157  13.409   3.594   6.998  0.2614  0.5700 -0.1283
  212MOL0     C29158  13.475   3.691   7.099  0.2546  0.4031 -1.4657
  212MOL0     C29159  13.562   3.788   7.039 -0.0908 -0.5664 -0.2852
  212MOL0     C29160  13.566   3.919   7.127  0.1340  0.5324 -0.9562
  212MOL0     C29161  13.654   4.031   7.070  0.1197 -0.3229  0.8834
  212MOL0     C29162  13.623   4.167   7.143 -0.7629  0.0626  0.2753
  212MOL0    Cl29163  13.456   4.225   7.104  0.0349 -0.1612 -0.4014
  212MOL0     C29164  12.887   3.636   6.981  0.9550 -0.5529 -0.6601
  212MOL0     C29165  12.747   3.629   6.987  0.1132  0.5854 -0.0059
  212MOL0     O29166  12.564   3.412   7.131 -0.1985 -0.6606  0.0453
  212MOL0     C29167  12.252   3.572   7.201 -0.8217  0.0335 -0.5961
  212MOL0     C29168  12.114   3.582   7.171  0.6706  0.0665 -0.1525
  212MOL0     N29169  11.490   3.318   7.043 -0.3336  0.2591 -0.2539
  212MOL0     N29170  11.456   3.200   7.017  0.1897  0.2021  0.8015
  212MOL0     C29171  10.542   2.912   6.911  0.9815  0.5755  0.0748
  212MOL0     C29172  10.534   2.852   6.787  0.7276 -0.1318 -0.3585
  212MOL0     C29173  10.648   2.702   6.369 -0.5249  0.2885  0.6039
  212MOL0     C29174  10.514   2.686   6.319  0.1536 -0.4086 -0.5109
  212MOL0     C29175  10.486   2.653   6.183  0.2788 -1.2866  0.5772
  212MOL0     C29176  10.592   2.628   6.092 -0.5494  0.4810 -0.4389
  212MOL0     O29177  10.581   2.577   5.964 -0.3339 -0.1352  0.0845
  212MOL0     C29178  10.446   2.541   5.931 -0.0627  0.7262  0.4511
  212MOL0     C29179  10.438   2.441   5.811  0.1053 -0.1963 -0.2787
  212MOL0     C29180  10.522   2.506   5.695 -0.4570 -0.2209  1.0287
  212MOL0     C29181  10.540   2.389   5.585  0.2939  0.0189  0.0872
  212MOL0     C29182  10.647   2.422   5.487  0.0852 -0.1747  0.5213
  212MOL0     C29183  10.740   2.456   5.407  0.1652  0.5781 -0.2358
  212MOL0     C29184  10.724   2.637   6.138  0.0974 -1.0732  0.1632
  212MOL0     C29185  10.746   2.676   6.271  0.6213  0.5864  0.4217
  212MOL0     C29186  10.896   2.699   6.305  0.3332 -0.7955 -0.7952
  212MOL0     H29187  10.717   3.064   6.586  3.2591 -1.1408  0.2398
  212MOL0     H29188  10.732   3.172   6.825  0.9461 -0.4037 -1.8695
  212MOL0     H29189  10.549   2.990   7.194 -0.8694  1.2369 -3.3127
  212MOL0     H29190  10.685   3.096   7.238 -1.4338 -1.5966  3.1028
  212MOL0     H29191  10.748   2.852   7.273  1.1957  1.8510  1.0370
  212MOL0     H29192  10.709   2.829   7.093  1.1440  1.1876 -2.1904
  212MOL0     H29193  10.905   2.971   7.052  0.7757 -2.8360 -1.2272
  212MOL0     H29194  10.926   3.000   7.234  0.3770 -1.9925  2.4034
  212MOL0     H29195  10.962   2.773   7.276 -0.7283 -1.1415 -1.5288
  212MOL0     H29196  10.927   2.717   7.112  2.2961 -1.8988  0.0048
  212MOL0     H29197  11.096   2.851   7.006  1.4861 -1.5807 -1.2719
  212MOL0     H29198  11.140   2.711   7.109 -2.2927 -1.1194  2.1301
  212MOL0     H29199  11.169   3.006   7.169 -1.8083 -0.1580  2.4534
  212MOL0     H29200  11.233   2.871   7.264  1.8583  1.1690  0.0086
  212MOL0     H29201  11.309   2.957   6.975  0.0022  0.7833 -0.3461
  212MOL0     H29202  11.370   2.813   7.046 -0.9527  0.2565 -0.4334
  212MOL0     H29203  11.453   2.967   7.248  1.6120  0.6833 -0.7952
  212MOL0     H29204  11.535   2.961   7.086 -1.7037  2.3335 -3.7849
  212MOL0     H29205  11.445   3.185   7.342 -0.1689 -0.1103 -0.1644
  212MOL0     H29206  11.595   3.393   7.367  0.5800  0.9305  0.3501
  212MOL0     H29207  11.449   3.486   7.323  0.9128  2.6114 -0.1802
  212MOL0     H29208  11.574   3.593   7.144  1.3988 -2.1647 -2.6297
  212MOL0     H29209  11.649   3.614   7.297 -4.8811 -0.4713  1.5671
  212MOL0     H29210  11.835   3.458   7.238 -0.7614 -4.4913  0.1087
  212MOL0     H29211  11.745   3.396   7.107 -2.2485  0.2083  0.2491
  212MOL0     H29212  11.759   3.623   6.988  0.0640  1.5924 -0.4569
  212MOL0     H29213  11.867   3.676   7.124  0.3859 -1.2101  0.7889
  212MOL0     H29214  12.106   3.385   6.892 -0.8379 -0.9076  0.6076
  212MOL0     H29215  12.310   3.303   6.829  0.9674  1.1886 -0.6483
  212MOL0     H29216  12.433   3.275   6.956  0.8810  0.3944  0.1259
  212MOL0     H29217  12.441   3.412   6.862  1.4371 -1.7335  1.3014
  212MOL0     H29218  12.708   3.683   7.317  3.3968 -1.0044  2.6087
  212MOL0     H29219  12.955   3.679   7.294  0.2676  1.6690 -1.9957
  212MOL0     H29220  13.107   3.453   6.983  0.0650 -0.4373 -1.5924
  212MOL0     H29221  13.181   3.599   6.901  0.1236 -0.0299  0.0205
  212MOL0     H29222  13.298   3.505   7.162  0.3230  0.7191 -0.0011
  212MOL0     H29223  13.294   3.398   7.026  0.4357 -0.6238  3.6870
  212MOL0     H29224  13.366   3.652   6.915  2.8969  0.5640 -1.5984
  212MOL0     H29225  13.484   3.539   6.940  0.4179  3.0897 -2.5348
  212MOL0     H29226  13.528   3.630   7.173 -0.3177  2.4704  0.7779
  212MOL0     H29227  13.398   3.742   7.157  2.3965  2.5730 -0.3620
  212MOL0     H29228  13.661   3.741   7.040 -0.2154 -0.8258 -0.2937
  212MOL0     H29229  13.535   3.810   6.935 -1.0187 -0.9423 -0.1299
  212MOL0     H29230  13.608   3.894   7.224  3.9836  2.0022 -2.0700
  212MOL0     H29231  13.465   3.954   7.152 -0.0314 -1.6551  1.8963
  212MOL0     H29232  13.637   4.037   6.962  0.4500 -2.1794  0.7058
  212MOL0     H29233  13.761   4.011   7.073  0.1219 -0.8037 -0.8650
  212MOL0     H29234  13.701   4.243   7.143 -3.0978  2.6504  1.0836
  212MOL0     H29235  13.622   4.141   7.250 -2.0652  1.0031  0.5288
  212MOL0     H29236  12.931   3.630   6.882  0.8126 -2.1981 -0.6463
  212MOL0     H29237  12.685   3.611   6.900  0.7580  1.8723 -0.7576
  212MOL0     H29238  12.271   3.637   7.285  0.7196  0.0714 -0.9415
  212MOL0     H29239  12.058   3.654   7.230  0.8803 -0.0124  0.1461
  212MOL0     H29240  10.507   2.858   6.997  0.1490 -1.6020 -1.5487
  212MOL0     H29241  10.489   2.754   6.774 -0.0610  0.3665 -1.5132
  212MOL0     H29242  10.423   2.703   6.375  2.6399  3.2102  3.0175
  212MOL0     H29243  10.382   2.649   6.154  0.8318 -3.4769 -1.4310
  212MOL0     H29244  10.403   2.488   6.017  1.6626 -1.4338  0.1048
  212MOL0     H29245  10.389   2.631   5.908  0.8908  0.8193 -1.8592
  212MOL0     H29246  10.332   2.428   5.788 -0.0220 -0.7992  0.6110
  212MOL0     H29247  10.480   2.345   5.840 -0.1907  0.2032  1.6312
  212MOL0     H29248  10.472   2.595   5.657  2.6885  1.4773  0.5573
  212MOL0     H29249  10.619   2.532   5.738  0.6110  0.4228 -1.5881
  212MOL0     H29250  10.443   2.358   5.545  0.0794  0.1501  0.5008
  212MOL0     H29251  10.572   2.301   5.642 -0.7536  1.8424  3.7986
  212MOL0     H29252  10.806   2.474   5.325  0.6076 -0.1583 -0.0495
  212MOL0     H29253  10.801   2.607   6.069 -0.3694 -2.5234  0.2492
  212MOL0     H29254  10.917   2.805   6.315 -2.7590 -0.1271 -0.3551
  212MOL0     H29255  10.920   2.651   6.400 -1.2125  1.5916  0.8925
  212MOL0     H29256  10.959   2.654   6.227  2.5487 -0.6337  0.8152
  213MOL0     O29257   9.023   6.474   8.778 -0.0912 -0.6351  0.5371
  213MOL0     C29258   9.008   6.366   8.718  0.6879 -0.4143  0.2324
  213MOL0     O29259   8.970   6.355   8.587 -0.5911  0.2482  0.7889
  213MOL0     C29260   8.980   6.459   8.496 -0.6594 -0.0387 -0.4906
  213MOL0     C29261   8.868   6.475   8.415 -0.3568 -0.2350  0.0209
  213MOL0     C29262   8.879   6.577   8.321  0.0127  0.2473  0.5551
  213MOL0     C29263   8.986   6.663   8.313  0.0860 -0.8534 -0.1475
  213MOL0     O29264   8.972   6.761   8.222 -0.0884 -0.1168  0.0102
  213MOL0     C29265   9.051   6.881   8.247 -0.9940  0.2128  0.5687
  213MOL0     C29266   9.027   6.996   8.145 -0.4723  0.1399 -0.0154
  213MOL0     C29267   8.873   7.032   8.127 -0.0888  0.2151 -0.0333
  213MOL0     C29268   8.862   7.145   8.025 -0.0770 -0.8716  1.0672
  213MOL0     C29269   8.711   7.188   8.002 -0.4143  0.9623 -0.5910
  213MOL0     C29270   8.690   7.255   7.870 -0.3972 -0.1101  0.3981
  213MOL0     C29271   8.551   7.246   7.815  0.1658 -0.4364  0.2151
  213MOL0     C29272   8.444   7.328   7.891  0.4366  0.7619  0.0093
  213MOL0     N29273   8.318   7.330   7.813 -0.3890 -0.0932  0.0915
  213MOL0     C29274   8.240   7.218   7.794  0.3551  0.1952 -0.0111
  213MOL0     C29275   8.136   7.263   7.725 -0.0919 -0.1208 -0.2470
  213MOL0     C29276   8.016   7.184   7.681  0.4056  0.0384  0.0695
  213MOL0     C29277   7.890   7.215   7.768 -0.2401  0.1272  0.3236
  213MOL0     C29278   7.762   7.194   7.677 -1.0740 -0.8458  0.0495
  213MOL0     C29279   7.646   7.133   7.759  0.4857  0.4263 -0.3866
  213MOL0     O29280   7.644   6.985   7.774  0.0574  0.4242  0.3888
  213MOL0     C29281   7.711   6.918   7.872 -0.4471  0.2305  0.0628
  213MOL0     C29282   7.757   6.781   7.848  0.1935 -0.3255 -0.8857
  213MOL0     C29283   7.817   6.704   7.946 -0.4788  0.9254  0.5352
  213MOL0     C29284   7.819   6.557   7.908  0.4502 -1.7015 -0.0008
  213MOL0     C29285   7.873   6.759   8.065 -0.8072 -1.1577  0.3504
  213MOL0     C29286   7.957   6.702   8.172 -0.5477  0.1107 -0.3350
  213MOL0     O29287   7.992   6.773   8.290 -0.4659 -0.0971  0.4683
  213MOL0     C29288   8.062   6.703   8.388  0.6804 -0.0559 -0.4359
  213MOL0     C29289   8.187   6.746   8.419  0.2077 -0.9436 -0.3194
  213MOL0     C29290   8.275   6.692   8.517  0.3207  0.4231  1.0536
  213MOL0     C29291   8.223   6.583   8.591 -0.8521  0.4354  0.1334
  213MOL0     O29292   8.292   6.519   8.694 -0.3300 -0.6730  0.6601
  213MOL0     C29293   8.407   6.582   8.758 -0.0759  0.4307 -0.8893
  213MOL0     C29294   8.471   6.510   8.879  0.4372  0.0349  0.7235
  213MOL0     C29295   8.580   6.413   8.839 -0.4177  0.5426  0.1199
  213MOL0     C29296   8.528   6.299   8.763 -0.0005 -0.4675 -0.2096
  213MOL0     C29297   8.642   6.238   8.670  1.4603 -0.0520 -0.6483
  213MOL0     C29298   8.577   6.124   8.583 -1.0257  0.5982  0.0953
  213MOL0     C29299   8.675   6.064   8.478  0.2994 -0.2105 -1.0656
  213MOL0     C29300   8.660   5.907   8.457 -0.0062 -0.5771 -0.3029
  213MOL0    Cl29301   8.675   5.810   8.598 -0.4447  0.2636  0.3637
  213MOL0     C29302   8.092   6.542   8.566 -0.4110 -0.1965 -0.1858
  213MOL0     C29303   8.009   6.597   8.462 -0.0246 -0.0771 -0.2501
  213MOL0     O29304   8.000   6.589   8.151 -0.6036 -0.1849 -0.4554
  213MOL0     C29305   7.838   6.892   8.088  0.3939 -0.5109  0.4216
  213MOL0     C29306   7.751   6.973   7.996 -0.3757  0.7050 -0.1404
  213MOL0     N29307   8.146   7.397   7.702  0.0330 -0.0842 -0.2013
  213MOL0     N29308   8.264   7.439   7.749  0.1591  0.7673  0.1375
  213MOL0     C29309   9.093   6.654   8.406  0.3476 -0.2326 -0.0609
  213MOL0     C29310   9.092   6.549   8.492 -0.5614 -1.0175 -1.3190
  213MOL0     C29311   9.037   6.237   8.790  1.1927  0.2886 -0.9287
  213MOL0     C29312   9.052   6.120   8.713  0.3463  0.6893  0.4036
  213MOL0     C29313   9.078   5.994   8.769 -0.8523  1.0265  0.5059
  213MOL0     C29314   9.098   5.980   8.907  0.2916  0.0433  0.1101
  213MOL0     O29315   9.153   5.865   8.970 -0.1521  0.8395  0.3052
  213MOL0     C29316   9.182   5.751   8.884 -0.0794  0.5013  0.3672
  213MOL0     C29317   9.289   5.666   8.955 -0.0794 -0.2001  0.2381
  213MOL0     C29318   9.273   5.657   9.103  0.7178  0.2686  0.0873
  213MOL0     C29319   9.158   5.565   9.140 -0.2761  0.5639  0.7870
  213MOL0     C29320   9.134   5.547   9.288 -0.3844  0.1680  0.0422
  213MOL0     C29321   9.127   5.536   9.405  0.1174 -1.0245 -0.2139
  213MOL0     C29322   9.078   6.096   8.983  0.6002  0.1043 -0.9643
  213MOL0     C29323   9.045   6.219   8.931 -0.8803 -0.9712  0.2964
  213MOL0     C29324   9.014   6.336   9.031 -0.5138  0.6286 -0.1643
  213MOL0     H29325   8.784   6.407   8.423  0.9195 -1.8655  0.1164
  213MOL0     H29326   8.792   6.583   8.256 -3.3173 -5.2223  3.7306
  213MOL0     H29327   9.155   6.852   8.233 -1.0483  0.9087 -1.8611
  213MOL0     H29328   9.042   6.926   8.346 -0.4987  1.6006  0.0189
  213MOL0     H29329   9.085   7.075   8.193 -1.9464  1.2257  0.0650
  213MOL0     H29330   9.080   6.969   8.053  3.1410 -1.0002  2.2275
  213MOL0     H29331   8.821   6.947   8.081  0.4888  0.0661 -0.4269
  213MOL0     H29332   8.820   7.059   8.219 -0.5123 -0.4959 -0.0599
  213MOL0     H29333   8.923   7.229   8.058  0.0188 -0.8242  0.7696
  213MOL0     H29334   8.906   7.120   7.928 -3.7876  2.0374 -1.7123
  213MOL0     H29335   8.666   7.249   8.081  1.1545 -1.1811  2.1161
  213MOL0     H29336   8.653   7.095   8.001  0.3226  0.4973 -1.5358
  213MOL0     H29337   8.731   7.356   7.874  1.4622 -0.8394  0.4346
  213MOL0     H29338   8.750   7.203   7.795 -0.2783  0.3711  0.1537
  213MOL0     H29339   8.530   7.139   7.821 -1.6178 -0.1295 -0.1679
  213MOL0     H29340   8.559   7.277   7.710  0.7179  0.5182  0.5333
  213MOL0     H29341   8.428   7.280   7.988  2.7265  2.4047  1.2783
  213MOL0     H29342   8.479   7.429   7.911  2.6629 -0.0391  0.4842
  213MOL0     H29343   8.265   7.121   7.834 -3.3921 -1.0187 -0.1802
  213MOL0     H29344   8.035   7.076   7.686  1.7445  0.1369 -1.7823
  213MOL0     H29345   7.997   7.222   7.580 -0.1897  0.8487  0.4698
  213MOL0     H29346   7.892   7.152   7.857 -0.2272  3.7022  3.0833
  213MOL0     H29347   7.896   7.318   7.802  3.2342 -0.3170  1.5004
  213MOL0     H29348   7.738   7.292   7.637 -0.9230  1.4152  4.7833
  213MOL0     H29349   7.778   7.122   7.596  2.3012 -2.6035  2.0240
  213MOL0     H29350   7.649   7.189   7.853  1.6015  1.6813 -1.1300
  213MOL0     H29351   7.557   7.164   7.703  0.1686  0.8893  0.3611
  213MOL0     H29352   7.728   6.734   7.754 -2.7953 -0.1183 -0.1927
  213MOL0     H29353   7.816   6.498   8.000 -1.1538 -2.0087 -0.2275
  213MOL0     H29354   7.909   6.531   7.852 -0.1236 -1.3636 -1.1148
  213MOL0     H29355   7.727   6.532   7.855 -0.3547  1.9175 -0.6161
  213MOL0     H29356   8.239   6.824   8.364  0.9040 -1.0414  0.1913
  213MOL0     H29357   8.363   6.752   8.539 -0.7956  1.6204  2.5807
  213MOL0     H29358   8.485   6.612   8.688  1.9718 -1.7391  0.3284
  213MOL0     H29359   8.362   6.667   8.810 -0.8328 -0.5482  0.1078
  213MOL0     H29360   8.505   6.582   8.954 -0.3033  0.1402  0.9649
  213MOL0     H29361   8.389   6.459   8.930  1.0889 -1.6226  0.1942
  213MOL0     H29362   8.627   6.370   8.928  0.7758 -1.6596 -1.4756
  213MOL0     H29363   8.656   6.466   8.781  0.5905  0.1547  1.0420
  213MOL0     H29364   8.435   6.316   8.708 -0.5197 -1.8486  0.1879
  213MOL0     H29365   8.503   6.220   8.835  2.5406 -0.9263  0.2614
  213MOL0     H29366   8.684   6.312   8.601 -1.9321  2.4782 -0.2574
  213MOL0     H29367   8.719   6.196   8.736 -0.7919  0.4975  2.5458
  213MOL0     H29368   8.481   6.156   8.542 -0.7913 -2.1611 -2.9361
  213MOL0     H29369   8.550   6.047   8.655 -0.4962 -1.4050 -1.7480
  213MOL0     H29370   8.776   6.083   8.515 -1.0144  3.5956  1.2055
  213MOL0     H29371   8.648   6.125   8.391 -0.7793  5.0860  2.4461
  213MOL0     H29372   8.726   5.872   8.377 -0.2743 -1.4641 -0.1462
  213MOL0     H29373   8.556   5.891   8.427 -0.5956  0.9185  0.8315
  213MOL0     H29374   8.052   6.469   8.636  0.2528 -1.2693 -0.9024
  213MOL0     H29375   7.907   6.568   8.441 -1.0021  4.2206 -2.7588
  213MOL0     H29376   7.865   6.942   8.180  0.4358 -0.4524  0.3771
  213MOL0     H29377   7.726   7.075   8.025 -1.7669  0.7698 -1.4185
  213MOL0     H29378   9.187   6.710   8.402  0.2923 -0.1912 -0.9904
  213MOL0     H29379   9.163   6.514   8.566 -1.6558 -3.2102 -1.2081
  213MOL0     H29380   9.051   6.120   8.605  1.7385 -0.9195  0.3577
  213MOL0     H29381   9.088   5.922   8.688  1.1698  3.2082 -1.3428
  213MOL0     H29382   9.093   5.690   8.863  2.5084 -3.8111  0.7165
  213MOL0     H29383   9.229   5.777   8.789  0.4058  0.0789  0.4914
  213MOL0     H29384   9.379   5.728   8.949 -0.7390  0.8225  0.5150
  213MOL0     H29385   9.308   5.577   8.895 -1.2560 -1.1431  1.2187
  213MOL0     H29386   9.366   5.623   9.148 -0.2716 -2.1014  0.5081
  213MOL0     H29387   9.250   5.758   9.138 -0.5681  0.2286 -0.5850
  213MOL0     H29388   9.181   5.469   9.094  1.6397  0.9502  0.8657
  213MOL0     H29389   9.064   5.590   9.089 -0.2518 -2.5632 -1.0080
  213MOL0     H29390   9.121   5.532   9.512 -2.1501 -2.8999 -0.3286
  213MOL0     H29391   9.103   6.092   9.089  2.6967  1.4730 -1.3415
  213MOL0     H29392   8.908   6.364   9.022 -0.4931  0.9068  0.4018
  213MOL0     H29393   9.025   6.296   9.132 -3.1128 -1.3324 -0.5400
  213MOL0     H29394   9.080   6.421   9.011  0.1278 -0.5409 -3.7643
  214MOL0     O29395   4.222   5.910   8.503 -0.4786 -0.3767 -0.1695
  214MOL0     C29396   4.341   5.866   8.517  0.5197  0.4444 -0.4498
  214MOL0     O29397   4.376   5.737   8.552  0.0140 -0.3808  0.3341
  214MOL0     C29398   4.287   5.639   8.567  0.4021 -0.1345  0.1845
  214MOL0     C29399   4.351   5.517   8.601 -0.3359 -0.0859  0.3115
  214MOL0     C29400   4.272   5.402   8.621  0.3418  0.2678 -0.3845
  214MOL0     C29401   4.135   5.402   8.590 -0.2767  0.7351 -0.4047
  214MOL0     O29402   4.057   5.290   8.605 -0.1433 -0.7413  0.7890
  214MOL0     C29403   4.103   5.189   8.702  0.1637 -0.0025  0.9276
  214MOL0     C29404   3.992   5.088   8.730 -0.3291 -0.2074 -1.4686
  214MOL0     C29405   4.025   5.000   8.856 -0.7377  0.5282  0.1277
  214MOL0     C29406   4.147   4.907   8.845  0.0412 -0.0536 -0.1747
  214MOL0     C29407   4.099   4.770   8.789 -0.4570  0.5912 -0.1968
  214MOL0     C29408   4.223   4.675   8.767 -0.6738 -1.5131 -0.5243
  214MOL0     C29409   4.170   4.531   8.776 -0.3610 -0.6241  0.2018
  214MOL0     C29410   4.268   4.421   8.738 -0.3624  0.1366 -0.2745
  214MOL0     N29411   4.239   4.377   8.607 -0.0188 -0.4425  0.3928
  214MOL0     C29412   4.121   4.330   8.552  0.8678  0.3738 -0.5931
  214MOL0     C29413   4.143   4.282   8.429  0.3401 -0.3708  0.4034
  214MOL0     C29414   4.046   4.224   8.336  0.1688  0.6753 -0.1493
  214MOL0     C29415   4.109   4.122   8.245 -0.1086  0.6933  0.2861
  214MOL0     C29416   4.001   4.054   8.173 -0.5035 -0.4222  0.3513
  214MOL0     C29417   4.072   3.965   8.071 -0.3660  0.7366  0.7907
  214MOL0     O29418   3.966   3.901   7.995 -0.3368  0.3611 -0.1616
  214MOL0     C29419   4.000   3.821   7.895  0.3166  0.1680  0.7901
  214MOL0     C29420   4.121   3.745   7.891 -0.2341 -1.0132  0.7481
  214MOL0     C29421   4.151   3.673   7.770 -0.3343 -0.4379 -0.4759
  214MOL0     C29422   4.292   3.601   7.765  0.9190 -0.1042  0.2964
  214MOL0     C29423   4.061   3.674   7.656 -0.2133  0.0640 -0.2623
  214MOL0     C29424   4.085   3.613   7.524 -0.1576  0.2640 -0.1181
  214MOL0     O29425   4.214   3.576   7.489  0.2725 -0.2312 -0.1374
  214MOL0     C29426   4.243   3.503   7.377  0.2845  0.5409  0.0138
  214MOL0     C29427   4.203   3.547   7.247  0.1039 -0.3022 -0.4776
  214MOL0     C29428   4.237   3.477   7.133 -0.3858  0.3661  1.1919
  214MOL0     C29429   4.307   3.353   7.144  0.2849  0.0302  0.1850
  214MOL0     O29430   4.359   3.278   7.040 -0.1514 -0.5416  0.6258
  214MOL0     C29431   4.292   3.288   6.912 -0.1779 -0.1937 -0.4123
  214MOL0     C29432   4.315   3.174   6.820 -0.4376 -0.8943  0.1514
  214MOL0     C29433   4.303   3.038   6.892 -0.1888 -1.1599 -0.5664
  214MOL0     C29434   4.356   2.927   6.794  0.6805 -0.3144  0.0295
  214MOL0     C29435   4.340   2.786   6.857  0.1956 -0.0073  1.3966
  214MOL0     C29436   4.191   2.743   6.843  0.8186 -0.6044  0.6826
  214MOL0     C29437   4.179   2.597   6.903 -0.4192 -0.4485 -0.0261
  214MOL0     C29438   4.037   2.555   6.935 -0.3531  0.1845 -0.2622
  214MOL0    Cl29439   3.972   2.630   7.088  0.4069  0.1723 -0.4344
  214MOL0     C29440   4.334   3.302   7.276 -0.3575 -0.5210  0.4015
  214MOL0     C29441   4.309   3.379   7.388  0.4297  0.3354  0.5402
  214MOL0     O29442   3.988   3.583   7.455 -0.0518 -0.4416  0.3906
  214MOL0     C29443   3.938   3.748   7.670 -0.5003  0.1454  0.2638
  214MOL0     C29444   3.915   3.821   7.784 -0.1035  0.2634 -0.8150
  214MOL0     N29445   4.278   4.311   8.408 -0.0726  0.0669 -0.3554
  214MOL0     N29446   4.338   4.355   8.515 -0.1161 -0.3683  0.5280
  214MOL0     C29447   4.068   5.518   8.559  0.8319  1.0785 -0.2487
  214MOL0     C29448   4.145   5.629   8.544  0.5785 -0.3132 -0.1533
  214MOL0     C29449   4.451   5.962   8.509  0.1898 -0.0614 -1.1667
  214MOL0     C29450   4.582   5.916   8.542  0.2343 -1.0053 -0.0883
  214MOL0     C29451   4.690   6.003   8.529 -0.7933 -0.0982  0.4261
  214MOL0     C29452   4.676   6.138   8.490 -0.6149 -0.0556  0.0330
  214MOL0     O29453   4.784   6.219   8.469 -0.0405  0.7572  0.0510
  214MOL0     C29454   4.907   6.196   8.526  0.4883 -0.6201 -0.8610
  214MOL0     C29455   5.013   6.292   8.475  0.8656  0.8678 -0.3307
  214MOL0     C29456   4.960   6.436   8.483 -0.0516  0.3100  0.6633
  214MOL0     C29457   5.076   6.532   8.456 -0.2241 -0.1840  0.2805
  214MOL0     C29458   5.030   6.665   8.494  0.0583 -0.2362  0.6110
  214MOL0     C29459   5.000   6.781   8.523 -0.1388  0.5999 -0.5788
  214MOL0     C29460   4.552   6.182   8.458  0.6918  0.2086 -0.0966
  214MOL0     C29461   4.441   6.105   8.477  0.4858  0.7214 -0.1573
  214MOL0     C29462   4.311   6.156   8.410  0.6177 -0.0389  0.5025
  214MOL0     H29463   4.459   5.507   8.613  0.3809  1.7990 -3.1734
  214MOL0     H29464   4.328   5.316   8.657 -1.7746 -2.2929 -2.7083
  214MOL0     H29465   4.127   5.243   8.794 -0.2657 -0.5271  1.3506
  214MOL0     H29466   4.192   5.141   8.659 -0.9198  0.3360 -1.9301
  214MOL0     H29467   3.895   5.136   8.749  0.6819  1.8176 -1.2443
  214MOL0     H29468   3.989   5.023   8.642 -2.7714 -2.3944  0.0566
  214MOL0     H29469   4.038   5.078   8.931 -1.8245 -1.3482  2.3683
  214MOL0     H29470   3.941   4.934   8.879  1.1537 -1.7994  0.7540
  214MOL0     H29471   4.229   4.936   8.779  3.0909  0.4805  3.4552
  214MOL0     H29472   4.200   4.913   8.941  0.3554  3.6646 -0.4308
  214MOL0     H29473   4.044   4.787   8.696 -1.2371  0.9027  0.3187
  214MOL0     H29474   4.029   4.722   8.857  1.6877  1.2064  2.5961
  214MOL0     H29475   4.268   4.699   8.671  2.4664 -0.8921  0.9786
  214MOL0     H29476   4.306   4.696   8.836  1.7626 -2.3781 -3.0150
  214MOL0     H29477   4.084   4.529   8.710  1.0516  1.2813 -1.8434
  214MOL0     H29478   4.148   4.528   8.883  0.2625 -0.8514  0.3330
  214MOL0     H29479   4.367   4.469   8.733 -0.7030  1.3177  2.4709
  214MOL0     H29480   4.251   4.340   8.811  1.1814  0.0066 -0.0145
  214MOL0     H29481   4.037   4.316   8.620  0.5989 -0.6677 -1.1219
  214MOL0     H29482   3.999   4.305   8.280  2.5225  3.0157  1.0622
  214MOL0     H29483   3.961   4.185   8.392 -0.5106 -1.4967 -2.4603
  214MOL0     H29484   4.168   4.166   8.164 -0.0607 -2.1601 -1.3433
  214MOL0     H29485   4.162   4.051   8.308 -1.7082 -0.3312  0.5451
  214MOL0     H29486   3.932   3.997   8.235 -1.1806 -0.6509 -0.5867
  214MOL0     H29487   3.944   4.121   8.107 -2.9207 -0.0412  2.6762
  214MOL0     H29488   4.144   4.017   8.008 -0.2500  0.4737  0.7067
  214MOL0     H29489   4.132   3.889   8.123  0.7939  1.7331  0.9352
  214MOL0     H29490   4.201   3.744   7.964  2.0060  3.8287 -1.2017
  214MOL0     H29491   4.369   3.653   7.708  1.5168  2.8574  3.4999
  214MOL0     H29492   4.276   3.501   7.722  0.3827 -0.1545  0.5999
  214MOL0     H29493   4.345   3.587   7.859  0.4432 -0.9084  0.4558
  214MOL0     H29494   4.143   3.637   7.238  0.0377  0.1142  2.9072
  214MOL0     H29495   4.211   3.520   7.037 -0.2760 -0.1594  0.9266
  214MOL0     H29496   4.184   3.294   6.931 -0.6496  2.4905 -3.2203
  214MOL0     H29497   4.328   3.376   6.859 -0.7756  0.3686  0.0929
  214MOL0     H29498   4.240   3.167   6.740  0.3665  0.7843 -0.7928
  214MOL0     H29499   4.416   3.188   6.781 -0.0041  0.4588  1.6608
  214MOL0     H29500   4.194   3.031   6.897 -0.2109  0.0129  2.5077
  214MOL0     H29501   4.358   3.044   6.986 -1.9904 -0.6271  0.5088
  214MOL0     H29502   4.463   2.937   6.773  0.9146  2.5799  2.0223
  214MOL0     H29503   4.296   2.929   6.702  0.2727  0.1588  0.2996
  214MOL0     H29504   4.400   2.713   6.803 -0.1291  0.6024  0.1755
  214MOL0     H29505   4.369   2.788   6.963  2.8675 -1.3324  0.7680
  214MOL0     H29506   4.151   2.754   6.742  1.2694  0.9355  0.6426
  214MOL0     H29507   4.136   2.818   6.900 -0.7316 -1.7181  0.7189
  214MOL0     H29508   4.248   2.583   6.987  2.3678  2.7055 -1.5657
  214MOL0     H29509   4.227   2.534   6.827 -2.8283 -0.7638 -1.4007
  214MOL0     H29510   4.032   2.446   6.934  1.8540 -0.0328 -3.6212
  214MOL0     H29511   3.977   2.589   6.850  1.7942  3.0081 -0.8262
  214MOL0     H29512   4.374   3.202   7.292  0.7094 -0.2643 -0.5465
  214MOL0     H29513   4.329   3.329   7.482  0.0438 -0.8790 -0.0043
  214MOL0     H29514   3.871   3.759   7.586 -2.7607  0.1019  1.9818
  214MOL0     H29515   3.826   3.883   7.786 -3.7604 -4.4065 -0.8349
  214MOL0     H29516   3.965   5.521   8.526  1.2435  2.2625 -1.5354
  214MOL0     H29517   4.096   5.711   8.493  2.9213 -0.4431 -2.8691
  214MOL0     H29518   4.613   5.818   8.575  2.8670  0.2898  1.7504
  214MOL0     H29519   4.786   5.956   8.548  0.0500  1.2294 -0.4008
  214MOL0     H29520   4.887   6.210   8.632 -0.4257 -1.4953 -0.9059
  214MOL0     H29521   4.946   6.095   8.515 -0.9160 -1.1748 -0.9156
  214MOL0     H29522   5.050   6.272   8.374  2.7688  0.7517  0.3565
  214MOL0     H29523   5.098   6.284   8.544  0.5213 -2.7477 -0.1228
  214MOL0     H29524   4.889   6.455   8.401 -0.3264  2.5151  1.3425
  214MOL0     H29525   4.910   6.449   8.579  0.4975 -2.3497  1.3879
  214MOL0     H29526   5.096   6.525   8.348 -3.1411  0.8814 -0.4209
  214MOL0     H29527   5.165   6.502   8.512 -0.0751 -3.1637 -1.3355
  214MOL0     H29528   4.977   6.884   8.543 -0.7756  0.2346  0.6786
  214MOL0     H29529   4.546   6.286   8.426 -0.9142  0.0232 -0.4430
  214MOL0     H29530   4.270   6.075   8.348  0.1166  1.4285 -1.1895
  214MOL0     H29531   4.237   6.179   8.486  0.3619  0.4893  0.0947
  214MOL0     H29532   4.325   6.243   8.346 -6.0596  0.6069 -0.7780
  215MOL0     O29533   7.472   2.726   1.532 -0.4717 -0.4081 -0.1882
  215MOL0     C29534   7.447   2.827   1.463  0.0006  1.0609  0.6331
  215MOL0     O29535   7.548   2.922   1.432 -0.6067  0.4682 -0.3514
  215MOL0     C29536   7.679   2.890   1.460 -0.0993  0.7859  0.1789
  215MOL0     C29537   7.737   2.938   1.573  0.1733 -0.2006  0.1554
  215MOL0     C29538   7.865   2.898   1.607  0.0894  0.1748  0.3633
  215MOL0     C29539   7.936   2.800   1.536 -1.0241  0.1126  0.0410
  215MOL0     O29540   8.069   2.784   1.564 -0.7623  0.1306 -0.1009
  215MOL0     C29541   8.147   2.685   1.501 -1.6299  0.4161  0.2565
  215MOL0     C29542   8.278   2.654   1.591  0.0482 -0.3013  0.7305
  215MOL0     C29543   8.373   2.574   1.508  0.0008 -0.5443  0.8544
  215MOL0     C29544   8.510   2.560   1.564 -0.9368 -0.0898  0.2022
  215MOL0     C29545   8.597   2.488   1.457  0.3238  0.2169  0.1319
  215MOL0     C29546   8.723   2.447   1.522  0.5413  0.0041 -0.8841
  215MOL0     C29547   8.810   2.373   1.445  0.0363  0.4877  0.0087
  215MOL0     C29548   8.862   2.429   1.313  1.1296  1.0633 -0.0807
  215MOL0     N29549   8.950   2.548   1.342  0.7458 -0.1079 -0.1502
  215MOL0     C29550   9.061   2.547   1.421  0.7095 -0.3211 -0.1603
  215MOL0     C29551   9.103   2.670   1.418 -0.3619 -1.0563  1.0736
  215MOL0     C29552   9.215   2.729   1.498  0.4893 -0.6235 -0.3373
  215MOL0     C29553   9.338   2.753   1.407 -0.1469  0.6855 -0.7362
  215MOL0     C29554   9.395   2.626   1.346 -0.0539 -0.3090  0.3574
  215MOL0     C29555   9.435   2.523   1.460 -0.5491 -0.3929  0.4632
  215MOL0     O29556   9.511   2.408   1.399 -0.1678 -0.5141 -0.8518
  215MOL0     C29557   9.646   2.426   1.368  0.0477 -0.2167 -0.4724
  215MOL0     C29558   9.723   2.548   1.371  0.2436 -0.8295 -0.5201
  215MOL0     C29559   9.863   2.542   1.336 -0.0633  0.0253 -0.6317
  215MOL0     C29560   9.952   2.667   1.366 -0.2229 -0.1832  0.1031
  215MOL0     C29561   9.930   2.419   1.302  0.5099  0.3387 -0.4612
  215MOL0     C29562  10.065   2.389   1.268 -0.1269  0.2562 -0.5843
  215MOL0     O29563  10.115   2.273   1.324  0.8463 -0.5237  0.5425
  215MOL0     C29564  10.245   2.231   1.289  0.3284  0.0777 -0.2244
  215MOL0     C29565  10.357   2.314   1.324  0.8949  0.1236 -0.0950
  215MOL0     C29566  10.483   2.266   1.313 -0.0561 -0.3466  0.3144
  215MOL0     C29567  10.511   2.134   1.270 -0.4849  0.1725  0.2865
  215MOL0     O29568  10.636   2.080   1.246 -0.5469  0.1078 -0.2396
  215MOL0     C29569  10.756   2.153   1.270  0.0430 -0.1929 -0.5100
  215MOL0     C29570  10.869   2.053   1.248  0.9344 -0.8611  0.1114
  215MOL0     C29571  11.006   2.122   1.281 -0.1514 -0.3272 -0.5358
  215MOL0     C29572  11.119   2.034   1.240 -0.4246  0.3608  0.2168
  215MOL0     C29573  11.200   1.981   1.365 -1.0064  0.7824 -0.0587
  215MOL0     C29574  11.136   1.875   1.450  0.1428  0.0532  0.3751
  215MOL0     C29575  11.138   1.735   1.371  0.1925 -0.8270 -0.9562
  215MOL0     C29576  11.027   1.653   1.443 -0.1419  0.4198 -0.3748
  215MOL0    Cl29577  11.057   1.623   1.608  0.1625 -1.0651 -0.1682
  215MOL0     C29578  10.398   2.060   1.228 -0.1789 -0.3061  0.1173
  215MOL0     C29579  10.266   2.097   1.245  0.6414 -0.5316 -0.7924
  215MOL0     O29580  10.103   2.446   1.169 -0.6030 -0.4690  0.0200
  215MOL0     C29581   9.847   2.311   1.291 -0.0378  0.8258  0.6720
  215MOL0     C29582   9.705   2.317   1.310  0.0494  0.3652 -0.2455
  215MOL0     N29583   9.020   2.743   1.333 -0.3447  0.3544 -0.0199
  215MOL0     N29584   8.924   2.669   1.289 -0.4256  0.0407  0.1079
  215MOL0     C29585   7.871   2.750   1.424 -0.7663 -0.5270  0.3241
  215MOL0     C29586   7.746   2.788   1.382  0.9094 -0.7547 -0.2037
  215MOL0     C29587   7.312   2.843   1.406  0.5621  0.1661  0.4333
  215MOL0     C29588   7.298   2.948   1.304  0.0015  0.6289 -0.2571
  215MOL0     C29589   7.173   2.987   1.254 -0.4253  0.5851  0.4972
  215MOL0     C29590   7.058   2.929   1.306 -0.6059 -0.1653  0.6352
  215MOL0     O29591   6.926   2.963   1.272  0.0649  0.3392 -0.2577
  215MOL0     C29592   6.910   3.000   1.133  0.2997  0.4819  0.5081
  215MOL0     C29593   6.791   2.921   1.071  0.2475 -1.0321 -0.6422
  215MOL0     C29594   6.827   2.771   1.055  0.3587 -0.5708  0.0300
  215MOL0     C29595   6.698   2.687   1.061 -0.1294  0.0212 -0.4253
  215MOL0     C29596   6.595   2.721   0.956 -0.6739  0.5846  0.7784
  215MOL0     C29597   6.505   2.738   0.873 -0.0804 -0.0658 -0.1739
  215MOL0     C29598   7.073   2.821   1.395  0.6813  1.0315  0.6735
  215MOL0     C29599   7.194   2.777   1.450 -0.7828  0.2241 -0.4258
  215MOL0     C29600   7.194   2.680   1.566  0.1218 -0.7989  0.3882
  215MOL0     H29601   7.686   3.017   1.627  2.4202  1.1176  0.4741
  215MOL0     H29602   7.916   2.949   1.688  1.6560  0.9495 -1.0424
  215MOL0     H29603   8.176   2.729   1.405  1.9403 -1.5868  0.2479
  215MOL0     H29604   8.099   2.590   1.474 -0.6931  0.4784 -1.8515
  215MOL0     H29605   8.335   2.744   1.614  0.5847 -0.4686  0.0719
  215MOL0     H29606   8.258   2.594   1.681 -1.2347 -0.7047  0.2054
  215MOL0     H29607   8.334   2.472   1.507 -0.8917 -0.2085 -0.4127
  215MOL0     H29608   8.389   2.628   1.414  2.1064 -4.0765 -1.0102
  215MOL0     H29609   8.559   2.656   1.579  0.0715 -0.2222 -1.8746
  215MOL0     H29610   8.501   2.502   1.656 -0.7214  1.0153  0.9310
  215MOL0     H29611   8.599   2.554   1.369 -1.7648  1.3020  0.8492
  215MOL0     H29612   8.549   2.392   1.433  0.8102  0.0931 -0.3922
  215MOL0     H29613   8.767   2.541   1.556 -1.5593  0.8543 -0.3247
  215MOL0     H29614   8.695   2.379   1.603 -1.1830  0.5614 -0.9602
  215MOL0     H29615   8.744   2.289   1.419  0.6087  0.6552 -2.2549
  215MOL0     H29616   8.892   2.327   1.500  2.8501  0.3745 -3.8330
  215MOL0     H29617   8.937   2.356   1.281  2.4415 -0.4446  5.3528
  215MOL0     H29618   8.785   2.453   1.239 -0.8461 -0.0347  1.5109
  215MOL0     H29619   9.094   2.468   1.488 -0.0317 -1.9584 -1.6436
  215MOL0     H29620   9.236   2.671   1.588  2.0454 -1.1978 -1.0403
  215MOL0     H29621   9.192   2.830   1.534  1.0474  0.0146 -1.7089
  215MOL0     H29622   9.303   2.831   1.340  0.5136  2.8419  1.2704
  215MOL0     H29623   9.423   2.788   1.467 -1.1533  0.7749  0.7073
  215MOL0     H29624   9.319   2.579   1.283 -0.5645  0.2411  0.5605
  215MOL0     H29625   9.476   2.635   1.274  0.6198  0.9950  1.2418
  215MOL0     H29626   9.501   2.577   1.529 -0.5567  0.5562 -0.2440
  215MOL0     H29627   9.340   2.496   1.507 -1.4992  0.0041 -1.1245
  215MOL0     H29628   9.673   2.634   1.413  0.6182 -1.4903  1.3816
  215MOL0     H29629   9.894   2.757   1.389 -0.3279  0.4905 -2.4140
  215MOL0     H29630  10.005   2.692   1.273 -3.3051 -2.7616 -2.5781
  215MOL0     H29631  10.026   2.641   1.442  2.2490  2.5156 -1.1256
  215MOL0     H29632  10.338   2.412   1.367  0.9420 -1.1719  3.1671
  215MOL0     H29633  10.564   2.336   1.332 -0.4227  0.1441  0.1194
  215MOL0     H29634  10.764   2.234   1.197  0.3831 -0.1626 -0.4397
  215MOL0     H29635  10.779   2.177   1.374  1.8817 -0.3057 -0.8446
  215MOL0     H29636  10.854   1.971   1.318  0.4561  0.6802  1.9092
  215MOL0     H29637  10.861   2.016   1.146 -1.7073 -0.7573  0.2209
  215MOL0     H29638  11.007   2.151   1.386 -0.5455  3.0849 -1.3558
  215MOL0     H29639  11.005   2.213   1.220 -0.9956 -0.2022 -0.3452
  215MOL0     H29640  11.193   2.102   1.195  2.4137 -1.2136  2.1797
  215MOL0     H29641  11.080   1.954   1.177 -0.6578  0.4410  0.2583
  215MOL0     H29642  11.296   1.945   1.325 -3.0433 -3.7103 -1.5132
  215MOL0     H29643  11.226   2.067   1.428  3.0891  0.0253 -0.4423
  215MOL0     H29644  11.039   1.913   1.485 -0.5611  1.1190 -2.4086
  215MOL0     H29645  11.194   1.880   1.542 -0.0067  3.8173  0.4326
  215MOL0     H29646  11.236   1.687   1.368  0.3252 -0.5603 -0.8327
  215MOL0     H29647  11.100   1.753   1.270  0.3747 -1.8967 -1.2284
  215MOL0     H29648  11.018   1.555   1.395 -1.5430 -0.0646  0.8157
  215MOL0     H29649  10.929   1.699   1.428 -0.0872  0.2417 -1.3955
  215MOL0     H29650  10.410   1.959   1.192  0.4212  0.2902 -1.4712
  215MOL0     H29651  10.176   2.044   1.217  0.4330 -0.4721 -0.2364
  215MOL0     H29652   9.889   2.219   1.250 -0.4633  0.6346  0.6616
  215MOL0     H29653   9.643   2.231   1.283 -3.2158  2.4930 -0.0713
  215MOL0     H29654   7.908   2.664   1.368  3.7640  2.1909 -1.4083
  215MOL0     H29655   7.707   2.720   1.306 -0.5006 -1.1071  0.7882
  215MOL0     H29656   7.392   2.994   1.276 -1.1140  1.9194 -2.1660
  215MOL0     H29657   7.174   3.059   1.172 -0.0643 -1.5634 -1.4806
  215MOL0     H29658   6.891   3.107   1.126 -0.3287  0.3135 -0.6926
  215MOL0     H29659   6.994   2.971   1.068 -0.3053  0.4574 -0.2778
  215MOL0     H29660   6.767   2.966   0.974 -0.4615  4.6215  1.7813
  215MOL0     H29661   6.716   2.946   1.145  2.1373  0.6687  0.8173
  215MOL0     H29662   6.874   2.760   0.956 -2.9195 -0.4157 -1.6812
  215MOL0     H29663   6.893   2.738   1.136  0.1144  0.7771  0.8092
  215MOL0     H29664   6.651   2.712   1.157 -0.9357 -0.2416 -0.7512
  215MOL0     H29665   6.722   2.580   1.069 -2.1152 -0.3634  1.1135
  215MOL0     H29666   6.418   2.743   0.810 -0.5473  1.8995  0.5442
  215MOL0     H29667   6.979   2.769   1.413  0.9354  0.0321 -0.7180
  215MOL0     H29668   7.256   2.708   1.652 -2.5587  2.3983  1.5058
  215MOL0     H29669   7.092   2.684   1.606  0.0882  0.5128  0.2109
  215MOL0     H29670   7.232   2.582   1.534  0.4695 -0.3951 -0.4585
  216MOL0     O29671   7.894   9.797   1.324 -0.3060  0.1616  0.4052
  216MOL0     C29672   7.909   9.842   1.433 -0.1701  0.1382  0.0787
  216MOL0     O29673   8.001   9.937   1.467 -0.1506 -0.3137 -0.2687
  216MOL0     C29674   8.086   9.984   1.375  0.2030  0.0713  0.3060
  216MOL0     C29675   8.216  10.011   1.413 -0.1182  0.0246 -0.3825
  216MOL0     C29676   8.296  10.080   1.320  0.4164  0.3373 -0.6200
  216MOL0     C29677   8.250  10.129   1.204 -0.8721  0.2684  0.4828
  216MOL0     O29678   8.338  10.197   1.126  0.6631 -0.2592 -1.0488
  216MOL0     C29679   8.433  10.111   1.069  0.1502  0.0335  0.0218
  216MOL0     C29680   8.522  10.198   0.972 -0.2178  0.3762  0.8641
  216MOL0     C29681   8.605  10.303   1.058 -0.9484 -0.0526  0.4769
  216MOL0     C29682   8.706  10.383   0.986  0.1648 -0.3171  0.7450
  216MOL0     C29683   8.822  10.427   1.082  0.0500  0.8362 -0.4921
  216MOL0     C29684   8.921  10.517   0.998  0.3771  0.2041 -0.1428
  216MOL0     C29685   9.013  10.601   1.087  0.5128  0.2164 -0.1608
  216MOL0     C29686   9.140  10.643   1.025  0.2425 -0.0903 -1.0075
  216MOL0     N29687   9.192  10.764   1.095  0.1567  0.0153  0.5957
  216MOL0     C29688   9.145  10.890   1.095 -0.0035 -0.0999 -0.7574
  216MOL0     C29689   9.241  10.963   1.167 -0.4475 -0.0296 -0.0583
  216MOL0     C29690   9.268  11.114   1.168 -0.4492  1.1569 -0.9278
  216MOL0     C29691   9.221  11.187   1.044  0.9863 -0.2679 -0.2249
  216MOL0     C29692   9.295  11.142   0.916 -0.8616 -0.3208 -0.2898
  216MOL0     C29693   9.285  11.246   0.804 -0.4704  0.4094 -0.1921
  216MOL0     O29694   9.391  11.235   0.705 -0.0680 -0.7236 -0.2001
  216MOL0     C29695   9.503  11.303   0.737  0.3913 -0.6703 -0.8247
  216MOL0     C29696   9.619  11.231   0.777  0.7215 -0.4622  0.0507
  216MOL0     C29697   9.746  11.297   0.803  0.9712  0.1334 -0.0012
  216MOL0     C29698   9.862  11.216   0.829  0.0022  0.7155  0.5285
  216MOL0     C29699   9.742  11.440   0.816 -1.1469  0.2268  1.0895
  216MOL0     C29700   9.863  11.516   0.855  0.2702 -1.0214  0.6029
  216MOL0     O29701   9.891  11.625   0.772 -0.4304 -0.3761 -0.4894
  216MOL0     C29702  10.025  11.666   0.760 -1.0621 -0.3120  0.4079
  216MOL0     C29703  10.087  11.666   0.629 -0.1667  0.3898  0.2666
  216MOL0     C29704  10.213  11.724   0.611 -0.3792 -0.6147  0.1785
  216MOL0     C29705  10.279  11.773   0.720 -0.8655 -0.4355  0.5396
  216MOL0     O29706  10.406  11.829   0.697  0.3033  0.0265  0.0943
  216MOL0     C29707  10.429  11.953   0.760  0.2486  0.0621  0.1213
  216MOL0     C29708  10.539  12.037   0.692 -0.0601 -0.1394 -1.0049
  216MOL0     C29709  10.687  11.984   0.682  0.0961  0.6371 -0.6388
  216MOL0     C29710  10.765  12.069   0.583 -0.5244  0.4950 -0.3164
  216MOL0     C29711  10.915  12.021   0.584  0.2712  0.0227  0.0005
  216MOL0     C29712  10.924  11.894   0.497  1.0509 -0.0922 -0.2192
  216MOL0     C29713  11.071  11.844   0.481  1.3143 -0.9701 -0.2821
  216MOL0     C29714  11.072  11.722   0.388 -0.5504  0.2175 -0.4212
  216MOL0    Cl29715  11.238  11.651   0.359  0.4898  0.1570 -0.2342
  216MOL0     C29716  10.224  11.767   0.849  0.0820  0.5260  0.5046
  216MOL0     C29717  10.101  11.711   0.868 -0.2923  0.4841  0.6292
  216MOL0     O29718   9.930  11.471   0.943 -0.2384 -0.5816 -0.0637
  216MOL0     C29719   9.622  11.508   0.775 -0.4053  0.0122  0.9234
  216MOL0     C29720   9.510  11.444   0.721  0.5215 -0.8470 -0.7896
  216MOL0     N29721   9.347  10.876   1.191 -0.6377 -0.4215  0.3268
  216MOL0     N29722   9.316  10.764   1.144  0.0790 -0.1119  0.4279
  216MOL0     C29723   8.110  10.106   1.168 -0.4976 -1.2961 -0.2747
  216MOL0     C29724   8.032  10.031   1.252 -0.5284  0.2957 -0.2933
  216MOL0     C29725   7.823   9.795   1.543 -0.5061  0.3719  0.7457
  216MOL0     C29726   7.857   9.819   1.676 -0.1738  0.3490  0.0989
  216MOL0     C29727   7.773   9.785   1.781 -0.9864 -0.1587  0.2041
  216MOL0     C29728   7.651   9.721   1.755 -0.5781  0.2240  0.6050
  216MOL0     O29729   7.567   9.706   1.862 -0.6822 -0.0684  0.6350
  216MOL0     C29730   7.432   9.709   1.843 -0.1928 -0.3897 -0.6952
  216MOL0     C29731   7.362   9.794   1.942  1.0733 -0.4326  0.0649
  216MOL0     C29732   7.416   9.940   1.920  0.8849 -0.8163  0.3638
  216MOL0     C29733   7.336  10.049   1.994  0.6650  0.4788  0.3073
  216MOL0     C29734   7.341  10.028   2.138 -0.1642 -0.4309 -0.5510
  216MOL0     C29735   7.348  10.010   2.256  0.3553 -0.3661  0.4145
  216MOL0     C29736   7.615   9.686   1.618  0.2296  0.5941 -0.3355
  216MOL0     C29737   7.699   9.715   1.512 -0.0109  1.1767  0.4529
  216MOL0     C29738   7.650   9.657   1.377 -0.8549 -0.3007 -0.4599
  216MOL0     H29739   8.257   9.979   1.508 -2.4575  0.7614  0.9618
  216MOL0     H29740   8.401  10.078   1.347  0.5136 -1.5554 -1.0060
  216MOL0     H29741   8.378  10.034   1.016 -0.5339  0.1254  0.5780
  216MOL0     H29742   8.496  10.059   1.142  0.9492 -1.8497 -1.8929
  216MOL0     H29743   8.583  10.129   0.912 -0.2277 -0.7838  2.1238
  216MOL0     H29744   8.457  10.261   0.911 -0.4655  1.1016  1.8451
  216MOL0     H29745   8.532  10.374   1.098 -0.8888 -0.2119  0.8730
  216MOL0     H29746   8.655  10.258   1.144 -1.5494 -0.1501  0.7772
  216MOL0     H29747   8.744  10.328   0.900  0.1585 -1.5952  1.5433
  216MOL0     H29748   8.667  10.482   0.957  1.0266  0.3420  1.7761
  216MOL0     H29749   8.869  10.334   1.115 -1.2117  0.9087  1.6782
  216MOL0     H29750   8.793  10.468   1.180  0.2255 -1.3648  0.5448
  216MOL0     H29751   8.991  10.453   0.943  1.1339  1.2002 -0.3678
  216MOL0     H29752   8.862  10.583   0.934 -2.1157 -0.9298  0.8511
  216MOL0     H29753   9.049  10.535   1.167  1.5048 -2.4053 -2.5925
  216MOL0     H29754   8.950  10.687   1.110 -1.0883 -1.4614  2.1224
  216MOL0     H29755   9.228  10.577   1.021  0.0923 -0.2710 -1.4657
  216MOL0     H29756   9.121  10.663   0.919  2.2988  2.0205 -1.0489
  216MOL0     H29757   9.059  10.932   1.043  0.3051  2.7651  0.8229
  216MOL0     H29758   9.377  11.110   1.176 -0.3559 -2.6909 -1.9582
  216MOL0     H29759   9.210  11.148   1.255 -3.2759 -0.4224 -2.0572
  216MOL0     H29760   9.114  11.170   1.030  0.4372  1.6873  1.2561
  216MOL0     H29761   9.230  11.294   1.060  0.1498 -0.3280  0.7329
  216MOL0     H29762   9.400  11.131   0.944 -0.5956  1.0901 -0.6651
  216MOL0     H29763   9.258  11.044   0.882 -0.1048 -0.6169 -0.2789
  216MOL0     H29764   9.191  11.229   0.752 -0.2934 -2.3855  0.2858
  216MOL0     H29765   9.271  11.346   0.845 -2.3459 -0.2397  0.8428
  216MOL0     H29766   9.599  11.124   0.782 -0.1123 -0.4009 -1.6371
  216MOL0     H29767   9.830  11.112   0.839  1.0301  0.3997  0.6218
  216MOL0     H29768   9.912  11.227   0.925  0.1464 -1.0215  0.6852
  216MOL0     H29769   9.928  11.220   0.741 -0.2901 -2.8189 -0.0074
  216MOL0     H29770  10.026  11.636   0.545 -2.4138  2.9241  0.8756
  216MOL0     H29771  10.261  11.726   0.514 -0.1586 -1.3262  0.2642
  216MOL0     H29772  10.336  12.011   0.758  1.1739  1.5731 -1.1642
  216MOL0     H29773  10.465  11.927   0.860 -1.7235  0.5164  1.0019
  216MOL0     H29774  10.500  12.039   0.590 -2.6669  0.2680 -0.0867
  216MOL0     H29775  10.540  12.141   0.728  2.7430 -0.1177 -0.9224
  216MOL0     H29776  10.681  11.878   0.654 -0.9584  0.9779 -1.7661
  216MOL0     H29777  10.739  11.996   0.778 -0.9862  3.4567 -0.3116
  216MOL0     H29778  10.756  12.174   0.613 -0.3471 -0.3374  3.0764
  216MOL0     H29779  10.710  12.045   0.492 -0.8751 -5.5513  1.0999
  216MOL0     H29780  10.978  12.096   0.533 -2.3492  1.8297 -0.8004
  216MOL0     H29781  10.949  11.999   0.685 -3.0752 -0.6504  1.1022
  216MOL0     H29782  10.866  11.911   0.406  0.9699 -0.6378 -0.2730
  216MOL0     H29783  10.867  11.816   0.547  2.1543 -1.2991 -0.7784
  216MOL0     H29784  11.105  11.809   0.579 -1.7465  0.8458  1.6251
  216MOL0     H29785  11.127  11.931   0.446 -0.8219  3.7457  6.0738
  216MOL0     H29786  11.043  11.762   0.291 -0.7287  1.5848  0.1667
  216MOL0     H29787  11.008  11.641   0.424 -0.5071  0.5859  0.5333
  216MOL0     H29788  10.299  11.791   0.924  0.8118  0.6265 -0.2397
  216MOL0     H29789  10.050  11.699   0.963 -3.1800  0.2420 -0.8283
  216MOL0     H29790   9.619  11.616   0.771 -2.2865  0.0708  2.5117
  216MOL0     H29791   9.417  11.488   0.687 -0.4108 -0.9873  1.4248
  216MOL0     H29792   8.068  10.148   1.078 -0.3003 -0.5378 -0.0202
  216MOL0     H29793   7.928  10.014   1.226  0.0778  0.6382 -3.2862
  216MOL0     H29794   7.953   9.858   1.709  0.3319  0.9532 -1.9911
  216MOL0     H29795   7.787   9.809   1.886 -1.0741  6.2409 -0.8306
  216MOL0     H29796   7.395   9.750   1.749 -1.4215  1.5452  0.5454
  216MOL0     H29797   7.394   9.607   1.849 -0.9466 -0.1437 -1.2711
  216MOL0     H29798   7.391   9.766   2.044  0.1404  0.2323  0.5271
  216MOL0     H29799   7.253   9.799   1.943  1.1061  0.9971 -0.9649
  216MOL0     H29800   7.522   9.951   1.945  1.0527 -1.7034  0.1125
  216MOL0     H29801   7.409   9.965   1.813  0.5892 -3.8101 -0.4213
  216MOL0     H29802   7.235  10.042   1.952  1.1233 -0.5921 -0.6954
  216MOL0     H29803   7.362  10.153   1.972 -0.7170  0.5868 -0.9858
  216MOL0     H29804   7.347  10.002   2.363  1.6967 -1.2647  0.3819
  216MOL0     H29805   7.526   9.633   1.586  0.6626 -0.4408  0.1402
  216MOL0     H29806   7.556   9.601   1.375 -0.6358 -0.7388  0.7738
  216MOL0     H29807   7.649   9.736   1.301  0.9518 -1.4002 -1.7290
  216MOL0     H29808   7.734   9.594   1.344 -0.3221  0.6925 -1.0242
  217MOL0     O29809  11.388   1.241  11.093 -0.1742 -0.7329  0.0028
  217MOL0     C29810  11.425   1.296  11.202  0.1676 -0.0532 -0.4769
  217MOL0     O29811  11.545   1.356  11.224  0.4930 -1.2061 -0.3836
  217MOL0     C29812  11.630   1.353  11.120 -0.2328  0.5959  0.3450
  217MOL0     C29813  11.745   1.272  11.132  0.3763 -0.2830  0.0850
  217MOL0     C29814  11.841   1.266  11.030 -0.3585  0.0140  0.3326
  217MOL0     C29815  11.827   1.347  10.915 -1.0612 -0.7457  0.5492
  217MOL0     O29816  11.918   1.343  10.813 -0.0872  1.2818  0.2234
  217MOL0     C29817  12.059   1.340  10.853 -0.4624 -0.5527 -0.1923
  217MOL0     C29818  12.093   1.451  10.951 -0.2596 -0.3979 -0.9860
  217MOL0     C29819  12.043   1.593  10.921  0.0803  0.0744  0.2356
  217MOL0     C29820  12.083   1.691  11.042  0.2961 -0.3071 -0.5427
  217MOL0     C29821  11.978   1.683  11.152 -0.2495 -0.7895 -0.0187
  217MOL0     C29822  11.853   1.766  11.116  0.3975  0.4851  0.9139
  217MOL0     C29823  11.749   1.769  11.230  0.0052 -0.4717  1.2801
  217MOL0     C29824  11.638   1.872  11.192 -0.3741  0.6787 -0.3386
  217MOL0     N29825  11.505   1.861  11.274 -0.2368 -0.2346  0.0509
  217MOL0     C29826  11.448   1.741  11.320  0.5355 -0.5075  0.0608
  217MOL0     C29827  11.346   1.779  11.401  0.1001 -0.1895  0.2531
  217MOL0     C29828  11.244   1.691  11.469 -0.3163 -0.0990  0.1026
  217MOL0     C29829  11.151   1.618  11.368 -0.2877 -1.0046  0.0789
  217MOL0     C29830  11.069   1.703  11.259  0.9984 -0.0587 -0.6258
  217MOL0     C29831  10.995   1.616  11.146  0.2328  0.5157 -0.2264
  217MOL0     O29832  10.918   1.516  11.215  0.1049  0.3722  0.2960
  217MOL0     C29833  10.789   1.555  11.253 -0.7176  0.5011  0.2458
  217MOL0     C29834  10.676   1.548  11.169 -0.4185 -0.1373  0.0561
  217MOL0     C29835  10.555   1.592  11.221 -0.4049  0.1102  0.7566
  217MOL0     C29836  10.441   1.560  11.126 -0.6238 -1.0804  0.2787
  217MOL0     C29837  10.548   1.662  11.341  0.6509  0.1107 -0.6565
  217MOL0     C29838  10.422   1.726  11.388  0.3378  0.3581  0.0013
  217MOL0     O29839  10.430   1.843  11.456 -0.6132  0.1555  0.5892
  217MOL0     C29840  10.321   1.883  11.524  0.1186 -0.1338  0.0712
  217MOL0     C29841  10.280   1.827  11.645  0.1062 -0.3123  0.8323
  217MOL0     C29842  10.177   1.895  11.710 -0.4894 -0.0332 -0.5472
  217MOL0     C29843  10.123   2.016  11.663  1.3676 -0.1269  0.4686
  217MOL0     O29844  10.043   2.100  11.727  0.7078 -0.5342 -0.3211
  217MOL0     C29845  10.021   2.080  11.871 -0.5686 -0.9747  0.3864
  217MOL0     C29846   9.960   2.218  11.926 -0.2339 -0.3822  0.0559
  217MOL0     C29847   9.820   2.247  11.868 -0.4422  0.4340 -0.2944
  217MOL0     C29848   9.816   2.384  11.798 -0.1185  0.2289  0.0659
  217MOL0     C29849   9.844   2.502  11.887  0.5739  0.1532 -0.3292
  217MOL0     C29850   9.757   2.633  11.869  0.8436  0.1036 -0.4107
  217MOL0     C29851   9.791   2.724  11.747 -1.1626 -0.2755 -0.1297
  217MOL0     C29852   9.741   2.870  11.765 -0.1551  0.5011 -0.4236
  217MOL0    Cl29853   9.756   2.963  11.609  0.7806  0.2037  0.3679
  217MOL0     C29854  10.158   2.063  11.532  0.8822  0.3925 -0.5353
  217MOL0     C29855  10.254   1.995  11.467 -0.3175  0.5273  0.7527
  217MOL0     O29856  10.318   1.664  11.359  1.0609 -0.6110  0.0600
  217MOL0     C29857  10.659   1.678  11.416  0.2772 -0.0410  0.1884
  217MOL0     C29858  10.772   1.615  11.379 -0.6945  0.5582  0.0785
  217MOL0     N29859  11.353   1.920  11.411  0.3097 -0.4025  0.0050
  217MOL0     N29860  11.450   1.963  11.336  0.6654  0.1115  0.4333
  217MOL0     C29861  11.716   1.429  10.905  0.5768 -0.1804 -0.2291
  217MOL0     C29862  11.624   1.436  11.010  0.4035 -0.2835 -0.5567
  217MOL0     C29863  11.320   1.300  11.315 -0.0785  0.1381  0.6850
  217MOL0     C29864  11.374   1.315  11.449 -0.3185 -0.1456  0.7465
  217MOL0     C29865  11.285   1.308  11.561 -0.9565  0.3271  0.5051
  217MOL0     C29866  11.143   1.281  11.546  0.3746 -0.2740  0.7062
  217MOL0     O29867  11.055   1.257  11.646  0.0585  0.5879  0.3402
  217MOL0     C29868  11.098   1.206  11.767  0.1200  0.1870  0.6382
  217MOL0     C29869  10.976   1.167  11.849  0.1121  0.7240 -0.2251
  217MOL0     C29870  10.895   1.043  11.792  0.8063  0.3925  0.4031
  217MOL0     C29871  10.888   0.928  11.897  0.5988  0.0496 -0.2521
  217MOL0     C29872  11.011   0.843  11.891  0.3125  0.5082 -0.4092
  217MOL0     C29873  11.113   0.784  11.866 -0.0770  0.1230 -0.0413
  217MOL0     C29874  11.093   1.273  11.413 -0.3469  0.4430  0.0380
  217MOL0     C29875  11.177   1.283  11.296  0.4307 -0.2803 -0.2048
  217MOL0     C29876  11.115   1.257  11.161 -0.4758 -0.3904 -0.3394
  217MOL0     H29877  11.771   1.215  11.221  1.4191  2.3777  1.6242
  217MOL0     H29878  11.920   1.193  11.037 -0.5148 -0.1442  0.4630
  217MOL0     H29879  12.111   1.371  10.762  0.8435 -2.4734 -0.1681
  217MOL0     H29880  12.094   1.242  10.886  0.3762  0.0324  0.6947
  217MOL0     H29881  12.065   1.423  11.053  1.8270 -2.6670 -0.9367
  217MOL0     H29882  12.202   1.445  10.956 -0.3158 -0.5862  0.3291
  217MOL0     H29883  12.078   1.635  10.826 -0.7593  1.0901  0.3537
  217MOL0     H29884  11.934   1.592  10.916 -0.0432 -1.8737  2.0789
  217MOL0     H29885  12.182   1.663  11.080 -0.3002  0.7806  2.0316
  217MOL0     H29886  12.082   1.796  11.012  0.8593 -0.4119 -0.9441
  217MOL0     H29887  12.023   1.736  11.236 -2.5931  1.0975  0.1759
  217MOL0     H29888  11.960   1.578  11.177  1.3167 -1.1351 -0.2595
  217MOL0     H29889  11.876   1.866  11.077 -1.0253 -0.3355 -2.3106
  217MOL0     H29890  11.793   1.720  11.038 -0.3462 -2.8511  3.2859
  217MOL0     H29891  11.783   1.782  11.334  2.5356 -0.4889  0.5243
  217MOL0     H29892  11.707   1.669  11.216  0.1909 -0.7929  2.7801
  217MOL0     H29893  11.687   1.967  11.215 -2.2937  1.4706  0.6450
  217MOL0     H29894  11.610   1.861  11.087  0.9196  2.0786 -0.8637
  217MOL0     H29895  11.477   1.638  11.299 -1.1374 -0.5002 -2.9092
  217MOL0     H29896  11.179   1.753  11.532  1.1126  2.5509 -0.8611
  217MOL0     H29897  11.291   1.607  11.521  0.3236 -1.7754 -2.9546
  217MOL0     H29898  11.214   1.545  11.316  2.3655  2.0586 -1.3661
  217MOL0     H29899  11.079   1.553  11.417 -3.3099  1.0461 -1.3369
  217MOL0     H29900  11.000   1.767  11.315  3.4148 -0.3585  2.9945
  217MOL0     H29901  11.135   1.766  11.199  1.5875 -0.7556 -0.7146
  217MOL0     H29902  10.930   1.686  11.093  0.0494  2.1794  2.0492
  217MOL0     H29903  11.072   1.574  11.080 -0.6600 -1.6000  0.0347
  217MOL0     H29904  10.690   1.508  11.069  0.7703 -0.1357  0.2179
  217MOL0     H29905  10.418   1.659  11.086  0.4785  0.3503  2.9083
  217MOL0     H29906  10.354   1.512  11.172 -0.6310 -1.7792 -0.4321
  217MOL0     H29907  10.467   1.491  11.045 -3.0647 -1.8102  0.0278
  217MOL0     H29908  10.320   1.729  11.671 -1.7809 -2.3732 -3.1660
  217MOL0     H29909  10.129   1.860  11.800 -0.7537 -1.7000 -1.2948
  217MOL0     H29910   9.946   2.001  11.885 -1.8413  0.3627  1.4938
  217MOL0     H29911  10.119   2.060  11.914  0.5583  2.4544 -0.3212
  217MOL0     H29912   9.940   2.202  12.032 -0.4302  0.4685  0.1598
  217MOL0     H29913  10.022   2.308  11.917  0.0392 -0.7830 -3.7172
  217MOL0     H29914   9.747   2.240  11.950 -0.3327  1.1358 -0.1340
  217MOL0     H29915   9.792   2.170  11.796 -2.5986  0.1936  0.7210
  217MOL0     H29916   9.714   2.397  11.759 -0.0320  0.8232  0.0182
  217MOL0     H29917   9.889   2.383  11.716 -0.5460  1.0379 -0.3493
  217MOL0     H29918   9.828   2.465  11.989 -0.4145 -0.9922 -0.8723
  217MOL0     H29919   9.951   2.526  11.893  0.2372  1.5575  0.6693
  217MOL0     H29920   9.760   2.694  11.959 -1.4103  0.7490 -0.6968
  217MOL0     H29921   9.654   2.598  11.852  0.8769  0.3684 -1.2107
  217MOL0     H29922   9.755   2.686  11.651 -1.7695 -0.2311  0.0725
  217MOL0     H29923   9.900   2.727  11.739 -1.2623 -0.8623 -2.5784
  217MOL0     H29924   9.800   2.914  11.846  0.1311  2.9645 -1.8690
  217MOL0     H29925   9.634   2.875  11.790 -0.2189  1.9800 -0.8699
  217MOL0     H29926  10.110   2.144  11.477  1.4907 -1.4310 -4.0811
  217MOL0     H29927  10.290   2.027  11.371 -2.5965 -0.0115 -0.3578
  217MOL0     H29928  10.665   1.739  11.506  1.5431 -3.6904  2.8071
  217MOL0     H29929  10.860   1.612  11.442 -0.7603  2.2803  0.2972
  217MOL0     H29930  11.708   1.488  10.814  2.8831 -0.3554 -0.5992
  217MOL0     H29931  11.550   1.516  11.006  1.1526  0.4235 -0.5589
  217MOL0     H29932  11.479   1.337  11.464 -0.3495  1.5945 -1.2103
  217MOL0     H29933  11.326   1.316  11.661 -0.6985  0.8176  0.3623
  217MOL0     H29934  11.155   1.113  11.755 -0.3642  0.1381 -1.6004
  217MOL0     H29935  11.155   1.281  11.823  1.3230 -1.2909  1.4705
  217MOL0     H29936  10.915   1.256  11.863  0.1056  0.7595 -0.4803
  217MOL0     H29937  11.008   1.136  11.950 -0.4408  0.7153 -0.0526
  217MOL0     H29938  10.795   1.085  11.776  2.3253  3.4252 -2.3348
  217MOL0     H29939  10.931   0.993  11.701 -1.7679 -1.3871  0.2230
  217MOL0     H29940  10.800   0.865  11.881  0.3175  0.4604 -0.3439
  217MOL0     H29941  10.872   0.965  11.999 -2.4164 -2.0397  0.1884
  217MOL0     H29942  11.210   0.744  11.845  0.5800  1.5749  0.0886
  217MOL0     H29943  10.986   1.255  11.410 -0.3730  0.4213  0.9114
  217MOL0     H29944  11.162   1.163  11.131  0.6282  0.2043 -0.5490
  217MOL0     H29945  11.008   1.237  11.170  0.0012 -2.4596  1.7383
  217MOL0     H29946  11.134   1.339  11.092  0.1249  0.4686  0.8112
  218MOL0     O29947   6.153   1.905   0.536  0.1344 -0.2589 -0.0379
  218MOL0     C29948   6.271   1.936   0.559  0.4513  0.4003  0.1921
  218MOL0     O29949   6.319   2.052   0.599  0.4176 -0.2174  0.1857
  218MOL0     C29950   6.224   2.151   0.630  0.3915  0.0012  0.3172
  218MOL0     C29951   6.127   2.124   0.727 -0.6672  0.5313 -0.1742
  218MOL0     C29952   6.037   2.223   0.758  0.2342  0.1278 -0.3049
  218MOL0     C29953   6.037   2.343   0.700 -0.2274 -0.2096  0.6648
  218MOL0     O29954   5.938   2.437   0.726 -0.1092  0.5448 -0.2682
  218MOL0     C29955   5.977   2.579   0.734 -0.1263  0.2461  1.0557
  218MOL0     C29956   6.075   2.590   0.851 -0.3658 -0.4204 -0.1601
  218MOL0     C29957   6.091   2.739   0.883 -0.1966 -0.8054 -1.2740
  218MOL0     C29958   6.127   2.750   1.028  0.4596 -0.6196  0.0841
  218MOL0     C29959   6.206   2.881   1.057 -0.1539 -0.0498 -0.9103
  218MOL0     C29960   6.276   2.878   1.199 -0.6383 -1.2879 -0.0299
  218MOL0     C29961   6.364   3.013   1.209  0.2385 -0.1708  0.5342
  218MOL0     C29962   6.416   3.063   1.352  0.4052  0.3880 -0.1456
  218MOL0     N29963   6.534   3.160   1.328 -0.2787  0.0495  0.0471
  218MOL0     C29964   6.670   3.145   1.355 -0.1361  1.3324  1.3876
  218MOL0     C29965   6.721   3.264   1.339  0.1030  0.1732 -0.3908
  218MOL0     C29966   6.868   3.308   1.361  0.5117  0.1428 -0.0902
  218MOL0     C29967   6.912   3.306   1.504  0.3169  0.3957  0.0012
  218MOL0     C29968   6.959   3.167   1.565  0.3102 -0.0657  0.1170
  218MOL0     C29969   6.981   3.171   1.715 -0.3702  0.3983  0.7478
  218MOL0     O29970   6.869   3.131   1.802  0.5338  0.3203 -0.0828
  218MOL0     C29971   6.820   3.003   1.810  0.0579 -0.3348  0.4464
  218MOL0     C29972   6.695   2.984   1.871 -0.5384  0.0103 -0.1297
  218MOL0     C29973   6.641   2.855   1.892  0.3274 -0.5258  0.1328
  218MOL0     C29974   6.525   2.845   1.991 -0.2176 -0.0521  0.5018
  218MOL0     C29975   6.707   2.738   1.848 -0.6513 -0.7914  0.7014
  218MOL0     C29976   6.652   2.597   1.848  0.4715 -0.1592  0.5586
  218MOL0     O29977   6.524   2.584   1.894  0.1085  0.3726  0.3454
  218MOL0     C29978   6.464   2.461   1.891  0.5522 -0.1348 -0.9676
  218MOL0     C29979   6.512   2.352   1.972  0.4734 -0.6956  0.5788
  218MOL0     C29980   6.447   2.220   1.959 -0.3285  0.2775  0.0528
  218MOL0     C29981   6.338   2.199   1.875 -0.0416  0.2260  0.4871
  218MOL0     O29982   6.275   2.077   1.855 -0.8266  0.2840  0.0586
  218MOL0     C29983   6.288   1.973   1.958 -0.7415  0.2754  0.2359
  218MOL0     C29984   6.228   1.845   1.906 -0.2267 -0.7880  0.0326
  218MOL0     C29985   6.074   1.860   1.896 -0.1708 -0.3838  0.1154
  218MOL0     C29986   6.007   1.740   1.834 -0.5991 -0.3402  0.1212
  218MOL0     C29987   5.856   1.768   1.825 -0.7803  0.5423 -0.2896
  218MOL0     C29988   5.790   1.712   1.698 -0.2388  0.2629  0.1504
  218MOL0     C29989   5.822   1.563   1.677  0.4437  0.1091 -0.1836
  218MOL0     C29990   5.721   1.512   1.569 -0.4875  0.0423 -0.4760
  218MOL0    Cl29991   5.818   1.488   1.409 -0.1268 -0.2221  0.6451
  218MOL0     C29992   6.294   2.304   1.800 -0.0713  0.0437  0.6262
  218MOL0     C29993   6.355   2.433   1.806 -0.0905 -0.4518 -0.4236
  218MOL0     O29994   6.719   2.509   1.803  0.1626 -0.3365  0.1488
  218MOL0     C29995   6.835   2.758   1.791 -0.9325  0.0291 -0.4997
  218MOL0     C29996   6.891   2.887   1.775 -1.0407 -0.4682 -0.4001
  218MOL0     N29997   6.621   3.356   1.297 -0.0042  0.5709 -0.7153
  218MOL0     N29998   6.511   3.286   1.292  0.1451  1.0651  0.3959
  218MOL0     C29999   6.135   2.366   0.595  0.1541  0.6620  0.1336
  218MOL0     C30000   6.241   2.270   0.572  1.1694 -0.7214  0.4323
  218MOL0     C30001   6.376   1.834   0.540 -0.7511  0.0404  0.1410
  218MOL0     C30002   6.499   1.868   0.477  0.2061  0.1863  0.9318
  218MOL0     C30003   6.593   1.773   0.456  0.1248  0.7626 -0.9852
  218MOL0     C30004   6.568   1.643   0.486  0.1370  0.4651 -0.0043
  218MOL0     O30005   6.659   1.539   0.452  0.3234 -0.9235  0.1978
  218MOL0     C30006   6.708   1.441   0.546 -0.5074  0.3905 -0.7542
  218MOL0     C30007   6.850   1.396   0.493  0.1502 -0.3745 -0.8155
  218MOL0     C30008   6.922   1.313   0.583 -0.3888 -0.5520 -0.4857
  218MOL0     C30009   6.962   1.172   0.516  0.1948  0.0596  1.2885
  218MOL0     C30010   7.060   1.197   0.412 -0.2819 -0.3811  0.0328
  218MOL0     C30011   7.139   1.191   0.322 -0.0584  0.3864 -0.6802
  218MOL0     C30012   6.455   1.607   0.549 -0.0818 -0.0160 -0.3495
  218MOL0     C30013   6.351   1.700   0.578 -0.1376  0.3770  1.5212
  218MOL0     C30014   6.216   1.647   0.631 -1.9630 -0.7761  0.6153
  218MOL0     H30015   6.128   2.026   0.775  0.5188  0.5289 -0.1720
  218MOL0     H30016   5.959   2.197   0.830  0.3366 -1.8919 -0.8539
  218MOL0     H30017   5.887   2.640   0.737  0.2507  0.7685  2.1152
  218MOL0     H30018   6.034   2.598   0.642 -1.3075 -0.0316  0.2493
  218MOL0     H30019   6.019   2.546   0.934 -2.4648  2.8222  0.3367
  218MOL0     H30020   6.171   2.542   0.830 -0.2944 -0.1860 -0.3763
  218MOL0     H30021   6.168   2.783   0.819 -0.2253 -0.9602 -1.4154
  218MOL0     H30022   5.998   2.795   0.869  0.8365  0.9261 -1.4593
  218MOL0     H30023   6.035   2.747   1.086  1.4337 -1.2064  1.6486
  218MOL0     H30024   6.193   2.670   1.062 -0.1392 -0.1644  2.4284
  218MOL0     H30025   6.137   2.966   1.054  0.2869  0.3352 -0.2791
  218MOL0     H30026   6.279   2.900   0.977 -1.0673  0.0961 -1.7256
  218MOL0     H30027   6.207   2.883   1.283  0.7169  1.8611  1.0126
  218MOL0     H30028   6.340   2.790   1.209  0.8803 -0.2677 -0.4188
  218MOL0     H30029   6.307   3.096   1.167  1.8497  0.3146 -0.8258
  218MOL0     H30030   6.453   2.995   1.148  0.2271 -0.0762  0.4899
  218MOL0     H30031   6.335   3.120   1.397  0.0476 -0.9699  1.0225
  218MOL0     H30032   6.437   2.977   1.417 -1.7434 -1.0332 -1.2045
  218MOL0     H30033   6.717   3.053   1.389  1.2148  0.4320 -2.3676
  218MOL0     H30034   6.874   3.410   1.323  2.6079  0.8474  1.9015
  218MOL0     H30035   6.942   3.248   1.306  1.0860 -0.2486  1.0718
  218MOL0     H30036   6.996   3.376   1.512 -1.1326  2.0895  1.0805
  218MOL0     H30037   6.829   3.339   1.566 -0.8850 -2.4561  0.0873
  218MOL0     H30038   6.874   3.099   1.553 -0.2839  0.9793 -2.2246
  218MOL0     H30039   7.048   3.125   1.517 -0.5666 -0.5251 -1.1699
  218MOL0     H30040   7.064   3.106   1.741  1.3290  2.1839  0.0144
  218MOL0     H30041   7.011   3.271   1.746  1.8217 -0.4284  1.4889
  218MOL0     H30042   6.653   3.073   1.917 -1.9806  1.4652 -3.8390
  218MOL0     H30043   6.510   2.932   2.055 -2.4271 -0.9525  1.3019
  218MOL0     H30044   6.546   2.760   2.058  3.3950  1.4041  1.4702
  218MOL0     H30045   6.429   2.836   1.939 -1.0344  0.4268  1.8721
  218MOL0     H30046   6.596   2.375   2.037  1.6714  1.2655 -1.5132
  218MOL0     H30047   6.490   2.139   2.017 -0.1573  1.3047  1.3843
  218MOL0     H30048   6.388   1.965   2.000  0.0817 -3.3478 -1.9670
  218MOL0     H30049   6.232   2.010   2.044 -1.1545  1.0889 -0.3593
  218MOL0     H30050   6.269   1.820   1.808  0.2219  5.6688 -1.8983
  218MOL0     H30051   6.247   1.774   1.987 -0.2994  0.4845  1.1976
  218MOL0     H30052   6.048   1.947   1.836  3.8074  2.2179  1.7562
  218MOL0     H30053   6.039   1.873   1.999 -2.0693 -2.2992 -0.2219
  218MOL0     H30054   6.024   1.652   1.896 -1.7283 -0.0675  0.8722
  218MOL0     H30055   6.064   1.730   1.742  0.3501  2.5753  0.2830
  218MOL0     H30056   5.814   1.714   1.911  3.3338 -0.8239  1.1214
  218MOL0     H30057   5.822   1.871   1.841  0.4422  1.1951 -1.6214
  218MOL0     H30058   5.820   1.772   1.612  0.9493 -0.2116  0.2088
  218MOL0     H30059   5.683   1.725   1.718  0.1261  1.9141  1.2783
  218MOL0     H30060   5.793   1.516   1.772 -0.6301  1.3926  0.1703
  218MOL0     H30061   5.926   1.542   1.652  0.4759  1.9686 -1.8622
  218MOL0     H30062   5.639   1.580   1.541  0.1273  0.1917 -2.0538
  218MOL0     H30063   5.670   1.423   1.607 -1.6502  0.7075 -0.4274
  218MOL0     H30064   6.203   2.281   1.746 -0.0454 -1.2102  1.0855
  218MOL0     H30065   6.314   2.518   1.751  0.4329  0.0470 -0.0418
  218MOL0     H30066   6.887   2.672   1.748 -0.1095  0.5549 -0.5650
  218MOL0     H30067   6.992   2.902   1.739 -0.7915  0.2549  0.5502
  218MOL0     H30068   6.143   2.458   0.538 -0.4228  2.8108  3.2795
  218MOL0     H30069   6.318   2.282   0.497 -1.6475 -2.2685 -2.9736
  218MOL0     H30070   6.518   1.967   0.438  1.5894  0.0238  1.1555
  218MOL0     H30071   6.686   1.796   0.406  2.0433  0.1043  2.0323
  218MOL0     H30072   6.721   1.495   0.641  2.3485 -1.9127  0.3382
  218MOL0     H30073   6.641   1.355   0.559  1.2102 -1.0624 -1.0432
  218MOL0     H30074   6.911   1.486   0.486 -1.1340  0.5666 -0.3706
  218MOL0     H30075   6.841   1.361   0.389 -3.2957 -2.4593  0.0171
  218MOL0     H30076   7.010   1.367   0.620 -0.2484 -1.4611  0.5454
  218MOL0     H30077   6.865   1.289   0.673  1.1954 -1.5398  0.3013
  218MOL0     H30078   6.874   1.124   0.473  0.7477 -0.5516  0.8392
  218MOL0     H30079   7.002   1.095   0.583  2.7435 -0.1894 -0.4081
  218MOL0     H30080   7.190   1.188   0.227  0.3639 -0.0516 -0.4485
  218MOL0     H30081   6.440   1.500   0.556 -2.1317  0.3237  1.9371
  218MOL0     H30082   6.144   1.625   0.552 -0.6128  3.3437 -2.0487
  218MOL0     H30083   6.239   1.563   0.697  1.2664  1.0843  2.0804
  218MOL0     H30084   6.177   1.723   0.699  1.3653  0.3917  1.4373
  219MOL0     O30085   7.139   8.126   0.269  0.0448 -0.0847  0.3532
  219MOL0     C30086   7.057   8.033   0.238  0.3154  0.5212  0.1866
  219MOL0     O30087   6.919   8.053   0.232 -0.6822  0.4099 -0.1317
  219MOL0     C30088   6.876   8.183   0.239 -0.9255  0.3170  0.9950
  219MOL0     C30089   6.900   8.268   0.132  0.2968 -1.3223 -0.1601
  219MOL0     C30090   6.849   8.401   0.135  0.4953  0.3483  0.2885
  219MOL0     C30091   6.772   8.446   0.247  0.6742  0.4359 -0.3836
  219MOL0     O30092   6.737   8.582   0.270 -0.0011  0.7280  0.6134
  219MOL0     C30093   6.665   8.639   0.379 -0.4097  0.5632 -0.2691
  219MOL0     C30094   6.756   8.707   0.480 -0.2839 -0.7224 -0.2192
  219MOL0     C30095   6.864   8.796   0.408 -0.0741 -0.3505  0.0673
  219MOL0     C30096   6.960   8.851   0.511 -0.0448 -0.1917 -0.3212
  219MOL0     C30097   7.068   8.946   0.448 -0.0437  0.4523  0.0598
  219MOL0     C30098   7.149   9.006   0.559 -0.1020 -0.5021  0.2996
  219MOL0     C30099   7.257   9.113   0.509  0.6826  0.6163  0.1302
  219MOL0     C30100   7.357   9.152   0.626  0.7454 -0.1352  0.7914
  219MOL0     N30101   7.480   9.225   0.574  0.7744  0.4439 -0.9257
  219MOL0     C30102   7.602   9.170   0.543  0.6904 -0.5360  0.3207
  219MOL0     C30103   7.682   9.280   0.518 -0.1560 -0.3658 -0.3120
  219MOL0     C30104   7.820   9.280   0.493  0.3772 -0.4844  0.2591
  219MOL0     C30105   7.884   9.337   0.613 -0.5393  0.6315  0.4908
  219MOL0     C30106   8.035   9.359   0.608 -0.1226  0.6033  0.4548
  219MOL0     C30107   8.124   9.241   0.646  0.3941 -0.6376 -0.5795
  219MOL0     O30108   8.255   9.291   0.609  0.2065 -0.4281 -0.1392
  219MOL0     C30109   8.358   9.207   0.644 -0.2728  0.0710  0.8802
  219MOL0     C30110   8.472   9.268   0.697  0.0571  0.1432 -0.3865
  219MOL0     C30111   8.586   9.198   0.731 -0.6950 -0.3657 -0.5185
  219MOL0     C30112   8.692   9.279   0.800 -0.6015  0.5556  0.1999
  219MOL0     C30113   8.581   9.054   0.708  0.4173  0.4196 -0.2828
  219MOL0     C30114   8.689   8.965   0.740 -0.5319  0.1813  0.0428
  219MOL0     O30115   8.665   8.841   0.787  0.2083 -0.1135 -0.6144
  219MOL0     C30116   8.766   8.745   0.812  1.2044 -0.0383  0.7301
  219MOL0     C30117   8.783   8.632   0.727  0.6520  0.2747  0.0205
  219MOL0     C30118   8.889   8.540   0.756 -0.3843  0.3855 -0.1750
  219MOL0     C30119   8.987   8.566   0.850  0.1693  0.5616 -0.0495
  219MOL0     O30120   9.083   8.464   0.874  0.2315 -0.1713  0.6484
  219MOL0     C30121   9.209   8.505   0.939  0.0329  0.6509 -0.5670
  219MOL0     C30122   9.311   8.406   0.927  0.6594  0.0479  0.5494
  219MOL0     C30123   9.394   8.408   0.804 -0.4460 -0.3857  0.4125
  219MOL0     C30124   9.323   8.349   0.680 -1.0284 -0.7100 -0.2514
  219MOL0     C30125   9.389   8.377   0.546 -0.4519 -0.7081 -0.7246
  219MOL0     C30126   9.318   8.317   0.428 -0.7393  0.7228  0.1983
  219MOL0     C30127   9.194   8.402   0.392 -0.2339  0.2758 -0.2631
  219MOL0     C30128   9.066   8.322   0.414 -0.4886  0.0017  0.2924
  219MOL0    Cl30129   8.929   8.435   0.371  0.2397  0.0661  0.4910
  219MOL0     C30130   8.966   8.678   0.933 -0.0262  0.3975 -0.7316
  219MOL0     C30131   8.856   8.757   0.915  0.2967 -0.3359  1.2679
  219MOL0     O30132   8.801   9.014   0.718  0.6935 -0.1931  0.1488
  219MOL0     C30133   8.456   8.992   0.669  0.7157  0.1741  0.0373
  219MOL0     C30134   8.343   9.069   0.635 -0.6702  0.9947 -0.1983
  219MOL0     N30135   7.598   9.395   0.518 -0.3184  0.3380  1.2111
  219MOL0     N30136   7.487   9.357   0.552  0.3286  0.5449  0.2299
  219MOL0     C30137   6.752   8.352   0.349  0.7913  0.0908  0.3562
  219MOL0     C30138   6.803   8.224   0.346 -0.8407 -0.7388 -0.4397
  219MOL0     C30139   7.104   7.890   0.219  0.5235 -0.8599 -0.5274
  219MOL0     C30140   7.154   7.845   0.097  0.6239 -0.0500  0.3043
  219MOL0     C30141   7.206   7.719   0.085 -0.9361  0.1244  0.7240
  219MOL0     C30142   7.210   7.628   0.196 -0.8459  0.6621  0.0085
  219MOL0     O30143   7.262   7.499   0.185  0.5403 -0.3127  0.1085
  219MOL0     C30144   7.387   7.494   0.237 -0.1358 -0.7970 -0.4015
  219MOL0     C30145   7.426   7.347   0.247 -0.1863 -0.1839  0.1405
  219MOL0     C30146   7.356   7.275   0.368 -0.3702  0.0381 -0.1622
  219MOL0     C30147   7.431   7.147   0.397 -0.3813 -1.0579 -0.3294
  219MOL0     C30148   7.455   7.054   0.286  0.7567  0.8754 -0.6815
  219MOL0     C30149   7.483   6.990   0.183  0.0607 -0.3688  0.4215
  219MOL0     C30150   7.160   7.678   0.313  0.3123 -0.6256 -0.4473
  219MOL0     C30151   7.100   7.804   0.329 -0.0526 -0.0816  0.1478
  219MOL0     C30152   7.050   7.859   0.464 -0.1635  0.0405  0.3567
  219MOL0     H30153   6.958   8.240   0.044 -0.2648  1.7758 -1.6914
  219MOL0     H30154   6.864   8.469   0.052  1.9296  0.2908  0.4771
  219MOL0     H30155   6.594   8.563   0.413 -2.1063  2.0987 -0.2192
  219MOL0     H30156   6.603   8.713   0.328  0.7098 -1.3407 -4.9246
  219MOL0     H30157   6.695   8.781   0.533  0.4867 -1.9350  2.4899
  219MOL0     H30158   6.798   8.634   0.549  0.4301 -0.0350  0.0947
  219MOL0     H30159   6.917   8.736   0.333  0.7346  0.5661 -0.1174
  219MOL0     H30160   6.817   8.888   0.373  1.1246  2.3758  4.7777
  219MOL0     H30161   6.902   8.911   0.582  4.0859  1.0947  2.2935
  219MOL0     H30162   7.014   8.769   0.559  1.6135  0.3360 -1.2191
  219MOL0     H30163   7.017   9.019   0.385 -3.7454 -4.4216 -3.4119
  219MOL0     H30164   7.144   8.895   0.388 -1.2467  0.1596 -1.2713
  219MOL0     H30165   7.078   9.056   0.626  0.2998 -0.3391  0.6145
  219MOL0     H30166   7.203   8.933   0.620 -3.5439 -2.0377  1.7883
  219MOL0     H30167   7.212   9.203   0.466 -2.4350 -0.9963 -0.2407
  219MOL0     H30168   7.303   9.055   0.429 -0.1743 -1.8197  1.2846
  219MOL0     H30169   7.303   9.211   0.701 -1.0964  1.3602 -1.5497
  219MOL0     H30170   7.392   9.074   0.694  1.8334  1.1002  1.6968
  219MOL0     H30171   7.644   9.071   0.554  0.4592 -0.6623  0.0933
  219MOL0     H30172   7.853   9.345   0.411 -0.8875  1.3273  1.1123
  219MOL0     H30173   7.854   9.177   0.483  1.3654  0.0154 -2.1858
  219MOL0     H30174   7.836   9.434   0.631 -0.6521  0.4885  0.9714
  219MOL0     H30175   7.862   9.272   0.697  2.0364 -1.0454 -0.0176
  219MOL0     H30176   8.075   9.399   0.515  1.0345  2.5736  1.7306
  219MOL0     H30177   8.048   9.450   0.667  2.7685  0.2489  0.5136
  219MOL0     H30178   8.119   9.204   0.749  0.6827  0.3074 -0.2170
  219MOL0     H30179   8.102   9.154   0.583  0.3653 -1.5032  0.5841
  219MOL0     H30180   8.469   9.376   0.704 -2.7670  0.0434  2.5764
  219MOL0     H30181   8.647   9.351   0.869  1.2265 -1.3979  3.7276
  219MOL0     H30182   8.748   9.339   0.728  1.5123  0.5739  1.7633
  219MOL0     H30183   8.758   9.216   0.861 -1.1746 -0.0309  0.2266
  219MOL0     H30184   8.724   8.614   0.638 -3.8708  1.8423  2.3699
  219MOL0     H30185   8.888   8.441   0.712  1.1168 -0.3966  1.4388
  219MOL0     H30186   9.241   8.599   0.894 -0.2038  0.6036 -0.8416
  219MOL0     H30187   9.181   8.518   1.043 -4.1938 -0.5698 -1.3485
  219MOL0     H30188   9.370   8.432   1.016  1.2838  4.8072 -0.9583
  219MOL0     H30189   9.272   8.305   0.938  0.2492 -0.4593 -3.8648
  219MOL0     H30190   9.487   8.349   0.810  0.8855  1.4244 -1.2169
  219MOL0     H30191   9.424   8.509   0.777 -1.6489  0.0417  0.6147
  219MOL0     H30192   9.218   8.379   0.681 -0.8949 -0.1921 -1.1641
  219MOL0     H30193   9.327   8.240   0.691  1.0405 -0.6821 -0.2528
  219MOL0     H30194   9.412   8.485   0.549 -0.9213 -0.5649 -1.9046
  219MOL0     H30195   9.490   8.334   0.550 -0.4962 -0.7546  0.0848
  219MOL0     H30196   9.299   8.212   0.452 -0.5250  1.3716  3.5621
  219MOL0     H30197   9.392   8.321   0.347 -0.7166 -2.2273 -0.0269
  219MOL0     H30198   9.213   8.431   0.288  0.6591  1.4767  0.2168
  219MOL0     H30199   9.179   8.494   0.449  1.0423 -1.6263  3.5007
  219MOL0     H30200   9.059   8.278   0.514  0.1841 -0.1698  0.2657
  219MOL0     H30201   9.065   8.232   0.352  0.4271  0.2386 -0.0848
  219MOL0     H30202   9.031   8.699   1.017 -0.1434  0.0540 -0.5525
  219MOL0     H30203   8.841   8.841   0.983  1.7225  0.6916  0.3784
  219MOL0     H30204   8.459   8.884   0.662  1.6388 -0.0804  2.9446
  219MOL0     H30205   8.251   9.022   0.603  0.5441 -0.4171 -1.7926
  219MOL0     H30206   6.705   8.387   0.441 -0.3985 -0.7029  0.0740
  219MOL0     H30207   6.796   8.155   0.430 -2.4900  0.7189  0.7034
  219MOL0     H30208   7.154   7.912   0.012 -2.0227  1.0391  1.0573
  219MOL0     H30209   7.247   7.681  -0.008 -0.6245 -1.8142  1.6027
  219MOL0     H30210   7.454   7.552   0.173 -1.0192 -1.3997 -1.9516
  219MOL0     H30211   7.395   7.534   0.338 -0.2952  0.3510 -0.8329
  219MOL0     H30212   7.533   7.345   0.270 -0.3478  1.7364  1.2943
  219MOL0     H30213   7.411   7.306   0.146 -2.8777  1.9654 -0.4467
  219MOL0     H30214   7.334   7.346   0.448 -2.2436  0.0097 -0.6062
  219MOL0     H30215   7.253   7.244   0.350 -0.4278 -1.0879  1.8651
  219MOL0     H30216   7.375   7.097   0.476  0.0771 -0.2496  0.5359
  219MOL0     H30217   7.527   7.176   0.441 -0.6441 -2.3911  1.1765
  219MOL0     H30218   7.498   6.941   0.088 -2.3677 -1.9758  0.7772
  219MOL0     H30219   7.175   7.608   0.394  0.8204 -1.6330 -1.3874
  219MOL0     H30220   7.129   7.913   0.517  0.4121 -0.7295  0.3029
  219MOL0     H30221   6.962   7.923   0.467  0.5083  0.9678  0.6963
  219MOL0     H30222   7.032   7.772   0.528  0.9185  0.7673  1.7006
  220MOL0     O30223   9.695   6.180   1.110 -0.7358  0.3326 -0.0378
  220MOL0     C30224   9.759   6.146   1.010  0.4726  1.0483  0.3404
  220MOL0     O30225   9.764   6.015   0.963 -0.2767  0.1129  0.2531
  220MOL0     C30226   9.686   5.916   1.006 -0.4755  0.0639  0.1951
  220MOL0     C30227   9.547   5.922   0.981  0.8873 -0.0048  0.0949
  220MOL0     C30228   9.463   5.821   1.031 -0.6184 -0.2525  0.9261
  220MOL0     C30229   9.506   5.713   1.115 -0.3088  0.2283  0.7066
  220MOL0     O30230   9.414   5.636   1.185 -0.0087  0.4007 -0.3603
  220MOL0     C30231   9.464   5.528   1.270  0.2510 -0.5840 -0.4146
  220MOL0     C30232   9.500   5.401   1.184  0.4178  0.0483  0.3396
  220MOL0     C30233   9.592   5.295   1.262 -0.3106  0.7300 -0.7352
  220MOL0     C30234   9.610   5.174   1.175 -0.8407  0.2048  0.1929
  220MOL0     C30235   9.693   5.063   1.243  0.0365 -0.0352 -0.4805
  220MOL0     C30236   9.830   5.104   1.297 -0.6950  0.2369  0.1150
  220MOL0     C30237   9.930   5.144   1.177 -0.1897  0.0405 -0.1970
  220MOL0     C30238  10.080   5.145   1.219 -0.1434 -1.0947 -0.2311
  220MOL0     N30239  10.169   5.216   1.125  0.8553  0.2290 -0.0961
  220MOL0     C30240  10.171   5.191   0.986  0.6086 -0.3055 -0.3647
  220MOL0     C30241  10.291   5.233   0.935  0.0397 -0.1240 -0.9597
  220MOL0     C30242  10.317   5.237   0.786  0.0632 -1.0834 -0.5916
  220MOL0     C30243  10.304   5.108   0.710  0.2143  0.3455 -0.1421
  220MOL0     C30244  10.327   5.122   0.556  0.6290  0.1937 -0.0693
  220MOL0     C30245  10.264   4.999   0.484  0.7433 -0.1453 -0.7149
  220MOL0     O30246  10.319   4.872   0.544 -0.4624 -0.0485  0.0637
  220MOL0     C30247  10.325   4.769   0.452 -0.5596  0.5524  0.1078
  220MOL0     C30248  10.428   4.680   0.477 -0.9802 -0.4237 -0.1887
  220MOL0     C30249  10.457   4.567   0.405 -0.8844 -0.5746  0.5068
  220MOL0     C30250  10.566   4.472   0.448  0.6426 -0.5590  0.5679
  220MOL0     C30251  10.364   4.531   0.305 -0.1802  0.3264 -1.2464
  220MOL0     C30252  10.400   4.410   0.229  0.2838 -1.4405 -1.1525
  220MOL0     O30253  10.360   4.294   0.289 -0.1349  1.0438 -0.5295
  220MOL0     C30254  10.414   4.168   0.253 -0.3118 -0.1156 -0.2618
  220MOL0     C30255  10.330   4.064   0.220  0.9874 -0.5264 -1.4728
  220MOL0     C30256  10.372   3.932   0.200  0.7725  0.3974 -0.3080
  220MOL0     C30257  10.508   3.903   0.206 -0.2292  0.8402  0.1429
  220MOL0     O30258  10.541   3.765   0.211  0.1214  0.6340  0.0849
  220MOL0     C30259  10.680   3.726   0.187 -0.0686  1.3501  0.4027
  220MOL0     C30260  10.750   3.655   0.305 -0.4343  0.1287 -0.5240
  220MOL0     C30261  10.764   3.743   0.424  0.8862 -0.3137 -0.4744
  220MOL0     C30262  10.774   3.675   0.566 -0.6195  0.9131  0.3041
  220MOL0     C30263  10.909   3.686   0.626 -0.4179 -0.7547  0.4142
  220MOL0     C30264  10.962   3.829   0.655  0.0954  0.5422  1.2521
  220MOL0     C30265  10.886   3.891   0.780  1.2740 -0.5228 -1.4093
  220MOL0     C30266  10.904   3.818   0.906 -0.1237 -0.1855 -0.1404
  220MOL0    Cl30267  11.077   3.800   0.936 -0.3839 -0.1552  0.0544
  220MOL0     C30268  10.602   4.002   0.241 -0.0306  0.3484 -0.0869
  220MOL0     C30269  10.550   4.138   0.258 -0.4962  0.9892  0.9157
  220MOL0     O30270  10.457   4.429   0.124 -0.2590 -0.0396  1.1181
  220MOL0     C30271  10.263   4.612   0.272  1.1841  0.4807  0.5179
  220MOL0     C30272  10.240   4.733   0.339 -0.2200  0.1448 -0.4817
  220MOL0     N30273  10.368   5.274   1.039  0.2288  0.5002 -0.4200
  220MOL0     N30274  10.292   5.258   1.151 -1.0963 -0.2366  0.6327
  220MOL0     C30275   9.648   5.704   1.120  0.6029 -0.5375 -0.2199
  220MOL0     C30276   9.730   5.805   1.068  0.6821 -0.7885 -0.2742
  220MOL0     C30277   9.850   6.243   0.942  1.3376  0.9893 -0.9171
  220MOL0     C30278   9.894   6.214   0.815 -0.9424  0.6838 -0.5110
  220MOL0     C30279   9.984   6.296   0.738 -0.2907  0.3370 -0.5165
  220MOL0     C30280  10.010   6.427   0.787 -0.2025  0.8836  0.7466
  220MOL0     O30281  10.092   6.519   0.730  0.5527 -0.6949 -0.0889
  220MOL0     C30282  10.183   6.479   0.634 -0.4211  0.5561 -0.6802
  220MOL0     C30283  10.287   6.587   0.594 -0.1092  0.2432 -0.9341
  220MOL0     C30284  10.405   6.532   0.519 -0.1086 -0.0888  0.9017
  220MOL0     C30285  10.367   6.504   0.366 -1.2042 -0.1811 -1.3839
  220MOL0     C30286  10.262   6.397   0.335 -0.4212  0.4452  0.2002
  220MOL0     C30287  10.167   6.333   0.302  0.7130 -0.1110 -0.3583
  220MOL0     C30288   9.952   6.460   0.910 -1.2123 -0.7008  0.0727
  220MOL0     C30289   9.866   6.380   0.976 -0.3525 -0.1044 -0.2881
  220MOL0     C30290   9.793   6.445   1.093  0.5940 -0.0428 -0.2121
  220MOL0     H30291   9.507   6.005   0.923  1.8238 -0.3742 -1.1289
  220MOL0     H30292   9.358   5.833   1.008 -0.6565 -1.3406  0.4662
  220MOL0     H30293   9.388   5.499   1.344  3.3484 -0.3664  3.1241
  220MOL0     H30294   9.554   5.553   1.327  1.4612  0.6456 -2.6982
  220MOL0     H30295   9.406   5.353   1.157 -0.2312  1.1868  0.5454
  220MOL0     H30296   9.553   5.429   1.092 -1.0874 -0.6506 -0.7824
  220MOL0     H30297   9.686   5.342   1.291 -1.0067  1.1866  0.9279
  220MOL0     H30298   9.537   5.267   1.352  1.8260  0.3182  0.5128
  220MOL0     H30299   9.510   5.137   1.149 -0.5361 -1.2804  1.0096
  220MOL0     H30300   9.657   5.211   1.084 -0.6972 -0.9873 -0.2419
  220MOL0     H30301   9.704   4.991   1.163 -3.0213  3.2611 -4.2815
  220MOL0     H30302   9.631   5.039   1.330  0.3995 -0.0417 -0.2239
  220MOL0     H30303   9.832   5.177   1.379  1.6811  0.9233 -0.4803
  220MOL0     H30304   9.867   5.015   1.348 -2.6706  1.3277  3.7989
  220MOL0     H30305   9.899   5.245   1.150 -0.4641  0.6695  2.2160
  220MOL0     H30306   9.913   5.078   1.092 -1.0298  1.5698 -1.2573
  220MOL0     H30307  10.090   5.193   1.317 -0.9285  1.8852 -1.4913
  220MOL0     H30308  10.108   5.040   1.228  3.1705 -0.3050  0.1162
  220MOL0     H30309  10.087   5.159   0.925 -0.7916  1.6031  0.4701
  220MOL0     H30310  10.417   5.279   0.771 -0.1664 -0.0056  0.6594
  220MOL0     H30311  10.233   5.296   0.746  1.5785 -0.3323 -2.8686
  220MOL0     H30312  10.361   5.023   0.749  0.5944 -0.3194 -2.0570
  220MOL0     H30313  10.202   5.068   0.716  0.2945  0.3412  1.7571
  220MOL0     H30314  10.277   5.212   0.518  0.0159 -0.5868 -1.1738
  220MOL0     H30315  10.435   5.121   0.537  0.5662  1.5826 -0.6633
  220MOL0     H30316  10.157   5.010   0.504  0.8522  1.4730 -0.9553
  220MOL0     H30317  10.281   4.992   0.376 -0.8941 -1.4690 -0.9273
  220MOL0     H30318  10.493   4.708   0.559 -0.4029  0.4531 -0.9131
  220MOL0     H30319  10.613   4.507   0.541  2.3888  1.3584 -0.9493
  220MOL0     H30320  10.642   4.478   0.370 -1.3849  3.2121 -1.3751
  220MOL0     H30321  10.534   4.369   0.470  1.2308 -0.5829  1.3383
  220MOL0     H30322  10.225   4.085   0.201  0.2442 -3.8870 -1.8016
  220MOL0     H30323  10.306   3.848   0.176  1.3356 -0.3732  0.7823
  220MOL0     H30324  10.680   3.662   0.098 -3.0604  0.1860  1.1236
  220MOL0     H30325  10.749   3.805   0.156  0.1454  0.9921 -0.0504
  220MOL0     H30326  10.695   3.562   0.327  3.6043 -2.1927  0.8598
  220MOL0     H30327  10.847   3.617   0.271 -0.2802  1.0713 -1.1631
  220MOL0     H30328  10.682   3.811   0.449  2.0930  0.6136  1.2632
  220MOL0     H30329  10.834   3.822   0.394  0.3258  1.0046  1.4847
  220MOL0     H30330  10.756   3.567   0.567  1.6904  0.4395  3.3203
  220MOL0     H30331  10.700   3.721   0.631 -0.3030  1.4676  0.2789
  220MOL0     H30332  10.904   3.623   0.715 -0.3366 -0.4391  0.6449
  220MOL0     H30333  10.992   3.646   0.567  0.4163  2.0011 -0.4741
  220MOL0     H30334  10.960   3.891   0.565  2.0660 -1.4150 -0.2557
  220MOL0     H30335  11.070   3.818   0.672  0.0652 -0.5224  0.7907
  220MOL0     H30336  10.778   3.903   0.767  0.6658 -2.2399  1.2954
  220MOL0     H30337  10.924   3.992   0.795 -0.1367  0.0099 -1.2274
  220MOL0     H30338  10.863   3.717   0.901 -1.4695  0.3390  0.1052
  220MOL0     H30339  10.849   3.876   0.981  1.2760  0.6645  0.2789
  220MOL0     H30340  10.704   3.976   0.268  0.3968 -0.7236 -2.4579
  220MOL0     H30341  10.618   4.213   0.298  0.5643  0.7356 -0.3475
  220MOL0     H30342  10.194   4.590   0.191  0.3002 -0.8651  1.5904
  220MOL0     H30343  10.150   4.793   0.327 -0.2104  0.8616  2.3467
  220MOL0     H30344   9.690   5.619   1.173 -1.5111 -0.8800  1.0478
  220MOL0     H30345   9.838   5.792   1.071  0.6195 -1.2150  1.7870
  220MOL0     H30346   9.864   6.122   0.766  0.4972  0.8921 -1.8693
  220MOL0     H30347  10.014   6.261   0.639  2.0334  2.3593 -0.6263
  220MOL0     H30348  10.232   6.391   0.676  1.1407  0.9546 -1.5851
  220MOL0     H30349  10.113   6.466   0.551  0.5082  1.6656 -1.6718
  220MOL0     H30350  10.325   6.632   0.687 -1.4233  2.7283 -1.5017
  220MOL0     H30351  10.254   6.682   0.550  2.0667  1.4414 -0.1723
  220MOL0     H30352  10.489   6.602   0.525  0.6105 -0.6785 -1.3591
  220MOL0     H30353  10.438   6.436   0.561  0.4446  0.3804  1.5715
  220MOL0     H30354  10.458   6.466   0.318  0.8059 -0.7195  2.4646
  220MOL0     H30355  10.343   6.604   0.329 -1.4331 -0.2620 -1.4561
  220MOL0     H30356  10.090   6.273   0.258  0.3342  1.3463 -1.7738
  220MOL0     H30357   9.987   6.558   0.940 -1.9163 -0.7179  0.9935
  220MOL0     H30358   9.821   6.549   1.110  1.8435 -0.6460  1.7528
  220MOL0     H30359   9.684   6.446   1.082  0.2680 -0.6344  2.4604
  220MOL0     H30360   9.808   6.396   1.189  1.1500  0.8086  0.1457
  221MOL0     O30361   5.191   6.679  10.897  0.3074 -0.4420 -0.3731
  221MOL0     C30362   5.121   6.656  10.800 -0.0645 -0.7122  0.2125
  221MOL0     O30363   4.983   6.650  10.810 -0.2832  0.5958  0.0581
  221MOL0     C30364   4.924   6.653  10.934  0.7086  0.3877 -0.6592
  221MOL0     C30365   4.831   6.553  10.958  0.5611 -0.2044 -0.1711
  221MOL0     C30366   4.760   6.538  11.080  0.8339 -0.3484 -0.4852
  221MOL0     C30367   4.786   6.630  11.184 -0.4869 -0.7095  0.5296
  221MOL0     O30368   4.708   6.606  11.297 -0.2227 -0.0312 -0.5094
  221MOL0     C30369   4.746   6.670  11.420 -0.2278 -0.1916 -0.3335
  221MOL0     C30370   4.641   6.633  11.530 -0.8023 -0.3778 -0.4288
  221MOL0     C30371   4.517   6.714  11.517 -0.0420 -1.4444  0.4811
  221MOL0     C30372   4.421   6.662  11.627 -0.4848 -0.4788 -0.2703
  221MOL0     C30373   4.282   6.736  11.625 -0.6275  0.1216 -0.8235
  221MOL0     C30374   4.191   6.710  11.752 -0.5501  0.9980 -0.2147
  221MOL0     C30375   4.044   6.764  11.740  0.2150 -0.3594 -0.5056
  221MOL0     C30376   3.964   6.742  11.868 -0.3780  0.4577  0.8143
  221MOL0     N30377   3.838   6.806  11.865  0.1782  0.2889 -0.5532
  221MOL0     C30378   3.713   6.747  11.852  0.5008  0.2200 -0.0543
  221MOL0     C30379   3.634   6.852  11.841  0.2406 -0.0074  0.4885
  221MOL0     C30380   3.480   6.842  11.840  0.1684 -0.3374  0.0412
  221MOL0     C30381   3.427   6.758  11.724  0.1419 -0.0214  0.5731
  221MOL0     C30382   3.275   6.730  11.754 -0.5295 -0.1724 -0.0714
  221MOL0     C30383   3.198   6.650  11.649  0.5771  0.0304  0.5506
  221MOL0     O30384   3.053   6.657  11.655  0.0990  0.2506  0.0370
  221MOL0     C30385   2.980   6.601  11.550  0.1364 -0.4811 -0.3891
  221MOL0     C30386   3.012   6.529  11.432 -0.2069  0.2413 -0.0060
  221MOL0     C30387   2.916   6.495  11.337  0.4453 -0.8597  0.2062
  221MOL0     C30388   2.962   6.399  11.228 -0.2206  0.2266 -0.8625
  221MOL0     C30389   2.782   6.525  11.362  0.1666 -0.5044  0.5419
  221MOL0     C30390   2.672   6.512  11.259 -0.1871 -0.6441  1.2975
  221MOL0     O30391   2.540   6.526  11.298 -0.1646  0.0275 -0.3996
  221MOL0     C30392   2.446   6.460  11.218  0.2675 -0.1285 -0.5685
  221MOL0     C30393   2.311   6.510  11.221 -0.4232  0.4960 -0.2683
  221MOL0     C30394   2.216   6.447  11.139  0.1022 -0.9547 -0.5579
  221MOL0     C30395   2.235   6.325  11.073  0.5651 -0.3585  0.0026
  221MOL0     O30396   2.128   6.268  11.003  0.1050  0.5027  0.3359
  221MOL0     C30397   2.145   6.180  10.892  0.1958 -0.5108 -0.3814
  221MOL0     C30398   2.138   6.036  10.933 -1.0045 -0.6370  0.0153
  221MOL0     C30399   2.158   5.938  10.813 -0.2716 -0.4375 -0.2688
  221MOL0     C30400   2.049   5.941  10.707  0.4933 -0.4771  0.4088
  221MOL0     C30401   2.059   5.829  10.609 -0.1968  0.5559  0.4219
  221MOL0     C30402   1.970   5.854  10.483  0.3222  1.3045  0.2481
  221MOL0     C30403   1.975   5.729  10.394  0.7395 -0.2017  0.3529
  221MOL0     C30404   1.893   5.753  10.268 -0.2753 -0.1026 -0.1000
  221MOL0    Cl30405   1.949   5.899  10.177  0.4659 -0.5557 -0.5177
  221MOL0     C30406   2.364   6.279  11.073  0.2754 -0.1461 -1.0353
  221MOL0     C30407   2.459   6.336  11.150 -0.3776 -0.2240  1.0849
  221MOL0     O30408   2.712   6.514  11.141  0.1771  0.6759 -0.4267
  221MOL0     C30409   2.755   6.582  11.483  0.5369 -0.8841  0.3236
  221MOL0     C30410   2.848   6.618  11.579 -0.2165 -0.2624 -0.9093
  221MOL0     N30411   3.701   6.969  11.825 -0.4224  0.7362  0.7542
  221MOL0     N30412   3.829   6.943  11.844  0.2711  0.3757  0.3645
  221MOL0     C30413   4.890   6.727  11.164 -0.0359  0.2282 -0.3152
  221MOL0     C30414   4.959   6.732  11.038  0.7585  1.0000  0.0174
  221MOL0     C30415   5.174   6.634  10.663 -0.2244  0.1439  0.4534
  221MOL0     C30416   5.084   6.590  10.560  0.3094  0.9487  0.2693
  221MOL0     C30417   5.132   6.570  10.434  0.1291  0.9312 -0.9042
  221MOL0     C30418   5.273   6.579  10.398  0.1324 -0.2867  0.4976
  221MOL0     O30419   5.319   6.566  10.274 -0.2509 -0.1998  0.1656
  221MOL0     C30420   5.287   6.682  10.185 -1.0958 -0.1874  0.6429
  221MOL0     C30421   5.386   6.793  10.195 -0.8297 -0.9150 -0.0554
  221MOL0     C30422   5.524   6.725  10.203  0.0329  1.0247  0.1240
  221MOL0     C30423   5.636   6.814  10.233  0.1739 -0.5933 -0.6044
  221MOL0     C30424   5.626   6.872  10.372  0.5145 -0.5321 -0.4125
  221MOL0     C30425   5.640   6.910  10.490 -1.0743 -0.3982  0.9406
  221MOL0     C30426   5.354   6.630  10.503 -0.9390  0.3024  0.4083
  221MOL0     C30427   5.309   6.659  10.632  1.0338 -0.1759 -0.4652
  221MOL0     C30428   5.411   6.723  10.730 -0.0398  0.5945  0.6891
  221MOL0     H30429   4.809   6.480  10.880 -4.8118 -2.0266  2.5412
  221MOL0     H30430   4.679   6.466  11.092 -0.5805  1.0040 -1.4475
  221MOL0     H30431   4.772   6.776  11.421  0.9517 -0.4713 -0.0214
  221MOL0     H30432   4.839   6.625  11.456  0.1635 -0.8468 -2.0698
  221MOL0     H30433   4.626   6.525  11.541 -0.7760 -0.3044  0.3930
  221MOL0     H30434   4.680   6.665  11.627 -2.3717 -1.1152  0.4825
  221MOL0     H30435   4.540   6.820  11.534  2.0799 -1.5124 -1.4564
  221MOL0     H30436   4.469   6.709  11.419 -2.1143  1.1582  1.2179
  221MOL0     H30437   4.414   6.553  11.622 -1.4565 -0.3576 -2.2176
  221MOL0     H30438   4.460   6.692  11.725 -1.6245  0.7755 -0.1715
  221MOL0     H30439   4.232   6.724  11.528  1.4651 -0.2241 -1.9444
  221MOL0     H30440   4.306   6.842  11.630  1.5443 -0.3572  0.0852
  221MOL0     H30441   4.176   6.602  11.767 -1.3916  1.4194  2.5350
  221MOL0     H30442   4.240   6.756  11.838  0.1115 -0.9059  0.4783
  221MOL0     H30443   3.990   6.710  11.662  0.2906 -3.3380  1.3502
  221MOL0     H30444   4.061   6.868  11.709  2.8400 -1.0855 -1.7703
  221MOL0     H30445   3.960   6.633  11.882 -1.0463  0.1647 -1.2894
  221MOL0     H30446   4.029   6.769  11.951  1.9645 -2.0483 -0.0407
  221MOL0     H30447   3.690   6.642  11.870  0.5556 -0.2589 -2.4024
  221MOL0     H30448   3.430   6.939  11.832 -0.8814 -0.9382 -0.9334
  221MOL0     H30449   3.453   6.797  11.936  0.5732 -3.1591 -1.0918
  221MOL0     H30450   3.428   6.812  11.629 -1.6293  0.2142  0.6554
  221MOL0     H30451   3.491   6.671  11.706  2.6510  1.6696  0.8511
  221MOL0     H30452   3.274   6.657  11.836  2.3325 -2.4259 -1.8478
  221MOL0     H30453   3.225   6.826  11.769  0.5444  0.7307 -1.8901
  221MOL0     H30454   3.230   6.689  11.552  2.3689  1.9497  1.8438
  221MOL0     H30455   3.231   6.546  11.661  1.4837  0.2154 -0.2135
  221MOL0     H30456   3.117   6.511  11.408 -0.2279 -0.0570  0.1241
  221MOL0     H30457   2.882   6.331  11.195  0.7661 -0.9051 -0.9933
  221MOL0     H30458   3.040   6.332  11.265  2.4603  1.5072 -3.8127
  221MOL0     H30459   3.008   6.449  11.143  1.2619 -0.6884 -0.6317
  221MOL0     H30460   2.295   6.607  11.265 -0.2797  0.2882  0.2553
  221MOL0     H30461   2.123   6.503  11.131  0.8380  0.4357  0.1578
  221MOL0     H30462   2.057   6.175  10.826  0.6432 -2.0699 -0.8959
  221MOL0     H30463   2.229   6.216  10.832 -1.1502  0.4682 -1.7591
  221MOL0     H30464   2.215   6.008  11.006 -0.3184 -0.9600 -0.8151
  221MOL0     H30465   2.042   6.011  10.978 -1.1962 -0.3351 -0.2200
  221MOL0     H30466   2.141   5.842  10.862 -1.2605  1.0120  2.4271
  221MOL0     H30467   2.260   5.934  10.773 -1.4545 -1.8749 -3.4818
  221MOL0     H30468   2.051   6.036  10.653 -1.5754 -1.7822 -2.1781
  221MOL0     H30469   1.948   5.935  10.750 -0.7838 -2.1467 -2.5686
  221MOL0     H30470   2.166   5.824  10.584  0.2604  4.1162  1.1287
  221MOL0     H30471   2.031   5.732  10.651 -0.5380  0.0403 -0.9442
  221MOL0     H30472   2.009   5.941  10.429 -0.7774  1.6576  0.0004
  221MOL0     H30473   1.865   5.869  10.508  0.5350  1.0636  1.3547
  221MOL0     H30474   1.937   5.645  10.453  3.5910 -1.9028 -0.0647
  221MOL0     H30475   2.076   5.699  10.365 -0.0301 -2.2077 -0.4818
  221MOL0     H30476   1.791   5.776  10.302  0.3780  0.4728  1.5642
  221MOL0     H30477   1.879   5.660  10.213 -0.9999 -0.3985  0.5500
  221MOL0     H30478   2.389   6.185  11.026 -0.6112 -0.8494 -0.1574
  221MOL0     H30479   2.553   6.284  11.162  0.6400  0.7400 -1.7932
  221MOL0     H30480   2.651   6.604  11.502  0.6160 -1.2541  1.2148
  221MOL0     H30481   2.816   6.672  11.667  1.4210 -3.7761  2.1154
  221MOL0     H30482   4.911   6.794  11.247 -2.8251 -2.1341  2.5484
  221MOL0     H30483   5.040   6.803  11.024  0.9835  0.8431  0.5204
  221MOL0     H30484   4.981   6.560  10.568  0.5192  0.1749  0.1239
  221MOL0     H30485   5.067   6.546  10.350 -1.5772  2.9443 -0.2359
  221MOL0     H30486   5.296   6.649  10.082  2.7941 -0.7764  1.0115
  221MOL0     H30487   5.187   6.725  10.198 -1.7382 -1.8298  1.3631
  221MOL0     H30488   5.366   6.874  10.266 -1.1164  2.3694 -3.5902
  221MOL0     H30489   5.397   6.846  10.100 -0.6827  1.5722  1.2734
  221MOL0     H30490   5.538   6.647  10.279  1.7890  2.3077  1.1877
  221MOL0     H30491   5.555   6.683  10.107  1.1751  2.6468 -0.2476
  221MOL0     H30492   5.647   6.893  10.158  1.9901 -0.0861  0.1412
  221MOL0     H30493   5.714   6.740  10.214  1.7334  0.3859  1.5668
  221MOL0     H30494   5.650   6.953  10.588 -2.6664  1.6310  0.2965
  221MOL0     H30495   5.452   6.657  10.466 -0.4902 -1.3509  0.2782
  221MOL0     H30496   5.365   6.810  10.776  0.9988  1.0335  0.9353
  221MOL0     H30497   5.444   6.653  10.808 -0.0739  2.9022  2.9208
  221MOL0     H30498   5.501   6.762  10.680  0.2536 -1.4005 -0.4685
  222MOL0     O30499   1.992   0.902  10.354 -0.4879  0.0532 -0.2758
  222MOL0     C30500   1.875   0.917  10.323 -0.4817 -0.2371 -0.9548
  222MOL0     O30501   1.775   0.954  10.408  0.4775  0.0809 -0.1030
  222MOL0     C30502   1.804   0.992  10.540  0.1130 -0.2044  0.5249
  222MOL0     C30503   1.900   1.077  10.591 -0.1257 -0.0961  0.3929
  222MOL0     C30504   1.907   1.104  10.732  0.9667 -0.8831  0.2251
  222MOL0     C30505   1.808   1.052  10.817 -0.3845  0.6365  0.7941
  222MOL0     O30506   1.814   1.114  10.941 -0.4966 -0.2010 -0.0072
  222MOL0     C30507   1.735   1.049  11.047 -0.3561 -0.8796 -0.3676
  222MOL0     C30508   1.745   1.144  11.168 -0.5794  0.2390  0.5249
  222MOL0     C30509   1.632   1.106  11.272  0.5068  0.7244  0.4556
  222MOL0     C30510   1.647   1.189  11.398 -0.3548 -0.3252 -0.3511
  222MOL0     C30511   1.550   1.136  11.510  1.1752 -0.4324  1.6005
  222MOL0     C30512   1.564   1.217  11.636 -0.2258 -0.6178  0.2957
  222MOL0     C30513   1.493   1.157  11.755 -0.2020  0.9195  0.5165
  222MOL0     C30514   1.355   1.216  11.763 -0.2513  0.5926 -0.5017
  222MOL0     N30515   1.274   1.152  11.869 -0.0159  0.4681  0.0574
  222MOL0     C30516   1.257   1.193  12.004 -0.0155 -0.1556 -0.7048
  222MOL0     C30517   1.190   1.095  12.068  0.4082  0.3663  0.2498
  222MOL0     C30518   1.178   1.083  12.219  0.5098  0.2188 -0.4679
  222MOL0     C30519   1.079   0.963  12.255  0.0119  0.2448  0.0585
  222MOL0     C30520   1.079   0.947  12.410  0.3137 -0.7122  0.6088
  222MOL0     C30521   0.982   0.843  12.467 -0.9816  0.0712  0.0540
  222MOL0     O30522   1.036   0.804  12.593 -0.0842 -0.3211  0.1870
  222MOL0     C30523   0.966   0.741  12.700  0.3001 -0.3717  0.1009
  222MOL0     C30524   1.045   0.671  12.792  1.0791 -0.4789  0.0063
  222MOL0     C30525   0.985   0.586  12.887 -0.1823 -0.5942 -0.3544
  222MOL0     C30526   1.068   0.502  12.977  0.2578  0.6966 -0.5172
  222MOL0     C30527   0.843   0.596  12.906  0.0431 -0.4413  0.3726
  222MOL0     C30528   0.769   0.492  12.990  0.2977 -0.5594  0.3967
  222MOL0     O30529   0.834   0.373  12.999  0.0888 -0.0223 -0.8435
  222MOL0     C30530   0.773   0.268  13.067  0.2574 -0.3984  0.3282
  222MOL0     C30531   0.728   0.162  12.999  0.4764  0.0931 -0.1048
  222MOL0     C30532   0.666   0.053  13.070  0.0316  0.0224  0.1396
  222MOL0     C30533   0.679   0.053  13.213  0.6462 -0.7778 -0.2145
  222MOL0     O30534   0.635  -0.056  13.276 -0.5392 -0.1101 -0.1550
  222MOL0     C30535   0.713  -0.098  13.385 -0.2020 -0.0509  0.0544
  222MOL0     C30536   0.632  -0.091  13.514 -0.2282  0.1748  0.2744
  222MOL0     C30537   0.720  -0.127  13.637 -0.1281 -0.2410 -1.0022
  222MOL0     C30538   0.798  -0.261  13.617  0.5187  0.6529 -0.0643
  222MOL0     C30539   0.808  -0.344  13.742 -0.7032  0.0411 -0.9090
  222MOL0     C30540   0.891  -0.288  13.861  0.2307  0.4789  0.2531
  222MOL0     C30541   0.888  -0.393  13.977 -0.0481  0.3668  0.2742
  222MOL0     C30542   0.923  -0.531  13.930  0.6758 -0.3903  0.5684
  222MOL0    Cl30543   0.970  -0.630  14.067 -0.2421  0.2438 -0.1040
  222MOL0     C30544   0.726   0.172  13.285  0.0941  0.4097  0.3658
  222MOL0     C30545   0.775   0.276  13.203  0.9634 -0.1297 -0.1733
  222MOL0     O30546   0.657   0.517  13.032  0.3874 -0.0282 -0.2199
  222MOL0     C30547   0.767   0.673  12.818  0.5053  0.1749 -0.2212
  222MOL0     C30548   0.832   0.739  12.712  0.5178 -0.0751 -0.5156
  222MOL0     N30549   1.159   1.003  11.969  0.6805 -0.1254 -0.8695
  222MOL0     N30550   1.215   1.033  11.855  0.4616  0.3297 -0.4453
  222MOL0     C30551   1.726   0.953  10.769  0.1337  0.2794  0.1013
  222MOL0     C30552   1.716   0.938  10.634  0.5825 -0.9257  0.7716
  222MOL0     C30553   1.840   0.876  10.190 -0.1581 -0.0344  0.8564
  222MOL0     C30554   1.707   0.832  10.166  0.5726 -0.5714 -0.2672
  222MOL0     C30555   1.663   0.799  10.036  0.1141 -0.2724 -0.3203
  222MOL0     C30556   1.747   0.824   9.929  0.3240 -0.3156  1.1447
  222MOL0     O30557   1.705   0.793   9.800  0.2842 -0.1096 -0.0222
  222MOL0     C30558   1.757   0.681   9.730  0.4394 -0.0515  0.6309
  222MOL0     C30559   1.779   0.709   9.588  0.3480  0.5180 -0.4878
  222MOL0     C30560   1.803   0.590   9.497 -0.0151 -0.1309 -0.3647
  222MOL0     C30561   1.899   0.609   9.377  0.3609 -0.0362 -0.3859
  222MOL0     C30562   1.884   0.737   9.313  0.3870 -0.5916  0.1581
  222MOL0     C30563   1.873   0.834   9.243 -0.0720 -0.8221  0.0128
  222MOL0     C30564   1.881   0.869   9.949  0.1085  0.0534 -0.3509
  222MOL0     C30565   1.927   0.889  10.076 -0.2123 -0.2923  0.1451
  222MOL0     C30566   2.081   0.886  10.088 -0.5153  0.3999  0.0196
  222MOL0     H30567   1.980   1.114  10.528  0.1286 -0.6851  0.3635
  222MOL0     H30568   1.974   1.178  10.774  0.1378 -0.3345  0.6040
  222MOL0     H30569   1.772   0.948  11.067 -3.3030 -1.9508  0.2423
  222MOL0     H30570   1.628   1.036  11.027 -0.2056 -3.6145  0.1755
  222MOL0     H30571   1.846   1.129  11.206 -0.2521  0.9959 -0.0349
  222MOL0     H30572   1.738   1.248  11.136  0.7874  0.9440  2.3619
  222MOL0     H30573   1.532   1.113  11.228 -0.5644 -0.6097  2.5049
  222MOL0     H30574   1.641   1.002  11.304 -1.2725  0.6485  0.7921
  222MOL0     H30575   1.749   1.171  11.435 -0.8401 -2.9079 -0.0861
  222MOL0     H30576   1.626   1.295  11.382  1.0416  0.5122  2.6241
  222MOL0     H30577   1.568   1.030  11.526  3.6126 -0.6015 -1.2804
  222MOL0     H30578   1.446   1.144  11.478  1.7628 -2.2551 -1.1531
  222MOL0     H30579   1.671   1.223  11.658 -0.1254  0.4999 -0.4340
  222MOL0     H30580   1.529   1.320  11.627 -2.1953 -1.1668  1.1891
  222MOL0     H30581   1.531   1.182  11.854 -2.1572  4.1731  0.5731
  222MOL0     H30582   1.494   1.048  11.748 -1.3064  0.9544 -0.6067
  222MOL0     H30583   1.356   1.325  11.776  0.6160  0.8271 -2.3090
  222MOL0     H30584   1.306   1.202  11.666 -0.7240  2.8270 -0.6296
  222MOL0     H30585   1.301   1.282  12.048  1.4736  1.0432 -4.2481
  222MOL0     H30586   1.136   1.175  12.261  0.3237  0.1929 -0.5992
  222MOL0     H30587   1.279   1.074  12.261  0.7084  2.0625 -0.4828
  222MOL0     H30588   0.977   0.988  12.223 -0.0534  0.3927  0.3753
  222MOL0     H30589   1.113   0.871  12.206  0.5609  0.4051  0.1384
  222MOL0     H30590   1.184   0.933  12.437  1.1180  2.1650 -0.6919
  222MOL0     H30591   1.064   1.047  12.451  0.0097  0.8655 -2.9898
  222MOL0     H30592   0.886   0.892  12.484 -0.5796  1.4197 -1.2720
  222MOL0     H30593   0.975   0.763  12.393 -0.9318 -0.4386  0.5962
  222MOL0     H30594   1.152   0.669  12.777  1.2195 -1.4419  0.9708
  222MOL0     H30595   1.173   0.533  12.980  0.3884  0.2055  1.0960
  222MOL0     H30596   1.051   0.397  12.950 -1.4452 -0.3927  3.8730
  222MOL0     H30597   1.024   0.500  13.077 -1.5461  2.2641 -1.2204
  222MOL0     H30598   0.728   0.158  12.891 -0.1271  0.4868 -0.1239
  222MOL0     H30599   0.633  -0.032  13.010 -2.5143  2.1887 -1.7428
  222MOL0     H30600   0.739  -0.203  13.364  0.2704 -0.0098  0.4014
  222MOL0     H30601   0.811  -0.050  13.392  1.8358 -3.9664  2.4956
  222MOL0     H30602   0.586   0.005  13.537 -0.7909  0.2075 -0.9447
  222MOL0     H30603   0.558  -0.171  13.512  2.0661 -2.1808 -3.7946
  222MOL0     H30604   0.652  -0.120  13.723  4.8952  5.1349  3.4481
  222MOL0     H30605   0.794  -0.049  13.655  0.6070 -0.8717 -1.2441
  222MOL0     H30606   0.897  -0.233  13.581 -0.1001  1.0139 -1.5344
  222MOL0     H30607   0.746  -0.327  13.548  1.3784  0.6426 -0.7139
  222MOL0     H30608   0.705  -0.363  13.773 -1.0354 -0.8378 -2.4492
  222MOL0     H30609   0.853  -0.439  13.712 -0.6903 -0.6797  1.2297
  222MOL0     H30610   0.840  -0.197  13.892 -4.3112 -1.8138  0.4436
  222MOL0     H30611   0.993  -0.268  13.826 -1.1160  0.3672 -4.5196
  222MOL0     H30612   0.794  -0.401  14.033 -0.7958 -0.5672 -1.0796
  222MOL0     H30613   0.964  -0.363  14.051  0.4601 -1.1365  0.3930
  222MOL0     H30614   0.992  -0.538  13.846  0.9837  1.5404  0.6302
  222MOL0     H30615   0.831  -0.574  13.889 -0.5336  1.1343  1.5945
  222MOL0     H30616   0.712   0.184  13.392  0.7664 -0.0907  0.5170
  222MOL0     H30617   0.805   0.365  13.258  0.5206  0.6729 -1.2037
  222MOL0     H30618   0.658   0.673  12.823  0.4613  1.1690 -0.9086
  222MOL0     H30619   0.778   0.791  12.633  1.2967  0.2785 -0.8302
  222MOL0     H30620   1.650   0.917  10.838 -0.4057  2.4636  0.7362
  222MOL0     H30621   1.638   0.871  10.600 -2.2516  1.7471  1.5754
  222MOL0     H30622   1.630   0.822  10.242 -0.4714 -0.2100 -1.2481
  222MOL0     H30623   1.566   0.771   9.997  0.3021  1.6346 -2.3605
  222MOL0     H30624   1.847   0.638   9.775  0.8398 -0.8356 -0.8632
  222MOL0     H30625   1.677   0.607   9.748  1.5570 -1.1580  1.2312
  222MOL0     H30626   1.872   0.766   9.581 -0.0705  1.0859 -1.8910
  222MOL0     H30627   1.702   0.781   9.558 -1.2533  0.0074  2.1041
  222MOL0     H30628   1.832   0.497   9.547 -1.7635 -0.3094  0.4146
  222MOL0     H30629   1.703   0.574   9.455 -0.5991  0.1020  0.8716
  222MOL0     H30630   1.899   0.532   9.299  1.4545  1.0666 -1.5203
  222MOL0     H30631   2.000   0.619   9.419 -0.3757  1.9843  1.0685
  222MOL0     H30632   1.865   0.916   9.173 -0.5941 -2.3788 -1.8325
  222MOL0     H30633   1.933   0.862   9.854 -1.5452 -2.0044 -1.2006
  222MOL0     H30634   2.121   0.967  10.150  3.2716 -1.8409  0.8237
  222MOL0     H30635   2.116   0.796  10.140  4.6964  3.1739  2.0941
  222MOL0     H30636   2.115   0.894   9.985  0.8148  3.6341  0.5965
  223MOL0     O30637   2.418   4.399   1.426  0.0268  0.8755  0.1952
  223MOL0     C30638   2.381   4.515   1.418 -0.1448  0.7019 -1.2587
  223MOL0     O30639   2.407   4.597   1.514 -0.3655  0.3792  0.7883
  223MOL0     C30640   2.442   4.552   1.632 -1.1403  1.0390 -0.7339
  223MOL0     C30641   2.565   4.572   1.695 -0.4396 -0.4031 -1.3763
  223MOL0     C30642   2.589   4.528   1.829 -0.5631  0.0736 -0.2436
  223MOL0     C30643   2.489   4.456   1.903  0.1726  0.0732  0.2506
  223MOL0     O30644   2.522   4.408   2.023 -0.0940  0.0258  0.2006
  223MOL0     C30645   2.424   4.360   2.117 -0.3149  0.4218  0.3623
  223MOL0     C30646   2.495   4.336   2.254 -0.3058 -0.0414  0.4005
  223MOL0     C30647   2.399   4.238   2.340 -0.1756 -0.3428 -0.5852
  223MOL0     C30648   2.454   4.174   2.472  0.2160 -0.3522 -0.3659
  223MOL0     C30649   2.345   4.091   2.550 -0.2885  1.1534 -0.5197
  223MOL0     C30650   2.399   4.026   2.675 -0.6627 -0.6092  0.7458
  223MOL0     C30651   2.298   3.929   2.732  0.7485 -0.5081  0.4874
  223MOL0     C30652   2.301   3.890   2.875 -0.5291 -0.1436 -0.8946
  223MOL0     N30653   2.431   3.821   2.904 -0.9446  0.8199  0.8372
  223MOL0     C30654   2.546   3.887   2.928  0.3234  0.1036 -0.3165
  223MOL0     C30655   2.624   3.782   2.976 -0.4167  0.3690  0.5349
  223MOL0     C30656   2.769   3.802   3.008 -0.6035  0.1309 -0.3400
  223MOL0     C30657   2.771   3.786   3.172  0.2549 -0.5335  0.2421
  223MOL0     C30658   2.772   3.644   3.217  0.1632 -0.0113  0.5277
  223MOL0     C30659   2.795   3.619   3.372  0.5278  0.7787 -0.0580
  223MOL0     O30660   2.876   3.504   3.395  0.1509  1.0266 -0.1384
  223MOL0     C30661   2.820   3.381   3.380 -0.2701  0.9553  0.0877
  223MOL0     C30662   2.715   3.345   3.461  0.1250  0.2910  0.8494
  223MOL0     C30663   2.643   3.222   3.452 -0.7450  0.6982  0.9432
  223MOL0     C30664   2.533   3.195   3.549  0.1089  0.2757  0.3151
  223MOL0     C30665   2.670   3.142   3.338  0.4428 -0.0499  0.2158
  223MOL0     C30666   2.598   3.005   3.308  0.0093 -0.5629  0.0501
  223MOL0     O30667   2.609   2.952   3.174 -0.0369  0.0772 -0.6368
  223MOL0     C30668   2.546   2.832   3.144 -0.2735 -0.0628  0.3814
  223MOL0     C30669   2.409   2.816   3.150  0.1456 -0.2076 -0.1422
  223MOL0     C30670   2.349   2.696   3.136  0.0591 -0.0926 -0.4951
  223MOL0     C30671   2.416   2.594   3.081  0.1283 -0.2325 -0.4690
  223MOL0     O30672   2.337   2.489   3.061 -0.3360  0.0544 -0.3618
  223MOL0     C30673   2.384   2.359   3.012 -0.3660 -0.0371  0.9225
  223MOL0     C30674   2.261   2.264   3.011 -0.0775  0.4982 -0.2128
  223MOL0     C30675   2.309   2.132   2.963  0.1522  0.2239 -0.3572
  223MOL0     C30676   2.204   2.028   2.999  0.4042  0.5773 -0.0018
  223MOL0     C30677   2.195   1.911   2.895  0.1658 -0.3886  0.0146
  223MOL0     C30678   2.095   1.800   2.930  0.4904  0.3185 -0.1315
  223MOL0     C30679   1.949   1.854   2.926 -0.6216  0.0281  0.5427
  223MOL0     C30680   1.894   1.863   2.786  0.2548  0.5053  0.9133
  223MOL0    Cl30681   1.872   1.712   2.709  0.0513 -0.4266  0.1911
  223MOL0     C30682   2.563   2.604   3.074 -0.0764  0.1137  0.1967
  223MOL0     C30683   2.623   2.724   3.109 -0.4167  0.5948  0.0020
  223MOL0     O30684   2.542   2.946   3.401 -0.2232 -0.6531  0.1031
  223MOL0     C30685   2.779   3.171   3.260 -1.0583 -0.0060  0.2679
  223MOL0     C30686   2.861   3.288   3.282  0.6321  0.4911  0.6532
  223MOL0     N30687   2.548   3.663   2.970 -0.0078  0.5665  0.4719
  223MOL0     N30688   2.435   3.689   2.924  0.6018  0.0958  0.6109
  223MOL0     C30689   2.376   4.431   1.839  0.3946 -0.7882  0.5758
  223MOL0     C30690   2.344   4.474   1.703 -0.4441  0.6295 -0.7531
  223MOL0     C30691   2.314   4.563   1.302  0.1646 -0.0787 -0.6106
  223MOL0     C30692   2.252   4.474   1.212 -0.0407  0.0008 -0.4860
  223MOL0     C30693   2.178   4.521   1.098 -0.2929  0.7237 -0.2194
  223MOL0     C30694   2.158   4.655   1.068  0.0597  0.0357  0.0830
  223MOL0     O30695   2.081   4.691   0.964 -0.0787 -0.1516 -0.0482
  223MOL0     C30696   2.061   4.833   0.935  0.2042 -0.1643 -0.0809
  223MOL0     C30697   1.948   4.903   1.004  0.1506  0.6841 -0.5864
  223MOL0     C30698   1.956   5.053   1.015  0.0378  0.0787 -0.3114
  223MOL0     C30699   1.957   5.108   0.872 -0.8590 -0.7158  0.0335
  223MOL0     C30700   2.097   5.153   0.833  0.6433 -0.2412  0.2904
  223MOL0     C30701   2.209   5.197   0.801  1.0466  0.1058  0.8997
  223MOL0     C30702   2.221   4.740   1.153  0.1442 -0.7070 -0.5914
  223MOL0     C30703   2.303   4.698   1.262 -0.5957 -0.2579 -0.8754
  223MOL0     C30704   2.367   4.814   1.344 -0.7513 -1.4276 -0.0019
  223MOL0     H30705   2.636   4.634   1.641  1.7670 -0.7425  0.9451
  223MOL0     H30706   2.680   4.553   1.882 -1.4569  1.7819  0.5748
  223MOL0     H30707   2.382   4.265   2.083  1.2073  0.0106 -0.4450
  223MOL0     H30708   2.342   4.433   2.119 -2.3217 -1.2627 -4.5329
  223MOL0     H30709   2.588   4.282   2.232 -0.4398  0.1948 -0.7977
  223MOL0     H30710   2.515   4.428   2.310 -0.2455  0.3995 -0.3367
  223MOL0     H30711   2.310   4.293   2.373  1.4045  1.3209  1.1782
  223MOL0     H30712   2.365   4.161   2.271 -1.4891  2.2005 -3.0117
  223MOL0     H30713   2.526   4.101   2.432 -0.1530  0.9407 -3.7869
  223MOL0     H30714   2.488   4.255   2.536 -1.6929  0.5759 -0.4728
  223MOL0     H30715   2.306   4.013   2.485 -0.8117 -2.1997  3.4071
  223MOL0     H30716   2.255   4.148   2.575 -0.4948  0.0614  1.4117
  223MOL0     H30717   2.495   3.979   2.653  0.0589  0.0960  2.2608
  223MOL0     H30718   2.423   4.109   2.741  3.1978 -0.7713 -0.2398
  223MOL0     H30719   2.300   3.847   2.659  0.5075  0.2913 -0.4337
  223MOL0     H30720   2.196   3.967   2.721 -0.1748 -2.0791  2.9124
  223MOL0     H30721   2.281   3.974   2.942 -0.8886 -0.8970 -0.0248
  223MOL0     H30722   2.227   3.819   2.915 -1.0186  0.8383 -0.0019
  223MOL0     H30723   2.580   3.988   2.908 -0.9945  0.1619 -2.6506
  223MOL0     H30724   2.804   3.904   2.991 -1.7662  1.5304  4.1659
  223MOL0     H30725   2.840   3.735   2.958  0.2687  1.4340 -0.9157
  223MOL0     H30726   2.867   3.829   3.203 -0.5310  1.2547  0.2917
  223MOL0     H30727   2.689   3.841   3.219  1.0964 -0.4483  1.6589
  223MOL0     H30728   2.683   3.589   3.185  0.0400  0.1076  0.6672
  223MOL0     H30729   2.860   3.593   3.175 -1.3760 -3.4581  1.0939
  223MOL0     H30730   2.840   3.705   3.423  1.1161  1.6473 -1.9722
  223MOL0     H30731   2.694   3.602   3.412  1.1316  2.0063  2.1318
  223MOL0     H30732   2.698   3.431   3.526 -1.7307  2.6478 -2.4546
  223MOL0     H30733   2.543   3.260   3.637  1.0015  0.3462  0.1657
  223MOL0     H30734   2.527   3.091   3.579 -3.0180  0.1680 -0.2573
  223MOL0     H30735   2.441   3.213   3.492  1.1198 -0.7225 -1.7416
  223MOL0     H30736   2.347   2.902   3.174  0.1145 -0.6395  1.4416
  223MOL0     H30737   2.241   2.684   3.147  0.0859 -2.4748 -2.1215
  223MOL0     H30738   2.422   2.374   2.910 -0.9297  1.0905  0.8581
  223MOL0     H30739   2.472   2.325   3.067 -0.5254 -3.7750 -0.8237
  223MOL0     H30740   2.236   2.261   3.117  0.7840  0.1238 -0.0168
  223MOL0     H30741   2.179   2.295   2.945 -1.4732 -0.4683  1.0127
  223MOL0     H30742   2.406   2.098   3.001 -0.6722 -0.7908  0.9587
  223MOL0     H30743   2.331   2.133   2.856 -0.9680  0.6554 -0.5977
  223MOL0     H30744   2.103   2.069   3.002 -0.5049 -1.5252  0.3742
  223MOL0     H30745   2.232   1.978   3.092  1.1346  1.6012  0.3411
  223MOL0     H30746   2.170   1.963   2.802 -2.0770  1.3460  1.4661
  223MOL0     H30747   2.290   1.859   2.881 -0.1002 -1.0465  0.5767
  223MOL0     H30748   2.116   1.769   3.033 -1.8245  0.5050  0.4549
  223MOL0     H30749   2.102   1.704   2.878 -0.6737 -1.7576  3.2122
  223MOL0     H30750   1.944   1.946   2.984  2.9446 -1.1310  2.9834
  223MOL0     H30751   1.879   1.788   2.978 -0.7521 -0.4233 -0.1820
  223MOL0     H30752   1.960   1.927   2.728 -1.3595  1.1805 -0.2609
  223MOL0     H30753   1.794   1.907   2.784 -0.8781 -1.8891  0.5720
  223MOL0     H30754   2.636   2.529   3.049 -0.5887 -0.0738 -0.7716
  223MOL0     H30755   2.730   2.724   3.089 -0.7291 -5.1488 -3.9680
  223MOL0     H30756   2.801   3.110   3.173 -2.2956  2.3505 -1.8397
  223MOL0     H30757   2.938   3.304   3.207 -0.6701 -3.5440 -1.8601
  223MOL0     H30758   2.307   4.365   1.891 -1.2500  1.1155  0.9494
  223MOL0     H30759   2.245   4.448   1.666 -0.9056  3.3156 -1.5931
  223MOL0     H30760   2.259   4.367   1.224  0.4361 -0.2686 -2.6167
  223MOL0     H30761   2.133   4.456   1.023 -0.3550  2.3811 -1.6958
  223MOL0     H30762   2.154   4.889   0.932  0.2340 -0.0540  1.9125
  223MOL0     H30763   2.031   4.850   0.831 -2.2253  1.6468  0.7984
  223MOL0     H30764   1.952   4.863   1.106 -0.8814 -3.1665 -1.9027
  223MOL0     H30765   1.850   4.870   0.969  0.0026 -1.2627  1.4903
  223MOL0     H30766   1.875   5.080   1.082  0.2696  3.6798 -1.2783
  223MOL0     H30767   2.041   5.080   1.078 -0.0700  1.8712 -0.8881
  223MOL0     H30768   1.887   5.192   0.860  3.5360  3.3000 -0.6773
  223MOL0     H30769   1.937   5.031   0.797  1.2302 -0.7534 -0.5678
  223MOL0     H30770   2.304   5.245   0.786  0.3012  1.1257 -0.8465
  223MOL0     H30771   2.217   4.847   1.137  0.0906 -0.1251  2.5482
  223MOL0     H30772   2.338   4.914   1.312  1.6303 -0.3820  0.8513
  223MOL0     H30773   2.340   4.825   1.450  0.2408  2.1482 -0.0132
  223MOL0     H30774   2.476   4.815   1.335 -0.7898  0.7009 -0.7245
  224MOL0     O30775   9.817   2.282   8.069 -0.4121  0.4063  1.1927
  224MOL0     C30776   9.714   2.216   8.048  0.2604  0.7357  0.4907
  224MOL0     O30777   9.718   2.084   8.014  0.7418  0.2964 -0.3899
  224MOL0     C30778   9.839   2.032   7.968  0.3336  0.1983  0.6284
  224MOL0     C30779   9.870   2.028   7.830 -0.1398 -0.8730  0.0614
  224MOL0     C30780   9.995   1.984   7.784 -0.0759 -0.2027  0.5455
  224MOL0     C30781  10.104   1.960   7.877  0.8373  0.2580 -0.3785
  224MOL0     O30782  10.228   1.922   7.847 -0.6527  0.3713 -0.4951
  224MOL0     C30783  10.265   1.893   7.708  0.0537  1.0565  0.0088
  224MOL0     C30784  10.401   1.839   7.705  0.3534  0.1505  0.4858
  224MOL0     C30785  10.429   1.761   7.575  0.4100 -0.0606 -0.2237
  224MOL0     C30786  10.553   1.673   7.604  0.9481 -0.4152 -0.8383
  224MOL0     C30787  10.611   1.637   7.477 -0.1911  0.0484  0.3347
  224MOL0     C30788  10.736   1.563   7.509 -0.4925  1.1072  0.5785
  224MOL0     C30789  10.809   1.516   7.382  0.1154 -0.0842 -0.2652
  224MOL0     C30790  10.924   1.415   7.406 -0.0694  0.3288 -0.6101
  224MOL0     N30791  11.053   1.422   7.326  1.1815 -1.0026 -0.1184
  224MOL0     C30792  11.099   1.548   7.317  1.1717  0.1645 -0.7534
  224MOL0     C30793  11.206   1.531   7.229  0.0248  0.3339 -0.4211
  224MOL0     C30794  11.286   1.652   7.194  0.0682 -0.6709 -0.1718
  224MOL0     C30795  11.389   1.690   7.307 -0.0012 -0.6470 -0.2231
  224MOL0     C30796  11.465   1.823   7.273  0.0179 -0.1887  0.4968
  224MOL0     C30797  11.569   1.851   7.377  0.7209  0.4149  0.4664
  224MOL0     O30798  11.669   1.939   7.330  0.0423 -0.4944  0.3960
  224MOL0     C30799  11.792   1.889   7.298 -0.8319  0.4229  0.4159
  224MOL0     C30800  11.870   1.851   7.407  0.1408  0.8203  0.0482
  224MOL0     C30801  11.988   1.771   7.382 -0.5512 -0.4641 -0.7899
  224MOL0     C30802  12.070   1.735   7.494 -0.2953  0.1820 -0.2653
  224MOL0     C30803  12.039   1.763   7.245  0.7625 -0.3036  0.1593
  224MOL0     C30804  12.177   1.729   7.208  0.0763  0.0650 -0.9463
  224MOL0     O30805  12.222   1.769   7.085 -0.8165  0.3212 -0.5232
  224MOL0     C30806  12.356   1.782   7.064  0.4646 -0.3156  0.9803
  224MOL0     C30807  12.415   1.908   7.064 -0.6971  0.3969  0.0753
  224MOL0     C30808  12.547   1.922   7.036  0.1904 -0.3601  0.8433
  224MOL0     C30809  12.630   1.810   6.999 -0.4051 -1.2513  0.9014
  224MOL0     O30810  12.763   1.836   6.976  0.7560 -0.4758  0.0494
  224MOL0     C30811  12.859   1.740   7.023 -0.2593  0.3012 -0.6689
  224MOL0     C30812  12.943   1.678   6.911  0.6458  1.0950 -0.0407
  224MOL0     C30813  12.851   1.582   6.829 -0.6241  0.6095  0.1537
  224MOL0     C30814  12.926   1.539   6.705 -0.2825 -0.2747 -0.0451
  224MOL0     C30815  12.864   1.452   6.604  0.3430 -0.5532  0.3465
  224MOL0     C30816  12.855   1.309   6.649 -0.0229 -0.6296  0.3189
  224MOL0     C30817  12.792   1.224   6.532 -1.2495 -0.9548 -0.8602
  224MOL0     C30818  12.772   1.078   6.568  0.1949  0.8345  0.5825
  224MOL0    Cl30819  12.923   1.004   6.632 -0.1000  0.1165  0.3582
  224MOL0     C30820  12.563   1.691   6.995 -0.2269 -0.2135  0.0857
  224MOL0     C30821  12.436   1.674   7.029  0.0587 -0.4205 -0.2066
  224MOL0     O30822  12.245   1.673   7.294  0.6732 -0.0751 -0.7986
  224MOL0     C30823  11.953   1.799   7.135  0.2301  0.3764 -0.7832
  224MOL0     C30824  11.829   1.855   7.162  0.6776 -0.0613 -0.0655
  224MOL0     N30825  11.217   1.394   7.189  0.3942  0.1727  0.5309
  224MOL0     N30826  11.122   1.337   7.241 -0.1129 -0.4033  0.2969
  224MOL0     C30827  10.066   1.954   8.013 -0.2135 -0.5551 -0.3368
  224MOL0     C30828   9.934   1.983   8.059 -0.5445  0.4515 -0.1081
  224MOL0     C30829   9.581   2.272   8.068 -0.1114 -0.6345 -0.2292
  224MOL0     C30830   9.462   2.201   8.032  0.4162 -0.7122  0.1671
  224MOL0     C30831   9.333   2.259   8.025  0.7397  0.0170 -0.9165
  224MOL0     C30832   9.323   2.391   8.074 -1.1486  0.6396  0.3902
  224MOL0     O30833   9.209   2.467   8.062  0.4762  0.0754 -0.3354
  224MOL0     C30834   9.085   2.416   8.015 -0.6207  0.0531 -0.7263
  224MOL0     C30835   8.975   2.512   8.045  0.5907 -1.5660  0.3000
  224MOL0     C30836   8.846   2.439   8.015 -0.6214 -0.5119  0.1366
  224MOL0     C30837   8.734   2.515   8.082 -0.0270 -0.7981 -0.6233
  224MOL0     C30838   8.603   2.454   8.035  0.6612 -0.3282 -1.4399
  224MOL0     C30839   8.491   2.408   8.026  0.4343 -0.2699  0.6187
  224MOL0     C30840   9.438   2.460   8.115  0.4440  0.3768 -0.5459
  224MOL0     C30841   9.572   2.411   8.110  0.0530  0.2246  0.8483
  224MOL0     C30842   9.675   2.505   8.160  0.0199 -0.1033  0.0588
  224MOL0     H30843   9.786   2.055   7.766 -0.4100  1.0445  1.1589
  224MOL0     H30844  10.012   1.969   7.678  3.2383 -1.6225  1.1277
  224MOL0     H30845  10.272   1.991   7.659  1.0508  2.2077  2.2862
  224MOL0     H30846  10.188   1.829   7.664  0.0737  1.7717 -1.1075
  224MOL0     H30847  10.476   1.919   7.709  1.5541 -0.9109 -0.3458
  224MOL0     H30848  10.417   1.778   7.794 -3.0176  2.1454  2.6805
  224MOL0     H30849  10.348   1.689   7.560 -0.9002  0.8618  1.8979
  224MOL0     H30850  10.440   1.823   7.486 -0.5889 -0.2328 -0.4768
  224MOL0     H30851  10.619   1.722   7.676  2.9232 -2.1411 -1.3731
  224MOL0     H30852  10.517   1.578   7.645  0.8552 -0.3199 -0.6984
  224MOL0     H30853  10.635   1.720   7.410  0.4469  0.6707  1.3237
  224MOL0     H30854  10.536   1.579   7.422 -2.8755  2.6568  1.0057
  224MOL0     H30855  10.797   1.629   7.572  0.5988  0.0446  0.6718
  224MOL0     H30856  10.711   1.473   7.565  1.2027  2.3235  3.4959
  224MOL0     H30857  10.860   1.605   7.344  1.3894 -1.4321 -1.8449
  224MOL0     H30858  10.740   1.480   7.305 -0.1357  1.9963 -1.0793
  224MOL0     H30859  10.954   1.433   7.510 -0.5728 -0.7671 -0.2618
  224MOL0     H30860  10.896   1.309   7.398 -1.7546  0.5038  1.8407
  224MOL0     H30861  11.056   1.635   7.367 -0.4110 -0.1911 -1.4368
  224MOL0     H30862  11.225   1.742   7.185  1.7872  0.7348  1.3244
  224MOL0     H30863  11.335   1.637   7.097  0.6469 -1.9017  0.2830
  224MOL0     H30864  11.323   1.709   7.392  0.6188  2.6667 -0.3250
  224MOL0     H30865  11.455   1.605   7.328 -0.4407 -0.9028  0.1445
  224MOL0     H30866  11.528   1.816   7.183  0.5097 -3.7973  0.9587
  224MOL0     H30867  11.406   1.913   7.256  1.6855  0.1616 -5.9474
  224MOL0     H30868  11.520   1.883   7.470 -0.6774 -0.6739  0.1400
  224MOL0     H30869  11.618   1.758   7.407 -1.7159 -0.8044  0.9890
  224MOL0     H30870  11.826   1.874   7.503  0.5150  2.4162 -0.1322
  224MOL0     H30871  12.016   1.728   7.589 -2.5534 -0.2002 -1.5025
  224MOL0     H30872  12.144   1.809   7.526  1.3861 -0.7406 -1.8601
  224MOL0     H30873  12.115   1.636   7.488  0.4888  0.3073  2.4244
  224MOL0     H30874  12.345   1.989   7.085 -4.8753 -3.3744  2.3819
  224MOL0     H30875  12.592   2.021   7.044 -0.7870  0.0758  1.1112
  224MOL0     H30876  12.928   1.781   7.097 -1.5199  1.4270 -0.0663
  224MOL0     H30877  12.801   1.663   7.074 -1.1999  1.5879  0.2801
  224MOL0     H30878  12.989   1.757   6.851 -0.2656  2.1058  0.5514
  224MOL0     H30879  13.027   1.625   6.957  0.6685  3.3117  2.7628
  224MOL0     H30880  12.750   1.616   6.807 -0.1879  0.2853 -2.7050
  224MOL0     H30881  12.835   1.493   6.890 -1.4007 -0.7255 -1.8832
  224MOL0     H30882  13.019   1.489   6.730  0.1685  1.0915  1.1823
  224MOL0     H30883  12.958   1.628   6.650  0.3610 -1.4878 -1.7198
  224MOL0     H30884  12.758   1.476   6.587  0.1886 -0.3672  1.4761
  224MOL0     H30885  12.912   1.458   6.506  1.6873 -1.0474  0.9612
  224MOL0     H30886  12.786   1.292   6.732  1.6811  0.0418  1.9491
  224MOL0     H30887  12.952   1.264   6.673  0.5309  0.4301  0.1416
  224MOL0     H30888  12.862   1.233   6.448  0.6620 -0.0640  0.7495
  224MOL0     H30889  12.698   1.274   6.506  0.2179  2.9674  0.6176
  224MOL0     H30890  12.746   1.015   6.482 -0.1892 -3.1060  3.3395
  224MOL0     H30891  12.698   1.060   6.646 -0.4764  0.6638 -0.0843
  224MOL0     H30892  12.605   1.594   6.970  1.8700  0.7985 -0.5689
  224MOL0     H30893  12.387   1.578   7.040  0.1022 -0.2005  2.3926
  224MOL0     H30894  11.982   1.767   7.036  1.2858 -0.7732 -0.1319
  224MOL0     H30895  11.761   1.889   7.085  1.5628  2.1354  0.0468
  224MOL0     H30896  10.136   1.937   8.094 -3.0139  2.7454  3.1533
  224MOL0     H30897   9.907   1.979   8.164 -0.9709  1.3827 -0.1771
  224MOL0     H30898   9.475   2.101   7.990  1.3901 -0.8265  0.6988
  224MOL0     H30899   9.244   2.212   7.986 -2.4295  4.8913 -0.3887
  224MOL0     H30900   9.096   2.409   7.906  1.0891 -4.1081 -0.4725
  224MOL0     H30901   9.068   2.315   8.052 -1.5400 -0.8877 -3.4636
  224MOL0     H30902   8.973   2.604   7.985 -0.0289 -2.6410 -1.4016
  224MOL0     H30903   8.970   2.539   8.151 -0.8522 -0.5719  0.0245
  224MOL0     H30904   8.829   2.427   7.907 -3.3534  0.2249  0.4029
  224MOL0     H30905   8.861   2.346   8.069  2.4122  0.0727  0.4709
  224MOL0     H30906   8.746   2.619   8.051  1.6480 -1.6498 -3.2529
  224MOL0     H30907   8.748   2.510   8.190  0.7304  1.0175 -0.6022
  224MOL0     H30908   8.393   2.376   7.996 -0.1530 -0.5132  2.6642
  224MOL0     H30909   9.435   2.567   8.130  0.1756  0.3093 -0.0763
  224MOL0     H30910   9.737   2.452   8.233 -0.4476 -0.1216  0.4457
  224MOL0     H30911   9.728   2.538   8.070 -1.6060 -0.0164 -0.9129
  224MOL0     H30912   9.627   2.585   8.217  0.7924  0.4443 -0.0594
  225MOL0     O30913   5.200   6.052   9.806 -0.0833 -0.4304 -0.1971
  225MOL0     C30914   5.252   5.958   9.862 -0.1191  0.4881 -0.4885
  225MOL0     O30915   5.186   5.871   9.956 -0.2373 -0.4249  0.5120
  225MOL0     C30916   5.048   5.854   9.951 -0.6915  0.2141  0.5750
  225MOL0     C30917   4.962   5.891   9.851 -0.7325 -0.0983  0.3826
  225MOL0     C30918   4.823   5.886   9.881  0.2860 -0.3063  0.3686
  225MOL0     C30919   4.772   5.825  10.001  0.6994  0.1685  0.0348
  225MOL0     O30920   4.634   5.821  10.007 -0.0963  0.0626 -0.2655
  225MOL0     C30921   4.582   5.799  10.139 -0.4238  0.4347 -0.1027
  225MOL0     C30922   4.438   5.846  10.141  0.8249  0.2707  0.4403
  225MOL0     C30923   4.345   5.768  10.037  0.8819 -0.2846 -0.9223
  225MOL0     C30924   4.375   5.625  10.015 -0.5957  0.2838  0.1367
  225MOL0     C30925   4.261   5.566   9.930  0.6444  0.1767  0.3243
  225MOL0     C30926   4.282   5.418   9.901 -0.5236 -0.5195  0.4408
  225MOL0     C30927   4.168   5.351   9.815 -0.0678  0.3943 -0.2644
  225MOL0     C30928   4.042   5.299   9.899  0.0219 -0.5765  0.5370
  225MOL0     N30929   3.923   5.289   9.812  0.2160 -0.7515  0.2038
  225MOL0     C30930   3.917   5.297   9.672 -1.4090 -0.4063  1.2799
  225MOL0     C30931   3.783   5.274   9.640 -0.9389 -0.1800 -0.1095
  225MOL0     C30932   3.724   5.268   9.505 -0.1778 -0.0596  0.6621
  225MOL0     C30933   3.735   5.132   9.439 -0.0820 -0.3788 -0.4060
  225MOL0     C30934   3.738   5.153   9.286  0.5433  0.8220  0.7880
  225MOL0     C30935   3.771   5.018   9.215 -0.7696 -0.6584 -0.6968
  225MOL0     O30936   3.910   4.987   9.231  0.7788  0.7062 -0.1417
  225MOL0     C30937   3.944   4.853   9.221 -1.0968  0.1648  0.7292
  225MOL0     C30938   4.084   4.811   9.237  0.0661 -1.1851  0.3962
  225MOL0     C30939   4.131   4.681   9.235 -0.2427 -0.1388  0.1439
  225MOL0     C30940   4.285   4.658   9.239  0.2158 -0.2038 -0.0102
  225MOL0     C30941   4.036   4.580   9.202 -0.1106 -0.5476 -1.0568
  225MOL0     C30942   4.075   4.438   9.172 -0.1663 -1.1502 -0.3896
  225MOL0     O30943   3.984   4.338   9.197 -0.3061 -0.5377  0.0848
  225MOL0     C30944   3.989   4.247   9.094 -0.3883 -0.1793 -0.0254
  225MOL0     C30945   3.909   4.266   8.978 -0.2045 -0.7756  0.1701
  225MOL0     C30946   3.904   4.176   8.877  0.4283  0.4776  0.0793
  225MOL0     C30947   3.991   4.068   8.872  0.4626 -0.2075 -0.2949
  225MOL0     O30948   3.999   3.979   8.768  0.4791 -0.4643 -0.6441
  225MOL0     C30949   3.893   3.970   8.679  0.2668 -0.5224 -0.3837
  225MOL0     C30950   3.900   3.838   8.603 -0.4326 -0.9757  0.0304
  225MOL0     C30951   4.004   3.841   8.488  0.1934 -0.2761 -0.8253
  225MOL0     C30952   4.036   3.702   8.414 -0.1931 -0.3022  0.5650
  225MOL0     C30953   3.922   3.685   8.312  0.0071 -0.7598 -0.5139
  225MOL0     C30954   3.957   3.592   8.194  0.1419  0.7121 -0.3366
  225MOL0     C30955   3.981   3.444   8.241 -0.0308 -0.2743  0.2992
  225MOL0     C30956   3.933   3.342   8.139  0.1729  0.2393 -0.4251
  225MOL0    Cl30957   3.976   3.184   8.202 -0.1366  0.5437 -0.3717
  225MOL0     C30958   4.071   4.045   8.985  0.0379  0.5559  0.1173
  225MOL0     C30959   4.071   4.133   9.095  0.1521  0.5043 -0.0750
  225MOL0     O30960   4.191   4.419   9.130  0.9570  0.1970  0.2014
  225MOL0     C30961   3.899   4.615   9.182 -0.8591 -0.1155 -0.1745
  225MOL0     C30962   3.857   4.746   9.187  0.0544 -0.1426  0.6122
  225MOL0     N30963   3.715   5.233   9.749  0.5718 -0.7175 -0.6887
  225MOL0     N30964   3.801   5.253   9.849 -0.4369 -0.1031  0.1066
  225MOL0     C30965   4.861   5.783  10.095 -0.2975  0.4201 -0.8591
  225MOL0     C30966   4.995   5.798  10.068 -0.6185 -0.6650 -0.3430
  225MOL0     C30967   5.390   5.923   9.832  0.1613 -0.0266 -0.1358
  225MOL0     C30968   5.454   5.826   9.918  0.1136 -0.3713  0.5554
  225MOL0     C30969   5.589   5.810   9.905  0.5585  0.3983  1.2534
  225MOL0     C30970   5.673   5.885   9.817  0.4978  0.3334 -0.5983
  225MOL0     O30971   5.811   5.877   9.834 -0.0898 -0.6449  0.2873
  225MOL0     C30972   5.909   5.972   9.781  0.7240  0.2312  0.7820
  225MOL0     C30973   6.031   5.992   9.876 -0.2512  0.2346  0.1948
  225MOL0     C30974   6.123   5.867   9.879 -0.3461 -0.5470  0.6302
  225MOL0     C30975   6.111   5.766   9.995  0.1934  0.7241 -0.7740
  225MOL0     C30976   6.207   5.660   9.981 -1.2556  0.9261 -0.8356
  225MOL0     C30977   6.307   5.589   9.969 -0.2244  0.1543  0.8652
  225MOL0     C30978   5.607   5.962   9.724 -0.4192 -0.9482  0.3708
  225MOL0     C30979   5.470   5.978   9.721  0.8034 -0.3859  0.2335
  225MOL0     C30980   5.405   6.058   9.603 -0.4708 -0.2248 -0.2388
  225MOL0     H30981   4.974   5.915   9.746 -1.8816  0.1758  0.3038
  225MOL0     H30982   4.742   5.908   9.812 -2.6219 -3.9153  2.2597
  225MOL0     H30983   4.633   5.851  10.221 -1.6499 -0.0996  1.0353
  225MOL0     H30984   4.589   5.694  10.169 -1.1143  0.2933 -0.4166
  225MOL0     H30985   4.399   5.845  10.243 -2.4733  0.9933 -0.6867
  225MOL0     H30986   4.445   5.953  10.116  0.3621  0.0778 -0.5711
  225MOL0     H30987   4.243   5.784  10.075  0.6958 -0.5336 -1.3084
  225MOL0     H30988   4.354   5.811   9.937 -0.3984  0.5691 -0.6943
  225MOL0     H30989   4.459   5.614   9.946  1.0253  0.4705  1.9884
  225MOL0     H30990   4.401   5.571  10.107  1.1008 -1.3742 -1.2324
  225MOL0     H30991   4.249   5.626   9.839 -0.1184  4.2969  2.8643
  225MOL0     H30992   4.165   5.580   9.982 -0.2908 -0.2472 -1.2358
  225MOL0     H30993   4.381   5.402   9.856 -1.1215 -2.0871 -0.3837
  225MOL0     H30994   4.292   5.362   9.994  1.9791 -0.0578  0.5369
  225MOL0     H30995   4.221   5.264   9.775 -1.6103 -0.4611 -0.5689
  225MOL0     H30996   4.130   5.421   9.740 -0.7081 -1.5051 -1.8105
  225MOL0     H30997   4.061   5.199   9.939 -1.4832 -1.1808 -0.1776
  225MOL0     H30998   4.010   5.371   9.974 -2.8331 -2.7760  1.6046
  225MOL0     H30999   3.991   5.333   9.602 -0.4655 -0.0116  2.4444
  225MOL0     H31000   3.778   5.339   9.442 -1.0635 -0.4431 -0.5766
  225MOL0     H31001   3.621   5.304   9.514  0.4272  2.2659 -0.7266
  225MOL0     H31002   3.822   5.084   9.484  1.4499  0.8083 -1.9669
  225MOL0     H31003   3.644   5.081   9.473 -0.0077  0.2233  0.7352
  225MOL0     H31004   3.638   5.184   9.255  0.4341 -1.6726 -1.7693
  225MOL0     H31005   3.807   5.235   9.262  2.6066 -1.2452 -0.7574
  225MOL0     H31006   3.703   4.946   9.259 -1.7777  0.9354  0.4574
  225MOL0     H31007   3.747   5.042   9.110  2.1243  0.8452 -1.1230
  225MOL0     H31008   4.146   4.899   9.253 -0.7280 -0.2328 -1.4346
  225MOL0     H31009   4.326   4.630   9.142  1.8415 -1.1473  0.9015
  225MOL0     H31010   4.311   4.583   9.315 -1.6035 -2.0148 -1.1012
  225MOL0     H31011   4.333   4.753   9.265 -1.3681  0.5255  0.4050
  225MOL0     H31012   3.856   4.361   8.975  2.3511  0.7593  0.2375
  225MOL0     H31013   3.826   4.189   8.803  1.8179  0.1095 -1.5031
  225MOL0     H31014   3.796   3.962   8.729 -0.9753 -0.4045 -2.6638
  225MOL0     H31015   3.893   4.052   8.607  2.3201  1.1597  1.3783
  225MOL0     H31016   3.924   3.756   8.671 -1.6574 -2.0928 -0.8300
  225MOL0     H31017   3.801   3.814   8.563  0.2493 -1.9184 -1.1929
  225MOL0     H31018   4.097   3.882   8.527  0.7418 -1.9505 -0.2825
  225MOL0     H31019   3.963   3.915   8.419 -1.6367 -0.6456 -0.2080
  225MOL0     H31020   4.050   3.617   8.481  3.7829 -1.3623 -1.2883
  225MOL0     H31021   4.121   3.692   8.345 -1.3624 -0.3670 -0.9113
  225MOL0     H31022   3.845   3.643   8.376  0.3897  0.8854  1.0985
  225MOL0     H31023   3.881   3.779   8.275  0.1027 -0.3610  0.3715
  225MOL0     H31024   4.035   3.640   8.134 -1.4098  2.5705 -0.9815
  225MOL0     H31025   3.877   3.585   8.120  2.6698 -1.2916 -3.1490
  225MOL0     H31026   3.929   3.424   8.335 -0.5638 -2.2463 -0.3575
  225MOL0     H31027   4.088   3.430   8.258  0.3076 -0.0008 -1.4459
  225MOL0     H31028   3.980   3.364   8.043 -1.2529  0.4820 -1.0990
  225MOL0     H31029   3.825   3.339   8.120  0.7594 -0.3331 -4.7168
  225MOL0     H31030   4.123   3.951   8.996 -1.9344 -0.3457  3.1210
  225MOL0     H31031   4.129   4.105   9.182  1.6335  0.4295 -1.0514
  225MOL0     H31032   3.824   4.544   9.149 -1.0690  0.2234 -0.4303
  225MOL0     H31033   3.751   4.770   9.197  0.2025  0.9832 -0.3576
  225MOL0     H31034   4.834   5.732  10.187 -0.0772 -1.9451 -2.0348
  225MOL0     H31035   5.071   5.769  10.140  1.1957  1.1304 -1.4163
  225MOL0     H31036   5.408   5.761   9.992 -2.6347  1.6325  0.7433
  225MOL0     H31037   5.624   5.728   9.968  0.0655 -1.0267 -0.2400
  225MOL0     H31038   5.935   5.948   9.678 -0.5462 -4.2962  1.3241
  225MOL0     H31039   5.851   6.064   9.765 -3.3831 -2.3918 -1.0893
  225MOL0     H31040   5.990   6.014   9.975 -1.3605 -3.1060  0.6232
  225MOL0     H31041   6.089   6.076   9.837 -0.8544  1.1467  1.2053
  225MOL0     H31042   6.103   5.801   9.794  1.6674 -0.3831 -0.0278
  225MOL0     H31043   6.228   5.897   9.879 -0.2844 -0.3471  3.9732
  225MOL0     H31044   6.009   5.724   9.999 -0.5482  2.0868 -3.3884
  225MOL0     H31045   6.128   5.818  10.090  0.4387 -0.0539 -0.3812
  225MOL0     H31046   6.395   5.530   9.952  0.7061  2.3376 -3.0559
  225MOL0     H31047   5.663   6.018   9.650 -2.0436  3.1461  1.9766
  225MOL0     H31048   5.464   6.077   9.513 -1.8471  2.1938 -0.7031
  225MOL0     H31049   5.314   6.002   9.578 -1.3489  0.4523  1.2996
  225MOL0     H31050   5.380   6.160   9.632  0.9683  0.1537 -0.2371
  226MOL0     O31051   3.396   5.869  10.465 -0.6666  0.3696  0.3858
  226MOL0     C31052   3.364   5.980  10.498  0.8185  1.0794  0.0680
  226MOL0     O31053   3.254   6.004  10.574 -0.5534  0.0270  0.1179
  226MOL0     C31054   3.182   5.894  10.620  0.3190 -0.3873  0.9724
  226MOL0     C31055   3.097   5.828  10.539 -0.8200 -0.2920  0.7827
  226MOL0     C31056   3.033   5.717  10.591  0.3726  0.1060 -1.0275
  226MOL0     C31057   3.051   5.668  10.724  0.0510 -0.2390  0.5233
  226MOL0     O31058   2.977   5.563  10.779  0.5754 -0.3192  0.0774
  226MOL0     C31059   3.067   5.448  10.799 -0.5764 -0.9589 -0.8892
  226MOL0     C31060   3.021   5.334  10.724  0.3044 -0.4360  0.4325
  226MOL0     C31061   3.092   5.206  10.768 -0.3994  0.2973  0.4205
  226MOL0     C31062   3.029   5.080  10.709 -0.2802 -0.0676  0.2972
  226MOL0     C31063   3.092   5.059  10.572  0.5332 -0.0841  0.8240
  226MOL0     C31064   3.042   4.922  10.521 -0.2602  0.4357  0.5903
  226MOL0     C31065   3.091   4.886  10.378 -0.0287  0.8479  0.5088
  226MOL0     C31066   3.245   4.914  10.364 -0.3569  0.5936 -0.1583
  226MOL0     N31067   3.293   4.839  10.252 -0.3607 -0.1669 -0.2213
  226MOL0     C31068   3.322   4.891  10.125  0.2005  0.5356 -0.4871
  226MOL0     C31069   3.364   4.778  10.053 -0.1954  0.8234 -0.1198
  226MOL0     C31070   3.383   4.785   9.907  0.7326  0.0388  0.5751
  226MOL0     C31071   3.494   4.873   9.866  1.1115 -1.1380  0.0615
  226MOL0     C31072   3.626   4.796   9.845 -0.4769  0.5467  0.3719
  226MOL0     C31073   3.693   4.847   9.719 -0.6331  0.1205 -0.3448
  226MOL0     O31074   3.607   4.824   9.609  0.2273  0.0073  0.3631
  226MOL0     C31075   3.602   4.704   9.543 -1.1618  0.4736 -0.5115
  226MOL0     C31076   3.683   4.598   9.555  0.1580  0.0434  0.1787
  226MOL0     C31077   3.685   4.482   9.470  0.9637  0.0273  0.1768
  226MOL0     C31078   3.786   4.371   9.509 -1.2978  0.9254  0.3823
  226MOL0     C31079   3.578   4.466   9.374 -0.2357 -0.4494 -0.1907
  226MOL0     C31080   3.579   4.356   9.269 -0.3734 -0.7880 -0.0487
  226MOL0     O31081   3.641   4.233   9.303  0.3457  0.0264  0.1272
  226MOL0     C31082   3.646   4.131   9.205  0.6637  0.0518  0.1227
  226MOL0     C31083   3.543   4.118   9.116 -1.0624  0.0125 -0.1288
  226MOL0     C31084   3.548   4.027   9.012 -0.7187  0.0811  0.4636
  226MOL0     C31085   3.650   3.931   9.013 -0.1545  0.6587  0.7902
  226MOL0     O31086   3.647   3.844   8.904 -0.0946 -0.0702 -0.5911
  226MOL0     C31087   3.728   3.723   8.900  0.1290  0.8714 -0.5575
  226MOL0     C31088   3.676   3.615   8.994 -0.5906 -0.2539 -0.2885
  226MOL0     C31089   3.544   3.554   8.950 -0.6432  0.2311  0.0067
  226MOL0     C31090   3.417   3.638   8.937 -0.7313 -0.2562 -0.0336
  226MOL0     C31091   3.298   3.554   8.876  0.6769 -0.7348 -1.0240
  226MOL0     C31092   3.242   3.436   8.961  0.1667  0.1361  0.1868
  226MOL0     C31093   3.127   3.377   8.877 -0.0203 -0.8526 -0.2034
  226MOL0     C31094   3.089   3.236   8.937  0.0792 -0.1141  0.9271
  226MOL0    Cl31095   3.004   3.267   9.092  0.1771 -0.7636  0.5257
  226MOL0     C31096   3.749   3.937   9.109  0.0699  0.3331 -0.3778
  226MOL0     C31097   3.752   4.033   9.209 -0.6493 -0.4708 -0.1078
  226MOL0     O31098   3.528   4.386   9.162  0.4001 -0.1660 -0.5918
  226MOL0     C31099   3.490   4.572   9.363 -0.2611 -0.9232  0.3067
  226MOL0     C31100   3.506   4.684   9.444  0.8335 -0.9196  0.3912
  226MOL0     N31101   3.361   4.669  10.136 -0.7259  0.1980 -0.7753
  226MOL0     N31102   3.318   4.699  10.258  0.0039 -0.8065 -0.0300
  226MOL0     C31103   3.131   5.742  10.806  0.0928  0.3102  0.4173
  226MOL0     C31104   3.195   5.863  10.755  0.1520  1.8463 -0.2909
  226MOL0     C31105   3.468   6.083  10.458 -0.4835  0.2468  0.0727
  226MOL0     C31106   3.478   6.198  10.536 -0.3665  0.2347  0.6616
  226MOL0     C31107   3.569   6.304  10.508  0.0282  0.1485 -0.3362
  226MOL0     C31108   3.664   6.287  10.401  1.0661  0.1150  0.0716
  226MOL0     O31109   3.769   6.379  10.379 -0.3980  0.9691 -0.1944
  226MOL0     C31110   3.774   6.499  10.457  0.0709  0.2383  0.0300
  226MOL0     C31111   3.854   6.601  10.384 -0.9746 -0.2002  0.4311
  226MOL0     C31112   3.793   6.671  10.260 -0.0683  0.1868  0.2912
  226MOL0     C31113   3.898   6.757  10.191  0.2543 -0.0911 -0.5549
  226MOL0     C31114   3.948   6.866  10.282 -0.2715  0.2542 -0.2963
  226MOL0     C31115   3.988   6.971  10.330  0.1155 -0.2054 -0.6325
  226MOL0     C31116   3.653   6.178  10.318 -0.3900  0.4138 -0.6383
  226MOL0     C31117   3.549   6.081  10.344 -0.2144 -1.4124  0.9873
  226MOL0     C31118   3.529   5.988  10.221  0.9319 -0.3318 -0.3961
  226MOL0     H31119   3.102   5.848  10.432  0.8408  2.3827  1.2626
  226MOL0     H31120   2.967   5.663  10.524 -1.8738  1.5988 -0.1548
  226MOL0     H31121   3.057   5.423  10.906  1.6372 -0.1702 -0.4614
  226MOL0     H31122   3.172   5.472  10.782 -0.6237  0.1218  0.2028
  226MOL0     H31123   2.913   5.323  10.741  0.1428  1.3028  0.7111
  226MOL0     H31124   3.026   5.348  10.616 -3.5308 -2.0127 -0.1273
  226MOL0     H31125   3.194   5.223  10.734  0.1806  0.1226  1.9796
  226MOL0     H31126   3.098   5.204  10.877  1.9148  1.6481  0.3923
  226MOL0     H31127   3.050   4.989  10.767  0.1327 -0.0179  0.2272
  226MOL0     H31128   2.921   5.096  10.702 -0.5142 -1.6744 -0.1140
  226MOL0     H31129   3.200   5.050  10.590  0.5341 -0.0077  0.8546
  226MOL0     H31130   3.072   5.144  10.507 -1.2468  0.0526  1.5101
  226MOL0     H31131   3.055   4.840  10.592 -1.1022  0.2676  0.5638
  226MOL0     H31132   2.933   4.931  10.519 -0.2771  0.1643 -0.0092
  226MOL0     H31133   3.025   4.953  10.322  0.0907  2.7381  2.4995
  226MOL0     H31134   3.068   4.781  10.358  0.0471  0.9134  0.0647
  226MOL0     H31135   3.263   5.021  10.353  0.5341  0.3813 -0.9288
  226MOL0     H31136   3.303   4.882  10.451  0.5752 -0.1275 -1.0195
  226MOL0     H31137   3.310   4.989  10.081 -1.7862 -1.2815 -4.4852
  226MOL0     H31138   3.293   4.829   9.864 -0.1758 -2.6734 -0.5253
  226MOL0     H31139   3.395   4.684   9.865  1.3817  0.1078  0.5799
  226MOL0     H31140   3.451   4.929   9.782  1.5775  0.1625  0.6565
  226MOL0     H31141   3.502   4.957   9.936 -1.1408  0.3949 -1.3573
  226MOL0     H31142   3.694   4.814   9.929  0.5394  1.3608 -0.5991
  226MOL0     H31143   3.606   4.689   9.848  3.7168 -0.3680  1.6087
  226MOL0     H31144   3.704   4.954   9.736 -0.3961  0.6447 -3.2807
  226MOL0     H31145   3.794   4.805   9.710 -0.1983  0.5217  1.9608
  226MOL0     H31146   3.760   4.614   9.630  2.1942 -1.5115 -1.4382
  226MOL0     H31147   3.864   4.413   9.573  1.9075 -1.2927 -1.7462
  226MOL0     H31148   3.833   4.337   9.416  3.8870 -3.1640  3.8624
  226MOL0     H31149   3.740   4.284   9.557 -2.6977  0.7259 -1.2159
  226MOL0     H31150   3.452   4.172   9.092 -0.4858  1.4694  0.8527
  226MOL0     H31151   3.469   4.024   8.938  1.4048  0.9787 -2.0083
  226MOL0     H31152   3.744   3.682   8.800  3.0735 -0.1608  0.2266
  226MOL0     H31153   3.829   3.751   8.931  0.1275  1.1874 -0.8345
  226MOL0     H31154   3.750   3.534   8.991 -0.1879  0.0164  1.5449
  226MOL0     H31155   3.672   3.662   9.093  1.9738  1.2596 -0.8193
  226MOL0     H31156   3.525   3.478   9.027 -0.7956 -0.6771 -0.9074
  226MOL0     H31157   3.558   3.507   8.853 -0.5985  1.2257 -0.4804
  226MOL0     H31158   3.425   3.727   8.873 -0.4238  0.0368  0.4030
  226MOL0     H31159   3.399   3.678   9.037 -1.5524 -3.0065  0.9980
  226MOL0     H31160   3.220   3.628   8.858  0.9887  0.3273  1.6598
  226MOL0     H31161   3.330   3.530   8.774  1.6222  1.5640 -1.3163
  226MOL0     H31162   3.215   3.471   9.061  1.1923  1.8855 -0.0997
  226MOL0     H31163   3.319   3.359   8.960 -1.2279 -1.3106 -0.2983
  226MOL0     H31164   3.157   3.348   8.776  3.3046  0.2210  0.3414
  226MOL0     H31165   3.040   3.443   8.879  1.3100  0.9801  0.8815
  226MOL0     H31166   3.177   3.183   8.976  0.0949 -0.4285  0.4810
  226MOL0     H31167   3.028   3.175   8.869 -0.6892  1.2384  0.3810
  226MOL0     H31168   3.829   3.863   9.108  0.4784  0.7722 -1.6284
  226MOL0     H31169   3.829   4.037   9.284 -1.8247  1.7704  1.0917
  226MOL0     H31170   3.418   4.571   9.281  2.4348 -2.2459 -2.2053
  226MOL0     H31171   3.429   4.756   9.420  0.6115 -1.2275  0.1757
  226MOL0     H31172   3.124   5.726  10.913 -0.1609  2.5194  0.7877
  226MOL0     H31173   3.249   5.913  10.835 -3.3500  0.5314  3.2150
  226MOL0     H31174   3.417   6.205  10.625  1.7207 -2.9076  2.5655
  226MOL0     H31175   3.573   6.396  10.565  1.9522  1.4157 -2.3391
  226MOL0     H31176   3.672   6.537  10.467 -1.5057 -2.4285 -3.3899
  226MOL0     H31177   3.819   6.471  10.552  0.9313  1.3280 -0.0431
  226MOL0     H31178   3.956   6.569  10.360 -1.3068 -0.5909 -0.5422
  226MOL0     H31179   3.878   6.677  10.459 -0.2415 -0.4205  0.4206
  226MOL0     H31180   3.757   6.600  10.184  4.5875 -2.0001 -0.2200
  226MOL0     H31181   3.701   6.722  10.288  0.0059  0.0284  0.8353
  226MOL0     H31182   3.846   6.811  10.111 -0.2351  1.7241  0.9015
  226MOL0     H31183   3.979   6.695  10.151 -2.8520 -4.2477 -1.0188
  226MOL0     H31184   4.003   7.070  10.369 -4.5027  0.4753  0.0054
  226MOL0     H31185   3.724   6.159  10.239 -0.5223 -3.1532 -0.0387
  226MOL0     H31186   3.423   5.989  10.196  0.6735 -1.9560  0.5033
  226MOL0     H31187   3.585   6.028  10.135  0.6096 -2.3469 -1.6155
  226MOL0     H31188   3.568   5.888  10.242  2.9009 -0.0725 -2.3803
  227MOL0     O31189   2.192   6.856  11.095  0.7382 -0.5012 -0.3408
  227MOL0     C31190   2.161   6.967  11.144  0.2524  0.6465  0.9960
  227MOL0     O31191   2.246   7.066  11.179 -0.5006  0.5126  0.7972
  227MOL0     C31192   2.373   7.049  11.214  0.4378 -0.0189 -0.7681
  227MOL0     C31193   2.458   7.158  11.225  0.2819  0.6108  0.1163
  227MOL0     C31194   2.596   7.146  11.243  0.3987 -0.6295 -1.1151
  227MOL0     C31195   2.657   7.024  11.259  0.7238 -0.8185  0.3513
  227MOL0     O31196   2.797   7.010  11.269  0.2720 -0.2194  0.0124
  227MOL0     C31197   2.859   6.888  11.291 -0.8502 -0.4499  0.6923
  227MOL0     C31198   3.003   6.913  11.293 -0.6147  0.0203 -1.4486
  227MOL0     C31199   3.041   7.026  11.383 -0.5182 -0.2804  0.5304
  227MOL0     C31200   3.158   7.012  11.471 -0.4068 -0.5206  0.1710
  227MOL0     C31201   3.171   7.139  11.566 -0.4807  0.5520  0.0021
  227MOL0     C31202   3.261   7.114  11.692  0.5781 -0.2865  0.4817
  227MOL0     C31203   3.367   7.213  11.719  0.5085  0.2331  0.0802
  227MOL0     C31204   3.294   7.338  11.762  0.0187 -0.2690 -0.3568
  227MOL0     N31205   3.377   7.460  11.769  0.0238  0.2365 -0.5834
  227MOL0     C31206   3.458   7.494  11.876 -0.6998 -0.7988  0.4997
  227MOL0     C31207   3.492   7.614  11.847  0.1909 -0.3438 -0.3134
  227MOL0     C31208   3.589   7.707  11.917  0.3573 -0.8862  0.9079
  227MOL0     C31209   3.730   7.646  11.911  0.7930  0.7802 -0.6192
  227MOL0     C31210   3.832   7.761  11.893  0.2880  0.8142  0.1177
  227MOL0     C31211   3.848   7.814  11.746  0.3578 -0.2150  0.2520
  227MOL0     O31212   3.908   7.715  11.669  0.4101  0.0826  0.6247
  227MOL0     C31213   4.048   7.715  11.658 -0.0118  0.4806 -0.3082
  227MOL0     C31214   4.098   7.637  11.558  0.5664 -0.0376  0.5270
  227MOL0     C31215   4.231   7.618  11.530 -0.1772 -0.1722  0.4293
  227MOL0     C31216   4.278   7.539  11.406 -0.4692  0.3176  0.0737
  227MOL0     C31217   4.330   7.682  11.618  0.0582  0.0894 -0.2117
  227MOL0     C31218   4.477   7.667  11.612  0.4604  0.4583 -0.8712
  227MOL0     O31219   4.534   7.599  11.509  0.6276  0.3157 -0.2160
  227MOL0     C31220   4.673   7.575  11.503  0.1521 -0.0832 -0.1694
  227MOL0     C31221   4.710   7.531  11.376 -0.0225  0.3116  0.0032
  227MOL0     C31222   4.840   7.504  11.339 -0.2003  0.7006 -1.1928
  227MOL0     C31223   4.948   7.516  11.439 -0.3848 -0.0502 -0.5349
  227MOL0     O31224   5.080   7.493  11.405 -0.1668 -0.3317  0.6075
  227MOL0     C31225   5.182   7.570  11.462 -0.3935  0.0239  0.8131
  227MOL0     C31226   5.316   7.548  11.390 -0.4497 -0.7200  0.4765
  227MOL0     C31227   5.304   7.582  11.238  0.1416 -0.0321 -0.3380
  227MOL0     C31228   5.309   7.465  11.151  0.0790  0.6004  0.1905
  227MOL0     C31229   5.283   7.518  11.007 -1.1216  0.3109  0.4546
  227MOL0     C31230   5.390   7.595  10.937 -0.3536  0.7863 -0.0948
  227MOL0     C31231   5.356   7.626  10.795  0.1676  0.5358 -0.6952
  227MOL0     C31232   5.288   7.757  10.768 -0.3172  0.2676 -0.1605
  227MOL0    Cl31233   5.170   7.736  10.638  0.0909  0.2774  0.2353
  227MOL0     C31234   4.908   7.547  11.569  0.1318  0.7516 -0.1404
  227MOL0     C31235   4.775   7.575  11.600  0.2717 -0.0002 -0.6183
  227MOL0     O31236   4.539   7.702  11.715 -0.1807  0.0319  0.1359
  227MOL0     C31237   4.283   7.768  11.712  0.1916  0.2736 -0.4652
  227MOL0     C31238   4.142   7.789  11.728 -0.3029 -0.5278  0.5550
  227MOL0     N31239   3.440   7.656  11.719  0.7270 -0.9089 -0.0028
  227MOL0     N31240   3.366   7.559  11.674  1.1139 -0.6348 -0.3847
  227MOL0     C31241   2.578   6.914  11.261 -0.7722  0.6723 -1.1426
  227MOL0     C31242   2.441   6.923  11.238 -0.2544  0.2056 -0.1926
  227MOL0     C31243   2.016   6.994  11.149 -1.0654 -0.8164  0.1078
  227MOL0     C31244   1.972   7.123  11.167 -0.9462  0.3281  0.5439
  227MOL0     C31245   1.836   7.148  11.193  0.3532 -0.5108  0.0328
  227MOL0     C31246   1.740   7.045  11.176  0.5435 -0.5801  0.2207
  227MOL0     O31247   1.599   7.063  11.177 -0.2869 -0.5434 -0.1229
  227MOL0     C31248   1.548   7.191  11.215 -0.1114  0.0332  0.7243
  227MOL0     C31249   1.400   7.210  11.224 -0.3502  0.2119  0.8845
  227MOL0     C31250   1.322   7.188  11.094 -0.2371 -1.2516 -0.4193
  227MOL0     C31251   1.178   7.235  11.114  0.4584  0.3092 -0.3889
  227MOL0     C31252   1.161   7.377  11.133  0.5056 -0.0943  0.0318
  227MOL0     C31253   1.135   7.494  11.166  0.1813  0.0209 -0.1562
  227MOL0     C31254   1.786   6.916  11.154  0.1770 -0.3358 -0.1856
  227MOL0     C31255   1.918   6.893  11.162 -0.0820 -0.3214  0.0605
  227MOL0     C31256   1.958   6.744  11.175  0.2095 -0.8054 -0.0964
  227MOL0     H31257   2.411   7.254  11.205  0.2747  0.4995 -0.4191
  227MOL0     H31258   2.662   7.233  11.241 -1.5615  0.9127 -1.4340
  227MOL0     H31259   2.838   6.816  11.211  5.0445 -2.7112  0.6718
  227MOL0     H31260   2.831   6.836  11.383  1.5401  1.7828  2.8527
  227MOL0     H31261   3.050   6.822  11.331 -2.8595 -1.7389 -2.6423
  227MOL0     H31262   3.030   6.933  11.189 -1.2812  2.5916 -1.1932
  227MOL0     H31263   3.051   7.124  11.336 -2.9335  0.3737  1.2129
  227MOL0     H31264   2.959   7.040  11.454 -0.9170  0.8347 -0.1294
  227MOL0     H31265   3.145   6.913  11.515  1.9106 -0.7898  0.3743
  227MOL0     H31266   3.246   6.999  11.407  2.0520  0.7847  3.0957
  227MOL0     H31267   3.074   7.166  11.608 -0.3042 -1.2017  1.6777
  227MOL0     H31268   3.204   7.221  11.501 -1.9441  0.5171 -0.8360
  227MOL0     H31269   3.210   7.088  11.785  3.9300 -0.4463  2.4516
  227MOL0     H31270   3.321   7.026  11.668 -2.4430 -1.9726 -1.4612
  227MOL0     H31271   3.425   7.230  11.628 -0.5297 -0.1903 -0.6765
  227MOL0     H31272   3.431   7.168  11.795  0.8604 -0.6219 -0.7140
  227MOL0     H31273   3.208   7.354  11.696  1.5078 -0.5516 -2.4752
  227MOL0     H31274   3.247   7.325  11.860  0.9997  0.5505  0.2333
  227MOL0     H31275   3.495   7.428  11.954  3.3591 -1.4168 -1.6602
  227MOL0     H31276   3.555   7.719  12.020  0.7696 -1.3246  1.1008
  227MOL0     H31277   3.582   7.811  11.884  0.5852 -0.6196  1.6605
  227MOL0     H31278   3.753   7.599  12.007 -0.2795  1.6814  0.1029
  227MOL0     H31279   3.750   7.568  11.836 -0.1553  1.3707 -1.5033
  227MOL0     H31280   3.811   7.845  11.959 -0.5599 -0.0867  1.0456
  227MOL0     H31281   3.928   7.714  11.917  0.1750 -0.8926 -2.3695
  227MOL0     H31282   3.753   7.849  11.707  1.0215  3.0558  1.2978
  227MOL0     H31283   3.916   7.899  11.758  0.7031 -0.4496 -0.0220
  227MOL0     H31284   4.023   7.594  11.492  2.3310 -3.3086  0.4279
  227MOL0     H31285   4.199   7.490  11.349 -2.2886  2.1051  0.9047
  227MOL0     H31286   4.341   7.461  11.451  1.0180  2.2242  1.5142
  227MOL0     H31287   4.347   7.592  11.340  1.0959 -0.9455  0.6375
  227MOL0     H31288   4.631   7.505  11.306 -1.6189  1.8746  1.1619
  227MOL0     H31289   4.854   7.482  11.233 -1.3539 -2.2547 -0.8353
  227MOL0     H31290   5.158   7.677  11.461  2.3981  0.7273 -0.4113
  227MOL0     H31291   5.178   7.543  11.568  0.6884 -0.5752  0.7143
  227MOL0     H31292   5.389   7.616  11.433  0.3978 -1.7270  0.6750
  227MOL0     H31293   5.354   7.447  11.409  4.7859  0.8973  0.1747
  227MOL0     H31294   5.384   7.650  11.207  0.1180  0.1497 -0.0056
  227MOL0     H31295   5.217   7.646  11.218 -0.0869 -0.2070  0.0792
  227MOL0     H31296   5.233   7.391  11.179  2.6676 -0.7243  4.6565
  227MOL0     H31297   5.404   7.411  11.148 -1.2371 -1.9434  1.2184
  227MOL0     H31298   5.266   7.434  10.939 -3.0099  1.5603 -0.7360
  227MOL0     H31299   5.200   7.590  11.007  2.4264  4.8598  1.6315
  227MOL0     H31300   5.484   7.540  10.948 -1.2935 -0.5256  1.8629
  227MOL0     H31301   5.389   7.687  10.997  1.0437  0.1960  0.8806
  227MOL0     H31302   5.288   7.544  10.768  0.1770  0.5956 -0.8983
  227MOL0     H31303   5.443   7.606  10.732 -0.6809  1.3490 -2.1822
  227MOL0     H31304   5.367   7.824  10.731  0.8146 -1.3780 -0.8400
  227MOL0     H31305   5.243   7.791  10.861  0.9407 -1.4924  1.1573
  227MOL0     H31306   4.971   7.540  11.657  0.1053  0.9270 -0.1076
  227MOL0     H31307   4.730   7.572  11.698  1.0117 -4.4598 -0.2486
  227MOL0     H31308   4.342   7.828  11.781 -0.1577  1.3011 -1.0414
  227MOL0     H31309   4.099   7.850  11.808 -4.0050  0.0625 -1.6517
  227MOL0     H31310   2.619   6.813  11.269 -0.0467  1.0701  4.2416
  227MOL0     H31311   2.385   6.830  11.240 -2.4156  1.4053 -1.3986
  227MOL0     H31312   2.038   7.208  11.185 -0.7539  0.5183 -0.9846
  227MOL0     H31313   1.813   7.250  11.222  0.3503 -0.0231 -1.5573
  227MOL0     H31314   1.570   7.213  11.319 -0.5312 -0.6677  0.9683
  227MOL0     H31315   1.593   7.269  11.152  0.7884 -2.0754 -1.4316
  227MOL0     H31316   1.388   7.316  11.249  0.7725  0.5011  0.2364
  227MOL0     H31317   1.347   7.154  11.302 -2.1846 -0.7561 -0.9742
  227MOL0     H31318   1.365   7.267  11.031  1.9049 -2.3021 -0.3889
  227MOL0     H31319   1.325   7.095  11.038 -2.1427 -2.4228  1.2989
  227MOL0     H31320   1.129   7.177  11.192  2.0477  1.6021  1.6559
  227MOL0     H31321   1.127   7.214  11.019 -0.2449 -3.6679  0.7019
  227MOL0     H31322   1.090   7.590  11.182 -0.7868 -0.2145 -1.3275
  227MOL0     H31323   1.708   6.841  11.145 -1.2455  0.9093  1.0886
  227MOL0     H31324   1.991   6.692  11.085  0.9233 -2.2369  0.9495
  227MOL0     H31325   2.043   6.740  11.245  0.8415  0.0760 -0.7919
  227MOL0     H31326   1.878   6.685  11.220  0.4140 -2.8604 -2.2773
  228MOL0     O31327   5.583   1.250   5.945  0.4260 -0.9839 -0.8942
  228MOL0     C31328   5.643   1.350   5.889 -0.1854  0.5071 -0.4765
  228MOL0     O31329   5.757   1.401   5.926  0.1773 -0.1093 -0.0600
  228MOL0     C31330   5.841   1.367   6.039  0.7645  0.1575 -0.0061
  228MOL0     C31331   5.952   1.444   6.072  0.1075  0.3838 -0.9642
  228MOL0     C31332   6.049   1.420   6.175 -0.2530  0.3847  0.3955
  228MOL0     C31333   6.024   1.309   6.260 -0.5996  0.3455  0.2239
  228MOL0     O31334   6.116   1.256   6.354  0.0206 -0.2210 -0.0959
  228MOL0     C31335   6.220   1.341   6.403 -0.9246 -0.2023 -0.9127
  228MOL0     C31336   6.357   1.273   6.376 -0.2108  0.4739 -0.6559
  228MOL0     C31337   6.391   1.231   6.243  0.4060 -0.1845 -0.2509
  228MOL0     C31338   6.536   1.191   6.215 -1.2599  0.4258 -0.5340
  228MOL0     C31339   6.564   1.187   6.062  0.6092  0.0571 -0.0584
  228MOL0     C31340   6.682   1.084   6.037  0.1104  0.0356  0.6623
  228MOL0     C31341   6.724   1.080   5.888 -0.5153  0.9244 -0.8232
  228MOL0     C31342   6.853   1.164   5.855 -0.7636 -0.5955 -0.3610
  228MOL0     N31343   6.837   1.298   5.898  0.6629 -0.3763  0.1490
  228MOL0     C31344   6.852   1.357   6.025  0.4543  0.4322 -0.3218
  228MOL0     C31345   6.809   1.487   6.010  0.0757  0.5558  0.0961
  228MOL0     C31346   6.826   1.591   6.110 -0.8113  0.2961  0.1500
  228MOL0     C31347   6.722   1.575   6.219  0.2294  0.3337  0.2921
  228MOL0     C31348   6.705   1.690   6.312 -0.3460 -0.4985 -0.2504
  228MOL0     C31349   6.614   1.655   6.422  0.6622 -0.5361  0.3091
  228MOL0     O31350   6.656   1.531   6.480 -0.2800  0.1861 -0.3733
  228MOL0     C31351   6.575   1.478   6.576  1.2356  0.1176  0.1490
  228MOL0     C31352   6.463   1.537   6.638 -0.0015  0.0546  0.0305
  228MOL0     C31353   6.381   1.462   6.723 -0.1692 -0.2880 -0.1070
  228MOL0     C31354   6.282   1.545   6.798  0.2407  0.5580 -0.5860
  228MOL0     C31355   6.405   1.320   6.750 -0.6263 -0.0931  0.3762
  228MOL0     C31356   6.322   1.227   6.835  0.3840 -0.1380  0.0331
  228MOL0     O31357   6.363   1.099   6.849  0.0738  0.2455 -0.0478
  228MOL0     C31358   6.283   1.010   6.911  0.2435  0.7617  0.7541
  228MOL0     C31359   6.326   0.972   7.042 -0.3135 -0.0039  0.2233
  228MOL0     C31360   6.247   0.873   7.107  0.4399  0.5018  0.2527
  228MOL0     C31361   6.140   0.803   7.039  0.3825 -0.0300 -0.1176
  228MOL0     O31362   6.063   0.700   7.094  0.1117  0.9282 -0.2447
  228MOL0     C31363   6.132   0.592   7.160  0.2049 -0.6381  0.3161
  228MOL0     C31364   6.206   0.507   7.058 -0.4383 -0.8999 -0.5904
  228MOL0     C31365   6.111   0.411   6.993 -0.1247  0.4913 -0.8948
  228MOL0     C31366   6.090   0.282   7.059  0.0630  0.8945 -0.2801
  228MOL0     C31367   6.002   0.175   6.988 -0.2313 -0.7700 -0.1894
  228MOL0     C31368   5.856   0.201   6.989 -0.5666  1.3413 -0.0568
  228MOL0     C31369   5.782   0.091   6.907  0.9144  0.1179 -0.3185
  228MOL0     C31370   5.736  -0.029   6.980 -0.3738 -0.1637  0.2023
  228MOL0    Cl31371   5.654   0.014   7.139 -0.3066  0.0812 -0.2779
  228MOL0     C31372   6.112   0.846   6.913  0.0241  0.3922 -0.4826
  228MOL0     C31373   6.178   0.945   6.844 -0.8454 -0.8695  0.1611
  228MOL0     O31374   6.229   1.278   6.894  0.1908 -0.5436  0.1131
  228MOL0     C31375   6.520   1.263   6.686  0.5778 -0.3281 -0.9692
  228MOL0     C31376   6.604   1.352   6.615  1.1550  0.6494 -0.7884
  228MOL0     N31377   6.785   1.510   5.873  0.4371 -0.1068 -0.7970
  228MOL0     N31378   6.786   1.397   5.818 -0.1654 -0.4671 -0.3076
  228MOL0     C31379   5.900   1.241   6.246 -0.7350  0.8530  0.1114
  228MOL0     C31380   5.814   1.265   6.135 -0.4402 -0.5113  0.3187
  228MOL0     C31381   5.579   1.397   5.753 -0.1848 -0.5619  0.6643
  228MOL0     C31382   5.664   1.467   5.662  0.3294  0.0935  0.6862
  228MOL0     C31383   5.612   1.531   5.553  0.8143 -0.2144  0.1684
  228MOL0     C31384   5.472   1.529   5.518  0.3018 -0.1760 -0.2625
  228MOL0     O31385   5.420   1.575   5.401 -0.6509 -0.2441 -0.0442
  228MOL0     C31386   5.510   1.602   5.287 -0.2961  0.1981  1.1861
  228MOL0     C31387   5.523   1.468   5.205 -0.2482 -0.7660 -0.5714
  228MOL0     C31388   5.391   1.437   5.135  0.1089  0.0001 -0.5314
  228MOL0     C31389   5.346   1.550   5.032 -0.8921  1.0703  0.1011
  228MOL0     C31390   5.255   1.652   5.084  0.5796  0.1270  0.5287
  228MOL0     C31391   5.186   1.731   5.139  0.5491 -0.3320  0.1564
  228MOL0     C31392   5.389   1.481   5.618 -0.2280  0.8313 -0.6006
  228MOL0     C31393   5.438   1.408   5.737 -0.2478 -0.2294 -1.0937
  228MOL0     C31394   5.329   1.367   5.836  0.6055  0.3214 -1.1181
  228MOL0     H31395   5.977   1.525   6.005 -0.0655 -1.0612 -2.8566
  228MOL0     H31396   6.138   1.482   6.183 -0.0468  0.6357 -2.5824
  228MOL0     H31397   6.226   1.342   6.513  2.1421  0.5022 -0.9884
  228MOL0     H31398   6.204   1.446   6.375 -0.1706 -0.2413 -1.5204
  228MOL0     H31399   6.444   1.329   6.412  0.4214 -1.3748  0.8639
  228MOL0     H31400   6.366   1.181   6.435 -2.1793 -0.0949 -1.1921
  228MOL0     H31401   6.336   1.140   6.219 -0.3086 -0.4686  2.2203
  228MOL0     H31402   6.370   1.304   6.164  0.1673 -1.2622 -1.2142
  228MOL0     H31403   6.608   1.261   6.260 -1.6522  1.3641 -1.3215
  228MOL0     H31404   6.566   1.092   6.251 -0.9924  0.7789  0.2456
  228MOL0     H31405   6.575   1.286   6.016  0.5205  0.0149 -0.1715
  228MOL0     H31406   6.468   1.150   6.023  0.3234  0.5652  0.1429
  228MOL0     H31407   6.767   1.100   6.103  0.0270  1.1434  0.5283
  228MOL0     H31408   6.642   0.986   6.064 -0.4964 -0.3741 -1.5068
  228MOL0     H31409   6.645   1.106   5.816 -0.6552 -1.5554 -1.6502
  228MOL0     H31410   6.739   0.974   5.867 -1.2539  0.7700 -0.5980
  228MOL0     H31411   6.946   1.115   5.882 -0.6446 -0.5577 -0.6924
  228MOL0     H31412   6.853   1.171   5.746  1.2856  2.3994 -0.2936
  228MOL0     H31413   6.892   1.316   6.117  0.7686 -2.7967 -1.7455
  228MOL0     H31414   6.828   1.693   6.069 -0.2986 -0.2757 -1.3145
  228MOL0     H31415   6.919   1.572   6.165  0.6687  1.7137 -1.6730
  228MOL0     H31416   6.626   1.549   6.174  0.2603 -3.0374  1.9173
  228MOL0     H31417   6.746   1.482   6.270 -1.5954 -0.3834 -0.0906
  228MOL0     H31418   6.799   1.713   6.363 -0.9140 -1.9324  1.5544
  228MOL0     H31419   6.682   1.779   6.253 -0.4286 -0.8443 -0.7490
  228MOL0     H31420   6.616   1.738   6.494 -0.2730  1.3524 -1.7332
  228MOL0     H31421   6.514   1.653   6.379  0.9654  2.9383 -0.8992
  228MOL0     H31422   6.425   1.631   6.601 -0.5771 -0.4101 -0.5855
  228MOL0     H31423   6.180   1.525   6.764  0.2042 -0.5266  0.1271
  228MOL0     H31424   6.299   1.653   6.786 -1.7538  0.9532 -0.2182
  228MOL0     H31425   6.290   1.525   6.905  1.5096 -0.1738 -0.7975
  228MOL0     H31426   6.406   1.010   7.104 -0.2604 -1.0129  0.8042
  228MOL0     H31427   6.250   0.861   7.214 -3.8623 -1.7637  0.3138
  228MOL0     H31428   6.195   0.627   7.242  0.2331  0.7284 -0.2656
  228MOL0     H31429   6.050   0.537   7.207  1.1582 -3.0901 -0.7273
  228MOL0     H31430   6.252   0.569   6.981  0.4747 -1.7637 -0.7574
  228MOL0     H31431   6.288   0.457   7.111  2.5201  1.4050 -2.6690
  228MOL0     H31432   6.155   0.397   6.894  1.5523  1.4341 -0.3236
  228MOL0     H31433   6.014   0.458   6.973 -1.0450 -0.1836  1.5759
  228MOL0     H31434   6.050   0.307   7.158  1.4183 -0.8669  0.7794
  228MOL0     H31435   6.185   0.231   7.076  0.0437  0.6484 -0.8949
  228MOL0     H31436   6.019   0.160   6.881 -1.6656 -0.1207 -0.5296
  228MOL0     H31437   6.018   0.086   7.049  1.1631  0.0354  0.6564
  228MOL0     H31438   5.827   0.290   6.933  0.9362  2.0027  0.1606
  228MOL0     H31439   5.813   0.203   7.090 -0.0639 -0.5332  0.2399
  228MOL0     H31440   5.826   0.070   6.810  2.7170  2.2571 -0.0413
  228MOL0     H31441   5.691   0.146   6.883  1.4434  1.3539  0.4147
  228MOL0     H31442   5.826  -0.079   7.016 -0.6701 -0.3700  0.6613
  228MOL0     H31443   5.673  -0.090   6.914 -0.9179  2.3205 -1.7571
  228MOL0     H31444   6.033   0.797   6.857  0.2635  1.0265 -1.3902
  228MOL0     H31445   6.167   0.981   6.743  3.2450  0.1464 -0.0781
  228MOL0     H31446   6.559   1.163   6.703  3.5012  0.5317 -2.0259
  228MOL0     H31447   6.691   1.307   6.567  1.4678 -1.0501  1.2118
  228MOL0     H31448   5.879   1.166   6.321 -3.7456  2.2496  0.8083
  228MOL0     H31449   5.728   1.198   6.135  0.2381 -1.4039 -0.5954
  228MOL0     H31450   5.772   1.456   5.662  0.4511  0.7560 -1.5279
  228MOL0     H31451   5.692   1.585   5.503  1.4840  0.9068  2.3086
  228MOL0     H31452   5.463   1.670   5.216  0.3473  0.0546  0.6159
  228MOL0     H31453   5.609   1.645   5.307  3.0658 -3.8748 -3.9023
  228MOL0     H31454   5.560   1.390   5.273 -0.1353  3.0647  4.3484
  228MOL0     H31455   5.601   1.490   5.132 -0.3199 -0.0205 -0.4241
  228MOL0     H31456   5.401   1.351   5.068 -3.3321  0.5318 -1.9402
  228MOL0     H31457   5.318   1.417   5.214  1.8425  0.3392  1.2383
  228MOL0     H31458   5.298   1.487   4.957  0.1175 -2.3618  2.0822
  228MOL0     H31459   5.431   1.601   4.984 -0.4484  2.2156  2.0025
  228MOL0     H31460   5.136   1.813   5.186  2.2522  1.5943 -1.1995
  228MOL0     H31461   5.283   1.479   5.593 -0.1136 -3.7387 -1.6574
  228MOL0     H31462   5.231   1.402   5.803  0.6934  0.1781 -1.5278
  228MOL0     H31463   5.337   1.260   5.858 -0.9132  0.6931  1.7999
  228MOL0     H31464   5.335   1.421   5.931 -0.0975  0.5777 -1.2166
  229MOL0     O31465   9.410   2.512   9.822  0.2018  0.2403 -0.5179
  229MOL0     C31466   9.380   2.511   9.700 -0.1320  0.1902 -0.2683
  229MOL0     O31467   9.473   2.495   9.601 -0.0336  0.4013  0.3461
  229MOL0     C31468   9.606   2.481   9.644  0.4608 -0.1654 -0.5980
  229MOL0     C31469   9.657   2.359   9.659 -0.2068 -0.4810  0.6339
  229MOL0     C31470   9.782   2.332   9.710  0.2073 -0.8143 -0.2217
  229MOL0     C31471   9.849   2.439   9.774  0.0152  0.1045  0.5073
  229MOL0     O31472   9.974   2.424   9.828 -0.0670 -0.6369 -0.3007
  229MOL0     C31473  10.016   2.293   9.862 -0.0439  0.2701 -0.3066
  229MOL0     C31474  10.140   2.313   9.954  0.4512  0.8396 -0.8826
  229MOL0     C31475  10.242   2.388   9.881 -0.1423  0.3557  0.5797
  229MOL0     C31476  10.384   2.369   9.935 -0.2947  1.0281 -0.2328
  229MOL0     C31477  10.461   2.240   9.884  0.5845  0.0180  0.3447
  229MOL0     C31478  10.533   2.248   9.750 -0.3594 -0.5469 -0.1323
  229MOL0     C31479  10.582   2.108   9.723  0.1315 -0.0378 -1.2093
  229MOL0     C31480  10.561   2.079   9.567  0.3286  0.1931  0.5696
  229MOL0     N31481  10.639   2.162   9.480 -0.5901 -0.1445  0.1476
  229MOL0     C31482  10.766   2.211   9.501 -0.1991 -0.5951 -0.4056
  229MOL0     C31483  10.792   2.272   9.382 -0.5629  0.1534  0.1509
  229MOL0     C31484  10.926   2.347   9.363  0.0426  0.1260  0.0476
  229MOL0     C31485  10.948   2.448   9.471 -0.5698 -0.6585 -0.3508
  229MOL0     C31486  11.056   2.553   9.425 -0.3249  0.3030 -0.1073
  229MOL0     C31487  11.132   2.618   9.531 -0.0036  0.0361 -0.8054
  229MOL0     O31488  11.260   2.667   9.497  0.4397 -0.1400 -0.6384
  229MOL0     C31489  11.283   2.804   9.492  0.4228  0.1826  0.5154
  229MOL0     C31490  11.181   2.901   9.493 -0.0839 -0.6796 -0.2254
  229MOL0     C31491  11.206   3.041   9.506  0.0561 -0.2839  0.4368
  229MOL0     C31492  11.092   3.139   9.528 -0.0005  0.2062 -0.6809
  229MOL0     C31493  11.344   3.090   9.503  0.7322  0.2259  0.3199
  229MOL0     C31494  11.372   3.233   9.500  0.7506 -0.3923 -0.7690
  229MOL0     O31495  11.319   3.310   9.602 -0.0603  0.1702 -0.0369
  229MOL0     C31496  11.350   3.444   9.597 -0.3688  0.1795  0.5124
  229MOL0     C31497  11.270   3.549   9.541 -0.2976  0.2391  0.0666
  229MOL0     C31498  11.308   3.677   9.566  1.5031  0.4922  0.7882
  229MOL0     C31499  11.425   3.717   9.629  0.0520  0.0164  0.3499
  229MOL0     O31500  11.475   3.850   9.639  0.3331 -0.2019 -0.2481
  229MOL0     C31501  11.383   3.947   9.693  0.7285  0.6248  0.7009
  229MOL0     C31502  11.454   4.084   9.699 -0.3708 -0.3116 -0.6037
  229MOL0     C31503  11.571   4.103   9.804 -0.7130 -0.8093 -1.1542
  229MOL0     C31504  11.618   4.255   9.780  0.2435  0.6130  0.2781
  229MOL0     C31505  11.736   4.267   9.666 -0.7796  0.2233 -0.7843
  229MOL0     C31506  11.858   4.184   9.708  0.3036 -0.6365  0.0198
  229MOL0     C31507  11.970   4.211   9.612  0.2576 -0.2567  0.8056
  229MOL0     C31508  12.091   4.115   9.634  0.5034  0.0461 -0.2387
  229MOL0    Cl31509  12.150   4.147   9.803 -0.5721 -0.4837  0.1003
  229MOL0     C31510  11.503   3.616   9.670 -0.2770  0.1336 -0.4866
  229MOL0     C31511  11.467   3.474   9.666  0.1239 -0.2272  0.4171
  229MOL0     O31512  11.447   3.276   9.414  0.4476 -0.2706 -0.2847
  229MOL0     C31513  11.442   2.994   9.495  0.6343 -0.5283  0.2604
  229MOL0     C31514  11.410   2.855   9.489  0.2193  0.4186 -0.0648
  229MOL0     N31515  10.679   2.280   9.300 -0.8870 -0.1340  0.9271
  229MOL0     N31516  10.589   2.211   9.364 -0.1502 -0.6435 -0.3195
  229MOL0     C31517   9.798   2.566   9.763  0.1389 -0.7824  0.9620
  229MOL0     C31518   9.674   2.589   9.700  0.2064  0.1118  0.3992
  229MOL0     C31519   9.234   2.529   9.655 -0.4795  0.1602  0.1545
  229MOL0     C31520   9.208   2.488   9.525  0.1059  0.5067  0.5042
  229MOL0     C31521   9.083   2.493   9.466 -0.4065  0.0284 -0.0984
  229MOL0     C31522   8.973   2.539   9.539 -0.6092  0.4910  0.4093
  229MOL0     O31523   8.840   2.535   9.509 -0.2187 -0.2515 -0.2465
  229MOL0     C31524   8.790   2.469   9.391  0.2464 -0.3135  0.1165
  229MOL0     C31525   8.652   2.414   9.415 -0.3987 -0.3430 -0.3812
  229MOL0     C31526   8.631   2.320   9.539 -0.0403 -0.5928 -0.0082
  229MOL0     C31527   8.684   2.178   9.523  0.5136 -0.5445  0.1844
  229MOL0     C31528   8.637   2.111   9.402 -0.3340 -0.4510 -0.4671
  229MOL0     C31529   8.630   2.053   9.292 -0.3376 -0.4120  0.2843
  229MOL0     C31530   8.995   2.579   9.668  0.0742  0.0069  0.0913
  229MOL0     C31531   9.124   2.573   9.730  0.8095  0.7863  0.6661
  229MOL0     C31532   9.133   2.630   9.870  0.6614 -0.1060 -0.1414
  229MOL0     H31533   9.590   2.280   9.625 -0.5218 -0.8995  2.1378
  229MOL0     H31534   9.833   2.238   9.689  3.5011  1.0324 -1.1453
  229MOL0     H31535  10.047   2.246   9.768  0.6760  1.3434 -0.6188
  229MOL0     H31536   9.947   2.226   9.915  2.4595 -2.0659  0.2529
  229MOL0     H31537  10.110   2.356  10.050  3.3936 -0.8695  0.9504
  229MOL0     H31538  10.174   2.215   9.987  1.8808  1.3495 -0.7537
  229MOL0     H31539  10.246   2.372   9.773 -0.2329  0.2674  0.5887
  229MOL0     H31540  10.219   2.495   9.886  0.8815  0.7479 -1.8194
  229MOL0     H31541  10.444   2.456   9.907 -0.3768  0.6463 -1.7087
  229MOL0     H31542  10.376   2.369  10.044 -0.4111  1.0296 -0.2408
  229MOL0     H31543  10.389   2.159   9.873  1.2711 -0.6666  0.7703
  229MOL0     H31544  10.531   2.213   9.965  1.4692 -0.5549 -0.5832
  229MOL0     H31545  10.473   2.284   9.666  1.5037  0.8461 -0.9292
  229MOL0     H31546  10.619   2.314   9.761  1.8064 -3.0055 -1.2394
  229MOL0     H31547  10.535   2.027   9.779  1.5728  0.5819  1.0084
  229MOL0     H31548  10.691   2.113   9.735 -0.1570  1.6605  1.6989
  229MOL0     H31549  10.590   1.974   9.552 -1.1191 -0.4775  2.1507
  229MOL0     H31550  10.458   2.093   9.533  0.5018  2.1717  0.7780
  229MOL0     H31551  10.836   2.196   9.582 -1.8601  0.3274  1.2838
  229MOL0     H31552  10.923   2.391   9.262  1.1477  0.3599  0.0975
  229MOL0     H31553  10.998   2.264   9.361  0.3750  0.3105  2.1164
  229MOL0     H31554  10.857   2.504   9.489  0.3785  0.0471  2.8987
  229MOL0     H31555  10.967   2.404   9.569 -1.1312  1.8048  0.9375
  229MOL0     H31556  11.126   2.496   9.363 -1.4081  0.3454 -1.4110
  229MOL0     H31557  10.992   2.621   9.369 -1.9716  0.8066  2.2573
  229MOL0     H31558  11.065   2.696   9.570 -0.2319 -1.5071  2.2385
  229MOL0     H31559  11.145   2.548   9.614 -3.3540 -0.3526 -0.4559
  229MOL0     H31560  11.074   2.880   9.487  0.1421 -2.1176  0.3362
  229MOL0     H31561  11.097   3.188   9.625 -2.0236 -0.5283 -0.1511
  229MOL0     H31562  10.991   3.096   9.523  0.7701 -1.6603 -1.1703
  229MOL0     H31563  11.097   3.213   9.448 -0.0755  0.7796 -0.1536
  229MOL0     H31564  11.174   3.529   9.496 -0.2600  0.0135  0.0857
  229MOL0     H31565  11.234   3.745   9.525  1.1734  0.2408  0.9603
  229MOL0     H31566  11.292   3.961   9.635  1.0757  2.5223  0.5682
  229MOL0     H31567  11.360   3.913   9.795 -0.8354  2.2594  0.9355
  229MOL0     H31568  11.509   4.108   9.607  2.1329  0.8168  1.0610
  229MOL0     H31569  11.381   4.162   9.722  1.7342  1.4842  0.4887
  229MOL0     H31570  11.645   4.024   9.791 -0.5723 -0.9498  0.3063
  229MOL0     H31571  11.524   4.090   9.902  0.7924 -0.1292 -0.2893
  229MOL0     H31572  11.667   4.291   9.871 -0.3998 -0.6393  1.1455
  229MOL0     H31573  11.531   4.317   9.758  0.7010  0.7602 -1.1969
  229MOL0     H31574  11.703   4.232   9.568  1.6822  3.1978 -2.8587
  229MOL0     H31575  11.775   4.365   9.640  1.7997 -0.1111  1.3801
  229MOL0     H31576  11.849   4.075   9.703  1.5116 -0.8314  1.3078
  229MOL0     H31577  11.891   4.204   9.810  0.2848 -2.7376  0.4987
  229MOL0     H31578  12.003   4.314   9.632 -0.2880 -0.2869  1.9389
  229MOL0     H31579  11.932   4.203   9.510  0.2097  1.1875  0.6770
  229MOL0     H31580  12.163   4.142   9.557 -0.2758 -0.6361 -1.2240
  229MOL0     H31581  12.056   4.013   9.616  0.7309 -0.4583  1.8788
  229MOL0     H31582  11.594   3.644   9.721  0.5747 -0.2468 -1.7583
  229MOL0     H31583  11.518   3.391   9.714  2.5463  2.0627  2.1111
  229MOL0     H31584  11.549   3.009   9.484  1.2199 -4.6507 -1.5543
  229MOL0     H31585  11.492   2.784   9.501  0.8733  0.6700 -2.5509
  229MOL0     H31586   9.857   2.644   9.808 -0.7809  0.6096 -0.1420
  229MOL0     H31587   9.637   2.691   9.706  3.7557  1.7053 -1.1982
  229MOL0     H31588   9.280   2.429   9.469  0.9327  1.0932  0.9451
  229MOL0     H31589   9.068   2.458   9.365  1.2485  0.4589 -0.5212
  229MOL0     H31590   8.796   2.537   9.306  0.6236 -1.6589 -0.9830
  229MOL0     H31591   8.853   2.383   9.364 -0.6134 -1.8972  2.7474
  229MOL0     H31592   8.612   2.367   9.325  3.9548 -0.3837 -2.5588
  229MOL0     H31593   8.594   2.504   9.435 -2.2129 -1.6325  0.4438
  229MOL0     H31594   8.662   2.363   9.635  0.1456 -1.7512  0.4695
  229MOL0     H31595   8.523   2.320   9.551 -0.3025  1.3225 -1.8631
  229MOL0     H31596   8.651   2.118   9.608  1.2699 -0.9765  0.1805
  229MOL0     H31597   8.793   2.184   9.520  0.5264 -0.4743 -3.7484
  229MOL0     H31598   8.625   2.010   9.194  3.1045  0.3571 -0.3625
  229MOL0     H31599   8.912   2.617   9.727  1.6923  3.3004  0.4744
  229MOL0     H31600   9.137   2.548   9.942  0.6840  1.6124  1.8983
  229MOL0     H31601   9.224   2.683   9.900 -1.5277  1.9554  3.5604
  229MOL0     H31602   9.046   2.691   9.894  0.5619  0.1691 -1.1354
  230MOL0     O31603   9.689   9.710   2.757 -0.3332  0.5886  0.3049
  230MOL0     C31604   9.606   9.767   2.685  0.3259 -0.6537 -0.2104
  230MOL0     O31605   9.485   9.827   2.727  0.1414  0.1084  0.2847
  230MOL0     C31606   9.445   9.811   2.856  0.1990  0.0080  0.8586
  230MOL0     C31607   9.324   9.862   2.882 -0.9825  0.2758  0.5872
  230MOL0     C31608   9.262   9.869   3.007  0.4270  0.0698  1.3349
  230MOL0     C31609   9.320   9.807   3.119 -0.4244  0.3619 -0.1712
  230MOL0     O31610   9.245   9.808   3.236  0.0401 -0.4865  0.1141
  230MOL0     C31611   9.316   9.811   3.357 -0.4658 -0.9158  0.5774
  230MOL0     C31612   9.226   9.840   3.483  0.7835 -0.2189  0.0553
  230MOL0     C31613   9.305   9.853   3.617  0.1617 -0.2891  0.1673
  230MOL0     C31614   9.395   9.975   3.617  0.4231  0.0477 -0.1869
  230MOL0     C31615   9.445   9.994   3.757  0.1956  0.4426 -0.7823
  230MOL0     C31616   9.537  10.117   3.758 -0.9382 -0.1420  0.2412
  230MOL0     C31617   9.608  10.151   3.898 -0.2369 -0.0466  0.4220
  230MOL0     C31618   9.718  10.056   3.952 -0.2216  0.1610  0.4294
  230MOL0     N31619   9.846  10.061   3.876  0.5786 -0.4294 -0.1636
  230MOL0     C31620   9.920  10.171   3.846  0.3708  0.3877  0.4088
  230MOL0     C31621  10.028  10.113   3.783 -0.1519  0.0629 -0.4580
  230MOL0     C31622  10.161  10.193   3.777 -0.5760 -0.0765 -0.1610
  230MOL0     C31623  10.264  10.120   3.691 -0.1712  0.0043  0.0280
  230MOL0     C31624  10.357  10.217   3.638 -0.0027  0.5188  0.1487
  230MOL0     C31625  10.450  10.284   3.747  0.7990  0.6008  0.2541
  230MOL0     O31626  10.545  10.353   3.666  0.7142  0.6708 -0.4953
  230MOL0     C31627  10.665  10.386   3.713 -0.6658  0.7452  0.4320
  230MOL0     C31628  10.711  10.365   3.845 -0.2480 -0.2891  0.1327
  230MOL0     C31629  10.843  10.394   3.884 -0.3153  0.2252  1.2802
  230MOL0     C31630  10.882  10.385   4.030 -0.1128  0.3868 -0.2481
  230MOL0     C31631  10.932  10.444   3.778 -0.2625 -0.0521 -0.6380
  230MOL0     C31632  11.066  10.485   3.804  0.2709  0.8501 -0.4417
  230MOL0     O31633  11.159  10.413   3.735  0.1349  0.0467  0.0398
  230MOL0     C31634  11.286  10.449   3.739  0.1542  0.0831 -0.4624
  230MOL0     C31635  11.374  10.363   3.807 -1.1449  0.3139  0.0081
  230MOL0     C31636  11.503  10.392   3.846 -1.5626 -0.3040 -0.5384
  230MOL0     C31637  11.551  10.517   3.799 -0.4439  0.8308  0.8381
  230MOL0     O31638  11.680  10.545   3.846 -0.1849  0.1419 -0.4448
  230MOL0     C31639  11.744  10.672   3.813 -0.9527 -0.2346 -0.7631
  230MOL0     C31640  11.900  10.667   3.852  0.3401  0.2566 -1.0702
  230MOL0     C31641  11.916  10.639   3.999 -0.1138 -0.3103 -0.6898
  230MOL0     C31642  12.069  10.644   4.035  0.0373 -0.6784  0.4970
  230MOL0     C31643  12.082  10.632   4.190  0.0441  0.1395 -0.1445
  230MOL0     C31644  12.236  10.641   4.228  0.2510  0.1150 -1.1118
  230MOL0     C31645  12.261  10.571   4.356 -0.2842 -0.7780 -0.4172
  230MOL0     C31646  12.214  10.654   4.480  0.3881 -0.9144  0.1987
  230MOL0    Cl31647  12.035  10.682   4.489  0.4599 -0.0818  0.1342
  230MOL0     C31648  11.459  10.607   3.744  0.5410 -0.4855 -0.1903
  230MOL0     C31649  11.327  10.578   3.714  0.2322  0.7615 -0.1247
  230MOL0     O31650  11.091  10.569   3.888 -0.4195 -0.0541 -0.0829
  230MOL0     C31651  10.884  10.450   3.653 -0.0990  0.1145 -0.4421
  230MOL0     C31652  10.752  10.431   3.615 -0.8246 -0.5130  0.3229
  230MOL0     N31653  10.010   9.975   3.771 -0.0107 -0.0656 -0.5400
  230MOL0     N31654   9.899   9.947   3.827  0.6970  0.8101 -0.3602
  230MOL0     C31655   9.449   9.754   3.096  0.4401 -0.3216  0.3638
  230MOL0     C31656   9.514   9.752   2.969  0.9209  0.2172 -0.0436
  230MOL0     C31657   9.643   9.808   2.550 -0.2023  0.3238 -1.1198
  230MOL0     C31658   9.651   9.947   2.522 -0.2223  0.9993  0.3075
  230MOL0     C31659   9.704   9.985   2.392  0.0617 -0.0352 -0.6689
  230MOL0     C31660   9.746   9.888   2.295 -0.8778  0.2599  0.5017
  230MOL0     O31661   9.806   9.925   2.181 -0.6677 -0.1345  0.2494
  230MOL0     C31662   9.900   9.832   2.123  0.4679  0.1589 -1.0464
  230MOL0     C31663   9.984   9.901   2.016  0.4854  0.4772  0.1329
  230MOL0     C31664  10.094   9.988   2.082 -0.2722 -0.5080  0.4561
  230MOL0     C31665  10.146  10.093   1.982 -0.5201  0.1240 -0.4600
  230MOL0     C31666  10.056  10.201   1.946  0.8368 -0.3680 -0.3745
  230MOL0     C31667   9.968  10.271   1.901 -0.6603  0.2384 -0.2601
  230MOL0     C31668   9.713   9.746   2.326  0.3898 -0.1583  0.7899
  230MOL0     C31669   9.658   9.710   2.448 -0.4676  0.0469 -0.6306
  230MOL0     C31670   9.655   9.561   2.477 -0.2879 -0.2053 -0.3885
  230MOL0     H31671   9.263   9.899   2.799 -2.1011 -2.4760  0.0797
  230MOL0     H31672   9.165   9.918   3.014 -0.8783 -1.8153 -1.5597
  230MOL0     H31673   9.393   9.888   3.353 -1.5329  0.1833  0.7023
  230MOL0     H31674   9.356   9.710   3.372 -0.0290 -0.7429  0.5828
  230MOL0     H31675   9.169   9.931   3.461  0.8330 -0.4893 -1.2943
  230MOL0     H31676   9.150   9.762   3.495 -0.8922  1.4055  0.4854
  230MOL0     H31677   9.227   9.867   3.693 -1.4055  2.0848 -1.6898
  230MOL0     H31678   9.362   9.760   3.622  0.1801 -0.2806  0.0949
  230MOL0     H31679   9.478   9.964   3.548  0.5317  1.9644 -0.4007
  230MOL0     H31680   9.334  10.054   3.573 -2.5663 -1.6961  0.5070
  230MOL0     H31681   9.502   9.905   3.783  0.9301  0.9467 -0.6440
  230MOL0     H31682   9.364  10.015   3.828 -0.6133 -0.1925 -1.5036
  230MOL0     H31683   9.610  10.100   3.678  1.0201 -0.2899  1.9539
  230MOL0     H31684   9.483  10.209   3.734  1.1787  2.3140  3.8964
  230MOL0     H31685   9.534  10.174   3.974 -0.6765 -0.4370  0.1217
  230MOL0     H31686   9.660  10.242   3.867  2.3069 -1.9762 -1.3986
  230MOL0     H31687   9.745  10.072   4.057 -0.3242  0.6229  0.3857
  230MOL0     H31688   9.671   9.958   3.953 -1.6580  0.8238  1.7210
  230MOL0     H31689   9.909  10.275   3.871  1.2345  0.8516 -1.0021
  230MOL0     H31690  10.199  10.195   3.880 -0.5933 -0.8400 -0.1328
  230MOL0     H31691  10.148  10.297   3.745  2.5012  0.3666 -0.3536
  230MOL0     H31692  10.316  10.042   3.747 -1.0248  0.2288  1.1626
  230MOL0     H31693  10.214  10.062   3.613  3.3242 -2.9979 -0.2518
  230MOL0     H31694  10.415  10.171   3.557 -1.6792  1.9864 -2.0012
  230MOL0     H31695  10.314  10.304   3.589 -0.1052 -0.1220 -0.9346
  230MOL0     H31696  10.388  10.337   3.820  0.5739  1.3873 -0.4829
  230MOL0     H31697  10.499  10.200   3.797 -2.7083 -0.9379  1.3524
  230MOL0     H31698  10.636  10.350   3.922 -0.9333 -2.8129 -0.9284
  230MOL0     H31699  10.970  10.320   4.041 -0.1594  0.1024 -1.4604
  230MOL0     H31700  10.805  10.332   4.086  1.0887 -1.0525  0.1378
  230MOL0     H31701  10.887  10.487   4.069  1.1570 -0.3641  1.7444
  230MOL0     H31702  11.331  10.267   3.835 -1.1500  0.7318  1.5022
  230MOL0     H31703  11.562  10.314   3.893  0.3017  0.9609 -0.7024
  230MOL0     H31704  11.730  10.692   3.707 -1.2504 -1.6347 -0.9990
  230MOL0     H31705  11.694  10.752   3.868  3.1174  2.1162 -0.0369
  230MOL0     H31706  11.955  10.584   3.806  2.4243  0.6699  0.5700
  230MOL0     H31707  11.949  10.754   3.809  0.6165  0.4437 -0.3842
  230MOL0     H31708  11.888  10.534   4.011  0.6864 -0.3911  0.7088
  230MOL0     H31709  11.862  10.714   4.057  0.3805 -1.2571  1.0788
  230MOL0     H31710  12.106  10.741   4.002 -3.6127  1.0632  1.0641
  230MOL0     H31711  12.113  10.557   3.983 -1.9845 -0.1693 -2.2991
  230MOL0     H31712  12.032  10.717   4.237  1.6239  0.6443  0.7273
  230MOL0     H31713  12.036  10.540   4.225 -0.3293  0.0730 -0.7987
  230MOL0     H31714  12.261  10.746   4.249 -0.2946  0.0191  0.0841
  230MOL0     H31715  12.303  10.597   4.153 -1.0551 -1.5745 -1.3408
  230MOL0     H31716  12.370  10.573   4.356 -0.2913  0.1211 -1.1603
  230MOL0     H31717  12.207  10.476   4.354  0.3635 -1.2198  1.4903
  230MOL0     H31718  12.262  10.752   4.466  2.6029 -2.0621 -0.7582
  230MOL0     H31719  12.248  10.609   4.573 -2.4137 -1.5798  0.9862
  230MOL0     H31720  11.478  10.711   3.723 -1.8491  0.7882  3.0729
  230MOL0     H31721  11.249  10.647   3.685 -1.5616 -1.8836 -2.1333
  230MOL0     H31722  10.952  10.475   3.572  0.8878 -0.0820  0.3059
  230MOL0     H31723  10.719  10.445   3.512 -0.2276 -0.0437  0.1926
  230MOL0     H31724   9.506   9.702   3.174  1.7557 -0.3826 -0.6005
  230MOL0     H31725   9.615   9.713   2.968  1.4792  1.3721  2.4794
  230MOL0     H31726   9.632  10.019   2.601  0.4705  0.0837  1.3431
  230MOL0     H31727   9.704  10.089   2.360 -1.6199 -0.4079 -1.9758
  230MOL0     H31728   9.964   9.783   2.198 -1.0860  2.0174  1.6458
  230MOL0     H31729   9.845   9.751   2.073 -0.2344 -0.2943  0.4131
  230MOL0     H31730   9.931   9.959   1.940  1.2725  3.1757  1.4737
  230MOL0     H31731  10.033   9.820   1.962 -0.4220  0.4989 -0.7454
  230MOL0     H31732  10.051  10.041   2.168  1.9252 -0.7744  1.7857
  230MOL0     H31733  10.171   9.922   2.125  0.9543  1.4111  1.3264
  230MOL0     H31734  10.177  10.030   1.898 -1.1819 -2.0745  0.8432
  230MOL0     H31735  10.238  10.145   2.012  0.8569 -1.0253 -2.4790
  230MOL0     H31736   9.912  10.350   1.854  0.6526 -1.3048 -5.0133
  230MOL0     H31737   9.746   9.665   2.261  2.6449  1.5539 -0.3607
  230MOL0     H31738   9.713   9.504   2.403 -1.8716 -0.2306 -1.6525
  230MOL0     H31739   9.703   9.546   2.574  0.4706  1.7171 -0.4249
  230MOL0     H31740   9.556   9.516   2.490  0.1515 -0.9058  0.7064
  231MOL0     O31741   0.280   6.433   4.972 -0.3269 -0.9144 -0.2726
  231MOL0     C31742   0.230   6.527   4.902 -0.2693  0.5683 -0.6098
  231MOL0     O31743   0.239   6.528   4.767  0.4299 -0.6639 -0.2027
  231MOL0     C31744   0.308   6.426   4.706  0.2877 -0.5486  0.1566
  231MOL0     C31745   0.433   6.447   4.642 -0.0789 -0.0545 -0.5196
  231MOL0     C31746   0.483   6.345   4.560 -0.6162 -0.4602  0.2670
  231MOL0     C31747   0.422   6.223   4.543 -0.2952 -0.1823 -0.4663
  231MOL0     O31748   0.486   6.120   4.483  0.0083  0.7364 -0.4197
  231MOL0     C31749   0.408   6.017   4.418 -0.2576  0.0538  0.2408
  231MOL0     C31750   0.496   5.929   4.327  0.8666  0.2951 -0.4012
  231MOL0     C31751   0.612   5.852   4.397  0.1055  0.7742  0.4960
  231MOL0     C31752   0.747   5.916   4.369  0.5876 -0.2481  0.1134
  231MOL0     C31753   0.860   5.826   4.420 -0.6336  0.9022 -0.6516
  231MOL0     C31754   0.970   5.923   4.449 -0.9461 -1.6644  0.3937
  231MOL0     C31755   1.108   5.865   4.496 -0.4444  0.3777 -0.0551
  231MOL0     C31756   1.208   5.967   4.548 -0.1400  0.2506  0.6546
  231MOL0     N31757   1.273   6.029   4.436  0.0694 -0.1942 -1.1463
  231MOL0     C31758   1.407   6.078   4.437  0.9636 -0.0904  0.8793
  231MOL0     C31759   1.434   6.126   4.318 -0.3220  0.3069  0.5857
  231MOL0     C31760   1.564   6.195   4.261  0.5960 -0.3036  1.0637
  231MOL0     C31761   1.561   6.348   4.286  0.3853  0.1006  0.6745
  231MOL0     C31762   1.646   6.419   4.171 -0.0592 -0.4044  0.1919
  231MOL0     C31763   1.618   6.568   4.178  0.9146  0.4630 -0.7840
  231MOL0     O31764   1.628   6.622   4.314  0.2444 -0.2740 -0.1109
  231MOL0     C31765   1.552   6.733   4.316  0.1506  0.4856 -0.4290
  231MOL0     C31766   1.412   6.717   4.336 -0.1201  0.8636  0.7318
  231MOL0     C31767   1.328   6.823   4.354  0.2787  0.0494  0.5776
  231MOL0     C31768   1.175   6.803   4.361 -0.0838 -0.9877 -0.4201
  231MOL0     C31769   1.394   6.950   4.364  0.1094  0.7158  0.0164
  231MOL0     C31770   1.318   7.073   4.385  0.2716 -0.4765 -0.9524
  231MOL0     O31771   1.338   7.169   4.292 -0.3154  0.2518  1.1332
  231MOL0     C31772   1.302   7.296   4.325  0.8744  0.7704  0.6195
  231MOL0     C31773   1.230   7.373   4.224 -0.8262 -0.0685 -0.0675
  231MOL0     C31774   1.195   7.505   4.250  0.2062  0.1100 -0.8799
  231MOL0     C31775   1.235   7.567   4.370 -0.0543  0.1593 -0.1648
  231MOL0     O31776   1.200   7.705   4.397  0.2851 -0.0443 -0.5468
  231MOL0     C31777   1.085   7.777   4.346 -0.5082 -0.3306  0.1696
  231MOL0     C31778   1.072   7.911   4.415 -1.1024 -1.0052 -0.2857
  231MOL0     C31779   0.948   7.989   4.360 -0.5934  0.7376 -0.1022
  231MOL0     C31780   0.908   8.098   4.455 -0.6570  0.4122 -0.7749
  231MOL0     C31781   0.835   8.045   4.585  0.6546 -0.3760  0.1579
  231MOL0     C31782   0.780   8.153   4.673  0.0436 -0.2798  0.1152
  231MOL0     C31783   0.670   8.232   4.610  0.6779 -0.6569  0.1141
  231MOL0     C31784   0.686   8.387   4.606 -0.1127 -0.5762 -0.0065
  231MOL0    Cl31785   0.567   8.479   4.505 -0.3659 -0.0946  0.1354
  231MOL0     C31786   1.305   7.494   4.464 -0.5478 -0.3804  0.1755
  231MOL0     C31787   1.340   7.364   4.443 -0.0999 -0.7613  0.2402
  231MOL0     O31788   1.241   7.073   4.485  0.3966 -0.5441  0.0933
  231MOL0     C31789   1.538   6.967   4.360  0.6904  0.2714 -0.0511
  231MOL0     C31790   1.616   6.853   4.336  1.0604  0.4655 -0.3292
  231MOL0     N31791   1.317   6.097   4.245 -0.9224 -0.0915  0.1027
  231MOL0     N31792   1.226   6.036   4.310 -0.0201 -0.7561  0.6592
  231MOL0     C31793   0.292   6.211   4.594  0.8468  0.1904  0.4328
  231MOL0     C31794   0.237   6.311   4.680 -0.4186 -0.4785  0.4688
  231MOL0     C31795   0.184   6.650   4.975  0.1580  0.1028  0.5527
  231MOL0     C31796   0.141   6.630   5.106  0.0203 -0.0097 -0.1532
  231MOL0     C31797   0.102   6.734   5.180 -0.6206 -1.0584  0.1429
  231MOL0     C31798   0.112   6.867   5.121  0.0288  0.0069  0.4046
  231MOL0     O31799   0.055   6.975   5.175  0.0491 -0.0934  0.0085
  231MOL0     C31800  -0.076   6.965   5.230 -0.2989 -0.3217  0.0045
  231MOL0     C31801  -0.152   7.090   5.232 -0.7635 -0.7681  1.0406
  231MOL0     C31802  -0.251   7.103   5.340  0.8218 -0.6813 -0.5641
  231MOL0     C31803  -0.310   7.244   5.327  0.1688  0.2220  0.5761
  231MOL0     C31804  -0.218   7.354   5.362 -0.9059  0.0393  0.1657
  231MOL0     C31805  -0.135   7.429   5.407 -0.3924 -0.4413  0.4715
  231MOL0     C31806   0.146   6.880   4.985 -0.3413  0.3757 -0.8168
  231MOL0     C31807   0.179   6.773   4.910 -1.4873 -0.2932  0.3764
  231MOL0     C31808   0.230   6.802   4.776 -0.0755 -0.0339 -1.6773
  231MOL0     H31809   0.490   6.538   4.628  0.5048 -0.5467 -1.4408
  231MOL0     H31810   0.578   6.361   4.510  0.1696 -0.2496  1.7733
  231MOL0     H31811   0.339   6.070   4.352  2.6273 -0.4787 -3.5803
  231MOL0     H31812   0.359   5.950   4.490  1.3797  0.0970  1.4691
  231MOL0     H31813   0.438   5.863   4.263 -0.4774 -0.1225  1.1566
  231MOL0     H31814   0.532   6.004   4.256  2.0742  0.2014  0.0947
  231MOL0     H31815   0.586   5.854   4.503 -2.8404 -0.5489 -0.0968
  231MOL0     H31816   0.626   5.746   4.372 -1.9558  0.6810 -0.5150
  231MOL0     H31817   0.752   5.944   4.263 -1.9654  0.9149  0.2346
  231MOL0     H31818   0.738   6.016   4.411 -3.2421  0.6440 -2.2769
  231MOL0     H31819   0.877   5.737   4.358 -2.6389  0.5402 -0.7389
  231MOL0     H31820   0.842   5.782   4.518  3.0213  2.5629  0.9790
  231MOL0     H31821   0.984   5.982   4.358 -0.4137 -2.6027 -0.1435
  231MOL0     H31822   0.943   5.986   4.534 -1.9011 -1.1729 -0.2525
  231MOL0     H31823   1.148   5.801   4.417 -0.4557 -0.7280  0.8199
  231MOL0     H31824   1.087   5.797   4.579  2.8106  0.4586  0.9897
  231MOL0     H31825   1.152   6.050   4.593  1.4553  1.2358  0.9155
  231MOL0     H31826   1.282   5.920   4.614 -0.0459 -2.3069 -1.1210
  231MOL0     H31827   1.479   6.074   4.519  2.0667  2.6346  0.1386
  231MOL0     H31828   1.555   6.169   4.155 -2.4580  0.1945  1.0940
  231MOL0     H31829   1.653   6.148   4.304  0.7094  1.7734  3.3226
  231MOL0     H31830   1.461   6.384   4.262  2.0200  3.3697 -2.0494
  231MOL0     H31831   1.597   6.372   4.387  1.8133  1.0908 -0.0455
  231MOL0     H31832   1.753   6.403   4.187 -0.1414 -0.9610  0.1983
  231MOL0     H31833   1.616   6.383   4.072 -2.6410  1.2413  0.2894
  231MOL0     H31834   1.691   6.610   4.108  0.8880 -0.0566 -1.1304
  231MOL0     H31835   1.517   6.584   4.141  0.4057  1.0713  0.7704
  231MOL0     H31836   1.388   6.611   4.341  2.9745 -0.4388 -4.3212
  231MOL0     H31837   1.125   6.871   4.292  2.0782  0.3208 -0.7774
  231MOL0     H31838   1.150   6.835   4.463 -1.9737 -0.4853 -1.0087
  231MOL0     H31839   1.157   6.696   4.344  2.3914 -1.5237 -0.0727
  231MOL0     H31840   1.205   7.325   4.130 -3.3786 -0.9880  1.0000
  231MOL0     H31841   1.120   7.553   4.187  0.4590  0.8033 -0.6552
  231MOL0     H31842   1.111   7.780   4.240  3.2282 -2.0434  0.8746
  231MOL0     H31843   0.992   7.721   4.340  0.5128 -1.9798 -2.2450
  231MOL0     H31844   1.065   7.882   4.520 -0.0873 -0.8855 -0.1787
  231MOL0     H31845   1.158   7.974   4.393 -0.2707 -1.1455  2.2891
  231MOL0     H31846   0.856   7.929   4.365 -0.1217  0.0909  1.8073
  231MOL0     H31847   0.963   8.029   4.259 -0.9564 -1.1420 -0.9499
  231MOL0     H31848   0.838   8.165   4.404 -0.4504  1.0230 -0.2795
  231MOL0     H31849   0.996   8.157   4.485  2.7996 -3.9321 -1.4164
  231MOL0     H31850   0.759   7.972   4.555 -1.0977  1.2235  0.5166
  231MOL0     H31851   0.911   7.998   4.649  3.3039  2.6526 -0.5033
  231MOL0     H31852   0.852   8.225   4.713 -1.9533 -0.4770  4.7507
  231MOL0     H31853   0.733   8.107   4.761  0.6905 -1.7966 -0.2987
  231MOL0     H31854   0.572   8.209   4.655 -0.1310  0.7025 -0.8630
  231MOL0     H31855   0.657   8.205   4.505  0.6767 -2.9433  0.6565
  231MOL0     H31856   0.787   8.399   4.566  1.0109 -5.6189  0.6924
  231MOL0     H31857   0.701   8.424   4.707 -0.7375 -1.3200  0.3693
  231MOL0     H31858   1.339   7.546   4.553 -0.0849  0.5027 -0.4911
  231MOL0     H31859   1.402   7.315   4.518  2.0742  0.6349 -0.5535
  231MOL0     H31860   1.577   7.066   4.342  1.7460 -0.5853 -3.1717
  231MOL0     H31861   1.725   6.858   4.339  0.9994  3.3101 -0.7592
  231MOL0     H31862   0.235   6.122   4.567 -0.7570  1.1483  0.5471
  231MOL0     H31863   0.135   6.296   4.716 -1.8383  0.6833 -2.6391
  231MOL0     H31864   0.153   6.532   5.152  2.4891  0.0507 -0.5375
  231MOL0     H31865   0.076   6.722   5.284 -0.0379  1.8598  0.7378
  231MOL0     H31866  -0.137   6.890   5.177 -0.3200 -0.4207  0.1670
  231MOL0     H31867  -0.060   6.936   5.334 -0.7174  1.1508  0.4962
  231MOL0     H31868  -0.201   7.115   5.138  0.8406 -2.8834 -0.4419
  231MOL0     H31869  -0.073   7.163   5.252 -0.9278 -0.4793  0.6551
  231MOL0     H31870  -0.339   7.041   5.320 -0.0640  0.7080 -1.0819
  231MOL0     H31871  -0.206   7.081   5.438  1.2059 -2.5814 -1.1188
  231MOL0     H31872  -0.400   7.260   5.386 -0.6546  2.6221 -1.1792
  231MOL0     H31873  -0.344   7.259   5.225 -0.9188 -0.5623  0.8082
  231MOL0     H31874  -0.053   7.486   5.444  0.6528 -1.0389 -0.8467
  231MOL0     H31875   0.146   6.979   4.941  2.7421  0.1232 -1.6613
  231MOL0     H31876   0.209   6.905   4.746 -1.3471 -0.1032 -1.0939
  231MOL0     H31877   0.332   6.770   4.756  0.2345  0.6211 -1.2101
  231MOL0     H31878   0.163   6.747   4.710 -2.8199 -1.4148  1.8831
  232MOL0     O31879   8.721   9.270   3.012 -0.4246  0.2088 -0.3799
  232MOL0     C31880   8.646   9.315   3.096  0.0239  0.0242  0.2037
  232MOL0     O31881   8.635   9.441   3.134  0.6937 -0.4171  0.2109
  232MOL0     C31882   8.711   9.534   3.063  0.7233 -0.2377  0.7214
  232MOL0     C31883   8.646   9.634   2.985 -0.0759 -0.1663 -0.1322
  232MOL0     C31884   8.716   9.720   2.896  0.1345  0.1666  0.3555
  232MOL0     C31885   8.853   9.737   2.917 -0.0874 -0.5425  0.4166
  232MOL0     O31886   8.928   9.826   2.835  0.2231 -0.5347 -0.1477
  232MOL0     C31887   8.884   9.852   2.697  0.0281  0.7512  0.3006
  232MOL0     C31888   8.988   9.902   2.607 -0.3492  0.3833  0.1289
  232MOL0     C31889   9.090   9.785   2.572  0.0439 -0.2912 -0.2962
  232MOL0     C31890   9.223   9.837   2.514  0.6038  0.4887 -0.6404
  232MOL0     C31891   9.204   9.918   2.389 -0.5772 -0.2655  0.4770
  232MOL0     C31892   9.329   9.971   2.337 -0.7462  0.1056  0.1986
  232MOL0     C31893   9.297  10.066   2.221  0.3152 -0.8224 -0.9823
  232MOL0     C31894   9.425  10.130   2.172  0.3303  1.4403 -0.4878
  232MOL0     N31895   9.393  10.222   2.070  0.2274 -0.7055  0.9778
  232MOL0     C31896   9.398  10.205   1.932  0.9198 -0.3294 -0.4361
  232MOL0     C31897   9.409  10.323   1.876  0.1515  0.0982 -0.2539
  232MOL0     C31898   9.429  10.339   1.732 -0.3638 -1.0227 -0.1514
  232MOL0     C31899   9.574  10.381   1.712  0.3419  0.2251 -0.0757
  232MOL0     C31900   9.597  10.393   1.559  0.6382 -0.8189 -0.6041
  232MOL0     C31901   9.741  10.431   1.532  0.2130  0.3288  0.0333
  232MOL0     O31902   9.829  10.329   1.596  0.7122  0.5666  0.8710
  232MOL0     C31903   9.872  10.239   1.500 -0.1333  0.0420  1.0833
  232MOL0     C31904   9.990  10.175   1.525 -0.0153  0.6988 -0.3229
  232MOL0     C31905  10.044  10.078   1.434  0.4463  0.1333  0.6172
  232MOL0     C31906  10.165   9.994   1.484  0.6777  0.0390 -0.3092
  232MOL0     C31907   9.982  10.060   1.307 -0.7318  0.7051 -0.8843
  232MOL0     C31908  10.043   9.968   1.197  0.3330  0.3599 -0.2081
  232MOL0     O31909   9.963   9.939   1.090  0.0404 -0.3517  0.0097
  232MOL0     C31910  10.009   9.853   1.000 -0.1954  0.0097 -0.3680
  232MOL0     C31911   9.968   9.721   0.999  0.3096  0.1521 -0.0365
  232MOL0     C31912  10.006   9.639   0.891  0.7854 -0.1505 -0.5290
  232MOL0     C31913  10.098   9.683   0.798  0.2573 -0.2713 -0.1029
  232MOL0     O31914  10.139   9.591   0.700  0.0517 -0.0234 -0.3450
  232MOL0     C31915  10.201   9.630   0.578  0.3786  0.4162 -0.1921
  232MOL0     C31916  10.246   9.504   0.503  1.1149 -0.3461  0.0113
  232MOL0     C31917  10.173   9.492   0.371 -0.2434  0.8793  1.0521
  232MOL0     C31918  10.185   9.344   0.333 -0.1797 -0.6656  0.1429
  232MOL0     C31919  10.096   9.245   0.403 -0.1340 -0.3147 -0.0231
  232MOL0     C31920  10.158   9.103   0.385  0.2467  0.6060  0.4579
  232MOL0     C31921  10.060   9.003   0.451  0.4050 -0.7080  0.3380
  232MOL0     C31922  10.122   8.870   0.492  0.7683 -0.0933 -0.0701
  232MOL0    Cl31923  10.246   8.890   0.610  0.3091  0.4287 -0.0670
  232MOL0     C31924  10.141   9.811   0.803 -0.0988 -0.0048  0.0721
  232MOL0     C31925  10.093   9.894   0.900  0.4053  0.0314 -0.8395
  232MOL0     O31926  10.152   9.915   1.218  0.1607 -0.4612  0.3628
  232MOL0     C31927   9.866  10.131   1.279  0.3947 -0.9834 -0.0071
  232MOL0     C31928   9.813  10.217   1.370 -0.3015  0.7896 -0.8496
  232MOL0     N31929   9.381  10.419   1.973  0.1978  0.0136 -0.8991
  232MOL0     N31930   9.366  10.356   2.085  0.5333 -0.2080  1.1022
  232MOL0     C31931   8.913   9.658   3.008  0.2095  0.8959  0.0564
  232MOL0     C31932   8.846   9.541   3.069 -0.9416 -1.1252  1.4462
  232MOL0     C31933   8.547   9.212   3.147  0.9950  0.1779  0.5607
  232MOL0     C31934   8.535   9.090   3.083  0.1717  0.0260 -0.4619
  232MOL0     C31935   8.446   8.991   3.117  0.1905  0.8352 -0.8016
  232MOL0     C31936   8.369   9.006   3.234  0.2614 -0.1020  0.7896
  232MOL0     O31937   8.298   8.905   3.296 -0.6547  0.4389 -0.4552
  232MOL0     C31938   8.272   8.785   3.223  0.1278  0.1086 -0.2828
  232MOL0     C31939   8.154   8.701   3.288  0.1376  0.1033 -0.3538
  232MOL0     C31940   8.125   8.575   3.213 -0.4124 -0.1748 -0.1720
  232MOL0     C31941   8.082   8.461   3.312  0.6556  0.0207  0.0327
  232MOL0     C31942   8.208   8.418   3.383  0.1606  0.4284  0.1108
  232MOL0     C31943   8.317   8.418   3.445 -0.4558 -0.3174  0.6812
  232MOL0     C31944   8.366   9.130   3.289  1.0736 -0.5481  0.4356
  232MOL0     C31945   8.444   9.240   3.240 -0.0791  0.0808 -0.2789
  232MOL0     C31946   8.427   9.378   3.306 -0.3478  0.6658  0.1065
  232MOL0     H31947   8.538   9.626   2.984  0.0786 -3.3452  0.2471
  232MOL0     H31948   8.656   9.786   2.835 -0.4915  1.6356  2.4422
  232MOL0     H31949   8.808   9.931   2.709 -0.6852  0.1744 -0.3349
  232MOL0     H31950   8.844   9.761   2.651 -0.0139  0.2033  1.3735
  232MOL0     H31951   8.945   9.935   2.512 -0.1068  3.3617  0.9400
  232MOL0     H31952   9.039   9.988   2.652  0.7188  0.5250 -1.2729
  232MOL0     H31953   9.106   9.736   2.669 -2.2068  1.4516  1.0602
  232MOL0     H31954   9.045   9.719   2.498  2.0661 -0.5938 -1.3231
  232MOL0     H31955   9.272   9.901   2.589  3.1533 -1.6785 -0.2941
  232MOL0     H31956   9.280   9.747   2.490  0.1816  0.4666 -1.5891
  232MOL0     H31957   9.141  10.004   2.411 -0.6422  0.1353 -1.1111
  232MOL0     H31958   9.140   9.865   2.318 -1.4689  0.8958  0.3826
  232MOL0     H31959   9.390  10.019   2.413  1.9284  0.6239 -2.0785
  232MOL0     H31960   9.398   9.896   2.298  0.0076  1.8339 -2.0629
  232MOL0     H31961   9.237  10.153   2.248  0.4872  0.1504 -3.4580
  232MOL0     H31962   9.258  10.004   2.140 -1.3758 -1.8625  0.5704
  232MOL0     H31963   9.475  10.181   2.255 -1.0092  1.2328  0.4963
  232MOL0     H31964   9.484  10.047   2.134  2.4165  2.0566  1.2039
  232MOL0     H31965   9.405  10.105   1.890 -0.5434 -2.2314  3.3541
  232MOL0     H31966   9.358  10.415   1.697  0.2038 -0.3402  0.1616
  232MOL0     H31967   9.403  10.255   1.668 -2.0239  1.1460 -2.5581
  232MOL0     H31968   9.607  10.468   1.769 -0.2529  0.9645 -0.8474
  232MOL0     H31969   9.636  10.300   1.752  1.8527  1.2163 -0.3457
  232MOL0     H31970   9.577  10.300   1.505  1.2000 -2.4086  1.7743
  232MOL0     H31971   9.533  10.473   1.521  0.6680 -0.7022 -0.4080
  232MOL0     H31972   9.762  10.465   1.430 -1.2246 -3.5400 -1.7549
  232MOL0     H31973   9.757  10.518   1.597  2.1086 -1.8388  2.6588
  232MOL0     H31974  10.045  10.186   1.618  1.8910 -1.9100 -1.0408
  232MOL0     H31975  10.127   9.895   1.456  1.4034  0.0604 -1.4545
  232MOL0     H31976  10.176   9.995   1.593 -2.4167  0.2031  0.0945
  232MOL0     H31977  10.244  10.033   1.420  1.3513 -2.6974 -1.3085
  232MOL0     H31978   9.910   9.683   1.083  2.1030 -1.0603  0.7090
  232MOL0     H31979   9.963   9.540   0.882  1.5524 -0.5263 -0.2373
  232MOL0     H31980  10.146   9.695   0.510  3.0398  0.0260 -2.9384
  232MOL0     H31981  10.288   9.681   0.622 -0.2367  1.9278 -0.6604
  232MOL0     H31982  10.352   9.522   0.479 -0.0777  2.2171 -4.3945
  232MOL0     H31983  10.232   9.418   0.569  1.1972  0.3654  0.9852
  232MOL0     H31984  10.212   9.568   0.302 -3.5197  0.8411 -1.0332
  232MOL0     H31985  10.074   9.530   0.396  1.1232  5.1391  0.8619
  232MOL0     H31986  10.292   9.323   0.327  0.1057  1.0217 -2.0773
  232MOL0     H31987  10.152   9.323   0.230 -0.2194 -1.7841  0.3672
  232MOL0     H31988  10.078   9.272   0.508  1.3021 -1.5088  0.5739
  232MOL0     H31989  10.006   9.258   0.344 -0.5151 -0.4391  0.5221
  232MOL0     H31990  10.263   9.101   0.416  1.5441  0.5429 -3.3879
  232MOL0     H31991  10.158   9.078   0.278  2.2198  2.2615  0.0065
  232MOL0     H31992   9.981   8.992   0.376 -0.4744 -0.0833  1.1518
  232MOL0     H31993  10.012   9.049   0.538  0.2064  0.1659 -0.2196
  232MOL0     H31994  10.142   8.802   0.408 -1.4757  1.2660 -1.8532
  232MOL0     H31995  10.043   8.819   0.548 -0.3227  1.6291  0.0343
  232MOL0     H31996  10.212   9.852   0.732 -0.2126 -0.8977 -0.5745
  232MOL0     H31997  10.127   9.997   0.906 -0.1940  0.2119 -0.4117
  232MOL0     H31998   9.824  10.109   1.182 -1.0332  0.6869  0.1959
  232MOL0     H31999   9.718  10.263   1.345 -0.2199  1.4464 -0.0388
  232MOL0     H32000   9.019   9.670   3.025  0.3798  0.8955 -0.9517
  232MOL0     H32001   8.907   9.471   3.124 -0.3602 -0.6723  1.3845
  232MOL0     H32002   8.594   9.068   2.995  3.3510 -2.6663  2.0541
  232MOL0     H32003   8.443   8.897   3.064  2.2420  0.0509  0.3721
  232MOL0     H32004   8.243   8.806   3.119 -0.1054 -0.3785 -0.3191
  232MOL0     H32005   8.371   8.740   3.222  2.0730  3.9066  0.3256
  232MOL0     H32006   8.067   8.767   3.288 -1.0975 -1.4460  0.5274
  232MOL0     H32007   8.190   8.682   3.390  1.1249 -0.5304 -0.8018
  232MOL0     H32008   8.047   8.595   3.139 -0.1218 -1.2886 -0.8133
  232MOL0     H32009   8.217   8.538   3.165  1.3275  0.9090  2.1238
  232MOL0     H32010   8.046   8.374   3.256 -2.4602  0.7187  0.7518
  232MOL0     H32011   8.009   8.477   3.392  0.0707  0.3708 -0.5631
  232MOL0     H32012   8.412   8.428   3.492 -0.6425 -0.1433  1.0286
  232MOL0     H32013   8.310   9.147   3.381  2.6063 -2.9513  1.9343
  232MOL0     H32014   8.504   9.389   3.383  0.2483 -0.4380 -0.3189
  232MOL0     H32015   8.424   9.457   3.230 -0.3343 -1.3777 -2.1248
  232MOL0     H32016   8.332   9.378   3.359 -0.3148  0.3090  0.1635
  233MOL0     O32017   9.665   7.166   4.266  0.0021 -0.2791  0.3090
  233MOL0     C32018   9.591   7.252   4.319 -0.1499 -0.4653  0.2030
  233MOL0     O32019   9.525   7.353   4.249  0.5139 -0.7839  0.2639
  233MOL0     C32020   9.578   7.387   4.128  0.4962 -0.2430 -0.7841
  233MOL0     C32021   9.498   7.371   4.016  0.2172  0.2040 -0.9854
  233MOL0     C32022   9.542   7.418   3.896  0.2023  0.8568 -0.3952
  233MOL0     C32023   9.661   7.495   3.889  0.6346 -0.6897 -0.1048
  233MOL0     O32024   9.708   7.544   3.771 -0.1045 -0.2852  0.2041
  233MOL0     C32025   9.615   7.618   3.685 -0.2703 -0.4307  1.3488
  233MOL0     C32026   9.699   7.644   3.561 -0.8385  0.7156 -0.2173
  233MOL0     C32027   9.654   7.733   3.454  0.5112  0.4469  1.3085
  233MOL0     C32028   9.759   7.786   3.358  0.3233 -0.4159  0.4926
  233MOL0     C32029   9.740   7.933   3.308 -0.2374 -1.0904  0.3150
  233MOL0     C32030   9.885   7.980   3.257  0.1658 -0.4993 -0.1233
  233MOL0     C32031   9.922   8.124   3.280 -0.4430  0.4353  0.6725
  233MOL0     C32032  10.069   8.162   3.238  0.5083 -0.2818 -0.0237
  233MOL0     N32033  10.111   8.300   3.274 -0.9570  0.4795  0.3331
  233MOL0     C32034  10.132   8.357   3.405  0.0197 -0.6113  0.1485
  233MOL0     C32035  10.151   8.487   3.376 -0.5935  0.0433 -1.3947
  233MOL0     C32036  10.176   8.599   3.470  0.1714  0.0439  0.4815
  233MOL0     C32037  10.237   8.559   3.600 -0.2500  0.1853  0.0576
  233MOL0     C32038  10.183   8.644   3.716  0.0254 -0.0623 -0.5175
  233MOL0     C32039  10.277   8.658   3.835 -0.5495  0.6807 -0.8876
  233MOL0     O32040  10.313   8.527   3.887  0.3442 -0.0202  0.6250
  233MOL0     C32041  10.423   8.529   3.957 -0.7371  0.0034 -0.1258
  233MOL0     C32042  10.421   8.551   4.091 -0.0572  0.7423 -0.2151
  233MOL0     C32043  10.542   8.557   4.167  0.0029  0.5108  0.1635
  233MOL0     C32044  10.530   8.588   4.319 -0.7721  0.6799 -0.2448
  233MOL0     C32045  10.669   8.551   4.094 -0.4234 -0.4883  0.1979
  233MOL0     C32046  10.802   8.554   4.167  0.3580 -0.8804 -0.5241
  233MOL0     O32047  10.908   8.564   4.085  0.5718  0.1783  0.1472
  233MOL0     C32048  11.045   8.561   4.117  0.2993 -0.0589  0.2293
  233MOL0     C32049  11.138   8.657   4.069  0.1817 -0.6350 -0.0904
  233MOL0     C32050  11.271   8.656   4.117  0.1992 -0.0272 -0.0291
  233MOL0     C32051  11.312   8.561   4.211 -0.4920  0.1163  0.1082
  233MOL0     O32052  11.437   8.575   4.268  0.1236 -0.1675 -0.1589
  233MOL0     C32053  11.474   8.487   4.364 -0.5897  0.1665 -0.4780
  233MOL0     C32054  11.622   8.519   4.398  0.0588 -0.2674  0.4814
  233MOL0     C32055  11.627   8.629   4.505 -0.7201 -0.1907 -0.0616
  233MOL0     C32056  11.775   8.674   4.545 -0.1585  0.5435 -0.1283
  233MOL0     C32057  11.781   8.793   4.630 -0.5237 -0.4391  0.1434
  233MOL0     C32058  11.917   8.816   4.688 -0.6550  0.1514  0.7769
  233MOL0     C32059  11.924   8.944   4.777  0.0131 -0.5544 -0.4469
  233MOL0     C32060  12.053   8.972   4.861  1.0800  0.8884 -0.3096
  233MOL0    Cl32061  12.027   9.107   4.986 -0.5804 -0.5182  0.0215
  233MOL0     C32062  11.224   8.459   4.243 -0.2283  0.8397  0.3453
  233MOL0     C32063  11.089   8.456   4.201  0.4866 -0.1564 -0.4015
  233MOL0     O32064  10.817   8.532   4.284 -0.2161 -0.1359  0.0279
  233MOL0     C32065  10.670   8.544   3.959  0.1910 -0.7170  0.4915
  233MOL0     C32066  10.550   8.527   3.887  0.2074  0.9268  0.5187
  233MOL0     N32067  10.161   8.506   3.237  0.3518 -0.0592 -0.6117
  233MOL0     N32068  10.141   8.397   3.178  0.3406  0.6321 -0.3682
  233MOL0     C32069   9.737   7.520   4.001  0.2679  0.7827  0.3029
  233MOL0     C32070   9.697   7.462   4.113  0.1762  0.0485 -0.4077
  233MOL0     C32071   9.565   7.231   4.459 -0.5263 -0.5890 -2.2391
  233MOL0     C32072   9.462   7.309   4.525  0.0458 -0.2772  0.2808
  233MOL0     C32073   9.456   7.319   4.658  0.8633 -0.5054 -0.0208
  233MOL0     C32074   9.533   7.248   4.745  0.2962 -0.5627 -0.6707
  233MOL0     O32075   9.512   7.262   4.880 -0.8152  0.5809 -0.7227
  233MOL0     C32076   9.631   7.273   4.960  0.0515  0.4489 -0.5521
  233MOL0     C32077   9.707   7.413   4.954  0.1084  0.5351 -1.4581
  233MOL0     C32078   9.841   7.414   5.019 -0.1126 -0.0010  0.5434
  233MOL0     C32079   9.835   7.405   5.170 -0.6214 -0.1581 -0.0896
  233MOL0     C32080   9.747   7.510   5.226  0.9939  1.1185  0.1850
  233MOL0     C32081   9.666   7.593   5.264  0.0820  0.1798  0.3287
  233MOL0     C32082   9.627   7.161   4.682  0.1655  0.0934  0.0261
  233MOL0     C32083   9.654   7.148   4.546 -0.2482 -0.3186  0.0351
  233MOL0     C32084   9.766   7.056   4.501 -0.1682  0.8508 -0.0137
  233MOL0     H32085   9.410   7.309   4.023 -0.2495  0.5195 -3.2482
  233MOL0     H32086   9.485   7.404   3.804  2.0970  0.8684 -1.6339
  233MOL0     H32087   9.599   7.721   3.719  0.1065 -0.4719  1.6530
  233MOL0     H32088   9.524   7.564   3.659  0.1426 -0.6137  0.2321
  233MOL0     H32089   9.792   7.682   3.603 -1.0702 -0.3877  1.4307
  233MOL0     H32090   9.722   7.541   3.534 -1.8072  0.1768  0.8783
  233MOL0     H32091   9.584   7.682   3.386  2.8040  0.6458 -1.3544
  233MOL0     H32092   9.588   7.812   3.491 -0.9612  0.9858 -2.1009
  233MOL0     H32093   9.859   7.785   3.403  0.7413  1.3364 -0.2991
  233MOL0     H32094   9.783   7.724   3.271  1.9674 -1.3638  1.5694
  233MOL0     H32095   9.704   8.005   3.382 -0.8670 -1.2577  0.1772
  233MOL0     H32096   9.673   7.930   3.222 -0.4539 -2.5514  0.5066
  233MOL0     H32097   9.971   7.937   3.309  2.2792  1.3910 -1.8837
  233MOL0     H32098   9.902   7.944   3.155  1.8013 -0.9809  0.2899
  233MOL0     H32099   9.898   8.151   3.384 -1.3508  0.4166  0.4826
  233MOL0     H32100   9.855   8.188   3.221 -0.6672 -2.2849 -2.2746
  233MOL0     H32101  10.136   8.095   3.292  0.7527  0.7268  0.9786
  233MOL0     H32102  10.095   8.141   3.134  1.2902 -0.6927  0.2444
  233MOL0     H32103  10.138   8.306   3.500  0.6955  1.9994  1.5890
  233MOL0     H32104  10.084   8.657   3.477 -0.6190 -1.2352  0.9216
  233MOL0     H32105  10.252   8.661   3.421 -0.9012  0.9548 -0.0925
  233MOL0     H32106  10.235   8.454   3.630 -0.8022 -0.2010 -1.2569
  233MOL0     H32107  10.345   8.568   3.584 -0.6043  2.6383 -1.5820
  233MOL0     H32108  10.164   8.746   3.681 -0.7827  0.5333  1.5484
  233MOL0     H32109  10.084   8.609   3.744  1.2951 -3.2202  0.4302
  233MOL0     H32110  10.367   8.714   3.808  0.1231  0.2769  0.3877
  233MOL0     H32111  10.231   8.715   3.916  2.0276  2.7219 -0.7245
  233MOL0     H32112  10.325   8.541   4.140 -1.2892  1.1484 -2.4176
  233MOL0     H32113  10.546   8.495   4.374 -1.3108  0.5890 -0.2367
  233MOL0     H32114  10.427   8.606   4.351 -0.2895  0.1802  1.7175
  233MOL0     H32115  10.605   8.663   4.345  1.5967 -0.2328 -3.6245
  233MOL0     H32116  11.111   8.739   4.004 -0.9914  0.7595  2.0500
  233MOL0     H32117  11.331   8.741   4.088  0.1747 -0.3473 -1.0645
  233MOL0     H32118  11.399   8.500   4.443  0.6811  1.4525  0.5806
  233MOL0     H32119  11.480   8.383   4.331  2.0876  0.2422 -0.4792
  233MOL0     H32120  11.675   8.428   4.428  1.4341  0.5388  0.5275
  233MOL0     H32121  11.668   8.549   4.304  0.2277  0.8877  0.9095
  233MOL0     H32122  11.568   8.607   4.594 -0.1820 -0.3368  0.2618
  233MOL0     H32123  11.592   8.720   4.455 -1.7995  0.0874  1.1478
  233MOL0     H32124  11.823   8.680   4.447 -3.3196 -2.8105 -2.1420
  233MOL0     H32125  11.822   8.587   4.592  2.6366  2.1802  0.3565
  233MOL0     H32126  11.745   8.886   4.585 -0.4287  0.6383  2.1513
  233MOL0     H32127  11.714   8.770   4.714  0.7066  0.1987  1.3438
  233MOL0     H32128  11.980   8.838   4.601 -1.8103  0.7099  0.0648
  233MOL0     H32129  11.959   8.727   4.736  0.1813 -0.8192 -1.6102
  233MOL0     H32130  11.851   8.942   4.858  0.6767  1.2074  0.2346
  233MOL0     H32131  11.902   9.029   4.713  2.1604  0.1618 -0.2978
  233MOL0     H32132  12.136   8.997   4.794  2.3593 -3.2181 -0.5066
  233MOL0     H32133  12.076   8.876   4.908 -1.1860 -0.1436 -1.1449
  233MOL0     H32134  11.249   8.378   4.310  0.4861  3.1722  3.0809
  233MOL0     H32135  11.025   8.389   4.257 -0.4179  0.8842 -0.1654
  233MOL0     H32136  10.767   8.542   3.910 -0.2634 -0.7286 -0.4287
  233MOL0     H32137  10.556   8.508   3.780  1.7280  4.6480 -0.2009
  233MOL0     H32138   9.824   7.583   4.010 -1.2853  2.8428  1.6686
  233MOL0     H32139   9.764   7.468   4.198 -1.5213 -0.5061  1.0038
  233MOL0     H32140   9.386   7.366   4.473  0.4012  0.7789  0.8917
  233MOL0     H32141   9.379   7.379   4.706  0.8204 -0.0670 -0.6282
  233MOL0     H32142   9.591   7.272   5.062  0.1274  0.2010 -0.5231
  233MOL0     H32143   9.701   7.190   4.949 -1.6121 -0.8189 -2.1655
  233MOL0     H32144   9.649   7.497   4.993 -0.3555 -0.6592  0.5609
  233MOL0     H32145   9.722   7.434   4.848  2.7557  3.2954 -0.6676
  233MOL0     H32146   9.891   7.328   4.972 -0.6519  0.8982 -1.8268
  233MOL0     H32147   9.899   7.504   4.995  1.5604 -1.1988 -0.1020
  233MOL0     H32148   9.933   7.427   5.214 -0.9273  0.6527  0.2179
  233MOL0     H32149   9.797   7.306   5.198 -3.1128  1.4115  2.7231
  233MOL0     H32150   9.582   7.657   5.282  0.3051  0.7330 -0.4933
  233MOL0     H32151   9.683   7.101   4.753  1.9176 -0.6816 -1.9042
  233MOL0     H32152   9.800   7.005   4.591 -3.2358 -0.2861  0.5876
  233MOL0     H32153   9.724   6.973   4.443 -0.5582  0.1244  1.2809
  233MOL0     H32154   9.847   7.099   4.440  1.4150 -2.5157 -0.4955
  234MOL0     O32155   5.100   5.388   1.954 -0.0802  0.3637  0.4741
  234MOL0     C32156   5.123   5.392   1.840  0.7162  0.1485  1.2119
  234MOL0     O32157   5.245   5.372   1.782  1.1877 -0.3413 -0.5393
  234MOL0     C32158   5.361   5.353   1.857 -0.3630 -0.3231 -0.9207
  234MOL0     C32159   5.476   5.315   1.782  0.1924 -0.2405 -0.6389
  234MOL0     C32160   5.598   5.293   1.847 -0.3939 -0.3782  0.2359
  234MOL0     C32161   5.619   5.317   1.985  0.1180 -0.1458 -0.9240
  234MOL0     O32162   5.731   5.300   2.058 -0.2949  0.3800  0.3862
  234MOL0     C32163   5.852   5.280   1.989  0.4061  0.2279  0.5216
  234MOL0     C32164   5.958   5.297   2.093  0.0081  0.5453 -0.0743
  234MOL0     C32165   6.078   5.239   2.024  0.1097  0.4540 -0.6925
  234MOL0     C32166   6.192   5.206   2.115 -0.4397  0.2393 -0.3053
  234MOL0     C32167   6.309   5.147   2.029 -0.4185 -0.1718  0.1980
  234MOL0     C32168   6.444   5.156   2.109  0.2338  0.3287 -0.0693
  234MOL0     C32169   6.562   5.087   2.040  0.9980 -0.0062  0.4901
  234MOL0     C32170   6.581   5.139   1.896  0.1042  0.3614 -0.5472
  234MOL0     N32171   6.705   5.100   1.826 -0.1077 -0.6656  0.1652
  234MOL0     C32172   6.825   5.129   1.871 -0.3937 -0.5147  0.6813
  234MOL0     C32173   6.903   5.145   1.758  0.7925 -0.5768 -0.4026
  234MOL0     C32174   7.043   5.206   1.762 -0.2027 -0.2159  0.1445
  234MOL0     C32175   7.160   5.102   1.776  0.0174 -0.8538 -0.1868
  234MOL0     C32176   7.176   5.032   1.641 -0.4727  0.2863 -0.3325
  234MOL0     C32177   7.258   5.105   1.531 -0.7911 -0.4975  0.3079
  234MOL0     O32178   7.391   5.110   1.588  0.2826 -1.0930  0.3507
  234MOL0     C32179   7.490   5.187   1.519  0.8928 -0.1229  0.1715
  234MOL0     C32180   7.458   5.308   1.466 -0.4110 -0.1573  0.5711
  234MOL0     C32181   7.556   5.379   1.392 -0.3648  0.0070 -0.1110
  234MOL0     C32182   7.493   5.493   1.314 -0.1508 -0.2505 -0.0021
  234MOL0     C32183   7.693   5.334   1.377  0.9656 -0.1988  0.5468
  234MOL0     C32184   7.801   5.412   1.303 -0.5733  0.6750 -0.0546
  234MOL0     O32185   7.928   5.377   1.331  0.0105  0.0573 -0.1993
  234MOL0     C32186   8.036   5.409   1.253 -0.4313  0.3440 -0.3558
  234MOL0     C32187   8.139   5.313   1.256 -0.0987  0.5345 -0.4691
  234MOL0     C32188   8.258   5.327   1.200  0.2819 -0.2841  0.8788
  234MOL0     C32189   8.288   5.451   1.133  0.0355 -0.8468  0.3870
  234MOL0     O32190   8.407   5.471   1.072 -0.3467 -0.6085 -0.4100
  234MOL0     C32191   8.483   5.577   1.127  0.7747  0.0852  0.1589
  234MOL0     C32192   8.612   5.607   1.058  0.8450  0.0558 -0.1852
  234MOL0     C32193   8.682   5.733   1.112 -0.5138  1.6424 -0.8878
  234MOL0     C32194   8.797   5.765   1.027 -0.5301  0.2611 -0.0105
  234MOL0     C32195   8.902   5.860   1.101  0.0511  0.8328 -1.0254
  234MOL0     C32196   9.027   5.891   1.027 -1.8255  0.1638  0.0798
  234MOL0     C32197   9.005   5.914   0.875 -0.5423 -0.7122  0.1801
  234MOL0     C32198   9.137   5.940   0.804  0.2376 -0.7103  0.3211
  234MOL0    Cl32199   9.212   6.090   0.868 -0.9800  0.1280  0.1521
  234MOL0     C32200   8.186   5.545   1.115 -0.7085 -0.4108 -0.8018
  234MOL0     C32201   8.070   5.529   1.193 -0.1726 -0.2788  0.6588
  234MOL0     O32202   7.766   5.478   1.207  0.3580 -0.4096 -0.5282
  234MOL0     C32203   7.723   5.215   1.445  0.2985  0.9258  1.4264
  234MOL0     C32204   7.623   5.150   1.509 -0.2955  0.0895 -0.1652
  234MOL0     N32205   6.833   5.100   1.649  0.2274 -0.7972 -0.6040
  234MOL0     N32206   6.715   5.085   1.694  0.1646  0.6906  0.3240
  234MOL0     C32207   5.506   5.352   2.059  0.3631 -0.6432 -0.6212
  234MOL0     C32208   5.382   5.373   1.998  0.5027 -0.4678  1.0302
  234MOL0     C32209   5.008   5.404   1.745  0.3417  1.0364  0.0528
  234MOL0     C32210   5.030   5.365   1.614  0.5878 -0.0871 -0.5272
  234MOL0     C32211   4.925   5.368   1.525  0.3531 -0.1570  0.1351
  234MOL0     C32212   4.794   5.402   1.562 -0.0531  0.0727 -0.4089
  234MOL0     O32213   4.675   5.413   1.482 -0.1191  0.4020  0.1811
  234MOL0     C32214   4.668   5.345   1.361 -0.3186 -0.9778 -0.3432
  234MOL0     C32215   4.670   5.196   1.370 -0.0891  0.3518  0.2414
  234MOL0     C32216   4.533   5.130   1.420 -0.2266 -1.0136  0.2682
  234MOL0     C32217   4.528   4.970   1.413  0.2080 -0.2275 -0.6719
  234MOL0     C32218   4.566   4.913   1.282 -0.7921 -0.0921  0.2594
  234MOL0     C32219   4.610   4.872   1.179 -0.8766  0.5357 -0.1379
  234MOL0     C32220   4.769   5.452   1.694  0.1144  0.1784  0.7456
  234MOL0     C32221   4.879   5.450   1.785 -0.1837 -0.4185  0.1144
  234MOL0     C32222   4.847   5.506   1.920 -0.2533 -0.2127 -0.0176
  234MOL0     H32223   5.463   5.302   1.675 -0.6206 -1.1812 -0.4396
  234MOL0     H32224   5.679   5.266   1.780 -2.0430 -0.4745 -1.8135
  234MOL0     H32225   5.862   5.347   1.902 -4.3922  0.9028  0.2347
  234MOL0     H32226   5.844   5.177   1.954 -0.2676  0.0507  1.1867
  234MOL0     H32227   5.951   5.405   2.112 -1.7255  0.1647  1.6929
  234MOL0     H32228   5.931   5.237   2.180 -1.1773  1.7273  0.4083
  234MOL0     H32229   6.052   5.149   1.968 -2.0582  0.4455  0.2470
  234MOL0     H32230   6.115   5.306   1.945  3.6017 -1.0926 -0.5434
  234MOL0     H32231   6.222   5.305   2.151 -1.7318 -0.2651  2.4029
  234MOL0     H32232   6.158   5.150   2.203 -2.2139 -0.2393 -1.2364
  234MOL0     H32233   6.305   5.209   1.940 -1.4253  2.2346  1.8055
  234MOL0     H32234   6.299   5.041   2.005  1.7450  0.0629 -2.0151
  234MOL0     H32235   6.463   5.260   2.138 -2.8893  1.4474 -1.6587
  234MOL0     H32236   6.416   5.104   2.201 -3.4047  0.6042 -0.8857
  234MOL0     H32237   6.553   4.978   2.042 -0.8163  0.1014 -0.0893
  234MOL0     H32238   6.647   5.113   2.104  2.1933  1.9221 -1.6987
  234MOL0     H32239   6.499   5.103   1.834 -1.7603  2.7303  0.4221
  234MOL0     H32240   6.580   5.248   1.900 -0.0433  0.3231  0.8896
  234MOL0     H32241   6.859   5.159   1.969 -1.5347 -2.3821  1.7107
  234MOL0     H32242   7.055   5.281   1.840  0.3441 -0.4692  0.3081
  234MOL0     H32243   7.056   5.257   1.666 -0.3639 -2.3773 -1.0885
  234MOL0     H32244   7.251   5.160   1.795 -1.0168  2.9006 -4.8584
  234MOL0     H32245   7.146   5.032   1.860 -1.0708  1.9265  2.1044
  234MOL0     H32246   7.234   4.941   1.657 -2.6656 -1.1953 -0.3995
  234MOL0     H32247   7.079   5.030   1.591 -1.3611  0.2856  1.3178
  234MOL0     H32248   7.259   5.050   1.437  3.1635 -0.5868  0.2549
  234MOL0     H32249   7.228   5.210   1.520 -1.8070 -0.8914 -0.9038
  234MOL0     H32250   7.365   5.361   1.482 -2.2625 -1.9287 -3.0575
  234MOL0     H32251   7.561   5.562   1.265  0.8390 -0.6900  0.7183
  234MOL0     H32252   7.430   5.552   1.381 -0.5706 -2.2789  1.5207
  234MOL0     H32253   7.437   5.458   1.227  2.7046 -1.1167 -1.6005
  234MOL0     H32254   8.103   5.218   1.296 -0.6282  0.5822 -0.8203
  234MOL0     H32255   8.325   5.242   1.202  1.3985  0.5576  0.2650
  234MOL0     H32256   8.423   5.667   1.111  0.0988 -0.4707 -0.4854
  234MOL0     H32257   8.501   5.555   1.233 -0.7906 -3.7559 -0.2378
  234MOL0     H32258   8.669   5.516   1.078 -0.1753  0.0703  3.6248
  234MOL0     H32259   8.590   5.612   0.951  0.0287 -0.4446 -0.0534
  234MOL0     H32260   8.720   5.703   1.210  1.2776 -0.1562 -2.0528
  234MOL0     H32261   8.621   5.822   1.130 -2.3868  0.4810 -1.1936
  234MOL0     H32262   8.759   5.802   0.931 -1.2262 -2.9621 -1.0895
  234MOL0     H32263   8.849   5.678   0.985  0.8422  1.0213  0.0485
  234MOL0     H32264   8.851   5.952   1.132  2.9013  2.0141  0.5197
  234MOL0     H32265   8.917   5.811   1.198 -1.2375 -3.0500 -2.5742
  234MOL0     H32266   9.092   5.804   1.038 -0.8403  0.8101 -0.4340
  234MOL0     H32267   9.074   5.977   1.076 -1.5181  0.3320 -0.4910
  234MOL0     H32268   8.939   6.000   0.859 -0.5724 -0.9348 -1.0560
  234MOL0     H32269   8.961   5.827   0.825  0.7119 -0.8237 -0.7838
  234MOL0     H32270   9.133   5.937   0.695  0.1483  2.7771  0.1332
  234MOL0     H32271   9.204   5.855   0.822  0.2489 -0.5597  0.9985
  234MOL0     H32272   8.201   5.631   1.049  2.2799  0.2535  0.5531
  234MOL0     H32273   7.997   5.609   1.192  0.9882  0.8594  2.6334
  234MOL0     H32274   7.822   5.170   1.435 -0.8780 -2.5305  3.5649
  234MOL0     H32275   7.641   5.060   1.568  0.7943  0.0607 -0.5187
  234MOL0     H32276   5.513   5.351   2.167  0.6453 -2.2164 -0.6266
  234MOL0     H32277   5.304   5.390   2.072 -2.3570  1.6828 -2.1790
  234MOL0     H32278   5.135   5.341   1.604  1.5210  3.3581 -0.2861
  234MOL0     H32279   4.951   5.346   1.422 -1.5535 -2.9227  0.1324
  234MOL0     H32280   4.574   5.376   1.315  0.4020  1.9986  0.0155
  234MOL0     H32281   4.747   5.384   1.297  2.8101 -1.7068  2.7583
  234MOL0     H32282   4.753   5.160   1.432 -1.6770 -1.4049  1.4830
  234MOL0     H32283   4.694   5.162   1.269  2.0715  2.4561 -0.0395
  234MOL0     H32284   4.512   5.180   1.516  1.7685  2.8002 -1.0693
  234MOL0     H32285   4.457   5.168   1.351 -0.7466 -1.1144  0.7772
  234MOL0     H32286   4.428   4.933   1.435  0.5908 -1.0212 -0.1997
  234MOL0     H32287   4.582   4.931   1.500 -1.0857 -0.2124  0.1682
  234MOL0     H32288   4.657   4.826   1.094  2.1149  2.5990  0.2137
  234MOL0     H32289   4.668   5.483   1.720  0.6052  0.0585  3.0157
  234MOL0     H32290   4.742   5.534   1.933 -1.9681 -6.1249  2.2661
  234MOL0     H32291   4.858   5.430   1.998  0.3700  1.9853  2.2047
  234MOL0     H32292   4.913   5.593   1.930  1.4253  0.0530 -7.5867
  235MOL0     O32293   3.089   0.445   4.912  0.0439 -0.2057 -0.1132
  235MOL0     C32294   3.094   0.512   4.802  0.7504  0.3097  0.0519
  235MOL0     O32295   3.093   0.645   4.794 -0.8359 -0.5890  0.1892
  235MOL0     C32296   3.049   0.727   4.896 -0.5509 -0.8811 -0.4922
  235MOL0     C32297   3.146   0.776   4.997 -0.0275  0.2335  1.0062
  235MOL0     C32298   3.109   0.877   5.085 -0.3322  0.5197  0.4018
  235MOL0     C32299   2.978   0.934   5.077 -1.0745  0.1637 -1.1148
  235MOL0     O32300   2.936   1.032   5.162 -0.5369  0.6245  0.6126
  235MOL0     C32301   3.004   1.059   5.285  0.0016  0.4430  0.5625
  235MOL0     C32302   3.120   1.157   5.247 -0.2405  0.1058  0.9469
  235MOL0     C32303   3.186   1.217   5.371  1.1374  0.6914  0.8785
  235MOL0     C32304   3.228   1.360   5.365  0.6362 -0.3927  0.4627
  235MOL0     C32305   3.325   1.381   5.257  0.2265 -0.1302  0.2670
  235MOL0     C32306   3.375   1.524   5.255 -0.0961  0.6092  0.2154
  235MOL0     C32307   3.485   1.542   5.147  0.6590  0.8529  0.7232
  235MOL0     C32308   3.627   1.504   5.195 -0.1463  0.1150  1.0704
  235MOL0     N32309   3.707   1.434   5.089  0.6387  0.6457  1.1582
  235MOL0     C32310   3.687   1.314   5.038 -0.0609  0.6404  0.7222
  235MOL0     C32311   3.786   1.298   4.943 -0.1683 -0.4803 -0.2797
  235MOL0     C32312   3.823   1.184   4.856  0.2260 -0.7191  0.8858
  235MOL0     C32313   3.705   1.154   4.768  0.9900  0.1471 -1.0484
  235MOL0     C32314   3.749   1.023   4.681 -0.4916 -0.3710 -0.5391
  235MOL0     C32315   3.624   0.994   4.594 -0.0444 -0.6977  0.1040
  235MOL0     O32316   3.578   1.100   4.515  0.4791  0.8341  0.0058
  235MOL0     C32317   3.648   1.142   4.405 -0.1371 -0.1314 -0.3251
  235MOL0     C32318   3.733   1.060   4.328 -0.4624 -0.0297 -0.0426
  235MOL0     C32319   3.794   1.113   4.206 -0.9692  1.2447 -0.2510
  235MOL0     C32320   3.876   1.016   4.114  0.6893 -0.4142  0.4811
  235MOL0     C32321   3.779   1.248   4.177 -0.5243 -0.0643 -0.0397
  235MOL0     C32322   3.836   1.311   4.056  0.2551  1.0734 -0.8848
  235MOL0     O32323   3.743   1.379   3.988 -0.1631  0.1912  0.1776
  235MOL0     C32324   3.782   1.448   3.879  0.3975 -0.7129  0.1702
  235MOL0     C32325   3.777   1.401   3.746  0.3060 -0.7135 -1.4711
  235MOL0     C32326   3.821   1.484   3.639 -0.3415  0.2083 -0.6759
  235MOL0     C32327   3.884   1.606   3.667  0.2372  0.3168 -0.7490
  235MOL0     O32328   3.922   1.684   3.562  0.3175 -0.0082  0.7351
  235MOL0     C32329   4.022   1.791   3.574  0.4091  0.3543 -0.4256
  235MOL0     C32330   4.168   1.739   3.563 -0.7475 -0.4022 -0.7496
  235MOL0     C32331   4.259   1.852   3.510  1.0551  0.3281 -0.6850
  235MOL0     C32332   4.403   1.800   3.488 -0.2923 -0.4201  0.3104
  235MOL0     C32333   4.477   1.876   3.386  0.0317 -0.3766 -0.4214
  235MOL0     C32334   4.613   1.834   3.341 -1.0406  1.5254  0.6640
  235MOL0     C32335   4.720   1.882   3.446  0.2009 -0.5090 -0.1567
  235MOL0     C32336   4.827   1.775   3.489 -0.2475  0.6619 -0.5397
  235MOL0    Cl32337   4.933   1.745   3.340 -0.1017  0.3708  0.5211
  235MOL0     C32338   3.880   1.653   3.799 -0.1068 -0.0172  0.0219
  235MOL0     C32339   3.833   1.577   3.905  0.2972  0.0218 -0.0765
  235MOL0     O32340   3.959   1.305   4.039 -0.6792  0.6406  0.5897
  235MOL0     C32341   3.703   1.335   4.257 -0.4008  0.0206  0.5325
  235MOL0     C32342   3.630   1.279   4.358 -0.3159 -0.2350 -0.3445
  235MOL0     N32343   3.864   1.418   4.947  0.3943 -0.0020  0.3310
  235MOL0     N32344   3.812   1.497   5.038 -0.4505 -0.0541  0.2299
  235MOL0     C32345   2.890   0.894   4.978 -0.1482 -0.8521  1.6664
  235MOL0     C32346   2.923   0.791   4.888  0.9077  0.1016 -1.0778
  235MOL0     C32347   3.074   0.434   4.677  0.2025 -0.7593  0.4943
  235MOL0     C32348   3.043   0.505   4.558  0.8743  0.1930 -0.6443
  235MOL0     C32349   3.038   0.445   4.440  0.1346 -0.1844 -0.3412
  235MOL0     C32350   3.055   0.302   4.424  0.3406 -0.2914  0.1891
  235MOL0     O32351   3.029   0.237   4.308 -0.3766 -0.3886  0.2373
  235MOL0     C32352   2.938   0.293   4.219  0.7016 -0.3908  0.3003
  235MOL0     C32353   2.921   0.206   4.092  0.5392  0.6102 -0.5621
  235MOL0     C32354   2.864   0.063   4.117  0.1580 -0.7031 -0.1665
  235MOL0     C32355   2.906  -0.025   3.995 -0.2053  0.1868  0.8995
  235MOL0     C32356   2.889  -0.162   4.034  0.6580  1.2644  0.6282
  235MOL0     C32357   2.869  -0.281   4.067  0.2227 -0.0075  1.1766
  235MOL0     C32358   3.099   0.231   4.535 -0.1353 -0.5501  0.4528
  235MOL0     C32359   3.117   0.297   4.664 -0.0626  0.7337 -0.5698
  235MOL0     C32360   3.164   0.206   4.779 -0.3387 -0.3296  0.0101
  235MOL0     H32361   3.239   0.725   5.018  0.3505 -0.5936 -2.1023
  235MOL0     H32362   3.178   0.902   5.165 -1.3176  0.8846  1.1610
  235MOL0     H32363   3.033   0.969   5.340 -2.7347 -0.7163  0.2512
  235MOL0     H32364   2.930   1.110   5.347 -2.2906 -0.6963 -1.0928
  235MOL0     H32365   3.197   1.106   5.188  0.7834  2.5782  0.0451
  235MOL0     H32366   3.087   1.241   5.185  0.1466 -1.0758 -0.9571
  235MOL0     H32367   3.117   1.205   5.455  0.6972 -1.6268  0.2510
  235MOL0     H32368   3.271   1.152   5.393  0.8923 -0.5815 -1.6096
  235MOL0     H32369   3.139   1.415   5.334  1.3755  0.2015 -0.6919
  235MOL0     H32370   3.265   1.390   5.463  3.4359 -0.8225 -0.3786
  235MOL0     H32371   3.277   1.364   5.160  1.2639 -1.2594 -0.0726
  235MOL0     H32372   3.408   1.310   5.259  0.9184  0.6741  1.9220
  235MOL0     H32373   3.290   1.592   5.253 -2.1613 -1.6488  2.5605
  235MOL0     H32374   3.428   1.541   5.350 -1.0851 -0.9464  1.0923
  235MOL0     H32375   3.482   1.650   5.129 -0.7981  0.9649  1.4618
  235MOL0     H32376   3.458   1.482   5.060 -2.1554  0.2727  1.8622
  235MOL0     H32377   3.683   1.588   5.237  1.1181 -0.2551  0.1950
  235MOL0     H32378   3.613   1.434   5.278  1.1329 -0.8390  0.5145
  235MOL0     H32379   3.607   1.247   5.068  1.3377 -1.8898 -0.8242
  235MOL0     H32380   3.841   1.094   4.916 -4.1685 -3.0616 -0.7870
  235MOL0     H32381   3.911   1.196   4.793 -0.7221 -1.9477 -0.7470
  235MOL0     H32382   3.622   1.118   4.830  1.9933  3.1435  2.3446
  235MOL0     H32383   3.667   1.234   4.704 -1.6374  3.1002  3.6728
  235MOL0     H32384   3.833   1.044   4.615 -1.4739  0.2485 -1.6266
  235MOL0     H32385   3.765   0.940   4.751  0.4414 -0.4651 -0.8550
  235MOL0     H32386   3.622   0.894   4.550  0.6792 -0.6994  0.0539
  235MOL0     H32387   3.549   0.986   4.673  2.4714 -1.5042  2.5776
  235MOL0     H32388   3.754   0.958   4.360  2.0676 -0.5880 -2.9844
  235MOL0     H32389   3.860   1.028   4.007  3.1632 -1.8544 -0.1277
  235MOL0     H32390   3.849   0.913   4.140 -1.6534 -0.2889 -1.1585
  235MOL0     H32391   3.984   1.023   4.126  0.7920  2.2804 -1.1752
  235MOL0     H32392   3.728   1.309   3.714 -2.5703  0.4905 -0.8723
  235MOL0     H32393   3.811   1.459   3.534  1.4823 -1.1816 -0.5532
  235MOL0     H32394   3.999   1.879   3.513 -1.7881  0.6775  0.7446
  235MOL0     H32395   4.014   1.826   3.678 -1.1392 -3.0400  0.7366
  235MOL0     H32396   4.194   1.689   3.657 -2.9215 -1.4803 -0.6621
  235MOL0     H32397   4.182   1.662   3.487  0.7323 -0.3794 -0.5335
  235MOL0     H32398   4.250   1.936   3.578 -1.4408  0.2511 -0.8455
  235MOL0     H32399   4.222   1.894   3.416 -0.1516  1.0315  0.0938
  235MOL0     H32400   4.401   1.697   3.451 -0.2852 -0.8684  1.5333
  235MOL0     H32401   4.461   1.803   3.580  1.6750 -1.4161 -0.8339
  235MOL0     H32402   4.414   1.893   3.298  2.0843  1.5034 -1.6439
  235MOL0     H32403   4.485   1.981   3.418 -0.8403 -0.0912 -1.0961
  235MOL0     H32404   4.640   1.873   3.243 -3.6758 -0.7376 -1.1227
  235MOL0     H32405   4.626   1.725   3.336  3.8497  1.8289  1.5211
  235MOL0     H32406   4.677   1.914   3.541 -1.3443  0.9454 -1.2690
  235MOL0     H32407   4.768   1.970   3.403  1.3053  1.2926  4.2481
  235MOL0     H32408   4.783   1.680   3.519  2.5200 -0.3992  0.5095
  235MOL0     H32409   4.891   1.819   3.567  3.0089 -1.3719 -1.8676
  235MOL0     H32410   3.923   1.748   3.829  0.0132  0.0436 -0.3408
  235MOL0     H32411   3.830   1.616   4.007 -2.5152  2.1189 -0.8347
  235MOL0     H32412   3.676   1.434   4.221 -0.7765 -0.2325  0.1121
  235MOL0     H32413   3.564   1.335   4.423 -1.2303 -1.5221 -0.1240
  235MOL0     H32414   2.787   0.927   4.970  0.3616  0.3159 -1.6859
  235MOL0     H32415   2.850   0.772   4.810  0.3172 -0.6041 -0.3624
  235MOL0     H32416   3.022   0.610   4.539 -2.1677 -0.3154 -0.6183
  235MOL0     H32417   3.015   0.514   4.360  0.6643  3.8833  2.7012
  235MOL0     H32418   2.842   0.306   4.271  0.4184 -0.6800 -0.1434
  235MOL0     H32419   2.979   0.386   4.180 -0.3876  0.2303  0.5947
  235MOL0     H32420   3.024   0.209   4.055  0.1820  0.0200 -1.6415
  235MOL0     H32421   2.864   0.248   4.008 -0.5142  1.3436  0.4909
  235MOL0     H32422   2.889   0.018   4.214  3.2301  1.3795  0.1412
  235MOL0     H32423   2.755   0.073   4.108  0.0966 -2.1481 -1.5355
  235MOL0     H32424   3.008   0.002   3.968 -1.3147  2.5034 -1.4152
  235MOL0     H32425   2.843   0.005   3.911  1.2952  0.6838 -0.0861
  235MOL0     H32426   2.852  -0.384   4.093 -0.2334 -0.7722 -1.8073
  235MOL0     H32427   3.100   0.125   4.515 -0.1714 -0.0744 -2.6094
  235MOL0     H32428   3.186   0.101   4.757  0.9814 -0.3745  1.3964
  235MOL0     H32429   3.256   0.243   4.826 -0.3726 -2.6989  2.1871
  235MOL0     H32430   3.079   0.196   4.847  0.2922 -1.0202  0.7256
  236MOL0     O32431   3.758   2.750   1.872  0.2192  0.0759  0.7584
  236MOL0     C32432   3.829   2.689   1.794  0.2258 -0.4229 -0.5065
  236MOL0     O32433   3.821   2.556   1.776 -0.4177  0.1509 -0.0003
  236MOL0     C32434   3.704   2.484   1.778  0.1552  0.1922 -0.3210
  236MOL0     C32435   3.674   2.390   1.881 -1.2038 -0.4548 -0.4713
  236MOL0     C32436   3.561   2.318   1.889  0.5250 -0.1407  0.6140
  236MOL0     C32437   3.472   2.330   1.784 -0.6961  0.6550 -0.0861
  236MOL0     O32438   3.362   2.255   1.779  0.2795  0.2788  0.9604
  236MOL0     C32439   3.384   2.112   1.783 -0.1007 -0.4245 -0.4226
  236MOL0     C32440   3.306   2.067   1.905 -0.7470 -0.3594 -0.0884
  236MOL0     C32441   3.155   2.061   1.868  0.2966  0.0348  0.7026
  236MOL0     C32442   3.052   2.033   1.978 -0.0108 -0.1150 -0.1213
  236MOL0     C32443   2.905   2.017   1.919 -0.5472  0.4718 -0.0678
  236MOL0     C32444   2.852   2.162   1.939 -0.7258 -0.0263  0.3261
  236MOL0     C32445   2.719   2.185   1.867 -0.1521  0.0382  0.7562
  236MOL0     C32446   2.680   2.332   1.884 -0.6395  0.1490  0.4151
  236MOL0     N32447   2.556   2.364   1.815  0.2231 -0.3847 -0.5649
  236MOL0     C32448   2.544   2.416   1.691 -0.1780 -1.6488  0.0755
  236MOL0     C32449   2.412   2.401   1.646  0.3386 -0.5511 -0.2109
  236MOL0     C32450   2.354   2.446   1.520  0.6050  0.5596  0.1603
  236MOL0     C32451   2.392   2.374   1.390 -0.5923 -0.5738 -0.2696
  236MOL0     C32452   2.364   2.221   1.381 -0.2781 -0.2966 -0.1047
  236MOL0     C32453   2.216   2.182   1.386 -0.3159 -0.6587 -0.0222
  236MOL0     O32454   2.192   2.039   1.383  0.0258 -0.0092  0.5323
  236MOL0     C32455   2.068   1.997   1.428  0.0233 -1.1333 -0.2867
  236MOL0     C32456   2.053   1.880   1.500  0.8457  0.3060 -0.3732
  236MOL0     C32457   1.931   1.853   1.560 -1.0429  0.3192 -0.4503
  236MOL0     C32458   1.931   1.728   1.649 -0.5882 -0.3568 -0.0142
  236MOL0     C32459   1.812   1.932   1.541  0.3920 -0.6034  0.6197
  236MOL0     C32460   1.689   1.928   1.614  0.0303  0.3632  0.3075
  236MOL0     O32461   1.577   1.954   1.566  0.4070  1.0267  0.3924
  236MOL0     C32462   1.471   1.929   1.642 -0.6176  0.9290  0.4640
  236MOL0     C32463   1.419   2.025   1.729  0.1801  0.3419  0.4419
  236MOL0     C32464   1.295   2.009   1.785 -0.0766 -0.4193  0.1455
  236MOL0     C32465   1.228   1.896   1.771 -0.1485 -0.2400 -0.9386
  236MOL0     O32466   1.098   1.864   1.795  1.0542 -0.2097 -0.3967
  236MOL0     C32467   1.027   1.962   1.874 -0.4386 -0.0563 -0.4287
  236MOL0     C32468   0.891   1.925   1.934  0.6428  1.4545  0.1914
  236MOL0     C32469   0.898   1.781   1.987  0.3571  0.2909 -0.7783
  236MOL0     C32470   0.768   1.755   2.065 -0.6110 -0.2299  0.3997
  236MOL0     C32471   0.771   1.618   2.131  0.0408  0.0086  0.1650
  236MOL0     C32472   0.665   1.609   2.239  0.3334 -0.0383  0.3667
  236MOL0     C32473   0.666   1.487   2.322  0.6377 -0.7467 -1.3123
  236MOL0     C32474   0.788   1.455   2.414  0.0036 -0.4724  0.2772
  236MOL0    Cl32475   0.808   1.588   2.538  0.1475 -0.3480  0.1083
  236MOL0     C32476   1.288   1.789   1.708 -0.0727 -0.3604 -0.1190
  236MOL0     C32477   1.411   1.805   1.644  0.3946 -0.1815  0.4745
  236MOL0     O32478   1.703   1.914   1.732 -0.2198 -0.2032 -0.1821
  236MOL0     C32479   1.825   2.038   1.450 -0.0090 -0.7709 -0.3186
  236MOL0     C32480   1.950   2.077   1.396 -0.1544  0.7893 -0.2617
  236MOL0     N32481   2.354   2.338   1.753 -0.3256  0.0342  0.1442
  236MOL0     N32482   2.434   2.308   1.850 -0.5710 -0.8167 -0.7513
  236MOL0     C32483   3.498   2.411   1.668 -1.4600 -0.1894  0.1329
  236MOL0     C32484   3.612   2.499   1.671  0.0082  0.3235  0.4570
  236MOL0     C32485   3.953   2.757   1.748 -0.1232  0.1521 -0.0898
  236MOL0     C32486   4.008   2.690   1.639 -0.2059 -0.4952  0.5858
  236MOL0     C32487   4.118   2.748   1.569 -0.5109  0.6186 -0.1989
  236MOL0     C32488   4.192   2.863   1.626  0.6074  0.5418  0.2126
  236MOL0     O32489   4.301   2.932   1.570  0.5690  0.1594 -0.4402
  236MOL0     C32490   4.353   2.881   1.450 -0.5350 -0.4580  0.2164
  236MOL0     C32491   4.462   2.775   1.455 -1.2446  0.8572 -0.5383
  236MOL0     C32492   4.608   2.834   1.470 -0.3107 -0.9799 -0.1345
  236MOL0     C32493   4.715   2.732   1.507 -0.0173  0.1081  0.7586
  236MOL0     C32494   4.838   2.797   1.564  0.6056 -0.3666  0.3289
  236MOL0     C32495   4.943   2.852   1.594 -0.1641 -0.4034  0.4546
  236MOL0     C32496   4.140   2.917   1.739 -0.0043  0.0502 -0.5718
  236MOL0     C32497   4.022   2.873   1.797  0.5850 -0.8970  0.0244
  236MOL0     C32498   3.963   2.951   1.913  0.2304  0.0236  0.2318
  236MOL0     H32499   3.752   2.380   1.956 -2.0663  2.0628  0.8876
  236MOL0     H32500   3.534   2.247   1.967  0.1340 -2.3815 -1.4392
  236MOL0     H32501   3.489   2.085   1.801 -0.3558 -0.3324  1.5052
  236MOL0     H32502   3.363   2.058   1.691  3.9599 -0.9931 -1.2291
  236MOL0     H32503   3.334   1.969   1.944  0.5583 -0.2736 -0.7883
  236MOL0     H32504   3.324   2.136   1.989 -3.7580 -0.4998  0.7948
  236MOL0     H32505   3.124   2.150   1.812 -0.4195 -0.7031 -0.1032
  236MOL0     H32506   3.147   1.983   1.792  0.3440  1.9560 -1.4031
  236MOL0     H32507   3.077   1.944   2.036  1.6071  1.0687  1.0877
  236MOL0     H32508   3.053   2.117   2.048 -0.3693 -1.0129  0.9842
  236MOL0     H32509   2.842   1.955   1.983  0.5208  0.6378  1.1841
  236MOL0     H32510   2.895   1.983   1.815 -1.1860 -0.1002  0.1816
  236MOL0     H32511   2.835   2.186   2.044  1.7995 -0.2877  0.8603
  236MOL0     H32512   2.919   2.235   1.892 -1.1495 -0.1908 -0.5669
  236MOL0     H32513   2.634   2.128   1.908 -0.3763  1.5028  2.4098
  236MOL0     H32514   2.725   2.160   1.760 -2.3567 -2.6614  1.1138
  236MOL0     H32515   2.676   2.372   1.986 -2.4956  0.6294  0.1910
  236MOL0     H32516   2.759   2.384   1.829 -1.7961  1.1669 -0.3210
  236MOL0     H32517   2.624   2.445   1.623  1.5323 -2.0035  1.8369
  236MOL0     H32518   2.374   2.551   1.501 -1.2030  0.5675 -2.0479
  236MOL0     H32519   2.245   2.435   1.524  0.3571  0.7374 -3.1999
  236MOL0     H32520   2.342   2.426   1.308 -0.2255  3.0406  1.5909
  236MOL0     H32521   2.497   2.390   1.366 -0.8870 -1.1280 -2.0629
  236MOL0     H32522   2.412   2.172   1.296 -0.8028  1.1809 -1.3025
  236MOL0     H32523   2.418   2.179   1.467  0.4415  0.8599  0.0336
  236MOL0     H32524   2.169   2.228   1.474 -0.3257 -1.9866  0.6908
  236MOL0     H32525   2.184   2.217   1.287  0.4233  0.8963  0.2477
  236MOL0     H32526   2.145   1.827   1.522 -1.2295 -2.6216  1.8273
  236MOL0     H32527   1.907   1.759   1.751  0.6718  2.2380 -0.4407
  236MOL0     H32528   2.021   1.667   1.641 -1.8790 -2.2917 -0.6573
  236MOL0     H32529   1.851   1.662   1.615  0.4785 -0.7718 -1.8567
  236MOL0     H32530   1.479   2.115   1.719  0.8958 -0.2315 -0.6954
  236MOL0     H32531   1.253   2.102   1.823  2.3834  1.1551 -0.6882
  236MOL0     H32532   1.096   1.998   1.951 -0.0498  0.8826 -1.1948
  236MOL0     H32533   1.018   2.054   1.817  0.3239 -0.2251 -0.8245
  236MOL0     H32534   0.875   1.996   2.016  0.8961  2.1836 -0.3756
  236MOL0     H32535   0.810   1.936   1.862  1.7897  0.0224 -1.4055
  236MOL0     H32536   0.983   1.758   2.052  0.9853 -1.3383 -2.0865
  236MOL0     H32537   0.895   1.707   1.906 -1.4562  0.3873 -0.8436
  236MOL0     H32538   0.678   1.748   2.003 -2.0048 -0.4586  2.3398
  236MOL0     H32539   0.758   1.834   2.140  3.7336  1.2710 -0.3334
  236MOL0     H32540   0.752   1.535   2.062  2.1537 -0.3614 -0.0300
  236MOL0     H32541   0.870   1.594   2.168 -0.5796 -1.3446  0.9867
  236MOL0     H32542   0.566   1.623   2.195  1.6445  1.2420 -2.4197
  236MOL0     H32543   0.701   1.683   2.311  2.7376 -1.7349  1.0760
  236MOL0     H32544   0.655   1.399   2.258 -0.8403 -3.2369  2.0244
  236MOL0     H32545   0.580   1.494   2.389  0.1016  0.9371 -2.1244
  236MOL0     H32546   0.873   1.434   2.348  2.1131 -1.0605  2.9989
  236MOL0     H32547   0.771   1.360   2.464  0.3758  0.6807  2.7453
  236MOL0     H32548   1.233   1.697   1.692  0.8747 -1.0093  0.2628
  236MOL0     H32549   1.452   1.723   1.585  0.8787 -0.0121  0.5733
  236MOL0     H32550   1.734   2.092   1.425  1.3296  1.7535 -0.1173
  236MOL0     H32551   1.962   2.160   1.327 -1.2258  0.4315 -0.9076
  236MOL0     H32552   3.441   2.426   1.576  1.5488  1.8168 -1.5888
  236MOL0     H32553   3.620   2.565   1.585  0.5377 -0.6587 -0.2724
  236MOL0     H32554   3.953   2.605   1.601 -0.2256 -0.8646  1.4047
  236MOL0     H32555   4.157   2.704   1.478  2.4700  3.4459 -0.4779
  236MOL0     H32556   4.271   2.848   1.384 -3.0494  3.1974  1.1661
  236MOL0     H32557   4.388   2.967   1.391 -0.6392 -0.2615  0.4411
  236MOL0     H32558   4.441   2.717   1.365 -0.4690  0.1225 -0.2673
  236MOL0     H32559   4.443   2.715   1.545  0.4387  1.9132  0.5925
  236MOL0     H32560   4.638   2.883   1.376  1.5112 -0.2321  0.7803
  236MOL0     H32561   4.609   2.916   1.542 -0.0533 -0.3345 -0.8579
  236MOL0     H32562   4.745   2.673   1.420 -0.5247 -0.5617  1.0314
  236MOL0     H32563   4.669   2.678   1.590  2.1563  0.1238  2.0386
  236MOL0     H32564   5.040   2.895   1.603 -0.6865  0.7899  0.6262
  236MOL0     H32565   4.190   3.005   1.776 -1.0767  0.5474 -0.2677
  236MOL0     H32566   3.945   2.896   2.006 -3.6204  0.5694 -0.0265
  236MOL0     H32567   4.031   3.029   1.946  2.9807 -1.3688 -1.7723
  236MOL0     H32568   3.864   2.983   1.878 -0.8876 -0.5089  2.6695
  237MOL0     O32569   4.334   4.487   5.118  0.0927  0.2473 -0.2678
  237MOL0     C32570   4.438   4.468   5.173 -0.3863 -0.3273  0.3276
  237MOL0     O32571   4.545   4.432   5.099  0.0369 -0.2284 -0.2739
  237MOL0     C32572   4.639   4.339   5.151  0.3077 -0.0515  0.1982
  237MOL0     C32573   4.771   4.358   5.129 -0.5872  0.8733  0.1008
  237MOL0     C32574   4.855   4.255   5.172  0.3275 -0.1976  0.1204
  237MOL0     C32575   4.804   4.143   5.232  0.1574 -0.0455 -0.8113
  237MOL0     O32576   4.881   4.039   5.277 -0.0105  0.1936 -0.0973
  237MOL0     C32577   5.011   4.005   5.215  0.3197 -0.1680  0.9259
  237MOL0     C32578   5.054   3.884   5.292 -0.0668 -0.5527 -0.0669
  237MOL0     C32579   5.200   3.845   5.257  0.0231  0.0226 -0.5619
  237MOL0     C32580   5.250   3.733   5.343  0.0102  1.1740  0.6103
  237MOL0     C32581   5.374   3.657   5.290 -0.3675 -0.0116 -0.1114
  237MOL0     C32582   5.474   3.760   5.217  0.4518 -0.2397 -0.0832
  237MOL0     C32583   5.552   3.838   5.328  0.0839  0.2511 -0.2871
  237MOL0     C32584   5.695   3.784   5.353  1.0562 -0.8860 -0.5567
  237MOL0     N32585   5.694   3.643   5.412 -0.4244  1.1644 -0.1947
  237MOL0     C32586   5.669   3.616   5.548  0.2029  0.2207  0.4649
  237MOL0     C32587   5.653   3.481   5.547  0.2676 -0.1094 -0.8280
  237MOL0     C32588   5.611   3.392   5.668  0.0328  0.2407 -0.6211
  237MOL0     C32589   5.730   3.380   5.755 -0.1263  0.6340 -0.6595
  237MOL0     C32590   5.692   3.331   5.898  0.9746  0.7352  0.3063
  237MOL0     C32591   5.806   3.313   5.988  0.0598 -0.5743 -0.4093
  237MOL0     O32592   5.786   3.357   6.125 -0.3300 -0.4956 -0.0950
  237MOL0     C32593   5.708   3.289   6.218  0.2786  0.1587 -0.1262
  237MOL0     C32594   5.694   3.343   6.343  0.1593 -0.9671 -0.4670
  237MOL0     C32595   5.613   3.292   6.447  0.5122  1.6619  0.4525
  237MOL0     C32596   5.600   3.370   6.584 -0.5237  0.8398  0.1754
  237MOL0     C32597   5.541   3.169   6.415 -0.1059  0.7837  0.5991
  237MOL0     C32598   5.433   3.104   6.501  0.2191  0.2002 -0.1310
  237MOL0     O32599   5.423   3.137   6.634  0.2115 -0.6583 -0.3318
  237MOL0     C32600   5.305   3.197   6.676  0.2164  0.2622  0.4030
  237MOL0     C32601   5.214   3.269   6.592 -1.1316  0.2138  1.0648
  237MOL0     C32602   5.103   3.319   6.643  0.0477 -0.0695  0.6500
  237MOL0     C32603   5.069   3.309   6.773  0.3109 -0.6213 -0.4842
  237MOL0     O32604   4.955   3.381   6.808  0.2378  0.2708 -1.2461
  237MOL0     C32605   4.884   3.330   6.920  0.4242 -0.2032  0.6284
  237MOL0     C32606   4.736   3.359   6.890 -0.1419  0.2375  0.0193
  237MOL0     C32607   4.706   3.512   6.874  0.1122 -0.7997  0.6038
  237MOL0     C32608   4.728   3.592   7.006  0.3734  0.3872 -0.4183
  237MOL0     C32609   4.666   3.733   6.995 -0.6471  0.6113  1.0672
  237MOL0     C32610   4.530   3.738   7.057  0.2219 -0.0726  1.1770
  237MOL0     C32611   4.457   3.871   7.029  0.1685  0.6355 -0.0166
  237MOL0     C32612   4.308   3.870   7.077  0.9844 -0.1339 -0.3347
  237MOL0    Cl32613   4.252   4.019   7.139 -0.5519 -0.0954  0.3061
  237MOL0     C32614   5.145   3.245   6.856  0.8194  0.4961 -0.6651
  237MOL0     C32615   5.268   3.189   6.814 -0.5445 -0.6305  0.7809
  237MOL0     O32616   5.342   3.052   6.437  0.6688 -0.3846  0.2461
  237MOL0     C32617   5.558   3.115   6.290  0.3722  0.5221 -0.0158
  237MOL0     C32618   5.647   3.172   6.197 -0.3540  0.7926  0.8451
  237MOL0     N32619   5.679   3.431   5.417  0.3790 -0.1618  0.3985
  237MOL0     N32620   5.697   3.532   5.338 -0.3411  0.4417  0.6374
  237MOL0     C32621   4.672   4.131   5.248  0.5908  0.8302 -0.3290
  237MOL0     C32622   4.589   4.223   5.206 -0.2158 -0.0042  0.0956
  237MOL0     C32623   4.451   4.503   5.319  0.1419 -0.1259 -1.3483
  237MOL0     C32624   4.560   4.575   5.359 -0.4606 -0.5058 -0.1321
  237MOL0     C32625   4.568   4.628   5.484 -0.4024 -0.3217  0.7268
  237MOL0     C32626   4.468   4.614   5.580  0.6463  0.8712 -0.4241
  237MOL0     O32627   4.461   4.668   5.710 -0.4307 -0.6346  0.0557
  237MOL0     C32628   4.532   4.794   5.733  0.7702  0.1426 -0.3551
  237MOL0     C32629   4.470   4.921   5.667  0.0121 -0.3188 -0.4054
  237MOL0     C32630   4.393   5.006   5.767  0.4337  0.5059 -0.1761
  237MOL0     C32631   4.429   5.158   5.766 -0.1884 -0.8627  0.0948
  237MOL0     C32632   4.556   5.197   5.826  0.2596 -0.0307  0.3134
  237MOL0     C32633   4.654   5.241   5.874 -0.1642 -0.9117 -0.1528
  237MOL0     C32634   4.359   4.535   5.545  1.1207 -0.0386  0.2533
  237MOL0     C32635   4.355   4.474   5.419 -0.4363  0.1846  0.4127
  237MOL0     C32636   4.245   4.371   5.382 -0.7849 -0.4700 -0.1618
  237MOL0     H32637   4.811   4.447   5.081 -0.5886  0.2512 -1.0905
  237MOL0     H32638   4.960   4.275   5.157  0.1101  3.7869  2.2867
  237MOL0     H32639   5.078   4.091   5.211 -0.8790  0.7890 -2.4036
  237MOL0     H32640   4.982   3.985   5.111  1.6383  3.6472 -0.3535
  237MOL0     H32641   5.043   3.915   5.396  0.1418  1.1879 -0.5184
  237MOL0     H32642   4.989   3.801   5.264  0.5076 -1.8867  2.3077
  237MOL0     H32643   5.197   3.806   5.155 -0.0509  0.1607 -0.6125
  237MOL0     H32644   5.266   3.931   5.270  0.6148 -0.8793  3.9519
  237MOL0     H32645   5.265   3.783   5.440  1.1959  1.1200  0.4695
  237MOL0     H32646   5.181   3.649   5.351  1.4237 -0.3712 -2.1754
  237MOL0     H32647   5.345   3.591   5.208  2.4812 -0.1354 -1.1123
  237MOL0     H32648   5.423   3.595   5.366 -1.8544 -2.0112 -0.7044
  237MOL0     H32649   5.536   3.701   5.149 -1.8194 -2.0577 -0.7318
  237MOL0     H32650   5.419   3.835   5.160  0.3312  0.3938  0.8438
  237MOL0     H32651   5.486   3.842   5.415  1.9652 -2.2079  1.3859
  237MOL0     H32652   5.560   3.945   5.310 -1.0298  0.5329  0.7756
  237MOL0     H32653   5.747   3.808   5.260  3.0158  1.8181  1.0742
  237MOL0     H32654   5.738   3.849   5.430 -2.9307  3.9267 -1.8055
  237MOL0     H32655   5.673   3.686   5.632  3.7258  0.2361  0.4251
  237MOL0     H32656   5.568   3.299   5.630  0.6844  0.2617 -1.4457
  237MOL0     H32657   5.531   3.436   5.729  0.5139 -1.1395  1.0534
  237MOL0     H32658   5.804   3.308   5.718  2.4548  1.2529  2.7288
  237MOL0     H32659   5.785   3.474   5.764 -2.3072  2.0282 -1.1950
  237MOL0     H32660   5.626   3.409   5.935  0.7362  0.3584  0.6717
  237MOL0     H32661   5.640   3.235   5.886  2.9957 -0.6506  1.8288
  237MOL0     H32662   5.847   3.212   5.991  3.2913  0.5703 -1.7099
  237MOL0     H32663   5.887   3.377   5.950  0.6734 -0.5570  0.8816
  237MOL0     H32664   5.742   3.439   6.363  4.8308 -2.9074 -1.0701
  237MOL0     H32665   5.502   3.414   6.603 -0.2148  2.1052 -0.9666
  237MOL0     H32666   5.672   3.452   6.586 -0.1557  0.5395  2.7717
  237MOL0     H32667   5.632   3.301   6.663  0.2071  1.8745  0.8049
  237MOL0     H32668   5.237   3.297   6.490 -4.1547  0.2986  0.3316
  237MOL0     H32669   5.039   3.371   6.573  0.3700  0.1013  0.4815
  237MOL0     H32670   4.917   3.226   6.922  3.5563  0.6661 -0.1606
  237MOL0     H32671   4.909   3.375   7.017  2.0332 -2.9615  1.5995
  237MOL0     H32672   4.703   3.308   6.799 -0.1835 -0.2359  0.2951
  237MOL0     H32673   4.667   3.322   6.966  0.1069  2.4955  1.4146
  237MOL0     H32674   4.597   3.513   6.865  0.1060  1.2219  0.4858
  237MOL0     H32675   4.746   3.557   6.782 -2.9497 -0.0965 -0.4856
  237MOL0     H32676   4.833   3.614   7.022 -0.1870  1.4713  2.3420
  237MOL0     H32677   4.695   3.534   7.094 -1.2724 -1.3414 -2.0656
  237MOL0     H32678   4.743   3.792   7.046  1.8467 -1.3617 -0.1229
  237MOL0     H32679   4.657   3.771   6.893 -1.2185 -0.2257  0.7996
  237MOL0     H32680   4.547   3.707   7.160  0.0030 -1.7323  0.7484
  237MOL0     H32681   4.467   3.662   7.009  0.9777 -0.1454  0.2716
  237MOL0     H32682   4.451   3.907   6.926  0.0092 -1.4459 -0.7664
  237MOL0     H32683   4.522   3.939   7.086  1.2198  0.7785 -1.3445
  237MOL0     H32684   4.298   3.796   7.158 -1.2219 -3.0614 -3.0291
  237MOL0     H32685   4.253   3.844   6.986  1.2447 -0.6417 -0.3511
  237MOL0     H32686   5.118   3.245   6.961  0.2171  0.9250 -0.8138
  237MOL0     H32687   5.331   3.146   6.892  0.9061  1.2890  0.7331
  237MOL0     H32688   5.514   3.018   6.265  1.5471 -0.1938  0.5872
  237MOL0     H32689   5.656   3.111   6.107  1.5096 -1.2909  2.3396
  237MOL0     H32690   4.637   4.041   5.299  1.7909 -0.6004 -1.8906
  237MOL0     H32691   4.484   4.204   5.229 -1.1882  1.1346 -2.9025
  237MOL0     H32692   4.627   4.609   5.281 -0.7403 -0.3447 -0.3026
  237MOL0     H32693   4.646   4.699   5.510 -3.4606  2.8563  1.8939
  237MOL0     H32694   4.559   4.809   5.838  2.9117 -0.3509 -0.7916
  237MOL0     H32695   4.631   4.793   5.688  1.3446 -0.6423  0.8720
  237MOL0     H32696   4.394   4.900   5.591  0.9363 -0.6824 -1.2572
  237MOL0     H32697   4.556   4.973   5.624  0.5306 -0.0360  0.9284
  237MOL0     H32698   4.289   4.996   5.734  1.5541 -1.0651 -3.6912
  237MOL0     H32699   4.409   4.971   5.869  0.4865  0.2348 -0.2761
  237MOL0     H32700   4.351   5.216   5.816  0.0276 -0.0526 -0.4862
  237MOL0     H32701   4.434   5.184   5.659 -1.4236  2.1216  0.6510
  237MOL0     H32702   4.741   5.293   5.910 -1.1177  2.2942 -2.1253
  237MOL0     H32703   4.282   4.516   5.619 -1.1325 -0.5382 -2.1173
  237MOL0     H32704   4.158   4.432   5.355 -2.4946 -1.1318  3.2858
  237MOL0     H32705   4.256   4.308   5.294 -1.0793  0.5798 -0.9660
  237MOL0     H32706   4.211   4.312   5.468 -4.5255 -1.2698 -1.9874
  238MOL0     O32707   9.125   7.790   2.809  0.8462  0.1728 -0.0041
  238MOL0     C32708   9.069   7.702   2.878 -0.5989  0.0265 -0.2826
  238MOL0     O32709   9.101   7.570   2.875  0.1939 -0.4490 -0.4859
  238MOL0     C32710   9.185   7.528   2.772  0.0043  0.4528 -0.1875
  238MOL0     C32711   9.288   7.434   2.817 -0.7452  0.7335  0.3697
  238MOL0     C32712   9.372   7.378   2.717 -0.3235  0.2101 -0.0932
  238MOL0     C32713   9.373   7.411   2.587 -0.8152 -0.2659 -0.8716
  238MOL0     O32714   9.469   7.352   2.505 -0.4559  0.1083  0.6782
  238MOL0     C32715   9.488   7.392   2.367  0.6688  0.3933 -0.9748
  238MOL0     C32716   9.632   7.358   2.326  0.5703 -0.2956 -0.5805
  238MOL0     C32717   9.661   7.402   2.180 -0.0001 -0.7922 -0.2304
  238MOL0     C32718   9.796   7.346   2.127 -0.2735 -0.0486 -0.4000
  238MOL0     C32719   9.799   7.341   1.977  0.0779 -0.3715  0.1645
  238MOL0     C32720   9.810   7.485   1.914  0.9837  0.0642  0.6939
  238MOL0     C32721   9.937   7.558   1.953 -0.0396 -0.4326 -0.1347
  238MOL0     C32722  10.065   7.496   1.907  0.3931 -0.4286 -0.8628
  238MOL0     N32723  10.092   7.517   1.766 -0.0367 -0.2356  0.3161
  238MOL0     C32724  10.148   7.625   1.704 -0.0600  0.0381  0.2020
  238MOL0     C32725  10.174   7.582   1.580 -0.2569  0.0715 -0.3916
  238MOL0     C32726  10.211   7.681   1.476  0.4351  0.0554  0.0130
  238MOL0     C32727  10.358   7.672   1.444  0.1674 -1.3148 -0.4671
  238MOL0     C32728  10.408   7.540   1.396  0.2990  0.1208  0.2695
  238MOL0     C32729  10.553   7.557   1.357 -0.2319  0.6156  0.9467
  238MOL0     O32730  10.560   7.614   1.225 -0.7696  0.4515  0.5497
  238MOL0     C32731  10.682   7.655   1.178  0.8399 -0.2923  0.2643
  238MOL0     C32732  10.666   7.703   1.045 -0.6370 -0.1601 -0.3147
  238MOL0     C32733  10.780   7.763   0.991 -0.0441 -0.0152  1.4798
  238MOL0     C32734  10.767   7.817   0.847  0.6588 -0.7953  0.7827
  238MOL0     C32735  10.902   7.777   1.066  0.6770  0.5475 -0.5969
  238MOL0     C32736  11.020   7.853   1.018  0.1086  0.0906  0.2138
  238MOL0     O32737  11.130   7.768   1.022  0.7757  1.0395  0.2966
  238MOL0     C32738  11.256   7.811   0.987 -0.1525 -0.5506  0.0198
  238MOL0     C32739  11.344   7.798   1.090 -0.6886 -0.2151 -0.8646
  238MOL0     C32740  11.477   7.837   1.066  0.0880 -0.3181 -0.6970
  238MOL0     C32741  11.514   7.885   0.938 -0.7950  0.3080  0.5854
  238MOL0     O32742  11.637   7.936   0.906  0.9961 -0.2057  0.0263
  238MOL0     C32743  11.696   8.015   0.994  0.5428 -0.8474 -0.6107
  238MOL0     C32744  11.803   8.096   0.932  0.0760 -0.7704 -0.0779
  238MOL0     C32745  11.890   8.165   1.039  0.2428 -0.0385  0.1121
  238MOL0     C32746  12.017   8.227   0.978 -0.6681  0.2650 -0.6150
  238MOL0     C32747  12.113   8.288   1.080 -0.1634 -0.2641  1.2625
  238MOL0     C32748  12.071   8.393   1.176 -0.2162 -0.1889 -0.2564
  238MOL0     C32749  12.169   8.483   1.250  0.3927 -0.5483  0.9849
  238MOL0     C32750  12.264   8.553   1.149  0.4785  1.0809 -0.5479
  238MOL0    Cl32751  12.339   8.666   1.245  0.2451  0.4993  0.0079
  238MOL0     C32752  11.428   7.890   0.830 -0.0332  1.2198  0.0310
  238MOL0     C32753  11.301   7.849   0.857  0.2693  0.2992 -0.5639
  238MOL0     O32754  11.030   7.968   0.986 -0.5991  0.4840 -0.3580
  238MOL0     C32755  10.905   7.726   1.198 -0.1689 -0.1792  0.0307
  238MOL0     C32756  10.795   7.670   1.256  1.1271  0.0571 -0.2480
  238MOL0     N32757  10.120   7.459   1.565  0.4962  0.6679 -0.0667
  238MOL0     N32758  10.082   7.412   1.681 -0.4921  0.8944 -0.4025
  238MOL0     C32759   9.276   7.505   2.544 -0.1296 -0.1287  0.4137
  238MOL0     C32760   9.185   7.559   2.637  0.4735 -0.4991  1.4159
  238MOL0     C32761   8.968   7.738   2.992 -0.2954  0.0275  0.6953
  238MOL0     C32762   8.966   7.872   3.022  0.6041 -1.1882 -0.7063
  238MOL0     C32763   8.897   7.918   3.134 -0.3351 -0.0904  0.5923
  238MOL0     C32764   8.814   7.825   3.199  0.2457  1.0194  0.5859
  238MOL0     O32765   8.733   7.858   3.302  0.1107  0.3131 -0.6804
  238MOL0     C32766   8.750   7.988   3.352 -1.3400  0.1316  0.0723
  238MOL0     C32767   8.662   8.006   3.481 -0.2692 -0.0086  0.2862
  238MOL0     C32768   8.518   8.002   3.452  0.2136  0.0366  0.1022
  238MOL0     C32769   8.462   8.126   3.373  0.2332  0.6936 -0.5468
  238MOL0     C32770   8.461   8.098   3.228  0.1295  0.5434 -0.2187
  238MOL0     C32771   8.492   8.085   3.113 -0.3476 -0.6020 -0.4009
  238MOL0     C32772   8.799   7.689   3.156 -0.0697 -0.3609 -0.2247
  238MOL0     C32773   8.880   7.644   3.056  0.2120  0.4800 -0.1037
  238MOL0     C32774   8.849   7.503   3.006  0.2298 -0.6005  0.2095
  238MOL0     H32775   9.294   7.417   2.924  2.0324  2.6502  0.6167
  238MOL0     H32776   9.447   7.302   2.733  0.4490  0.7805 -0.9528
  238MOL0     H32777   9.491   7.501   2.364 -0.4436  0.3997 -2.6195
  238MOL0     H32778   9.409   7.354   2.302 -1.3381  0.4952  1.2548
  238MOL0     H32779   9.702   7.405   2.395  0.0350 -2.5279  1.6538
  238MOL0     H32780   9.634   7.249   2.341  1.0066 -0.1048  0.8925
  238MOL0     H32781   9.570   7.387   2.120 -0.3630 -1.3080  0.4345
  238MOL0     H32782   9.674   7.511   2.177 -0.2331 -0.7786 -1.5127
  238MOL0     H32783   9.891   7.384   2.165  0.6189 -1.2564 -1.3556
  238MOL0     H32784   9.794   7.243   2.163 -3.9557 -0.9755 -2.7216
  238MOL0     H32785   9.709   7.298   1.931  1.6897 -0.6946 -2.8960
  238MOL0     H32786   9.890   7.292   1.942  3.0387  2.9927  2.3705
  238MOL0     H32787   9.805   7.454   1.810  1.5654 -2.9333  1.4522
  238MOL0     H32788   9.725   7.542   1.952 -0.2764 -2.9781  2.8920
  238MOL0     H32789   9.940   7.569   2.062 -0.3051  0.8257 -0.2423
  238MOL0     H32790   9.936   7.664   1.926 -0.9764 -0.8605 -1.8741
  238MOL0     H32791  10.148   7.532   1.968  0.4577 -3.6551  1.2217
  238MOL0     H32792  10.060   7.390   1.937 -2.3767 -0.4949 -1.3056
  238MOL0     H32793  10.176   7.724   1.737  1.8435  0.1618 -1.5591
  238MOL0     H32794  10.182   7.786   1.490  1.6509  0.3151  0.6605
  238MOL0     H32795  10.158   7.661   1.382 -1.3849 -2.5202  1.4550
  238MOL0     H32796  10.369   7.751   1.370 -1.8717 -2.1166 -1.7168
  238MOL0     H32797  10.402   7.702   1.539 -0.6638  0.3306 -0.5666
  238MOL0     H32798  10.403   7.471   1.482 -0.1010  1.6731  1.5331
  238MOL0     H32799  10.347   7.510   1.310  3.2969  0.2758 -2.0373
  238MOL0     H32800  10.596   7.629   1.427  0.8103 -0.2262  1.1932
  238MOL0     H32801  10.607   7.463   1.371 -0.4042  0.7981  3.1174
  238MOL0     H32802  10.570   7.695   0.994 -2.8254  2.6028  2.8685
  238MOL0     H32803  10.688   7.893   0.840  2.0234  0.7774  1.7870
  238MOL0     H32804  10.744   7.728   0.786 -0.1985  0.5682 -0.9721
  238MOL0     H32805  10.858   7.861   0.807 -1.2134 -0.1220 -3.2676
  238MOL0     H32806  11.309   7.784   1.192  2.9259  1.1249  0.7388
  238MOL0     H32807  11.554   7.832   1.142  1.2225 -2.2581 -1.8917
  238MOL0     H32808  11.628   8.078   1.051 -0.3346 -2.8944  0.7413
  238MOL0     H32809  11.739   7.949   1.070 -0.1058 -1.9049 -1.1347
  238MOL0     H32810  11.864   8.033   0.866 -0.3537 -0.7835 -0.4638
  238MOL0     H32811  11.754   8.169   0.868 -1.2547 -0.9378  0.7051
  238MOL0     H32812  11.918   8.089   1.113 -0.7310  0.1757  0.7267
  238MOL0     H32813  11.831   8.242   1.090 -0.5618  0.0031 -0.8451
  238MOL0     H32814  11.981   8.301   0.906 -3.0951 -1.5632 -1.4404
  238MOL0     H32815  12.067   8.148   0.921 -1.6106 -1.0165  0.2699
  238MOL0     H32816  12.148   8.208   1.145  1.9141 -0.3104  0.1668
  238MOL0     H32817  12.203   8.326   1.031  0.3336 -0.7879  1.7601
  238MOL0     H32818  12.009   8.348   1.254 -0.6755  1.2365  0.2317
  238MOL0     H32819  12.007   8.457   1.113  1.1751  0.8677 -0.6394
  238MOL0     H32820  12.233   8.420   1.314  0.8974  0.5195  1.5583
  238MOL0     H32821  12.122   8.561   1.311  1.0061  0.9876 -0.4646
  238MOL0     H32822  12.203   8.587   1.065 -0.0324 -0.3363 -0.7827
  238MOL0     H32823  12.327   8.474   1.108  0.0115  0.6646 -0.4826
  238MOL0     H32824  11.454   7.914   0.728  0.7317 -0.2354 -0.1477
  238MOL0     H32825  11.224   7.848   0.781 -0.2007 -0.0432 -0.0918
  238MOL0     H32826  10.995   7.744   1.257  1.3477 -1.2281 -1.8601
  238MOL0     H32827  10.792   7.652   1.363 -1.6655 -1.1453 -0.4558
  238MOL0     H32828   9.263   7.539   2.442 -4.0926 -0.9025  0.5130
  238MOL0     H32829   9.128   7.641   2.594  1.7994 -0.2795 -0.0081
  238MOL0     H32830   9.009   7.949   2.960 -0.5843  2.3338  2.4677
  238MOL0     H32831   8.907   8.023   3.161  0.1444  0.1834 -0.5668
  238MOL0     H32832   8.854   7.995   3.386 -1.2066  0.3043 -0.3533
  238MOL0     H32833   8.737   8.074   3.285 -1.8222 -0.0312 -0.0481
  238MOL0     H32834   8.697   8.098   3.528 -2.1355  0.4843  0.7924
  238MOL0     H32835   8.686   7.928   3.554 -3.6492  2.3667  4.3718
  238MOL0     H32836   8.497   7.908   3.400  3.6143 -1.9216  1.9176
  238MOL0     H32837   8.467   7.983   3.546  0.9648 -1.0274  0.3159
  238MOL0     H32838   8.517   8.218   3.394  0.9410  0.0057  0.6981
  238MOL0     H32839   8.355   8.145   3.387  0.4166  0.2944  1.7663
  238MOL0     H32840   8.504   8.067   3.008 -2.3503  0.9748 -0.9577
  238MOL0     H32841   8.738   7.615   3.207  0.7920 -1.3134 -0.5416
  238MOL0     H32842   8.742   7.483   2.998 -0.6633  3.6738 -0.5911
  238MOL0     H32843   8.892   7.482   2.908  1.5992 -0.7025  0.8024
  238MOL0     H32844   8.899   7.434   3.075  2.2938 -1.6369 -2.1486
  239MOL0     O32845   1.773   6.082   2.862  0.2097  0.0733 -0.6201
  239MOL0     C32846   1.839   6.150   2.941  0.0806  0.2959 -0.6587
  239MOL0     O32847   1.974   6.143   2.975  0.1488  0.4085 -0.2495
  239MOL0     C32848   2.053   6.074   2.894  0.3578 -0.0079  0.1122
  239MOL0     C32849   2.158   6.134   2.819  0.5030  0.0293 -0.7258
  239MOL0     C32850   2.250   6.060   2.748  0.1532  1.0046 -0.2656
  239MOL0     C32851   2.255   5.921   2.766  0.5640  0.3939  0.4604
  239MOL0     O32852   2.344   5.857   2.688  0.2457 -0.0442  0.5525
  239MOL0     C32853   2.350   5.717   2.696  0.6031 -0.1567  0.1068
  239MOL0     C32854   2.444   5.666   2.590 -0.0350  0.3286 -0.1430
  239MOL0     C32855   2.587   5.696   2.627  0.9691  0.2539  1.2008
  239MOL0     C32856   2.668   5.638   2.509 -0.7854  0.1363 -0.2992
  239MOL0     C32857   2.819   5.662   2.518  0.1001 -0.6053  0.5213
  239MOL0     C32858   2.911   5.595   2.420 -0.0250  1.3160  0.0196
  239MOL0     C32859   3.055   5.644   2.420 -0.3452  1.0059  0.6877
  239MOL0     C32860   3.162   5.534   2.447  0.3664  0.3721 -0.2415
  239MOL0     N32861   3.301   5.593   2.433  0.2806  0.0175 -0.3367
  239MOL0     C32862   3.422   5.529   2.403 -0.4894  0.7888 -0.5430
  239MOL0     C32863   3.512   5.623   2.378 -0.0337  0.0898  0.1496
  239MOL0     C32864   3.650   5.603   2.334  0.3712  0.6214  0.9779
  239MOL0     C32865   3.758   5.682   2.400 -0.2202 -0.3858 -0.6939
  239MOL0     C32866   3.767   5.834   2.350  0.0067 -0.0556 -0.6626
  239MOL0     C32867   3.892   5.905   2.393 -0.0010  0.8174  0.5281
  239MOL0     O32868   4.007   5.830   2.347 -0.6162 -0.6755 -0.3137
  239MOL0     C32869   4.136   5.889   2.353  0.0792  0.3569 -1.1096
  239MOL0     C32870   4.165   6.020   2.404  0.1511  1.1479 -0.8227
  239MOL0     C32871   4.305   6.070   2.411  0.0736 -0.9051 -0.4267
  239MOL0     C32872   4.320   6.211   2.453 -0.6267  0.4481  1.0743
  239MOL0     C32873   4.412   5.982   2.382 -0.0711 -0.6798  1.0073
  239MOL0     C32874   4.552   6.033   2.391 -0.2438 -0.5001  0.1660
  239MOL0     O32875   4.587   6.121   2.493  0.0264 -0.5955 -0.0442
  239MOL0     C32876   4.723   6.150   2.499  0.3788  0.2293 -0.4808
  239MOL0     C32877   4.764   6.282   2.485  0.4716  0.5095 -0.4672
  239MOL0     C32878   4.890   6.320   2.517 -0.3012 -0.0347  0.1750
  239MOL0     C32879   4.986   6.219   2.549  0.3655 -0.3029 -0.3803
  239MOL0     O32880   5.128   6.239   2.566 -0.4274 -0.1377  0.6893
  239MOL0     C32881   5.190   6.348   2.500 -0.7043 -0.5974 -0.0466
  239MOL0     C32882   5.241   6.457   2.590  0.1832 -0.3895 -0.4439
  239MOL0     C32883   5.146   6.568   2.617  1.1739 -1.0210  0.3414
  239MOL0     C32884   5.225   6.695   2.647 -0.4745  0.0081  0.5915
  239MOL0     C32885   5.139   6.805   2.688  0.0822 -0.0401  0.4157
  239MOL0     C32886   5.213   6.916   2.761 -0.9283  0.2587  0.0375
  239MOL0     C32887   5.119   7.039   2.785  0.0025 -0.0518 -0.0736
  239MOL0     C32888   5.177   7.120   2.899  0.6234  0.9824  0.1293
  239MOL0    Cl32889   5.046   7.236   2.957  0.4680 -0.0469  0.0819
  239MOL0     C32890   4.952   6.085   2.557  0.2610  0.0664 -0.2033
  239MOL0     C32891   4.815   6.052   2.542 -0.2452  0.5586 -0.0458
  239MOL0     O32892   4.628   5.981   2.303 -0.4015  1.4044 -0.6139
  239MOL0     C32893   4.380   5.855   2.346  0.2009  0.8901  0.3245
  239MOL0     C32894   4.247   5.809   2.335 -0.1326 -0.4443 -0.2321
  239MOL0     N32895   3.454   5.742   2.406  0.0732  0.4576 -0.4171
  239MOL0     N32896   3.333   5.725   2.443 -0.3938 -0.5927  0.5016
  239MOL0     C32897   2.162   5.858   2.839 -0.0710  0.7238  0.1397
  239MOL0     C32898   2.060   5.934   2.901 -1.0346 -0.5234 -0.8401
  239MOL0     C32899   1.749   6.225   3.027 -0.6225  0.7799 -0.2913
  239MOL0     C32900   1.770   6.364   3.009  0.9994 -0.2585 -0.1864
  239MOL0     C32901   1.678   6.448   3.068 -0.2379  0.3204 -0.7078
  239MOL0     C32902   1.566   6.406   3.139 -0.7848  0.7918 -1.6186
  239MOL0     O32903   1.466   6.487   3.185  1.2306 -0.2782 -0.0776
  239MOL0     C32904   1.444   6.476   3.330 -0.0437 -0.0106 -0.5479
  239MOL0     C32905   1.498   6.595   3.410  0.2994 -0.0732 -1.0383
  239MOL0     C32906   1.432   6.721   3.355 -0.7111  0.6670 -0.1354
  239MOL0     C32907   1.500   6.846   3.394  0.7204 -0.0317 -0.4780
  239MOL0     C32908   1.641   6.860   3.367 -0.4256 -0.5609  0.2312
  239MOL0     C32909   1.761   6.875   3.341  0.3033 -0.3945  0.6166
  239MOL0     C32910   1.557   6.268   3.158 -1.1286  0.6872 -0.6739
  239MOL0     C32911   1.644   6.168   3.101 -0.1542 -0.5158  0.6207
  239MOL0     C32912   1.639   6.029   3.135  0.0085  0.0980  0.0806
  239MOL0     H32913   2.143   6.238   2.793  1.5983 -0.0819 -1.9089
  239MOL0     H32914   2.327   6.109   2.688  2.4442 -2.5870 -0.5726
  239MOL0     H32915   2.252   5.670   2.684  1.6761 -2.1395 -1.4228
  239MOL0     H32916   2.399   5.703   2.793 -1.2133  1.9820  1.4536
  239MOL0     H32917   2.438   5.557   2.592  0.1541  0.3052  2.3688
  239MOL0     H32918   2.402   5.705   2.496  0.6241 -0.8153 -0.9334
  239MOL0     H32919   2.589   5.805   2.624  1.0204  0.2500  1.0537
  239MOL0     H32920   2.614   5.659   2.726 -0.4519 -3.7791  0.2617
  239MOL0     H32921   2.664   5.529   2.493  3.0336 -0.0859 -0.6896
  239MOL0     H32922   2.622   5.670   2.416 -0.0392 -1.1342 -1.1392
  239MOL0     H32923   2.852   5.633   2.618 -0.9498 -1.4143  0.6453
  239MOL0     H32924   2.836   5.769   2.503  1.3853 -0.9911 -1.1210
  239MOL0     H32925   2.913   5.488   2.439  0.9708  0.8179 -2.5098
  239MOL0     H32926   2.858   5.599   2.324  2.3379 -1.3044 -1.5190
  239MOL0     H32927   3.060   5.730   2.488 -0.0741  2.5491 -1.1833
  239MOL0     H32928   3.082   5.689   2.324  2.1862  0.6086  1.1303
  239MOL0     H32929   3.152   5.491   2.548 -0.8044  0.3831 -0.3382
  239MOL0     H32930   3.162   5.456   2.371  0.3429  0.5950 -0.4699
  239MOL0     H32931   3.445   5.423   2.398 -0.5830  0.7013  0.5939
  239MOL0     H32932   3.652   5.603   2.225  1.8327 -0.6962  0.9642
  239MOL0     H32933   3.673   5.501   2.365  1.1033  0.2538 -0.7113
  239MOL0     H32934   3.756   5.663   2.508  2.7825 -1.3071 -0.7089
  239MOL0     H32935   3.854   5.635   2.375  1.0806  1.5832  0.3054
  239MOL0     H32936   3.757   5.846   2.242  0.5852 -0.8181 -0.8103
  239MOL0     H32937   3.688   5.894   2.396  0.5827 -0.4656  0.9490
  239MOL0     H32938   3.893   6.005   2.347 -0.9139 -0.2861 -2.1120
  239MOL0     H32939   3.906   5.909   2.501 -0.4266  1.0976  0.5784
  239MOL0     H32940   4.076   6.078   2.425 -0.6648  0.0309 -1.1672
  239MOL0     H32941   4.394   6.272   2.400 -1.6159  1.3630  0.6982
  239MOL0     H32942   4.332   6.214   2.561 -0.4241  1.6267  1.0285
  239MOL0     H32943   4.230   6.270   2.431  0.4343  2.1924  1.1897
  239MOL0     H32944   4.698   6.364   2.458  1.1800  0.7530 -1.5321
  239MOL0     H32945   4.919   6.425   2.520  3.3787 -0.9440  1.6166
  239MOL0     H32946   5.277   6.313   2.444 -2.0302 -0.4645 -2.2936
  239MOL0     H32947   5.128   6.399   2.426  0.1633  5.0811  2.5531
  239MOL0     H32948   5.270   6.426   2.690 -0.1360  3.2327  0.9149
  239MOL0     H32949   5.326   6.502   2.538  0.5013  0.0359  0.4323
  239MOL0     H32950   5.080   6.541   2.700  3.6437  2.0885  3.6272
  239MOL0     H32951   5.078   6.580   2.531  1.5000 -0.0100  0.2203
  239MOL0     H32952   5.281   6.727   2.558 -0.3543 -0.7378  0.3982
  239MOL0     H32953   5.301   6.674   2.722  0.5562  2.2563  0.2643
  239MOL0     H32954   5.091   6.844   2.598 -0.7562 -1.2103  0.3409
  239MOL0     H32955   5.054   6.785   2.753 -0.7565  1.7228 -0.0658
  239MOL0     H32956   5.305   6.944   2.710  2.2916 -2.1580  3.8747
  239MOL0     H32957   5.240   6.884   2.862 -1.2653 -1.3027 -0.3374
  239MOL0     H32958   5.027   7.003   2.832 -0.6162  0.7519 -0.6507
  239MOL0     H32959   5.098   7.092   2.692 -0.1649 -0.2580 -0.1542
  239MOL0     H32960   5.265   7.181   2.877  0.0039  2.2502  0.9759
  239MOL0     H32961   5.198   7.051   2.981  0.2894  0.8855  0.1334
  239MOL0     H32962   5.035   6.018   2.578  1.1598  1.4623  0.9554
  239MOL0     H32963   4.788   5.948   2.551  2.2236 -0.0999  0.5845
  239MOL0     H32964   4.465   5.795   2.319 -1.7282 -3.6915  3.1439
  239MOL0     H32965   4.233   5.708   2.297 -2.9881  0.7149 -2.6176
  239MOL0     H32966   2.166   5.752   2.860 -0.2152  0.7145  0.1242
  239MOL0     H32967   2.002   5.880   2.976  0.7480  0.8927  1.7212
  239MOL0     H32968   1.846   6.400   2.940 -0.0289  1.9644 -0.2031
  239MOL0     H32969   1.673   6.554   3.047  0.7673  0.5243 -0.0015
  239MOL0     H32970   1.335   6.469   3.340  0.1740 -0.9893  1.7419
  239MOL0     H32971   1.488   6.381   3.360 -0.4636 -0.3352 -0.9398
  239MOL0     H32972   1.607   6.589   3.405  0.4315 -2.2398  1.6423
  239MOL0     H32973   1.473   6.590   3.517 -0.4032 -1.9805 -1.2550
  239MOL0     H32974   1.434   6.723   3.245 -1.9255  1.7097 -0.1703
  239MOL0     H32975   1.328   6.714   3.388 -0.2776 -1.1301  0.9785
  239MOL0     H32976   1.478   6.859   3.500 -2.2320  0.2133 -1.0236
  239MOL0     H32977   1.443   6.930   3.352  0.6770 -0.2965 -0.9522
  239MOL0     H32978   1.867   6.891   3.329 -0.0520  0.8726 -1.2710
  239MOL0     H32979   1.467   6.227   3.202  0.4262 -3.1881 -0.6478
  239MOL0     H32980   1.616   5.959   3.055 -2.3214  0.2830  0.5231
  239MOL0     H32981   1.734   6.007   3.184 -0.5602 -1.4954  0.5289
  239MOL0     H32982   1.562   6.014   3.211  0.3389  0.8399  0.5708
  240MOL0     O32983   0.294   2.867   8.151  0.0839 -0.0771 -0.0471
  240MOL0     C32984   0.336   2.761   8.190  0.2072  0.0519  0.6181
  240MOL0     O32985   0.466   2.731   8.212  0.1342 -0.5533  0.3573
  240MOL0     C32986   0.546   2.841   8.206 -0.5196 -0.4568  0.2523
  240MOL0     C32987   0.542   2.961   8.281  0.2100  0.5211 -0.7642
  240MOL0     C32988   0.631   3.064   8.264 -0.2104 -0.5338  0.9984
  240MOL0     C32989   0.738   3.041   8.174  0.4659 -0.8396 -0.9930
  240MOL0     O32990   0.828   3.139   8.145 -0.1323 -0.2730  0.4319
  240MOL0     C32991   0.906   3.190   8.257  0.7868 -0.1254  0.5307
  240MOL0     C32992   1.034   3.112   8.252 -0.2945  0.9314  0.2392
  240MOL0     C32993   1.145   3.155   8.356 -0.3964 -0.1218 -0.4513
  240MOL0     C32994   1.085   3.151   8.498  0.8396  0.2436  0.1458
  240MOL0     C32995   1.187   3.127   8.609  0.0045 -0.0653  0.5384
  240MOL0     C32996   1.140   3.120   8.755 -0.2139 -1.0789  1.0094
  240MOL0     C32997   1.049   2.995   8.793  0.0082  0.0967  0.9908
  240MOL0     C32998   1.119   2.857   8.763 -0.6391  0.6431 -0.6382
  240MOL0     N32999   1.241   2.845   8.833  0.2820 -0.4110 -0.7401
  240MOL0     C33000   1.251   2.833   8.970  0.5752 -0.0604 -0.1915
  240MOL0     C33001   1.376   2.832   8.999 -0.3132  0.1541  0.5230
  240MOL0     C33002   1.445   2.812   9.132 -0.2134  0.2926  0.5115
  240MOL0     C33003   1.514   2.933   9.190  0.3869  0.0235 -0.6144
  240MOL0     C33004   1.588   2.888   9.318 -0.0345 -0.3645 -0.0735
  240MOL0     C33005   1.657   3.006   9.386  0.1018 -0.2621 -0.1035
  240MOL0     O33006   1.564   3.111   9.405  0.1765  0.4380 -0.1165
  240MOL0     C33007   1.609   3.222   9.476  0.4185 -0.6311  0.1550
  240MOL0     C33008   1.739   3.258   9.519  0.3937 -0.8418 -0.5502
  240MOL0     C33009   1.767   3.375   9.587 -0.1782 -0.0834 -0.5505
  240MOL0     C33010   1.914   3.413   9.606 -0.7432 -0.1626  0.2752
  240MOL0     C33011   1.656   3.458   9.631 -1.2607 -0.7164  0.6746
  240MOL0     C33012   1.673   3.588   9.708  0.3206  0.7684  0.5081
  240MOL0     O33013   1.570   3.682   9.686  0.1360 -0.0363  0.7573
  240MOL0     C33014   1.566   3.789   9.773  0.3641  0.7044  0.0063
  240MOL0     C33015   1.538   3.917   9.714 -0.7807 -1.3334  0.0980
  240MOL0     C33016   1.514   4.023   9.794 -0.2185  0.9302 -0.4607
  240MOL0     C33017   1.542   4.016   9.932  0.2664  0.4254  0.6001
  240MOL0     O33018   1.514   4.122  10.009 -0.1301  0.5239 -0.3525
  240MOL0     C33019   1.603   4.144  10.117  0.0605  0.4595 -0.7007
  240MOL0     C33020   1.585   4.288  10.182  0.5792  0.3773  0.7610
  240MOL0     C33021   1.663   4.328  10.304  0.5326  0.0222  0.3064
  240MOL0     C33022   1.816   4.328  10.298 -0.0236  0.4754 -0.0447
  240MOL0     C33023   1.859   4.427  10.192  0.1657 -0.3373 -0.1455
  240MOL0     C33024   2.011   4.443  10.202  0.5141  0.5373  0.2699
  240MOL0     C33025   2.052   4.502  10.336  0.0780 -0.2365 -0.2596
  240MOL0     C33026   2.177   4.586  10.319 -0.0482 -0.7104  0.4017
  240MOL0    Cl33027   2.145   4.747  10.252  0.5390  0.0848 -0.0225
  240MOL0     C33028   1.570   3.890   9.991  0.4634 -0.3595  0.1959
  240MOL0     C33029   1.582   3.775   9.914  0.7168 -0.7969  0.4690
  240MOL0     O33030   1.768   3.603   9.784 -0.5015  0.2362 -0.4431
  240MOL0     C33031   1.525   3.419   9.589  0.6848 -0.2028 -1.2754
  240MOL0     C33032   1.507   3.305   9.510 -0.0768  0.1945 -0.3704
  240MOL0     N33033   1.443   2.838   8.878  0.6876 -0.0529  0.0612
  240MOL0     N33034   1.362   2.854   8.780  0.4876  0.0859  0.3534
  240MOL0     C33035   0.767   2.920   8.120  0.3255 -0.1599 -0.5013
  240MOL0     C33036   0.670   2.821   8.139 -0.2561 -0.0595 -0.2397
  240MOL0     C33037   0.252   2.662   8.241  0.7846  0.1142  0.0513
  240MOL0     C33038   0.171   2.684   8.353 -0.2421 -0.7328  0.4961
  240MOL0     C33039   0.082   2.596   8.410  0.2741  0.5776  0.1323
  240MOL0     C33040   0.073   2.468   8.346  0.2414  0.6720 -0.0394
  240MOL0     O33041  -0.005   2.356   8.381 -0.2796  0.1518  0.1325
  240MOL0     C33042  -0.104   2.378   8.487 -0.5131  0.7385 -0.3631
  240MOL0     C33043  -0.208   2.278   8.494 -0.3795  0.6395 -0.5725
  240MOL0     C33044  -0.335   2.315   8.410 -0.4086  0.2421  0.1248
  240MOL0     C33045  -0.378   2.186   8.338  0.7120 -0.3293 -0.1330
  240MOL0     C33046  -0.521   2.198   8.305 -0.2795 -0.3970 -0.3032
  240MOL0     C33047  -0.632   2.164   8.296 -0.2679 -0.7320  0.5522
  240MOL0     C33048   0.156   2.438   8.238 -1.2484  0.1133  0.3396
  240MOL0     C33049   0.243   2.528   8.188  0.1775  0.0504  0.9900
  240MOL0     C33050   0.326   2.493   8.067  0.8596  0.4725 -0.0104
  240MOL0     H33051   0.457   2.958   8.348  2.7063 -0.2967  2.5723
  240MOL0     H33052   0.615   3.159   8.313 -0.8149  0.5231 -1.1128
  240MOL0     H33053   0.852   3.161   8.348  0.4788 -0.2918  0.2974
  240MOL0     H33054   0.922   3.298   8.249 -2.7617  0.5091  0.2254
  240MOL0     H33055   1.013   3.005   8.257  0.4445  0.8084  0.8821
  240MOL0     H33056   1.067   3.127   8.149 -3.6922 -0.7784 -1.2489
  240MOL0     H33057   1.225   3.081   8.351  0.1802  0.4905 -0.3650
  240MOL0     H33058   1.190   3.253   8.338 -2.5176  0.8765 -0.6908
  240MOL0     H33059   1.036   3.248   8.510 -1.3611 -1.0676  3.4015
  240MOL0     H33060   1.006   3.075   8.500  2.3379 -1.4457 -1.3063
  240MOL0     H33061   1.248   3.218   8.606 -0.1773  0.0996  1.5331
  240MOL0     H33062   1.247   3.038   8.587  3.0562  1.4381  2.2879
  240MOL0     H33063   1.229   3.118   8.819  0.5717 -0.6061 -0.0444
  240MOL0     H33064   1.083   3.211   8.776  1.3754 -0.2986  2.1730
  240MOL0     H33065   0.960   3.006   8.730 -0.3865 -2.1481  1.0784
  240MOL0     H33066   1.025   2.999   8.899 -0.6884  1.0787  0.8153
  240MOL0     H33067   1.050   2.773   8.773  1.8049 -1.6173 -1.6957
  240MOL0     H33068   1.148   2.848   8.658 -0.2122  0.2695 -0.4937
  240MOL0     H33069   1.174   2.825   9.047 -0.8826 -0.2427 -1.6030
  240MOL0     H33070   1.519   2.731   9.131  0.2389  0.6153 -2.5088
  240MOL0     H33071   1.366   2.791   9.204  0.2841  0.7810  1.2172
  240MOL0     H33072   1.589   2.964   9.116  1.5152 -0.1092  0.4381
  240MOL0     H33073   1.448   3.018   9.211  1.0945  0.4830 -0.1966
  240MOL0     H33074   1.530   2.826   9.386 -1.3907 -0.7739 -1.5426
  240MOL0     H33075   1.669   2.820   9.287  1.9487  0.4982  2.8481
  240MOL0     H33076   1.698   2.988   9.485  1.9008  3.0351 -0.1026
  240MOL0     H33077   1.741   3.021   9.317 -0.9569  0.1099 -1.3582
  240MOL0     H33078   1.819   3.189   9.495  3.6441  2.7880 -1.1070
  240MOL0     H33079   1.915   3.522   9.592 -0.9100 -0.0802  0.8704
  240MOL0     H33080   1.986   3.377   9.533 -4.2302 -0.2779 -3.4593
  240MOL0     H33081   1.944   3.399   9.711 -2.5291  0.8487  0.9762
  240MOL0     H33082   1.544   3.932   9.606  0.8141 -3.0947 -0.1107
  240MOL0     H33083   1.488   4.120   9.752 -0.2075  3.1946  4.1424
  240MOL0     H33084   1.588   4.078  10.202 -1.9875  1.8039  0.0627
  240MOL0     H33085   1.708   4.129  10.087  0.2627  1.8790 -0.7871
  240MOL0     H33086   1.600   4.365  10.107 -0.5255  1.4768  1.6149
  240MOL0     H33087   1.476   4.294  10.196 -0.3982 -0.8982 -4.2721
  240MOL0     H33088   1.633   4.255  10.380 -1.4939 -0.2722 -0.7052
  240MOL0     H33089   1.621   4.426  10.324  0.2224  0.0930 -0.6471
  240MOL0     H33090   1.849   4.228  10.268 -0.4542  0.5573 -0.8238
  240MOL0     H33091   1.850   4.365  10.395 -1.0809 -0.4031  0.6772
  240MOL0     H33092   1.829   4.396  10.092  0.0208  1.7842 -0.7889
  240MOL0     H33093   1.811   4.523  10.213  0.5057  0.1984 -1.7029
  240MOL0     H33094   2.049   4.507  10.122 -0.3557  1.0119  0.2254
  240MOL0     H33095   2.056   4.343  10.194  2.7427  1.0821  3.6060
  240MOL0     H33096   2.075   4.436  10.420  1.5179  1.3905  0.6919
  240MOL0     H33097   1.971   4.565  10.374  0.2795  0.8742 -1.6006
  240MOL0     H33098   2.252   4.541  10.255 -1.2335 -2.4671  0.1637
  240MOL0     H33099   2.224   4.586  10.418  0.2980  0.7910  0.2502
  240MOL0     H33100   1.582   3.883  10.099  0.2961 -3.0407  0.1123
  240MOL0     H33101   1.592   3.679   9.963 -2.1729 -0.3625  2.1132
  240MOL0     H33102   1.437   3.478   9.614  1.5028 -0.0341  1.5959
  240MOL0     H33103   1.407   3.265   9.496 -0.7332  1.6327 -0.0144
  240MOL0     H33104   0.863   2.895   8.077  1.4661 -0.1180  1.8730
  240MOL0     H33105   0.697   2.723   8.101 -1.6864 -2.0498  3.4023
  240MOL0     H33106   0.179   2.787   8.387 -1.0106  0.2427 -2.0217
  240MOL0     H33107   0.022   2.624   8.495 -2.0646  1.9299 -1.8577
  240MOL0     H33108  -0.045   2.365   8.578  1.0255 -0.7515 -1.5256
  240MOL0     H33109  -0.158   2.472   8.469 -0.9017  0.3616 -1.1721
  240MOL0     H33110  -0.242   2.278   8.598 -0.4875 -1.4065 -0.5789
  240MOL0     H33111  -0.171   2.178   8.472 -2.1161 -0.7993  2.4028
  240MOL0     H33112  -0.418   2.355   8.468 -0.4491  1.2566 -0.6102
  240MOL0     H33113  -0.308   2.396   8.342 -1.1556  2.0718  1.8747
  240MOL0     H33114  -0.361   2.091   8.389 -1.7875 -1.1711 -0.7428
  240MOL0     H33115  -0.326   2.177   8.242  0.2379  0.6266 -0.4991
  240MOL0     H33116  -0.731   2.128   8.275  0.7255 -3.8182  0.6216
  240MOL0     H33117   0.164   2.337   8.199  0.0446  0.2015  0.3195
  240MOL0     H33118   0.320   2.389   8.034 -0.3788  0.0685  1.3845
  240MOL0     H33119   0.295   2.550   7.979 -1.0283 -1.8560 -0.9466
  240MOL0     H33120   0.433   2.506   8.088  0.2663  0.0568  4.0794
  241MOL0     O33121   9.880   2.219   6.574 -0.4513  0.1349 -0.3467
  241MOL0     C33122   9.962   2.136   6.540 -0.2794 -0.0487  0.2570
  241MOL0     O33123  10.009   2.115   6.419  0.0321  0.5757  0.3295
  241MOL0     C33124   9.935   2.183   6.318  0.9732  0.3151  0.3674
  241MOL0     C33125   9.922   2.321   6.311 -0.7135  0.4289 -1.1726
  241MOL0     C33126   9.826   2.386   6.230  0.5139  0.1801 -0.2025
  241MOL0     C33127   9.761   2.315   6.128  0.5715  1.0116  0.8548
  241MOL0     O33128   9.675   2.384   6.042 -0.2696 -0.6166 -0.5492
  241MOL0     C33129   9.606   2.322   5.931 -0.3729  0.2660  0.5226
  241MOL0     C33130   9.537   2.442   5.850  1.2187 -0.3233 -0.7728
  241MOL0     C33131   9.424   2.512   5.934 -0.0393  0.3777  0.1008
  241MOL0     C33132   9.373   2.642   5.881 -0.4117 -0.0522  0.2124
  241MOL0     C33133   9.251   2.702   5.938  0.1541  0.2341 -0.2262
  241MOL0     C33134   9.240   2.849   5.914 -0.2040 -0.3224 -0.1202
  241MOL0     C33135   9.098   2.888   5.939  0.0498  0.4578 -0.4775
  241MOL0     C33136   9.068   3.032   5.894 -0.2249 -0.2700  0.1096
  241MOL0     N33137   9.153   3.130   5.961 -0.4631  0.0020  0.2141
  241MOL0     C33138   9.175   3.140   6.094 -0.2659 -0.0503  0.5795
  241MOL0     C33139   9.270   3.236   6.095 -0.6657  1.0514  0.3291
  241MOL0     C33140   9.341   3.283   6.223  0.6502  1.0776  0.2071
  241MOL0     C33141   9.333   3.424   6.244  0.2373 -0.0111  0.1635
  241MOL0     C33142   9.428   3.480   6.357  0.0799 -0.5697 -0.6855
  241MOL0     C33143   9.367   3.610   6.409 -0.1570 -0.0015 -0.4363
  241MOL0     O33144   9.286   3.587   6.524  0.6003  0.1951  0.6933
  241MOL0     C33145   9.236   3.697   6.587  0.3984 -0.4503 -0.0585
  241MOL0     C33146   9.206   3.822   6.545  0.1241 -0.0991 -0.5244
  241MOL0     C33147   9.153   3.929   6.619  0.2281 -0.8506  0.4681
  241MOL0     C33148   9.127   4.061   6.548 -0.4654  0.3606  0.6874
  241MOL0     C33149   9.121   3.896   6.756 -0.2629  0.2700  0.0787
  241MOL0     C33150   9.069   3.998   6.851  0.6550 -0.6088 -0.2015
  241MOL0     O33151   8.995   3.958   6.957  0.9701 -0.6818  0.0917
  241MOL0     C33152   8.916   4.061   7.013 -0.4814 -0.0450 -0.1250
  241MOL0     C33153   8.779   4.058   7.020 -0.1355 -0.4363 -0.6406
  241MOL0     C33154   8.710   4.158   7.085 -0.4505 -0.2276 -0.6386
  241MOL0     C33155   8.776   4.257   7.161 -0.1488 -0.2363 -0.5721
  241MOL0     O33156   8.712   4.348   7.236 -0.7718  0.4213 -0.1685
  241MOL0     C33157   8.573   4.365   7.218 -0.5167  0.3168 -0.6974
  241MOL0     C33158   8.543   4.486   7.294 -0.1121 -0.6904 -0.0521
  241MOL0     C33159   8.593   4.617   7.220  0.3168 -0.0502 -0.2969
  241MOL0     C33160   8.531   4.750   7.274  0.2320 -0.2470 -0.0852
  241MOL0     C33161   8.563   4.865   7.183 -0.9548  0.0782 -0.8912
  241MOL0     C33162   8.710   4.903   7.174 -0.3491 -0.3320 -0.0839
  241MOL0     C33163   8.742   5.019   7.083 -0.5586 -0.4226 -1.1182
  241MOL0     C33164   8.648   5.143   7.087  0.7925  0.1204 -0.4943
  241MOL0    Cl33165   8.621   5.204   7.241  0.2878 -0.2047 -0.2696
  241MOL0     C33166   8.916   4.257   7.154  0.3427  0.6303 -0.9491
  241MOL0     C33167   8.978   4.164   7.078 -0.8442  0.0795  0.4909
  241MOL0     O33168   9.103   4.113   6.828  0.1046  0.8455 -0.7665
  241MOL0     C33169   9.141   3.764   6.799  0.1372 -0.5516 -0.5197
  241MOL0     C33170   9.206   3.665   6.711  0.0832  0.7019 -0.5719
  241MOL0     N33171   9.301   3.288   5.973 -0.3305  0.6799  0.4734
  241MOL0     N33172   9.215   3.229   5.892 -0.0391 -1.0366  0.0466
  241MOL0     C33173   9.780   2.175   6.119 -0.7892  0.1948 -0.4589
  241MOL0     C33174   9.870   2.111   6.212  0.2029  0.2545  0.1684
  241MOL0     C33175  10.008   2.046   6.649  0.3534 -0.1631  0.4802
  241MOL0     C33176  10.020   1.910   6.620  0.6480 -0.0177 -0.1807
  241MOL0     C33177  10.074   1.824   6.720 -0.4459 -0.2386 -0.4504
  241MOL0     C33178  10.106   1.869   6.846 -0.1619  0.4642  0.0258
  241MOL0     O33179  10.146   1.793   6.954  0.3397  0.4187  0.0842
  241MOL0     C33180  10.140   1.648   6.929 -0.0905  0.0700 -1.0715
  241MOL0     C33181  10.139   1.580   7.060 -0.4938  0.0335 -0.1935
  241MOL0     C33182  10.266   1.595   7.132 -0.3834 -0.2544 -0.2806
  241MOL0     C33183  10.386   1.529   7.073 -0.6914  1.2231  0.2674
  241MOL0     C33184  10.381   1.382   7.076 -0.3000  0.7620 -0.1059
  241MOL0     C33185  10.396   1.270   7.116 -1.4531 -0.0287 -0.6196
  241MOL0     C33186  10.090   2.010   6.872 -0.5355  0.8909 -0.8125
  241MOL0     C33187  10.048   2.095   6.769  0.0848  0.4312 -0.0372
  241MOL0     C33188  10.037   2.242   6.797  0.3637 -0.4842  0.0817
  241MOL0     H33189   9.979   2.380   6.382  0.8527 -1.3804 -0.8274
  241MOL0     H33190   9.810   2.492   6.245 -1.1187  0.0803 -0.9258
  241MOL0     H33191   9.533   2.254   5.976  1.0721 -2.0437 -0.4316
  241MOL0     H33192   9.680   2.280   5.861 -1.0207  1.4315 -0.9203
  241MOL0     H33193   9.623   2.502   5.820  1.9160 -0.0188  1.6125
  241MOL0     H33194   9.484   2.406   5.761 -0.5445  1.5105 -0.5465
  241MOL0     H33195   9.344   2.438   5.942  2.2145 -2.0312  3.6100
  241MOL0     H33196   9.469   2.527   6.033  0.6219  0.6112 -0.2257
  241MOL0     H33197   9.457   2.711   5.892  0.1177 -0.4884 -0.9466
  241MOL0     H33198   9.356   2.639   5.773  0.2447 -1.3523  0.1278
  241MOL0     H33199   9.254   2.678   6.045  0.4440 -2.4517 -0.7823
  241MOL0     H33200   9.166   2.640   5.908  0.5837 -0.0664 -0.8218
  241MOL0     H33201   9.301   2.909   5.982  0.3599 -0.0565 -0.8484
  241MOL0     H33202   9.270   2.879   5.813 -4.6133  0.7344 -1.3122
  241MOL0     H33203   9.071   2.877   6.045 -0.0095  0.8670 -0.4491
  241MOL0     H33204   9.034   2.824   5.878  0.4792  0.4507 -0.9267
  241MOL0     H33205   9.088   3.028   5.786  2.4889 -2.9016  0.5865
  241MOL0     H33206   8.963   3.061   5.904  0.2792  1.2303  1.3435
  241MOL0     H33207   9.130   3.090   6.179 -1.4317  1.3387  0.8207
  241MOL0     H33208   9.446   3.254   6.228  0.9349  1.5883 -1.7904
  241MOL0     H33209   9.298   3.236   6.311 -0.7199  2.1803  0.1615
  241MOL0     H33210   9.362   3.482   6.155 -1.0682 -0.5512 -0.6320
  241MOL0     H33211   9.226   3.441   6.259 -0.0794 -0.3259 -1.4799
  241MOL0     H33212   9.439   3.409   6.440 -2.1986  0.7911  0.8952
  241MOL0     H33213   9.526   3.494   6.311 -0.6023  2.9619 -1.3530
  241MOL0     H33214   9.450   3.674   6.438  0.1228 -0.5336 -0.0441
  241MOL0     H33215   9.307   3.665   6.336  0.2624  1.9309  0.6249
  241MOL0     H33216   9.235   3.838   6.442 -1.2448 -0.3297 -0.9700
  241MOL0     H33217   9.189   4.137   6.597  1.8387 -2.2679  2.0928
  241MOL0     H33218   9.022   4.088   6.563 -1.3428 -1.3874 -1.7619
  241MOL0     H33219   9.158   4.058   6.444  1.8482 -0.9034  1.3522
  241MOL0     H33220   8.716   3.981   6.977  0.1837 -0.4712 -1.0467
  241MOL0     H33221   8.601   4.164   7.077 -0.5190 -1.9722 -1.6554
  241MOL0     H33222   8.538   4.381   7.116 -1.1449  0.3426 -0.4773
  241MOL0     H33223   8.521   4.273   7.247 -0.3489  0.5740  0.4438
  241MOL0     H33224   8.435   4.489   7.313  0.3392 -0.8505  2.9639
  241MOL0     H33225   8.593   4.489   7.391 -3.5599  1.9198  1.8900
  241MOL0     H33226   8.565   4.603   7.116 -0.7946 -2.1523  0.2291
  241MOL0     H33227   8.702   4.618   7.229  0.4732 -2.7957 -1.0893
  241MOL0     H33228   8.563   4.773   7.376 -2.7905  2.2924  0.4525
  241MOL0     H33229   8.422   4.741   7.276  0.2983 -1.0335  0.7736
  241MOL0     H33230   8.533   4.831   7.083  2.0383  2.2067 -2.6713
  241MOL0     H33231   8.507   4.956   7.206  1.4209  0.8129  2.8866
  241MOL0     H33232   8.772   4.821   7.135  0.0584  0.7752 -1.8740
  241MOL0     H33233   8.756   4.916   7.272 -0.1050  0.2370 -0.2712
  241MOL0     H33234   8.744   4.998   6.975  1.0483  1.0913 -1.4368
  241MOL0     H33235   8.838   5.054   7.120 -0.6906 -0.1070 -1.0693
  241MOL0     H33236   8.553   5.116   7.040  1.4536  1.0171 -2.4606
  241MOL0     H33237   8.691   5.222   7.025 -3.2009  1.2512 -2.1391
  241MOL0     H33238   8.975   4.344   7.182  0.5897  0.2516 -0.2818
  241MOL0     H33239   9.085   4.177   7.066 -0.8835 -0.9845 -1.3499
  241MOL0     H33240   9.117   3.750   6.904 -1.0441  2.7162 -0.2186
  241MOL0     H33241   9.214   3.565   6.751 -1.5394 -0.4187 -2.7884
  241MOL0     H33242   9.741   2.115   6.037  5.0234 -2.9338 -1.5428
  241MOL0     H33243   9.891   2.005   6.198  0.3623 -0.4848  4.4451
  241MOL0     H33244   9.987   1.876   6.522 -0.6691  1.8779 -0.4604
  241MOL0     H33245  10.087   1.721   6.688  1.8444  0.2467 -1.2524
  241MOL0     H33246  10.041   1.621   6.891 -1.2870 -0.5121  2.1860
  241MOL0     H33247  10.216   1.612   6.858  1.7993 -0.4702  1.1051
  241MOL0     H33248  10.122   1.474   7.037  0.1435 -1.0101  3.5815
  241MOL0     H33249  10.057   1.605   7.128 -1.2758 -3.6869  0.4389
  241MOL0     H33250  10.283   1.702   7.146 -1.9880  0.1201 -0.9987
  241MOL0     H33251  10.260   1.540   7.227  1.5013  1.1424  0.7050
  241MOL0     H33252  10.479   1.552   7.126  0.8938 -2.3478 -0.6342
  241MOL0     H33253  10.408   1.573   6.975 -3.6086  3.7140  0.5871
  241MOL0     H33254  10.415   1.180   7.170  1.1483  0.7357 -0.1641
  241MOL0     H33255  10.127   2.058   6.962  0.4209  3.0596 -2.2556
  241MOL0     H33256  10.089   2.309   6.727 -0.8938  1.4755  0.9283
  241MOL0     H33257   9.932   2.268   6.809 -0.5462 -3.3439 -0.8351
  241MOL0     H33258  10.093   2.268   6.887 -0.2712 -1.7431  0.8634
  242MOL0     O33259   5.597   6.775   1.399  0.3411  0.6011  0.6663
  242MOL0     C33260   5.620   6.718   1.509 -0.0555 -1.0218 -0.0061
  242MOL0     O33261   5.739   6.688   1.563 -0.3540  0.0132  0.7967
  242MOL0     C33262   5.854   6.697   1.491  1.2095 -0.2158 -0.2211
  242MOL0     C33263   5.945   6.592   1.496 -0.9443 -0.5315 -0.0638
  242MOL0     C33264   6.075   6.607   1.434 -0.1385  0.8989 -0.1738
  242MOL0     C33265   6.111   6.713   1.358  0.2906 -0.8256 -0.4794
  242MOL0     O33266   6.236   6.712   1.299  0.4605 -0.4903 -0.0893
  242MOL0     C33267   6.275   6.829   1.235  0.5488  0.3822 -0.4363
  242MOL0     C33268   6.297   6.947   1.338 -0.0119 -0.3697  0.6573
  242MOL0     C33269   6.438   7.013   1.309  0.3698  0.2132 -0.1269
  242MOL0     C33270   6.434   7.092   1.178  0.8702  0.5896 -0.1481
  242MOL0     C33271   6.573   7.099   1.110 -0.3018 -0.3811  1.3303
  242MOL0     C33272   6.577   7.231   1.018  0.3784  0.1471  0.2156
  242MOL0     C33273   6.716   7.282   1.013 -0.8565 -0.1878 -0.4210
  242MOL0     C33274   6.760   7.358   1.146 -0.1619  0.3841  0.8030
  242MOL0     N33275   6.672   7.473   1.175  0.6512  0.5060 -0.3239
  242MOL0     C33276   6.660   7.569   1.090 -0.2952  0.1666 -0.3135
  242MOL0     C33277   6.562   7.647   1.128 -0.1222 -0.7328 -0.1637
  242MOL0     C33278   6.510   7.778   1.072 -0.2295 -0.4322  0.2777
  242MOL0     C33279   6.623   7.873   1.023  0.0976  0.0265 -0.6134
  242MOL0     C33280   6.722   7.903   1.142  0.1464 -0.4805  0.0172
  242MOL0     C33281   6.833   8.007   1.093 -0.4263  0.4935 -0.5892
  242MOL0     O33282   6.904   7.951   0.979 -0.3509  0.2111  0.3588
  242MOL0     C33283   7.021   7.882   0.994  0.0764  0.2630  0.2580
  242MOL0     C33284   7.118   7.899   0.897 -0.5607  0.6109 -0.0741
  242MOL0     C33285   7.241   7.827   0.906  0.8429 -0.4476 -0.3614
  242MOL0     C33286   7.338   7.851   0.799  0.2224  0.0582  0.0864
  242MOL0     C33287   7.270   7.751   1.018  0.5149 -0.1882  0.3506
  242MOL0     C33288   7.403   7.678   1.039  0.3920 -0.3303 -0.0631
  242MOL0     O33289   7.416   7.628   1.163 -0.5532  0.0260  0.3692
  242MOL0     C33290   7.534   7.567   1.194  0.1878 -1.1158 -0.0638
  242MOL0     C33291   7.640   7.648   1.236  0.6869  0.2104  0.0760
  242MOL0     C33292   7.765   7.581   1.249  0.1458 -0.2092 -0.0277
  242MOL0     C33293   7.780   7.444   1.215  0.0543 -0.3995 -0.2538
  242MOL0     O33294   7.900   7.367   1.243  0.2392 -0.4001 -0.7929
  242MOL0     C33295   8.026   7.442   1.257  0.0593 -1.0827  0.0610
  242MOL0     C33296   8.149   7.346   1.259  0.2384 -0.0961 -0.4101
  242MOL0     C33297   8.255   7.369   1.151 -0.0015 -0.1757  0.1525
  242MOL0     C33298   8.330   7.504   1.160  0.3885  0.7661 -0.2926
  242MOL0     C33299   8.476   7.513   1.102 -0.5538  0.5473  0.4789
  242MOL0     C33300   8.582   7.438   1.192  0.3066 -0.3158 -0.2785
  242MOL0     C33301   8.572   7.463   1.353 -0.5700 -0.3336  0.0076
  242MOL0     C33302   8.620   7.601   1.394 -0.2725 -0.3907 -0.3308
  242MOL0    Cl33303   8.588   7.625   1.572 -0.0544  0.7409  0.0933
  242MOL0     C33304   7.667   7.370   1.176 -0.2015 -0.6610 -0.1059
  242MOL0     C33305   7.542   7.431   1.166 -0.4212  0.6269  0.0358
  242MOL0     O33306   7.466   7.639   0.941  0.3786 -0.8106 -0.8712
  242MOL0     C33307   7.171   7.738   1.109 -0.2114 -0.1540  0.1272
  242MOL0     C33308   7.050   7.800   1.097  0.0537 -1.2771 -0.7703
  242MOL0     N33309   6.521   7.598   1.253 -0.0665  0.3898  0.4030
  242MOL0     N33310   6.585   7.490   1.284 -0.6046  0.6930  0.4067
  242MOL0     C33311   6.018   6.816   1.348  0.6247 -0.2869  0.2904
  242MOL0     C33312   5.893   6.812   1.418  0.4655  0.5472 -0.7586
  242MOL0     C33313   5.507   6.684   1.594 -0.0931  0.3562 -0.1086
  242MOL0     C33314   5.533   6.620   1.715  0.2969  0.6392  0.4311
  242MOL0     C33315   5.435   6.598   1.817  0.1792  0.4287  1.0102
  242MOL0     C33316   5.295   6.637   1.784 -0.6617  0.2342  0.0991
  242MOL0     O33317   5.187   6.611   1.869 -0.3750  0.8678  0.5322
  242MOL0     C33318   5.128   6.482   1.865  0.7475  0.5650  0.0202
  242MOL0     C33319   5.211   6.392   1.952 -0.1180 -1.2106 -0.2643
  242MOL0     C33320   5.123   6.266   1.979 -0.3694  0.6591  0.1837
  242MOL0     C33321   5.170   6.173   2.096 -0.1858 -0.3357  0.2962
  242MOL0     C33322   5.047   6.113   2.152 -0.2159  0.7700 -0.6791
  242MOL0     C33323   4.953   6.061   2.210  0.1399  0.4833  0.0172
  242MOL0     C33324   5.273   6.695   1.659 -0.4834 -0.9178 -1.7638
  242MOL0     C33325   5.373   6.717   1.566  1.1820 -0.2271  0.7920
  242MOL0     C33326   5.325   6.768   1.435 -0.2499  1.1953 -0.3730
  242MOL0     H33327   5.928   6.495   1.542 -1.1194 -0.6895 -0.4508
  242MOL0     H33328   6.143   6.523   1.445  0.8955  1.7994  0.5548
  242MOL0     H33329   6.201   6.857   1.160 -1.1958 -0.9126  0.7458
  242MOL0     H33330   6.368   6.809   1.181  0.7055 -0.1223  0.0105
  242MOL0     H33331   6.218   7.023   1.336  1.0748  0.8794  2.2616
  242MOL0     H33332   6.290   6.915   1.442 -1.2655  1.6288  1.2291
  242MOL0     H33333   6.462   7.082   1.390  2.8696  2.2654 -2.4267
  242MOL0     H33334   6.522   6.945   1.296  0.5202  0.7167 -2.0743
  242MOL0     H33335   6.370   7.040   1.107  2.3800 -2.1380  0.3157
  242MOL0     H33336   6.385   7.189   1.182  1.4192  1.0652 -3.0197
  242MOL0     H33337   6.604   7.013   1.050 -0.2449 -0.3963  1.3813
  242MOL0     H33338   6.653   7.117   1.182 -1.7021  4.2218  2.1112
  242MOL0     H33339   6.532   7.213   0.920 -4.2613  1.6944  1.7973
  242MOL0     H33340   6.508   7.305   1.060 -0.2632  1.4573 -2.8310
  242MOL0     H33341   6.718   7.343   0.922 -1.2723  2.2317  1.0932
  242MOL0     H33342   6.789   7.203   0.993 -1.7638 -1.3380  0.7078
  242MOL0     H33343   6.759   7.278   1.221  1.2865 -2.7553 -2.2555
  242MOL0     H33344   6.866   7.386   1.142 -0.3804  1.3073  1.2899
  242MOL0     H33345   6.717   7.578   0.998 -0.5002 -2.8444 -0.8282
  242MOL0     H33346   6.460   7.825   1.158  0.8721  0.0851  0.6446
  242MOL0     H33347   6.435   7.774   0.992 -1.5741  0.1669  1.4462
  242MOL0     H33348   6.675   7.847   0.930  2.9650 -1.7458  1.2970
  242MOL0     H33349   6.570   7.965   0.998 -0.9566 -0.9259 -2.0095
  242MOL0     H33350   6.669   7.941   1.229  1.6105 -0.9629  1.1661
  242MOL0     H33351   6.777   7.813   1.168  2.1120  0.8432  0.6993
  242MOL0     H33352   6.778   8.095   1.060 -0.3926 -0.0678 -2.2127
  242MOL0     H33353   6.900   8.042   1.172  1.6925 -2.2322 -1.0208
  242MOL0     H33354   7.094   7.958   0.809 -1.9982 -2.4335 -1.8736
  242MOL0     H33355   7.342   7.760   0.739 -2.2202 -0.7815  1.0745
  242MOL0     H33356   7.437   7.886   0.829  1.0852  1.5280 -3.8830
  242MOL0     H33357   7.296   7.925   0.730 -2.6090 -0.9868  0.5698
  242MOL0     H33358   7.645   7.756   1.247  0.1140  0.0628  2.0204
  242MOL0     H33359   7.838   7.656   1.279 -0.6291  0.6889 -0.3207
  242MOL0     H33360   8.036   7.488   1.158 -0.0456 -0.3749  0.3714
  242MOL0     H33361   8.034   7.513   1.339  3.3706 -0.2348 -0.8285
  242MOL0     H33362   8.186   7.354   1.362 -0.2621  0.9387 -0.3011
  242MOL0     H33363   8.113   7.243   1.244  3.4360 -1.0066 -2.8223
  242MOL0     H33364   8.202   7.358   1.056 -0.1286  0.2080  0.1758
  242MOL0     H33365   8.325   7.286   1.154 -0.9179 -1.0668 -1.6149
  242MOL0     H33366   8.322   7.536   1.264  2.6200  0.7579 -0.0664
  242MOL0     H33367   8.268   7.582   1.116 -3.6322 -1.3105  1.1445
  242MOL0     H33368   8.484   7.482   0.997  2.7255 -1.1757  1.1042
  242MOL0     H33369   8.500   7.620   1.093 -3.6933  1.2646 -0.5449
  242MOL0     H33370   8.685   7.434   1.155  0.4523 -2.3235  0.2304
  242MOL0     H33371   8.554   7.332   1.184  1.3077 -1.0141  3.5899
  242MOL0     H33372   8.640   7.391   1.399  0.6433 -1.6436 -3.4939
  242MOL0     H33373   8.469   7.441   1.384 -0.8114  0.1122 -0.4667
  242MOL0     H33374   8.566   7.670   1.329  0.2114 -0.4294 -0.7827
  242MOL0     H33375   8.726   7.609   1.369 -0.0089 -1.1668  0.5047
  242MOL0     H33376   7.678   7.271   1.132  0.0579 -1.7213  2.2000
  242MOL0     H33377   7.457   7.368   1.141 -1.6068  1.9470  0.5540
  242MOL0     H33378   7.182   7.683   1.202 -4.0905 -2.1685 -0.3924
  242MOL0     H33379   6.982   7.792   1.181  2.4374 -0.0527  1.4024
  242MOL0     H33380   6.035   6.911   1.297 -1.7512 -0.1789 -0.4256
  242MOL0     H33381   5.816   6.888   1.416 -3.4496 -2.8629  1.9146
  242MOL0     H33382   5.632   6.586   1.743 -0.5479 -1.0833  1.4527
  242MOL0     H33383   5.450   6.534   1.904 -0.3704 -0.7519  0.2657
  242MOL0     H33384   5.023   6.481   1.894  0.0976  1.8758 -2.1196
  242MOL0     H33385   5.129   6.445   1.762 -0.7561 -0.2185  0.2616
  242MOL0     H33386   5.217   6.446   2.047 -1.4729 -2.1302  0.3760
  242MOL0     H33387   5.306   6.372   1.902  1.3937  0.1693  1.8708
  242MOL0     H33388   5.023   6.306   1.996 -2.0507 -1.4369 -3.4452
  242MOL0     H33389   5.124   6.208   1.886  1.2780 -1.7383  1.6003
  242MOL0     H33390   5.226   6.225   2.175 -0.7943  1.6816 -0.5468
  242MOL0     H33391   5.234   6.094   2.054  0.7486  0.8669 -0.6281
  242MOL0     H33392   4.874   6.008   2.259  0.3745 -0.9604 -1.0875
  242MOL0     H33393   5.170   6.715   1.632 -0.8260  0.6044  0.3925
  242MOL0     H33394   5.367   6.862   1.399  0.0064  1.1883 -0.1007
  242MOL0     H33395   5.340   6.690   1.360  1.1824  0.3311  0.7485
  242MOL0     H33396   5.217   6.786   1.446  0.0681  2.1265  1.6785
  243MOL0     O33397   6.680   2.681   7.982 -0.3301  0.0301  0.0802
  243MOL0     C33398   6.686   2.703   8.111 -0.1667  0.1619  0.4534
  243MOL0     O33399   6.720   2.821   8.171  0.0245 -0.1540 -0.3129
  243MOL0     C33400   6.772   2.918   8.090  0.9233 -0.7987  0.0646
  243MOL0     C33401   6.904   2.936   8.042 -0.2977  0.2814 -0.5372
  243MOL0     C33402   6.928   3.034   7.947  0.0765  1.2214 -0.4301
  243MOL0     C33403   6.838   3.131   7.914 -0.0975  0.1702  0.3511
  243MOL0     O33404   6.885   3.215   7.824 -0.0498 -0.2300  0.4198
  243MOL0     C33405   6.826   3.184   7.696 -0.1209 -0.4172 -0.0119
  243MOL0     C33406   6.875   3.276   7.593 -1.0984  1.0004  0.7880
  243MOL0     C33407   6.846   3.422   7.619 -0.2443  0.5471  0.0443
  243MOL0     C33408   6.879   3.504   7.500 -0.4658 -0.0054  0.1836
  243MOL0     C33409   6.857   3.646   7.534  0.3056  0.2649  0.0401
  243MOL0     C33410   6.763   3.708   7.435 -0.0170 -0.5159 -0.3732
  243MOL0     C33411   6.619   3.646   7.432 -0.1801  0.8133 -0.3061
  243MOL0     C33412   6.539   3.655   7.562 -1.3335 -0.2328  0.6255
  243MOL0     N33413   6.403   3.618   7.541 -0.3534 -0.0542 -0.1633
  243MOL0     C33414   6.332   3.519   7.600  0.3091  0.3028  0.3470
  243MOL0     C33415   6.213   3.506   7.539  0.2186 -0.5895  0.8849
  243MOL0     C33416   6.094   3.419   7.561 -0.1725 -0.5191 -0.7313
  243MOL0     C33417   6.045   3.353   7.433  0.8126 -0.0842  0.4266
  243MOL0     C33418   5.923   3.270   7.465 -0.3820 -0.7194 -0.4056
  243MOL0     C33419   5.875   3.180   7.351 -0.0725  0.5109 -0.8349
  243MOL0     O33420   5.962   3.069   7.319  0.1203  0.6423  0.7452
  243MOL0     C33421   5.987   2.965   7.413 -0.7103 -0.3325 -0.1633
  243MOL0     C33422   5.884   2.920   7.492  0.2235  0.2480 -0.3216
  243MOL0     C33423   5.903   2.807   7.576  0.9213 -0.7331  1.2609
  243MOL0     C33424   5.789   2.756   7.651 -0.3267 -0.1271 -0.6058
  243MOL0     C33425   6.039   2.752   7.585  1.1427  1.2629  0.2265
  243MOL0     C33426   6.081   2.642   7.683  0.3519  1.1046 -0.6021
  243MOL0     O33427   6.205   2.576   7.655  0.7306  0.1845  0.1759
  243MOL0     C33428   6.247   2.471   7.739 -0.4949 -0.3636 -0.4209
  243MOL0     C33429   6.225   2.338   7.712  0.1412  1.2965 -0.0002
  243MOL0     C33430   6.265   2.234   7.801 -0.3152 -1.0331 -0.6433
  243MOL0     C33431   6.347   2.260   7.911  0.4786  0.0296 -0.7151
  243MOL0     O33432   6.382   2.142   7.974 -0.1809 -0.0670 -0.2341
  243MOL0     C33433   6.449   2.158   8.097 -0.0250 -0.2765  0.0875
  243MOL0     C33434   6.406   2.050   8.196  0.2450  0.3908  0.1444
  243MOL0     C33435   6.505   2.056   8.309 -0.1106 -0.1508  0.2511
  243MOL0     C33436   6.519   1.912   8.381 -0.0759 -0.2911  0.1143
  243MOL0     C33437   6.399   1.880   8.468 -0.1331 -0.1087 -0.7845
  243MOL0     C33438   6.399   1.925   8.611  0.2977 -1.0139 -0.1482
  243MOL0     C33439   6.483   1.842   8.700 -0.4324  0.0407  0.2443
  243MOL0     C33440   6.441   1.696   8.715 -0.3826 -0.2936  0.4359
  243MOL0    Cl33441   6.540   1.597   8.848  0.0241 -0.3189  0.1315
  243MOL0     C33442   6.375   2.397   7.933 -0.4265 -1.0327 -0.5453
  243MOL0     C33443   6.316   2.496   7.855 -0.2472 -0.3959  0.1945
  243MOL0     O33444   6.008   2.612   7.781 -0.8134 -0.6602 -0.1295
  243MOL0     C33445   6.145   2.794   7.498  0.3662  0.4377  0.3138
  243MOL0     C33446   6.117   2.904   7.418  0.4387  0.3928 -0.5814
  243MOL0     N33447   6.211   3.598   7.429 -0.1593  0.6643  0.3497
  243MOL0     N33448   6.331   3.644   7.425 -0.1643  0.6817  0.0417
  243MOL0     C33449   6.709   3.128   7.971 -0.1437 -0.0724 -0.0479
  243MOL0     C33450   6.682   3.018   8.056  0.3552 -0.6966 -0.1524
  243MOL0     C33451   6.682   2.582   8.200  0.1926 -1.1568 -0.3127
  243MOL0     C33452   6.665   2.616   8.335 -0.9997 -0.7548 -0.6802
  243MOL0     C33453   6.666   2.526   8.436  1.3766  0.8320 -0.0878
  243MOL0     C33454   6.679   2.391   8.407 -0.9688 -0.6826 -0.1274
  243MOL0     O33455   6.682   2.301   8.507  0.5268  0.2487 -0.1485
  243MOL0     C33456   6.768   2.327   8.621  0.5868 -0.2980 -0.3505
  243MOL0     C33457   6.705   2.290   8.760  1.2215  0.1284 -0.1116
  243MOL0     C33458   6.583   2.371   8.787 -0.0059 -0.6847  0.0305
  243MOL0     C33459   6.485   2.299   8.879  0.8383 -0.4780  0.4527
  243MOL0     C33460   6.363   2.387   8.905  0.3473  0.4183  0.1543
  243MOL0     C33461   6.275   2.469   8.920 -0.7115  0.0499  0.6493
  243MOL0     C33462   6.694   2.359   8.275  0.0470  0.7337  0.1788
  243MOL0     C33463   6.703   2.450   8.170  0.0730 -0.1439  0.0444
  243MOL0     C33464   6.741   2.390   8.035 -0.6707 -0.6428  0.2661
  243MOL0     H33465   6.985   2.872   8.075 -0.9878 -1.4308 -1.9897
  243MOL0     H33466   7.026   3.032   7.902  0.4092 -0.6009  0.3237
  243MOL0     H33467   6.718   3.205   7.694  0.2679  1.9522 -2.4736
  243MOL0     H33468   6.846   3.080   7.669 -0.5065 -1.2900  2.7027
  243MOL0     H33469   6.982   3.254   7.587 -0.9107  1.3689  2.4057
  243MOL0     H33470   6.830   3.240   7.500 -1.0033  1.6471  0.4881
  243MOL0     H33471   6.744   3.425   7.657 -1.4471 -5.5067 -1.6864
  243MOL0     H33472   6.914   3.458   7.697  1.3653 -0.9964 -0.5765
  243MOL0     H33473   6.985   3.496   7.476 -0.4847  1.3860 -0.4662
  243MOL0     H33474   6.834   3.470   7.406  4.4528  0.7302 -2.7720
  243MOL0     H33475   6.953   3.698   7.540 -0.2546  1.1483  1.9736
  243MOL0     H33476   6.806   3.655   7.630  0.6563 -0.6720  0.3285
  243MOL0     H33477   6.747   3.811   7.468 -1.3195 -1.2101  1.3094
  243MOL0     H33478   6.815   3.711   7.339  1.8595  1.4953  0.6156
  243MOL0     H33479   6.618   3.544   7.391  0.7494  0.7568 -0.2035
  243MOL0     H33480   6.565   3.697   7.352 -2.1169 -0.2886  0.2432
  243MOL0     H33481   6.576   3.606   7.653  0.1148  0.0691  0.2260
  243MOL0     H33482   6.542   3.764   7.577  0.7977  0.6154 -4.1141
  243MOL0     H33483   6.367   3.458   7.682  2.3457 -0.6002 -1.0960
  243MOL0     H33484   6.005   3.470   7.597  0.2411 -1.3116  1.5806
  243MOL0     H33485   6.111   3.338   7.633 -0.7623 -0.1979 -0.2167
  243MOL0     H33486   6.026   3.429   7.356 -1.6308 -1.5200 -0.4993
  243MOL0     H33487   6.117   3.287   7.383 -1.0124 -2.1956  0.4740
  243MOL0     H33488   5.941   3.211   7.555  3.1931  0.5194 -0.1377
  243MOL0     H33489   5.842   3.343   7.476  0.3762  0.4311 -2.0723
  243MOL0     H33490   5.780   3.131   7.376  0.4263  0.2448  0.6065
  243MOL0     H33491   5.873   3.235   7.256 -1.4800 -1.3006 -1.9287
  243MOL0     H33492   5.788   2.965   7.471  0.7205  1.3947 -0.2326
  243MOL0     H33493   5.811   2.741   7.757  0.2209 -0.9308 -0.8232
  243MOL0     H33494   5.760   2.655   7.621 -1.5728  0.3340 -1.0188
  243MOL0     H33495   5.703   2.822   7.637 -1.6399 -1.4639  0.8106
  243MOL0     H33496   6.179   2.323   7.614 -1.2606  1.7283  0.5677
  243MOL0     H33497   6.234   2.131   7.787 -0.7079 -1.1615  1.0545
  243MOL0     H33498   6.554   2.140   8.073  0.0321  0.1703  0.0042
  243MOL0     H33499   6.437   2.255   8.146  1.9528  1.6237 -2.8854
  243MOL0     H33500   6.310   2.059   8.247  0.3395  0.4362  0.3159
  243MOL0     H33501   6.414   1.952   8.147 -0.3971  0.7229 -0.6440
  243MOL0     H33502   6.479   2.128   8.386  2.7570 -0.8131  2.0018
  243MOL0     H33503   6.603   2.081   8.266 -0.5125 -1.1469 -1.3216
  243MOL0     H33504   6.605   1.916   8.449 -0.3341  1.4669  0.3853
  243MOL0     H33505   6.530   1.832   8.307 -0.0172  0.0245 -0.2173
  243MOL0     H33506   6.310   1.931   8.430 -0.6015  0.3509  0.8220
  243MOL0     H33507   6.376   1.774   8.462 -2.6059  0.4203 -1.8132
  243MOL0     H33508   6.298   1.917   8.651 -0.0052  1.0722 -0.3719
  243MOL0     H33509   6.434   2.028   8.623 -2.0165 -0.1113 -0.6889
  243MOL0     H33510   6.476   1.884   8.801  0.2986 -3.3589  1.8314
  243MOL0     H33511   6.587   1.842   8.665 -0.4948  2.3393 -0.1319
  243MOL0     H33512   6.474   1.647   8.623 -0.0952  3.3270 -1.5810
  243MOL0     H33513   6.334   1.681   8.731 -0.1031 -0.0466  2.9647
  243MOL0     H33514   6.429   2.427   8.022 -2.2604 -0.2275  0.3407
  243MOL0     H33515   6.330   2.602   7.874 -1.1444 -0.2534  0.1200
  243MOL0     H33516   6.239   2.744   7.482  0.3458 -0.1440  1.8475
  243MOL0     H33517   6.193   2.945   7.352 -0.3462  0.5022 -1.4330
  243MOL0     H33518   6.646   3.212   7.945  1.9184  1.1189 -1.4990
  243MOL0     H33519   6.580   3.023   8.090 -0.7093 -1.0764 -2.9910
  243MOL0     H33520   6.643   2.720   8.358  0.1328 -0.3970 -1.1665
  243MOL0     H33521   6.652   2.557   8.539 -0.3554  3.4197 -0.9906
  243MOL0     H33522   6.864   2.276   8.615  2.9148  3.4756  1.3076
  243MOL0     H33523   6.798   2.432   8.624 -1.2820  0.2505  0.9172
  243MOL0     H33524   6.775   2.303   8.843 -0.1795 -1.4623  1.3979
  243MOL0     H33525   6.678   2.184   8.754 -1.5355  0.7817 -1.1342
  243MOL0     H33526   6.621   2.460   8.838 -0.8725 -0.6806  0.6805
  243MOL0     H33527   6.539   2.402   8.692  0.9540 -3.1084 -1.2820
  243MOL0     H33528   6.539   2.288   8.974  0.3568  0.5444  0.8492
  243MOL0     H33529   6.453   2.199   8.848  2.6653 -1.8464  2.6515
  243MOL0     H33530   6.201   2.543   8.939  0.2443  1.0249  0.6588
  243MOL0     H33531   6.716   2.253   8.275 -1.6369  0.3263 -1.5176
  243MOL0     H33532   6.804   2.301   8.043  1.2769  0.8011  1.9850
  243MOL0     H33533   6.655   2.349   7.982 -0.3823  2.8634 -3.4021
  243MOL0     H33534   6.790   2.463   7.969  0.7218 -1.1984  0.6465
  244MOL0     O33535   8.335   4.320   2.577 -0.0187 -0.4973 -0.0783
  244MOL0     C33536   8.292   4.425   2.633 -0.0484  0.1274 -0.7237
  244MOL0     O33537   8.325   4.548   2.588 -0.0097 -0.1835 -0.3114
  244MOL0     C33538   8.410   4.558   2.484  0.1615  0.9747  0.4972
  244MOL0     C33539   8.542   4.507   2.503 -0.5435 -0.0758  0.6246
  244MOL0     C33540   8.627   4.519   2.388  0.3280 -0.6105 -0.3643
  244MOL0     C33541   8.580   4.557   2.257 -0.0126 -0.8725  0.5526
  244MOL0     O33542   8.646   4.552   2.141  0.1961 -0.3483  0.8202
  244MOL0     C33543   8.788   4.547   2.141 -1.0353 -0.5596  0.4154
  244MOL0     C33544   8.849   4.573   1.998 -0.5469  0.0684 -0.3149
  244MOL0     C33545   8.995   4.568   2.002 -0.3523 -0.3549 -0.0397
  244MOL0     C33546   9.056   4.604   1.859 -0.5420  0.1497 -0.5849
  244MOL0     C33547   9.211   4.598   1.842 -0.4817 -0.9651 -0.0713
  244MOL0     C33548   9.273   4.464   1.808 -0.5656  0.2538  0.5029
  244MOL0     C33549   9.427   4.482   1.815 -0.0208 -0.4115  0.6400
  244MOL0     C33550   9.496   4.347   1.810 -0.2749  0.2664  0.1470
  244MOL0     N33551   9.641   4.355   1.798 -0.0323  0.7045  0.4130
  244MOL0     C33552   9.694   4.312   1.677 -0.3525 -0.2421  0.5322
  244MOL0     C33553   9.827   4.318   1.699 -0.3095  0.0149 -0.2440
  244MOL0     C33554   9.935   4.308   1.593 -0.0105  0.0378 -0.2245
  244MOL0     C33555   9.975   4.460   1.550  0.3235  0.0539 -0.1132
  244MOL0     C33556  10.112   4.457   1.486  0.7603  0.4180  0.1741
  244MOL0     C33557  10.189   4.568   1.532 -0.3461  0.0091  0.3511
  244MOL0     O33558  10.119   4.686   1.493 -0.2046 -0.6729  0.1009
  244MOL0     C33559  10.125   4.722   1.361 -0.2279  0.1850 -0.4778
  244MOL0     C33560  10.250   4.751   1.307 -0.2434  0.5735  0.4967
  244MOL0     C33561  10.264   4.791   1.176  0.0436  0.1650 -0.1181
  244MOL0     C33562  10.399   4.824   1.125  0.0297  0.5368  0.1115
  244MOL0     C33563  10.154   4.797   1.091 -1.0080  0.3447 -0.7857
  244MOL0     C33564  10.160   4.836   0.954  0.1575  0.0877 -0.0219
  244MOL0     O33565  10.056   4.909   0.905 -0.0249 -0.0134 -0.1215
  244MOL0     C33566  10.023   4.895   0.772 -0.0576 -0.1113 -0.0232
  244MOL0     C33567  10.069   4.786   0.694  0.3454  0.1151 -0.4899
  244MOL0     C33568  10.013   4.768   0.568  0.2784 -0.3352 -0.0729
  244MOL0     C33569   9.915   4.853   0.520  0.0155  0.6988 -0.2837
  244MOL0     O33570   9.849   4.815   0.401  0.0844  0.5139 -0.2058
  244MOL0     C33571   9.708   4.778   0.427  0.0514 -0.5185 -0.5450
  244MOL0     C33572   9.602   4.879   0.384 -0.4528 -0.4498 -0.2172
  244MOL0     C33573   9.638   4.937   0.254  0.3412 -0.7782  0.2987
  244MOL0     C33574   9.616   4.832   0.147  0.2129  1.1052  0.3425
  244MOL0     C33575   9.604   4.867   0.007 -0.2228  0.6176 -0.3981
  244MOL0     C33576   9.586   4.740  -0.076  0.0134  0.4776  0.6630
  244MOL0     C33577   9.598   4.768  -0.223  0.1338  0.4404 -0.1862
  244MOL0     C33578   9.733   4.750  -0.285  0.6859  0.1981  0.9647
  244MOL0    Cl33579   9.822   4.899  -0.321 -0.5149 -0.0899 -0.0263
  244MOL0     C33580   9.865   4.955   0.598 -0.0367  0.3794 -0.5397
  244MOL0     C33581   9.925   4.977   0.721 -0.5969  0.0691  0.1210
  244MOL0     O33582  10.262   4.793   0.890  0.3089  0.6466  0.4162
  244MOL0     C33583  10.033   4.767   1.141 -0.1141 -0.5231  0.2174
  244MOL0     C33584  10.013   4.733   1.273 -0.4966  0.0939 -0.2927
  244MOL0     N33585   9.840   4.361   1.834  0.1064 -0.5436 -0.3833
  244MOL0     N33586   9.729   4.372   1.897 -0.2930  0.2157 -0.9696
  244MOL0     C33587   8.449   4.609   2.260  0.1035  0.6149  0.4212
  244MOL0     C33588   8.362   4.612   2.371 -0.6688 -0.4452  0.1272
  244MOL0     C33589   8.198   4.404   2.746  0.2879  0.2620  0.6922
  244MOL0     C33590   8.102   4.300   2.738  0.6561 -0.6063 -0.9606
  244MOL0     C33591   8.013   4.279   2.842  0.7437 -1.1379  1.4288
  244MOL0     C33592   8.025   4.344   2.966  0.2907  0.1794 -0.6245
  244MOL0     O33593   7.947   4.300   3.064 -0.4465 -0.1122 -0.1360
  244MOL0     C33594   7.899   4.394   3.163 -0.1214 -0.3529  0.7171
  244MOL0     C33595   7.832   4.315   3.274  0.2374  0.0105  0.4931
  244MOL0     C33596   7.767   4.406   3.378 -0.1267  0.2780 -0.5966
  244MOL0     C33597   7.692   4.335   3.490 -0.2902  1.1254  0.2816
  244MOL0     C33598   7.557   4.310   3.435  0.3749 -0.0659 -0.1689
  244MOL0     C33599   7.449   4.278   3.387  0.7074  0.1842 -0.8785
  244MOL0     C33600   8.113   4.455   2.970  0.3508  0.1992 -0.3031
  244MOL0     C33601   8.196   4.484   2.865  0.3025 -0.6587 -0.3010
  244MOL0     C33602   8.271   4.614   2.866 -0.5911 -0.5847 -0.1826
  244MOL0     H33603   8.572   4.449   2.590  0.4933  0.2797  0.5120
  244MOL0     H33604   8.729   4.486   2.404 -0.2553 -1.1160  3.1248
  244MOL0     H33605   8.832   4.466   2.199  2.9162  1.4552  0.5872
  244MOL0     H33606   8.824   4.630   2.202  2.8220 -1.8068  0.0991
  244MOL0     H33607   8.802   4.505   1.925 -5.0202  5.6218 -3.4575
  244MOL0     H33608   8.813   4.672   1.968 -0.9310  0.2952  0.8701
  244MOL0     H33609   9.042   4.638   2.072  0.3881 -1.2900  0.4297
  244MOL0     H33610   9.029   4.467   2.025  0.1038  0.0432  1.1296
  244MOL0     H33611   9.028   4.539   1.776  0.6136  0.3157 -1.1242
  244MOL0     H33612   9.019   4.704   1.834  1.1670  0.4321 -2.1878
  244MOL0     H33613   9.262   4.643   1.928  2.3481 -0.8687 -1.6630
  244MOL0     H33614   9.236   4.666   1.761 -4.1612 -0.2744 -0.8157
  244MOL0     H33615   9.235   4.385   1.874  3.0127 -2.0356  0.1229
  244MOL0     H33616   9.249   4.437   1.705 -0.6199  3.8792 -0.5658
  244MOL0     H33617   9.443   4.524   1.914 -3.3199  0.4130  0.9583
  244MOL0     H33618   9.471   4.551   1.742  0.7459 -1.0513  0.4818
  244MOL0     H33619   9.462   4.289   1.896 -0.7691  1.9785  1.1521
  244MOL0     H33620   9.472   4.294   1.717  3.6343  0.7488 -1.3262
  244MOL0     H33621   9.640   4.283   1.588 -0.9452 -1.1362  1.1642
  244MOL0     H33622   9.897   4.254   1.506  0.3879  1.8485 -1.5539
  244MOL0     H33623  10.019   4.257   1.641  0.4402  0.3605 -0.6608
  244MOL0     H33624   9.899   4.509   1.490 -3.1713  2.3689  5.3727
  244MOL0     H33625   9.987   4.521   1.641  1.2391 -0.9437  0.4674
  244MOL0     H33626  10.166   4.365   1.512 -2.1362 -1.6786 -0.7336
  244MOL0     H33627  10.096   4.464   1.378  1.3661  4.4901  0.1985
  244MOL0     H33628  10.215   4.573   1.638  2.1761  1.1972 -0.2497
  244MOL0     H33629  10.281   4.555   1.475  1.0274  0.1530  2.4357
  244MOL0     H33630  10.341   4.759   1.365  0.8584 -1.8546 -0.7609
  244MOL0     H33631  10.402   4.908   1.055  2.5568  0.5360  0.1306
  244MOL0     H33632  10.457   4.744   1.078  0.3459  0.3885  0.7395
  244MOL0     H33633  10.455   4.851   1.215  0.6088 -0.5070  0.0751
  244MOL0     H33634  10.131   4.704   0.728  0.3845  0.8796  1.4296
  244MOL0     H33635  10.034   4.693   0.492 -1.1618 -0.9620  0.1028
  244MOL0     H33636   9.678   4.694   0.364 -2.9448  1.1526 -1.5590
  244MOL0     H33637   9.683   4.738   0.526  1.0806 -1.0349 -0.4794
  244MOL0     H33638   9.510   4.820   0.374 -0.7974  0.0471 -0.0231
  244MOL0     H33639   9.580   4.963   0.450 -1.8954 -0.6728 -0.3865
  244MOL0     H33640   9.735   4.986   0.267 -0.3209  0.0602  2.6431
  244MOL0     H33641   9.575   5.022   0.226  3.7284  1.3289 -1.6427
  244MOL0     H33642   9.526   4.777   0.175 -0.7771  3.3351  1.8598
  244MOL0     H33643   9.699   4.761   0.151 -1.0109 -0.3411  0.9438
  244MOL0     H33644   9.511   4.922  -0.009 -0.6861 -0.2001 -0.5806
  244MOL0     H33645   9.693   4.923  -0.022 -0.3588  0.6645 -0.7306
  244MOL0     H33646   9.480   4.712  -0.070 -0.3857  1.8262  0.2965
  244MOL0     H33647   9.649   4.655  -0.050  1.2619  1.0378 -0.4366
  244MOL0     H33648   9.551   4.862  -0.252 -1.2913 -0.4349 -0.8303
  244MOL0     H33649   9.540   4.690  -0.273  2.4790 -0.4683 -1.6670
  244MOL0     H33650   9.723   4.698  -0.381 -0.0988 -2.5946  2.4712
  244MOL0     H33651   9.802   4.696  -0.220  3.5840  2.6467  0.1949
  244MOL0     H33652   9.765   4.992   0.581 -0.4485 -1.1713 -1.6534
  244MOL0     H33653   9.876   5.048   0.788 -2.1299  0.9094 -1.8013
  244MOL0     H33654   9.943   4.778   1.082  0.4116  0.5248 -0.4136
  244MOL0     H33655   9.911   4.716   1.308 -0.2603  0.2447  0.4687
  244MOL0     H33656   8.420   4.642   2.160  1.8648 -1.5114 -0.8723
  244MOL0     H33657   8.259   4.645   2.363 -0.4453  0.7696  1.8023
  244MOL0     H33658   8.112   4.224   2.660 -1.7671 -2.4969  0.4182
  244MOL0     H33659   7.955   4.187   2.838 -1.9605  0.4921  1.3432
  244MOL0     H33660   7.982   4.456   3.198  0.6696 -0.2957 -1.1369
  244MOL0     H33661   7.818   4.450   3.116 -0.5708 -2.7912 -1.6752
  244MOL0     H33662   7.909   4.258   3.325  0.0933  1.2296  2.1527
  244MOL0     H33663   7.760   4.249   3.225  0.7875  1.6699 -2.8638
  244MOL0     H33664   7.833   4.475   3.432  0.4120 -0.8111  0.1823
  244MOL0     H33665   7.702   4.470   3.319 -3.3242 -3.1987 -1.2487
  244MOL0     H33666   7.688   4.384   3.588 -1.2354  0.2983  0.6849
  244MOL0     H33667   7.741   4.238   3.502 -1.8861  0.4765  2.0521
  244MOL0     H33668   7.362   4.240   3.337  0.3947  2.6090 -2.3558
  244MOL0     H33669   8.135   4.499   3.066 -0.1374 -0.0374 -0.0752
  244MOL0     H33670   8.377   4.607   2.843 -0.6334 -1.3333 -0.1661
  244MOL0     H33671   8.230   4.676   2.785  2.5118  0.2774 -1.2192
  244MOL0     H33672   8.255   4.668   2.960  1.0817 -1.4818  0.6608
  245MOL0     O33673   4.155   8.505   1.834  0.4206  0.1115  0.0628
  245MOL0     C33674   4.139   8.396   1.880 -0.2604  1.1399 -0.0489
  245MOL0     O33675   4.236   8.306   1.888 -0.7359 -0.2493  0.2310
  245MOL0     C33676   4.371   8.339   1.869  0.5607 -0.3595 -0.2004
  245MOL0     C33677   4.434   8.260   1.776  0.3367 -0.4863  0.5535
  245MOL0     C33678   4.566   8.282   1.736 -0.4511 -0.4811 -0.3847
  245MOL0     C33679   4.628   8.389   1.799  0.3048 -0.1332  0.2981
  245MOL0     O33680   4.758   8.433   1.788 -0.2431  0.1373  0.9459
  245MOL0     C33681   4.832   8.342   1.710  0.4466  0.1631  0.1585
  245MOL0     C33682   4.983   8.364   1.742  0.1435 -0.3919  0.2468
  245MOL0     C33683   5.034   8.483   1.666  0.0941  0.8857  0.2193
  245MOL0     C33684   5.178   8.534   1.691 -0.0398 -0.6180 -0.2500
  245MOL0     C33685   5.207   8.668   1.613 -0.7808 -0.1891 -0.3068
  245MOL0     C33686   5.346   8.723   1.657  1.0882  0.0451 -0.0430
  245MOL0     C33687   5.354   8.873   1.614  1.2559  0.5636  0.3937
  245MOL0     C33688   5.365   8.897   1.461 -0.5453  0.0015 -0.1743
  245MOL0     N33689   5.330   9.038   1.436 -0.7279 -0.4412 -0.1118
  245MOL0     C33690   5.220   9.101   1.376 -0.1519 -1.1904  0.0528
  245MOL0     C33691   5.255   9.231   1.367  0.4409  1.0135 -0.4898
  245MOL0     C33692   5.175   9.351   1.315  0.6810  0.0813  0.3456
  245MOL0     C33693   5.135   9.333   1.168 -0.0999  0.7149 -0.0887
  245MOL0     C33694   5.034   9.213   1.137  0.7538  0.1591  0.4472
  245MOL0     C33695   4.905   9.221   1.228  0.6580  0.1849  1.0963
  245MOL0     O33696   4.842   9.350   1.233 -0.7872  0.2383  0.6034
  245MOL0     C33697   4.724   9.365   1.288  0.1421 -0.1173  0.3066
  245MOL0     C33698   4.669   9.279   1.386  0.3343  0.1083  0.2787
  245MOL0     C33699   4.552   9.324   1.445  1.1051 -0.0977 -0.2585
  245MOL0     C33700   4.507   9.253   1.560  0.0616  0.5281 -0.8858
  245MOL0     C33701   4.482   9.435   1.411  0.0495 -0.9612  0.2790
  245MOL0     C33702   4.354   9.486   1.467 -0.5605 -0.6006  0.0596
  245MOL0     O33703   4.329   9.616   1.456  0.4315 -0.4803 -0.4463
  245MOL0     C33704   4.305   9.684   1.577  0.1103  0.6939  0.3687
  245MOL0     C33705   4.341   9.626   1.708  0.1778  0.1822 -0.3404
  245MOL0     C33706   4.320   9.701   1.830 -0.6242 -0.0344 -0.3223
  245MOL0     C33707   4.245   9.820   1.819  0.1412 -1.1739  1.1291
  245MOL0     O33708   4.212   9.902   1.924  0.6293  0.0201 -0.1387
  245MOL0     C33709   4.274   9.887   2.054  0.3099 -0.0688  0.5930
  245MOL0     C33710   4.207   9.957   2.166  0.3637 -0.7483  0.3888
  245MOL0     C33711   4.283   9.925   2.299  0.1903  0.5065  0.0469
  245MOL0     C33712   4.212   9.802   2.367 -0.5394 -0.5971  0.4228
  245MOL0     C33713   4.262   9.776   2.506  0.2897 -0.1225 -1.0492
  245MOL0     C33714   4.199   9.889   2.599 -0.4161  0.2551 -0.5845
  245MOL0     C33715   4.251   9.873   2.741 -0.4597 -0.7811 -0.1437
  245MOL0     C33716   4.164   9.936   2.845 -0.5452  1.3315  0.4162
  245MOL0    Cl33717   4.037   9.820   2.871  0.2693  0.0332 -0.0995
  245MOL0     C33718   4.217   9.872   1.692 -0.8955 -0.4444 -0.2771
  245MOL0     C33719   4.255   9.808   1.573  0.0135  0.4076 -0.1987
  245MOL0     O33720   4.278   9.409   1.527  0.2818  0.0223  0.6037
  245MOL0     C33721   4.538   9.510   1.301  0.6319 -0.0138  0.1057
  245MOL0     C33722   4.657   9.477   1.242 -0.7302 -0.1185 -0.2029
  245MOL0     N33723   5.381   9.249   1.420  0.2401  0.6510 -0.0918
  245MOL0     N33724   5.427   9.128   1.445  0.1064 -0.0999 -0.6506
  245MOL0     C33725   4.564   8.479   1.885 -0.5060 -0.7072 -0.4765
  245MOL0     C33726   4.430   8.450   1.923 -0.8226  0.5310  0.6430
  245MOL0     C33727   4.011   8.364   1.947 -0.1041  1.1599  0.1661
  245MOL0     C33728   4.009   8.274   2.057  1.0985  0.5390 -1.1077
  245MOL0     C33729   3.894   8.229   2.120 -0.5154 -0.4650 -0.3448
  245MOL0     C33730   3.771   8.253   2.054  0.5472  0.1856  0.6946
  245MOL0     O33731   3.649   8.198   2.087 -0.2420 -0.8156  0.3600
  245MOL0     C33732   3.633   8.128   2.207  0.1898 -0.2888 -0.6321
  245MOL0     C33733   3.484   8.113   2.227  0.1085  0.5066  0.2428
  245MOL0     C33734   3.451   8.040   2.368 -0.1352  0.0375 -0.3952
  245MOL0     C33735   3.304   8.006   2.392  0.6736  0.6001 -0.2854
  245MOL0     C33736   3.261   7.909   2.295  0.6254  0.1762  0.3944
  245MOL0     C33737   3.229   7.835   2.206  0.1086 -0.0636 -0.1844
  245MOL0     C33738   3.775   8.326   1.931  0.7320 -0.3785 -0.6793
  245MOL0     C33739   3.887   8.389   1.882 -0.7482 -0.0233  0.0665
  245MOL0     C33740   3.877   8.462   1.750  0.0111  0.2002  0.1852
  245MOL0     H33741   4.374   8.181   1.732 -0.9116  1.1272 -0.7442
  245MOL0     H33742   4.609   8.220   1.658  0.7584  0.1289 -0.2198
  245MOL0     H33743   4.814   8.368   1.606 -0.4863  2.4670  0.8472
  245MOL0     H33744   4.812   8.241   1.748 -0.0484  0.0106 -0.4964
  245MOL0     H33745   4.994   8.372   1.850  2.0654 -2.8976  0.3366
  245MOL0     H33746   5.038   8.276   1.708  0.1826 -0.4633  0.4987
  245MOL0     H33747   5.025   8.465   1.559 -1.0174  0.0626  0.4276
  245MOL0     H33748   4.961   8.559   1.696 -2.4407 -0.8543 -1.1650
  245MOL0     H33749   5.194   8.543   1.799 -0.4393  1.8674 -0.3542
  245MOL0     H33750   5.245   8.454   1.658  2.0282  1.7791 -2.2690
  245MOL0     H33751   5.135   8.748   1.632  1.3913  1.1245  3.3707
  245MOL0     H33752   5.197   8.644   1.506 -0.5161 -1.5090 -0.0586
  245MOL0     H33753   5.363   8.720   1.765 -2.1455  0.3914  0.5741
  245MOL0     H33754   5.413   8.663   1.596 -0.4765 -1.6804 -0.1301
  245MOL0     H33755   5.440   8.917   1.666  1.8302  0.8115 -0.7402
  245MOL0     H33756   5.264   8.922   1.651 -1.1170 -0.6740 -3.1930
  245MOL0     H33757   5.469   8.876   1.435 -1.0458 -0.4935 -1.9026
  245MOL0     H33758   5.308   8.830   1.397  0.3028  0.0374 -0.9907
  245MOL0     H33759   5.121   9.061   1.356 -1.4071  1.2786  0.8937
  245MOL0     H33760   5.235   9.442   1.320 -0.8370  1.1804 -0.4535
  245MOL0     H33761   5.087   9.372   1.377 -0.3463 -0.2495 -0.9531
  245MOL0     H33762   5.096   9.428   1.130 -0.3374  1.2869  1.5019
  245MOL0     H33763   5.226   9.313   1.110  1.8175  2.4521  2.1091
  245MOL0     H33764   5.002   9.228   1.034  0.0070  0.8839  0.7811
  245MOL0     H33765   5.086   9.116   1.136 -0.7476 -0.6754  0.9770
  245MOL0     H33766   4.827   9.152   1.193 -0.1744  2.2384 -1.4542
  245MOL0     H33767   4.945   9.194   1.326 -0.5209  0.9473  1.8087
  245MOL0     H33768   4.728   9.194   1.418 -0.6706 -1.3687 -1.5967
  245MOL0     H33769   4.581   9.185   1.604  0.5313  2.0061  0.7369
  245MOL0     H33770   4.415   9.195   1.546  0.9600 -1.3570  0.6670
  245MOL0     H33771   4.499   9.325   1.643  2.3818 -1.1472  0.9303
  245MOL0     H33772   4.392   9.531   1.713 -0.6374 -0.5001 -3.0416
  245MOL0     H33773   4.356   9.659   1.922 -1.4353 -1.4077 -0.6087
  245MOL0     H33774   4.263   9.784   2.088 -1.2631 -0.2050 -0.2237
  245MOL0     H33775   4.380   9.912   2.039  0.3604 -1.8449 -3.2112
  245MOL0     H33776   4.204  10.065   2.153 -2.9741 -0.9861 -2.0114
  245MOL0     H33777   4.102   9.930   2.183 -0.2747  2.7783  3.4331
  245MOL0     H33778   4.255  10.013   2.358 -1.8366 -0.2718  0.3363
  245MOL0     H33779   4.392   9.926   2.298  0.1935  1.9181 -0.5482
  245MOL0     H33780   4.247   9.712   2.316 -0.4130 -1.7482  2.4472
  245MOL0     H33781   4.103   9.800   2.367 -0.6335  0.7048  2.7930
  245MOL0     H33782   4.232   9.680   2.547  2.4742  0.6043  2.6793
  245MOL0     H33783   4.371   9.772   2.508  0.3153  0.5244 -0.5786
  245MOL0     H33784   4.092   9.866   2.589 -0.1237 -1.7341  0.3094
  245MOL0     H33785   4.221   9.992   2.573  0.8569 -0.3109 -1.8227
  245MOL0     H33786   4.347   9.926   2.737  0.9271 -3.2484 -2.1968
  245MOL0     H33787   4.263   9.768   2.765 -3.3842 -0.8480  1.4482
  245MOL0     H33788   4.120  10.028   2.805  1.5823  0.8495 -3.4724
  245MOL0     H33789   4.224   9.942   2.936  2.8607 -0.3575 -1.5308
  245MOL0     H33790   4.179   9.974   1.686 -1.0388 -0.4954 -0.2458
  245MOL0     H33791   4.239   9.857   1.477  1.6490 -1.0971 -1.3090
  245MOL0     H33792   4.491   9.605   1.278 -0.4334  0.4216  3.5326
  245MOL0     H33793   4.698   9.534   1.159  0.6485 -2.2388 -1.0545
  245MOL0     H33794   4.619   8.564   1.925  1.2030 -2.1981  0.5366
  245MOL0     H33795   4.370   8.510   1.990 -0.0191  2.1773 -0.0642
  245MOL0     H33796   4.104   8.261   2.109  0.3080 -0.3856  0.1757
  245MOL0     H33797   3.902   8.171   2.212 -0.0604 -3.3307 -2.0514
  245MOL0     H33798   3.691   8.036   2.215  2.1193  0.8421 -0.7781
  245MOL0     H33799   3.671   8.193   2.286  2.0978 -1.1875 -0.7587
  245MOL0     H33800   3.446   8.049   2.146  0.6905  0.4072  0.0434
  245MOL0     H33801   3.435   8.210   2.228 -1.9011 -0.4488  2.1004
  245MOL0     H33802   3.514   7.951   2.374  0.2958  0.3903  0.5388
  245MOL0     H33803   3.480   8.113   2.445  0.4494 -0.4957 -0.1062
  245MOL0     H33804   3.239   8.093   2.400 -1.3969 -0.8716 -0.4238
  245MOL0     H33805   3.295   7.963   2.493  0.7286  2.9762  0.7976
  245MOL0     H33806   3.194   7.776   2.124  2.1305  0.4226 -1.4484
  245MOL0     H33807   3.688   8.336   1.868  1.8269  5.0183 -1.8258
  245MOL0     H33808   3.773   8.470   1.717 -0.4278  1.1908  1.7048
  245MOL0     H33809   3.912   8.565   1.762 -0.5173  0.4840 -0.5691
  245MOL0     H33810   3.944   8.410   1.681  0.0045  2.1785 -1.4101
  246MOL0     O33811   6.184   1.861  10.622  0.3739  0.1052 -0.5317
  246MOL0     C33812   6.126   1.958  10.569 -0.2866  0.1924 -0.6462
  246MOL0     O33813   6.148   1.999  10.445 -0.4067  0.7115 -0.0199
  246MOL0     C33814   6.201   1.913  10.352 -0.2916  1.3154  0.5155
  246MOL0     C33815   6.147   1.779  10.331 -0.1794  0.9841 -0.0097
  246MOL0     C33816   6.199   1.704  10.227  0.4976  0.2343 -0.3412
  246MOL0     C33817   6.310   1.748  10.151  0.2497  0.4508 -0.5336
  246MOL0     O33818   6.361   1.679  10.051  0.2019  0.1218  0.2781
  246MOL0     C33819   6.419   1.555  10.097 -0.7224 -0.0729  0.7209
  246MOL0     C33820   6.445   1.457   9.980  0.7015 -0.4873 -0.5436
  246MOL0     C33821   6.564   1.504   9.901  0.4600  0.3569  0.0835
  246MOL0     C33822   6.593   1.432   9.774 -0.2743 -0.3692  0.1093
  246MOL0     C33823   6.715   1.489   9.707  0.1672 -0.3240 -0.5032
  246MOL0     C33824   6.759   1.389   9.607 -0.1640  0.0992  0.3694
  246MOL0     C33825   6.897   1.429   9.559 -0.3906  0.7249 -0.0318
  246MOL0     C33826   6.955   1.336   9.454  1.0747 -0.0163  0.6001
  246MOL0     N33827   6.894   1.366   9.322  0.2537  0.8821  0.1035
  246MOL0     C33828   6.943   1.431   9.211  1.6604 -0.0942 -0.1640
  246MOL0     C33829   6.860   1.414   9.109  0.3614  1.3476  0.2513
  246MOL0     C33830   6.872   1.467   8.977 -0.3105 -0.5846 -0.1277
  246MOL0     C33831   6.997   1.559   8.948  0.1654  0.4857  1.5903
  246MOL0     C33832   7.003   1.578   8.794 -0.1369  0.8863 -0.9506
  246MOL0     C33833   7.088   1.451   8.740  0.2438  0.4601 -1.0287
  246MOL0     O33834   7.189   1.492   8.644  0.2680 -0.4119  0.1155
  246MOL0     C33835   7.196   1.448   8.510  0.4068  0.0701 -0.3595
  246MOL0     C33836   7.276   1.524   8.427  0.0260  0.1855  0.6537
  246MOL0     C33837   7.285   1.499   8.283  0.1226  0.9501 -0.4535
  246MOL0     C33838   7.367   1.590   8.200  0.3201 -0.9462  0.2606
  246MOL0     C33839   7.217   1.391   8.235  0.7606  1.7496  0.3269
  246MOL0     C33840   7.226   1.337   8.098 -0.3015 -0.6324  0.3400
  246MOL0     O33841   7.120   1.274   8.049  0.4948  0.3592 -0.0800
  246MOL0     C33842   7.119   1.207   7.937  0.4349  1.0363 -0.2783
  246MOL0     C33843   7.045   1.249   7.826 -0.7852  0.1245  0.6027
  246MOL0     C33844   7.039   1.169   7.712 -1.1042  0.7878  0.1910
  246MOL0     C33845   7.106   1.044   7.712 -0.3439  0.6604 -0.0686
  246MOL0     O33846   7.110   0.962   7.603 -0.5660 -0.1951 -0.1141
  246MOL0     C33847   7.079   0.999   7.467  0.1250  0.6291  0.4993
  246MOL0     C33848   7.165   0.920   7.366  0.3325 -0.2475 -0.5780
  246MOL0     C33849   7.124   0.949   7.220 -0.2328 -0.3051  0.0047
  246MOL0     C33850   7.138   1.092   7.193  0.3438 -0.6863  0.0120
  246MOL0     C33851   7.261   1.173   7.223  0.1074 -0.4216 -0.0073
  246MOL0     C33852   7.264   1.308   7.152 -0.9246  1.1633  0.7213
  246MOL0     C33853   7.147   1.402   7.154 -0.3223 -0.1764 -0.4085
  246MOL0     C33854   7.111   1.427   7.297 -0.2080 -0.1987 -0.5083
  246MOL0    Cl33855   7.028   1.581   7.290 -0.5533  0.1994 -0.1894
  246MOL0     C33856   7.190   1.017   7.819  0.4599  0.5668 -0.9923
  246MOL0     C33857   7.192   1.099   7.935  0.0804  0.0260  0.3434
  246MOL0     O33858   7.328   1.366   8.035  0.0412 -0.9781 -0.2289
  246MOL0     C33859   7.124   1.323   8.320  1.1116 -0.3108  0.5794
  246MOL0     C33860   7.113   1.356   8.454 -0.4025 -0.1815 -0.4011
  246MOL0     N33861   6.754   1.326   9.156 -0.1159  0.5174 -0.0808
  246MOL0     N33862   6.778   1.309   9.289  0.3621 -1.4589  0.5273
  246MOL0     C33863   6.364   1.872  10.176 -0.9772 -0.1204  0.1434
  246MOL0     C33864   6.314   1.955  10.270  0.4497 -0.1083 -1.0396
  246MOL0     C33865   6.054   2.044  10.657  0.0166  0.2599 -0.1558
  246MOL0     C33866   6.006   1.991  10.775 -0.2376  0.6361 -0.3683
  246MOL0     C33867   5.940   2.073  10.872 -1.2985  0.1165  0.1762
  246MOL0     C33868   5.933   2.211  10.859  0.3488 -1.0223  0.7649
  246MOL0     O33869   5.862   2.297  10.943 -0.4125  0.5108 -0.1814
  246MOL0     C33870   5.762   2.249  11.035  0.3084  1.2848  0.0427
  246MOL0     C33871   5.641   2.210  10.951  0.2484  0.4583 -0.3467
  246MOL0     C33872   5.542   2.125  11.043 -0.7203  0.8034  0.5236
  246MOL0     C33873   5.412   2.103  10.970 -0.5776 -0.7297 -0.1000
  246MOL0     C33874   5.349   2.228  10.924 -0.3938 -0.9976 -0.2712
  246MOL0     C33875   5.282   2.312  10.878  0.0146 -1.1682 -0.1577
  246MOL0     C33876   5.983   2.269  10.745  0.4163 -0.4523  1.0110
  246MOL0     C33877   6.049   2.187  10.647 -0.2521 -0.5645  0.0633
  246MOL0     C33878   6.120   2.267  10.538  0.4023 -0.0531  0.8611
  246MOL0     H33879   6.064   1.744  10.392  1.8031 -1.5518  1.4294
  246MOL0     H33880   6.148   1.609  10.215 -1.3268  0.9529  1.1751
  246MOL0     H33881   6.353   1.504  10.168 -0.8011  0.7213  1.2380
  246MOL0     H33882   6.507   1.583  10.156 -2.1808 -0.9870  3.4822
  246MOL0     H33883   6.465   1.360  10.027 -1.2312 -0.5859  0.1611
  246MOL0     H33884   6.350   1.448   9.927 -0.1212 -0.2921  0.8455
  246MOL0     H33885   6.551   1.605   9.862  2.3020  0.0729 -1.3694
  246MOL0     H33886   6.650   1.513   9.968 -0.4875  0.9803  1.2546
  246MOL0     H33887   6.603   1.325   9.794 -2.0881 -0.8856 -1.3717
  246MOL0     H33888   6.506   1.446   9.709 -0.3974  2.3186  0.7479
  246MOL0     H33889   6.791   1.494   9.785 -0.1046 -1.4060 -0.1469
  246MOL0     H33890   6.689   1.584   9.659 -3.8032 -2.0811 -2.2596
  246MOL0     H33891   6.769   1.287   9.644  1.5977 -0.4252 -1.3616
  246MOL0     H33892   6.684   1.389   9.527 -1.5741  0.1493  1.6557
  246MOL0     H33893   6.960   1.428   9.648 -1.7492 -1.0801  0.9912
  246MOL0     H33894   6.899   1.530   9.518 -0.3686  0.3806 -0.9074
  246MOL0     H33895   7.063   1.340   9.436  0.9531  1.3780  0.1108
  246MOL0     H33896   6.922   1.235   9.482  0.6601  0.7467  3.1242
  246MOL0     H33897   7.034   1.490   9.213  1.1381  0.7950 -1.6894
  246MOL0     H33898   6.785   1.524   8.944 -1.7012 -1.3001  2.0417
  246MOL0     H33899   6.890   1.376   8.920  2.4357  0.8054 -1.6978
  246MOL0     H33900   6.982   1.657   8.995  1.8650  0.5068  2.1383
  246MOL0     H33901   7.092   1.534   8.997  0.9887 -0.3517 -0.3540
  246MOL0     H33902   6.904   1.585   8.749 -0.9537  1.2037  0.7895
  246MOL0     H33903   7.058   1.671   8.782 -1.6470  1.5221 -3.4726
  246MOL0     H33904   7.142   1.417   8.829  0.7415 -0.5409 -1.6949
  246MOL0     H33905   7.028   1.364   8.713 -0.9079 -0.3070  3.2922
  246MOL0     H33906   7.315   1.614   8.473 -1.1869  2.1221 -1.8794
  246MOL0     H33907   7.465   1.547   8.178 -0.2250 -2.5058  0.6971
  246MOL0     H33908   7.382   1.683   8.255  0.6060 -1.1596  0.5559
  246MOL0     H33909   7.313   1.619   8.110 -3.9735 -2.6267  2.0465
  246MOL0     H33910   6.987   1.341   7.828  0.1613  0.9674 -2.9949
  246MOL0     H33911   6.991   1.214   7.626  0.2190  3.6617  0.8414
  246MOL0     H33912   6.973   0.972   7.455  0.3506 -0.1938  0.2781
  246MOL0     H33913   7.082   1.104   7.435 -0.1521  0.2934 -0.7092
  246MOL0     H33914   7.270   0.945   7.386 -0.0875  0.7234  0.4636
  246MOL0     H33915   7.156   0.815   7.397 -0.5742 -0.1164 -0.3740
  246MOL0     H33916   7.017   0.924   7.213  0.5549 -3.7226 -1.9845
  246MOL0     H33917   7.164   0.872   7.154 -2.6546 -3.4857  1.8682
  246MOL0     H33918   7.048   1.146   7.224  0.6556  0.5125 -1.0518
  246MOL0     H33919   7.134   1.093   7.084  0.8333 -1.0337 -0.0137
  246MOL0     H33920   7.271   1.176   7.331  1.7197 -0.5035 -0.1339
  246MOL0     H33921   7.351   1.127   7.180  0.6791  1.5201 -1.0455
  246MOL0     H33922   7.285   1.280   7.048 -0.3815  1.0272  0.8631
  246MOL0     H33923   7.350   1.371   7.181 -0.0600  0.4845 -0.2967
  246MOL0     H33924   7.058   1.380   7.095 -2.0184  2.9567  0.7716
  246MOL0     H33925   7.180   1.497   7.113 -3.4763  1.3288  0.2296
  246MOL0     H33926   7.205   1.445   7.351 -0.7954 -0.5048  0.6607
  246MOL0     H33927   7.052   1.341   7.330 -0.8158 -0.1844 -1.5318
  246MOL0     H33928   7.252   0.928   7.822  0.3210  0.4800  1.6442
  246MOL0     H33929   7.252   1.072   8.021  0.8219 -1.4510 -0.6096
  246MOL0     H33930   7.058   1.243   8.286 -1.7688  0.7953  3.0797
  246MOL0     H33931   7.035   1.309   8.515 -0.8675 -0.2412 -1.0365
  246MOL0     H33932   6.446   1.910  10.116 -0.7148 -0.5180  0.2414
  246MOL0     H33933   6.352   2.056  10.284 -0.9628  0.2841  0.1946
  246MOL0     H33934   6.005   1.885  10.795  2.4393  0.7998  1.0915
  246MOL0     H33935   5.900   2.022  10.959 -0.7819 -1.2799 -0.3698
  246MOL0     H33936   5.798   2.169  11.101  0.7828  0.9421 -0.6172
  246MOL0     H33937   5.735   2.326  11.108 -0.5147  0.1623  0.9641
  246MOL0     H33938   5.671   2.152  10.864  0.4006  0.3593 -0.2271
  246MOL0     H33939   5.593   2.295  10.902 -0.9228 -0.4208 -0.7826
  246MOL0     H33940   5.596   2.032  11.062 -1.0270  0.5764  0.2880
  246MOL0     H33941   5.530   2.171  11.142 -0.1627 -1.5931  1.7901
  246MOL0     H33942   5.352   2.042  11.037 -2.0686  0.4469 -0.2909
  246MOL0     H33943   5.442   2.049  10.880  0.8856 -0.6822  0.3477
  246MOL0     H33944   5.237   2.402  10.840 -0.7742 -1.5851 -0.2341
  246MOL0     H33945   5.990   2.377  10.737  2.6484 -0.6846 -4.4971
  246MOL0     H33946   6.104   2.374  10.548  3.0623  0.3860  1.2585
  246MOL0     H33947   6.228   2.248  10.532  1.2200  3.1054  3.1233
  246MOL0     H33948   6.075   2.248  10.440  3.6850  0.5585 -0.9293
  247MOL0     O33949   2.927   9.776   1.108  0.4132  0.2625 -0.2449
  247MOL0     C33950   2.911   9.787   0.985  1.1860 -0.9484 -0.0645
  247MOL0     O33951   3.001   9.833   0.893  0.2194  0.8650  0.3341
  247MOL0     C33952   3.111   9.892   0.936  0.1781 -0.6723 -0.0547
  247MOL0     C33953   3.099  10.014   1.006 -0.1499 -0.9188  0.2939
  247MOL0     C33954   3.212  10.075   1.059  0.4558  0.6539 -0.1209
  247MOL0     C33955   3.334  10.011   1.039 -0.6628 -0.8220  0.2028
  247MOL0     O33956   3.446  10.069   1.089  0.3582  0.1502 -0.2593
  247MOL0     C33957   3.490  10.198   1.031  0.4850 -1.2806  0.0305
  247MOL0     C33958   3.529  10.186   0.888  0.3535  0.7308  0.3759
  247MOL0     C33959   3.575  10.328   0.838 -0.6381  0.3693 -0.0530
  247MOL0     C33960   3.696  10.375   0.910  0.2422 -0.7052  0.3969
  247MOL0     C33961   3.797  10.447   0.833 -1.1741 -0.3953  0.0695
  247MOL0     C33962   3.751  10.593   0.818 -0.2348 -0.0808  0.2826
  247MOL0     C33963   3.852  10.665   0.737 -0.4526  0.4437 -0.8602
  247MOL0     C33964   3.787  10.788   0.667 -0.8402 -0.1842  0.2805
  247MOL0     N33965   3.701  10.868   0.754  0.2414  0.0015 -0.0513
  247MOL0     C33966   3.743  10.938   0.858 -0.0423  0.6331 -0.7145
  247MOL0     C33967   3.636  11.017   0.893 -0.6983  0.3630 -0.2072
  247MOL0     C33968   3.629  11.129   0.992  0.5021 -0.2513  0.0702
  247MOL0     C33969   3.754  11.203   1.008 -0.6729 -0.0879 -1.2548
  247MOL0     C33970   3.738  11.329   1.088  0.2708  0.6327 -0.5873
  247MOL0     C33971   3.854  11.383   1.174  0.6942 -0.0062  0.1423
  247MOL0     O33972   3.966  11.375   1.093 -0.3967 -0.7597  0.5291
  247MOL0     C33973   4.087  11.403   1.146  0.5390  1.1020 -0.5888
  247MOL0     C33974   4.117  11.425   1.283 -0.1579 -0.8398 -1.0498
  247MOL0     C33975   4.248  11.449   1.329 -0.7018 -0.1627 -0.2012
  247MOL0     C33976   4.271  11.465   1.476 -0.1268 -1.4036  0.1562
  247MOL0     C33977   4.352  11.496   1.236  0.3206  0.4944  0.4765
  247MOL0     C33978   4.494  11.545   1.258 -0.6099  0.3955  0.3770
  247MOL0     O33979   4.550  11.617   1.154  1.2021  0.4970 -0.3006
  247MOL0     C33980   4.665  11.693   1.168 -0.4638 -0.2155 -0.4804
  247MOL0     C33981   4.670  11.808   1.092 -0.1153 -1.0689  0.0955
  247MOL0     C33982   4.774  11.909   1.109  0.5650  0.7317 -0.6581
  247MOL0     C33983   4.884  11.876   1.198  0.0770  0.1977 -0.1928
  247MOL0     O33984   4.993  11.965   1.211 -0.3806  0.5912  0.7921
  247MOL0     C33985   4.974  12.105   1.208 -0.2214  0.3190 -0.4886
  247MOL0     C33986   5.113  12.165   1.243  0.4157 -0.0775  0.0157
  247MOL0     C33987   5.178  12.120   1.378 -0.0715  0.3938 -0.3410
  247MOL0     C33988   5.280  12.003   1.373  0.0624 -0.6206  0.9211
  247MOL0     C33989   5.386  12.003   1.481  1.0464 -1.0879 -0.3584
  247MOL0     C33990   5.480  11.878   1.471 -0.7244 -0.0597  0.5027
  247MOL0     C33991   5.566  11.857   1.340 -0.7599 -1.1257 -0.5756
  247MOL0     C33992   5.704  11.792   1.379 -0.0852 -0.0101  0.0598
  247MOL0    Cl33993   5.816  11.905   1.459 -0.2158 -0.0469 -0.0918
  247MOL0     C33994   4.880  11.755   1.266  0.5621 -0.2343 -0.5605
  247MOL0     C33995   4.772  11.665   1.253 -0.3803 -0.1808 -0.6225
  247MOL0     O33996   4.541  11.526   1.371  0.2596 -0.2237  0.2945
  247MOL0     C33997   4.312  11.481   1.102 -0.4970 -0.3743  0.2137
  247MOL0     C33998   4.181  11.439   1.056 -0.2013  1.0334 -0.3227
  247MOL0     N33999   3.527  10.991   0.807 -0.3075  0.5309 -0.1132
  247MOL0     N34000   3.571  10.904   0.721  0.6245 -0.4358  0.1629
  247MOL0     C34001   3.345   9.893   0.967 -0.4038  0.2358 -0.2779
  247MOL0     C34002   3.237   9.836   0.903  0.9884 -0.1998  0.2241
  247MOL0     C34003   2.775   9.750   0.936 -0.2776 -1.0502  0.0447
  247MOL0     C34004   2.768   9.766   0.800  0.0419 -0.1809  0.6052
  247MOL0     C34005   2.657   9.759   0.726 -0.3958  0.3593  0.0675
  247MOL0     C34006   2.536   9.740   0.789  0.5665 -0.1179 -0.4097
  247MOL0     O34007   2.432   9.705   0.709  0.5350  0.0758 -1.4367
  247MOL0     C34008   2.323   9.623   0.765 -0.2624 -0.0443 -0.2880
  247MOL0     C34009   2.224   9.603   0.642  0.1084  0.0493 -0.5711
  247MOL0     C34010   2.133   9.726   0.623  0.5842 -0.1221  0.7339
  247MOL0     C34011   1.995   9.696   0.639  0.3124 -0.1526 -1.2219
  247MOL0     C34012   1.894   9.799   0.601 -0.6243 -0.2437  0.7389
  247MOL0     C34013   1.805   9.869   0.561  0.4264 -0.0626 -0.2513
  247MOL0     C34014   2.533   9.732   0.931 -0.4963  0.0187 -1.1029
  247MOL0     C34015   2.656   9.728   1.008  0.3781 -0.4793  0.0246
  247MOL0     C34016   2.641   9.717   1.162 -0.1529  0.3416 -0.3802
  247MOL0     H34017   3.000  10.051   1.030  0.0846  0.7579 -1.1396
  247MOL0     H34018   3.201  10.173   1.105 -0.0777  0.8840 -0.7111
  247MOL0     H34019   3.576  10.234   1.089 -1.8817  3.4665  1.1237
  247MOL0     H34020   3.413  10.275   1.038 -0.6853 -2.2178 -1.8654
  247MOL0     H34021   3.602  10.105   0.881 -1.2499 -0.7809  0.4533
  247MOL0     H34022   3.440  10.153   0.833 -0.8427  1.0187  2.0581
  247MOL0     H34023   3.593  10.319   0.730 -2.2225 -1.6006 -0.1872
  247MOL0     H34024   3.494  10.400   0.852  1.2664  2.3326  1.7946
  247MOL0     H34025   3.673  10.430   1.001  1.3699  1.1996 -0.4082
  247MOL0     H34026   3.737  10.276   0.931 -0.2011 -1.4016 -1.7355
  247MOL0     H34027   3.822  10.395   0.740  1.6374 -5.0512  2.9831
  247MOL0     H34028   3.888  10.445   0.894 -1.1497  1.8206  0.1742
  247MOL0     H34029   3.657  10.598   0.762 -1.5418  2.1467  2.4561
  247MOL0     H34030   3.726  10.643   0.912  1.5548  0.0382  0.7150
  247MOL0     H34031   3.895  10.600   0.661  0.7532 -1.4194  1.3149
  247MOL0     H34032   3.939  10.690   0.797  0.3386 -1.3884 -1.1889
  247MOL0     H34033   3.879  10.837   0.635  1.3297 -3.7409  0.6153
  247MOL0     H34034   3.728  10.764   0.577 -1.7398  1.1773  0.4714
  247MOL0     H34035   3.839  10.948   0.907 -0.5075 -0.2414  0.4388
  247MOL0     H34036   3.588  11.086   1.084 -1.3154  0.4273 -0.3903
  247MOL0     H34037   3.546  11.189   0.955  0.3423  0.0590  0.9085
  247MOL0     H34038   3.810  11.135   1.074 -1.1461  1.3808  0.7413
  247MOL0     H34039   3.794  11.236   0.911 -1.2295 -0.3742 -1.5833
  247MOL0     H34040   3.719  11.409   1.015  0.4743 -1.2421 -2.7748
  247MOL0     H34041   3.649  11.310   1.149  1.3210  1.3054  1.2475
  247MOL0     H34042   3.834  11.487   1.202 -4.7238 -0.8410  0.5356
  247MOL0     H34043   3.852  11.312   1.258 -0.0636  0.9510  0.9659
  247MOL0     H34044   4.048  11.406   1.364  2.7407 -1.1816  1.5608
  247MOL0     H34045   4.364  11.413   1.500  0.9100  0.0070 -0.6536
  247MOL0     H34046   4.193  11.405   1.523 -0.3975  0.6149  2.4817
  247MOL0     H34047   4.267  11.566   1.518  1.4940 -1.9256  1.7151
  247MOL0     H34048   4.589  11.828   1.023  0.0230 -1.9884 -0.3526
  247MOL0     H34049   4.766  12.003   1.055  0.3982  1.1270  0.0503
  247MOL0     H34050   4.939  12.149   1.114 -2.8982  0.8140  0.6537
  247MOL0     H34051   4.905  12.141   1.284  0.3796  2.3486 -0.8403
  247MOL0     H34052   5.176  12.158   1.154  1.3093  0.3021  0.5932
  247MOL0     H34053   5.104  12.272   1.266 -1.4158 -0.0319 -0.7360
  247MOL0     H34054   5.097  12.090   1.444 -0.6693  2.3804 -0.1092
  247MOL0     H34055   5.226  12.203   1.430  1.9467 -0.6830 -0.3834
  247MOL0     H34056   5.335  12.017   1.280 -3.7480 -0.7910 -1.6153
  247MOL0     H34057   5.228  11.908   1.362 -0.5206 -0.0763 -1.6322
  247MOL0     H34058   5.449  12.092   1.485 -0.2708 -0.0076  5.1673
  247MOL0     H34059   5.333  12.003   1.577  0.7940  2.4931 -0.3433
  247MOL0     H34060   5.419  11.788   1.485 -0.7773 -0.4428 -1.8084
  247MOL0     H34061   5.551  11.876   1.554  0.2934 -0.8509 -0.3648
  247MOL0     H34062   5.585  11.953   1.291  1.9811 -1.5080 -0.4105
  247MOL0     H34063   5.502  11.794   1.278  1.2912 -3.2355 -0.6904
  247MOL0     H34064   5.753  11.752   1.290 -0.7666  0.3368 -0.4865
  247MOL0     H34065   5.699  11.704   1.443 -1.0846 -1.5764 -2.0332
  247MOL0     H34066   4.958  11.729   1.338  0.8323  2.3620  0.1809
  247MOL0     H34067   4.762  11.569   1.303  1.0649 -0.5738 -1.0345
  247MOL0     H34068   4.381  11.505   1.022  1.4372 -1.4523  1.4592
  247MOL0     H34069   4.160  11.425   0.951 -0.6697 -0.8112 -0.0117
  247MOL0     H34070   3.448   9.859   0.958  0.2677  1.7254  1.1491
  247MOL0     H34071   3.243   9.740   0.854 -3.3881 -0.2846 -0.5535
  247MOL0     H34072   2.857   9.783   0.741 -0.5904 -0.1652 -0.3736
  247MOL0     H34073   2.658   9.765   0.618  2.1864 -2.1412 -0.1756
  247MOL0     H34074   2.359   9.523   0.789 -0.5810  0.0975  0.8704
  247MOL0     H34075   2.280   9.672   0.853  1.3989  0.4502  0.2709
  247MOL0     H34076   2.166   9.520   0.683  2.7995 -1.5939  0.2122
  247MOL0     H34077   2.265   9.555   0.552  1.7082 -2.3500  1.3152
  247MOL0     H34078   2.162   9.808   0.689 -1.6705  1.2805  0.0865
  247MOL0     H34079   2.145   9.763   0.521 -0.5866 -0.7134  0.3665
  247MOL0     H34080   1.974   9.657   0.739 -1.3239  0.9978 -1.0653
  247MOL0     H34081   1.966   9.613   0.572 -1.2640 -1.0824  0.5010
  247MOL0     H34082   1.735   9.933   0.512  1.1321  1.3597  0.5627
  247MOL0     H34083   2.454   9.725   1.004  1.6111  0.7404  1.4164
  247MOL0     H34084   2.546   9.676   1.196 -0.3311  0.5946 -0.5701
  247MOL0     H34085   2.706   9.640   1.204 -2.9879 -3.0118 -1.6374
  247MOL0     H34086   2.648   9.816   1.208  0.3928  0.5695 -0.9423
  248MOL0     O34087   1.285   6.968   3.121  0.3088 -0.2553  0.0160
  248MOL0     C34088   1.210   7.037   3.187 -0.3278  0.7811 -0.8853
  248MOL0     O34089   1.140   6.990   3.302 -0.3698  0.0170 -0.8018
  248MOL0     C34090   1.102   6.864   3.311  0.2476 -0.0410 -0.8570
  248MOL0     C34091   1.102   6.770   3.214  0.3027  0.7571  0.5356
  248MOL0     C34092   1.059   6.634   3.236  1.3325  0.3105 -0.1216
  248MOL0     C34093   1.007   6.606   3.364  0.4332 -0.1658 -0.0130
  248MOL0     O34094   0.990   6.482   3.416 -0.5222 -0.5432 -0.6352
  248MOL0     C34095   1.016   6.369   3.327  0.4362 -0.2091  0.1262
  248MOL0     C34096   0.989   6.231   3.396 -0.1815 -0.0614  0.2978
  248MOL0     C34097   0.845   6.228   3.452 -0.3248  0.2995  0.0995
  248MOL0     C34098   0.803   6.081   3.482  0.2333  0.3188  0.0303
  248MOL0     C34099   0.654   6.064   3.535 -0.0090  0.0471  0.5339
  248MOL0     C34100   0.636   5.919   3.576 -0.5625 -0.1610  0.0940
  248MOL0     C34101   0.495   5.882   3.615 -0.2761  0.5594 -0.0912
  248MOL0     C34102   0.496   5.730   3.675  0.0742  0.1158 -0.6552
  248MOL0     N34103   0.553   5.713   3.808 -0.1321  0.5946  1.0540
  248MOL0     C34104   0.688   5.687   3.829  0.1514  0.2949  0.3562
  248MOL0     C34105   0.693   5.679   3.967 -0.2610  1.6023  0.9295
  248MOL0     C34106   0.832   5.665   4.033  0.0450 -0.2663  0.6234
  248MOL0     C34107   0.917   5.795   4.016 -0.6600 -0.3431  0.4307
  248MOL0     C34108   1.058   5.766   4.061  0.0840  0.2653  0.0472
  248MOL0     C34109   1.156   5.870   4.025 -0.2469 -0.7669 -0.0958
  248MOL0     O34110   1.156   5.909   3.879 -0.1976 -0.3978 -0.3543
  248MOL0     C34111   1.271   5.965   3.830  0.2777 -0.0689 -0.3802
  248MOL0     C34112   1.274   5.967   3.697  0.6679 -1.0447  0.5684
  248MOL0     C34113   1.382   6.025   3.640 -0.8385 -0.8424 -0.0140
  248MOL0     C34114   1.385   6.018   3.490  0.1056  0.2427  0.5541
  248MOL0     C34115   1.489   6.082   3.707 -0.0102  0.2152  0.3757
  248MOL0     C34116   1.609   6.143   3.653 -0.4116  0.7260  0.2913
  248MOL0     O34117   1.663   6.093   3.532  0.2844 -0.7048  0.5226
  248MOL0     C34118   1.764   6.157   3.456  0.5431 -0.4469  0.2772
  248MOL0     C34119   1.870   6.090   3.406 -0.0087 -0.4475  0.3993
  248MOL0     C34120   1.961   6.161   3.321  0.3777 -0.1272  0.0373
  248MOL0     C34121   1.961   6.298   3.308 -0.2860  0.2190  0.7833
  248MOL0     O34122   2.051   6.347   3.219 -0.6239  0.2541  0.5863
  248MOL0     C34123   2.103   6.480   3.246 -0.1947  0.0473 -0.6454
  248MOL0     C34124   2.098   6.549   3.106  1.3899 -0.3160 -0.4047
  248MOL0     C34125   2.179   6.488   2.996  0.2135  1.0965  0.6375
  248MOL0     C34126   2.331   6.501   3.012 -0.5173  0.0224 -0.1285
  248MOL0     C34127   2.411   6.419   2.915 -0.0050 -0.2182 -0.0110
  248MOL0     C34128   2.557   6.472   2.905 -0.3632 -0.1518 -0.5573
  248MOL0     C34129   2.648   6.369   2.849  0.5927  0.1873 -0.2212
  248MOL0     C34130   2.790   6.436   2.850  0.8580  0.5080  0.0302
  248MOL0    Cl34131   2.809   6.562   2.723 -0.1548  0.3148 -0.0110
  248MOL0     C34132   1.856   6.371   3.350  0.1761 -0.3442 -0.7346
  248MOL0     C34133   1.756   6.299   3.431 -0.6510 -0.6014 -0.6174
  248MOL0     O34134   1.659   6.237   3.717  0.3526 -0.8770 -0.5984
  248MOL0     C34135   1.478   6.070   3.842 -0.8638  0.5248 -0.2218
  248MOL0     C34136   1.369   6.018   3.905 -1.0849  0.1531 -1.0285
  248MOL0     N34137   0.572   5.693   4.023  0.2818  0.4617 -0.0186
  248MOL0     N34138   0.487   5.705   3.926  0.0095 -0.8861 -0.2078
  248MOL0     C34139   0.978   6.711   3.454 -0.4780  0.5159  0.3583
  248MOL0     C34140   1.034   6.831   3.435 -0.5933 -0.0228 -0.4024
  248MOL0     C34141   1.194   7.184   3.146  0.1463  0.2877  0.5184
  248MOL0     C34142   1.302   7.249   3.077 -1.1269  0.1163  0.1827
  248MOL0     C34143   1.307   7.388   3.060 -0.1748  0.6937 -0.5914
  248MOL0     C34144   1.188   7.457   3.094 -1.1266 -1.1008  0.2448
  248MOL0     O34145   1.196   7.597   3.077  0.3479  0.3782  0.1273
  248MOL0     C34146   1.086   7.691   3.100 -0.3390 -0.5350  0.8074
  248MOL0     C34147   1.116   7.817   3.018 -0.2818  0.5700  0.2235
  248MOL0     C34148   1.105   7.803   2.861  1.0281  0.1145  0.1053
  248MOL0     C34149   0.969   7.832   2.804 -0.5204  0.7654 -0.2330
  248MOL0     C34150   0.954   7.978   2.808  0.4625  0.0549  0.1013
  248MOL0     C34151   0.942   8.100   2.811  0.0482 -0.2813  0.2126
  248MOL0     C34152   1.076   7.396   3.154 -0.5338 -0.8415  0.1602
  248MOL0     C34153   1.084   7.258   3.181  0.3906 -0.1140  0.1146
  248MOL0     C34154   0.961   7.195   3.252 -0.7966 -0.0989  0.0390
  248MOL0     H34155   1.139   6.795   3.115 -1.3065  3.1253  0.4607
  248MOL0     H34156   1.061   6.556   3.160 -3.1336 -0.7182  0.5413
  248MOL0     H34157   1.123   6.360   3.306  0.7206  1.6845  0.5485
  248MOL0     H34158   0.960   6.377   3.234 -0.8577  1.2501  0.9931
  248MOL0     H34159   1.004   6.149   3.325  4.0450  0.2375  0.5787
  248MOL0     H34160   1.057   6.215   3.481  0.8272 -0.2683 -0.5267
  248MOL0     H34161   0.851   6.294   3.539  0.6237  2.0516 -1.2549
  248MOL0     H34162   0.774   6.270   3.380 -1.6105 -2.2997 -0.2859
  248MOL0     H34163   0.822   6.031   3.387 -1.0579 -0.8281  0.3479
  248MOL0     H34164   0.863   6.023   3.553 -0.9936 -1.0907 -0.0549
  248MOL0     H34165   0.595   6.094   3.448  1.5213  1.3619 -0.1172
  248MOL0     H34166   0.647   6.137   3.616  0.9794 -0.3702  1.0088
  248MOL0     H34167   0.660   5.857   3.489  0.1258 -0.1228  0.2501
  248MOL0     H34168   0.709   5.899   3.655 -1.0661 -1.9439  0.1650
  248MOL0     H34169   0.435   5.885   3.523  0.4734 -3.1079 -0.8711
  248MOL0     H34170   0.452   5.947   3.691  0.5043 -0.0885  0.9248
  248MOL0     H34171   0.394   5.690   3.672 -0.6834  1.9992 -2.4911
  248MOL0     H34172   0.556   5.670   3.607  3.1263  0.8008  1.2527
  248MOL0     H34173   0.762   5.701   3.751 -1.5589 -0.2485 -1.4500
  248MOL0     H34174   0.881   5.583   3.980  0.2357 -0.3284  0.8903
  248MOL0     H34175   0.826   5.641   4.140  0.4343  0.7181  0.8801
  248MOL0     H34176   0.912   5.829   3.912 -1.3279 -0.6143  0.3677
  248MOL0     H34177   0.876   5.877   4.076 -3.2106 -0.4743 -0.9920
  248MOL0     H34178   1.065   5.749   4.169  2.9641 -2.9186 -0.4747
  248MOL0     H34179   1.086   5.676   4.007 -2.5790  0.1740 -1.3385
  248MOL0     H34180   1.126   5.955   4.087 -0.6272 -1.7295  1.0988
  248MOL0     H34181   1.256   5.840   4.058  0.7549  1.3393 -1.0367
  248MOL0     H34182   1.195   5.934   3.629  2.1553  1.4311 -2.6697
  248MOL0     H34183   1.287   5.982   3.458  0.7958 -2.8031  1.5242
  248MOL0     H34184   1.465   5.949   3.462  2.6462  1.6493  3.6822
  248MOL0     H34185   1.402   6.115   3.441 -0.4683  1.4408  2.6236
  248MOL0     H34186   1.866   5.982   3.411  1.3353 -0.6787 -1.9394
  248MOL0     H34187   2.035   6.103   3.266 -0.6620 -1.7293  0.2687
  248MOL0     H34188   2.053   6.550   3.313  1.2560 -1.3591  2.1153
  248MOL0     H34189   2.208   6.469   3.275 -0.6813 -0.9550  0.8461
  248MOL0     H34190   1.994   6.565   3.074  0.7312  1.8052  2.3530
  248MOL0     H34191   2.131   6.653   3.110  1.6857 -0.2035 -3.3810
  248MOL0     H34192   2.150   6.529   2.899  0.8658  0.2411  0.0606
  248MOL0     H34193   2.165   6.380   2.988  2.1062  0.8862 -0.4227
  248MOL0     H34194   2.366   6.472   3.112 -0.1452 -1.7821 -0.7552
  248MOL0     H34195   2.353   6.607   2.996 -1.8371  0.3844  0.2980
  248MOL0     H34196   2.418   6.313   2.941  1.4650  0.1535  1.3072
  248MOL0     H34197   2.363   6.427   2.818  1.7366 -1.3051 -1.0093
  248MOL0     H34198   2.602   6.503   3.000  3.8798 -1.0098 -2.0647
  248MOL0     H34199   2.557   6.562   2.843  0.8751 -1.2180 -2.1770
  248MOL0     H34200   2.627   6.361   2.742  0.7929  0.6874 -0.2990
  248MOL0     H34201   2.643   6.272   2.900  1.4733  0.3903  0.2853
  248MOL0     H34202   2.861   6.356   2.829  0.6506 -0.2269  1.9403
  248MOL0     H34203   2.819   6.469   2.951  0.6941 -0.7699  0.5160
  248MOL0     H34204   1.844   6.471   3.309  2.5293 -0.3742 -1.6277
  248MOL0     H34205   1.670   6.350   3.474 -0.6278  0.5630 -1.8971
  248MOL0     H34206   1.560   6.117   3.895 -3.8103  2.5766  2.9261
  248MOL0     H34207   1.364   6.012   4.013  1.1425  0.7950 -0.8392
  248MOL0     H34208   0.935   6.675   3.547  0.3774 -0.8004  0.2782
  248MOL0     H34209   1.050   6.906   3.512 -0.1090  1.1471 -1.5920
  248MOL0     H34210   1.385   7.183   3.055 -3.1642 -1.2895 -4.6383
  248MOL0     H34211   1.385   7.443   3.008 -0.4056  1.6871  0.0856
  248MOL0     H34212   0.992   7.655   3.056 -1.1970  1.6049  0.7821
  248MOL0     H34213   1.061   7.716   3.203 -4.4507 -0.6853  0.0349
  248MOL0     H34214   1.218   7.855   3.031 -0.4900  1.4115 -0.5316
  248MOL0     H34215   1.051   7.900   3.049 -1.1732 -0.0710  0.1007
  248MOL0     H34216   1.175   7.865   2.803  0.9789  2.3554  2.2734
  248MOL0     H34217   1.134   7.701   2.837 -0.0095  0.5037 -3.3198
  248MOL0     H34218   0.902   7.770   2.863  0.5328  0.0456  0.2375
  248MOL0     H34219   0.964   7.801   2.699  1.3037  2.5371 -0.9030
  248MOL0     H34220   0.908   8.197   2.840  0.6109  0.0261 -0.1279
  248MOL0     H34221   1.003   7.468   3.191  2.2210  2.9385 -1.1185
  248MOL0     H34222   0.949   7.093   3.216  1.7871  0.1649 -1.8308
  248MOL0     H34223   0.979   7.182   3.359 -1.2199 -3.1866 -0.1864
  248MOL0     H34224   0.873   7.259   3.242  1.1842  2.7302 -0.7975
  249MOL0     O34225  10.549   3.089   7.994  0.5920  0.2595  0.1010
  249MOL0     C34226  10.619   3.046   8.084  0.3061 -0.3067  0.7374
  249MOL0     O34227  10.607   2.919   8.132 -0.0435  0.2521  0.9422
  249MOL0     C34228  10.500   2.850   8.105 -0.6110  0.3108  0.4643
  249MOL0     C34229  10.514   2.724   8.022  0.9378 -0.2281 -0.7109
  249MOL0     C34230  10.395   2.657   7.983 -0.2249  0.2714 -1.4153
  249MOL0     C34231  10.264   2.700   8.024  0.0393 -0.1522  1.0896
  249MOL0     O34232  10.148   2.632   7.988  0.2799  0.3274  0.2415
  249MOL0     C34233  10.151   2.548   7.864  0.0325 -0.7010 -0.3456
  249MOL0     C34234  10.009   2.497   7.839  1.2852  0.2590 -0.4727
  249MOL0     C34235  10.004   2.363   7.755 -0.9329  0.1209  0.5701
  249MOL0     C34236  10.062   2.398   7.619  0.3520 -0.2653  0.1809
  249MOL0     C34237  10.067   2.280   7.517  0.8892 -0.1813  0.2869
  249MOL0     C34238  10.129   2.314   7.384  0.0528  0.3430 -0.2840
  249MOL0     C34239  10.049   2.231   7.272 -1.0082  0.1877  0.6725
  249MOL0     C34240  10.087   2.087   7.276 -0.8271  0.2853  0.0284
  249MOL0     N34241  10.226   2.060   7.253  0.1412  0.5026  0.3345
  249MOL0     C34242  10.307   2.112   7.157 -0.4383 -0.4352  0.9488
  249MOL0     C34243  10.430   2.083   7.181 -0.4969  0.6959  0.0523
  249MOL0     C34244  10.548   2.119   7.097  0.7249  0.1201 -0.9121
  249MOL0     C34245  10.622   2.003   7.036 -0.2976 -0.2889 -0.2916
  249MOL0     C34246  10.524   1.918   6.950  1.2674  0.6246  0.6656
  249MOL0     C34247  10.610   1.818   6.874 -0.6907  0.9933 -0.1585
  249MOL0     O34248  10.532   1.779   6.760  0.3270  0.6143 -0.3581
  249MOL0     C34249  10.591   1.726   6.650 -0.6950  0.0764 -0.5305
  249MOL0     C34250  10.724   1.694   6.630  0.2139  0.4031  0.5766
  249MOL0     C34251  10.769   1.627   6.516 -0.5518  0.5054 -0.0512
  249MOL0     C34252  10.914   1.601   6.528 -1.0166 -0.0343 -0.2334
  249MOL0     C34253  10.679   1.580   6.423 -0.4953 -0.0495 -0.2598
  249MOL0     C34254  10.725   1.504   6.302  0.6096 -0.1854 -0.2277
  249MOL0     O34255  10.852   1.507   6.255  0.5564 -0.9575  0.0688
  249MOL0     C34256  10.883   1.447   6.139  0.4912  0.3854  0.2541
  249MOL0     C34257  10.906   1.310   6.132  0.7636 -0.2636  0.2669
  249MOL0     C34258  10.945   1.249   6.011  0.4801  0.6597 -0.1682
  249MOL0     C34259  10.963   1.325   5.891  0.1599 -0.2237 -0.5898
  249MOL0     O34260  10.997   1.259   5.776  0.2085 -0.4531 -0.3343
  249MOL0     C34261  11.088   1.327   5.699  0.1224  0.3804  0.9533
  249MOL0     C34262  11.175   1.226   5.620  0.4008  0.2679 -0.0128
  249MOL0     C34263  11.285   1.150   5.693 -0.2743 -0.2859  0.0207
  249MOL0     C34264  11.326   1.020   5.614  0.1311  0.2008  0.7063
  249MOL0     C34265  11.437   1.045   5.507  0.7466 -0.0034  0.3826
  249MOL0     C34266  11.453   0.928   5.412 -0.0230  0.2782 -0.3609
  249MOL0     C34267  11.358   0.935   5.285  0.5667 -0.9075 -0.1646
  249MOL0     C34268  11.410   0.846   5.181  0.5668 -0.7253 -0.4580
  249MOL0    Cl34269  11.442   0.675   5.249 -0.2051  0.6635  0.1988
  249MOL0     C34270  10.932   1.465   5.898 -0.2852 -0.1359  0.2243
  249MOL0     C34271  10.887   1.525   6.015 -0.3642  0.8882 -0.2447
  249MOL0     O34272  10.634   1.443   6.250  0.3954  0.2727  0.0110
  249MOL0     C34273  10.549   1.614   6.436  0.7927  0.2150  0.4268
  249MOL0     C34274  10.508   1.697   6.545  0.0428  0.4773 -0.9055
  249MOL0     N34275  10.432   2.017   7.303  0.4609 -1.0635 -0.0939
  249MOL0     N34276  10.308   2.013   7.354 -0.2323  0.5118  0.9993
  249MOL0     C34277  10.251   2.812   8.107  0.3409  0.1560  0.0087
  249MOL0     C34278  10.366   2.887   8.147 -0.4383  1.1546 -0.0074
  249MOL0     C34279  10.733   3.132   8.121 -0.1866  0.9022 -0.2322
  249MOL0     C34280  10.853   3.064   8.142 -0.2524 -0.4364  0.4631
  249MOL0     C34281  10.967   3.135   8.197 -1.1177  0.2788 -0.3400
  249MOL0     C34282  10.953   3.274   8.231 -0.0868 -0.4253  0.6939
  249MOL0     O34283  11.058   3.349   8.287  0.3915  0.2967  0.2329
  249MOL0     C34284  11.190   3.287   8.298  0.4456 -1.0799 -0.6033
  249MOL0     C34285  11.294   3.380   8.362 -0.4065 -0.0251 -0.1790
  249MOL0     C34286  11.292   3.498   8.269  0.2133  0.1212  0.1050
  249MOL0     C34287  11.400   3.599   8.304  0.4260  0.4497 -0.1500
  249MOL0     C34288  11.401   3.708   8.205  0.8737  0.9149  0.2775
  249MOL0     C34289  11.404   3.813   8.145  0.6296 -0.0820  0.3789
  249MOL0     C34290  10.834   3.342   8.200  0.1478 -0.0876 -0.0014
  249MOL0     C34291  10.724   3.274   8.142 -0.5221 -0.6289 -1.0248
  249MOL0     C34292  10.600   3.363   8.119 -0.0971  0.3550 -0.7872
  249MOL0     H34293  10.614   2.692   7.995  0.7572 -0.9005 -0.6074
  249MOL0     H34294  10.405   2.562   7.933  0.2006  0.0313 -0.8828
  249MOL0     H34295  10.220   2.466   7.886 -1.5356 -1.5189  1.9154
  249MOL0     H34296  10.192   2.605   7.780 -1.9600  1.2179 -0.1246
  249MOL0     H34297   9.949   2.481   7.929  0.3687 -0.5591 -1.2143
  249MOL0     H34298   9.947   2.573   7.790 -1.5827 -0.1046  2.3043
  249MOL0     H34299  10.068   2.289   7.804 -0.9645  1.2975  2.4993
  249MOL0     H34300   9.907   2.312   7.759  0.3714 -2.4923  1.3429
  249MOL0     H34301   9.996   2.478   7.585  0.0075  0.6942  2.8967
  249MOL0     H34302  10.159   2.446   7.633 -0.8627  1.7468  2.3456
  249MOL0     H34303   9.966   2.243   7.495  0.4812  0.7057  0.6126
  249MOL0     H34304  10.123   2.194   7.554 -2.5323 -2.3567  0.9549
  249MOL0     H34305  10.138   2.421   7.362  3.2371  0.5611  1.3550
  249MOL0     H34306  10.236   2.292   7.394 -0.4193 -1.2970  2.0892
  249MOL0     H34307  10.072   2.271   7.173  1.3070 -1.2793  0.5515
  249MOL0     H34308   9.942   2.251   7.277 -1.5991 -1.9750 -1.7210
  249MOL0     H34309  10.062   2.048   7.375  0.3722 -1.2260 -0.2249
  249MOL0     H34310  10.032   2.038   7.195 -1.4118  0.6535  0.1968
  249MOL0     H34311  10.270   2.159   7.066  0.7022 -0.0944  0.6453
  249MOL0     H34312  10.617   2.168   7.166 -2.3328 -1.1467  3.4607
  249MOL0     H34313  10.514   2.192   7.023  0.0065 -0.8235 -1.5341
  249MOL0     H34314  10.699   2.038   6.967  0.3107  0.4134  0.7127
  249MOL0     H34315  10.664   1.945   7.119 -1.8044 -0.3805  0.4408
  249MOL0     H34316  10.442   1.862   6.995 -1.7561  0.2642 -4.5197
  249MOL0     H34317  10.465   1.982   6.884 -2.0900  0.5083  3.3025
  249MOL0     H34318  10.698   1.873   6.841  1.5905 -2.1005  0.3648
  249MOL0     H34319  10.653   1.734   6.929  1.9811  1.0601 -1.9901
  249MOL0     H34320  10.788   1.709   6.716  0.0116  0.3479  0.7360
  249MOL0     H34321  10.933   1.515   6.594  0.8366  0.6291  0.1516
  249MOL0     H34322  10.964   1.686   6.575 -1.1828 -1.9779  3.9176
  249MOL0     H34323  10.960   1.596   6.429 -1.1924 -0.8294 -0.2855
  249MOL0     H34324  10.917   1.263   6.230  1.0658  0.4416  0.5828
  249MOL0     H34325  10.966   1.143   6.012 -0.0025  0.4463  3.7970
  249MOL0     H34326  11.028   1.377   5.623 -2.8739 -1.0266  2.1940
  249MOL0     H34327  11.154   1.396   5.752 -0.5900  0.0682  2.2808
  249MOL0     H34328  11.104   1.158   5.573  0.0948 -1.0433  2.2146
  249MOL0     H34329  11.227   1.290   5.547  3.0818  1.4917  2.7440
  249MOL0     H34330  11.263   1.119   5.796  1.3004 -1.4008  0.0507
  249MOL0     H34331  11.368   1.220   5.702 -1.0003  0.8347 -1.6372
  249MOL0     H34332  11.233   0.983   5.570  0.9123 -1.3496  0.2509
  249MOL0     H34333  11.359   0.940   5.681 -2.2184 -3.7322 -2.3596
  249MOL0     H34334  11.427   1.138   5.451  1.1068 -0.0249  0.2762
  249MOL0     H34335  11.530   1.055   5.564 -0.3735 -1.1880  2.5679
  249MOL0     H34336  11.435   0.833   5.464 -3.3913 -0.1741 -2.0424
  249MOL0     H34337  11.557   0.921   5.379  0.0745  1.4751 -0.3527
  249MOL0     H34338  11.358   1.035   5.241  0.0833 -0.6107  0.4976
  249MOL0     H34339  11.257   0.901   5.309 -1.1819  3.9626  0.5807
  249MOL0     H34340  11.500   0.893   5.139 -0.3989  1.4769 -0.2363
  249MOL0     H34341  11.328   0.846   5.108  0.5297  0.4675 -0.4395
  249MOL0     H34342  10.939   1.521   5.805  1.1835 -0.7262 -0.0397
  249MOL0     H34343  10.884   1.633   6.023  1.7110  1.1239 -1.7948
  249MOL0     H34344  10.477   1.592   6.357  0.1884  3.2193 -0.0068
  249MOL0     H34345  10.402   1.719   6.552 -0.0910 -0.5406  0.8629
  249MOL0     H34346  10.153   2.838   8.146  1.5990  2.3811  2.0114
  249MOL0     H34347  10.349   2.971   8.215 -1.3158 -0.9141  2.4827
  249MOL0     H34348  10.873   2.958   8.131 -0.8290 -0.4950 -0.0453
  249MOL0     H34349  11.053   3.081   8.234 -1.2759  0.4677  0.3115
  249MOL0     H34350  11.192   3.208   8.373  2.9693 -0.6737 -0.1715
  249MOL0     H34351  11.221   3.243   8.203  0.7567 -2.2583  0.0268
  249MOL0     H34352  11.389   3.325   8.369 -0.6460 -0.3484  0.6807
  249MOL0     H34353  11.264   3.401   8.465  1.4626 -2.5639  0.9917
  249MOL0     H34354  11.305   3.453   8.171  0.4990 -3.3951  1.5886
  249MOL0     H34355  11.193   3.544   8.269 -1.4724 -3.1540  0.6765
  249MOL0     H34356  11.497   3.550   8.309 -0.3774 -1.1640  0.4984
  249MOL0     H34357  11.379   3.633   8.407 -0.2785 -1.0668  0.2315
  249MOL0     H34358  11.406   3.910   8.100 -0.3510 -0.6770 -1.0704
  249MOL0     H34359  10.837   3.449   8.220  0.5981 -0.2496  0.8393
  249MOL0     H34360  10.597   3.449   8.187  1.3645 -0.4686  0.3733
  249MOL0     H34361  10.586   3.390   8.014  0.5592  1.2858 -0.6557
  249MOL0     H34362  10.508   3.313   8.148  0.3171 -0.2020 -0.4224
  250MOL0     O34363  10.686   3.389   5.463 -0.3304 -0.3987 -0.1097
  250MOL0     C34364  10.615   3.480   5.504  0.0720  0.2080 -0.3888
  250MOL0     O34365  10.618   3.533   5.627  0.9681 -0.1567  0.3533
  250MOL0     C34366  10.724   3.514   5.713  0.2920  1.0739  0.8643
  250MOL0     C34367  10.720   3.427   5.823 -0.3486  0.4661 -0.7384
  250MOL0     C34368  10.830   3.431   5.914  1.0005  0.9511  0.1584
  250MOL0     C34369  10.946   3.508   5.893 -0.2416  0.3513  0.2633
  250MOL0     O34370  11.052   3.511   5.984  0.1621 -0.0877  0.3490
  250MOL0     C34371  11.137   3.400   5.993 -0.6178  0.3135  0.6055
  250MOL0     C34372  11.230   3.425   6.113  0.1330 -0.4283 -0.1338
  250MOL0     C34373  11.352   3.330   6.080  0.1587  0.4596  0.3195
  250MOL0     C34374  11.424   3.303   6.211 -0.7486  0.6067 -1.0946
  250MOL0     C34375  11.566   3.247   6.186 -0.3682 -0.1375  0.4363
  250MOL0     C34376  11.638   3.204   6.314 -0.5567  0.2736  0.6704
  250MOL0     C34377  11.779   3.147   6.275  0.6930 -0.3309  1.2735
  250MOL0     C34378  11.788   3.074   6.136  0.3273  0.4184 -0.0241
  250MOL0     N34379  11.917   3.007   6.139 -0.1609  0.8517  0.0459
  250MOL0     C34380  12.035   3.065   6.102 -0.3111  0.9622  0.2791
  250MOL0     C34381  12.134   2.979   6.145 -0.1694  0.1178  0.3038
  250MOL0     C34382  12.281   3.002   6.127 -0.4406  0.6948  0.1048
  250MOL0     C34383  12.353   2.890   6.050 -0.2296  0.2835  0.3514
  250MOL0     C34384  12.506   2.878   6.074 -0.9133 -0.1951  0.1962
  250MOL0     C34385  12.585   3.012   6.038 -0.1920  0.4026 -0.6043
  250MOL0     O34386  12.729   3.004   6.024  0.6578 -0.5058  0.4338
  250MOL0     C34387  12.797   2.991   5.908 -0.5213 -0.0010 -0.6776
  250MOL0     C34388  12.922   3.047   5.896 -0.7975  0.2508  0.1043
  250MOL0     C34389  12.987   3.044   5.777  0.9376  0.8908  0.5281
  250MOL0     C34390  13.117   3.114   5.770  0.2818 -0.8875 -0.0406
  250MOL0     C34391  12.929   2.972   5.659  0.5774  0.5217 -0.4178
  250MOL0     C34392  12.990   2.983   5.524 -0.5738  0.5912 -0.1423
  250MOL0     O34393  12.947   2.884   5.434  0.2065 -0.8005  0.2592
  250MOL0     C34394  12.976   2.882   5.300  1.2783 -0.1092 -0.1262
  250MOL0     C34395  12.951   2.760   5.234  0.0434  0.3854 -0.1773
  250MOL0     C34396  12.975   2.749   5.101  0.2067  0.1227 -0.4205
  250MOL0     C34397  13.019   2.859   5.028 -0.7755  0.1729 -0.6781
  250MOL0     O34398  13.065   2.840   4.900 -0.5261 -0.5714 -0.2963
  250MOL0     C34399  12.975   2.794   4.804 -0.4080 -0.2200  0.9068
  250MOL0     C34400  13.026   2.824   4.665  0.0867 -0.6178 -1.1786
  250MOL0     C34401  13.148   2.743   4.649  0.7767  0.0865 -0.1401
  250MOL0     C34402  13.247   2.799   4.556  0.7073  0.7693  0.2662
  250MOL0     C34403  13.361   2.698   4.531  0.2559  1.0932  0.1500
  250MOL0     C34404  13.446   2.703   4.663  0.5556  1.0969  0.2017
  250MOL0     C34405  13.559   2.605   4.643 -0.8345  0.2413 -1.0334
  250MOL0     C34406  13.691   2.658   4.695  1.0979  0.7041  0.4088
  250MOL0    Cl34407  13.782   2.510   4.755  0.0449  0.3566  0.1744
  250MOL0     C34408  13.043   2.978   5.097 -0.3458  0.0574 -0.6521
  250MOL0     C34409  13.014   2.999   5.231  0.6368  0.0733  0.2709
  250MOL0     O34410  13.070   3.071   5.495 -0.2588 -0.9074 -0.8324
  250MOL0     C34411  12.797   2.921   5.673  0.3596 -0.3531 -0.4031
  250MOL0     C34412  12.736   2.930   5.798  0.2658 -0.8730  0.4709
  250MOL0     N34413  12.071   2.863   6.196 -0.8539  0.2893  0.7791
  250MOL0     N34414  11.938   2.886   6.193 -0.3184 -0.2237  0.1272
  250MOL0     C34415  10.945   3.592   5.784  0.4771 -0.0519 -0.1977
  250MOL0     C34416  10.837   3.596   5.693  0.0620  0.3050  0.7958
  250MOL0     C34417  10.525   3.541   5.414  0.2726 -0.3649  0.4389
  250MOL0     C34418  10.525   3.679   5.396 -0.1588  0.0794  0.2056
  250MOL0     C34419  10.440   3.747   5.305 -0.3755  0.1799 -0.0193
  250MOL0     C34420  10.361   3.678   5.217 -0.5512  0.6885 -0.2122
  250MOL0     O34421  10.278   3.741   5.132  0.2463 -0.4901  0.0965
  250MOL0     C34422  10.191   3.850   5.180 -0.1328 -0.4373 -0.1021
  250MOL0     C34423  10.092   3.802   5.291 -0.6230  0.1568  1.2274
  250MOL0     C34424  10.006   3.678   5.249  0.0732  0.1234 -0.5881
  250MOL0     C34425   9.865   3.693   5.298  0.5840 -0.2796  0.8067
  250MOL0     C34426   9.786   3.763   5.196  0.1157  0.1903 -0.3017
  250MOL0     C34427   9.730   3.830   5.110  0.0545  0.1042  0.6518
  250MOL0     C34428  10.365   3.544   5.222 -0.4324  0.6994  0.7571
  250MOL0     C34429  10.451   3.475   5.314 -0.3173  0.6300 -0.6831
  250MOL0     C34430  10.446   3.322   5.321  0.5094 -0.6993 -0.0363
  250MOL0     H34431  10.627   3.373   5.841 -0.6961  0.7829 -1.5100
  250MOL0     H34432  10.824   3.366   6.000 -0.4670  1.6116  0.5909
  250MOL0     H34433  11.183   3.386   5.895 -0.4333 -3.9831  1.1211
  250MOL0     H34434  11.075   3.311   6.007  1.1553 -0.7528  1.9990
  250MOL0     H34435  11.271   3.526   6.115 -0.3577 -0.2381  0.9838
  250MOL0     H34436  11.171   3.410   6.204  2.7326 -1.5251  1.4850
  250MOL0     H34437  11.319   3.233   6.040 -1.3828  0.7659  0.7745
  250MOL0     H34438  11.410   3.381   6.003 -0.6020 -2.0887 -2.1467
  250MOL0     H34439  11.425   3.394   6.272  0.9444 -0.2394  0.2294
  250MOL0     H34440  11.372   3.229   6.273  0.9717  1.6761  1.8420
  250MOL0     H34441  11.631   3.324   6.143 -0.8409 -0.0383 -0.1171
  250MOL0     H34442  11.566   3.163   6.115  3.0782 -0.0584  0.1779
  250MOL0     H34443  11.647   3.286   6.386  1.6848  0.6180  0.0591
  250MOL0     H34444  11.580   3.120   6.354 -0.3932  0.3245  1.0182
  250MOL0     H34445  11.818   3.089   6.360  0.7664 -1.6835  0.3436
  250MOL0     H34446  11.846   3.231   6.256  1.2468 -1.0884 -0.2353
  250MOL0     H34447  11.718   2.990   6.133  2.2767 -1.3077 -2.1589
  250MOL0     H34448  11.772   3.136   6.047 -1.2356 -1.7135 -1.3410
  250MOL0     H34449  12.046   3.165   6.061  1.8389  0.8854  0.5372
  250MOL0     H34450  12.317   3.006   6.230 -0.7228  3.6170  0.1998
  250MOL0     H34451  12.322   3.093   6.082  1.5468 -1.9391 -4.0313
  250MOL0     H34452  12.308   2.792   6.070 -2.1540  0.2555 -3.3218
  250MOL0     H34453  12.332   2.908   5.945 -0.8187 -1.2829  0.1681
  250MOL0     H34454  12.539   2.837   6.170  0.9292  0.3544 -0.1562
  250MOL0     H34455  12.543   2.805   6.002 -0.9076  0.9486 -0.9928
  250MOL0     H34456  12.549   3.044   5.940  3.5920  1.0629 -1.9368
  250MOL0     H34457  12.556   3.088   6.112  1.0584  0.3389 -0.0253
  250MOL0     H34458  12.970   3.098   5.979 -0.4593 -2.2264  1.5306
  250MOL0     H34459  13.119   3.199   5.701 -0.0860 -1.0835 -0.2932
  250MOL0     H34460  13.192   3.041   5.737  2.6320  1.3011  0.1291
  250MOL0     H34461  13.151   3.156   5.865 -1.5162 -0.3323  0.3918
  250MOL0     H34462  12.934   2.673   5.297  1.5156  1.7855  2.3345
  250MOL0     H34463  12.972   2.645   5.069  2.1836  0.1190 -0.7042
  250MOL0     H34464  12.959   2.687   4.818  1.3580 -0.5135  0.9977
  250MOL0     H34465  12.882   2.848   4.823 -1.2611 -0.7767 -1.4173
  250MOL0     H34466  12.952   2.811   4.586 -2.2719  1.7542  0.4721
  250MOL0     H34467  13.052   2.930   4.658  1.0663 -0.6040  1.5939
  250MOL0     H34468  13.107   2.649   4.612 -1.6357  0.9131  0.2259
  250MOL0     H34469  13.191   2.733   4.749 -2.5572  4.9872  2.2058
  250MOL0     H34470  13.284   2.893   4.598  1.2819 -1.3779  5.2866
  250MOL0     H34471  13.202   2.820   4.458 -0.8217  0.8891  0.9657
  250MOL0     H34472  13.328   2.596   4.509 -1.4325  1.9776 -1.7217
  250MOL0     H34473  13.416   2.743   4.448  3.0208 -1.5890  0.3719
  250MOL0     H34474  13.385   2.669   4.748 -1.5014 -1.4273 -2.1159
  250MOL0     H34475  13.479   2.805   4.684  0.3647  0.9533  1.3033
  250MOL0     H34476  13.571   2.569   4.540  0.2952 -2.4197 -0.0629
  250MOL0     H34477  13.535   2.517   4.704  1.7800  0.0058 -0.2192
  250MOL0     H34478  13.680   2.728   4.778 -3.3719  1.8895 -0.8843
  250MOL0     H34479  13.754   2.709   4.622  1.2608  0.6287  0.4956
  250MOL0     H34480  13.072   3.065   5.039  0.7000 -0.6878 -1.2810
  250MOL0     H34481  13.019   3.100   5.269  0.3483  0.2152 -0.0569
  250MOL0     H34482  12.748   2.883   5.583 -0.2288 -1.9079  0.5390
  250MOL0     H34483  12.629   2.909   5.800 -0.8195  2.5990 -4.0532
  250MOL0     H34484  11.029   3.659   5.774  0.2033  0.5362  1.1385
  250MOL0     H34485  10.849   3.665   5.611 -0.9834  2.7544  2.5647
  250MOL0     H34486  10.608   3.723   5.451  2.0090 -0.1018 -2.6733
  250MOL0     H34487  10.446   3.855   5.300 -2.9893  0.6454  3.5223
  250MOL0     H34488  10.246   3.936   5.219 -1.5179  0.7851 -0.7472
  250MOL0     H34489  10.135   3.882   5.092 -0.3359 -1.3667 -0.3162
  250MOL0     H34490  10.029   3.888   5.317 -0.1838  1.2016 -0.9074
  250MOL0     H34491  10.149   3.768   5.377  4.6814 -1.4241 -2.4067
  250MOL0     H34492  10.001   3.659   5.141 -0.3916 -0.2483 -0.5063
  250MOL0     H34493  10.046   3.585   5.291 -2.2498 -1.1655 -1.0392
  250MOL0     H34494   9.859   3.747   5.393  4.1311 -0.6128  1.3768
  250MOL0     H34495   9.825   3.593   5.319 -1.0453  0.0087 -0.7206
  250MOL0     H34496   9.676   3.884   5.035  0.0734 -0.4181  0.2550
  250MOL0     H34497  10.294   3.488   5.162 -2.1073  2.3096  1.1620
  250MOL0     H34498  10.439   3.281   5.422  0.3012  2.3712  1.3075
  250MOL0     H34499  10.357   3.291   5.265 -0.4657  1.0453  0.4753
  250MOL0     H34500  10.535   3.287   5.268 -0.0323  0.2475 -1.6645
  251MOL0     O34501   3.394   9.819   2.812 -0.4054  0.3843  0.1681
  251MOL0     C34502   3.484   9.733   2.790 -0.3029 -0.1470 -0.3478
  251MOL0     O34503   3.573   9.739   2.682  1.0262  0.2855  0.0180
  251MOL0     C34504   3.604   9.855   2.612 -1.1149  0.0683  0.4297
  251MOL0     C34505   3.703   9.838   2.519  0.3921  0.0700  0.9069
  251MOL0     C34506   3.744   9.955   2.436  1.0507  0.3812 -0.5105
  251MOL0     C34507   3.678  10.077   2.446 -0.1289 -0.6547  0.6882
  251MOL0     O34508   3.705  10.199   2.386 -0.1777 -0.4288 -0.0627
  251MOL0     C34509   3.823  10.179   2.300  0.0117  0.4868  0.0674
  251MOL0     C34510   3.786  10.137   2.161 -0.0405 -0.1879 -0.1316
  251MOL0     C34511   3.880  10.209   2.072 -0.5851  0.4266  0.0795
  251MOL0     C34512   3.868  10.159   1.920 -0.2272 -0.2278 -1.4179
  251MOL0     C34513   3.937  10.251   1.815 -0.1289 -0.4537 -0.0450
  251MOL0     C34514   4.085  10.274   1.832 -0.5481 -0.2588 -0.1595
  251MOL0     C34515   4.137  10.400   1.764 -0.3432  0.5076 -1.2076
  251MOL0     C34516   4.178  10.388   1.616  0.2267  0.5803 -0.3373
  251MOL0     N34517   4.267  10.279   1.584 -0.0205 -0.6561 -0.1146
  251MOL0     C34518   4.402  10.274   1.605 -0.4815  0.3370 -0.1154
  251MOL0     C34519   4.422  10.146   1.576 -0.8997 -0.0909  0.3041
  251MOL0     C34520   4.561  10.090   1.594 -0.5274 -0.6833  0.1046
  251MOL0     C34521   4.656  10.108   1.475  0.0648  0.6282 -0.0643
  251MOL0     C34522   4.716  10.249   1.454  0.5100 -0.2396 -0.0331
  251MOL0     C34523   4.788  10.252   1.326  0.3211  0.3601  0.3534
  251MOL0     O34524   4.694  10.246   1.214  0.5482  0.1910 -0.3445
  251MOL0     C34525   4.741  10.247   1.086 -0.6597  0.4187  0.8179
  251MOL0     C34526   4.649  10.198   0.991  0.3570 -0.8079 -0.0584
  251MOL0     C34527   4.687  10.209   0.853  0.5601 -0.1219 -0.8904
  251MOL0     C34528   4.575  10.181   0.767 -0.4930  0.2300 -0.3770
  251MOL0     C34529   4.811  10.267   0.812  0.2227  0.7216 -0.5176
  251MOL0     C34530   4.863  10.260   0.673 -0.3099 -0.4052  1.1251
  251MOL0     O34531   4.798  10.181   0.584  1.3429  0.9174  0.2280
  251MOL0     C34532   4.833  10.175   0.450 -0.0030  0.1116 -0.6559
  251MOL0     C34533   4.719  10.160   0.366 -0.7946 -0.4437 -0.2339
  251MOL0     C34534   4.739  10.155   0.225  0.2565 -0.9048 -0.4944
  251MOL0     C34535   4.871  10.137   0.183 -0.1781  0.3076  0.0481
  251MOL0     O34536   4.893  10.107   0.052  0.3578  0.4046 -0.8108
  251MOL0     C34537   4.864  10.199  -0.057 -0.8518 -0.5483 -0.8951
  251MOL0     C34538   4.758  10.131  -0.149 -0.0301 -0.7986 -0.0967
  251MOL0     C34539   4.796   9.985  -0.179  0.2414  0.4884  0.3764
  251MOL0     C34540   4.708   9.911  -0.287 -0.6160  0.7333 -0.0493
  251MOL0     C34541   4.751   9.766  -0.298  0.8303 -0.2943  0.0104
  251MOL0     C34542   4.741   9.677  -0.169 -0.6023 -0.1518  0.2665
  251MOL0     C34543   4.792   9.533  -0.192 -0.3701 -0.4694 -0.6088
  251MOL0     C34544   4.834   9.466  -0.067 -0.0179  0.2768 -0.5900
  251MOL0    Cl34545   4.978   9.530   0.005 -0.1913 -0.3712  0.4727
  251MOL0     C34546   4.980  10.149   0.268  0.4977 -0.1089 -1.5813
  251MOL0     C34547   4.968  10.167   0.406  0.6297 -0.2216  0.3245
  251MOL0     O34548   4.956  10.341   0.648  0.4436  0.4067  0.4044
  251MOL0     C34549   4.905  10.307   0.918  0.8072  0.5305  0.3839
  251MOL0     C34550   4.869  10.292   1.050  0.2913 -0.3975  0.1629
  251MOL0     N34551   4.321  10.093   1.507  0.2185  0.2176  1.0292
  251MOL0     N34552   4.226  10.179   1.503 -0.3561  0.3704 -0.0530
  251MOL0     C34553   3.570  10.089   2.542  0.4148  0.5575  0.4456
  251MOL0     C34554   3.537   9.983   2.621  0.4177 -0.2536 -0.5487
  251MOL0     C34555   3.506   9.624   2.897  0.2035  0.9402  0.6146
  251MOL0     C34556   3.399   9.595   2.979 -0.8238  0.5678  0.8920
  251MOL0     C34557   3.400   9.505   3.081  0.1505  0.4224  0.5802
  251MOL0     C34558   3.508   9.429   3.105 -1.6275 -0.2624 -0.0702
  251MOL0     O34559   3.535   9.342   3.208 -0.4817 -0.2580  0.1973
  251MOL0     C34560   3.443   9.353   3.323  0.1132 -0.2657  0.3296
  251MOL0     C34561   3.312   9.260   3.323 -1.0971 -1.8490  0.3447
  251MOL0     C34562   3.364   9.109   3.307 -0.2155 -0.0948 -0.7963
  251MOL0     C34563   3.240   9.012   3.289 -0.4271 -1.0681 -0.2837
  251MOL0     C34564   3.197   9.017   3.146 -0.7243  0.8763  0.2898
  251MOL0     C34565   3.163   9.014   3.028 -0.2987 -0.0090  0.7260
  251MOL0     C34566   3.623   9.456   3.031  0.1331  0.0012  0.0182
  251MOL0     C34567   3.629   9.557   2.935  0.6961  0.2607 -0.0969
  251MOL0     C34568   3.759   9.580   2.868  0.1950  0.6624 -0.0364
  251MOL0     H34569   3.760   9.746   2.513  2.2167  1.0191  2.4074
  251MOL0     H34570   3.818   9.931   2.360  0.6669 -1.2347 -0.4280
  251MOL0     H34571   3.904  10.120   2.345 -3.7021 -3.5063  2.3011
  251MOL0     H34572   3.873  10.276   2.302 -0.4920  0.7435  0.5995
  251MOL0     H34573   3.798  10.028   2.159  0.4024 -0.1807  1.0712
  251MOL0     H34574   3.682  10.167   2.144 -0.2152 -1.9507 -2.8568
  251MOL0     H34575   3.861  10.316   2.081 -2.2345  0.1657 -0.1020
  251MOL0     H34576   3.982  10.187   2.105 -1.0690 -2.6082 -0.1640
  251MOL0     H34577   3.900  10.055   1.912  0.4062  0.0811 -3.5019
  251MOL0     H34578   3.761  10.158   1.894 -0.6466  3.9005 -0.5119
  251MOL0     H34579   3.887  10.348   1.829 -2.0344 -1.6028  1.7073
  251MOL0     H34580   3.913  10.223   1.712  0.5001  1.2139 -0.6830
  251MOL0     H34581   4.111  10.282   1.938  1.2362 -1.4667 -0.4612
  251MOL0     H34582   4.128  10.179   1.799 -0.6414  0.5181 -2.7002
  251MOL0     H34583   4.227  10.429   1.819 -1.1667  4.2937 -1.5825
  251MOL0     H34584   4.056  10.472   1.773 -1.4589 -0.8703  0.4229
  251MOL0     H34585   4.087  10.393   1.555 -1.5730  0.0304  2.1443
  251MOL0     H34586   4.239  10.474   1.587 -0.0372  0.4663 -1.2688
  251MOL0     H34587   4.478  10.340   1.647  4.2434 -2.5064 -3.2495
  251MOL0     H34588   4.558   9.984   1.621  2.3262 -0.2795  2.5938
  251MOL0     H34589   4.609  10.128   1.685 -1.5683 -1.0899  0.8467
  251MOL0     H34590   4.740  10.047   1.511  1.3120  2.9922  1.3142
  251MOL0     H34591   4.620  10.063   1.382 -1.1608  0.6872  0.3692
  251MOL0     H34592   4.635  10.323   1.450  0.5216 -0.2506 -0.4938
  251MOL0     H34593   4.785  10.276   1.535  3.5864 -1.5050 -2.0488
  251MOL0     H34594   4.849  10.343   1.317 -0.0031  0.8320  2.4264
  251MOL0     H34595   4.860  10.171   1.318  0.5127  0.5937 -0.3544
  251MOL0     H34596   4.552  10.159   1.019 -0.5309 -0.2362 -2.1046
  251MOL0     H34597   4.477  10.193   0.814 -0.3425 -0.7596  0.2282
  251MOL0     H34598   4.590  10.077   0.735  3.0497  1.0898 -1.9739
  251MOL0     H34599   4.579  10.250   0.682 -0.2280  1.6040  0.7147
  251MOL0     H34600   4.617  10.170   0.403 -0.5403  0.6993  0.1770
  251MOL0     H34601   4.661  10.139   0.150  1.0511  0.1475 -1.5664
  251MOL0     H34602   4.836  10.299  -0.023 -0.9563 -0.6440 -0.6975
  251MOL0     H34603   4.954  10.201  -0.120  0.5338  3.1676  0.9200
  251MOL0     H34604   4.659  10.136  -0.102  0.3229 -0.8828  0.6834
  251MOL0     H34605   4.753  10.188  -0.242  1.0340  0.6057  0.6569
  251MOL0     H34606   4.779   9.939  -0.082  1.2785 -0.0033  0.3321
  251MOL0     H34607   4.902   9.969  -0.202 -0.3178  0.1935 -2.4375
  251MOL0     H34608   4.721   9.954  -0.387  0.1871  2.0171  0.5828
  251MOL0     H34609   4.600   9.913  -0.269 -0.7795 -0.0493 -0.8870
  251MOL0     H34610   4.701   9.718  -0.382 -2.9711  0.2360  1.7190
  251MOL0     H34611   4.858   9.772  -0.316  0.6602  2.8812 -0.6714
  251MOL0     H34612   4.638   9.680  -0.133 -0.9048 -0.8518 -0.5151
  251MOL0     H34613   4.805   9.720  -0.091  2.0302 -1.2983 -1.1691
  251MOL0     H34614   4.883   9.533  -0.253  1.3136  2.3790  1.6221
  251MOL0     H34615   4.713   9.477  -0.243 -2.5151  0.8326  1.1083
  251MOL0     H34616   4.874   9.371  -0.103  2.3482  0.3265  1.5936
  251MOL0     H34617   4.761   9.446   0.012  1.8443  1.4298  1.5302
  251MOL0     H34618   5.083  10.144   0.232  0.8476  0.5296 -0.7145
  251MOL0     H34619   5.057  10.187   0.465  0.5976 -1.1609  0.7172
  251MOL0     H34620   5.006  10.339   0.892  0.3108  1.7951 -0.0825
  251MOL0     H34621   4.938  10.314   1.131  0.6433  0.8525 -0.4536
  251MOL0     H34622   3.528  10.189   2.543 -0.1045  0.3422  0.2618
  251MOL0     H34623   3.463   9.989   2.700  1.1108 -0.8955  0.1587
  251MOL0     H34624   3.302   9.639   2.957 -0.7109 -0.6404 -2.7022
  251MOL0     H34625   3.309   9.490   3.138 -0.1699  1.2652  0.3089
  251MOL0     H34626   3.511   9.322   3.402  1.4194 -1.8547 -1.3426
  251MOL0     H34627   3.413   9.458   3.336 -1.6590 -0.5202 -1.1583
  251MOL0     H34628   3.244   9.286   3.241 -2.8022  0.2520  2.3107
  251MOL0     H34629   3.260   9.282   3.417 -0.2168  0.1359  0.4156
  251MOL0     H34630   3.436   9.105   3.225  1.1108 -2.0308  0.4007
  251MOL0     H34631   3.427   9.088   3.394 -0.0446  1.4608 -0.5131
  251MOL0     H34632   3.146   9.043   3.335 -1.3080 -0.4738 -2.3754
  251MOL0     H34633   3.273   8.912   3.317  1.5648 -0.3696  0.0172
  251MOL0     H34634   3.124   9.010   2.928  4.7941 -0.0538 -1.5670
  251MOL0     H34635   3.711   9.397   3.054 -0.7516 -1.0226  0.8285
  251MOL0     H34636   3.837   9.567   2.945 -0.7298 -0.0944  0.7960
  251MOL0     H34637   3.757   9.502   2.791 -2.7772  0.6550 -0.0390
  251MOL0     H34638   3.784   9.678   2.827  3.8437 -1.4720 -3.6609
  252MOL0     O34639   1.801   2.790   3.541 -0.2222 -0.2508  0.6587
  252MOL0     C34640   1.753   2.839   3.442 -0.6696 -0.2838  0.4550
  252MOL0     O34641   1.658   2.932   3.436  0.4671  0.1993 -0.5645
  252MOL0     C34642   1.638   3.019   3.546  0.4317 -0.7459 -0.0782
  252MOL0     C34643   1.746   3.070   3.614 -0.0240  0.5180  0.2716
  252MOL0     C34644   1.725   3.150   3.732  0.4660  0.0049 -0.0838
  252MOL0     C34645   1.595   3.174   3.783  0.3973 -0.1558 -0.2430
  252MOL0     O34646   1.586   3.249   3.898 -0.1073  0.2628  0.0254
  252MOL0     C34647   1.459   3.251   3.968 -0.3782 -0.6084  0.6765
  252MOL0     C34648   1.473   3.320   4.104 -0.4642 -0.1784 -0.5485
  252MOL0     C34649   1.342   3.374   4.143 -0.3243  0.1607  0.5488
  252MOL0     C34650   1.240   3.263   4.169  0.0364  0.7292 -0.2027
  252MOL0     C34651   1.134   3.290   4.272 -0.1466  0.3547 -0.1752
  252MOL0     C34652   1.036   3.173   4.294 -0.3419  0.4559 -0.8684
  252MOL0     C34653   0.983   3.167   4.434  0.5869  0.6227 -0.1286
  252MOL0     C34654   0.904   3.044   4.460  0.8741 -0.8980  0.0309
  252MOL0     N34655   0.808   3.009   4.356 -0.2633 -0.4840  0.6714
  252MOL0     C34656   0.818   2.899   4.268 -0.1162 -0.4043 -1.3185
  252MOL0     C34657   0.688   2.889   4.226  0.1869 -0.9334 -0.2828
  252MOL0     C34658   0.635   2.790   4.123 -0.2157  0.3750 -0.0868
  252MOL0     C34659   0.533   2.688   4.195 -0.1250  0.1465 -0.4229
  252MOL0     C34660   0.529   2.568   4.122  0.1087 -0.5700  0.8760
  252MOL0     C34661   0.419   2.490   4.177 -0.5754 -0.9837  0.0991
  252MOL0     O34662   0.464   2.428   4.300 -0.0412  0.5738 -0.5169
  252MOL0     C34663   0.376   2.344   4.366 -0.1364  0.1101  0.5305
  252MOL0     C34664   0.411   2.317   4.498  0.2365  0.6013 -0.3492
  252MOL0     C34665   0.339   2.229   4.579  0.0582  0.6123  0.2876
  252MOL0     C34666   0.417   2.175   4.703 -0.0412 -0.2029  0.2428
  252MOL0     C34667   0.218   2.180   4.523  0.1834 -0.6132 -0.5043
  252MOL0     C34668   0.136   2.089   4.601 -1.0639 -0.2057  0.9714
  252MOL0     O34669   0.037   2.032   4.529  0.3185 -0.7346 -0.5188
  252MOL0     C34670  -0.071   1.973   4.594  0.0597 -1.1845  0.8400
  252MOL0     C34671  -0.124   1.868   4.521 -0.6194  0.2862  0.3767
  252MOL0     C34672  -0.231   1.786   4.571 -0.2219 -0.1564  0.6512
  252MOL0     C34673  -0.289   1.820   4.701  0.2415  0.1795  0.8254
  252MOL0     O34674  -0.392   1.740   4.750 -0.6297  0.1685 -0.4912
  252MOL0     C34675  -0.430   1.619   4.681  0.9032  0.1330  1.3366
  252MOL0     C34676  -0.517   1.540   4.788  0.4652  0.1816  0.1187
  252MOL0     C34677  -0.565   1.407   4.735 -0.3561  0.7635 -0.5311
  252MOL0     C34678  -0.663   1.341   4.837 -0.1552 -0.3840 -0.1738
  252MOL0     C34679  -0.674   1.186   4.831  0.0971 -0.2965  0.6847
  252MOL0     C34680  -0.782   1.129   4.926  0.0963 -0.2940  0.3406
  252MOL0     C34681  -0.757   0.985   4.945 -0.1236  0.8952  0.1975
  252MOL0     C34682  -0.894   0.904   4.982  0.7944 -0.4001  0.3589
  252MOL0    Cl34683  -0.874   0.750   5.063 -0.1406  0.0294 -0.2885
  252MOL0     C34684  -0.236   1.927   4.770 -0.0216  0.4703 -0.1307
  252MOL0     C34685  -0.129   2.000   4.723  0.5722  0.3584 -0.1714
  252MOL0     O34686   0.156   2.077   4.718 -0.3589  0.5871 -0.4862
  252MOL0     C34687   0.180   2.220   4.391  0.1600  0.3396  0.1166
  252MOL0     C34688   0.263   2.293   4.308 -0.0647 -0.4294  0.3809
  252MOL0     N34689   0.607   2.999   4.276 -0.3157  0.3610  0.1142
  252MOL0     N34690   0.691   3.071   4.343 -0.1684 -0.0541 -0.0738
  252MOL0     C34691   1.486   3.124   3.712 -0.5908  0.4785 -0.4443
  252MOL0     C34692   1.504   3.053   3.594 -0.7483 -0.0059 -0.1476
  252MOL0     C34693   1.831   2.802   3.314  0.8001 -0.3609  0.6504
  252MOL0     C34694   1.893   2.681   3.312 -1.1172  0.1258  0.6384
  252MOL0     C34695   1.972   2.634   3.199 -0.1555  0.0508 -0.7442
  252MOL0     C34696   1.970   2.710   3.081 -0.3976  0.2311 -0.1605
  252MOL0     O34697   2.047   2.672   2.975  0.5956  0.9898 -0.3962
  252MOL0     C34698   2.023   2.722   2.836  1.0338 -0.5342 -0.0787
  252MOL0     C34699   2.153   2.693   2.758  0.5210  0.8152  0.1427
  252MOL0     C34700   2.259   2.783   2.799 -0.2947  0.0168 -0.1740
  252MOL0     C34701   2.381   2.796   2.705 -0.3972 -0.2166 -0.6839
  252MOL0     C34702   2.353   2.829   2.567 -0.3449  0.2103  0.4043
  252MOL0     C34703   2.336   2.833   2.449 -0.4249 -0.3314 -0.4296
  252MOL0     C34704   1.884   2.824   3.076  0.4291 -0.1863 -0.7478
  252MOL0     C34705   1.828   2.879   3.191 -0.0588 -0.1311 -0.4454
  252MOL0     C34706   1.768   3.020   3.185 -0.2241  0.3529 -0.5236
  252MOL0     H34707   1.844   3.060   3.569 -0.1929 -0.5534  0.1161
  252MOL0     H34708   1.816   3.186   3.778  0.1115  1.3879 -0.4023
  252MOL0     H34709   1.440   3.144   3.983 -1.2098 -0.4669  0.6728
  252MOL0     H34710   1.380   3.287   3.903  0.2644 -1.3170 -0.5278
  252MOL0     H34711   1.506   3.248   4.179 -0.9114  0.1805 -0.0013
  252MOL0     H34712   1.545   3.402   4.094 -0.7658  0.0047 -1.3866
  252MOL0     H34713   1.348   3.450   4.221  1.0025  1.6620 -0.9219
  252MOL0     H34714   1.311   3.443   4.064 -1.0433 -0.9142 -0.1361
  252MOL0     H34715   1.193   3.236   4.074  0.5319  0.3436 -0.3414
  252MOL0     H34716   1.293   3.172   4.197  0.3524  0.9396 -0.1106
  252MOL0     H34717   1.080   3.381   4.244  0.1400  0.7889  0.6569
  252MOL0     H34718   1.185   3.310   4.366  2.7460  0.1134 -1.5967
  252MOL0     H34719   0.962   3.175   4.214 -0.7216  3.5146 -0.5476
  252MOL0     H34720   1.101   3.085   4.291 -0.5001  0.2698  0.4622
  252MOL0     H34721   0.925   3.258   4.453 -1.1486 -0.5486  0.4061
  252MOL0     H34722   1.067   3.161   4.504 -0.0832 -0.5480  0.6112
  252MOL0     H34723   0.978   2.963   4.461  2.5014  0.5418  0.5348
  252MOL0     H34724   0.852   3.053   4.556  1.7907 -0.5091  0.5037
  252MOL0     H34725   0.906   2.840   4.245  0.0188 -0.6585 -0.2068
  252MOL0     H34726   0.723   2.739   4.083  0.0505 -0.1181  1.0735
  252MOL0     H34727   0.595   2.846   4.038 -2.1244 -1.8736 -0.7780
  252MOL0     H34728   0.572   2.665   4.294 -0.2071 -4.3899 -1.2590
  252MOL0     H34729   0.442   2.749   4.206 -0.2903  0.0404 -1.1694
  252MOL0     H34730   0.526   2.592   4.015 -0.9322 -1.2097  0.7465
  252MOL0     H34731   0.620   2.508   4.137  3.7257  3.6242 -1.8583
  252MOL0     H34732   0.333   2.556   4.189 -0.6323 -1.0768  0.2109
  252MOL0     H34733   0.397   2.417   4.097 -1.8661 -1.9163  1.2612
  252MOL0     H34734   0.502   2.361   4.538 -0.5975 -0.0358  2.4596
  252MOL0     H34735   0.429   2.066   4.698  0.4197 -0.3144  2.5831
  252MOL0     H34736   0.357   2.191   4.793  0.2912 -0.9213  0.5960
  252MOL0     H34737   0.518   2.217   4.712 -0.4172  0.1991  4.4084
  252MOL0     H34738  -0.075   1.836   4.429 -1.1985 -0.4981  0.3293
  252MOL0     H34739  -0.262   1.708   4.503 -1.4087  1.0369 -0.2269
  252MOL0     H34740  -0.497   1.640   4.596  1.2452  2.5134  1.5894
  252MOL0     H34741  -0.344   1.562   4.647  1.3774  1.6054 -0.0522
  252MOL0     H34742  -0.456   1.516   4.876  2.1394 -1.4643 -1.3988
  252MOL0     H34743  -0.603   1.603   4.814 -0.8026 -0.2214 -2.7176
  252MOL0     H34744  -0.477   1.345   4.717  0.1164  1.5344 -0.9333
  252MOL0     H34745  -0.623   1.424   4.644 -1.2964  0.1058 -0.0645
  252MOL0     H34746  -0.763   1.380   4.815  0.4360  0.2216 -1.9711
  252MOL0     H34747  -0.636   1.371   4.939  0.9820 -0.8235 -0.3343
  252MOL0     H34748  -0.698   1.164   4.727  0.3254  3.0485 -0.2061
  252MOL0     H34749  -0.583   1.141   4.871 -0.3941 -1.7031  0.2398
  252MOL0     H34750  -0.877   1.139   4.871  0.1146 -0.6873  0.2368
  252MOL0     H34751  -0.777   1.177   5.024  2.8147  0.7655 -0.2242
  252MOL0     H34752  -0.692   0.972   5.032  0.6556  0.4566 -0.4359
  252MOL0     H34753  -0.714   0.928   4.863  0.4540 -1.6574  2.1269
  252MOL0     H34754  -0.956   0.897   4.892 -0.6256  2.1558  1.0064
  252MOL0     H34755  -0.947   0.960   5.060  2.5910 -1.2367  2.2817
  252MOL0     H34756  -0.271   1.955   4.869 -0.4883  3.2902 -1.0092
  252MOL0     H34757  -0.085   2.076   4.786  0.5110 -0.4555  0.8906
  252MOL0     H34758   0.092   2.184   4.338  0.9795 -1.1988 -0.2364
  252MOL0     H34759   0.231   2.314   4.206  3.6270  0.3595 -0.7847
  252MOL0     H34760   1.380   3.137   3.734 -0.6392 -1.1203  0.4673
  252MOL0     H34761   1.426   3.002   3.538  0.1104 -0.3551 -1.0367
  252MOL0     H34762   1.883   2.610   3.394  0.2931  0.3103  0.9991
  252MOL0     H34763   2.024   2.539   3.210 -1.3848 -0.3560  2.3970
  252MOL0     H34764   1.935   2.684   2.783  0.2033  3.7601 -2.2747
  252MOL0     H34765   2.010   2.831   2.826  4.1484 -0.1849 -1.5102
  252MOL0     H34766   2.140   2.706   2.651  4.0045  0.3298 -0.4514
  252MOL0     H34767   2.185   2.596   2.798 -2.1486  0.1105  0.8309
  252MOL0     H34768   2.218   2.882   2.822  1.7282  0.2177  3.1841
  252MOL0     H34769   2.298   2.747   2.895 -1.8569  0.0718  0.5227
  252MOL0     H34770   2.425   2.697   2.694 -0.2192  0.0463 -2.8688
  252MOL0     H34771   2.454   2.869   2.741 -0.4152  0.2177 -1.4974
  252MOL0     H34772   2.326   2.831   2.342 -2.2056 -0.7631 -0.2770
  252MOL0     H34773   1.871   2.871   2.980  0.5823 -1.8076 -1.5932
  252MOL0     H34774   1.658   3.024   3.191 -0.2524 -0.9354  0.0804
  252MOL0     H34775   1.806   3.073   3.273 -1.3641 -0.8351  0.7415
  252MOL0     H34776   1.798   3.073   3.094  3.4464 -0.2607  0.2039
  253MOL0     O34777   5.895   4.680   8.155  0.0118 -1.1005 -0.0633
  253MOL0     C34778   5.769   4.676   8.166 -0.6237 -0.6507 -0.4214
  253MOL0     O34779   5.710   4.658   8.286  0.5014 -0.3662 -0.7256
  253MOL0     C34780   5.780   4.682   8.412 -0.5810 -0.4283  0.5340
  253MOL0     C34781   5.863   4.582   8.464  0.2974  0.8857 -0.2731
  253MOL0     C34782   5.905   4.576   8.597  0.0749  0.5693 -0.1002
  253MOL0     C34783   5.874   4.684   8.682 -0.8682 -0.5936 -0.0535
  253MOL0     O34784   5.928   4.676   8.806 -0.4678 -0.1244 -0.1999
  253MOL0     C34785   5.872   4.757   8.911  0.7896  0.5535  0.0991
  253MOL0     C34786   5.902   4.685   9.049 -0.4199  0.1360 -0.5680
  253MOL0     C34787   6.045   4.648   9.072 -0.1666 -0.0801  0.7360
  253MOL0     C34788   6.073   4.497   9.092 -0.3751 -0.6393  0.6195
  253MOL0     C34789   6.075   4.419   8.962  0.2059 -0.5417 -0.3236
  253MOL0     C34790   6.097   4.259   8.992  0.7472 -0.6262  0.5913
  253MOL0     C34791   6.224   4.239   9.079  0.7193 -0.2689  0.9508
  253MOL0     C34792   6.306   4.123   9.027  0.1334  0.1738  1.1958
  253MOL0     N34793   6.410   4.090   9.130 -0.0027 -0.4042  0.4141
  253MOL0     C34794   6.394   4.017   9.249 -0.5577 -0.4331  1.4080
  253MOL0     C34795   6.518   4.001   9.301  0.3842  0.3752  0.1860
  253MOL0     C34796   6.563   3.911   9.414  0.4231  0.1334 -0.3718
  253MOL0     C34797   6.521   3.969   9.555 -0.0384 -0.2967  0.1127
  253MOL0     C34798   6.534   3.863   9.663 -0.1146 -0.5960 -0.5347
  253MOL0     C34799   6.460   3.899   9.791  0.5723  0.3961 -1.0099
  253MOL0     O34800   6.450   3.768   9.856 -0.2704 -0.4852  0.4574
  253MOL0     C34801   6.554   3.741   9.943 -0.2713  0.4158  0.4685
  253MOL0     C34802   6.680   3.793   9.955 -0.3052  0.4317 -0.0848
  253MOL0     C34803   6.772   3.758  10.059 -0.0246  0.1768 -0.5810
  253MOL0     C34804   6.911   3.811  10.063 -0.1741  0.1294 -0.3491
  253MOL0     C34805   6.737   3.662  10.153  0.4533  0.6201 -0.1088
  253MOL0     C34806   6.823   3.622  10.269 -0.0337 -1.2392  0.1163
  253MOL0     O34807   6.845   3.720  10.368  0.2174 -0.4795 -0.1436
  253MOL0     C34808   6.921   3.687  10.475 -0.2684 -0.2377 -0.7963
  253MOL0     C34809   7.043   3.738  10.499 -0.1028 -0.4810  1.1733
  253MOL0     C34810   7.121   3.714  10.608 -0.6272  0.4845 -0.3076
  253MOL0     C34811   7.067   3.622  10.704  0.0229 -0.7293  0.0287
  253MOL0     O34812   7.121   3.580  10.816 -0.4815  0.0792 -0.0603
  253MOL0     C34813   7.222   3.657  10.882  0.8710 -0.9323  0.4699
  253MOL0     C34814   7.265   3.584  11.011  0.3495 -0.5022 -0.1177
  253MOL0     C34815   7.367   3.662  11.100  0.6307  0.2638 -0.0718
  253MOL0     C34816   7.312   3.777  11.177 -0.1049 -1.3621  0.6695
  253MOL0     C34817   7.414   3.822  11.287  0.0334  0.5670 -0.1023
  253MOL0     C34818   7.547   3.883  11.236  0.7625  0.0493 -0.5815
  253MOL0     C34819   7.606   3.972  11.351 -0.5118  0.3892 -0.5720
  253MOL0     C34820   7.634   3.891  11.477  0.0990 -0.7766  0.0864
  253MOL0    Cl34821   7.788   3.793  11.451 -0.1994 -0.0750 -0.0198
  253MOL0     C34822   6.937   3.574  10.683 -0.4556 -0.6616  0.1980
  253MOL0     C34823   6.864   3.599  10.566 -0.1144  0.1721 -0.3152
  253MOL0     O34824   6.857   3.506  10.275 -0.0392 -0.1379 -0.1068
  253MOL0     C34825   6.613   3.594  10.137 -0.0223 -0.7634  0.2742
  253MOL0     C34826   6.523   3.644  10.038 -0.2258  0.6219  0.4982
  253MOL0     N34827   6.607   4.067   9.214  0.0445 -0.6244  1.0075
  253MOL0     N34828   6.536   4.113   9.113 -0.2291 -1.0653  0.4351
  253MOL0     C34829   5.799   4.786   8.631 -0.5174 -0.5787 -0.6097
  253MOL0     C34830   5.744   4.786   8.502  0.1278 -0.1957 -0.4859
  253MOL0     C34831   5.691   4.659   8.050 -0.1947 -1.6324  0.1360
  253MOL0     C34832   5.612   4.545   8.032 -0.7723  0.5459  0.0268
  253MOL0     C34833   5.539   4.526   7.916  0.0874  0.7577  0.9160
  253MOL0     C34834   5.531   4.630   7.819  0.3386  0.7065  0.6822
  253MOL0     O34835   5.438   4.627   7.713 -0.4061 -0.3645  0.0161
  253MOL0     C34836   5.328   4.707   7.741  0.3061 -0.6849 -0.1211
  253MOL0     C34837   5.317   4.825   7.648 -1.1257 -0.1813 -0.3107
  253MOL0     C34838   5.336   4.785   7.500  0.4562 -0.5817 -0.3184
  253MOL0     C34839   5.286   4.902   7.414  1.0803  0.3472 -0.2720
  253MOL0     C34840   5.278   4.863   7.268 -0.9969  0.8611  0.5940
  253MOL0     C34841   5.288   4.829   7.151 -0.5348  0.0052 -0.2964
  253MOL0     C34842   5.605   4.744   7.829  0.1425 -0.6818 -0.1171
  253MOL0     C34843   5.693   4.759   7.941  0.3984  1.0652  0.2486
  253MOL0     C34844   5.789   4.874   7.940  0.7411 -0.1686  0.1462
  253MOL0     H34845   5.887   4.499   8.398  2.7020 -0.0485  1.6514
  253MOL0     H34846   5.973   4.497   8.628 -0.2231  1.1271  2.1490
  253MOL0     H34847   5.763   4.760   8.898 -0.0335 -4.2687  3.1057
  253MOL0     H34848   5.933   4.847   8.915  2.7220 -0.7245  1.4206
  253MOL0     H34849   5.861   4.751   9.126 -3.7434 -2.0750 -0.2409
  253MOL0     H34850   5.843   4.594   9.062  2.6535 -1.5827  3.8909
  253MOL0     H34851   6.109   4.688   8.993  0.0392 -1.3093  0.2580
  253MOL0     H34852   6.076   4.703   9.161 -1.1642  2.3777 -0.3336
  253MOL0     H34853   6.171   4.497   9.141  0.0452  2.1686 -0.0504
  253MOL0     H34854   5.999   4.461   9.164  1.1668  0.6146  2.9827
  253MOL0     H34855   6.150   4.449   8.889  0.1122 -1.2865 -0.7368
  253MOL0     H34856   5.979   4.436   8.911 -0.4581  2.7890  1.7433
  253MOL0     H34857   6.005   4.227   9.043 -0.6622  0.0850 -1.3693
  253MOL0     H34858   6.106   4.215   8.892  0.5596 -0.3456  0.4455
  253MOL0     H34859   6.196   4.231   9.185  2.4662  0.8580  1.5439
  253MOL0     H34860   6.277   4.334   9.069  0.4037  0.1962  3.1391
  253MOL0     H34861   6.249   4.030   9.023  0.4173  0.0328  0.1455
  253MOL0     H34862   6.349   4.150   8.931 -2.6033  0.0169 -0.1607
  253MOL0     H34863   6.305   3.978   9.297 -1.6700  0.5817  0.2408
  253MOL0     H34864   6.672   3.898   9.411  0.3548 -0.4782 -0.3964
  253MOL0     H34865   6.524   3.811   9.395 -0.2215  0.3417 -0.1426
  253MOL0     H34866   6.573   4.056   9.595  1.0932 -1.6817  1.8194
  253MOL0     H34867   6.415   3.992   9.547 -0.8110 -1.3719  4.7157
  253MOL0     H34868   6.495   3.766   9.630 -1.4251  0.4240 -2.1080
  253MOL0     H34869   6.639   3.839   9.681  0.3814  1.9081  0.2792
  253MOL0     H34870   6.492   3.975   9.862 -3.4890 -0.6935  2.4203
  253MOL0     H34871   6.357   3.928   9.770  0.4218  1.2688  0.7271
  253MOL0     H34872   6.726   3.862   9.885  1.0715  1.0949  1.4106
  253MOL0     H34873   6.941   3.869   9.975  4.0204 -2.8353 -1.1725
  253MOL0     H34874   6.983   3.730  10.076 -1.1679 -0.6256  0.6549
  253MOL0     H34875   6.927   3.882  10.145  0.5483 -1.0889  0.5961
  253MOL0     H34876   7.088   3.797  10.420  0.5885  1.4493  2.9159
  253MOL0     H34877   7.216   3.766  10.616  0.5325 -1.4784 -0.7054
  253MOL0     H34878   7.306   3.654  10.813  0.3480 -4.3892 -0.2464
  253MOL0     H34879   7.175   3.755  10.894  0.2307 -1.0221 -1.0735
  253MOL0     H34880   7.179   3.550  11.070 -0.9295 -0.2561 -1.7589
  253MOL0     H34881   7.314   3.494  10.974  0.8163 -1.3045  2.2717
  253MOL0     H34882   7.459   3.689  11.047  1.1981  1.0613  1.2810
  253MOL0     H34883   7.402   3.590  11.174 -0.9966  2.2224  2.7961
  253MOL0     H34884   7.217   3.763  11.229  0.3974  1.0963  2.4223
  253MOL0     H34885   7.305   3.855  11.101 -2.1855 -0.0752  2.0967
  253MOL0     H34886   7.354   3.887  11.352 -1.5421 -0.7906 -0.1275
  253MOL0     H34887   7.452   3.734  11.339  1.5451 -0.1769 -2.3257
  253MOL0     H34888   7.539   3.937  11.142 -1.5248 -0.0828 -0.5246
  253MOL0     H34889   7.617   3.802  11.211  0.7825  0.3939 -1.6550
  253MOL0     H34890   7.528   4.044  11.380 -1.5753 -1.1559  0.6425
  253MOL0     H34891   7.701   4.013  11.318 -0.5180  1.1456  0.3117
  253MOL0     H34892   7.548   3.832  11.510 -0.7130  0.3526  0.0556
  253MOL0     H34893   7.649   3.970  11.551  0.0745  2.6956 -3.2701
  253MOL0     H34894   6.899   3.525  10.772  1.1207  0.1668  1.3851
  253MOL0     H34895   6.765   3.557  10.549  0.4526 -2.3764  1.8490
  253MOL0     H34896   6.584   3.521  10.212 -0.5368 -0.8212  0.0195
  253MOL0     H34897   6.424   3.599  10.033 -0.7409  1.8060 -0.6223
  253MOL0     H34898   5.780   4.871   8.697  2.5268  0.0703 -0.4457
  253MOL0     H34899   5.685   4.871   8.471 -0.1227 -0.0475  0.3783
  253MOL0     H34900   5.629   4.460   8.098  1.6772  1.2778  0.4600
  253MOL0     H34901   5.495   4.432   7.885 -0.0213  0.9596  0.4616
  253MOL0     H34902   5.236   4.649   7.733 -0.6020  0.6717  0.2381
  253MOL0     H34903   5.329   4.750   7.842 -3.2329 -1.5495  0.4055
  253MOL0     H34904   5.395   4.897   7.675 -2.9007  1.6234  0.2373
  253MOL0     H34905   5.218   4.867   7.668 -2.2907 -3.6192  1.9520
  253MOL0     H34906   5.438   4.761   7.470  0.3717  0.8993 -1.9504
  253MOL0     H34907   5.281   4.692   7.484  1.6857 -1.8029  2.0785
  253MOL0     H34908   5.350   4.989   7.425 -0.8132  2.0928 -2.1533
  253MOL0     H34909   5.186   4.944   7.429  0.9395  1.0959 -2.8474
  253MOL0     H34910   5.292   4.790   7.051  0.9378  0.9977 -0.6427
  253MOL0     H34911   5.603   4.817   7.749 -2.6564 -0.8204 -0.3005
  253MOL0     H34912   5.751   4.957   7.880 -1.2666 -1.1690 -0.0432
  253MOL0     H34913   5.799   4.910   8.042  1.6796 -0.0152  0.0067
  253MOL0     H34914   5.884   4.841   7.897  0.8447  1.9347 -1.3841
  254MOL0     O34915  11.115   6.352  10.714 -0.7153  0.5481 -0.2740
  254MOL0     C34916  11.172   6.262  10.778  0.1341  0.2352 -0.9382
  254MOL0     O34917  11.163   6.254  10.915 -0.3635 -0.1876  0.3713
  254MOL0     C34918  11.213   6.365  10.979  0.2180 -0.4995  0.4543
  254MOL0     C34919  11.311   6.443  10.914 -0.9978  1.4560 -0.8137
  254MOL0     C34920  11.387   6.527  10.994 -0.0053 -0.2145 -0.3063
  254MOL0     C34921  11.343   6.557  11.121  0.8744 -1.1245  0.0545
  254MOL0     O34922  11.410   6.663  11.177  0.4634 -0.8112 -0.0676
  254MOL0     C34923  11.456   6.642  11.306 -0.1210 -0.0859 -0.4411
  254MOL0     C34924  11.538   6.767  11.347  0.1348  0.0577 -0.9936
  254MOL0     C34925  11.481   6.905  11.295 -0.8105  0.5307 -0.4565
  254MOL0     C34926  11.358   6.923  11.386 -0.1068 -0.6297 -0.2252
  254MOL0     C34927  11.303   7.066  11.384 -0.6672 -0.3612  0.0347
  254MOL0     C34928  11.393   7.175  11.439 -0.2237  0.3615  0.4596
  254MOL0     C34929  11.421   7.178  11.593 -0.3302  0.1188 -0.3465
  254MOL0     C34930  11.516   7.294  11.619 -0.2519  0.4976 -0.0383
  254MOL0     N34931  11.531   7.324  11.757  0.8352 -0.3871  0.4439
  254MOL0     C34932  11.506   7.239  11.855 -0.4265  0.1475 -0.2888
  254MOL0     C34933  11.528   7.307  11.974 -0.4612  0.9083  0.0023
  254MOL0     C34934  11.520   7.245  12.111  0.5705  0.0104  0.9509
  254MOL0     C34935  11.398   7.287  12.179  0.5193 -0.6182 -0.3624
  254MOL0     C34936  11.259   7.240  12.122  0.3691  0.6335 -0.6703
  254MOL0     C34937  11.224   7.089  12.140 -0.0952 -0.2044 -0.4010
  254MOL0     O34938  11.151   7.061  12.263  0.5462 -0.3911  0.5155
  254MOL0     C34939  11.073   6.949  12.273 -0.1963  0.2175  0.4763
  254MOL0     C34940  11.075   6.837  12.182 -1.1200 -0.8335  0.0572
  254MOL0     C34941  10.980   6.739  12.180 -0.0442 -0.5663 -0.2336
  254MOL0     C34942  11.004   6.629  12.078  0.6089  0.8913 -0.0920
  254MOL0     C34943  10.879   6.742  12.277 -0.5883 -0.4349 -0.5055
  254MOL0     C34944  10.771   6.647  12.303 -0.5185  0.0215  0.3110
  254MOL0     O34945  10.695   6.658  12.418  0.9237 -0.6718 -0.2753
  254MOL0     C34946  10.612   6.557  12.465 -0.2437  0.7726  0.1787
  254MOL0     C34947  10.476   6.555  12.440  1.1518 -0.4478 -0.0880
  254MOL0     C34948  10.393   6.451  12.479 -1.0258 -0.3118 -0.0721
  254MOL0     C34949  10.443   6.339  12.552  0.7032 -0.6091  0.9733
  254MOL0     O34950  10.374   6.224  12.588 -0.3570  0.7366  0.0998
  254MOL0     C34951  10.241   6.215  12.532 -0.8816 -0.4787  0.6355
  254MOL0     C34952  10.165   6.105  12.595  0.3039 -0.1449 -0.8367
  254MOL0     C34953  10.223   5.967  12.560 -0.1030  0.3498  0.7956
  254MOL0     C34954  10.121   5.852  12.561  0.2204 -0.7633  1.4605
  254MOL0     C34955  10.187   5.713  12.527  0.5386 -0.7576  0.2669
  254MOL0     C34956  10.100   5.608  12.457 -0.4755 -0.5800 -0.7337
  254MOL0     C34957   9.994   5.657  12.356 -0.1046 -0.2966 -0.6820
  254MOL0     C34958   9.907   5.541  12.320  0.3229  0.6001  0.2485
  254MOL0    Cl34959   9.816   5.458  12.464 -0.2093 -0.2971 -0.2488
  254MOL0     C34960  10.578   6.338  12.577  0.0413 -0.6466  0.7221
  254MOL0     C34961  10.657   6.448  12.544 -0.4340  0.0204 -0.2638
  254MOL0     O34962  10.756   6.568  12.212 -0.9341  0.1592  0.6107
  254MOL0     C34963  10.891   6.845  12.376 -0.3349 -0.6276 -0.4064
  254MOL0     C34964  10.982   6.950  12.372 -0.0515  0.1453 -0.1561
  254MOL0     N34965  11.571   7.431  11.938  0.4215 -0.0393  0.5494
  254MOL0     N34966  11.567   7.446  11.807 -0.0693  0.7111 -0.0281
  254MOL0     C34967  11.255   6.473  11.185 -0.2183  0.4655 -0.3089
  254MOL0     C34968  11.191   6.379  11.109  0.1764 -0.8963 -0.8397
  254MOL0     C34969  11.235   6.155  10.705  0.2814  0.2696 -0.6971
  254MOL0     C34970  11.216   6.025  10.767 -0.2179 -0.0662 -0.1243
  254MOL0     C34971  11.279   5.908  10.717 -0.3912  0.2848  0.9919
  254MOL0     C34972  11.346   5.918  10.595  0.3788  0.2565 -0.3232
  254MOL0     O34973  11.390   5.793  10.545  0.8336 -0.3143  0.7693
  254MOL0     C34974  11.443   5.799  10.419 -0.2814 -0.8271 -0.7887
  254MOL0     C34975  11.487   5.673  10.347 -0.8590 -0.1124  0.3402
  254MOL0     C34976  11.573   5.569  10.424 -0.4111 -0.6388  0.1535
  254MOL0     C34977  11.603   5.445  10.337  0.7249  0.1112  0.3087
  254MOL0     C34978  11.480   5.371  10.312  0.2725  0.1537  0.0785
  254MOL0     C34979  11.386   5.306  10.265 -1.1239  0.2762 -0.8554
  254MOL0     C34980  11.362   6.042  10.530  0.6721  0.0160  0.4161
  254MOL0     C34981  11.313   6.163  10.584 -0.2678  1.2194 -0.6362
  254MOL0     C34982  11.346   6.298  10.519 -0.8229 -0.0090 -0.5119
  254MOL0     H34983  11.337   6.434  10.809 -1.7374 -0.4702 -0.8645
  254MOL0     H34984  11.474   6.580  10.956 -1.2055  0.6796 -1.9433
  254MOL0     H34985  11.510   6.547  11.305 -2.3330 -1.4445  0.6810
  254MOL0     H34986  11.377   6.632  11.382  0.0314 -0.2030 -0.2962
  254MOL0     H34987  11.546   6.771  11.456  0.6792 -0.6879 -1.0017
  254MOL0     H34988  11.640   6.762  11.308  1.0439 -2.7235  1.4312
  254MOL0     H34989  11.558   6.982  11.305 -0.3518  0.3913 -2.4518
  254MOL0     H34990  11.469   6.902  11.186  2.7924 -2.0903 -0.9881
  254MOL0     H34991  11.272   6.860  11.365 -1.3270  0.1837  2.0232
  254MOL0     H34992  11.384   6.904  11.491 -1.7753 -2.5993 -0.1194
  254MOL0     H34993  11.216   7.047  11.448  0.7909 -4.6921  1.0137
  254MOL0     H34994  11.278   7.084  11.279  4.3057 -0.0419 -1.3273
  254MOL0     H34995  11.485   7.170  11.381 -0.5357 -1.7947  0.0678
  254MOL0     H34996  11.337   7.266  11.416 -1.5532 -0.9069 -1.7049
  254MOL0     H34997  11.467   7.079  11.605  0.2575  0.6886  2.9729
  254MOL0     H34998  11.330   7.184  11.654  0.5662 -1.7806  1.2855
  254MOL0     H34999  11.612   7.253  11.589  0.0648 -0.8928  2.5686
  254MOL0     H35000  11.495   7.381  11.556 -0.7415  0.2024 -0.2894
  254MOL0     H35001  11.480   7.134  11.844  2.7437 -0.6070 -2.0388
  254MOL0     H35002  11.610   7.273  12.166  2.1883  1.1294 -2.0005
  254MOL0     H35003  11.518   7.138  12.088 -1.5576  0.3422 -0.7658
  254MOL0     H35004  11.405   7.259  12.285  0.9881  0.4426 -0.0967
  254MOL0     H35005  11.399   7.397  12.177 -2.6684 -0.4679 -0.1691
  254MOL0     H35006  11.193   7.303  12.181  0.5673  1.5862 -1.4401
  254MOL0     H35007  11.251   7.278  12.020  2.8733 -1.0583 -1.6293
  254MOL0     H35008  11.160   7.063  12.055 -1.0301  0.5285  0.0594
  254MOL0     H35009  11.318   7.032  12.134 -0.9687 -1.5344 -2.4323
  254MOL0     H35010  11.153   6.836  12.106 -1.8997 -0.9488 -0.7599
  254MOL0     H35011  10.991   6.525  12.109  2.4173  0.5416 -0.3626
  254MOL0     H35012  11.100   6.629  12.024 -1.1230 -0.6502 -3.5063
  254MOL0     H35013  10.930   6.634  11.998  0.0630  0.3839  0.3783
  254MOL0     H35014  10.445   6.639  12.379  2.5728 -0.6029 -1.0986
  254MOL0     H35015  10.288   6.460  12.454 -1.5787 -3.7983  0.5683
  254MOL0     H35016  10.187   6.305  12.562  1.4860  1.5521 -0.8032
  254MOL0     H35017  10.234   6.215  12.423  0.7896 -1.1940  0.5044
  254MOL0     H35018  10.169   6.110  12.704 -1.6229 -1.8521 -0.6148
  254MOL0     H35019  10.060   6.116  12.567  0.1872  0.3676 -0.2101
  254MOL0     H35020  10.311   5.948  12.621 -1.0173 -0.6144  1.8652
  254MOL0     H35021  10.253   5.976  12.455  1.0918 -3.8123  0.5704
  254MOL0     H35022  10.048   5.881  12.485  1.8527 -2.3372 -0.8642
  254MOL0     H35023  10.059   5.848  12.651 -1.0026  1.5829  0.7957
  254MOL0     H35024  10.262   5.739  12.451 -0.5197  0.8400 -0.2994
  254MOL0     H35025  10.229   5.668  12.617  0.4794 -2.8021 -0.6740
  254MOL0     H35026  10.046   5.555  12.537  3.2101 -0.0149  2.4546
  254MOL0     H35027  10.159   5.531  12.406  1.4903  0.1878  0.2823
  254MOL0     H35028  10.047   5.689  12.266 -2.3476 -0.1768 -2.0502
  254MOL0     H35029   9.939   5.743  12.394  1.0252 -0.7976  2.4049
  254MOL0     H35030   9.952   5.469  12.251  0.0401  1.6933 -1.1166
  254MOL0     H35031   9.824   5.576  12.258  2.0488  1.7805 -1.5229
  254MOL0     H35032  10.616   6.255  12.636  0.5874  0.2970  1.7191
  254MOL0     H35033  10.761   6.429  12.570 -0.3988 -3.6409 -2.4107
  254MOL0     H35034  10.821   6.854  12.458  1.1025  4.4177  0.6259
  254MOL0     H35035  10.989   7.032  12.444  4.1015 -0.4439  0.4051
  254MOL0     H35036  11.218   6.474  11.287 -1.8389 -2.0014 -0.7810
  254MOL0     H35037  11.129   6.303  11.156  0.2070  0.6135  1.8826
  254MOL0     H35038  11.158   6.014  10.859 -0.1952  3.2773  0.4202
  254MOL0     H35039  11.264   5.818  10.777 -1.3896 -1.7221 -2.0689
  254MOL0     H35040  11.373   5.849  10.351 -1.7009 -1.7502 -0.0648
  254MOL0     H35041  11.527   5.869  10.417 -0.8804  0.1704  2.7863
  254MOL0     H35042  11.528   5.697  10.248 -0.8986 -1.3041  0.0188
  254MOL0     H35043  11.394   5.619  10.332  0.2462 -1.6160 -1.5212
  254MOL0     H35044  11.667   5.611  10.459 -0.6966 -0.5424  0.8184
  254MOL0     H35045  11.524   5.539  10.517  0.3574  0.6229  0.9885
  254MOL0     H35046  11.673   5.385  10.395  0.8706  0.5640  0.6112
  254MOL0     H35047  11.640   5.483  10.241  0.8454 -4.0792 -1.4966
  254MOL0     H35048  11.300   5.259  10.223 -1.6167 -2.2455  2.5375
  254MOL0     H35049  11.410   6.052  10.433  1.0975  0.5744  0.6779
  254MOL0     H35050  11.348   6.287  10.410 -0.4407 -0.2746 -0.4817
  254MOL0     H35051  11.271   6.376  10.533 -0.8903 -0.2832  0.7786
  254MOL0     H35052  11.442   6.334  10.557 -0.5276 -3.0463  2.0507
  255MOL0     O35053   4.029   2.487   8.331  0.4929  0.9302 -0.0947
  255MOL0     C35054   3.979   2.603   8.318 -0.5610  0.4119 -0.1184
  255MOL0     O35055   3.879   2.637   8.223 -0.2699 -0.0655 -0.1378
  255MOL0     C35056   3.846   2.566   8.110  0.1882  0.0819  0.5084
  255MOL0     C35057   3.917   2.464   8.046 -0.8575  0.8402 -0.3311
  255MOL0     C35058   3.870   2.426   7.919 -0.4770  0.1001  0.3442
  255MOL0     C35059   3.757   2.490   7.853  0.3729  0.1232  0.3265
  255MOL0     O35060   3.721   2.428   7.737  0.2971  0.0805 -0.5910
  255MOL0     C35061   3.662   2.515   7.644 -0.0295 -0.2122  0.5805
  255MOL0     C35062   3.632   2.436   7.509  0.5529 -0.8539  0.3541
  255MOL0     C35063   3.618   2.534   7.397  0.3924 -0.6291  0.7110
  255MOL0     C35064   3.534   2.484   7.280 -0.3648 -0.5436 -0.3916
  255MOL0     C35065   3.610   2.515   7.148  0.0843  0.9428  0.2908
  255MOL0     C35066   3.510   2.523   7.032  0.1349 -0.5316  0.8349
  255MOL0     C35067   3.568   2.567   6.902  1.0203  0.3741  0.1744
  255MOL0     C35068   3.623   2.710   6.911  0.0982  0.0862 -0.9573
  255MOL0     N35069   3.630   2.753   6.777 -0.3336  0.0219 -0.2654
  255MOL0     C35070   3.584   2.870   6.722 -0.2707 -0.5061 -0.1135
  255MOL0     C35071   3.638   2.877   6.593  0.3769 -0.0445 -0.6329
  255MOL0     C35072   3.641   2.990   6.491 -0.0798 -0.5774  0.4127
  255MOL0     C35073   3.497   3.043   6.472 -0.6874  0.1583 -0.0384
  255MOL0     C35074   3.497   3.177   6.398  0.2024 -0.9384  0.0430
  255MOL0     C35075   3.550   3.177   6.250  0.1229  0.1258  0.0199
  255MOL0     O35076   3.589   3.313   6.194 -0.0597 -0.2420  0.6803
  255MOL0     C35077   3.686   3.321   6.104  0.5187 -0.7489  0.7963
  255MOL0     C35078   3.719   3.227   6.007  0.0120 -0.5145 -0.7970
  255MOL0     C35079   3.809   3.253   5.905  1.1118 -0.9110 -0.0765
  255MOL0     C35080   3.828   3.154   5.793 -0.0406 -0.2256 -0.0301
  255MOL0     C35081   3.864   3.390   5.890  0.5862  1.1284 -0.5495
  255MOL0     C35082   3.957   3.435   5.787 -0.1116  0.2114 -0.3234
  255MOL0     O35083   4.025   3.554   5.804 -0.5483 -0.0536  0.3001
  255MOL0     C35084   4.101   3.606   5.706 -0.0157  0.6590  0.9345
  255MOL0     C35085   4.063   3.620   5.569  0.2320  0.8622 -0.1312
  255MOL0     C35086   4.155   3.665   5.472 -0.7605  0.5114  0.5240
  255MOL0     C35087   4.288   3.688   5.503 -1.4681  0.0048 -1.0968
  255MOL0     O35088   4.380   3.716   5.404 -0.1754 -0.1703 -0.2467
  255MOL0     C35089   4.512   3.663   5.415 -0.0313 -0.4918  1.0959
  255MOL0     C35090   4.551   3.620   5.266 -0.3172  0.2578 -0.1790
  255MOL0     C35091   4.535   3.724   5.163 -0.2310  0.3291  0.0147
  255MOL0     C35092   4.607   3.680   5.033  0.0924 -0.7398  0.4054
  255MOL0     C35093   4.533   3.562   4.968  0.3154  0.6145 -0.1545
  255MOL0     C35094   4.620   3.489   4.863 -1.0741 -0.3564 -0.4900
  255MOL0     C35095   4.563   3.355   4.831  0.1935  0.3398  0.5228
  255MOL0     C35096   4.668   3.265   4.747 -0.5630 -0.1122  0.9131
  255MOL0    Cl35097   4.692   3.343   4.579  0.0297 -0.5547  0.4541
  255MOL0     C35098   4.329   3.686   5.640  0.3199 -1.1940  0.5678
  255MOL0     C35099   4.238   3.654   5.740 -0.5510  0.2622 -0.4236
  255MOL0     O35100   3.976   3.359   5.693  0.8760 -0.0730  0.2304
  255MOL0     C35101   3.835   3.479   5.988 -0.9033 -0.7254 -0.4392
  255MOL0     C35102   3.751   3.447   6.094  1.2270  0.1365  0.5409
  255MOL0     N35103   3.711   2.764   6.576 -0.2678  0.7522  0.2284
  255MOL0     N35104   3.713   2.697   6.686  0.1455  0.1563  0.0921
  255MOL0     C35105   3.676   2.581   7.918 -1.1723  0.2713 -0.4761
  255MOL0     C35106   3.729   2.618   8.046 -0.1649 -0.1520  1.1232
  255MOL0     C35107   4.004   2.712   8.420  0.5171 -0.2767  0.1860
  255MOL0     C35108   3.997   2.850   8.378 -0.8158 -0.2141 -0.6780
  255MOL0     C35109   4.041   2.952   8.459 -0.2382  0.5137 -0.5118
  255MOL0     C35110   4.099   2.917   8.581 -0.2531 -0.0084 -0.1742
  255MOL0     O35111   4.158   3.025   8.648 -0.1526  0.6739 -0.6788
  255MOL0     C35112   4.214   3.010   8.780  0.5455  0.3642  0.9046
  255MOL0     C35113   4.228   3.151   8.846 -0.1177  0.9764 -0.0052
  255MOL0     C35114   4.086   3.206   8.866  0.3894  0.2534 -0.4218
  255MOL0     C35115   4.081   3.318   8.976  0.3123  0.8481  0.3396
  255MOL0     C35116   4.109   3.448   8.926  0.3871 -0.2646  0.1820
  255MOL0     C35117   4.135   3.562   8.884 -0.0683  0.0106  0.9668
  255MOL0     C35118   4.115   2.788   8.614 -0.4053 -0.8890 -0.7505
  255MOL0     C35119   4.062   2.683   8.546  0.2139 -0.5187 -0.4609
  255MOL0     C35120   4.082   2.552   8.594 -0.2392 -0.2714  0.6363
  255MOL0     H35121   4.007   2.417   8.087 -1.4522 -2.0182 -2.0344
  255MOL0     H35122   3.913   2.347   7.859  0.4048  1.5136 -0.9650
  255MOL0     H35123   3.733   2.594   7.621 -1.2432  1.0345  0.9614
  255MOL0     H35124   3.567   2.557   7.680 -1.5628 -2.6758 -0.3031
  255MOL0     H35125   3.714   2.365   7.492 -0.6954 -2.0085 -1.1950
  255MOL0     H35126   3.538   2.381   7.523  0.3026 -0.4582  0.2353
  255MOL0     H35127   3.575   2.631   7.425  1.1346 -0.8114  2.6409
  255MOL0     H35128   3.720   2.547   7.361 -0.7522  1.9215 -2.0340
  255MOL0     H35129   3.529   2.376   7.297  3.8613 -0.6252  1.5489
  255MOL0     H35130   3.435   2.531   7.273 -1.3911 -2.5520 -0.2681
  255MOL0     H35131   3.677   2.431   7.128 -3.8287 -2.0592 -1.6618
  255MOL0     H35132   3.655   2.615   7.153 -0.3257  1.1522 -0.1276
  255MOL0     H35133   3.484   2.417   7.016  0.7354 -0.9329  2.3235
  255MOL0     H35134   3.421   2.580   7.059  0.2111  0.2864 -0.5375
  255MOL0     H35135   3.487   2.559   6.830  2.6241 -0.3412 -1.6283
  255MOL0     H35136   3.640   2.492   6.868  0.9660 -0.0186  0.9014
  255MOL0     H35137   3.571   2.774   6.983  2.0040 -0.5860  1.1516
  255MOL0     H35138   3.726   2.699   6.946 -0.3847 -3.1846 -0.2120
  255MOL0     H35139   3.523   2.945   6.771 -0.1819 -1.7385  1.9775
  255MOL0     H35140   3.696   2.952   6.405  1.3419  1.8083  0.1485
  255MOL0     H35141   3.705   3.076   6.515  0.0432 -0.2063 -1.1714
  255MOL0     H35142   3.444   2.975   6.404  0.4086  0.6331 -1.3853
  255MOL0     H35143   3.455   3.065   6.571  2.3826 -0.6001  1.5460
  255MOL0     H35144   3.395   3.215   6.404  0.4042 -0.1244 -1.2987
  255MOL0     H35145   3.550   3.249   6.461  0.2412 -1.2148  0.3331
  255MOL0     H35146   3.640   3.116   6.236  2.5471  2.3241  4.1915
  255MOL0     H35147   3.468   3.134   6.191 -0.0899 -0.6957  0.8801
  255MOL0     H35148   3.679   3.126   6.018  0.8757 -0.8164 -0.2829
  255MOL0     H35149   3.802   3.201   5.698  0.2088  0.2632  0.1365
  255MOL0     H35150   3.749   3.081   5.810 -1.1738  0.8424 -0.6116
  255MOL0     H35151   3.932   3.118   5.792  0.8884  1.7280  4.2093
  255MOL0     H35152   3.959   3.606   5.541 -0.0097 -1.6491  1.7310
  255MOL0     H35153   4.137   3.681   5.367 -1.9027 -0.6455  0.5191
  255MOL0     H35154   4.582   3.736   5.456  0.2618 -0.8954  1.3128
  255MOL0     H35155   4.516   3.572   5.475  0.3900 -2.4300 -1.6724
  255MOL0     H35156   4.657   3.591   5.261 -0.1355  0.8280  0.2362
  255MOL0     H35157   4.488   3.533   5.246 -1.1313  0.2295  2.2253
  255MOL0     H35158   4.586   3.814   5.199 -0.1278  0.3202 -0.1089
  255MOL0     H35159   4.429   3.743   5.141 -0.2767 -1.0579 -1.0705
  255MOL0     H35160   4.709   3.655   5.063  1.0358 -0.9002 -2.5627
  255MOL0     H35161   4.615   3.757   4.956 -1.7256 -0.9487 -0.0434
  255MOL0     H35162   4.488   3.490   5.037 -1.5915  1.1530 -0.7810
  255MOL0     H35163   4.445   3.603   4.917 -1.9524 -2.2887  1.1424
  255MOL0     H35164   4.721   3.474   4.902 -0.0256  1.8947 -2.1243
  255MOL0     H35165   4.627   3.544   4.769 -1.3439  1.4601  0.5182
  255MOL0     H35166   4.479   3.383   4.768  0.6628  0.4259 -0.0682
  255MOL0     H35167   4.513   3.318   4.921  0.6488 -0.6236  0.3979
  255MOL0     H35168   4.640   3.162   4.725  1.7013 -0.0926 -2.8580
  255MOL0     H35169   4.763   3.256   4.800  0.4259 -2.9543 -1.1297
  255MOL0     H35170   4.435   3.703   5.657  0.6630 -3.0871  0.4464
  255MOL0     H35171   4.260   3.662   5.846 -2.8824 -2.4737  0.4253
  255MOL0     H35172   3.881   3.577   5.991  0.4993 -1.3821  1.2367
  255MOL0     H35173   3.718   3.517   6.171  1.7941 -3.0952  4.0040
  255MOL0     H35174   3.591   2.641   7.888  0.9759  3.5584 -0.4052
  255MOL0     H35175   3.665   2.693   8.091 -2.8484  0.2288 -2.7363
  255MOL0     H35176   3.962   2.884   8.281  3.2124 -2.2678 -3.1079
  255MOL0     H35177   4.020   3.056   8.436  0.5492  1.0082  0.8755
  255MOL0     H35178   4.135   2.958   8.836 -1.1583  1.1216 -0.6914
  255MOL0     H35179   4.306   2.952   8.775 -0.6975 -1.5937 -2.3079
  255MOL0     H35180   4.285   3.207   8.771  1.0910 -0.7152 -0.4203
  255MOL0     H35181   4.289   3.145   8.937  1.4559 -2.6679 -1.0963
  255MOL0     H35182   4.049   3.239   8.769 -1.7739  0.8846  0.5587
  255MOL0     H35183   4.008   3.134   8.890  2.6694 -2.0440  0.6195
  255MOL0     H35184   4.162   3.298   9.047 -0.4086  0.5495  1.0962
  255MOL0     H35185   3.996   3.314   9.044  2.0340  3.0892  2.8544
  255MOL0     H35186   4.172   3.657   8.852 -1.8837  0.7674  0.9960
  255MOL0     H35187   4.164   2.761   8.707 -1.3092  0.4338  0.1551
  255MOL0     H35188   4.168   2.516   8.537  0.6716  1.7583  0.6600
  255MOL0     H35189   4.109   2.547   8.700  1.5364  0.2200  0.2402
  255MOL0     H35190   3.992   2.494   8.571 -0.4741  0.6294 -0.8553
  256MOL0     O35191   3.975   5.058   0.636  0.0634  0.5269  0.8028
  256MOL0     C35192   3.969   4.962   0.702  1.1709 -0.1254  0.4574
  256MOL0     O35193   4.058   4.935   0.798 -0.0778 -0.1063 -0.1896
  256MOL0     C35194   4.163   5.016   0.810  0.1785  0.1002 -0.4832
  256MOL0     C35195   4.262   5.029   0.713 -0.3398 -0.2116  0.1604
  256MOL0     C35196   4.381   5.097   0.747  0.4430  1.0605  0.0242
  256MOL0     C35197   4.390   5.176   0.859  0.2484 -0.4412 -0.4725
  256MOL0     O35198   4.497   5.261   0.886 -0.1251 -0.6443  0.3691
  256MOL0     C35199   4.629   5.210   0.865  0.4179  0.9382  0.3191
  256MOL0     C35200   4.741   5.287   0.939  0.5903  0.4160  0.2208
  256MOL0     C35201   4.714   5.438   0.925  0.0657 -0.4485 -1.0635
  256MOL0     C35202   4.828   5.513   0.987 -0.4347 -0.5567 -0.1055
  256MOL0     C35203   4.810   5.666   0.990 -0.0344 -0.3416 -1.2750
  256MOL0     C35204   4.941   5.730   1.044 -0.1173 -0.9003  0.7848
  256MOL0     C35205   4.927   5.892   1.058 -0.0674  0.3585 -0.0560
  256MOL0     C35206   5.017   5.964   1.170  1.2289  0.7635 -0.4426
  256MOL0     N35207   5.145   6.008   1.104  0.0076 -0.6894 -0.5150
  256MOL0     C35208   5.172   6.135   1.058  1.2842 -0.0277  0.1704
  256MOL0     C35209   5.293   6.118   1.010  0.0750 -0.7766  1.1322
  256MOL0     C35210   5.377   6.221   0.945 -0.4260 -1.3842 -0.4901
  256MOL0     C35211   5.443   6.316   1.041 -0.3782  0.3415  0.5253
  256MOL0     C35212   5.535   6.248   1.139  0.1618 -0.3868 -0.4266
  256MOL0     C35213   5.570   6.355   1.236 -0.0931 -0.3621  0.3619
  256MOL0     O35214   5.629   6.476   1.182  0.2331 -0.0576 -0.0835
  256MOL0     C35215   5.770   6.479   1.156 -0.4869  0.2281 -0.1435
  256MOL0     C35216   5.848   6.368   1.135  0.1278 -0.0336  0.2868
  256MOL0     C35217   5.979   6.378   1.077  0.8015  0.3071  1.1342
  256MOL0     C35218   6.047   6.246   1.048  0.1478 -0.0482  0.1019
  256MOL0     C35219   6.035   6.507   1.049  0.4740 -0.7190  0.4716
  256MOL0     C35220   6.171   6.531   0.999  0.4241 -0.9013  0.5835
  256MOL0     O35221   6.191   6.656   0.954  0.6934 -0.1052 -0.5256
  256MOL0     C35222   6.312   6.711   0.914 -0.4382  0.7470 -0.3844
  256MOL0     C35223   6.300   6.848   0.874  0.3699 -0.1381  0.0323
  256MOL0     C35224   6.408   6.922   0.824 -0.9110  0.1069 -0.7061
  256MOL0     C35225   6.526   6.862   0.808 -1.0717  0.6849 -0.3363
  256MOL0     O35226   6.633   6.922   0.750 -0.0069 -0.6034 -0.8947
  256MOL0     C35227   6.608   7.004   0.634  0.1278 -0.1789  0.5125
  256MOL0     C35228   6.595   6.912   0.521 -0.3075  0.2934  0.9793
  256MOL0     C35229   6.549   6.982   0.390 -0.0572 -0.0527 -0.0526
  256MOL0     C35230   6.655   7.067   0.319  1.3623  0.6193 -1.0638
  256MOL0     C35231   6.601   7.144   0.201  0.8120 -0.1607  0.2895
  256MOL0     C35232   6.511   7.255   0.237 -0.3473 -0.6507 -0.4985
  256MOL0     C35233   6.491   7.351   0.115 -0.1011  0.9892 -0.1738
  256MOL0     C35234   6.601   7.451   0.108 -0.2652  0.2140 -0.5813
  256MOL0    Cl35235   6.572   7.576  -0.026 -0.3735 -0.5019 -0.1187
  256MOL0     C35236   6.549   6.726   0.848  0.1952 -0.6076  0.4925
  256MOL0     C35237   6.441   6.662   0.909 -0.0374  0.9478  0.0516
  256MOL0     O35238   6.245   6.436   0.974  0.1479  0.0976  0.5107
  256MOL0     C35239   5.948   6.620   1.081 -0.2293  0.4260  0.0467
  256MOL0     C35240   5.824   6.602   1.133 -0.1662 -0.5674  0.1392
  256MOL0     N35241   5.343   5.991   1.035 -0.1509 -0.1036  0.1544
  256MOL0     N35242   5.254   5.924   1.100  0.2247 -0.0765  0.2515
  256MOL0     C35243   4.282   5.171   0.950  0.1742  0.3177 -0.8982
  256MOL0     C35244   4.175   5.083   0.931 -0.2791  0.6264 -0.4137
  256MOL0     C35245   3.844   4.872   0.696  1.2878 -0.4758  0.4291
  256MOL0     C35246   3.724   4.950   0.667  0.4240  0.4617  1.1161
  256MOL0     C35247   3.596   4.884   0.660 -0.9906 -0.6163  0.0021
  256MOL0     C35248   3.596   4.746   0.677  0.0569 -0.2756  0.4182
  256MOL0     O35249   3.482   4.669   0.710  0.1772 -0.2992 -0.1838
  256MOL0     C35250   3.353   4.732   0.724  0.0112 -0.4344  0.2508
  256MOL0     C35251   3.261   4.617   0.760 -0.0629  0.7149  0.3698
  256MOL0     C35252   3.109   4.651   0.773 -0.4594  0.0678  0.7158
  256MOL0     C35253   3.026   4.514   0.805 -0.7728 -0.2691 -0.8562
  256MOL0     C35254   2.899   4.488   0.730 -0.7434 -0.0040 -0.2898
  256MOL0     C35255   2.798   4.476   0.665  0.2901 -0.6432  0.1221
  256MOL0     C35256   3.712   4.677   0.705  0.6125 -0.7816  0.1846
  256MOL0     C35257   3.836   4.735   0.717  0.5570 -0.0027 -1.1765
  256MOL0     C35258   3.950   4.662   0.742 -0.3540 -0.5032  0.3807
  256MOL0     H35259   4.259   4.981   0.615  1.1499  0.7023 -0.3520
  256MOL0     H35260   4.458   5.097   0.671 -0.9893 -0.2709 -1.5067
  256MOL0     H35261   4.635   5.221   0.756  1.4746  0.8595  0.3577
  256MOL0     H35262   4.621   5.109   0.905 -2.6314  1.2694  0.8115
  256MOL0     H35263   4.735   5.258   1.045  0.8731 -1.9488 -0.3666
  256MOL0     H35264   4.843   5.265   0.907  0.7973  3.1510 -1.3100
  256MOL0     H35265   4.703   5.474   0.823  0.9325  2.7345 -0.1719
  256MOL0     H35266   4.627   5.475   0.980  1.6492  2.3261 -0.2189
  256MOL0     H35267   4.839   5.478   1.090  2.6418 -0.3072 -0.2544
  256MOL0     H35268   4.924   5.481   0.945 -0.0017  1.1429 -0.5089
  256MOL0     H35269   4.734   5.679   1.068  0.5254  0.2035 -0.8170
  256MOL0     H35270   4.783   5.714   0.895  2.2978 -0.1301 -1.8879
  256MOL0     H35271   4.972   5.691   1.141  1.0220  1.3152  1.3896
  256MOL0     H35272   5.030   5.715   0.983  0.3830  0.2106  1.2028
  256MOL0     H35273   4.827   5.922   1.089  0.4319  1.8564  0.1499
  256MOL0     H35274   4.937   5.935   0.958  0.8862 -1.0139 -0.5875
  256MOL0     H35275   4.954   6.039   1.220  1.3471  0.6290 -0.0919
  256MOL0     H35276   5.048   5.895   1.248  2.1816  1.3230 -0.3112
  256MOL0     H35277   5.119   6.230   1.065 -0.2495 -0.9302  1.4514
  256MOL0     H35278   5.330   6.284   0.868  0.3745 -1.8321 -1.3632
  256MOL0     H35279   5.452   6.172   0.883 -2.3849 -0.9758 -3.4427
  256MOL0     H35280   5.504   6.385   0.981 -1.5621  0.0020 -1.1560
  256MOL0     H35281   5.377   6.384   1.096  1.5566  1.1023  2.0342
  256MOL0     H35282   5.478   6.170   1.190  0.4323 -0.1153  0.3053
  256MOL0     H35283   5.623   6.211   1.085  0.2737 -0.0767 -0.4603
  256MOL0     H35284   5.478   6.388   1.285 -0.4815  2.2969 -1.9065
  256MOL0     H35285   5.633   6.324   1.320 -1.2046  1.0867  1.7706
  256MOL0     H35286   5.804   6.276   1.174  0.0422  1.5721  4.4518
  256MOL0     H35287   5.978   6.162   1.057  0.7625 -0.8422 -2.0367
  256MOL0     H35288   6.126   6.240   1.124 -1.1985  1.1692  1.6864
  256MOL0     H35289   6.079   6.254   0.944  0.8623  1.9028  0.4219
  256MOL0     H35290   6.203   6.896   0.878  1.5266  3.0066 -3.6276
  256MOL0     H35291   6.403   7.027   0.798  0.2000 -0.3747 -3.2317
  256MOL0     H35292   6.521   7.070   0.639  1.6863  2.1504 -0.6763
  256MOL0     H35293   6.697   7.067   0.624  0.2988 -0.7288 -2.3212
  256MOL0     H35294   6.688   6.858   0.501  0.0325  1.2256  0.0140
  256MOL0     H35295   6.519   6.835   0.536 -1.8993  1.3366 -1.2792
  256MOL0     H35296   6.480   7.060   0.424  0.9233  0.3213  1.1531
  256MOL0     H35297   6.491   6.912   0.330 -3.0196  2.2011 -0.0654
  256MOL0     H35298   6.731   6.995   0.287  1.1349  0.5620 -1.4756
  256MOL0     H35299   6.694   7.141   0.390  0.0805  2.3221 -2.0483
  256MOL0     H35300   6.688   7.181   0.146  0.6684 -1.8258 -1.1523
  256MOL0     H35301   6.557   7.070   0.134 -0.6203  0.9284 -0.0264
  256MOL0     H35302   6.538   7.306   0.330  0.9960 -2.1036 -0.0392
  256MOL0     H35303   6.413   7.222   0.271  0.5650  0.6165  3.9649
  256MOL0     H35304   6.398   7.404   0.137  1.1557  2.0678  3.1978
  256MOL0     H35305   6.489   7.297   0.020 -1.2795  0.4719  0.1319
  256MOL0     H35306   6.703   7.413   0.099  0.1313  1.3647 -1.0912
  256MOL0     H35307   6.584   7.503   0.203  1.9947 -0.6918  0.3962
  256MOL0     H35308   6.645   6.678   0.831  2.2235  3.4603 -0.8348
  256MOL0     H35309   6.458   6.558   0.936 -0.4734  1.0755  0.8745
  256MOL0     H35310   5.994   6.717   1.068 -0.9416  0.5882 -1.3722
  256MOL0     H35311   5.764   6.688   1.160  1.4094  0.8263 -0.6584
  256MOL0     H35312   4.291   5.238   1.035 -2.2312  2.2824 -2.0686
  256MOL0     H35313   4.105   5.098   1.013  1.2726  0.6186  0.9681
  256MOL0     H35314   3.713   5.057   0.651 -1.7890  0.2913  1.1833
  256MOL0     H35315   3.507   4.944   0.644  0.9638  2.5003 -0.0202
  256MOL0     H35316   3.357   4.807   0.803 -5.2373  0.1007  0.3609
  256MOL0     H35317   3.315   4.783   0.635 -1.8953  0.9767  1.7741
  256MOL0     H35318   3.287   4.580   0.860  0.3893 -0.2851 -0.1033
  256MOL0     H35319   3.273   4.532   0.692 -1.5061 -2.1917  3.4120
  256MOL0     H35320   3.110   4.728   0.851  0.2619  1.5789 -0.7211
  256MOL0     H35321   3.071   4.699   0.683  1.3203  1.8554  0.8202
  256MOL0     H35322   2.999   4.526   0.911  0.0767  0.4982 -0.7165
  256MOL0     H35323   3.098   4.434   0.791  1.5188  1.4225  0.4720
  256MOL0     H35324   2.707   4.460   0.610  2.1982 -0.3475 -3.4578
  256MOL0     H35325   3.701   4.570   0.720 -0.3868 -0.9112 -1.2919
  256MOL0     H35326   3.940   4.627   0.845 -2.0222  1.5113  0.9637
  256MOL0     H35327   3.960   4.579   0.671 -3.6457 -1.8240  1.2662
  256MOL0     H35328   4.044   4.718   0.740 -0.5516 -0.0842  1.7314
  257MOL0     O35329  11.225   6.365   3.598  0.2308 -0.1888 -0.1229
  257MOL0     C35330  11.298   6.332   3.506  0.3633 -0.7184  0.3270
  257MOL0     O35331  11.423   6.381   3.489 -0.3265 -0.3030 -0.1840
  257MOL0     C35332  11.469   6.461   3.593  0.6271 -0.6810  0.6357
  257MOL0     C35333  11.507   6.590   3.555 -0.8121 -1.0950 -0.1302
  257MOL0     C35334  11.571   6.673   3.657 -0.4666  1.0399  0.0947
  257MOL0     C35335  11.591   6.621   3.790  0.2820  0.0481 -0.1721
  257MOL0     O35336  11.666   6.703   3.877 -0.4809 -0.2748  0.2353
  257MOL0     C35337  11.665   6.670   4.019  0.4791 -0.3615 -0.6019
  257MOL0     C35338  11.714   6.802   4.083 -0.1314  0.3239  1.1339
  257MOL0     C35339  11.617   6.924   4.089  0.4430 -0.0632 -1.0082
  257MOL0     C35340  11.510   6.896   4.198 -0.5309 -0.0357  0.4136
  257MOL0     C35341  11.423   7.009   4.239  0.4631 -0.1950 -0.4810
  257MOL0     C35342  11.325   7.055   4.135  0.1421 -0.0183  0.2841
  257MOL0     C35343  11.227   7.163   4.185  0.7440 -0.0474 -1.0295
  257MOL0     C35344  11.168   7.249   4.085  0.0743 -0.5000  0.0351
  257MOL0     N35345  11.259   7.353   4.035  0.3218 -0.5708  0.4203
  257MOL0     C35346  11.248   7.477   4.088 -0.6218  0.2842  0.5735
  257MOL0     C35347  11.351   7.548   4.034  0.4070  0.6174 -0.2238
  257MOL0     C35348  11.366   7.696   4.067 -0.1713 -0.3152  0.2971
  257MOL0     C35349  11.510   7.731   4.022 -0.0880  0.9390 -0.4181
  257MOL0     C35350  11.520   7.885   4.003  0.3020 -0.4961 -0.1579
  257MOL0     C35351  11.537   7.957   4.129 -1.2532 -0.3963  0.1026
  257MOL0     O35352  11.584   8.096   4.109  0.0437 -0.1489 -0.1747
  257MOL0     C35353  11.515   8.188   4.033 -0.0380 -0.4338  0.2858
  257MOL0     C35354  11.582   8.298   3.980 -0.1024 -0.0703 -0.5983
  257MOL0     C35355  11.518   8.395   3.905  1.2700  0.7487 -0.1944
  257MOL0     C35356  11.600   8.506   3.852 -0.4859 -1.1259  0.2796
  257MOL0     C35357  11.378   8.380   3.881  0.0767 -0.4383  0.0754
  257MOL0     C35358  11.298   8.468   3.787 -1.2270  0.0116  1.0309
  257MOL0     O35359  11.179   8.420   3.746 -0.3081  0.3883  0.6238
  257MOL0     C35360  11.075   8.506   3.698 -0.2212 -0.1852 -0.6122
  257MOL0     C35361  10.958   8.442   3.658  0.4523  0.2110  0.1474
  257MOL0     C35362  10.844   8.516   3.623 -0.4203 -0.1873 -0.0819
  257MOL0     C35363  10.844   8.651   3.629 -0.2549 -0.2697 -0.1914
  257MOL0     O35364  10.721   8.710   3.611 -0.5702  0.1977 -0.3938
  257MOL0     C35365  10.716   8.814   3.512  0.4989  0.1121 -0.4598
  257MOL0     C35366  10.572   8.826   3.458 -0.0109 -0.2703 -0.4584
  257MOL0     C35367  10.565   8.883   3.310 -0.1778 -0.3401 -0.0691
  257MOL0     C35368  10.427   8.852   3.252  0.2358 -0.3214 -0.2656
  257MOL0     C35369  10.410   8.930   3.113 -0.9691  0.2508  0.0253
  257MOL0     C35370  10.369   9.073   3.122 -0.2156  0.4051 -0.3435
  257MOL0     C35371  10.309   9.118   2.985 -0.3575 -0.3021  0.7150
  257MOL0     C35372  10.156   9.117   2.993 -0.5240 -0.8702 -1.3066
  257MOL0    Cl35373  10.097   9.179   2.833 -0.2107 -0.2026  0.3591
  257MOL0     C35374  10.954   8.715   3.682  0.1403 -0.3689 -0.7455
  257MOL0     C35375  11.072   8.645   3.706 -0.0108  0.7218 -0.0221
  257MOL0     O35376  11.355   8.572   3.750 -0.0731  0.2625  0.1878
  257MOL0     C35377  11.309   8.271   3.942  0.8787  0.3606 -0.3238
  257MOL0     C35378  11.381   8.179   4.012  0.1999 -0.0738  0.5509
  257MOL0     N35379  11.421   7.476   3.939 -0.8325  0.0781 -0.3002
  257MOL0     N35380  11.367   7.355   3.947  0.2235 -0.4531  0.4845
  257MOL0     C35381  11.554   6.490   3.816 -0.4436 -0.3501  0.1995
  257MOL0     C35382  11.488   6.415   3.727 -0.9047  0.0782  0.0570
  257MOL0     C35383  11.257   6.234   3.401 -1.2929  1.2487  0.5100
  257MOL0     C35384  11.335   6.233   3.284  0.8610 -0.1737  0.3329
  257MOL0     C35385  11.312   6.142   3.181 -0.3452  0.0750  0.6082
  257MOL0     C35386  11.210   6.056   3.188  0.8911  0.7690  0.0936
  257MOL0     O35387  11.193   5.986   3.075 -0.0971  0.3445 -0.5370
  257MOL0     C35388  11.076   5.901   3.079  0.2095 -1.1833  0.5430
  257MOL0     C35389  11.052   5.851   2.936  1.1996  0.2681  0.5431
  257MOL0     C35390  10.960   5.729   2.919  0.2758  0.1384  0.0689
  257MOL0     C35391  10.986   5.655   2.783 -0.4530  0.1716 -0.8328
  257MOL0     C35392  10.918   5.523   2.763  0.9836 -0.1023  0.5354
  257MOL0     C35393  10.855   5.420   2.748  0.4794 -0.3109 -0.5526
  257MOL0     C35394  11.133   6.053   3.304  0.2961 -0.4349 -0.6645
  257MOL0     C35395  11.157   6.139   3.415 -0.0917 -0.7807 -0.6881
  257MOL0     C35396  11.082   6.106   3.542 -0.4010 -0.0703  1.0872
  257MOL0     H35397  11.491   6.607   3.449 -0.9644  3.0283  0.3810
  257MOL0     H35398  11.604   6.775   3.637  0.4553  0.7367 -0.0069
  257MOL0     H35399  11.739   6.591   4.031  2.7394  1.4170 -1.8808
  257MOL0     H35400  11.572   6.626   4.055  0.9007 -1.1602 -0.4744
  257MOL0     H35401  11.738   6.774   4.187  0.6800 -0.5346  0.7353
  257MOL0     H35402  11.804   6.832   4.029 -1.7704 -0.9922 -2.6955
  257MOL0     H35403  11.686   7.007   4.108 -0.2223  0.3640 -0.4317
  257MOL0     H35404  11.566   6.957   3.999 -1.7299  1.6539  0.7230
  257MOL0     H35405  11.443   6.821   4.154  0.2625  0.3636 -1.5739
  257MOL0     H35406  11.569   6.870   4.286  1.6217 -1.5988 -1.3571
  257MOL0     H35407  11.487   7.095   4.263 -1.2758  2.2824 -3.8625
  257MOL0     H35408  11.376   6.981   4.334 -3.0461 -0.6214 -2.1846
  257MOL0     H35409  11.379   7.099   4.050 -0.0877  1.6907  0.9940
  257MOL0     H35410  11.278   6.965   4.094 -0.5758  0.9616 -1.1480
  257MOL0     H35411  11.277   7.228   4.258  0.2385 -0.6937 -0.1003
  257MOL0     H35412  11.156   7.115   4.253  4.0547  0.9013  3.6015
  257MOL0     H35413  11.143   7.187   3.997 -0.6150 -0.0764 -0.0749
  257MOL0     H35414  11.078   7.290   4.132  0.4844  0.5253 -0.0505
  257MOL0     H35415  11.164   7.513   4.148 -1.1102 -1.1741  0.7938
  257MOL0     H35416  11.358   7.709   4.175 -0.4682 -1.6379  0.4544
  257MOL0     H35417  11.286   7.750   4.016 -1.2466 -2.1676 -0.0710
  257MOL0     H35418  11.573   7.705   4.107 -1.8385  3.3001  1.7643
  257MOL0     H35419  11.521   7.688   3.922 -0.4039  0.9440 -0.4543
  257MOL0     H35420  11.601   7.902   3.933  1.4017 -5.6174 -0.5255
  257MOL0     H35421  11.433   7.929   3.954  2.1354  4.6379  0.6187
  257MOL0     H35422  11.444   7.961   4.187 -0.7507  3.0103  0.9274
  257MOL0     H35423  11.619   7.912   4.186 -0.7854 -1.8000 -1.6228
  257MOL0     H35424  11.688   8.295   4.007 -0.7079 -1.9590  1.9524
  257MOL0     H35425  11.707   8.490   3.872 -0.4962  1.1736  2.9143
  257MOL0     H35426  11.574   8.600   3.902  0.0849 -2.1637  2.6991
  257MOL0     H35427  11.586   8.533   3.747  0.5521  1.2220  0.6725
  257MOL0     H35428  10.947   8.335   3.673 -2.8933  0.8065  3.6932
  257MOL0     H35429  10.745   8.479   3.598 -0.4647  1.6144 -3.0574
  257MOL0     H35430  10.740   8.909   3.560 -1.1298  0.2845  0.0896
  257MOL0     H35431  10.775   8.793   3.422  4.4784 -0.8992  2.1352
  257MOL0     H35432  10.528   8.726   3.456 -1.5340  0.3435  0.3151
  257MOL0     H35433  10.508   8.889   3.521 -1.4870 -0.4059 -1.7755
  257MOL0     H35434  10.651   8.847   3.252  1.1944  5.9086 -2.7497
  257MOL0     H35435  10.568   8.992   3.317  2.5139 -0.2909 -0.6616
  257MOL0     H35436  10.356   8.872   3.333 -0.3715 -0.8715 -0.6501
  257MOL0     H35437  10.418   8.744   3.238  5.0729 -0.9996  0.0937
  257MOL0     H35438  10.509   8.919   3.068 -0.5152 -3.3126  1.5995
  257MOL0     H35439  10.334   8.875   3.057  0.6819 -3.2407  0.9335
  257MOL0     H35440  10.453   9.132   3.159  0.1479 -0.4490  0.2261
  257MOL0     H35441  10.304   9.088   3.209  3.1790 -1.0993  2.7128
  257MOL0     H35442  10.334   9.060   2.895 -1.5382 -0.1183  0.2383
  257MOL0     H35443  10.335   9.223   2.978 -3.1853  0.9976  5.3547
  257MOL0     H35444  10.130   9.185   3.074  2.1871 -1.7983  0.4897
  257MOL0     H35445  10.107   9.020   3.001  0.4382 -1.3589 -1.2190
  257MOL0     H35446  10.953   8.816   3.722 -3.4609 -1.8910  3.9663
  257MOL0     H35447  11.153   8.706   3.745  2.3613 -0.8566 -2.1128
  257MOL0     H35448  11.209   8.239   3.914  0.4871  0.0042  1.3545
  257MOL0     H35449  11.332   8.088   4.045  1.6664 -0.8506  0.6880
  257MOL0     H35450  11.576   6.451   3.914 -1.0405 -2.0091 -0.3021
  257MOL0     H35451  11.465   6.314   3.760  0.5823  0.5060  2.6837
  257MOL0     H35452  11.425   6.294   3.284  1.2484 -0.7262 -0.3518
  257MOL0     H35453  11.378   6.132   3.096 -2.0151  3.2778 -1.2633
  257MOL0     H35454  11.093   5.820   3.150 -1.6468 -3.5680 -1.5349
  257MOL0     H35455  10.990   5.953   3.123  0.8830  0.3118  0.1637
  257MOL0     H35456  11.149   5.808   2.908  0.4228 -1.1425 -0.0758
  257MOL0     H35457  11.025   5.932   2.867 -3.5500 -1.2182  0.3068
  257MOL0     H35458  10.954   5.666   3.008  1.5588  0.7175  0.5900
  257MOL0     H35459  10.858   5.767   2.912  0.0060 -0.4988  0.4315
  257MOL0     H35460  11.093   5.637   2.765 -0.7340 -0.5429 -1.8442
  257MOL0     H35461  10.945   5.716   2.703 -1.5531  0.7720  0.1615
  257MOL0     H35462  10.792   5.334   2.734  0.4454 -0.5217  0.8118
  257MOL0     H35463  11.043   5.992   3.303  0.6927 -1.0817  0.6027
  257MOL0     H35464  11.017   6.020   3.528 -2.1378  0.9704  2.4002
  257MOL0     H35465  11.146   6.091   3.630 -0.0152  0.4812  0.9104
  257MOL0     H35466  11.015   6.188   3.570 -0.8148  1.6874 -4.1054
  258MOL0     O35467   3.877   1.931   9.884  0.2684 -0.0749 -0.4413
  258MOL0     C35468   3.941   1.828   9.860  0.4968 -0.2070 -0.3310
  258MOL0     O35469   4.071   1.822   9.815 -0.0005 -0.3669  0.2483
  258MOL0     C35470   4.152   1.934   9.836 -0.2429 -1.0015 -0.1130
  258MOL0     C35471   4.137   2.013   9.961 -0.1442 -0.9040 -0.3212
  258MOL0     C35472   4.217   2.125   9.988  0.1465  0.7257  0.4844
  258MOL0     C35473   4.316   2.164   9.884  0.5344 -0.7920  0.0665
  258MOL0     O35474   4.400   2.266   9.917  0.0284 -0.1056  0.2122
  258MOL0     C35475   4.417   2.366   9.822  0.0211 -1.3854  0.2920
  258MOL0     C35476   4.424   2.494   9.910  0.1555  0.0607 -0.6423
  258MOL0     C35477   4.555   2.507   9.991 -0.3114 -0.2287  0.0716
  258MOL0     C35478   4.673   2.432   9.934 -0.3044  0.9209 -0.2587
  258MOL0     C35479   4.800   2.465  10.014  0.1170  0.3091  0.0456
  258MOL0     C35480   4.796   2.420  10.168 -1.5198 -0.0613  0.2036
  258MOL0     C35481   4.929   2.460  10.241  0.0480  0.1087  0.1649
  258MOL0     C35482   4.963   2.388  10.375  0.6439 -0.2631  0.2650
  258MOL0     N35483   5.088   2.438  10.431  0.3652 -0.3071 -0.3738
  258MOL0     C35484   5.217   2.457  10.378  0.4868 -1.0107  0.1806
  258MOL0     C35485   5.277   2.557  10.448  0.3835  1.1051 -0.4668
  258MOL0     C35486   5.402   2.625  10.427 -0.0360  0.4912 -0.3819
  258MOL0     C35487   5.525   2.534  10.412  1.0239  0.8715 -0.1803
  258MOL0     C35488   5.582   2.474  10.536 -0.3008  0.5301  0.3555
  258MOL0     C35489   5.503   2.368  10.605  0.4504  0.5236 -0.5502
  258MOL0     O35490   5.459   2.267  10.511  0.6002 -0.1240 -0.2060
  258MOL0     C35491   5.544   2.161  10.472  0.2142  0.2321  0.2718
  258MOL0     C35492   5.521   2.118  10.345  0.6613  0.6473  0.2221
  258MOL0     C35493   5.590   2.013  10.278 -0.2343 -0.2471  0.2205
  258MOL0     C35494   5.558   1.982  10.134  0.0314  0.6074 -1.2249
  258MOL0     C35495   5.705   1.964  10.350  0.7531 -0.4579  0.0310
  258MOL0     C35496   5.798   1.857  10.295 -0.4602  0.2307 -0.1089
  258MOL0     O35497   5.861   1.881  10.180  0.3211  0.1464 -0.3828
  258MOL0     C35498   5.873   1.783  10.087 -0.5229 -0.0101  0.6959
  258MOL0     C35499   5.987   1.788  10.009  0.8631 -0.5697  0.1788
  258MOL0     C35500   6.013   1.694   9.911 -2.3397  0.8318 -0.9702
  258MOL0     C35501   5.927   1.581   9.885 -1.0963 -0.1859 -0.0413
  258MOL0     O35502   5.950   1.480   9.794  0.2458  0.1714  0.3360
  258MOL0     C35503   6.071   1.486   9.719 -0.0277  0.3736 -0.0393
  258MOL0     C35504   6.075   1.374   9.613  0.2680 -0.2081  0.2163
  258MOL0     C35505   6.203   1.347   9.528  0.7007  0.1383 -0.9084
  258MOL0     C35506   6.189   1.212   9.461 -0.6095 -0.6520  0.4093
  258MOL0     C35507   6.308   1.178   9.369  0.2732 -0.3178 -0.4541
  258MOL0     C35508   6.316   1.034   9.314  0.2966  0.7585  0.5380
  258MOL0     C35509   6.427   1.024   9.204 -0.1596  0.7877  0.0976
  258MOL0     C35510   6.455   0.876   9.159  0.1751  0.1147  1.1396
  258MOL0    Cl35511   6.308   0.807   9.097  0.0937  0.3334  0.2600
  258MOL0     C35512   5.820   1.567   9.973  0.3366  0.2962 -1.1263
  258MOL0     C35513   5.798   1.665  10.072 -0.0169 -0.0450  0.2500
  258MOL0     O35514   5.797   1.748  10.350  0.4936 -0.4203 -0.0920
  258MOL0     C35515   5.730   2.010  10.482  0.2581 -0.0454  0.4025
  258MOL0     C35516   5.652   2.106  10.546 -1.2860  0.2091  0.5658
  258MOL0     N35517   5.195   2.591  10.545 -0.0440  0.0568  0.0253
  258MOL0     N35518   5.092   2.510  10.547 -0.1678  0.6665 -0.0915
  258MOL0     C35519   4.335   2.082   9.771  0.8786 -0.1932 -0.3721
  258MOL0     C35520   4.259   1.969   9.746  0.1134  0.2132 -0.0981
  258MOL0     C35521   3.863   1.706   9.848 -0.1278 -0.4391 -0.0882
  258MOL0     C35522   3.745   1.721   9.776 -0.5599  0.3103  0.4495
  258MOL0     C35523   3.667   1.609   9.744 -0.3579  0.8925 -0.9789
  258MOL0     C35524   3.707   1.482   9.786 -1.0403 -0.0890  0.2662
  258MOL0     O35525   3.626   1.378   9.752 -0.1076  0.0295 -0.4880
  258MOL0     C35526   3.685   1.245   9.737 -0.2144  0.3584 -0.0663
  258MOL0     C35527   3.606   1.159   9.629 -0.0738  0.1354 -1.2767
  258MOL0     C35528   3.608   1.220   9.491  0.0455  0.7173  0.4614
  258MOL0     C35529   3.487   1.170   9.402 -0.8648 -0.4595  0.2019
  258MOL0     C35530   3.478   1.025   9.405  0.1532 -0.1391 -0.0976
  258MOL0     C35531   3.483   0.905   9.400  0.3113  0.3873  0.1126
  258MOL0     C35532   3.831   1.465   9.863 -0.4676  0.2012 -0.0999
  258MOL0     C35533   3.904   1.579   9.895  0.1686  0.2269  0.0859
  258MOL0     C35534   4.022   1.576   9.979  0.2630 -0.6006 -0.0469
  258MOL0     H35535   4.071   1.990  10.044 -0.3944 -0.1884 -0.3099
  258MOL0     H35536   4.213   2.177  10.083 -0.8441  1.5036  0.0408
  258MOL0     H35537   4.344   2.359   9.741  0.3696  1.2125 -0.3322
  258MOL0     H35538   4.512   2.353   9.769  0.7162 -2.1163  1.6666
  258MOL0     H35539   4.406   2.573   9.836 -0.7226 -1.3427 -2.0014
  258MOL0     H35540   4.340   2.502   9.979  0.4630 -0.2687 -0.2253
  258MOL0     H35541   4.578   2.613   9.999  1.5095 -0.7196  2.8101
  258MOL0     H35542   4.545   2.468  10.093  0.5344  2.6638  1.3665
  258MOL0     H35543   4.660   2.324   9.944  0.6320  0.9208  1.3858
  258MOL0     H35544   4.676   2.450   9.826  0.6491  1.1569 -0.2029
  258MOL0     H35545   4.810   2.573  10.000  2.1462 -0.0218 -1.5270
  258MOL0     H35546   4.885   2.418   9.965 -0.9845  1.4076 -3.1971
  258MOL0     H35547   4.704   2.459  10.213 -1.8674  0.2449 -0.7595
  258MOL0     H35548   4.790   2.311  10.166 -1.7958 -0.0332 -1.3017
  258MOL0     H35549   4.916   2.567  10.259 -0.0513  0.3879 -1.4469
  258MOL0     H35550   5.015   2.450  10.175  0.4777 -1.2910  0.8940
  258MOL0     H35551   4.873   2.387  10.436  0.3022 -1.0714 -0.2365
  258MOL0     H35552   4.984   2.282  10.356  0.4749  0.1662 -2.9434
  258MOL0     H35553   5.265   2.416  10.290  1.8255 -0.4870  0.6536
  258MOL0     H35554   5.436   2.693  10.506 -0.0676  1.8468 -1.5098
  258MOL0     H35555   5.383   2.678  10.334  0.6916 -0.1612 -0.9136
  258MOL0     H35556   5.497   2.452  10.346  1.1264 -0.4432  1.3349
  258MOL0     H35557   5.607   2.591  10.367  2.0774  0.3786  1.0603
  258MOL0     H35558   5.673   2.431  10.493  0.9417  2.9218  0.4398
  258MOL0     H35559   5.612   2.550  10.608  1.6081 -2.9733  3.5978
  258MOL0     H35560   5.560   2.327  10.689 -1.5689  0.3657  0.7905
  258MOL0     H35561   5.415   2.410  10.654  0.7563  1.8725 -1.1098
  258MOL0     H35562   5.444   2.172  10.290 -0.6875  0.7866  2.1280
  258MOL0     H35563   5.547   2.080  10.087 -0.1925  1.6105  0.7868
  258MOL0     H35564   5.464   1.926  10.132  1.0662 -1.3206  0.1174
  258MOL0     H35565   5.638   1.932  10.079 -0.8171 -0.3215 -1.6345
  258MOL0     H35566   6.065   1.864  10.010  1.3673 -0.9830 -1.8992
  258MOL0     H35567   6.111   1.710   9.867  0.5098 -0.8306  4.0226
  258MOL0     H35568   6.098   1.584   9.678 -0.4986  1.5466  2.3254
  258MOL0     H35569   6.150   1.471   9.793 -0.5103 -0.4891  0.3155
  258MOL0     H35570   6.055   1.276   9.658  2.0950 -0.9819 -0.5248
  258MOL0     H35571   5.994   1.390   9.542  0.0936 -1.2619  0.1677
  258MOL0     H35572   6.282   1.339   9.603  0.1361 -1.7546 -0.4559
  258MOL0     H35573   6.219   1.426   9.454  1.5233  1.3089  0.4710
  258MOL0     H35574   6.093   1.210   9.409 -0.5664 -1.0735  0.3431
  258MOL0     H35575   6.191   1.138   9.542 -2.3588  0.3528  1.4405
  258MOL0     H35576   6.320   1.252   9.290  0.7743  1.0125  0.8133
  258MOL0     H35577   6.393   1.189   9.437 -0.2123  3.6123 -0.2250
  258MOL0     H35578   6.215   0.999   9.292 -0.1755  2.6021 -0.4103
  258MOL0     H35579   6.346   0.962   9.391 -3.8159 -1.4313  0.3569
  258MOL0     H35580   6.526   1.059   9.236 -1.1679  2.1747  1.8831
  258MOL0     H35581   6.388   1.085   9.122 -2.0131  0.4415  0.6793
  258MOL0     H35582   6.486   0.813   9.243 -1.7600 -1.9742  0.3891
  258MOL0     H35583   6.528   0.883   9.078  0.2936  4.1413  1.3905
  258MOL0     H35584   5.754   1.481   9.974  0.7581 -0.0345 -1.5960
  258MOL0     H35585   5.709   1.664  10.135 -1.6371  0.0237 -1.9222
  258MOL0     H35586   5.817   1.957  10.520  3.7205  3.4928 -1.8162
  258MOL0     H35587   5.681   2.149  10.641  2.3362 -1.9928  0.6162
  258MOL0     H35588   4.426   2.089   9.712  0.0416 -0.8478 -1.7990
  258MOL0     H35589   4.285   1.896   9.670  2.1009  0.4187  0.3426
  258MOL0     H35590   3.726   1.818   9.733  2.3200  0.6834 -0.1659
  258MOL0     H35591   3.590   1.605   9.668 -0.4400  1.5869 -0.9356
  258MOL0     H35592   3.788   1.266   9.708 -0.8007  2.3941 -0.8375
  258MOL0     H35593   3.681   1.195   9.834 -1.9760  0.9428  0.2005
  258MOL0     H35594   3.502   1.143   9.659  1.0181 -2.1092  1.6718
  258MOL0     H35595   3.650   1.060   9.635 -0.7563 -0.1779 -1.3790
  258MOL0     H35596   3.618   1.329   9.485  0.1742  0.6205 -2.6378
  258MOL0     H35597   3.696   1.178   9.440 -0.8418 -2.4813  1.3768
  258MOL0     H35598   3.512   1.201   9.300  0.5404 -1.3784  0.2326
  258MOL0     H35599   3.393   1.217   9.432 -0.6625 -0.9211  1.6448
  258MOL0     H35600   3.492   0.798   9.398  1.1058  0.4006  1.6595
  258MOL0     H35601   3.856   1.367   9.901 -0.6377  0.7738  1.5871
  258MOL0     H35602   4.033   1.663  10.044 -2.2604 -0.8939  0.8727
  258MOL0     H35603   4.020   1.490  10.047 -1.7322 -0.2926  0.3426
  258MOL0     H35604   4.106   1.564   9.910  0.5258 -1.6443  0.4328
  259MOL0     O35605   5.107   8.778   1.267 -0.2413 -0.1931  1.0183
  259MOL0     C35606   5.017   8.748   1.186  0.4320  0.2883  0.6171
  259MOL0     O35607   5.030   8.653   1.099 -0.2138 -0.5701  0.3378
  259MOL0     C35608   5.147   8.578   1.100  0.0828 -0.0535  0.2865
  259MOL0     C35609   5.150   8.462   1.173 -0.4371 -0.9377 -0.1119
  259MOL0     C35610   5.265   8.377   1.187  0.6221 -1.2189 -0.6425
  259MOL0     C35611   5.383   8.410   1.131 -0.1009 -0.7051 -0.3315
  259MOL0     O35612   5.498   8.345   1.143 -0.1424  0.8071 -0.0497
  259MOL0     C35613   5.517   8.260   1.260 -0.1826 -0.7323 -0.9934
  259MOL0     C35614   5.668   8.232   1.287 -0.1940  0.2477 -1.1183
  259MOL0     C35615   5.745   8.329   1.386  0.7470 -0.2756  0.2703
  259MOL0     C35616   5.676   8.350   1.528 -0.1889 -0.0691  0.7957
  259MOL0     C35617   5.759   8.441   1.606 -0.2775 -0.3703  0.1874
  259MOL0     C35618   5.745   8.587   1.552  0.1062  0.8205  0.1713
  259MOL0     C35619   5.836   8.684   1.618  0.5034 -0.8402 -0.2703
  259MOL0     C35620   5.828   8.831   1.562 -0.2340  0.0766  0.4603
  259MOL0     N35621   5.887   8.844   1.423 -0.9698  0.1668 -0.0770
  259MOL0     C35622   6.013   8.791   1.390 -0.0829  0.4147  0.5985
  259MOL0     C35623   6.024   8.834   1.263 -0.3944  0.1177  0.0374
  259MOL0     C35624   6.154   8.828   1.179 -0.5620 -0.3234 -0.2781
  259MOL0     C35625   6.134   8.727   1.067 -0.3420 -0.0756 -0.2712
  259MOL0     C35626   6.240   8.686   0.960 -0.7579 -0.0152 -0.6719
  259MOL0     C35627   6.354   8.790   0.963  1.4030  0.3627 -0.0956
  259MOL0     O35628   6.438   8.784   0.851 -0.6198 -0.3327  0.6347
  259MOL0     C35629   6.544   8.873   0.868  0.2224  0.2103 -0.2889
  259MOL0     C35630   6.678   8.826   0.899 -0.5901  0.3277  0.2114
  259MOL0     C35631   6.789   8.909   0.903 -0.1900  0.8598 -0.0817
  259MOL0     C35632   6.922   8.835   0.930 -0.2001  0.9789 -0.1352
  259MOL0     C35633   6.767   9.053   0.884  0.8229  0.4993  0.3665
  259MOL0     C35634   6.871   9.151   0.870 -0.5635 -0.2752 -0.0483
  259MOL0     O35635   6.842   9.270   0.807  0.6093  0.2353  0.2712
  259MOL0     C35636   6.941   9.360   0.785 -0.2890 -0.7341 -0.4226
  259MOL0     C35637   7.020   9.356   0.681 -0.3034  0.1959 -0.8444
  259MOL0     C35638   7.120   9.447   0.661 -0.2470 -0.1496  0.8002
  259MOL0     C35639   7.137   9.557   0.742  1.0363  0.2831  0.2104
  259MOL0     O35640   7.222   9.661   0.712  0.4875 -0.2042 -0.3659
  259MOL0     C35641   7.289   9.658   0.586  0.1714  0.0167 -0.2553
  259MOL0     C35642   7.375   9.788   0.557 -0.5939  0.3389 -0.5473
  259MOL0     C35643   7.457   9.836   0.688  0.4787 -0.4945  0.8322
  259MOL0     C35644   7.519   9.970   0.665  0.0949  1.3839  0.4761
  259MOL0     C35645   7.626  10.008   0.766  0.2606  0.3058 -0.9523
  259MOL0     C35646   7.565  10.036   0.906 -0.3486 -0.3031 -0.8672
  259MOL0     C35647   7.661  10.107   1.006 -0.1612 -0.5040  0.2619
  259MOL0     C35648   7.584  10.153   1.126 -0.3811 -0.5933  0.4242
  259MOL0    Cl35649   7.547  10.009   1.226 -0.0439  0.2991 -0.2749
  259MOL0     C35650   7.061   9.562   0.860  0.8435 -0.5402  0.0397
  259MOL0     C35651   6.958   9.463   0.883 -0.7090 -0.0415 -1.0880
  259MOL0     O35652   6.982   9.125   0.920  0.0937 -0.1785 -0.3647
  259MOL0     C35653   6.634   9.100   0.864  0.7466  0.4002  0.8228
  259MOL0     C35654   6.531   9.010   0.854  0.2308 -0.1406  0.2196
  259MOL0     N35655   5.920   8.910   1.226  0.3798 -1.1648  0.2899
  259MOL0     N35656   5.836   8.918   1.327 -0.0024 -0.0250  0.3515
  259MOL0     C35657   5.384   8.526   1.058 -0.2293 -0.3067  0.5266
  259MOL0     C35658   5.267   8.607   1.043 -0.4982  0.1600 -0.0632
  259MOL0     C35659   4.897   8.819   1.185  0.3236 -1.2354  0.6513
  259MOL0     C35660   4.849   8.885   1.064 -0.0873  0.0521  0.2189
  259MOL0     C35661   4.714   8.934   1.053  0.6482  0.1362  0.3761
  259MOL0     C35662   4.641   8.935   1.173 -0.2988  0.2262 -0.0550
  259MOL0     O35663   4.512   8.974   1.170  0.6067  0.5673 -0.2577
  259MOL0     C35664   4.465   9.080   1.092 -0.8290  0.0332 -0.1701
  259MOL0     C35665   4.323   9.127   1.138 -0.5955 -0.2488  0.7862
  259MOL0     C35666   4.292   9.267   1.104 -0.2819  0.2725 -0.3296
  259MOL0     C35667   4.161   9.316   1.158 -0.0402 -0.6612 -0.7269
  259MOL0     C35668   4.072   9.406   1.075  0.4773 -0.0105 -0.8164
  259MOL0     C35669   3.999   9.480   1.034  0.3140 -0.1468 -0.6904
  259MOL0     C35670   4.695   8.885   1.294 -0.3497  0.0130  0.1517
  259MOL0     C35671   4.820   8.827   1.306  0.0505 -0.4231 -0.0677
  259MOL0     C35672   4.852   8.764   1.440 -0.8957  0.4502 -0.0632
  259MOL0     H35673   5.060   8.433   1.225 -0.0206 -0.6659  0.7868
  259MOL0     H35674   5.261   8.280   1.237  0.1805 -2.6253 -3.2060
  259MOL0     H35675   5.451   8.174   1.244 -0.4184 -0.8477  0.5114
  259MOL0     H35676   5.479   8.298   1.354 -0.1786 -1.1030 -0.8403
  259MOL0     H35677   5.669   8.132   1.331 -0.0424 -0.4348 -2.6139
  259MOL0     H35678   5.723   8.229   1.193  0.2552 -1.6092 -0.8456
  259MOL0     H35679   5.846   8.296   1.412  3.0304  4.2365 -1.6547
  259MOL0     H35680   5.761   8.415   1.320 -3.9571 -0.3228 -1.3225
  259MOL0     H35681   5.579   8.399   1.523  1.6223  3.7629 -1.7424
  259MOL0     H35682   5.659   8.255   1.579  1.0430  0.4495  2.2671
  259MOL0     H35683   5.867   8.420   1.600 -0.3323 -0.5156 -0.3258
  259MOL0     H35684   5.724   8.428   1.708 -1.7331  0.2407 -0.2206
  259MOL0     H35685   5.773   8.584   1.447 -1.1508  1.0530 -0.1867
  259MOL0     H35686   5.641   8.622   1.555  0.4987  1.9556  1.3154
  259MOL0     H35687   5.941   8.655   1.624  0.4409 -0.7559  3.2126
  259MOL0     H35688   5.796   8.691   1.719 -0.4215  1.0088 -0.7168
  259MOL0     H35689   5.725   8.867   1.550 -0.9710 -1.9403  0.3812
  259MOL0     H35690   5.883   8.902   1.626  3.2542 -1.3262 -0.7527
  259MOL0     H35691   6.079   8.729   1.450 -0.5925 -1.4566 -0.6940
  259MOL0     H35692   6.242   8.806   1.240 -0.3284 -0.0628 -0.5181
  259MOL0     H35693   6.163   8.927   1.134 -1.2004  1.8479  3.9420
  259MOL0     H35694   6.118   8.640   1.130 -2.8440  1.7325  1.8066
  259MOL0     H35695   6.041   8.750   1.014  0.4188  1.5875 -0.9815
  259MOL0     H35696   6.275   8.586   0.987 -1.1288  0.7775  3.3399
  259MOL0     H35697   6.199   8.681   0.858  1.6733  0.2609 -1.7183
  259MOL0     H35698   6.290   8.879   0.969 -1.2579 -1.2228 -2.3545
  259MOL0     H35699   6.419   8.784   1.051  2.5452 -0.2299 -0.9648
  259MOL0     H35700   6.690   8.724   0.935  0.8904  1.1048  2.1232
  259MOL0     H35701   6.995   8.889   0.868  0.1748  0.4986 -0.1166
  259MOL0     H35702   6.926   8.727   0.914  3.0987  1.2502 -2.2931
  259MOL0     H35703   6.954   8.860   1.031  0.1096 -0.1870  0.0637
  259MOL0     H35704   6.999   9.284   0.602  3.9277 -1.7211 -0.4895
  259MOL0     H35705   7.179   9.433   0.571  0.6334 -0.1221  1.3612
  259MOL0     H35706   7.355   9.571   0.586  2.4282  1.6220 -0.8872
  259MOL0     H35707   7.221   9.647   0.501  2.2404  0.6789 -2.1080
  259MOL0     H35708   7.440   9.756   0.476  0.1642  0.9244 -0.1729
  259MOL0     H35709   7.312   9.872   0.527 -0.4239  0.5785 -0.2400
  259MOL0     H35710   7.537   9.767   0.716  1.6335  0.1084 -0.8043
  259MOL0     H35711   7.396   9.841   0.779 -0.4230  0.1458  0.2167
  259MOL0     H35712   7.435  10.038   0.679 -0.2810  0.6318  2.1220
  259MOL0     H35713   7.564   9.974   0.565  0.1992  0.9166  0.4997
  259MOL0     H35714   7.702   9.930   0.782  1.6638  2.2052  2.7900
  259MOL0     H35715   7.670  10.100   0.725 -1.7328  0.8230 -2.0795
  259MOL0     H35716   7.529   9.942   0.946  1.7062 -0.1638  1.5500
  259MOL0     H35717   7.480  10.104   0.897  0.6308  1.3923  1.7276
  259MOL0     H35718   7.702  10.194   0.953 -3.6209  0.7152 -0.6893
  259MOL0     H35719   7.735  10.032   1.036 -0.5664 -1.7516 -1.6630
  259MOL0     H35720   7.495  10.212   1.101 -2.5557 -2.3231  3.4974
  259MOL0     H35721   7.639  10.230   1.180 -3.3301  0.4477  2.1726
  259MOL0     H35722   7.070   9.650   0.923  1.9817 -0.8625  0.3537
  259MOL0     H35723   6.885   9.478   0.962 -0.1358 -0.0942 -0.5375
  259MOL0     H35724   6.612   9.206   0.863  0.4377  0.3379  0.0781
  259MOL0     H35725   6.429   9.042   0.831  0.3129  0.3934  0.5824
  259MOL0     H35726   5.476   8.567   1.018 -2.4992  2.6707 -2.1245
  259MOL0     H35727   5.270   8.703   0.993 -2.5622  1.0928  1.4393
  259MOL0     H35728   4.920   8.891   0.982  0.9215  3.3382  1.2007
  259MOL0     H35729   4.673   8.971   0.960  0.8592 -0.8279 -0.1097
  259MOL0     H35730   4.539   9.161   1.097 -1.0323  0.1618  1.0929
  259MOL0     H35731   4.452   9.048   0.988 -0.0042  0.3279 -0.3744
  259MOL0     H35732   4.324   9.114   1.247 -0.1735  0.9771  0.9403
  259MOL0     H35733   4.250   9.059   1.092  0.5476 -1.5599  0.8279
  259MOL0     H35734   4.367   9.337   1.143  0.0924 -0.5675  0.4842
  259MOL0     H35735   4.294   9.279   0.995 -2.0671  3.6911 -0.1060
  259MOL0     H35736   4.169   9.347   1.263  0.3566  0.8543 -1.1755
  259MOL0     H35737   4.102   9.226   1.176 -0.1621 -0.8695 -2.0901
  259MOL0     H35738   3.939   9.550   0.979 -4.9887 -1.5147  2.6481
  259MOL0     H35739   4.635   8.892   1.384 -1.4658 -2.7238 -0.2659
  259MOL0     H35740   4.760   8.729   1.487 -0.1771 -4.1396 -1.5390
  259MOL0     H35741   4.914   8.674   1.429 -0.4585  0.6177  0.9715
  259MOL0     H35742   4.903   8.839   1.501  1.0022 -1.3115  0.6416
  260MOL0     O35743   3.159  11.228   6.940  0.4610 -0.0340 -0.8869
  260MOL0     C35744   3.056  11.198   6.996  0.0438 -0.2832 -0.0816
  260MOL0     O35745   2.927  11.249   6.961 -0.6346  0.2063 -0.7021
  260MOL0     C35746   2.923  11.341   6.866  0.1758 -0.1226  0.1160
  260MOL0     C35747   2.931  11.300   6.736  0.7136  0.0658  0.9794
  260MOL0     C35748   2.942  11.394   6.638 -0.2995  0.1774 -0.0062
  260MOL0     C35749   2.945  11.537   6.665 -0.3370  0.1391  0.0191
  260MOL0     O35750   2.973  11.635   6.574  0.1179 -0.2565 -0.3538
  260MOL0     C35751   3.020  11.620   6.444 -0.2636  0.0329  0.3040
  260MOL0     C35752   3.172  11.603   6.439 -0.4281 -0.0413 -0.7273
  260MOL0     C35753   3.245  11.673   6.327  0.2422  0.2678  0.2518
  260MOL0     C35754   3.263  11.823   6.355 -0.1273  0.5741  0.0885
  260MOL0     C35755   3.338  11.890   6.236  0.0162 -0.6725  1.2245
  260MOL0     C35756   3.357  12.046   6.262  0.3904  0.5485 -0.4274
  260MOL0     C35757   3.220  12.124   6.241  0.2900  0.1878 -0.4029
  260MOL0     C35758   3.241  12.261   6.297 -0.4253  0.5651 -0.1342
  260MOL0     N35759   3.313  12.354   6.209  0.1122 -0.1504 -0.2694
  260MOL0     C35760   3.446  12.387   6.228 -0.3645  0.3225 -0.8174
  260MOL0     C35761   3.479  12.465   6.118  0.1447  0.5458  0.9157
  260MOL0     C35762   3.602  12.550   6.111  0.3992 -0.3526 -0.1875
  260MOL0     C35763   3.724  12.485   6.046 -1.6082 -0.1750 -0.2838
  260MOL0     C35764   3.695  12.458   5.893  0.1470  0.7876  0.7235
  260MOL0     C35765   3.806  12.379   5.820  0.0321  0.1339  0.4866
  260MOL0     O35766   3.844  12.255   5.892  0.2097 -0.2364 -0.1664
  260MOL0     C35767   3.759  12.146   5.892 -0.7194 -0.4481  0.0565
  260MOL0     C35768   3.657  12.132   5.798 -1.0107  0.0610 -0.1047
  260MOL0     C35769   3.592  12.017   5.782 -0.1866  0.4899 -0.7579
  260MOL0     C35770   3.484  12.021   5.679  0.3339  0.1096  0.8693
  260MOL0     C35771   3.621  11.907   5.866 -0.1686  0.6008  0.4848
  260MOL0     C35772   3.536  11.783   5.864  0.1022  0.8252  0.1928
  260MOL0     O35773   3.519  11.720   5.996  0.3920 -0.2767 -0.0937
  260MOL0     C35774   3.460  11.597   5.989  0.9547  0.2548  1.4809
  260MOL0     C35775   3.320  11.598   5.968 -0.0281 -0.5994  0.0939
  260MOL0     C35776   3.240  11.488   5.971  0.0219 -0.6763 -0.2394
  260MOL0     C35777   3.301  11.364   5.987  0.3951 -0.5816 -1.0275
  260MOL0     O35778   3.228  11.245   5.984  0.5572  0.1172  0.8652
  260MOL0     C35779   3.244  11.161   6.102 -0.4818 -0.6008  0.4154
  260MOL0     C35780   3.125  11.077   6.122  0.7419 -0.1904 -0.5980
  260MOL0     C35781   3.006  11.171   6.158 -0.7986 -0.2178  0.6073
  260MOL0     C35782   2.866  11.099   6.157  0.7994  0.0627  1.1649
  260MOL0     C35783   2.850  11.012   6.281  0.5218 -0.2980  0.1495
  260MOL0     C35784   2.736  10.912   6.277  0.9701  0.8103 -0.7880
  260MOL0     C35785   2.756  10.807   6.387 -0.0117  0.1296 -0.3534
  260MOL0     C35786   2.784  10.869   6.525 -0.0988  0.7349  0.1327
  260MOL0    Cl35787   2.770  10.747   6.651 -0.0125  0.5368  0.1944
  260MOL0     C35788   3.445  11.358   6.004  0.7586 -0.1633  0.4487
  260MOL0     C35789   3.527  11.475   5.998  0.4031 -0.3254  0.3807
  260MOL0     O35790   3.497  11.733   5.755  0.0346 -0.0484 -0.8858
  260MOL0     C35791   3.727  11.922   5.957  0.3104  0.2704  0.4462
  260MOL0     C35792   3.793  12.039   5.969  0.5971 -0.6976 -0.3921
  260MOL0     N35793   3.363  12.477   6.039  0.1033  0.9170  0.3916
  260MOL0     N35794   3.270  12.408   6.090  0.7849  0.8556  0.4317
  260MOL0     C35795   2.930  11.574   6.800 -0.0094 -0.9921 -0.1114
  260MOL0     C35796   2.919  11.479   6.901  0.1897 -1.1765 -0.2256
  260MOL0     C35797   3.064  11.096   7.107  0.5366 -1.5109 -0.7692
  260MOL0     C35798   3.195  11.063   7.152  0.3209  0.0431 -0.9589
  260MOL0     C35799   3.214  10.969   7.251 -0.2052  0.3256  0.3194
  260MOL0     C35800   3.110  10.882   7.302 -0.9552 -0.4649  0.1607
  260MOL0     O35801   3.138  10.780   7.394  0.3483 -0.1060 -0.2052
  260MOL0     C35802   3.023  10.700   7.428  0.1207  0.1123  0.7038
  260MOL0     C35803   2.979  10.589   7.328  0.6379 -0.9967 -0.1529
  260MOL0     C35804   3.076  10.469   7.324  0.4658  0.5076  1.1923
  260MOL0     C35805   3.007  10.344   7.278 -0.2624  0.3553  0.9130
  260MOL0     C35806   3.106  10.234   7.304 -0.3645  0.1191 -0.3938
  260MOL0     C35807   3.191  10.145   7.310 -0.5608 -0.5353  0.2423
  260MOL0     C35808   2.987  10.919   7.254  0.4353 -0.0875  0.1584
  260MOL0     C35809   2.958  11.024   7.164 -0.3379  0.7922 -0.2279
  260MOL0     C35810   2.811  11.049   7.128 -0.2643  0.3867 -0.3330
  260MOL0     H35811   2.937  11.194   6.712  1.4602 -0.3699  2.9488
  260MOL0     H35812   2.945  11.370   6.532  1.4023  1.5495 -0.3098
  260MOL0     H35813   2.986  11.713   6.396 -2.0190 -0.2230  0.9574
  260MOL0     H35814   2.964  11.539   6.395 -0.4279  1.6960 -2.4738
  260MOL0     H35815   3.215  11.632   6.535  0.5139 -2.3175 -0.3945
  260MOL0     H35816   3.196  11.497   6.439 -0.5078 -0.0963 -2.4882
  260MOL0     H35817   3.346  11.632   6.318  0.2591  0.3825 -0.1260
  260MOL0     H35818   3.191  11.656   6.233 -0.3762  1.7432  0.3209
  260MOL0     H35819   3.164  11.870   6.364 -1.6009 -2.5047  1.4002
  260MOL0     H35820   3.320  11.844   6.445  3.2909 -2.0641 -1.2753
  260MOL0     H35821   3.288  11.885   6.139 -1.4235 -0.2779  1.9268
  260MOL0     H35822   3.436  11.843   6.225 -0.0144 -0.3516 -0.7368
  260MOL0     H35823   3.410  12.060   6.356 -0.0342  1.5075 -0.3174
  260MOL0     H35824   3.438  12.073   6.194  2.3739 -1.2459  1.0972
  260MOL0     H35825   3.134  12.073   6.285 -1.2308  2.5209 -0.4322
  260MOL0     H35826   3.190  12.135   6.136 -2.0738 -1.8331 -0.0514
  260MOL0     H35827   3.141  12.293   6.329 -1.9623 -2.8735 -1.0716
  260MOL0     H35828   3.297  12.253   6.391 -0.0054  2.4917 -0.1792
  260MOL0     H35829   3.507  12.367   6.315 -3.2654 -1.1737  1.0280
  260MOL0     H35830   3.647  12.560   6.210 -1.8810 -1.2165  1.0355
  260MOL0     H35831   3.570  12.643   6.064 -2.8958 -1.7833 -1.0666
  260MOL0     H35832   3.807  12.557   6.050 -0.9491 -0.7714 -1.9970
  260MOL0     H35833   3.759  12.392   6.091  0.5871 -0.9448 -3.2450
  260MOL0     H35834   3.601  12.403   5.887  1.7522 -1.9516 -1.4682
  260MOL0     H35835   3.678  12.552   5.840 -2.2769 -0.6731 -1.3093
  260MOL0     H35836   3.795  12.367   5.712 -0.6912 -0.2976  0.6065
  260MOL0     H35837   3.894  12.442   5.840 -0.4699  0.7319  0.8613
  260MOL0     H35838   3.639  12.206   5.722  0.3887 -1.6732 -2.2483
  260MOL0     H35839   3.508  11.955   5.595 -1.9591  1.3556 -0.8986
  260MOL0     H35840   3.468  12.122   5.640  2.9056 -0.2450 -1.4257
  260MOL0     H35841   3.390  11.983   5.722 -1.7957  0.0729 -3.2715
  260MOL0     H35842   3.260  11.688   5.975  0.0690 -0.6332  1.9912
  260MOL0     H35843   3.132  11.487   5.959  0.0011 -3.1166 -0.3887
  260MOL0     H35844   3.320  11.088   6.074 -0.7437 -1.4316  1.7905
  260MOL0     H35845   3.276  11.215   6.191  0.8161 -1.0017  0.2061
  260MOL0     H35846   3.099  11.015   6.036  1.1268 -1.8998  0.4789
  260MOL0     H35847   3.139  11.020   6.214  0.3344  1.6319  0.6576
  260MOL0     H35848   2.998  11.245   6.078  1.2934 -1.0296 -0.4258
  260MOL0     H35849   3.029  11.226   6.249 -0.5374  2.6698 -1.0986
  260MOL0     H35850   2.857  11.039   6.067 -0.7343  1.5344  0.2666
  260MOL0     H35851   2.786  11.173   6.166  1.0897  0.7529 -1.3957
  260MOL0     H35852   2.941  10.956   6.301  1.2909  1.1266  0.8308
  260MOL0     H35853   2.833  11.073   6.371  0.0447 -0.0411 -0.1079
  260MOL0     H35854   2.731  10.863   6.179  0.5957 -2.5793  0.8123
  260MOL0     H35855   2.641  10.967   6.279  1.1420  1.1057 -0.6371
  260MOL0     H35856   2.829  10.730   6.358 -0.9758 -0.9612  0.0296
  260MOL0     H35857   2.662  10.752   6.400  1.5608 -2.7322 -0.2083
  260MOL0     H35858   2.720  10.952   6.558  1.3765  1.5328  1.0812
  260MOL0     H35859   2.883  10.915   6.519 -0.2660  0.9965 -0.8314
  260MOL0     H35860   3.478  11.255   6.010  2.9277  0.5310  1.3571
  260MOL0     H35861   3.634  11.484   6.008  0.3947  1.2214 -0.4630
  260MOL0     H35862   3.751  11.836   6.019  1.2259  0.3148  0.1694
  260MOL0     H35863   3.877  12.050   6.036 -1.3963  2.5971  1.8628
  260MOL0     H35864   2.919  11.670   6.850 -0.0718 -2.0870  2.0877
  260MOL0     H35865   2.916  11.516   7.003  1.2936 -0.2535 -0.5062
  260MOL0     H35866   3.281  11.120   7.116  1.7813 -0.5794  1.3129
  260MOL0     H35867   3.315  10.947   7.286 -0.8311 -0.4070  1.7703
  260MOL0     H35868   3.018  10.655   7.528 -4.0700 -1.7092 -0.0862
  260MOL0     H35869   2.943  10.771   7.449  0.0741  0.3787 -0.3434
  260MOL0     H35870   2.964  10.626   7.226 -0.5116 -1.1962 -0.0688
  260MOL0     H35871   2.884  10.550   7.367 -0.8102  2.6046  0.3873
  260MOL0     H35872   3.154  10.494   7.251  0.4446  1.5136  1.5025
  260MOL0     H35873   3.119  10.453   7.424 -1.9599 -0.8963  2.1089
  260MOL0     H35874   2.966  10.352   7.177  3.0159  2.4108 -0.4065
  260MOL0     H35875   2.921  10.328   7.344 -1.5549  0.0524 -0.7496
  260MOL0     H35876   3.263  10.067   7.328 -0.1333 -0.2768 -0.3170
  260MOL0     H35877   2.900  10.856   7.264 -1.4434  2.1464 -1.0544
  260MOL0     H35878   2.796  11.004   7.029 -1.1878  2.4021 -1.1649
  260MOL0     H35879   2.739  11.003   7.197  1.1332 -0.6821  0.4648
  260MOL0     H35880   2.783  11.154   7.121 -0.1080  0.5226  0.8421
  261MOL0     O35881   9.660   4.670  10.028 -0.4075 -0.0009 -0.4372
  261MOL0     C35882   9.588   4.763  10.075  0.3022  0.8009  0.6097
  261MOL0     O35883   9.630   4.886  10.124  0.8496  0.3271 -0.7464
  261MOL0     C35884   9.763   4.917  10.129 -0.1796  0.2887  0.1945
  261MOL0     C35885   9.871   4.844  10.175  0.4183 -0.2085 -0.4909
  261MOL0     C35886  10.000   4.884  10.140  0.2950 -0.0108 -0.3329
  261MOL0     C35887  10.031   5.001  10.077 -0.1052 -0.4707  0.2690
  261MOL0     O35888  10.163   5.013  10.049  1.0397 -0.0110 -0.3099
  261MOL0     C35889  10.221   5.127   9.976 -0.4227  0.1687 -0.1432
  261MOL0     C35890  10.374   5.111   9.979 -0.9007  0.0596 -0.7045
  261MOL0     C35891  10.422   5.117  10.116  0.3959  0.1371 -0.7031
  261MOL0     C35892  10.575   5.102  10.114 -0.3715 -0.1994 -0.3037
  261MOL0     C35893  10.633   5.139  10.251  0.1597  0.4458 -0.9961
  261MOL0     C35894  10.721   5.269  10.234  0.3901 -0.0383 -0.1694
  261MOL0     C35895  10.812   5.309  10.358  0.2745  0.6172 -0.6110
  261MOL0     C35896  10.739   5.287  10.497  0.4655 -0.9676 -0.3318
  261MOL0     N35897  10.797   5.377  10.601  0.3194  0.4538  0.5748
  261MOL0     C35898  10.926   5.433  10.608  0.9321  0.0354  0.4528
  261MOL0     C35899  10.924   5.517  10.712 -0.4123 -0.4975  0.3205
  261MOL0     C35900  11.032   5.609  10.753 -1.0940 -0.5158 -0.2890
  261MOL0     C35901  11.132   5.542  10.847  0.4137 -0.1717 -0.2536
  261MOL0     C35902  11.044   5.500  10.969  0.6094 -0.1214  0.7054
  261MOL0     C35903  11.132   5.444  11.076  0.2798 -0.5401 -0.3341
  261MOL0     O35904  11.066   5.409  11.201 -0.8181 -0.1027 -0.5649
  261MOL0     C35905  11.143   5.345  11.297  0.0229 -0.1122 -0.7464
  261MOL0     C35906  11.283   5.349  11.311 -0.5860  0.3636 -0.3954
  261MOL0     C35907  11.343   5.276  11.417  0.5504 -0.1737  0.2010
  261MOL0     C35908  11.484   5.301  11.438 -0.1613  0.9268 -0.4421
  261MOL0     C35909  11.265   5.205  11.511 -1.2833  0.0762 -0.5094
  261MOL0     C35910  11.322   5.130  11.633 -0.4874 -0.4331  0.0069
  261MOL0     O35911  11.227   5.064  11.706  0.0713 -0.5448 -0.5965
  261MOL0     C35912  11.235   4.983  11.821  0.4256  0.0426  0.0029
  261MOL0     C35913  11.350   4.959  11.897  0.0288 -0.7597 -0.3037
  261MOL0     C35914  11.346   4.875  12.015 -0.2857  0.1492  0.0665
  261MOL0     C35915  11.224   4.821  12.058 -0.2719 -0.1225  0.3041
  261MOL0     O35916  11.213   4.744  12.175  0.9879 -0.0592  0.2605
  261MOL0     C35917  11.294   4.632  12.193  0.6672  0.5433 -0.4761
  261MOL0     C35918  11.243   4.520  12.106  0.0706  0.8566 -0.3657
  261MOL0     C35919  11.215   4.397  12.197 -0.0583 -0.0715  0.6757
  261MOL0     C35920  11.200   4.269  12.110 -0.3539 -0.2038  0.4970
  261MOL0     C35921  11.210   4.135  12.192  0.5695  0.3281 -0.6534
  261MOL0     C35922  11.333   4.117  12.281  0.0252 -0.4756  0.0111
  261MOL0     C35923  11.452   4.155  12.202 -0.1419  0.4350 -0.2951
  261MOL0     C35924  11.580   4.122  12.276 -0.6429 -0.4984 -0.8122
  261MOL0    Cl35925  11.726   4.129  12.173  0.2968  0.3203  0.6264
  261MOL0     C35926  11.108   4.869  11.996  0.5643 -1.2501  0.7403
  261MOL0     C35927  11.113   4.931  11.866 -0.3454  0.3361 -0.7695
  261MOL0     O35928  11.438   5.128  11.660  0.0957 -0.8382 -0.1004
  261MOL0     C35929  11.127   5.209  11.491  0.1537  0.9090 -0.2016
  261MOL0     C35930  11.072   5.274  11.389 -0.5477 -0.4627 -0.0558
  261MOL0     N35931  10.802   5.508  10.768 -0.3579 -0.1573  0.7902
  261MOL0     N35932  10.723   5.425  10.709 -0.6385  0.1362 -0.0423
  261MOL0     C35933   9.921   5.076  10.035  0.0582 -0.9615 -0.6098
  261MOL0     C35934   9.794   5.043  10.068  1.1895 -0.0258  0.5399
  261MOL0     C35935   9.441   4.746  10.080 -0.8931  0.4195  0.4805
  261MOL0     C35936   9.369   4.836  10.166 -0.4676 -0.2385 -0.6105
  261MOL0     C35937   9.239   4.827  10.180  0.5868  0.2074  0.5786
  261MOL0     C35938   9.159   4.728  10.113 -0.0240  0.2720  0.5110
  261MOL0     O35939   9.020   4.734  10.142  0.4465 -0.0791 -0.7196
  261MOL0     C35940   8.940   4.621  10.108  0.6994 -0.0467  0.5590
  261MOL0     C35941   8.871   4.652   9.978 -0.3372  0.4998  0.2478
  261MOL0     C35942   8.761   4.551   9.936  0.5894  0.0043 -0.2068
  261MOL0     C35943   8.803   4.419   9.886  0.6993  0.2979  0.3091
  261MOL0     C35944   8.899   4.421   9.769  0.1149  0.7154  0.4129
  261MOL0     C35945   8.973   4.432   9.671 -0.0862 -0.2841  0.3428
  261MOL0     C35946   9.228   4.635  10.037  0.8666  0.1482 -0.7653
  261MOL0     C35947   9.369   4.644  10.005  0.0789 -0.8237  0.0786
  261MOL0     C35948   9.437   4.550   9.901 -0.7577 -0.5765 -0.0721
  261MOL0     H35949   9.840   4.758  10.234 -1.2417 -0.0114 -1.0162
  261MOL0     H35950  10.081   4.819  10.174  1.5014 -0.3860 -3.5343
  261MOL0     H35951  10.188   5.215  10.034 -0.2482  0.1742 -0.0516
  261MOL0     H35952  10.183   5.121   9.874 -2.9752 -4.2251  0.8206
  261MOL0     H35953  10.403   5.012   9.942  3.0947  0.2604  1.3104
  261MOL0     H35954  10.418   5.192   9.921  3.3846 -1.0862  0.5537
  261MOL0     H35955  10.370   5.200  10.164 -1.4212 -1.1914 -0.2960
  261MOL0     H35956  10.388   5.034  10.178 -1.5890  0.8016 -0.8468
  261MOL0     H35957  10.597   4.996  10.098  0.5034 -0.0615 -0.0192
  261MOL0     H35958  10.613   5.162  10.031  0.6518 -2.8343 -1.8617
  261MOL0     H35959  10.708   5.063  10.274 -1.8057 -1.3742 -0.3192
  261MOL0     H35960  10.557   5.141  10.330 -0.2461  0.3607 -1.3792
  261MOL0     H35961  10.790   5.263  10.149  3.8246 -1.2892  2.4854
  261MOL0     H35962  10.661   5.359  10.220  0.6011 -0.0147 -1.0092
  261MOL0     H35963  10.865   5.403  10.342  1.4485 -0.2224 -1.9111
  261MOL0     H35964  10.884   5.226  10.353 -0.4596 -0.0134 -0.9272
  261MOL0     H35965  10.631   5.302  10.489  0.5392 -0.4589 -0.4035
  261MOL0     H35966  10.757   5.184  10.530  1.6356 -0.3133  1.1457
  261MOL0     H35967  11.000   5.417  10.531 -1.6951 -0.9001 -2.0838
  261MOL0     H35968  10.980   5.687  10.809 -1.5146 -0.1575 -1.1568
  261MOL0     H35969  11.086   5.649  10.667 -1.4422 -0.2266 -0.3758
  261MOL0     H35970  11.174   5.454  10.797 -1.1903 -0.2267 -1.6077
  261MOL0     H35971  11.207   5.621  10.865  0.8113 -0.0803 -2.0435
  261MOL0     H35972  10.984   5.581  11.011 -0.5972  0.3330 -1.7066
  261MOL0     H35973  10.980   5.421  10.927  2.7246 -1.4324 -0.2105
  261MOL0     H35974  11.191   5.363  11.031 -1.1291 -2.4915  1.1787
  261MOL0     H35975  11.201   5.525  11.102 -0.8315  0.3657 -0.1267
  261MOL0     H35976  11.339   5.405  11.237  2.2344 -0.9300  0.6072
  261MOL0     H35977  11.499   5.354  11.532 -2.8442  1.2042 -0.0995
  261MOL0     H35978  11.531   5.361  11.359 -3.2461  2.8427 -0.9974
  261MOL0     H35979  11.541   5.208  11.438 -0.9580  0.3653  2.1591
  261MOL0     H35980  11.444   4.995  11.858  0.4826  0.9442  2.1355
  261MOL0     H35981  11.436   4.851  12.072 -1.2312  0.4482  1.7474
  261MOL0     H35982  11.399   4.652  12.170  0.9016 -1.3900 -1.2369
  261MOL0     H35983  11.264   4.623  12.298 -0.1510 -0.6384 -0.7901
  261MOL0     H35984  11.151   4.557  12.059  1.0675  0.6903 -2.5675
  261MOL0     H35985  11.297   4.481  12.018  0.2619 -0.9687  0.5059
  261MOL0     H35986  11.124   4.427  12.251 -1.1987  0.2208 -1.3187
  261MOL0     H35987  11.304   4.385  12.260  1.0723  3.0286 -0.1310
  261MOL0     H35988  11.273   4.270  12.029 -1.0274 -1.7514 -0.1814
  261MOL0     H35989  11.097   4.263  12.073 -0.0701  1.1034 -0.5509
  261MOL0     H35990  11.122   4.128  12.257  1.0795  0.6042  0.0889
  261MOL0     H35991  11.221   4.046  12.130  3.3447 -1.8772  2.6137
  261MOL0     H35992  11.326   4.014  12.315  1.0137 -0.8807 -0.9792
  261MOL0     H35993  11.333   4.182  12.370 -0.4539 -1.7297  0.9617
  261MOL0     H35994  11.454   4.260  12.170 -0.3353  1.4587  2.7735
  261MOL0     H35995  11.460   4.102  12.106 -0.2167 -0.4623  0.1842
  261MOL0     H35996  11.575   4.022  12.320 -1.7876  0.0042  0.2595
  261MOL0     H35997  11.582   4.199  12.354 -1.6691 -0.3507 -0.9171
  261MOL0     H35998  11.009   4.839  12.028 -1.5921  0.9800 -3.0687
  261MOL0     H35999  11.018   4.945  11.816 -0.3778  0.2978 -0.7182
  261MOL0     H36000  11.049   5.178  11.559 -1.8044  0.7710 -2.3703
  261MOL0     H36001  10.964   5.272  11.397 -0.4228 -0.7203  2.3997
  261MOL0     H36002   9.930   5.172   9.984 -0.5169  0.3667  1.6199
  261MOL0     H36003   9.717   5.104  10.022  0.9972 -0.3528  0.4299
  261MOL0     H36004   9.423   4.913  10.221  3.0809 -0.5124 -3.3337
  261MOL0     H36005   9.194   4.902  10.244  1.9115  0.7195  0.9385
  261MOL0     H36006   9.001   4.530  10.110 -0.9753 -1.2182  2.2135
  261MOL0     H36007   8.857   4.614  10.179  0.4211  1.7847  0.4475
  261MOL0     H36008   8.949   4.662   9.902  1.2594  0.4334  1.8131
  261MOL0     H36009   8.819   4.748   9.984  0.3269  0.8381  0.8002
  261MOL0     H36010   8.704   4.539  10.028  1.6174 -2.5886  0.1642
  261MOL0     H36011   8.696   4.597   9.861 -1.3540 -1.9352  0.1636
  261MOL0     H36012   8.713   4.363   9.857  1.1497  0.1693 -0.8966
  261MOL0     H36013   8.851   4.371   9.972 -3.1347 -0.2140  2.3605
  261MOL0     H36014   9.036   4.429   9.585 -0.3667  4.3110 -0.3057
  261MOL0     H36015   9.168   4.558   9.990  1.4573 -0.8958  0.1272
  261MOL0     H36016   9.491   4.465   9.944 -0.1595 -0.2540 -0.1745
  261MOL0     H36017   9.365   4.508   9.830 -0.5396  2.9389 -2.6462
  261MOL0     H36018   9.515   4.597   9.839  1.8190  0.3936  3.6036
  262MOL0     O36019   2.823   7.840   9.849 -0.7339  0.7329 -0.5428
  262MOL0     C36020   2.915   7.829   9.940  0.3295  0.0596 -0.8542
  262MOL0     O36021   3.007   7.923   9.973 -0.1525 -0.1452  0.3954
  262MOL0     C36022   3.032   8.023   9.887  0.3993  0.4817 -0.5002
  262MOL0     C36023   3.041   8.146   9.941 -0.6559 -0.3981  0.5592
  262MOL0     C36024   3.064   8.260   9.866  0.6243  0.2038 -0.6836
  262MOL0     C36025   3.097   8.246   9.732  0.6629 -0.5302  0.2038
  262MOL0     O36026   3.141   8.354   9.662  0.1147 -0.1263 -0.1813
  262MOL0     C36027   3.221   8.451   9.731 -0.2293 -0.5536 -0.0313
  262MOL0     C36028   3.317   8.499   9.618 -0.2674  0.5401 -0.4838
  262MOL0     C36029   3.261   8.589   9.531  0.8763  0.0958 -0.1319
  262MOL0     C36030   3.364   8.663   9.454 -0.2645 -0.0921  0.2960
  262MOL0     C36031   3.472   8.570   9.390 -0.3804  0.0239  0.6403
  262MOL0     C36032   3.572   8.658   9.313 -1.2358 -0.4540 -0.4216
  262MOL0     C36033   3.699   8.578   9.294  0.5809  0.3794  0.1471
  262MOL0     C36034   3.820   8.652   9.233 -0.4303  0.5929 -0.3419
  262MOL0     N36035   3.862   8.754   9.317  0.8891  0.3848 -0.3765
  262MOL0     C36036   3.887   8.875   9.269  0.6011 -0.2248  0.0716
  262MOL0     C36037   3.942   8.944   9.369 -0.4019  0.1273 -0.2173
  262MOL0     C36038   3.993   9.077   9.370  0.5031 -0.0806 -0.1098
  262MOL0     C36039   4.113   9.103   9.282 -0.6808 -0.8583  0.1518
  262MOL0     C36040   4.134   9.247   9.241 -0.1832 -0.5729  0.5100
  262MOL0     C36041   4.274   9.271   9.175  0.0605 -0.0975 -0.3914
  262MOL0     O36042   4.368   9.271   9.286  0.2260  0.0941 -0.0268
  262MOL0     C36043   4.487   9.345   9.259  0.3792  0.6557 -0.1369
  262MOL0     C36044   4.555   9.401   9.365  0.0708  0.0695  0.6791
  262MOL0     C36045   4.662   9.488   9.348 -0.9815  0.0000  0.0740
  262MOL0     C36046   4.709   9.564   9.464 -0.8713  1.0988  0.0905
  262MOL0     C36047   4.717   9.515   9.224  0.0543 -1.1081 -0.1523
  262MOL0     C36048   4.840   9.594   9.199 -0.3245 -0.2280  0.2928
  262MOL0     O36049   4.871   9.692   9.288  0.3604 -0.1796  0.1108
  262MOL0     C36050   4.956   9.790   9.243 -0.1347  0.2332 -0.0956
  262MOL0     C36051   4.906   9.919   9.275  0.0126  0.3308 -1.3242
  262MOL0     C36052   4.970  10.035   9.219  1.4447 -0.2212 -1.1267
  262MOL0     C36053   5.083  10.019   9.142  0.7401 -0.4902 -1.3088
  262MOL0     O36054   5.126  10.131   9.083  0.0116  0.1575 -0.1974
  262MOL0     C36055   5.267  10.144   9.067 -0.2058  0.1901  0.3144
  262MOL0     C36056   5.293  10.286   9.018  0.0010 -0.0792 -0.4055
  262MOL0     C36057   5.444  10.308   9.010 -0.2973 -0.7560 -0.8291
  262MOL0     C36058   5.497  10.270   8.867  0.9873  0.7514 -0.4387
  262MOL0     C36059   5.639  10.303   8.854  0.4318  0.2584  0.0967
  262MOL0     C36060   5.688  10.243   8.722 -0.0175 -0.4418 -0.9119
  262MOL0     C36061   5.825  10.302   8.693 -0.7655  0.0969  0.0652
  262MOL0     C36062   5.890  10.246   8.568  0.1181 -0.6049  0.1301
  262MOL0    Cl36063   6.062  10.297   8.552 -0.4822  0.0260 -0.2480
  262MOL0     C36064   5.142   9.892   9.118  0.6788  0.3081  0.1135
  262MOL0     C36065   5.075   9.777   9.160  0.7685 -0.6021  0.0817
  262MOL0     O36066   4.893   9.568   9.087 -0.2995  0.1566  0.2616
  262MOL0     C36067   4.652   9.443   9.119 -0.6581 -0.3923  0.8209
  262MOL0     C36068   4.544   9.360   9.133 -0.4900 -0.5255 -0.0126
  262MOL0     N36069   3.931   8.874   9.484  0.4177  0.5699  0.2367
  262MOL0     N36070   3.886   8.751   9.453 -0.2587  0.6422  0.0926
  262MOL0     C36071   3.094   8.118   9.673  0.7375 -0.1193  0.1277
  262MOL0     C36072   3.060   8.004   9.750 -1.1917  0.1872 -0.3129
  262MOL0     C36073   2.905   7.711  10.023  0.3245 -0.4130 -0.7525
  262MOL0     C36074   2.817   7.606   9.981 -0.8341  0.1931 -0.9300
  262MOL0     C36075   2.789   7.493  10.068 -0.7047 -0.1599 -0.0125
  262MOL0     C36076   2.856   7.475  10.186 -0.7687 -1.0303 -0.1704
  262MOL0     O36077   2.827   7.360  10.256 -0.1817 -0.6373 -0.1962
  262MOL0     C36078   2.941   7.280  10.279 -0.6128  0.1556 -0.1694
  262MOL0     C36079   3.004   7.203  10.157  0.0166  0.2447  0.0407
  262MOL0     C36080   3.132   7.135  10.200 -0.7757  0.2503 -0.5600
  262MOL0     C36081   3.201   7.076  10.074 -0.0565 -0.0516  0.1532
  262MOL0     C36082   3.292   7.174  10.016 -0.1611  0.5847 -0.3570
  262MOL0     C36083   3.354   7.262   9.963  0.9110 -0.3656 -0.7165
  262MOL0     C36084   2.947   7.571  10.227 -0.1814  0.1955  0.2092
  262MOL0     C36085   2.973   7.693  10.151 -0.0526 -0.6011  0.5368
  262MOL0     C36086   3.079   7.778  10.201  0.2200 -0.0204 -0.7943
  262MOL0     H36087   3.008   8.157  10.044 -2.9749  0.4908 -0.2064
  262MOL0     H36088   3.055   8.360   9.908  3.3800  0.5318 -0.7054
  262MOL0     H36089   3.277   8.405   9.813 -2.2892 -1.3642  0.9627
  262MOL0     H36090   3.165   8.532   9.778  0.4275  1.0839 -1.9094
  262MOL0     H36091   3.396   8.554   9.670  0.1893  0.2291 -0.8462
  262MOL0     H36092   3.367   8.415   9.569  0.8050  0.2496  1.0123
  262MOL0     H36093   3.192   8.538   9.464 -0.3767 -0.5440  1.5645
  262MOL0     H36094   3.200   8.664   9.583 -1.4505  0.8605 -3.5863
  262MOL0     H36095   3.315   8.721   9.375  0.6943  1.0804  0.5317
  262MOL0     H36096   3.416   8.732   9.521 -3.1762  0.2177  2.4211
  262MOL0     H36097   3.432   8.501   9.314 -0.3976 -1.4703  1.9460
  262MOL0     H36098   3.520   8.516   9.472 -1.3975 -3.2547 -0.7342
  262MOL0     H36099   3.524   8.699   9.224 -4.2959  2.0193  2.1375
  262MOL0     H36100   3.596   8.743   9.377 -0.1520  0.5656 -2.1011
  262MOL0     H36101   3.668   8.491   9.236  1.4893 -0.8069  1.3929
  262MOL0     H36102   3.728   8.546   9.394 -2.8770  0.5664  1.3222
  262MOL0     H36103   3.907   8.591   9.206 -1.5897 -0.7493 -1.1841
  262MOL0     H36104   3.783   8.695   9.139 -1.3653  0.9239  0.1671
  262MOL0     H36105   3.874   8.899   9.164 -2.3392  2.9617  1.0074
  262MOL0     H36106   4.014   9.115   9.470 -2.7024 -2.7146  1.7435
  262MOL0     H36107   3.911   9.136   9.326  0.4717  0.3204  0.4739
  262MOL0     H36108   4.206   9.067   9.326  1.1862  0.4281 -2.4481
  262MOL0     H36109   4.107   9.041   9.192  2.1649  1.2964 -1.6936
  262MOL0     H36110   4.056   9.276   9.170  0.5737  0.7511  0.1903
  262MOL0     H36111   4.132   9.322   9.320  1.5758 -1.2514  1.2532
  262MOL0     H36112   4.300   9.198   9.098  2.1774  1.8364 -1.5996
  262MOL0     H36113   4.272   9.368   9.124  0.8648 -0.9974 -2.2157
  262MOL0     H36114   4.525   9.397   9.469  3.4791 -0.2922  1.7567
  262MOL0     H36115   4.638   9.544   9.545 -4.5702  0.0940 -3.0779
  262MOL0     H36116   4.713   9.673   9.452  0.9914  1.1620  1.0343
  262MOL0     H36117   4.808   9.532   9.496 -1.7861 -1.8414  0.3388
  262MOL0     H36118   4.810   9.929   9.325  0.0312 -3.4541 -0.1978
  262MOL0     H36119   4.922  10.129   9.245  1.6067 -0.4066 -0.1205
  262MOL0     H36120   5.320  10.140   9.162 -1.4050  2.4193  1.1551
  262MOL0     H36121   5.307  10.077   8.991  1.3983  1.3974  0.0322
  262MOL0     H36122   5.247  10.302   8.920 -0.5726  1.7700  0.1297
  262MOL0     H36123   5.256  10.359   9.090  0.5243  0.2371 -0.4543
  262MOL0     H36124   5.502  10.246   9.079 -1.1470  0.5324  1.1110
  262MOL0     H36125   5.461  10.411   9.042 -3.6898 -0.0169 -1.1005
  262MOL0     H36126   5.445  10.313   8.781  0.5084  2.8547  0.8237
  262MOL0     H36127   5.490  10.161   8.859 -1.9254  0.8190  0.2038
  262MOL0     H36128   5.645  10.412   8.864 -0.4523  0.2919  0.3248
  262MOL0     H36129   5.706  10.253   8.925  0.3726 -0.1571 -0.1386
  262MOL0     H36130   5.608  10.262   8.649 -0.7947 -1.7145 -0.4262
  262MOL0     H36131   5.708  10.138   8.743  3.0650  0.2918  0.4329
  262MOL0     H36132   5.891  10.287   8.779 -2.2691 -1.0361  1.0669
  262MOL0     H36133   5.800  10.405   8.664  0.6492  0.1148 -1.2157
  262MOL0     H36134   5.845  10.283   8.476  2.5478 -2.6136 -2.0128
  262MOL0     H36135   5.891  10.137   8.574  2.3421 -0.5881  1.2659
  262MOL0     H36136   5.237   9.887   9.066  0.0727  1.6068 -1.2034
  262MOL0     H36137   5.109   9.681   9.122 -0.3069 -1.1659  0.5044
  262MOL0     H36138   4.684   9.445   9.015 -2.4079 -3.0799  0.1089
  262MOL0     H36139   4.499   9.310   9.048 -2.7168 -0.0300  0.8211
  262MOL0     H36140   3.120   8.103   9.569  1.8757 -0.7688  0.4953
  262MOL0     H36141   3.064   7.905   9.705  2.5468  0.5627 -1.1377
  262MOL0     H36142   2.773   7.612   9.882 -2.0446  0.0531 -0.4190
  262MOL0     H36143   2.712   7.417  10.055 -0.2260 -0.7793  0.7196
  262MOL0     H36144   3.020   7.340  10.323 -3.0375  3.9099 -0.4676
  262MOL0     H36145   2.915   7.210  10.359  2.0750  1.3890  1.9438
  262MOL0     H36146   3.031   7.275  10.079  3.0588 -1.4912 -0.6622
  262MOL0     H36147   2.929   7.141  10.106 -1.5162  2.7994 -1.0067
  262MOL0     H36148   3.201   7.202  10.253  0.2391 -0.2743 -1.1759
  262MOL0     H36149   3.098   7.052  10.263  0.0748 -2.1170 -3.0232
  262MOL0     H36150   3.129   7.040  10.000 -0.0723  0.5394 -0.1231
  262MOL0     H36151   3.270   6.995  10.098  0.2844 -0.6589 -2.5451
  262MOL0     H36152   3.387   7.347   9.907 -1.3551  0.6247 -0.6507
  262MOL0     H36153   3.004   7.549  10.316  2.4543 -1.2014 -1.6698
  262MOL0     H36154   3.050   7.883  10.211 -2.2660 -0.5201 -1.9463
  262MOL0     H36155   3.127   7.737  10.290  1.9843  2.2524 -0.6169
  262MOL0     H36156   3.155   7.790  10.124 -0.8953  0.5788 -1.8460
  263MOL0     O36157   0.914   9.582   5.086 -0.5956  0.4716  0.1712
  263MOL0     C36158   0.887   9.574   5.205 -0.0908 -0.0720 -0.7522
  263MOL0     O36159   0.974   9.595   5.305  0.1413 -0.2296  0.4489
  263MOL0     C36160   1.106   9.594   5.272 -0.2801  0.3872  0.4232
  263MOL0     C36161   1.163   9.473   5.296 -1.8767 -0.5565 -0.1821
  263MOL0     C36162   1.299   9.456   5.266 -0.5135  0.0795 -0.1211
  263MOL0     C36163   1.374   9.561   5.213  0.2353 -0.5558  0.2393
  263MOL0     O36164   1.504   9.544   5.192 -0.8983  0.9024  0.2084
  263MOL0     C36165   1.540   9.473   5.070 -1.0861  0.5341 -0.1547
  263MOL0     C36166   1.694   9.480   5.042  0.4183 -0.7100  0.5075
  263MOL0     C36167   1.742   9.629   5.022  0.3297  0.8088  0.3707
  263MOL0     C36168   1.714   9.664   4.879  1.0291 -0.2565  0.2435
  263MOL0     C36169   1.840   9.692   4.793 -0.2038  0.4444 -0.6800
  263MOL0     C36170   1.868   9.576   4.699  0.1034  0.0114  0.2026
  263MOL0     C36171   1.958   9.605   4.574 -0.0209 -0.6828 -0.1077
  263MOL0     C36172   1.945   9.502   4.470  0.5063  0.1245  0.4925
  263MOL0     N36173   2.001   9.526   4.337 -0.5628 -0.6189 -0.9798
  263MOL0     C36174   2.138   9.536   4.328 -0.2470 -0.1418 -0.0727
  263MOL0     C36175   2.157   9.505   4.200  0.2341 -0.7817 -0.6328
  263MOL0     C36176   2.285   9.494   4.134 -1.2861 -0.6199  0.2129
  263MOL0     C36177   2.332   9.351   4.134  0.2141 -0.7969 -0.4003
  263MOL0     C36178   2.427   9.333   4.262 -0.2870 -0.0095 -0.2024
  263MOL0     C36179   2.458   9.189   4.285 -0.0460  0.8121  0.6372
  263MOL0     O36180   2.348   9.110   4.330  0.0866  0.0471  0.3314
  263MOL0     C36181   2.337   8.979   4.281 -0.2597 -0.6060 -0.1848
  263MOL0     C36182   2.417   8.883   4.347 -0.3571 -0.2399  0.3703
  263MOL0     C36183   2.420   8.750   4.299 -0.3300  0.3423  0.7604
  263MOL0     C36184   2.526   8.662   4.371 -0.3258 -0.0898 -0.3579
  263MOL0     C36185   2.340   8.709   4.188  0.1037  0.6656  0.9611
  263MOL0     C36186   2.334   8.563   4.138 -0.4302 -0.2927 -0.4463
  263MOL0     O36187   2.273   8.546   4.016 -0.1840  0.3116 -0.3382
  263MOL0     C36188   2.289   8.423   3.954  0.0633 -0.5120  0.3268
  263MOL0     C36189   2.183   8.383   3.869  0.0972  0.0169  0.3835
  263MOL0     C36190   2.194   8.266   3.797 -0.4166  0.0947 -0.1774
  263MOL0     C36191   2.298   8.174   3.819  0.7240  0.1779 -0.8874
  263MOL0     O36192   2.293   8.059   3.741  0.8422  0.3580 -0.2750
  263MOL0     C36193   2.394   7.958   3.769  0.3596  1.0264  0.0215
  263MOL0     C36194   2.365   7.836   3.679  0.2359 -0.1911 -0.1685
  263MOL0     C36195   2.486   7.742   3.671 -0.7793  1.1713  0.0591
  263MOL0     C36196   2.438   7.615   3.592  0.0659 -1.5327  0.1800
  263MOL0     C36197   2.553   7.520   3.562  0.4356  1.0143 -0.6865
  263MOL0     C36198   2.506   7.417   3.446 -0.3943  0.1097 -0.5976
  263MOL0     C36199   2.602   7.301   3.425 -0.7001 -0.0249 -0.8641
  263MOL0     C36200   2.540   7.181   3.351  0.1540 -0.7826  0.1394
  263MOL0    Cl36201   2.507   7.252   3.197  0.0233  0.1992 -0.0099
  263MOL0     C36202   2.408   8.216   3.899  0.8832 -0.1490  0.3374
  263MOL0     C36203   2.404   8.340   3.958  0.7870 -0.0290  0.1074
  263MOL0     O36204   2.371   8.470   4.211 -0.0289 -0.0862 -0.0218
  263MOL0     C36205   2.261   8.798   4.132  0.3152 -0.5221 -0.0609
  263MOL0     C36206   2.263   8.937   4.173 -0.4864 -0.1557  0.5368
  263MOL0     N36207   2.036   9.473   4.132 -0.1500  0.5253 -0.1031
  263MOL0     N36208   1.942   9.488   4.221 -0.2501 -0.5622  0.1757
  263MOL0     C36209   1.315   9.687   5.193  0.1489 -0.2677 -0.8822
  263MOL0     C36210   1.181   9.705   5.229 -0.6105 -0.6702  0.1130
  263MOL0     C36211   0.758   9.528   5.258  0.0983  0.0997  0.4039
  263MOL0     C36212   0.676   9.435   5.184  0.2807  0.5846  0.5260
  263MOL0     C36213   0.564   9.381   5.229 -0.1415 -0.4542 -0.0560
  263MOL0     C36214   0.504   9.421   5.347  0.6558 -0.7700 -0.6769
  263MOL0     O36215   0.384   9.352   5.385  0.0522  0.2703  0.1980
  263MOL0     C36216   0.346   9.338   5.521  0.8809 -0.0876 -0.4082
  263MOL0     C36217   0.238   9.224   5.550 -0.3332 -0.1096  0.7801
  263MOL0     C36218   0.122   9.231   5.455  0.5407  0.5265  1.3172
  263MOL0     C36219  -0.017   9.257   5.509  0.3419  0.4860 -0.1702
  263MOL0     C36220  -0.019   9.366   5.596 -0.2540 -0.3800 -0.6503
  263MOL0     C36221  -0.007   9.467   5.664 -0.4303 -0.0123 -1.1111
  263MOL0     C36222   0.576   9.515   5.431  0.6368  0.5969  0.4779
  263MOL0     C36223   0.700   9.561   5.386  0.5601 -0.0718  1.0352
  263MOL0     C36224   0.776   9.642   5.489  0.2292 -1.1459  0.7986
  263MOL0     H36225   1.105   9.389   5.333 -3.2789  0.3660 -0.2170
  263MOL0     H36226   1.351   9.361   5.274  1.1704  1.0930  2.2954
  263MOL0     H36227   1.494   9.516   4.981  0.9651 -0.2768 -1.6643
  263MOL0     H36228   1.526   9.366   5.090 -0.1523  0.2879 -0.7694
  263MOL0     H36229   1.735   9.444   5.137 -0.3687 -0.8708  0.7952
  263MOL0     H36230   1.721   9.416   4.957  0.3180  0.3504 -0.3360
  263MOL0     H36231   1.679   9.703   5.072  1.2406  1.6099  0.3742
  263MOL0     H36232   1.847   9.639   5.050  0.9869  1.7669 -2.1766
  263MOL0     H36233   1.647   9.592   4.831 -0.4755  1.0641  0.2975
  263MOL0     H36234   1.655   9.756   4.875 -1.4392 -1.8094 -1.3114
  263MOL0     H36235   1.929   9.705   4.855 -0.4010  1.9686 -0.6806
  263MOL0     H36236   1.822   9.785   4.737 -1.0784 -1.7043 -4.3148
  263MOL0     H36237   1.928   9.497   4.744 -0.0468  0.4457  1.2023
  263MOL0     H36238   1.771   9.547   4.656  0.5359  1.7236 -2.0882
  263MOL0     H36239   2.064   9.613   4.596 -0.4724  1.0775  1.7103
  263MOL0     H36240   1.931   9.695   4.518  0.1402  0.6249  1.8439
  263MOL0     H36241   1.980   9.409   4.518 -0.6994 -0.8210 -0.3854
  263MOL0     H36242   1.841   9.487   4.441  0.7627 -0.0758 -0.3413
  263MOL0     H36243   2.216   9.565   4.399 -1.7730 -0.5375  1.8531
  263MOL0     H36244   2.366   9.557   4.173 -1.9687  0.1578  0.3818
  263MOL0     H36245   2.268   9.505   4.026  0.7205  2.1240  0.0673
  263MOL0     H36246   2.243   9.290   4.116 -0.6122  1.3718 -5.4594
  263MOL0     H36247   2.390   9.343   4.042  0.5334  2.7737 -0.6495
  263MOL0     H36248   2.516   9.393   4.244  0.5802 -1.5448 -1.2644
  263MOL0     H36249   2.377   9.359   4.356 -2.8703  2.4278 -2.1105
  263MOL0     H36250   2.504   9.157   4.190  1.0778  0.7540  1.1897
  263MOL0     H36251   2.533   9.189   4.364  0.1151  2.1678  0.5002
  263MOL0     H36252   2.466   8.908   4.441 -2.5192 -0.2552  1.5818
  263MOL0     H36253   2.573   8.592   4.301  1.0354 -0.2373  0.6626
  263MOL0     H36254   2.475   8.605   4.449  2.8238 -2.3369  0.2542
  263MOL0     H36255   2.599   8.721   4.427 -0.5875  1.0955 -1.2178
  263MOL0     H36256   2.085   8.428   3.860 -0.4014 -1.3263 -1.2293
  263MOL0     H36257   2.123   8.229   3.723  1.8536  0.7435 -2.8716
  263MOL0     H36258   2.494   8.002   3.755 -0.8144  4.2871  0.9292
  263MOL0     H36259   2.394   7.928   3.874  0.2473 -2.1552 -0.7925
  263MOL0     H36260   2.276   7.789   3.724 -0.2298  3.0537  2.7462
  263MOL0     H36261   2.357   7.886   3.582  1.0204 -0.1884 -0.2392
  263MOL0     H36262   2.534   7.717   3.765  0.0974 -1.8405 -1.0777
  263MOL0     H36263   2.563   7.792   3.610 -3.3568  3.0996 -1.9023
  263MOL0     H36264   2.385   7.632   3.498  0.0607 -2.6179 -0.0173
  263MOL0     H36265   2.368   7.567   3.660 -2.6344 -1.4064 -2.3560
  263MOL0     H36266   2.638   7.576   3.522  0.5873  2.2206  1.1941
  263MOL0     H36267   2.579   7.464   3.652 -1.7902  2.1069  0.7336
  263MOL0     H36268   2.483   7.469   3.353  1.0027 -0.5553 -1.3405
  263MOL0     H36269   2.420   7.364   3.488  2.2834 -3.9439  0.3628
  263MOL0     H36270   2.649   7.266   3.517  2.0759  2.0769 -1.3375
  263MOL0     H36271   2.687   7.342   3.370  0.1600  1.6128  1.5391
  263MOL0     H36272   2.441   7.155   3.389 -1.3347  1.9576 -1.5999
  263MOL0     H36273   2.610   7.097   3.341  2.2400  0.9102 -0.3684
  263MOL0     H36274   2.503   8.165   3.885  0.9727  0.4265 -1.2862
  263MOL0     H36275   2.494   8.369   4.010  1.9839 -1.8049 -0.8719
  263MOL0     H36276   2.198   8.767   4.049  4.1741 -1.1371 -3.0394
  263MOL0     H36277   2.198   9.006   4.119  0.8735  0.1757 -0.7350
  263MOL0     H36278   1.364   9.779   5.161  0.1655  0.1756  0.3512
  263MOL0     H36279   1.143   9.807   5.223  1.2967  0.0787  0.0821
  263MOL0     H36280   0.708   9.403   5.085  0.1541 -2.4692  1.3574
  263MOL0     H36281   0.511   9.313   5.163 -2.6558  0.5024  0.8168
  263MOL0     H36282   0.431   9.319   5.587  1.9413 -0.1412 -1.7440
  263MOL0     H36283   0.297   9.429   5.559  0.3190 -0.6502  0.2341
  263MOL0     H36284   0.224   9.232   5.658  0.6236  2.2893  0.7894
  263MOL0     H36285   0.298   9.135   5.531 -0.9691  0.1752 -3.5471
  263MOL0     H36286   0.128   9.307   5.377 -0.0265 -1.5347 -0.8467
  263MOL0     H36287   0.134   9.132   5.410 -2.3516  1.2785 -1.4372
  263MOL0     H36288  -0.040   9.164   5.561  3.3745 -0.3396 -0.0968
  263MOL0     H36289  -0.089   9.266   5.427 -2.1579 -1.6639  1.6262
  263MOL0     H36290   0.004   9.561   5.714 -2.5866  1.1566 -2.6439
  263MOL0     H36291   0.541   9.531   5.533 -0.6161  2.0989 -0.1525
  263MOL0     H36292   0.832   9.724   5.444 -0.1389 -1.4175 -0.1736
  263MOL0     H36293   0.698   9.688   5.551  1.6728  0.0232  1.8020
  263MOL0     H36294   0.849   9.587   5.549  0.2962 -1.3081  0.5682
  264MOL0     O36295   1.506   4.791   4.700 -0.2149  0.2203 -0.2644
  264MOL0     C36296   1.603   4.776   4.778  0.5804  0.3506  0.0504
  264MOL0     O36297   1.598   4.690   4.882 -0.4209  0.8896 -0.5045
  264MOL0     C36298   1.491   4.623   4.924  0.4482  0.0767 -0.5649
  264MOL0     C36299   1.495   4.488   4.931 -0.1133  0.3754  0.7152
  264MOL0     C36300   1.378   4.415   4.957  0.3833  0.7945 -0.7995
  264MOL0     C36301   1.258   4.492   4.972  0.0451 -0.3929  0.4281
  264MOL0     O36302   1.139   4.423   4.985  0.2744  0.0116  0.7396
  264MOL0     C36303   1.070   4.444   5.108  0.3765 -0.2127  0.0234
  264MOL0     C36304   0.950   4.349   5.119 -0.7981  0.1536  0.8931
  264MOL0     C36305   0.834   4.395   5.024  0.2077 -0.2569  0.2650
  264MOL0     C36306   0.738   4.296   4.953  0.8789 -0.6820 -0.1169
  264MOL0     C36307   0.803   4.176   4.882 -0.7544 -0.3065 -0.3664
  264MOL0     C36308   0.700   4.124   4.781  0.2852 -0.2430  0.0230
  264MOL0     C36309   0.753   4.029   4.675  0.0850  0.4169 -0.2470
  264MOL0     C36310   0.694   3.888   4.673 -0.8638 -0.4951  0.5436
  264MOL0     N36311   0.765   3.808   4.571  0.2640  0.1389  0.0659
  264MOL0     C36312   0.844   3.850   4.465 -0.4712  0.2172  0.1706
  264MOL0     C36313   0.835   3.746   4.379  0.7745 -0.1647 -0.2821
  264MOL0     C36314   0.909   3.726   4.250 -0.2755 -0.7907 -1.1523
  264MOL0     C36315   0.848   3.819   4.142 -0.0477  0.0332 -0.5025
  264MOL0     C36316   0.704   3.775   4.098  0.7289 -0.6578 -1.0083
  264MOL0     C36317   0.591   3.812   4.204 -0.7391 -0.6050 -0.4381
  264MOL0     O36318   0.604   3.949   4.241 -0.2519 -0.1339 -0.6875
  264MOL0     C36319   0.526   4.015   4.336  0.0250  0.1450 -0.2705
  264MOL0     C36320   0.446   3.945   4.429 -0.2836  0.6754 -0.3773
  264MOL0     C36321   0.374   4.015   4.530 -0.4501  0.3336 -0.7072
  264MOL0     C36322   0.313   3.930   4.643 -0.4283 -0.4519  0.8571
  264MOL0     C36323   0.379   4.159   4.525 -0.0977  0.2103 -0.2086
  264MOL0     C36324   0.299   4.244   4.618  0.2553 -0.0620 -1.0078
  264MOL0     O36325   0.334   4.379   4.645 -0.0794  0.2483  0.0322
  264MOL0     C36326   0.270   4.444   4.743 -0.8525  0.3792  0.4803
  264MOL0     C36327   0.131   4.441   4.777 -1.0779  0.6184 -0.1136
  264MOL0     C36328   0.070   4.496   4.888 -0.7434  0.5487 -1.3332
  264MOL0     C36329   0.149   4.600   4.955 -1.3068  0.0522  0.9624
  264MOL0     O36330   0.109   4.663   5.068 -0.7495  0.3089 -0.3093
  264MOL0     C36331  -0.007   4.606   5.137 -0.1887 -0.2295  0.5102
  264MOL0     C36332  -0.040   4.682   5.269 -0.0867 -0.9854  0.0746
  264MOL0     C36333  -0.047   4.836   5.242  0.3795  1.3610 -0.7104
  264MOL0     C36334  -0.166   4.869   5.151 -0.6332 -0.1263 -0.4958
  264MOL0     C36335  -0.200   5.026   5.152  0.1188 -0.3611  0.5824
  264MOL0     C36336  -0.089   5.123   5.097  0.3168  0.4197 -0.3719
  264MOL0     C36337  -0.070   5.077   4.950  0.6399 -0.4435 -0.1222
  264MOL0     C36338   0.001   5.189   4.873 -0.3138 -0.4395 -0.5361
  264MOL0    Cl36339  -0.134   5.311   4.842  0.0703 -0.3854 -0.0739
  264MOL0     C36340   0.282   4.616   4.919 -0.1246  1.5400 -1.2687
  264MOL0     C36341   0.338   4.539   4.821  0.3129 -0.3396  0.0582
  264MOL0     O36342   0.195   4.195   4.665 -0.4731  0.6781  0.8253
  264MOL0     C36343   0.462   4.218   4.428  0.6467 -0.3514 -0.4845
  264MOL0     C36344   0.523   4.148   4.324  0.5292 -0.5320 -0.1916
  264MOL0     N36345   0.766   3.640   4.436  0.5202  0.3180  0.0168
  264MOL0     N36346   0.729   3.679   4.557  0.3249  0.6464  0.2724
  264MOL0     C36347   1.261   4.637   4.980 -0.3834  0.3998 -0.6299
  264MOL0     C36348   1.375   4.699   4.952 -0.1061  0.5130  0.0036
  264MOL0     C36349   1.733   4.850   4.741 -0.5408  1.6144 -0.0242
  264MOL0     C36350   1.852   4.800   4.798  0.5317 -0.3134 -0.5172
  264MOL0     C36351   1.973   4.860   4.773  0.4211 -0.5664 -0.1755
  264MOL0     C36352   1.982   4.972   4.695 -0.9093 -1.6205  0.4383
  264MOL0     O36353   2.111   5.020   4.667  0.1349 -0.1097 -0.3025
  264MOL0     C36354   2.130   5.137   4.581  0.1490 -0.3339  0.5378
  264MOL0     C36355   2.277   5.163   4.552 -0.1648 -0.5065 -0.3491
  264MOL0     C36356   2.320   5.296   4.496  0.6831 -0.7861 -0.4853
  264MOL0     C36357   2.253   5.309   4.360 -0.8908 -0.7917  0.8007
  264MOL0     C36358   2.297   5.429   4.287 -0.6551  0.8573  0.0542
  264MOL0     C36359   2.331   5.529   4.226 -0.0205  0.6420  1.3277
  264MOL0     C36360   1.860   5.039   4.651  0.2835  0.3464  0.0926
  264MOL0     C36361   1.736   4.976   4.673  0.3229 -0.3739  0.0909
  264MOL0     C36362   1.617   5.048   4.605  0.7724 -0.0244  0.5687
  264MOL0     H36363   1.584   4.436   4.899  0.4754  2.0300 -0.4855
  264MOL0     H36364   1.387   4.308   4.972 -1.2385  0.8759  1.0864
  264MOL0     H36365   1.045   4.550   5.108 -1.5967 -0.6340  0.6742
  264MOL0     H36366   1.135   4.422   5.193 -0.8675 -1.5209  0.6937
  264MOL0     H36367   0.984   4.255   5.075 -1.1272  0.1555  0.6245
  264MOL0     H36368   0.903   4.345   5.218 -1.1182 -0.5053  0.7212
  264MOL0     H36369   0.777   4.475   5.072  0.6958 -0.5557  1.3918
  264MOL0     H36370   0.891   4.446   4.945  1.1277 -0.3451  0.8536
  264MOL0     H36371   0.671   4.266   5.035 -1.0476  0.4463 -1.2218
  264MOL0     H36372   0.676   4.350   4.881 -3.1829 -0.8393  2.8682
  264MOL0     H36373   0.833   4.114   4.966 -1.9947  1.1940  1.2591
  264MOL0     H36374   0.897   4.214   4.840 -0.9492 -0.5805 -1.0668
  264MOL0     H36375   0.617   4.074   4.832  2.0300 -4.8619 -1.1432
  264MOL0     H36376   0.644   4.198   4.723 -0.1797 -0.4507  0.1966
  264MOL0     H36377   0.859   4.013   4.696 -0.5957 -2.1235  1.9235
  264MOL0     H36378   0.751   4.074   4.576  0.8486 -1.2926 -1.0976
  264MOL0     H36379   0.709   3.838   4.770  3.4064  0.9715  0.8789
  264MOL0     H36380   0.587   3.888   4.652 -1.0562 -2.4478  1.3541
  264MOL0     H36381   0.907   3.937   4.445  0.4258 -0.9786 -2.7649
  264MOL0     H36382   0.896   3.624   4.213  1.7906 -1.6883  0.3927
  264MOL0     H36383   1.015   3.748   4.268 -0.3520 -1.7148  0.6486
  264MOL0     H36384   0.860   3.923   4.173  2.7576 -0.0198 -1.1728
  264MOL0     H36385   0.911   3.809   4.053  0.7294 -1.9861  0.2225
  264MOL0     H36386   0.690   3.832   4.006 -0.8540 -0.8573 -0.9090
  264MOL0     H36387   0.699   3.667   4.083 -3.6582 -1.1832  2.3319
  264MOL0     H36388   0.493   3.813   4.157 -1.8703  3.7789  1.4641
  264MOL0     H36389   0.600   3.746   4.291 -1.0557 -0.1975 -0.0897
  264MOL0     H36390   0.451   3.836   4.423 -1.0907  0.7014 -1.8030
  264MOL0     H36391   0.361   3.832   4.648 -1.1136 -1.0673 -2.4749
  264MOL0     H36392   0.212   3.929   4.600  0.2162  0.6730 -0.7411
  264MOL0     H36393   0.306   3.967   4.746 -0.6653  0.4962  0.5064
  264MOL0     H36394   0.059   4.375   4.729  0.9024 -1.8987  0.1996
  264MOL0     H36395  -0.029   4.456   4.906 -0.8456 -0.0639 -3.0340
  264MOL0     H36396  -0.089   4.619   5.066 -0.0467  0.8868  0.5287
  264MOL0     H36397   0.015   4.499   5.146 -1.7728 -0.7336 -0.9994
  264MOL0     H36398  -0.140   4.647   5.299 -1.5884  2.5722 -0.3296
  264MOL0     H36399   0.045   4.669   5.336  0.1039 -2.0190 -0.3496
  264MOL0     H36400   0.045   4.873   5.195  1.2049  0.4067  0.1100
  264MOL0     H36401  -0.068   4.884   5.338  1.4037 -0.0160  0.2536
  264MOL0     H36402  -0.252   4.814   5.190  1.1100 -0.7116  2.8475
  264MOL0     H36403  -0.149   4.830   5.050 -2.4764 -0.3674 -0.7567
  264MOL0     H36404  -0.293   5.049   5.100  1.1507  4.1581  0.3452
  264MOL0     H36405  -0.228   5.047   5.256 -5.1142 -0.7171 -0.4665
  264MOL0     H36406   0.005   5.128   5.152 -0.0491 -1.2122  0.4650
  264MOL0     H36407  -0.123   5.227   5.101 -0.2742  0.2061  1.3051
  264MOL0     H36408  -0.170   5.059   4.909 -1.3189 -2.2915  4.7778
  264MOL0     H36409  -0.009   4.986   4.947  0.6869 -0.5420  2.3677
  264MOL0     H36410   0.045   5.156   4.779  2.8082 -1.7938  1.2412
  264MOL0     H36411   0.077   5.233   4.939 -0.1343  0.2113 -1.1659
  264MOL0     H36412   0.340   4.683   4.982  1.8943  0.2341 -1.6665
  264MOL0     H36413   0.439   4.569   4.794  1.6652 -4.2874  0.0116
  264MOL0     H36414   0.463   4.327   4.432 -1.2302 -0.2881 -0.8505
  264MOL0     H36415   0.576   4.196   4.242  0.8415 -2.1325 -0.9720
  264MOL0     H36416   1.166   4.690   4.976 -0.5902  0.0048 -1.0128
  264MOL0     H36417   1.375   4.808   4.946  3.2685  0.6036 -0.6732
  264MOL0     H36418   1.842   4.731   4.881 -1.6473  1.3912  0.7533
  264MOL0     H36419   2.068   4.825   4.811  1.7177 -0.4401 -2.9826
  264MOL0     H36420   2.068   5.131   4.491  0.6373  3.0599 -0.1563
  264MOL0     H36421   2.080   5.222   4.628 -3.2228 -2.3188  0.8625
  264MOL0     H36422   2.309   5.082   4.485  1.1607 -1.6406  1.5758
  264MOL0     H36423   2.326   5.159   4.649  1.8581 -0.1005 -1.3018
  264MOL0     H36424   2.280   5.380   4.553  1.3910 -0.8397  0.1091
  264MOL0     H36425   2.428   5.308   4.485  0.7129  0.9933  1.2766
  264MOL0     H36426   2.144   5.302   4.357 -1.1593  2.1181  1.3636
  264MOL0     H36427   2.298   5.227   4.303 -1.3406 -0.3436 -0.2184
  264MOL0     H36428   2.366   5.609   4.164 -2.0914 -0.9436 -2.2105
  264MOL0     H36429   1.868   5.135   4.600 -1.1785  0.6332  0.3564
  264MOL0     H36430   1.550   5.084   4.684  0.2571 -0.9507  0.5704
  264MOL0     H36431   1.647   5.136   4.547 -1.2963  2.3932  2.8719
  264MOL0     H36432   1.557   4.973   4.553  0.4881  0.6398 -0.0866
  265MOL0     O36433   6.122   6.585   2.266  0.5674 -0.2338 -0.1517
  265MOL0     C36434   6.084   6.681   2.337 -0.9767  0.6739  0.0654
  265MOL0     O36435   6.069   6.805   2.287  0.0146 -0.4481  0.3026
  265MOL0     C36436   6.169   6.869   2.214  0.3096  0.4028  0.7568
  265MOL0     C36437   6.270   6.805   2.142 -0.3417 -0.0664  0.3808
  265MOL0     C36438   6.353   6.874   2.054 -0.2525 -0.6798  0.3812
  265MOL0     C36439   6.351   7.016   2.043  0.1730  0.3463 -0.4643
  265MOL0     O36440   6.434   7.095   1.967 -0.2745 -0.4731  0.6469
  265MOL0     C36441   6.520   7.029   1.883 -0.4187  0.0587  0.3185
  265MOL0     C36442   6.598   7.124   1.792  0.2253 -0.3670 -0.2119
  265MOL0     C36443   6.662   7.048   1.676 -0.3063  0.0002  0.7744
  265MOL0     C36444   6.700   7.150   1.569 -0.5140 -0.2675  0.2532
  265MOL0     C36445   6.825   7.229   1.601 -0.1714 -0.3261 -0.4451
  265MOL0     C36446   6.864   7.309   1.481 -0.5189 -0.8849 -0.0629
  265MOL0     C36447   6.983   7.397   1.526  0.2427 -0.6066  0.3742
  265MOL0     C36448   7.023   7.505   1.417 -0.2450  1.6760 -0.0936
  265MOL0     N36449   7.107   7.608   1.473  0.0078 -0.5140  0.0730
  265MOL0     C36450   7.242   7.614   1.475  0.3190  0.5820 -1.1276
  265MOL0     C36451   7.274   7.740   1.510  0.8922  0.1604 -0.0159
  265MOL0     C36452   7.409   7.802   1.515 -0.5009 -0.0797  0.6183
  265MOL0     C36453   7.469   7.805   1.649 -0.0741  0.7328 -0.9494
  265MOL0     C36454   7.598   7.894   1.655  0.6015 -0.7280  1.2122
  265MOL0     C36455   7.735   7.836   1.635 -0.6987 -0.1101  0.2454
  265MOL0     O36456   7.750   7.728   1.732  0.1310 -0.5807  0.3053
  265MOL0     C36457   7.835   7.623   1.702  1.3098  0.8103  0.6586
  265MOL0     C36458   7.965   7.642   1.653 -0.7703  0.7890 -0.4234
  265MOL0     C36459   8.058   7.534   1.628 -0.2128  0.0766  0.1209
  265MOL0     C36460   8.193   7.571   1.585  0.0747 -0.5263  0.6020
  265MOL0     C36461   8.017   7.400   1.646  0.2679  0.1392  0.7607
  265MOL0     C36462   8.105   7.278   1.623  0.0565  0.5975 -0.5307
  265MOL0     O36463   8.037   7.158   1.617 -0.1452 -0.2115  0.3633
  265MOL0     C36464   8.105   7.060   1.544  1.1624  0.2439  0.4392
  265MOL0     C36465   8.052   6.928   1.553  0.0231  0.4171  0.5715
  265MOL0     C36466   8.106   6.825   1.467 -1.3225  0.2153 -0.6707
  265MOL0     C36467   8.207   6.851   1.383 -0.1530 -0.2097  0.3136
  265MOL0     O36468   8.250   6.757   1.297 -0.2961  0.5219 -0.8831
  265MOL0     C36469   8.337   6.653   1.352  0.4888 -0.8323 -0.9929
  265MOL0     C36470   8.403   6.570   1.247 -0.2523  0.5706  0.8929
  265MOL0     C36471   8.505   6.472   1.305  0.0673 -0.1288  0.9940
  265MOL0     C36472   8.532   6.366   1.192 -0.1477  0.2875 -0.1862
  265MOL0     C36473   8.628   6.256   1.241  0.9411  0.0562 -0.3177
  265MOL0     C36474   8.767   6.306   1.264 -0.7853 -0.3845 -0.2382
  265MOL0     C36475   8.841   6.188   1.314 -0.2721 -0.7540  0.1499
  265MOL0     C36476   8.996   6.197   1.330 -0.2993 -0.1937 -0.7019
  265MOL0    Cl36477   9.029   6.304   1.476  0.2238  0.5910  0.0843
  265MOL0     C36478   8.266   6.975   1.371  0.8955 -0.0751  0.5950
  265MOL0     C36479   8.217   7.075   1.456 -0.6246 -0.7643  0.5838
  265MOL0     O36480   8.227   7.286   1.647 -0.5456  0.5307  0.1654
  265MOL0     C36481   7.886   7.377   1.699 -0.3756 -1.0375 -0.2499
  265MOL0     C36482   7.800   7.491   1.727  0.3641  0.5473  0.5173
  265MOL0     N36483   7.157   7.798   1.530 -0.2490 -0.6860  0.1802
  265MOL0     N36484   7.050   7.722   1.520 -0.1322 -0.2732  0.3355
  265MOL0     C36485   6.257   7.077   2.135  0.5657 -1.4691 -0.3768
  265MOL0     C36486   6.170   7.005   2.213  0.6263  0.2237  1.0342
  265MOL0     C36487   6.033   6.657   2.476  0.0023  0.3272  0.4276
  265MOL0     C36488   5.968   6.762   2.532 -0.9491  0.2338 -0.0731
  265MOL0     C36489   5.912   6.747   2.657  0.6365  0.2110  0.6411
  265MOL0     C36490   5.913   6.626   2.732 -0.4328 -0.4617  0.2320
  265MOL0     O36491   5.855   6.616   2.855 -0.0620 -0.4781 -0.4081
  265MOL0     C36492   5.868   6.720   2.944 -0.6139 -0.2209 -0.2434
  265MOL0     C36493   5.981   6.696   3.042  0.1489  0.4884 -1.0340
  265MOL0     C36494   5.940   6.593   3.152  0.0049 -0.4470  1.0042
  265MOL0     C36495   6.023   6.618   3.279  0.0356  0.8293  0.1173
  265MOL0     C36496   6.161   6.608   3.238  0.5115 -0.0900 -0.5860
  265MOL0     C36497   6.282   6.621   3.203  0.9450 -0.0681 -0.6214
  265MOL0     C36498   5.980   6.522   2.678 -0.2405 -0.4746 -0.5998
  265MOL0     C36499   6.043   6.539   2.552 -0.1549  0.0122  0.3948
  265MOL0     C36500   6.100   6.416   2.496  0.1715  0.1080 -0.6304
  265MOL0     H36501   6.278   6.698   2.128 -0.0491 -0.1316  0.9852
  265MOL0     H36502   6.422   6.821   1.988 -0.6689 -0.4756 -0.2285
  265MOL0     H36503   6.457   6.962   1.824  2.9748 -0.0468 -3.6468
  265MOL0     H36504   6.595   6.970   1.936 -0.9680 -2.4341 -1.4703
  265MOL0     H36505   6.527   7.195   1.748 -0.9018  0.7361  3.0481
  265MOL0     H36506   6.670   7.177   1.855 -0.3523 -1.3240  1.3211
  265MOL0     H36507   6.749   6.989   1.704 -0.1755 -0.6378 -0.8330
  265MOL0     H36508   6.591   6.976   1.632 -0.6508  1.5629 -1.3917
  265MOL0     H36509   6.716   7.097   1.474  0.8260  0.9349 -0.2342
  265MOL0     H36510   6.617   7.219   1.550  1.0403  1.5470 -0.2335
  265MOL0     H36511   6.904   7.161   1.635  0.2746  0.2067 -0.3977
  265MOL0     H36512   6.815   7.294   1.689 -0.1180 -0.5165 -0.2965
  265MOL0     H36513   6.889   7.245   1.396  0.4367 -0.7470  0.0994
  265MOL0     H36514   6.794   7.386   1.447  0.5035  0.8418  1.5508
  265MOL0     H36515   7.080   7.351   1.548  0.5465 -0.5423 -0.7613
  265MOL0     H36516   6.956   7.471   1.602 -1.6805  0.0764 -0.8951
  265MOL0     H36517   7.080   7.455   1.339  0.2268 -0.7376  1.6667
  265MOL0     H36518   6.929   7.545   1.379 -2.4851 -1.0869  2.0184
  265MOL0     H36519   7.320   7.541   1.454  0.6399  0.1684  1.2310
  265MOL0     H36520   7.405   7.907   1.483  2.6655  0.5494  1.9443
  265MOL0     H36521   7.480   7.742   1.457  0.0397 -0.2972  1.4992
  265MOL0     H36522   7.390   7.839   1.716  1.2922  1.6457  0.2713
  265MOL0     H36523   7.496   7.708   1.692 -1.0554  0.2385 -1.4227
  265MOL0     H36524   7.585   7.969   1.576  2.2477 -3.4181 -1.8731
  265MOL0     H36525   7.600   7.958   1.744 -1.4275 -0.3621  1.0401
  265MOL0     H36526   7.751   7.801   1.532  0.7251 -0.5582  0.5898
  265MOL0     H36527   7.807   7.919   1.638  0.1731 -0.6983 -1.9698
  265MOL0     H36528   8.009   7.738   1.631 -0.5241  0.6796 -0.4150
  265MOL0     H36529   8.244   7.498   1.521  1.1334  1.6114 -1.1010
  265MOL0     H36530   8.251   7.588   1.676 -0.6963 -1.0828  1.2117
  265MOL0     H36531   8.192   7.663   1.526 -2.0611 -0.3799  0.7963
  265MOL0     H36532   7.963   6.900   1.609  0.8892 -0.2471  1.6570
  265MOL0     H36533   8.065   6.725   1.463 -3.7684  1.0112  1.8434
  265MOL0     H36534   8.416   6.697   1.414 -0.4649  1.6751 -1.4564
  265MOL0     H36535   8.281   6.588   1.420 -1.1306  2.1489  0.7048
  265MOL0     H36536   8.330   6.508   1.194 -1.7062  3.1664 -0.3343
  265MOL0     H36537   8.465   6.626   1.176 -1.1537 -1.6388 -1.8541
  265MOL0     H36538   8.454   6.422   1.388 -1.8447 -0.3626 -0.2429
  265MOL0     H36539   8.598   6.522   1.333  1.2063 -0.3954 -1.9667
  265MOL0     H36540   8.574   6.415   1.104 -3.5523 -0.5298 -2.4487
  265MOL0     H36541   8.435   6.325   1.162  0.2070 -1.6550  1.1156
  265MOL0     H36542   8.590   6.212   1.333 -1.6077  5.4500  1.6903
  265MOL0     H36543   8.640   6.181   1.163  0.6327 -1.8706  1.4164
  265MOL0     H36544   8.769   6.390   1.334 -0.8583 -0.0910 -0.5823
  265MOL0     H36545   8.806   6.338   1.166  1.2350  0.6975  0.8442
  265MOL0     H36546   8.821   6.102   1.251 -1.5418 -1.1224  1.0255
  265MOL0     H36547   8.804   6.165   1.414  1.3512 -5.6899 -0.1525
  265MOL0     H36548   9.032   6.240   1.236 -2.0740 -1.1703 -1.8997
  265MOL0     H36549   9.038   6.096   1.334  0.2364  0.0452 -0.2907
  265MOL0     H36550   8.337   7.010   1.296  0.4704  0.2227  0.3277
  265MOL0     H36551   8.272   7.168   1.448 -0.1103 -1.2154 -2.2520
  265MOL0     H36552   7.845   7.278   1.720  1.0435 -2.7797 -4.5176
  265MOL0     H36553   7.700   7.474   1.766  1.0549 -2.4152  1.2667
  265MOL0     H36554   6.242   7.185   2.132 -0.7644 -1.6697 -1.5311
  265MOL0     H36555   6.086   7.048   2.266 -0.1006  0.4028 -0.2268
  265MOL0     H36556   5.966   6.864   2.495 -0.2839  1.3191  2.6054
  265MOL0     H36557   5.849   6.829   2.689  0.0024 -0.8952  2.4143
  265MOL0     H36558   5.886   6.816   2.896 -0.6222 -0.1091 -0.0243
  265MOL0     H36559   5.770   6.718   2.993 -1.3362  1.2480 -1.5480
  265MOL0     H36560   6.019   6.787   3.089  0.7160 -1.0549  1.6866
  265MOL0     H36561   6.058   6.650   2.980 -2.2624 -1.7277 -2.6248
  265MOL0     H36562   5.835   6.615   3.174 -0.0107  1.9989 -1.1530
  265MOL0     H36563   5.959   6.493   3.111 -0.2337 -0.0576 -0.0688
  265MOL0     H36564   6.016   6.534   3.349  1.3809 -1.9541 -2.8048
  265MOL0     H36565   5.991   6.711   3.326 -0.0144  0.8079  0.1269
  265MOL0     H36566   6.387   6.636   3.194  1.4645  0.5013  3.9339
  265MOL0     H36567   5.983   6.429   2.734 -0.5717 -1.0629 -1.5322
  265MOL0     H36568   6.115   6.340   2.574  0.1514  4.2078  3.8459
  265MOL0     H36569   6.016   6.376   2.438 -2.8133  1.8709  2.1690
  265MOL0     H36570   6.191   6.438   2.440  0.5381  2.1139  0.6797
  266MOL0     O36571   0.134   5.703   4.581  0.1642 -0.6725  0.1967
  266MOL0     C36572   0.198   5.639   4.665  0.1894 -1.0780  0.8905
  266MOL0     O36573   0.278   5.532   4.634  0.6778 -0.4675  0.4595
  266MOL0     C36574   0.282   5.483   4.511  0.4785 -0.9627 -0.1695
  266MOL0     C36575   0.234   5.354   4.482  0.3541 -0.1901  0.1873
  266MOL0     C36576   0.217   5.317   4.349 -0.0358  0.4575 -0.0978
  266MOL0     C36577   0.262   5.410   4.249 -0.9192 -0.5582  0.5450
  266MOL0     O36578   0.242   5.355   4.129 -0.9799  0.4325 -0.4341
  266MOL0     C36579   0.301   5.406   4.005 -0.3969 -0.3019 -0.4768
  266MOL0     C36580   0.307   5.313   3.892  0.1341  0.3935 -0.5653
  266MOL0     C36581   0.383   5.178   3.927  0.3743 -0.0547  0.0107
  266MOL0     C36582   0.428   5.114   3.794  0.7042  0.2183  1.0987
  266MOL0     C36583   0.494   4.976   3.818  0.8402 -0.7704  0.5390
  266MOL0     C36584   0.638   4.981   3.773  0.0827  1.6411 -0.6272
  266MOL0     C36585   0.692   4.835   3.779  0.3704 -0.3959 -0.8712
  266MOL0     C36586   0.838   4.831   3.734  0.8132  0.3936  0.0122
  266MOL0     N36587   0.891   4.694   3.737  0.1027  0.3811  0.0782
  266MOL0     C36588   0.836   4.596   3.657  0.3147 -0.3236  0.2079
  266MOL0     C36589   0.927   4.500   3.667 -0.0289 -0.9488  1.0539
  266MOL0     C36590   0.933   4.376   3.588  0.5231 -0.1785  0.0648
  266MOL0     C36591   1.013   4.402   3.468  1.2249 -0.5474  0.0722
  266MOL0     C36592   1.167   4.417   3.485 -0.2042 -0.2733 -0.3288
  266MOL0     C36593   1.236   4.291   3.513 -0.9045 -0.5902  0.5062
  266MOL0     O36594   1.372   4.325   3.506  0.4028  0.4384 -0.0807
  266MOL0     C36595   1.461   4.252   3.583  0.3960 -0.6393  0.3751
  266MOL0     C36596   1.578   4.315   3.626  0.5597  0.0153 -0.3337
  266MOL0     C36597   1.675   4.250   3.712  0.2202 -0.0759 -0.9890
  266MOL0     C36598   1.800   4.321   3.747  0.7128  0.2926  0.6141
  266MOL0     C36599   1.646   4.120   3.757 -0.2056  0.7431 -0.3326
  266MOL0     C36600   1.730   4.054   3.866 -1.7399 -0.1852  0.6284
  266MOL0     O36601   1.767   4.131   3.971  0.0758 -0.8643  0.0456
  266MOL0     C36602   1.851   4.072   4.066  0.4290  0.9225  0.4536
  266MOL0     C36603   1.850   3.938   4.110 -0.0968 -0.9121 -1.1465
  266MOL0     C36604   1.939   3.900   4.207 -0.5877 -0.5559 -0.7560
  266MOL0     C36605   2.035   3.982   4.256  1.3204 -0.3326 -0.3821
  266MOL0     O36606   2.148   3.948   4.328  0.1923  0.5807 -0.5841
  266MOL0     C36607   2.124   3.850   4.426  0.9955 -0.0796  0.1117
  266MOL0     C36608   2.256   3.811   4.496 -0.2206  0.2878  0.0075
  266MOL0     C36609   2.360   3.773   4.389  0.1116  0.5379 -0.2793
  266MOL0     C36610   2.455   3.664   4.433  0.8808  0.2063 -0.0392
  266MOL0     C36611   2.566   3.639   4.327  0.5874 -1.5972 -0.3283
  266MOL0     C36612   2.680   3.555   4.380 -0.2422 -0.0799 -0.4801
  266MOL0     C36613   2.749   3.474   4.276 -0.3045 -0.2511 -0.7139
  266MOL0     C36614   2.820   3.558   4.165 -0.0584 -0.8841  0.8343
  266MOL0    Cl36615   2.953   3.661   4.217  0.3046  0.0456  0.0848
  266MOL0     C36616   2.027   4.116   4.224  1.7985 -0.3030  0.8280
  266MOL0     C36617   1.941   4.165   4.117  1.1607  1.4119 -0.5762
  266MOL0     O36618   1.788   3.944   3.829  0.9083  0.0051  0.3319
  266MOL0     C36619   1.539   4.051   3.705  0.4346  0.3603 -0.4151
  266MOL0     C36620   1.461   4.111   3.611  0.4454 -0.9463 -0.0105
  266MOL0     N36621   1.019   4.531   3.771 -0.1550  0.3570  0.2150
  266MOL0     N36622   1.000   4.649   3.815  0.4866  0.4746  0.4164
  266MOL0     C36623   0.323   5.532   4.278 -0.2457 -0.1644  0.5401
  266MOL0     C36624   0.345   5.569   4.411  0.3781  0.9913 -0.4551
  266MOL0     C36625   0.163   5.669   4.801  0.4133 -0.0134 -0.1814
  266MOL0     C36626   0.119   5.564   4.880  0.3309  1.0845 -0.2091
  266MOL0     C36627   0.091   5.589   5.017  0.7615  0.3473 -0.1646
  266MOL0     C36628   0.094   5.715   5.069  0.1045  0.5960  1.1225
  266MOL0     O36629   0.061   5.723   5.198 -0.0195 -0.1984  0.0159
  266MOL0     C36630   0.143   5.804   5.274 -0.3152 -0.4756  0.6502
  266MOL0     C36631   0.265   5.732   5.330 -0.0006 -0.6106 -0.4812
  266MOL0     C36632   0.236   5.670   5.465  0.4028 -0.4172  0.9252
  266MOL0     C36633   0.345   5.556   5.484  0.3043 -0.0393 -0.1719
  266MOL0     C36634   0.471   5.627   5.520  0.0377  0.1534  0.1936
  266MOL0     C36635   0.570   5.692   5.552  0.2446 -0.5321 -0.9733
  266MOL0     C36636   0.133   5.828   4.982 -0.1576 -0.4765 -1.3932
  266MOL0     C36637   0.176   5.806   4.851  1.1409  0.7958  0.3442
  266MOL0     C36638   0.206   5.931   4.771  0.8431  0.3770  0.0955
  266MOL0     H36639   0.194   5.291   4.561  2.3867 -1.1073  0.5304
  266MOL0     H36640   0.145   5.240   4.321  1.0171 -0.2755 -0.9003
  266MOL0     H36641   0.404   5.441   4.018 -0.5058 -0.4984  1.1071
  266MOL0     H36642   0.246   5.497   3.977  2.2284  1.3952 -0.5074
  266MOL0     H36643   0.208   5.284   3.855  0.0379  1.1982 -0.9528
  266MOL0     H36644   0.353   5.373   3.814  1.0934  0.4173  0.0079
  266MOL0     H36645   0.472   5.194   3.989  0.8796 -1.5551 -0.2872
  266MOL0     H36646   0.309   5.114   3.976  0.1944 -0.1963 -0.4394
  266MOL0     H36647   0.348   5.104   3.721  1.6120 -2.0382  0.3010
  266MOL0     H36648   0.496   5.184   3.744 -0.9838  1.4244  0.4200
  266MOL0     H36649   0.440   4.900   3.761 -2.3943  1.2350  0.6727
  266MOL0     H36650   0.492   4.944   3.922 -1.8776  0.3947  0.9304
  266MOL0     H36651   0.640   5.027   3.673 -2.1020  0.0276 -1.4986
  266MOL0     H36652   0.695   5.039   3.846 -1.6620  0.3018  1.9483
  266MOL0     H36653   0.635   4.783   3.701 -2.6085  1.1732  0.1055
  266MOL0     H36654   0.686   4.780   3.873 -0.5445 -3.4697 -2.5951
  266MOL0     H36655   0.836   4.865   3.630 -2.6869  0.3445 -0.0680
  266MOL0     H36656   0.899   4.903   3.788 -0.7980  0.9828  1.1329
  266MOL0     H36657   0.754   4.598   3.585  0.7991 -1.9440 -0.4444
  266MOL0     H36658   0.833   4.347   3.556  0.6300 -2.3068  1.4637
  266MOL0     H36659   0.981   4.295   3.644 -1.0804 -1.1540  0.0811
  266MOL0     H36660   0.993   4.325   3.394 -1.2813 -0.7419  0.8594
  266MOL0     H36661   0.967   4.494   3.431  0.8982  0.6458  3.0917
  266MOL0     H36662   1.197   4.455   3.387 -1.2827  1.1319 -0.1401
  266MOL0     H36663   1.185   4.489   3.566  1.0696  0.1679 -0.9761
  266MOL0     H36664   1.216   4.258   3.615 -1.4706 -1.0477  0.2472
  266MOL0     H36665   1.209   4.217   3.438  1.8928  0.5043 -1.8089
  266MOL0     H36666   1.590   4.422   3.624  1.5122 -0.0321  1.4400
  266MOL0     H36667   1.896   4.269   3.741  0.3255 -0.5847  1.5960
  266MOL0     H36668   1.784   4.353   3.851  0.9608 -0.3453  0.8546
  266MOL0     H36669   1.811   4.413   3.689  1.9823  0.9161  1.7788
  266MOL0     H36670   1.770   3.876   4.070  0.2277 -1.0366 -1.6185
  266MOL0     H36671   1.934   3.797   4.241  2.1883  0.1268  2.1059
  266MOL0     H36672   2.054   3.897   4.496  1.9392  1.2746  0.1793
  266MOL0     H36673   2.080   3.759   4.385  0.2780  0.6547 -0.7980
  266MOL0     H36674   2.303   3.892   4.552  0.0925  0.8259 -0.9956
  266MOL0     H36675   2.240   3.727   4.565 -0.1218  1.2356  1.2163
  266MOL0     H36676   2.417   3.857   4.347  1.2510 -0.7080 -1.2800
  266MOL0     H36677   2.306   3.718   4.311 -0.1828 -1.3634  1.1890
  266MOL0     H36678   2.395   3.574   4.450 -0.6323  1.1765  0.0291
  266MOL0     H36679   2.496   3.691   4.531 -2.1612 -2.2373  2.0906
  266MOL0     H36680   2.524   3.582   4.243 -3.0770 -1.7974  1.4182
  266MOL0     H36681   2.596   3.738   4.292  1.5009 -1.7002  0.1584
  266MOL0     H36682   2.643   3.480   4.451  0.7164  2.4507  2.9998
  266MOL0     H36683   2.763   3.598   4.436 -0.2925  0.5489 -0.8892
  266MOL0     H36684   2.672   3.413   4.227 -0.8317 -1.3225  1.3564
  266MOL0     H36685   2.823   3.406   4.319 -0.2972 -2.7492 -4.1930
  266MOL0     H36686   2.749   3.621   4.111 -0.7113 -2.1433  0.1632
  266MOL0     H36687   2.863   3.481   4.100  0.3566 -1.4426  1.7428
  266MOL0     H36688   2.104   4.186   4.255  1.5762  1.7003 -2.6138
  266MOL0     H36689   1.942   4.271   4.091  0.9250  2.2835  2.5561
  266MOL0     H36690   1.529   3.944   3.722  2.2298  0.2972  0.3868
  266MOL0     H36691   1.381   4.052   3.568  0.1069 -0.8503  0.4904
  266MOL0     H36692   0.357   5.592   4.194 -0.7615 -1.8157 -0.9220
  266MOL0     H36693   0.402   5.655   4.445  0.3808  0.6231  0.5196
  266MOL0     H36694   0.084   5.471   4.838  1.1035  0.2533  0.9130
  266MOL0     H36695   0.055   5.505   5.077 -0.9381  1.9865  1.2426
  266MOL0     H36696   0.170   5.888   5.209  0.6341 -1.6943 -0.6047
  266MOL0     H36697   0.080   5.829   5.360 -1.8540 -0.7747 -0.3645
  266MOL0     H36698   0.329   5.815   5.359  0.3172 -1.5427  1.7355
  266MOL0     H36699   0.304   5.652   5.266  1.5899 -0.2112 -0.0390
  266MOL0     H36700   0.250   5.752   5.537  3.2165  2.1129 -2.1946
  266MOL0     H36701   0.134   5.632   5.473 -0.2195  0.5842 -1.5182
  266MOL0     H36702   0.357   5.485   5.402 -0.3205  1.5045 -1.6601
  266MOL0     H36703   0.316   5.492   5.568  2.4257 -2.3133 -1.0580
  266MOL0     H36704   0.647   5.764   5.572  2.1718 -2.0340 -2.4591
  266MOL0     H36705   0.145   5.929   5.022 -0.1071 -1.0188  0.0172
  266MOL0     H36706   0.188   6.024   4.826 -1.5407  0.2065 -0.2735
  266MOL0     H36707   0.312   5.929   4.746  0.2978  0.0055 -2.4201
  266MOL0     H36708   0.152   5.935   4.676 -0.9098  1.1264  1.0634
  267MOL0     O36709   4.940   7.330  10.942  0.4635 -0.1262  0.6138
  267MOL0     C36710   4.945   7.221  10.890 -0.4020  0.3489  1.0445
  267MOL0     O36711   4.884   7.111  10.934  0.0067 -0.3570 -0.2534
  267MOL0     C36712   4.824   7.107  11.060 -0.1005 -0.0854  0.0195
  267MOL0     C36713   4.877   7.168  11.177  0.1673  0.2288  0.6949
  267MOL0     C36714   4.807   7.156  11.301 -0.5781  0.0291  0.7103
  267MOL0     C36715   4.696   7.063  11.305 -0.2793 -0.0059 -0.2386
  267MOL0     O36716   4.611   7.044  11.414  0.1972  0.0452 -0.2093
  267MOL0     C36717   4.597   7.158  11.500 -0.0707  0.8037 -0.0894
  267MOL0     C36718   4.491   7.128  11.601  0.7476 -0.5189 -0.3179
  267MOL0     C36719   4.353   7.135  11.537 -0.0416  0.7336 -0.0842
  267MOL0     C36720   4.249   7.162  11.639 -0.0481  0.2945  0.1752
  267MOL0     C36721   4.108   7.179  11.578  0.3550  0.1088 -0.1463
  267MOL0     C36722   4.007   7.228  11.680  0.9471  0.1987 -1.2253
  267MOL0     C36723   3.866   7.244  11.607 -0.0014  0.8967  0.2544
  267MOL0     C36724   3.859   7.349  11.494 -0.1635 -0.5508 -0.0801
  267MOL0     N36725   3.742   7.343  11.406 -1.1508  0.6461 -0.2388
  267MOL0     C36726   3.616   7.388  11.441 -0.4889  0.6015 -0.5264
  267MOL0     C36727   3.538   7.348  11.336  0.0057  0.4261  0.0948
  267MOL0     C36728   3.387   7.362  11.330  0.0466 -0.5873 -0.2379
  267MOL0     C36729   3.339   7.465  11.232  0.0400 -0.5801  0.4692
  267MOL0     C36730   3.340   7.599  11.299 -1.1714  0.6344  0.5334
  267MOL0     C36731   3.200   7.633  11.366 -0.9571 -0.0530  0.7490
  267MOL0     O36732   3.125   7.511  11.384  0.8696  0.2059 -0.0161
  267MOL0     C36733   3.009   7.520  11.460  0.1214  0.6310  0.6678
  267MOL0     C36734   2.954   7.396  11.469  0.2343 -0.6560  0.2291
  267MOL0     C36735   2.835   7.372  11.540 -0.1076 -0.4028 -0.0044
  267MOL0     C36736   2.772   7.238  11.541  0.4923  0.6320 -0.1810
  267MOL0     C36737   2.768   7.483  11.600  0.3260  0.9987  0.6346
  267MOL0     C36738   2.646   7.464  11.684 -0.2825 -0.4596 -0.2688
  267MOL0     O36739   2.534   7.514  11.623 -0.7833  0.1410 -0.4762
  267MOL0     C36740   2.410   7.460  11.638  0.2140  0.9172  0.0247
  267MOL0     C36741   2.329   7.481  11.748 -0.3073 -0.5063  0.0330
  267MOL0     C36742   2.207   7.423  11.759 -0.1761  0.2005 -0.3697
  267MOL0     C36743   2.147   7.355  11.646  0.9295  0.6281  0.2542
  267MOL0     O36744   2.012   7.337  11.642  0.1018 -0.5415 -0.1756
  267MOL0     C36745   1.963   7.450  11.566  0.1071 -0.0809 -0.1034
  267MOL0     C36746   1.805   7.456  11.571  1.3302  0.3939 -0.5455
  267MOL0     C36747   1.733   7.324  11.616  1.1099 -0.1216 -0.0655
  267MOL0     C36748   1.575   7.350  11.638 -0.2950 -0.1392 -0.0128
  267MOL0     C36749   1.503   7.232  11.700 -0.5349  0.0587  0.3585
  267MOL0     C36750   1.456   7.131  11.599  0.3210  0.1652  0.5362
  267MOL0     C36751   1.427   6.990  11.670 -0.2232 -0.2852  0.5942
  267MOL0     C36752   1.553   6.910  11.694 -0.5603  0.4309 -0.1885
  267MOL0    Cl36753   1.648   6.878  11.549 -0.2077 -0.4301  0.2762
  267MOL0     C36754   2.229   7.319  11.532  0.6065  0.1353  0.0337
  267MOL0     C36755   2.361   7.379  11.533  0.2921 -0.3222 -0.2296
  267MOL0     O36756   2.644   7.382  11.771  0.0169 -0.0245  0.3759
  267MOL0     C36757   2.822   7.611  11.580 -0.3337  0.4603  0.6182
  267MOL0     C36758   2.940   7.629  11.514  0.0129  0.7947 -0.2859
  267MOL0     N36759   3.610   7.262  11.251  0.8431  0.7646  0.5019
  267MOL0     N36760   3.733   7.271  11.287  0.0496 -0.2637 -0.3076
  267MOL0     C36761   4.656   6.998  11.192 -0.0600 -0.2079  0.3154
  267MOL0     C36762   4.715   7.023  11.067 -0.1021 -0.6906 -0.2308
  267MOL0     C36763   5.036   7.200  10.771  0.7091  0.7434  0.6424
  267MOL0     C36764   5.083   7.067  10.753 -0.0834  0.0658 -0.1605
  267MOL0     C36765   5.169   7.047  10.634  0.4043  0.4937 -0.1098
  267MOL0     C36766   5.216   7.154  10.556 -0.0831  0.2270  0.2703
  267MOL0     O36767   5.290   7.120  10.440  0.1928  0.0878  0.2512
  267MOL0     C36768   5.333   7.224  10.357 -0.6574 -0.9456 -0.1276
  267MOL0     C36769   5.359   7.164  10.219 -1.1272  0.1014  0.5354
  267MOL0     C36770   5.229   7.129  10.152 -0.7232 -0.7581 -1.2475
  267MOL0     C36771   5.235   7.109   9.999  1.0537  0.6714 -0.0794
  267MOL0     C36772   5.125   7.014   9.958 -0.1764 -0.6588  0.1197
  267MOL0     C36773   5.029   6.944   9.928  0.2861  0.5330 -1.0713
  267MOL0     C36774   5.186   7.287  10.597  0.1268 -0.0514 -0.0129
  267MOL0     C36775   5.093   7.309  10.701  0.3259 -0.1017 -0.9002
  267MOL0     C36776   5.031   7.453  10.717 -0.6381  0.5512  0.3975
  267MOL0     H36777   4.963   7.235  11.180 -0.5765  1.2959 -0.6497
  267MOL0     H36778   4.835   7.202  11.396 -5.0026  2.1341  1.2809
  267MOL0     H36779   4.572   7.245  11.438 -1.0630  0.7316  0.1984
  267MOL0     H36780   4.688   7.188  11.552  1.5258 -2.4461 -0.7661
  267MOL0     H36781   4.514   7.038  11.658  2.0711 -1.1170 -1.7173
  267MOL0     H36782   4.502   7.210  11.672  0.4392 -0.7782  0.0347
  267MOL0     H36783   4.341   7.214  11.462 -1.8867  1.8119  1.2668
  267MOL0     H36784   4.327   7.038  11.492 -1.9072  0.3825  1.6060
  267MOL0     H36785   4.252   7.083  11.715  1.1731  0.4162  0.2862
  267MOL0     H36786   4.271   7.254  11.694 -1.7779 -0.0582  1.5359
  267MOL0     H36787   4.082   7.087  11.526 -1.4112  0.7208 -0.4278
  267MOL0     H36788   4.124   7.258  11.503  0.7988 -0.4948 -0.6990
  267MOL0     H36789   4.005   7.159  11.765  1.0031  0.6111 -0.8865
  267MOL0     H36790   4.041   7.328  11.710 -1.8817  1.5935 -2.2913
  267MOL0     H36791   3.789   7.274  11.679 -0.6235  2.0562 -0.8695
  267MOL0     H36792   3.835   7.148  11.567 -1.0740  1.4456 -0.2684
  267MOL0     H36793   3.873   7.444  11.545 -1.7682 -0.9232  1.1128
  267MOL0     H36794   3.938   7.350  11.418 -0.8601  2.1262 -0.8838
  267MOL0     H36795   3.579   7.434  11.532 -1.5331  0.3171 -0.7863
  267MOL0     H36796   3.342   7.391  11.426 -1.8147  0.9890 -1.4966
  267MOL0     H36797   3.356   7.261  11.304  0.8850 -0.6437 -1.0902
  267MOL0     H36798   3.423   7.470  11.162 -0.7478  1.9753 -0.3933
  267MOL0     H36799   3.245   7.442  11.182 -0.0098 -0.8484  0.6845
  267MOL0     H36800   3.418   7.598  11.376  0.2880 -0.8098 -0.8887
  267MOL0     H36801   3.357   7.664  11.213 -1.1325 -1.8643 -1.4398
  267MOL0     H36802   3.226   7.695  11.452  0.7476 -0.0514  0.2591
  267MOL0     H36803   3.130   7.686  11.301 -0.4706 -3.1101 -2.6311
  267MOL0     H36804   3.009   7.320  11.414 -0.9994  0.9743 -3.5872
  267MOL0     H36805   2.795   7.183  11.449 -0.9809  1.2873 -0.9644
  267MOL0     H36806   2.664   7.248  11.531  0.3354 -1.0940 -0.5818
  267MOL0     H36807   2.778   7.181  11.634 -0.9673 -0.4480 -0.7171
  267MOL0     H36808   2.365   7.544  11.828 -0.7934 -1.9963  1.4806
  267MOL0     H36809   2.145   7.441  11.847  0.2568 -2.9826  0.7005
  267MOL0     H36810   1.988   7.544  11.615  0.1976 -0.6258  0.9196
  267MOL0     H36811   1.994   7.452  11.461  2.6105  2.3263  0.5652
  267MOL0     H36812   1.765   7.535  11.635 -3.4153 -0.3187 -2.2488
  267MOL0     H36813   1.776   7.478  11.468  2.4738 -0.7399 -1.1298
  267MOL0     H36814   1.770   7.298  11.716  1.3510 -0.9991 -0.3693
  267MOL0     H36815   1.765   7.239  11.555  1.9382  0.0955  0.0589
  267MOL0     H36816   1.526   7.381  11.546  1.0855 -3.0904 -1.9086
  267MOL0     H36817   1.572   7.433  11.709 -1.1012 -1.7513  1.9173
  267MOL0     H36818   1.577   7.181  11.762  1.0258  2.7910  0.9282
  267MOL0     H36819   1.419   7.267  11.761 -3.1088 -3.8814 -0.5563
  267MOL0     H36820   1.536   7.121  11.525 -1.6312  0.8544 -1.8296
  267MOL0     H36821   1.375   7.170  11.536 -1.6950 -1.9010  1.6919
  267MOL0     H36822   1.366   6.922  11.611 -0.7479  0.4416  0.2790
  267MOL0     H36823   1.375   7.007  11.765 -0.5595 -1.0405  0.5511
  267MOL0     H36824   1.540   6.811  11.738  1.1469 -0.9121 -2.5513
  267MOL0     H36825   1.609   6.968  11.768  1.7273 -0.8013 -0.8638
  267MOL0     H36826   2.189   7.254  11.455 -0.0454  0.4210  0.1262
  267MOL0     H36827   2.421   7.348  11.448  2.3584 -4.8448  2.4970
  267MOL0     H36828   2.768   7.694  11.624  0.1449  1.0709  0.0672
  267MOL0     H36829   2.986   7.727  11.508  0.3600  0.6612  0.1602
  267MOL0     H36830   4.574   6.927  11.193 -0.5617  0.1309 -3.1111
  267MOL0     H36831   4.675   6.981  10.976  1.3195  1.6799 -2.0819
  267MOL0     H36832   5.048   6.987  10.816  2.9547 -0.5806  0.8708
  267MOL0     H36833   5.202   6.947  10.610  1.1713  0.5992  0.4463
  267MOL0     H36834   5.261   7.305  10.345  1.4380  0.7094 -2.6555
  267MOL0     H36835   5.426   7.265  10.397 -1.0672  0.1600 -0.2948
  267MOL0     H36836   5.426   7.078  10.227 -1.8239 -0.5765 -0.7289
  267MOL0     H36837   5.402   7.244  10.158 -1.8529 -0.8505 -1.2992
  267MOL0     H36838   5.216   7.036  10.207  0.7173  0.5475  1.5092
  267MOL0     H36839   5.154   7.196  10.196  0.5603 -1.8257  2.9523
  267MOL0     H36840   5.329   7.068   9.962 -0.3728 -1.1617 -1.9012
  267MOL0     H36841   5.210   7.198   9.940 -1.6544  1.6743  2.3169
  267MOL0     H36842   4.941   6.884   9.925  0.6415 -0.4042  2.4518
  267MOL0     H36843   5.235   7.366  10.542 -1.4544  1.3920  0.5623
  267MOL0     H36844   5.089   7.511  10.790  4.0599 -4.5236  1.4136
  267MOL0     H36845   5.027   7.493  10.616  0.6986 -4.8787 -2.1874
  267MOL0     H36846   4.927   7.445  10.747 -1.5492  2.3591 -1.9728
  268MOL0     O36847   0.599   3.850   2.979 -1.0025  0.1622 -0.4398
  268MOL0     C36848   0.507   3.929   2.984  0.0572 -0.4286  0.3149
  268MOL0     O36849   0.510   4.043   2.912 -0.1866 -0.2232  0.4570
  268MOL0     C36850   0.616   4.082   2.832 -0.3973  0.4573  0.0733
  268MOL0     C36851   0.762   4.049   2.851  0.0576  0.4830 -0.5583
  268MOL0     C36852   0.851   4.104   2.761  0.3114 -0.3438  0.1631
  268MOL0     C36853   0.810   4.195   2.664  0.5538 -0.1977  0.0481
  268MOL0     O36854   0.903   4.257   2.582 -0.4457 -0.0331 -0.2814
  268MOL0     C36855   0.992   4.178   2.498  0.1848 -0.3461 -0.5221
  268MOL0     C36856   1.100   4.273   2.452 -0.0940 -0.3043  0.8403
  268MOL0     C36857   1.212   4.271   2.558 -0.4030 -0.1173  0.6751
  268MOL0     C36858   1.323   4.357   2.504 -0.4789  0.2950  0.2044
  268MOL0     C36859   1.446   4.354   2.590  0.3674 -1.2041  0.1541
  268MOL0     C36860   1.532   4.225   2.574  0.0691 -0.3764 -0.5737
  268MOL0     C36861   1.671   4.237   2.648 -0.0767 -0.7069 -0.8005
  268MOL0     C36862   1.662   4.277   2.792  0.9101  0.0952  0.2631
  268MOL0     N36863   1.793   4.272   2.853  0.6933  0.0961 -0.0433
  268MOL0     C36864   1.865   4.383   2.888 -0.7792  0.1473  0.8888
  268MOL0     C36865   1.974   4.322   2.955 -0.7186  0.5780 -0.2438
  268MOL0     C36866   2.069   4.402   3.029  1.3880 -0.0648  0.5258
  268MOL0     C36867   2.178   4.469   2.950  0.1489  1.0063  0.5643
  268MOL0     C36868   2.303   4.515   3.032  0.0599  0.2523 -0.4316
  268MOL0     C36869   2.419   4.558   2.940 -0.2564  0.5867  0.8604
  268MOL0     O36870   2.539   4.606   3.008  0.1343 -0.3236 -0.1358
  268MOL0     C36871   2.657   4.589   2.945  0.6525 -0.3178  1.5781
  268MOL0     C36872   2.672   4.558   2.809 -0.6853  0.4811 -0.1137
  268MOL0     C36873   2.797   4.566   2.745 -0.7635  0.2999 -0.1493
  268MOL0     C36874   2.819   4.505   2.607  0.2858 -0.8068 -0.1212
  268MOL0     C36875   2.902   4.625   2.817  0.0618 -0.9946  0.1431
  268MOL0     C36876   3.032   4.657   2.757 -0.7838 -0.2836  0.4923
  268MOL0     O36877   3.133   4.696   2.840  0.2707  0.4550  0.1582
  268MOL0     C36878   3.261   4.725   2.793 -0.0358  0.2708  0.6815
  268MOL0     C36879   3.317   4.663   2.671 -0.2230  0.8490  0.3397
  268MOL0     C36880   3.441   4.691   2.621  0.5622 -0.4403  0.5948
  268MOL0     C36881   3.522   4.781   2.688  0.1883  0.8274 -0.4574
  268MOL0     O36882   3.656   4.799   2.649 -0.7279  0.6544 -0.0374
  268MOL0     C36883   3.704   4.747   2.530 -0.4551 -1.0792 -0.3177
  268MOL0     C36884   3.826   4.825   2.502 -0.2033 -0.8353  0.0250
  268MOL0     C36885   3.889   4.764   2.379  0.0904  0.6621  0.5102
  268MOL0     C36886   4.017   4.847   2.372 -0.4959 -0.4257  0.3987
  268MOL0     C36887   4.076   4.788   2.242 -0.0746 -0.0106  1.0354
  268MOL0     C36888   4.199   4.859   2.192 -0.5603 -0.3024  0.9397
  268MOL0     C36889   4.328   4.808   2.255  0.5039  0.4178 -0.7267
  268MOL0     C36890   4.372   4.868   2.389 -0.0200  0.0722 -0.4664
  268MOL0    Cl36891   4.538   4.803   2.440 -0.2118 -0.4096  0.0961
  268MOL0     C36892   3.477   4.836   2.804  0.3809 -0.1452  0.2376
  268MOL0     C36893   3.345   4.814   2.860  0.5648 -0.1884 -0.4974
  268MOL0     O36894   3.043   4.652   2.636 -0.0942  0.2913  0.3354
  268MOL0     C36895   2.899   4.641   2.952  0.5710 -0.6308 -0.1285
  268MOL0     C36896   2.773   4.612   3.014 -0.5258 -0.0911 -0.5976
  268MOL0     N36897   1.968   4.189   2.944 -0.2294  0.5715 -0.0510
  268MOL0     N36898   1.851   4.159   2.897  1.0375  0.1742 -0.0321
  268MOL0     C36899   0.672   4.229   2.656  0.0890 -0.1388 -0.0119
  268MOL0     C36900   0.582   4.177   2.742 -0.1157  0.9186 -0.5681
  268MOL0     C36901   0.381   3.897   3.048 -0.2118  1.4449 -0.9365
  268MOL0     C36902   0.284   4.005   3.065  0.2216 -0.5825 -0.9890
  268MOL0     C36903   0.159   3.980   3.127  1.0353  0.2317 -0.0728
  268MOL0     C36904   0.126   3.859   3.179 -0.2175  0.5472 -0.2515
  268MOL0     O36905   0.006   3.860   3.248  0.5989 -0.4279 -0.2892
  268MOL0     C36906  -0.053   3.736   3.292 -0.1030 -0.6332  0.1351
  268MOL0     C36907  -0.146   3.773   3.404  0.1653 -0.0730 -0.0401
  268MOL0     C36908  -0.272   3.852   3.359 -0.2101  0.5158  1.2124
  268MOL0     C36909  -0.361   3.901   3.471  0.6982 -0.5766  0.0846
  268MOL0     C36910  -0.400   3.790   3.559  0.0889 -0.0766 -0.4267
  268MOL0     C36911  -0.415   3.682   3.617  0.5454 -0.2558  0.9459
  268MOL0     C36912   0.213   3.750   3.151 -0.1405 -0.7012  0.1356
  268MOL0     C36913   0.345   3.768   3.097  0.0502 -0.7738 -0.3177
  268MOL0     C36914   0.429   3.645   3.108 -0.0459 -0.0623 -0.0831
  268MOL0     H36915   0.798   3.993   2.936  0.2362  3.1662  1.2593
  268MOL0     H36916   0.956   4.078   2.762 -0.3235 -3.2811 -0.5595
  268MOL0     H36917   0.947   4.135   2.408  1.1549  0.1568 -1.2524
  268MOL0     H36918   1.032   4.095   2.558 -1.3886  0.0850  1.2544
  268MOL0     H36919   1.138   4.239   2.355 -2.4430  0.2460 -0.3564
  268MOL0     H36920   1.054   4.372   2.441 -0.2330 -0.0961  2.8642
  268MOL0     H36921   1.180   4.327   2.646  0.9762  4.5276 -1.4478
  268MOL0     H36922   1.243   4.169   2.582 -1.9217 -0.5527  0.8461
  268MOL0     H36923   1.355   4.329   2.404  1.6198  1.0638  0.6169
  268MOL0     H36924   1.302   4.464   2.500  2.2739  0.9334  0.8337
  268MOL0     H36925   1.411   4.363   2.693 -0.3787 -4.8898  0.3861
  268MOL0     H36926   1.509   4.440   2.568 -0.7390 -0.2452  0.6669
  268MOL0     H36927   1.470   4.152   2.628  1.1761  1.0862  2.9299
  268MOL0     H36928   1.542   4.197   2.469 -0.6659 -1.1432 -0.4489
  268MOL0     H36929   1.718   4.322   2.597 -1.8612  0.7469 -0.1524
  268MOL0     H36930   1.728   4.145   2.633 -0.4622 -0.5372 -4.3240
  268MOL0     H36931   1.614   4.375   2.794  1.8011  0.7416 -3.0581
  268MOL0     H36932   1.591   4.206   2.837  0.4739 -1.0822 -2.1154
  268MOL0     H36933   1.838   4.487   2.882  1.3485  0.7357  0.6619
  268MOL0     H36934   2.109   4.336   3.106 -0.1633 -1.6973 -0.0039
  268MOL0     H36935   2.014   4.474   3.090  1.4440  0.2153  0.2465
  268MOL0     H36936   2.222   4.403   2.875  1.5635  1.6818  0.7802
  268MOL0     H36937   2.126   4.554   2.904 -1.6014  0.7475  1.9612
  268MOL0     H36938   2.286   4.599   3.100  4.0674 -0.3074  1.6046
  268MOL0     H36939   2.333   4.431   3.095 -2.2819 -1.3404 -1.3058
  268MOL0     H36940   2.435   4.475   2.871 -1.4066 -1.2964  2.7386
  268MOL0     H36941   2.393   4.645   2.878  0.0303 -1.3596 -2.1959
  268MOL0     H36942   2.590   4.542   2.739 -1.0688  2.8116 -0.2702
  268MOL0     H36943   2.728   4.449   2.582 -1.5896  1.7535  0.5504
  268MOL0     H36944   2.915   4.453   2.596 -0.0377 -1.6401  0.8378
  268MOL0     H36945   2.817   4.590   2.538 -0.7274 -1.1014 -0.4822
  268MOL0     H36946   3.270   4.572   2.634  1.1233 -1.2959  3.4235
  268MOL0     H36947   3.474   4.631   2.536 -1.3300 -1.0562  0.2522
  268MOL0     H36948   3.723   4.643   2.556  4.2313 -0.2958  0.3340
  268MOL0     H36949   3.636   4.759   2.445 -0.6362  0.4775  0.0174
  268MOL0     H36950   3.803   4.931   2.485 -2.5328 -1.2110  0.5800
  268MOL0     H36951   3.887   4.824   2.592 -1.7416  0.4644  1.1323
  268MOL0     H36952   3.827   4.759   2.289 -0.8684 -2.4880  1.2357
  268MOL0     H36953   3.901   4.656   2.394  1.1128  0.8796  1.4491
  268MOL0     H36954   4.085   4.850   2.457  3.3902  5.7407 -2.1765
  268MOL0     H36955   3.994   4.951   2.347  0.5709 -0.7915 -2.4808
  268MOL0     H36956   4.091   4.682   2.263  1.1143 -0.4618 -1.6588
  268MOL0     H36957   4.001   4.786   2.162  1.4912 -4.3918 -0.6114
  268MOL0     H36958   4.196   4.965   2.220  1.3487  0.1846 -0.5070
  268MOL0     H36959   4.195   4.849   2.083 -1.2264  2.4451  0.6259
  268MOL0     H36960   4.413   4.835   2.192  0.3784  1.5665 -0.4364
  268MOL0     H36961   4.332   4.699   2.264  0.7370  0.5342  0.9416
  268MOL0     H36962   4.296   4.845   2.464 -1.4764 -0.1996 -1.9636
  268MOL0     H36963   4.368   4.977   2.384  1.3199  0.2016  0.7654
  268MOL0     H36964   3.546   4.899   2.859 -0.3619 -0.4387  1.5575
  268MOL0     H36965   3.315   4.873   2.946 -3.7145 -0.0646 -1.8742
  268MOL0     H36966   2.979   4.673   3.016  2.5514 -0.0093 -2.7407
  268MOL0     H36967   2.751   4.644   3.115 -2.2432 -2.0888 -0.2561
  268MOL0     H36968   0.653   4.315   2.593  0.9632  1.7239  2.1182
  268MOL0     H36969   0.481   4.216   2.740 -0.2960  0.6252  1.0214
  268MOL0     H36970   0.314   4.101   3.025 -0.8587 -0.3712 -1.3453
  268MOL0     H36971   0.089   4.061   3.146  1.1828  0.6879 -1.3401
  268MOL0     H36972  -0.105   3.686   3.210  2.3412  0.9700 -2.5777
  268MOL0     H36973   0.023   3.663   3.321 -1.5518 -1.4898  2.0147
  268MOL0     H36974  -0.088   3.823   3.482  0.5927 -0.9758  0.2400
  268MOL0     H36975  -0.180   3.676   3.441  1.3268 -1.2554 -1.9434
  268MOL0     H36976  -0.236   3.932   3.294 -1.3638  0.2306  0.1624
  268MOL0     H36977  -0.338   3.786   3.301 -0.3999  0.9312  0.9565
  268MOL0     H36978  -0.450   3.949   3.430  0.8040  1.1394  1.7451
  268MOL0     H36979  -0.300   3.983   3.510 -1.6853  0.1683  2.6082
  268MOL0     H36980  -0.412   3.593   3.677 -2.6491 -1.9451 -1.1314
  268MOL0     H36981   0.187   3.657   3.200  0.1627 -0.6911  0.3165
  268MOL0     H36982   0.531   3.648   3.149  1.0513 -2.4766 -2.4025
  268MOL0     H36983   0.375   3.566   3.161  2.7731 -0.4548  2.5182
  268MOL0     H36984   0.441   3.619   3.003  0.4936  1.2540 -0.3782
  269MOL0     O36985   0.641   4.500   3.347  0.2005 -0.2434 -0.2792
  269MOL0     C36986   0.573   4.477   3.248  0.2592  0.7668  0.4572
  269MOL0     O36987   0.617   4.419   3.134 -0.3354  0.6920 -0.1261
  269MOL0     C36988   0.754   4.397   3.120 -1.0075  0.3318  0.2533
  269MOL0     C36989   0.799   4.269   3.092  0.2418 -0.2467 -0.0742
  269MOL0     C36990   0.927   4.232   3.083 -1.0686  0.1188  0.0281
  269MOL0     C36991   1.024   4.331   3.090 -0.9285  0.1793 -0.3155
  269MOL0     O36992   1.162   4.299   3.066 -0.1044  0.1287 -0.7338
  269MOL0     C36993   1.199   4.165   3.079 -0.7496  0.0635 -0.2517
  269MOL0     C36994   1.348   4.159   3.054  0.5199 -0.3346  0.6131
  269MOL0     C36995   1.429   4.181   3.179 -0.3272 -0.5698 -0.3166
  269MOL0     C36996   1.576   4.154   3.152  0.8948 -0.4224  0.3727
  269MOL0     C36997   1.642   4.162   3.289 -0.5380  0.9855 -0.0097
  269MOL0     C36998   1.792   4.134   3.286 -0.9440  0.0778 -0.0803
  269MOL0     C36999   1.830   4.105   3.431  0.2248  0.1059  0.1833
  269MOL0     C37000   1.983   4.091   3.443 -0.5500 -0.4810  0.5807
  269MOL0     N37001   2.044   4.085   3.578 -0.6532  0.3094  0.6288
  269MOL0     C37002   2.046   3.978   3.661  0.4313  0.3970 -0.7346
  269MOL0     C37003   2.125   4.022   3.757  0.5005  0.4561  0.1749
  269MOL0     C37004   2.161   3.961   3.890  1.2865  0.1800 -0.3279
  269MOL0     C37005   2.270   3.862   3.867 -0.8730  0.4766  0.7860
  269MOL0     C37006   2.375   3.835   3.982  0.6234  0.1915 -0.1904
  269MOL0     C37007   2.444   3.711   3.952  0.7490 -0.3311  0.3306
  269MOL0     O37008   2.528   3.727   3.834 -0.3387 -0.0208  0.0355
  269MOL0     C37009   2.639   3.643   3.821 -0.1531  0.7527 -0.1954
  269MOL0     C37010   2.643   3.504   3.834 -1.2821  0.1293  0.8094
  269MOL0     C37011   2.770   3.437   3.821 -0.4923 -0.0588  0.5271
  269MOL0     C37012   2.759   3.289   3.864  0.2094  0.4385  0.6356
  269MOL0     C37013   2.890   3.506   3.779 -0.7094 -0.7082 -0.2123
  269MOL0     C37014   3.019   3.441   3.739  0.9227 -0.5395 -0.2731
  269MOL0     O37015   3.123   3.517   3.687  0.3586  0.3250  0.4827
  269MOL0     C37016   3.217   3.448   3.612  0.2740 -0.0192 -0.5700
  269MOL0     C37017   3.325   3.414   3.687  0.8708 -0.5976 -0.0635
  269MOL0     C37018   3.437   3.357   3.639 -0.2858  0.5974 -0.9333
  269MOL0     C37019   3.451   3.342   3.505  0.3928  0.0836  0.5294
  269MOL0     O37020   3.568   3.286   3.449  0.5271  0.6226 -0.1626
  269MOL0     C37021   3.623   3.337   3.331 -0.2118  0.0344 -1.3229
  269MOL0     C37022   3.700   3.215   3.268  0.3701 -0.7185 -1.0853
  269MOL0     C37023   3.595   3.112   3.224  0.2666 -0.1759 -0.9809
  269MOL0     C37024   3.662   2.989   3.175 -0.1026  0.5185 -0.0226
  269MOL0     C37025   3.577   2.872   3.132  0.5151 -0.6938  0.5527
  269MOL0     C37026   3.655   2.758   3.068 -0.3009 -0.4380 -0.3005
  269MOL0     C37027   3.553   2.647   3.037 -1.6190  0.0209  1.4384
  269MOL0     C37028   3.515   2.659   2.886 -0.5753 -0.5168 -0.7285
  269MOL0    Cl37029   3.646   2.596   2.783  0.1234  0.2505 -0.1507
  269MOL0     C37030   3.335   3.357   3.428  0.2750 -0.6187  1.2346
  269MOL0     C37031   3.216   3.413   3.482 -0.8575 -0.9447 -0.0839
  269MOL0     O37032   3.022   3.318   3.761 -0.3783 -0.5667  0.2517
  269MOL0     C37033   2.877   3.648   3.766 -0.1057  0.0894 -0.1389
  269MOL0     C37034   2.755   3.710   3.787  0.3685 -0.0829 -0.3026
  269MOL0     N37035   2.186   4.142   3.742  0.2970  0.9107  1.1185
  269MOL0     N37036   2.141   4.173   3.621  0.7141 -0.2873 -0.7743
  269MOL0     C37037   0.983   4.462   3.109  0.2732 -0.6815  0.2517
  269MOL0     C37038   0.847   4.505   3.124 -0.1533 -0.0735 -0.8378
  269MOL0     C37039   0.431   4.499   3.251 -0.0696 -0.1104 -0.5534
  269MOL0     C37040   0.375   4.558   3.368  0.2277  0.4333  0.3376
  269MOL0     C37041   0.232   4.577   3.385  0.2656  0.3576 -0.3148
  269MOL0     C37042   0.153   4.549   3.272 -0.1056  0.6356 -0.0672
  269MOL0     O37043   0.022   4.583   3.268  0.2680  0.1860  0.4923
  269MOL0     C37044  -0.010   4.714   3.223 -0.4328  0.7454  0.1290
  269MOL0     C37045  -0.068   4.789   3.331 -0.4124  0.7540  0.0306
  269MOL0     C37046  -0.086   4.939   3.295 -0.7171  0.9360 -0.0557
  269MOL0     C37047  -0.191   5.002   3.383  0.4712  0.0712  0.0219
  269MOL0     C37048  -0.154   5.123   3.443 -0.3775  0.3702 -0.7532
  269MOL0     C37049  -0.106   5.225   3.464 -0.2013  0.2350  0.6816
  269MOL0     C37050   0.206   4.488   3.167 -0.8440 -0.3619  1.0014
  269MOL0     C37051   0.338   4.463   3.147 -0.0019 -0.5333 -0.8506
  269MOL0     C37052   0.377   4.401   3.017  0.4919  0.4490 -0.4458
  269MOL0     H37053   0.715   4.201   3.082 -0.6469  0.4100  2.2292
  269MOL0     H37054   0.945   4.125   3.076 -2.8766 -0.2484  0.6124
  269MOL0     H37055   1.137   4.116   3.004 -1.0536  2.3496 -1.5821
  269MOL0     H37056   1.175   4.119   3.176 -0.9995 -0.0494 -0.3665
  269MOL0     H37057   1.376   4.063   3.009 -2.1251 -1.8457  1.8892
  269MOL0     H37058   1.374   4.237   2.982 -0.6998  0.5225  1.0587
  269MOL0     H37059   1.419   4.286   3.206 -3.9137 -0.6979 -0.6552
  269MOL0     H37060   1.395   4.122   3.265 -1.3626  2.3088  1.3716
  269MOL0     H37061   1.586   4.057   3.103 -0.8956 -0.9331  0.9338
  269MOL0     H37062   1.620   4.232   3.089 -0.3361  0.2050  0.2628
  269MOL0     H37063   1.589   4.090   3.352  0.4906  2.5411  2.7958
  269MOL0     H37064   1.632   4.263   3.330 -3.0014  0.3673  1.0644
  269MOL0     H37065   1.807   4.045   3.224 -0.9026 -0.1598  0.2708
  269MOL0     H37066   1.853   4.215   3.245 -1.1015  0.8986  1.2609
  269MOL0     H37067   1.777   4.022   3.477 -0.8225 -0.0968 -1.3116
  269MOL0     H37068   1.792   4.193   3.484 -1.4740 -1.1811  1.1780
  269MOL0     H37069   2.013   3.995   3.398 -2.3857 -0.9550  0.2865
  269MOL0     H37070   2.034   4.171   3.390 -1.0523 -1.4036 -1.3670
  269MOL0     H37071   1.988   3.887   3.654  1.0441 -0.1603  1.0529
  269MOL0     H37072   2.074   3.907   3.927  1.0638  0.8002  0.0696
  269MOL0     H37073   2.177   4.036   3.967  3.6176 -1.8325  1.2845
  269MOL0     H37074   2.220   3.768   3.840 -1.7322  2.0124 -3.7179
  269MOL0     H37075   2.322   3.888   3.775 -2.6045  0.5840 -0.1914
  269MOL0     H37076   2.450   3.915   3.979  1.4638 -0.5752 -0.0985
  269MOL0     H37077   2.319   3.830   4.076  1.8446  1.1339  0.6202
  269MOL0     H37078   2.511   3.689   4.036  2.4086 -3.2424 -1.6213
  269MOL0     H37079   2.386   3.621   3.929  0.6033 -0.7040  2.0232
  269MOL0     H37080   2.551   3.449   3.850 -2.7147  2.5297  1.2646
  269MOL0     H37081   2.800   3.214   3.795  0.3262  1.8798 -0.9231
  269MOL0     H37082   2.656   3.260   3.884  0.8562 -1.8570  0.9248
  269MOL0     H37083   2.803   3.283   3.964  0.3197  1.0118  0.6265
  269MOL0     H37084   3.327   3.435   3.794  0.7194 -1.8908  0.2062
  269MOL0     H37085   3.524   3.341   3.703  0.4934 -2.3065 -2.5417
  269MOL0     H37086   3.554   3.370   3.254  1.8720 -1.0668 -3.8198
  269MOL0     H37087   3.696   3.413   3.360  2.0439 -2.3404 -0.3415
  269MOL0     H37088   3.759   3.247   3.182  0.9599 -0.7695 -0.6997
  269MOL0     H37089   3.767   3.170   3.342 -1.9249  1.1539  2.4264
  269MOL0     H37090   3.529   3.151   3.145 -1.4532  1.7447  1.2512
  269MOL0     H37091   3.522   3.085   3.301 -0.8196 -0.9029 -2.2181
  269MOL0     H37092   3.732   2.953   3.250  1.8343 -0.3435 -2.1382
  269MOL0     H37093   3.730   3.026   3.098  0.5838 -0.8728 -0.1215
  269MOL0     H37094   3.525   2.820   3.213  1.1820 -1.5177  0.4678
  269MOL0     H37095   3.497   2.901   3.065 -0.3444 -0.3118  1.7087
  269MOL0     H37096   3.733   2.723   3.135 -0.4879 -0.2226  0.0338
  269MOL0     H37097   3.704   2.792   2.976  0.1867 -0.5340 -0.0730
  269MOL0     H37098   3.461   2.660   3.094 -3.3328  2.9789 -1.6106
  269MOL0     H37099   3.611   2.556   3.053 -0.4296  0.6048  0.6941
  269MOL0     H37100   3.480   2.759   2.857 -0.3977 -0.4460 -0.6995
  269MOL0     H37101   3.423   2.599   2.879 -2.8768  1.6665  4.7643
  269MOL0     H37102   3.328   3.325   3.324  1.3225 -0.0228  0.9693
  269MOL0     H37103   3.118   3.426   3.436 -1.0873 -1.1736  0.3330
  269MOL0     H37104   2.963   3.700   3.727 -1.1068  1.0783 -1.0975
  269MOL0     H37105   2.755   3.819   3.788 -1.2627 -0.0688  0.1715
  269MOL0     H37106   1.056   4.543   3.112  1.2681 -1.5830  1.5416
  269MOL0     H37107   0.821   4.610   3.137 -1.3553 -0.2631 -1.5885
  269MOL0     H37108   0.428   4.569   3.462  1.2693  1.7402 -0.3764
  269MOL0     H37109   0.186   4.623   3.471  2.3191  1.0170  0.5098
  269MOL0     H37110   0.084   4.764   3.199  1.0697 -0.7662  2.4410
  269MOL0     H37111  -0.078   4.712   3.138  0.0000  3.2835 -0.3561
  269MOL0     H37112   0.003   4.783   3.414 -1.1267  2.5405  0.8260
  269MOL0     H37113  -0.168   4.754   3.358  0.2022  0.0218  1.4520
  269MOL0     H37114   0.012   4.987   3.300  1.1387 -2.6196  1.8498
  269MOL0     H37115  -0.121   4.951   3.192 -0.7214  0.3847 -0.1232
  269MOL0     H37116  -0.218   4.938   3.468  1.5071  0.4886  0.6851
  269MOL0     H37117  -0.281   5.018   3.324 -0.4198  1.2762  1.6003
  269MOL0     H37118  -0.068   5.323   3.484 -0.5906  0.4603  0.3368
  269MOL0     H37119   0.140   4.477   3.082 -0.0958  0.6696  0.2512
  269MOL0     H37120   0.423   4.303   3.032  0.6215  0.4518 -0.8152
  269MOL0     H37121   0.294   4.375   2.951  0.4468 -0.5126 -0.0227
  269MOL0     H37122   0.436   4.474   2.961  1.8068  1.6227  2.2568
  270MOL0     O37123   5.501   9.222   4.655  0.2534 -0.4722  0.3801
  270MOL0     C37124   5.437   9.164   4.564 -0.3585  0.2817 -0.0885
  270MOL0     O37125   5.403   9.227   4.446 -0.4531 -0.4558 -0.0599
  270MOL0     C37126   5.469   9.332   4.391 -0.8226  0.2895  0.7760
  270MOL0     C37127   5.543   9.311   4.271 -0.1304  0.0913 -0.3666
  270MOL0     C37128   5.617   9.409   4.207 -0.7862 -0.0159  0.4973
  270MOL0     C37129   5.615   9.540   4.264  0.1264  0.6352  0.0530
  270MOL0     O37130   5.683   9.644   4.220  0.2510 -0.0431 -0.3144
  270MOL0     C37131   5.641   9.690   4.089  0.3654 -0.2051  0.0710
  270MOL0     C37132   5.703   9.827   4.059  0.0033  0.2914 -0.5226
  270MOL0     C37133   5.660   9.928   4.173 -0.1199 -0.5229  0.2503
  270MOL0     C37134   5.528   9.990   4.125  0.2760 -0.6906 -0.6823
  270MOL0     C37135   5.514  10.132   4.185  0.0371 -0.3724 -0.3978
  270MOL0     C37136   5.406  10.213   4.110 -0.0327 -0.2576 -0.0103
  270MOL0     C37137   5.257  10.157   4.137 -0.1059  0.4384  0.3122
  270MOL0     C37138   5.218  10.157   4.286  0.8805  0.0051 -1.0586
  270MOL0     N37139   5.252  10.279   4.366  0.0677  0.0577 -0.1026
  270MOL0     C37140   5.202  10.408   4.333  0.3328 -0.1965 -0.5845
  270MOL0     C37141   5.270  10.483   4.422 -0.3913  0.5270 -0.8061
  270MOL0     C37142   5.247  10.623   4.449 -0.1938  0.2534 -0.3337
  270MOL0     C37143   5.357  10.704   4.368  0.0640 -0.3452 -0.5675
  270MOL0     C37144   5.349  10.859   4.404  0.6618 -0.5362 -0.7971
  270MOL0     C37145   5.444  10.946   4.331 -0.1525 -0.6864  0.8789
  270MOL0     O37146   5.432  10.909   4.192 -0.5964  0.0658  0.5399
  270MOL0     C37147   5.522  10.969   4.105 -0.4662  0.2739 -0.1157
  270MOL0     C37148   5.507  10.940   3.970  0.0846  0.5955 -0.5442
  270MOL0     C37149   5.579  10.999   3.871 -0.1812 -0.2691  0.3168
  270MOL0     C37150   5.527  10.967   3.729  0.6580  0.0802  1.3527
  270MOL0     C37151   5.690  11.080   3.915  0.7369 -0.2614 -1.1775
  270MOL0     C37152   5.789  11.133   3.817  0.7691  0.4724  0.0569
  270MOL0     O37153   5.745  11.160   3.692  0.0684 -0.4732 -0.7335
  270MOL0     C37154   5.845  11.199   3.607  0.2066 -0.8001  0.1956
  270MOL0     C37155   5.934  11.100   3.559  0.4831  0.3059  0.2019
  270MOL0     C37156   6.033  11.149   3.477  0.0622 -0.2757  0.5368
  270MOL0     C37157   6.046  11.284   3.448  0.1666  0.4217 -1.0065
  270MOL0     O37158   6.146  11.330   3.383 -0.4408 -0.1270 -0.4447
  270MOL0     C37159   6.282  11.289   3.424 -0.3934  0.7582 -0.0896
  270MOL0     C37160   6.380  11.391   3.366 -0.4091  0.6539 -0.2177
  270MOL0     C37161   6.512  11.328   3.377 -0.3350 -0.6278  0.0788
  270MOL0     C37162   6.617  11.419   3.317  0.5488 -0.4579  0.8250
  270MOL0     C37163   6.763  11.358   3.308  0.0965  0.3588  0.3884
  270MOL0     C37164   6.854  11.463   3.246 -0.8529  0.0597 -0.5047
  270MOL0     C37165   7.002  11.415   3.243  0.2348  0.2576  0.3784
  270MOL0     C37166   7.092  11.505   3.151 -0.1679  1.2379  0.2115
  270MOL0    Cl37167   7.071  11.471   2.972 -0.0893  0.3318 -0.2675
  270MOL0     C37168   5.944  11.376   3.479  0.1596  0.3730 -0.4099
  270MOL0     C37169   5.854  11.328   3.569 -0.0689  0.2042 -0.2297
  270MOL0     O37170   5.900  11.171   3.855  0.1701 -0.1232 -1.0592
  270MOL0     C37171   5.708  11.099   4.058  0.6508  0.3863 -0.4349
  270MOL0     C37172   5.624  11.044   4.156 -0.3546 -0.4436  0.2853
  270MOL0     N37173   5.347  10.406   4.506 -0.8138  0.1733  0.4875
  270MOL0     N37174   5.339  10.286   4.474 -0.1271 -0.0457 -1.0260
  270MOL0     C37175   5.542   9.561   4.381 -0.5955  0.5751 -0.4798
  270MOL0     C37176   5.482   9.459   4.447 -0.2487  1.7880 -0.1044
  270MOL0     C37177   5.375   9.031   4.604  0.4603 -0.3347  0.0054
  270MOL0     C37178   5.389   8.983   4.728  0.5134  0.0902 -1.7066
  270MOL0     C37179   5.338   8.861   4.775  0.6383 -1.1816  0.7232
  270MOL0     C37180   5.272   8.781   4.680 -0.5029  0.8365 -0.5773
  270MOL0     O37181   5.229   8.657   4.703  0.1135  0.4572  0.4294
  270MOL0     C37182   5.218   8.609   4.835  0.2563  0.8208 -0.4591
  270MOL0     C37183   5.328   8.516   4.887 -1.5740 -0.2515  0.4533
  270MOL0     C37184   5.306   8.366   4.836  0.7292 -0.7162  0.3663
  270MOL0     C37185   5.425   8.265   4.853  0.6675  0.3698 -0.5978
  270MOL0     C37186   5.456   8.245   4.990 -1.2516  0.3025 -0.1547
  270MOL0     C37187   5.469   8.225   5.108 -0.5529 -0.6344 -0.3590
  270MOL0     C37188   5.248   8.833   4.547 -0.5824  0.5981 -0.4527
  270MOL0     C37189   5.304   8.953   4.507  0.9551  0.1320 -0.4396
  270MOL0     C37190   5.307   8.970   4.353 -0.5823 -1.3925 -0.1514
  270MOL0     H37191   5.530   9.207   4.244 -1.8471 -0.0855  0.9671
  270MOL0     H37192   5.675   9.375   4.121 -1.2201  0.4363  0.0142
  270MOL0     H37193   5.532   9.688   4.086  0.1803  2.1063  2.0048
  270MOL0     H37194   5.680   9.617   4.017  2.5325  0.3843  0.5599
  270MOL0     H37195   5.811   9.814   4.048  0.0658 -1.2800  1.4960
  270MOL0     H37196   5.683   9.863   3.957  0.4649 -0.8605 -1.0380
  270MOL0     H37197   5.639   9.878   4.268 -0.8087 -1.3837 -0.3334
  270MOL0     H37198   5.740  10.000   4.196 -0.3884 -0.2904  0.4648
  270MOL0     H37199   5.517  10.002   4.016  1.8825  0.1805 -0.7883
  270MOL0     H37200   5.448   9.920   4.148  1.0280 -1.7858 -1.2751
  270MOL0     H37201   5.609  10.184   4.174  0.5030 -1.0877  0.1603
  270MOL0     H37202   5.501  10.125   4.294  1.6730  3.5100  0.1774
  270MOL0     H37203   5.408  10.319   4.134 -3.1290  0.1018 -0.9729
  270MOL0     H37204   5.417  10.200   4.002 -2.0298  0.2458 -0.3061
  270MOL0     H37205   5.229  10.059   4.099 -0.1508 -0.8145  3.3149
  270MOL0     H37206   5.191  10.220   4.077  0.2295  0.7685  0.2856
  270MOL0     H37207   5.111  10.138   4.286  0.8532  0.0660 -2.0744
  270MOL0     H37208   5.265  10.075   4.342 -0.0827 -0.5236 -1.0143
  270MOL0     H37209   5.122  10.450   4.274  0.8560  1.1973 -0.3381
  270MOL0     H37210   5.252  10.639   4.557 -0.0118  0.3757 -0.3598
  270MOL0     H37211   5.147  10.646   4.412 -0.9573 -0.9640  0.8740
  270MOL0     H37212   5.459  10.678   4.398 -0.1366  0.7559  1.2047
  270MOL0     H37213   5.341  10.689   4.261  1.5833 -0.8980 -0.7341
  270MOL0     H37214   5.254  10.906   4.382  0.6400  0.3374  0.9624
  270MOL0     H37215   5.377  10.877   4.509  0.7829  1.2936 -1.1240
  270MOL0     H37216   5.426  11.053   4.343  0.3465 -0.8400  3.4150
  270MOL0     H37217   5.539  10.916   4.377 -2.5106 -4.4312  3.9591
  270MOL0     H37218   5.422  10.879   3.940  0.8640 -1.2656  0.8401
  270MOL0     H37219   5.453  11.037   3.689  0.2679  0.1861  2.2525
  270MOL0     H37220   5.481  10.867   3.724  2.9075 -0.9770  0.2256
  270MOL0     H37221   5.607  10.949   3.656 -2.0660 -0.6247 -1.7397
  270MOL0     H37222   5.921  10.998   3.594 -1.1824  0.8540  1.3407
  270MOL0     H37223   6.095  11.084   3.416  1.5233  2.2927 -0.8424
  270MOL0     H37224   6.284  11.276   3.532 -1.1289 -0.8167 -0.2303
  270MOL0     H37225   6.308  11.187   3.394 -1.1419  0.3107  0.7384
  270MOL0     H37226   6.361  11.396   3.259 -1.8232 -1.1044 -0.0849
  270MOL0     H37227   6.369  11.493   3.405  1.7577  0.4159  1.1836
  270MOL0     H37228   6.518  11.237   3.317  0.0487 -1.1416  0.8758
  270MOL0     H37229   6.548  11.306   3.478  2.9871  3.1201 -0.0639
  270MOL0     H37230   6.607  11.506   3.382 -2.0186 -0.6296  0.7677
  270MOL0     H37231   6.580  11.444   3.218 -0.0382  4.7538  2.0938
  270MOL0     H37232   6.802  11.325   3.404  2.2205  0.9737 -0.2187
  270MOL0     H37233   6.751  11.276   3.236  0.0735 -0.4760  1.3155
  270MOL0     H37234   6.855  11.545   3.319 -1.3185 -2.0844  2.0584
  270MOL0     H37235   6.823  11.496   3.146 -1.3448 -0.5698 -0.5672
  270MOL0     H37236   7.011  11.312   3.205  1.1918  1.1703 -2.1337
  270MOL0     H37237   7.051  11.414   3.341  1.1219 -1.2709 -0.0362
  270MOL0     H37238   7.194  11.489   3.186 -1.3227 -0.1943  3.3129
  270MOL0     H37239   7.074  11.610   3.176 -0.3775  1.5627 -1.2452
  270MOL0     H37240   5.959  11.484   3.473  3.8819  0.1148  1.1970
  270MOL0     H37241   5.796  11.399   3.627 -0.9852 -0.6025 -0.1308
  270MOL0     H37242   5.797  11.159   4.074  0.5786  1.1032 -2.3895
  270MOL0     H37243   5.645  11.073   4.258 -0.7982  1.9179 -0.2410
  270MOL0     H37244   5.536   9.662   4.419 -2.2379  1.5186 -2.9272
  270MOL0     H37245   5.438   9.482   4.543  3.3524 -0.0275  2.1738
  270MOL0     H37246   5.444   9.040   4.803 -3.6860  0.2761  1.6683
  270MOL0     H37247   5.357   8.830   4.877 -3.7538  0.8016  2.4259
  270MOL0     H37248   5.197   8.692   4.904  1.0437  0.8119 -0.1996
  270MOL0     H37249   5.127   8.549   4.847  2.2405 -1.8768  3.3633
  270MOL0     H37250   5.318   8.504   4.995 -0.2706  1.0831  0.7583
  270MOL0     H37251   5.432   8.546   4.871 -1.1912  0.0803  3.1548
  270MOL0     H37252   5.209   8.328   4.869 -0.7096  0.3586 -2.3107
  270MOL0     H37253   5.282   8.393   4.733  0.2261  0.3487  0.7432
  270MOL0     H37254   5.510   8.307   4.799 -1.1478  2.8726 -1.7426
  270MOL0     H37255   5.388   8.166   4.827  1.1450 -0.1741  0.7087
  270MOL0     H37256   5.469   8.224   5.215 -2.9732 -0.3928 -0.2849
  270MOL0     H37257   5.190   8.775   4.477 -2.4537  0.8554  0.7967
  270MOL0     H37258   5.280   8.878   4.301  0.1524 -0.1456 -2.9356
  270MOL0     H37259   5.240   9.049   4.320  1.2553  0.6110  0.6788
  270MOL0     H37260   5.410   8.995   4.324 -0.6443  3.8085  2.8200
  271MOL0     O37261   7.967   1.833   1.833 -0.2893  0.3396 -1.3556
  271MOL0     C37262   7.866   1.856   1.770 -0.4814  0.3706 -0.1561
  271MOL0     O37263   7.861   1.912   1.644 -0.1799  0.0967  0.6435
  271MOL0     C37264   7.982   1.949   1.584 -0.1537 -0.6689 -0.7680
  271MOL0     C37265   8.038   1.860   1.498  0.0693  0.4376 -0.6014
  271MOL0     C37266   8.143   1.897   1.416  0.5418 -0.3661 -0.6968
  271MOL0     C37267   8.184   2.029   1.404  1.1164  0.0501 -0.3568
  271MOL0     O37268   8.280   2.081   1.318 -0.3701  0.4421  0.3205
  271MOL0     C37269   8.383   2.003   1.269  0.0137 -0.5774  0.2545
  271MOL0     C37270   8.493   2.012   1.374 -0.0464  0.1437  0.0584
  271MOL0     C37271   8.623   1.937   1.337 -0.0368  0.8495  0.2248
  271MOL0     C37272   8.703   2.023   1.235 -0.5395  0.6822 -0.4542
  271MOL0     C37273   8.823   1.951   1.179  0.0420  0.0843  0.1222
  271MOL0     C37274   8.926   1.945   1.286  0.4920 -1.0220  0.2417
  271MOL0     C37275   9.067   1.923   1.237 -0.7406  0.6953 -0.0087
  271MOL0     C37276   9.134   2.027   1.142 -1.1371 -0.0709 -0.1128
  271MOL0     N37277   9.276   2.010   1.128  0.4086  0.2240  0.2443
  271MOL0     C37278   9.329   1.946   1.020 -0.3984 -0.5732  0.1748
  271MOL0     C37279   9.457   1.925   1.054 -0.1141  0.1846  0.5717
  271MOL0     C37280   9.562   1.855   0.972 -0.6027 -0.2602  0.6722
  271MOL0     C37281   9.618   1.927   0.850 -0.2773  0.6796 -0.1427
  271MOL0     C37282   9.686   2.062   0.878 -0.2739  0.0419  0.0372
  271MOL0     C37283   9.789   2.053   0.996  0.1417 -0.1251  0.1923
  271MOL0     O37284   9.902   2.145   0.976  0.3590 -0.1022 -0.0137
  271MOL0     C37285  10.018   2.088   0.921  0.8246 -0.5362 -0.8489
  271MOL0     C37286  10.005   1.982   0.827 -0.9635 -0.1894  0.3748
  271MOL0     C37287  10.122   1.941   0.754  0.3943 -0.8989 -0.5932
  271MOL0     C37288  10.108   1.819   0.671  0.8361 -0.8083 -0.0368
  271MOL0     C37289  10.246   2.007   0.772 -0.0486 -0.8779  0.5290
  271MOL0     C37290  10.374   1.966   0.703  0.5480  0.4759  0.8935
  271MOL0     O37291  10.370   1.863   0.619 -0.1735  0.2454  0.1057
  271MOL0     C37292  10.485   1.835   0.547  0.1895  0.5018  0.3886
  271MOL0     C37293  10.525   1.881   0.415  0.7881  0.6284 -0.2562
  271MOL0     C37294  10.645   1.834   0.356  0.4058  0.1833  0.3908
  271MOL0     C37295  10.718   1.738   0.411 -0.5381  0.8574 -0.0266
  271MOL0     O37296  10.821   1.705   0.326 -0.1834 -0.4339  0.3473
  271MOL0     C37297  10.850   1.558   0.321  0.3601 -0.5984  0.5402
  271MOL0     C37298  10.745   1.484   0.242  0.9508  0.4772 -0.0549
  271MOL0     C37299  10.633   1.444   0.331  1.1849  0.5767 -0.5912
  271MOL0     C37300  10.536   1.329   0.277 -0.3992 -0.3671 -0.0755
  271MOL0     C37301  10.503   1.359   0.120 -0.7659 -0.3423 -0.3327
  271MOL0     C37302  10.409   1.253   0.071  0.1761 -0.3594 -0.0178
  271MOL0     C37303  10.378   1.274  -0.078 -0.1178 -0.0263 -1.1440
  271MOL0     C37304  10.255   1.198  -0.108  0.3918  0.4068  0.3285
  271MOL0    Cl37305  10.183   1.235  -0.276 -0.6028  0.1368 -0.0162
  271MOL0     C37306  10.683   1.689   0.534  0.3280  0.6347 -0.3895
  271MOL0     C37307  10.563   1.736   0.604 -0.3652  0.3026 -0.6646
  271MOL0     O37308  10.471   2.035   0.716  0.4259  0.3982  0.2896
  271MOL0     C37309  10.247   2.117   0.853 -0.0662  0.5385  0.1830
  271MOL0     C37310  10.141   2.156   0.932  0.3146  0.0880  0.5668
  271MOL0     N37311   9.473   1.985   1.179 -0.8568 -0.4475 -0.0923
  271MOL0     N37312   9.364   2.033   1.225 -0.3869 -0.1822  0.2309
  271MOL0     C37313   8.110   2.129   1.476  0.0278  0.2808 -0.2275
  271MOL0     C37314   8.004   2.086   1.560 -0.1504 -0.0750  0.1882
  271MOL0     C37315   7.742   1.841   1.852  0.4320  0.7977  0.6341
  271MOL0     C37316   7.635   1.771   1.787 -0.2759 -0.6282 -0.2735
  271MOL0     C37317   7.511   1.748   1.855 -0.2411 -0.4981 -0.1346
  271MOL0     C37318   7.495   1.796   1.983 -0.3006 -0.1651 -1.0306
  271MOL0     O37319   7.374   1.807   2.048  0.6902 -0.0625  0.4066
  271MOL0     C37320   7.339   1.683   2.118  0.2432 -0.7604  0.8019
  271MOL0     C37321   7.249   1.592   2.030 -0.1317  0.2423 -0.2180
  271MOL0     C37322   7.118   1.658   1.997  0.4288 -0.0607  0.2854
  271MOL0     C37323   7.023   1.571   1.918 -1.1214 -0.1590 -0.4970
  271MOL0     C37324   6.968   1.469   2.007  0.4378  0.6562 -0.0356
  271MOL0     C37325   6.929   1.377   2.075 -0.3688  0.4668 -0.0932
  271MOL0     C37326   7.605   1.846   2.044 -1.1863  0.4030  0.4575
  271MOL0     C37327   7.725   1.877   1.983  1.2491 -0.2335 -0.7496
  271MOL0     C37328   7.830   1.955   2.063  0.0320  0.2281 -0.6419
  271MOL0     H37329   8.002   1.758   1.488  2.8102 -0.5272 -1.5460
  271MOL0     H37330   8.192   1.825   1.351 -0.4236 -2.2291  0.5466
  271MOL0     H37331   8.428   2.042   1.177 -1.9186 -0.5642 -0.7373
  271MOL0     H37332   8.360   1.899   1.243  1.1447 -0.5290 -1.0856
  271MOL0     H37333   8.511   2.110   1.419 -1.3995 -0.3482  1.7806
  271MOL0     H37334   8.462   1.950   1.458 -1.7012 -1.9466 -1.9655
  271MOL0     H37335   8.675   1.925   1.432 -2.4861 -3.3771  1.3227
  271MOL0     H37336   8.612   1.837   1.293 -2.2028  1.3417 -0.4610
  271MOL0     H37337   8.631   2.036   1.153 -4.1726 -3.8629  1.5496
  271MOL0     H37338   8.736   2.119   1.276  0.9225  0.8253 -1.8783
  271MOL0     H37339   8.866   1.990   1.086 -1.3918  0.2813 -0.4738
  271MOL0     H37340   8.787   1.851   1.155 -1.7683  0.0886  2.5194
  271MOL0     H37341   8.918   2.034   1.349  2.1150  0.6693 -1.7917
  271MOL0     H37342   8.901   1.856   1.345  0.6983 -0.6710  0.8693
  271MOL0     H37343   9.083   1.831   1.181 -1.1409 -0.1668  1.2456
  271MOL0     H37344   9.126   1.908   1.328 -1.3299  0.2047  0.2980
  271MOL0     H37345   9.085   2.032   1.045 -1.5344  1.6452  0.1410
  271MOL0     H37346   9.112   2.125   1.188 -0.0452 -0.2581  0.8747
  271MOL0     H37347   9.289   1.910   0.926  0.6386 -0.7436 -0.2185
  271MOL0     H37348   9.513   1.763   0.937 -0.3611 -0.6387  1.3190
  271MOL0     H37349   9.644   1.816   1.033  1.0121  0.2473 -1.0834
  271MOL0     H37350   9.680   1.863   0.787 -1.0008 -0.1439 -0.0341
  271MOL0     H37351   9.528   1.940   0.788 -1.2208 -0.9888  0.7896
  271MOL0     H37352   9.736   2.091   0.785 -0.5694  1.6457  0.3478
  271MOL0     H37353   9.610   2.138   0.900 -0.6451 -0.0955 -0.7055
  271MOL0     H37354   9.728   2.060   1.086 -2.6812 -1.5951 -1.4493
  271MOL0     H37355   9.834   1.954   1.004  1.5875  0.3603 -1.4061
  271MOL0     H37356   9.913   1.926   0.812 -0.5190 -0.5060 -1.4297
  271MOL0     H37357  10.125   1.844   0.566 -3.1724  1.4096 -0.3561
  271MOL0     H37358  10.009   1.772   0.679  1.2730 -1.8369 -0.5128
  271MOL0     H37359  10.179   1.738   0.692  0.3413 -2.0944 -2.8326
  271MOL0     H37360  10.452   1.944   0.365 -2.9046 -2.0660  1.2671
  271MOL0     H37361  10.683   1.861   0.258  0.9872 -1.6122  0.0863
  271MOL0     H37362  10.946   1.558   0.267 -0.7406 -3.2427 -1.6666
  271MOL0     H37363  10.858   1.525   0.425 -2.5657  3.3585  2.2930
  271MOL0     H37364  10.701   1.543   0.161 -0.9325  0.3809  0.8497
  271MOL0     H37365  10.800   1.400   0.199  2.9306  1.6611 -0.0004
  271MOL0     H37366  10.563   1.525   0.356 -0.9563 -1.8640  2.0061
  271MOL0     H37367  10.668   1.409   0.428 -3.8637  0.5243  1.5145
  271MOL0     H37368  10.451   1.337   0.345  1.7805  2.5102  2.6400
  271MOL0     H37369  10.587   1.232   0.279  0.3094 -0.0649 -1.7674
  271MOL0     H37370  10.460   1.458   0.101  0.9839  0.5486  0.1494
  271MOL0     H37371  10.598   1.362   0.065  0.0353 -0.3631  1.0217
  271MOL0     H37372  10.316   1.277   0.123 -0.4779  0.2066 -1.3940
  271MOL0     H37373  10.458   1.157   0.091  0.2255 -0.1880  0.6822
  271MOL0     H37374  10.466   1.234  -0.128  1.4645  0.1029  1.3960
  271MOL0     H37375  10.367   1.382  -0.098  2.3271  0.4076 -0.3842
  271MOL0     H37376  10.175   1.214  -0.035 -0.4552 -0.6123 -0.3484
  271MOL0     H37377  10.295   1.096  -0.111 -0.6557 -0.0367  1.0589
  271MOL0     H37378  10.754   1.621   0.579 -0.7496 -1.2725 -1.4440
  271MOL0     H37379  10.525   1.678   0.688  1.8401  0.4918  0.5451
  271MOL0     H37380  10.337   2.178   0.863  1.0566 -0.4158 -2.8908
  271MOL0     H37381  10.146   2.253   0.981  0.2460  0.0872  0.5763
  271MOL0     H37382   8.125   2.235   1.461 -1.0213  0.5247  0.3157
  271MOL0     H37383   7.949   2.163   1.613 -0.3594 -1.1047  1.5006
  271MOL0     H37384   7.643   1.727   1.688 -0.5946  0.1359 -0.6469
  271MOL0     H37385   7.440   1.681   1.807 -1.0829  0.6232 -0.4764
  271MOL0     H37386   7.423   1.628   2.160 -0.8997 -2.0310  1.4769
  271MOL0     H37387   7.292   1.706   2.214  2.1624 -2.5112  2.2718
  271MOL0     H37388   7.223   1.501   2.084 -2.2121  1.3331  0.7665
  271MOL0     H37389   7.297   1.568   1.934 -0.6314  0.4472 -0.5266
  271MOL0     H37390   7.080   1.686   2.095 -0.0080  1.0691 -0.1913
  271MOL0     H37391   7.134   1.749   1.937 -1.1698 -0.8665 -1.4936
  271MOL0     H37392   7.080   1.522   1.839  0.0155 -1.0240  0.8055
  271MOL0     H37393   6.940   1.626   1.873 -2.5429 -2.4786 -0.8962
  271MOL0     H37394   6.885   1.310   2.146 -0.6374  0.1824 -0.5245
  271MOL0     H37395   7.587   1.885   2.144  0.8437  0.8631  0.6903
  271MOL0     H37396   7.784   2.048   2.100 -0.8053  0.1949 -1.5759
  271MOL0     H37397   7.840   1.911   2.162 -0.1935 -0.3875 -0.8912
  271MOL0     H37398   7.932   1.979   2.031  0.5385  0.5093  1.0565
  272MOL0     O37399   8.920   3.229   0.155  0.5752  0.0751 -0.1176
  272MOL0     C37400   8.871   3.303   0.241  0.4391  1.2123  0.3140
  272MOL0     O37401   8.849   3.265   0.370 -0.1340  0.8676  0.1343
  272MOL0     C37402   8.892   3.147   0.422 -0.3905 -1.2463  0.1458
  272MOL0     C37403   9.031   3.134   0.443 -0.5069 -0.5527  0.5869
  272MOL0     C37404   9.079   3.023   0.510 -0.2783  0.1390  0.1730
  272MOL0     C37405   8.995   2.918   0.556  0.2624 -0.5203 -0.6958
  272MOL0     O37406   9.043   2.801   0.613 -0.7373  0.1042 -0.3260
  272MOL0     C37407   9.158   2.821   0.704 -0.8470  0.6385  0.5388
  272MOL0     C37408   9.148   2.752   0.835 -0.5135 -0.1473  0.1627
  272MOL0     C37409   9.100   2.607   0.829  0.6153  0.2144  0.4401
  272MOL0     C37410   9.142   2.530   0.948 -0.2168 -0.8486 -1.1031
  272MOL0     C37411   9.088   2.393   0.945  0.2622 -0.2524  0.4648
  272MOL0     C37412   8.934   2.381   0.962  0.3800  0.2100 -0.1646
  272MOL0     C37413   8.892   2.230   0.924  0.6357  0.5296 -0.8016
  272MOL0     C37414   8.737   2.245   0.912 -0.5577 -0.2172  0.3803
  272MOL0     N37415   8.674   2.122   0.879  0.4797  0.0270 -0.5175
  272MOL0     C37416   8.550   2.082   0.913 -0.1266 -0.0823  0.0691
  272MOL0     C37417   8.546   1.951   0.869 -1.0263  0.2526  0.7011
  272MOL0     C37418   8.432   1.850   0.872  0.3391  0.3691 -0.6958
  272MOL0     C37419   8.391   1.812   0.727  0.7353  0.6383 -0.6752
  272MOL0     C37420   8.351   1.935   0.648 -0.5866 -0.0567  0.1848
  272MOL0     C37421   8.215   1.982   0.690  0.1056  0.0712  0.3456
  272MOL0     O37422   8.187   2.115   0.637  0.0146  0.2879  0.7044
  272MOL0     C37423   8.058   2.159   0.635 -0.0481 -0.3625 -0.8174
  272MOL0     C37424   7.944   2.094   0.685  0.5777 -0.5957  0.0265
  272MOL0     C37425   7.815   2.149   0.683  0.1816  0.1423  0.0024
  272MOL0     C37426   7.699   2.062   0.731 -0.0956  0.7327 -0.9995
  272MOL0     C37427   7.789   2.279   0.625 -0.2949 -0.4260 -0.2138
  272MOL0     C37428   7.662   2.342   0.593 -0.3391 -0.5485  0.4232
  272MOL0     O37429   7.578   2.277   0.506 -0.2939  0.2291 -0.0818
  272MOL0     C37430   7.451   2.333   0.486  0.2891  0.3391 -0.2632
  272MOL0     C37431   7.340   2.299   0.574 -0.2002 -0.3343  0.6662
  272MOL0     C37432   7.217   2.347   0.542 -0.7529  0.6538  0.6042
  272MOL0     C37433   7.189   2.419   0.428  0.2826 -0.4924  0.0824
  272MOL0     O37434   7.066   2.476   0.402  0.1971  0.3604  0.7074
  272MOL0     C37435   6.965   2.487   0.497 -0.3628  0.3578 -0.3444
  272MOL0     C37436   6.887   2.363   0.493  0.7745 -0.1715 -0.3575
  272MOL0     C37437   6.746   2.393   0.545 -0.0159  0.0004  0.0784
  272MOL0     C37438   6.729   2.391   0.694  0.6991 -0.2765 -0.5716
  272MOL0     C37439   6.591   2.327   0.729  0.1503  0.1884  0.4277
  272MOL0     C37440   6.538   2.363   0.867  0.4746  0.1179  0.1240
  272MOL0     C37441   6.402   2.297   0.913  1.1748  1.0171  0.2806
  272MOL0     C37442   6.347   2.373   1.039  0.7518  0.6228 -0.2817
  272MOL0    Cl37443   6.226   2.255   1.119 -0.6534 -0.3210 -0.2933
  272MOL0     C37444   7.293   2.459   0.340 -1.7892  0.1735  0.0181
  272MOL0     C37445   7.428   2.419   0.380  0.9415  1.1074  0.4691
  272MOL0     O37446   7.645   2.455   0.634 -0.4019 -0.0097 -0.2199
  272MOL0     C37447   7.906   2.341   0.571 -0.4232  0.1750  0.3465
  272MOL0     C37448   8.034   2.284   0.585  1.0293 -0.8369 -0.4099
  272MOL0     N37449   8.671   1.919   0.822  0.8176  0.2195  0.4538
  272MOL0     N37450   8.741   2.013   0.828 -0.3592 -1.0304  0.1225
  272MOL0     C37451   8.857   2.930   0.529 -0.5975  0.1618 -1.0404
  272MOL0     C37452   8.810   3.043   0.462  0.7707 -0.1754  0.2797
  272MOL0     C37453   8.810   3.427   0.186 -0.0364 -1.3013 -0.8710
  272MOL0     C37454   8.698   3.469   0.263  0.0951 -0.9681  0.1853
  272MOL0     C37455   8.631   3.583   0.219  0.0264 -0.0283 -0.5404
  272MOL0     C37456   8.663   3.655   0.104 -0.3575 -0.4215 -1.1695
  272MOL0     O37457   8.591   3.765   0.072 -0.1625 -0.2656  0.3377
  272MOL0     C37458   8.532   3.754  -0.059  0.2005  0.4225 -0.3139
  272MOL0     C37459   8.377   3.723  -0.029  0.2196 -0.2429 -0.0169
  272MOL0     C37460   8.324   3.578  -0.018 -0.5272  0.2982 -0.8380
  272MOL0     C37461   8.165   3.573  -0.020 -0.4137  0.1055 -0.1105
  272MOL0     C37462   8.109   3.442   0.005  0.5838  1.1518 -0.3680
  272MOL0     C37463   8.065   3.324   0.000 -0.1548  0.2360 -0.5674
  272MOL0     C37464   8.781   3.618   0.038 -0.1527  0.7228  0.1070
  272MOL0     C37465   8.854   3.505   0.074  0.4208  0.7297  0.2130
  272MOL0     C37466   8.969   3.481  -0.014 -0.0936  0.1275 -0.1260
  272MOL0     H37467   9.108   3.203   0.409 -0.5401  0.2053  1.9758
  272MOL0     H37468   9.187   3.014   0.515 -0.3215  0.3998  3.6104
  272MOL0     H37469   9.187   2.925   0.725  1.4291 -0.1174  1.3647
  272MOL0     H37470   9.238   2.779   0.642 -2.6393 -0.8729 -0.8593
  272MOL0     H37471   9.248   2.751   0.879 -0.4335 -0.4984 -0.0222
  272MOL0     H37472   9.092   2.816   0.904  0.6343  0.5018  0.5344
  272MOL0     H37473   8.991   2.617   0.823  0.3918 -2.3336 -1.1835
  272MOL0     H37474   9.133   2.553   0.740 -1.6510 -1.4330  0.5185
  272MOL0     H37475   9.251   2.528   0.958 -0.4003 -0.5867  2.4019
  272MOL0     H37476   9.098   2.589   1.028 -0.6787 -0.3484 -1.7236
  272MOL0     H37477   9.127   2.342   1.033 -0.0629  1.7545  1.8476
  272MOL0     H37478   9.120   2.333   0.860 -0.9490 -1.0604  0.5557
  272MOL0     H37479   8.898   2.421   1.057 -1.3995 -0.4259 -0.5240
  272MOL0     H37480   8.891   2.451   0.890  2.1034  1.7647  0.2421
  272MOL0     H37481   8.914   2.173   1.015  0.2809  0.3053 -0.8539
  272MOL0     H37482   8.943   2.180   0.841  1.8409  1.2165 -0.4989
  272MOL0     H37483   8.692   2.290   1.001 -1.9152  0.6611 -0.7013
  272MOL0     H37484   8.714   2.315   0.831 -0.6540 -1.0601 -0.3310
  272MOL0     H37485   8.476   2.130   0.977  0.7088  2.4023 -0.7217
  272MOL0     H37486   8.347   1.891   0.928 -0.4769  0.7623 -2.1552
  272MOL0     H37487   8.462   1.759   0.926 -1.4960 -0.7444 -1.4235
  272MOL0     H37488   8.474   1.762   0.676  0.6460 -1.3119  0.9710
  272MOL0     H37489   8.304   1.747   0.722 -1.1198  2.9594 -0.5745
  272MOL0     H37490   8.421   2.017   0.662 -1.5038  0.6060  1.0503
  272MOL0     H37491   8.355   1.907   0.543 -1.1152  0.4982  0.0090
  272MOL0     H37492   8.147   1.899   0.670 -0.0422  0.6435 -1.7551
  272MOL0     H37493   8.217   2.006   0.797  0.5390 -0.3697  0.4414
  272MOL0     H37494   7.949   1.994   0.727  1.6308  0.8399  3.7312
  272MOL0     H37495   7.641   1.996   0.665 -1.3383 -1.5737  2.1251
  272MOL0     H37496   7.632   2.122   0.792  0.2846  1.2913 -1.1260
  272MOL0     H37497   7.746   1.991   0.799  2.7134  2.5394 -0.8903
  272MOL0     H37498   7.357   2.226   0.652  1.1726 -0.2427  0.4905
  272MOL0     H37499   7.134   2.327   0.608  1.3122  1.3837  3.6442
  272MOL0     H37500   6.998   2.501   0.600 -2.3237 -0.3478  0.4345
  272MOL0     H37501   6.906   2.574   0.467  0.1347  0.7625 -0.1713
  272MOL0     H37502   6.879   2.325   0.391  0.1545 -0.7288 -0.1063
  272MOL0     H37503   6.921   2.286   0.563 -0.0517  0.0759  0.3182
  272MOL0     H37504   6.689   2.314   0.494  2.2302 -0.8401 -1.2518
  272MOL0     H37505   6.714   2.490   0.507  1.0893  2.0790  3.9527
  272MOL0     H37506   6.721   2.492   0.734  0.4105 -1.3827  2.3860
  272MOL0     H37507   6.815   2.349   0.748  0.2781 -1.5327 -0.8296
  272MOL0     H37508   6.520   2.367   0.656  0.7493  0.6584  0.0986
  272MOL0     H37509   6.594   2.218   0.716 -0.1391 -0.3960  4.2197
  272MOL0     H37510   6.521   2.469   0.884  1.4766  0.3807 -0.4681
  272MOL0     H37511   6.619   2.337   0.937 -0.4548  0.9890  1.5828
  272MOL0     H37512   6.439   2.196   0.930  2.7585  1.2832 -1.2723
  272MOL0     H37513   6.321   2.311   0.841  2.4667  1.4924 -1.1498
  272MOL0     H37514   6.294   2.465   1.015 -0.5488 -0.1343 -0.4399
  272MOL0     H37515   6.430   2.387   1.109  2.4775 -0.3165 -2.0324
  272MOL0     H37516   7.288   2.532   0.260  4.5311  0.3958 -0.6996
  272MOL0     H37517   7.519   2.457   0.335  0.3919  1.7208 -0.1593
  272MOL0     H37518   7.900   2.437   0.521 -0.2112 -0.5658 -1.1574
  272MOL0     H37519   8.119   2.346   0.560  1.2840 -0.4020  1.4011
  272MOL0     H37520   8.795   2.845   0.557  0.7969 -0.2285  1.1505
  272MOL0     H37521   8.704   3.048   0.443  0.4456 -1.4498  1.5974
  272MOL0     H37522   8.663   3.416   0.351 -0.1341 -1.8073 -0.4006
  272MOL0     H37523   8.553   3.622   0.284 -1.0047  0.4703 -2.0061
  272MOL0     H37524   8.536   3.849  -0.112  1.8305 -1.4050 -3.8174
  272MOL0     H37525   8.586   3.682  -0.122 -0.1190 -0.1018  0.0049
  272MOL0     H37526   8.327   3.782  -0.106  0.2670  1.7665  1.4082
  272MOL0     H37527   8.346   3.770   0.065  0.6035  1.1295 -0.5455
  272MOL0     H37528   8.364   3.526  -0.106  3.4718  1.9152 -0.1827
  272MOL0     H37529   8.367   3.543   0.076 -0.1978  1.8672 -0.3847
  272MOL0     H37530   8.133   3.610  -0.117  2.4577 -0.0470 -1.2133
  272MOL0     H37531   8.127   3.633   0.063 -0.6827 -0.9628  0.5585
  272MOL0     H37532   8.026   3.225  -0.012 -1.0153  0.5045 -0.1500
  272MOL0     H37533   8.816   3.681  -0.042  3.0029 -0.6342  0.2570
  272MOL0     H37534   8.937   3.428  -0.104 -1.6995 -3.6428  2.4010
  272MOL0     H37535   9.014   3.576  -0.045  1.0151 -0.2813  0.2008
  272MOL0     H37536   9.042   3.416   0.035 -0.0000  2.0687  2.5505
  273MOL0     O37537   1.114   8.421   9.087 -0.2127 -0.0485 -0.0950
  273MOL0     C37538   1.073   8.307   9.061 -0.2015 -0.4476 -0.6171
  273MOL0     O37539   0.951   8.255   9.100 -0.1600 -0.1290  0.8486
  273MOL0     C37540   0.873   8.331   9.180  0.5124 -0.4975  0.0084
  273MOL0     C37541   0.849   8.471   9.170  0.5735 -0.0128  0.8043
  273MOL0     C37542   0.760   8.542   9.257  0.6708  0.9289  0.4221
  273MOL0     C37543   0.682   8.466   9.354 -0.6519  0.1643  0.2256
  273MOL0     O37544   0.586   8.526   9.425  1.0479 -0.1849  0.7646
  273MOL0     C37545   0.608   8.522   9.562 -0.1921  0.3716  0.3632
  273MOL0     C37546   0.537   8.647   9.619 -0.8191 -0.0302  0.3984
  273MOL0     C37547   0.602   8.712   9.743  0.5113 -0.2863 -0.1785
  273MOL0     C37548   0.593   8.870   9.741  0.7877  0.2765  0.4734
  273MOL0     C37549   0.629   8.935   9.875 -0.3127  0.2646  1.3076
  273MOL0     C37550   0.647   9.088   9.869 -0.4411 -0.2791  0.3748
  273MOL0     C37551   0.511   9.158   9.827  0.1265 -0.0307  1.1155
  273MOL0     C37552   0.544   9.320   9.816 -0.5082  0.4546  0.4145
  273MOL0     N37553   0.650   9.364   9.719 -0.3409 -0.5655  0.2126
  273MOL0     C37554   0.643   9.372   9.589  0.7116  0.6873  0.6202
  273MOL0     C37555   0.759   9.427   9.543  0.0542 -0.9602 -0.9424
  273MOL0     C37556   0.803   9.441   9.403 -1.2008 -0.0601 -1.0263
  273MOL0     C37557   0.771   9.340   9.305  0.7531  0.5402  0.3971
  273MOL0     C37558   0.823   9.195   9.360  0.1048  0.5516 -0.4050
  273MOL0     C37559   0.715   9.099   9.388  0.7876  0.2260  0.1109
  273MOL0     O37560   0.617   9.081   9.286 -0.1060  0.9897 -0.9035
  273MOL0     C37561   0.654   9.009   9.172 -0.2186  0.0239  0.0840
  273MOL0     C37562   0.556   8.994   9.068  0.1015 -0.6297 -0.4198
  273MOL0     C37563   0.567   8.916   8.956  0.2269  0.4448  0.4589
  273MOL0     C37564   0.462   8.922   8.849  0.5228 -0.2226  0.6345
  273MOL0     C37565   0.688   8.831   8.943  1.1611 -0.5644 -0.2468
  273MOL0     C37566   0.712   8.744   8.829  0.0587 -0.6431 -0.2492
  273MOL0     O37567   0.853   8.724   8.806 -0.6767 -0.3490  0.4009
  273MOL0     C37568   0.907   8.627   8.725  0.2517  0.7677  0.1990
  273MOL0     C37569   0.854   8.602   8.599  0.6874  0.0066  0.3220
  273MOL0     C37570   0.910   8.507   8.512 -0.3039  0.3863  0.6664
  273MOL0     C37571   1.013   8.420   8.560  0.1307 -0.5302 -0.1779
  273MOL0     O37572   1.048   8.317   8.480  0.0728 -0.5535  0.2288
  273MOL0     C37573   1.190   8.284   8.474  0.1115 -0.7455 -0.7580
  273MOL0     C37574   1.234   8.317   8.326 -0.0264  0.0660  0.2124
  273MOL0     C37575   1.387   8.356   8.323  0.0631  0.4010 -0.5807
  273MOL0     C37576   1.428   8.392   8.181  0.3255 -0.0396  0.0845
  273MOL0     C37577   1.474   8.282   8.096  0.5384 -0.1876 -0.0960
  273MOL0     C37578   1.521   8.341   7.966 -1.0904 -1.2128 -0.0456
  273MOL0     C37579   1.615   8.243   7.889  0.2123  0.1836  0.0111
  273MOL0     C37580   1.660   8.306   7.756  0.1526  0.0152  0.0184
  273MOL0    Cl37581   1.521   8.342   7.643  0.0808 -0.0637  0.4447
  273MOL0     C37582   1.065   8.446   8.688 -0.5560 -0.0693  0.2783
  273MOL0     C37583   1.015   8.544   8.771 -0.5738 -0.4255  0.6620
  273MOL0     O37584   0.618   8.697   8.764 -0.7976  0.1458  0.0245
  273MOL0     C37585   0.787   8.849   9.041 -0.6192 -0.2182 -0.3618
  273MOL0     C37586   0.772   8.924   9.162 -0.2650  0.6828 -0.6274
  273MOL0     N37587   0.832   9.463   9.657 -0.3975 -0.1697  0.7463
  273MOL0     N37588   0.763   9.426   9.760 -0.3387  0.1818  0.0374
  273MOL0     C37589   0.697   8.328   9.354 -0.3754 -0.1689 -0.2441
  273MOL0     C37590   0.791   8.265   9.271 -0.4524 -0.3489  0.8107
  273MOL0     C37591   1.154   8.222   8.975 -0.4385  0.5323  0.1625
  273MOL0     C37592   1.094   8.154   8.871  0.1388 -0.0188 -0.3905
  273MOL0     C37593   1.169   8.076   8.779  0.3344  0.8254  0.4157
  273MOL0     C37594   1.310   8.063   8.795  0.1550  0.4145  0.2996
  273MOL0     O37595   1.372   7.985   8.703 -0.7969 -0.1881  0.3026
  273MOL0     C37596   1.510   7.933   8.725  0.7823 -0.0756  0.6323
  273MOL0     C37597   1.548   7.797   8.673  0.0094  0.3659 -0.2786
  273MOL0     C37598   1.476   7.687   8.756 -0.7318 -0.4251 -0.1822
  273MOL0     C37599   1.521   7.539   8.724  0.1175 -0.0111 -0.6486
  273MOL0     C37600   1.455   7.470   8.604  0.2168 -1.1820 -0.0295
  273MOL0     C37601   1.397   7.430   8.506  0.3832  0.4473 -0.3647
  273MOL0     C37602   1.370   8.129   8.899  0.4573  0.5783 -0.6227
  273MOL0     C37603   1.298   8.210   8.993  0.1175  0.3048 -0.1586
  273MOL0     C37604   1.380   8.287   9.092 -0.8735  0.2834  0.3321
  273MOL0     H37605   0.895   8.528   9.090  0.2330 -1.5160 -0.5326
  273MOL0     H37606   0.743   8.649   9.249 -0.5835  0.7027 -0.1687
  273MOL0     H37607   0.713   8.508   9.592  0.7893 -3.2623 -3.7024
  273MOL0     H37608   0.544   8.439   9.594 -0.7676 -1.0701 -3.9098
  273MOL0     H37609   0.536   8.725   9.542  0.4022 -1.0409 -0.6772
  273MOL0     H37610   0.433   8.623   9.644 -1.2390  0.4531 -0.8072
  273MOL0     H37611   0.553   8.662   9.828 -0.4500 -0.2683 -0.7021
  273MOL0     H37612   0.707   8.682   9.745  0.8092  0.6824 -0.7082
  273MOL0     H37613   0.660   8.905   9.662  1.7078  1.0670  1.5773
  273MOL0     H37614   0.498   8.916   9.716  2.2994  1.7139 -3.4213
  273MOL0     H37615   0.719   8.886   9.912 -0.6492 -0.6540  0.9279
  273MOL0     H37616   0.539   8.913   9.934 -0.3643  0.5550  1.3398
  273MOL0     H37617   0.669   9.120   9.971  1.2707 -0.5084  0.1017
  273MOL0     H37618   0.724   9.113   9.795 -1.2880  0.3865 -0.3163
  273MOL0     H37619   0.432   9.129   9.897 -1.6005 -2.9167 -1.7229
  273MOL0     H37620   0.478   9.132   9.726  0.0691  0.9796  0.8547
  273MOL0     H37621   0.451   9.367   9.785 -1.4975 -1.5231  0.2344
  273MOL0     H37622   0.563   9.360   9.916 -3.5077 -1.1492  1.7610
  273MOL0     H37623   0.553   9.341   9.536  1.1775 -1.9063  1.1977
  273MOL0     H37624   0.911   9.447   9.410 -1.0351 -2.9448  0.0865
  273MOL0     H37625   0.763   9.533   9.359  1.0080  1.2473 -0.4222
  273MOL0     H37626   0.662   9.342   9.298  0.7984 -1.1658 -1.9179
  273MOL0     H37627   0.813   9.355   9.205 -3.4735 -1.2702 -1.8714
  273MOL0     H37628   0.894   9.147   9.292  2.2935  2.8789  0.1096
  273MOL0     H37629   0.874   9.212   9.455  0.5401  3.1814 -1.0281
  273MOL0     H37630   0.753   9.002   9.422 -0.0539  0.6661  2.5627
  273MOL0     H37631   0.661   9.145   9.471 -0.7400  0.3212 -0.9089
  273MOL0     H37632   0.469   9.053   9.092  0.4752  0.3608 -1.4393
  273MOL0     H37633   0.381   8.850   8.861 -1.6874  1.6183 -1.9282
  273MOL0     H37634   0.513   8.910   8.753  0.0663  0.6947  0.2647
  273MOL0     H37635   0.416   9.021   8.839 -2.3320 -1.4767  0.7176
  273MOL0     H37636   0.774   8.666   8.563 -1.2114 -2.6540 -0.5110
  273MOL0     H37637   0.890   8.503   8.406  0.3067  0.2804  0.5495
  273MOL0     H37638   1.248   8.343   8.545 -2.8666  0.5290  0.7805
  273MOL0     H37639   1.218   8.181   8.500 -0.5244 -0.8424 -0.4248
  273MOL0     H37640   1.210   8.229   8.266 -1.6482  1.7096 -1.6895
  273MOL0     H37641   1.183   8.400   8.277  2.0730  0.4109 -1.5826
  273MOL0     H37642   1.456   8.278   8.356  0.1907  0.7134 -0.0942
  273MOL0     H37643   1.389   8.448   8.382 -1.1602 -1.7399  3.1225
  273MOL0     H37644   1.510   8.464   8.186 -0.6212  1.1034 -0.3514
  273MOL0     H37645   1.349   8.449   8.132  0.1566  0.4842  0.9388
  273MOL0     H37646   1.561   8.237   8.143 -1.2040 -2.8490  0.8206
  273MOL0     H37647   1.396   8.207   8.079 -0.2032  0.9468 -2.0967
  273MOL0     H37648   1.589   8.424   7.989 -1.4375 -0.9570  0.0592
  273MOL0     H37649   1.434   8.378   7.911  0.0573  1.9486  0.0374
  273MOL0     H37650   1.568   8.148   7.863  1.2513  0.0870 -1.6532
  273MOL0     H37651   1.702   8.215   7.950 -0.1936  0.6928  0.8463
  273MOL0     H37652   1.734   8.242   7.707 -2.2383 -1.4571 -1.9033
  273MOL0     H37653   1.701   8.407   7.767 -1.3917  0.5058  1.6978
  273MOL0     H37654   1.139   8.379   8.731  0.3798  2.0477  2.2173
  273MOL0     H37655   1.066   8.570   8.863 -1.9609  3.5026  0.4998
  273MOL0     H37656   0.872   8.782   9.036  0.7016  1.1826  1.7121
  273MOL0     H37657   0.845   8.923   9.243 -0.3403 -5.0473 -0.1643
  273MOL0     H37658   0.637   8.265   9.419  0.0959 -1.0158 -0.6061
  273MOL0     H37659   0.818   8.162   9.290  3.7836  0.2730 -0.7328
  273MOL0     H37660   0.987   8.166   8.853  0.2126 -1.0924 -1.6623
  273MOL0     H37661   1.120   8.020   8.700 -1.3770  1.0050  1.2909
  273MOL0     H37662   1.584   7.992   8.669  1.5530 -1.4925  0.0917
  273MOL0     H37663   1.541   7.944   8.830  3.8746 -0.7780 -0.0917
  273MOL0     H37664   1.656   7.786   8.682  0.0160  1.6281  1.6773
  273MOL0     H37665   1.523   7.790   8.566  1.5818  0.1170 -0.6524
  273MOL0     H37666   1.506   7.700   8.861 -0.7460 -4.5515  0.4798
  273MOL0     H37667   1.368   7.697   8.761 -0.7132  1.9095 -2.1644
  273MOL0     H37668   1.496   7.481   8.812  1.4038 -0.5389 -0.6166
  273MOL0     H37669   1.629   7.525   8.716  0.1858 -0.0092  0.2431
  273MOL0     H37670   1.346   7.378   8.427 -1.6029 -2.6847  2.6942
  273MOL0     H37671   1.478   8.128   8.910  0.4747  0.1245 -0.8154
  273MOL0     H37672   1.338   8.272   9.192 -0.0024  0.1805  0.6958
  273MOL0     H37673   1.484   8.254   9.101 -0.8494  0.7355  2.2511
  273MOL0     H37674   1.379   8.396   9.087  0.4648  0.5218  3.0232
  274MOL0     O37675   8.409   3.389   6.573 -0.2063 -0.7525  0.6024
  274MOL0     C37676   8.288   3.427   6.576 -0.2103 -0.4950  0.8364
  274MOL0     O37677   8.231   3.517   6.481 -0.1424  0.2198  0.3577
  274MOL0     C37678   8.299   3.529   6.356 -0.5860  0.2624 -0.9956
  274MOL0     C37679   8.340   3.409   6.295 -0.5754 -0.3643 -0.0764
  274MOL0     C37680   8.391   3.408   6.163 -0.1800  0.7710 -0.4989
  274MOL0     C37681   8.421   3.529   6.106  0.3632 -0.2426  0.1821
  274MOL0     O37682   8.468   3.522   5.974  0.2425 -0.1078 -0.0162
  274MOL0     C37683   8.606   3.567   5.960  0.1738 -0.8618 -0.1844
  274MOL0     C37684   8.658   3.574   5.821 -0.0150 -0.1095 -0.1768
  274MOL0     C37685   8.796   3.639   5.824 -0.0622 -0.5414 -0.1552
  274MOL0     C37686   8.832   3.700   5.698 -0.2021 -0.9970 -0.1529
  274MOL0     C37687   8.961   3.785   5.712  0.9121  0.2009 -1.4952
  274MOL0     C37688   8.988   3.897   5.623  0.6854 -0.4442  0.4045
  274MOL0     C37689   9.001   3.845   5.473 -1.2348  0.4282 -0.2468
  274MOL0     C37690   8.871   3.830   5.387  0.6663  0.3143 -0.7181
  274MOL0     N37691   8.895   3.739   5.269  0.3042  0.2187  0.2825
  274MOL0     C37692   8.963   3.789   5.161 -0.2344  0.1854  0.6056
  274MOL0     C37693   8.979   3.680   5.078 -0.5926  0.1176  0.0260
  274MOL0     C37694   9.043   3.670   4.935  0.5825 -0.7439 -0.0318
  274MOL0     C37695   8.936   3.693   4.823 -0.1960  0.0143 -0.0767
  274MOL0     C37696   8.995   3.678   4.687 -0.3419 -0.6416  0.1376
  274MOL0     C37697   8.894   3.624   4.586  0.5616  0.3832 -0.0809
  274MOL0     O37698   8.981   3.605   4.468  0.1673 -0.0926 -0.0847
  274MOL0     C37699   8.942   3.537   4.355 -0.3339  0.0679 -0.0492
  274MOL0     C37700   9.018   3.559   4.243  0.7133  0.6512  0.3967
  274MOL0     C37701   8.994   3.490   4.119  0.3964 -0.1949 -0.8723
  274MOL0     C37702   9.070   3.531   4.002 -0.0947  0.3771  0.4833
  274MOL0     C37703   8.892   3.398   4.120  0.7517 -0.4847  0.2882
  274MOL0     C37704   8.867   3.314   4.003  0.0222  0.0434  0.3806
  274MOL0     O37705   8.765   3.224   4.023 -0.2213  1.0440  0.7927
  274MOL0     C37706   8.720   3.157   3.912 -0.0492  0.3758  0.8536
  274MOL0     C37707   8.769   3.030   3.885 -0.4341  0.1214  0.2803
  274MOL0     C37708   8.724   2.970   3.771 -0.5379  1.2822  1.0631
  274MOL0     C37709   8.628   3.024   3.683 -0.0769 -0.3297  0.6002
  274MOL0     O37710   8.575   2.948   3.578 -0.3208 -0.2507  0.2593
  274MOL0     C37711   8.438   2.938   3.584  0.0190 -0.1939  0.7662
  274MOL0     C37712   8.368   2.858   3.470 -0.7869  0.7868 -0.7059
  274MOL0     C37713   8.225   2.823   3.500  0.8524  0.0557 -0.9280
  274MOL0     C37714   8.165   2.734   3.399  0.6372  0.6197 -0.5485
  274MOL0     C37715   8.011   2.738   3.388  0.3016  0.8687  0.1490
  274MOL0     C37716   7.962   2.630   3.285  0.2776 -0.6095  0.8395
  274MOL0     C37717   7.819   2.634   3.241  0.0282 -0.1400  0.0623
  274MOL0     C37718   7.712   2.585   3.329  0.1044 -0.5268  0.8787
  274MOL0    Cl37719   7.556   2.617   3.241  0.2360  0.1917 -0.0340
  274MOL0     C37720   8.580   3.156   3.708 -0.1181  0.7642  0.1633
  274MOL0     C37721   8.623   3.219   3.825  0.3819  0.5152 -0.6179
  274MOL0     O37722   8.923   3.324   3.893  0.1748  0.3685 -0.3215
  274MOL0     C37723   8.819   3.370   4.233 -0.2725 -0.3723 -0.2933
  274MOL0     C37724   8.838   3.446   4.345 -0.6436  0.0762 -0.5389
  274MOL0     N37725   8.913   3.569   5.133  0.2385 -0.8634  0.3647
  274MOL0     N37726   8.869   3.603   5.255  0.3918 -0.0725  1.2206
  274MOL0     C37727   8.387   3.652   6.165  0.8155  0.6133  0.8039
  274MOL0     C37728   8.330   3.653   6.293 -0.1430 -0.0153 -0.0360
  274MOL0     C37729   8.205   3.392   6.694  0.1787  0.7166 -0.1838
  274MOL0     C37730   8.128   3.495   6.747 -0.3104  1.2738 -0.7133
  274MOL0     C37731   8.035   3.472   6.852  0.1370  0.1098 -0.1228
  274MOL0     C37732   8.030   3.342   6.900  1.0944 -0.1730  0.2925
  274MOL0     O37733   7.944   3.319   7.006  0.3217 -1.2079 -0.3076
  274MOL0     C37734   7.864   3.197   6.998 -0.9362 -0.0625 -0.2923
  274MOL0     C37735   7.778   3.185   7.127 -0.0882  0.3621 -0.2378
  274MOL0     C37736   7.657   3.274   7.103 -0.6904  0.2372 -0.0984
  274MOL0     C37737   7.566   3.285   7.230 -0.6476  0.3530 -0.3147
  274MOL0     C37738   7.499   3.164   7.287 -0.9494 -0.1116  0.1299
  274MOL0     C37739   7.462   3.060   7.340 -0.0533 -0.4118 -0.4104
  274MOL0     C37740   8.112   3.236   6.855  0.0387  0.6497  0.6138
  274MOL0     C37741   8.192   3.259   6.744  0.1933 -0.5535 -0.7434
  274MOL0     C37742   8.287   3.146   6.702  0.2789 -0.3292 -0.7964
  274MOL0     H37743   8.352   3.311   6.341 -0.4971 -0.1266  0.4097
  274MOL0     H37744   8.423   3.314   6.118  0.7557  1.0381 -0.4251
  274MOL0     H37745   8.666   3.489   6.009  1.5177 -1.4346 -2.5623
  274MOL0     H37746   8.627   3.663   6.009 -0.2166  0.0026 -1.6331
  274MOL0     H37747   8.657   3.476   5.773 -1.2977 -2.2593  3.8084
  274MOL0     H37748   8.591   3.642   5.767  1.3858  3.4841  2.2163
  274MOL0     H37749   8.804   3.726   5.891  0.1932  0.9293 -2.0165
  274MOL0     H37750   8.878   3.574   5.853  0.5387  1.0897  2.1609
  274MOL0     H37751   8.848   3.630   5.615  0.6938  0.5624 -1.3558
  274MOL0     H37752   8.753   3.764   5.656 -0.7016 -3.1054 -2.7493
  274MOL0     H37753   9.041   3.711   5.697  2.6740  1.4503  0.9527
  274MOL0     H37754   8.968   3.819   5.815 -2.5954 -2.3598 -0.2297
  274MOL0     H37755   8.908   3.971   5.621  0.5494 -0.5840 -1.8473
  274MOL0     H37756   9.082   3.947   5.648  0.6657  0.2865 -0.9069
  274MOL0     H37757   9.055   3.750   5.471 -0.1642  1.0035  0.1988
  274MOL0     H37758   9.068   3.914   5.420 -1.4569  0.6270 -0.2686
  274MOL0     H37759   8.794   3.784   5.450 -1.1862  1.6469 -1.9249
  274MOL0     H37760   8.840   3.924   5.341 -1.6306 -0.0651 -0.0703
  274MOL0     H37761   9.015   3.884   5.145  0.0005 -0.1687 -0.9516
  274MOL0     H37762   9.091   3.572   4.921  0.6144 -0.9444  1.3402
  274MOL0     H37763   9.123   3.743   4.922  1.8885 -1.4854  2.9919
  274MOL0     H37764   8.854   3.622   4.831 -0.2943  0.1101 -0.2318
  274MOL0     H37765   8.888   3.790   4.835  1.0241  0.5768  0.4471
  274MOL0     H37766   9.042   3.771   4.653  1.5913 -1.1928  1.1519
  274MOL0     H37767   9.083   3.613   4.683  1.0910  1.2412 -1.2461
  274MOL0     H37768   8.855   3.525   4.611  1.6840 -0.2657 -0.7881
  274MOL0     H37769   8.815   3.693   4.556  1.0877 -0.1895 -3.0232
  274MOL0     H37770   9.101   3.628   4.252  2.5990 -1.3136 -0.9946
  274MOL0     H37771   9.015   3.564   3.913  1.0930 -0.2278 -0.5007
  274MOL0     H37772   9.135   3.446   3.979 -0.2351  0.4031 -0.0422
  274MOL0     H37773   9.143   3.611   4.012  0.0001  1.0189 -3.5385
  274MOL0     H37774   8.834   2.984   3.959 -0.0743  1.2789  0.7020
  274MOL0     H37775   8.769   2.873   3.752  1.9902  1.9657  2.9993
  274MOL0     H37776   8.416   2.903   3.685 -1.8736  0.9856  0.8034
  274MOL0     H37777   8.390   3.036   3.582  2.1527  0.9012  0.2309
  274MOL0     H37778   8.390   2.915   3.379 -0.2781  0.4724 -0.7782
  274MOL0     H37779   8.427   2.769   3.449 -3.2084 -0.7103 -1.6579
  274MOL0     H37780   8.161   2.911   3.496  0.3460  0.4115  5.3855
  274MOL0     H37781   8.208   2.779   3.599  1.3504  0.8570 -0.4747
  274MOL0     H37782   8.190   2.631   3.426 -0.2281  0.8739  1.4223
  274MOL0     H37783   8.203   2.759   3.300  0.7891  0.7017 -0.4692
  274MOL0     H37784   7.962   2.722   3.485 -0.6250  0.4072 -0.3801
  274MOL0     H37785   7.980   2.839   3.362 -0.4984  0.2465 -1.4418
  274MOL0     H37786   7.969   2.533   3.335 -0.6442  0.7582  3.8380
  274MOL0     H37787   8.029   2.645   3.200 -0.7937  0.8279  0.2102
  274MOL0     H37788   7.813   2.569   3.153 -0.2629  2.3809 -1.8573
  274MOL0     H37789   7.795   2.738   3.218 -1.1900  0.0879  2.0756
  274MOL0     H37790   7.709   2.649   3.417  0.0435 -2.4749  2.3635
  274MOL0     H37791   7.727   2.480   3.357 -0.4186 -0.5917  0.9232
  274MOL0     H37792   8.511   3.205   3.640 -0.3761  1.2972  0.7965
  274MOL0     H37793   8.577   3.317   3.836 -0.8989 -0.1444  0.1129
  274MOL0     H37794   8.751   3.288   4.253 -0.4516 -0.2491 -0.3925
  274MOL0     H37795   8.784   3.409   4.431  0.1272  0.1063 -0.0324
  274MOL0     H37796   8.413   3.747   6.121 -0.6352  1.3907  1.5816
  274MOL0     H37797   8.322   3.744   6.351 -0.5471 -0.8412  1.2558
  274MOL0     H37798   8.141   3.595   6.709 -0.7910  0.3720 -3.4969
  274MOL0     H37799   7.977   3.553   6.895  4.2068  1.5933  3.2170
  274MOL0     H37800   7.803   3.185   6.908 -1.1133 -3.1951  0.1553
  274MOL0     H37801   7.936   3.114   6.991  0.0943  0.9332 -4.5919
  274MOL0     H37802   7.837   3.227   7.210 -1.4338  1.0365  0.4053
  274MOL0     H37803   7.755   3.083   7.158 -2.5834  0.6416 -0.9684
  274MOL0     H37804   7.691   3.376   7.083 -3.2977  0.9372 -1.4583
  274MOL0     H37805   7.606   3.240   7.012 -0.9493 -0.7144  0.3874
  274MOL0     H37806   7.486   3.356   7.210 -0.9392  1.0583  2.8891
  274MOL0     H37807   7.635   3.325   7.305  0.1593  2.5423 -2.1086
  274MOL0     H37808   7.420   2.976   7.392 -2.3126  1.5362  1.1258
  274MOL0     H37809   8.109   3.134   6.891 -1.4894  1.3662  2.7119
  274MOL0     H37810   8.382   3.153   6.756 -0.5513  2.0301  0.5479
  274MOL0     H37811   8.240   3.050   6.725 -0.2875  0.0703 -0.2382
  274MOL0     H37812   8.306   3.146   6.594 -1.3097  1.1571 -1.1341
  275MOL0     O37813   6.086   7.211   1.264  0.1083  0.7234 -0.5558
  275MOL0     C37814   6.019   7.253   1.170  0.5279  0.1686 -0.2717
  275MOL0     O37815   5.889   7.271   1.176  0.6900 -0.3247 -0.0268
  275MOL0     C37816   5.811   7.263   1.298 -0.7345  0.0970  0.0062
  275MOL0     C37817   5.848   7.224   1.423  0.4823  0.3706 -0.4656
  275MOL0     C37818   5.755   7.216   1.531  0.4826  0.1596  0.4216
  275MOL0     C37819   5.625   7.253   1.501  0.0961 -0.5120 -0.8014
  275MOL0     O37820   5.533   7.236   1.601 -0.4466 -0.0843 -0.0394
  275MOL0     C37821   5.485   7.098   1.605 -0.5066  0.3939 -0.7123
  275MOL0     C37822   5.462   7.045   1.738  0.8725 -0.2462  0.1637
  275MOL0     C37823   5.317   7.101   1.786 -0.4430  0.5647  0.2969
  275MOL0     C37824   5.270   7.021   1.905  1.0437 -0.5622  0.1666
  275MOL0     C37825   5.169   7.098   2.002  0.0996  0.4323  0.3178
  275MOL0     C37826   5.040   7.159   1.944  0.2967 -0.4846  0.6737
  275MOL0     C37827   5.059   7.319   1.918  0.6448  0.2570 -1.0223
  275MOL0     C37828   4.921   7.386   1.914 -0.2731  0.4045  0.2012
  275MOL0     N37829   4.951   7.525   1.935  0.5160  0.4873  0.6681
  275MOL0     C37830   4.999   7.585   2.039 -0.1977 -0.0314 -0.9000
  275MOL0     C37831   4.969   7.715   2.044  0.2975  0.4893 -0.0475
  275MOL0     C37832   4.981   7.821   2.147  0.1221  0.2811 -0.2830
  275MOL0     C37833   5.114   7.819   2.224 -0.1892  0.0058 -0.5676
  275MOL0     C37834   5.233   7.846   2.140 -1.2606  0.3773  0.7211
  275MOL0     C37835   5.360   7.844   2.219 -1.1433  0.0508  0.1794
  275MOL0     O37836   5.461   7.883   2.127  0.3807  0.1613  0.2656
  275MOL0     C37837   5.593   7.902   2.166  0.9339 -0.3871  0.5068
  275MOL0     C37838   5.638   7.878   2.291  0.2380  0.7427  0.2085
  275MOL0     C37839   5.775   7.879   2.327  0.0151  0.3210 -0.6193
  275MOL0     C37840   5.824   7.822   2.464  0.1116 -0.4519 -0.5084
  275MOL0     C37841   5.864   7.929   2.229 -0.9580 -0.1692 -0.2539
  275MOL0     C37842   6.016   7.944   2.249  0.3837 -0.2661  0.0417
  275MOL0     O37843   6.093   7.941   2.131  0.5699  0.0966  0.4050
  275MOL0     C37844   6.232   7.971   2.124  0.2654 -0.3792  0.0958
  275MOL0     C37845   6.326   7.979   2.223  0.3600  0.2901 -0.7346
  275MOL0     C37846   6.460   8.006   2.194  0.2870  1.5291 -0.0357
  275MOL0     C37847   6.504   8.021   2.062 -0.8583  0.0914  0.1190
  275MOL0     O37848   6.643   8.025   2.025  0.3950 -0.0575 -1.3056
  275MOL0     C37849   6.702   7.898   2.034 -0.6297 -0.2380  0.6683
  275MOL0     C37850   6.824   7.894   2.124 -0.2727 -0.1573 -0.4846
  275MOL0     C37851   6.947   7.973   2.076 -0.0957 -0.3618 -0.6448
  275MOL0     C37852   7.000   7.961   1.928  0.2398 -0.1582 -0.8122
  275MOL0     C37853   7.122   8.047   1.893  0.0517  0.2616  0.2144
  275MOL0     C37854   7.133   8.075   1.744  0.1613 -1.0733  0.0389
  275MOL0     C37855   7.261   8.134   1.702 -0.0325  0.0932 -0.3331
  275MOL0     C37856   7.259   8.159   1.544  0.5699 -0.4355  0.1152
  275MOL0    Cl37857   7.199   8.325   1.513 -0.6574  0.0596  0.0009
  275MOL0     C37858   6.410   8.024   1.961  0.3365  0.4273 -0.2273
  275MOL0     C37859   6.277   7.987   1.991  0.4410  0.7899 -0.2949
  275MOL0     O37860   6.065   7.957   2.362  0.1466  0.6154  0.3311
  275MOL0     C37861   5.825   7.962   2.102  0.6272 -0.3718  0.6543
  275MOL0     C37862   5.688   7.939   2.071 -0.0042 -0.3202 -0.3239
  275MOL0     N37863   4.885   7.729   1.933 -0.4732  1.2144 -0.1645
  275MOL0     N37864   4.867   7.616   1.875 -0.2689 -1.2987  0.1894
  275MOL0     C37865   5.584   7.309   1.387  0.3464  0.3529 -0.2926
  275MOL0     C37866   5.681   7.314   1.285 -0.3728 -0.1279 -0.3532
  275MOL0     C37867   6.097   7.264   1.039 -0.1283  0.2299 -0.5362
  275MOL0     C37868   6.053   7.183   0.937 -0.0454 -0.2165 -0.1657
  275MOL0     C37869   6.133   7.192   0.819 -0.0956 -0.4694  0.5959
  275MOL0     C37870   6.239   7.282   0.795  0.8442 -0.3472 -0.4433
  275MOL0     O37871   6.311   7.297   0.680 -0.4410  0.2038 -0.6919
  275MOL0     C37872   6.255   7.248   0.556 -0.0574 -0.4932  0.5600
  275MOL0     C37873   6.250   7.359   0.458  0.5521  0.1112  0.8162
  275MOL0     C37874   6.143   7.465   0.486  0.0634 -1.0308  0.1519
  275MOL0     C37875   5.997   7.413   0.477 -0.8614 -0.4904  0.1271
  275MOL0     C37876   5.955   7.336   0.359 -0.8038 -0.0576  0.0879
  275MOL0     C37877   5.912   7.284   0.262 -0.4144 -0.5781 -0.2067
  275MOL0     C37878   6.273   7.359   0.906 -0.4365  0.4214  0.9565
  275MOL0     C37879   6.203   7.352   1.029 -0.3381  0.3819  0.1095
  275MOL0     C37880   6.250   7.450   1.131 -0.7040  0.3657 -0.4468
  275MOL0     H37881   5.949   7.201   1.453 -0.0528  0.5016  1.5694
  275MOL0     H37882   5.781   7.173   1.627 -0.1057  1.1018  1.0117
  275MOL0     H37883   5.556   7.027   1.560 -2.2420 -0.7998 -1.6833
  275MOL0     H37884   5.390   7.095   1.550 -0.8802  2.8666 -0.3321
  275MOL0     H37885   5.460   6.936   1.736  3.2768 -0.3286 -1.5239
  275MOL0     H37886   5.536   7.085   1.808 -1.1417  1.0774  1.6625
  275MOL0     H37887   5.339   7.206   1.809  0.8613  0.5408 -0.7439
  275MOL0     H37888   5.246   7.095   1.703 -0.3009 -1.2874  0.2696
  275MOL0     H37889   5.212   6.936   1.869 -1.1319 -1.4215  4.8496
  275MOL0     H37890   5.358   6.987   1.960  0.9770  1.8544  1.9766
  275MOL0     H37891   5.233   7.174   2.049 -1.6468  1.5978  0.9362
  275MOL0     H37892   5.142   7.027   2.081  2.6911  0.4285  1.3022
  275MOL0     H37893   5.021   7.115   1.846  1.0345  3.8556 -1.6863
  275MOL0     H37894   4.955   7.144   2.012 -1.0244  2.6422 -0.1124
  275MOL0     H37895   5.125   7.339   1.833  0.5434  0.3476 -1.0795
  275MOL0     H37896   5.113   7.356   2.006  0.5826  1.4733 -1.4688
  275MOL0     H37897   4.863   7.372   1.823  1.4234  0.9104 -1.0125
  275MOL0     H37898   4.852   7.352   1.991 -2.2110 -0.5296 -1.8361
  275MOL0     H37899   5.054   7.547   2.124 -1.3294 -0.0301 -0.1458
  275MOL0     H37900   4.903   7.832   2.222 -0.3450 -1.0954 -0.5424
  275MOL0     H37901   4.986   7.913   2.088  0.0990  0.4058 -0.0901
  275MOL0     H37902   5.109   7.893   2.304 -3.3899  1.6705 -2.1283
  275MOL0     H37903   5.133   7.721   2.270  0.6425  0.5984  0.3944
  275MOL0     H37904   5.245   7.773   2.059 -2.2097  3.3114 -2.3177
  275MOL0     H37905   5.227   7.942   2.088 -0.6878  0.5363  0.9323
  275MOL0     H37906   5.356   7.913   2.303 -1.0969 -1.1109  1.1769
  275MOL0     H37907   5.394   7.750   2.264  0.3247  1.2159  1.5767
  275MOL0     H37908   5.571   7.851   2.372 -1.8519  2.0996 -0.9745
  275MOL0     H37909   5.737   7.780   2.515 -0.0365  2.6768  2.1203
  275MOL0     H37910   5.862   7.903   2.527 -0.8415 -0.7240  0.4242
  275MOL0     H37911   5.913   7.760   2.449  1.6205  0.9298  2.0753
  275MOL0     H37912   6.302   7.951   2.325 -0.9195 -1.0875 -1.3787
  275MOL0     H37913   6.535   8.006   2.273 -0.0283  1.8412  0.2633
  275MOL0     H37914   6.632   7.823   2.071  2.8082 -4.4832 -0.6721
  275MOL0     H37915   6.729   7.869   1.933 -1.9016  1.0495 -0.0772
  275MOL0     H37916   6.799   7.921   2.227  1.2634 -1.4549  0.2868
  275MOL0     H37917   6.843   7.786   2.124 -2.0057 -0.5383  2.0938
  275MOL0     H37918   7.023   7.938   2.147 -1.2855  2.4564  2.2892
  275MOL0     H37919   6.926   8.078   2.099 -1.2731 -0.9224  1.0886
  275MOL0     H37920   6.923   7.975   1.851 -0.0238 -0.1810 -0.5521
  275MOL0     H37921   7.021   7.854   1.921 -1.0446 -0.5885  1.2010
  275MOL0     H37922   7.116   8.146   1.938  0.8950  1.0354 -1.2802
  275MOL0     H37923   7.207   7.994   1.937  0.0630  0.3606  0.3120
  275MOL0     H37924   7.053   8.147   1.723  1.1431  0.3873  1.0822
  275MOL0     H37925   7.108   7.982   1.693  0.2615 -1.6770  1.0618
  275MOL0     H37926   7.343   8.069   1.733  0.1178 -0.4736 -1.8371
  275MOL0     H37927   7.272   8.230   1.754 -0.6601 -0.4888  0.9439
  275MOL0     H37928   7.221   8.070   1.493  0.2740  0.1114 -0.6360
  275MOL0     H37929   7.363   8.164   1.509  0.4576  3.2805 -0.0771
  275MOL0     H37930   6.436   8.044   1.857 -1.0023 -1.3084 -0.9427
  275MOL0     H37931   6.213   7.973   1.905 -0.5391 -1.3767  0.6948
  275MOL0     H37932   5.884   8.007   2.023  0.5962  0.6469  1.2070
  275MOL0     H37933   5.654   7.960   1.970 -3.4234  2.0541  1.1248
  275MOL0     H37934   5.488   7.359   1.380  0.8031  1.3308  0.2815
  275MOL0     H37935   5.659   7.367   1.193 -1.3896 -0.8857 -0.5614
  275MOL0     H37936   5.953   7.143   0.946  0.9565 -2.4836  2.4878
  275MOL0     H37937   6.110   7.122   0.739 -1.1855  1.3605 -0.7625
  275MOL0     H37938   6.331   7.180   0.515  1.8008  1.9509 -0.3175
  275MOL0     H37939   6.154   7.206   0.555 -0.1646 -0.2325 -0.3721
  275MOL0     H37940   6.233   7.325   0.355 -1.1526  1.0491  0.7433
  275MOL0     H37941   6.347   7.409   0.451  1.4814 -1.4752  1.8427
  275MOL0     H37942   6.149   7.500   0.589  1.9211  1.9303 -0.8258
  275MOL0     H37943   6.165   7.552   0.423 -1.4613  0.7617  1.9642
  275MOL0     H37944   5.933   7.502   0.479 -0.0397  0.1054  0.2010
  275MOL0     H37945   5.990   7.352   0.568  1.5929 -0.0445  0.6613
  275MOL0     H37946   5.872   7.244   0.170  1.6645 -2.3538 -0.4293
  275MOL0     H37947   6.359   7.424   0.893  2.3914 -3.0726  0.7641
  275MOL0     H37948   6.277   7.383   1.213 -1.6544  1.5031  0.8256
  275MOL0     H37949   6.327   7.515   1.089 -1.0895  0.3382 -1.2267
  275MOL0     H37950   6.169   7.514   1.167  0.8167  2.1589 -0.0667
  276MOL0     O37951  10.403   8.550   1.862 -1.1207  0.5176 -0.7871
  276MOL0     C37952  10.510   8.608   1.893 -0.5345  0.0212  0.2778
  276MOL0     O37953  10.549   8.646   2.020  0.1385 -0.5935  0.4967
  276MOL0     C37954  10.451   8.658   2.116  0.0619  0.0637 -0.5735
  276MOL0     C37955  10.391   8.538   2.163  0.0444  0.1583  0.0088
  276MOL0     C37956  10.310   8.548   2.279  0.0053  0.6391 -0.0145
  276MOL0     C37957  10.277   8.671   2.338 -0.2181 -0.5597  0.6087
  276MOL0     O37958  10.206   8.667   2.450 -0.5622  0.2958  0.1808
  276MOL0     C37959  10.103   8.770   2.468 -0.3426 -0.5225 -0.0208
  276MOL0     C37960  10.112   8.832   2.612  0.2154 -0.0521 -0.2601
  276MOL0     C37961  10.106   8.720   2.716  0.0724  0.3514 -0.1588
  276MOL0     C37962  10.027   8.763   2.841  0.3905 -0.3176  0.9042
  276MOL0     C37963  10.020   8.668   2.964 -0.7952 -0.8516  0.0430
  276MOL0     C37964   9.940   8.728   3.091  0.1778 -0.3014  0.5227
  276MOL0     C37965   9.980   8.847   3.171  0.4847  0.0458 -0.4414
  276MOL0     C37966   9.922   8.858   3.305  1.0694  0.4293 -0.5405
  276MOL0     N37967   9.990   8.977   3.369 -0.3320 -0.2256 -0.2149
  276MOL0     C37968  10.004   8.976   3.509 -1.1353 -0.1321 -0.5108
  276MOL0     C37969  10.077   9.085   3.534 -0.7393  0.0196  0.0763
  276MOL0     C37970  10.131   9.127   3.667 -0.6591  0.6648 -0.4768
  276MOL0     C37971  10.264   9.065   3.682  0.4108  0.0910  0.0925
  276MOL0     C37972  10.369   9.138   3.591 -0.2438 -0.3598  0.7829
  276MOL0     C37973  10.510   9.132   3.654 -0.9372 -0.6388  0.5300
  276MOL0     O37974  10.552   9.020   3.721  0.2640  0.2606 -0.2178
  276MOL0     C37975  10.669   9.022   3.788 -0.1866  0.0635  0.6033
  276MOL0     C37976  10.776   9.112   3.767 -0.2368  0.3714 -0.3265
  276MOL0     C37977  10.905   9.109   3.841  0.9393  0.4951  0.4993
  276MOL0     C37978  11.008   9.220   3.816  0.2596 -1.2078  0.5853
  276MOL0     C37979  10.920   9.002   3.935 -0.0566 -0.7029 -0.8278
  276MOL0     C37980  11.020   9.003   4.048 -0.1701  0.2090  0.5227
  276MOL0     O37981  10.993   8.933   4.163 -0.6297  0.1296  0.5695
  276MOL0     C37982  11.061   8.965   4.276 -0.2025  0.1762 -0.2893
  276MOL0     C37983  11.118   9.093   4.305  0.2995 -0.2407  0.0914
  276MOL0     C37984  11.181   9.111   4.421  0.6988  0.2127  0.1158
  276MOL0     C37985  11.196   9.013   4.508 -0.6773 -0.2510  0.3386
  276MOL0     O37986  11.252   9.050   4.632  0.1430  0.0586 -0.0265
  276MOL0     C37987  11.275   8.952   4.736 -0.2267  0.7608 -0.4154
  276MOL0     C37988  11.384   8.985   4.836  0.7679  0.1514 -0.2286
  276MOL0     C37989  11.326   9.055   4.963 -0.7381 -0.4640 -0.7808
  276MOL0     C37990  11.443   9.128   5.050  0.7610 -0.9837  1.0305
  276MOL0     C37991  11.563   9.036   5.075 -0.2275  0.1525 -0.4616
  276MOL0     C37992  11.542   8.942   5.198  0.4913  0.4784 -0.0213
  276MOL0     C37993  11.661   8.844   5.190 -0.1574  0.2625 -0.8766
  276MOL0     C37994  11.665   8.745   5.316  1.2218  0.3747 -0.1200
  276MOL0    Cl37995  11.526   8.641   5.304 -0.2890 -0.6299  0.1393
  276MOL0     C37996  11.152   8.885   4.478 -0.0999  0.1199 -0.8879
  276MOL0     C37997  11.086   8.858   4.365  0.9047 -0.1352  0.5981
  276MOL0     O37998  11.132   9.044   4.022  0.1807  0.0517  0.5703
  276MOL0     C37999  10.806   8.919   3.955 -0.0166  0.2623  0.5188
  276MOL0     C38000  10.680   8.928   3.887 -1.1468 -0.0520  0.3348
  276MOL0     N38001  10.105   9.148   3.416 -0.1963 -0.1859 -0.2396
  276MOL0     N38002  10.044   9.093   3.319  0.0462  0.0984  0.2875
  276MOL0     C38003  10.341   8.788   2.290  0.8709 -0.3258  1.0373
  276MOL0     C38004  10.429   8.783   2.183  0.8316 -0.2562  0.7264
  276MOL0     C38005  10.620   8.602   1.792 -0.7015 -0.5014 -0.8386
  276MOL0     C38006  10.630   8.484   1.715  0.3832  0.5470  0.3354
  276MOL0     C38007  10.734   8.461   1.629 -0.0314  0.7352  0.4632
  276MOL0     C38008  10.843   8.559   1.615 -0.6495 -0.3565  0.7295
  276MOL0     O38009  10.960   8.541   1.543 -0.0815  0.0549  0.0636
  276MOL0     C38010  10.943   8.450   1.435  0.1786 -0.1623 -0.4645
  276MOL0     C38011  11.053   8.447   1.333 -0.0112 -0.0686  0.1124
  276MOL0     C38012  11.044   8.577   1.261 -0.3292  0.3728  1.0147
  276MOL0     C38013  11.181   8.619   1.204  0.4324  0.5198  0.3450
  276MOL0     C38014  11.236   8.536   1.100  0.2107 -0.1686 -0.7880
  276MOL0     C38015  11.281   8.465   1.014  0.6878  0.6940  1.1041
  276MOL0     C38016  10.834   8.679   1.689  0.9646  0.1027  0.7075
  276MOL0     C38017  10.721   8.701   1.772 -0.4833  0.8458  0.0500
  276MOL0     C38018  10.715   8.837   1.833  0.1500 -0.0151 -0.5150
  276MOL0     H38019  10.412   8.442   2.117  2.4390  0.5262  0.2316
  276MOL0     H38020  10.254   8.460   2.308 -1.0549  1.1697 -0.4009
  276MOL0     H38021  10.003   8.732   2.446 -0.0624  0.5849 -3.9716
  276MOL0     H38022  10.114   8.853   2.397 -1.3578  0.8021  1.2938
  276MOL0     H38023  10.200   8.893   2.633  1.2730 -2.2858  2.5214
  276MOL0     H38024  10.037   8.911   2.620  0.0184 -0.1277 -1.2292
  276MOL0     H38025  10.045   8.638   2.677 -0.4499 -0.1448  1.5891
  276MOL0     H38026  10.202   8.680   2.751 -1.3921 -1.5105  2.0542
  276MOL0     H38027  10.077   8.856   2.868 -1.7928  1.2435 -0.1205
  276MOL0     H38028   9.925   8.771   2.803  0.8017  0.2811 -0.0928
  276MOL0     H38029  10.121   8.662   3.005 -1.6507 -0.0412  2.4402
  276MOL0     H38030   9.992   8.566   2.939  0.0236 -1.5929  1.9792
  276MOL0     H38031   9.836   8.743   3.060  0.2814 -1.1711 -0.2919
  276MOL0     H38032   9.940   8.642   3.159  1.9279 -1.1593 -0.4774
  276MOL0     H38033   9.942   8.933   3.114  0.0975 -0.6662 -1.2755
  276MOL0     H38034  10.089   8.851   3.181  0.3108 -1.0471  3.6304
  276MOL0     H38035   9.814   8.872   3.315  1.1897 -0.2149  2.8796
  276MOL0     H38036   9.956   8.763   3.347 -0.3254 -0.5510 -1.5241
  276MOL0     H38037   9.975   8.905   3.585  0.6317  0.2479  0.5645
  276MOL0     H38038  10.067   9.081   3.744 -0.0246  0.5085 -0.0364
  276MOL0     H38039  10.120   9.236   3.673  0.3809  0.7060  2.4617
  276MOL0     H38040  10.304   9.093   3.780  2.8448  4.4022 -1.8234
  276MOL0     H38041  10.241   8.959   3.668 -0.9645 -0.0545  2.8535
  276MOL0     H38042  10.361   9.097   3.490 -0.5346  1.5562 -0.0098
  276MOL0     H38043  10.334   9.239   3.572 -1.1034 -1.0329 -1.4788
  276MOL0     H38044  10.584   9.137   3.573 -1.7714 -0.4328 -0.2414
  276MOL0     H38045  10.532   9.224   3.709  1.7539 -0.9478  0.1400
  276MOL0     H38046  10.759   9.198   3.703  0.1891  0.5823 -0.1605
  276MOL0     H38047  10.978   9.276   3.727 -0.6541  2.4751  2.9670
  276MOL0     H38048  11.104   9.171   3.800  1.0246  0.7879 -1.5695
  276MOL0     H38049  11.008   9.293   3.898  2.6186 -0.8908  0.3488
  276MOL0     H38050  11.124   9.171   4.230  0.3570  1.9397  2.2590
  276MOL0     H38051  11.211   9.210   4.454 -0.4910  0.1451  1.5258
  276MOL0     H38052  11.189   8.921   4.795 -1.3719 -2.3272 -3.3907
  276MOL0     H38053  11.316   8.861   4.691  3.8237  1.6972  0.9455
  276MOL0     H38054  11.437   8.896   4.869 -0.4789 -1.1247 -1.5491
  276MOL0     H38055  11.465   9.048   4.798  1.5649  0.0495  1.2153
  276MOL0     H38056  11.281   8.974   5.021  1.9009 -1.3283  0.2187
  276MOL0     H38057  11.251   9.132   4.943 -0.2136  1.0363  2.4709
  276MOL0     H38058  11.404   9.170   5.144 -0.0235  1.4591 -0.3087
  276MOL0     H38059  11.474   9.209   4.983 -2.4302 -1.1670 -0.8260
  276MOL0     H38060  11.598   8.981   4.987 -1.2103 -0.4498 -0.4943
  276MOL0     H38061  11.640   9.104   5.114 -1.0869  0.4343  0.8246
  276MOL0     H38062  11.448   8.886   5.196 -1.4311  3.3345  2.1442
  276MOL0     H38063  11.536   9.001   5.290 -1.5901  1.3805 -0.6866
  276MOL0     H38064  11.752   8.904   5.187  1.5647 -2.2088 -2.2974
  276MOL0     H38065  11.657   8.783   5.099  2.1819  0.5042 -1.2141
  276MOL0     H38066  11.655   8.802   5.409  2.2361  0.6213 -0.1612
  276MOL0     H38067  11.758   8.689   5.327 -0.1123 -1.6912  1.4710
  276MOL0     H38068  11.154   8.806   4.554  1.2979  0.4052 -0.6095
  276MOL0     H38069  11.029   8.766   4.357 -1.0741  1.0572  0.5232
  276MOL0     H38070  10.809   8.853   4.041  2.8806  2.3457  2.2032
  276MOL0     H38071  10.597   8.861   3.906 -2.2240  1.0852 -0.2670
  276MOL0     H38072  10.332   8.885   2.338  0.1393 -0.5385  1.3409
  276MOL0     H38073  10.473   8.877   2.153 -4.1185  2.6516  1.4662
  276MOL0     H38074  10.558   8.404   1.729  0.8809  0.0754  0.2262
  276MOL0     H38075  10.726   8.366   1.576 -1.8226  0.5094  1.0804
  276MOL0     H38076  10.927   8.352   1.480 -1.9573 -0.0459 -0.8803
  276MOL0     H38077  10.854   8.486   1.383  1.5793 -0.5727 -3.3194
  276MOL0     H38078  11.046   8.363   1.263 -2.5891 -0.6661  0.9842
  276MOL0     H38079  11.146   8.425   1.386 -0.9221  0.9232  2.2190
  276MOL0     H38080  10.971   8.561   1.181 -0.4109  1.5340  0.8299
  276MOL0     H38081  11.012   8.659   1.326  1.9605  0.8032  1.6770
  276MOL0     H38082  11.269   8.619   1.269  1.8040 -2.7062 -1.2492
  276MOL0     H38083  11.161   8.720   1.167 -4.4259 -0.4914 -0.4384
  276MOL0     H38084  11.312   8.407   0.929 -2.6180 -2.3528  1.7142
  276MOL0     H38085  10.894   8.768   1.677  1.5234 -0.0009  2.5365
  276MOL0     H38086  10.788   8.841   1.915  0.2221 -1.4753 -0.4943
  276MOL0     H38087  10.737   8.917   1.762  2.2678 -1.5029 -1.6306
  276MOL0     H38088  10.612   8.858   1.863 -0.1448  0.9179 -2.0686
  277MOL0     O38089   8.509   3.152  10.666 -0.0958  0.2369  0.3459
  277MOL0     C38090   8.428   3.062  10.642 -0.6718  0.2765  0.9937
  277MOL0     O38091   8.449   2.967  10.549  0.3736  0.4472 -0.5705
  277MOL0     C38092   8.570   2.950  10.473 -0.9578  0.1723 -0.3874
  277MOL0     C38093   8.565   2.876  10.353 -0.0123  0.6822 -0.8831
  277MOL0     C38094   8.672   2.833  10.286 -0.7987  0.5867 -0.2103
  277MOL0     C38095   8.794   2.880  10.328  0.4967  0.9291  0.3028
  277MOL0     O38096   8.895   2.816  10.263 -0.2237  0.4242  0.4373
  277MOL0     C38097   9.014   2.794  10.335 -0.7037  0.0830 -0.3414
  277MOL0     C38098   9.100   2.731  10.240 -0.4425  0.4930 -0.2568
  277MOL0     C38099   9.242   2.697  10.294  0.7117 -0.0894 -0.3032
  277MOL0     C38100   9.339   2.636  10.192 -1.4125 -0.1976  0.3741
  277MOL0     C38101   9.476   2.594  10.258  0.7972 -0.8425 -0.7418
  277MOL0     C38102   9.561   2.532  10.144  1.1118  0.0638 -0.0881
  277MOL0     C38103   9.682   2.444  10.188 -0.0001 -0.6059 -0.1400
  277MOL0     C38104   9.759   2.501  10.308  0.4195 -0.3406 -0.0163
  277MOL0     N38105   9.798   2.646  10.304 -0.1348  0.4518  0.2719
  277MOL0     C38106   9.857   2.706  10.207 -1.0625  0.4226  0.3332
  277MOL0     C38107   9.880   2.832  10.247 -0.7088 -0.4946 -0.3097
  277MOL0     C38108   9.952   2.955  10.192 -0.4278  0.2427  0.6479
  277MOL0     C38109  10.098   2.964  10.240  0.1424  0.0402 -0.0196
  277MOL0     C38110  10.150   3.104  10.197 -0.3578 -0.5448 -0.1749
  277MOL0     C38111  10.295   3.112  10.242  0.3290  0.7794 -0.0997
  277MOL0     O38112  10.340   3.253  10.210 -0.1627  0.1899  0.9306
  277MOL0     C38113  10.473   3.287  10.181  0.3066 -0.1576 -0.4242
  277MOL0     C38114  10.504   3.411  10.125  0.0686  0.0850  1.3752
  277MOL0     C38115  10.643   3.457  10.107  0.7475 -0.1116  0.4680
  277MOL0     C38116  10.658   3.602  10.051 -0.3875 -0.2482 -0.7959
  277MOL0     C38117  10.750   3.362  10.137  0.3864  0.2666  0.7940
  277MOL0     C38118  10.889   3.388  10.103 -1.1013 -0.3436 -0.3134
  277MOL0     O38119  10.983   3.291  10.133  0.7424  0.2688  0.0963
  277MOL0     C38120  11.115   3.294  10.093 -0.4200 -0.3507 -0.0301
  277MOL0     C38121  11.150   3.216   9.976 -0.1399  0.3877  0.6673
  277MOL0     C38122  11.276   3.209   9.932 -0.4493 -0.1511 -0.4809
  277MOL0     C38123  11.377   3.283   9.992  0.5319  0.1382  0.7442
  277MOL0     O38124  11.511   3.289   9.952  0.4175  0.7802 -0.5069
  277MOL0     C38125  11.581   3.189   9.872  0.0826 -0.2592  0.2095
  277MOL0     C38126  11.594   3.058   9.937 -0.3182 -0.7259  0.1148
  277MOL0     C38127  11.695   2.957   9.867 -0.0583 -0.3214  0.7687
  277MOL0     C38128  11.837   3.011   9.863 -0.2322  0.1785 -0.4449
  277MOL0     C38129  11.922   2.901   9.793  0.3558  0.3814 -0.1908
  277MOL0     C38130  12.078   2.946   9.793  1.2839  0.6469 -0.6891
  277MOL0     C38131  12.097   3.081   9.726 -0.3816 -1.1642 -0.1762
  277MOL0     C38132  12.243   3.105   9.726 -0.2048 -0.7743 -0.8018
  277MOL0    Cl38133  12.277   3.195   9.878  0.4002  0.2345 -0.1216
  277MOL0     C38134  11.344   3.358  10.109 -0.5251 -0.3350 -0.1249
  277MOL0     C38135  11.212   3.360  10.157  0.0791  0.8980 -0.4224
  277MOL0     O38136  10.923   3.500  10.069  0.3726 -0.3775  0.1570
  277MOL0     C38137  10.713   3.234  10.186  0.2208 -1.1601  0.1524
  277MOL0     C38138  10.578   3.199  10.213  0.3367 -0.5903 -0.5037
  277MOL0     N38139   9.814   2.846  10.364 -0.5877  0.1063 -0.1954
  277MOL0     N38140   9.771   2.734  10.405 -0.3473  0.4523 -0.5934
  277MOL0     C38141   8.809   2.969  10.436  0.1093 -0.5597  0.2744
  277MOL0     C38142   8.700   2.993  10.509  0.6658 -0.0693 -0.3380
  277MOL0     C38143   8.304   3.060  10.720 -0.1172 -1.1531  0.2902
  277MOL0     C38144   8.281   2.952  10.797  0.5763  1.0136  0.0387
  277MOL0     C38145   8.161   2.930  10.868  0.1158 -0.7129 -0.4816
  277MOL0     C38146   8.064   3.026  10.869 -0.6244 -0.5402  0.2717
  277MOL0     O38147   7.955   2.989  10.932  0.3012  0.5103 -0.4396
  277MOL0     C38148   7.849   3.088  10.957 -0.2879  0.3939 -0.2711
  277MOL0     C38149   7.732   3.039  11.042  0.1632 -0.5185  0.4770
  277MOL0     C38150   7.767   2.998  11.188 -0.4040  0.7201  0.0838
  277MOL0     C38151   7.836   3.110  11.272  0.4588  0.2258  0.3127
  277MOL0     C38152   7.761   3.233  11.276 -0.1367  0.7365  0.6220
  277MOL0     C38153   7.709   3.339  11.291  0.3431 -0.3919  1.5281
  277MOL0     C38154   8.100   3.157  10.812  0.6512  1.0790 -0.3678
  277MOL0     C38155   8.216   3.171  10.729 -0.0302 -0.7238  0.3040
  277MOL0     C38156   8.245   3.302  10.652 -0.2979  0.0530 -0.0717
  277MOL0     H38157   8.477   2.824  10.317 -0.8739  1.7136 -0.3035
  277MOL0     H38158   8.668   2.759  10.208  0.8610 -2.0175  1.9763
  277MOL0     H38159   8.997   2.728  10.421 -0.7008  2.0084  1.1920
  277MOL0     H38160   9.060   2.886  10.369 -0.8584 -0.1696  0.5619
  277MOL0     H38161   9.050   2.647  10.189  0.4580 -0.0109 -0.3411
  277MOL0     H38162   9.111   2.807  10.162 -3.3156  3.6181  2.0917
  277MOL0     H38163   9.285   2.787  10.338 -0.3520  0.3712 -0.1882
  277MOL0     H38164   9.222   2.629  10.378  0.8319 -1.3399 -1.2566
  277MOL0     H38165   9.301   2.540  10.156  0.9712 -1.1333  0.1722
  277MOL0     H38166   9.345   2.694  10.100 -0.8263 -0.8023  0.0225
  277MOL0     H38167   9.455   2.516  10.332 -2.3108 -1.6216 -2.2753
  277MOL0     H38168   9.524   2.680  10.306 -2.7480  1.7817 -1.5206
  277MOL0     H38169   9.491   2.471  10.086  1.7292  0.7504 -1.5929
  277MOL0     H38170   9.598   2.617  10.087  2.2737 -0.4378 -0.1067
  277MOL0     H38171   9.754   2.429  10.107 -0.0814  0.5283 -0.4461
  277MOL0     H38172   9.643   2.348  10.223 -2.6962 -0.3120 -2.0262
  277MOL0     H38173   9.705   2.497  10.403  2.9683  1.7589  1.6810
  277MOL0     H38174   9.852   2.444  10.308 -0.3074 -1.5882  1.8050
  277MOL0     H38175   9.899   2.662  10.117  0.7878  0.2962  1.2006
  277MOL0     H38176   9.895   3.044  10.220 -0.4559  0.4273  0.0059
  277MOL0     H38177   9.948   2.954  10.083 -2.0038 -1.6950  0.6641
  277MOL0     H38178  10.092   2.963  10.349 -1.5880  3.6611  0.0924
  277MOL0     H38179  10.133   2.868  10.204 -0.8868 -1.5774  2.9325
  277MOL0     H38180  10.144   3.128  10.091  0.9087 -1.9525 -0.5922
  277MOL0     H38181  10.090   3.182  10.246 -0.8930 -0.5179 -0.8759
  277MOL0     H38182  10.297   3.085  10.348 -0.0573  2.5848  0.3862
  277MOL0     H38183  10.360   3.045  10.185  0.4997 -0.7111  1.7414
  277MOL0     H38184  10.427   3.486  10.114  0.6039  0.4300 -0.2639
  277MOL0     H38185  10.742   3.651  10.101  0.9173 -0.2289 -2.8745
  277MOL0     H38186  10.572   3.666  10.068 -0.6906  0.3448 -3.8614
  277MOL0     H38187  10.670   3.588   9.943  0.1686 -2.1382 -0.5259
  277MOL0     H38188  11.067   3.157   9.939  0.7722 -1.1001  0.9394
  277MOL0     H38189  11.301   3.133   9.859 -2.5091  0.7567 -2.2054
  277MOL0     H38190  11.529   3.186   9.776 -0.7338  5.8563  0.0628
  277MOL0     H38191  11.682   3.224   9.848  0.7505 -2.7455 -0.8609
  277MOL0     H38192  11.642   3.074  10.034 -2.1584  3.6739  0.5491
  277MOL0     H38193  11.496   3.011   9.949 -1.0735 -0.5212 -3.9039
  277MOL0     H38194  11.656   2.936   9.767  1.7015  0.7998 -0.2118
  277MOL0     H38195  11.690   2.863   9.923 -1.1585  0.4089  1.9535
  277MOL0     H38196  11.878   3.018   9.964  0.4439  0.7964 -0.7523
  277MOL0     H38197  11.851   3.111   9.822  1.1698  0.9560  1.7679
  277MOL0     H38198  11.913   2.807   9.849  1.4210  0.3387 -0.0600
  277MOL0     H38199  11.874   2.895   9.695  3.1013  1.9180 -1.7609
  277MOL0     H38200  12.136   2.859   9.761 -1.1771 -2.7993  3.1896
  277MOL0     H38201  12.116   2.974   9.893  1.9289  2.2951 -1.3502
  277MOL0     H38202  12.044   3.163   9.775 -0.7245 -1.8142  0.5525
  277MOL0     H38203  12.064   3.068   9.622  1.2314 -2.5395 -0.5655
  277MOL0     H38204  12.253   3.185   9.653  1.7398 -1.5185 -1.3986
  277MOL0     H38205  12.311   3.024   9.700 -0.1068 -0.2702 -2.1777
  277MOL0     H38206  11.425   3.414  10.155  0.8801 -0.6205 -2.1058
  277MOL0     H38207  11.177   3.410  10.247 -0.1580  0.3173 -0.1859
  277MOL0     H38208  10.784   3.152  10.183  1.8519  0.0409  2.3753
  277MOL0     H38209  10.560   3.096  10.246  2.1678 -0.6989  0.2410
  277MOL0     H38210   8.900   3.008  10.479  0.6418 -1.0239 -0.3964
  277MOL0     H38211   8.716   3.057  10.595 -1.4689 -0.7668  0.6375
  277MOL0     H38212   8.350   2.868  10.800  0.9827  1.3551  0.4276
  277MOL0     H38213   8.136   2.841  10.923 -1.4821 -2.2211 -3.4068
  277MOL0     H38214   7.891   3.175  11.010  1.4643  1.7824 -3.6609
  277MOL0     H38215   7.816   3.123  10.859 -1.0516 -0.6149 -0.3906
  277MOL0     H38216   7.693   2.956  10.982  1.3641  0.3945 -1.6457
  277MOL0     H38217   7.646   3.107  11.043  0.6576  0.1457 -0.8379
  277MOL0     H38218   7.679   2.954  11.235 -1.2143 -1.5412 -3.2273
  277MOL0     H38219   7.835   2.912  11.190 -2.3490 -1.0406 -2.8589
  277MOL0     H38220   7.933   3.143  11.233  1.0990  1.4392  2.7552
  277MOL0     H38221   7.843   3.074  11.375  1.0835  3.5096  1.5541
  277MOL0     H38222   7.653   3.426  11.318  0.6239  0.9305 -1.6852
  277MOL0     H38223   8.029   3.236  10.833  0.6948  0.7460  1.1096
  277MOL0     H38224   8.257   3.284  10.545 -0.9817 -1.9583  0.1408
  277MOL0     H38225   8.163   3.371  10.674  0.6296 -0.1615  5.4977
  277MOL0     H38226   8.339   3.348  10.684  1.3205 -1.4507 -2.3758
  278MOL0     O38227   6.722   6.601   2.102 -0.7058 -0.1577  0.5818
  278MOL0     C38228   6.747   6.722   2.124  0.7395 -0.1351  0.6623
  278MOL0     O38229   6.692   6.805   2.224  0.4969 -0.9216  0.4345
  278MOL0     C38230   6.609   6.750   2.319  0.1768  0.1062  0.1025
  278MOL0     C38231   6.645   6.628   2.381 -0.6203 -0.7019  0.5453
  278MOL0     C38232   6.560   6.582   2.481 -0.5304 -0.0147  0.0902
  278MOL0     C38233   6.445   6.649   2.524  0.4492 -1.3632 -0.1183
  278MOL0     O38234   6.366   6.597   2.620 -0.0020  0.1693  0.6122
  278MOL0     C38235   6.312   6.681   2.730 -0.6837 -0.2827  0.0886
  278MOL0     C38236   6.423   6.744   2.815  0.4941  0.9503 -0.3363
  278MOL0     C38237   6.508   6.620   2.876  0.6702 -0.3400  0.3915
  278MOL0     C38238   6.649   6.653   2.927  0.0007 -0.6854  0.5584
  278MOL0     C38239   6.646   6.773   3.018  0.0353  0.1313 -0.3364
  278MOL0     C38240   6.790   6.788   3.065 -0.5875  0.1325 -0.4175
  278MOL0     C38241   6.804   6.912   3.154  0.8329  1.4813  0.2736
  278MOL0     C38242   6.922   6.895   3.253  0.3297  0.3658  0.1607
  278MOL0     N38243   7.042   6.837   3.190  0.2349 -0.0552 -0.2250
  278MOL0     C38244   7.127   6.891   3.098 -0.1936 -0.3597 -0.7771
  278MOL0     C38245   7.218   6.790   3.075 -0.3142 -0.1773  0.1527
  278MOL0     C38246   7.338   6.816   2.988 -0.6812 -0.0990 -0.0895
  278MOL0     C38247   7.310   6.809   2.840 -0.7188 -0.7271 -0.7964
  278MOL0     C38248   7.423   6.878   2.759  0.1380 -0.6398 -0.1648
  278MOL0     C38249   7.558   6.799   2.778 -0.4928  0.7203  1.2867
  278MOL0     O38250   7.672   6.836   2.700 -0.1791 -0.3355  0.2915
  278MOL0     C38251   7.672   6.795   2.567 -0.0729  0.7515  0.3734
  278MOL0     C38252   7.595   6.688   2.515 -0.0179 -0.8909 -0.5184
  278MOL0     C38253   7.605   6.649   2.382 -0.0723  0.0013  0.7086
  278MOL0     C38254   7.525   6.528   2.345  0.1884  0.3355 -0.3129
  278MOL0     C38255   7.694   6.709   2.289  0.3496  0.8631 -0.2650
  278MOL0     C38256   7.695   6.681   2.148 -0.6128 -0.8151  0.7295
  278MOL0     O38257   7.732   6.784   2.064 -0.9373  0.3756 -0.1551
  278MOL0     C38258   7.746   6.762   1.925  0.0238  0.5026  0.2693
  278MOL0     C38259   7.850   6.687   1.871 -0.0695 -0.1677 -0.4568
  278MOL0     C38260   7.851   6.646   1.742 -0.6330 -0.6301  0.1687
  278MOL0     C38261   7.759   6.702   1.652 -0.2081  0.0814 -0.6838
  278MOL0     O38262   7.764   6.684   1.515 -0.0393  0.1550  0.0269
  278MOL0     C38263   7.784   6.548   1.482 -0.0654  0.5506 -0.4189
  278MOL0     C38264   7.733   6.500   1.341  0.0751  0.2765  0.7593
  278MOL0     C38265   7.631   6.596   1.279  0.2542  0.5817  0.2130
  278MOL0     C38266   7.500   6.550   1.325  1.3574 -0.5339  0.3224
  278MOL0     C38267   7.386   6.662   1.324 -0.0234  0.1714 -1.0005
  278MOL0     C38268   7.242   6.598   1.332  0.2181  0.0796 -0.4302
  278MOL0     C38269   7.204   6.566   1.479  0.0604  0.1525 -0.3523
  278MOL0     C38270   7.062   6.508   1.501  0.3801 -0.0491  0.0564
  278MOL0    Cl38271   7.030   6.449   1.667  0.2746  0.3272 -0.1661
  278MOL0     C38272   7.658   6.784   1.699 -1.2325 -0.6677 -0.8358
  278MOL0     C38273   7.644   6.800   1.836  0.4220  0.2417  0.5255
  278MOL0     O38274   7.680   6.570   2.103 -0.2695  0.8616 -0.6618
  278MOL0     C38275   7.767   6.818   2.335  0.2580  0.6696 -0.2003
  278MOL0     C38276   7.759   6.852   2.473 -0.4629 -0.3958 -0.4386
  278MOL0     N38277   7.201   6.694   3.162  0.4213  0.3830  0.5147
  278MOL0     N38278   7.095   6.715   3.226  0.1449 -0.3162  0.1877
  278MOL0     C38279   6.410   6.770   2.461 -0.4487 -0.2986  0.1268
  278MOL0     C38280   6.494   6.814   2.361  0.3834 -0.6060 -0.0148
  278MOL0     C38281   6.835   6.782   2.026  0.3023 -0.2077  0.1219
  278MOL0     C38282   6.823   6.733   1.895  0.0239  0.0518 -0.4799
  278MOL0     C38283   6.898   6.796   1.786 -0.2861  0.1044 -0.1875
  278MOL0     C38284   6.986   6.903   1.809 -0.0794 -1.1545 -0.5546
  278MOL0     O38285   7.069   6.938   1.705 -1.7092  0.3596 -0.8246
  278MOL0     C38286   7.151   7.056   1.712 -0.3877  0.5302 -0.2646
  278MOL0     C38287   7.233   7.075   1.578  0.4790  0.2395 -0.8567
  278MOL0     C38288   7.370   7.139   1.605  0.2040  0.1093  0.1106
  278MOL0     C38289   7.468   7.126   1.488  0.1326 -0.4324 -0.6536
  278MOL0     C38290   7.400   7.212   1.386 -0.5444  0.6780 -0.5458
  278MOL0     C38291   7.315   7.279   1.330 -1.0892  0.0884 -0.1582
  278MOL0     C38292   6.984   6.963   1.936 -0.0908 -0.5080 -0.2254
  278MOL0     C38293   6.912   6.910   2.046 -0.0549  0.0105  0.3863
  278MOL0     C38294   6.922   6.977   2.182  0.7586  0.7271  0.0911
  278MOL0     H38295   6.746   6.592   2.365 -0.6536  0.4220 -2.9988
  278MOL0     H38296   6.577   6.490   2.536  0.7059  0.6549  0.8634
  278MOL0     H38297   6.239   6.629   2.792 -1.2827  2.0699  1.4580
  278MOL0     H38298   6.254   6.766   2.694  2.0894  2.7052  2.0792
  278MOL0     H38299   6.480   6.810   2.749  1.3746 -1.1149 -1.7445
  278MOL0     H38300   6.377   6.803   2.895  0.1249 -2.0124  1.8025
  278MOL0     H38301   6.451   6.583   2.961 -1.2819  0.6096 -0.4427
  278MOL0     H38302   6.516   6.536   2.807 -2.5491 -0.1677 -0.3411
  278MOL0     H38303   6.682   6.562   2.978 -3.1653 -2.7560 -0.8051
  278MOL0     H38304   6.706   6.680   2.837 -1.3359  0.5432  0.0552
  278MOL0     H38305   6.585   6.775   3.109  0.0825  2.8050 -0.2816
  278MOL0     H38306   6.615   6.864   2.966 -3.9267 -0.0582  1.3088
  278MOL0     H38307   6.813   6.694   3.116  3.3413  1.3857  0.4996
  278MOL0     H38308   6.857   6.791   2.979 -1.1044 -0.8952 -0.8754
  278MOL0     H38309   6.714   6.931   3.213 -0.5459 -0.3501 -1.1189
  278MOL0     H38310   6.830   6.995   3.088 -1.3802  1.2281 -0.9797
  278MOL0     H38311   6.961   6.986   3.299  2.7479 -1.1582  1.3354
  278MOL0     H38312   6.883   6.832   3.333  1.1717  0.2081  0.4535
  278MOL0     H38313   7.122   6.989   3.052 -0.9951 -1.0694 -2.2821
  278MOL0     H38314   7.410   6.734   3.001 -1.3341 -1.2692 -3.0882
  278MOL0     H38315   7.380   6.910   3.024 -2.8376  0.1837  1.9408
  278MOL0     H38316   7.283   6.708   2.807 -1.7414 -0.9295  0.5720
  278MOL0     H38317   7.218   6.865   2.823 -2.4870 -3.0386  0.5234
  278MOL0     H38318   7.382   6.874   2.658  0.4465 -1.1243 -0.2781
  278MOL0     H38319   7.434   6.984   2.783  0.1494 -0.4684 -0.9106
  278MOL0     H38320   7.597   6.802   2.880  1.4934 -1.8185  0.6770
  278MOL0     H38321   7.544   6.692   2.760  0.9426  0.8211 -0.7756
  278MOL0     H38322   7.523   6.637   2.579  2.4408 -1.4866  1.9757
  278MOL0     H38323   7.589   6.441   2.327  0.1953  0.3701 -0.4547
  278MOL0     H38324   7.467   6.548   2.254 -1.4817 -1.2890  0.3322
  278MOL0     H38325   7.457   6.489   2.422 -0.0216 -0.0418 -0.6822
  278MOL0     H38326   7.929   6.647   1.934  0.6239  2.6492  0.6469
  278MOL0     H38327   7.913   6.573   1.691  3.6943  2.8537 -0.1446
  278MOL0     H38328   7.891   6.531   1.494 -0.2970  0.4608  1.9383
  278MOL0     H38329   7.724   6.478   1.540  2.2360 -2.2608 -1.2322
  278MOL0     H38330   7.819   6.504   1.273 -1.5321 -2.0107 -1.6110
  278MOL0     H38331   7.693   6.399   1.345  2.2672 -0.6369  1.2696
  278MOL0     H38332   7.648   6.592   1.171  0.3419 -0.6127  0.2605
  278MOL0     H38333   7.641   6.701   1.307  1.9988  0.9246 -1.4949
  278MOL0     H38334   7.514   6.524   1.430  0.8648 -1.1536  0.2373
  278MOL0     H38335   7.465   6.465   1.266  0.2434  0.9979 -1.3594
  278MOL0     H38336   7.408   6.743   1.395 -0.1741 -0.4713 -0.1953
  278MOL0     H38337   7.405   6.699   1.224  1.3910 -0.2660 -0.9209
  278MOL0     H38338   7.246   6.515   1.260  2.9432  1.4779 -2.0283
  278MOL0     H38339   7.170   6.674   1.300 -0.0222  0.5179  1.0602
  278MOL0     H38340   7.197   6.661   1.534  1.5529  0.7530 -1.1434
  278MOL0     H38341   7.277   6.500   1.525 -1.5021 -1.8348 -0.6067
  278MOL0     H38342   7.038   6.429   1.430  0.8442 -1.2676  1.2108
  278MOL0     H38343   6.988   6.585   1.480  0.5446 -0.4931 -2.3916
  278MOL0     H38344   7.584   6.833   1.637 -1.9929 -0.0420  0.5222
  278MOL0     H38345   7.552   6.833   1.884 -0.2133 -0.2745 -0.2982
  278MOL0     H38346   7.847   6.850   2.269  0.3452 -2.9391 -2.0732
  278MOL0     H38347   7.828   6.923   2.515 -0.5028  1.8462 -3.7978
  278MOL0     H38348   6.328   6.837   2.485  1.4343  1.3987  2.2356
  278MOL0     H38349   6.468   6.902   2.303  0.8730  0.3924  1.2312
  278MOL0     H38350   6.766   6.645   1.868  0.4385  0.0926 -1.5564
  278MOL0     H38351   6.887   6.752   1.688  2.0421 -1.7996  0.3251
  278MOL0     H38352   7.087   7.144   1.725 -4.5511 -2.1328 -0.8854
  278MOL0     H38353   7.218   7.033   1.795 -1.9548  2.0495  1.5150
  278MOL0     H38354   7.167   7.134   1.514 -3.3044 -0.7492  1.8320
  278MOL0     H38355   7.243   6.972   1.540 -1.7528 -0.3473  0.0297
  278MOL0     H38356   7.358   7.242   1.638  1.5786  0.0411  0.8828
  278MOL0     H38357   7.416   7.084   1.688 -2.1145  0.6577  1.8875
  278MOL0     H38358   7.495   7.028   1.449 -2.1701 -0.7034 -1.7409
  278MOL0     H38359   7.565   7.172   1.511 -0.6081  0.9687 -0.2324
  278MOL0     H38360   7.233   7.329   1.283  1.2176  1.0548 -3.5570
  278MOL0     H38361   7.057   7.036   1.969 -1.6966  1.1078 -0.1223
  278MOL0     H38362   6.937   6.891   2.247  1.2038 -0.5697 -1.6564
  278MOL0     H38363   7.002   7.051   2.195 -1.2817  2.7868  1.9774
  278MOL0     H38364   6.831   7.032   2.210 -0.1789 -1.3484  1.3634
  279MOL0     O38365   7.951   2.851   2.206  0.2352  0.1260 -0.2118
  279MOL0     C38366   7.908   2.759   2.136  0.8030 -0.8178  0.5779
  279MOL0     O38367   7.982   2.697   2.039  0.2851  0.6351 -0.0979
  279MOL0     C38368   8.113   2.737   2.039 -0.5982 -0.4267  0.7623
  279MOL0     C38369   8.201   2.728   2.151 -1.3937 -0.4928  0.3381
  279MOL0     C38370   8.334   2.782   2.149 -0.4308  0.9807  0.5274
  279MOL0     C38371   8.384   2.825   2.026 -0.2155 -0.1641  0.9883
  279MOL0     O38372   8.510   2.875   2.036  0.1143 -0.3002  0.7758
  279MOL0     C38373   8.608   2.869   1.928 -0.7515 -0.3980 -0.5755
  279MOL0     C38374   8.657   2.733   1.875 -0.1871 -0.0979  0.2868
  279MOL0     C38375   8.771   2.677   1.960 -0.3511  0.4397  0.0096
  279MOL0     C38376   8.771   2.521   1.951  0.0997  0.2487  1.1908
  279MOL0     C38377   8.882   2.469   2.026  0.1201  0.4446 -0.0025
  279MOL0     C38378   8.870   2.314   2.046 -1.3376  0.9207  0.0302
  279MOL0     C38379   8.907   2.218   1.924  0.3926 -1.1884 -0.0873
  279MOL0     C38380   8.862   2.074   1.937 -0.2814 -0.0038 -0.3943
  279MOL0     N38381   8.872   1.998   1.816 -0.3483 -0.0758 -0.0064
  279MOL0     C38382   8.903   1.862   1.810 -0.6068 -0.0757  0.1886
  279MOL0     C38383   8.894   1.838   1.672 -0.4431  0.6490  0.6677
  279MOL0     C38384   8.912   1.704   1.602  0.7747  0.3148 -0.1385
  279MOL0     C38385   9.035   1.627   1.651 -0.1579 -0.8286 -0.0836
  279MOL0     C38386   9.088   1.512   1.568  0.6178 -0.5765  0.2278
  279MOL0     C38387   9.143   1.560   1.440 -0.2243  0.2913 -0.1362
  279MOL0     O38388   9.250   1.654   1.458 -0.1125  0.2338  0.1506
  279MOL0     C38389   9.376   1.606   1.439  0.3376  0.2497 -0.8448
  279MOL0     C38390   9.435   1.511   1.519 -1.1107  0.2563  0.4638
  279MOL0     C38391   9.560   1.457   1.496  0.6153  0.5631 -0.0819
  279MOL0     C38392   9.601   1.358   1.599 -0.4395 -0.4690 -0.1282
  279MOL0     C38393   9.638   1.511   1.393 -0.2321 -0.1555 -0.3917
  279MOL0     C38394   9.764   1.463   1.338  1.0922  0.3103 -0.2685
  279MOL0     O38395   9.806   1.343   1.389 -0.1560 -0.0821 -0.4282
  279MOL0     C38396   9.933   1.311   1.371  0.5026 -0.0581 -0.1655
  279MOL0     C38397  10.041   1.399   1.383  1.0533  0.5844  0.6976
  279MOL0     C38398  10.174   1.357   1.369 -0.0316  0.2699  0.6484
  279MOL0     C38399  10.199   1.222   1.337  0.8131  0.6776  0.2023
  279MOL0     O38400  10.315   1.166   1.297  0.2302 -0.4646  0.1514
  279MOL0     C38401  10.432   1.239   1.264  0.7053  0.1343 -0.3720
  279MOL0     C38402  10.563   1.161   1.279 -0.2748 -0.1432  0.0569
  279MOL0     C38403  10.689   1.238   1.258 -0.3344  0.4237  0.0429
  279MOL0     C38404  10.810   1.144   1.257  0.2892  0.2357  0.0322
  279MOL0     C38405  10.946   1.208   1.277  0.1124  0.6022  0.7657
  279MOL0     C38406  11.045   1.118   1.209 -0.2682 -0.0478  0.1068
  279MOL0     C38407  11.184   1.166   1.229 -0.0598 -0.7866  0.2347
  279MOL0     C38408  11.295   1.068   1.196  0.0564 -1.2562  0.0455
  279MOL0    Cl38409  11.306   0.920   1.288  0.0654 -0.1131  0.5987
  279MOL0     C38410  10.084   1.137   1.320 -0.9579 -0.0992 -0.3132
  279MOL0     C38411   9.958   1.184   1.329 -0.0979  0.1659 -0.4953
  279MOL0     O38412   9.824   1.530   1.260  0.7265  0.2764 -0.2688
  279MOL0     C38413   9.582   1.625   1.326  0.2883 -0.5640 -1.0740
  279MOL0     C38414   9.449   1.663   1.344 -0.1858 -0.1834  0.9869
  279MOL0     N38415   8.887   1.956   1.601 -0.1941 -1.2287 -0.4976
  279MOL0     N38416   8.883   2.052   1.689  0.0790 -0.4323 -0.4796
  279MOL0     C38417   8.304   2.827   1.916 -0.5951 -0.0820  1.1542
  279MOL0     C38418   8.173   2.773   1.915  1.1009  0.8892  0.2915
  279MOL0     C38419   7.759   2.743   2.124 -0.5352  0.3712 -0.0419
  279MOL0     C38420   7.711   2.743   1.995  0.1574  0.5653  0.7608
  279MOL0     C38421   7.573   2.718   1.973  0.5178 -0.8003  0.4002
  279MOL0     C38422   7.490   2.692   2.086 -0.4744  0.2879 -0.4653
  279MOL0     O38423   7.364   2.673   2.049  0.0671 -0.3129 -0.3196
  279MOL0     C38424   7.292   2.567   2.105  1.4760 -0.0043  1.0671
  279MOL0     C38425   7.206   2.500   1.996  0.3641  0.1367  0.3296
  279MOL0     C38426   7.086   2.578   1.943  0.0777  0.0398  0.2905
  279MOL0     C38427   6.988   2.612   2.059  0.4503 -0.8134 -0.2082
  279MOL0     C38428   6.944   2.502   2.146  0.1720 -0.0090  0.0263
  279MOL0     C38429   6.915   2.424   2.237  0.3356 -0.5156 -0.2863
  279MOL0     C38430   7.543   2.701   2.215 -0.2072  0.0749  0.7307
  279MOL0     C38431   7.678   2.727   2.233  0.7058  0.0724 -0.4628
  279MOL0     C38432   7.721   2.746   2.370  0.1574 -0.0169  0.6946
  279MOL0     H38433   8.156   2.711   2.248 -0.5562  3.3165  1.5438
  279MOL0     H38434   8.388   2.788   2.242 -0.4491 -2.1195  0.8227
  279MOL0     H38435   8.689   2.929   1.970 -0.8971 -1.7293  1.7517
  279MOL0     H38436   8.571   2.921   1.839 -0.2169  1.5452  0.2872
  279MOL0     H38437   8.577   2.659   1.872 -1.2054  0.9676  0.3154
  279MOL0     H38438   8.691   2.747   1.772 -0.0238 -1.6422  0.1169
  279MOL0     H38439   8.870   2.704   1.922  0.4915  0.9653  2.4107
  279MOL0     H38440   8.756   2.717   2.060 -1.0042 -1.4082  0.6931
  279MOL0     H38441   8.678   2.477   1.988 -2.6554  2.3249 -2.5863
  279MOL0     H38442   8.773   2.494   1.845 -0.6077  0.3510  1.1500
  279MOL0     H38443   8.881   2.508   2.127 -4.0440 -1.4575  0.9084
  279MOL0     H38444   8.986   2.480   1.993 -0.4250 -0.2560 -2.1342
  279MOL0     H38445   8.955   2.297   2.112 -2.0694  1.1311  1.0366
  279MOL0     H38446   8.776   2.277   2.086 -1.3717  0.4547 -0.4698
  279MOL0     H38447   9.015   2.211   1.915  0.6976  0.8961  1.1922
  279MOL0     H38448   8.871   2.264   1.832  1.7399 -0.6093 -0.3409
  279MOL0     H38449   8.925   2.021   2.010  2.3705  1.1598 -1.7056
  279MOL0     H38450   8.755   2.070   1.958 -0.3660 -1.9191 -0.9876
  279MOL0     H38451   8.919   1.785   1.884  1.2497 -1.4899 -1.5805
  279MOL0     H38452   8.933   1.725   1.496 -1.7972 -0.5783 -0.8888
  279MOL0     H38453   8.826   1.637   1.609  1.6507 -1.0048 -1.2935
  279MOL0     H38454   9.107   1.708   1.666 -1.4007  0.4333 -0.6575
  279MOL0     H38455   9.004   1.573   1.741 -0.8563 -2.2064 -1.1224
  279MOL0     H38456   9.161   1.461   1.630 -0.3617 -2.1832  0.0994
  279MOL0     H38457   9.005   1.443   1.548  0.2433  0.1615 -0.8661
  279MOL0     H38458   9.185   1.470   1.394 -0.3719  0.3863 -0.4542
  279MOL0     H38459   9.066   1.598   1.373 -2.0592  0.1169  1.7935
  279MOL0     H38460   9.378   1.465   1.599 -2.8700 -2.3371 -2.0786
  279MOL0     H38461   9.569   1.259   1.565  1.2690 -0.5107 -1.8182
  279MOL0     H38462   9.559   1.383   1.697  0.8136 -0.1116  0.3366
  279MOL0     H38463   9.709   1.348   1.612 -0.4675  1.6315  2.5927
  279MOL0     H38464  10.040   1.503   1.411 -0.5465  0.4596  1.1995
  279MOL0     H38465  10.250   1.432   1.383 -0.3811  1.1594 -1.7219
  279MOL0     H38466  10.428   1.258   1.156  3.2866 -2.9763 -1.1651
  279MOL0     H38467  10.457   1.328   1.323 -2.4294  0.3419  0.8822
  279MOL0     H38468  10.560   1.122   1.381 -1.3482  1.2740  0.6029
  279MOL0     H38469  10.557   1.079   1.208  2.3001 -1.1428  0.8911
  279MOL0     H38470  10.696   1.310   1.340  0.9313  0.9607 -0.5052
  279MOL0     H38471  10.677   1.288   1.161 -2.3993 -0.3389 -0.1523
  279MOL0     H38472  10.804   1.100   1.158 -0.8284  0.7353 -0.1421
  279MOL0     H38473  10.798   1.058   1.323 -1.6114  1.3859  1.2905
  279MOL0     H38474  10.953   1.313   1.248  1.4419  1.4675  3.8402
  279MOL0     H38475  10.966   1.208   1.385  0.6012 -1.5815  0.7075
  279MOL0     H38476  11.020   1.130   1.103  1.5481 -0.7156 -0.4298
  279MOL0     H38477  11.028   1.014   1.235  0.4287  0.4117  2.6704
  279MOL0     H38478  11.199   1.202   1.331 -1.4305  1.5942 -0.3367
  279MOL0     H38479  11.193   1.252   1.162 -2.3913 -0.9885 -0.4322
  279MOL0     H38480  11.390   1.122   1.195  0.0789 -1.0608  2.8184
  279MOL0     H38481  11.278   1.029   1.096 -3.3948  1.5687 -0.6759
  279MOL0     H38482  10.089   1.031   1.297  0.4139 -0.0676 -0.2398
  279MOL0     H38483   9.876   1.114   1.320 -1.9424  2.2593 -0.8576
  279MOL0     H38484   9.623   1.680   1.243 -0.8963 -3.1785 -3.5691
  279MOL0     H38485   9.401   1.741   1.285 -1.6378 -2.5784 -1.2548
  279MOL0     H38486   8.336   2.879   1.826 -0.2180  1.5136  2.1775
  279MOL0     H38487   8.094   2.799   1.846  1.1705 -0.5907 -0.3907
  279MOL0     H38488   7.765   2.747   1.900  1.7446 -1.4268  1.5009
  279MOL0     H38489   7.541   2.713   1.870  0.3290 -0.2867  0.4327
  279MOL0     H38490   7.358   2.489   2.143 -1.0372 -2.4969  0.5961
  279MOL0     H38491   7.234   2.616   2.184  0.9801 -0.2247  0.8371
  279MOL0     H38492   7.178   2.400   2.030  1.0189 -0.3739 -0.5939
  279MOL0     H38493   7.273   2.490   1.911 -0.2554  1.0641 -0.2840
  279MOL0     H38494   7.125   2.667   1.894 -0.0057  0.2741  0.6437
  279MOL0     H38495   7.024   2.528   1.868 -0.6754 -0.4127  1.1827
  279MOL0     H38496   6.908   2.657   2.000  0.2825  0.1312  0.6951
  279MOL0     H38497   7.041   2.685   2.121  0.6184 -1.1390  0.0336
  279MOL0     H38498   6.880   2.366   2.320 -1.5293 -1.0488 -1.4080
  279MOL0     H38499   7.464   2.691   2.288 -2.5055 -1.0171 -1.7247
  279MOL0     H38500   7.792   2.664   2.384  2.0821  1.1655 -1.4799
  279MOL0     H38501   7.770   2.844   2.383  3.2670 -1.3756  0.1835
  279MOL0     H38502   7.641   2.738   2.444 -0.7759 -1.3856 -0.4251
  280MOL0     O38503   6.568   5.233   7.885 -0.4425 -0.8650 -0.3007
  280MOL0     C38504   6.627   5.221   7.995 -0.7068  0.2905  0.3824
  280MOL0     O38505   6.680   5.101   8.046  0.4650  0.0404  0.1706
  280MOL0     C38506   6.634   4.984   7.990 -0.0612 -1.4003 -0.1035
  280MOL0     C38507   6.683   4.932   7.877 -0.3783 -0.1556  0.1304
  280MOL0     C38508   6.627   4.820   7.818 -1.0598  0.0496 -1.0329
  280MOL0     C38509   6.529   4.748   7.892  0.2330  0.7532  1.4266
  280MOL0     O38510   6.479   4.622   7.852  0.4727 -0.3454 -0.7471
  280MOL0     C38511   6.431   4.615   7.715 -0.3164 -0.0325  0.1608
  280MOL0     C38512   6.357   4.490   7.686 -0.1672 -0.5394 -0.3428
  280MOL0     C38513   6.310   4.477   7.534 -0.6967  0.1819 -0.3523
  280MOL0     C38514   6.420   4.514   7.427 -0.5359  0.0358  0.4029
  280MOL0     C38515   6.380   4.490   7.279 -0.1951  0.1849  0.0056
  280MOL0     C38516   6.485   4.555   7.185  0.3664 -0.6704  0.1386
  280MOL0     C38517   6.601   4.463   7.139  0.6131 -0.2674  0.0881
  280MOL0     C38518   6.719   4.539   7.069 -0.7653  0.5342 -0.8161
  280MOL0     N38519   6.828   4.444   7.047  0.1436 -0.3455 -0.1049
  280MOL0     C38520   6.904   4.395   7.149  0.3682  0.5996 -0.3182
  280MOL0     C38521   6.966   4.293   7.087 -0.4495 -0.5496  0.6987
  280MOL0     C38522   7.056   4.202   7.157  0.2073 -0.1498 -0.6243
  280MOL0     C38523   6.995   4.062   7.166  0.0286 -0.2236  0.0654
  280MOL0     C38524   7.042   3.976   7.275 -0.3844  0.0558 -0.2372
  280MOL0     C38525   7.177   3.915   7.241  0.1889  0.3733 -0.1597
  280MOL0     O38526   7.280   4.012   7.221 -0.0974  0.6522 -0.4468
  280MOL0     C38527   7.409   3.976   7.222 -0.6176  0.2748  0.2230
  280MOL0     C38528   7.459   3.844   7.233 -0.7094 -0.0129  0.2526
  280MOL0     C38529   7.591   3.817   7.273 -1.1699 -2.0680  0.0267
  280MOL0     C38530   7.620   3.689   7.334 -0.1802 -0.9284 -0.6919
  280MOL0     C38531   7.686   3.927   7.257  0.5393 -0.1761  0.2943
  280MOL0     C38532   7.826   3.916   7.297 -1.0060 -0.1052 -0.0145
  280MOL0     O38533   7.887   3.794   7.270 -0.2009  0.6215  0.0042
  280MOL0     C38534   8.028   3.782   7.256  0.5918  0.4383  0.7697
  280MOL0     C38535   8.103   3.664   7.296  0.4390  0.2523  0.2629
  280MOL0     C38536   8.241   3.676   7.300 -0.7382  0.2190 -0.2976
  280MOL0     C38537   8.309   3.789   7.242 -0.8891  0.0270  0.1335
  280MOL0     O38538   8.447   3.784   7.223 -0.3615  0.2920  0.7510
  280MOL0     C38539   8.522   3.666   7.269  0.5534  0.4296  0.0776
  280MOL0     C38540   8.665   3.667   7.210  0.2959  0.1478 -0.7271
  280MOL0     C38541   8.757   3.555   7.241 -0.3791  0.0331  0.2149
  280MOL0     C38542   8.845   3.508   7.127 -0.1007 -0.2754 -0.0900
  280MOL0     C38543   8.955   3.419   7.182 -0.3498  0.8080  0.2471
  280MOL0     C38544   9.064   3.403   7.077  0.9504  0.1261 -0.0935
  280MOL0     C38545   9.180   3.335   7.152  0.0141  0.1636 -0.1601
  280MOL0     C38546   9.283   3.280   7.055 -0.4793 -0.2008  0.2410
  280MOL0    Cl38547   9.371   3.416   6.968 -0.0013 -0.5616  0.1389
  280MOL0     C38548   8.241   3.905   7.205  0.0600  0.0917 -0.2712
  280MOL0     C38549   8.101   3.900   7.219  0.2753 -0.0557 -0.3908
  280MOL0     O38550   7.881   3.996   7.370 -0.6099 -1.1303 -0.6407
  280MOL0     C38551   7.635   4.052   7.215  0.5772 -0.2244 -0.3608
  280MOL0     C38552   7.505   4.078   7.212  0.3968 -0.2053 -0.3202
  280MOL0     N38553   6.940   4.299   6.950  0.2637  0.0697  0.3509
  280MOL0     N38554   6.850   4.385   6.926  0.4278  0.6481  1.0221
  280MOL0     C38555   6.483   4.801   8.008 -0.6121  0.4009  1.1324
  280MOL0     C38556   6.539   4.914   8.063  0.2625  0.2304 -0.2289
  280MOL0     C38557   6.645   5.341   8.079 -0.9969 -0.3649 -0.4008
  280MOL0     C38558   6.549   5.433   8.063 -0.9659 -0.3594  0.2208
  280MOL0     C38559   6.536   5.547   8.138  0.2258 -0.2432  0.2625
  280MOL0     C38560   6.611   5.565   8.255  0.0891 -0.4746 -0.0592
  280MOL0     O38561   6.595   5.683   8.315  0.6132 -1.2272  0.0354
  280MOL0     C38562   6.588   5.693   8.455  0.6518 -0.0443  0.6855
  280MOL0     C38563   6.690   5.804   8.487  0.1904 -0.3129  0.3245
  280MOL0     C38564   6.635   5.947   8.467  0.4298  0.1198  0.1196
  280MOL0     C38565   6.543   5.995   8.588 -0.4687 -0.0316  0.7023
  280MOL0     C38566   6.474   6.121   8.548 -0.4374  0.0329 -0.5239
  280MOL0     C38567   6.413   6.225   8.531 -0.4521 -0.5527  0.0381
  280MOL0     C38568   6.717   5.471   8.269  0.8466 -0.2420 -0.5342
  280MOL0     C38569   6.732   5.358   8.189  0.6295 -0.0712  0.5464
  280MOL0     C38570   6.818   5.247   8.239 -0.3760  0.3552  0.4212
  280MOL0     H38571   6.756   4.991   7.823 -1.7864 -0.0209 -1.7256
  280MOL0     H38572   6.653   4.789   7.717 -1.9875 -0.6394 -1.0742
  280MOL0     H38573   6.508   4.639   7.641 -0.9757  2.7085  0.2392
  280MOL0     H38574   6.363   4.698   7.692  2.3673  2.3569  0.3197
  280MOL0     H38575   6.420   4.404   7.711 -0.4608 -0.7009 -0.1570
  280MOL0     H38576   6.273   4.498   7.755 -0.4436  2.9685 -0.8874
  280MOL0     H38577   6.268   4.376   7.526 -0.0407 -0.0608 -0.7726
  280MOL0     H38578   6.233   4.555   7.527  0.6086  1.4099 -1.7082
  280MOL0     H38579   6.447   4.619   7.435 -2.9514  0.7338  0.0634
  280MOL0     H38580   6.507   4.450   7.448 -0.8272 -0.5266 -0.0878
  280MOL0     H38581   6.285   4.540   7.259 -0.3191 -0.5573 -1.4261
  280MOL0     H38582   6.364   4.383   7.264 -1.3537  0.5790 -1.8535
  280MOL0     H38583   6.430   4.579   7.093 -1.4752 -2.2692  0.7634
  280MOL0     H38584   6.525   4.646   7.229  0.6850 -0.7598  0.0360
  280MOL0     H38585   6.560   4.391   7.068 -0.9103 -0.4685  1.1373
  280MOL0     H38586   6.633   4.409   7.229 -0.8377 -2.3483 -0.5906
  280MOL0     H38587   6.693   4.581   6.971 -0.7429 -1.5428 -1.7883
  280MOL0     H38588   6.754   4.620   7.133 -1.8203  0.7190 -0.4609
  280MOL0     H38589   6.915   4.427   7.252  1.8325  0.5657 -0.4477
  280MOL0     H38590   7.090   4.241   7.253 -1.5866  2.2383 -0.8868
  280MOL0     H38591   7.139   4.194   7.085  1.5734  1.5565  0.6858
  280MOL0     H38592   6.888   4.076   7.181  0.0093 -0.3454  0.0451
  280MOL0     H38593   6.991   4.010   7.070 -0.2640  0.2137 -0.1619
  280MOL0     H38594   7.059   4.033   7.367 -0.4439  3.1487 -2.0025
  280MOL0     H38595   6.964   3.903   7.300 -0.6537  0.2229 -0.5862
  280MOL0     H38596   7.200   3.858   7.332 -1.5660  0.2220  0.2276
  280MOL0     H38597   7.172   3.834   7.168 -2.8441  1.1125 -0.8806
  280MOL0     H38598   7.388   3.763   7.245 -1.9818  1.3580  2.6715
  280MOL0     H38599   7.525   3.644   7.367 -0.4753 -2.2793 -3.1912
  280MOL0     H38600   7.685   3.709   7.420  0.0973 -1.3356 -0.8089
  280MOL0     H38601   7.667   3.615   7.269  0.9492 -1.0338  0.2097
  280MOL0     H38602   8.061   3.576   7.342 -0.7213  1.2992  1.2918
  280MOL0     H38603   8.303   3.590   7.324 -3.2241 -1.2280  1.3510
  280MOL0     H38604   8.527   3.669   7.378 -1.6031 -0.0079  0.2299
  280MOL0     H38605   8.473   3.572   7.244 -0.7142  1.1694 -0.3043
  280MOL0     H38606   8.656   3.671   7.101 -3.1476 -1.2460 -0.6341
  280MOL0     H38607   8.714   3.756   7.251 -1.1056 -0.2618  2.0838
  280MOL0     H38608   8.702   3.469   7.280  2.6336 -1.5780  1.2299
  280MOL0     H38609   8.815   3.601   7.322 -0.3730 -0.3272  0.4194
  280MOL0     H38610   8.900   3.591   7.082  0.4312 -0.6533 -0.1519
  280MOL0     H38611   8.796   3.460   7.043 -0.0415  1.5682 -1.2334
  280MOL0     H38612   9.000   3.469   7.268 -1.7598 -0.6427  1.9137
  280MOL0     H38613   8.912   3.330   7.227  5.1165 -0.6446  3.4916
  280MOL0     H38614   9.108   3.495   7.038 -0.3945  1.6183  1.7216
  280MOL0     H38615   9.016   3.347   6.997 -0.8158 -0.4820  1.3369
  280MOL0     H38616   9.142   3.249   7.208 -0.2782 -0.9543 -1.9913
  280MOL0     H38617   9.215   3.410   7.224  0.8095  0.5284 -0.9120
  280MOL0     H38618   9.225   3.225   6.981  0.3605 -1.6759  0.6558
  280MOL0     H38619   9.354   3.218   7.109 -1.1107 -2.4783 -1.4088
  280MOL0     H38620   8.309   3.976   7.159  2.0898 -2.6340 -1.7390
  280MOL0     H38621   8.034   3.981   7.193 -2.6893 -2.1008  0.2927
  280MOL0     H38622   7.707   4.131   7.196 -0.8200  1.3545  0.6122
  280MOL0     H38623   7.490   4.186   7.207  0.8427 -0.0564  0.9685
  280MOL0     H38624   6.408   4.731   8.043  0.7287 -2.6562 -1.5985
  280MOL0     H38625   6.508   4.954   8.159  0.7910  2.4503 -0.9218
  280MOL0     H38626   6.474   5.416   7.986  1.3951 -0.9440 -2.0777
  280MOL0     H38627   6.449   5.611   8.123 -0.1018 -0.0642  2.4744
  280MOL0     H38628   6.482   5.701   8.481  0.0239 -1.1613 -1.3459
  280MOL0     H38629   6.613   5.595   8.498 -0.7625  0.5977  3.1941
  280MOL0     H38630   6.770   5.802   8.413 -0.1961 -0.5137 -0.0941
  280MOL0     H38631   6.718   5.798   8.592 -3.0823  0.2059  1.3498
  280MOL0     H38632   6.720   6.016   8.467  2.8569 -2.5061  3.6972
  280MOL0     H38633   6.585   5.947   8.370 -0.5475 -3.4206  0.4824
  280MOL0     H38634   6.604   5.995   8.679 -0.2467 -0.0006  0.5545
  280MOL0     H38635   6.468   5.916   8.599 -0.1355 -0.5027 -0.2276
  280MOL0     H38636   6.350   6.309   8.512  0.0906 -0.0304  0.5008
  280MOL0     H38637   6.794   5.492   8.343  0.0501 -0.1431  0.2863
  280MOL0     H38638   6.896   5.280   8.308  1.4215 -0.6740 -1.0196
  280MOL0     H38639   6.766   5.182   8.310  2.6987 -0.6182  1.9457
  280MOL0     H38640   6.856   5.180   8.161  1.2163 -4.7175  4.9624
  281MOL0     O38641   1.197   9.214   7.047 -0.0377  0.3891  0.1534
  281MOL0     C38642   1.174   9.317   7.104 -1.1234  0.3502  0.0690
  281MOL0     O38643   1.267   9.396   7.145 -0.2999  0.3417 -1.0487
  281MOL0     C38644   1.401   9.345   7.148 -0.2229  0.1353  0.4116
  281MOL0     C38645   1.466   9.291   7.264  0.6700  0.2705  0.2834
  281MOL0     C38646   1.602   9.254   7.256 -0.4395 -1.5871  0.4289
  281MOL0     C38647   1.672   9.270   7.137 -0.2391 -0.2777 -1.4644
  281MOL0     O38648   1.802   9.229   7.120  0.7731 -0.5578  1.3846
  281MOL0     C38649   1.874   9.191   7.240  0.3989  0.7650  0.7447
  281MOL0     C38650   2.020   9.166   7.210 -0.0452  0.5938 -0.0621
  281MOL0     C38651   2.057   9.089   7.086 -0.0773  0.6561 -0.2894
  281MOL0     C38652   2.208   9.042   7.096 -0.4421 -0.4091  0.3367
  281MOL0     C38653   2.262   9.011   6.955  0.1111  0.3115 -0.8334
  281MOL0     C38654   2.392   8.940   6.963 -0.8517  0.1011  0.1496
  281MOL0     C38655   2.508   9.036   6.968  0.1136 -0.4451  0.2961
  281MOL0     C38656   2.636   8.980   6.924 -0.1821 -0.7723  0.3727
  281MOL0     N38657   2.700   8.883   7.021 -0.4455 -0.3460 -0.1102
  281MOL0     C38658   2.743   8.906   7.142  0.7890  0.7531 -0.1616
  281MOL0     C38659   2.818   8.801   7.186  1.0187 -0.0421  0.7744
  281MOL0     C38660   2.895   8.801   7.314 -0.5828 -0.1032 -0.4853
  281MOL0     C38661   2.974   8.929   7.352  0.5539  0.6462  0.6266
  281MOL0     C38662   3.104   8.929   7.269  0.4909  0.5035  0.5654
  281MOL0     C38663   3.160   9.072   7.264  0.2164  0.3539 -0.1083
  281MOL0     O38664   3.283   9.071   7.201 -0.7429  0.1109  0.1111
  281MOL0     C38665   3.366   9.183   7.183  0.4247  0.6809 -0.1390
  281MOL0     C38666   3.357   9.307   7.245 -0.3179 -0.1297  0.8075
  281MOL0     C38667   3.455   9.405   7.228  0.1129  0.6923  0.7030
  281MOL0     C38668   3.452   9.526   7.312 -0.0165 -0.1868 -0.4361
  281MOL0     C38669   3.552   9.387   7.122  0.1332 -1.0844  0.1487
  281MOL0     C38670   3.651   9.487   7.068 -0.1222  0.5714  1.1226
  281MOL0     O38671   3.751   9.426   6.993 -0.3272 -0.1169  0.2078
  281MOL0     C38672   3.848   9.516   6.945  0.6529  0.1051  1.7164
  281MOL0     C38673   3.944   9.553   7.027  0.5611  0.6482 -1.0368
  281MOL0     C38674   4.051   9.630   6.978 -0.6266  0.2487 -0.2698
  281MOL0     C38675   4.048   9.671   6.844  0.4199  0.2613  1.1963
  281MOL0     O38676   4.153   9.736   6.779  0.3187  1.3100  0.1501
  281MOL0     C38677   4.287   9.733   6.840 -0.1567 -0.1149 -0.4079
  281MOL0     C38678   4.391   9.801   6.749  0.8171  0.0445 -0.8065
  281MOL0     C38679   4.472   9.697   6.673  0.0621  0.4559  0.1985
  281MOL0     C38680   4.544   9.759   6.549 -0.3124  0.7826  0.4041
  281MOL0     C38681   4.619   9.660   6.466  0.8211 -1.1992  0.8295
  281MOL0     C38682   4.724   9.597   6.549  0.4380  0.3516 -0.2866
  281MOL0     C38683   4.836   9.544   6.463  0.4525 -0.2471  0.7604
  281MOL0     C38684   4.965   9.481   6.524  0.9704  0.0620 -0.6655
  281MOL0    Cl38685   5.063   9.610   6.579 -0.8129 -0.1662  0.1428
  281MOL0     C38686   3.933   9.646   6.762 -1.0593 -0.3092  0.0461
  281MOL0     C38687   3.827   9.574   6.812 -0.1917  0.0166  0.1023
  281MOL0     O38688   3.649   9.605   7.099  0.1158 -0.4828 -0.0634
  281MOL0     C38689   3.545   9.268   7.051  0.2619  0.8922 -0.3642
  281MOL0     C38690   3.459   9.160   7.082 -0.4909  0.5365  0.1794
  281MOL0     N38691   2.796   8.704   7.084  0.2226  0.0097 -0.0999
  281MOL0     N38692   2.740   8.759   6.982  0.5276  0.4213  0.7134
  281MOL0     C38693   1.616   9.338   7.031  0.5122  0.2325 -0.0518
  281MOL0     C38694   1.479   9.369   7.030 -0.2008 -0.1255  0.5989
  281MOL0     C38695   1.032   9.348   7.126  0.3137 -0.0111 -0.2961
  281MOL0     C38696   0.999   9.474   7.172 -0.1619 -0.4380 -1.0929
  281MOL0     C38697   0.866   9.513   7.186  1.0600  0.0564 -0.5871
  281MOL0     C38698   0.756   9.430   7.144 -0.4502 -0.4611 -0.9504
  281MOL0     O38699   0.627   9.470   7.142  0.2739 -0.2187 -0.6058
  281MOL0     C38700   0.575   9.565   7.235 -0.7367  0.3439 -0.4925
  281MOL0     C38701   0.472   9.501   7.328 -0.7210  0.3095 -0.3929
  281MOL0     C38702   0.535   9.437   7.453  0.6535 -0.3875  0.8489
  281MOL0     C38703   0.421   9.378   7.533  0.8425  0.0313 -0.2060
  281MOL0     C38704   0.468   9.333   7.668  0.4170 -1.7335  0.6323
  281MOL0     C38705   0.496   9.304   7.782 -0.3417  0.2559  0.4875
  281MOL0     C38706   0.790   9.306   7.095  0.1635  0.2095  0.0091
  281MOL0     C38707   0.920   9.263   7.086  0.1374  0.3019  0.0314
  281MOL0     C38708   0.932   9.113   7.049  0.4614  0.2607 -0.1033
  281MOL0     H38709   1.403   9.290   7.352  0.6489  0.5414  0.2725
  281MOL0     H38710   1.648   9.212   7.345  1.7364  0.6607  0.4483
  281MOL0     H38711   1.825   9.097   7.267  0.8983  0.3168  0.1199
  281MOL0     H38712   1.862   9.259   7.324 -1.0827  0.4468  0.8173
  281MOL0     H38713   2.071   9.263   7.205 -1.5044  1.7155  3.8297
  281MOL0     H38714   2.069   9.125   7.299 -1.6158 -0.9660  0.1328
  281MOL0     H38715   1.979   9.015   7.063 -0.2547  0.8726 -0.3831
  281MOL0     H38716   2.044   9.158   7.002 -1.1795  2.3976  1.2421
  281MOL0     H38717   2.267   9.118   7.148 -1.4144  0.6223 -0.0260
  281MOL0     H38718   2.209   8.954   7.161  0.1285 -1.2489 -0.7730
  281MOL0     H38719   2.275   9.105   6.900 -0.3066  1.4948  1.0105
  281MOL0     H38720   2.182   8.952   6.908  1.7848 -4.7012  1.8927
  281MOL0     H38721   2.395   8.867   7.045  2.7917 -0.2449 -0.1241
  281MOL0     H38722   2.403   8.886   6.868 -0.9308 -0.5831  0.5209
  281MOL0     H38723   2.520   9.074   7.070 -0.1743  0.3134  0.0520
  281MOL0     H38724   2.492   9.121   6.902  3.8222 -1.0070 -1.5759
  281MOL0     H38725   2.632   8.937   6.824  3.8279 -2.7729  0.9111
  281MOL0     H38726   2.710   9.060   6.912  0.3471 -0.8996  2.4170
  281MOL0     H38727   2.729   8.990   7.209 -1.0017  2.5646 -2.6237
  281MOL0     H38728   2.965   8.717   7.316  0.5952  0.8687 -0.2372
  281MOL0     H38729   2.820   8.785   7.392 -1.0949 -3.6699 -1.5071
  281MOL0     H38730   2.920   9.022   7.334 -0.1532  0.8519  3.3033
  281MOL0     H38731   2.981   8.930   7.462 -0.7667  2.4688  0.7266
  281MOL0     H38732   3.180   8.862   7.308  1.5707  0.1657 -1.9160
  281MOL0     H38733   3.083   8.888   7.169  2.4739 -1.5265  0.9020
  281MOL0     H38734   3.096   9.136   7.203  0.3174 -1.2577 -1.9946
  281MOL0     H38735   3.158   9.103   7.369 -0.1861 -0.1507  0.0373
  281MOL0     H38736   3.278   9.342   7.311 -1.3167 -0.2398 -0.2959
  281MOL0     H38737   3.415   9.614   7.258 -2.1576 -2.3388 -2.6825
  281MOL0     H38738   3.548   9.558   7.355 -0.0875  0.1985 -0.5618
  281MOL0     H38739   3.388   9.506   7.399  0.9150 -1.5009 -0.0228
  281MOL0     H38740   3.949   9.507   7.125 -0.0005 -0.8112 -1.6812
  281MOL0     H38741   4.135   9.643   7.046 -1.3768 -1.8024  1.1489
  281MOL0     H38742   4.280   9.784   6.936  0.7120 -0.2599 -0.2649
  281MOL0     H38743   4.311   9.628   6.860  0.1551  0.0602  0.1600
  281MOL0     H38744   4.335   9.863   6.678  0.3952 -2.2129 -2.5430
  281MOL0     H38745   4.444   9.873   6.813 -1.2582  1.7072 -0.8436
  281MOL0     H38746   4.396   9.627   6.636 -1.6696  1.9974  0.6787
  281MOL0     H38747   4.547   9.646   6.734  2.1040  2.0595 -0.8611
  281MOL0     H38748   4.603   9.847   6.577  1.1243 -0.1700  0.4632
  281MOL0     H38749   4.477   9.809   6.478 -0.9848 -1.9827 -1.0403
  281MOL0     H38750   4.550   9.588   6.420  1.2563 -3.8304  3.9478
  281MOL0     H38751   4.662   9.717   6.383 -0.6296  0.4993  1.1810
  281MOL0     H38752   4.690   9.502   6.592  3.2222 -0.3848  0.5170
  281MOL0     H38753   4.765   9.668   6.621 -1.7967  0.0446  1.3788
  281MOL0     H38754   4.857   9.622   6.389 -0.2772 -1.2701 -0.5527
  281MOL0     H38755   4.800   9.460   6.403  0.6111  1.0577 -1.2545
  281MOL0     H38756   5.015   9.416   6.452 -0.0024 -0.6178 -0.7525
  281MOL0     H38757   4.934   9.406   6.598 -1.1122  0.3886 -1.1405
  281MOL0     H38758   3.933   9.655   6.654 -2.1153 -1.0751 -0.0376
  281MOL0     H38759   3.748   9.536   6.748  1.0553 -3.2228  0.2778
  281MOL0     H38760   3.616   9.250   6.971 -1.4378  0.5248 -1.8564
  281MOL0     H38761   3.459   9.069   7.022 -0.7976  1.6733 -1.6304
  281MOL0     H38762   1.665   9.342   6.935  0.8135  0.7428  0.1185
  281MOL0     H38763   1.440   9.416   6.940  0.9068  1.0703  0.7293
  281MOL0     H38764   1.077   9.547   7.189  0.9502 -1.9155  0.4416
  281MOL0     H38765   0.850   9.615   7.217  0.5358 -0.5630  1.3277
  281MOL0     H38766   0.656   9.607   7.296 -1.1840 -0.3270  0.5770
  281MOL0     H38767   0.528   9.647   7.180 -1.9905  0.4039  0.6210
  281MOL0     H38768   0.422   9.420   7.275  1.6080 -1.9722  0.7222
  281MOL0     H38769   0.404   9.581   7.361 -0.9569 -0.1235  0.1776
  281MOL0     H38770   0.596   9.353   7.418 -4.4932 -3.4227 -2.2298
  281MOL0     H38771   0.593   9.505   7.515  0.8949  0.0629  0.1370
  281MOL0     H38772   0.382   9.297   7.471 -0.6524 -0.1468  0.9305
  281MOL0     H38773   0.335   9.445   7.545 -0.0558 -0.5370 -2.8892
  281MOL0     H38774   0.514   9.305   7.888 -2.9355  4.2591  1.1201
  281MOL0     H38775   0.708   9.239   7.071  2.1494 -1.8458 -1.3773
  281MOL0     H38776   1.003   9.060   7.113 -2.1252 -3.8128 -0.2538
  281MOL0     H38777   0.841   9.054   7.062  1.4371 -1.1263  0.7190
  281MOL0     H38778   0.970   9.098   6.948  2.5659  0.4878  0.5953
  282MOL0     O38779   0.372   0.831   1.376  0.0157  0.3193  0.6700
  282MOL0     C38780   0.373   0.958   1.379 -0.3026  0.4366 -0.9159
  282MOL0     O38781   0.344   1.046   1.270  0.4744  0.6744  0.7686
  282MOL0     C38782   0.299   0.986   1.155 -0.1254 -0.1481 -0.5121
  282MOL0     C38783   0.174   1.019   1.106 -0.6155  0.6726 -0.0343
  282MOL0     C38784   0.121   0.970   0.991  0.1426  0.2504 -0.4297
  282MOL0     C38785   0.193   0.883   0.919 -0.4848  0.6477 -0.3275
  282MOL0     O38786   0.144   0.815   0.809  0.2700 -0.0529  0.0014
  282MOL0     C38787   0.011   0.753   0.804 -0.1866 -0.1741 -0.7350
  282MOL0     C38788   0.028   0.603   0.831  1.3112 -0.4278 -0.7067
  282MOL0     C38789   0.093   0.507   0.724 -0.2864 -0.2382 -0.6896
  282MOL0     C38790   0.010   0.516   0.596 -0.3997  0.2458  0.6339
  282MOL0     C38791   0.066   0.419   0.490 -0.5826 -0.0882 -1.0294
  282MOL0     C38792  -0.006   0.460   0.352  0.5380  0.0140  0.0374
  282MOL0     C38793   0.040   0.385   0.235  0.5809 -0.4277 -0.2161
  282MOL0     C38794  -0.028   0.419   0.100 -0.5919 -0.6307 -0.5143
  282MOL0     N38795  -0.169   0.397   0.074 -0.7083  0.9622  0.1662
  282MOL0     C38796  -0.217   0.283   0.004 -0.0184  1.0175 -0.2910
  282MOL0     C38797  -0.349   0.300   0.013 -0.1913  0.0709  0.3122
  282MOL0     C38798  -0.452   0.208  -0.045  0.4320  0.1478 -0.0724
  282MOL0     C38799  -0.554   0.267  -0.147 -0.0854 -0.8431  0.7751
  282MOL0     C38800  -0.662   0.357  -0.078  0.5375  1.3114  1.1285
  282MOL0     C38801  -0.734   0.442  -0.183  0.1514  0.6554 -0.4504
  282MOL0     O38802  -0.799   0.350  -0.270 -0.0379  0.0686  0.1019
  282MOL0     C38803  -0.869   0.388  -0.374  0.3353  0.1668 -0.6054
  282MOL0     C38804  -0.884   0.298  -0.483 -0.3643 -0.9974  0.6798
  282MOL0     C38805  -0.974   0.330  -0.584 -0.1881 -0.4256  0.2962
  282MOL0     C38806  -0.978   0.228  -0.704  1.3068 -0.2875 -0.2700
  282MOL0     C38807  -1.042   0.455  -0.592 -0.3534 -0.5491  1.2240
  282MOL0     C38808  -1.138   0.497  -0.703 -0.4641  0.4218  0.1128
  282MOL0     O38809  -1.188   0.621  -0.692  0.3033  0.4211 -0.1989
  282MOL0     C38810  -1.225   0.702  -0.797  0.1773 -1.0516  0.4928
  282MOL0     C38811  -1.326   0.792  -0.774  0.6069 -0.3255  0.5044
  282MOL0     C38812  -1.359   0.886  -0.870 -0.2001 -0.4936  0.0311
  282MOL0     C38813  -1.278   0.900  -0.979  0.5217 -0.1366 -0.3052
  282MOL0     O38814  -1.300   0.985  -1.084 -0.5387  0.4998 -0.1970
  282MOL0     C38815  -1.426   1.050  -1.094  0.1301 -0.5033 -0.5293
  282MOL0     C38816  -1.422   1.119  -1.230  0.5019  0.3479 -0.0752
  282MOL0     C38817  -1.522   1.236  -1.242  0.4693  0.2075 -0.5651
  282MOL0     C38818  -1.532   1.284  -1.380 -0.2099 -0.1214 -0.0704
  282MOL0     C38819  -1.573   1.180  -1.485  0.8006 -0.2903 -0.4211
  282MOL0     C38820  -1.598   1.245  -1.622  1.0645  0.5926 -0.5252
  282MOL0     C38821  -1.658   1.380  -1.630 -0.5416  0.3620 -0.6960
  282MOL0     C38822  -1.679   1.401  -1.777  0.1376 -0.0321  0.4415
  282MOL0    Cl38823  -1.760   1.568  -1.799 -0.2147 -0.2363  0.2720
  282MOL0     C38824  -1.161   0.826  -0.993  0.0375 -0.1365  0.8884
  282MOL0     C38825  -1.137   0.714  -0.906 -0.2549  0.9951 -0.3396
  282MOL0     O38826  -1.168   0.422  -0.796 -0.2774  0.2034  0.2910
  282MOL0     C38827  -1.014   0.539  -0.488 -0.6731  0.1420 -0.0979
  282MOL0     C38828  -0.929   0.513  -0.383 -0.1770  0.3756 -0.0615
  282MOL0     N38829  -0.378   0.423   0.061  0.3628 -0.1518  0.0592
  282MOL0     N38830  -0.272   0.482   0.106  0.8266 -0.4044 -0.7164
  282MOL0     C38831   0.321   0.840   0.969  0.5659  0.0142  0.0306
  282MOL0     C38832   0.376   0.889   1.087 -0.7563 -0.0062 -0.2741
  282MOL0     C38833   0.449   1.027   1.490  0.1127 -0.7026  0.4409
  282MOL0     C38834   0.473   1.169   1.483 -0.9171  0.1351  0.3090
  282MOL0     C38835   0.560   1.242   1.571  0.3268  1.4010  0.0461
  282MOL0     C38836   0.617   1.178   1.676  0.9821 -0.0996 -0.4624
  282MOL0     O38837   0.689   1.257   1.772 -0.1400 -0.2729  0.1315
  282MOL0     C38838   0.780   1.184   1.858 -0.0498 -0.4636 -0.6389
  282MOL0     C38839   0.721   1.149   1.999 -0.4469 -0.4037 -0.0932
  282MOL0     C38840   0.809   1.066   2.098  0.4789  0.8106  0.5215
  282MOL0     C38841   0.823   0.918   2.045 -0.5130 -0.6209 -0.4733
  282MOL0     C38842   0.916   0.839   2.120  0.2816  0.3341  0.2030
  282MOL0     C38843   0.992   0.778   2.189  0.0384 -0.0428  0.0901
  282MOL0     C38844   0.605   1.036   1.686  0.1437  1.1203  0.5562
  282MOL0     C38845   0.516   0.960   1.599 -0.9116 -0.1499 -0.3281
  282MOL0     C38846   0.502   0.815   1.639 -0.4092 -0.2415  0.4413
  282MOL0     H38847   0.125   1.099   1.160  0.5515  1.7524 -0.5188
  282MOL0     H38848   0.024   1.012   0.966 -0.0795  1.7984  2.5850
  282MOL0     H38849  -0.026   0.771   0.703  0.6671 -3.0177 -1.6718
  282MOL0     H38850  -0.058   0.791   0.880  0.8581 -1.3912  0.9081
  282MOL0     H38851   0.088   0.594   0.922  2.5784  0.0166 -1.4770
  282MOL0     H38852  -0.073   0.564   0.847  1.0583 -1.0567 -3.3865
  282MOL0     H38853   0.193   0.543   0.700 -0.5617  0.4907 -0.7565
  282MOL0     H38854   0.089   0.402   0.755 -2.3817  0.1081  0.4160
  282MOL0     H38855  -0.093   0.486   0.617  0.3085 -0.6740  3.2163
  282MOL0     H38856   0.020   0.618   0.558  0.7115 -0.6513 -1.7391
  282MOL0     H38857   0.042   0.317   0.523 -2.5519  0.8668  0.7500
  282MOL0     H38858   0.173   0.438   0.479 -0.7881  1.8827 -0.1165
  282MOL0     H38859  -0.108   0.427   0.371  1.8280 -3.9075  1.1024
  282MOL0     H38860  -0.002   0.569   0.343 -1.5581  0.1126 -0.2566
  282MOL0     H38861   0.032   0.279   0.258  1.8818  0.1568  3.6035
  282MOL0     H38862   0.146   0.405   0.215  0.1497  0.2551 -2.0387
  282MOL0     H38863  -0.002   0.525   0.087  0.7855 -0.8261  0.4459
  282MOL0     H38864   0.028   0.357   0.029 -1.3126  0.2542 -1.8955
  282MOL0     H38865  -0.170   0.199  -0.046 -2.4398  0.4456 -1.7750
  282MOL0     H38866  -0.515   0.164   0.033 -0.8529 -1.8050 -2.1162
  282MOL0     H38867  -0.409   0.121  -0.096  2.7670 -0.2237  2.2807
  282MOL0     H38868  -0.499   0.336  -0.211 -0.6117 -1.0920  0.0456
  282MOL0     H38869  -0.604   0.189  -0.205 -0.4916  2.1455 -3.3662
  282MOL0     H38870  -0.739   0.294  -0.031 -0.6962  3.5246  2.2040
  282MOL0     H38871  -0.618   0.420   0.000  0.4701 -0.4887  2.7032
  282MOL0     H38872  -0.809   0.507  -0.137  1.2543  0.8003  1.2525
  282MOL0     H38873  -0.667   0.510  -0.236  0.4021  1.0751  0.3897
  282MOL0     H38874  -0.831   0.203  -0.476 -0.0842 -0.8757  0.1993
  282MOL0     H38875  -0.971   0.266  -0.807 -0.3924  0.7202 -0.0600
  282MOL0     H38876  -1.081   0.191  -0.704  1.2671 -0.2138 -1.4508
  282MOL0     H38877  -0.901   0.151  -0.697  0.9051 -0.5367  1.9671
  282MOL0     H38878  -1.383   0.775  -0.683  2.1763  0.8241  1.7689
  282MOL0     H38879  -1.442   0.954  -0.854 -1.4488 -1.9908  0.1540
  282MOL0     H38880  -1.507   0.978  -1.080  2.7399 -3.3011  1.7949
  282MOL0     H38881  -1.427   1.126  -1.016  1.1775  0.2778 -1.2361
  282MOL0     H38882  -1.320   1.156  -1.242  1.0840 -0.8452  0.9943
  282MOL0     H38883  -1.430   1.043  -1.307  2.7058 -0.2557  0.2136
  282MOL0     H38884  -1.495   1.329  -1.190  0.9758  0.1543 -0.7243
  282MOL0     H38885  -1.618   1.200  -1.204  1.4841  1.4356  3.7668
  282MOL0     H38886  -1.435   1.323  -1.410  1.9029 -5.3422 -1.1682
  282MOL0     H38887  -1.608   1.363  -1.385 -0.5860 -0.4635  0.1382
  282MOL0     H38888  -1.494   1.105  -1.486  3.1824  1.9365  2.4142
  282MOL0     H38889  -1.667   1.130  -1.460 -1.1304  2.5332 -1.4451
  282MOL0     H38890  -1.669   1.175  -1.666  0.0617 -0.6989  2.8088
  282MOL0     H38891  -1.503   1.251  -1.677 -0.8133  1.6094 -3.9145
  282MOL0     H38892  -1.586   1.450  -1.587 -1.1028  0.3396  0.3308
  282MOL0     H38893  -1.755   1.373  -1.579  0.1443 -2.4439  0.3921
  282MOL0     H38894  -1.745   1.326  -1.822 -0.9943  0.1770  1.6997
  282MOL0     H38895  -1.585   1.395  -1.833  0.7637 -1.9555  1.6143
  282MOL0     H38896  -1.091   0.842  -1.075 -3.5147  1.4914 -2.1003
  282MOL0     H38897  -1.048   0.651  -0.910 -1.3747 -0.6281 -0.3419
  282MOL0     H38898  -1.070   0.632  -0.481 -3.1987 -1.3584  1.6033
  282MOL0     H38899  -0.914   0.585  -0.303 -0.1198  3.9686 -3.0365
  282MOL0     H38900   0.375   0.773   0.903 -0.8101 -0.8401 -0.2839
  282MOL0     H38901   0.478   0.862   1.111 -0.8340  0.7786  1.0315
  282MOL0     H38902   0.424   1.231   1.409 -0.7977 -0.2694 -0.1099
  282MOL0     H38903   0.553   1.351   1.574  1.7730  1.5230 -0.3836
  282MOL0     H38904   0.835   1.099   1.816  1.4145 -1.4136  2.8526
  282MOL0     H38905   0.863   1.253   1.879 -0.9747 -0.0518  2.0254
  282MOL0     H38906   0.623   1.102   1.986 -1.8758  2.0367  1.0268
  282MOL0     H38907   0.696   1.240   2.055 -2.3629 -1.8367  1.5271
  282MOL0     H38908   0.904   1.119   2.099 -0.3046  2.2510  0.5497
  282MOL0     H38909   0.752   1.064   2.191  1.9199  0.0695  1.4253
  282MOL0     H38910   0.842   0.906   1.938  0.9610 -0.5473 -0.2346
  282MOL0     H38911   0.729   0.863   2.055  0.2440 -2.1095 -1.1540
  282MOL0     H38912   1.061   0.717   2.245  1.6517  0.3406 -1.3651
  282MOL0     H38913   0.652   0.975   1.762 -0.0634 -0.6583 -0.6766
  282MOL0     H38914   0.547   0.804   1.737 -0.5116  0.0597  0.5244
  282MOL0     H38915   0.396   0.787   1.639 -0.1619 -1.2319  0.9709
  282MOL0     H38916   0.547   0.751   1.563  3.5304  0.3883  2.0327
  283MOL0     O38917   9.612   7.861   1.168  0.1907  0.1569  0.0902
  283MOL0     C38918   9.585   7.978   1.153  1.2315 -1.0875 -0.4585
  283MOL0     O38919   9.616   8.052   1.048  0.5827  0.0572  0.6197
  283MOL0     C38920   9.684   8.003   0.942  0.2239  0.1118  1.0238
  283MOL0     C38921   9.630   8.032   0.821  0.2672  0.3466 -0.2614
  283MOL0     C38922   9.694   7.983   0.708 -0.1071  1.0838 -0.1545
  283MOL0     C38923   9.806   7.907   0.706  0.4241 -0.4199  0.7845
  283MOL0     O38924   9.844   7.855   0.583  0.4200  0.0099 -0.0143
  283MOL0     C38925   9.974   7.791   0.567  0.2940 -0.0087  0.1121
  283MOL0     C38926   9.987   7.728   0.431  0.1878 -0.6719  0.3425
  283MOL0     C38927  10.134   7.721   0.381 -0.7254 -0.7116  0.1457
  283MOL0     C38928  10.150   7.781   0.238  0.1057 -0.4085 -0.4634
  283MOL0     C38929  10.286   7.740   0.187 -0.9280 -0.0649 -0.3224
  283MOL0     C38930  10.297   7.746   0.038  0.6270 -0.2982 -0.3441
  283MOL0     C38931  10.445   7.748   0.007  0.3188  0.1442 -0.5849
  283MOL0     C38932  10.467   7.726  -0.141 -0.0553 -0.1025  0.3048
  283MOL0     N38933  10.469   7.851  -0.210 -0.0722  0.6359 -1.0513
  283MOL0     C38934  10.579   7.928  -0.231 -0.0046 -0.3641 -0.1261
  283MOL0     C38935  10.537   8.044  -0.280  0.6403 -0.4948  1.1529
  283MOL0     C38936  10.621   8.167  -0.310 -0.0240 -0.5639 -0.2949
  283MOL0     C38937  10.552   8.298  -0.264  0.2510  0.3713  0.2370
  283MOL0     C38938  10.522   8.308  -0.115  0.3357  0.0712  0.1580
  283MOL0     C38939  10.642   8.359  -0.037  0.1447  0.2186  0.0309
  283MOL0     O38940  10.663   8.494  -0.059 -0.4542  0.6964  0.1312
  283MOL0     C38941  10.749   8.560   0.028 -0.1635  1.0148  0.6126
  283MOL0     C38942  10.773   8.691  -0.004 -0.0333  0.7782  1.0875
  283MOL0     C38943  10.861   8.777   0.066 -0.5331  0.2645  0.0102
  283MOL0     C38944  10.895   8.915   0.012 -0.6853 -0.1235  0.4494
  283MOL0     C38945  10.918   8.726   0.187  0.2098  0.2390 -0.3108
  283MOL0     C38946  11.021   8.797   0.266 -0.2791 -0.3610  1.1390
  283MOL0     O38947  11.084   8.906   0.217  0.6180 -0.0244  0.2340
  283MOL0     C38948  11.205   8.935   0.279 -0.4262  0.5873  0.9537
  283MOL0     C38949  11.236   9.062   0.310 -0.5244 -0.1974 -0.8489
  283MOL0     C38950  11.367   9.100   0.352  0.4573  0.6203  0.0665
  283MOL0     C38951  11.468   9.011   0.358  0.2137  0.0068 -0.1983
  283MOL0     O38952  11.594   9.042   0.418  0.5813  0.5027 -0.5170
  283MOL0     C38953  11.687   8.946   0.440 -0.0757  0.2723 -0.4608
  283MOL0     C38954  11.812   9.014   0.503 -0.3970  0.4590 -0.5340
  283MOL0     C38955  11.922   8.916   0.572  0.0177  0.3738  0.5179
  283MOL0     C38956  11.995   8.979   0.698  0.8012 -0.5942 -0.1542
  283MOL0     C38957  12.041   8.878   0.810 -0.2191 -0.8605 -0.0269
  283MOL0     C38958  12.162   8.793   0.766  0.4875 -0.1322 -0.1832
  283MOL0     C38959  12.286   8.876   0.761 -0.4712 -0.3471  1.5442
  283MOL0     C38960  12.409   8.800   0.733  0.0692 -0.0227 -0.1362
  283MOL0    Cl38961  12.462   8.674   0.840 -0.8559 -0.1269 -0.1475
  283MOL0     C38962  11.441   8.875   0.309 -0.4788 -0.5043  0.1139
  283MOL0     C38963  11.311   8.842   0.277  0.4015  0.1870  0.2773
  283MOL0     O38964  11.049   8.744   0.370  0.0568  0.7307 -0.5045
  283MOL0     C38965  10.881   8.591   0.223 -0.5715 -0.2413  0.7169
  283MOL0     C38966  10.799   8.510   0.149 -1.5298  0.8595  0.1246
  283MOL0     N38967  10.399   8.028  -0.295 -0.3372  0.5311 -0.3153
  283MOL0     N38968  10.358   7.917  -0.255 -0.5271  0.2642 -0.6251
  283MOL0     C38969   9.872   7.879   0.834 -0.1247  0.3805 -0.0170
  283MOL0     C38970   9.803   7.930   0.943 -0.0522 -0.0481 -0.6959
  283MOL0     C38971   9.510   8.049   1.262  0.6227  0.1990 -0.1144
  283MOL0     C38972   9.503   8.192   1.246 -0.2221  0.7451 -0.1598
  283MOL0     C38973   9.439   8.272   1.341 -0.0689  0.5153  0.1470
  283MOL0     C38974   9.385   8.205   1.457 -0.1826 -0.3495  0.4626
  283MOL0     O38975   9.323   8.287   1.547  0.7548 -0.1042  0.0430
  283MOL0     C38976   9.268   8.234   1.666  0.8944 -0.1463  0.2226
  283MOL0     C38977   9.135   8.168   1.632 -0.6450  0.7717  0.5176
  283MOL0     C38978   9.019   8.251   1.568  0.4404  0.1135  0.1558
  283MOL0     C38979   8.900   8.162   1.523 -0.2437 -0.8034 -0.7155
  283MOL0     C38980   8.780   8.241   1.518 -0.2065 -0.1544 -0.1915
  283MOL0     C38981   8.687   8.315   1.509 -1.0830  0.1922 -0.3862
  283MOL0     C38982   9.403   8.069   1.472 -1.1828 -0.0301 -0.2620
  283MOL0     C38983   9.447   7.986   1.375 -0.3798  0.1343  1.0678
  283MOL0     C38984   9.430   7.840   1.393 -0.0567  0.0028 -0.9855
  283MOL0     H38985   9.554   8.104   0.791  2.3763  2.0672 -1.7372
  283MOL0     H38986   9.654   8.009   0.611 -0.9728 -0.2224 -0.1820
  283MOL0     H38987   9.998   7.721   0.647  3.5613 -0.0390 -0.7232
  283MOL0     H38988  10.050   7.869   0.575 -0.9122  1.2487 -0.2809
  283MOL0     H38989   9.936   7.631   0.437  0.7790 -0.9212  2.0349
  283MOL0     H38990   9.944   7.799   0.360  4.0399 -0.0605 -1.6624
  283MOL0     H38991  10.199   7.769   0.455  0.4645 -3.1381  0.7742
  283MOL0     H38992  10.158   7.614   0.380  0.0751 -0.5338 -1.1415
  283MOL0     H38993  10.071   7.744   0.173 -0.7135  0.4619  0.0190
  283MOL0     H38994  10.149   7.889   0.221 -1.1296 -0.8789 -4.3666
  283MOL0     H38995  10.293   7.635   0.219 -3.2404  0.0938  0.9475
  283MOL0     H38996  10.360   7.804   0.236 -3.0133  0.6758  2.0660
  283MOL0     H38997  10.252   7.657  -0.008  0.0995 -0.1303 -0.1625
  283MOL0     H38998  10.246   7.833  -0.003  2.4226  0.4493 -1.0890
  283MOL0     H38999  10.493   7.664   0.058 -2.6142 -0.9215  0.5742
  283MOL0     H39000  10.493   7.841   0.038 -0.2427 -0.1222  1.1331
  283MOL0     H39001  10.560   7.674  -0.168  0.9281  2.8378 -2.7857
  283MOL0     H39002  10.392   7.653  -0.172  0.3126 -0.3505 -0.0285
  283MOL0     H39003  10.683   7.915  -0.202  0.5133  1.5918 -0.9742
  283MOL0     H39004  10.635   8.168  -0.418 -3.7633  2.9093 -0.9812
  283MOL0     H39005  10.715   8.158  -0.255 -0.6834  0.9278  1.1445
  283MOL0     H39006  10.615   8.379  -0.302  0.1934  1.3276  2.0694
  283MOL0     H39007  10.452   8.303  -0.309  0.5659 -0.7754 -0.6472
  283MOL0     H39008  10.431   8.367  -0.104 -0.1227 -0.3805 -1.0615
  283MOL0     H39009  10.499   8.207  -0.082 -0.0566  0.1655  0.1785
  283MOL0     H39010  10.608   8.337   0.064 -0.6099 -2.5034 -0.7388
  283MOL0     H39011  10.738   8.307  -0.046  0.8901  1.1664  2.0180
  283MOL0     H39012  10.723   8.730  -0.092 -2.3293  0.7453  2.3041
  283MOL0     H39013  10.880   9.002   0.077  2.0727  0.0024  1.0239
  283MOL0     H39014  10.841   8.924  -0.083 -0.1625  2.0876  0.2938
  283MOL0     H39015  10.998   8.898  -0.020 -0.7206  0.9069 -0.2841
  283MOL0     H39016  11.160   9.139   0.305 -1.0258 -0.6523 -0.3730
  283MOL0     H39017  11.373   9.205   0.378 -1.6933  0.6971  0.4503
  283MOL0     H39018  11.635   8.882   0.512  1.1940 -0.5277 -0.2167
  283MOL0     H39019  11.710   8.890   0.349 -0.2649 -0.0515 -0.3121
  283MOL0     H39020  11.865   9.080   0.433 -0.2386  1.5988  0.6203
  283MOL0     H39021  11.776   9.082   0.581  1.0703 -0.8420  1.3667
  283MOL0     H39022  11.995   8.888   0.495 -1.5668  3.3982 -2.3173
  283MOL0     H39023  11.880   8.822   0.611  1.2623 -0.2468  0.4090
  283MOL0     H39024  11.929   9.060   0.731 -0.4715 -0.8335 -2.0117
  283MOL0     H39025  12.083   9.033   0.661 -0.6389  0.8003 -1.7085
  283MOL0     H39026  12.071   8.937   0.897  2.3956 -0.3289 -1.1839
  283MOL0     H39027  11.949   8.826   0.838 -1.2204  1.3214  0.9453
  283MOL0     H39028  12.151   8.741   0.671 -3.0743 -1.6203  0.8938
  283MOL0     H39029  12.170   8.715   0.842  3.1687 -0.5023 -0.7445
  283MOL0     H39030  12.289   8.926   0.859 -0.1510  1.3283  0.7118
  283MOL0     H39031  12.265   8.947   0.681  2.6744  0.2763  1.1402
  283MOL0     H39032  12.491   8.872   0.741  3.3303 -3.5058  0.7484
  283MOL0     H39033  12.403   8.775   0.626  1.2276  3.3491 -1.1308
  283MOL0     H39034  11.527   8.810   0.293  0.1663  0.1164  0.9480
  283MOL0     H39035  11.294   8.742   0.238  0.9549  0.9390 -2.0114
  283MOL0     H39036  10.931   8.539   0.305 -1.6149 -1.1764  0.7776
  283MOL0     H39037  10.781   8.406   0.177  0.6542  0.3988 -0.0115
  283MOL0     H39038   9.952   7.806   0.839  0.8497  1.1178 -2.9825
  283MOL0     H39039   9.847   7.928   1.042 -2.2954  2.6387  0.5201
  283MOL0     H39040   9.535   8.238   1.153  1.0937 -1.8892 -1.1158
  283MOL0     H39041   9.431   8.379   1.323 -1.5362  0.2535 -0.9351
  283MOL0     H39042   9.330   8.159   1.715 -0.0652 -0.6506  0.6817
  283MOL0     H39043   9.237   8.308   1.741  0.7914 -0.3678  0.3968
  283MOL0     H39044   9.098   8.109   1.716 -0.5689 -3.8972 -2.3939
  283MOL0     H39045   9.145   8.091   1.556 -3.8740 -2.1917  2.8333
  283MOL0     H39046   8.990   8.322   1.646 -1.4048  0.6826 -0.9747
  283MOL0     H39047   9.045   8.319   1.486 -1.1970  1.0491  0.3591
  283MOL0     H39048   8.887   8.071   1.582  0.6120 -0.6102 -0.2168
  283MOL0     H39049   8.918   8.117   1.425  0.2470 -2.1094 -0.0563
  283MOL0     H39050   8.608   8.387   1.520 -1.5685 -0.5094  1.0882
  283MOL0     H39051   9.364   8.021   1.561 -3.1336 -0.3701 -1.2532
  283MOL0     H39052   9.399   7.806   1.493 -0.7504 -0.0516 -1.2163
  283MOL0     H39053   9.351   7.794   1.334  0.2816 -0.7388 -0.8720
  283MOL0     H39054   9.521   7.781   1.383 -1.2696 -1.7269 -2.4564
  284MOL0     O39055   0.472   9.319  11.341 -0.4880  0.1703 -0.1763
  284MOL0     C39056   0.422   9.275  11.442  0.8856 -1.8501  0.1690
  284MOL0     O39057   0.483   9.204  11.541  0.7055 -0.0183 -0.1605
  284MOL0     C39058   0.605   9.149  11.529 -0.0952  1.2142  1.5268
  284MOL0     C39059   0.621   9.048  11.423  0.3344  0.0690 -0.0174
  284MOL0     C39060   0.744   8.982  11.403 -0.4433  0.0107  0.4065
  284MOL0     C39061   0.857   9.012  11.485  0.0677 -0.1625  0.1531
  284MOL0     O39062   0.985   8.974  11.464  0.2392  0.4833 -0.9115
  284MOL0     C39063   0.999   8.880  11.356 -0.0841  0.3752 -0.4700
  284MOL0     C39064   1.134   8.822  11.343  0.6139  0.1091 -0.2633
  284MOL0     C39065   1.230   8.924  11.262  0.7218  0.4013 -0.3219
  284MOL0     C39066   1.373   8.873  11.244  0.5006  0.2060 -0.0132
  284MOL0     C39067   1.441   8.966  11.146 -0.1403 -0.4151  1.2995
  284MOL0     C39068   1.580   8.925  11.105 -0.0324  0.6612  0.4076
  284MOL0     C39069   1.645   9.019  11.004  0.2878 -0.0590  0.1177
  284MOL0     C39070   1.561   9.057  10.884  0.4696 -0.3355  0.0343
  284MOL0     N39071   1.645   9.106  10.778  0.1906 -0.1842  0.0777
  284MOL0     C39072   1.655   9.239  10.732  0.2625 -0.4349  0.0585
  284MOL0     C39073   1.709   9.219  10.607 -0.6706  1.0230  0.7563
  284MOL0     C39074   1.765   9.318  10.505 -0.2280  0.6877  0.2072
  284MOL0     C39075   1.641   9.384  10.436  0.0433  0.7002 -0.2164
  284MOL0     C39076   1.707   9.502  10.358  1.2770 -0.3996 -0.0847
  284MOL0     C39077   1.794   9.465  10.231 -1.1942  0.3436  0.3110
  284MOL0     O39078   1.797   9.578  10.144 -0.5645 -0.2978 -0.0759
  284MOL0     C39079   1.907   9.613  10.072 -0.2761  0.6354 -0.3267
  284MOL0     C39080   1.934   9.748  10.033  0.4658  0.5807 -0.3051
  284MOL0     C39081   2.041   9.777   9.941  0.6432  1.2145 -0.0713
  284MOL0     C39082   2.029   9.925   9.888 -0.1287  0.1719  0.3565
  284MOL0     C39083   2.126   9.670   9.892 -0.7334 -0.4429 -0.1780
  284MOL0     C39084   2.236   9.687   9.794  0.1260 -0.3860  0.2399
  284MOL0     O39085   2.271   9.586   9.715 -0.4142  0.6884  0.0515
  284MOL0     C39086   2.335   9.617   9.590 -0.4144 -0.0330  1.1831
  284MOL0     C39087   2.470   9.659   9.601 -0.5379 -0.2871  0.7515
  284MOL0     C39088   2.541   9.671   9.479 -0.2394  0.3960  1.0262
  284MOL0     C39089   2.483   9.665   9.350 -0.3043 -0.5004  0.4125
  284MOL0     O39090   2.557   9.680   9.232  0.2081  0.7904  0.6938
  284MOL0     C39091   2.668   9.778   9.232  0.4655 -0.1638 -0.2929
  284MOL0     C39092   2.747   9.775   9.098  0.3173 -1.0181 -0.0976
  284MOL0     C39093   2.820   9.910   9.078  0.3043  0.0296 -0.5993
  284MOL0     C39094   2.928   9.938   9.185 -0.2279  0.0115 -0.2045
  284MOL0     C39095   3.010  10.066   9.174  0.6979 -0.6505  0.2442
  284MOL0     C39096   3.043  10.112   9.031  0.1194  0.2583 -0.7414
  284MOL0     C39097   3.167  10.202   9.045  1.2046 -0.3261 -0.1299
  284MOL0     C39098   3.198  10.273   8.919  0.8007 -0.8488 -0.3421
  284MOL0    Cl39099   3.056  10.353   8.845  0.3678 -0.0011  0.1492
  284MOL0     C39100   2.351   9.626   9.346  0.1896  0.2016  0.3157
  284MOL0     C39101   2.278   9.611   9.463 -0.6574 -0.1698  0.0749
  284MOL0     O39102   2.287   9.797   9.791 -0.6924  0.1481  0.9310
  284MOL0     C39103   2.104   9.538   9.945  0.5467  1.0342  0.4394
  284MOL0     C39104   1.998   9.510  10.033  0.2149  0.2746 -0.1865
  284MOL0     N39105   1.732   9.082  10.576  0.3342 -0.5606  0.0458
  284MOL0     N39106   1.702   9.027  10.684 -0.3303  1.5148 -0.2059
  284MOL0     C39107   0.833   9.092  11.591 -0.0218 -0.3425 -1.1690
  284MOL0     C39108   0.711   9.161  11.617  0.0229  0.3599 -0.0644
  284MOL0     C39109   0.275   9.310  11.471 -0.4845  0.7258 -0.2237
  284MOL0     C39110   0.215   9.243  11.584 -0.6876 -0.7014  0.4750
  284MOL0     C39111   0.094   9.281  11.636  0.0747 -1.0072  0.7323
  284MOL0     C39112   0.017   9.378  11.561 -0.4700 -0.3552 -0.1875
  284MOL0     O39113  -0.108   9.396  11.593 -0.0169 -0.5471 -0.4663
  284MOL0     C39114  -0.205   9.314  11.520  0.6914  0.8594  0.0731
  284MOL0     C39115  -0.338   9.344  11.578  0.8453  0.0376  0.0090
  284MOL0     C39116  -0.391   9.480  11.533 -0.0043  0.9918  0.2598
  284MOL0     C39117  -0.534   9.496  11.583  0.9803  0.0038  0.6581
  284MOL0     C39118  -0.638   9.405  11.515 -0.3906 -0.0337 -0.3878
  284MOL0     C39119  -0.699   9.329  11.446 -0.6990  0.0122  0.2713
  284MOL0     C39120   0.069   9.438  11.447  1.5549 -1.0655 -0.4647
  284MOL0     C39121   0.195   9.405  11.407 -0.2360  0.2064  0.8546
  284MOL0     C39122   0.248   9.471  11.280  0.9428  0.6892  0.8287
  284MOL0     H39123   0.530   9.041  11.363  1.2377  0.8101 -1.5445
  284MOL0     H39124   0.754   8.917  11.316  2.0567  0.1636  0.5113
  284MOL0     H39125   0.966   8.923  11.261 -0.8272 -1.6636 -1.2030
  284MOL0     H39126   0.937   8.792  11.378 -0.0739  1.0083  2.6147
  284MOL0     H39127   1.172   8.790  11.440  2.6184 -0.8167 -1.2682
  284MOL0     H39128   1.129   8.731  11.282  1.9220  0.8177 -1.5015
  284MOL0     H39129   1.178   8.945  11.169 -2.1296 -0.5351  0.9406
  284MOL0     H39130   1.234   9.018  11.317  1.2304 -0.0259  0.3934
  284MOL0     H39131   1.427   8.881  11.339 -1.3131  4.8116  0.8938
  284MOL0     H39132   1.365   8.770  11.206  1.0323  0.0662  0.2404
  284MOL0     H39133   1.440   9.062  11.198  0.9140  0.4820 -0.2595
  284MOL0     H39134   1.385   8.972  11.053 -2.0847  0.3752  2.4572
  284MOL0     H39135   1.637   8.934  11.198  1.1023 -2.3850  0.1238
  284MOL0     H39136   1.578   8.827  11.057  0.9979  2.1025 -2.7929
  284MOL0     H39137   1.744   8.982  10.975  0.9816  3.7788 -3.3493
  284MOL0     H39138   1.665   9.115  11.051 -1.3145  0.3375  0.0385
  284MOL0     H39139   1.497   8.982  10.837  1.8045  0.2899 -3.0083
  284MOL0     H39140   1.491   9.133  10.920 -3.3289 -3.3145 -0.4094
  284MOL0     H39141   1.607   9.325  10.779 -0.8178 -1.5428  1.0672
  284MOL0     H39142   1.830   9.266  10.434  1.1774 -0.2632  2.1072
  284MOL0     H39143   1.824   9.392  10.559 -1.1678  0.3716  1.7430
  284MOL0     H39144   1.598   9.308  10.371  1.6296 -1.9548  1.6139
  284MOL0     H39145   1.561   9.415  10.504  1.1544  0.7385  1.1374
  284MOL0     H39146   1.623   9.563  10.324  1.8894  1.4455  1.5160
  284MOL0     H39147   1.784   9.549  10.419  3.1914 -1.5883 -1.4813
  284MOL0     H39148   1.893   9.433  10.265 -1.7081 -0.8058  0.7697
  284MOL0     H39149   1.743   9.380  10.185 -0.8423 -1.0446  2.3563
  284MOL0     H39150   1.858   9.820  10.062 -0.3797  1.7827 -4.7252
  284MOL0     H39151   2.031   9.917   9.779  1.9241 -0.1646  0.3912
  284MOL0     H39152   2.116   9.984   9.918  1.3065 -0.7609 -1.6780
  284MOL0     H39153   1.932   9.971   9.912  1.1843  2.5217  1.5708
  284MOL0     H39154   2.523   9.657   9.695 -0.4823  0.0326  0.7296
  284MOL0     H39155   2.648   9.691   9.489 -0.2720  0.1345  2.0648
  284MOL0     H39156   2.624   9.878   9.240  2.7650  0.9906 -1.0589
  284MOL0     H39157   2.746   9.767   9.308  1.3267  0.8640 -0.9987
  284MOL0     H39158   2.812   9.687   9.091 -1.9648 -2.6817 -4.2923
  284MOL0     H39159   2.684   9.759   9.010  1.4008  1.7192 -1.4669
  284MOL0     H39160   2.747   9.992   9.078  0.9305  0.9355  4.3933
  284MOL0     H39161   2.873   9.890   8.984  2.1673 -3.7226  1.0406
  284MOL0     H39162   2.994   9.850   9.189  0.5412  0.6115  2.5658
  284MOL0     H39163   2.887   9.936   9.286 -0.3082 -3.9639 -0.1456
  284MOL0     H39164   2.961  10.150   9.223  0.7220 -0.0189 -0.7918
  284MOL0     H39165   3.102  10.047   9.230  0.1776 -1.1288  0.9451
  284MOL0     H39166   2.962  10.169   8.985  0.1453 -1.3793 -2.9621
  284MOL0     H39167   3.060  10.023   8.969 -0.9457 -0.0196 -0.6538
  284MOL0     H39168   3.244  10.135   9.082  2.4466  2.4939  2.9078
  284MOL0     H39169   3.153  10.279   9.122  1.1376 -0.3363 -0.1309
  284MOL0     H39170   3.233  10.197   8.849  1.5039 -0.2838 -0.6192
  284MOL0     H39171   3.278  10.347   8.926 -1.4511  1.8810 -1.5462
  284MOL0     H39172   2.298   9.605   9.253  1.5734  0.7744 -0.6341
  284MOL0     H39173   2.183   9.560   9.450 -1.3116  1.0842 -0.2444
  284MOL0     H39174   2.178   9.463   9.919  0.7217  0.0735  3.4245
  284MOL0     H39175   1.987   9.409  10.071  1.0029  1.0697  2.4308
  284MOL0     H39176   0.912   9.108  11.664 -0.8062 -0.5249 -0.2734
  284MOL0     H39177   0.676   9.218  11.702 -2.9337 -0.4988 -0.5909
  284MOL0     H39178   0.272   9.164  11.632 -0.0371  0.2209  1.2773
  284MOL0     H39179   0.044   9.245  11.725 -0.4031 -0.0753  0.8390
  284MOL0     H39180  -0.217   9.314  11.412 -2.4215  1.1053  0.3171
  284MOL0     H39181  -0.167   9.213  11.535 -0.7972 -0.2163 -2.6764
  284MOL0     H39182  -0.334   9.340  11.687  0.4561  0.9903  0.0718
  284MOL0     H39183  -0.411   9.270  11.544 -1.1507  0.5360  2.8754
  284MOL0     H39184  -0.334   9.556  11.587  0.8420  0.0457  0.7401
  284MOL0     H39185  -0.379   9.490  11.425  1.2773  0.1800  0.3099
  284MOL0     H39186  -0.564   9.598  11.558 -1.1013  0.1163  3.2032
  284MOL0     H39187  -0.534   9.468  11.688  0.0711 -1.1756  0.3658
  284MOL0     H39188  -0.770   9.276  11.386  0.5241  1.4967 -2.6802
  284MOL0     H39189   0.008   9.509  11.392  0.8502  1.5473  3.2991
  284MOL0     H39190   0.307   9.561  11.301  0.4636  1.4682 -0.9781
  284MOL0     H39191   0.286   9.395  11.211 -0.4233 -1.7142  2.5730
  284MOL0     H39192   0.165   9.523  11.230 -1.1557 -1.7661  1.5377
  285MOL0     O39193   9.124   5.857   6.164 -0.1347  0.0711  0.2356
  285MOL0     C39194   9.193   5.757   6.173 -0.5496 -1.2421  0.1958
  285MOL0     O39195   9.155   5.630   6.196 -0.1374  0.3934 -1.1601
  285MOL0     C39196   9.044   5.596   6.277 -0.3408 -0.1788  0.6499
  285MOL0     C39197   8.988   5.473   6.264  0.4357  0.0898  0.0936
  285MOL0     C39198   8.874   5.439   6.341 -0.0826  0.5028 -0.3351
  285MOL0     C39199   8.813   5.528   6.416  0.1646 -1.1091 -0.8847
  285MOL0     O39200   8.696   5.489   6.478 -0.2042  0.5161 -0.0166
  285MOL0     C39201   8.722   5.401   6.586  0.4065  0.6414  0.0920
  285MOL0     C39202   8.634   5.408   6.704  0.9162  0.0678 -0.7557
  285MOL0     C39203   8.626   5.547   6.765 -0.8372 -0.1345 -0.0687
  285MOL0     C39204   8.590   5.544   6.911 -0.0208  0.1965  0.2736
  285MOL0     C39205   8.577   5.687   6.971  1.0481 -0.1308  0.1873
  285MOL0     C39206   8.519   5.678   7.117  0.1452 -0.8534 -0.2644
  285MOL0     C39207   8.610   5.599   7.211 -0.0216  0.8327 -0.5241
  285MOL0     C39208   8.584   5.639   7.365 -0.0852  0.6710  0.4364
  285MOL0     N39209   8.604   5.518   7.451  0.2233  0.6383  0.0972
  285MOL0     C39210   8.732   5.462   7.466  0.1468  0.0261  0.5157
  285MOL0     C39211   8.714   5.337   7.528  0.3382 -0.5304  0.1204
  285MOL0     C39212   8.813   5.221   7.550  0.3196  0.1127  0.5500
  285MOL0     C39213   8.959   5.271   7.588 -0.0013  0.4905 -0.4037
  285MOL0     C39214   8.959   5.365   7.716 -0.4196  0.2934  0.1445
  285MOL0     C39215   9.087   5.355   7.790  0.6848  0.2754  0.3525
  285MOL0     O39216   9.130   5.217   7.814  0.3425  0.3170 -0.0343
  285MOL0     C39217   9.260   5.183   7.827 -0.2489  0.5264 -0.5026
  285MOL0     C39218   9.373   5.272   7.847  0.2755 -0.5156 -0.6213
  285MOL0     C39219   9.498   5.229   7.863 -0.1828 -0.5006  0.0220
  285MOL0     C39220   9.610   5.333   7.865 -0.3137  0.4197 -0.4611
  285MOL0     C39221   9.513   5.087   7.868  0.7570  0.9207  1.1025
  285MOL0     C39222   9.652   5.045   7.899 -0.3151  0.7321 -0.2630
  285MOL0     O39223   9.733   4.998   7.796  0.6290 -0.2082  0.4057
  285MOL0     C39224   9.863   4.984   7.828  0.4710 -0.7924 -0.9396
  285MOL0     C39225   9.927   4.859   7.835  0.4816 -0.0815  0.6349
  285MOL0     C39226  10.068   4.844   7.847  0.3393 -0.6777  1.6782
  285MOL0     C39227  10.135   4.956   7.876 -0.1606 -0.5142  0.6155
  285MOL0     O39228  10.265   4.946   7.905  0.1306 -0.1256  0.9949
  285MOL0     C39229  10.339   4.967   7.776 -0.2034  0.0329 -0.1880
  285MOL0     C39230  10.489   4.921   7.773 -0.1131  0.1500  0.5744
  285MOL0     C39231  10.572   4.937   7.648 -0.9202 -0.6231  0.7889
  285MOL0     C39232  10.707   4.870   7.661  0.2144 -0.7180 -0.2426
  285MOL0     C39233  10.784   4.875   7.528  0.1667  0.0456 -0.9482
  285MOL0     C39234  10.810   5.024   7.479  0.1483  0.3878 -0.3516
  285MOL0     C39235  10.928   5.019   7.364  0.3581 -0.4545  0.7329
  285MOL0     C39236  10.949   5.159   7.301  0.2711 -0.7126 -0.3945
  285MOL0    Cl39237  11.054   5.155   7.164 -0.4647 -0.1786  0.0181
  285MOL0     C39238  10.078   5.080   7.882  0.2657 -1.0729 -0.0287
  285MOL0     C39239   9.933   5.095   7.855  0.2999 -0.1720  0.1988
  285MOL0     O39240   9.693   5.059   8.012  0.4474  0.1606 -0.3657
  285MOL0     C39241   9.408   4.992   7.864 -0.1598  0.1629 -0.2911
  285MOL0     C39242   9.284   5.044   7.843  0.6168  0.1203 -0.4667
  285MOL0     N39243   8.578   5.340   7.560  0.1300 -0.6507 -0.0873
  285MOL0     N39244   8.513   5.430   7.490  0.7611  0.0172 -0.4867
  285MOL0     C39245   8.862   5.657   6.432 -0.5580  0.1174  0.0479
  285MOL0     C39246   8.986   5.692   6.363  0.1170  0.6176  0.5930
  285MOL0     C39247   9.340   5.785   6.162 -0.5802 -0.0089  0.5014
  285MOL0     C39248   9.383   5.910   6.209 -0.9957 -0.2731  0.1867
  285MOL0     C39249   9.517   5.947   6.212 -0.1558 -0.5147  0.2992
  285MOL0     C39250   9.615   5.845   6.181 -0.0212 -0.3420  0.1430
  285MOL0     O39251   9.746   5.867   6.202 -0.3979 -0.3907  0.1189
  285MOL0     C39252   9.805   5.965   6.105 -0.2424 -0.2289 -0.8118
  285MOL0     C39253   9.963   5.987   6.133  0.8761 -0.6983  0.1585
  285MOL0     C39254   9.995   6.033   6.274 -0.0323 -0.8744 -0.3366
  285MOL0     C39255  10.129   6.111   6.276  0.5907  0.0393  0.2219
  285MOL0     C39256  10.245   6.039   6.210  0.2789 -0.6809  0.0088
  285MOL0     C39257  10.333   5.977   6.157 -0.0485 -0.2004  0.8020
  285MOL0     C39258   9.564   5.722   6.137 -0.1490 -0.4787 -0.3245
  285MOL0     C39259   9.435   5.684   6.128 -0.0259  0.3715  0.2520
  285MOL0     C39260   9.399   5.559   6.058  0.3023  0.5115 -0.5047
  285MOL0     H39261   9.041   5.406   6.198 -0.5631 -1.2497  0.5878
  285MOL0     H39262   8.826   5.343   6.325 -0.6875  0.8658 -0.7645
  285MOL0     H39263   8.818   5.432   6.629 -0.4673  0.4343  2.3127
  285MOL0     H39264   8.733   5.298   6.553 -1.9749  0.1547  0.6335
  285MOL0     H39265   8.531   5.380   6.681  0.5007  1.5768 -0.8138
  285MOL0     H39266   8.685   5.341   6.774 -1.5326 -2.2265 -1.0188
  285MOL0     H39267   8.724   5.592   6.754 -1.3246  0.6232 -1.5358
  285MOL0     H39268   8.555   5.609   6.710 -0.6466 -1.2573 -1.6399
  285MOL0     H39269   8.496   5.488   6.919  0.1095  0.1518  1.7170
  285MOL0     H39270   8.667   5.484   6.962  0.5404 -1.3239 -2.1777
  285MOL0     H39271   8.504   5.743   6.912  0.1400 -4.3302 -3.1376
  285MOL0     H39272   8.673   5.739   6.962  0.2163  1.7116  1.3183
  285MOL0     H39273   8.510   5.775   7.165  3.6277 -0.2962 -0.4928
  285MOL0     H39274   8.420   5.633   7.124  0.8091 -2.1778  1.3058
  285MOL0     H39275   8.714   5.621   7.188 -0.2791  2.0543 -0.5822
  285MOL0     H39276   8.591   5.495   7.183  2.6216  1.1551 -4.1609
  285MOL0     H39277   8.660   5.709   7.400  0.5539 -1.2373  3.1602
  285MOL0     H39278   8.482   5.678   7.374 -0.5259 -0.4431  0.5380
  285MOL0     H39279   8.820   5.498   7.414  0.5252  2.1785  2.5007
  285MOL0     H39280   8.816   5.160   7.460 -2.4919 -1.4283  1.3788
  285MOL0     H39281   8.773   5.162   7.633 -0.9317 -1.5197 -1.1511
  285MOL0     H39282   9.028   5.188   7.602  0.3917  1.0000  0.7688
  285MOL0     H39283   9.001   5.322   7.500  1.3073 -2.9056 -1.9110
  285MOL0     H39284   8.938   5.465   7.677 -1.4634 -0.4579 -1.3198
  285MOL0     H39285   8.877   5.330   7.779 -0.4124 -1.9149 -0.9975
  285MOL0     H39286   9.158   5.409   7.727 -1.1853  0.1260 -2.0255
  285MOL0     H39287   9.076   5.411   7.883 -3.9191 -1.5876  1.1854
  285MOL0     H39288   9.352   5.377   7.858 -1.7126 -0.8440 -0.8897
  285MOL0     H39289   9.571   5.435   7.879 -4.3389 -0.9359 -0.4339
  285MOL0     H39290   9.672   5.324   7.776  1.6810 -0.9376  0.9683
  285MOL0     H39291   9.681   5.308   7.944  1.8826  2.5118 -1.6344
  285MOL0     H39292   9.874   4.770   7.802 -1.6944  0.9311  1.2727
  285MOL0     H39293  10.123   4.752   7.833  0.6450 -0.0525 -2.7025
  285MOL0     H39294  10.295   4.907   7.695  1.0016 -0.0451 -0.8133
  285MOL0     H39295  10.343   5.075   7.760 -2.5251  0.4408  1.5576
  285MOL0     H39296  10.545   4.983   7.844  1.3857 -0.5545  0.0647
  285MOL0     H39297  10.494   4.814   7.795  1.0254  0.4356  1.8603
  285MOL0     H39298  10.581   5.044   7.624 -1.2712 -0.7325  0.1477
  285MOL0     H39299  10.518   4.896   7.562 -1.8066  2.6175 -0.3641
  285MOL0     H39300  10.703   4.771   7.709 -0.8424 -0.3945  0.3655
  285MOL0     H39301  10.756   4.929   7.739  1.2766  1.2333 -2.2887
  285MOL0     H39302  10.879   4.823   7.546  0.9852  2.2262  1.8877
  285MOL0     H39303  10.732   4.811   7.457 -1.1705 -2.2494  1.8816
  285MOL0     H39304  10.839   5.099   7.553 -0.1604 -0.5724  0.7512
  285MOL0     H39305  10.714   5.051   7.433  0.3736 -1.2476 -1.9193
  285MOL0     H39306  10.911   4.948   7.283  2.2351  1.9346 -1.9598
  285MOL0     H39307  11.016   4.983   7.418  1.9674  1.6255 -0.3718
  285MOL0     H39308  10.989   5.221   7.382  2.6446 -2.7410  0.1341
  285MOL0     H39309  10.858   5.200   7.257 -0.4852 -3.6946 -1.9151
  285MOL0     H39310  10.140   5.167   7.904  0.1154 -1.1530  0.7121
  285MOL0     H39311   9.895   5.195   7.836  1.8971  0.9422  2.3790
  285MOL0     H39312   9.414   4.884   7.873 -2.0432  0.1983  2.9636
  285MOL0     H39313   9.197   4.979   7.845  1.6172 -1.3365 -1.9289
  285MOL0     H39314   8.823   5.738   6.492  0.1681  1.5781 -1.3991
  285MOL0     H39315   9.029   5.791   6.371 -0.7585  1.2643 -1.7298
  285MOL0     H39316   9.311   5.978   6.254 -1.4849 -0.9961  0.5295
  285MOL0     H39317   9.547   6.045   6.247 -2.2447 -0.1013  1.0678
  285MOL0     H39318   9.790   5.924   6.005 -2.1958 -0.0435 -0.6148
  285MOL0     H39319   9.767   6.065   6.127 -0.6828 -0.5414 -0.1106
  285MOL0     H39320  10.007   6.059   6.062  0.2722 -0.1216  0.3630
  285MOL0     H39321  10.002   5.889   6.104 -3.1198 -2.3159 -0.3213
  285MOL0     H39322   9.922   6.107   6.309  0.6687 -0.1427 -0.4018
  285MOL0     H39323   9.995   5.955   6.351  1.4476 -0.2477  0.3345
  285MOL0     H39324  10.155   6.118   6.382  1.9706  0.7484 -0.1446
  285MOL0     H39325  10.121   6.211   6.234 -1.8340 -0.4759 -0.7096
  285MOL0     H39326  10.402   5.917   6.101 -1.9396 -2.0284  0.2875
  285MOL0     H39327   9.648   5.654   6.131  1.4247  1.5237 -3.5693
  285MOL0     H39328   9.484   5.536   5.994  1.9969  1.2640  1.3544
  285MOL0     H39329   9.380   5.484   6.135 -0.9996  0.3277 -0.9798
  285MOL0     H39330   9.312   5.583   5.996  0.2644  2.5391  0.2616
  286MOL0     O39331  10.565   6.770   1.638  0.3629 -0.7336  0.1608
  286MOL0     C39332  10.532   6.886   1.618  0.0095  0.3302 -0.6458
  286MOL0     O39333  10.593   6.969   1.530  0.3095 -0.4789  0.6158
  286MOL0     C39334  10.678   6.920   1.440 -0.0189  1.0950 -0.6139
  286MOL0     C39335  10.822   6.940   1.464  0.5911  0.5501 -0.8436
  286MOL0     C39336  10.903   6.899   1.362 -0.4601  0.8674 -0.3880
  286MOL0     C39337  10.862   6.839   1.242 -0.2907  0.3779  1.2784
  286MOL0     O39338  10.957   6.810   1.150 -0.6573  0.0612  0.0311
  286MOL0     C39339  11.003   6.670   1.151 -0.1479  0.0897  0.0475
  286MOL0     C39340  11.078   6.640   1.286  0.3124 -1.2258 -0.4296
  286MOL0     C39341  11.130   6.499   1.299  0.1263 -0.5016 -0.1390
  286MOL0     C39342  11.254   6.493   1.218 -0.7803  0.5970  0.1063
  286MOL0     C39343  11.313   6.350   1.206 -0.1020  0.6607  0.8357
  286MOL0     C39344  11.373   6.303   1.340  0.0297 -0.7105  1.0542
  286MOL0     C39345  11.466   6.181   1.311 -0.1110  0.5690  0.1183
  286MOL0     C39346  11.493   6.110   1.444 -0.2138  0.4733  0.7651
  286MOL0     N39347  11.544   5.971   1.431 -0.3154 -0.8343 -0.2053
  286MOL0     C39348  11.463   5.857   1.394 -0.3440 -0.3115  1.0028
  286MOL0     C39349  11.559   5.764   1.375 -0.7106  0.1754  0.1494
  286MOL0     C39350  11.538   5.638   1.307  0.2115  0.8021  0.0288
  286MOL0     C39351  11.494   5.527   1.410 -0.3322 -0.5202  0.4014
  286MOL0     C39352  11.612   5.486   1.501 -0.6067  0.1115  0.1280
  286MOL0     C39353  11.582   5.345   1.570  0.0578  0.0938  0.5224
  286MOL0     O39354  11.459   5.354   1.639  0.4349  0.0959 -0.1007
  286MOL0     C39355  11.446   5.342   1.773 -0.3129 -0.3110  1.1315
  286MOL0     C39356  11.317   5.334   1.828 -0.4214  0.7066  0.3096
  286MOL0     C39357  11.285   5.306   1.958 -0.1122  0.5865 -0.0024
  286MOL0     C39358  11.137   5.318   2.000  0.3099  0.5503 -0.6991
  286MOL0     C39359  11.391   5.287   2.054  0.6175  0.9475  0.6653
  286MOL0     C39360  11.360   5.270   2.191 -0.2725  1.0910  0.4366
  286MOL0     O39361  11.443   5.335   2.274 -0.9099 -0.6066  0.2211
  286MOL0     C39362  11.402   5.369   2.405 -0.2964 -0.5274  0.5202
  286MOL0     C39363  11.268   5.411   2.441  0.3025  1.1257 -0.3609
  286MOL0     C39364  11.234   5.433   2.574 -0.2717  0.8158 -0.5798
  286MOL0     C39365  11.326   5.430   2.678  0.9437 -0.7902  0.7003
  286MOL0     O39366  11.288   5.460   2.802  0.7498  1.1786 -0.2514
  286MOL0     C39367  11.271   5.334   2.877  0.1323  0.5270 -0.8490
  286MOL0     C39368  11.156   5.359   2.983 -0.1560 -0.0067  0.4548
  286MOL0     C39369  11.128   5.225   3.050  0.9342 -1.1583 -0.2761
  286MOL0     C39370  11.010   5.250   3.153 -0.3228  0.4975  0.0100
  286MOL0     C39371  10.933   5.128   3.203  0.8159 -0.7931 -0.1344
  286MOL0     C39372  10.856   5.062   3.080 -0.6278 -0.4557 -0.4271
  286MOL0     C39373  10.752   4.953   3.133 -0.1414 -0.7902 -0.0512
  286MOL0     C39374  10.650   4.905   3.026  0.1586  0.0117  0.4702
  286MOL0    Cl39375  10.725   4.825   2.889 -0.0890 -0.0284 -0.2766
  286MOL0     C39376  11.454   5.408   2.648 -0.0037 -0.5457 -0.1814
  286MOL0     C39377  11.492   5.376   2.512 -0.6420 -0.2858  0.0454
  286MOL0     O39378  11.271   5.197   2.227  0.4183  1.1209 -0.1543
  286MOL0     C39379  11.524   5.291   2.006 -1.0124  0.3066 -0.1007
  286MOL0     C39380  11.548   5.315   1.868  0.2630 -0.0285  0.5983
  286MOL0     N39381  11.687   5.819   1.384  0.1490  0.4904  0.0030
  286MOL0     N39382  11.675   5.938   1.427 -0.3040  0.5026  0.2380
  286MOL0     C39383  10.727   6.800   1.232 -0.4644 -0.6493  0.1204
  286MOL0     C39384  10.637   6.851   1.327  0.0550  0.3113  0.3500
  286MOL0     C39385  10.410   6.938   1.687 -0.6890 -0.2075  0.3204
  286MOL0     C39386  10.351   6.858   1.782  0.3965 -0.0184  0.4257
  286MOL0     C39387  10.252   6.900   1.868 -0.1111 -0.1208 -0.3247
  286MOL0     C39388  10.201   7.024   1.861  0.5353  0.1720  0.8930
  286MOL0     O39389  10.115   7.081   1.948 -0.1656  0.2018 -0.3328
  286MOL0     C39390   9.982   7.022   1.935 -0.3524 -0.8190  0.7538
  286MOL0     C39391   9.912   7.054   1.802 -0.8602 -0.1632  0.5178
  286MOL0     C39392   9.771   6.986   1.788  0.7974 -0.6307  0.3605
  286MOL0     C39393   9.710   6.916   1.904  0.3039  0.8055  0.5271
  286MOL0     C39394   9.637   7.007   2.001  0.9668  0.0810  0.1284
  286MOL0     C39395   9.575   7.069   2.084  0.8201  0.0508  0.4992
  286MOL0     C39396  10.250   7.103   1.757  0.8253 -0.6402 -0.7020
  286MOL0     C39397  10.345   7.061   1.665 -0.6403 -0.5023 -0.0294
  286MOL0     C39398  10.388   7.158   1.557  0.3231 -0.0832 -1.1931
  286MOL0     H39399  10.863   6.996   1.548 -1.3714  0.7458  0.0380
  286MOL0     H39400  11.007   6.929   1.366 -0.6383  1.3679  0.5633
  286MOL0     H39401  11.058   6.644   1.060  2.2950  3.2067  0.4733
  286MOL0     H39402  10.918   6.601   1.140 -1.4567  1.7944 -1.1160
  286MOL0     H39403  11.153   6.718   1.300 -0.6139  0.2088 -2.8183
  286MOL0     H39404  11.009   6.653   1.370  0.5059  0.2998 -0.4747
  286MOL0     H39405  11.150   6.469   1.402 -0.6102 -1.0756 -0.1513
  286MOL0     H39406  11.047   6.436   1.265 -2.4285  1.7316  1.5988
  286MOL0     H39407  11.226   6.524   1.117  3.1996  2.8024 -0.4938
  286MOL0     H39408  11.331   6.562   1.253  0.4773  0.0641 -1.4792
  286MOL0     H39409  11.390   6.370   1.132  0.6306 -1.3320  1.0071
  286MOL0     H39410  11.232   6.291   1.161 -0.8355  2.8926 -0.9520
  286MOL0     H39411  11.418   6.392   1.385 -1.9211  0.6782  0.4147
  286MOL0     H39412  11.287   6.284   1.405 -1.2042 -0.2513 -0.3896
  286MOL0     H39413  11.558   6.211   1.260 -0.4353  1.1978 -0.1020
  286MOL0     H39414  11.412   6.107   1.250  1.7921 -1.5934  0.8919
  286MOL0     H39415  11.567   6.165   1.502 -1.6236  0.4155  2.7035
  286MOL0     H39416  11.396   6.102   1.493 -1.5227  1.1566 -1.5605
  286MOL0     H39417  11.356   5.846   1.383 -0.5149  2.8062 -2.0280
  286MOL0     H39418  11.623   5.599   1.251  0.0308  0.8370 -0.2726
  286MOL0     H39419  11.451   5.647   1.240 -0.1213 -2.6124 -0.1389
  286MOL0     H39420  11.414   5.561   1.477  1.6120  1.0872  2.0565
  286MOL0     H39421  11.467   5.439   1.351  1.0388 -2.0949  1.9928
  286MOL0     H39422  11.709   5.484   1.450  0.5144 -1.5842  2.1621
  286MOL0     H39423  11.641   5.559   1.577  3.6705 -0.6158 -0.5454
  286MOL0     H39424  11.552   5.273   1.493 -0.9060 -4.0583  4.4188
  286MOL0     H39425  11.666   5.303   1.625  1.2011 -0.2331 -1.3504
  286MOL0     H39426  11.238   5.324   1.754  0.2787  0.0553 -0.3623
  286MOL0     H39427  11.093   5.225   2.038 -2.2110  0.7852 -2.7023
  286MOL0     H39428  11.072   5.353   1.919 -2.3314 -0.1967  0.9773
  286MOL0     H39429  11.121   5.400   2.071 -0.1808  1.6003 -1.9845
  286MOL0     H39430  11.200   5.407   2.357 -0.3591  1.8567  0.1311
  286MOL0     H39431  11.128   5.435   2.597 -0.2667  0.7222 -0.5484
  286MOL0     H39432  11.250   5.242   2.821 -1.4837  1.5299 -1.9709
  286MOL0     H39433  11.369   5.324   2.925  0.4648  0.1505 -1.5995
  286MOL0     H39434  11.184   5.430   3.061 -3.0434 -1.7671  3.3844
  286MOL0     H39435  11.059   5.385   2.939  1.7562  0.2321 -4.1719
  286MOL0     H39436  11.217   5.190   3.104 -0.4512 -2.8094  1.0398
  286MOL0     H39437  11.107   5.141   2.983  1.1882 -1.5466  0.1256
  286MOL0     H39438  10.939   5.321   3.109  0.0624  2.2915  2.0973
  286MOL0     H39439  11.049   5.295   3.245  2.5069 -1.5963 -0.0414
  286MOL0     H39440  10.997   5.049   3.243  1.4072 -1.1984 -1.7736
  286MOL0     H39441  10.862   5.168   3.276 -2.5076 -0.1933 -3.3494
  286MOL0     H39442  10.931   5.017   3.014 -0.0374 -0.9050  0.5243
  286MOL0     H39443  10.799   5.136   3.023  1.2220 -0.0345 -1.8551
  286MOL0     H39444  10.695   5.000   3.214  2.3284 -2.0984  2.6403
  286MOL0     H39445  10.810   4.879   3.189  2.8710 -0.5919 -2.6544
  286MOL0     H39446  10.597   4.997   3.003  0.2505 -0.2524 -0.9016
  286MOL0     H39447  10.578   4.832   3.064 -0.0281 -1.2817 -2.1180
  286MOL0     H39448  11.537   5.405   2.717  1.9794 -2.6982 -2.4876
  286MOL0     H39449  11.592   5.350   2.479 -0.1378 -0.3365  1.5315
  286MOL0     H39450  11.604   5.277   2.078 -1.8683  0.4995  0.9127
  286MOL0     H39451  11.652   5.307   1.838 -0.2419 -2.3446 -0.8274
  286MOL0     H39452  10.689   6.746   1.146 -0.4391 -1.7560  0.7966
  286MOL0     H39453  10.530   6.850   1.310 -0.3734  0.5208  2.6095
  286MOL0     H39454  10.392   6.758   1.791 -1.2790 -0.8027 -0.3252
  286MOL0     H39455  10.233   6.857   1.965  2.0335 -1.5185 -0.4462
  286MOL0     H39456  10.003   6.916   1.950  0.6202 -1.1353 -2.2488
  286MOL0     H39457   9.914   7.049   2.017  0.2931  1.0613  0.7206
  286MOL0     H39458   9.977   7.003   1.731 -2.1870 -2.0823  0.5970
  286MOL0     H39459   9.905   7.162   1.784  2.6291 -0.0887 -1.2344
  286MOL0     H39460   9.703   7.062   1.748  0.8582  0.9647  3.0890
  286MOL0     H39461   9.773   6.905   1.713  0.3790  1.6951 -2.3331
  286MOL0     H39462   9.774   6.850   1.963 -0.7514 -0.5705  0.1871
  286MOL0     H39463   9.641   6.842   1.861  0.1304  1.1307  0.2508
  286MOL0     H39464   9.511   7.113   2.157 -0.3566  0.2426 -0.6079
  286MOL0     H39465  10.211   7.203   1.748  1.0612 -0.3893  0.7944
  286MOL0     H39466  10.368   7.122   1.455 -0.5358 -1.0427 -0.7021
  286MOL0     H39467  10.312   7.237   1.557 -2.7266 -2.5180  4.0150
  286MOL0     H39468  10.488   7.198   1.574 -0.0149 -0.3826  1.9443
  287MOL0     O39469   8.779   7.876   5.549 -0.5129  0.4097 -0.3057
  287MOL0     C39470   8.887   7.932   5.540  0.0917 -0.6945  1.0262
  287MOL0     O39471   8.974   7.960   5.641 -0.7428  0.3558 -1.3058
  287MOL0     C39472   8.955   7.890   5.758  0.1176  0.5633 -0.8333
  287MOL0     C39473   8.953   7.746   5.760  0.3174  1.0512  0.1700
  287MOL0     C39474   8.942   7.679   5.883 -0.8041 -0.3353  0.9445
  287MOL0     C39475   8.945   7.755   5.999 -0.5951  0.8841  0.0020
  287MOL0     O39476   8.938   7.689   6.118 -0.3271  0.3668 -0.6103
  287MOL0     C39477   8.823   7.722   6.186  0.3176 -0.4137  0.3292
  287MOL0     C39478   8.811   7.655   6.323  0.2980  0.0511 -0.0901
  287MOL0     C39479   8.701   7.708   6.410  0.3757  0.8473 -0.3866
  287MOL0     C39480   8.667   7.627   6.537  0.0601  0.5870 -1.0634
  287MOL0     C39481   8.777   7.671   6.641 -0.8289  0.3353 -0.0304
  287MOL0     C39482   8.754   7.592   6.766  0.5683  0.2079 -0.7913
  287MOL0     C39483   8.796   7.440   6.759 -0.5846 -0.1680 -0.2672
  287MOL0     C39484   8.798   7.361   6.895  0.0209 -0.2749  0.3670
  287MOL0     N39485   8.662   7.319   6.934 -0.0780  0.5976 -0.2979
  287MOL0     C39486   8.566   7.395   6.967  0.4542 -0.4918 -0.7573
  287MOL0     C39487   8.455   7.319   6.986  0.7873  0.2398 -0.3458
  287MOL0     C39488   8.311   7.366   7.025 -0.1121  0.0584 -0.0300
  287MOL0     C39489   8.289   7.439   7.163 -0.4401  0.7783  0.4456
  287MOL0     C39490   8.301   7.354   7.288 -0.1835 -0.1477  0.0695
  287MOL0     C39491   8.427   7.297   7.339  0.3368 -1.2514  0.8427
  287MOL0     O39492   8.420   7.186   7.424 -0.3860  0.3737  0.1968
  287MOL0     C39493   8.542   7.135   7.468 -0.9925 -0.0935  0.0191
  287MOL0     C39494   8.536   7.023   7.545  0.8137  0.1136 -0.7062
  287MOL0     C39495   8.646   6.964   7.607  0.3461 -1.0771  0.9053
  287MOL0     C39496   8.628   6.848   7.699 -0.0868  1.0952  0.6679
  287MOL0     C39497   8.774   7.022   7.579 -0.0014  0.4130 -0.0453
  287MOL0     C39498   8.906   6.970   7.622 -0.5505  0.0397  0.6849
  287MOL0     O39499   8.918   6.840   7.665 -0.6679 -0.7466  0.2054
  287MOL0     C39500   9.047   6.775   7.672 -0.3660  0.0775  0.8305
  287MOL0     C39501   9.122   6.731   7.569 -0.3900 -0.2623  0.1828
  287MOL0     C39502   9.247   6.676   7.589 -0.2085  1.4539 -0.1936
  287MOL0     C39503   9.294   6.643   7.719  0.2047  0.5004 -0.5761
  287MOL0     O39504   9.408   6.573   7.753  0.2245 -0.8552  0.8953
  287MOL0     C39505   9.491   6.533   7.646 -0.1478  0.3418  0.8427
  287MOL0     C39506   9.448   6.394   7.606  0.0980  0.7170 -0.6932
  287MOL0     C39507   9.495   6.356   7.455  0.2626  0.0738  0.2888
  287MOL0     C39508   9.636   6.293   7.451 -0.6494 -0.6903  0.9339
  287MOL0     C39509   9.672   6.264   7.298 -0.8842  0.1053 -0.0034
  287MOL0     C39510   9.814   6.203   7.281  0.0045 -0.9452  0.3265
  287MOL0     C39511   9.836   6.070   7.341  0.3558 -0.1423 -0.5137
  287MOL0     C39512   9.968   5.998   7.292  0.1753 -0.5411 -0.3927
  287MOL0    Cl39513  10.108   6.065   7.387  0.0593 -0.6640 -0.3415
  287MOL0     C39514   9.217   6.692   7.827  0.5059  0.0037  0.0969
  287MOL0     C39515   9.098   6.755   7.801  0.1387  0.0333  0.0446
  287MOL0     O39516   9.002   7.053   7.623 -0.6396 -0.0438  0.1280
  287MOL0     C39517   8.788   7.124   7.489  0.6835 -0.1075 -0.6648
  287MOL0     C39518   8.676   7.181   7.433  0.2014 -0.4371 -0.1369
  287MOL0     N39519   8.494   7.190   6.965 -0.0968  0.4022  0.1532
  287MOL0     N39520   8.618   7.191   6.929  0.7770 -0.1620 -0.5312
  287MOL0     C39521   8.955   7.897   5.996  0.2382 -0.1351  0.2853
  287MOL0     C39522   8.957   7.965   5.871 -0.2344 -0.2762  0.4370
  287MOL0     C39523   8.934   7.957   5.402  0.3750  0.0760  0.1538
  287MOL0     C39524   9.073   7.977   5.368 -0.1501 -0.0596  0.4424
  287MOL0     C39525   9.119   8.004   5.240  0.1359 -0.4463  0.4709
  287MOL0     C39526   9.039   8.010   5.141  0.1865 -0.5967 -0.2182
  287MOL0     O39527   9.106   8.042   5.026  0.3124 -0.2282 -0.2068
  287MOL0     C39528   9.040   8.059   4.907 -0.0821  0.1198  0.0970
  287MOL0     C39529   9.028   7.929   4.834 -0.3258 -0.4877  0.0045
  287MOL0     C39530   8.961   7.946   4.689 -0.2718  0.3050  0.6677
  287MOL0     C39531   8.954   7.807   4.615 -0.5595  0.5392  0.5367
  287MOL0     C39532   8.922   7.830   4.478 -0.2923  0.1935  0.4371
  287MOL0     C39533   8.880   7.835   4.357 -0.0842  0.5363  0.1842
  287MOL0     C39534   8.897   7.989   5.158 -0.0115 -0.5667  0.3863
  287MOL0     C39535   8.843   7.965   5.285  0.3061  0.4452 -0.0460
  287MOL0     C39536   8.688   7.958   5.293  0.1406  0.3778  0.0037
  287MOL0     H39537   8.965   7.694   5.666  0.7733  1.5017 -0.0248
  287MOL0     H39538   8.955   7.572   5.896 -0.3818 -0.5539 -0.9650
  287MOL0     H39539   8.734   7.694   6.128  0.6584 -4.8476  1.5937
  287MOL0     H39540   8.820   7.829   6.211  1.0045 -0.4790  0.6955
  287MOL0     H39541   8.801   7.550   6.295  0.7561  0.9124 -4.1789
  287MOL0     H39542   8.905   7.652   6.379  0.4728  1.4813 -0.2785
  287MOL0     H39543   8.706   7.813   6.440  2.3292  0.5621  0.4288
  287MOL0     H39544   8.611   7.714   6.348  0.4707 -0.5307 -0.6817
  287MOL0     H39545   8.568   7.641   6.580  0.0452  1.1587 -1.2836
  287MOL0     H39546   8.683   7.521   6.512 -0.6510  0.3533 -0.5672
  287MOL0     H39547   8.769   7.779   6.650  1.6498  0.4628  1.7850
  287MOL0     H39548   8.873   7.640   6.598 -1.3199  2.4155 -2.9057
  287MOL0     H39549   8.804   7.642   6.849  0.6589 -3.7834  1.8233
  287MOL0     H39550   8.649   7.598   6.796  0.7433 -1.6055  0.2968
  287MOL0     H39551   8.902   7.438   6.732 -0.7348 -0.6360 -0.8297
  287MOL0     H39552   8.736   7.386   6.686 -1.2387 -0.0365  0.1632
  287MOL0     H39553   8.853   7.266   6.892  1.0605  0.2761  1.2583
  287MOL0     H39554   8.827   7.427   6.977  0.5882  2.0018 -1.5583
  287MOL0     H39555   8.565   7.503   6.975 -3.7294 -0.4631  0.9872
  287MOL0     H39556   8.249   7.276   7.016 -0.3473  0.4510 -3.3353
  287MOL0     H39557   8.269   7.421   6.941  0.4118 -0.9857 -1.0040
  287MOL0     H39558   8.360   7.522   7.166  3.0837 -1.8625 -1.5157
  287MOL0     H39559   8.189   7.484   7.153 -0.5121  0.2955 -1.3404
  287MOL0     H39560   8.258   7.412   7.370 -0.9696 -2.2523  1.2481
  287MOL0     H39561   8.233   7.268   7.279  0.3541 -0.4471 -1.5323
  287MOL0     H39562   8.478   7.266   7.248  1.2143  0.1646  0.8142
  287MOL0     H39563   8.491   7.373   7.385 -0.8129 -0.8042  1.7650
  287MOL0     H39564   8.437   6.993   7.575  1.9749 -1.0780  2.2829
  287MOL0     H39565   8.668   6.751   7.666 -1.1265  0.3031  1.6810
  287MOL0     H39566   8.520   6.830   7.705  0.0757 -0.8494 -0.9960
  287MOL0     H39567   8.671   6.865   7.798 -0.7683  0.6005  1.0535
  287MOL0     H39568   9.076   6.735   7.470 -1.3633 -2.2235  0.5065
  287MOL0     H39569   9.297   6.642   7.498  0.5461 -0.5419  0.9013
  287MOL0     H39570   9.478   6.601   7.561 -4.3332 -1.5550 -0.3419
  287MOL0     H39571   9.598   6.532   7.667 -0.1347 -1.7431  0.9265
  287MOL0     H39572   9.486   6.321   7.677 -0.7560  2.2285  1.4296
  287MOL0     H39573   9.339   6.388   7.621  0.4954 -0.8532  2.3082
  287MOL0     H39574   9.490   6.447   7.394  0.6011 -1.1085 -1.5773
  287MOL0     H39575   9.425   6.275   7.433 -0.3131  0.2101  1.5645
  287MOL0     H39576   9.642   6.205   7.515 -0.7590 -0.5093  1.1991
  287MOL0     H39577   9.703   6.368   7.495 -2.6806  1.0249  1.3113
  287MOL0     H39578   9.591   6.203   7.255  0.3930  0.6959 -3.5302
  287MOL0     H39579   9.662   6.352   7.235  1.0498 -0.0582 -0.5978
  287MOL0     H39580   9.892   6.270   7.319  1.3289 -1.7471 -0.8610
  287MOL0     H39581   9.817   6.207   7.171 -2.7347 -1.9448  0.1463
  287MOL0     H39582   9.754   6.004   7.313  0.6583 -0.6334 -0.2661
  287MOL0     H39583   9.834   6.084   7.450 -1.7007 -0.0777 -0.5217
  287MOL0     H39584   9.984   5.997   7.184 -1.4831 -0.9742 -0.6543
  287MOL0     H39585   9.953   5.895   7.326 -1.0860 -0.2988 -0.1582
  287MOL0     H39586   9.248   6.682   7.931 -0.6494  0.6948  0.5249
  287MOL0     H39587   9.031   6.793   7.878  0.3509  1.3169 -0.3709
  287MOL0     H39588   8.885   7.161   7.456  1.3644 -3.1731 -2.5909
  287MOL0     H39589   8.691   7.280   7.390 -0.6830 -0.4287 -0.4478
  287MOL0     H39590   8.966   7.953   6.089 -0.3862 -0.0751  0.3266
  287MOL0     H39591   8.963   8.072   5.886  2.3924 -0.5526  2.0207
  287MOL0     H39592   9.138   7.974   5.455 -1.1378  1.9100  1.3084
  287MOL0     H39593   9.225   8.015   5.220 -0.0539  1.3836  0.3114
  287MOL0     H39594   8.943   8.109   4.921 -1.2167 -2.0480  0.4858
  287MOL0     H39595   9.100   8.113   4.834  2.5832 -1.1097  1.2685
  287MOL0     H39596   8.961   7.862   4.888  1.0041 -2.8000 -1.0975
  287MOL0     H39597   9.129   7.891   4.846 -0.9856 -2.2535  0.3105
  287MOL0     H39598   8.860   7.987   4.699 -1.5454 -1.6713 -2.4928
  287MOL0     H39599   9.017   8.027   4.641 -1.0280  1.6206  1.9140
  287MOL0     H39600   8.876   7.743   4.658 -0.2111  0.5100  1.1396
  287MOL0     H39601   9.056   7.766   4.617 -0.6800  0.2650  1.2937
  287MOL0     H39602   8.866   7.829   4.251  1.3497  1.4581 -0.0769
  287MOL0     H39603   8.829   8.004   5.075  1.2092  0.7147 -0.4337
  287MOL0     H39604   8.660   7.853   5.297 -1.5544  0.6680 -2.2461
  287MOL0     H39605   8.665   8.014   5.384  1.5493 -0.2591  0.7929
  287MOL0     H39606   8.635   8.000   5.208  0.0816 -2.2056 -1.3269
  288MOL0     O39607  10.659  10.648   0.410  0.1829  0.4404  0.2444
  288MOL0     C39608  10.607  10.544   0.451  0.3675 -0.4441 -0.1886
  288MOL0     O39609  10.515  10.554   0.552 -0.3425  0.8204 -0.8412
  288MOL0     C39610  10.468  10.674   0.600  0.0727  0.6425  0.9826
  288MOL0     C39611  10.474  10.714   0.730 -0.0235 -1.2698 -0.4048
  288MOL0     C39612  10.413  10.832   0.782 -0.0823  0.5563  0.5995
  288MOL0     C39613  10.342  10.916   0.694 -0.5322 -0.1715  0.0284
  288MOL0     O39614  10.292  11.036   0.732 -0.6298  0.4844  0.0850
  288MOL0     C39615  10.378  11.145   0.769  0.6535  0.6537  0.3456
  288MOL0     C39616  10.370  11.155   0.925 -0.0397 -0.3617  1.1720
  288MOL0     C39617  10.252  11.247   0.975  0.5788 -0.0417  0.0500
  288MOL0     C39618  10.256  11.249   1.133  0.6324 -0.0312  0.6930
  288MOL0     C39619  10.147  11.338   1.202  0.9364 -0.1310  0.4426
  288MOL0     C39620  10.171  11.485   1.178 -0.2211  0.3213  0.0281
  288MOL0     C39621  10.070  11.568   1.252 -0.3232 -0.8681  0.3199
  288MOL0     C39622  10.108  11.715   1.266 -0.0131  0.1160 -0.1957
  288MOL0     N39623  10.006  11.798   1.336 -0.4596 -0.1204  0.2129
  288MOL0     C39624   9.970  11.783   1.468 -0.2051  0.0674  0.6351
  288MOL0     C39625   9.866  11.874   1.482 -0.0943  0.5034 -0.3987
  288MOL0     C39626   9.773  11.891   1.600 -0.0004 -0.7060  0.3966
  288MOL0     C39627   9.672  11.773   1.617  0.2409  0.5331  0.8342
  288MOL0     C39628   9.548  11.824   1.702 -0.3869  0.7377  0.5763
  288MOL0     C39629   9.577  11.847   1.851  0.7142 -1.3520 -0.7217
  288MOL0     O39630   9.606  11.723   1.927  0.1136 -0.0941 -0.6490
  288MOL0     C39631   9.493  11.645   1.949 -0.3249  0.0864  0.4971
  288MOL0     C39632   9.361  11.676   1.924  1.6989  0.3367  0.1474
  288MOL0     C39633   9.254  11.578   1.936 -0.3455  0.0707  0.1635
  288MOL0     C39634   9.135  11.615   1.856 -0.8005  0.2778  0.7787
  288MOL0     C39635   9.286  11.455   1.994 -0.3300 -0.8304 -1.0446
  288MOL0     C39636   9.184  11.354   2.035 -0.1348  0.3750 -0.3790
  288MOL0     O39637   9.048  11.388   2.020  0.2298 -0.3424  0.1463
  288MOL0     C39638   8.952  11.291   2.016 -0.3180  0.0763 -1.4898
  288MOL0     C39639   8.828  11.325   2.075 -0.2927  0.3449  0.4069
  288MOL0     C39640   8.734  11.222   2.087  0.2872 -1.1238  0.0505
  288MOL0     C39641   8.752  11.095   2.033  0.3000  0.1901 -0.0577
  288MOL0     O39642   8.665  10.993   2.055  0.0076 -1.1365  0.0750
  288MOL0     C39643   8.525  11.021   2.042 -0.1300 -0.8385  0.3957
  288MOL0     C39644   8.444  10.892   2.035  0.3542 -1.1323 -0.1273
  288MOL0     C39645   8.505  10.805   1.925 -0.2220  0.0985  0.2437
  288MOL0     C39646   8.544  10.663   1.973  0.0508  0.1559 -0.1930
  288MOL0     C39647   8.562  10.553   1.870  0.0573 -0.1412  0.0812
  288MOL0     C39648   8.458  10.523   1.759 -0.0405  0.5769 -0.5154
  288MOL0     C39649   8.335  10.466   1.825 -0.7105 -0.6016 -0.0936
  288MOL0     C39650   8.246  10.387   1.735 -0.2566 -0.1879  0.2088
  288MOL0    Cl39651   8.132  10.263   1.801 -0.1703 -0.0706 -0.0618
  288MOL0     C39652   8.875  11.068   1.974 -0.1786  0.8304 -0.1767
  288MOL0     C39653   8.980  11.162   1.963  0.9996  0.0691  0.6612
  288MOL0     O39654   9.224  11.256   2.096  0.2026 -0.2518 -0.1388
  288MOL0     C39655   9.420  11.424   2.022 -0.1445 -0.1994 -0.3948
  288MOL0     C39656   9.517  11.521   2.001 -0.0524  0.0467 -0.7790
  288MOL0     N39657   9.836  11.936   1.366  0.1797  0.1350 -0.7423
  288MOL0     N39658   9.917  11.885   1.276  0.5104 -0.0938 -0.7007
  288MOL0     C39659  10.343  10.885   0.560  0.7382 -0.2469  0.0575
  288MOL0     C39660  10.400  10.763   0.512  0.2705 -0.1010  0.8927
  288MOL0     C39661  10.657  10.407   0.409  0.1706 -0.6043 -0.2847
  288MOL0     C39662  10.675  10.312   0.516 -1.1063 -0.2346 -0.3467
  288MOL0     C39663  10.734  10.186   0.489  0.3581  0.2678  0.0108
  288MOL0     C39664  10.775  10.155   0.357 -0.2721 -0.5517 -0.4801
  288MOL0     O39665  10.821  10.039   0.327 -0.6588  0.3631  0.5232
  288MOL0     C39666  10.835   9.939   0.429 -0.2167  0.8525  0.4467
  288MOL0     C39667  10.875   9.803   0.379  0.0609  0.7659  0.2323
  288MOL0     C39668  10.792   9.722   0.289  0.1574  0.7535 -0.5136
  288MOL0     C39669  10.641   9.723   0.327  0.8634 -0.5015  0.2418
  288MOL0     C39670  10.610   9.666   0.461 -0.1316 -0.4926  0.5525
  288MOL0     C39671  10.593   9.615   0.568  0.4893  0.1005  0.4773
  288MOL0     C39672  10.757  10.248   0.258 -1.0869 -0.6279 -0.6067
  288MOL0     C39673  10.697  10.373   0.276 -0.6747  0.0877 -0.1069
  288MOL0     C39674  10.672  10.474   0.162  0.0716 -0.5659  0.3384
  288MOL0     H39675  10.532  10.659   0.804  2.3919  1.0871 -0.3755
  288MOL0     H39676  10.421  10.865   0.885 -3.9917 -1.2270  1.6845
  288MOL0     H39677  10.352  11.237   0.715 -1.2894 -0.7472 -1.2915
  288MOL0     H39678  10.481  11.117   0.744  0.7320  1.2627 -0.0286
  288MOL0     H39679  10.357  11.055   0.967  0.0714 -0.5603  0.7399
  288MOL0     H39680  10.464  11.201   0.956 -1.7134  2.0713  3.0244
  288MOL0     H39681  10.255  11.350   0.936  0.1014  0.2566  0.7741
  288MOL0     H39682  10.161  11.202   0.935 -1.0875  2.6780  0.4706
  288MOL0     H39683  10.230  11.146   1.159 -0.2418 -0.9316 -3.0472
  288MOL0     H39684  10.357  11.271   1.169  0.5082 -0.3211  1.2269
  288MOL0     H39685  10.147  11.319   1.310 -0.3345 -1.6310  0.2186
  288MOL0     H39686  10.050  11.314   1.156 -1.4078  0.9282  4.2971
  288MOL0     H39687  10.275  11.499   1.212  0.0665 -0.2262 -0.6185
  288MOL0     H39688  10.171  11.511   1.072  0.8996  0.5022  0.0589
  288MOL0     H39689  10.061  11.541   1.358 -0.9430 -0.1638  0.4572
  288MOL0     H39690   9.968  11.554   1.216  0.2473 -5.1350 -0.1015
  288MOL0     H39691  10.208  11.720   1.311 -0.4175 -0.0161  0.7433
  288MOL0     H39692  10.123  11.771   1.173  0.0254  1.8821  0.8339
  288MOL0     H39693  10.017  11.712   1.535  3.4103  1.0925 -0.5803
  288MOL0     H39694   9.718  11.983   1.583 -1.5179 -2.1132 -3.2759
  288MOL0     H39695   9.832  11.896   1.692  0.3717 -0.1193  0.1305
  288MOL0     H39696   9.633  11.752   1.517 -2.3542  4.4111  0.7935
  288MOL0     H39697   9.716  11.683   1.660  0.4986  0.9023  1.3632
  288MOL0     H39698   9.514  11.920   1.662  0.7829  0.8615 -0.1908
  288MOL0     H39699   9.470  11.750   1.685 -0.3777  0.4506  1.7055
  288MOL0     H39700   9.655  11.923   1.854 -2.5783  2.3617 -0.2029
  288MOL0     H39701   9.499  11.905   1.903  3.0173 -0.5512  2.0886
  288MOL0     H39702   9.337  11.773   1.882  3.6038  0.0562 -1.8059
  288MOL0     H39703   9.127  11.724   1.852  2.4678  0.6778  1.9312
  288MOL0     H39704   9.038  11.584   1.895 -0.2640 -0.9802  1.1743
  288MOL0     H39705   9.144  11.559   1.762 -0.9820  0.0334  0.9046
  288MOL0     H39706   8.802  11.421   2.119 -1.7447 -1.0823  2.9315
  288MOL0     H39707   8.643  11.239   2.143  0.7594 -2.2031  1.2097
  288MOL0     H39708   8.492  11.094   2.117 -0.6854  0.1756 -0.7953
  288MOL0     H39709   8.518  11.069   1.944  1.3736 -2.7168 -0.6937
  288MOL0     H39710   8.442  10.847   2.134  2.1889  1.6475  1.2972
  288MOL0     H39711   8.341  10.918   2.009  1.2035  2.2809 -0.6214
  288MOL0     H39712   8.595  10.840   1.873 -3.2671  2.5351 -4.0991
  288MOL0     H39713   8.435  10.812   1.841  1.5696  0.5229 -1.3016
  288MOL0     H39714   8.463  10.633   2.040 -1.5936  2.2486 -1.1182
  288MOL0     H39715   8.638  10.677   2.026  0.7452  0.9508 -1.5669
  288MOL0     H39716   8.650  10.597   1.823  0.8284  0.3474  1.9225
  288MOL0     H39717   8.577  10.454   1.915  1.4924 -0.4475 -0.9930
  288MOL0     H39718   8.494  10.445   1.691  1.4227  2.7706 -2.4193
  288MOL0     H39719   8.426  10.602   1.691 -2.4949 -0.6562 -0.9256
  288MOL0     H39720   8.279  10.550   1.868 -0.8473 -0.5024 -0.4682
  288MOL0     H39721   8.364  10.407   1.913  0.4943  0.1942  0.0760
  288MOL0     H39722   8.310  10.328   1.670 -0.9859  0.1846 -0.8641
  288MOL0     H39723   8.185  10.460   1.682 -1.9432 -0.3917  1.7585
  288MOL0     H39724   8.881  10.967   1.934 -2.0069 -0.1109  1.7072
  288MOL0     H39725   9.072  11.140   1.910 -0.2007  0.2015 -1.6153
  288MOL0     H39726   9.445  11.328   2.067  1.6708  0.3547 -0.1489
  288MOL0     H39727   9.621  11.514   2.029  0.2661  2.5394 -1.1028
  288MOL0     H39728  10.295  10.954   0.491 -1.4630 -0.7792  0.9898
  288MOL0     H39729  10.374  10.739   0.409  1.9570  1.6116  0.0146
  288MOL0     H39730  10.663  10.342   0.619  0.5116 -0.8674  0.0532
  288MOL0     H39731  10.757  10.135   0.582  0.2583 -1.2330 -0.7507
  288MOL0     H39732  10.913   9.967   0.500  0.0508  1.3041 -0.0168
  288MOL0     H39733  10.738   9.926   0.478 -0.5556  0.0979 -0.3856
  288MOL0     H39734  10.883   9.747   0.473 -0.5170 -0.0624 -0.1992
  288MOL0     H39735  10.971   9.807   0.327 -2.4843 -3.0871 -5.8658
  288MOL0     H39736  10.794   9.758   0.186 -2.6196 -1.6135 -1.5431
  288MOL0     H39737  10.833   9.622   0.304 -1.2522  0.3277  0.7681
  288MOL0     H39738  10.593   9.669   0.245  0.8671  1.4340 -1.1058
  288MOL0     H39739  10.598   9.823   0.334  1.4074 -0.3745  2.3768
  288MOL0     H39740  10.587   9.555   0.657  0.9319 -1.3484 -0.4368
  288MOL0     H39741  10.781  10.237   0.152  1.7452 -0.5923 -0.0568
  288MOL0     H39742  10.712  10.432   0.069 -0.1510  2.0773 -1.0372
  288MOL0     H39743  10.565  10.496   0.150  0.1523  0.4233  1.2729
  288MOL0     H39744  10.728  10.565   0.184  0.8711 -0.9231 -0.1851
  289MOL0     O39745  10.019  11.300   9.893  0.6190  0.0969 -0.0898
  289MOL0     C39746  10.084  11.376   9.966 -0.3235  0.1635 -0.0594
  289MOL0     O39747  10.218  11.368   9.998  0.1879 -0.3329 -0.1035
  289MOL0     C39748  10.299  11.255   9.986 -0.0184  0.5683  0.1173
  289MOL0     C39749  10.254  11.116   9.985 -0.5891 -0.5544 -0.7601
  289MOL0     C39750  10.353  11.021   9.998 -0.6888 -0.1398 -0.1079
  289MOL0     C39751  10.492  11.041   9.996  0.1859 -1.2234  0.1153
  289MOL0     O39752  10.577  10.932  10.009  0.1807 -0.7558 -0.0352
  289MOL0     C39753  10.708  10.954  10.065 -0.1558  1.0841  0.6923
  289MOL0     C39754  10.815  10.961   9.967 -0.2384 -0.2694  0.9659
  289MOL0     C39755  10.803  10.842   9.866  0.0469 -0.2159 -0.3010
  289MOL0     C39756  10.935  10.832   9.797 -0.7737 -0.2027 -0.0477
  289MOL0     C39757  10.935  10.752   9.666  0.2499  0.1238 -0.1938
  289MOL0     C39758  10.893  10.603   9.687 -0.3746  0.5737  0.1689
  289MOL0     C39759  10.893  10.529   9.557  0.1289 -0.2278 -0.1670
  289MOL0     C39760  11.034  10.498   9.499 -0.9234  1.2069 -0.3070
  289MOL0     N39761  11.100  10.372   9.548 -0.6503 -0.2089  0.5100
  289MOL0     C39762  11.216  10.315   9.499  0.1235 -0.4395  0.1951
  289MOL0     C39763  11.231  10.198   9.568  0.6277 -0.2467  0.3086
  289MOL0     C39764  11.355  10.128   9.551 -0.0155 -0.1729  0.8726
  289MOL0     C39765  11.349  10.025   9.438  0.9563  0.9362 -0.3717
  289MOL0     C39766  11.272   9.901   9.478 -0.1392  0.6823  0.1928
  289MOL0     C39767  11.266   9.805   9.352  0.5809  0.6938 -0.2001
  289MOL0     O39768  11.398   9.765   9.317 -0.1932 -0.2727 -0.1785
  289MOL0     C39769  11.385   9.682   9.212  0.3987  0.3837 -0.0451
  289MOL0     C39770  11.392   9.542   9.245  0.3529 -0.2726 -0.6224
  289MOL0     C39771  11.396   9.448   9.145  0.0589 -0.4807  0.3127
  289MOL0     C39772  11.412   9.305   9.178  0.4211  0.1559 -0.5032
  289MOL0     C39773  11.399   9.494   9.003 -0.3151 -0.3877  0.4643
  289MOL0     C39774  11.427   9.421   8.881  1.1473  0.7879  0.1465
  289MOL0     O39775  11.377   9.471   8.767 -0.3086  0.4261 -0.2938
  289MOL0     C39776  11.429   9.410   8.657  0.6453 -0.1165  0.7669
  289MOL0     C39777  11.560   9.415   8.612 -0.3969 -0.1025 -0.2990
  289MOL0     C39778  11.591   9.357   8.484 -0.7525 -0.1360  0.5236
  289MOL0     C39779  11.489   9.305   8.404  0.8768  0.6049  0.2090
  289MOL0     O39780  11.538   9.244   8.289  0.4175 -0.5206 -0.4477
  289MOL0     C39781  11.456   9.151   8.220  0.8340 -1.1464 -0.0597
  289MOL0     C39782  11.550   9.083   8.112 -0.1230 -0.6196 -1.4411
  289MOL0     C39783  11.492   8.965   8.047 -0.2667  0.4108 -0.2821
  289MOL0     C39784  11.591   8.899   7.952  0.8476 -0.0871 -0.0159
  289MOL0     C39785  11.545   8.771   7.877 -0.3371 -0.0496  0.3259
  289MOL0     C39786  11.659   8.697   7.791 -0.7806 -0.9384  0.7559
  289MOL0     C39787  11.658   8.740   7.648  0.4670  0.2650 -0.0319
  289MOL0     C39788  11.727   8.638   7.567  0.6048 -0.0413 -0.3379
  289MOL0    Cl39789  11.711   8.686   7.396  0.0330 -0.1457 -0.2535
  289MOL0     C39790  11.360   9.298   8.452  0.1812  0.1551  0.5481
  289MOL0     C39791  11.330   9.353   8.574 -0.9330 -0.3793 -0.6003
  289MOL0     O39792  11.488   9.318   8.892  0.3662  0.5082 -0.4352
  289MOL0     C39793  11.383   9.636   8.979  0.3317  0.3561 -0.1204
  289MOL0     C39794  11.369   9.727   9.082 -0.1152  0.0778 -0.9151
  289MOL0     N39795  11.125  10.191   9.658 -0.2898 -0.1212 -0.0110
  289MOL0     N39796  11.052  10.293   9.647 -0.9653 -0.6860  0.8879
  289MOL0     C39797  10.536  11.174   9.982  0.0918 -0.4516 -0.1684
  289MOL0     C39798  10.441  11.280   9.978  0.2738 -0.5188  0.4949
  289MOL0     C39799  10.025  11.501  10.005 -1.3163 -0.4797 -0.4634
  289MOL0     C39800  10.099  11.591  10.091  0.0106  0.3343 -0.7967
  289MOL0     C39801  10.046  11.709  10.140  0.7588  0.4384 -0.1481
  289MOL0     C39802   9.923  11.758  10.092  0.3563 -0.4017 -0.8414
  289MOL0     O39803   9.873  11.879  10.118 -0.0077  0.5399 -0.6073
  289MOL0     C39804   9.930  11.966  10.221  0.2124  0.4810 -0.1003
  289MOL0     C39805   9.841  12.088  10.248  0.2899  0.4140 -0.3203
  289MOL0     C39806   9.815  12.161  10.118  0.2375  0.5135  0.4791
  289MOL0     C39807   9.945  12.184  10.030  0.9910  0.1072 -0.7648
  289MOL0     C39808   9.911  12.279   9.923 -0.2953 -0.0508  0.0559
  289MOL0     C39809   9.897  12.367   9.839  0.3983 -0.1679 -0.3913
  289MOL0     C39810   9.858  11.677  10.006 -0.0282 -0.0394  1.0146
  289MOL0     C39811   9.897  11.549   9.971  0.4632 -0.4478 -0.2045
  289MOL0     C39812   9.798  11.474   9.890  0.3568  0.2787 -0.3351
  289MOL0     H39813  10.149  11.089   9.987 -1.4128  2.3862 -0.0702
  289MOL0     H39814  10.321  10.917   9.993  1.2303 -0.7801 -0.2439
  289MOL0     H39815  10.724  10.866  10.128 -1.2927 -1.1205 -1.9326
  289MOL0     H39816  10.703  11.037  10.137 -1.3282  0.4752  1.3374
  289MOL0     H39817  10.805  11.055   9.911  0.9106 -0.6329  0.0996
  289MOL0     H39818  10.918  10.962  10.002 -0.6310 -1.6271  2.2542
  289MOL0     H39819  10.772  10.752   9.920  1.1203 -0.9705 -0.8953
  289MOL0     H39820  10.719  10.861   9.799 -1.8689 -0.5018  1.9015
  289MOL0     H39821  10.960  10.936   9.773  1.0000 -0.3226  1.1038
  289MOL0     H39822  11.013  10.799   9.866  1.6181  1.9113 -1.5475
  289MOL0     H39823  11.038  10.756   9.629  0.9636 -3.2468  1.1092
  289MOL0     H39824  10.865  10.800   9.596 -0.6844 -3.8490 -2.2804
  289MOL0     H39825  10.962  10.561   9.761  1.0521 -0.0294 -1.4561
  289MOL0     H39826  10.795  10.603   9.735 -0.3871 -1.9008  0.2633
  289MOL0     H39827  10.830  10.584   9.486 -0.8032 -0.6321  0.3223
  289MOL0     H39828  10.841  10.433   9.565 -1.0269  0.1986 -1.8365
  289MOL0     H39829  11.023  10.477   9.392  1.0617 -2.1339 -0.0026
  289MOL0     H39830  11.088  10.593   9.503 -2.1717  1.9321 -0.1614
  289MOL0     H39831  11.287  10.340   9.422  0.7669 -2.5621  0.0456
  289MOL0     H39832  11.388  10.078   9.642 -3.0200 -4.3553 -0.0583
  289MOL0     H39833  11.432  10.200   9.521  0.5200 -0.7862  0.7573
  289MOL0     H39834  11.303  10.073   9.351  0.4304  1.9142  0.4164
  289MOL0     H39835  11.452   9.999   9.410  0.6380 -1.6339  0.6185
  289MOL0     H39836  11.327   9.845   9.554 -1.4329 -2.2209 -0.8737
  289MOL0     H39837  11.172   9.926   9.517 -1.2385 -3.5734  0.6008
  289MOL0     H39838  11.201   9.723   9.386  2.0417  0.3699  2.0923
  289MOL0     H39839  11.219   9.861   9.271  2.2537  3.0623  0.3683
  289MOL0     H39840  11.402   9.521   9.351  4.4372  0.9320 -0.6194
  289MOL0     H39841  11.447   9.289   9.280 -2.0487  1.7728  0.7167
  289MOL0     H39842  11.487   9.246   9.126  0.0299 -2.4737  1.7106
  289MOL0     H39843  11.312   9.261   9.173  0.1033  0.6603  0.9524
  289MOL0     H39844  11.641   9.455   8.673  0.7382 -0.7726 -1.3241
  289MOL0     H39845  11.694   9.363   8.450 -0.4632  2.2248  1.6228
  289MOL0     H39846  11.436   9.076   8.297  0.7784  1.6567  2.8764
  289MOL0     H39847  11.368   9.191   8.170  1.7874  3.0239  1.1561
  289MOL0     H39848  11.567   9.157   8.034 -2.1333 -0.4333 -1.7426
  289MOL0     H39849  11.639   9.052   8.169 -2.0161 -2.0071  0.9718
  289MOL0     H39850  11.398   8.988   7.996 -1.0895 -0.9066  0.5890
  289MOL0     H39851  11.467   8.898   8.129 -0.4790  1.2927  0.3887
  289MOL0     H39852  11.682   8.867   8.002 -1.0044 -1.2789  2.8653
  289MOL0     H39853  11.620   8.970   7.874  0.9011 -1.6193 -1.4677
  289MOL0     H39854  11.506   8.695   7.946 -1.9317  0.5741  0.1565
  289MOL0     H39855  11.460   8.793   7.811  0.9223 -1.1877 -1.7906
  289MOL0     H39856  11.653   8.588   7.796  2.2112 -1.4855 -3.1918
  289MOL0     H39857  11.755   8.728   7.832 -0.0449  1.3259 -2.3161
  289MOL0     H39858  11.714   8.832   7.633  0.4632 -0.0162 -2.1255
  289MOL0     H39859  11.558   8.762   7.610  0.4285  0.1140 -0.0183
  289MOL0     H39860  11.673   8.544   7.555  0.4176 -0.0741  0.6650
  289MOL0     H39861  11.832   8.622   7.595  0.0890  2.8141  4.2946
  289MOL0     H39862  11.295   9.229   8.400  2.3037  0.0407 -2.2315
  289MOL0     H39863  11.226   9.365   8.602 -0.8815 -1.4312  0.1031
  289MOL0     H39864  11.368   9.673   8.878  0.4727 -0.6418 -0.5113
  289MOL0     H39865  11.361   9.834   9.064  0.5224  0.4016  0.5236
  289MOL0     H39866  10.643  11.192   9.971  0.3137 -0.6858  1.3120
  289MOL0     H39867  10.469  11.385   9.985  0.7875 -0.6590  0.6272
  289MOL0     H39868  10.201  11.567  10.120 -0.2062  0.4396  0.1088
  289MOL0     H39869  10.109  11.774  10.200  2.2402  0.6070 -1.8189
  289MOL0     H39870   9.948  11.911  10.314  1.0296 -1.3448 -1.2891
  289MOL0     H39871  10.031  11.985  10.184  0.8664  0.2499  1.4726
  289MOL0     H39872   9.889  12.161  10.315 -0.2586  0.5363 -0.0526
  289MOL0     H39873   9.748  12.059  10.298  0.9332  0.6792  1.0977
  289MOL0     H39874   9.734  12.102  10.074  0.2745  0.5440  0.3702
  289MOL0     H39875   9.784  12.261  10.150  2.2491  0.1146  4.2580
  289MOL0     H39876   9.975  12.091   9.981 -1.1931  0.0634 -2.1526
  289MOL0     H39877  10.022  12.226  10.096 -2.3587  3.9196  1.0790
  289MOL0     H39878   9.881  12.448   9.771 -1.1914 -0.3916 -0.3329
  289MOL0     H39879   9.773  11.721   9.954 -0.3536 -1.5641  0.1839
  289MOL0     H39880   9.828  11.453   9.787  1.0054  0.4725 -0.1862
  289MOL0     H39881   9.782  11.375   9.935 -0.1667  0.8423  0.7775
  289MOL0     H39882   9.704  11.529   9.898  0.7382  0.8068  0.6806
  290MOL0     O39883   7.750   3.823   9.028 -0.0734  0.2695  0.2724
  290MOL0     C39884   7.782   3.885   9.129 -0.2211 -1.0402 -0.3116
  290MOL0     O39885   7.819   4.018   9.140 -0.1452  0.2189  0.2256
  290MOL0     C39886   7.799   4.087   9.025 -0.2799 -0.4386 -0.3257
  290MOL0     C39887   7.887   4.080   8.927  0.0956 -0.1573 -0.0337
  290MOL0     C39888   7.893   4.174   8.812 -0.8728  0.3718  0.0868
  290MOL0     C39889   7.794   4.273   8.795  0.3860  0.7206  0.4658
  290MOL0     O39890   7.798   4.367   8.696 -0.1899 -0.4647  0.5601
  290MOL0     C39891   7.676   4.436   8.668  0.5935 -0.0185  0.6465
  290MOL0     C39892   7.702   4.495   8.531 -0.6815  0.3737 -0.5342
  290MOL0     C39893   7.591   4.590   8.494  0.0784 -0.6049  0.0813
  290MOL0     C39894   7.460   4.516   8.457 -0.2173 -0.1563  0.4842
  290MOL0     C39895   7.341   4.573   8.523  0.4434  0.3791 -0.0399
  290MOL0     C39896   7.343   4.547   8.669  0.0963 -0.0553  0.4513
  290MOL0     C39897   7.201   4.570   8.720 -0.3438  0.0593  0.4812
  290MOL0     C39898   7.171   4.553   8.869 -0.0137 -0.1367  0.9860
  290MOL0     N39899   7.283   4.604   8.944 -0.8699 -0.0902 -0.1972
  290MOL0     C39900   7.317   4.739   8.943  0.5426 -0.4657 -0.6368
  290MOL0     C39901   7.427   4.749   9.021  0.5566  0.9298 -0.2191
  290MOL0     C39902   7.504   4.867   9.027 -0.0813 -0.3227 -0.1266
  290MOL0     C39903   7.640   4.845   8.973 -0.4787  0.2069 -0.6063
  290MOL0     C39904   7.645   4.821   8.823  0.5589 -0.1377  0.4296
  290MOL0     C39905   7.790   4.821   8.785 -0.5578 -0.4207  0.2155
  290MOL0     O39906   7.864   4.708   8.820 -0.0010  0.4878 -0.0246
  290MOL0     C39907   8.001   4.693   8.797 -0.0599 -0.4281 -0.0024
  290MOL0     C39908   8.082   4.803   8.757 -0.4166 -0.4788 -0.4152
  290MOL0     C39909   8.216   4.793   8.742 -0.3902 -0.5963  0.2979
  290MOL0     C39910   8.305   4.917   8.727 -0.1999 -0.4371 -0.0242
  290MOL0     C39911   8.287   4.671   8.777  0.1150 -0.3128 -0.0884
  290MOL0     C39912   8.431   4.653   8.794 -0.3164 -0.1517 -0.3459
  290MOL0     O39913   8.514   4.682   8.686 -0.6939  0.2484 -0.3523
  290MOL0     C39914   8.649   4.653   8.701 -0.1535  0.2375  0.0208
  290MOL0     C39915   8.696   4.522   8.718  0.1963  0.9153 -0.0916
  290MOL0     C39916   8.830   4.481   8.700 -0.0425 -0.2939 -0.5849
  290MOL0     C39917   8.923   4.581   8.665  0.9940 -0.1126  0.3693
  290MOL0     O39918   9.057   4.552   8.666 -0.2756  0.6367  0.2676
  290MOL0     C39919   9.137   4.659   8.711 -0.8719 -0.2611 -0.4522
  290MOL0     C39920   9.273   4.607   8.715 -1.2809  0.1663 -0.2655
  290MOL0     C39921   9.346   4.610   8.580  0.0241 -0.5909  0.4659
  290MOL0     C39922   9.498   4.598   8.592  0.3202  0.3151 -0.4771
  290MOL0     C39923   9.545   4.571   8.451 -0.4022 -1.1111 -0.5355
  290MOL0     C39924   9.697   4.543   8.438  0.0292 -0.0548 -0.3437
  290MOL0     C39925   9.785   4.670   8.460  0.4803  0.5751 -0.0198
  290MOL0     C39926   9.931   4.615   8.471  0.1113  1.8128 -0.7963
  290MOL0    Cl39927  10.045   4.759   8.430  0.3898  0.4473 -0.1964
  290MOL0     C39928   8.874   4.715   8.644 -0.1860 -0.0004  0.5849
  290MOL0     C39929   8.738   4.742   8.652  0.4967 -0.6358 -0.3646
  290MOL0     O39930   8.462   4.617   8.907  0.2235 -0.5919  0.2830
  290MOL0     C39931   8.206   4.561   8.818 -0.1350 -0.0483  0.9922
  290MOL0     C39932   8.063   4.572   8.828  0.4687  0.0467  0.7102
  290MOL0     N39933   7.462   4.624   9.062 -1.1573  0.3321  0.5306
  290MOL0     N39934   7.382   4.538   9.010 -0.5521  0.6436  0.4666
  290MOL0     C39935   7.707   4.284   8.907 -0.2313 -0.8110 -0.5176
  290MOL0     C39936   7.708   4.194   9.020  0.6965  0.4370  0.5388
  290MOL0     C39937   7.806   3.803   9.253 -0.4340 -0.9735  0.7425
  290MOL0     C39938   7.782   3.858   9.379 -0.0228 -0.1169  0.2888
  290MOL0     C39939   7.826   3.787   9.490 -0.0227 -0.2739 -0.1543
  290MOL0     C39940   7.896   3.667   9.484  0.8468 -0.9061 -0.8202
  290MOL0     O39941   7.938   3.611   9.600  0.1740  0.2116 -0.0264
  290MOL0     C39942   7.953   3.471   9.609 -0.1014 -0.8555  0.2641
  290MOL0     C39943   7.821   3.404   9.570 -0.6602  0.0719 -0.3086
  290MOL0     C39944   7.793   3.271   9.615 -0.7915 -0.8197 -0.0365
  290MOL0     C39945   7.734   3.276   9.764 -0.9246  0.1194 -0.3930
  290MOL0     C39946   7.636   3.172   9.787  0.8512 -0.3673  1.0809
  290MOL0     C39947   7.544   3.094   9.791 -0.0377 -0.0973 -0.3909
  290MOL0     C39948   7.917   3.622   9.357  0.9421  1.4264 -0.4947
  290MOL0     C39949   7.877   3.687   9.245  0.5265 -0.3165  0.8927
  290MOL0     C39950   7.928   3.621   9.118  0.6231 -0.6373  1.4416
  290MOL0     H39951   7.968   4.010   8.939  0.4984  0.2598 -0.2712
  290MOL0     H39952   7.976   4.160   8.743 -0.2767 -2.6430  1.2605
  290MOL0     H39953   7.666   4.518   8.740  2.7113 -0.3879  1.4304
  290MOL0     H39954   7.600   4.357   8.665  1.0575 -0.4468 -0.6042
  290MOL0     H39955   7.794   4.553   8.536  1.0112 -1.9557 -2.0522
  290MOL0     H39956   7.722   4.410   8.464  0.4718 -0.5177  0.8890
  290MOL0     H39957   7.578   4.673   8.564  0.1051  1.3167 -2.0956
  290MOL0     H39958   7.613   4.649   8.405 -0.1604  0.2164  0.5516
  290MOL0     H39959   7.448   4.513   8.348  2.1085  0.4209  0.1422
  290MOL0     H39960   7.471   4.410   8.482 -0.8056 -0.5860 -0.9967
  290MOL0     H39961   7.267   4.507   8.476  2.8337 -2.9949  0.5526
  290MOL0     H39962   7.323   4.679   8.503  1.2291  0.5611  0.1899
  290MOL0     H39963   7.370   4.443   8.689 -0.3464 -0.4853 -1.0453
  290MOL0     H39964   7.406   4.620   8.720  2.2535 -2.2911  1.1892
  290MOL0     H39965   7.132   4.505   8.665 -1.7131  1.4180  0.5356
  290MOL0     H39966   7.189   4.675   8.693  1.2945  0.1583  0.0378
  290MOL0     H39967   7.072   4.587   8.900 -0.3535 -0.3840  0.1878
  290MOL0     H39968   7.166   4.446   8.890 -1.9813  0.5016  4.7006
  290MOL0     H39969   7.260   4.815   8.891 -0.6212 -0.5919  0.4131
  290MOL0     H39970   7.513   4.887   9.134  0.8529 -1.4381  0.0121
  290MOL0     H39971   7.443   4.939   8.971  0.1188  1.1918  1.5249
  290MOL0     H39972   7.705   4.931   8.994  2.6440 -1.7269 -1.6271
  290MOL0     H39973   7.694   4.767   9.028 -0.5004 -0.8504 -2.0220
  290MOL0     H39974   7.597   4.727   8.795  0.7859 -1.0288  2.7819
  290MOL0     H39975   7.603   4.904   8.765  0.5358 -1.4973 -1.6045
  290MOL0     H39976   7.807   4.833   8.678  0.1457  1.9096  0.5101
  290MOL0     H39977   7.842   4.909   8.825  3.7977 -1.8685 -1.7021
  290MOL0     H39978   8.050   4.904   8.735  3.4476  1.0935  0.3221
  290MOL0     H39979   8.238   5.003   8.714  1.2043  0.5951 -0.7417
  290MOL0     H39980   8.364   4.904   8.636  0.7298 -1.8685  0.7583
  290MOL0     H39981   8.370   4.925   8.814 -2.3799 -1.4822  1.8036
  290MOL0     H39982   8.615   4.457   8.748 -1.8521  3.1064 -0.5546
  290MOL0     H39983   8.862   4.380   8.724 -0.1155 -0.1548  0.1098
  290MOL0     H39984   9.136   4.752   8.652  0.4676  0.8178  1.1489
  290MOL0     H39985   9.103   4.686   8.811  0.5711  0.2731 -0.0727
  290MOL0     H39986   9.338   4.670   8.777  0.1199 -1.4950  0.0284
  290MOL0     H39987   9.269   4.502   8.746  0.0172  0.1653 -0.0622
  290MOL0     H39988   9.325   4.701   8.524 -3.8738 -0.7490  1.4467
  290MOL0     H39989   9.309   4.523   8.525  0.9568  0.4970 -2.0087
  290MOL0     H39990   9.526   4.513   8.656  0.7835  3.2091  3.5744
  290MOL0     H39991   9.539   4.684   8.646 -0.3045 -0.7135  1.7551
  290MOL0     H39992   9.494   4.486   8.405 -0.4355 -2.2382  1.4892
  290MOL0     H39993   9.514   4.663   8.399  3.0443  1.3650  1.3862
  290MOL0     H39994   9.717   4.498   8.341 -4.8380 -0.2414 -1.4814
  290MOL0     H39995   9.711   4.472   8.521 -2.1236 -0.0071  0.1164
  290MOL0     H39996   9.745   4.722   8.547 -1.0704  0.6373 -0.7297
  290MOL0     H39997   9.771   4.733   8.371 -3.4994 -1.3395 -1.0136
  290MOL0     H39998   9.957   4.537   8.399 -1.2838  2.8874 -2.5662
  290MOL0     H39999   9.950   4.590   8.576  2.4404 -1.0513 -1.7772
  290MOL0     H40000   8.931   4.805   8.623 -1.5660  1.2626  2.0042
  290MOL0     H40001   8.695   4.838   8.624 -0.0509 -1.0132 -0.8607
  290MOL0     H40002   8.250   4.463   8.833 -0.5337 -0.7383 -1.8820
  290MOL0     H40003   8.009   4.494   8.880 -1.5723  1.8812  1.5314
  290MOL0     H40004   7.628   4.358   8.906  0.4560 -0.0571 -1.5431
  290MOL0     H40005   7.622   4.208   9.084  1.0136 -2.7875  1.8681
  290MOL0     H40006   7.730   3.952   9.393  2.3934  1.1875  1.2023
  290MOL0     H40007   7.804   3.846   9.579 -0.9425 -0.7019 -0.0795
  290MOL0     H40008   8.034   3.440   9.543 -0.5518  0.5822 -1.0307
  290MOL0     H40009   7.969   3.452   9.715  0.0837 -2.5841 -0.0401
  290MOL0     H40010   7.816   3.393   9.462  1.4199  1.1347 -0.5798
  290MOL0     H40011   7.741   3.472   9.600  1.0469  0.3054  4.6512
  290MOL0     H40012   7.723   3.228   9.543  0.6748 -0.7262 -1.5685
  290MOL0     H40013   7.887   3.217   9.606 -2.0952 -3.0185 -1.2851
  290MOL0     H40014   7.700   3.377   9.788  2.7208  1.5274 -0.4228
  290MOL0     H40015   7.815   3.256   9.835 -0.5544 -0.4185 -0.9623
  290MOL0     H40016   7.482   3.007   9.795 -0.2274  0.0478 -0.0947
  290MOL0     H40017   7.974   3.529   9.353  1.9185  1.7168  3.0639
  290MOL0     H40018   7.992   3.535   9.142  0.6826 -0.9785  0.1448
  290MOL0     H40019   7.839   3.586   9.065  0.6389 -2.4318  2.5186
  290MOL0     H40020   7.987   3.699   9.070 -0.7545  0.1914  1.0210
  291MOL0     O40021   4.451   6.925   1.368  0.5649 -0.1275  0.4042
  291MOL0     C40022   4.444   6.882   1.251  0.5350 -1.7470 -0.4443
  291MOL0     O40023   4.336   6.836   1.180  0.8943 -0.2963  0.2936
  291MOL0     C40024   4.216   6.829   1.245 -0.9695 -0.1885  0.2546
  291MOL0     C40025   4.159   6.945   1.297  0.4326  0.4756 -1.1776
  291MOL0     C40026   4.025   6.932   1.353 -1.1517 -0.2956  0.3723
  291MOL0     C40027   3.951   6.814   1.346 -0.4188 -0.5166  0.7408
  291MOL0     O40028   3.816   6.821   1.383  0.4777 -0.7222  0.1083
  291MOL0     C40029   3.736   6.702   1.416 -0.7128 -1.3381  0.8947
  291MOL0     C40030   3.610   6.739   1.498 -0.3736  0.4002 -0.9283
  291MOL0     C40031   3.505   6.802   1.401 -0.8960  0.2119  0.6086
  291MOL0     C40032   3.376   6.837   1.482  1.6461  0.1751  0.1876
  291MOL0     C40033   3.305   6.703   1.499  0.4453  0.6637  0.0907
  291MOL0     C40034   3.161   6.713   1.532  0.2482  0.6081 -0.4825
  291MOL0     C40035   3.081   6.579   1.556  0.5053 -0.2986  0.9432
  291MOL0     C40036   3.122   6.485   1.671  1.1581  0.0870 -0.9110
  291MOL0     N40037   3.046   6.355   1.684  0.1987 -0.4866 -1.0827
  291MOL0     C40038   3.025   6.257   1.593 -0.3615  0.0756 -0.0591
  291MOL0     C40039   2.922   6.192   1.642  0.4565 -0.9209  0.2079
  291MOL0     C40040   2.836   6.090   1.571 -0.9614  0.0941 -0.1529
  291MOL0     C40041   2.683   6.129   1.574 -0.5122  1.2437  0.2445
  291MOL0     C40042   2.602   6.005   1.526 -0.1755 -0.1868  1.0448
  291MOL0     C40043   2.481   5.976   1.616  0.2001 -0.4364  0.2240
  291MOL0     O40044   2.409   5.866   1.569  0.4356  0.7805 -0.5665
  291MOL0     C40045   2.274   5.847   1.605  0.6983 -0.1592 -0.8992
  291MOL0     C40046   2.191   5.789   1.514  0.0103 -1.2028 -0.5451
  291MOL0     C40047   2.049   5.779   1.533 -0.0674 -0.5500  0.2984
  291MOL0     C40048   1.960   5.714   1.427  0.5893 -0.1159 -0.1189
  291MOL0     C40049   2.000   5.832   1.660 -0.1983  0.1713  0.5047
  291MOL0     C40050   1.852   5.832   1.692  0.8208 -0.1542 -0.4043
  291MOL0     O40051   1.800   5.955   1.696  0.0339  0.3019 -0.6227
  291MOL0     C40052   1.657   5.967   1.697  0.1862 -0.2513  0.8120
  291MOL0     C40053   1.596   6.074   1.769 -0.7313  0.4439  0.7503
  291MOL0     C40054   1.460   6.093   1.778  0.2328 -0.6347  0.4287
  291MOL0     C40055   1.383   5.999   1.706 -0.1119  0.0373 -0.2649
  291MOL0     O40056   1.246   6.015   1.699 -1.1266 -0.6973  0.4010
  291MOL0     C40057   1.186   6.124   1.769 -0.1798 -0.0782  0.1523
  291MOL0     C40058   1.032   6.109   1.767  0.4158  0.2638 -1.2330
  291MOL0     C40059   0.958   6.225   1.844  0.8706  0.6202  0.3702
  291MOL0     C40060   0.836   6.279   1.772 -0.4982 -0.2125 -0.4138
  291MOL0     C40061   0.760   6.368   1.871  0.5374  0.7272  0.1475
  291MOL0     C40062   0.654   6.460   1.814 -0.2695 -0.2272 -0.1063
  291MOL0     C40063   0.702   6.601   1.794 -0.2730 -0.4074 -1.2186
  291MOL0     C40064   0.577   6.683   1.759 -0.7834 -0.4904  0.2556
  291MOL0    Cl40065   0.530   6.669   1.591  0.3032 -0.0488  0.4575
  291MOL0     C40066   1.441   5.891   1.636 -0.4794 -0.4936 -0.4515
  291MOL0     C40067   1.573   5.877   1.626 -0.6698 -0.0012  0.4337
  291MOL0     O40068   1.802   5.729   1.728  0.7761 -0.2124  0.2421
  291MOL0     C40069   2.084   5.889   1.755 -0.0885  0.6258  0.7427
  291MOL0     C40070   2.219   5.906   1.719  0.2095  0.0501  0.3388
  291MOL0     N40071   2.887   6.248   1.761 -0.1622  0.0516  0.7312
  291MOL0     N40072   2.954   6.353   1.784 -0.1726 -0.6675  0.5159
  291MOL0     C40073   4.018   6.699   1.292  0.6523 -0.2052  0.5260
  291MOL0     C40074   4.150   6.709   1.244  0.5272 -0.0209 -0.3031
  291MOL0     C40075   4.558   6.913   1.167  0.1280 -0.2101 -0.5964
  291MOL0     C40076   4.544   6.923   1.025  0.5419 -0.4817 -0.3852
  291MOL0     C40077   4.648   6.953   0.937  0.6784 -0.2264 -0.0816
  291MOL0     C40078   4.779   6.964   0.980 -0.0968  0.0369  0.2810
  291MOL0     O40079   4.873   6.980   0.885 -0.1368  0.1190  0.3733
  291MOL0     C40080   4.978   6.878   0.900  0.7262 -0.2410  0.7315
  291MOL0     C40081   5.035   6.869   0.768 -0.6595 -0.2684 -0.2822
  291MOL0     C40082   5.157   6.959   0.748  0.0928 -0.7704 -0.7538
  291MOL0     C40083   5.226   6.945   0.602  1.0621  0.1489 -0.3304
  291MOL0     C40084   5.360   7.000   0.602 -0.0205  0.2532  0.0363
  291MOL0     C40085   5.474   7.031   0.569  0.7698 -0.3910 -0.3169
  291MOL0     C40086   4.799   6.977   1.114  0.2960  0.6006 -0.3033
  291MOL0     C40087   4.692   6.942   1.209  0.1456 -0.0644  0.3811
  291MOL0     C40088   4.734   6.950   1.363  1.3520  0.7285  0.1117
  291MOL0     H40089   4.208   7.041   1.300  0.6895  0.3224  1.0244
  291MOL0     H40090   3.969   7.020   1.384  0.3981  0.5194  0.9820
  291MOL0     H40091   3.804   6.641   1.476  0.6427 -0.0921  0.6572
  291MOL0     H40092   3.712   6.647   1.325  0.7469 -2.7547  1.3175
  291MOL0     H40093   3.571   6.644   1.536  1.3445 -0.1810 -0.5167
  291MOL0     H40094   3.631   6.807   1.582  1.1484 -1.6136  0.4185
  291MOL0     H40095   3.541   6.896   1.359 -0.9089 -0.7853 -1.7842
  291MOL0     H40096   3.485   6.730   1.322 -0.2670  1.7223 -1.0018
  291MOL0     H40097   3.404   6.898   1.568 -0.5183  2.5574 -0.6701
  291MOL0     H40098   3.311   6.905   1.427 -1.5440 -2.6602  0.1571
  291MOL0     H40099   3.355   6.648   1.579  0.2427  3.5414  2.3688
  291MOL0     H40100   3.323   6.638   1.414 -0.4263 -2.0225  1.8253
  291MOL0     H40101   3.156   6.780   1.618 -0.6123  1.4072 -1.1329
  291MOL0     H40102   3.106   6.770   1.456  0.6199  0.5751 -0.7809
  291MOL0     H40103   3.075   6.520   1.464  1.0837 -0.7137  1.1640
  291MOL0     H40104   2.978   6.609   1.578  0.6229 -0.7774  2.2335
  291MOL0     H40105   3.230   6.473   1.661  2.1234  4.4414  1.6536
  291MOL0     H40106   3.098   6.552   1.754  2.0144 -0.6911 -0.0088
  291MOL0     H40107   3.072   6.254   1.495 -1.4819 -3.4792 -0.6454
  291MOL0     H40108   2.857   5.994   1.618 -0.2814 -0.4007 -1.4288
  291MOL0     H40109   2.866   6.081   1.466 -0.5728 -1.7692  0.0995
  291MOL0     H40110   2.660   6.141   1.680 -3.5030 -0.3779 -0.1063
  291MOL0     H40111   2.666   6.219   1.513 -1.9636  1.6212  1.1529
  291MOL0     H40112   2.563   6.022   1.425 -2.7336 -3.4729  1.3067
  291MOL0     H40113   2.658   5.911   1.532  0.1154  0.0499  2.3721
  291MOL0     H40114   2.522   5.956   1.716 -1.6093 -0.4268  1.0108
  291MOL0     H40115   2.419   6.065   1.608  0.5807 -0.2815 -1.2764
  291MOL0     H40116   2.244   5.760   1.424  0.4008  0.2848 -0.8047
  291MOL0     H40117   1.875   5.782   1.414  0.4124 -0.0942  1.0497
  291MOL0     H40118   1.924   5.616   1.459 -0.9701  0.1536 -0.9451
  291MOL0     H40119   2.011   5.708   1.330  0.4095 -4.7644 -0.1499
  291MOL0     H40120   1.656   6.148   1.820 -0.5635 -1.3501  3.3178
  291MOL0     H40121   1.428   6.184   1.828  2.6354  0.5158  0.0149
  291MOL0     H40122   1.218   6.132   1.873  2.2056 -2.3743 -0.3321
  291MOL0     H40123   1.210   6.222   1.725  2.7668  0.2142  2.1255
  291MOL0     H40124   0.986   6.119   1.668 -2.8310  0.8197  0.2214
  291MOL0     H40125   0.998   6.016   1.815 -0.5787  1.2108 -0.0397
  291MOL0     H40126   1.027   6.309   1.856 -0.8550  2.1728 -0.0446
  291MOL0     H40127   0.918   6.190   1.940 -1.5691  2.6652  0.2101
  291MOL0     H40128   0.781   6.203   1.716  1.4616 -0.4312 -2.1157
  291MOL0     H40129   0.871   6.339   1.687  2.5452 -4.4405 -2.5021
  291MOL0     H40130   0.721   6.303   1.950  1.9093  1.4393  1.4579
  291MOL0     H40131   0.829   6.436   1.921  2.2061  0.6544 -1.9009
  291MOL0     H40132   0.570   6.456   1.884  1.3255 -4.1833  1.9185
  291MOL0     H40133   0.606   6.424   1.722 -1.0648  1.2059 -0.2854
  291MOL0     H40134   0.788   6.614   1.728  0.6630 -1.2858 -0.2218
  291MOL0     H40135   0.729   6.627   1.897  0.7109 -0.6067 -1.4103
  291MOL0     H40136   0.592   6.788   1.783  1.9196 -0.4740 -1.1152
  291MOL0     H40137   0.494   6.653   1.823 -3.3540  1.5129 -1.9461
  291MOL0     H40138   1.384   5.816   1.582 -1.3768  0.2223 -0.5250
  291MOL0     H40139   1.601   5.788   1.570 -2.0550  1.1559 -2.3020
  291MOL0     H40140   2.041   5.932   1.845  2.1133  1.0150  1.6874
  291MOL0     H40141   2.282   5.964   1.785 -0.2089 -1.2373  1.9250
  291MOL0     H40142   3.974   6.601   1.301 -1.6088  0.8663  2.2780
  291MOL0     H40143   4.186   6.610   1.219  0.1234 -0.2043 -0.1675
  291MOL0     H40144   4.448   6.905   0.979  0.7520 -3.0420  0.0409
  291MOL0     H40145   4.610   6.939   0.836  0.0877  3.0620 -0.4158
  291MOL0     H40146   5.051   6.923   0.968  2.2687  2.5825 -2.4723
  291MOL0     H40147   4.924   6.791   0.940 -0.0212 -1.3153 -2.3601
  291MOL0     H40148   4.957   6.892   0.695 -0.2927  1.0870 -0.2649
  291MOL0     H40149   5.067   6.766   0.752 -0.5239 -0.4645  1.0971
  291MOL0     H40150   5.142   7.066   0.760  0.5771 -0.8380  0.7782
  291MOL0     H40151   5.233   6.928   0.821  0.7183 -2.9147 -2.2190
  291MOL0     H40152   5.157   6.995   0.533 -1.7992 -0.8942  1.5910
  291MOL0     H40153   5.239   6.838   0.588  1.2317 -0.5745  3.9652
  291MOL0     H40154   5.575   7.034   0.532  0.5202  0.6816 -0.9362
  291MOL0     H40155   4.900   6.987   1.153 -0.4043  0.7738  1.5395
  291MOL0     H40156   4.680   6.872   1.418  0.3325  1.3820  0.0817
  291MOL0     H40157   4.840   6.927   1.377  0.7921 -0.7653  2.3219
  291MOL0     H40158   4.711   7.036   1.427  0.3982 -2.0277  3.7539
  292MOL0     O40159   7.103   7.874   2.375 -0.5792 -0.2386 -0.2182
  292MOL0     C40160   7.135   7.992   2.350 -0.1264 -0.7338 -0.4969
  292MOL0     O40161   7.056   8.102   2.385  0.8388 -0.4357 -0.2487
  292MOL0     C40162   6.936   8.075   2.449  0.3190 -0.1952  0.0750
  292MOL0     C40163   6.925   8.007   2.570 -0.2998 -0.5264  0.6634
  292MOL0     C40164   6.810   7.992   2.638  0.1115  1.1675 -0.1690
  292MOL0     C40165   6.688   8.054   2.597 -0.4138 -0.4466 -0.2795
  292MOL0     O40166   6.570   8.029   2.659 -0.1456  0.8151  0.0706
  292MOL0     C40167   6.585   8.011   2.799  0.3672  0.2419  0.1244
  292MOL0     C40168   6.440   8.015   2.856 -0.1182  0.9248 -1.0001
  292MOL0     C40169   6.367   7.883   2.816 -0.3193 -0.0456 -0.2458
  292MOL0     C40170   6.242   7.857   2.892  0.2626 -0.4879  0.8665
  292MOL0     C40171   6.197   7.716   2.860 -0.9781 -0.2351 -0.3346
  292MOL0     C40172   6.060   7.669   2.917 -0.5933  0.2042 -0.2151
  292MOL0     C40173   6.061   7.522   2.934 -0.2617  0.1484 -0.6385
  292MOL0     C40174   5.922   7.456   2.930  0.3060 -0.1147  0.6201
  292MOL0     N40175   5.836   7.499   3.040 -0.1256 -0.1877 -1.0224
  292MOL0     C40176   5.857   7.460   3.168 -0.2673  0.5506 -0.4891
  292MOL0     C40177   5.762   7.506   3.239 -0.5212 -0.5569 -0.5043
  292MOL0     C40178   5.753   7.484   3.389  0.4471 -0.1881  0.3574
  292MOL0     C40179   5.806   7.589   3.473 -0.9490 -1.1807 -0.3596
  292MOL0     C40180   5.963   7.609   3.454 -0.2118 -1.7780 -0.0868
  292MOL0     C40181   6.007   7.748   3.482  0.4965 -0.0491 -0.8033
  292MOL0     O40182   6.147   7.735   3.518  0.1836 -0.0794 -0.0748
  292MOL0     C40183   6.235   7.831   3.478  0.3043  0.4184 -0.5504
  292MOL0     C40184   6.208   7.942   3.388 -0.2339  0.4391 -0.4857
  292MOL0     C40185   6.312   8.035   3.357 -0.4680  0.2570  0.1930
  292MOL0     C40186   6.276   8.162   3.280 -0.3884 -0.0750  0.1022
  292MOL0     C40187   6.439   8.035   3.432  0.5516  0.3034  0.3994
  292MOL0     C40188   6.565   8.121   3.421  0.7390 -0.4588  0.0983
  292MOL0     O40189   6.661   8.131   3.511 -0.3390  0.3995  0.0755
  292MOL0     C40190   6.780   8.196   3.486  0.3609  0.4128 -0.8885
  292MOL0     C40191   6.829   8.242   3.608  0.4720 -0.7166 -0.0065
  292MOL0     C40192   6.949   8.314   3.611 -0.6657  0.0930  0.0530
  292MOL0     C40193   7.021   8.338   3.498 -0.0559 -0.2889  0.5238
  292MOL0     O40194   7.143   8.394   3.521 -0.3892 -0.1011  0.7935
  292MOL0     C40195   7.213   8.453   3.408 -0.9178 -0.2175  0.7251
  292MOL0     C40196   7.362   8.477   3.448 -0.2455  0.1359  0.5089
  292MOL0     C40197   7.443   8.556   3.345  0.3737  0.0848  0.0755
  292MOL0     C40198   7.566   8.624   3.409 -0.0101  0.2533  0.4941
  292MOL0     C40199   7.631   8.724   3.315  0.0556 -0.2264 -1.4618
  292MOL0     C40200   7.678   8.674   3.181  0.5008 -0.1322  0.7259
  292MOL0     C40201   7.764   8.777   3.095 -0.5568  0.3791 -0.3083
  292MOL0     C40202   7.817   8.704   2.967 -0.0758 -0.1497 -0.8527
  292MOL0    Cl40203   7.691   8.695   2.838 -0.0501 -0.3167 -0.4744
  292MOL0     C40204   6.969   8.300   3.375 -0.7798  0.4382  0.0109
  292MOL0     C40205   6.854   8.229   3.375  0.1542 -0.3998  1.4882
  292MOL0     O40206   6.570   8.167   3.307  0.1830  0.6439  0.1728
  292MOL0     C40207   6.455   7.924   3.516 -0.5022 -0.3938 -0.5415
  292MOL0     C40208   6.363   7.825   3.539 -0.1262 -0.0902  0.3604
  292MOL0     N40209   5.695   7.597   3.149  0.8863 -0.4853  0.1318
  292MOL0     N40210   5.734   7.587   3.033 -0.2676 -0.0178  0.4256
  292MOL0     C40211   6.695   8.114   2.471  0.2414  0.1777 -0.5039
  292MOL0     C40212   6.818   8.133   2.400 -0.4360  0.6267  0.0208
  292MOL0     C40213   7.270   8.027   2.296  0.6436 -0.0701 -0.0831
  292MOL0     C40214   7.307   8.160   2.302  0.4204 -1.3577  0.1653
  292MOL0     C40215   7.433   8.197   2.258 -0.3906  0.3154 -0.7162
  292MOL0     C40216   7.523   8.115   2.199 -1.2788  0.7273  0.6519
  292MOL0     O40217   7.651   8.152   2.161  0.3278 -0.3879 -0.0897
  292MOL0     C40218   7.679   8.292   2.164 -0.3066 -0.2911  0.6848
  292MOL0     C40219   7.810   8.326   2.098 -0.1356 -0.0541  0.2846
  292MOL0     C40220   7.926   8.260   2.165 -0.3054 -0.4616 -0.0590
  292MOL0     C40221   8.056   8.331   2.134 -0.7186 -0.9222 -0.3708
  292MOL0     C40222   8.175   8.257   2.178  0.3397  0.0925 -0.1185
  292MOL0     C40223   8.264   8.181   2.199 -0.7727 -0.4751 -0.5550
  292MOL0     C40224   7.493   7.981   2.185 -0.2232 -0.0291 -0.8800
  292MOL0     C40225   7.371   7.940   2.244 -0.1207  0.2441  1.0944
  292MOL0     C40226   7.351   7.786   2.255 -0.5108 -0.3238 -0.6287
  292MOL0     H40227   7.018   7.964   2.607 -0.6018 -0.6649  1.2688
  292MOL0     H40228   6.824   7.950   2.737 -3.2216  1.4744  0.5649
  292MOL0     H40229   6.643   8.092   2.844  0.6464  0.2797 -0.3009
  292MOL0     H40230   6.632   7.914   2.817  1.0525  0.1718 -1.7792
  292MOL0     H40231   6.437   8.023   2.965 -0.7226 -0.3149 -0.9034
  292MOL0     H40232   6.392   8.099   2.805 -1.4394 -1.3800 -3.8553
  292MOL0     H40233   6.361   7.884   2.707  0.1044 -1.0245 -0.2858
  292MOL0     H40234   6.434   7.799   2.837 -2.1262 -1.2409  1.0262
  292MOL0     H40235   6.272   7.867   2.996 -1.9074  2.2496  1.3697
  292MOL0     H40236   6.167   7.933   2.869  1.3524  0.3282 -0.1014
  292MOL0     H40237   6.277   7.647   2.888 -2.5195 -1.0016  2.5475
  292MOL0     H40238   6.178   7.714   2.752 -2.3744 -1.8274 -0.1060
  292MOL0     H40239   6.042   7.708   3.017  1.8469 -2.6546  1.5463
  292MOL0     H40240   5.981   7.704   2.851 -0.7590 -2.1640 -1.3893
  292MOL0     H40241   6.108   7.512   3.033  2.4495  0.5394 -1.7831
  292MOL0     H40242   6.122   7.473   2.858  2.1733  0.4130  1.0243
  292MOL0     H40243   5.885   7.496   2.836  0.6242  1.0282  0.9657
  292MOL0     H40244   5.925   7.347   2.929 -2.9107 -0.2778 -0.1290
  292MOL0     H40245   5.930   7.390   3.209  0.4550  1.6881  0.2246
  292MOL0     H40246   5.806   7.392   3.416 -0.2608 -0.7588 -0.1308
  292MOL0     H40247   5.647   7.467   3.409  0.1954 -1.7243 -1.9586
  292MOL0     H40248   5.753   7.677   3.436  3.5543  0.9693 -2.5099
  292MOL0     H40249   5.787   7.584   3.581 -0.6245  3.5806  0.1462
  292MOL0     H40250   6.019   7.542   3.521 -0.1883  0.5801  2.4305
  292MOL0     H40251   5.995   7.597   3.350  0.5640 -1.9970  0.1639
  292MOL0     H40252   6.004   7.794   3.383  2.0064 -0.0154 -0.8541
  292MOL0     H40253   5.947   7.806   3.553  2.9255 -0.1803  1.4750
  292MOL0     H40254   6.108   7.957   3.349 -0.3937  1.0008  0.1223
  292MOL0     H40255   6.172   8.197   3.281 -1.2250 -2.3886 -0.6594
  292MOL0     H40256   6.293   8.150   3.173  1.5170  0.5365  0.3048
  292MOL0     H40257   6.325   8.249   3.326 -2.0148  2.3874 -2.4507
  292MOL0     H40258   6.784   8.219   3.704 -0.2006  2.7849  0.6687
  292MOL0     H40259   7.001   8.343   3.701  0.2552 -1.6451  0.1156
  292MOL0     H40260   7.211   8.372   3.334  0.9739 -0.3570  0.7795
  292MOL0     H40261   7.162   8.543   3.373 -1.3211 -0.7119  0.0233
  292MOL0     H40262   7.368   8.529   3.545  2.9714  0.3170  0.3377
  292MOL0     H40263   7.414   8.382   3.455 -1.3714 -0.5349  0.0329
  292MOL0     H40264   7.385   8.638   3.302  0.4270 -0.2888 -0.7111
  292MOL0     H40265   7.468   8.485   3.266  1.1241 -1.0590  1.3023
  292MOL0     H40266   7.650   8.555   3.421  0.7841  0.9695 -0.7196
  292MOL0     H40267   7.541   8.675   3.502 -0.1646 -1.0114  1.1770
  292MOL0     H40268   7.553   8.798   3.292  0.6620  1.0775  0.3931
  292MOL0     H40269   7.715   8.772   3.367  0.6311  1.1444 -3.5337
  292MOL0     H40270   7.601   8.625   3.120  2.0946 -0.2757 -1.3117
  292MOL0     H40271   7.740   8.585   3.198 -0.2868 -0.7694  0.3295
  292MOL0     H40272   7.848   8.805   3.158 -1.5930  0.5753  1.0333
  292MOL0     H40273   7.705   8.859   3.053 -1.1340  0.6452  0.9907
  292MOL0     H40274   7.853   8.607   3.002  0.2643  1.3061  3.4220
  292MOL0     H40275   7.899   8.771   2.942 -0.7082  0.5468 -1.0932
  292MOL0     H40276   7.010   8.324   3.277 -2.3729  1.4743 -0.4438
  292MOL0     H40277   6.808   8.197   3.282 -1.2634  1.1529  1.6099
  292MOL0     H40278   6.544   7.925   3.578  0.2010  1.1395 -1.5364
  292MOL0     H40279   6.380   7.754   3.619  3.0449 -1.6051 -1.4811
  292MOL0     H40280   6.601   8.153   2.434  0.4147  0.4038 -0.7061
  292MOL0     H40281   6.828   8.197   2.313 -1.9693  2.2625  0.9671
  292MOL0     H40282   7.236   8.236   2.332  3.1932  1.1364  0.9725
  292MOL0     H40283   7.464   8.300   2.273 -1.4538  0.5503  0.0246
  292MOL0     H40284   7.600   8.342   2.107 -0.4358  0.4588  1.5109
  292MOL0     H40285   7.683   8.313   2.271 -1.5800 -1.9263  1.0905
  292MOL0     H40286   7.822   8.434   2.110  0.0305  0.3868 -2.9056
  292MOL0     H40287   7.800   8.310   1.990 -0.5088 -4.0879  0.7618
  292MOL0     H40288   7.919   8.259   2.274  2.6033  2.1290  0.2848
  292MOL0     H40289   7.930   8.157   2.128 -2.2449 -0.9050  0.8397
  292MOL0     H40290   8.053   8.429   2.182 -2.7244 -0.1069 -1.9970
  292MOL0     H40291   8.057   8.350   2.027 -2.5173 -0.6458 -0.3774
  292MOL0     H40292   8.336   8.102   2.199 -2.1738 -1.7858  0.2710
  292MOL0     H40293   7.562   7.901   2.161  3.3414  3.1020 -1.9141
  292MOL0     H40294   7.431   7.720   2.220 -0.8487 -0.2210 -1.6414
  292MOL0     H40295   7.341   7.752   2.358 -0.0493  1.0498 -0.1054
  292MOL0     H40296   7.254   7.769   2.206 -0.8149  1.2012 -0.6031
  293MOL0     O40297   2.285   0.918   9.537 -0.1035 -0.3656  0.5978
  293MOL0     C40298   2.252   0.811   9.483 -0.4596 -0.9973  0.2378
  293MOL0     O40299   2.211   0.800   9.352  0.1815 -0.0923  0.1400
  293MOL0     C40300   2.269   0.875   9.263 -0.0695 -0.2952  1.1049
  293MOL0     C40301   2.338   0.818   9.160  0.6723 -0.1755  1.3298
  293MOL0     C40302   2.373   0.885   9.045  0.5752  0.1150  0.2109
  293MOL0     C40303   2.360   1.032   9.042  0.6665 -0.2682 -0.3159
  293MOL0     O40304   2.401   1.122   8.952 -0.3358 -0.3972  0.0092
  293MOL0     C40305   2.430   1.062   8.822 -0.6327 -0.2815 -1.3299
  293MOL0     C40306   2.584   1.045   8.802 -0.2469  0.0496  0.3648
  293MOL0     C40307   2.599   0.951   8.690 -0.6733 -0.6118  0.4687
  293MOL0     C40308   2.746   0.934   8.651  0.8659 -0.4515  0.4528
  293MOL0     C40309   2.751   0.860   8.516 -0.2518  0.6986  0.9324
  293MOL0     C40310   2.883   0.836   8.458 -0.0371 -0.0384 -0.4487
  293MOL0     C40311   2.969   0.967   8.447 -0.5746  0.5903 -0.6612
  293MOL0     C40312   3.113   0.937   8.402  0.0883  0.0976  0.3867
  293MOL0     N40313   3.208   1.034   8.454  0.1441 -0.3543 -0.4333
  293MOL0     C40314   3.260   1.139   8.384  0.0937 -0.0578  0.1758
  293MOL0     C40315   3.381   1.169   8.446  0.1252  0.4366  0.6134
  293MOL0     C40316   3.476   1.255   8.385 -0.3102  0.0658  0.4395
  293MOL0     C40317   3.598   1.303   8.460  0.0010 -0.6558  0.0141
  293MOL0     C40318   3.568   1.383   8.585  0.2496 -0.0264 -0.4942
  293MOL0     C40319   3.697   1.388   8.675  0.3722  1.5002  0.1001
  293MOL0     O40320   3.787   1.469   8.605 -0.1051  0.0497  0.5355
  293MOL0     C40321   3.922   1.453   8.626  0.2434  0.3074 -0.3773
  293MOL0     C40322   3.997   1.533   8.545  0.4176 -0.8928 -0.6060
  293MOL0     C40323   4.137   1.540   8.551 -0.4810  0.1428  0.8399
  293MOL0     C40324   4.219   1.630   8.460 -0.3339 -0.4758  0.4849
  293MOL0     C40325   4.199   1.457   8.649 -0.8120  0.5192 -0.8214
  293MOL0     C40326   4.337   1.482   8.699  0.3282 -0.1218 -0.0729
  293MOL0     O40327   4.364   1.585   8.771  0.2824  0.8917  0.1284
  293MOL0     C40328   4.274   1.663   8.822  0.0604 -0.1241  0.2103
  293MOL0     C40329   4.163   1.620   8.903 -0.0883 -0.5054 -0.8340
  293MOL0     C40330   4.083   1.715   8.959  0.2083 -0.3003  0.9861
  293MOL0     C40331   4.090   1.847   8.921  0.3731 -0.0469 -0.7153
  293MOL0     O40332   4.015   1.954   8.986 -0.3989  0.6112  0.1905
  293MOL0     C40333   3.875   1.923   8.995  0.6915 -0.4680 -0.4103
  293MOL0     C40334   3.787   2.050   8.966 -0.7001 -0.3736 -0.3868
  293MOL0     C40335   3.650   2.053   9.041 -0.5349 -0.1423  0.2619
  293MOL0     C40336   3.653   2.034   9.192  0.4557  0.5993 -0.4007
  293MOL0     C40337   3.516   2.043   9.259 -0.0599 -0.1422  0.1547
  293MOL0     C40338   3.536   2.032   9.414  0.0206 -0.1992  0.5977
  293MOL0     C40339   3.414   2.074   9.495  0.0604 -0.0553  0.1174
  293MOL0     C40340   3.450   2.085   9.643  0.4160 -0.4892 -0.1482
  293MOL0    Cl40341   3.554   2.226   9.682 -0.3358 -0.5283 -0.2813
  293MOL0     C40342   4.191   1.889   8.838 -0.1574 -0.2308  0.2613
  293MOL0     C40343   4.282   1.803   8.790 -0.1361  0.7900  0.3979
  293MOL0     O40344   4.420   1.409   8.657 -0.2103 -0.1650  1.0607
  293MOL0     C40345   4.128   1.357   8.713  0.5894 -0.4490  0.0831
  293MOL0     C40346   3.996   1.352   8.697  0.4263 -0.2547 -0.9938
  293MOL0     N40347   3.399   1.080   8.551  0.9015  0.4351  0.5898
  293MOL0     N40348   3.292   1.010   8.558  0.7303  0.7966  0.3251
  293MOL0     C40349   2.293   1.084   9.159  0.5336 -0.1324  0.4216
  293MOL0     C40350   2.247   1.010   9.261  0.7761 -0.0691 -0.9316
  293MOL0     C40351   2.258   0.695   9.567  0.0603  0.1093 -0.0305
  293MOL0     C40352   2.161   0.687   9.668  0.2763 -0.1061  0.4395
  293MOL0     C40353   2.149   0.565   9.744  0.8754  0.8091 -0.1392
  293MOL0     C40354   2.222   0.457   9.702 -0.2362  0.9869 -0.6378
  293MOL0     O40355   2.206   0.347   9.789 -0.2609 -0.3627  0.1641
  293MOL0     C40356   2.269   0.235   9.754 -0.2742 -0.1532  0.0453
  293MOL0     C40357   2.246   0.153   9.885  0.2776 -0.5181  0.5802
  293MOL0     C40358   2.332   0.207   9.994  0.0362 -0.1490 -0.0219
  293MOL0     C40359   2.318   0.144  10.127 -0.7589  0.3803 -0.1389
  293MOL0     C40360   2.429   0.185  10.219  0.1870 -0.5820 -0.0969
  293MOL0     C40361   2.519   0.235  10.282 -0.2059 -0.5593 -0.2820
  293MOL0     C40362   2.315   0.472   9.603  0.1923  0.4981  0.2862
  293MOL0     C40363   2.341   0.584   9.531  1.1661 -0.0790  0.7331
  293MOL0     C40364   2.443   0.577   9.410  0.2691  0.0037 -0.1137
  293MOL0     H40365   2.356   0.711   9.159  1.3392 -0.0702  1.8993
  293MOL0     H40366   2.417   0.817   8.973 -0.6973  0.5104 -0.9744
  293MOL0     H40367   2.405   1.139   8.748  2.3108  0.9004 -1.2179
  293MOL0     H40368   2.374   0.970   8.800 -1.4537  0.0650 -0.7600
  293MOL0     H40369   2.640   1.137   8.783  0.5581 -0.0651  2.0134
  293MOL0     H40370   2.628   1.006   8.894 -1.4961 -0.8684  0.5986
  293MOL0     H40371   2.560   0.860   8.736 -1.4588  0.3269  1.7180
  293MOL0     H40372   2.537   0.988   8.607 -1.7623 -0.1754  1.4449
  293MOL0     H40373   2.798   1.030   8.654 -1.0791  0.6542  0.8896
  293MOL0     H40374   2.788   0.868   8.727 -2.3318 -3.6814 -0.2828
  293MOL0     H40375   2.684   0.901   8.439  0.8711  0.3730 -0.2687
  293MOL0     H40376   2.715   0.757   8.528  2.4843 -0.4785 -0.1054
  293MOL0     H40377   2.930   0.753   8.511 -3.4571 -2.5303 -0.9488
  293MOL0     H40378   2.870   0.792   8.358 -1.4467 -2.4685  0.7160
  293MOL0     H40379   2.972   1.012   8.547  0.8391 -6.0206  2.8742
  293MOL0     H40380   2.926   1.038   8.377 -0.2705  0.9045 -0.5302
  293MOL0     H40381   3.138   0.840   8.447  1.2749 -0.7124 -1.8363
  293MOL0     H40382   3.122   0.918   8.295 -0.7619  0.4958  0.2335
  293MOL0     H40383   3.215   1.195   8.302  0.3160  2.9308  1.9379
  293MOL0     H40384   3.419   1.341   8.350 -1.0524  0.0494  1.5501
  293MOL0     H40385   3.523   1.200   8.303  2.3209 -1.4837  2.7842
  293MOL0     H40386   3.649   1.213   8.495 -0.8337 -2.3772 -2.7889
  293MOL0     H40387   3.652   1.361   8.385 -2.0934  0.9930 -0.3231
  293MOL0     H40388   3.544   1.487   8.561 -0.9581  0.1126  1.1729
  293MOL0     H40389   3.481   1.345   8.641 -0.4493  0.2651 -1.3586
  293MOL0     H40390   3.678   1.427   8.775  2.1993 -0.3845  1.2628
  293MOL0     H40391   3.719   1.282   8.695 -1.9268  0.9962  0.2935
  293MOL0     H40392   3.946   1.595   8.472  0.4012  1.6195  1.4251
  293MOL0     H40393   4.161   1.656   8.371 -0.5316 -3.0458 -0.2163
  293MOL0     H40394   4.301   1.567   8.425 -0.9693 -0.0631 -1.9311
  293MOL0     H40395   4.258   1.719   8.511 -0.3404 -0.8349  1.1238
  293MOL0     H40396   4.147   1.515   8.922 -1.2079 -0.0639  0.8292
  293MOL0     H40397   3.998   1.678   9.015  0.0843 -0.4374  0.7117
  293MOL0     H40398   3.835   1.853   8.921 -3.2997  1.9847 -0.8252
  293MOL0     H40399   3.860   1.877   9.093 -0.8554  1.2551  0.2176
  293MOL0     H40400   3.855   2.126   9.003 -1.3076 -0.7771  1.6528
  293MOL0     H40401   3.781   2.068   8.858 -1.0077 -1.5420 -0.5794
  293MOL0     H40402   3.581   1.986   8.987  0.0776  1.0783 -2.1779
  293MOL0     H40403   3.613   2.154   9.024 -1.4281 -0.1767  1.8216
  293MOL0     H40404   3.728   2.100   9.236  0.3224  0.7702 -0.4276
  293MOL0     H40405   3.689   1.932   9.207 -0.0175  0.2769 -1.3329
  293MOL0     H40406   3.464   2.135   9.228 -1.5004 -1.7730 -2.6976
  293MOL0     H40407   3.457   1.958   9.222  1.9765 -1.9599  0.8851
  293MOL0     H40408   3.617   2.099   9.443 -0.7426 -0.0232  2.3911
  293MOL0     H40409   3.562   1.926   9.428  1.3540 -0.0228 -0.3489
  293MOL0     H40410   3.327   2.011   9.477  1.4621 -1.8037 -0.8188
  293MOL0     H40411   3.389   2.177   9.467 -1.0938 -0.3597 -0.0173
  293MOL0     H40412   3.506   1.993   9.661  0.6111 -0.7610 -1.9182
  293MOL0     H40413   3.362   2.095   9.707  1.6563  4.0349  1.2088
  293MOL0     H40414   4.190   1.996   8.818  3.5830  0.1382  1.3187
  293MOL0     H40415   4.358   1.839   8.722 -0.0946  2.1559  1.1109
  293MOL0     H40416   4.173   1.296   8.790 -1.9346  1.0490  2.9561
  293MOL0     H40417   3.945   1.274   8.753 -0.6713 -1.5809 -3.6777
  293MOL0     H40418   2.279   1.192   9.152  0.6073 -0.1914 -0.8595
  293MOL0     H40419   2.181   1.050   9.337  0.1582 -1.3475 -0.7620
  293MOL0     H40420   2.095   0.771   9.689  0.1185 -0.5522  1.8356
  293MOL0     H40421   2.067   0.563   9.815 -2.2862  0.8508 -3.4821
  293MOL0     H40422   2.221   0.190   9.667 -2.2224 -0.6576  1.3173
  293MOL0     H40423   2.378   0.245   9.743 -0.0534 -3.2730 -1.8960
  293MOL0     H40424   2.270   0.047   9.875 -0.7290 -0.6745 -0.5205
  293MOL0     H40425   2.140   0.162   9.913 -0.3696  1.2177 -1.9901
  293MOL0     H40426   2.438   0.201   9.967 -0.0552  0.8377 -0.6421
  293MOL0     H40427   2.286   0.305  10.010 -1.4993 -1.2377  2.9127
  293MOL0     H40428   2.329   0.040  10.094 -0.4558  0.0022  1.1090
  293MOL0     H40429   2.229   0.164  10.187 -1.4805 -1.0892 -0.6616
  293MOL0     H40430   2.572   0.277  10.366 -0.2286 -0.7172 -0.1881
  293MOL0     H40431   2.375   0.388   9.569 -0.2994  0.4532 -0.5137
  293MOL0     H40432   2.441   0.669   9.351  2.7507 -2.0339 -3.7243
  293MOL0     H40433   2.547   0.562   9.439  0.7863 -0.0321 -1.8620
  293MOL0     H40434   2.413   0.494   9.345  2.3506 -2.7138  2.1537
  294MOL0     O40435  11.151   1.215   9.042 -0.2976  0.2069 -0.1456
  294MOL0     C40436  11.216   1.276   9.131 -0.0066  0.2968 -0.1967
  294MOL0     O40437  11.164   1.357   9.229  0.2773 -0.1621  0.7934
  294MOL0     C40438  11.029   1.374   9.220  0.3470 -0.2953 -0.7341
  294MOL0     C40439  10.936   1.309   9.307 -0.6461 -0.4129 -0.5983
  294MOL0     C40440  10.798   1.324   9.293 -0.1777 -0.6669  0.3237
  294MOL0     C40441  10.746   1.388   9.176  0.0695 -0.1786  1.0786
  294MOL0     O40442  10.609   1.393   9.177 -0.1084 -0.1954 -0.1535
  294MOL0     C40443  10.536   1.442   9.067 -0.6805  0.3402 -0.3955
  294MOL0     C40444  10.392   1.400   9.092  0.3310 -0.3328 -0.2298
  294MOL0     C40445  10.396   1.248   9.089 -0.5729  0.4395  0.5896
  294MOL0     C40446  10.417   1.174   8.958  0.4632  0.1897  0.6550
  294MOL0     C40447  10.357   1.041   8.957 -0.2235  1.5112  0.0621
  294MOL0     C40448  10.420   0.944   9.053 -0.1802 -0.0638  0.3478
  294MOL0     C40449  10.563   0.914   9.029 -0.5388 -0.0082  0.2144
  294MOL0     C40450  10.626   0.819   9.130  0.0639 -1.0971  0.5158
  294MOL0     N40451  10.764   0.789   9.088 -0.0187 -0.5948 -0.0382
  294MOL0     C40452  10.869   0.874   9.079  0.2318 -0.2673  0.4970
  294MOL0     C40453  10.967   0.787   9.033 -0.0672 -0.8791  1.1215
  294MOL0     C40454  11.108   0.838   9.030  0.4321 -0.7106 -0.2935
  294MOL0     C40455  11.161   0.890   8.889  0.1659  0.9019  0.8535
  294MOL0     C40456  11.306   0.938   8.898  0.2024  0.5151  0.0438
  294MOL0     C40457  11.404   0.840   8.864  0.3197  0.5964 -0.4048
  294MOL0     O40458  11.407   0.731   8.962  1.0149 -0.4922  0.2239
  294MOL0     C40459  11.478   0.617   8.936  1.3006  0.3559 -0.7219
  294MOL0     C40460  11.452   0.509   9.022 -0.4609  0.5107  0.3634
  294MOL0     C40461  11.514   0.382   9.018  0.4351 -0.0657 -0.3000
  294MOL0     C40462  11.480   0.273   9.130  0.4979  0.3046  0.4056
  294MOL0     C40463  11.622   0.369   8.923  0.4374  0.4011 -0.4745
  294MOL0     C40464  11.701   0.246   8.909 -0.3150  0.9389  0.2438
  294MOL0     O40465  11.646   0.121   8.936 -0.4751  0.6221 -0.6553
  294MOL0     C40466  11.738   0.019   8.940 -0.4589  0.3521  0.5915
  294MOL0     C40467  11.767  -0.039   9.061 -0.6849  0.5481 -0.1917
  294MOL0     C40468  11.869  -0.136   9.082  0.0676  0.2268 -0.3248
  294MOL0     C40469  11.929  -0.180   8.963 -0.9068 -0.1633  0.1067
  294MOL0     O40470  12.040  -0.262   8.975 -0.5963 -0.5867 -0.2577
  294MOL0     C40471  12.153  -0.211   8.903  0.1442 -0.9866  0.6277
  294MOL0     C40472  12.257  -0.200   9.013 -0.0494  0.8604  0.5428
  294MOL0     C40473  12.327  -0.331   9.043 -0.9421  0.0330 -0.2103
  294MOL0     C40474  12.419  -0.313   9.164 -1.2551  0.1686  0.7306
  294MOL0     C40475  12.553  -0.254   9.135 -0.7292  0.3222  0.4170
  294MOL0     C40476  12.646  -0.355   9.063 -0.6288 -0.6066  0.4390
  294MOL0     C40477  12.792  -0.316   9.046 -0.1739  1.5615  0.4153
  294MOL0     C40478  12.811  -0.175   9.004 -0.0805 -0.1441  0.4143
  294MOL0    Cl40479  12.978  -0.122   9.044 -0.0068  0.1792 -0.2188
  294MOL0     C40480  11.889  -0.130   8.834  0.7545  0.2332 -0.8025
  294MOL0     C40481  11.795  -0.024   8.828 -0.3358  0.8240  0.1411
  294MOL0     O40482  11.816   0.269   8.870 -0.2336  0.3267  0.5484
  294MOL0     C40483  11.660   0.482   8.843 -0.2785 -0.5665 -0.2951
  294MOL0     C40484  11.591   0.603   8.853  0.1978 -0.7403 -0.7435
  294MOL0     N40485  10.921   0.665   8.998 -0.0927  0.6803  0.0609
  294MOL0     N40486  10.796   0.668   9.047 -0.0211  0.2204  0.4435
  294MOL0     C40487  10.836   1.453   9.094  0.7092 -0.3098  0.1133
  294MOL0     C40488  10.975   1.446   9.110  1.0463 -0.3251  0.4914
  294MOL0     C40489  11.357   1.260   9.135  0.3873 -0.6363 -0.1087
  294MOL0     C40490  11.418   1.248   9.258  0.0753 -0.5236 -0.4956
  294MOL0     C40491  11.559   1.233   9.266  0.1939  0.5129 -0.2943
  294MOL0     C40492  11.636   1.232   9.151 -0.3044  0.3910  0.6710
  294MOL0     O40493  11.767   1.230   9.172  0.0693 -0.0650  0.1425
  294MOL0     C40494  11.871   1.231   9.071 -0.0569  0.2560 -0.5429
  294MOL0     C40495  11.951   1.350   9.112  0.7969  0.2769  0.5786
  294MOL0     C40496  12.053   1.342   9.234 -0.7680 -0.5834 -0.1963
  294MOL0     C40497  12.184   1.271   9.207 -0.3471 -0.1239 -0.5259
  294MOL0     C40498  12.260   1.352   9.113 -0.1779  0.0325  0.8320
  294MOL0     C40499  12.345   1.406   9.047 -0.3515 -0.3336 -0.1593
  294MOL0     C40500  11.573   1.240   9.029 -0.0746  1.1091 -0.6669
  294MOL0     C40501  11.432   1.248   9.015 -0.8778  0.2904  0.1262
  294MOL0     C40502  11.375   1.276   8.884 -0.1622 -0.3511  0.5623
  294MOL0     H40503  10.960   1.259   9.400 -1.9484 -0.9111 -0.5156
  294MOL0     H40504  10.728   1.285   9.366 -0.3501 -0.0919  0.4725
  294MOL0     H40505  10.569   1.386   8.979 -0.3067  0.6351 -0.4437
  294MOL0     H40506  10.552   1.549   9.051  0.0331  0.7847  2.6433
  294MOL0     H40507  10.352   1.438   9.186  0.0059  0.6183 -0.7362
  294MOL0     H40508  10.322   1.435   9.016  0.4121  0.4495  0.0509
  294MOL0     H40509  10.461   1.213   9.170  1.3292  2.2667 -0.0387
  294MOL0     H40510  10.292   1.225   9.110 -1.1230  2.8746  0.8267
  294MOL0     H40511  10.371   1.234   8.879  4.1972  1.6321 -0.6339
  294MOL0     H40512  10.524   1.174   8.938  0.6219  2.0997  1.3171
  294MOL0     H40513  10.354   0.992   8.859 -2.0586  3.2106 -0.8207
  294MOL0     H40514  10.252   1.052   8.988 -0.9154  1.7152 -2.1699
  294MOL0     H40515  10.411   0.969   9.159  2.4373 -2.1503  1.1617
  294MOL0     H40516  10.354   0.857   9.050  0.5601 -0.6149 -0.2511
  294MOL0     H40517  10.624   1.005   9.032  1.3193 -1.2246  0.7945
  294MOL0     H40518  10.577   0.876   8.928 -0.6904  0.4379  0.0203
  294MOL0     H40519  10.613   0.869   9.227 -4.2737  1.5939 -1.1573
  294MOL0     H40520  10.580   0.720   9.139  0.3468 -1.4534 -1.5470
  294MOL0     H40521  10.881   0.979   9.104  1.0218  0.0386 -1.0442
  294MOL0     H40522  11.174   0.760   9.070 -1.4187 -3.0873 -1.5643
  294MOL0     H40523  11.102   0.930   9.088  1.2589  0.2159 -1.6299
  294MOL0     H40524  11.144   0.807   8.820 -1.3767  0.6897  1.4478
  294MOL0     H40525  11.106   0.973   8.844  1.2446  1.7611  1.0436
  294MOL0     H40526  11.316   1.010   8.817  3.3654 -0.0674 -0.1904
  294MOL0     H40527  11.329   0.983   8.995  3.4291  0.2964 -0.5090
  294MOL0     H40528  11.378   0.809   8.762 -1.9264 -4.4851  1.3528
  294MOL0     H40529  11.498   0.895   8.860  1.7166 -1.7018 -0.6104
  294MOL0     H40530  11.367   0.527   9.088 -0.9816  0.5974 -0.3249
  294MOL0     H40531  11.439   0.319   9.220 -0.5712  1.4001 -0.5970
  294MOL0     H40532  11.578   0.228   9.147 -0.3393 -2.2915 -1.0465
  294MOL0     H40533  11.413   0.199   9.086 -0.7278  2.0354 -0.7806
  294MOL0     H40534  11.718   0.012   9.143  1.1892  2.3042 -0.0875
  294MOL0     H40535  11.886  -0.162   9.186 -4.4997 -0.5301  0.4263
  294MOL0     H40536  12.184  -0.275   8.821  2.3231  1.1105 -0.3138
  294MOL0     H40537  12.134  -0.115   8.853  3.2181 -0.9889 -0.7243
  294MOL0     H40538  12.334  -0.143   8.959  0.6939 -1.0512 -0.5114
  294MOL0     H40539  12.218  -0.151   9.103 -0.9008  0.2707  0.4995
  294MOL0     H40540  12.385  -0.355   8.954  0.4498  2.0867  0.0788
  294MOL0     H40541  12.264  -0.418   9.065  1.9350 -1.9573  0.7555
  294MOL0     H40542  12.437  -0.413   9.204 -0.0265  0.4643  0.9474
  294MOL0     H40543  12.371  -0.252   9.241 -1.2672 -0.3313  1.1200
  294MOL0     H40544  12.546  -0.163   9.075  1.8017  1.3996  1.5671
  294MOL0     H40545  12.609  -0.211   9.220  1.9186  3.0196 -2.4277
  294MOL0     H40546  12.606  -0.372   8.963  1.1422 -0.3238 -0.3566
  294MOL0     H40547  12.654  -0.450   9.115 -1.7568 -2.1822 -2.0902
  294MOL0     H40548  12.829  -0.388   8.972  0.3569  2.5825 -0.3383
  294MOL0     H40549  12.837  -0.342   9.142  2.8022  1.5111 -0.8624
  294MOL0     H40550  12.748  -0.100   9.053 -0.8153  0.5661 -1.5097
  294MOL0     H40551  12.797  -0.171   8.896  1.0507 -0.8417  0.2278
  294MOL0     H40552  11.948  -0.176   8.755  0.8255 -0.3942 -0.3922
  294MOL0     H40553  11.760   0.022   8.736 -0.3241  1.2858  0.3683
  294MOL0     H40554  11.734   0.470   8.765 -0.5095 -1.7647 -0.3547
  294MOL0     H40555  11.613   0.682   8.782 -0.2232 -0.1139 -0.1966
  294MOL0     H40556  10.811   1.512   9.007  2.2419 -1.6281 -1.3088
  294MOL0     H40557  11.046   1.480   9.036 -0.3874  0.6053 -0.5159
  294MOL0     H40558  11.364   1.254   9.352 -3.3583 -0.0330 -2.3548
  294MOL0     H40559  11.607   1.218   9.362  2.8664  1.3934 -1.3818
  294MOL0     H40560  11.941   1.148   9.069 -1.2638 -0.7701 -1.4268
  294MOL0     H40561  11.833   1.253   8.971 -0.7731 -0.3224 -0.4037
  294MOL0     H40562  11.880   1.427   9.142 -2.0962 -2.5651  1.5684
  294MOL0     H40563  12.001   1.388   9.023 -3.7008  2.3872 -1.3448
  294MOL0     H40564  12.069   1.437   9.286 -2.7358 -1.8073  2.9955
  294MOL0     H40565  11.996   1.298   9.317 -3.2358  2.1773 -0.2895
  294MOL0     H40566  12.167   1.172   9.165 -0.5489 -1.0018  1.5353
  294MOL0     H40567  12.245   1.258   9.297 -0.5144  1.3685 -0.1611
  294MOL0     H40568  12.416   1.466   8.993 -0.8087 -0.6083 -1.0801
  294MOL0     H40569  11.637   1.249   8.942  0.4886  2.6894 -0.1338
  294MOL0     H40570  11.298   1.209   8.845  0.1844 -0.8913  0.8001
  294MOL0     H40571  11.338   1.379   8.894 -0.0089 -0.3714  1.4146
  294MOL0     H40572  11.456   1.268   8.811 -1.9428  1.1433 -1.7133
  295MOL0     O40573   8.186   2.358  10.049  0.5744  0.0399  0.1643
  295MOL0     C40574   8.136   2.306   9.949  0.0998 -0.6397  0.0602
  295MOL0     O40575   8.069   2.183   9.939 -0.5562  0.8657 -0.4241
  295MOL0     C40576   8.029   2.115  10.053  1.2090  0.1518  0.0783
  295MOL0     C40577   8.116   2.035  10.125 -0.2343  0.0376  0.0791
  295MOL0     C40578   8.072   1.959  10.229 -0.2336  0.4189  0.5199
  295MOL0     C40579   7.940   1.951  10.257  0.4159 -0.2957 -1.1415
  295MOL0     O40580   7.898   1.875  10.360 -0.3189  0.7632 -0.6284
  295MOL0     C40581   7.878   1.734  10.319  0.7166 -0.3572  0.4233
  295MOL0     C40582   7.781   1.654  10.411  0.1916 -0.1562 -0.4347
  295MOL0     C40583   7.685   1.741  10.494 -0.5831  0.0740  0.4365
  295MOL0     C40584   7.765   1.778  10.623  1.0522 -0.4491 -0.3714
  295MOL0     C40585   7.673   1.859  10.712  0.1551 -0.4130 -0.1567
  295MOL0     C40586   7.739   1.890  10.840 -0.5180  0.0759  0.4280
  295MOL0     C40587   7.801   2.032  10.840 -0.4157  0.6777  0.0088
  295MOL0     C40588   7.907   2.042  10.956  0.1942 -0.1163  0.6299
  295MOL0     N40589   7.921   2.176  11.014  0.8084 -0.4147  0.1963
  295MOL0     C40590   7.945   2.290  10.937  0.2631  0.2742  0.6278
  295MOL0     C40591   7.917   2.394  11.015 -0.1186  0.6299 -0.2565
  295MOL0     C40592   7.941   2.532  10.972  0.8356  1.2342  0.1605
  295MOL0     C40593   7.811   2.581  10.919 -0.6396 -0.5411  0.5823
  295MOL0     C40594   7.816   2.708  10.828 -0.2761 -0.7481 -0.5485
  295MOL0     C40595   7.687   2.756  10.770 -0.0654  1.1788  0.0455
  295MOL0     O40596   7.634   2.658  10.682  0.1801  1.1855  0.1633
  295MOL0     C40597   7.519   2.675  10.609  0.0270  0.6899  0.0532
  295MOL0     C40598   7.480   2.572  10.527  0.4995  0.2764  0.3057
  295MOL0     C40599   7.369   2.581  10.437 -0.8838 -0.5376  0.6502
  295MOL0     C40600   7.333   2.463  10.345 -0.2960  0.3277 -0.7921
  295MOL0     C40601   7.303   2.711  10.421 -1.1710  0.5025  0.0630
  295MOL0     C40602   7.183   2.738  10.341 -0.0031  0.5431  0.7930
  295MOL0     O40603   7.114   2.854  10.367  0.0311  0.0170  0.4002
  295MOL0     C40604   7.001   2.883  10.296  0.1121 -0.4371 -0.5244
  295MOL0     C40605   7.006   2.951  10.168  0.4939  0.3470 -0.4892
  295MOL0     C40606   6.885   3.001  10.102 -0.3638 -0.2315  0.7940
  295MOL0     C40607   6.757   2.973  10.158  0.8083 -0.7222  0.1408
  295MOL0     O40608   6.639   3.010  10.095  0.6306  0.1530  0.3838
  295MOL0     C40609   6.651   3.085   9.977 -0.2275  0.2774 -0.2892
  295MOL0     C40610   6.508   3.110   9.927 -0.8545  0.4981  0.4792
  295MOL0     C40611   6.468   2.993   9.835  0.2434  0.6175  0.2002
  295MOL0     C40612   6.373   2.896   9.899 -0.4965 -0.3482  0.5579
  295MOL0     C40613   6.330   2.787   9.804  0.4311  0.7030  0.2113
  295MOL0     C40614   6.271   2.656   9.868 -0.4476 -0.2935  0.0064
  295MOL0     C40615   6.161   2.691   9.968 -0.2751 -0.0335  0.5930
  295MOL0     C40616   6.018   2.699   9.897 -0.5351  0.3475 -0.3066
  295MOL0    Cl40617   5.895   2.735  10.013  0.1456  0.2062  0.5787
  295MOL0     C40618   6.757   2.906  10.279 -0.0305 -0.8305  0.1303
  295MOL0     C40619   6.874   2.863  10.349  0.6672 -0.6023  0.0609
  295MOL0     O40620   7.151   2.665  10.251 -0.0978 -0.4860 -0.0818
  295MOL0     C40621   7.354   2.820  10.495 -0.7949 -0.0234  0.8105
  295MOL0     C40622   7.451   2.801  10.587 -0.9569  0.8966  0.1407
  295MOL0     N40623   7.892   2.347  11.143 -0.3757  0.0356 -0.5323
  295MOL0     N40624   7.895   2.219  11.142  0.6158  0.6016  1.1046
  295MOL0     C40625   7.844   2.016  10.182 -0.6901 -0.2185 -0.5136
  295MOL0     C40626   7.888   2.102  10.079 -0.3665 -0.3537 -0.5915
  295MOL0     C40627   8.156   2.389   9.828  0.4389  0.0610  0.4462
  295MOL0     C40628   8.166   2.322   9.704 -0.6718  0.7531  0.4130
  295MOL0     C40629   8.197   2.390   9.580  0.6329 -0.0533 -0.3203
  295MOL0     C40630   8.203   2.534   9.586  0.2881  0.2096  0.5043
  295MOL0     O40631   8.236   2.608   9.473  0.3966  0.6960 -0.0247
  295MOL0     C40632   8.212   2.545   9.343  0.6731 -0.5531  0.3599
  295MOL0     C40633   8.216   2.646   9.225 -0.2262  0.5698 -0.2451
  295MOL0     C40634   8.076   2.677   9.178  0.1369 -0.3474  0.6815
  295MOL0     C40635   8.068   2.805   9.098 -0.4935 -0.5424  0.0618
  295MOL0     C40636   8.074   2.910   9.195 -0.2589 -0.2798 -0.2759
  295MOL0     C40637   8.084   3.004   9.263 -0.5021  0.5003 -0.1277
  295MOL0     C40638   8.188   2.598   9.706  0.0830  0.0030 -0.8138
  295MOL0     C40639   8.156   2.527   9.822  0.6586  0.8885 -0.3069
  295MOL0     C40640   8.105   2.611   9.940 -0.0209 -0.5530  0.8573
  295MOL0     H40641   8.221   2.027  10.098 -0.0859  2.7588 -0.3597
  295MOL0     H40642   8.145   1.894  10.275  0.0440 -1.2830 -2.0813
  295MOL0     H40643   7.978   1.690  10.315  0.8513 -0.2661  2.2138
  295MOL0     H40644   7.834   1.748  10.219  3.5126  0.0685 -0.8545
  295MOL0     H40645   7.721   1.581  10.355 -3.6868  1.1478  1.6628
  295MOL0     H40646   7.846   1.598  10.479  1.5785  2.1433  0.2277
  295MOL0     H40647   7.673   1.830  10.431 -0.8943 -0.3196 -0.0675
  295MOL0     H40648   7.591   1.689  10.512 -1.7027  1.4775 -1.0334
  295MOL0     H40649   7.773   1.684  10.677 -0.5201 -0.0306  0.6579
  295MOL0     H40650   7.864   1.821  10.603  2.9684 -4.0410  0.6208
  295MOL0     H40651   7.580   1.801  10.711  0.9985 -1.8590 -2.7564
  295MOL0     H40652   7.664   1.946  10.647  1.3342 -0.7168 -0.7516
  295MOL0     H40653   7.651   1.886  10.905 -2.1622 -3.8892 -1.7370
  295MOL0     H40654   7.817   1.822  10.874  2.0750  2.6516  0.0664
  295MOL0     H40655   7.729   2.114  10.845 -0.3294  1.0747 -2.9961
  295MOL0     H40656   7.856   2.056  10.749  0.2507 -1.3729 -0.1808
  295MOL0     H40657   7.867   1.971  11.030 -1.1371 -0.4351 -0.3617
  295MOL0     H40658   8.007   2.008  10.927 -0.4810 -2.5880  0.9614
  295MOL0     H40659   7.972   2.288  10.832  1.5849  0.9707  0.9339
  295MOL0     H40660   8.026   2.539  10.903 -1.3744  0.1055 -2.8835
  295MOL0     H40661   7.968   2.585  11.064  0.8313 -2.0095  2.1943
  295MOL0     H40662   7.757   2.503  10.863 -2.1627 -1.0941  2.6998
  295MOL0     H40663   7.746   2.610  11.002  0.1698  1.2451  0.6290
  295MOL0     H40664   7.848   2.784  10.900 -1.8140  0.5022 -1.1579
  295MOL0     H40665   7.897   2.689  10.757 -0.7039  0.5297 -1.4005
  295MOL0     H40666   7.614   2.759  10.852 -0.3158  0.9244 -0.1690
  295MOL0     H40667   7.705   2.856  10.729  4.0252  0.3901 -0.5595
  295MOL0     H40668   7.526   2.476  10.544 -1.6955 -0.8478  0.2416
  295MOL0     H40669   7.407   2.384  10.333  0.9968  1.4347 -0.3746
  295MOL0     H40670   7.310   2.502  10.246  2.8558  2.4306 -0.8475
  295MOL0     H40671   7.245   2.412  10.385  1.1792 -1.6874  0.0413
  295MOL0     H40672   7.104   2.973  10.128  0.5768 -1.0352 -1.1051
  295MOL0     H40673   6.911   3.054  10.010 -3.0127 -0.8357 -0.4180
  295MOL0     H40674   6.700   3.183   9.983 -1.3336  0.8887 -0.9192
  295MOL0     H40675   6.708   3.026   9.904  0.3163 -0.7607  0.9214
  295MOL0     H40676   6.446   3.115  10.017 -3.1509  0.7985 -1.0405
  295MOL0     H40677   6.506   3.207   9.877 -1.2359 -0.4084 -1.3393
  295MOL0     H40678   6.549   2.933   9.793 -2.0606 -1.2160 -1.9662
  295MOL0     H40679   6.410   3.030   9.749  0.7708 -3.0046 -1.9318
  295MOL0     H40680   6.290   2.964   9.921 -0.4015 -0.3811  1.0217
  295MOL0     H40681   6.425   2.851   9.985  1.7796 -0.8713 -1.0060
  295MOL0     H40682   6.253   2.818   9.732 -1.4604 -1.6252  1.1214
  295MOL0     H40683   6.419   2.759   9.747 -0.7411 -3.4839  0.1659
  295MOL0     H40684   6.355   2.611   9.921 -0.6542  0.5874  1.1313
  295MOL0     H40685   6.229   2.579   9.803 -1.8426  1.0360 -0.7259
  295MOL0     H40686   6.172   2.785  10.023  1.2940  0.3870 -0.3603
  295MOL0     H40687   6.160   2.616  10.047  0.8415 -0.0051  0.6466
  295MOL0     H40688   5.990   2.602   9.854 -1.2329  0.8873 -1.1039
  295MOL0     H40689   6.005   2.768   9.813 -0.4584  0.2115 -0.4315
  295MOL0     H40690   6.659   2.879  10.316 -0.7530  1.7215  0.2842
  295MOL0     H40691   6.879   2.812  10.444  2.3182  1.4601  1.1432
  295MOL0     H40692   7.304   2.915  10.482 -2.2066 -0.8713 -0.3967
  295MOL0     H40693   7.482   2.883  10.650  0.3819  1.4321 -1.1464
  295MOL0     H40694   7.738   1.997  10.192 -1.2324  2.6779  0.2381
  295MOL0     H40695   7.819   2.139  10.004  0.4750  2.1851 -0.2118
  295MOL0     H40696   8.163   2.214   9.704 -2.1431  0.7524 -1.0541
  295MOL0     H40697   8.203   2.335   9.486  0.5086 -0.9235  0.1787
  295MOL0     H40698   8.290   2.469   9.327  1.0780  0.2616 -1.8605
  295MOL0     H40699   8.113   2.501   9.358  0.4155 -0.1432 -0.1152
  295MOL0     H40700   8.269   2.609   9.137  0.6624 -2.0288  1.2915
  295MOL0     H40701   8.262   2.741   9.253 -0.8820  0.3122  1.8466
  295MOL0     H40702   8.035   2.596   9.118  2.2469 -1.0449  0.0829
  295MOL0     H40703   8.021   2.695   9.271  1.8533 -0.8468  1.8373
  295MOL0     H40704   7.977   2.808   9.037 -1.9628  0.6805  2.1742
  295MOL0     H40705   8.155   2.821   9.034  0.2341 -0.5119  1.0207
  295MOL0     H40706   8.120   3.083   9.325 -0.9095 -2.5491  4.4558
  295MOL0     H40707   8.199   2.705   9.720  0.1752  0.0542 -1.2731
  295MOL0     H40708   8.075   2.713   9.911 -0.1533 -1.3816 -2.3776
  295MOL0     H40709   8.026   2.553   9.988  1.3438 -3.6528 -0.3740
  295MOL0     H40710   8.187   2.622  10.011  2.5485 -2.3884 -1.6223
  296MOL0     O40711  10.655   8.783   7.329  0.6614 -1.1336 -0.1460
  296MOL0     C40712  10.742   8.710   7.356  0.1191  0.0118 -0.7033
  296MOL0     O40713  10.765   8.593   7.283 -0.3836 -0.5878 -0.3631
  296MOL0     C40714  10.700   8.582   7.160 -0.4522 -0.7518 -0.0979
  296MOL0     C40715  10.563   8.569   7.148  0.0334  0.3629  0.8767
  296MOL0     C40716  10.501   8.573   7.032  0.3717 -0.5382  0.0503
  296MOL0     C40717  10.573   8.600   6.914 -0.2912  0.3753 -0.1372
  296MOL0     O40718  10.523   8.616   6.786  0.2876  0.0455 -0.4373
  296MOL0     C40719  10.383   8.594   6.773 -0.4860  1.2788 -0.2027
  296MOL0     C40720  10.348   8.612   6.628 -0.1249  0.3767  0.8859
  296MOL0     C40721  10.401   8.739   6.567 -0.7101  0.6131 -0.7039
  296MOL0     C40722  10.369   8.716   6.420  0.2072  0.6238 -0.7571
  296MOL0     C40723  10.422   8.840   6.330  0.3186 -0.2617 -0.0087
  296MOL0     C40724  10.571   8.883   6.357 -0.3730  0.3031  0.3175
  296MOL0     C40725  10.600   9.022   6.279  0.1801 -0.3498 -1.0696
  296MOL0     C40726  10.595   9.021   6.135  0.1947  0.9530  0.2384
  296MOL0     N40727  10.706   8.930   6.085  0.4261 -0.5613 -0.0662
  296MOL0     C40728  10.841   8.966   6.069 -0.2135  1.0562 -0.5468
  296MOL0     C40729  10.899   8.852   6.024 -0.3610 -0.4679  1.2073
  296MOL0     C40730  11.038   8.832   5.975  0.2454 -0.1058  1.1665
  296MOL0     C40731  11.133   8.790   6.087  0.8306  0.2589  0.2112
  296MOL0     C40732  11.177   8.649   6.087 -0.1393 -0.0662 -1.0159
  296MOL0     C40733  11.058   8.567   6.159 -0.0046 -0.9774  1.8672
  296MOL0     O40734  11.098   8.427   6.155  0.5336 -0.1443 -0.1476
  296MOL0     C40735  11.201   8.391   6.232  0.7436  0.1326 -0.1810
  296MOL0     C40736  11.283   8.289   6.184 -0.4549  0.4820 -0.3941
  296MOL0     C40737  11.397   8.244   6.244  0.0262 -0.7523  1.0511
  296MOL0     C40738  11.483   8.144   6.166 -0.2834  0.2672  0.4498
  296MOL0     C40739  11.429   8.290   6.377  0.8225  1.2849  0.4412
  296MOL0     C40740  11.544   8.237   6.452 -0.4686 -0.3842  0.4657
  296MOL0     O40741  11.567   8.308   6.568  0.5241 -0.0262 -0.5317
  296MOL0     C40742  11.662   8.283   6.658 -0.2666 -0.2585 -0.3225
  296MOL0     C40743  11.762   8.370   6.692 -0.2271 -0.0299 -0.1761
  296MOL0     C40744  11.863   8.346   6.787 -0.2309  0.8313  0.4683
  296MOL0     C40745  11.848   8.229   6.857  0.4038  0.1758 -0.1224
  296MOL0     O40746  11.928   8.191   6.967 -0.8065  0.2033  0.4804
  296MOL0     C40747  12.066   8.237   6.948 -0.7566 -0.3719 -0.8415
  296MOL0     C40748  12.155   8.145   7.036  0.2527 -0.0357  0.8553
  296MOL0     C40749  12.152   7.995   7.004  0.4410  0.1204 -0.3568
  296MOL0     C40750  12.201   7.951   6.869 -0.5687 -0.5307  0.0086
  296MOL0     C40751  12.197   7.798   6.857  0.8980  0.4883  1.4182
  296MOL0     C40752  12.229   7.755   6.708  0.4452 -0.2868 -0.3248
  296MOL0     C40753  12.375   7.766   6.657 -0.1647 -0.0547  0.3299
  296MOL0     C40754  12.471   7.682   6.739  0.0208 -0.1812  0.8639
  296MOL0    Cl40755  12.476   7.515   6.672  0.3005 -0.1133  0.7733
  296MOL0     C40756  11.745   8.137   6.824  0.2455  0.0626 -0.8935
  296MOL0     C40757  11.646   8.165   6.724  0.8164 -0.6052 -0.2280
  296MOL0     O40758  11.631   8.169   6.403  0.6743  0.0965  0.5167
  296MOL0     C40759  11.341   8.392   6.428  0.9924  0.1375  0.2019
  296MOL0     C40760  11.234   8.448   6.353  0.1942  0.0462  0.2852
  296MOL0     N40761  10.805   8.762   5.995 -0.5510  0.0095  0.7524
  296MOL0     N40762  10.692   8.807   6.041  0.2826 -0.8115  1.1517
  296MOL0     C40763  10.717   8.624   6.919  1.1369 -0.1148 -0.3891
  296MOL0     C40764  10.778   8.603   7.043  1.0315  0.5650  0.2435
  296MOL0     C40765  10.820   8.740   7.477  0.2796 -0.9849  0.0918
  296MOL0     C40766  10.840   8.881   7.504  0.0170 -0.2242 -0.0352
  296MOL0     C40767  10.901   8.915   7.629 -0.4062  0.0290  0.7005
  296MOL0     C40768  10.946   8.816   7.722  0.3408 -0.8993 -0.0448
  296MOL0     O40769  11.013   8.840   7.832  1.1442  0.3347 -0.3364
  296MOL0     C40770  11.108   8.949   7.850 -0.5098 -0.2035 -0.2713
  296MOL0     C40771  11.041   9.062   7.923  0.3934 -0.7524  0.0956
  296MOL0     C40772  11.041   9.025   8.069 -0.1683 -0.1423 -0.0021
  296MOL0     C40773  10.949   9.107   8.149 -0.1653  0.2723  0.3920
  296MOL0     C40774  10.962   9.092   8.291 -0.4466  0.9768  0.1091
  296MOL0     C40775  10.988   9.069   8.404  0.5513  0.1896 -0.1272
  296MOL0     C40776  10.923   8.679   7.688  0.2299  0.0199 -0.2392
  296MOL0     C40777  10.855   8.639   7.574 -0.4403  0.1971  0.6441
  296MOL0     C40778  10.862   8.491   7.552 -0.4796  0.2779  0.2718
  296MOL0     H40779  10.515   8.548   7.244  1.0536  0.9355  1.5305
  296MOL0     H40780  10.394   8.565   7.043  0.4972 -0.1541  1.7735
  296MOL0     H40781  10.323   8.669   6.824  1.9962  2.2189  1.5236
  296MOL0     H40782  10.359   8.493   6.809 -2.3313  2.1910  1.2646
  296MOL0     H40783  10.392   8.529   6.572 -1.5509 -0.4125  0.8638
  296MOL0     H40784  10.239   8.610   6.616  0.1115 -0.6064 -1.8448
  296MOL0     H40785  10.353   8.824   6.615  0.2170 -0.9285  3.3241
  296MOL0     H40786  10.507   8.755   6.587 -0.8904  1.6437 -0.4891
  296MOL0     H40787  10.416   8.623   6.387 -0.6522 -1.6172  3.5569
  296MOL0     H40788  10.260   8.711   6.411  0.3125  0.5180 -2.1427
  296MOL0     H40789  10.344   8.912   6.356  0.1898 -0.8859  1.4212
  296MOL0     H40790  10.405   8.810   6.226 -0.1228  1.1667 -0.3805
  296MOL0     H40791  10.600   8.906   6.460  1.0579  0.7531 -0.1547
  296MOL0     H40792  10.638   8.808   6.314 -0.6686 -0.4322  1.1181
  296MOL0     H40793  10.700   9.047   6.317 -0.8518  2.8821 -0.1154
  296MOL0     H40794  10.536   9.104   6.312  1.2814  0.7185 -1.5217
  296MOL0     H40795  10.495   8.992   6.100  1.3612 -1.3447 -1.4951
  296MOL0     H40796  10.616   9.120   6.095  2.3620  0.5985  0.3935
  296MOL0     H40797  10.882   9.061   6.101 -1.7376  1.7499 -0.5547
  296MOL0     H40798  11.066   8.918   5.914 -0.4081  0.3736  1.5267
  296MOL0     H40799  11.057   8.756   5.899  2.1485  1.0404  0.4236
  296MOL0     H40800  11.229   8.841   6.074  0.2411  0.7965 -2.4928
  296MOL0     H40801  11.099   8.825   6.185  0.7383 -3.4261  1.6694
  296MOL0     H40802  11.202   8.615   5.986 -0.9810  4.5132 -2.9870
  296MOL0     H40803  11.269   8.649   6.146  0.2964 -1.3193 -1.6486
  296MOL0     H40804  11.040   8.600   6.262  2.1969  0.0013  2.0084
  296MOL0     H40805  10.966   8.578   6.102  0.6292 -1.1298  0.7853
  296MOL0     H40806  11.270   8.257   6.081  2.0435 -2.6335  0.0963
  296MOL0     H40807  11.584   8.178   6.142 -0.4463  0.2773 -0.2285
  296MOL0     H40808  11.442   8.111   6.070 -0.0053  0.7016  0.1767
  296MOL0     H40809  11.500   8.058   6.232  2.9133 -0.1749 -0.7763
  296MOL0     H40810  11.754   8.464   6.639 -1.1197 -0.6944 -1.2732
  296MOL0     H40811  11.945   8.415   6.803  2.2890 -1.1156 -2.7391
  296MOL0     H40812  12.103   8.218   6.847  0.6731 -0.8704 -0.2430
  296MOL0     H40813  12.073   8.341   6.980 -1.4503 -0.7280  0.5199
  296MOL0     H40814  12.259   8.176   7.036  1.1640 -2.7212  3.1827
  296MOL0     H40815  12.126   8.160   7.140 -1.0304  0.2753  0.4722
  296MOL0     H40816  12.046   7.969   7.010  0.4208 -0.2697 -2.0113
  296MOL0     H40817  12.198   7.938   7.086  1.7332  2.3663  0.5681
  296MOL0     H40818  12.308   7.973   6.856 -0.1731 -1.2056  1.8743
  296MOL0     H40819  12.150   8.007   6.790 -1.5292 -1.2805  0.0736
  296MOL0     H40820  12.266   7.750   6.927 -0.9083 -0.8953  2.3146
  296MOL0     H40821  12.098   7.770   6.894  0.0298  2.7083  0.9338
  296MOL0     H40822  12.162   7.824   6.654 -1.6018 -0.3472  1.9497
  296MOL0     H40823  12.188   7.655   6.692  0.3234 -0.4045  0.6820
  296MOL0     H40824  12.402   7.872   6.658  0.6503 -0.2485 -0.2926
  296MOL0     H40825  12.386   7.744   6.551 -1.3494 -0.1924  0.2156
  296MOL0     H40826  12.443   7.687   6.845 -1.9821 -0.0694  0.3558
  296MOL0     H40827  12.567   7.731   6.721  0.1159 -1.5352 -3.6342
  296MOL0     H40828  11.740   8.043   6.879 -0.7830  2.1196  2.8996
  296MOL0     H40829  11.570   8.095   6.690 -1.8108  2.7696 -1.9090
  296MOL0     H40830  11.370   8.436   6.524 -0.3462  2.3778 -0.3546
  296MOL0     H40831  11.181   8.525   6.407  0.4398 -0.9500  2.0499
  296MOL0     H40832  10.774   8.641   6.828  1.7336  0.5416  0.0975
  296MOL0     H40833  10.885   8.618   7.052  1.5161 -0.6445 -2.2856
  296MOL0     H40834  10.804   8.956   7.435 -1.6654 -0.3443  0.6531
  296MOL0     H40835  10.926   9.018   7.654 -0.5344  0.0269  0.8394
  296MOL0     H40836  11.197   8.925   7.908  0.8156 -0.0961 -2.1576
  296MOL0     H40837  11.151   8.986   7.756 -1.7741  0.7642 -0.5071
  296MOL0     H40838  10.939   9.057   7.886 -0.0937 -1.9743  1.4926
  296MOL0     H40839  11.090   9.154   7.891  0.5800 -0.0993  2.1316
  296MOL0     H40840  11.015   8.919   8.072  1.3512 -0.5297  3.0705
  296MOL0     H40841  11.143   9.030   8.109 -0.0901 -1.7746  0.0895
  296MOL0     H40842  10.851   9.065   8.128 -0.1880  0.2499  0.5392
  296MOL0     H40843  10.945   9.213   8.120  2.6612 -0.1361 -2.0545
  296MOL0     H40844  11.005   9.057   8.509 -1.4348  1.5548  0.3994
  296MOL0     H40845  10.955   8.607   7.762  1.7600  0.2980 -0.5926
  296MOL0     H40846  10.852   8.456   7.449  0.8548 -0.6010  0.4178
  296MOL0     H40847  10.942   8.435   7.602 -1.3624 -1.7026 -0.4308
  296MOL0     H40848  10.767   8.454   7.591  0.3252 -0.5126  1.5779
  297MOL0     O40849   9.689   4.976   4.955  0.2491  0.0763  0.1047
  297MOL0     C40850   9.728   4.905   4.856  0.6928 -0.1616 -0.7417
  297MOL0     O40851   9.755   4.956   4.738 -0.3577 -0.8580 -0.1299
  297MOL0     C40852   9.789   5.091   4.712 -0.8352  0.0968  0.5857
  297MOL0     C40853   9.878   5.166   4.797 -0.4175 -0.3975 -0.0687
  297MOL0     C40854   9.934   5.281   4.746 -0.8144  0.5568 -0.3486
  297MOL0     C40855   9.897   5.333   4.620  0.4596  0.1040 -0.3305
  297MOL0     O40856   9.945   5.454   4.566 -0.3385  0.0879 -0.2891
  297MOL0     C40857  10.029   5.546   4.634 -0.2628  0.2632  0.2911
  297MOL0     C40858  10.176   5.540   4.598 -0.1085 -0.7409  0.2602
  297MOL0     C40859  10.255   5.415   4.634 -0.1214  0.7667  0.4487
  297MOL0     C40860  10.274   5.385   4.789  0.5406 -0.6727  0.3805
  297MOL0     C40861  10.419   5.361   4.828 -0.5861  0.2964 -0.3534
  297MOL0     C40862  10.459   5.372   4.970  0.7985  0.7565 -0.0290
  297MOL0     C40863  10.604   5.332   4.990  0.0568  0.1107 -0.0081
  297MOL0     C40864  10.614   5.299   5.136  0.1404 -0.8167 -0.1699
  297MOL0     N40865  10.749   5.263   5.183 -0.2898 -0.0871 -0.4771
  297MOL0     C40866  10.838   5.351   5.235 -0.4161 -1.1354  0.8341
  297MOL0     C40867  10.961   5.323   5.193 -0.6620  0.1116 -0.2689
  297MOL0     C40868  11.089   5.401   5.218 -0.3632 -0.8216  0.0021
  297MOL0     C40869  11.157   5.431   5.082 -0.4058 -0.4567 -0.6130
  297MOL0     C40870  11.107   5.555   5.013 -0.3298 -0.7114 -0.9141
  297MOL0     C40871  11.154   5.690   5.071 -0.1645  0.9344  0.6053
  297MOL0     O40872  11.116   5.792   4.986 -0.3568 -0.3615  0.7185
  297MOL0     C40873  11.190   5.910   4.991  0.3020  0.1983  0.1277
  297MOL0     C40874  11.283   5.950   5.088 -0.1164 -0.7119 -0.0239
  297MOL0     C40875  11.337   6.087   5.091  0.2497  0.9892  0.1327
  297MOL0     C40876  11.440   6.129   5.194 -0.2711  0.0231 -0.3779
  297MOL0     C40877  11.283   6.178   4.997  0.0286  0.1713  0.4312
  297MOL0     C40878  11.326   6.321   4.980 -0.8176  0.6955  0.1348
  297MOL0     O40879  11.264   6.382   4.876 -0.0808 -0.3287  0.4665
  297MOL0     C40880  11.247   6.520   4.866  0.0187 -0.5231 -0.1024
  297MOL0     C40881  11.348   6.618   4.882 -1.0819  0.8144  0.1860
  297MOL0     C40882  11.333   6.744   4.838  0.9733 -0.8220 -0.0037
  297MOL0     C40883  11.209   6.802   4.795  0.0230 -0.0137  0.4492
  297MOL0     O40884  11.184   6.935   4.768  0.4735  0.1578 -0.1005
  297MOL0     C40885  11.267   7.033   4.822 -0.4285  1.4273 -0.5638
  297MOL0     C40886  11.207   7.166   4.794  0.5145  0.0779 -0.8272
  297MOL0     C40887  11.072   7.190   4.884 -0.7592 -0.2177 -0.1981
  297MOL0     C40888  11.012   7.325   4.879 -0.1117 -1.4145 -0.4429
  297MOL0     C40889  10.910   7.349   4.997 -0.4423 -0.4137  0.1357
  297MOL0     C40890  10.784   7.267   4.986  0.2242  0.5285  0.3867
  297MOL0     C40891  10.725   7.311   4.855 -0.7106  0.5885 -0.2570
  297MOL0     C40892  10.569   7.284   4.856 -1.1378 -0.6913 -0.4592
  297MOL0    Cl40893  10.499   7.373   4.720  0.1089  0.2645 -0.1977
  297MOL0     C40894  11.113   6.706   4.768  0.9960 -0.5030  0.8566
  297MOL0     C40895  11.128   6.576   4.812  0.0945 -0.5138 -0.2091
  297MOL0     O40896  11.401   6.376   5.059  0.3318 -0.2239  0.5146
  297MOL0     C40897  11.187   6.137   4.909 -0.4771  0.1847  0.7200
  297MOL0     C40898  11.140   6.009   4.907  0.2166 -0.9143  0.3652
  297MOL0     N40899  10.947   5.197   5.134 -0.3118 -0.5799  0.5544
  297MOL0     N40900  10.818   5.165   5.131 -0.4139 -0.3273 -0.3843
  297MOL0     C40901   9.797   5.271   4.542 -1.1025 -0.4015  0.3096
  297MOL0     C40902   9.750   5.148   4.586 -0.8265  0.4581 -1.2963
  297MOL0     C40903   9.717   4.754   4.871 -0.2748 -0.4128  0.9879
  297MOL0     C40904   9.664   4.708   4.988  0.2922 -0.1444  0.5126
  297MOL0     C40905   9.635   4.565   5.009  0.1999 -0.7941  0.2802
  297MOL0     C40906   9.661   4.475   4.918 -0.5739  0.6234 -0.3112
  297MOL0     O40907   9.630   4.339   4.918  0.0029  0.4602 -0.0628
  297MOL0     C40908   9.519   4.296   5.000 -0.7555 -0.2769 -0.6059
  297MOL0     C40909   9.509   4.142   4.997  1.1631 -0.2348 -0.7986
  297MOL0     C40910   9.423   4.077   5.101  0.6658 -1.1269  0.0655
  297MOL0     C40911   9.346   3.964   5.046 -0.4102  0.4132 -0.1048
  297MOL0     C40912   9.239   4.014   4.953  0.2899 -0.1734 -0.5304
  297MOL0     C40913   9.156   4.056   4.876  0.0941 -0.2875  0.4950
  297MOL0     C40914   9.723   4.522   4.802  0.8659  0.5267  0.3540
  297MOL0     C40915   9.754   4.657   4.773 -0.2432 -0.6376 -0.2659
  297MOL0     C40916   9.816   4.688   4.640 -0.4436  0.9582 -0.0388
  297MOL0     H40917   9.920   5.139   4.893  0.1010  1.3585  0.2328
  297MOL0     H40918  10.013   5.337   4.794 -1.9295  1.5302  0.4044
  297MOL0     H40919  10.004   5.542   4.741  0.7127  0.7803  0.5602
  297MOL0     H40920   9.993   5.647   4.612  1.3299  0.8032 -0.0301
  297MOL0     H40921  10.162   5.549   4.489  1.1937 -0.5969  0.0836
  297MOL0     H40922  10.237   5.625   4.629 -1.4077  0.3965 -0.2038
  297MOL0     H40923  10.208   5.328   4.588 -1.1398  0.8358  1.3127
  297MOL0     H40924  10.359   5.413   4.600 -0.5393 -4.2112 -1.3153
  297MOL0     H40925  10.247   5.480   4.836  0.6251  0.7125 -2.1997
  297MOL0     H40926  10.212   5.303   4.826  0.2707 -1.5870 -1.9426
  297MOL0     H40927  10.481   5.435   4.777 -1.2032 -0.3938 -2.1902
  297MOL0     H40928  10.452   5.267   4.782  0.8734 -0.5346  2.2194
  297MOL0     H40929  10.456   5.475   5.006  0.0925  0.4274  0.8690
  297MOL0     H40930  10.390   5.308   5.025  0.7487 -1.9553 -2.9716
  297MOL0     H40931  10.664   5.418   4.960 -0.9663  0.7087 -0.3613
  297MOL0     H40932  10.640   5.251   4.927  0.4862 -1.5885  2.2618
  297MOL0     H40933  10.595   5.394   5.185 -1.7879  0.5897 -3.3411
  297MOL0     H40934  10.543   5.223   5.171  0.4704 -0.8316  0.4809
  297MOL0     H40935  10.814   5.442   5.290  2.1593  1.5284 -2.0361
  297MOL0     H40936  11.163   5.342   5.274  2.0975  0.0543 -2.1425
  297MOL0     H40937  11.072   5.495   5.270 -2.5741  0.1681 -2.3437
  297MOL0     H40938  11.263   5.453   5.100  0.3726 -1.4172 -3.4738
  297MOL0     H40939  11.160   5.341   5.021  2.1632 -0.8176 -0.0759
  297MOL0     H40940  11.132   5.552   4.906  0.1164 -1.0782 -0.8023
  297MOL0     H40941  10.998   5.560   5.013 -0.4273 -2.0169 -2.5268
  297MOL0     H40942  11.109   5.722   5.165 -2.0348 -0.7561  0.3502
  297MOL0     H40943  11.260   5.680   5.095  0.2261 -3.1827 -1.7802
  297MOL0     H40944  11.325   5.875   5.154 -1.8799 -1.6457  0.0794
  297MOL0     H40945  11.404   6.202   5.267  0.6665 -0.4866  0.6209
  297MOL0     H40946  11.535   6.158   5.150  0.7199 -3.5375 -0.9131
  297MOL0     H40947  11.467   6.041   5.254  0.2554  1.8028  2.1617
  297MOL0     H40948  11.441   6.575   4.919 -0.4776  1.8469 -0.0614
  297MOL0     H40949  11.418   6.812   4.835 -2.1405  3.6270  1.6772
  297MOL0     H40950  11.283   7.006   4.926  0.2810  0.2947 -0.9493
  297MOL0     H40951  11.359   7.012   4.766 -0.8095 -3.6311  0.2154
  297MOL0     H40952  11.277   7.247   4.819 -2.1518  1.7364  2.0871
  297MOL0     H40953  11.178   7.164   4.689  0.0098  2.4866 -0.7931
  297MOL0     H40954  11.092   7.167   4.989 -0.0762  1.3939  0.0493
  297MOL0     H40955  10.989   7.126   4.851 -2.1243  1.7238 -0.7309
  297MOL0     H40956  10.970   7.351   4.781 -1.3278  2.0920  0.8707
  297MOL0     H40957  11.095   7.395   4.894 -1.5081  1.1107 -3.2983
  297MOL0     H40958  10.952   7.312   5.091 -0.2111 -0.4798  0.0043
  297MOL0     H40959  10.895   7.458   5.001 -0.2479 -0.3912  0.2575
  297MOL0     H40960  10.718   7.287   5.071  0.1911 -0.4864  0.6081
  297MOL0     H40961  10.813   7.162   4.979 -2.7878 -0.5997  2.6902
  297MOL0     H40962  10.766   7.244   4.778 -1.6449 -0.1777 -0.1130
  297MOL0     H40963  10.744   7.418   4.843  0.2027  0.6303  1.3349
  297MOL0     H40964  10.523   7.330   4.944 -2.0863  1.6271 -2.0547
  297MOL0     H40965  10.549   7.177   4.850 -4.2824 -0.1814 -0.7866
  297MOL0     H40966  11.029   6.747   4.714  1.1940 -0.5609  0.5043
  297MOL0     H40967  11.042   6.511   4.804  1.6850 -2.8079  0.2101
  297MOL0     H40968  11.143   6.200   4.832 -0.1920 -1.0695 -0.5000
  297MOL0     H40969  11.057   5.991   4.839  0.5720  1.2978 -0.7439
  297MOL0     H40970   9.775   5.322   4.449 -0.0610 -0.7797 -0.1550
  297MOL0     H40971   9.707   5.081   4.512 -0.0963  0.0376 -1.3506
  297MOL0     H40972   9.637   4.784   5.060 -0.3462  0.2721 -0.1555
  297MOL0     H40973   9.587   4.537   5.102 -3.6786  0.9268 -1.0222
  297MOL0     H40974   9.533   4.323   5.105 -1.3011 -0.7934 -0.3970
  297MOL0     H40975   9.427   4.341   4.961  0.8138  3.2743 -0.5920
  297MOL0     H40976   9.609   4.097   5.001  1.5663  0.6014 -1.0198
  297MOL0     H40977   9.469   4.126   4.896 -1.7193 -0.0446  0.2451
  297MOL0     H40978   9.475   4.041   5.190  1.0705 -0.0865  0.2652
  297MOL0     H40979   9.345   4.151   5.122  0.8649 -1.2365  1.2160
  297MOL0     H40980   9.294   3.926   5.135 -0.1913  0.9597  0.2617
  297MOL0     H40981   9.407   3.889   4.994  2.1855  0.8193  2.1165
  297MOL0     H40982   9.097   4.114   4.807  0.1351 -2.1370 -1.1891
  297MOL0     H40983   9.755   4.447   4.731 -0.1312  0.6716 -0.2636
  297MOL0     H40984   9.893   4.766   4.645 -0.7535  1.2057  1.2379
  297MOL0     H40985   9.863   4.605   4.587 -1.5669  1.2821 -1.6032
  297MOL0     H40986   9.736   4.726   4.576 -1.5664  0.3658  0.9634
  298MOL0     O40987   1.222   9.245   0.713 -0.3682  0.7266  0.0725
  298MOL0     C40988   1.243   9.164   0.620 -0.5603  0.2401 -0.4997
  298MOL0     O40989   1.149   9.113   0.541  0.1112  0.8595  0.2359
  298MOL0     C40990   1.025   9.177   0.529 -0.9031 -0.3810  0.3068
  298MOL0     C40991   0.918   9.089   0.488  0.6388 -0.4682  0.0220
  298MOL0     C40992   0.789   9.139   0.465  0.0916  0.6486 -0.8275
  298MOL0     C40993   0.755   9.264   0.477  0.5633 -0.4863 -0.0262
  298MOL0     O40994   0.625   9.303   0.445 -0.0918 -0.5356 -0.3360
  298MOL0     C40995   0.592   9.442   0.444 -0.1258  0.6676 -0.5781
  298MOL0     C40996   0.455   9.449   0.388 -0.3748  0.4482  0.0637
  298MOL0     C40997   0.347   9.444   0.498  0.8248  0.1469 -0.5243
  298MOL0     C40998   0.228   9.379   0.442  0.4290  0.5153  0.8017
  298MOL0     C40999   0.120   9.341   0.544 -0.2189  0.3510  0.2427
  298MOL0     C41000   0.041   9.465   0.591  0.3871  0.8076 -0.1890
  298MOL0     C41001  -0.077   9.418   0.677 -0.1998 -0.1477  0.6870
  298MOL0     C41002  -0.144   9.542   0.734  0.1569 -0.2223 -0.4655
  298MOL0     N41003  -0.064   9.603   0.839  0.2012 -0.7235  1.0136
  298MOL0     C41004   0.019   9.709   0.820 -0.5666  0.5655 -0.5168
  298MOL0     C41005   0.073   9.728   0.941  0.3784 -0.4544  0.8524
  298MOL0     C41006   0.207   9.804   0.966  0.2651  0.0957  0.1851
  298MOL0     C41007   0.320   9.716   0.928  1.1113 -0.4470  0.2439
  298MOL0     C41008   0.453   9.785   0.970  0.4053 -0.9270  0.0650
  298MOL0     C41009   0.572   9.709   0.912  1.4037  0.2290 -0.9322
  298MOL0     O41010   0.577   9.736   0.777  0.4458 -0.3668  0.4105
  298MOL0     C41011   0.702   9.720   0.723 -0.0423 -0.2661  0.0007
  298MOL0     C41012   0.823   9.688   0.786 -0.1324 -0.2953 -0.2996
  298MOL0     C41013   0.943   9.688   0.727 -0.0453 -0.4986 -0.7899
  298MOL0     C41014   1.064   9.637   0.810  1.0995 -0.3787 -0.0167
  298MOL0     C41015   0.951   9.733   0.592  0.2963  1.2448  0.1773
  298MOL0     C41016   1.078   9.723   0.513 -0.4591 -0.6217 -0.8310
  298MOL0     O41017   1.082   9.810   0.411  0.0657 -0.3286  0.1385
  298MOL0     C41018   1.188   9.815   0.327  0.7195  0.1435 -0.3931
  298MOL0     C41019   1.168   9.818   0.191  0.3216 -0.1457 -0.4372
  298MOL0     C41020   1.276   9.808   0.095 -0.5748 -1.2928 -0.2568
  298MOL0     C41021   1.405   9.800   0.146 -0.3008  0.3351  0.3622
  298MOL0     O41022   1.516   9.793   0.071 -0.7759  0.1314 -0.3557
  298MOL0     C41023   1.500   9.733  -0.057  0.6031 -0.3367 -1.0543
  298MOL0     C41024   1.636   9.760  -0.145  0.7598 -0.2746  0.1151
  298MOL0     C41025   1.713   9.881  -0.094 -0.0919  0.2270  0.0351
  298MOL0     C41026   1.829   9.934  -0.180 -0.4628 -0.2876 -1.1391
  298MOL0     C41027   1.937   9.832  -0.193 -0.8932 -0.5834 -0.3695
  298MOL0     C41028   2.037   9.851  -0.307  0.5097 -0.3877  0.3750
  298MOL0     C41029   2.114   9.988  -0.294 -0.6595 -0.4435 -0.0337
  298MOL0     C41030   2.236   9.970  -0.201 -0.0910 -0.2930 -0.5074
  298MOL0    Cl41031   2.361   9.848  -0.256 -0.1117 -0.0151  0.2971
  298MOL0     C41032   1.427   9.810   0.281 -0.0483  0.0113 -0.9321
  298MOL0     C41033   1.322   9.820   0.371  0.3515 -0.2370 -0.7126
  298MOL0     O41034   1.148   9.623   0.527  0.0632 -0.0648 -0.4538
  298MOL0     C41035   0.835   9.772   0.524 -0.3952 -0.1653 -0.5468
  298MOL0     C41036   0.710   9.756   0.589  0.0329 -0.7289  0.0029
  298MOL0     N41037  -0.001   9.660   1.036 -0.9017 -0.3428 -0.1410
  298MOL0     N41038  -0.092   9.585   0.973 -0.1237  0.7298  0.6016
  298MOL0     C41039   0.855   9.357   0.517  0.2091 -0.0331  0.2416
  298MOL0     C41040   0.987   9.317   0.537  0.4499  0.8643  0.0300
  298MOL0     C41041   1.395   9.135   0.605  0.3690  0.3822  1.2239
  298MOL0     C41042   1.488   9.215   0.671 -0.8288 -1.0720  0.1973
  298MOL0     C41043   1.624   9.194   0.642  0.2269 -0.3726 -0.1800
  298MOL0     C41044   1.665   9.104   0.546 -0.0848  0.1090 -0.1456
  298MOL0     O41045   1.804   9.087   0.537  0.1148  0.0320  0.1082
  298MOL0     C41046   1.854   9.176   0.426  0.0399  0.1159 -0.0764
  298MOL0     C41047   2.008   9.159   0.428 -0.7631 -0.6344  0.0056
  298MOL0     C41048   2.085   9.232   0.539  0.5651 -0.0949 -0.3125
  298MOL0     C41049   2.217   9.172   0.600 -0.5329  0.1215  0.3786
  298MOL0     C41050   2.323   9.153   0.496 -0.8061  0.1547  0.6269
  298MOL0     C41051   2.402   9.133   0.404 -0.1841  0.2208 -0.5775
  298MOL0     C41052   1.575   9.016   0.487 -0.1324  0.2146 -0.5295
  298MOL0     C41053   1.440   9.030   0.518  0.1400 -0.5135  0.8824
  298MOL0     C41054   1.353   8.957   0.429  0.3951 -0.6762  0.6626
  298MOL0     H41055   0.940   8.984   0.475 -1.2270 -0.9278  0.1833
  298MOL0     H41056   0.717   9.067   0.426 -1.8522  0.2062  3.0116
  298MOL0     H41057   0.661   9.492   0.376  0.4633 -1.5078 -1.6779
  298MOL0     H41058   0.604   9.490   0.542 -1.1457 -0.9471  0.3995
  298MOL0     H41059   0.450   9.534   0.321  0.7825  1.3090  1.0194
  298MOL0     H41060   0.437   9.355   0.335  3.5878  1.2017 -3.1105
  298MOL0     H41061   0.384   9.394   0.588 -0.7202  0.0556  0.0868
  298MOL0     H41062   0.313   9.543   0.533 -1.4502 -0.9067  0.4642
  298MOL0     H41063   0.185   9.443   0.364  0.3841 -0.9844 -0.4589
  298MOL0     H41064   0.248   9.287   0.387 -0.2374  0.9790 -0.2435
  298MOL0     H41065   0.142   9.307   0.646  0.0293 -1.8683 -0.4947
  298MOL0     H41066   0.053   9.271   0.493  1.5190 -1.2204 -0.0007
  298MOL0     H41067   0.103   9.533   0.650  0.8719  1.5728 -1.5498
  298MOL0     H41068  -0.000   9.527   0.511  0.6628  1.3300  0.0664
  298MOL0     H41069  -0.038   9.345   0.749  2.8476 -1.5923 -2.1457
  298MOL0     H41070  -0.143   9.354   0.619 -0.7546  0.1519  0.9816
  298MOL0     H41071  -0.160   9.615   0.654 -0.0265 -0.2645 -0.4660
  298MOL0     H41072  -0.240   9.516   0.778 -0.2193  1.7734  0.0020
  298MOL0     H41073   0.044   9.754   0.725  0.9163  2.1396  0.5699
  298MOL0     H41074   0.212   9.833   1.072 -1.4890 -2.2092  0.9809
  298MOL0     H41075   0.211   9.898   0.911 -0.2114  0.1396  0.2219
  298MOL0     H41076   0.314   9.617   0.976  1.3459  0.6100  2.6303
  298MOL0     H41077   0.321   9.700   0.820 -0.2935 -1.4872  0.3564
  298MOL0     H41078   0.461   9.879   0.915 -0.5203 -2.2069 -2.3778
  298MOL0     H41079   0.461   9.803   1.078  1.2013 -1.0277  0.0357
  298MOL0     H41080   0.662   9.750   0.959  1.3322  0.2270 -0.7899
  298MOL0     H41081   0.565   9.603   0.939 -0.6272  0.6685  0.5839
  298MOL0     H41082   0.821   9.656   0.889  1.1323 -0.4404 -0.3056
  298MOL0     H41083   1.023   9.646   0.911 -0.8970 -1.3533 -0.6952
  298MOL0     H41084   1.149   9.701   0.784  0.4847 -0.6236 -2.9991
  298MOL0     H41085   1.082   9.529   0.801  0.3369 -0.7425  2.1493
  298MOL0     H41086   1.067   9.822   0.152  1.0711  1.5406 -2.3881
  298MOL0     H41087   1.251   9.811  -0.010 -2.3795  1.7970  0.1360
  298MOL0     H41088   1.478   9.626  -0.044 -1.2261 -0.2048 -2.6336
  298MOL0     H41089   1.420   9.777  -0.116 -0.8086  0.0641  1.0303
  298MOL0     H41090   1.692   9.667  -0.131 -0.6280 -1.0194  0.9489
  298MOL0     H41091   1.611   9.755  -0.251  2.8324  2.6859 -0.6013
  298MOL0     H41092   1.750   9.867   0.008  0.9491  0.7930 -0.2469
  298MOL0     H41093   1.626   9.947  -0.093 -3.3898 -3.7280 -0.1473
  298MOL0     H41094   1.868  10.021  -0.126  2.0498 -2.7456  1.3479
  298MOL0     H41095   1.798   9.967  -0.279  0.9313  2.1893 -0.8309
  298MOL0     H41096   1.992   9.814  -0.101 -0.1569 -3.6994 -1.2661
  298MOL0     H41097   1.885   9.736  -0.207 -0.8780 -0.4911 -1.1320
  298MOL0     H41098   1.991   9.860  -0.406  1.0369  1.8015  0.2780
  298MOL0     H41099   2.119   9.779  -0.304  3.0715  2.3726  0.9526
  298MOL0     H41100   2.052  10.070  -0.256 -2.2485 -1.8585  0.5504
  298MOL0     H41101   2.150  10.016  -0.393 -0.8958  1.6010  0.4217
  298MOL0     H41102   2.202   9.941  -0.101  0.5551 -1.9863 -0.7370
  298MOL0     H41103   2.279  10.070  -0.205  0.2765 -0.4990 -3.5435
  298MOL0     H41104   1.526   9.805   0.326 -0.9720  0.2588  1.2477
  298MOL0     H41105   1.332   9.817   0.479 -0.6610  1.6767 -0.5199
  298MOL0     H41106   0.847   9.808   0.422  1.8376 -0.0331 -0.2854
  298MOL0     H41107   0.619   9.767   0.531  1.3881 -1.4568 -2.3876
  298MOL0     H41108   0.831   9.461   0.535  1.6151  0.4330 -0.4776
  298MOL0     H41109   1.061   9.384   0.579  1.6524 -0.7756  0.6326
  298MOL0     H41110   1.452   9.293   0.737  0.5934  0.3000 -0.5885
  298MOL0     H41111   1.706   9.254   0.679 -0.0227  0.5215 -1.0456
  298MOL0     H41112   1.813   9.151   0.327 -0.5572  2.1811 -0.4115
  298MOL0     H41113   1.819   9.279   0.437 -3.3191 -1.0371  0.9902
  298MOL0     H41114   2.041   9.201   0.333  2.2877 -2.1852  0.2535
  298MOL0     H41115   2.029   9.055   0.457 -1.3388  0.1298  3.6112
  298MOL0     H41116   2.099   9.338   0.515 -1.6823  0.0018 -1.4481
  298MOL0     H41117   2.008   9.237   0.616 -0.7647 -1.9375 -1.4352
  298MOL0     H41118   2.198   9.073   0.642  1.0637  0.8504  3.1209
  298MOL0     H41119   2.257   9.239   0.677 -1.2958  1.7476 -0.5724
  298MOL0     H41120   2.470   9.115   0.323  1.4555  1.9024  0.3485
  298MOL0     H41121   1.608   8.928   0.432 -0.8491  0.1801 -0.9172
  298MOL0     H41122   1.304   9.033   0.366  0.5769 -2.3049 -1.5699
  298MOL0     H41123   1.406   8.890   0.361 -0.6881 -0.1502 -0.7581
  298MOL0     H41124   1.282   8.905   0.494 -1.0236 -0.2566 -0.5012
  299MOL0     O41125  10.874   0.078   9.776 -0.3409 -0.1365 -1.0580
  299MOL0     C41126  10.766   0.026   9.783  0.8320  0.0274  0.5153
  299MOL0     O41127  10.674   0.043   9.879  0.3723  0.0533  0.3330
  299MOL0     C41128  10.712   0.112   9.986  0.5927  0.3411 -0.1234
  299MOL0     C41129  10.746   0.051  10.111  0.9031  0.4990  0.8134
  299MOL0     C41130  10.804   0.125  10.208  0.3991  0.6307  0.1588
  299MOL0     C41131  10.802   0.267  10.203 -0.5462 -0.0117 -0.6239
  299MOL0     O41132  10.852   0.334  10.311 -0.7730 -0.1889 -0.6235
  299MOL0     C41133  10.800   0.465  10.346  0.4975 -0.4568 -0.2629
  299MOL0     C41134  10.879   0.507  10.463  0.4228 -0.1008 -0.5580
  299MOL0     C41135  10.892   0.655  10.482  0.1802  0.1930  0.3942
  299MOL0     C41136  10.763   0.733  10.498  0.2075  0.7089 -0.6089
  299MOL0     C41137  10.791   0.881  10.530 -0.3889 -0.5520  0.2179
  299MOL0     C41138  10.687   0.938  10.629  0.5952 -0.1850 -1.5241
  299MOL0     C41139  10.688   1.089  10.640 -0.0667  0.5172 -0.6013
  299MOL0     C41140  10.649   1.170  10.526  0.3588  0.6555  0.4625
  299MOL0     N41141  10.694   1.309  10.532  0.1065  0.4823  0.8956
  299MOL0     C41142  10.645   1.390  10.626  0.2408  0.5683  0.7109
  299MOL0     C41143  10.709   1.504  10.602  0.1329  0.0220 -0.1620
  299MOL0     C41144  10.707   1.625  10.699 -1.1769  0.1183  0.6738
  299MOL0     C41145  10.565   1.685  10.700  0.1354 -0.1210  0.6104
  299MOL0     C41146  10.570   1.831  10.754  0.2624 -0.4902  0.2729
  299MOL0     C41147  10.438   1.903  10.740 -0.7553  0.4043 -0.3887
  299MOL0     O41148  10.377   1.873  10.608  0.2946 -0.8459 -0.8243
  299MOL0     C41149  10.267   1.942  10.567 -0.2937  0.5464 -0.6254
  299MOL0     C41150  10.192   2.019  10.656 -0.3591 -0.5136  0.2729
  299MOL0     C41151  10.077   2.098  10.616 -0.2248 -0.9763 -0.2982
  299MOL0     C41152  10.016   2.181  10.727  0.1227  0.2698  0.0663
  299MOL0     C41153  10.027   2.075  10.488 -0.2288  0.3363  0.6469
  299MOL0     C41154   9.911   2.150  10.439  1.1667 -0.6062 -0.3005
  299MOL0     O41155   9.803   2.143  10.525  0.3624  0.2127  0.4695
  299MOL0     C41156   9.680   2.166  10.477  1.2033 -0.2903  0.7242
  299MOL0     C41157   9.642   2.107  10.361 -0.5716  0.2099 -0.4521
  299MOL0     C41158   9.516   2.126  10.308  0.0939 -0.0022 -0.1120
  299MOL0     C41159   9.423   2.201  10.383  0.2511 -0.3241 -0.5915
  299MOL0     O41160   9.289   2.215  10.339 -0.2659 -0.1869 -0.3229
  299MOL0     C41161   9.267   2.212  10.197  0.1971 -0.5839  0.8430
  299MOL0     C41162   9.137   2.279  10.181  0.5531 -0.2067  0.8663
  299MOL0     C41163   9.071   2.263  10.038 -0.4008  0.8808 -0.5683
  299MOL0     C41164   8.932   2.328  10.041  1.2826  0.1527 -1.0111
  299MOL0     C41165   8.866   2.342   9.909  0.0129 -0.6317 -0.3784
  299MOL0     C41166   8.751   2.444   9.895 -1.3982  0.1699 -0.1209
  299MOL0     C41167   8.611   2.397   9.941 -0.4836 -0.2640 -0.1202
  299MOL0     C41168   8.492   2.488   9.903 -0.2555 -0.6641 -0.0901
  299MOL0    Cl41169   8.524   2.659   9.953 -0.6770  0.7218  0.0078
  299MOL0     C41170   9.463   2.269  10.498  0.0981 -0.0534 -0.5284
  299MOL0     C41171   9.597   2.248  10.554 -0.3498  0.3503  0.2777
  299MOL0     O41172   9.911   2.195  10.325  0.1689  0.0680 -0.3177
  299MOL0     C41173  10.100   1.997  10.398 -0.5363  0.8434 -0.0469
  299MOL0     C41174  10.225   1.935  10.437  0.1347  0.5814  0.2001
  299MOL0     N41175  10.790   1.491  10.492  0.2331  0.1178 -0.5069
  299MOL0     N41176  10.794   1.363  10.462 -0.2753 -0.5594  0.1885
  299MOL0     C41177  10.738   0.329  10.094 -0.7074 -0.0292  0.2013
  299MOL0     C41178  10.707   0.252   9.985 -0.6168  0.4676  0.1261
  299MOL0     C41179  10.728  -0.074   9.676 -0.0385  0.3568  0.1223
  299MOL0     C41180  10.591  -0.089   9.646  0.2510  0.7008 -0.8936
  299MOL0     C41181  10.542  -0.193   9.563 -0.5184 -0.1881  0.2445
  299MOL0     C41182  10.630  -0.286   9.506 -0.0159  0.4676  0.1139
  299MOL0     O41183  10.585  -0.385   9.421  0.3446  0.3887 -0.7244
  299MOL0     C41184  10.673  -0.491   9.381 -0.6361 -1.2546 -0.2847
  299MOL0     C41185  10.600  -0.580   9.273 -0.4216  0.3093  0.5038
  299MOL0     C41186  10.678  -0.709   9.253  0.2620  0.5965 -0.6344
  299MOL0     C41187  10.806  -0.719   9.180  0.2306 -0.4355  0.1422
  299MOL0     C41188  10.924  -0.682   9.259  0.5893 -0.2706 -1.5121
  299MOL0     C41189  11.008  -0.644   9.344 -0.3699  0.1174 -0.8196
  299MOL0     C41190  10.762  -0.272   9.541 -0.6908 -0.4856 -0.3403
  299MOL0     C41191  10.814  -0.172   9.628  0.1142 -0.5261 -0.1222
  299MOL0     C41192  10.962  -0.173   9.651  0.1013  0.2507  0.4965
  299MOL0     H41193  10.745  -0.058  10.116 -0.1646  0.1822 -2.9786
  299MOL0     H41194  10.862   0.084  10.290 -1.6478 -4.0335 -0.3868
  299MOL0     H41195  10.696   0.455  10.378  0.9387 -0.0312  1.3865
  299MOL0     H41196  10.792   0.547  10.274 -2.2654  0.1037  0.5216
  299MOL0     H41197  10.841   0.462  10.555  0.7968 -2.7325 -1.5954
  299MOL0     H41198  10.981   0.471  10.447  0.7894  1.3710 -1.7670
  299MOL0     H41199  10.962   0.663  10.566 -2.3100 -0.0560  2.6052
  299MOL0     H41200  10.936   0.699  10.392  2.7346  0.9953  1.9161
  299MOL0     H41201  10.702   0.732  10.407 -0.9450 -1.8569  0.1080
  299MOL0     H41202  10.709   0.678  10.575 -3.2408  1.1265 -2.4959
  299MOL0     H41203  10.781   0.937  10.437 -1.7035 -0.1700  0.5757
  299MOL0     H41204  10.894   0.891  10.567  0.3386 -3.0187 -0.9159
  299MOL0     H41205  10.588   0.901  10.600 -0.7454 -0.0493  2.3446
  299MOL0     H41206  10.693   0.898  10.731 -0.8194 -1.6358 -1.9666
  299MOL0     H41207  10.789   1.113  10.675 -0.8197 -0.0475  2.2691
  299MOL0     H41208  10.627   1.113  10.728  0.2420 -2.7553  0.6334
  299MOL0     H41209  10.685   1.125  10.433 -3.3664 -2.9266  0.4760
  299MOL0     H41210  10.541   1.172  10.511  0.3250 -0.0205  0.5539
  299MOL0     H41211  10.585   1.363  10.712 -0.4929  0.7338  0.2713
  299MOL0     H41212  10.781   1.701  10.674 -1.8481  1.3044  2.1267
  299MOL0     H41213  10.739   1.589  10.798 -1.2487 -0.1796  0.5899
  299MOL0     H41214  10.518   1.682  10.601 -0.2962 -2.6767  0.8429
  299MOL0     H41215  10.511   1.625  10.775 -0.5483  3.1543  2.9874
  299MOL0     H41216  10.591   1.826  10.861  0.7110 -1.5598  0.1477
  299MOL0     H41217  10.654   1.884  10.709  0.0206 -0.2923  0.0477
  299MOL0     H41218  10.366   1.860  10.809 -1.5217  0.7574 -0.9554
  299MOL0     H41219  10.458   2.008  10.765 -0.8613  0.5954 -1.0816
  299MOL0     H41220  10.214   2.024  10.762 -1.8058  0.7763  0.5499
  299MOL0     H41221  10.076   2.193  10.817  0.4344  0.7892 -0.2065
  299MOL0     H41222   9.921   2.144  10.766 -0.0767 -0.0009 -0.6507
  299MOL0     H41223  10.002   2.286  10.697 -1.7017  0.1071  0.2432
  299MOL0     H41224   9.696   2.041  10.295 -0.2389 -1.2536  1.2084
  299MOL0     H41225   9.481   2.077  10.218 -1.1734 -1.2629  1.0068
  299MOL0     H41226   9.341   2.266  10.137 -1.1226  1.8362  1.2887
  299MOL0     H41227   9.263   2.104  10.178 -0.3015 -0.4941  0.4322
  299MOL0     H41228   9.074   2.228  10.255  0.9497 -0.2570  1.1768
  299MOL0     H41229   9.143   2.387  10.196 -3.3897  0.2228  0.4695
  299MOL0     H41230   9.066   2.153  10.035  2.1711  0.5371  2.4904
  299MOL0     H41231   9.124   2.299   9.950 -1.1816  0.3910 -1.2586
  299MOL0     H41232   8.937   2.420  10.100  3.4768  0.3503 -1.4165
  299MOL0     H41233   8.865   2.257  10.091 -0.9172  0.2876 -3.5640
  299MOL0     H41234   8.938   2.370   9.832 -1.7773  1.1115 -1.5179
  299MOL0     H41235   8.820   2.247   9.881 -0.1521 -0.4292 -0.7996
  299MOL0     H41236   8.745   2.479   9.792 -2.8461 -1.4637 -0.6338
  299MOL0     H41237   8.783   2.535   9.947  1.2536 -0.2491 -0.8752
  299MOL0     H41238   8.608   2.393  10.051 -2.6696 -0.4535 -0.1476
  299MOL0     H41239   8.592   2.295   9.909 -1.1914 -0.7928  1.8181
  299MOL0     H41240   8.407   2.443   9.955 -2.2897  0.6184 -2.1169
  299MOL0     H41241   8.468   2.482   9.796  0.4344  0.6627 -0.3399
  299MOL0     H41242   9.402   2.346  10.544  2.3803  1.9754 -0.6941
  299MOL0     H41243   9.634   2.290  10.647 -0.2233 -0.3126  0.5317
  299MOL0     H41244  10.066   1.974  10.298  0.4645 -0.5378 -0.0944
  299MOL0     H41245  10.285   1.871  10.373  0.6682 -1.2391  2.3849
  299MOL0     H41246  10.731   0.438  10.092  1.7943  0.1972 -0.1138
  299MOL0     H41247  10.682   0.292   9.887 -3.6032 -1.0881  0.1293
  299MOL0     H41248  10.514  -0.023   9.685  3.5433  3.6499  1.2900
  299MOL0     H41249  10.439  -0.207   9.533 -0.8230 -0.3873  1.3413
  299MOL0     H41250  10.755  -0.446   9.324 -0.3590 -1.5479 -0.1197
  299MOL0     H41251  10.704  -0.553   9.465 -1.6900 -0.8971  0.3897
  299MOL0     H41252  10.592  -0.534   9.174  1.0272  0.8523  0.6123
  299MOL0     H41253  10.505  -0.608   9.319 -1.2178  0.2151 -1.1648
  299MOL0     H41254  10.691  -0.768   9.344  0.8287 -0.3749 -1.3158
  299MOL0     H41255  10.608  -0.775   9.199  0.3133 -0.0934  0.1260
  299MOL0     H41256  10.789  -0.667   9.085 -4.1030 -0.8962  0.4508
  299MOL0     H41257  10.826  -0.822   9.147  0.5360 -0.1443 -0.6038
  299MOL0     H41258  11.083  -0.613   9.415 -2.0529 -0.7238  1.4389
  299MOL0     H41259  10.845  -0.336   9.514  1.1354  0.3968  2.6492
  299MOL0     H41260  10.979  -0.206   9.754 -2.2402  0.8970  1.1560
  299MOL0     H41261  11.016  -0.238   9.582  1.2376  0.3076  1.2862
  299MOL0     H41262  11.009  -0.076   9.632 -0.6091  0.3086 -1.1112
  300MOL0     O41263   9.484  11.057   2.391 -0.0080  0.0983 -0.4796
  300MOL0     C41264   9.423  11.024   2.492  0.0892  0.2962  0.1841
  300MOL0     O41265   9.465  11.032   2.621  0.0053  0.5112 -0.7256
  300MOL0     C41266   9.566  11.114   2.663 -0.5317 -0.5167  0.1049
  300MOL0     C41267   9.615  11.224   2.587  0.4974 -0.7250 -0.3134
  300MOL0     C41268   9.727  11.294   2.631 -0.0369  0.0307 -0.2871
  300MOL0     C41269   9.803  11.264   2.753  0.1090 -1.0496  0.1798
  300MOL0     O41270   9.919  11.332   2.794  0.1779  0.4844 -0.6954
  300MOL0     C41271   9.975  11.420   2.696  0.3643  0.0107  0.6976
  300MOL0     C41272  10.106  11.495   2.721 -0.1357 -0.3168  0.1348
  300MOL0     C41273  10.101  11.598   2.834  0.8637 -0.1631 -0.2405
  300MOL0     C41274  10.209  11.705   2.828 -0.0520  0.1589 -0.3548
  300MOL0     C41275  10.259  11.764   2.963 -0.1337  0.1185 -0.2017
  300MOL0     C41276  10.354  11.884   2.933 -0.4286  0.8757 -0.8325
  300MOL0     C41277  10.437  11.942   3.061  0.3186 -0.2134  0.5007
  300MOL0     C41278  10.533  11.850   3.127  0.0457  0.0509 -0.8493
  300MOL0     N41279  10.662  11.850   3.060 -1.2391 -0.1511 -0.2240
  300MOL0     C41280  10.698  11.746   2.976 -0.5514 -0.6040 -0.4646
  300MOL0     C41281  10.818  11.788   2.926  0.1172  0.4379 -0.7495
  300MOL0     C41282  10.893  11.734   2.805  0.1704 -0.1750 -0.0888
  300MOL0     C41283  10.792  11.676   2.705  0.4501 -1.0923  0.3571
  300MOL0     C41284  10.858  11.658   2.563  0.1787 -0.6057  0.5039
  300MOL0     C41285  10.746  11.625   2.460  0.0084 -0.0117 -0.2544
  300MOL0     O41286  10.632  11.713   2.476 -0.0014 -1.0690 -0.1035
  300MOL0     C41287  10.505  11.677   2.432  0.4828  0.0276 -1.1171
  300MOL0     C41288  10.473  11.558   2.363  0.0933  0.1753  0.0687
  300MOL0     C41289  10.347  11.520   2.329 -0.3029 -0.6102 -0.1970
  300MOL0     C41290  10.322  11.390   2.251 -0.4706 -0.0900  1.4654
  300MOL0     C41291  10.243  11.611   2.367  0.8451  0.5086  1.0938
  300MOL0     C41292  10.099  11.573   2.344  0.2360 -0.1581 -0.1126
  300MOL0     O41293  10.013  11.679   2.356  0.4482  0.6366 -0.1339
  300MOL0     C41294   9.871  11.663   2.360  0.0881 -0.1456 -0.8203
  300MOL0     C41295   9.788  11.780   2.378 -0.5877  0.2737  0.0109
  300MOL0     C41296   9.650  11.770   2.397  0.1165  0.1215  0.0489
  300MOL0     C41297   9.580  11.648   2.401  0.9147  0.5356  0.1941
  300MOL0     O41298   9.444  11.646   2.417  0.4188  0.1516  0.2504
  300MOL0     C41299   9.376  11.522   2.413  0.1920 -0.0546  0.2597
  300MOL0     C41300   9.230  11.563   2.416 -0.2873  0.1822  0.0177
  300MOL0     C41301   9.144  11.436   2.403 -0.1039  0.6513 -0.2129
  300MOL0     C41302   9.003  11.463   2.339 -0.3969  0.1848 -0.4368
  300MOL0     C41303   8.907  11.517   2.447  0.6629 -0.0340  1.4675
  300MOL0     C41304   8.848  11.410   2.540  1.2904  0.0521 -0.6906
  300MOL0     C41305   8.760  11.302   2.475  0.4849  0.4438  0.0738
  300MOL0     C41306   8.648  11.251   2.569 -0.2439  0.2212  0.5848
  300MOL0    Cl41307   8.526  11.365   2.621 -0.3704 -0.2878  0.1468
  300MOL0     C41308   9.655  11.536   2.370  0.1886  0.8028  0.1412
  300MOL0     C41309   9.791  11.547   2.349 -0.4361  0.5868  0.4923
  300MOL0     O41310  10.059  11.451   2.346 -0.2312 -0.3405 -0.4960
  300MOL0     C41311  10.272  11.734   2.435  0.1376 -0.0423 -0.2705
  300MOL0     C41312  10.399  11.766   2.465  0.4000  0.2163  0.0672
  300MOL0     N41313  10.848  11.902   2.985 -1.0205 -0.1479  0.0801
  300MOL0     N41314  10.759  11.945   3.065 -0.0638  0.5550 -0.4151
  300MOL0     C41315   9.745  11.156   2.824 -0.3494  0.6339  0.7285
  300MOL0     C41316   9.622  11.086   2.788  0.1235  0.2483  0.6780
  300MOL0     C41317   9.285  10.965   2.466 -0.4159 -0.3954  0.4772
  300MOL0     C41318   9.205  11.016   2.364  0.1643  0.2142 -0.2720
  300MOL0     C41319   9.090  10.949   2.332  0.0594 -0.3267  0.6771
  300MOL0     C41320   9.037  10.846   2.401  0.8416  0.4582  1.0945
  300MOL0     O41321   8.935  10.769   2.365 -0.3762  0.3764 -0.1526
  300MOL0     C41322   8.816  10.816   2.285 -0.4667  0.8946 -0.4616
  300MOL0     C41323   8.725  10.913   2.365  0.5887  0.3251  0.4428
  300MOL0     C41324   8.684  10.857   2.512 -0.0116 -0.6188 -0.2556
  300MOL0     C41325   8.609  10.724   2.493  0.0426  0.4335  0.6725
  300MOL0     C41326   8.474  10.734   2.438  0.4997  0.1556 -0.1869
  300MOL0     C41327   8.364  10.756   2.386 -0.8074 -1.0692 -0.5385
  300MOL0     C41328   9.110  10.796   2.514  0.0109  0.2367  1.0963
  300MOL0     C41329   9.237  10.863   2.548  0.7048  0.0659  0.0266
  300MOL0     C41330   9.318  10.805   2.668  0.0977  0.0817 -0.0300
  300MOL0     H41331   9.551  11.267   2.511 -0.4879  1.6635  1.7079
  300MOL0     H41332   9.757  11.387   2.583  0.3606  1.2976  2.2540
  300MOL0     H41333   9.906  11.498   2.665  1.5642  0.8228 -0.0176
  300MOL0     H41334   9.997  11.369   2.602 -1.0284  0.9597 -0.1623
  300MOL0     H41335  10.181  11.419   2.741  1.6900  0.3155 -3.4831
  300MOL0     H41336  10.138  11.543   2.628  2.9090 -0.8107  0.8154
  300MOL0     H41337  10.001  11.639   2.843  2.1993  3.2043  1.0600
  300MOL0     H41338  10.108  11.555   2.935 -2.1275  1.2438  0.6778
  300MOL0     H41339  10.292  11.658   2.773  0.3654  2.8947 -2.2452
  300MOL0     H41340  10.160  11.780   2.765 -0.5731  1.9471  2.0637
  300MOL0     H41341  10.310  11.684   3.017 -0.4916  0.7824  1.1831
  300MOL0     H41342  10.183  11.799   3.033  0.1642 -3.3112  2.0717
  300MOL0     H41343  10.426  11.837   2.865  0.7250  0.1603  0.8147
  300MOL0     H41344  10.304  11.965   2.879 -2.3893 -0.2129 -0.7121
  300MOL0     H41345  10.362  11.973   3.134  0.7884 -1.9874  1.7869
  300MOL0     H41346  10.492  12.025   3.016  0.5385 -1.5539 -1.8976
  300MOL0     H41347  10.553  11.869   3.233 -1.2359  0.7374 -0.7049
  300MOL0     H41348  10.492  11.749   3.139  0.9887 -0.1505  1.3463
  300MOL0     H41349  10.635  11.660   2.957  0.5961 -1.1179 -2.1420
  300MOL0     H41350  10.958  11.647   2.822 -0.9447 -1.0277 -0.0556
  300MOL0     H41351  10.957  11.812   2.762 -0.3720  0.3839  0.1010
  300MOL0     H41352  10.749  11.584   2.744 -2.8308  0.5103  0.8444
  300MOL0     H41353  10.713  11.750   2.692 -0.2793 -1.7200  1.1787
  300MOL0     H41354  10.916  11.746   2.532 -0.0280  0.2417  2.3742
  300MOL0     H41355  10.917  11.566   2.567  0.1154 -0.5993  2.7565
  300MOL0     H41356  10.799  11.633   2.364  0.7189  4.1264  0.2760
  300MOL0     H41357  10.710  11.523   2.476 -0.9468  0.2205 -0.8528
  300MOL0     H41358  10.548  11.492   2.320  0.5697  1.7967 -1.7211
  300MOL0     H41359  10.275  11.322   2.323 -1.1284 -1.6333 -0.3302
  300MOL0     H41360  10.415  11.351   2.208 -0.9201  2.7357 -2.6131
  300MOL0     H41361  10.255  11.417   2.169 -0.1307 -1.8962  0.5449
  300MOL0     H41362   9.841  11.873   2.368  0.0225 -0.3125 -2.9788
  300MOL0     H41363   9.593  11.862   2.406  1.7300  1.3255 -1.3731
  300MOL0     H41364   9.397  11.474   2.317 -0.7563  2.9314 -1.5903
  300MOL0     H41365   9.405  11.451   2.491  0.7285  0.3308  0.4109
  300MOL0     H41366   9.209  11.623   2.505 -1.4764 -0.3399  0.1155
  300MOL0     H41367   9.218  11.626   2.327  1.1526 -0.6646 -0.8120
  300MOL0     H41368   9.125  11.388   2.500 -1.1097 -0.8587 -1.1134
  300MOL0     H41369   9.199  11.364   2.341  0.3998  1.1067 -0.2994
  300MOL0     H41370   8.971  11.364   2.304  1.5846  0.2855 -2.8991
  300MOL0     H41371   9.001  11.523   2.247 -2.0370 -2.5616 -2.3714
  300MOL0     H41372   8.958  11.601   2.496  5.0376 -0.3122 -1.9425
  300MOL0     H41373   8.824  11.563   2.392  2.1121 -0.1961 -1.0394
  300MOL0     H41374   8.792  11.435   2.631  0.5160 -2.6153 -0.3190
  300MOL0     H41375   8.928  11.355   2.590 -0.8848 -0.4495  2.6205
  300MOL0     H41376   8.824  11.216   2.453  0.8727  0.6927  0.2292
  300MOL0     H41377   8.719  11.341   2.382 -0.6212  0.2713  0.4658
  300MOL0     H41378   8.696  11.221   2.662 -3.0575  2.3341  2.9032
  300MOL0     H41379   8.595  11.162   2.535  1.5644 -0.0158 -1.9120
  300MOL0     H41380   9.609  11.441   2.348  0.3421  1.2656 -2.5067
  300MOL0     H41381   9.831  11.452   2.315 -2.7277  0.6290 -2.7694
  300MOL0     H41382  10.187  11.793   2.469 -0.7100 -0.5850 -1.3728
  300MOL0     H41383  10.422  11.860   2.513  0.6407 -0.1193  0.6130
  300MOL0     H41384   9.798  11.123   2.913 -0.4588 -1.0683  0.1938
  300MOL0     H41385   9.594  11.000   2.849 -1.6171  0.2731 -0.0296
  300MOL0     H41386   9.233  11.089   2.289  3.2916 -1.0242 -0.4705
  300MOL0     H41387   9.022  10.988   2.257 -0.4735  2.9654  2.6701
  300MOL0     H41388   8.852  10.884   2.207 -1.0703  2.0517  0.2402
  300MOL0     H41389   8.764  10.733   2.237 -2.3065  1.3181  0.6999
  300MOL0     H41390   8.631  10.926   2.310  0.8893  0.2224 -0.1025
  300MOL0     H41391   8.779  11.007   2.375 -0.2683  0.6940  2.1325
  300MOL0     H41392   8.771  10.834   2.573 -0.2420 -1.2598 -0.1585
  300MOL0     H41393   8.620  10.928   2.566  0.4215  1.3158 -2.1192
  300MOL0     H41394   8.604  10.671   2.589  4.0865  0.4907  1.0981
  300MOL0     H41395   8.667  10.651   2.437 -0.1213  1.7402 -1.2889
  300MOL0     H41396   8.271  10.798   2.353  1.3132  1.7698 -3.5684
  300MOL0     H41397   9.062  10.720   2.576 -3.5024 -1.3566 -3.0366
  300MOL0     H41398   9.332  10.879   2.747  0.3121 -0.1021  0.1012
  300MOL0     H41399   9.257  10.726   2.713 -1.7142  0.1373 -2.1691
  300MOL0     H41400   9.416  10.786   2.624  0.1380  1.5388 -0.6395
  301MOL0     O41401   4.081  10.733   0.494 -0.1670  1.0575 -0.7780
  301MOL0     C41402   4.121  10.739   0.376  0.5024 -1.0158  0.7237
  301MOL0     O41403   4.068  10.668   0.262  0.4325 -0.0947  0.6752
  301MOL0     C41404   3.940  10.623   0.278 -0.1367  0.4216  0.6062
  301MOL0     C41405   3.835  10.705   0.240  0.9214 -0.0521  0.2484
  301MOL0     C41406   3.699  10.661   0.268 -0.0469  0.2415 -0.6396
  301MOL0     C41407   3.677  10.540   0.334 -0.1674  0.4871 -0.4525
  301MOL0     O41408   3.549  10.501   0.339  0.4974 -0.3664 -0.0107
  301MOL0     C41409   3.503  10.413   0.445 -0.7605  0.7543 -0.8562
  301MOL0     C41410   3.361  10.426   0.488  0.2251 -0.3830  0.1811
  301MOL0     C41411   3.326  10.573   0.541 -0.6868  0.3171 -0.0244
  301MOL0     C41412   3.311  10.669   0.429  0.2301  0.2286  0.2809
  301MOL0     C41413   3.171  10.730   0.404  0.1598  0.3880  0.5458
  301MOL0     C41414   3.104  10.813   0.516  0.0943  0.2327  0.7786
  301MOL0     C41415   3.176  10.938   0.564  0.3418  0.6431 -1.0363
  301MOL0     C41416   3.207  11.037   0.456 -0.4167 -0.1368 -0.0141
  301MOL0     N41417   3.251  11.170   0.513  0.8842  0.3449 -0.1535
  301MOL0     C41418   3.359  11.186   0.586  0.2588 -0.9441 -0.7187
  301MOL0     C41419   3.373  11.317   0.602 -0.5824  1.0601 -0.7303
  301MOL0     C41420   3.472  11.385   0.694 -0.3549 -0.3056 -0.3766
  301MOL0     C41421   3.555  11.496   0.629 -0.3080  0.1732  0.2705
  301MOL0     C41422   3.629  11.557   0.749 -0.5909  0.0259 -0.0631
  301MOL0     C41423   3.693  11.687   0.706 -0.7449  0.6963  0.2127
  301MOL0     O41424   3.784  11.661   0.599  0.0828  0.6111 -0.4874
  301MOL0     C41425   3.914  11.681   0.634  0.3357  0.6816  0.6062
  301MOL0     C41426   3.971  11.802   0.604  0.3807  0.0503 -1.1246
  301MOL0     C41427   4.107  11.832   0.639 -0.3785  0.4636 -0.2361
  301MOL0     C41428   4.161  11.975   0.606  0.9299  0.4371  0.1670
  301MOL0     C41429   4.188  11.723   0.692 -1.1727 -0.4701 -0.3556
  301MOL0     C41430   4.335  11.733   0.728  0.4287  0.2813  0.0379
  301MOL0     O41431   4.407  11.838   0.683 -0.3501  0.3923 -1.0394
  301MOL0     C41432   4.539  11.843   0.728  0.0180  0.3150  0.0837
  301MOL0     C41433   4.586  11.966   0.759  0.0413 -0.1926  0.8760
  301MOL0     C41434   4.727  11.997   0.773 -0.1550  0.2506  0.2322
  301MOL0     C41435   4.817  11.892   0.776  0.2310 -0.9525  0.2363
  301MOL0     O41436   4.946  11.929   0.797  0.1246  0.2982 -0.2844
  301MOL0     C41437   5.030  11.818   0.801  0.1140  0.8294 -0.2852
  301MOL0     C41438   5.174  11.879   0.823  0.3718  0.3235  0.1666
  301MOL0     C41439   5.271  11.767   0.860  0.9095 -0.4126  0.6782
  301MOL0     C41440   5.413  11.838   0.890 -0.2691 -0.3598  0.2048
  301MOL0     C41441   5.519  11.731   0.923 -1.1523 -0.7253  0.3137
  301MOL0     C41442   5.648  11.783   0.989  0.6167 -0.8624  0.0264
  301MOL0     C41443   5.728  11.650   1.009  0.1142  0.0733 -0.0468
  301MOL0     C41444   5.883  11.674   1.056 -0.0560  0.1269 -0.8708
  301MOL0    Cl41445   5.960  11.802   0.955 -0.1887 -0.0545  0.1859
  301MOL0     C41446   4.770  11.754   0.745 -0.3288  0.3865  0.7355
  301MOL0     C41447   4.630  11.735   0.723  0.1988  0.1953  0.1814
  301MOL0     O41448   4.377  11.639   0.804 -0.2341 -0.9445 -0.8202
  301MOL0     C41449   4.121  11.601   0.722 -0.7434 -0.5437  0.2894
  301MOL0     C41450   3.991  11.584   0.689  0.0667 -0.0867  0.1138
  301MOL0     N41451   3.282  11.379   0.530  0.2621  0.0536 -0.0841
  301MOL0     N41452   3.207  11.293   0.476 -0.0291 -0.7640  0.0223
  301MOL0     C41453   3.784  10.456   0.380  0.4009  0.4045  0.6518
  301MOL0     C41454   3.917  10.501   0.350  0.0279  0.2512  0.7087
  301MOL0     C41455   4.229  10.851   0.349  0.0198  0.0217 -0.7891
  301MOL0     C41456   4.246  10.885   0.209  0.7537 -0.3380 -0.0876
  301MOL0     C41457   4.333  10.983   0.174 -1.0562  1.1544  0.7056
  301MOL0     C41458   4.417  11.040   0.266 -0.5804  0.9396 -0.1674
  301MOL0     O41459   4.513  11.131   0.238 -0.7286  0.3785 -0.1404
  301MOL0     C41460   4.533  11.203   0.114  0.2158 -0.4257  0.5015
  301MOL0     C41461   4.676  11.252   0.097  0.8251 -0.4757 -0.2452
  301MOL0     C41462   4.769  11.125   0.095 -0.1716  0.8927 -0.2630
  301MOL0     C41463   4.909  11.144   0.058  1.4128  0.7923 -0.4178
  301MOL0     C41464   4.978  11.238   0.135 -0.5456  0.2420 -0.2415
  301MOL0     C41465   5.045  11.333   0.175  0.6480  0.6969 -1.2925
  301MOL0     C41466   4.397  11.016   0.406 -0.1230  0.1888  0.1519
  301MOL0     C41467   4.304  10.926   0.445  0.7181  0.5517  0.3375
  301MOL0     C41468   4.285  10.918   0.592  0.2361 -0.2728 -0.4858
  301MOL0     H41469   3.850  10.799   0.186  1.3004 -0.4245 -0.3100
  301MOL0     H41470   3.612  10.723   0.251 -1.7963 -2.6381 -3.1978
  301MOL0     H41471   3.579  10.427   0.522  1.9011 -2.3492 -2.6344
  301MOL0     H41472   3.518  10.309   0.413  0.6999 -0.1074  2.1899
  301MOL0     H41473   3.309  10.396   0.397 -0.9373  0.3861  0.5764
  301MOL0     H41474   3.335  10.344   0.556 -3.8920 -0.6782 -1.4791
  301MOL0     H41475   3.230  10.546   0.586 -1.0079  0.0122 -0.8733
  301MOL0     H41476   3.388  10.605   0.625  1.2311  0.2425 -1.3352
  301MOL0     H41477   3.379  10.753   0.446  2.2164 -0.7260 -2.2960
  301MOL0     H41478   3.339  10.618   0.337 -0.6528  0.6688 -0.2404
  301MOL0     H41479   3.093  10.656   0.383 -1.8410  2.8119 -1.2192
  301MOL0     H41480   3.171  10.792   0.314  1.1432  2.6918  2.0179
  301MOL0     H41481   3.005  10.844   0.483 -0.2592 -0.7192  0.9401
  301MOL0     H41482   3.090  10.738   0.594 -3.9876 -2.9904 -2.5940
  301MOL0     H41483   3.259  10.900   0.623 -1.0940 -1.7021 -0.3928
  301MOL0     H41484   3.105  10.986   0.633 -0.6139 -1.8616 -0.1685
  301MOL0     H41485   3.294  11.002   0.400 -1.2525 -1.3655 -0.5887
  301MOL0     H41486   3.117  11.044   0.394 -1.0137 -0.8493  0.7423
  301MOL0     H41487   3.413  11.108   0.638 -1.0951 -0.9604  0.7397
  301MOL0     H41488   3.533  11.307   0.741 -0.4269  0.2760  0.7225
  301MOL0     H41489   3.412  11.427   0.775  0.8623 -0.5888  0.6975
  301MOL0     H41490   3.629  11.462   0.557  1.0409  2.3763  0.5047
  301MOL0     H41491   3.501  11.573   0.573 -0.2891 -2.0635 -3.0797
  301MOL0     H41492   3.556  11.583   0.826  0.5581  2.9421  0.1645
  301MOL0     H41493   3.691  11.476   0.789 -2.3964 -1.2340  0.3130
  301MOL0     H41494   3.612  11.756   0.679 -0.9437  0.7127  0.8364
  301MOL0     H41495   3.755  11.724   0.788 -1.1724  0.5222  0.6227
  301MOL0     H41496   3.901  11.866   0.551  2.3497  1.8809 -1.6595
  301MOL0     H41497   4.250  11.953   0.545  0.1686 -2.6801  0.0175
  301MOL0     H41498   4.193  12.022   0.700  2.2896 -1.5278  0.7555
  301MOL0     H41499   4.082  12.025   0.550 -1.5927 -2.3372  0.9650
  301MOL0     H41500   4.520  12.052   0.773  0.4890 -0.2067  3.6496
  301MOL0     H41501   4.758  12.097   0.801 -0.0032  0.7757 -1.6772
  301MOL0     H41502   5.002  11.752   0.884  0.0904  1.0098 -0.1498
  301MOL0     H41503   5.030  11.761   0.708 -0.9508 -0.7787  0.6402
  301MOL0     H41504   5.217  11.931   0.737  2.9137  1.9215  2.2464
  301MOL0     H41505   5.147  11.947   0.904 -2.2883  0.3711 -0.6512
  301MOL0     H41506   5.286  11.689   0.785 -0.4716  0.3903 -0.4949
  301MOL0     H41507   5.232  11.725   0.954 -0.4380  2.4737  1.5184
  301MOL0     H41508   5.392  11.899   0.978  0.5769  1.2887 -0.7001
  301MOL0     H41509   5.444  11.907   0.811  1.5156  1.3668  2.2723
  301MOL0     H41510   5.474  11.652   0.984 -2.3344  0.9613  1.7247
  301MOL0     H41511   5.548  11.677   0.832 -4.0564 -0.4986 -0.8537
  301MOL0     H41512   5.643  11.843   1.081 -0.0941 -0.1351 -0.4749
  301MOL0     H41513   5.703  11.848   0.920  0.6219  1.5602  2.1703
  301MOL0     H41514   5.745  11.604   0.911 -5.6883  1.0385 -1.8823
  301MOL0     H41515   5.666  11.575   1.058 -1.1593 -0.3307 -2.1574
  301MOL0     H41516   5.941  11.582   1.042  1.7450  1.3181 -1.5932
  301MOL0     H41517   5.897  11.697   1.162  0.1439 -1.2356 -0.5829
  301MOL0     H41518   4.841  11.672   0.740  1.5748  2.0154 -0.3822
  301MOL0     H41519   4.610  11.629   0.712  3.6499 -0.4965 -0.6203
  301MOL0     H41520   4.172  11.515   0.764  1.0296 -0.9812 -2.4638
  301MOL0     H41521   3.945  11.487   0.700  1.1952 -0.3957  3.2855
  301MOL0     H41522   3.767  10.361   0.428  1.0084  0.5204  1.1076
  301MOL0     H41523   3.996  10.434   0.384 -0.3066 -0.6640 -0.2549
  301MOL0     H41524   4.175  10.833   0.146 -1.8591  0.4136  2.0580
  301MOL0     H41525   4.342  11.003   0.068 -2.9696  2.3482  0.7145
  301MOL0     H41526   4.512  11.140   0.027 -1.4204 -1.9899  1.9409
  301MOL0     H41527   4.461  11.286   0.108  0.6735 -0.1118 -1.1141
  301MOL0     H41528   4.703  11.327   0.173 -2.1319  0.1070  0.3344
  301MOL0     H41529   4.692  11.299  -0.000  0.0230  0.8739  0.2515
  301MOL0     H41530   4.780  11.070   0.189  2.4979  0.1749 -0.9195
  301MOL0     H41531   4.713  11.059   0.027  0.4202 -0.1812  0.2609
  301MOL0     H41532   4.919  11.176  -0.045  2.4716  0.5479 -0.4032
  301MOL0     H41533   4.972  11.055   0.066  0.7909  0.0316 -3.1228
  301MOL0     H41534   5.081  11.429   0.205  0.5862 -0.0010  1.2373
  301MOL0     H41535   4.466  11.061   0.476  0.9389  0.6242 -1.1260
  301MOL0     H41536   4.177  10.930   0.604  0.5739  3.0023  0.2278
  301MOL0     H41537   4.317  10.820   0.628  2.1564  1.6009  3.6917
  301MOL0     H41538   4.330  10.998   0.652  2.1441 -1.3612 -0.3893
  302MOL0     O41539   2.909   6.836   9.103 -0.0434  0.3331 -0.2086
  302MOL0     C41540   2.907   6.891   9.212  0.4273 -0.4937 -0.4367
  302MOL0     O41541   2.908   7.026   9.234 -0.1759  0.1340 -0.6615
  302MOL0     C41542   2.884   7.108   9.128 -0.1069  0.3951 -0.6181
  302MOL0     C41543   2.990   7.147   9.046 -0.7083  0.3966  0.8544
  302MOL0     C41544   2.970   7.242   8.939 -1.1154  0.5791 -0.1595
  302MOL0     C41545   2.840   7.268   8.901  0.0021 -1.2692 -0.1016
  302MOL0     O41546   2.826   7.346   8.789  0.3641  0.1934  0.5752
  302MOL0     C41547   2.722   7.448   8.768 -0.1817  0.4856 -0.3761
  302MOL0     C41548   2.764   7.527   8.647 -0.1713 -0.4036 -0.0595
  302MOL0     C41549   2.895   7.614   8.642  0.9448 -0.1540 -0.2668
  302MOL0     C41550   2.922   7.656   8.497  0.2218  0.2553 -0.8219
  302MOL0     C41551   3.042   7.749   8.488  0.2977  0.1205 -0.0332
  302MOL0     C41552   3.123   7.719   8.357 -0.5410  0.3648 -0.0190
  302MOL0     C41553   3.259   7.804   8.341  0.5804  0.0592 -0.5557
  302MOL0     C41554   3.361   7.756   8.450  0.9835  0.0564  0.7413
  302MOL0     N41555   3.472   7.845   8.466 -0.0214  0.1417 -0.3124
  302MOL0     C41556   3.458   7.979   8.488 -0.0034 -0.1464 -0.3197
  302MOL0     C41557   3.579   8.030   8.513  0.4867  0.4287  0.1859
  302MOL0     C41558   3.623   8.175   8.534  0.5785  0.3469 -0.0049
  302MOL0     C41559   3.734   8.223   8.436 -0.4116 -0.1227  0.3209
  302MOL0     C41560   3.774   8.361   8.479 -0.1720  0.4993  0.3988
  302MOL0     C41561   3.886   8.431   8.386  0.5978  0.6838  0.8786
  302MOL0     O41562   3.946   8.541   8.457 -0.0581 -0.4573  0.4839
  302MOL0     C41563   4.041   8.614   8.394  0.0049 -0.6142  0.2197
  302MOL0     C41564   4.127   8.682   8.489 -0.0138 -0.3122 -0.2692
  302MOL0     C41565   4.237   8.755   8.449  0.1196 -0.6374  0.5900
  302MOL0     C41566   4.331   8.826   8.548 -0.3366 -0.0639 -0.4230
  302MOL0     C41567   4.261   8.774   8.309  0.1887 -0.1401  0.8340
  302MOL0     C41568   4.368   8.869   8.257  1.3010  0.1937  0.5141
  302MOL0     O41569   4.491   8.900   8.319 -0.2276  0.4531 -0.0310
  302MOL0     C41570   4.579   8.993   8.273 -0.7857  0.6523 -0.0207
  302MOL0     C41571   4.693   8.946   8.190 -0.2960  0.1393  0.4255
  302MOL0     C41572   4.803   9.025   8.142  0.0202 -0.7091  0.6397
  302MOL0     C41573   4.781   9.166   8.173  0.1523  0.4555 -0.4306
  302MOL0     O41574   4.871   9.255   8.129  0.4346 -0.5453  0.1292
  302MOL0     C41575   4.991   9.225   8.061 -0.4176 -0.0260  0.5739
  302MOL0     C41576   5.090   9.338   8.066 -0.6900 -0.2129 -0.2633
  302MOL0     C41577   5.202   9.321   7.962 -0.2894  0.2730 -0.1934
  302MOL0     C41578   5.287   9.453   7.972  0.2021 -0.0403  0.6804
  302MOL0     C41579   5.423   9.442   7.880  0.8523 -1.0328  0.3187
  302MOL0     C41580   5.493   9.584   7.872 -0.8059 -0.1970 -0.3344
  302MOL0     C41581   5.597   9.585   7.763 -0.1833 -0.0170  0.1133
  302MOL0     C41582   5.669   9.727   7.763  0.6241  0.1283 -0.4913
  302MOL0    Cl41583   5.809   9.739   7.657 -0.4113 -0.0552 -0.2465
  302MOL0     C41584   4.674   9.211   8.267 -0.6789  0.1750  0.1042
  302MOL0     C41585   4.579   9.125   8.310  0.0515  0.5094 -0.1900
  302MOL0     O41586   4.326   8.928   8.161  0.1074 -0.5134  0.4212
  302MOL0     C41587   4.177   8.702   8.210  0.9150  0.6720 -0.2861
  302MOL0     C41588   4.075   8.624   8.259  0.6252 -0.5988 -0.5208
  302MOL0     N41589   3.665   7.925   8.496 -0.2777  0.2660  0.3236
  302MOL0     N41590   3.601   7.814   8.467  0.0674  0.0483 -0.4172
  302MOL0     C41591   2.735   7.222   8.980  0.5934  0.4655  0.6668
  302MOL0     C41592   2.753   7.146   9.099 -0.3216 -0.4588 -0.3072
  302MOL0     C41593   2.901   6.816   9.339 -0.3141 -0.0898 -0.7053
  302MOL0     C41594   2.837   6.875   9.453  0.0176  0.1161 -0.7310
  302MOL0     C41595   2.804   6.794   9.560  0.3241 -1.5992 -0.5329
  302MOL0     C41596   2.838   6.663   9.567  0.2473  0.6411  0.2949
  302MOL0     O41597   2.790   6.586   9.677 -0.2215  0.0431  0.0027
  302MOL0     C41598   2.785   6.443   9.654  0.0593 -0.9405  0.2301
  302MOL0     C41599   2.697   6.408   9.777  0.1332  0.0279 -0.0913
  302MOL0     C41600   2.548   6.439   9.762 -0.3108 -0.1086  0.0465
  302MOL0     C41601   2.484   6.317   9.688  0.6315  0.3911  0.3642
  302MOL0     C41602   2.353   6.372   9.649 -0.3408 -0.5733  0.4206
  302MOL0     C41603   2.237   6.410   9.615 -0.6043  0.0313 -0.5998
  302MOL0     C41604   2.917   6.608   9.456  0.0023 -0.5661 -0.7668
  302MOL0     C41605   2.952   6.684   9.347  0.5443 -0.1679 -0.3767
  302MOL0     C41606   3.030   6.615   9.238  0.4797 -0.7551 -0.5000
  302MOL0     H41607   3.081   7.099   9.079  0.0204  1.9127  1.1308
  302MOL0     H41608   3.049   7.291   8.882 -0.6957  0.9850  0.7492
  302MOL0     H41609   2.696   7.520   8.847 -2.2105 -0.3786 -0.1968
  302MOL0     H41610   2.628   7.394   8.753 -0.5053  1.6712 -3.0817
  302MOL0     H41611   2.782   7.462   8.561 -0.8269  0.6119 -0.9881
  302MOL0     H41612   2.673   7.581   8.621 -2.0725 -2.7434  1.2861
  302MOL0     H41613   2.890   7.692   8.719 -1.6482  1.7856 -2.2272
  302MOL0     H41614   2.974   7.546   8.676 -0.0231 -1.0919  0.2003
  302MOL0     H41615   2.945   7.557   8.457 -1.4285 -0.7912  0.6406
  302MOL0     H41616   2.828   7.700   8.462 -0.8357  1.0434  2.6378
  302MOL0     H41617   3.107   7.735   8.574 -0.8095 -1.9728  0.5354
  302MOL0     H41618   3.009   7.853   8.490 -3.0655 -0.8261  0.6211
  302MOL0     H41619   3.155   7.615   8.354 -0.5235  0.3855 -0.6058
  302MOL0     H41620   3.061   7.740   8.269 -0.3115  0.5526 -0.1387
  302MOL0     H41621   3.226   7.907   8.358  1.3699 -0.1406  3.0062
  302MOL0     H41622   3.298   7.787   8.240 -0.0808 -3.1509 -0.3690
  302MOL0     H41623   3.295   7.745   8.538  0.0534 -0.9704 -0.0573
  302MOL0     H41624   3.383   7.653   8.422 -1.2992  0.2376 -2.2283
  302MOL0     H41625   3.361   8.028   8.488 -2.3273 -4.2049  1.8264
  302MOL0     H41626   3.658   8.182   8.638  2.4521 -0.5067 -0.5327
  302MOL0     H41627   3.535   8.238   8.522  0.0826  0.2960  2.7033
  302MOL0     H41628   3.819   8.155   8.439 -2.0436 -2.3909 -1.4890
  302MOL0     H41629   3.693   8.212   8.336  1.8916 -1.1898 -0.5633
  302MOL0     H41630   3.692   8.432   8.488  0.8931  1.5980  2.2307
  302MOL0     H41631   3.819   8.356   8.579  0.8365  1.0429 -0.0070
  302MOL0     H41632   3.957   8.348   8.373 -1.8051 -1.8107  2.5651
  302MOL0     H41633   3.837   8.464   8.294  1.5060 -0.2330  0.0298
  302MOL0     H41634   4.098   8.658   8.590  2.0003  0.1458  0.4634
  302MOL0     H41635   4.350   8.930   8.517  3.2331  0.0035  1.4882
  302MOL0     H41636   4.432   8.786   8.560  0.3448  2.2802  3.4700
  302MOL0     H41637   4.284   8.842   8.645  1.4649  2.6427  0.1242
  302MOL0     H41638   4.720   8.848   8.152 -0.8047  1.0626 -2.5461
  302MOL0     H41639   4.885   8.993   8.079  0.8819  4.6302 -1.5297
  302MOL0     H41640   5.043   9.144   8.113  0.0289 -0.0456  0.1076
  302MOL0     H41641   4.968   9.183   7.962 -0.6051 -0.0585  0.6313
  302MOL0     H41642   5.037   9.431   8.045  1.5807  0.8751 -1.5396
  302MOL0     H41643   5.147   9.338   8.160  0.8589 -1.8216 -1.1236
  302MOL0     H41644   5.147   9.326   7.867  0.4613  2.6722 -0.5696
  302MOL0     H41645   5.260   9.228   7.964 -5.1595 -3.1500  1.2634
  302MOL0     H41646   5.310   9.477   8.076  0.4828 -0.5346  0.7349
  302MOL0     H41647   5.226   9.537   7.936 -2.6425 -1.8287  1.0101
  302MOL0     H41648   5.486   9.368   7.931 -1.0335 -1.4723  2.1548
  302MOL0     H41649   5.388   9.415   7.780 -0.9880 -1.3870  1.0223
  302MOL0     H41650   5.544   9.601   7.967  0.8935 -0.4946 -1.1399
  302MOL0     H41651   5.429   9.671   7.851 -0.1835 -0.1255 -2.1331
  302MOL0     H41652   5.556   9.556   7.666 -0.1946  0.1982  0.0510
  302MOL0     H41653   5.673   9.512   7.791 -1.4461 -1.6116 -0.4554
  302MOL0     H41654   5.698   9.760   7.863  1.9419  1.2008 -1.1850
  302MOL0     H41655   5.612   9.813   7.726  4.7667  3.7877  0.7318
  302MOL0     H41656   4.678   9.313   8.302  1.4307  0.5376 -1.0073
  302MOL0     H41657   4.504   9.167   8.376 -0.6514 -0.7366 -0.1716
  302MOL0     H41658   4.196   8.678   8.106 -1.0714 -1.2895 -0.2873
  302MOL0     H41659   4.010   8.572   8.189 -0.9173  2.0369 -1.1723
  302MOL0     H41660   2.634   7.249   8.952 -0.0883 -2.9664 -0.6563
  302MOL0     H41661   2.666   7.116   9.157  0.5133  0.9829  1.8312
  302MOL0     H41662   2.809   6.979   9.463 -0.8271 -0.1824  0.1987
  302MOL0     H41663   2.756   6.835   9.648  2.0795 -0.3667 -0.0982
  302MOL0     H41664   2.740   6.408   9.561 -0.1410 -0.4505  0.1386
  302MOL0     H41665   2.888   6.409   9.669 -0.5446 -2.7950  0.3310
  302MOL0     H41666   2.736   6.455   9.867  0.0450  2.6468 -1.3381
  302MOL0     H41667   2.701   6.301   9.799  1.5188  0.6182  3.0455
  302MOL0     H41668   2.505   6.460   9.861 -1.2567 -0.3320 -0.3046
  302MOL0     H41669   2.535   6.532   9.707  3.6461  0.6799  0.1400
  302MOL0     H41670   2.469   6.232   9.755 -1.6640  0.8383  0.5046
  302MOL0     H41671   2.550   6.296   9.603 -1.4821 -0.6920 -1.1046
  302MOL0     H41672   2.139   6.437   9.580 -1.5800 -2.1783  0.2229
  302MOL0     H41673   2.946   6.504   9.470  3.1200  0.2666 -0.3390
  302MOL0     H41674   3.092   6.534   9.277 -0.0777 -0.5848  0.8029
  302MOL0     H41675   2.955   6.570   9.172 -3.7044 -0.4382  3.5268
  302MOL0     H41676   3.092   6.691   9.190 -1.4534  2.4574  1.6852
  303MOL0     O41677  11.125   0.245   6.794 -0.0800  0.1752 -0.0750
  303MOL0     C41678  11.135   0.360   6.843 -0.3975  0.3712  0.3989
  303MOL0     O41679  11.209   0.460   6.774  0.3743 -0.8250 -0.6178
  303MOL0     C41680  11.248   0.429   6.645  0.9960  0.9523  0.3223
  303MOL0     C41681  11.182   0.483   6.532 -0.1073  0.8206  0.0064
  303MOL0     C41682  11.205   0.449   6.406 -0.2203 -0.8399 -0.1821
  303MOL0     C41683  11.297   0.346   6.380  0.5164  1.0662  0.2006
  303MOL0     O41684  11.315   0.311   6.246  0.3970 -0.1344 -0.3038
  303MOL0     C41685  11.445   0.316   6.197 -0.3170 -0.2468 -0.2595
  303MOL0     C41686  11.451   0.408   6.067  0.3470  0.4124 -0.4513
  303MOL0     C41687  11.363   0.372   5.949 -0.7952 -0.7544  0.1707
  303MOL0     C41688  11.399   0.251   5.869  0.6835 -0.0631 -0.7747
  303MOL0     C41689  11.368   0.268   5.717 -1.4912  0.2744  0.2005
  303MOL0     C41690  11.223   0.309   5.678  0.0163 -0.5616 -0.5000
  303MOL0     C41691  11.199   0.290   5.536 -0.3464  0.1126  0.0686
  303MOL0     C41692  11.049   0.292   5.504  0.9049 -0.1155  0.1038
  303MOL0     N41693  10.968   0.409   5.538  0.6036  0.3753 -0.5540
  303MOL0     C41694  10.984   0.529   5.480 -0.4858  0.8220 -0.1938
  303MOL0     C41695  10.885   0.613   5.534  0.1372  0.7479  0.0198
  303MOL0     C41696  10.877   0.766   5.520 -0.2664 -0.1017  0.8980
  303MOL0     C41697  10.784   0.785   5.391  0.6922 -0.0842 -0.3560
  303MOL0     C41698  10.732   0.931   5.388 -0.1382  0.2682 -0.3481
  303MOL0     C41699  10.837   1.044   5.375  0.2408 -0.5835  0.0558
  303MOL0     O41700  10.938   1.018   5.275 -0.8184 -0.6141  0.5243
  303MOL0     C41701  11.002   1.126   5.223 -0.3809 -0.0575  0.1086
  303MOL0     C41702  11.026   1.255   5.289 -0.5675 -0.2761 -0.7943
  303MOL0     C41703  11.116   1.351   5.232 -0.1157  0.0791  0.7933
  303MOL0     C41704  11.137   1.488   5.303  0.7894 -0.1513  0.0542
  303MOL0     C41705  11.173   1.327   5.099  0.4794  0.4918 -0.8318
  303MOL0     C41706  11.264   1.424   5.037  0.6310  0.7146  0.5225
  303MOL0     O41707  11.279   1.386   4.900 -0.4747 -0.2499  0.1438
  303MOL0     C41708  11.370   1.447   4.813  0.1075  0.0415  0.6925
  303MOL0     C41709  11.453   1.561   4.839 -0.5722  0.8410 -0.1639
  303MOL0     C41710  11.526   1.625   4.731 -0.1106 -0.1026 -0.3454
  303MOL0     C41711  11.520   1.569   4.600  0.1888  0.3419 -0.9469
  303MOL0     O41712  11.591   1.605   4.487 -0.3647 -0.0673 -0.1777
  303MOL0     C41713  11.719   1.652   4.517 -0.7420 -0.2192  0.0496
  303MOL0     C41714  11.774   1.691   4.384 -0.2094 -0.0625  0.0665
  303MOL0     C41715  11.924   1.734   4.373 -0.5841 -0.3050  0.1619
  303MOL0     C41716  11.975   1.799   4.500  0.0439  0.1119  0.0734
  303MOL0     C41717  12.119   1.858   4.492  0.4831  0.0841 -0.1643
  303MOL0     C41718  12.151   1.932   4.363 -0.0994 -0.3608  0.6504
  303MOL0     C41719  12.287   2.008   4.362 -0.6209  0.4730 -0.0979
  303MOL0     C41720  12.303   2.079   4.229  0.6666  0.2706  0.3373
  303MOL0    Cl41721  12.461   2.164   4.202  0.2336 -0.2931  0.0727
  303MOL0     C41722  11.446   1.451   4.581  0.0421  0.4450  0.5504
  303MOL0     C41723  11.373   1.389   4.682 -0.2822 -0.2799 -1.2160
  303MOL0     O41724  11.321   1.520   5.095  0.4523  0.2455 -0.5078
  303MOL0     C41725  11.136   1.210   5.034  0.4574  1.0268 -0.1253
  303MOL0     C41726  11.057   1.108   5.094  0.3786  0.4578 -0.5672
  303MOL0     N41727  10.799   0.536   5.613 -0.1742 -0.2092 -0.0410
  303MOL0     N41728  10.849   0.418   5.609  0.3409  0.4486 -0.3406
  303MOL0     C41729  11.359   0.282   6.484  0.9331 -0.0100 -0.3370
  303MOL0     C41730  11.335   0.324   6.616  0.4952 -1.0018 -0.1315
  303MOL0     C41731  11.059   0.384   6.966  0.2579  0.5810 -0.7382
  303MOL0     C41732  11.061   0.520   7.011  0.4473 -1.3285 -0.6673
  303MOL0     C41733  10.980   0.562   7.113  0.2139  0.1131 -0.3993
  303MOL0     C41734  10.909   0.477   7.200 -0.3979 -0.6362  0.2059
  303MOL0     O41735  10.854   0.537   7.311  0.5584  0.3019  0.4194
  303MOL0     C41736  10.748   0.477   7.391 -0.5793  0.1710 -0.3869
  303MOL0     C41737  10.617   0.490   7.321  0.4515 -0.1983  0.5281
  303MOL0     C41738  10.584   0.370   7.226 -0.7628 -0.2079 -0.3304
  303MOL0     C41739  10.437   0.373   7.193  0.1364 -0.3128  0.5010
  303MOL0     C41740  10.398   0.464   7.076 -0.6267 -0.2293 -0.0091
  303MOL0     C41741  10.401   0.559   6.997 -0.7819  0.8546 -0.2795
  303MOL0     C41742  10.922   0.337   7.167 -0.4948 -0.1538  0.0029
  303MOL0     C41743  10.988   0.282   7.046  0.2730  1.4041  0.1832
  303MOL0     C41744  10.983   0.129   7.032 -0.5979  0.6239 -0.3724
  303MOL0     H41745  11.102   0.553   6.551 -0.6900  0.4352 -0.9749
  303MOL0     H41746  11.148   0.506   6.333  0.2825  4.5019  3.0574
  303MOL0     H41747  11.487   0.217   6.180 -0.9678 -0.4361 -0.8491
  303MOL0     H41748  11.511   0.360   6.272  0.2244 -4.1751  1.7758
  303MOL0     H41749  11.428   0.510   6.100  0.9608  0.1933  0.7370
  303MOL0     H41750  11.552   0.414   6.025  0.2478  0.1823 -0.7215
  303MOL0     H41751  11.260   0.374   5.987 -0.0407 -2.7310  2.6068
  303MOL0     H41752  11.369   0.456   5.879  0.3761 -2.4127 -1.7928
  303MOL0     H41753  11.505   0.226   5.883  0.8014  1.7655  2.8696
  303MOL0     H41754  11.359   0.156   5.906  0.2891  0.7919  1.1135
  303MOL0     H41755  11.390   0.173   5.667  0.6768  0.6444  0.3269
  303MOL0     H41756  11.446   0.336   5.682  0.5349 -2.0956 -0.1683
  303MOL0     H41757  11.161   0.239   5.735  1.4240 -2.5563 -1.3090
  303MOL0     H41758  11.202   0.409   5.717 -1.1748  0.2436 -2.9957
  303MOL0     H41759  11.248   0.200   5.498 -1.4014  0.0154 -1.1341
  303MOL0     H41760  11.244   0.370   5.476 -0.1248 -0.2314 -0.2255
  303MOL0     H41761  11.030   0.296   5.396  0.6002  0.8594  0.1862
  303MOL0     H41762  10.989   0.205   5.532 -0.9626  0.3709 -2.0753
  303MOL0     H41763  11.069   0.561   5.421  0.6045  1.1929  1.5115
  303MOL0     H41764  10.978   0.808   5.520 -0.7866  1.2028  2.0100
  303MOL0     H41765  10.837   0.806   5.614 -1.6503 -0.7702  0.6095
  303MOL0     H41766  10.845   0.783   5.300  1.8061  2.1031  0.2673
  303MOL0     H41767  10.696   0.720   5.389 -0.3496  1.1606  1.4152
  303MOL0     H41768  10.662   0.922   5.305  1.3041 -4.8423 -1.3717
  303MOL0     H41769  10.666   0.951   5.472  4.0972  1.1929  3.1486
  303MOL0     H41770  10.785   1.137   5.352  3.1140  1.3102  0.7724
  303MOL0     H41771  10.890   1.068   5.468 -0.4229  0.6485  0.1383
  303MOL0     H41772  10.993   1.277   5.390 -1.7624 -0.6454 -1.0980
  303MOL0     H41773  11.146   1.579   5.243 -0.5067 -0.0547 -0.0139
  303MOL0     H41774  11.227   1.484   5.365 -0.6271  0.7289  2.3000
  303MOL0     H41775  11.049   1.497   5.367  1.5533  0.8579  0.9912
  303MOL0     H41776  11.453   1.603   4.939 -2.0028 -3.6708  2.0170
  303MOL0     H41777  11.601   1.696   4.764  2.8697 -0.6473 -5.0480
  303MOL0     H41778  11.727   1.742   4.579 -0.7853 -0.5250  0.5056
  303MOL0     H41779  11.776   1.566   4.553  1.1051  1.7833  2.2304
  303MOL0     H41780  11.753   1.609   4.315 -1.1974 -0.4671  0.8260
  303MOL0     H41781  11.713   1.769   4.339  1.2217  1.1520  0.1430
  303MOL0     H41782  11.938   1.790   4.280  0.4616 -1.4267 -0.3803
  303MOL0     H41783  11.974   1.639   4.354 -0.1780 -0.1940  0.6495
  303MOL0     H41784  11.965   1.730   4.584 -1.5715 -0.6170 -0.6614
  303MOL0     H41785  11.904   1.882   4.510 -2.2082 -1.2372 -2.9224
  303MOL0     H41786  12.128   1.932   4.572 -1.7101  2.6655 -2.1246
  303MOL0     H41787  12.185   1.772   4.505  3.8740  2.6180  0.7834
  303MOL0     H41788  12.070   2.001   4.335  0.8554 -0.2094 -1.9876
  303MOL0     H41789  12.148   1.865   4.277 -2.6987 -0.0570  0.4031
  303MOL0     H41790  12.375   1.942   4.361  1.1306  2.5963 -2.9421
  303MOL0     H41791  12.295   2.077   4.446 -0.9318  1.6091 -0.9861
  303MOL0     H41792  12.229   2.160   4.226  1.3375  0.8788 -1.7089
  303MOL0     H41793  12.282   2.013   4.144 -5.3921  1.0738  0.8001
  303MOL0     H41794  11.441   1.402   4.484  0.6543  0.9247  0.2649
  303MOL0     H41795  11.316   1.297   4.677  0.3580 -0.7213 -0.4188
  303MOL0     H41796  11.175   1.178   4.938 -0.3116 -4.1475  0.9753
  303MOL0     H41797  11.040   1.018   5.036  0.2807 -0.0120  0.1709
  303MOL0     H41798  11.432   0.209   6.450 -0.0112 -1.4401  0.5989
  303MOL0     H41799  11.380   0.275   6.701 -0.4527  2.5760  2.6746
  303MOL0     H41800  11.125   0.595   6.966  0.8747 -1.5364 -0.4144
  303MOL0     H41801  10.986   0.670   7.126 -1.0857  0.5683 -3.0241
  303MOL0     H41802  10.767   0.372   7.416  0.1438  0.0239 -1.4866
  303MOL0     H41803  10.746   0.531   7.486 -1.7764 -1.3710  0.5025
  303MOL0     H41804  10.630   0.581   7.261  0.3850  0.9231  2.1288
  303MOL0     H41805  10.538   0.495   7.396 -0.2164  2.8579 -0.2197
  303MOL0     H41806  10.641   0.376   7.133 -1.4130 -1.0437 -0.7993
  303MOL0     H41807  10.604   0.275   7.276  0.3825  0.3104  0.2147
  303MOL0     H41808  10.386   0.400   7.285  2.2476 -1.7082  2.1722
  303MOL0     H41809  10.414   0.268   7.170  0.4706 -0.2532 -0.1218
  303MOL0     H41810  10.402   0.639   6.926  0.8275 -0.6447 -2.0648
  303MOL0     H41811  10.882   0.259   7.231 -2.0023 -0.2063 -0.9828
  303MOL0     H41812  10.954   0.074   7.122 -0.7367 -2.2470 -2.0662
  303MOL0     H41813  10.911   0.102   6.955 -0.0569 -0.0838 -0.6288
  303MOL0     H41814  11.079   0.087   7.002 -2.0635 -1.7450 -2.0320
  304MOL0     O41815   9.541   5.220   0.816 -0.3803 -0.4175  0.0880
  304MOL0     C41816   9.432   5.268   0.793  0.6006  0.4880  0.0642
  304MOL0     O41817   9.375   5.300   0.673 -0.6240  1.1442 -0.1217
  304MOL0     C41818   9.445   5.295   0.551  0.1161  0.8190 -0.5208
  304MOL0     C41819   9.374   5.316   0.432  0.0104  0.1613 -0.4639
  304MOL0     C41820   9.428   5.315   0.306 -0.6729 -0.0985 -0.1572
  304MOL0     C41821   9.563   5.306   0.290 -0.9418  0.8581  0.5996
  304MOL0     O41822   9.608   5.320   0.160 -0.5057  1.4467 -0.5493
  304MOL0     C41823   9.744   5.297   0.118 -0.0537 -0.2668  0.4378
  304MOL0     C41824   9.776   5.347  -0.019  0.2099  0.3740  0.5087
  304MOL0     C41825   9.908   5.288  -0.056 -0.5634 -0.3803  0.0239
  304MOL0     C41826   9.963   5.355  -0.190 -0.3288 -0.2077 -0.8547
  304MOL0     C41827  10.095   5.427  -0.177 -0.5273 -0.2218  0.0908
  304MOL0     C41828  10.212   5.334  -0.125 -0.1473 -0.2376 -0.1357
  304MOL0     C41829  10.352   5.395  -0.128 -0.2607 -0.0521 -0.5762
  304MOL0     C41830  10.386   5.481  -0.247 -0.2209  0.6558  0.1723
  304MOL0     N41831  10.529   5.529  -0.253  0.0693  0.5089 -0.6013
  304MOL0     C41832  10.572   5.632  -0.337  1.3407 -0.2361  0.8006
  304MOL0     C41833  10.686   5.676  -0.289 -0.3804 -0.5682  0.1693
  304MOL0     C41834  10.779   5.776  -0.359  0.3266 -0.1112 -0.2913
  304MOL0     C41835  10.903   5.808  -0.277 -0.5978 -0.1138  0.7174
  304MOL0     C41836  11.013   5.879  -0.365  0.0716  0.5592 -0.4768
  304MOL0     C41837  11.098   5.972  -0.275 -0.5416 -0.3562 -0.4425
  304MOL0     O41838  11.226   6.024  -0.316 -0.5202  0.4729 -0.7804
  304MOL0     C41839  11.315   5.940  -0.383  0.1858  0.5799 -0.0252
  304MOL0     C41840  11.409   5.993  -0.471 -0.1222 -1.2772 -0.1975
  304MOL0     C41841  11.512   5.918  -0.524  0.3365 -0.2217  0.8679
  304MOL0     C41842  11.616   6.001  -0.605 -0.2247  0.5507  0.7096
  304MOL0     C41843  11.523   5.783  -0.497  0.4627  0.3531 -0.5387
  304MOL0     C41844  11.631   5.707  -0.557  1.0966 -0.4965  0.9245
  304MOL0     O41845  11.675   5.735  -0.685  0.2104 -0.5611 -0.3464
  304MOL0     C41846  11.751   5.647  -0.754 -0.8793  1.1059  0.8661
  304MOL0     C41847  11.840   5.701  -0.851 -0.3042  0.7679 -0.2752
  304MOL0     C41848  11.903   5.627  -0.950  0.4179  0.3462 -0.3721
  304MOL0     C41849  11.886   5.488  -0.952  0.6340  0.5473 -0.2957
  304MOL0     O41850  11.945   5.420  -1.058  0.0032  0.9556  0.0071
  304MOL0     C41851  12.086   5.402  -1.040 -0.0665 -0.2861  0.2216
  304MOL0     C41852  12.143   5.274  -1.109 -0.8661  0.6183  0.4735
  304MOL0     C41853  12.088   5.142  -1.061 -0.3330  0.2397 -1.2501
  304MOL0     C41854  12.138   5.019  -1.142 -0.1553 -0.9890  0.3742
  304MOL0     C41855  12.086   4.890  -1.088 -0.9450 -1.2725 -0.1002
  304MOL0     C41856  12.172   4.768  -1.128  0.0605 -0.0695 -0.5453
  304MOL0     C41857  12.076   4.650  -1.106  0.4840  0.6580 -0.3948
  304MOL0     C41858  12.148   4.517  -1.107  0.1185  0.0322  0.3954
  304MOL0    Cl41859  12.058   4.367  -1.136 -0.0584 -0.3352  0.2746
  304MOL0     C41860  11.806   5.419  -0.852 -0.6096  0.5277 -1.3315
  304MOL0     C41861  11.741   5.497  -0.751 -0.6123 -0.2628  0.3929
  304MOL0     O41862  11.686   5.630  -0.482 -0.1506 -0.4025  0.4213
  304MOL0     C41863  11.433   5.727  -0.405  0.0951 -0.2864 -0.0831
  304MOL0     C41864  11.337   5.806  -0.342  0.5699 -0.1013  0.3278
  304MOL0     N41865  10.712   5.608  -0.176 -0.3570  0.5404  0.3802
  304MOL0     N41866  10.627   5.511  -0.164  0.7151  0.2686 -0.1821
  304MOL0     C41867   9.644   5.294   0.400  1.0318  0.3334  0.7823
  304MOL0     C41868   9.586   5.279   0.529  0.9748 -0.9409  0.4855
  304MOL0     C41869   9.340   5.287   0.904  0.4922 -0.6141 -0.1990
  304MOL0     C41870   9.279   5.180   0.967 -0.4083  1.1120 -1.0425
  304MOL0     C41871   9.190   5.199   1.073 -0.9887  0.6421  0.2317
  304MOL0     C41872   9.134   5.320   1.096 -0.2716 -0.3604 -0.1070
  304MOL0     O41873   9.025   5.315   1.178 -0.4798 -0.2591 -0.4919
  304MOL0     C41874   8.960   5.431   1.221 -0.6624  0.0734 -0.4983
  304MOL0     C41875   8.825   5.390   1.251  0.2693  0.7008  0.2747
  304MOL0     C41876   8.810   5.264   1.341  0.0225  0.0275  0.4863
  304MOL0     C41877   8.665   5.238   1.375  0.0400  0.6449 -0.3315
  304MOL0     C41878   8.638   5.100   1.410 -0.1356  0.2594  0.8003
  304MOL0     C41879   8.627   4.976   1.413  0.0034 -0.4904  0.3750
  304MOL0     C41880   9.189   5.428   1.019  0.4225 -0.2035 -0.1971
  304MOL0     C41881   9.295   5.417   0.925 -0.4499 -0.0989 -0.9901
  304MOL0     C41882   9.353   5.532   0.858 -0.4017 -0.3522  0.0410
  304MOL0     H41883   9.274   5.356   0.446  0.2543  0.2843  1.0471
  304MOL0     H41884   9.363   5.337   0.222 -4.1341  0.5431  2.4959
  304MOL0     H41885   9.765   5.191   0.107  1.9222  0.2971 -2.2852
  304MOL0     H41886   9.808   5.350   0.191 -0.9831 -1.8543  2.4920
  304MOL0     H41887   9.701   5.310  -0.090 -1.8871  1.8277  1.8738
  304MOL0     H41888   9.765   5.456  -0.027 -0.2951  0.4534  2.0603
  304MOL0     H41889   9.975   5.304   0.029 -2.3130 -0.3808  1.4707
  304MOL0     H41890   9.903   5.180  -0.072 -1.2881 -0.7480  2.3625
  304MOL0     H41891   9.970   5.270  -0.260 -3.2308  2.5337 -4.9446
  304MOL0     H41892   9.885   5.419  -0.232 -0.0790  0.1976 -0.7032
  304MOL0     H41893  10.084   5.519  -0.120 -3.4300 -1.7755  2.2531
  304MOL0     H41894  10.119   5.450  -0.281  0.1845 -2.0218 -0.1867
  304MOL0     H41895  10.188   5.304  -0.023 -2.7700  1.1596 -0.2559
  304MOL0     H41896  10.222   5.242  -0.183  1.9647  1.0060 -1.9442
  304MOL0     H41897  10.434   5.323  -0.120  0.4424  0.8905  1.4259
  304MOL0     H41898  10.356   5.456  -0.037 -1.5750 -4.1526  2.5375
  304MOL0     H41899  10.382   5.419  -0.338  0.2798 -0.8844  1.1492
  304MOL0     H41900  10.322   5.568  -0.259  0.2777  0.8364 -1.5528
  304MOL0     H41901  10.529   5.665  -0.431 -0.7826  0.4598  1.9452
  304MOL0     H41902  10.722   5.868  -0.370  0.1045 -0.2901 -0.6741
  304MOL0     H41903  10.810   5.740  -0.459 -1.0512 -0.5869 -0.5662
  304MOL0     H41904  10.877   5.867  -0.189  1.4702 -1.9427  2.6887
  304MOL0     H41905  10.948   5.717  -0.237 -0.5704 -0.6700 -0.5371
  304MOL0     H41906  11.081   5.799  -0.394 -1.9064 -1.7778  0.9668
  304MOL0     H41907  10.973   5.927  -0.455 -0.6584 -0.1568 -0.5463
  304MOL0     H41908  11.050   6.064  -0.240  0.2861 -0.4198  0.9873
  304MOL0     H41909  11.117   5.915  -0.183  0.7819  0.7845  0.0256
  304MOL0     H41910  11.397   6.097  -0.498  3.3655 -0.7661 -0.2787
  304MOL0     H41911  11.615   5.958  -0.706  0.1574  1.5175  0.2741
  304MOL0     H41912  11.710   5.970  -0.558 -0.0625  0.2340  0.1877
  304MOL0     H41913  11.605   6.110  -0.611 -0.8310  0.4919  0.7791
  304MOL0     H41914  11.850   5.808  -0.867  0.1423  0.3733 -3.1821
  304MOL0     H41915  11.960   5.676  -1.028  2.0543  0.6270  0.9460
  304MOL0     H41916  12.141   5.489  -1.078  2.5915 -2.0283 -0.1538
  304MOL0     H41917  12.108   5.403  -0.933  0.1868 -0.7891  0.1783
  304MOL0     H41918  12.133   5.288  -1.217  2.5577 -3.7354 -0.7343
  304MOL0     H41919  12.252   5.265  -1.101 -0.7739 -0.9775 -1.6679
  304MOL0     H41920  11.980   5.126  -1.066 -0.0718 -1.8212 -1.5405
  304MOL0     H41921  12.117   5.144  -0.956  1.8114 -1.1886 -1.7383
  304MOL0     H41922  12.246   5.015  -1.152 -0.0431 -0.8763  1.4976
  304MOL0     H41923  12.091   5.031  -1.241  1.5783 -0.4908 -0.4298
  304MOL0     H41924  12.091   4.897  -0.979  0.8855 -0.5513 -0.1839
  304MOL0     H41925  11.981   4.882  -1.117 -1.3120  1.7760  0.0762
  304MOL0     H41926  12.265   4.758  -1.072  1.1848 -1.7052 -2.5826
  304MOL0     H41927  12.183   4.777  -1.237 -0.2533 -0.1232 -0.5839
  304MOL0     H41928  12.007   4.646  -1.191  0.4344 -1.1599 -0.3180
  304MOL0     H41929  12.007   4.653  -1.021 -0.6071 -1.1880 -1.1374
  304MOL0     H41930  12.197   4.516  -1.009 -0.9213 -0.1158  0.9280
  304MOL0     H41931  12.220   4.528  -1.188 -3.0270  0.0291 -2.6187
  304MOL0     H41932  11.801   5.311  -0.858  2.6404  0.0409  1.4963
  304MOL0     H41933  11.679   5.442  -0.680 -1.3506 -2.3587 -1.7395
  304MOL0     H41934  11.444   5.620  -0.393  0.4358 -0.5670 -2.3888
  304MOL0     H41935  11.281   5.762  -0.260  1.4839 -3.2158 -0.5811
  304MOL0     H41936   9.752   5.298   0.387  1.1677  0.0652  1.7464
  304MOL0     H41937   9.654   5.254   0.610  2.0705 -0.3226 -0.2170
  304MOL0     H41938   9.307   5.079   0.939  1.3568  1.4865 -0.7178
  304MOL0     H41939   9.153   5.121   1.138  0.9666 -0.9174 -0.4380
  304MOL0     H41940   9.002   5.476   1.311  0.6638  1.0282 -1.5427
  304MOL0     H41941   8.957   5.500   1.136 -0.9765 -1.4768 -1.7919
  304MOL0     H41942   8.781   5.352   1.159 -0.1443 -1.4061  1.2786
  304MOL0     H41943   8.770   5.471   1.301  0.3101 -0.0703  1.6138
  304MOL0     H41944   8.850   5.182   1.281  0.7699  0.6323  0.1368
  304MOL0     H41945   8.853   5.278   1.441 -1.5161 -0.4914  1.2538
  304MOL0     H41946   8.606   5.270   1.288 -1.6691  0.9485  0.8848
  304MOL0     H41947   8.642   5.295   1.466  0.5606  0.2856  0.0298
  304MOL0     H41948   8.614   4.870   1.421 -2.1311 -0.2113  1.3506
  304MOL0     H41949   9.151   5.524   1.052  0.5101 -0.3239  0.2641
  304MOL0     H41950   9.462   5.538   0.866 -0.4330 -0.4598  0.6012
  304MOL0     H41951   9.316   5.551   0.757 -1.0033 -0.9144  0.1464
  304MOL0     H41952   9.316   5.620   0.912 -0.1094 -0.3035  0.1650
  305MOL0     O41953   3.818  10.841  10.669 -1.0865 -0.2700  0.0168
  305MOL0     C41954   3.808  10.877  10.552  0.6158  0.5454 -0.3834
  305MOL0     O41955   3.881  10.971  10.490  0.1487  0.1556 -0.0541
  305MOL0     C41956   4.023  10.973  10.508  0.2452 -0.3069 -1.1117
  305MOL0     C41957   4.100  10.896  10.592 -0.0597  0.1803 -0.3387
  305MOL0     C41958   4.240  10.911  10.616  1.1142 -0.7983 -0.3298
  305MOL0     C41959   4.308  11.010  10.546 -0.5195  0.2230  0.6779
  305MOL0     O41960   4.440  11.030  10.588  0.7212 -0.1242 -0.2423
  305MOL0     C41961   4.518  11.128  10.523 -1.0172  0.3433  0.1118
  305MOL0     C41962   4.655  11.126  10.594 -0.4158 -0.0124 -0.0278
  305MOL0     C41963   4.660  11.058  10.737 -0.4557  0.6334  0.7081
  305MOL0     C41964   4.797  11.070  10.798 -0.0473  0.2343 -0.3788
  305MOL0     C41965   4.797  11.044  10.951 -0.6388 -1.0218  0.2401
  305MOL0     C41966   4.712  10.930  11.007  0.2464  0.1189 -0.4857
  305MOL0     C41967   4.734  10.920  11.159  0.3415 -0.6514 -0.0303
  305MOL0     C41968   4.627  10.821  11.218 -0.0720  0.0066  0.4966
  305MOL0     N41969   4.495  10.853  11.217 -0.2327 -0.4479 -0.2067
  305MOL0     C41970   4.411  10.859  11.106 -0.1841  0.5284  0.0696
  305MOL0     C41971   4.294  10.893  11.170 -0.5760 -0.4645 -0.0600
  305MOL0     C41972   4.160  10.910  11.108 -0.2108  0.5920  0.2087
  305MOL0     C41973   4.135  10.818  10.981  0.0859 -0.2731 -0.3262
  305MOL0     C41974   4.103  10.679  11.037  0.7298 -1.2531 -0.5929
  305MOL0     C41975   4.077  10.578  10.927  0.0131  0.6853 -0.3870
  305MOL0     O41976   4.188  10.571  10.829  1.0113  0.1232  0.0004
  305MOL0     C41977   4.316  10.538  10.875 -0.5325  0.0912 -0.8401
  305MOL0     C41978   4.336  10.461  10.993  0.0201 -0.0587 -0.6043
  305MOL0     C41979   4.466  10.433  11.044 -0.2349 -0.2781  0.0741
  305MOL0     C41980   4.472  10.342  11.166 -0.1185  0.4468 -0.4659
  305MOL0     C41981   4.582  10.485  10.968  1.3466  0.6573  0.2811
  305MOL0     C41982   4.717  10.432  10.996 -0.0992 -0.8703 -0.5750
  305MOL0     O41983   4.804  10.421  10.891  0.5734 -0.6651 -0.0214
  305MOL0     C41984   4.925  10.459  10.925 -0.1503  0.4241 -0.6205
  305MOL0     C41985   4.968  10.586  10.900  0.2769  0.4005 -0.6347
  305MOL0     C41986   5.098  10.630  10.931  0.3277  0.2443 -0.5543
  305MOL0     C41987   5.188  10.547  10.999  0.2029  0.1034 -0.6818
  305MOL0     O41988   5.311  10.596  11.023 -0.3191  0.1873  0.0690
  305MOL0     C41989   5.425  10.512  11.048  0.1964  0.6478 -0.4679
  305MOL0     C41990   5.493  10.476  10.910  0.2939 -0.4402  0.0245
  305MOL0     C41991   5.427  10.353  10.842  0.1894 -0.5676  0.5890
  305MOL0     C41992   5.440  10.378  10.692 -0.2639  0.8549  0.1189
  305MOL0     C41993   5.359  10.278  10.605  0.1581  0.7210  1.1280
  305MOL0     C41994   5.211  10.269  10.628  0.3856  0.0571 -0.9974
  305MOL0     C41995   5.140  10.185  10.529  0.0382  0.6497  0.0794
  305MOL0     C41996   4.999  10.144  10.576  0.2570 -0.0154  0.6528
  305MOL0    Cl41997   5.007  10.020  10.695  0.1743 -0.0673  0.0333
  305MOL0     C41998   5.145  10.412  11.022 -0.1066 -0.2345 -0.6449
  305MOL0     C41999   5.017  10.372  10.984 -0.2717  0.2281 -0.4939
  305MOL0     O42000   4.748  10.426  11.117  0.6565  0.0191  0.0073
  305MOL0     C42001   4.555  10.559  10.852 -0.4783 -0.0687 -0.3211
  305MOL0     C42002   4.429  10.588  10.809  0.0534  0.2453  0.3564
  305MOL0     N42003   4.306  10.899  11.309  0.3236  0.2777 -0.1342
  305MOL0     N42004   4.431  10.894  11.332 -0.3882  0.4312  0.0248
  305MOL0     C42005   4.230  11.094  10.462 -0.1798  0.4288 -0.1596
  305MOL0     C42006   4.096  11.074  10.450 -0.0589  0.1618  0.6383
  305MOL0     C42007   3.670  10.854  10.500  0.2390  0.1115  0.4836
  305MOL0     C42008   3.607  10.955  10.414 -0.9878  0.6966  0.8856
  305MOL0     C42009   3.475  10.946  10.388  1.2056 -0.4565  0.3529
  305MOL0     C42010   3.395  10.834  10.423  0.7031  0.7155 -0.0116
  305MOL0     O42011   3.256  10.832  10.387  0.2191  0.6170  0.2805
  305MOL0     C42012   3.196  10.700  10.415 -0.4373 -0.6736 -0.5552
  305MOL0     C42013   3.052  10.708  10.369 -0.1387  0.0760  0.1327
  305MOL0     C42014   2.968  10.814  10.446 -0.2771  0.4820 -0.4868
  305MOL0     C42015   2.822  10.797  10.403  0.1268  0.2332  0.0423
  305MOL0     C42016   2.815  10.834  10.263  0.2051  0.2915 -0.4000
  305MOL0     C42017   2.812  10.850  10.142 -0.0568 -1.0446 -0.2057
  305MOL0     C42018   3.463  10.735  10.494  0.1310  0.1770  0.4382
  305MOL0     C42019   3.596  10.735  10.536  0.1222 -1.1550 -0.0241
  305MOL0     C42020   3.656  10.618  10.617  0.2485  0.0712 -0.9326
  305MOL0     H42021   4.063  10.827  10.667  1.1870  0.3436  0.4702
  305MOL0     H42022   4.278  10.853  10.699  0.6298 -1.2920 -0.4549
  305MOL0     H42023   4.475  11.225  10.549  0.7875  0.9886  0.8501
  305MOL0     H42024   4.537  11.120  10.416 -0.4433  2.7235 -0.0245
  305MOL0     H42025   4.721  11.070  10.528 -0.0068  1.7991 -1.2039
  305MOL0     H42026   4.687  11.230  10.594 -3.2571  0.9584 -0.7240
  305MOL0     H42027   4.594  11.108  10.808  1.6892 -0.1871  3.4281
  305MOL0     H42028   4.637  10.951  10.733  3.6724 -0.4664  1.3679
  305MOL0     H42029   4.861  10.993  10.755  2.2604  0.5227  2.3203
  305MOL0     H42030   4.848  11.165  10.784  2.9586 -1.2271 -0.1254
  305MOL0     H42031   4.756  11.136  10.995 -2.5862 -2.2526  1.1565
  305MOL0     H42032   4.898  11.027  10.989 -0.3600  0.2754  0.1322
  305MOL0     H42033   4.610  10.958  10.982  0.6995  1.3283 -1.0606
  305MOL0     H42034   4.734  10.830  10.967 -0.2648  0.6886 -2.2640
  305MOL0     H42035   4.720  11.018  11.206 -2.3486 -1.6295  1.4076
  305MOL0     H42036   4.835  10.886  11.181  1.0938  0.7158 -1.1951
  305MOL0     H42037   4.645  10.727  11.165 -3.5664 -0.0905 -0.8000
  305MOL0     H42038   4.657  10.818  11.323  1.3316  2.4626  0.2431
  305MOL0     H42039   4.428  10.831  11.002  1.6238  0.3130  0.3852
  305MOL0     H42040   4.150  11.014  11.076  0.1597  1.3100  2.2591
  305MOL0     H42041   4.075  10.888  11.174  0.6005 -1.6410  0.5871
  305MOL0     H42042   4.057  10.854  10.914 -2.0826 -2.1832  1.0546
  305MOL0     H42043   4.229  10.811  10.925  3.1154  0.3909  4.0790
  305MOL0     H42044   4.184  10.646  11.104  0.0335  1.7637  1.9518
  305MOL0     H42045   4.009  10.692  11.091  1.7526  1.8832  0.7007
  305MOL0     H42046   4.056  10.480  10.972 -0.8804  1.8050  1.8208
  305MOL0     H42047   3.988  10.611  10.872  1.7325  2.3919 -2.2668
  305MOL0     H42048   4.251  10.425  11.051  1.0850  0.4548  1.3466
  305MOL0     H42049   4.375  10.310  11.206  0.3343  0.8236  0.9929
  305MOL0     H42050   4.527  10.382  11.251  0.4372 -1.6786  0.2428
  305MOL0     H42051   4.528  10.252  11.138 -2.8063 -1.6964  0.6211
  305MOL0     H42052   4.895  10.650  10.851  0.6830  0.2849 -1.3938
  305MOL0     H42053   5.126  10.728  10.891 -0.0743  0.1651 -1.0446
  305MOL0     H42054   5.494  10.573  11.105 -2.2887  3.2591 -0.0351
  305MOL0     H42055   5.394  10.431  11.115 -3.1219  0.9595 -1.4052
  305MOL0     H42056   5.507  10.558  10.839 -0.3643 -1.2797 -1.1158
  305MOL0     H42057   5.591  10.451  10.952 -0.5876  2.2993  4.3757
  305MOL0     H42058   5.320  10.360  10.864 -0.2557 -0.3603 -1.4108
  305MOL0     H42059   5.481  10.266  10.879 -0.1446 -1.0294 -0.0025
  305MOL0     H42060   5.542  10.352  10.661 -1.1004 -4.4967  0.7760
  305MOL0     H42061   5.403  10.478  10.671 -1.3750  0.7068  1.1876
  305MOL0     H42062   5.368  10.314  10.503  1.3119 -0.6372  0.7135
  305MOL0     H42063   5.412  10.182  10.609  1.2692  1.1564 -1.2908
  305MOL0     H42064   5.176  10.373  10.622  0.6836  0.1529 -1.1047
  305MOL0     H42065   5.193  10.246  10.733  1.3382 -0.1103 -0.8620
  305MOL0     H42066   5.213  10.104  10.521  0.5782  1.1472 -0.0424
  305MOL0     H42067   5.138  10.237  10.433  0.0374 -0.2935 -0.4408
  305MOL0     H42068   4.937  10.104  10.495 -0.5141 -1.8551  2.0995
  305MOL0     H42069   4.962  10.233  10.628  1.9014 -0.1889  2.2227
  305MOL0     H42070   5.214  10.341  11.068  0.5721  1.2867  0.8046
  305MOL0     H42071   4.988  10.271  11.010 -0.1187  0.8487  2.4749
  305MOL0     H42072   4.646  10.591  10.802  1.7866  0.4611  3.6846
  305MOL0     H42073   4.412  10.650  10.721 -0.3853  1.1668  1.0774
  305MOL0     H42074   4.274  11.171  10.400  3.3760  0.4494  2.0696
  305MOL0     H42075   4.041  11.142  10.386  0.1259  1.1562  1.5240
  305MOL0     H42076   3.660  11.047  10.391 -0.0088 -0.6928 -3.4619
  305MOL0     H42077   3.414  11.021  10.339 -1.5507 -1.0404  2.6129
  305MOL0     H42078   3.250  10.624  10.358  0.8510 -0.1574 -0.0619
  305MOL0     H42079   3.204  10.685  10.523 -2.2522  0.6352 -0.1904
  305MOL0     H42080   3.005  10.610  10.363  2.5294 -1.3330  0.6986
  305MOL0     H42081   3.067  10.739  10.265 -0.7219  1.9435  0.5607
  305MOL0     H42082   2.976  10.795  10.554 -0.4646 -0.4983 -0.6311
  305MOL0     H42083   3.006  10.914  10.423  2.2310  0.2575  2.0352
  305MOL0     H42084   2.755  10.866  10.456  0.0115  0.7930 -0.8173
  305MOL0     H42085   2.792  10.693  10.412 -1.5076  0.4953 -1.7974
  305MOL0     H42086   2.807  10.847  10.035  0.2830  0.7687 -0.3069
  305MOL0     H42087   3.412  10.650  10.538 -1.2241  0.8979  0.2975
  305MOL0     H42088   3.643  10.644  10.723 -0.5501 -3.7330  0.0519
  305MOL0     H42089   3.593  10.530  10.600  0.6583 -0.1468 -1.3195
  305MOL0     H42090   3.758  10.591  10.590  1.6917  1.6527  2.2825
  306MOL0     O42091  10.660  10.570  11.283 -0.2107  0.8158 -0.5047
  306MOL0     C42092  10.605  10.615  11.180 -0.0539 -0.1603 -0.1123
  306MOL0     O42093  10.665  10.669  11.069 -0.8202  0.6025 -0.6903
  306MOL0     C42094  10.809  10.677  11.076  0.5685 -0.2491  0.5586
  306MOL0     C42095  10.863  10.806  11.075 -0.3215  0.4375  0.2674
  306MOL0     C42096  11.006  10.816  11.071 -0.5165 -0.4391 -0.0616
  306MOL0     C42097  11.095  10.702  11.082  1.1496 -0.1272 -0.4285
  306MOL0     O42098  11.235  10.718  11.099  0.0386  0.6574  0.5203
  306MOL0     C42099  11.310  10.609  11.157 -0.3544 -0.5473  0.0255
  306MOL0     C42100  11.441  10.670  11.209 -0.3858 -0.5826 -0.0755
  306MOL0     C42101  11.555  10.566  11.228 -0.4739  0.1696  0.0029
  306MOL0     C42102  11.540  10.509  11.370 -0.2838  0.1397 -0.0896
  306MOL0     C42103  11.603  10.369  11.386  0.1632 -0.2857  0.0918
  306MOL0     C42104  11.759  10.370  11.400 -0.0641 -0.1718  1.4709
  306MOL0     C42105  11.807  10.449  11.524 -0.3631  1.4311  0.9612
  306MOL0     C42106  11.958  10.478  11.511  0.8759 -0.0873  0.3617
  306MOL0     N42107  12.012  10.545  11.627 -0.1364 -0.2171  1.6320
  306MOL0     C42108  12.023  10.484  11.744  0.0669  0.1504  0.8215
  306MOL0     C42109  12.076  10.573  11.822  0.2620 -0.6182  0.4354
  306MOL0     C42110  12.093  10.577  11.978 -0.1547 -0.9906  0.1428
  306MOL0     C42111  12.214  10.496  12.020  0.2925  0.4493 -0.3158
  306MOL0     C42112  12.342  10.549  11.943  0.8277 -1.3367 -0.1131
  306MOL0     C42113  12.470  10.501  12.001 -1.0330 -1.0293 -0.3078
  306MOL0     O42114  12.475  10.511  12.147  0.2534 -0.6260  0.8497
  306MOL0     C42115  12.552  10.417  12.219  0.1769 -0.5091  0.4208
  306MOL0     C42116  12.576  10.283  12.182 -0.3919 -0.7327 -0.0076
  306MOL0     C42117  12.650  10.188  12.253  0.4214 -0.5251 -0.2287
  306MOL0     C42118  12.670  10.045  12.193 -0.4846 -0.1500 -0.3986
  306MOL0     C42119  12.710  10.232  12.372  0.4015 -0.1624 -0.3512
  306MOL0     C42120  12.811  10.152  12.448  0.1841 -0.3967 -0.1882
  306MOL0     O42121  12.909  10.228  12.506  0.1808  0.1546 -0.3681
  306MOL0     C42122  13.030  10.170  12.542 -0.4303  0.0849  0.1218
  306MOL0     C42123  13.094  10.245  12.640  0.3468 -0.1443  0.1458
  306MOL0     C42124  13.226  10.212  12.690  0.7511  0.3032 -0.1304
  306MOL0     C42125  13.295  10.102  12.641 -0.2591  0.8398 -0.4884
  306MOL0     O42126  13.426  10.074  12.679  0.4518  0.0030 -0.1143
  306MOL0     C42127  13.499  10.143  12.777 -0.2942 -0.0357  0.6913
  306MOL0     C42128  13.473  10.085  12.918  0.9400 -0.4569  0.2049
  306MOL0     C42129  13.530  10.174  13.021 -1.0023 -0.0891  0.3004
  306MOL0     C42130  13.684  10.187  13.022  0.5018  0.2061  0.9177
  306MOL0     C42131  13.766  10.057  13.062 -0.3817  0.2547 -0.0158
  306MOL0     C42132  13.864  10.070  13.187 -0.3134  1.5261 -0.5338
  306MOL0     C42133  13.778  10.091  13.309  0.4068  0.3286 -0.7172
  306MOL0     C42134  13.850  10.119  13.444 -0.2787  0.3134  0.4865
  306MOL0    Cl42135  13.728  10.160  13.571  0.1774  0.0738 -0.0827
  306MOL0     C42136  13.226  10.025  12.549  0.3661  0.3689  0.4737
  306MOL0     C42137  13.103  10.055  12.498  0.0647 -0.7570  0.8210
  306MOL0     O42138  12.809  10.026  12.436 -0.0123 -0.3956  0.7557
  306MOL0     C42139  12.683  10.362  12.411  0.9953  0.4615 -1.3915
  306MOL0     C42140  12.607  10.454  12.336  0.3026  0.3128  0.4842
  306MOL0     N42141  12.124  10.681  11.749 -0.7163 -0.1925  0.2336
  306MOL0     N42142  12.085  10.659  11.625  0.8258 -0.8880  0.4756
  306MOL0     C42143  11.031  10.577  11.074 -0.5353  0.1767 -0.1662
  306MOL0     C42144  10.895  10.567  11.075 -0.5479 -0.2444 -0.2565
  306MOL0     C42145  10.453  10.595  11.174  0.0898 -0.3159 -0.5855
  306MOL0     C42146  10.394  10.680  11.077  0.9017  0.2576 -0.0785
  306MOL0     C42147  10.256  10.667  11.060 -0.6682 -0.0604  0.1428
  306MOL0     C42148  10.177  10.590  11.146 -0.4609  0.2100  1.4616
  306MOL0     O42149  10.039  10.585  11.140  0.0530 -1.1259  0.5965
  306MOL0     C42150   9.955  10.681  11.066 -0.1427  0.3369 -0.4095
  306MOL0     C42151   9.944  10.630  10.912  0.1597 -0.4036  0.6379
  306MOL0     C42152   9.848  10.516  10.912 -0.2616  0.4882  0.0736
  306MOL0     C42153   9.801  10.469  10.767 -0.0954  0.1163 -0.2510
  306MOL0     C42154   9.742  10.337  10.790  0.1500 -0.8537  0.2704
  306MOL0     C42155   9.678  10.235  10.815  0.3638  0.7306  0.1614
  306MOL0     C42156  10.233  10.510  11.248  0.0907 -1.2725 -0.4906
  306MOL0     C42157  10.374  10.519  11.259  0.0535 -0.1890 -0.9625
  306MOL0     C42158  10.433  10.438  11.375 -0.7173 -0.1088 -0.2996
  306MOL0     H42159  10.791  10.887  11.060  0.2857  0.7720 -0.9697
  306MOL0     H42160  11.036  10.920  11.073  0.3246 -0.6523 -0.7899
  306MOL0     H42161  11.326  10.531  11.082 -0.5353 -0.9181  0.3659
  306MOL0     H42162  11.251  10.561  11.236 -1.3498  2.8916  1.5542
  306MOL0     H42163  11.472  10.746  11.137  0.7658 -0.9887 -0.0230
  306MOL0     H42164  11.423  10.722  11.303  0.3162 -2.7996  1.3655
  306MOL0     H42165  11.546  10.483  11.158 -0.0059  0.9430 -1.0094
  306MOL0     H42166  11.648  10.614  11.195 -2.3989  3.0517 -1.5580
  306MOL0     H42167  11.574  10.591  11.434 -0.1848  0.1478 -0.1514
  306MOL0     H42168  11.436  10.492  11.400  0.2265  0.1987  1.8329
  306MOL0     H42169  11.565  10.303  11.308 -1.8926  1.8446 -0.8357
  306MOL0     H42170  11.565  10.335  11.483 -1.7033  1.6029  0.0941
  306MOL0     H42171  11.796  10.268  11.413  1.3666  0.1533  0.2385
  306MOL0     H42172  11.795  10.397  11.301 -1.0698 -1.7662  0.6316
  306MOL0     H42173  11.789  10.390  11.614  0.6039 -0.4216 -0.0035
  306MOL0     H42174  11.746  10.539  11.538 -1.5462  0.2276  4.8833
  306MOL0     H42175  12.013  10.384  11.499  2.0241  0.6647 -0.5187
  306MOL0     H42176  11.963  10.543  11.422 -0.8085 -1.3103 -0.7044
  306MOL0     H42177  11.983  10.389  11.780 -1.7325  0.2681 -0.7043
  306MOL0     H42178  12.005  10.550  12.036  0.3015  1.1048  1.9318
  306MOL0     H42179  12.110  10.677  12.019 -2.4673 -1.0221  1.3548
  306MOL0     H42180  12.238  10.508  12.126 -1.1684 -0.8306  0.1941
  306MOL0     H42181  12.199  10.388  12.008 -0.9867  0.6457 -0.6009
  306MOL0     H42182  12.338  10.523  11.837 -2.0857 -1.7080  0.0124
  306MOL0     H42183  12.336  10.656  11.966  0.7742 -1.5095  0.6988
  306MOL0     H42184  12.493  10.401  11.964 -1.0259 -1.0172 -0.3359
  306MOL0     H42185  12.539  10.572  11.954 -0.5459 -2.0442 -1.1452
  306MOL0     H42186  12.530  10.249  12.090  0.3319 -1.6458 -0.0443
  306MOL0     H42187  12.763  10.024  12.140  0.2841 -3.3208  1.9136
  306MOL0     H42188  12.594  10.036  12.114  1.0402  1.5507 -2.1711
  306MOL0     H42189  12.646   9.960  12.257 -0.9021  0.6150  0.4961
  306MOL0     H42190  13.046  10.338  12.671 -0.0764 -0.6922  1.1904
  306MOL0     H42191  13.247  10.284  12.768  0.4417  0.0341  0.2041
  306MOL0     H42192  13.606  10.128  12.761 -0.0621  2.4001 -0.6036
  306MOL0     H42193  13.487  10.252  12.780  0.5105  0.0327  2.1244
  306MOL0     H42194  13.366  10.074  12.935  1.0133  1.0666  1.9275
  306MOL0     H42195  13.508   9.982  12.929  0.2314 -0.6878  0.3644
  306MOL0     H42196  13.501  10.128  13.116 -2.8526  1.1994  0.4367
  306MOL0     H42197  13.487  10.275  13.016  0.9628  0.8027  0.4159
  306MOL0     H42198  13.697  10.267  13.096 -2.1945  1.7278 -0.1337
  306MOL0     H42199  13.714  10.230  12.926  3.5835  3.4713  3.0676
  306MOL0     H42200  13.694   9.977  13.075  0.9526 -1.8311 -4.0451
  306MOL0     H42201  13.820  10.024  12.973 -1.9046  0.6157 -1.1010
  306MOL0     H42202  13.925  10.160  13.170  2.6764  0.5375  3.3941
  306MOL0     H42203  13.928   9.981  13.198 -3.1133 -0.7588 -1.5455
  306MOL0     H42204  13.707  10.009  13.327  1.1373 -0.5951 -1.9340
  306MOL0     H42205  13.715  10.179  13.291 -0.4963 -0.3517 -0.9808
  306MOL0     H42206  13.909  10.210  13.428  1.9639 -1.1000  0.3111
  306MOL0     H42207  13.911  10.032  13.470  0.7426 -0.0325 -2.6372
  306MOL0     H42208  13.260   9.928  12.512  0.5424  0.5314  0.2074
  306MOL0     H42209  13.054   9.992  12.424  1.9904 -0.0498 -1.1686
  306MOL0     H42210  12.737  10.402  12.496  2.1719  1.1739 -2.4484
  306MOL0     H42211  12.589  10.555  12.373 -2.9621  0.5537 -1.3971
  306MOL0     H42212  11.089  10.490  11.105  3.7651  2.8520  0.1174
  306MOL0     H42213  10.842  10.472  11.072  1.3169 -1.4212  1.3637
  306MOL0     H42214  10.451  10.748  11.015 -2.4130  1.3011 -2.3029
  306MOL0     H42215  10.216  10.725  10.977  0.7384 -0.5020 -0.8930
  306MOL0     H42216   9.860  10.679  11.122  0.2131 -1.2403  0.2097
  306MOL0     H42217   9.992  10.782  11.049 -0.1467  0.1165 -1.8580
  306MOL0     H42218  10.040  10.609  10.864 -0.4196 -2.0181  0.1452
  306MOL0     H42219   9.892  10.705  10.851 -2.2515  0.4518  3.5121
  306MOL0     H42220   9.907  10.440  10.964  0.9300  1.1312 -0.2854
  306MOL0     H42221   9.756  10.550  10.961  0.9224  0.8828  2.1574
  306MOL0     H42222   9.891  10.450  10.708  0.5977  1.0663  0.4710
  306MOL0     H42223   9.733  10.543  10.722  0.6187  3.1590  3.1966
  306MOL0     H42224   9.642  10.137  10.837  4.4824 -1.6853 -2.6201
  306MOL0     H42225  10.158  10.449  11.298 -0.6578 -3.2758 -3.6938
  306MOL0     H42226  10.493  10.509  11.433  0.8377  0.7251 -2.7767
  306MOL0     H42227  10.361  10.387  11.441  1.8728 -1.2460  1.8344
  306MOL0     H42228  10.504  10.358  11.352 -0.7648  0.1337 -1.3099
  307MOL0     O42229   5.503  10.581   9.908  0.4055  0.1548 -0.4076
  307MOL0     C42230   5.520  10.656   9.810  1.0828  0.0560  0.0046
  307MOL0     O42231   5.415  10.715   9.743 -0.4782 -0.1570 -0.2073
  307MOL0     C42232   5.286  10.685   9.782  0.7431  0.0504  0.1853
  307MOL0     C42233   5.240  10.554   9.811  0.1710  0.2293 -0.0732
  307MOL0     C42234   5.105  10.531   9.828 -0.4548  0.5794  0.5020
  307MOL0     C42235   5.009  10.622   9.788  0.6030 -0.0561 -0.3330
  307MOL0     O42236   4.875  10.602   9.774 -0.4610 -0.3575 -0.2110
  307MOL0     C42237   4.821  10.473   9.755  0.3213  0.4765 -0.4504
  307MOL0     C42238   4.669  10.484   9.762 -0.2840 -0.1275 -1.0081
  307MOL0     C42239   4.608  10.347   9.758  0.2160  0.4115 -0.4662
  307MOL0     C42240   4.459  10.365   9.772  0.3813 -0.3419  0.2252
  307MOL0     C42241   4.396  10.219   9.767  1.0788 -0.3142  0.6895
  307MOL0     C42242   4.369  10.150   9.907 -0.4461  0.4786  0.3027
  307MOL0     C42243   4.278  10.241   9.998 -0.3693  0.5094 -0.7869
  307MOL0     C42244   4.133  10.278   9.951 -0.6697  0.1894 -0.0213
  307MOL0     N42245   4.061  10.320  10.061  0.3541  0.6937 -0.9667
  307MOL0     C42246   4.069  10.438  10.132 -0.2730  0.2909 -0.1135
  307MOL0     C42247   3.980  10.422  10.237 -0.0217 -0.8535  0.3920
  307MOL0     C42248   3.950  10.532  10.332 -0.0883 -0.8475  0.6755
  307MOL0     C42249   3.998  10.521  10.478  0.3862  0.0996  0.0949
  307MOL0     C42250   4.139  10.470  10.494  0.2426  0.3890 -0.2675
  307MOL0     C42251   4.237  10.575  10.450  1.3210 -0.1536  0.7541
  307MOL0     O42252   4.361  10.508  10.442  0.2390  0.4262  0.6240
  307MOL0     C42253   4.485  10.576  10.451 -0.3174 -0.3574 -0.9664
  307MOL0     C42254   4.598  10.493  10.457 -0.1849  0.8001 -0.5966
  307MOL0     C42255   4.731  10.551  10.467 -0.2235  0.9903  0.1014
  307MOL0     C42256   4.852  10.453  10.469  0.6356 -0.0343 -0.1130
  307MOL0     C42257   4.748  10.695  10.476  0.9444  0.6275  0.0559
  307MOL0     C42258   4.869  10.770  10.476 -0.5009 -0.5063 -0.1737
  307MOL0     O42259   4.972  10.712  10.546 -0.1837  0.4397  0.7380
  307MOL0     C42260   5.086  10.790  10.588 -0.3870  0.4444  0.0313
  307MOL0     C42261   5.100  10.934  10.612  0.1278 -0.4813  0.1611
  307MOL0     C42262   5.210  10.985  10.674  0.3778 -0.2507  0.2173
  307MOL0     C42263   5.317  10.907  10.721 -0.2786  0.2456  0.0984
  307MOL0     O42264   5.411  10.966  10.796 -0.0048  0.4589 -0.0985
  307MOL0     C42265   5.515  10.885  10.850  0.2375  0.1471  1.0230
  307MOL0     C42266   5.586  10.966  10.954 -0.4044  0.5122 -0.4880
  307MOL0     C42267   5.512  10.993  11.084 -0.0758 -0.1410  0.0966
  307MOL0     C42268   5.614  10.976  11.201 -0.0756  0.4420 -0.0151
  307MOL0     C42269   5.727  11.078  11.211 -0.0658  0.2512  0.0260
  307MOL0     C42270   5.674  11.218  11.262  0.6306 -0.0446 -0.0787
  307MOL0     C42271   5.782  11.301  11.340  0.7855  0.0678  1.0617
  307MOL0     C42272   5.893  11.354  11.249 -0.3698 -0.3702 -0.7507
  307MOL0    Cl42273   6.023  11.434  11.346  0.4000  0.3693  0.0887
  307MOL0     C42274   5.313  10.766  10.688 -0.4100  0.7225 -0.7482
  307MOL0     C42275   5.200  10.710  10.626  0.2003 -0.1412  0.7984
  307MOL0     O42276   4.868  10.890  10.442  0.3223  0.1568  0.9022
  307MOL0     C42277   4.629  10.774  10.460 -0.4687 -0.5184  0.9685
  307MOL0     C42278   4.499  10.712  10.438 -0.9822 -0.1092  0.3847
  307MOL0     N42279   3.928  10.293  10.237  0.8969 -0.5466 -0.0165
  307MOL0     N42280   3.981  10.230  10.134 -0.6033 -0.8241 -0.0105
  307MOL0     C42281   5.051  10.753   9.777  0.4277 -0.4720 -0.0475
  307MOL0     C42282   5.185  10.783   9.770 -0.2020 -0.0074  0.2075
  307MOL0     C42283   5.652  10.684   9.757 -0.5100 -0.1949 -0.0488
  307MOL0     C42284   5.682  10.800   9.681  0.1437  0.1534  0.0921
  307MOL0     C42285   5.805  10.817   9.632 -0.3348  0.6929  1.7127
  307MOL0     C42286   5.913  10.735   9.650  0.5954 -0.0557 -0.0852
  307MOL0     O42287   6.039  10.737   9.593 -0.7050  0.6175 -0.2887
  307MOL0     C42288   6.083  10.860   9.536 -0.2740 -0.0620  0.1512
  307MOL0     C42289   6.239  10.853   9.519  0.4110 -0.8453 -0.2722
  307MOL0     C42290   6.284  10.738   9.430  0.1259 -0.2275 -0.1937
  307MOL0     C42291   6.434  10.708   9.424  0.0731  0.0589  0.0693
  307MOL0     C42292   6.463  10.578   9.364 -0.0823  0.1529 -0.2162
  307MOL0     C42293   6.512  10.474   9.326  0.3901 -0.4195 -0.3880
  307MOL0     C42294   5.891  10.620   9.732 -0.1136  0.0129 -0.9133
  307MOL0     C42295   5.761  10.593   9.782 -0.4818  0.1958  0.2113
  307MOL0     C42296   5.741  10.464   9.847 -0.5060  0.3457 -1.0020
  307MOL0     H42297   5.311  10.473   9.816 -1.4476 -1.2252  0.2308
  307MOL0     H42298   5.066  10.430   9.839 -1.4344  0.9494  0.4906
  307MOL0     H42299   4.863  10.400   9.825 -1.8023  1.0365  1.5494
  307MOL0     H42300   4.839  10.435   9.654 -0.7049  0.4908 -0.6504
  307MOL0     H42301   4.652  10.528   9.861  2.3831 -1.2318  0.0421
  307MOL0     H42302   4.626  10.551   9.687 -2.0386  1.5519  1.3341
  307MOL0     H42303   4.638  10.299   9.664  3.6616  1.9453 -0.3123
  307MOL0     H42304   4.641  10.288   9.844 -1.4385  2.8710  2.0531
  307MOL0     H42305   4.430  10.428   9.856 -0.9692 -2.4117  1.3792
  307MOL0     H42306   4.419  10.409   9.680 -1.1854 -2.9020 -0.4124
  307MOL0     H42307   4.442  10.138   9.710 -0.1172 -0.5810  0.0817
  307MOL0     H42308   4.298  10.228   9.720  0.0039 -3.4581  2.0051
  307MOL0     H42309   4.322  10.051   9.906  0.1165  0.2008  0.4687
  307MOL0     H42310   4.471  10.141   9.946 -0.1983 -0.4336 -0.4892
  307MOL0     H42311   4.334  10.328  10.031  0.9544  0.5143 -2.9025
  307MOL0     H42312   4.262  10.181  10.089  0.0839  2.0114  0.3182
  307MOL0     H42313   4.148  10.358   9.879  0.9722  1.7391  1.9292
  307MOL0     H42314   4.085  10.190   9.907 -2.2248  1.1163 -0.2188
  307MOL0     H42315   4.136  10.518  10.104  0.7087  0.2489  1.9763
  307MOL0     H42316   3.844  10.558  10.329  0.4086  1.5595 -3.0418
  307MOL0     H42317   3.987  10.624  10.287 -1.5116 -0.9808 -0.8711
  307MOL0     H42318   3.979  10.612  10.536 -1.9955 -0.0112 -0.3883
  307MOL0     H42319   3.942  10.446  10.535  0.9715  1.6365  2.8887
  307MOL0     H42320   4.148  10.442  10.599  1.4320 -0.8066 -0.6727
  307MOL0     H42321   4.145  10.380  10.432  0.8318  0.2017  0.0529
  307MOL0     H42322   4.207  10.618  10.353 -0.4718  1.3581  1.9124
  307MOL0     H42323   4.231  10.642  10.536 -1.1389 -0.0343  0.5805
  307MOL0     H42324   4.582  10.386  10.451 -0.3476  0.6784  1.3920
  307MOL0     H42325   4.878  10.451  10.575  0.1746  3.3136  0.1637
  307MOL0     H42326   4.933  10.506  10.417  0.8530  0.3586  0.6105
  307MOL0     H42327   4.822  10.356  10.427  0.6148 -0.4021  0.7390
  307MOL0     H42328   5.014  10.998  10.592 -1.2383 -2.5393 -0.9456
  307MOL0     H42329   5.206  11.092  10.691  0.7453 -0.4024  1.3397
  307MOL0     H42330   5.491  10.787  10.891 -1.5622 -0.9437 -2.2798
  307MOL0     H42331   5.568  10.867  10.756 -2.8812 -0.2941 -0.8023
  307MOL0     H42332   5.677  10.912  10.982 -0.0287  1.9420  1.1781
  307MOL0     H42333   5.614  11.067  10.922 -1.7872  1.4182  1.0507
  307MOL0     H42334   5.430  10.923  11.102 -2.0706  2.2145  0.8200
  307MOL0     H42335   5.463  11.090  11.066 -0.7496 -0.7217 -1.3866
  307MOL0     H42336   5.666  10.880  11.194 -0.3547 -0.3714  4.9986
  307MOL0     H42337   5.558  10.957  11.293 -1.0122  0.0732 -0.6493
  307MOL0     H42338   5.808  11.043  11.276  2.2000  1.6835 -1.8677
  307MOL0     H42339   5.766  11.080  11.109 -2.6463  1.6579 -1.0308
  307MOL0     H42340   5.595  11.196  11.335  0.3646 -0.6181 -0.5324
  307MOL0     H42341   5.619  11.276  11.188 -0.2196  1.5384  1.6930
  307MOL0     H42342   5.832  11.240  11.415  3.6032 -1.0734 -1.5334
  307MOL0     H42343   5.731  11.385  11.388  0.0218  0.3760 -0.2434
  307MOL0     H42344   5.842  11.427  11.186  0.6458  1.7601  0.7660
  307MOL0     H42345   5.939  11.273  11.191  2.2463 -0.7728  1.6691
  307MOL0     H42346   5.387  10.694  10.723 -0.6020  1.2390  0.8137
  307MOL0     H42347   5.185  10.603  10.619  2.3466 -0.5264  1.5037
  307MOL0     H42348   4.630  10.882  10.447 -0.5394 -0.6363 -0.0620
  307MOL0     H42349   4.417  10.783  10.434 -2.1106 -1.3612  0.5095
  307MOL0     H42350   4.968  10.822   9.766  1.3616  0.7733  0.5029
  307MOL0     H42351   5.207  10.889   9.763 -0.5183  0.0298 -0.2196
  307MOL0     H42352   5.605  10.876   9.668  1.8313  1.7062 -1.3941
  307MOL0     H42353   5.820  10.910   9.578  0.3509  0.6247  1.7773
  307MOL0     H42354   6.036  10.877   9.439 -1.1699  4.1411  1.1353
  307MOL0     H42355   6.047  10.946   9.593 -1.2404 -1.2215  1.3532
  307MOL0     H42356   6.282  10.847   9.619 -0.4571  2.2668  0.3845
  307MOL0     H42357   6.276  10.952   9.491  1.8155 -1.0670  0.6915
  307MOL0     H42358   6.234  10.647   9.464 -0.4213  0.3228  0.5313
  307MOL0     H42359   6.231  10.755   9.336  0.2382  0.9027 -0.0642
  307MOL0     H42360   6.468  10.694   9.527 -0.3473 -1.0731  0.0597
  307MOL0     H42361   6.489  10.789   9.376 -1.3178  0.6876 -0.5331
  307MOL0     H42362   6.563  10.382   9.308 -1.1992 -1.2861 -0.6471
  307MOL0     H42363   5.970  10.548   9.749  0.5983  1.4661  2.9864
  307MOL0     H42364   5.735  10.473   9.956 -4.3007  0.4283 -1.0720
  307MOL0     H42365   5.644  10.419   9.823 -0.2657 -1.2191  0.7413
  307MOL0     H42366   5.823  10.397   9.821  0.9202  1.9812 -0.8970
  308MOL0     O42367   3.767   1.232   2.449  0.0485 -0.0821 -0.3559
  308MOL0     C42368   3.853   1.197   2.373  0.5605 -1.0195 -0.5816
  308MOL0     O42369   3.833   1.182   2.233  0.9197  0.1376 -0.8126
  308MOL0     C42370   3.701   1.201   2.193 -0.3587  0.5850  0.3912
  308MOL0     C42371   3.589   1.129   2.242  0.5620 -0.2743  0.1590
  308MOL0     C42372   3.467   1.140   2.183 -0.3710  0.5439 -0.2996
  308MOL0     C42373   3.446   1.218   2.072 -0.2507  0.4809  0.1163
  308MOL0     O42374   3.327   1.239   2.018  0.1746 -0.3291  0.4572
  308MOL0     C42375   3.302   1.150   1.904  0.3092  0.0664 -0.5561
  308MOL0     C42376   3.195   1.218   1.803  0.0918  1.5881 -0.6605
  308MOL0     C42377   3.267   1.301   1.688 -0.3287 -0.1557 -0.4212
  308MOL0     C42378   3.189   1.386   1.595 -0.0443  0.7306 -1.1679
  308MOL0     C42379   3.278   1.472   1.503  0.1769 -0.1538  0.0371
  308MOL0     C42380   3.198   1.572   1.416  0.5988 -0.0236  0.6786
  308MOL0     C42381   3.135   1.495   1.300  0.1582 -1.1326 -0.4260
  308MOL0     C42382   3.044   1.599   1.219  0.1606  0.1230 -0.1179
  308MOL0     N42383   3.123   1.715   1.163  0.6219 -0.0454 -0.4608
  308MOL0     C42384   3.137   1.837   1.223 -0.1092 -0.1747  0.6188
  308MOL0     C42385   3.230   1.893   1.145 -0.7810 -0.1012 -0.5511
  308MOL0     C42386   3.290   2.022   1.189  0.9491 -0.4487 -0.5543
  308MOL0     C42387   3.226   2.136   1.108  0.6428  1.1312 -0.4967
  308MOL0     C42388   3.284   2.276   1.157 -0.4015 -0.1855 -1.0160
  308MOL0     C42389   3.429   2.294   1.157 -0.5348  0.0365 -0.8006
  308MOL0     O42390   3.484   2.264   1.282  0.0141  0.5101  0.2140
  308MOL0     C42391   3.622   2.284   1.295  0.6235  0.0695 -1.2427
  308MOL0     C42392   3.680   2.234   1.412 -0.0487 -0.8686  0.3669
  308MOL0     C42393   3.820   2.254   1.439 -0.5532  0.1840  1.9260
  308MOL0     C42394   3.875   2.237   1.566  0.3070  0.3006 -0.7486
  308MOL0     C42395   3.903   2.321   1.342  1.5410  1.2981  1.9105
  308MOL0     C42396   4.043   2.360   1.350 -0.0976 -0.3211  0.6567
  308MOL0     O42397   4.126   2.270   1.291  0.0062  0.2584  0.5564
  308MOL0     C42398   4.260   2.285   1.307 -0.1849  0.2031  0.1479
  308MOL0     C42399   4.320   2.246   1.428 -0.5534  0.0301  0.2248
  308MOL0     C42400   4.457   2.257   1.447 -0.2205 -0.3107  0.0695
  308MOL0     C42401   4.533   2.319   1.341 -1.5913 -1.0345 -1.1571
  308MOL0     O42402   4.665   2.345   1.347 -0.0985 -0.0070  0.5874
  308MOL0     C42403   4.751   2.274   1.432  0.2570 -0.0473  0.4599
  308MOL0     C42404   4.886   2.328   1.443  0.2004  0.1615 -0.2409
  308MOL0     C42405   4.984   2.218   1.486 -0.5374  0.5629  0.8876
  308MOL0     C42406   5.124   2.286   1.479  0.0775  0.0152 -0.2149
  308MOL0     C42407   5.236   2.189   1.520  0.1240 -0.3416  0.2049
  308MOL0     C42408   5.367   2.259   1.592  1.0528 -0.1187  0.9087
  308MOL0     C42409   5.416   2.393   1.540 -0.5401  0.4239  0.9529
  308MOL0     C42410   5.504   2.473   1.638 -0.6890 -0.2720 -0.1644
  308MOL0    Cl42411   5.666   2.392   1.657 -0.4923  0.4027  0.2175
  308MOL0     C42412   4.469   2.378   1.237 -0.4570 -0.8038 -0.5816
  308MOL0     C42413   4.337   2.359   1.212  1.2435 -0.2516  0.0392
  308MOL0     O42414   4.068   2.470   1.404  0.4383  0.0851  0.0740
  308MOL0     C42415   3.835   2.375   1.229 -0.0848 -0.4091 -0.2191
  308MOL0     C42416   3.699   2.353   1.205  0.5425  0.1391  0.0590
  308MOL0     N42417   3.270   1.808   1.046  0.3891 -0.1207 -0.2494
  308MOL0     N42418   3.195   1.696   1.054 -0.3703 -0.1966 -0.2295
  308MOL0     C42419   3.562   1.285   2.020  1.6687 -0.4628  0.7116
  308MOL0     C42420   3.689   1.278   2.075  0.2980 -1.5312 -0.5479
  308MOL0     C42421   3.986   1.163   2.427  0.8946  0.3477  0.6777
  308MOL0     C42422   4.064   1.079   2.346  0.4224  0.4628  0.3844
  308MOL0     C42423   4.190   1.042   2.379  1.1164  1.1437 -0.6221
  308MOL0     C42424   4.249   1.095   2.494 -0.3255 -0.5443  0.9062
  308MOL0     O42425   4.367   1.043   2.528  0.2023 -0.1583  0.1972
  308MOL0     C42426   4.364   0.923   2.617 -0.2819  0.2802 -0.1560
  308MOL0     C42427   4.348   0.972   2.768 -0.8824  0.0036 -0.3264
  308MOL0     C42428   4.454   1.089   2.789 -0.0472 -0.2331 -0.0805
  308MOL0     C42429   4.442   1.155   2.926  0.9872  0.6812  0.7337
  308MOL0     C42430   4.468   1.066   3.039 -0.2961 -0.0956 -0.3631
  308MOL0     C42431   4.472   0.997   3.136  0.1052 -0.2703  0.1288
  308MOL0     C42432   4.175   1.181   2.577 -0.2787 -0.5701  0.2123
  308MOL0     C42433   4.040   1.210   2.544  0.3010  0.1328  0.4030
  308MOL0     C42434   3.966   1.299   2.641  0.0525 -0.5333 -0.6727
  308MOL0     H42435   3.591   1.059   2.325  1.5028 -0.9014 -0.3724
  308MOL0     H42436   3.385   1.084   2.225  1.6663 -3.9251 -1.7077
  308MOL0     H42437   3.249   1.060   1.935  0.6792  0.3253  0.9148
  308MOL0     H42438   3.389   1.114   1.849 -1.9118 -3.0646 -2.3592
  308MOL0     H42439   3.141   1.138   1.750  0.2660  1.8497 -1.2266
  308MOL0     H42440   3.121   1.278   1.857  0.0171 -1.5184  3.2347
  308MOL0     H42441   3.335   1.366   1.744 -0.1350  1.1138 -2.0564
  308MOL0     H42442   3.344   1.240   1.639 -0.2525  0.7837 -1.4995
  308MOL0     H42443   3.129   1.312   1.541 -0.0716  2.8472 -4.3062
  308MOL0     H42444   3.129   1.456   1.654  1.2717  3.6325 -3.0915
  308MOL0     H42445   3.340   1.411   1.436 -1.4248  3.1604 -5.0554
  308MOL0     H42446   3.356   1.522   1.562  0.8205  1.5748 -2.1167
  308MOL0     H42447   3.117   1.617   1.474 -0.1292 -0.7771  0.2658
  308MOL0     H42448   3.255   1.661   1.387 -0.0556  0.8657  2.0398
  308MOL0     H42449   3.085   1.402   1.327 -0.7866 -0.8304 -1.0691
  308MOL0     H42450   3.219   1.476   1.232  2.5874 -0.7841  2.2631
  308MOL0     H42451   2.999   1.552   1.131  1.5802 -2.9586  0.6425
  308MOL0     H42452   2.969   1.638   1.288  1.2814  0.1463  1.1390
  308MOL0     H42453   3.097   1.883   1.313  0.0441  2.6524 -0.6593
  308MOL0     H42454   3.397   2.002   1.194  0.9732 -0.0097  1.5771
  308MOL0     H42455   3.246   2.038   1.288 -1.3907  0.6726 -1.6924
  308MOL0     H42456   3.254   2.119   1.003  0.6858 -1.0961 -0.1680
  308MOL0     H42457   3.118   2.123   1.118  0.8030  1.1290  1.5640
  308MOL0     H42458   3.239   2.351   1.091  1.0437  2.6518  0.9801
  308MOL0     H42459   3.248   2.296   1.258 -1.7084 -2.6088 -0.9231
  308MOL0     H42460   3.467   2.221   1.086 -0.3061 -1.4302  0.7577
  308MOL0     H42461   3.449   2.398   1.130 -0.4338  0.1997 -0.1300
  308MOL0     H42462   3.622   2.180   1.486 -0.5822  0.3079  0.8272
  308MOL0     H42463   3.967   2.180   1.552 -0.0634 -0.7587  0.8795
  308MOL0     H42464   3.803   2.188   1.632 -0.0097 -1.3512 -2.2508
  308MOL0     H42465   3.892   2.328   1.624 -0.4719  0.5816 -0.9528
  308MOL0     H42466   4.266   2.208   1.514 -0.0054  0.5676  0.8228
  308MOL0     H42467   4.502   2.218   1.538  1.1604  0.1833 -0.3772
  308MOL0     H42468   4.707   2.273   1.532  0.0996  0.0216  0.3919
  308MOL0     H42469   4.745   2.175   1.384 -1.3993  0.3595 -0.2305
  308MOL0     H42470   4.925   2.377   1.353  1.8264  2.5153  1.6262
  308MOL0     H42471   4.874   2.415   1.508 -1.5741  1.4562 -2.1890
  308MOL0     H42472   4.982   2.133   1.417 -1.3126 -0.9027  2.6073
  308MOL0     H42473   4.965   2.169   1.582  0.5234 -2.3494 -0.2601
  308MOL0     H42474   5.115   2.360   1.559  0.9394 -2.1972  2.0699
  308MOL0     H42475   5.143   2.339   1.385 -1.9165  0.1337 -0.5812
  308MOL0     H42476   5.202   2.128   1.605 -1.0132  1.1084  0.8295
  308MOL0     H42477   5.272   2.128   1.436 -0.1589 -0.2161 -0.0112
  308MOL0     H42478   5.446   2.184   1.583  0.2529 -0.9490  0.6627
  308MOL0     H42479   5.341   2.265   1.698  0.5134  0.0313  0.7709
  308MOL0     H42480   5.331   2.458   1.517 -0.1039  1.3440  1.8741
  308MOL0     H42481   5.465   2.364   1.447  0.0992 -0.5978  1.5967
  308MOL0     H42482   5.445   2.491   1.728  0.9073 -3.3589  1.6546
  308MOL0     H42483   5.524   2.573   1.597 -0.8962  0.6340  1.8445
  308MOL0     H42484   4.516   2.436   1.158 -0.9790  0.0687 -0.2646
  308MOL0     H42485   4.275   2.394   1.130  0.6152 -0.8561  0.2555
  308MOL0     H42486   3.882   2.435   1.151  1.2103 -1.8670 -0.6150
  308MOL0     H42487   3.663   2.395   1.112  2.0464 -1.1502 -1.1317
  308MOL0     H42488   3.547   1.343   1.930 -4.8308 -2.4731  0.0187
  308MOL0     H42489   3.785   1.320   2.047  0.6040 -2.3807 -0.7897
  308MOL0     H42490   4.027   1.039   2.253  2.0298 -1.3431  0.4568
  308MOL0     H42491   4.238   0.964   2.321  3.0716  1.3498  0.6340
  308MOL0     H42492   4.280   0.856   2.597 -1.9258  2.4650 -0.9002
  308MOL0     H42493   4.455   0.863   2.605  1.1346  2.5599 -1.4856
  308MOL0     H42494   4.382   0.893   2.837 -0.2869  0.2292 -0.3540
  308MOL0     H42495   4.247   1.001   2.797 -0.2185  1.3554  0.7431
  308MOL0     H42496   4.555   1.047   2.780  0.4453  0.7648  0.6038
  308MOL0     H42497   4.433   1.163   2.711  1.1028  0.8141  0.5626
  308MOL0     H42498   4.334   1.172   2.936  1.1662  0.5171  4.0930
  308MOL0     H42499   4.501   1.247   2.928 -0.5847  1.7709  4.5083
  308MOL0     H42500   4.453   0.929   3.216 -0.3058 -1.8612 -1.2731
  308MOL0     H42501   4.203   1.217   2.675 -0.6047 -3.0819  1.3072
  308MOL0     H42502   3.895   1.250   2.709  0.5772  1.0802  1.1136
  308MOL0     H42503   4.031   1.353   2.709 -0.5086 -2.6491  1.6916
  308MOL0     H42504   3.909   1.380   2.595  1.3659  1.9895  1.8917
  309MOL0     O42505   2.231   3.387   6.965  1.1069  0.1684  0.7713
  309MOL0     C42506   2.257   3.401   7.081  0.2520  1.0677 -0.3413
  309MOL0     O42507   2.215   3.305   7.174  0.4825  0.4490  0.7544
  309MOL0     C42508   2.107   3.220   7.147 -0.7253 -0.1603 -1.3333
  309MOL0     C42509   2.013   3.222   7.046 -0.9753  0.2199  0.6455
  309MOL0     C42510   1.915   3.122   7.024  0.1587 -0.3073 -0.0191
  309MOL0     C42511   1.920   3.008   7.111  0.1044  1.1775  0.3459
  309MOL0     O42512   1.851   2.895   7.091 -0.1269  0.0381 -0.1494
  309MOL0     C42513   1.863   2.853   6.950  0.3928 -0.9486  0.0411
  309MOL0     C42514   1.808   2.706   6.933  0.0072 -0.3851 -0.6134
  309MOL0     C42515   1.825   2.616   7.059 -0.4547  0.9424 -0.5457
  309MOL0     C42516   1.768   2.478   7.039  0.8291 -0.2478  1.0990
  309MOL0     C42517   1.789   2.371   7.145  0.3596 -0.1802 -0.2113
  309MOL0     C42518   1.933   2.328   7.166  0.4142 -0.1388 -0.2643
  309MOL0     C42519   2.016   2.277   7.044  0.6317 -0.5141  0.0775
  309MOL0     C42520   1.961   2.158   6.984 -0.1648 -1.0904  0.3663
  309MOL0     N42521   2.023   2.109   6.861  0.3126  0.6861  0.6698
  309MOL0     C42522   1.993   2.173   6.741 -0.2802 -0.5517  0.5026
  309MOL0     C42523   1.993   2.073   6.646  0.1415 -1.0282  0.5171
  309MOL0     C42524   1.954   2.087   6.502 -0.0899 -0.2372 -0.0037
  309MOL0     C42525   2.066   2.134   6.415 -0.2124 -0.3098  0.8276
  309MOL0     C42526   2.157   2.028   6.362 -0.8704 -0.4021 -0.3049
  309MOL0     C42527   2.205   1.927   6.466 -0.6924  0.0643 -0.5154
  309MOL0     O42528   2.305   1.839   6.421 -0.6596 -0.4456 -0.1735
  309MOL0     C42529   2.311   1.723   6.492  1.0613 -0.3577 -0.4680
  309MOL0     C42530   2.390   1.621   6.439  0.3501 -0.3479  0.0443
  309MOL0     C42531   2.405   1.492   6.491 -0.2116  0.2588  0.1224
  309MOL0     C42532   2.486   1.392   6.403  0.0837 -0.2395  0.1598
  309MOL0     C42533   2.330   1.459   6.606  0.3844  0.2044  0.3945
  309MOL0     C42534   2.321   1.318   6.660 -0.7521  0.7189  0.6135
  309MOL0     O42535   2.286   1.223   6.576  0.3602 -0.1700 -0.2073
  309MOL0     C42536   2.273   1.088   6.613 -0.2077  0.1929 -0.2421
  309MOL0     C42537   2.232   1.005   6.507  0.3234  0.4522  0.3190
  309MOL0     C42538   2.220   0.869   6.519 -0.4684 -0.7909 -1.4744
  309MOL0     C42539   2.242   0.812   6.649  0.8171 -1.0704 -0.4931
  309MOL0     O42540   2.259   0.682   6.681  0.5576  0.1624 -0.9754
  309MOL0     C42541   2.355   0.605   6.603 -0.7552  0.4486  0.9832
  309MOL0     C42542   2.416   0.509   6.703 -0.3555  0.1101 -0.4601
  309MOL0     C42543   2.538   0.567   6.783 -0.5344 -0.6237 -0.0691
  309MOL0     C42544   2.584   0.473   6.890  0.4065  0.2844 -0.3456
  309MOL0     C42545   2.477   0.454   7.002 -0.4632  0.0950  0.8137
  309MOL0     C42546   2.549   0.407   7.124  0.3672 -0.6537 -0.8969
  309MOL0     C42547   2.457   0.398   7.249  0.4172 -0.0028  0.4024
  309MOL0     C42548   2.329   0.309   7.244  0.2382 -0.1434  0.2148
  309MOL0    Cl42549   2.257   0.321   7.404 -0.1415  0.1374 -0.5661
  309MOL0     C42550   2.261   0.896   6.765  0.5021  0.3299  0.7302
  309MOL0     C42551   2.260   1.034   6.743 -0.2202 -0.6667  0.0344
  309MOL0     O42552   2.364   1.302   6.779  0.4678 -0.1831  0.5399
  309MOL0     C42553   2.253   1.564   6.665 -0.6148 -0.4560 -0.7049
  309MOL0     C42554   2.244   1.688   6.613 -0.0680  0.2760  0.1109
  309MOL0     N42555   2.018   1.954   6.708 -0.3757 -0.1131  0.2360
  309MOL0     N42556   2.030   1.971   6.832 -1.1052  0.0328 -0.7173
  309MOL0     C42557   2.011   3.009   7.213 -0.2164 -0.0467  0.3003
  309MOL0     C42558   2.095   3.116   7.242 -0.4832  0.1935 -0.1339
  309MOL0     C42559   2.345   3.513   7.134 -0.5906 -0.1027  0.3495
  309MOL0     C42560   2.340   3.554   7.270 -0.6824  0.0571  0.0531
  309MOL0     C42561   2.413   3.663   7.311  0.5232  0.0585  0.6086
  309MOL0     C42562   2.494   3.730   7.218  0.5718  0.1826 -0.1663
  309MOL0     O42563   2.563   3.845   7.244 -0.2622 -0.4471  0.3686
  309MOL0     C42564   2.592   3.899   7.375  0.1308 -0.0665  0.2067
  309MOL0     C42565   2.478   3.975   7.452 -0.1886  0.0904  0.5346
  309MOL0     C42566   2.528   4.060   7.569 -0.8893 -0.5782  0.7286
  309MOL0     C42567   2.413   4.138   7.646  0.0863  0.5592 -0.4828
  309MOL0     C42568   2.473   4.253   7.721  0.0231  0.5220 -0.2984
  309MOL0     C42569   2.494   4.331   7.813  0.7799 -0.1261 -0.1727
  309MOL0     C42570   2.501   3.691   7.085  0.0154 -0.5718 -0.7603
  309MOL0     C42571   2.440   3.579   7.047  0.3335  0.4860  0.2112
  309MOL0     C42572   2.499   3.503   6.925  1.2326 -0.2508  0.7683
  309MOL0     H42573   2.010   3.297   6.968  0.1443 -0.9591 -0.5831
  309MOL0     H42574   1.843   3.134   6.944  0.7070  0.9991 -0.3488
  309MOL0     H42575   1.969   2.856   6.921  0.4017 -1.1209  0.0575
  309MOL0     H42576   1.804   2.921   6.888  2.4874 -0.5005 -1.5794
  309MOL0     H42577   1.701   2.726   6.922  0.3317  0.5135 -2.5853
  309MOL0     H42578   1.854   2.656   6.847  0.8371 -3.4407  1.4218
  309MOL0     H42579   1.929   2.602   7.091  0.5074 -1.4464 -4.1920
  309MOL0     H42580   1.773   2.652   7.149 -1.7118 -2.0087  0.0268
  309MOL0     H42581   1.659   2.488   7.039  0.7683 -0.2297 -1.5736
  309MOL0     H42582   1.795   2.439   6.941  0.3212 -1.3368  1.3766
  309MOL0     H42583   1.721   2.291   7.117 -1.2693  1.2556 -0.5705
  309MOL0     H42584   1.754   2.423   7.235  1.5045  1.2159 -0.5252
  309MOL0     H42585   1.998   2.408   7.203  1.2276 -0.4861 -0.8911
  309MOL0     H42586   1.938   2.245   7.236 -0.0852 -1.6170 -1.8969
  309MOL0     H42587   2.123   2.263   7.061  0.6800 -1.0449 -0.5994
  309MOL0     H42588   2.012   2.354   6.966  0.5448 -0.5924  0.0040
  309MOL0     H42589   1.970   2.077   7.057 -1.7592 -0.0714  1.7671
  309MOL0     H42590   1.855   2.162   6.955 -0.8627 -1.3752  2.7129
  309MOL0     H42591   1.955   2.272   6.719 -0.5204 -0.5227  1.0210
  309MOL0     H42592   1.876   2.163   6.491  1.6582  1.6141 -0.2975
  309MOL0     H42593   1.920   1.989   6.467  1.0048 -0.9262  0.7671
  309MOL0     H42594   2.009   2.170   6.329  0.8987  2.8902  1.2890
  309MOL0     H42595   2.117   2.217   6.466  0.9055 -0.0336 -0.6946
  309MOL0     H42596   2.107   1.979   6.278 -3.5173  1.3744  0.1278
  309MOL0     H42597   2.245   2.080   6.323  0.3214  0.3064  3.0323
  309MOL0     H42598   2.237   1.976   6.558  1.5581 -1.8084 -0.1975
  309MOL0     H42599   2.116   1.872   6.498 -0.3725 -1.0619 -1.4866
  309MOL0     H42600   2.437   1.654   6.347 -3.3858  0.6535 -1.6858
  309MOL0     H42601   2.512   1.298   6.453 -1.0471  1.3632  4.2472
  309MOL0     H42602   2.579   1.448   6.389 -1.3795  2.4521  0.3333
  309MOL0     H42603   2.439   1.376   6.306 -2.2356  0.6500  1.0516
  309MOL0     H42604   2.206   1.058   6.416  0.8045  1.0498  0.5210
  309MOL0     H42605   2.192   0.809   6.433  0.7512 -1.1420 -1.6505
  309MOL0     H42606   2.303   0.536   6.535  1.6586  0.5753 -1.1172
  309MOL0     H42607   2.428   0.661   6.545 -1.0428 -0.0817  0.0808
  309MOL0     H42608   2.339   0.469   6.770  0.0943  1.4650  0.9272
  309MOL0     H42609   2.436   0.420   6.644 -1.3014 -3.2422  3.7954
  309MOL0     H42610   2.512   0.661   6.833 -2.0228  0.1304 -2.1227
  309MOL0     H42611   2.622   0.593   6.718 -0.7668  0.2079 -0.0573
  309MOL0     H42612   2.675   0.521   6.926  0.3563  0.4851 -0.4879
  309MOL0     H42613   2.614   0.376   6.849 -0.7645 -1.1589  1.9964
  309MOL0     H42614   2.429   0.548   7.031 -0.7098  0.1831  0.1389
  309MOL0     H42615   2.400   0.382   6.973  0.3503 -1.3037  1.9975
  309MOL0     H42616   2.632   0.476   7.145  0.1155 -0.0006 -1.9687
  309MOL0     H42617   2.591   0.309   7.101  1.8371 -0.6843  1.5276
  309MOL0     H42618   2.429   0.502   7.264  2.4996  0.7966 -0.8152
  309MOL0     H42619   2.519   0.383   7.337  0.4451 -0.1968  0.3518
  309MOL0     H42620   2.351   0.209   7.206  0.9673  0.6663 -1.6226
  309MOL0     H42621   2.266   0.367   7.175  0.7659  1.7619  1.2596
  309MOL0     H42622   2.259   0.862   6.869 -1.2148  1.0621  0.9706
  309MOL0     H42623   2.265   1.091   6.835 -1.6730 -1.2958  0.5287
  309MOL0     H42624   2.198   1.544   6.756  1.0846 -1.2826  0.1893
  309MOL0     H42625   2.177   1.755   6.666  4.3955  5.0535  0.5554
  309MOL0     H42626   2.019   2.926   7.282 -0.9657  0.2463  0.7567
  309MOL0     H42627   2.162   3.112   7.327 -0.9567  1.7447  0.3398
  309MOL0     H42628   2.277   3.511   7.347 -0.1324  1.0524  1.0818
  309MOL0     H42629   2.408   3.691   7.415 -0.7002  0.3082  0.4941
  309MOL0     H42630   2.634   3.820   7.438 -1.0789 -2.2583 -1.6007
  309MOL0     H42631   2.669   3.976   7.359  0.0011 -0.4500 -2.7564
  309MOL0     H42632   2.402   3.907   7.493 -3.5731  2.8334 -0.6343
  309MOL0     H42633   2.432   4.035   7.373  1.3966 -0.1755 -0.6310
  309MOL0     H42634   2.599   4.003   7.631  0.3191 -2.5864 -2.2954
  309MOL0     H42635   2.597   4.132   7.524 -0.9743  0.6580  2.4582
  309MOL0     H42636   2.353   4.071   7.709  0.0572  1.6562  0.6847
  309MOL0     H42637   2.341   4.174   7.573  1.7076  3.4881 -0.7701
  309MOL0     H42638   2.514   4.406   7.887  1.2328 -2.2661  1.9855
  309MOL0     H42639   2.569   3.744   7.019 -0.9662  0.2772 -1.1283
  309MOL0     H42640   2.456   3.403   6.914  1.7542 -0.5329  1.2668
  309MOL0     H42641   2.479   3.564   6.836 -0.0886  1.6137  2.2546
  309MOL0     H42642   2.606   3.484   6.936  1.4415 -1.8153 -2.6080
  310MOL0     O42643   1.649   6.474   5.105 -0.4822 -0.3529  0.4812
  310MOL0     C42644   1.623   6.538   5.005  0.0805  0.0275 -0.2249
  310MOL0     O42645   1.686   6.662   4.977 -0.0402  0.1564  0.1071
  310MOL0     C42646   1.761   6.710   5.081 -0.9168  0.2992 -0.1270
  310MOL0     C42647   1.891   6.755   5.045  0.7775 -0.4314 -0.4977
  310MOL0     C42648   1.977   6.804   5.144  0.7163  0.6135 -0.0654
  310MOL0     C42649   1.940   6.815   5.281  0.3238  0.5068  1.4824
  310MOL0     O42650   2.028   6.870   5.371  0.0379 -0.0970  0.3235
  310MOL0     C42651   1.983   6.996   5.415  0.3846 -0.1705 -0.2448
  310MOL0     C42652   2.052   7.103   5.330 -0.1118 -0.3613 -0.1464
  310MOL0     C42653   2.208   7.089   5.340 -0.0895 -0.3298  0.0462
  310MOL0     C42654   2.263   7.132   5.476 -0.4619 -0.3963 -0.4992
  310MOL0     C42655   2.400   7.200   5.469  1.4448  0.9513  0.5669
  310MOL0     C42656   2.459   7.251   5.606 -0.1682  0.7403  0.1521
  310MOL0     C42657   2.378   7.324   5.706 -0.1408  0.9278 -0.6491
  310MOL0     C42658   2.326   7.461   5.647  0.3492  0.8833 -0.2900
  310MOL0     N42659   2.232   7.523   5.732  0.7320  0.1474  0.2736
  310MOL0     C42660   2.105   7.486   5.752  0.1472  0.2529 -0.1179
  310MOL0     C42661   2.064   7.565   5.858  0.2533 -0.0407 -0.4839
  310MOL0     C42662   1.935   7.573   5.931 -0.3141  0.2246  0.8004
  310MOL0     C42663   1.888   7.728   5.940  1.4242  0.0937 -0.5102
  310MOL0     C42664   1.782   7.739   6.055 -0.0012  0.4239  0.3913
  310MOL0     C42665   1.708   7.878   6.071  0.0500  0.9586  0.1815
  310MOL0     O42666   1.650   7.917   5.943 -0.2158  0.7645  0.4606
  310MOL0     C42667   1.610   8.050   5.945  0.3355 -0.1238  0.9043
  310MOL0     C42668   1.593   8.127   6.061 -0.5148 -0.0790  0.1911
  310MOL0     C42669   1.561   8.261   6.045  0.4564  0.0696  0.5994
  310MOL0     C42670   1.575   8.335   6.174  0.4823  0.2443  0.3991
  310MOL0     C42671   1.544   8.326   5.919  1.1334  0.2657 -0.2093
  310MOL0     C42672   1.503   8.470   5.890  0.0535  0.1765 -0.8282
  310MOL0     O42673   1.515   8.505   5.758 -0.5773 -0.0041  0.0719
  310MOL0     C42674   1.466   8.627   5.725  0.2209  0.6164 -0.2548
  310MOL0     C42675   1.538   8.746   5.749  0.3873  0.2684 -0.3231
  310MOL0     C42676   1.481   8.869   5.712 -0.5319 -0.0323  0.4686
  310MOL0     C42677   1.361   8.870   5.655 -0.0948 -0.1596  0.5806
  310MOL0     O42678   1.316   8.988   5.613  0.1149 -0.3791  0.8604
  310MOL0     C42679   1.174   9.034   5.585  0.3566  0.2965  0.1538
  310MOL0     C42680   1.172   9.179   5.550 -0.1526 -0.0248 -0.1735
  310MOL0     C42681   1.187   9.284   5.661 -0.3723 -0.2278  0.5031
  310MOL0     C42682   1.328   9.301   5.707 -0.1962 -0.1485  0.8392
  310MOL0     C42683   1.417   9.369   5.602 -0.1885 -0.3392  0.2965
  310MOL0     C42684   1.560   9.361   5.639  1.0510  0.6110 -0.0888
  310MOL0     C42685   1.656   9.405   5.529  0.0391 -0.3358 -0.2014
  310MOL0     C42686   1.808   9.384   5.578  0.0618  0.1052  1.0105
  310MOL0    Cl42687   1.906   9.478   5.457 -0.1768  0.0268  0.2354
  310MOL0     C42688   1.289   8.754   5.621 -0.6361 -0.2108 -0.4623
  310MOL0     C42689   1.343   8.629   5.658 -0.4693 -0.0039 -0.3612
  310MOL0     O42690   1.467   8.542   5.981  0.0995 -0.0742  0.1022
  310MOL0     C42691   1.558   8.239   5.810  0.2029  0.3594 -0.7753
  310MOL0     C42692   1.587   8.104   5.826  0.9855 -0.3926  0.1862
  310MOL0     N42693   2.173   7.644   5.911 -0.3205  0.6506  1.0390
  310MOL0     N42694   2.268   7.609   5.822  1.5712 -0.5266 -0.7702
  310MOL0     C42695   1.803   6.783   5.317 -1.3888  0.4804  0.9173
  310MOL0     C42696   1.714   6.732   5.209 -0.5549 -0.4766  0.1285
  310MOL0     C42697   1.523   6.475   4.912 -0.2121 -0.2170  0.1636
  310MOL0     C42698   1.502   6.555   4.800 -0.1948  0.4681  0.0423
  310MOL0     C42699   1.389   6.529   4.720 -0.3778 -0.0110 -0.1301
  310MOL0     C42700   1.312   6.410   4.732  0.2565 -0.0332 -0.4225
  310MOL0     O42701   1.217   6.382   4.641  0.5512 -0.3869  0.5244
  310MOL0     C42702   1.248   6.382   4.505  0.1237 -0.2561  0.0757
  310MOL0     C42703   1.118   6.402   4.417 -0.4408  0.1933  0.4111
  310MOL0     C42704   0.993   6.320   4.455  0.5091  0.0853  0.8652
  310MOL0     C42705   0.869   6.392   4.418 -0.9076  0.5117  0.0417
  310MOL0     C42706   0.841   6.498   4.523 -0.8109 -0.1972  0.3334
  310MOL0     C42707   0.818   6.587   4.606  0.2932  0.0938 -0.7669
  310MOL0     C42708   1.341   6.326   4.829 -1.0542  0.8729 -0.0043
  310MOL0     C42709   1.448   6.359   4.919  0.3497 -0.0146  0.1151
  310MOL0     C42710   1.492   6.254   5.009 -0.3770 -0.0004  0.1114
  310MOL0     H42711   1.919   6.751   4.941  1.2569  0.8328 -0.4356
  310MOL0     H42712   2.071   6.837   5.101  0.3781 -0.3557 -1.6547
  310MOL0     H42713   1.994   7.012   5.523  0.7374  0.7674 -0.4150
  310MOL0     H42714   1.874   6.993   5.405  0.2823  2.1551 -0.4970
  310MOL0     H42715   2.027   7.102   5.223 -0.5870 -1.5983 -0.0364
  310MOL0     H42716   2.015   7.200   5.366 -1.3468  0.2234 -2.7557
  310MOL0     H42717   2.238   6.988   5.312 -0.7253 -1.0767  1.8862
  310MOL0     H42718   2.237   7.150   5.255 -0.3714 -3.2079 -2.2742
  310MOL0     H42719   2.201   7.202   5.533 -0.2056 -0.4126 -0.1948
  310MOL0     H42720   2.275   7.047   5.544 -3.2409 -0.1490  0.4409
  310MOL0     H42721   2.388   7.290   5.407 -0.4103 -1.3687 -2.7398
  310MOL0     H42722   2.469   7.137   5.412  0.6953  1.3084 -0.8014
  310MOL0     H42723   2.489   7.159   5.658  1.5008  1.2202  0.0978
  310MOL0     H42724   2.554   7.294   5.574  2.4938 -5.1310 -1.2980
  310MOL0     H42725   2.433   7.337   5.800  1.6771 -0.8709 -1.4030
  310MOL0     H42726   2.286   7.269   5.731 -0.2635  2.0768  1.7441
  310MOL0     H42727   2.419   7.518   5.637 -0.2625  1.6838 -1.6415
  310MOL0     H42728   2.296   7.447   5.543  2.5007 -0.5603 -0.8058
  310MOL0     H42729   2.055   7.412   5.690  2.5842 -0.6818 -1.1057
  310MOL0     H42730   1.942   7.549   6.037 -4.1326  2.4636  1.7408
  310MOL0     H42731   1.864   7.507   5.881  0.1359 -0.7457  1.4146
  310MOL0     H42732   1.971   7.797   5.960  1.7238 -0.8051  1.5560
  310MOL0     H42733   1.844   7.740   5.841  2.1006 -2.1841 -1.1492
  310MOL0     H42734   1.705   7.663   6.040 -0.1730  0.1872  2.2139
  310MOL0     H42735   1.829   7.716   6.151 -1.0804  2.7443  1.5408
  310MOL0     H42736   1.635   7.872   6.153 -0.2248 -2.3602 -0.1634
  310MOL0     H42737   1.795   7.942   6.091  0.9646 -0.2445  0.2171
  310MOL0     H42738   1.599   8.091   6.163 -0.5419  4.5338  2.1057
  310MOL0     H42739   1.594   8.266   6.257  0.9447 -0.6511 -0.4254
  310MOL0     H42740   1.481   8.391   6.180 -0.6770 -1.6705  1.2906
  310MOL0     H42741   1.662   8.400   6.162 -0.5624  1.2971 -1.9771
  310MOL0     H42742   1.630   8.739   5.806  0.0969 -1.6569 -0.0229
  310MOL0     H42743   1.530   8.965   5.724 -1.5164  0.8850 -2.1574
  310MOL0     H42744   1.130   8.992   5.494 -1.8267 -0.7689  1.6081
  310MOL0     H42745   1.121   9.013   5.678  1.9975 -1.9415  0.6837
  310MOL0     H42746   1.255   9.187   5.479 -1.1121 -1.5147 -1.5419
  310MOL0     H42747   1.079   9.198   5.497 -0.2947 -1.9542 -0.6927
  310MOL0     H42748   1.130   9.246   5.746 -1.7886  0.6737  0.0027
  310MOL0     H42749   1.127   9.372   5.634 -0.9539 -1.0576 -1.0862
  310MOL0     H42750   1.366   9.202   5.734  1.5681  0.4734  0.7319
  310MOL0     H42751   1.340   9.359   5.799  1.5371 -0.3575  0.7780
  310MOL0     H42752   1.411   9.322   5.504 -1.0265 -0.6866  0.5027
  310MOL0     H42753   1.388   9.474   5.585  0.0282 -0.6443 -2.3515
  310MOL0     H42754   1.573   9.253   5.646 -3.9829 -0.2440 -0.1138
  310MOL0     H42755   1.571   9.412   5.735 -0.2705 -0.0045  0.4178
  310MOL0     H42756   1.631   9.510   5.510 -3.1984 -1.2974 -1.8794
  310MOL0     H42757   1.639   9.353   5.434  1.0311  2.1563 -1.8454
  310MOL0     H42758   1.837   9.279   5.583  0.5730  0.0732 -1.3299
  310MOL0     H42759   1.814   9.435   5.675 -3.2305  1.0183  0.8430
  310MOL0     H42760   1.196   8.766   5.567  0.1052 -0.9069 -1.9351
  310MOL0     H42761   1.289   8.538   5.638  0.7170 -0.7766 -0.1385
  310MOL0     H42762   1.538   8.272   5.709  2.7876  2.0177 -0.8551
  310MOL0     H42763   1.590   8.036   5.742 -1.4380  0.0417 -0.3313
  310MOL0     H42764   1.768   6.793   5.419  0.3080 -0.5437  1.6341
  310MOL0     H42765   1.609   6.710   5.222 -0.7596  1.1801  1.6937
  310MOL0     H42766   1.580   6.629   4.785  2.4550 -2.1699 -0.2169
  310MOL0     H42767   1.370   6.595   4.636 -0.8002  0.0155 -0.0148
  310MOL0     H42768   1.324   6.457   4.480 -2.1848  3.5233  3.1894
  310MOL0     H42769   1.298   6.285   4.491  1.3014  0.1678  1.0821
  310MOL0     H42770   1.139   6.386   4.311  2.2161  0.8085  0.7807
  310MOL0     H42771   1.095   6.509   4.417 -0.3929  0.2043  0.3088
  310MOL0     H42772   0.990   6.226   4.398 -1.7806 -0.0515  1.1256
  310MOL0     H42773   0.988   6.301   4.563  0.2455  3.6096  1.5817
  310MOL0     H42774   0.784   6.323   4.413 -0.1999 -0.3390 -0.6104
  310MOL0     H42775   0.888   6.432   4.317 -0.4032 -1.1846 -0.5672
  310MOL0     H42776   0.811   6.670   4.673 -1.1087  0.4078 -1.2870
  310MOL0     H42777   1.294   6.230   4.844  0.1514  0.1610 -0.6131
  310MOL0     H42778   1.599   6.241   4.990 -0.8648 -0.3852 -2.7836
  310MOL0     H42779   1.474   6.267   5.117  0.0799 -0.3150  0.2278
  310MOL0     H42780   1.442   6.157   4.995  0.8827 -1.1597  2.7459
  311MOL0     O42781   7.756   3.657   6.223 -0.4145 -0.3346 -0.9018
  311MOL0     C42782   7.701   3.758   6.173  0.0306  0.5610  0.6162
  311MOL0     O42783   7.563   3.788   6.172  0.3888  0.5907  0.3705
  311MOL0     C42784   7.479   3.690   6.219 -0.5655 -0.3572  0.0028
  311MOL0     C42785   7.377   3.736   6.304  1.2006  0.1037  0.2487
  311MOL0     C42786   7.283   3.639   6.341  0.1784 -0.0312  0.4051
  311MOL0     C42787   7.287   3.507   6.307  0.6978 -0.1989  0.7295
  311MOL0     O42788   7.200   3.432   6.375 -0.0742 -0.6683  0.3638
  311MOL0     C42789   7.216   3.291   6.394 -0.0811 -0.1335 -0.5567
  311MOL0     C42790   7.107   3.225   6.486 -0.1181  0.4988 -0.2492
  311MOL0     C42791   7.106   3.299   6.623 -0.4510  0.1358  0.8365
  311MOL0     C42792   7.004   3.231   6.714 -0.3630  0.6375 -0.5579
  311MOL0     C42793   6.973   3.306   6.841 -0.4242  0.1595  0.2578
  311MOL0     C42794   7.080   3.295   6.950  0.3272  0.2570  1.1818
  311MOL0     C42795   7.038   3.339   7.090 -0.4660 -0.3063 -0.3913
  311MOL0     C42796   6.985   3.487   7.083  0.0448 -0.9887 -0.0292
  311MOL0     N42797   7.083   3.586   7.025  0.3314  0.4202  0.5073
  311MOL0     C42798   7.060   3.661   6.909 -0.0734 -0.1260  0.8536
  311MOL0     C42799   7.181   3.708   6.865  0.0338 -0.3375 -0.0370
  311MOL0     C42800   7.214   3.792   6.746 -0.0033  0.3046 -0.1328
  311MOL0     C42801   7.226   3.939   6.770  0.4870 -0.5276  0.2757
  311MOL0     C42802   7.326   3.984   6.869 -0.1486  0.6946 -1.1436
  311MOL0     C42803   7.466   3.933   6.839  0.5140  0.3579 -1.3570
  311MOL0     O42804   7.537   4.005   6.737 -0.2235  0.2812  0.0248
  311MOL0     C42805   7.648   4.074   6.764 -0.1436 -0.3291  0.3877
  311MOL0     C42806   7.748   4.016   6.845 -0.5320 -0.4684 -0.5092
  311MOL0     C42807   7.883   4.064   6.838 -0.5614  0.3887  0.5933
  311MOL0     C42808   7.987   3.974   6.901 -0.9992 -0.3230  1.0443
  311MOL0     C42809   7.904   4.187   6.774  0.6031  0.6376  0.2888
  311MOL0     C42810   8.039   4.235   6.758  0.7183 -0.0920 -0.2968
  311MOL0     O42811   8.145   4.150   6.754  0.0142 -0.0940 -0.5192
  311MOL0     C42812   8.268   4.208   6.746  0.4875  0.5640 -0.0441
  311MOL0     C42813   8.299   4.254   6.624  1.0076 -0.2466 -0.8898
  311MOL0     C42814   8.413   4.327   6.598 -0.5646 -1.2719 -1.0487
  311MOL0     C42815   8.509   4.339   6.702 -1.2363  0.1337  0.5584
  311MOL0     O42816   8.631   4.387   6.661  0.0324  0.4712  0.8427
  311MOL0     C42817   8.750   4.311   6.682  0.2304 -0.6001 -0.0657
  311MOL0     C42818   8.877   4.398   6.696  0.1118 -0.4405  0.5322
  311MOL0     C42819   8.864   4.493   6.808 -0.3142  0.9476  0.2019
  311MOL0     C42820   9.000   4.520   6.872  0.1773 -0.0152  0.3800
  311MOL0     C42821   8.987   4.653   6.954 -0.6681  0.0743 -0.2415
  311MOL0     C42822   9.118   4.722   6.959  0.0945  0.1253  0.7667
  311MOL0     C42823   9.136   4.827   7.060 -0.8069  0.6663 -0.5416
  311MOL0     C42824   9.281   4.885   7.077  0.5055 -0.3077 -0.1537
  311MOL0    Cl42825   9.286   5.033   6.972 -0.2711 -0.6345 -0.0325
  311MOL0     C42826   8.479   4.297   6.830 -0.1060  1.0140 -1.0218
  311MOL0     C42827   8.357   4.226   6.854 -0.9951  0.3443  0.3176
  311MOL0     O42828   8.045   4.358   6.738  0.8572 -0.0993  0.9104
  311MOL0     C42829   7.796   4.256   6.701  0.2488  0.5016 -0.1575
  311MOL0     C42830   7.672   4.192   6.696 -0.3422 -0.8128  0.0855
  311MOL0     N42831   7.283   3.656   6.948  1.2749  0.1842  0.2211
  311MOL0     N42832   7.223   3.589   7.047  0.0213  0.8493  0.8387
  311MOL0     C42833   7.385   3.464   6.216 -0.5077 -0.0084 -0.1401
  311MOL0     C42834   7.483   3.557   6.172  0.0117 -0.4065  0.9759
  311MOL0     C42835   7.791   3.848   6.096  0.1520 -0.1048 -0.3169
  311MOL0     C42836   7.725   3.946   6.019  0.6275  0.7576 -0.1247
  311MOL0     C42837   7.783   4.038   5.939 -0.4309  0.1403 -0.0868
  311MOL0     C42838   7.917   4.014   5.909 -1.2790  0.2808 -0.4489
  311MOL0     O42839   7.993   4.097   5.841 -0.3201 -0.5479  0.4929
  311MOL0     C42840   7.933   4.170   5.727 -0.2299 -0.5458 -0.2529
  311MOL0     C42841   8.032   4.252   5.654  0.1588 -0.3584 -0.5345
  311MOL0     C42842   8.070   4.374   5.746 -0.1488 -0.1002  0.3812
  311MOL0     C42843   8.154   4.476   5.664 -0.0960  0.3477  0.1532
  311MOL0     C42844   8.080   4.545   5.564  0.4465 -0.1378 -0.1574
  311MOL0     C42845   8.019   4.604   5.480  0.1741  0.1004  1.0454
  311MOL0     C42846   7.985   3.915   5.972 -0.7530  1.0327  0.3142
  311MOL0     C42847   7.932   3.838   6.076  0.4432 -1.0899  0.3962
  311MOL0     C42848   8.026   3.741   6.139  1.0073 -0.3966 -0.1935
  311MOL0     H42849   7.368   3.836   6.343 -2.6457  0.3793 -0.9635
  311MOL0     H42850   7.206   3.667   6.412 -0.7093 -0.4343 -0.3767
  311MOL0     H42851   7.311   3.276   6.445  1.8073  3.1111 -2.7718
  311MOL0     H42852   7.223   3.236   6.299  1.4013  0.4473 -0.8016
  311MOL0     H42853   7.010   3.227   6.436  1.0744 -0.9274 -2.7932
  311MOL0     H42854   7.139   3.121   6.499 -1.3157  0.3623  2.2756
  311MOL0     H42855   7.209   3.297   6.660 -0.0661 -0.1188 -0.2199
  311MOL0     H42856   7.079   3.404   6.612 -2.2272 -0.5061 -2.1196
  311MOL0     H42857   6.916   3.198   6.658 -1.1362  1.6436  0.0314
  311MOL0     H42858   7.056   3.141   6.749 -2.0756  0.5917  2.1396
  311MOL0     H42859   6.869   3.283   6.868  0.0040 -3.5658 -0.6992
  311MOL0     H42860   6.976   3.407   6.799  0.7571 -0.5848 -1.5732
  311MOL0     H42861   7.112   3.190   6.945  0.8417  0.4230  0.8495
  311MOL0     H42862   7.171   3.351   6.924  1.0259 -1.2667  0.1452
  311MOL0     H42863   7.125   3.340   7.157  0.6057 -0.3431 -1.7343
  311MOL0     H42864   6.963   3.274   7.135  2.9418 -3.0767  1.7623
  311MOL0     H42865   6.891   3.497   7.028 -0.1208 -2.5447 -0.0613
  311MOL0     H42866   6.958   3.521   7.183 -1.6963  0.0986 -0.8163
  311MOL0     H42867   6.965   3.679   6.858  0.6036  1.0231 -0.0426
  311MOL0     H42868   7.130   3.784   6.676 -0.2381  0.5049  0.1233
  311MOL0     H42869   7.302   3.754   6.692  0.4745  2.1508 -0.7548
  311MOL0     H42870   7.247   3.989   6.675  0.0745  1.0300  0.9698
  311MOL0     H42871   7.132   3.982   6.807  0.0873 -1.9456  0.9894
  311MOL0     H42872   7.330   4.094   6.869 -0.7987  0.7243 -1.8656
  311MOL0     H42873   7.311   3.954   6.973 -2.8226 -1.0567 -1.9447
  311MOL0     H42874   7.518   3.935   6.935  3.6715 -2.6045 -2.7715
  311MOL0     H42875   7.467   3.828   6.808  3.5750 -0.3756  0.8084
  311MOL0     H42876   7.739   3.926   6.905  1.4370 -0.6900 -0.4867
  311MOL0     H42877   7.942   3.893   6.959  2.5572 -4.1367 -0.9775
  311MOL0     H42878   8.058   4.024   6.967  0.9360 -2.1510  0.4561
  311MOL0     H42879   8.045   3.917   6.828  0.4776  4.1793 -1.6954
  311MOL0     H42880   8.228   4.261   6.542 -1.6787 -0.6615  1.2695
  311MOL0     H42881   8.430   4.365   6.498  0.5768  0.5192 -0.2201
  311MOL0     H42882   8.741   4.234   6.760  2.7959 -2.6545 -1.6292
  311MOL0     H42883   8.764   4.253   6.591 -1.5878 -1.9295  0.4311
  311MOL0     H42884   8.966   4.339   6.717  1.5967  2.7172  4.2030
  311MOL0     H42885   8.891   4.448   6.599  0.8679 -2.3870 -0.4151
  311MOL0     H42886   8.793   4.458   6.884  2.6772  0.1187  2.8027
  311MOL0     H42887   8.822   4.588   6.775  1.9735  1.9463  0.0449
  311MOL0     H42888   9.071   4.538   6.791  1.6211 -0.2216  1.5350
  311MOL0     H42889   9.027   4.436   6.938  1.1509  1.1770  1.5629
  311MOL0     H42890   8.915   4.720   6.908  0.2407 -0.1188 -2.0131
  311MOL0     H42891   8.949   4.628   7.054  2.9841 -1.3587  0.9628
  311MOL0     H42892   9.136   4.768   6.861 -0.8177  0.8707  0.9401
  311MOL0     H42893   9.199   4.649   6.967  1.9525  1.9613 -0.1723
  311MOL0     H42894   9.126   4.771   7.154  0.3036 -2.7034 -2.2681
  311MOL0     H42895   9.069   4.913   7.054  0.7942  2.0517  0.3842
  311MOL0     H42896   9.364   4.818   7.054  2.5677  1.6103  1.2608
  311MOL0     H42897   9.287   4.921   7.181  2.1336  1.7480 -0.8889
  311MOL0     H42898   8.549   4.303   6.912  0.4260 -0.7150 -1.3045
  311MOL0     H42899   8.335   4.195   6.956 -2.1625  0.3718  0.0861
  311MOL0     H42900   7.813   4.344   6.640 -3.2214  0.1607 -1.8171
  311MOL0     H42901   7.597   4.241   6.636 -0.9650 -1.1428  0.5861
  311MOL0     H42902   7.395   3.359   6.192 -3.1217 -0.3722  0.0611
  311MOL0     H42903   7.568   3.526   6.113  1.1842 -0.5799  2.6941
  311MOL0     H42904   7.618   3.959   6.027  0.7031  0.6588  1.4299
  311MOL0     H42905   7.739   4.115   5.876 -0.1833  0.0024 -0.4335
  311MOL0     H42906   7.880   4.102   5.660 -1.4925  1.4582 -1.3932
  311MOL0     H42907   7.863   4.243   5.770  1.7399 -0.2358  2.8088
  311MOL0     H42908   7.986   4.284   5.560 -1.0698  5.3585  1.6064
  311MOL0     H42909   8.122   4.194   5.629  0.2860 -0.0268 -0.8556
  311MOL0     H42910   7.987   4.434   5.785 -1.1259 -0.8100 -0.5595
  311MOL0     H42911   8.127   4.335   5.831 -1.0155 -0.5255  0.7759
  311MOL0     H42912   8.235   4.426   5.610 -1.2767  0.6814 -2.0352
  311MOL0     H42913   8.190   4.557   5.729 -1.9714  0.5227  1.0645
  311MOL0     H42914   7.967   4.664   5.408  0.8912 -0.0245  0.4167
  311MOL0     H42915   8.087   3.899   5.938 -1.3149 -0.7722 -0.6675
  311MOL0     H42916   8.044   3.777   6.240  0.6453  1.5620 -0.7794
  311MOL0     H42917   7.977   3.643   6.139  0.2762 -0.1032 -2.4917
  311MOL0     H42918   8.119   3.742   6.082  2.0239 -2.4821  1.2963
  312MOL0     O42919   6.843   6.745   5.279 -0.1178 -0.2714 -1.1196
  312MOL0     C42920   6.802   6.853   5.240 -0.9018 -0.0983  0.7880
  312MOL0     O42921   6.882   6.952   5.180  0.1035  0.7467  0.0959
  312MOL0     C42922   7.020   6.940   5.183  0.6455 -0.0878 -0.5688
  312MOL0     C42923   7.098   7.033   5.248 -0.4708  0.6918  0.4174
  312MOL0     C42924   7.235   7.023   5.240 -0.3899 -0.5053  0.0592
  312MOL0     C42925   7.298   6.928   5.160 -0.8792 -0.6764  0.1638
  312MOL0     O42926   7.431   6.896   5.180 -0.0685 -0.4828  0.3964
  312MOL0     C42927   7.489   6.937   5.055  0.0265  0.2912 -0.1350
  312MOL0     C42928   7.636   6.963   5.074  1.1307 -0.0214  0.3075
  312MOL0     C42929   7.663   7.110   5.127 -0.4186  0.5866  0.5007
  312MOL0     C42930   7.632   7.112   5.276 -0.9232 -0.0692  0.3080
  312MOL0     C42931   7.737   7.177   5.361 -1.1855  0.2373  0.1231
  312MOL0     C42932   7.852   7.077   5.394 -0.4631 -1.3481  0.9356
  312MOL0     C42933   7.950   7.040   5.273  0.2473  0.1888  0.4442
  312MOL0     C42934   8.050   6.946   5.324  0.1000 -0.3379  0.3650
  312MOL0     N42935   8.126   6.994   5.445  0.6281 -0.1823  0.9626
  312MOL0     C42936   8.190   7.109   5.448 -0.6552  0.1563 -0.0966
  312MOL0     C42937   8.210   7.137   5.588 -0.7245 -0.1446 -0.7035
  312MOL0     C42938   8.262   7.273   5.632  0.7007  0.7074  0.3764
  312MOL0     C42939   8.147   7.366   5.684 -0.6071  0.2169 -0.0862
  312MOL0     C42940   8.051   7.419   5.570 -0.1406  0.8030 -0.1463
  312MOL0     C42941   8.002   7.564   5.587 -0.9313 -0.1545  0.0640
  312MOL0     O42942   7.886   7.554   5.664 -0.1052 -0.1938  0.2632
  312MOL0     C42943   7.791   7.654   5.647  0.2310 -0.5914  0.0326
  312MOL0     C42944   7.813   7.784   5.619 -0.3953 -0.7976  0.3404
  312MOL0     C42945   7.715   7.881   5.576 -0.1543 -0.0090  0.4157
  312MOL0     C42946   7.765   8.029   5.548 -0.5487 -0.0970 -0.2213
  312MOL0     C42947   7.586   7.833   5.573 -0.2679  0.5417  0.1843
  312MOL0     C42948   7.477   7.928   5.554 -0.3216 -0.3480  0.3587
  312MOL0     O42949   7.459   8.033   5.641 -0.4410 -0.1118 -0.1196
  312MOL0     C42950   7.346   8.115   5.632  0.6774  0.4185  0.0465
  312MOL0     C42951   7.369   8.240   5.697 -0.0231 -0.0128 -0.3091
  312MOL0     C42952   7.267   8.341   5.695 -0.2299 -0.2507  0.2273
  312MOL0     C42953   7.146   8.327   5.623  0.0859  0.6899 -0.1691
  312MOL0     O42954   7.049   8.423   5.640  0.2951 -0.0592  0.6913
  312MOL0     C42955   6.939   8.423   5.547 -0.0710  0.6158 -0.2456
  312MOL0     C42956   6.865   8.551   5.541 -0.4464 -0.1230  0.6092
  312MOL0     C42957   6.758   8.545   5.429  0.0765  0.0288 -0.0864
  312MOL0     C42958   6.691   8.677   5.427 -0.1562 -0.0562 -0.2552
  312MOL0     C42959   6.759   8.793   5.356  0.7427  1.3647 -0.7810
  312MOL0     C42960   6.680   8.916   5.390 -0.2945  0.3964 -0.3967
  312MOL0     C42961   6.736   9.036   5.318  0.3132  1.1161  0.7350
  312MOL0     C42962   6.709   9.167   5.386  0.0873 -0.5363 -0.3003
  312MOL0    Cl42963   6.529   9.181   5.421  0.1724 -0.2070  0.2403
  312MOL0     C42964   7.131   8.202   5.559  0.3523  0.5481 -0.5849
  312MOL0     C42965   7.227   8.093   5.562  0.2676 -0.6016 -0.7692
  312MOL0     O42966   7.413   7.911   5.454 -0.9307  0.0129  0.1761
  312MOL0     C42967   7.559   7.698   5.604  0.4527  0.6171 -0.4186
  312MOL0     C42968   7.655   7.613   5.643 -0.2230  0.6541 -1.1649
  312MOL0     N42969   8.161   7.027   5.655  0.3872 -1.3459 -0.1663
  312MOL0     N42970   8.108   6.942   5.566  0.1490 -0.0814 -0.1732
  312MOL0     C42971   7.216   6.845   5.084  0.2510 -0.6501 -0.5773
  312MOL0     C42972   7.080   6.851   5.093  0.0673  0.1787 -0.9654
  312MOL0     C42973   6.657   6.881   5.242  0.4147  0.5119  0.6405
  312MOL0     C42974   6.602   6.939   5.119 -0.6182  0.2032 -0.6238
  312MOL0     C42975   6.471   6.979   5.117  0.1251 -0.5026 -0.3996
  312MOL0     C42976   6.380   6.944   5.221 -0.4568  1.1529 -0.3858
  312MOL0     O42977   6.245   6.967   5.214  0.7090  0.2957 -0.3582
  312MOL0     C42978   6.186   7.003   5.091 -0.6307  0.3407 -0.3459
  312MOL0     C42979   6.040   6.956   5.093  0.4058 -0.3090 -0.2310
  312MOL0     C42980   5.952   7.045   5.184 -0.4963  0.5167  0.2460
  312MOL0     C42981   5.820   6.969   5.215 -0.6877  0.2283  0.2012
  312MOL0     C42982   5.748   6.935   5.093 -0.2834  0.7899 -0.7037
  312MOL0     C42983   5.671   6.913   5.008  0.5870 -0.3267 -0.0196
  312MOL0     C42984   6.436   6.901   5.339 -0.4556  0.3067 -0.0938
  312MOL0     C42985   6.573   6.859   5.353 -0.1620 -0.3187  1.0307
  312MOL0     C42986   6.622   6.796   5.477 -0.5668  0.6651  0.0701
  312MOL0     H42987   7.063   7.105   5.322  1.5647 -0.8931  3.1098
  312MOL0     H42988   7.291   7.075   5.317 -0.8561 -2.3303  1.6948
  312MOL0     H42989   7.451   7.026   5.005 -0.4000  0.4375  0.4347
  312MOL0     H42990   7.474   6.850   4.990 -2.4443 -1.4766  2.5685
  312MOL0     H42991   7.684   6.887   5.135  2.0595  0.4810  0.2208
  312MOL0     H42992   7.684   6.952   4.977  1.0971 -0.9623  0.3958
  312MOL0     H42993   7.769   7.129   5.109 -0.2129 -2.0269 -1.6980
  312MOL0     H42994   7.604   7.188   5.079 -2.7334  0.6231  3.1623
  312MOL0     H42995   7.538   7.166   5.290 -1.7362 -1.0899 -0.9359
  312MOL0     H42996   7.617   7.008   5.308 -1.6732  0.0120  0.2252
  312MOL0     H42997   7.685   7.206   5.453 -3.0701  0.1977 -0.8851
  312MOL0     H42998   7.784   7.266   5.316  3.3324 -1.8671  0.1390
  312MOL0     H42999   7.905   7.117   5.481 -0.5644  0.2160  0.3080
  312MOL0     H43000   7.794   6.991   5.430 -2.6198 -0.8609 -1.0881
  312MOL0     H43001   8.002   7.131   5.241 -2.4087  3.0570  3.4299
  312MOL0     H43002   7.901   6.996   5.186 -1.5982 -0.7409  1.8719
  312MOL0     H43003   8.010   6.850   5.357 -0.9836  0.1756  0.5697
  312MOL0     H43004   8.121   6.917   5.245  0.0487  0.4964  0.0071
  312MOL0     H43005   8.209   7.189   5.376 -2.9720 -0.4054 -1.4490
  312MOL0     H43006   8.309   7.327   5.549  1.6307  2.7298  2.1333
  312MOL0     H43007   8.343   7.258   5.703  0.2327 -2.5646  0.3896
  312MOL0     H43008   8.091   7.316   5.763  0.4232 -0.5175  0.2110
  312MOL0     H43009   8.201   7.449   5.730 -0.6346  0.7872 -1.0599
  312MOL0     H43010   8.117   7.425   5.483  0.3050  3.3563  0.2682
  312MOL0     H43011   7.966   7.354   5.551  1.5706 -2.2652  1.7415
  312MOL0     H43012   8.078   7.617   5.645 -1.1678  0.2462  0.0168
  312MOL0     H43013   8.006   7.606   5.486 -0.1802 -0.7970 -0.1789
  312MOL0     H43014   7.916   7.812   5.639 -0.6783  0.7272 -0.2283
  312MOL0     H43015   7.787   8.048   5.443  1.4242 -0.9744 -0.0055
  312MOL0     H43016   7.860   8.056   5.594 -0.4000  0.0710 -0.6264
  312MOL0     H43017   7.689   8.091   5.598 -0.0834 -1.4999  2.4195
  312MOL0     H43018   7.455   8.233   5.762  0.3962 -2.3338 -0.9996
  312MOL0     H43019   7.290   8.433   5.749 -0.0708 -0.2808  0.2125
  312MOL0     H43020   6.978   8.391   5.450 -3.0690  0.6183 -1.5523
  312MOL0     H43021   6.875   8.340   5.579 -0.0152 -0.0048 -1.6859
  312MOL0     H43022   6.810   8.569   5.634 -0.6762  1.0374  0.2709
  312MOL0     H43023   6.941   8.628   5.528  2.5434 -2.4289  2.9945
  312MOL0     H43024   6.689   8.462   5.441 -0.1387  0.4419  1.8198
  312MOL0     H43025   6.817   8.533   5.338  2.7993  1.0596  1.4132
  312MOL0     H43026   6.664   8.705   5.529  3.0362  2.3044  0.0625
  312MOL0     H43027   6.591   8.662   5.385 -0.0467 -0.9835 -0.2221
  312MOL0     H43028   6.863   8.798   5.389  0.5123 -0.9513  0.5204
  312MOL0     H43029   6.762   8.760   5.252  1.6004  1.4118 -0.7788
  312MOL0     H43030   6.676   8.933   5.498 -1.3634 -0.2191 -0.3256
  312MOL0     H43031   6.577   8.896   5.360  0.4141 -1.4104 -1.7416
  312MOL0     H43032   6.684   9.028   5.222 -3.0444  0.4798  2.4519
  312MOL0     H43033   6.843   9.024   5.297  0.3364 -0.7130  1.7379
  312MOL0     H43034   6.732   9.249   5.318  0.4324  2.0930  2.7562
  312MOL0     H43035   6.766   9.177   5.479 -0.5764  1.4474 -0.0606
  312MOL0     H43036   7.029   8.171   5.540 -0.1039 -0.8797  3.4261
  312MOL0     H43037   7.205   7.997   5.517  1.2239 -1.7281  1.0605
  312MOL0     H43038   7.459   7.657   5.605 -0.7685  3.4117  0.4150
  312MOL0     H43039   7.622   7.510   5.656  0.0844  0.5137 -1.5063
  312MOL0     H43040   7.249   6.766   5.017  2.3063  0.8955 -1.5124
  312MOL0     H43041   7.023   6.776   5.039  0.4427 -0.3270 -0.6655
  312MOL0     H43042   6.654   6.953   5.025  1.1698 -2.0096 -0.0501
  312MOL0     H43043   6.440   7.028   5.025  0.9794  0.1926 -0.3296
  312MOL0     H43044   6.190   7.112   5.083  0.5698  0.3539  0.1844
  312MOL0     H43045   6.230   6.962   5.000 -1.3629  1.6742 -1.3435
  312MOL0     H43046   6.047   6.856   5.136  1.5404  0.2403  0.9324
  312MOL0     H43047   5.995   6.950   4.994 -4.4185 -0.3926  1.7128
  312MOL0     H43048   6.004   7.064   5.279  0.4794 -0.4081 -0.0788
  312MOL0     H43049   5.937   7.135   5.124 -1.7738 -1.0883 -2.0058
  312MOL0     H43050   5.751   7.025   5.280  0.5889  1.8131  0.2409
  312MOL0     H43051   5.832   6.875   5.270 -2.2549 -1.2755 -1.8680
  312MOL0     H43052   5.594   6.897   4.935 -1.4856  0.9530  1.7532
  312MOL0     H43053   6.361   6.875   5.413 -0.4869 -1.2213 -0.6159
  312MOL0     H43054   6.531   6.768   5.532 -0.6886 -0.7955 -0.8141
  312MOL0     H43055   6.671   6.701   5.454 -2.8142 -0.1574 -1.6691
  312MOL0     H43056   6.687   6.855   5.542 -0.1581  0.6084 -0.2801
  313MOL0     O43057   7.869   1.961   4.356  0.9192 -0.4946  0.5041
  313MOL0     C43058   7.811   2.018   4.265 -0.4931 -0.3735  0.6267
  313MOL0     O43059   7.871   2.114   4.188  0.7435 -0.6219  0.0281
  313MOL0     C43060   7.999   2.135   4.216 -0.3919  0.6861 -0.6162
  313MOL0     C43061   8.086   2.032   4.181 -0.2745 -0.0222 -0.3697
  313MOL0     C43062   8.223   2.042   4.192 -0.2929  0.4828  0.0507
  313MOL0     C43063   8.282   2.157   4.244 -0.3744 -0.5519  0.0169
  313MOL0     O43064   8.421   2.161   4.252  0.7020 -0.2403 -0.7411
  313MOL0     C43065   8.485   2.281   4.300  0.5961 -0.2011  0.1863
  313MOL0     C43066   8.499   2.307   4.455 -0.4725  0.3736  0.7449
  313MOL0     C43067   8.531   2.180   4.539 -0.8325 -1.1032  0.1415
  313MOL0     C43068   8.661   2.110   4.500  0.2086  0.2605 -0.8967
  313MOL0     C43069   8.694   1.981   4.585  0.4148 -1.3673  0.0107
  313MOL0     C43070   8.689   2.009   4.732 -0.5442  0.4646 -0.1837
  313MOL0     C43071   8.740   1.906   4.821 -0.5408 -0.4458 -0.4556
  313MOL0     C43072   8.639   1.788   4.827  0.2383 -0.1269  0.6135
  313MOL0     N43073   8.697   1.679   4.910 -0.0672  1.1230  0.3034
  313MOL0     C43074   8.773   1.700   5.022 -0.6706  0.0637 -0.3341
  313MOL0     C43075   8.829   1.576   5.046  0.9576 -0.4480 -1.0337
  313MOL0     C43076   8.904   1.557   5.167 -0.4608 -0.1445 -0.0082
  313MOL0     C43077   9.042   1.513   5.130 -0.9215  1.3022  0.9656
  313MOL0     C43078   9.145   1.550   5.241  0.1322  0.6000  0.6502
  313MOL0     C43079   9.092   1.513   5.382  0.0369  0.4570 -0.0920
  313MOL0     O43080   9.020   1.385   5.378 -0.2829  0.6840  0.0665
  313MOL0     C43081   9.084   1.261   5.378  0.2883  0.8010  0.6269
  313MOL0     C43082   8.997   1.156   5.358 -0.2003 -0.2184 -0.9470
  313MOL0     C43083   9.043   1.027   5.375  0.0313  0.3993  0.2969
  313MOL0     C43084   8.936   0.930   5.404 -0.4000  0.5501 -0.3609
  313MOL0     C43085   9.177   1.000   5.370 -0.5292 -0.7240 -0.1476
  313MOL0     C43086   9.228   0.860   5.365 -0.5539 -0.5455 -0.5795
  313MOL0     O43087   9.321   0.828   5.472 -0.1071 -0.7021  0.3380
  313MOL0     C43088   9.417   0.734   5.462 -0.6238 -0.3982  0.0976
  313MOL0     C43089   9.479   0.686   5.346  0.1763 -0.2168 -0.9149
  313MOL0     C43090   9.565   0.581   5.351  0.8238  0.5092 -0.2007
  313MOL0     C43091   9.606   0.517   5.469  0.0246  0.0431  0.2970
  313MOL0     O43092   9.700   0.410   5.498 -0.5051  0.2204  0.3458
  313MOL0     C43093   9.754   0.321   5.389  0.3770  0.1334  0.0836
  313MOL0     C43094   9.646   0.250   5.314 -0.0290 -0.0944  0.1421
  313MOL0     C43095   9.573   0.151   5.406 -0.4876 -0.5257  0.3435
  313MOL0     C43096   9.651   0.028   5.426 -0.1876 -0.1559  0.3669
  313MOL0     C43097   9.569  -0.087   5.480  0.2770 -0.6340 -0.8169
  313MOL0     C43098   9.641  -0.215   5.505  1.1247  0.0184 -0.9698
  313MOL0     C43099   9.689  -0.275   5.379 -0.7016  0.8771  0.4295
  313MOL0     C43100   9.690  -0.435   5.399 -0.6622 -0.1873  0.0540
  313MOL0    Cl43101   9.534  -0.519   5.428  0.0989 -0.1697 -0.2633
  313MOL0     C43102   9.545   0.564   5.584 -0.3207  0.4073 -0.9685
  313MOL0     C43103   9.462   0.673   5.583  0.8547 -0.3233 -0.3693
  313MOL0     O43104   9.198   0.782   5.274  0.6600  0.2983 -0.2852
  313MOL0     C43105   9.268   1.104   5.388 -1.6601 -0.5292  0.0288
  313MOL0     C43106   9.225   1.242   5.383  0.9171  0.2101  1.0689
  313MOL0     N43107   8.798   1.483   4.951  0.1794  0.3104 -0.5351
  313MOL0     N43108   8.709   1.543   4.871 -0.4043 -0.2557  0.4184
  313MOL0     C43109   8.190   2.263   4.274  0.0071  1.1660 -0.2899
  313MOL0     C43110   8.054   2.256   4.266  0.5989 -0.1418  0.1385
  313MOL0     C43111   7.668   1.998   4.257  0.4336 -1.1138 -0.6735
  313MOL0     C43112   7.585   2.103   4.305 -0.8281  0.6741 -1.0066
  313MOL0     C43113   7.453   2.088   4.270  0.0219  0.1149 -0.3050
  313MOL0     C43114   7.399   1.983   4.190 -0.0782 -0.4567  0.3091
  313MOL0     O43115   7.271   1.990   4.140  0.5151 -1.0326  0.5277
  313MOL0     C43116   7.185   2.114   4.133  0.3014  0.4021 -1.4538
  313MOL0     C43117   7.091   2.102   4.024  0.2385  0.8587 -0.1289
  313MOL0     C43118   7.138   2.113   3.875  0.9967 -0.5052 -0.1427
  313MOL0     C43119   7.101   2.239   3.810 -1.2156  0.5517  0.0696
  313MOL0     C43120   6.956   2.256   3.794  0.1671 -0.1073 -0.5802
  313MOL0     C43121   6.841   2.273   3.764  0.4507  0.8618 -0.4402
  313MOL0     C43122   7.480   1.872   4.165 -0.3801  0.3548  0.0382
  313MOL0     C43123   7.614   1.885   4.191 -0.8718 -0.1101 -0.2955
  313MOL0     C43124   7.705   1.774   4.136  0.0064 -0.6058 -1.0317
  313MOL0     H43125   8.041   1.937   4.152 -0.7992 -1.4999  4.4580
  313MOL0     H43126   8.285   1.958   4.163 -1.4009 -0.3833  0.0934
  313MOL0     H43127   8.449   2.365   4.239  1.2838 -1.9762 -2.8958
  313MOL0     H43128   8.590   2.280   4.270  0.2947 -3.1925 -1.1418
  313MOL0     H43129   8.577   2.382   4.470 -1.0495  0.8160  1.6093
  313MOL0     H43130   8.406   2.349   4.495  0.9811  0.4804  4.4104
  313MOL0     H43131   8.525   2.224   4.639 -1.4861  1.3908 -0.8978
  313MOL0     H43132   8.446   2.111   4.530 -1.0947 -1.1981  2.7076
  313MOL0     H43133   8.657   2.065   4.400 -0.3173 -2.0356  0.0817
  313MOL0     H43134   8.749   2.174   4.496 -2.3414  4.3422  1.1337
  313MOL0     H43135   8.791   1.937   4.560  1.2494  0.6695 -0.5517
  313MOL0     H43136   8.615   1.915   4.546  0.7111  0.3875 -4.1157
  313MOL0     H43137   8.749   2.099   4.751  0.7966 -0.3059 -0.6673
  313MOL0     H43138   8.590   2.046   4.759 -0.0714  1.8686 -0.2719
  313MOL0     H43139   8.741   1.948   4.922 -1.3954 -0.7536 -0.3083
  313MOL0     H43140   8.839   1.872   4.791  0.5087  2.2153 -0.2983
  313MOL0     H43141   8.552   1.834   4.874  1.0188  1.6647  0.3632
  313MOL0     H43142   8.617   1.762   4.723  0.1100  0.8591  0.3870
  313MOL0     H43143   8.792   1.791   5.078  3.5131 -0.6417 -0.3460
  313MOL0     H43144   8.859   1.480   5.232  0.7795 -1.3562 -0.5321
  313MOL0     H43145   8.901   1.655   5.216 -1.2490 -0.1536 -0.0281
  313MOL0     H43146   9.029   1.407   5.104 -2.4760  1.7852 -0.3719
  313MOL0     H43147   9.074   1.546   5.031 -2.8054 -0.9584 -0.5200
  313MOL0     H43148   9.236   1.495   5.217  0.5197  1.5479 -0.1032
  313MOL0     H43149   9.166   1.657   5.235  0.8203  0.3952 -1.2970
  313MOL0     H43150   9.172   1.518   5.456  0.3936 -2.5472 -0.1286
  313MOL0     H43151   9.017   1.588   5.408  0.4359  0.3588  1.3720
  313MOL0     H43152   8.891   1.170   5.345 -1.3671 -1.0031  4.8706
  313MOL0     H43153   8.974   0.836   5.444  1.7087  1.7149  0.5161
  313MOL0     H43154   8.891   0.910   5.306  0.8216 -2.0010 -0.4722
  313MOL0     H43155   8.868   0.969   5.480  1.8193 -1.5225  2.9575
  313MOL0     H43156   9.463   0.727   5.247 -0.2323 -0.3369 -0.8999
  313MOL0     H43157   9.610   0.548   5.258  0.2089 -0.4698 -0.1700
  313MOL0     H43158   9.815   0.383   5.323  1.9319 -1.6930 -0.2850
  313MOL0     H43159   9.819   0.242   5.427 -0.1167 -0.2397  0.1679
  313MOL0     H43160   9.582   0.329   5.274  1.8581  1.6458  0.4193
  313MOL0     H43161   9.701   0.209   5.229  0.8525  1.7223 -0.2167
  313MOL0     H43162   9.478   0.122   5.360 -0.7806 -1.4058  1.4760
  313MOL0     H43163   9.546   0.195   5.502 -2.4963  2.2181 -1.3335
  313MOL0     H43164   9.740   0.050   5.485 -0.5060 -3.6020  2.3814
  313MOL0     H43165   9.690  -0.009   5.332  1.5985  0.9712  0.6234
  313MOL0     H43166   9.524  -0.062   5.577  0.1883  1.7674 -1.3980
  313MOL0     H43167   9.495  -0.110   5.402  2.3153 -1.2878 -2.6628
  313MOL0     H43168   9.557  -0.275   5.542  1.4962 -0.2799 -0.5916
  313MOL0     H43169   9.719  -0.206   5.581  1.8804  0.1368 -1.7420
  313MOL0     H43170   9.787  -0.228   5.362 -1.2802  2.0643  0.2712
  313MOL0     H43171   9.626  -0.261   5.291 -1.4085 -2.9346  0.1623
  313MOL0     H43172   9.754  -0.443   5.487  0.3296 -0.3937 -0.6741
  313MOL0     H43173   9.741  -0.487   5.318  0.9159 -0.2053  1.0282
  313MOL0     H43174   9.565   0.531   5.686 -5.3432  0.6948  0.4147
  313MOL0     H43175   9.424   0.711   5.677 -0.1055 -2.6326  0.2554
  313MOL0     H43176   9.374   1.083   5.393 -1.6510 -0.4054  0.3889
  313MOL0     H43177   9.283   1.333   5.397  0.7981  0.3432  0.6748
  313MOL0     H43178   8.227   2.348   4.331 -1.3253  1.1024  0.7283
  313MOL0     H43179   7.991   2.341   4.290 -0.7671 -0.4422 -2.0765
  313MOL0     H43180   7.630   2.182   4.364  2.5641 -2.4783  0.9841
  313MOL0     H43181   7.384   2.165   4.301  0.3235  0.0270  0.6186
  313MOL0     H43182   7.129   2.111   4.227  1.8255 -0.8021 -0.5290
  313MOL0     H43183   7.224   2.216   4.124 -1.3710  1.3838  1.3001
  313MOL0     H43184   7.017   2.180   4.045 -2.8951 -2.1974  1.2893
  313MOL0     H43185   7.041   2.005   4.036  0.3877  0.7830 -0.1195
  313MOL0     H43186   7.246   2.111   3.887  1.0137 -0.0120 -0.1953
  313MOL0     H43187   7.115   2.031   3.806  3.0338  1.4466 -3.4168
  313MOL0     H43188   7.139   2.248   3.708  0.5280  1.3941  0.7503
  313MOL0     H43189   7.148   2.327   3.855  1.9621 -1.4278  0.9332
  313MOL0     H43190   6.734   2.277   3.750  0.4909  0.6752 -0.8345
  313MOL0     H43191   7.453   1.779   4.117  3.0600 -0.4701 -0.5250
  313MOL0     H43192   7.650   1.680   4.137 -0.5751 -0.2782  0.0025
  313MOL0     H43193   7.749   1.793   4.038  1.5510 -1.2917 -0.4970
  313MOL0     H43194   7.790   1.750   4.201 -0.5232 -2.8141 -1.0753
  314MOL0     O43195  10.473  10.648   8.866  0.0170  0.3613  0.1907
  314MOL0     C43196  10.443  10.527   8.860 -0.0884  0.1237  0.5959
  314MOL0     O43197  10.520  10.432   8.794  0.3843 -0.0183 -1.1880
  314MOL0     C43198  10.644  10.464   8.764 -0.5801 -0.3470 -0.8974
  314MOL0     C43199  10.693  10.371   8.673  0.0678  0.1334  0.3469
  314MOL0     C43200  10.825  10.373   8.628  1.3054 -0.0108  0.4954
  314MOL0     C43201  10.917  10.464   8.683 -0.9107  0.3255  0.0320
  314MOL0     O43202  11.043  10.475   8.637 -0.5194  0.4094  0.4372
  314MOL0     C43203  11.108  10.364   8.563 -0.5325  0.2329  0.2538
  314MOL0     C43204  11.256  10.406   8.546  0.2261 -0.3803 -0.7370
  314MOL0     C43205  11.332  10.283   8.501 -1.1738  0.2271  0.3064
  314MOL0     C43206  11.485  10.308   8.519  0.6435  0.3523  0.0219
  314MOL0     C43207  11.560  10.191   8.450 -0.3860 -0.0293  0.6854
  314MOL0     C43208  11.705  10.214   8.483 -0.1369 -1.2262  0.6975
  314MOL0     C43209  11.796  10.092   8.443 -0.2838 -0.0642  0.3875
  314MOL0     C43210  11.810  10.087   8.290  0.3205 -0.0899  0.2593
  314MOL0     N43211  11.878   9.964   8.240 -0.0125 -0.4625 -0.2586
  314MOL0     C43212  11.981   9.896   8.296 -0.2872 -0.7590 -0.0495
  314MOL0     C43213  12.034   9.809   8.202  0.0279  0.2575 -0.2133
  314MOL0     C43214  12.154   9.709   8.208  0.0393 -0.6629 -0.0542
  314MOL0     C43215  12.092   9.578   8.223 -1.1416 -0.3386  0.2957
  314MOL0     C43216  12.012   9.554   8.349 -0.3609 -0.1872 -0.0511
  314MOL0     C43217  12.122   9.527   8.462  1.0061 -0.1009  0.6993
  314MOL0     O43218  12.150   9.638   8.552  0.1585  0.6779 -0.5009
  314MOL0     C43219  12.049   9.699   8.625 -0.7830 -0.2207  0.2697
  314MOL0     C43220  12.082   9.833   8.661  0.4848  0.4162 -0.3883
  314MOL0     C43221  11.990   9.903   8.736 -0.0336 -0.1507  0.6695
  314MOL0     C43222  12.055  10.018   8.798  0.4766  0.4089 -0.3275
  314MOL0     C43223  11.856   9.858   8.767 -1.0926  0.0424 -0.2275
  314MOL0     C43224  11.756   9.946   8.831  0.3249 -0.3257 -0.3234
  314MOL0     O43225  11.784  10.076   8.855  0.2692 -0.2543 -0.2374
  314MOL0     C43226  11.696  10.146   8.939  0.5840  0.7190 -0.3235
  314MOL0     C43227  11.623  10.093   9.053 -0.6090 -0.0409  0.1405
  314MOL0     C43228  11.521  10.160   9.112  0.0789 -0.0050  0.0018
  314MOL0     C43229  11.508  10.293   9.080 -0.2929  0.6044 -0.4207
  314MOL0     O43230  11.396  10.341   9.143  0.8198  0.3215 -0.2259
  314MOL0     C43231  11.356  10.475   9.109 -0.1748 -0.0303  0.3278
  314MOL0     C43232  11.207  10.515   9.142 -0.4429 -0.1905 -0.1094
  314MOL0     C43233  11.164  10.636   9.071 -0.1923 -0.4869  0.2890
  314MOL0     C43234  11.263  10.761   9.087 -0.7512  0.3002 -0.3465
  314MOL0     C43235  11.250  10.867   8.983 -0.2251 -0.0231  0.0605
  314MOL0     C43236  11.102  10.899   8.964  0.0794 -0.2211  0.8002
  314MOL0     C43237  11.082  11.023   8.871  0.0412  0.5436 -0.5374
  314MOL0     C43238  10.935  11.035   8.817  1.2384  0.2805 -0.3078
  314MOL0    Cl43239  10.935  10.885   8.706  0.2990 -0.3138 -0.0028
  314MOL0     C43240  11.587  10.348   8.982 -0.4335 -0.3440 -0.1989
  314MOL0     C43241  11.683  10.278   8.908  0.1107  0.0949 -0.4480
  314MOL0     O43242  11.656   9.886   8.865  1.0608  0.3522 -0.1126
  314MOL0     C43243  11.831   9.722   8.738 -0.3894  0.6240 -0.1910
  314MOL0     C43244  11.923   9.644   8.653 -0.0567  0.3497 -0.8799
  314MOL0     N43245  11.959   9.830   8.092  0.1263 -0.3350 -0.0001
  314MOL0     N43246  11.870   9.925   8.115 -0.6337 -0.2140  0.6091
  314MOL0     C43247  10.874  10.554   8.782  0.1628  0.7680  0.1587
  314MOL0     C43248  10.739  10.551   8.826  0.5424 -0.0245  0.1075
  314MOL0     C43249  10.312  10.480   8.916  0.2142  0.7434 -0.3470
  314MOL0     C43250  10.276  10.344   8.888  0.3381  1.0190 -0.8254
  314MOL0     C43251  10.168  10.284   8.952  0.0382  0.1628 -0.4064
  314MOL0     C43252  10.077  10.357   9.037 -0.5633 -0.9126 -0.2272
  314MOL0     O43253   9.966  10.295   9.099  0.1868  0.4428 -0.1400
  314MOL0     C43254   9.860  10.375   9.161 -0.3682  0.2362  1.0121
  314MOL0     C43255   9.713  10.319   9.133 -0.4441  0.0975  0.4602
  314MOL0     C43256   9.700  10.274   8.981 -1.2025  0.2806 -0.0481
  314MOL0     C43257   9.701  10.389   8.872 -0.1526  0.7605  0.3393
  314MOL0     C43258   9.628  10.361   8.748 -0.4614 -0.6627 -0.9430
  314MOL0     C43259   9.542  10.343   8.659 -0.9742 -0.5443 -0.9522
  314MOL0     C43260  10.125  10.487   9.073  0.4781 -0.1407 -0.1036
  314MOL0     C43261  10.236  10.551   9.012  0.0433 -0.2616  0.6553
  314MOL0     C43262  10.268  10.690   9.070  0.1252 -0.1361  0.1175
  314MOL0     H43263  10.621  10.298   8.637 -0.3526  1.1151 -0.9089
  314MOL0     H43264  10.853  10.320   8.538 -2.3560 -1.8191  0.2427
  314MOL0     H43265  11.067  10.342   8.464  0.4398  0.9055 -0.3094
  314MOL0     H43266  11.102  10.274   8.626  0.3711  0.1986  0.2986
  314MOL0     H43267  11.265  10.491   8.477  1.3985  2.1968  2.3472
  314MOL0     H43268  11.298  10.437   8.642  0.0318 -1.5940 -0.2395
  314MOL0     H43269  11.307  10.192   8.557 -2.2915 -0.4835 -1.2934
  314MOL0     H43270  11.308  10.246   8.401 -0.7567 -2.5433  1.1387
  314MOL0     H43271  11.508  10.404   8.472 -1.4020  2.1240  2.3522
  314MOL0     H43272  11.500  10.314   8.627 -1.4468 -0.6246  0.4272
  314MOL0     H43273  11.550  10.198   8.342 -1.7665 -0.4454  0.7684
  314MOL0     H43274  11.531  10.089   8.476  2.0442 -0.7224  0.9771
  314MOL0     H43275  11.743  10.310   8.449 -0.9628 -0.6576  1.3290
  314MOL0     H43276  11.712  10.214   8.592 -0.3154  0.4912  0.7297
  314MOL0     H43277  11.765   9.991   8.470  0.6252 -0.5215 -0.2013
  314MOL0     H43278  11.894  10.107   8.489 -0.6028  0.6553  0.8575
  314MOL0     H43279  11.714  10.086   8.237  0.3932 -3.9988 -0.1092
  314MOL0     H43280  11.863  10.177   8.261 -0.9208  1.6001  2.8243
  314MOL0     H43281  12.017   9.905   8.398 -1.7637 -0.7356  0.4876
  314MOL0     H43282  12.219   9.728   8.294  0.7726 -1.6150 -0.3902
  314MOL0     H43283  12.213   9.726   8.118 -0.3520 -0.7832 -0.3356
  314MOL0     H43284  12.027   9.554   8.138 -0.1222 -2.4514  0.0366
  314MOL0     H43285  12.170   9.501   8.225 -1.2079 -0.4087  2.6823
  314MOL0     H43286  11.945   9.636   8.374  2.4232  2.8976 -1.8794
  314MOL0     H43287  11.957   9.460   8.334  0.0415 -0.7211  1.5936
  314MOL0     H43288  12.091   9.441   8.521 -2.1225  0.3686 -0.0486
  314MOL0     H43289  12.226   9.513   8.433  1.0223  0.2711  0.5606
  314MOL0     H43290  12.178   9.877   8.638  0.9538  1.4991  3.1434
  314MOL0     H43291  12.165  10.021   8.800  0.4654  0.4726  1.1015
  314MOL0     H43292  12.017  10.014   8.900  0.9853 -1.8252 -0.1848
  314MOL0     H43293  12.010  10.108   8.755 -1.2807  0.2454  1.0880
  314MOL0     H43294  11.658   9.994   9.080 -0.5547 -0.1016 -0.1531
  314MOL0     H43295  11.469  10.105   9.189  1.0357  0.4152  0.9824
  314MOL0     H43296  11.413  10.547   9.169  0.8750 -2.0213  1.8451
  314MOL0     H43297  11.370  10.496   9.003 -2.1163 -0.5459 -0.0767
  314MOL0     H43298  11.151  10.427   9.109 -0.6338 -0.9276  1.9813
  314MOL0     H43299  11.200  10.528   9.251  1.6908  0.5420 -0.0102
  314MOL0     H43300  11.071  10.670   9.117  0.8416  1.2229  1.2213
  314MOL0     H43301  11.145  10.603   8.968  2.6389  1.3500 -0.9398
  314MOL0     H43302  11.368  10.731   9.091  0.0236  2.9142  1.7290
  314MOL0     H43303  11.243  10.811   9.182 -0.6682 -1.1354  0.4440
  314MOL0     H43304  11.308  10.959   9.000  0.5842 -0.4761 -0.2041
  314MOL0     H43305  11.287  10.825   8.888 -0.6720  0.8234 -0.5067
  314MOL0     H43306  11.059  10.933   9.059 -1.4208 -0.6258  0.3013
  314MOL0     H43307  11.049  10.812   8.923 -0.5592  0.1437  0.8436
  314MOL0     H43308  11.150  11.035   8.786  0.7472  1.6541  0.1655
  314MOL0     H43309  11.090  11.114   8.931 -1.6827  0.2567  0.2010
  314MOL0     H43310  10.908  11.122   8.756  0.9742  0.9669  0.7531
  314MOL0     H43311  10.860  11.033   8.897  2.8587 -0.3705  1.2681
  314MOL0     H43312  11.584  10.454   8.958 -0.0345 -0.5171 -1.0666
  314MOL0     H43313  11.732  10.335   8.830 -2.4336 -0.4104 -2.5692
  314MOL0     H43314  11.742   9.674   8.779  1.1083 -0.9589  1.3636
  314MOL0     H43315  11.897   9.546   8.615 -2.4155  0.8855 -0.8058
  314MOL0     H43316  10.956  10.614   8.820  0.9141  0.1941 -0.5139
  314MOL0     H43317  10.708  10.609   8.912  0.5888 -1.4946  1.1583
  314MOL0     H43318  10.338  10.287   8.819  2.4461  2.2701 -0.0278
  314MOL0     H43319  10.132  10.184   8.930 -0.7760 -0.1998  2.1778
  314MOL0     H43320   9.895  10.378   9.264  2.2191 -1.3433  0.2596
  314MOL0     H43321   9.872  10.469   9.107  5.6911 -1.6638 -1.7714
  314MOL0     H43322   9.636  10.394   9.151 -0.1214  0.5249  0.0984
  314MOL0     H43323   9.690  10.236   9.201  0.3559  0.4180  1.1342
  314MOL0     H43324   9.788  10.212   8.961  0.1796  1.6259  1.5385
  314MOL0     H43325   9.614  10.206   8.973 -0.5978 -0.5637  0.5373
  314MOL0     H43326   9.805  10.407   8.841  0.3588  1.4693  2.3264
  314MOL0     H43327   9.666  10.482   8.918  2.9049  2.1533  0.0827
  314MOL0     H43328   9.479  10.338   8.572 -0.1164  1.7173 -1.8033
  314MOL0     H43329  10.059  10.541   9.140 -0.8529 -1.7997  0.0156
  314MOL0     H43330  10.278  10.760   8.986 -0.5833 -0.2016 -0.0298
  314MOL0     H43331  10.188  10.726   9.135 -0.7063 -0.5233 -0.6659
  314MOL0     H43332  10.360  10.678   9.128 -0.3128 -0.3998  0.7704
  315MOL0     O43333   4.493   7.532   8.290  0.7584 -0.3714  0.1708
  315MOL0     C43334   4.377   7.498   8.319  0.6520 -0.2180  0.2197
  315MOL0     O43335   4.346   7.389   8.390 -0.3401  0.5153  0.9360
  315MOL0     C43336   4.436   7.328   8.473  0.8882  0.0917  0.8917
  315MOL0     C43337   4.506   7.390   8.577  0.4338 -0.5058  0.4522
  315MOL0     C43338   4.581   7.311   8.658 -0.4736  0.1559 -0.2894
  315MOL0     C43339   4.582   7.171   8.664  0.1646  0.1045 -1.2954
  315MOL0     O43340   4.662   7.099   8.750  0.8083  0.0559  0.3095
  315MOL0     C43341   4.709   6.961   8.723  1.0594  0.4882 -0.2169
  315MOL0     C43342   4.851   6.934   8.779 -0.3644  0.4175 -0.3258
  315MOL0     C43343   4.856   6.969   8.931  1.0163  0.5750 -0.8993
  315MOL0     C43344   4.985   6.923   9.001  0.2463  0.6357 -0.2510
  315MOL0     C43345   5.006   6.771   9.018 -0.5325  0.2741 -0.1348
  315MOL0     C43346   5.112   6.736   9.126  0.4898  0.4543  0.3171
  315MOL0     C43347   5.243   6.793   9.101  0.2372 -0.3257  0.4347
  315MOL0     C43348   5.331   6.755   9.215  0.3667  0.2963  0.1796
  315MOL0     N43349   5.345   6.611   9.228 -0.1218 -0.5730  0.9956
  315MOL0     C43350   5.380   6.511   9.141 -0.3461 -0.9844 -0.0322
  315MOL0     C43351   5.411   6.410   9.217 -0.9789  0.2748  0.5551
  315MOL0     C43352   5.457   6.279   9.165 -0.1806  0.0960  0.2986
  315MOL0     C43353   5.341   6.193   9.102  0.2499  0.5936  0.8919
  315MOL0     C43354   5.304   6.225   8.955  0.2470  0.3908 -0.3275
  315MOL0     C43355   5.422   6.244   8.870  0.1520  0.5884  0.0204
  315MOL0     O43356   5.386   6.202   8.735  0.6282 -0.1926 -0.9197
  315MOL0     C43357   5.484   6.238   8.648 -0.5537 -0.0445  0.0731
  315MOL0     C43358   5.466   6.338   8.554  0.9603 -0.8522 -0.4089
  315MOL0     C43359   5.568   6.366   8.456 -0.0982  0.0783 -0.0260
  315MOL0     C43360   5.561   6.487   8.371 -0.8133  0.3847  0.1352
  315MOL0     C43361   5.679   6.275   8.446  0.0456 -0.5128  0.0237
  315MOL0     C43362   5.796   6.289   8.360  0.7953  0.0856 -0.2218
  315MOL0     O43363   5.916   6.248   8.410 -0.4213  0.3747  0.4625
  315MOL0     C43364   6.017   6.227   8.325 -0.4609 -0.6967 -0.2124
  315MOL0     C43365   6.072   6.101   8.311 -1.3586  0.3905  0.3122
  315MOL0     C43366   6.185   6.074   8.231 -0.5163  0.7029 -0.5707
  315MOL0     C43367   6.247   6.168   8.156 -0.6601 -0.2307  0.8605
  315MOL0     O43368   6.348   6.141   8.067 -0.4676  0.3759 -0.9513
  315MOL0     C43369   6.471   6.211   8.079 -0.3220  0.3875  0.9102
  315MOL0     C43370   6.566   6.130   7.988 -0.0640 -0.3978 -0.1926
  315MOL0     C43371   6.617   5.999   8.047  0.1810  0.2386  0.3275
  315MOL0     C43372   6.730   5.939   7.960 -0.3972 -0.1118 -0.1796
  315MOL0     C43373   6.815   5.836   8.040  0.1792  0.3447  0.0813
  315MOL0     C43374   6.910   5.764   7.952  0.4507 -0.4967  0.9734
  315MOL0     C43375   7.010   5.670   8.035  0.7766 -0.2594  0.4697
  315MOL0     C43376   7.089   5.579   7.945  0.0453 -0.3134  0.4413
  315MOL0    Cl43377   6.977   5.444   7.907 -0.1046  0.4115 -0.0660
  315MOL0     C43378   6.183   6.296   8.154  0.1761 -0.0833 -0.7593
  315MOL0     C43379   6.082   6.324   8.248 -0.3402 -0.4189 -0.0310
  315MOL0     O43380   5.773   6.330   8.245 -0.1289 -0.6151 -0.2554
  315MOL0     C43381   5.685   6.173   8.538  0.3261 -0.0218  0.0092
  315MOL0     C43382   5.589   6.146   8.628  0.4233 -0.2406  0.7783
  315MOL0     N43383   5.392   6.428   9.353  0.1630  0.4607 -0.1027
  315MOL0     N43384   5.354   6.551   9.358  0.2003  0.6683  0.1045
  315MOL0     C43385   4.494   7.108   8.579 -0.8001  0.9227 -0.2745
  315MOL0     C43386   4.430   7.185   8.480  0.4371  0.0162 -0.3303
  315MOL0     C43387   4.260   7.568   8.257 -0.0666  0.2790 -0.6499
  315MOL0     C43388   4.144   7.494   8.237 -0.3428  0.1965  0.2782
  315MOL0     C43389   4.028   7.544   8.181 -0.0166  0.3102 -0.3656
  315MOL0     C43390   4.022   7.680   8.151 -0.6538 -0.0934 -0.3982
  315MOL0     O43391   3.912   7.742   8.091  0.6959 -0.2841 -0.1651
  315MOL0     C43392   3.791   7.712   8.164  0.5221  0.2545 -0.0736
  315MOL0     C43393   3.673   7.786   8.103 -0.8990 -0.2260 -0.5465
  315MOL0     C43394   3.651   7.724   7.965 -1.0137  0.2503  0.8519
  315MOL0     C43395   3.587   7.830   7.880 -0.3419 -0.3475 -0.7320
  315MOL0     C43396   3.566   7.787   7.743  0.1534 -0.0556  0.7861
  315MOL0     C43397   3.559   7.739   7.635  0.3684  0.4982  0.6069
  315MOL0     C43398   4.144   7.756   8.169  0.8465 -0.2566  0.6980
  315MOL0     C43399   4.264   7.706   8.224  1.1554 -0.1894 -0.2098
  315MOL0     C43400   4.381   7.795   8.238 -0.3801  0.3246  0.5596
  315MOL0     H43401   4.492   7.497   8.594 -1.1851 -0.5404 -0.3913
  315MOL0     H43402   4.642   7.353   8.738 -0.5130  2.5566 -1.4120
  315MOL0     H43403   4.710   6.935   8.617  0.6987 -3.2820  0.5677
  315MOL0     H43404   4.643   6.884   8.762  2.6645 -1.0500 -0.4135
  315MOL0     H43405   4.876   6.831   8.755  1.2012  0.2855  1.6260
  315MOL0     H43406   4.922   6.999   8.727 -0.2463  1.9551  1.6259
  315MOL0     H43407   4.849   7.077   8.940 -2.4672  0.5839 -1.9734
  315MOL0     H43408   4.774   6.913   8.979  1.8725  0.3688  0.3574
  315MOL0     H43409   5.074   6.960   8.950  1.3944 -3.0288 -1.2011
  315MOL0     H43410   4.978   6.962   9.103  0.6489 -0.3850  0.1779
  315MOL0     H43411   5.053   6.744   8.923  1.2109 -0.1897  0.8198
  315MOL0     H43412   4.910   6.721   9.036  0.1719 -0.9871  0.2405
  315MOL0     H43413   5.077   6.767   9.225 -1.0627  1.4718 -0.5074
  315MOL0     H43414   5.120   6.627   9.132  0.4033  0.4494  0.3457
  315MOL0     H43415   5.242   6.902   9.108  0.9707 -0.4200  2.6819
  315MOL0     H43416   5.294   6.751   9.013 -1.2072 -1.3520  0.0557
  315MOL0     H43417   5.431   6.798   9.207  1.3379 -1.6951  1.1710
  315MOL0     H43418   5.278   6.788   9.305  0.1914 -0.3048  0.3009
  315MOL0     H43419   5.395   6.524   9.034  1.5063  0.0671  0.3113
  315MOL0     H43420   5.513   6.231   9.247  2.9481  2.9043  0.0041
  315MOL0     H43421   5.531   6.313   9.092 -0.3187  2.7905  1.3003
  315MOL0     H43422   5.369   6.088   9.117 -0.8366 -0.2203 -2.0111
  315MOL0     H43423   5.261   6.194   9.177 -1.4436 -1.0809 -0.7608
  315MOL0     H43424   5.253   6.137   8.913 -2.2615  1.9194 -0.7178
  315MOL0     H43425   5.242   6.315   8.956  0.9097  0.8522 -0.2180
  315MOL0     H43426   5.455   6.348   8.881 -2.3928  1.7452 -2.2352
  315MOL0     H43427   5.505   6.180   8.900 -0.5452 -0.4172 -0.1665
  315MOL0     H43428   5.380   6.405   8.562  2.4791  1.3019 -1.0351
  315MOL0     H43429   5.548   6.476   8.263  0.3654  2.2449 -0.2356
  315MOL0     H43430   5.652   6.543   8.395 -0.8417  0.1777  0.7473
  315MOL0     H43431   5.467   6.533   8.403 -2.7763 -1.6989 -2.2296
  315MOL0     H43432   6.017   6.029   8.371 -2.9531  2.1483  1.0656
  315MOL0     H43433   6.218   5.971   8.221  0.5602  1.1263 -1.6321
  315MOL0     H43434   6.461   6.314   8.043  0.0806  1.1892  2.9480
  315MOL0     H43435   6.514   6.203   8.179  4.3973 -2.1818 -1.0142
  315MOL0     H43436   6.514   6.112   7.893 -0.4176 -2.0633  0.2830
  315MOL0     H43437   6.645   6.202   7.967  0.2806 -0.9697 -0.8930
  315MOL0     H43438   6.543   5.918   8.048  1.0493 -0.5873 -0.4101
  315MOL0     H43439   6.647   6.011   8.151  1.1266 -4.0486  0.7513
  315MOL0     H43440   6.791   6.021   7.921  1.2370 -2.4704 -2.9821
  315MOL0     H43441   6.686   5.890   7.872 -0.3198  0.9855 -0.8478
  315MOL0     H43442   6.870   5.887   8.121 -2.4294 -1.7443  3.4705
  315MOL0     H43443   6.742   5.769   8.086 -0.2574 -0.2686 -1.4555
  315MOL0     H43444   6.971   5.844   7.908 -2.1345  1.1310  0.1380
  315MOL0     H43445   6.839   5.715   7.885 -1.1713  2.1127  0.6429
  315MOL0     H43446   6.964   5.599   8.105  2.0704  0.0595  1.6970
  315MOL0     H43447   7.082   5.734   8.087  0.9433  0.3350 -0.4861
  315MOL0     H43448   7.175   5.538   7.998 -0.9288 -2.3744  0.5211
  315MOL0     H43449   7.127   5.629   7.856  2.0416  0.8537  1.8690
  315MOL0     H43450   6.220   6.374   8.089 -1.7504  2.0654  0.5355
  315MOL0     H43451   6.050   6.426   8.265  1.5555 -0.0311  1.5762
  315MOL0     H43452   5.774   6.113   8.553  1.5901  1.8347  0.2976
  315MOL0     H43453   5.600   6.061   8.694 -2.4402 -0.2806  1.3421
  315MOL0     H43454   4.471   7.003   8.570 -2.0443  1.3425 -3.1384
  315MOL0     H43455   4.361   7.136   8.413  0.0345  0.7307 -0.4537
  315MOL0     H43456   4.146   7.389   8.262 -1.1376  0.6339  2.4005
  315MOL0     H43457   3.954   7.468   8.158  1.5083 -0.8341 -1.6420
  315MOL0     H43458   3.772   7.604   8.161  0.9821  0.1897 -1.5831
  315MOL0     H43459   3.789   7.741   8.270  1.6066  2.5270 -0.6091
  315MOL0     H43460   3.690   7.894   8.102 -0.6225 -0.2339 -3.1464
  315MOL0     H43461   3.585   7.754   8.159  1.1057 -0.8815  2.4772
  315MOL0     H43462   3.746   7.686   7.928 -0.5046  1.2588  1.0802
  315MOL0     H43463   3.577   7.645   7.974  0.0711 -0.9336 -0.3366
  315MOL0     H43464   3.653   7.918   7.881 -1.1347  0.2558 -0.4607
  315MOL0     H43465   3.487   7.850   7.918 -0.6451 -1.1642 -1.0874
  315MOL0     H43466   3.549   7.697   7.537  2.1334 -1.0961  1.0266
  315MOL0     H43467   4.145   7.856   8.126 -0.6766 -0.4907  0.0475
  315MOL0     H43468   4.456   7.791   8.158 -0.2288  0.8944  0.6690
  315MOL0     H43469   4.345   7.898   8.250  2.2712  1.4543 -0.3873
  315MOL0     H43470   4.433   7.760   8.327 -0.1041 -0.7471 -0.0042
  316MOL0     O43471   3.310   9.524   3.999  0.2912  0.6599 -0.2522
  316MOL0     C43472   3.395   9.486   3.922  0.2283  0.6525  0.2448
  316MOL0     O43473   3.513   9.425   3.958 -0.3569 -0.5075  0.4913
  316MOL0     C43474   3.536   9.417   4.092 -0.4669  0.0622 -0.6898
  316MOL0     C43475   3.475   9.318   4.164  0.8252  0.3412  0.1824
  316MOL0     C43476   3.505   9.295   4.302 -0.6355  0.1924 -0.2859
  316MOL0     C43477   3.600   9.382   4.360 -0.5104  0.3837  0.0120
  316MOL0     O43478   3.617   9.372   4.496 -1.1256  0.5625  0.0811
  316MOL0     C43479   3.670   9.483   4.567  0.4558  0.2483  0.2232
  316MOL0     C43480   3.678   9.434   4.707 -0.3935  0.3393 -0.8171
  316MOL0     C43481   3.769   9.308   4.699 -0.0394  0.5635 -0.8043
  316MOL0     C43482   3.809   9.272   4.838 -0.3811 -0.0940 -0.1337
  316MOL0     C43483   3.936   9.352   4.883 -0.0517 -0.0107 -0.0295
  316MOL0     C43484   4.066   9.315   4.812  0.5488 -0.6871 -0.0557
  316MOL0     C43485   4.189   9.378   4.873 -0.1509  0.6567 -0.2439
  316MOL0     C43486   4.313   9.370   4.774  0.5700  0.8661  0.1136
  316MOL0     N43487   4.429   9.421   4.841  0.1451  0.0269 -0.5703
  316MOL0     C43488   4.514   9.349   4.913 -0.1665  0.1309  0.3966
  316MOL0     C43489   4.609   9.440   4.956  0.5586  0.4696  0.8270
  316MOL0     C43490   4.736   9.404   5.025 -0.1317 -0.3557  0.2803
  316MOL0     C43491   4.861   9.475   4.971 -0.6679 -0.1549 -0.1722
  316MOL0     C43492   4.898   9.437   4.833 -0.5217 -0.9239  0.6809
  316MOL0     C43493   5.031   9.502   4.791 -0.2050 -0.1253  0.6746
  316MOL0     O43494   5.088   9.456   4.663  0.3369 -0.1932 -0.7399
  316MOL0     C43495   4.998   9.441   4.560 -0.2857 -0.1076 -0.8548
  316MOL0     C43496   4.917   9.547   4.511 -0.8036 -0.5694  1.1273
  316MOL0     C43497   4.824   9.534   4.408  0.2854  0.2619  0.5384
  316MOL0     C43498   4.753   9.657   4.359  0.2465  0.2013  0.1654
  316MOL0     C43499   4.815   9.403   4.354  0.3474  0.3843 -0.1925
  316MOL0     C43500   4.714   9.379   4.251 -0.5672 -0.3201  0.3549
  316MOL0     O43501   4.764   9.340   4.134  0.1537 -0.0290  0.0728
  316MOL0     C43502   4.665   9.325   4.037 -0.2875  0.3231  0.5252
  316MOL0     C43503   4.559   9.231   4.043 -0.2376  0.5035 -0.1256
  316MOL0     C43504   4.475   9.206   3.932  0.5010  0.0938  0.5739
  316MOL0     C43505   4.500   9.280   3.811  0.3305 -0.4451 -0.3846
  316MOL0     O43506   4.417   9.272   3.704 -0.3300  0.3572 -0.2739
  316MOL0     C43507   4.373   9.142   3.682 -0.5269  0.1555 -0.0094
  316MOL0     C43508   4.317   9.119   3.543  0.4608  0.4412 -0.4684
  316MOL0     C43509   4.423   9.100   3.429  1.0484 -0.6039 -0.2296
  316MOL0     C43510   4.357   9.123   3.295 -0.1849  0.4476  0.2634
  316MOL0     C43511   4.320   9.264   3.270 -0.1158 -0.9725 -0.2925
  316MOL0     C43512   4.248   9.276   3.138 -0.8974  0.5860 -0.2426
  316MOL0     C43513   4.228   9.424   3.112 -0.1705  0.9513 -0.5272
  316MOL0     C43514   4.142   9.461   2.997  0.0004  0.3852  0.2894
  316MOL0    Cl43515   4.210   9.412   2.834 -0.5202 -0.0186 -0.0242
  316MOL0     C43516   4.612   9.364   3.810  0.1470  0.2517  0.8650
  316MOL0     C43517   4.700   9.387   3.917 -0.0088  0.7186 -0.6623
  316MOL0     O43518   4.597   9.388   4.285  0.3045 -0.5123  0.0106
  316MOL0     C43519   4.887   9.296   4.408 -0.2315 -0.5816  0.2065
  316MOL0     C43520   4.983   9.317   4.508 -0.1944 -0.1816  1.2599
  316MOL0     N43521   4.583   9.566   4.902  0.2996  0.4948 -0.7162
  316MOL0     N43522   4.470   9.546   4.837  0.5263 -1.6042 -0.5125
  316MOL0     C43523   3.671   9.479   4.273  0.0107  0.4011  0.4106
  316MOL0     C43524   3.634   9.506   4.139  0.0125  0.3698 -0.3903
  316MOL0     C43525   3.382   9.519   3.779 -0.1911 -0.6217  0.5825
  316MOL0     C43526   3.498   9.572   3.713  0.2390  0.0174 -0.1186
  316MOL0     C43527   3.482   9.643   3.592  0.0780 -0.1677 -0.5908
  316MOL0     C43528   3.356   9.662   3.529  0.3630  0.2643  0.9825
  316MOL0     O43529   3.336   9.732   3.416 -0.4762  0.2463  0.5939
  316MOL0     C43530   3.447   9.783   3.338  1.0526  0.7539  0.4645
  316MOL0     C43531   3.391   9.861   3.215 -0.0011  0.5302  0.5878
  316MOL0     C43532   3.295   9.959   3.266  0.5720  0.0882  0.3772
  316MOL0     C43533   3.278  10.085   3.178 -0.0488 -0.1752  0.3297
  316MOL0     C43534   3.215  10.052   3.060  0.0114 -0.1050  0.2856
  316MOL0     C43535   3.154  10.037   2.956 -0.9079 -0.1646  0.1379
  316MOL0     C43536   3.250   9.606   3.588 -0.3720  0.1596  0.3480
  316MOL0     C43537   3.254   9.541   3.714  0.1032  0.5258 -0.3577
  316MOL0     C43538   3.117   9.494   3.769 -0.5926 -0.6789  0.5413
  316MOL0     H43539   3.405   9.262   4.104  0.9498  2.8600 -2.5247
  316MOL0     H43540   3.449   9.230   4.368 -1.8270  0.8615 -0.6052
  316MOL0     H43541   3.596   9.563   4.564 -0.5832 -0.6565  0.7651
  316MOL0     H43542   3.768   9.522   4.539  0.6298 -0.2073  0.1876
  316MOL0     H43543   3.715   9.514   4.772 -2.2922  0.2058  0.5191
  316MOL0     H43544   3.581   9.403   4.748 -0.2936  1.8873  0.6826
  316MOL0     H43545   3.717   9.223   4.655  1.4764 -0.2114 -1.1542
  316MOL0     H43546   3.860   9.324   4.640  0.5593  0.1326 -0.0178
  316MOL0     H43547   3.723   9.297   4.901 -0.6242  1.8723 -1.1703
  316MOL0     H43548   3.837   9.167   4.841 -1.5396 -0.4698 -1.5547
  316MOL0     H43549   3.950   9.330   4.989  0.5973  2.1928  0.4011
  316MOL0     H43550   3.922   9.460   4.869  3.1732  0.4456 -0.4892
  316MOL0     H43551   4.066   9.205   4.814 -1.0981 -0.7042 -0.1290
  316MOL0     H43552   4.062   9.355   4.710 -0.3938 -1.0297 -0.1687
  316MOL0     H43553   4.217   9.318   4.960 -0.7990  0.9318  0.1648
  316MOL0     H43554   4.169   9.480   4.907 -4.1412 -0.4475  1.2884
  316MOL0     H43555   4.333   9.265   4.752  1.6180  0.7903  1.2878
  316MOL0     H43556   4.274   9.420   4.685  0.6124 -1.3366 -1.2149
  316MOL0     H43557   4.530   9.243   4.931 -1.6460  0.1755  2.2898
  316MOL0     H43558   4.755   9.298   5.042 -3.2775 -1.0974 -0.1039
  316MOL0     H43559   4.708   9.445   5.122  1.0886 -0.9872  0.9175
  316MOL0     H43560   4.846   9.583   4.961 -1.1253 -0.3640 -2.0270
  316MOL0     H43561   4.951   9.466   5.033  2.6868  2.3436 -4.1819
  316MOL0     H43562   4.886   9.329   4.830 -1.8937 -0.7628 -1.0233
  316MOL0     H43563   4.825   9.465   4.756 -0.1018 -1.0162  0.2417
  316MOL0     H43564   5.021   9.611   4.787 -1.1118 -0.2316 -1.5669
  316MOL0     H43565   5.111   9.473   4.859  1.8427 -1.3305 -2.0468
  316MOL0     H43566   4.914   9.641   4.565  0.1696  1.2969 -1.8701
  316MOL0     H43567   4.647   9.657   4.388 -0.8235  0.4985 -3.3143
  316MOL0     H43568   4.754   9.662   4.250 -1.1260 -2.5050 -0.0488
  316MOL0     H43569   4.801   9.745   4.402 -0.8340  0.7337  0.3384
  316MOL0     H43570   4.531   9.181   4.135 -1.3215 -0.1164 -0.7691
  316MOL0     H43571   4.384   9.148   3.942  0.5030 -0.1226 -0.5080
  316MOL0     H43572   4.449   9.068   3.709 -1.3095 -0.2108  1.2995
  316MOL0     H43573   4.285   9.132   3.747  0.6318  1.8024  1.9157
  316MOL0     H43574   4.264   9.024   3.556 -2.1037  1.7662 -0.6923
  316MOL0     H43575   4.234   9.186   3.521 -0.5414  0.4672  2.8377
  316MOL0     H43576   4.464   8.998   3.436 -1.2722 -1.8733 -3.0637
  316MOL0     H43577   4.495   9.182   3.436  0.1477  0.2365 -0.6280
  316MOL0     H43578   4.274   9.053   3.283 -0.8830  1.0096  1.5684
  316MOL0     H43579   4.424   9.091   3.215  0.2116 -1.3187  1.2528
  316MOL0     H43580   4.262   9.312   3.349 -3.7951  1.0382 -3.8576
  316MOL0     H43581   4.414   9.318   3.250 -1.5570  0.5833 -3.6797
  316MOL0     H43582   4.155   9.219   3.144  1.4530 -3.7249 -0.9973
  316MOL0     H43583   4.303   9.219   3.063 -1.3442  1.1312 -0.9976
  316MOL0     H43584   4.328   9.467   3.100  0.1182  0.4885  0.1311
  316MOL0     H43585   4.184   9.474   3.199 -1.9407 -0.6886 -0.4062
  316MOL0     H43586   4.103   9.563   2.985 -0.2223  0.2775  0.0816
  316MOL0     H43587   4.048   9.409   3.017 -0.2508  0.8596  0.3430
  316MOL0     H43588   4.640   9.411   3.716  0.3000  0.6671  1.1193
  316MOL0     H43589   4.779   9.462   3.911  0.9592 -0.1951  0.2313
  316MOL0     H43590   4.874   9.198   4.365 -1.9070 -0.1802 -0.2851
  316MOL0     H43591   5.044   9.240   4.553  1.4697 -0.2255 -0.9113
  316MOL0     H43592   3.735   9.554   4.319 -0.1217  1.7900 -1.5481
  316MOL0     H43593   3.684   9.585   4.084  1.3137  0.5545  0.9760
  316MOL0     H43594   3.600   9.560   3.751 -0.7350 -1.1464  2.4241
  316MOL0     H43595   3.569   9.680   3.539 -0.2361 -2.3331 -2.8214
  316MOL0     H43596   3.510   9.850   3.397  1.2348  3.0072 -2.1186
  316MOL0     H43597   3.501   9.698   3.296 -1.6859 -0.1591 -1.4594
  316MOL0     H43598   3.339   9.794   3.146  4.9123 -1.9006 -1.3060
  316MOL0     H43599   3.468   9.924   3.169 -0.1474 -0.1712 -0.6830
  316MOL0     H43600   3.196   9.921   3.291  1.1668  0.0307  2.9851
  316MOL0     H43601   3.343   9.997   3.357  1.2500  1.1679 -0.4089
  316MOL0     H43602   3.371  10.135   3.151 -2.6978  3.6068 -2.8697
  316MOL0     H43603   3.213  10.152   3.235 -1.2838 -1.5519  0.6138
  316MOL0     H43604   3.113  10.023   2.858 -0.2278  0.5538 -0.2588
  316MOL0     H43605   3.159   9.612   3.530  0.1259  0.4474 -0.4076
  316MOL0     H43606   3.117   9.395   3.721  1.5009 -0.0955 -0.8060
  316MOL0     H43607   3.116   9.482   3.878  2.2726  0.6045  0.8177
  316MOL0     H43608   3.031   9.548   3.730  0.2534  1.0567  0.9994
  317MOL0     O43609   5.011   5.782   8.464 -0.0224 -0.2213 -0.1058
  317MOL0     C43610   5.119   5.787   8.521 -0.0721  0.5657  0.3981
  317MOL0     O43611   5.222   5.861   8.490 -0.7369  0.2120 -0.3069
  317MOL0     C43612   5.228   5.941   8.375 -0.8483  0.5642 -0.0327
  317MOL0     C43613   5.297   6.063   8.371 -0.5760  0.2259 -0.1224
  317MOL0     C43614   5.296   6.149   8.262 -0.5600 -0.2318 -0.1068
  317MOL0     C43615   5.225   6.110   8.150  0.2225 -0.7770 -0.6049
  317MOL0     O43616   5.223   6.183   8.030  0.3544  0.1889 -0.2447
  317MOL0     C43617   5.247   6.323   8.023  0.7468  0.7029 -0.6366
  317MOL0     C43618   5.392   6.336   7.996 -0.1213  0.5327 -1.2394
  317MOL0     C43619   5.438   6.273   7.863  0.4489  0.2199 -0.5128
  317MOL0     C43620   5.580   6.323   7.835  0.3168  0.4252  0.1098
  317MOL0     C43621   5.630   6.267   7.705 -0.8042  0.4078  0.2660
  317MOL0     C43622   5.763   6.320   7.660 -0.0512 -0.1829 -0.2356
  317MOL0     C43623   5.828   6.242   7.550 -0.1925 -1.1267  0.9709
  317MOL0     C43624   5.863   6.100   7.586  0.3883 -0.4707 -0.6809
  317MOL0     N43625   5.982   6.066   7.514 -0.4015 -0.0025 -0.0197
  317MOL0     C43626   6.110   6.036   7.556 -0.4210  0.5955 -0.5161
  317MOL0     C43627   6.152   5.944   7.462 -1.0130 -0.4090 -1.0012
  317MOL0     C43628   6.281   5.859   7.474 -0.1483  0.0574 -0.2886
  317MOL0     C43629   6.367   5.849   7.353 -0.5024 -1.1917  0.9568
  317MOL0     C43630   6.497   5.768   7.373 -0.6800  0.2706  0.3704
  317MOL0     C43631   6.589   5.787   7.251  0.4529 -0.5085  0.3217
  317MOL0     O43632   6.697   5.703   7.280 -0.3144  0.1903  1.6980
  317MOL0     C43633   6.826   5.747   7.242 -0.2221  0.3265 -0.3733
  317MOL0     C43634   6.876   5.780   7.118 -0.5343 -0.0398 -0.7409
  317MOL0     C43635   7.001   5.812   7.092  0.4280  0.6424 -0.0059
  317MOL0     C43636   7.049   5.822   6.947  0.2315 -0.0872 -0.9786
  317MOL0     C43637   7.095   5.806   7.198  0.6389 -0.1109 -1.0359
  317MOL0     C43638   7.234   5.841   7.190  1.1139 -0.8510  0.1793
  317MOL0     O43639   7.315   5.798   7.290 -0.2178  0.8025 -0.5630
  317MOL0     C43640   7.448   5.794   7.260 -0.4212  0.4886  0.0417
  317MOL0     C43641   7.536   5.813   7.366  0.5313 -0.5975 -0.1280
  317MOL0     C43642   7.669   5.823   7.338  0.2190 -0.3947  0.3286
  317MOL0     C43643   7.722   5.802   7.214 -0.6603  0.1719  0.4041
  317MOL0     O43644   7.857   5.808   7.180 -0.2214  0.1439  0.2195
  317MOL0     C43645   7.941   5.693   7.185 -0.4639  0.0539  0.0860
  317MOL0     C43646   8.074   5.727   7.106  0.9156  0.1402 -0.2503
  317MOL0     C43647   8.161   5.832   7.186 -0.9199  0.1189 -0.1238
  317MOL0     C43648   8.197   5.794   7.329  0.4589 -0.3574 -0.5436
  317MOL0     C43649   8.288   5.893   7.403  0.4408  0.5935 -0.2031
  317MOL0     C43650   8.298   5.859   7.556 -0.1741  0.0831  0.2561
  317MOL0     C43651   8.388   5.958   7.626 -0.8651  0.1218 -0.1560
  317MOL0     C43652   8.456   5.896   7.744 -0.7468 -0.5953 -0.1665
  317MOL0    Cl43653   8.609   5.822   7.692  0.3077  0.1764  0.5430
  317MOL0     C43654   7.640   5.758   7.115 -0.0725  0.4409  0.0208
  317MOL0     C43655   7.500   5.760   7.129  0.0339 -0.6263  0.1050
  317MOL0     O43656   7.265   5.927   7.110  0.4532 -0.0869  0.0803
  317MOL0     C43657   7.052   5.781   7.329  0.2701  0.6809 -0.5107
  317MOL0     C43658   6.917   5.741   7.343 -0.0236 -0.4633 -0.3749
  317MOL0     N43659   6.059   5.937   7.355 -0.7688 -0.9744  0.1506
  317MOL0     N43660   5.963   6.021   7.385 -0.2055  0.0659 -0.0108
  317MOL0     C43661   5.161   5.985   8.145  0.8956  0.9283 -0.0541
  317MOL0     C43662   5.154   5.910   8.256 -0.3319  0.2404 -1.3121
  317MOL0     C43663   5.138   5.702   8.642 -0.0414  0.5470 -0.5157
  317MOL0     C43664   5.098   5.556   8.639  0.0531  0.2757 -0.5161
  317MOL0     C43665   5.127   5.470   8.749  0.3949  0.6719 -0.1697
  317MOL0     C43666   5.204   5.522   8.853 -0.0267  0.3319  0.1970
  317MOL0     O43667   5.235   5.456   8.969  0.2063  0.7460  0.2727
  317MOL0     C43668   5.165   5.334   9.003 -0.0566  0.5676 -0.5916
  317MOL0     C43669   5.197   5.276   9.134 -0.0612  0.1322 -0.2808
  317MOL0     C43670   5.187   5.373   9.251 -0.3541  0.5082  0.8081
  317MOL0     C43671   5.171   5.314   9.390 -0.4454  1.5517  0.1862
  317MOL0     C43672   5.294   5.240   9.430 -0.7491 -0.7440 -0.9261
  317MOL0     C43673   5.394   5.182   9.459  0.6631 -0.9482  0.3064
  317MOL0     C43674   5.247   5.657   8.854 -0.3044 -0.5942 -0.0192
  317MOL0     C43675   5.205   5.747   8.758 -0.4524  0.3677  0.3930
  317MOL0     C43676   5.228   5.893   8.770  0.2375  0.5882  0.1848
  317MOL0     H43677   5.339   6.087   8.468 -1.0979 -2.4148  0.8237
  317MOL0     H43678   5.359   6.238   8.265 -0.0596 -0.6040  1.0846
  317MOL0     H43679   5.209   6.378   8.110  0.4163 -0.0762 -0.2739
  317MOL0     H43680   5.186   6.355   7.938 -4.0592 -1.0255  1.7717
  317MOL0     H43681   5.419   6.440   7.978 -3.7244  1.6201 -1.2166
  317MOL0     H43682   5.447   6.305   8.086 -3.7597 -0.0803  0.9968
  317MOL0     H43683   5.446   6.165   7.875  1.5303  0.3749  0.3054
  317MOL0     H43684   5.366   6.298   7.785 -1.1744  0.4695  1.0046
  317MOL0     H43685   5.580   6.433   7.839  0.4637  0.3731  2.2401
  317MOL0     H43686   5.648   6.289   7.913  2.0590  0.8786 -1.1425
  317MOL0     H43687   5.566   6.295   7.621  1.4468  1.1052 -1.3033
  317MOL0     H43688   5.636   6.159   7.717  1.0943  0.7112  3.0426
  317MOL0     H43689   5.762   6.426   7.634 -2.5669 -0.0922 -0.0171
  317MOL0     H43690   5.828   6.307   7.747 -1.8649 -3.5538  0.8022
  317MOL0     H43691   5.915   6.302   7.522 -3.4996  3.4444 -0.7967
  317MOL0     H43692   5.776   6.244   7.454  0.8130 -1.8837  0.3976
  317MOL0     H43693   5.873   6.081   7.693 -1.2533  1.1960 -0.1813
  317MOL0     H43694   5.779   6.036   7.560 -0.4630  1.3674 -2.7520
  317MOL0     H43695   6.169   6.041   7.647  1.7178  2.1156 -1.9037
  317MOL0     H43696   6.262   5.755   7.502  0.5606  0.3226  1.3104
  317MOL0     H43697   6.340   5.903   7.555 -0.9480  1.5621 -0.4904
  317MOL0     H43698   6.300   5.805   7.278  1.3460 -3.4445  0.4851
  317MOL0     H43699   6.398   5.946   7.313 -0.5193 -1.2793  0.7319
  317MOL0     H43700   6.552   5.818   7.453  1.2285 -0.6372 -0.3191
  317MOL0     H43701   6.470   5.665   7.398  0.6793  0.6309  3.9874
  317MOL0     H43702   6.538   5.748   7.162  1.3341  1.4821 -1.1338
  317MOL0     H43703   6.608   5.893   7.232 -0.9613 -0.5735 -1.8074
  317MOL0     H43704   6.810   5.771   7.032 -2.6504  1.3852  0.6499
  317MOL0     H43705   7.131   5.753   6.924  0.8051  0.7184 -1.4127
  317MOL0     H43706   7.085   5.923   6.925 -0.1821 -0.1724 -2.0914
  317MOL0     H43707   6.971   5.800   6.874 -1.2376 -0.5445  0.6413
  317MOL0     H43708   7.500   5.848   7.462 -0.1060 -0.0547 -0.5561
  317MOL0     H43709   7.732   5.863   7.417 -1.0600  2.9108 -0.1333
  317MOL0     H43710   7.961   5.665   7.289  1.7276 -2.3044 -0.8513
  317MOL0     H43711   7.907   5.598   7.142  2.7723 -1.2467  0.1027
  317MOL0     H43712   8.127   5.632   7.098  1.8090  0.5799  0.2517
  317MOL0     H43713   8.062   5.769   7.006 -1.0012  1.4447  0.4603
  317MOL0     H43714   8.103   5.924   7.184 -1.5958 -0.3052 -0.6213
  317MOL0     H43715   8.257   5.840   7.135 -0.5731 -1.0060  0.3057
  317MOL0     H43716   8.230   5.689   7.332  1.2402 -0.1021  1.0393
  317MOL0     H43717   8.107   5.791   7.392 -0.6896  2.8318 -1.8517
  317MOL0     H43718   8.386   5.897   7.354  1.1021 -2.2653  0.6841
  317MOL0     H43719   8.236   5.989   7.411 -0.6226  0.0138  0.0567
  317MOL0     H43720   8.339   5.758   7.565 -0.1394  0.2381  2.1399
  317MOL0     H43721   8.198   5.869   7.599  0.1786 -0.1520  1.1517
  317MOL0     H43722   8.319   6.039   7.652 -2.0188 -1.2313  1.1884
  317MOL0     H43723   8.471   5.991   7.563 -1.3327  0.4602 -0.5993
  317MOL0     H43724   8.391   5.822   7.790 -1.4549  0.8691  1.2575
  317MOL0     H43725   8.484   5.985   7.801  0.0697 -0.0607 -1.3411
  317MOL0     H43726   7.686   5.751   7.017  0.0726 -1.7956  0.1970
  317MOL0     H43727   7.441   5.730   7.043  2.1533 -1.9299 -0.9816
  317MOL0     H43728   7.118   5.785   7.415 -0.2296  0.5183 -0.1161
  317MOL0     H43729   6.895   5.704   7.442  0.6414  0.9483  0.3289
  317MOL0     H43730   5.106   5.968   8.053 -1.5456  1.9973  1.1084
  317MOL0     H43731   5.094   5.820   8.245 -0.2009  0.2449 -2.0532
  317MOL0     H43732   5.034   5.539   8.553 -2.1828  6.6544 -0.6238
  317MOL0     H43733   5.094   5.367   8.758  0.8060  0.5391 -0.1686
  317MOL0     H43734   5.057   5.349   8.997  0.0141  1.4531  0.1415
  317MOL0     H43735   5.184   5.248   8.937  0.1100 -1.3109  1.7688
  317MOL0     H43736   5.287   5.214   9.129 -1.5954 -2.1514 -1.1455
  317MOL0     H43737   5.116   5.207   9.159 -0.7208  0.1630 -2.2090
  317MOL0     H43738   5.276   5.436   9.245 -0.7439  0.8911 -3.4311
  317MOL0     H43739   5.110   5.450   9.237  1.7772  2.4368 -1.0225
  317MOL0     H43740   5.084   5.248   9.391  0.0822  0.8384  1.8340
  317MOL0     H43741   5.161   5.388   9.470  0.0165  2.2578 -0.3905
  317MOL0     H43742   5.491   5.141   9.481  1.1019 -0.0219  0.1544
  317MOL0     H43743   5.276   5.672   8.958 -1.8290 -3.5515  0.9531
  317MOL0     H43744   5.324   5.911   8.720  0.5817 -1.8853 -0.1588
  317MOL0     H43745   5.143   5.943   8.723 -2.0843 -4.7891 -2.1789
  317MOL0     H43746   5.230   5.928   8.874 -0.0281  1.6022 -0.1416
  318MOL0     O43747   9.281   6.756   5.784  0.1862 -0.4776 -0.8551
  318MOL0     C43748   9.299   6.819   5.887 -0.1025  0.0037  0.2049
  318MOL0     O43749   9.198   6.891   5.958  0.4655  0.3360 -0.1718
  318MOL0     C43750   9.068   6.901   5.909 -0.0723 -0.8454  0.1754
  318MOL0     C43751   8.968   6.948   5.997 -0.4461  0.1098  0.1357
  318MOL0     C43752   8.833   6.951   5.969 -0.6808 -0.6032 -0.4644
  318MOL0     C43753   8.785   6.918   5.839  0.7543  0.0775  0.0766
  318MOL0     O43754   8.653   6.906   5.803 -0.7562 -0.6065  0.4737
  318MOL0     C43755   8.556   6.966   5.893  0.1619 -0.6602  1.2072
  318MOL0     C43756   8.489   6.866   5.981  0.0697  0.4362  0.0994
  318MOL0     C43757   8.453   6.915   6.117  0.4206  0.1342 -0.5729
  318MOL0     C43758   8.354   6.816   6.193  1.1646 -0.2945  0.4771
  318MOL0     C43759   8.308   6.860   6.335 -0.3367  0.4340  1.4923
  318MOL0     C43760   8.217   6.741   6.396 -0.1122 -0.7716  0.3524
  318MOL0     C43761   8.213   6.753   6.549  0.0074 -0.0396 -0.6474
  318MOL0     C43762   8.331   6.678   6.615  0.0863 -0.4686  0.5786
  318MOL0     N43763   8.308   6.669   6.757  0.5451  0.1621 -0.1372
  318MOL0     C43764   8.340   6.769   6.849 -0.0673 -0.4190  0.6650
  318MOL0     C43765   8.271   6.726   6.958  0.0362 -0.1334  0.4375
  318MOL0     C43766   8.292   6.792   7.089 -0.9050  0.1759 -0.5272
  318MOL0     C43767   8.417   6.740   7.159  0.0294 -0.1142 -0.5447
  318MOL0     C43768   8.492   6.834   7.247 -0.2905 -0.3916  0.5893
  318MOL0     C43769   8.619   6.775   7.299 -1.0787  0.1245 -0.6087
  318MOL0     O43770   8.608   6.658   7.387  0.0727  0.2596  0.3237
  318MOL0     C43771   8.710   6.570   7.358  0.0611  0.7194 -0.0267
  318MOL0     C43772   8.719   6.505   7.234  0.2365  0.3507 -0.6629
  318MOL0     C43773   8.827   6.413   7.209 -0.4695 -0.4156 -1.2777
  318MOL0     C43774   8.830   6.340   7.077 -0.4837 -0.3375 -1.2062
  318MOL0     C43775   8.931   6.401   7.308  0.3010  0.8503 -0.3139
  318MOL0     C43776   9.050   6.320   7.284 -0.8080 -0.1462 -0.3893
  318MOL0     O43777   9.053   6.226   7.190 -0.3262 -0.8785  0.1394
  318MOL0     C43778   9.145   6.123   7.203 -0.5598 -0.5449 -0.3784
  318MOL0     C43779   9.236   6.080   7.301 -0.3758 -0.4131  0.4980
  318MOL0     C43780   9.324   5.973   7.271  0.7015  0.1481  1.1263
  318MOL0     C43781   9.316   5.897   7.151 -0.8256  0.4714 -0.1040
  318MOL0     O43782   9.418   5.803   7.140  0.2795  0.5347 -0.3671
  318MOL0     C43783   9.397   5.702   7.044  0.3261  0.3420 -0.5050
  318MOL0     C43784   9.453   5.571   7.106  1.1551 -0.2356 -0.1684
  318MOL0     C43785   9.503   5.464   6.994  0.6414 -0.6754  0.5177
  318MOL0     C43786   9.554   5.337   7.060 -0.1011 -0.5283 -0.7304
  318MOL0     C43787   9.577   5.228   6.960  0.1700 -0.4943 -0.3586
  318MOL0     C43788   9.638   5.095   7.015 -0.3772 -0.2588 -0.4847
  318MOL0     C43789   9.640   5.007   6.895  0.1086  0.4538 -0.3355
  318MOL0     C43790   9.703   4.870   6.917  1.1384  0.5622  0.6724
  318MOL0    Cl43791   9.609   4.768   7.036  0.8198 -0.1198  0.1242
  318MOL0     C43792   9.217   5.932   7.056 -0.1231 -0.7430 -0.0931
  318MOL0     C43793   9.139   6.048   7.082 -0.7759 -0.6118 -0.1647
  318MOL0     O43794   9.150   6.342   7.360  0.2252 -0.4663 -0.4652
  318MOL0     C43795   8.930   6.480   7.428 -0.5374  0.6164  0.5135
  318MOL0     C43796   8.814   6.553   7.450  0.7524 -0.9728  0.1402
  318MOL0     N43797   8.199   6.607   6.935  0.0430  0.0508  0.2056
  318MOL0     N43798   8.225   6.581   6.811 -0.5827  0.1704  0.0841
  318MOL0     C43799   8.879   6.875   5.745  0.6247  0.7968  0.3973
  318MOL0     C43800   9.017   6.868   5.780  0.9637  0.3640  0.7271
  318MOL0     C43801   9.437   6.830   5.955  0.0087  0.3576 -0.1798
  318MOL0     C43802   9.462   6.951   6.025  0.1975  0.8458 -0.2211
  318MOL0     C43803   9.585   6.973   6.090 -1.3697  0.0201 -0.4780
  318MOL0     C43804   9.688   6.873   6.086  0.4888  0.6739  0.4177
  318MOL0     O43805   9.800   6.876   6.163  0.6989 -0.0391  0.2752
  318MOL0     C43806   9.859   7.003   6.180 -0.1925 -0.2714 -0.1828
  318MOL0     C43807   9.995   6.975   6.248 -0.0796  1.0497  0.4651
  318MOL0     C43808   9.969   6.962   6.402  0.0471  0.1481  0.0470
  318MOL0     C43809  10.057   6.863   6.474  1.0144 -0.5381 -0.5674
  318MOL0     C43810  10.062   6.739   6.402 -0.5382 -0.4187  0.6122
  318MOL0     C43811  10.061   6.626   6.343  0.0351  0.0137 -0.2958
  318MOL0     C43812   9.666   6.757   6.011 -0.5504  0.2610 -0.4090
  318MOL0     C43813   9.547   6.736   5.941 -0.2165  0.1099 -0.4614
  318MOL0     C43814   9.536   6.618   5.851 -0.0001  0.0915 -0.7236
  318MOL0     H43815   9.000   6.978   6.096 -0.0640  2.9224 -0.7464
  318MOL0     H43816   8.767   6.970   6.053  0.5597  0.7832  0.2628
  318MOL0     H43817   8.475   7.014   5.836 -0.2434  0.1236  2.4003
  318MOL0     H43818   8.598   7.047   5.953 -0.4781  0.1706  0.5810
  318MOL0     H43819   8.403   6.823   5.929  0.3157 -0.2518  0.2421
  318MOL0     H43820   8.556   6.780   5.995  0.4788  0.7245 -0.0891
  318MOL0     H43821   8.547   6.926   6.171  0.3301  0.2247 -0.4326
  318MOL0     H43822   8.400   7.011   6.115 -0.2207 -0.1987 -0.1841
  318MOL0     H43823   8.260   6.800   6.140  0.3305 -0.2118  1.8771
  318MOL0     H43824   8.404   6.719   6.201 -3.0981 -2.6184  2.0480
  318MOL0     H43825   8.265   6.961   6.333 -1.8157 -0.0996 -2.9228
  318MOL0     H43826   8.399   6.864   6.395  0.4013 -0.4540  0.4705
  318MOL0     H43827   8.119   6.744   6.348 -0.0825  2.6401  0.2095
  318MOL0     H43828   8.265   6.646   6.372 -0.9113 -0.6571 -1.8902
  318MOL0     H43829   8.117   6.703   6.565 -0.3879  0.7957 -0.3570
  318MOL0     H43830   8.196   6.858   6.573 -2.2094  0.1076 -2.5144
  318MOL0     H43831   8.330   6.577   6.573 -1.1390  0.2783 -1.3038
  318MOL0     H43832   8.422   6.735   6.593  0.5333 -2.0583 -2.2209
  318MOL0     H43833   8.402   6.857   6.834  0.0967 -0.8961 -2.0286
  318MOL0     H43834   8.199   6.771   7.142 -1.4284  0.4749 -1.3077
  318MOL0     H43835   8.285   6.901   7.084 -1.3871  0.1152 -1.3175
  318MOL0     H43836   8.387   6.646   7.205  0.0104  0.4690  0.6770
  318MOL0     H43837   8.490   6.713   7.082  2.0341  1.5779  0.6350
  318MOL0     H43838   8.527   6.910   7.177  1.0260 -1.7059 -0.2507
  318MOL0     H43839   8.441   6.877   7.334 -1.5684 -0.1717 -0.2396
  318MOL0     H43840   8.690   6.770   7.216 -0.5574  2.9656 -0.4167
  318MOL0     H43841   8.671   6.850   7.359 -1.6478  1.4077 -1.6622
  318MOL0     H43842   8.635   6.527   7.169 -0.8746  0.5071  0.7649
  318MOL0     H43843   8.753   6.385   7.014  0.8491  0.3755 -2.3567
  318MOL0     H43844   8.820   6.233   7.098  0.7694  0.0870  2.2013
  318MOL0     H43845   8.925   6.368   7.031  0.9673  4.0958  3.4745
  318MOL0     H43846   9.238   6.123   7.401 -2.6550  0.8443  0.0635
  318MOL0     H43847   9.406   5.960   7.341  1.1803 -1.3482  0.3485
  318MOL0     H43848   9.292   5.688   7.014 -0.8095  2.9917  1.8098
  318MOL0     H43849   9.448   5.734   6.953  1.8438  1.6924  0.7634
  318MOL0     H43850   9.533   5.598   7.176  1.2461  2.6850 -1.2617
  318MOL0     H43851   9.384   5.517   7.171  2.1405  0.8444  1.8692
  318MOL0     H43852   9.592   5.504   6.945  1.6829 -1.3621  1.7448
  318MOL0     H43853   9.426   5.441   6.920  2.9114 -0.6868 -2.0033
  318MOL0     H43854   9.487   5.294   7.136  1.2340  0.0806  0.8631
  318MOL0     H43855   9.645   5.363   7.115 -0.6274  1.1923 -0.6216
  318MOL0     H43856   9.482   5.192   6.920 -0.2276 -1.8955  1.7302
  318MOL0     H43857   9.642   5.265   6.880 -0.7017  0.5391 -0.6151
  318MOL0     H43858   9.587   5.036   7.091 -0.4828 -0.3436 -0.6199
  318MOL0     H43859   9.736   5.120   7.057  0.7005  0.9374 -3.4622
  318MOL0     H43860   9.708   5.046   6.819  1.7409 -3.6918 -1.2717
  318MOL0     H43861   9.535   4.996   6.864 -0.0857  0.9360  0.1247
  318MOL0     H43862   9.806   4.882   6.955  1.7482 -1.2335 -0.3097
  318MOL0     H43863   9.707   4.806   6.828  2.3272 -1.1692  1.8916
  318MOL0     H43864   9.209   5.880   6.961 -2.9314 -1.2104  0.3265
  318MOL0     H43865   9.069   6.083   7.007 -2.3448 -1.7781  0.6993
  318MOL0     H43866   8.994   6.478   7.516 -1.3426  2.7359  1.2029
  318MOL0     H43867   8.806   6.613   7.540 -0.2826  0.8363 -1.0885
  318MOL0     H43868   8.845   6.836   5.649  0.0134  0.0007  0.9233
  318MOL0     H43869   9.084   6.836   5.701 -0.3282 -3.2245  0.8962
  318MOL0     H43870   9.380   7.023   6.022  1.5569  2.4873  0.3326
  318MOL0     H43871   9.598   7.057   6.158  2.7231  0.2333 -1.2572
  318MOL0     H43872   9.885   7.043   6.081  0.4153 -1.0884 -0.3736
  318MOL0     H43873   9.806   7.079   6.237  0.3793 -0.7142  0.9709
  318MOL0     H43874  10.074   7.050   6.237 -0.0536  0.8733 -0.7387
  318MOL0     H43875  10.040   6.888   6.198 -0.5625  0.5186  0.9426
  318MOL0     H43876   9.980   7.067   6.431 -0.9513  0.5077 -0.8230
  318MOL0     H43877   9.870   6.925   6.429  0.3942  0.5655  2.0642
  318MOL0     H43878  10.008   6.847   6.570 -1.1473  1.1747 -1.2933
  318MOL0     H43879  10.153   6.914   6.489  0.6340  0.8324 -2.3883
  318MOL0     H43880  10.063   6.530   6.295  0.8746 -0.2388  0.2143
  318MOL0     H43881   9.750   6.688   6.017 -1.5440 -0.9491  0.1774
  318MOL0     H43882   9.618   6.548   5.870 -0.1581  0.5121  1.7954
  318MOL0     H43883   9.442   6.565   5.871  1.8608 -3.2751 -0.1923
  318MOL0     H43884   9.523   6.654   5.749 -2.3828  2.1402  0.2040
  319MOL0     O43885   1.526   8.976   8.706 -0.0784  0.3432 -0.7113
  319MOL0     C43886   1.521   9.015   8.820 -0.7319 -0.0838  0.0575
  319MOL0     O43887   1.519   9.151   8.853  0.0085  0.8560 -0.4322
  319MOL0     C43888   1.522   9.240   8.751 -0.2852  0.1755  1.1237
  319MOL0     C43889   1.638   9.318   8.742 -0.0070 -0.1447 -0.0001
  319MOL0     C43890   1.654   9.412   8.646 -0.7619 -0.3961  0.1089
  319MOL0     C43891   1.553   9.420   8.545 -0.6315 -0.3423 -0.0192
  319MOL0     O43892   1.562   9.512   8.443 -0.7870  0.4823  0.1110
  319MOL0     C43893   1.680   9.570   8.412 -1.0088 -0.0247 -0.9022
  319MOL0     C43894   1.669   9.660   8.295  0.6680  0.2283 -0.5470
  319MOL0     C43895   1.808   9.728   8.279  0.4392 -0.1174  0.0790
  319MOL0     C43896   1.808   9.847   8.170  0.1394 -0.5600  0.0128
  319MOL0     C43897   1.942   9.910   8.164 -0.8790 -0.0506  0.6881
  319MOL0     C43898   1.990   9.994   8.283  0.1736 -0.1640 -0.4879
  319MOL0     C43899   1.931  10.131   8.274  0.2365  0.2874  0.2804
  319MOL0     C43900   1.992  10.232   8.379  0.4670 -0.3511  1.1403
  319MOL0     N43901   1.977  10.169   8.509 -0.1912 -0.2319  0.2534
  319MOL0     C43902   1.852  10.142   8.565 -1.0028 -0.6356  0.8556
  319MOL0     C43903   1.873  10.045   8.656  0.4051  0.7674 -1.0573
  319MOL0     C43904   1.781   9.971   8.749  0.7022 -0.2204  0.4999
  319MOL0     C43905   1.710   9.857   8.683  0.4066 -0.6843  0.3507
  319MOL0     C43906   1.611   9.771   8.779 -0.0363  0.0650  0.1815
  319MOL0     C43907   1.687   9.711   8.899 -0.8276 -0.7628  0.8839
  319MOL0     O43908   1.620   9.599   8.958  0.6724  0.7132 -0.8478
  319MOL0     C43909   1.665   9.519   9.064 -0.2819 -0.2590  0.2724
  319MOL0     C43910   1.758   9.569   9.162 -0.3252 -0.3275 -0.7149
  319MOL0     C43911   1.796   9.483   9.266 -0.3886  0.2691  0.4491
  319MOL0     C43912   1.882   9.547   9.367 -0.8568  0.3930 -0.0006
  319MOL0     C43913   1.737   9.352   9.289  0.2135  0.2684  0.5556
  319MOL0     C43914   1.771   9.253   9.395  0.4552  0.2668 -0.1068
  319MOL0     O43915   1.691   9.147   9.404  0.0851  0.1871  0.0901
  319MOL0     C43916   1.665   9.086   9.520 -0.4844  0.0535 -0.6380
  319MOL0     C43917   1.534   9.054   9.533  0.9186  0.0795  0.5884
  319MOL0     C43918   1.490   8.986   9.645  0.4718  0.0141 -0.3411
  319MOL0     C43919   1.580   8.941   9.749  0.8035 -0.4172 -0.4845
  319MOL0     O43920   1.543   8.882   9.863 -0.4395 -0.4022 -0.1686
  319MOL0     C43921   1.413   8.904   9.916 -0.0062 -0.6781 -1.1243
  319MOL0     C43922   1.396   8.810  10.040 -0.4041 -0.0989  0.1638
  319MOL0     C43923   1.373   8.662  10.007 -0.1394  0.5605 -0.1516
  319MOL0     C43924   1.319   8.598  10.132 -0.5447  0.5535 -0.4894
  319MOL0     C43925   1.301   8.445  10.100  0.6618 -0.8580 -0.2677
  319MOL0     C43926   1.205   8.388  10.199 -0.0626  0.2587 -0.0469
  319MOL0     C43927   1.158   8.246  10.144 -0.2314 -0.3124 -0.5533
  319MOL0     C43928   1.035   8.255  10.066 -0.6106 -0.2204  0.3533
  319MOL0    Cl43929   0.900   8.304  10.168  0.4277  0.4106  0.1026
  319MOL0     C43930   1.717   8.971   9.718 -0.2109 -1.0198 -0.8319
  319MOL0     C43931   1.762   9.045   9.609  1.3470 -0.7440 -0.2848
  319MOL0     O43932   1.872   9.272   9.466  0.4885 -0.4549 -0.0524
  319MOL0     C43933   1.640   9.310   9.196 -0.5993  0.0871 -0.0360
  319MOL0     C43934   1.613   9.387   9.082 -0.0152 -0.5771  0.0325
  319MOL0     N43935   2.006  10.015   8.663 -0.0936 -0.1327 -0.1115
  319MOL0     N43936   2.070  10.086   8.565  0.3712  0.7250 -0.3396
  319MOL0     C43937   1.435   9.355   8.554 -1.5258  0.6344  0.0356
  319MOL0     C43938   1.421   9.269   8.658 -0.6352 -0.1364 -0.3907
  319MOL0     C43939   1.536   8.931   8.947 -0.2839 -0.0693  0.8171
  319MOL0     C43940   1.621   8.970   9.046 -0.8646 -0.0565  0.2236
  319MOL0     C43941   1.636   8.900   9.162 -0.0913  0.1856  0.7082
  319MOL0     C43942   1.582   8.772   9.178 -0.4670  0.1004  0.9627
  319MOL0     O43943   1.575   8.702   9.299  0.4903  0.1905 -0.7162
  319MOL0     C43944   1.680   8.736   9.389 -0.6660 -0.1545  0.2452
  319MOL0     C43945   1.664   8.631   9.496 -0.3040  0.1551  0.8465
  319MOL0     C43946   1.511   8.613   9.533  0.2419 -0.2028  0.3749
  319MOL0     C43947   1.510   8.523   9.654  0.3946 -0.6418  0.9944
  319MOL0     C43948   1.376   8.475   9.674 -0.7949  0.0206  0.1284
  319MOL0     C43949   1.269   8.424   9.699  0.3300  0.1153 -1.2344
  319MOL0     C43950   1.502   8.721   9.085  0.6201  0.8923  0.2104
  319MOL0     C43951   1.480   8.799   8.962  0.4386 -0.1268 -0.8163
  319MOL0     C43952   1.384   8.745   8.858 -0.5260 -0.3945 -0.0257
  319MOL0     H43953   1.720   9.299   8.811  1.1001 -0.8396 -1.4727
  319MOL0     H43954   1.751   9.461   8.643 -1.2979  0.6651 -2.2158
  319MOL0     H43955   1.749   9.490   8.384 -1.3652  0.5911 -3.9034
  319MOL0     H43956   1.716   9.636   8.491 -2.3970 -0.4501  0.1168
  319MOL0     H43957   1.651   9.595   8.210 -0.0915 -3.1660  1.9751
  319MOL0     H43958   1.589   9.731   8.319  4.3802  4.4318  0.8698
  319MOL0     H43959   1.834   9.759   8.380 -0.5547  0.2504  0.2390
  319MOL0     H43960   1.882   9.655   8.247 -2.3000 -2.6597 -0.9627
  319MOL0     H43961   1.784   9.804   8.072  2.7707  0.7840 -1.3186
  319MOL0     H43962   1.730   9.923   8.180  0.6855  0.5312 -3.0194
  319MOL0     H43963   1.945   9.962   8.067  1.4522 -1.9258 -0.3539
  319MOL0     H43964   2.012   9.826   8.159 -1.2708 -0.5287  2.5341
  319MOL0     H43965   1.970   9.940   8.376  0.0548  0.3903 -0.1887
  319MOL0     H43966   2.099  10.001   8.273  0.3793 -2.0930  0.0049
  319MOL0     H43967   1.825  10.111   8.291  0.1568  1.2943  1.0778
  319MOL0     H43968   1.943  10.162   8.169 -1.6098 -2.8478 -0.9902
  319MOL0     H43969   2.098  10.253   8.360  0.1008  3.1225  2.2792
  319MOL0     H43970   1.941  10.328   8.369 -2.9894 -2.2279 -0.8318
  319MOL0     H43971   1.758  10.188   8.537  0.2549  1.6760  0.0872
  319MOL0     H43972   1.700  10.042   8.771 -0.4241 -1.9249  2.1145
  319MOL0     H43973   1.821   9.944   8.847  0.8210  2.4486  1.2717
  319MOL0     H43974   1.656   9.894   8.596 -2.4876 -1.4324  1.6954
  319MOL0     H43975   1.774   9.784   8.633 -1.5380 -1.4534 -1.1508
  319MOL0     H43976   1.515   9.814   8.807 -2.2495 -5.0168  1.6444
  319MOL0     H43977   1.583   9.687   8.714  0.2179 -0.8272  1.1973
  319MOL0     H43978   1.784   9.679   8.858  1.6568  3.9848  2.3070
  319MOL0     H43979   1.702   9.795   8.967 -1.4845  1.6867 -1.7904
  319MOL0     H43980   1.791   9.671   9.145  0.1569 -1.0226 -5.2614
  319MOL0     H43981   1.894   9.655   9.348  0.3047 -0.0750 -2.3083
  319MOL0     H43982   1.982   9.503   9.362 -0.9317  0.1357  0.6600
  319MOL0     H43983   1.844   9.531   9.469  0.1634 -0.3448  0.2773
  319MOL0     H43984   1.466   9.096   9.459  2.3286  2.4050  0.5135
  319MOL0     H43985   1.385   8.958   9.651  0.8488 -1.3008  1.3320
  319MOL0     H43986   1.415   9.007   9.954  0.3367 -1.5491  1.4608
  319MOL0     H43987   1.334   8.885   9.844 -0.1511  1.5067 -1.5988
  319MOL0     H43988   1.485   8.819  10.103 -0.2004  2.8233 -0.4012
  319MOL0     H43989   1.306   8.846  10.090 -0.9562 -2.5431  1.0595
  319MOL0     H43990   1.467   8.609   9.985 -0.4997 -0.4610  0.6931
  319MOL0     H43991   1.307   8.654   9.921  0.0356 -0.8916 -0.1905
  319MOL0     H43992   1.220   8.641  10.150 -0.9435 -0.5493  0.0574
  319MOL0     H43993   1.387   8.591  10.218 -0.6172 -4.8938 -0.5088
  319MOL0     H43994   1.261   8.432   9.999  1.9690 -0.8699 -0.8044
  319MOL0     H43995   1.390   8.382  10.109  1.9115  1.0807  1.9829
  319MOL0     H43996   1.124   8.458  10.226  0.5936  1.3589 -0.8228
  319MOL0     H43997   1.268   8.370  10.286  0.0115  0.2889 -0.0941
  319MOL0     H43998   1.135   8.174  10.223  1.4048 -1.3824 -1.0197
  319MOL0     H43999   1.234   8.210  10.074  0.9779 -1.1605  1.1455
  319MOL0     H44000   1.022   8.154  10.025  2.0557 -2.1091  3.6029
  319MOL0     H44001   1.049   8.319   9.978 -2.4816  3.3203  2.4396
  319MOL0     H44002   1.794   8.950   9.792 -0.3578 -0.5798 -0.5472
  319MOL0     H44003   1.869   9.055   9.595  1.9611 -1.9901  2.6790
  319MOL0     H44004   1.591   9.214   9.206 -0.5901  0.2195  1.5793
  319MOL0     H44005   1.536   9.352   9.014 -0.7820  0.5566  0.2990
  319MOL0     H44006   1.356   9.372   8.482  0.7263  1.3506 -2.4623
  319MOL0     H44007   1.337   9.201   8.670  0.7338 -1.7886  0.1976
  319MOL0     H44008   1.671   9.066   9.040 -0.5981 -0.1815  0.4727
  319MOL0     H44009   1.691   8.938   9.248  0.5427 -0.2365  0.5015
  319MOL0     H44010   1.773   8.733   9.332 -0.3443  2.9596  0.3878
  319MOL0     H44011   1.665   8.838   9.428  1.5551  0.2759  0.0768
  319MOL0     H44012   1.717   8.667   9.585  1.2211  0.9262 -0.3426
  319MOL0     H44013   1.708   8.539   9.455 -0.6830  1.3719 -2.6282
  319MOL0     H44014   1.469   8.713   9.548  0.5377  0.3606 -2.0413
  319MOL0     H44015   1.457   8.567   9.450  0.1048 -0.9108  0.8496
  319MOL0     H44016   1.560   8.575   9.736  1.8414  0.9762 -0.7862
  319MOL0     H44017   1.564   8.432   9.627 -1.3883 -0.9835 -1.9222
  319MOL0     H44018   1.174   8.381   9.723  0.4995 -0.0990 -0.9421
  319MOL0     H44019   1.448   8.634   9.118  1.4923  0.5361  0.7272
  319MOL0     H44020   1.434   8.673   8.793  1.8118  1.1376 -0.0291
  319MOL0     H44021   1.297   8.698   8.905  1.0139 -0.6002  2.8539
  319MOL0     H44022   1.344   8.823   8.793 -0.0571  0.2619  0.4664
  320MOL0     O44023   8.631   2.282   4.963 -0.0323 -0.2745 -0.1460
  320MOL0     C44024   8.656   2.378   5.040 -0.9731  0.5832  0.0911
  320MOL0     O44025   8.714   2.496   5.006 -0.1442  0.0330 -0.0945
  320MOL0     C44026   8.745   2.509   4.869 -0.3190  0.0707 -0.0453
  320MOL0     C44027   8.737   2.640   4.819  0.7555 -0.6721  1.2106
  320MOL0     C44028   8.755   2.657   4.678  0.4947 -0.0735 -0.1519
  320MOL0     C44029   8.798   2.548   4.594  0.6659  0.0665  0.4786
  320MOL0     O44030   8.801   2.556   4.461 -0.1890  0.0491  0.0255
  320MOL0     C44031   8.819   2.691   4.396  0.3221  0.5757 -0.1401
  320MOL0     C44032   8.803   2.672   4.250  0.1634 -0.1255  0.4776
  320MOL0     C44033   8.668   2.642   4.211 -0.3478 -0.6840  0.4667
  320MOL0     C44034   8.664   2.633   4.056 -0.4701 -0.1323 -0.3571
  320MOL0     C44035   8.543   2.550   4.005 -0.1411  0.4567  0.3369
  320MOL0     C44036   8.550   2.533   3.852 -0.7543  0.0854  0.3722
  320MOL0     C44037   8.442   2.439   3.798 -0.4313 -1.1063 -0.1790
  320MOL0     C44038   8.357   2.503   3.686 -0.2843  0.0924 -0.2360
  320MOL0     N44039   8.290   2.409   3.596  0.4428  0.5701  0.3240
  320MOL0     C44040   8.154   2.379   3.590 -0.2600 -0.9219  0.2491
  320MOL0     C44041   8.134   2.305   3.475 -1.3061 -0.0628 -0.6523
  320MOL0     C44042   8.004   2.252   3.431  0.0477  0.5066 -0.3297
  320MOL0     C44043   8.006   2.112   3.370 -0.8211 -0.0956 -0.3426
  320MOL0     C44044   7.869   2.061   3.326  0.0468 -0.2762  0.4598
  320MOL0     C44045   7.875   1.921   3.274  1.0307 -0.4610 -0.0550
  320MOL0     O44046   7.741   1.865   3.284 -0.3290 -0.2009  0.1387
  320MOL0     C44047   7.720   1.753   3.206  0.0836 -0.8386  1.0334
  320MOL0     C44048   7.771   1.740   3.072 -1.0172 -0.3160  0.1617
  320MOL0     C44049   7.749   1.623   2.999 -0.2526 -0.8596 -0.0464
  320MOL0     C44050   7.797   1.632   2.855 -0.2271  0.0618 -0.3621
  320MOL0     C44051   7.677   1.519   3.045  0.2433  0.0662 -0.3532
  320MOL0     C44052   7.661   1.381   2.983 -0.3857 -0.0618 -0.0079
  320MOL0     O44053   7.545   1.312   3.013  0.5064  0.6940  0.0753
  320MOL0     C44054   7.511   1.189   2.938  0.5770 -0.5122  0.3722
  320MOL0     C44055   7.372   1.159   2.959 -0.4183  0.4902 -0.5376
  320MOL0     C44056   7.319   1.039   2.915  0.2057 -0.6892  0.0289
  320MOL0     C44057   7.396   0.944   2.841  0.3835 -0.9483  0.6442
  320MOL0     O44058   7.351   0.820   2.785  0.4211 -0.3932  1.0493
  320MOL0     C44059   7.215   0.780   2.825 -0.3805  0.5038 -0.1944
  320MOL0     C44060   7.165   0.648   2.755 -0.2604  0.3763 -0.1340
  320MOL0     C44061   7.140   0.664   2.610 -0.1025 -0.3557  0.3061
  320MOL0     C44062   7.087   0.536   2.547  0.8727 -0.4870  0.6291
  320MOL0     C44063   7.052   0.583   2.398  0.1335 -0.2999  0.0222
  320MOL0     C44064   6.973   0.480   2.316 -0.0361  0.7096 -0.2879
  320MOL0     C44065   7.031   0.333   2.325 -0.6455  0.3843 -0.0902
  320MOL0     C44066   6.981   0.235   2.219 -0.6825 -0.0566 -0.0420
  320MOL0    Cl44067   7.000   0.295   2.053  0.4266  0.2888 -0.4690
  320MOL0     C44068   7.527   0.984   2.818  0.2329 -0.0039  0.0668
  320MOL0     C44069   7.581   1.104   2.859  0.0021 -0.0321 -0.0660
  320MOL0     O44070   7.753   1.336   2.916  0.2428 -0.2271  1.1586
  320MOL0     C44071   7.617   1.534   3.177  0.2331  0.0214 -0.6585
  320MOL0     C44072   7.647   1.650   3.251 -0.1781  0.0434  0.1359
  320MOL0     N44073   8.258   2.304   3.410 -0.4533  0.4054 -0.1985
  320MOL0     N44074   8.348   2.370   3.476 -0.3655 -0.4327  0.1573
  320MOL0     C44075   8.843   2.424   4.656  0.0359 -0.2937  0.1824
  320MOL0     C44076   8.814   2.408   4.795 -1.0283  0.0602 -0.3083
  320MOL0     C44077   8.612   2.355   5.178 -0.2556  0.4043 -0.5016
  320MOL0     C44078   8.653   2.236   5.247  0.4815  0.3597  0.0616
  320MOL0     C44079   8.615   2.209   5.380  0.3016  0.3623 -0.4129
  320MOL0     C44080   8.552   2.306   5.456 -0.1059  0.1034  0.0489
  320MOL0     O44081   8.527   2.278   5.586 -0.1417 -0.1502 -0.1009
  320MOL0     C44082   8.392   2.242   5.615  0.1881  0.1466 -0.1374
  320MOL0     C44083   8.328   2.362   5.697 -0.1309 -0.1721  0.0096
  320MOL0     C44084   8.181   2.391   5.654 -0.0672  0.0037  0.6928
  320MOL0     C44085   8.112   2.478   5.760 -0.4710 -0.2696  0.4735
  320MOL0     C44086   7.972   2.478   5.754 -0.4922 -0.8120 -0.5683
  320MOL0     C44087   7.852   2.487   5.748  0.3712 -0.0886 -0.5086
  320MOL0     C44088   8.509   2.422   5.389 -0.0163 -0.8910  0.1329
  320MOL0     C44089   8.539   2.448   5.252  0.1525 -0.5122 -0.0971
  320MOL0     C44090   8.514   2.584   5.191  1.0517 -0.0825 -0.6938
  320MOL0     H44091   8.708   2.733   4.865 -0.8272  0.5909 -1.9930
  320MOL0     H44092   8.736   2.758   4.641  2.3544 -1.0221 -4.3167
  320MOL0     H44093   8.919   2.732   4.414  1.4274 -1.5667 -1.0555
  320MOL0     H44094   8.736   2.758   4.422 -0.3587 -1.1167  2.4747
  320MOL0     H44095   8.840   2.769   4.216  0.2441  0.3410  1.8387
  320MOL0     H44096   8.870   2.591   4.219  0.8999  0.7531 -0.2889
  320MOL0     H44097   8.630   2.550   4.257 -2.1233 -0.5595 -0.6573
  320MOL0     H44098   8.602   2.724   4.238  3.4570  2.7769  0.2247
  320MOL0     H44099   8.654   2.733   4.012  0.7827  0.4305  0.5714
  320MOL0     H44100   8.755   2.588   4.018 -1.5615 -1.8224 -1.0769
  320MOL0     H44101   8.447   2.592   4.036 -1.1166 -0.3565 -1.4239
  320MOL0     H44102   8.560   2.449   4.043 -0.1371 -0.8591 -2.8769
  320MOL0     H44103   8.539   2.636   3.816  0.2586  0.6840  1.6783
  320MOL0     H44104   8.649   2.506   3.814 -0.7045 -2.0713  1.9071
  320MOL0     H44105   8.379   2.413   3.883  0.4019 -1.7213  0.2627
  320MOL0     H44106   8.484   2.350   3.750  0.9483  0.6319 -2.4034
  320MOL0     H44107   8.288   2.571   3.737  0.4054  0.4286  0.2606
  320MOL0     H44108   8.413   2.572   3.622 -2.1861  3.1494  1.1294
  320MOL0     H44109   8.078   2.412   3.659  0.1874  1.1503 -0.1846
  320MOL0     H44110   7.950   2.316   3.360 -0.9831  0.1368  0.0923
  320MOL0     H44111   7.952   2.257   3.527  1.1213  0.8844  0.2482
  320MOL0     H44112   8.057   2.123   3.274 -0.4551  4.3744  0.1303
  320MOL0     H44113   8.067   2.043   3.430  1.2861  0.0345 -2.2189
  320MOL0     H44114   7.790   2.062   3.402 -1.2847 -2.0001 -0.8326
  320MOL0     H44115   7.846   2.130   3.244  2.7737  0.2234  0.0358
  320MOL0     H44116   7.913   1.922   3.171  1.6861 -2.1424  0.1395
  320MOL0     H44117   7.956   1.879   3.334 -0.7649 -0.4247  2.5474
  320MOL0     H44118   7.813   1.825   3.017 -0.0813 -2.7333 -3.2150
  320MOL0     H44119   7.824   1.733   2.824  2.4474  0.1694  1.9749
  320MOL0     H44120   7.715   1.599   2.791  0.1065 -2.1305  0.2618
  320MOL0     H44121   7.881   1.567   2.830 -1.3071 -1.1180 -1.0644
  320MOL0     H44122   7.310   1.228   3.015 -0.9378 -0.1414 -0.3137
  320MOL0     H44123   7.215   1.017   2.932 -0.7164  1.0620 -2.6664
  320MOL0     H44124   7.208   0.772   2.934  1.0026  2.2638  0.0587
  320MOL0     H44125   7.146   0.860   2.798 -0.8016 -0.4249 -1.9936
  320MOL0     H44126   7.240   0.569   2.763  0.3429  1.0274  0.7915
  320MOL0     H44127   7.077   0.624   2.815  0.9108  2.5147  2.6243
  320MOL0     H44128   7.235   0.688   2.562 -0.3627  1.4319  0.6174
  320MOL0     H44129   7.071   0.749   2.603 -1.8513 -1.4997  2.2147
  320MOL0     H44130   7.004   0.498   2.607  0.4764  1.6872  1.5583
  320MOL0     H44131   7.154   0.450   2.538  2.2169  0.5565  0.1451
  320MOL0     H44132   7.000   0.679   2.405  2.0877  0.8749 -0.6368
  320MOL0     H44133   7.148   0.591   2.347  0.8427 -2.8055  0.8466
  320MOL0     H44134   6.949   0.523   2.218 -2.5842 -1.1394 -0.5696
  320MOL0     H44135   6.871   0.472   2.356 -0.1559  0.2788 -0.6717
  320MOL0     H44136   7.006   0.289   2.422 -0.6577 -1.3068 -0.8233
  320MOL0     H44137   7.140   0.337   2.319 -0.7266  3.4077 -1.7685
  320MOL0     H44138   6.873   0.219   2.234 -0.9939  0.3233 -1.6645
  320MOL0     H44139   7.032   0.139   2.224  3.0949  1.8439  1.8276
  320MOL0     H44140   7.595   0.920   2.761 -0.3460 -2.4300  1.9333
  320MOL0     H44141   7.679   1.137   2.828  0.9861 -0.4070  2.3633
  320MOL0     H44142   7.549   1.453   3.204 -1.3783 -0.0673 -4.3526
  320MOL0     H44143   7.593   1.663   3.344  0.8778  1.3467  0.6007
  320MOL0     H44144   8.888   2.343   4.600  1.5387  0.2661  0.5341
  320MOL0     H44145   8.841   2.313   4.841  3.8579 -0.6799 -3.9562
  320MOL0     H44146   8.711   2.166   5.187  3.1014  1.2748  1.4047
  320MOL0     H44147   8.664   2.136   5.443 -1.6201 -1.9104 -1.3805
  320MOL0     H44148   8.330   2.230   5.526 -1.7297 -1.4045  1.3281
  320MOL0     H44149   8.389   2.146   5.666  0.0671 -0.1830 -0.7504
  320MOL0     H44150   8.391   2.449   5.675 -0.2174 -0.8379 -3.4094
  320MOL0     H44151   8.337   2.334   5.802  2.6301  2.4292  0.5804
  320MOL0     H44152   8.180   2.435   5.554 -1.1154 -0.2622  0.5676
  320MOL0     H44153   8.120   2.300   5.647  0.5619 -0.5141  1.7357
  320MOL0     H44154   8.139   2.579   5.730 -2.6958  0.0089 -0.8120
  320MOL0     H44155   8.152   2.463   5.861  1.5914 -0.6572 -0.3572
  320MOL0     H44156   7.746   2.488   5.757  0.3583  2.0533 -0.5348
  320MOL0     H44157   8.455   2.490   5.453 -2.4777 -1.8000 -0.8330
  320MOL0     H44158   8.610   2.638   5.194 -0.4002  2.6664 -0.3733
  320MOL0     H44159   8.483   2.580   5.086 -0.6179  1.7173 -0.3237
  320MOL0     H44160   8.449   2.649   5.250  2.4202  0.5718  0.1725
  321MOL0     O44161   8.812   8.597   9.930  0.1005  0.2378  0.0256
  321MOL0     C44162   8.727   8.503   9.929 -0.2780  0.3996  0.3638
  321MOL0     O44163   8.757   8.381   9.886  0.3775 -0.1355 -0.4091
  321MOL0     C44164   8.889   8.350   9.879  0.2014 -0.0318 -1.4158
  321MOL0     C44165   8.965   8.319  10.000  0.0451  0.5155  0.2358
  321MOL0     C44166   9.106   8.299   9.989  0.3535 -0.2561  0.5366
  321MOL0     C44167   9.173   8.327   9.868 -0.3180  0.5237  0.3955
  321MOL0     O44168   9.304   8.325   9.852 -0.6414  0.0842 -0.9907
  321MOL0     C44169   9.383   8.404   9.942  0.5757  0.4699 -0.8230
  321MOL0     C44170   9.535   8.363   9.940 -0.0971 -0.8040 -0.5152
  321MOL0     C44171   9.601   8.452  10.048 -1.0593  0.5033  0.5184
  321MOL0     C44172   9.669   8.574   9.983 -0.2074 -0.5544 -0.5898
  321MOL0     C44173   9.754   8.647  10.100  0.8942  0.3441 -0.3203
  321MOL0     C44174   9.833   8.762  10.045 -0.2248  0.5351 -0.2358
  321MOL0     C44175   9.893   8.838  10.167  0.4069 -0.0788 -0.2776
  321MOL0     C44176   9.987   8.952  10.119  0.4032  0.4532 -0.4019
  321MOL0     N44177  10.098   8.902  10.028 -0.0033 -0.7225  0.7089
  321MOL0     C44178  10.188   8.804  10.043  0.2177 -0.8290 -0.4630
  321MOL0     C44179  10.285   8.818   9.955 -0.8419 -0.0792 -0.2119
  321MOL0     C44180  10.410   8.734   9.940 -0.7463  0.4139  0.0318
  321MOL0     C44181  10.508   8.780   9.834  0.2176  0.3243 -0.4495
  321MOL0     C44182  10.610   8.677   9.783 -0.2978 -0.8061 -0.8840
  321MOL0     C44183  10.662   8.596   9.901 -0.1660  0.1101  0.0587
  321MOL0     O44184  10.721   8.681  10.000  0.3006 -0.0980 -0.1069
  321MOL0     C44185  10.856   8.671  10.034 -0.0503  0.8290 -0.1767
  321MOL0     C44186  10.952   8.638   9.939 -0.6773  0.3729 -0.4582
  321MOL0     C44187  11.085   8.608   9.981 -0.0326 -0.7948 -0.1890
  321MOL0     C44188  11.192   8.567   9.883  0.2246 -0.5463  0.0913
  321MOL0     C44189  11.120   8.624  10.114  0.2866  0.5579 -0.7201
  321MOL0     C44190  11.249   8.593  10.175 -0.0781 -0.1021 -0.3204
  321MOL0     O44191  11.240   8.539  10.296  0.4410 -0.5424 -0.3608
  321MOL0     C44192  11.346   8.484  10.352 -0.4705 -0.2889  0.6206
  321MOL0     C44193  11.387   8.508  10.486 -0.5161 -0.5844  0.1404
  321MOL0     C44194  11.488   8.432  10.540 -0.6550  1.1176  0.4360
  321MOL0     C44195  11.546   8.320  10.465 -0.7954 -0.1114 -0.5377
  321MOL0     O44196  11.635   8.223  10.510  0.8816  0.1131  0.6004
  321MOL0     C44197  11.706   8.255  10.630  0.0765 -0.5291 -0.3122
  321MOL0     C44198  11.810   8.139  10.661  0.1100  0.1877  0.5984
  321MOL0     C44199  11.921   8.176  10.750 -0.0559 -0.5947 -0.6854
  321MOL0     C44200  11.984   8.044  10.797  0.1567  0.0896  0.3666
  321MOL0     C44201  12.112   8.073  10.876 -0.0967  0.9490  0.0038
  321MOL0     C44202  12.180   7.950  10.927  0.1816 -0.4425  0.6325
  321MOL0     C44203  12.241   7.863  10.827 -1.1441 -0.0074  0.2393
  321MOL0     C44204  12.377   7.924  10.772 -0.3668  0.3744 -0.0410
  321MOL0    Cl44205  12.461   7.829  10.655  0.3651 -0.4180  0.3973
  321MOL0     C44206  11.504   8.293  10.335  0.0517  0.8096 -1.8412
  321MOL0     C44207  11.402   8.370  10.285  0.5392 -0.3326 -0.4677
  321MOL0     O44208  11.357   8.635  10.124 -0.4712 -0.0658 -0.0268
  321MOL0     C44209  11.023   8.682  10.202 -0.0780 -0.7110  0.2124
  321MOL0     C44210  10.891   8.698  10.165 -0.2206  0.5509 -0.2724
  321MOL0     N44211  10.245   8.922   9.873  0.8480  0.4811  0.0078
  321MOL0     N44212  10.132   8.973   9.911 -0.1673  0.3504 -0.5396
  321MOL0     C44213   9.094   8.353   9.756  0.0351 -0.3946  0.9997
  321MOL0     C44214   8.956   8.364   9.759  0.1134 -0.5219  0.2242
  321MOL0     C44215   8.585   8.546   9.920  0.0504  0.4628 -0.2047
  321MOL0     C44216   8.552   8.674   9.885  0.2325 -1.3329  0.4789
  321MOL0     C44217   8.418   8.721   9.860  0.6582 -0.2119  0.4724
  321MOL0     C44218   8.307   8.629   9.887 -0.0720 -0.9164  0.1934
  321MOL0     O44219   8.173   8.647   9.868  0.3039  0.0923  0.2996
  321MOL0     C44220   8.138   8.772   9.827  0.6158 -1.0468  0.1164
  321MOL0     C44221   7.998   8.767   9.780 -0.2021 -0.3821 -0.3665
  321MOL0     C44222   7.896   8.714   9.890  0.5442 -0.4283 -0.2863
  321MOL0     C44223   7.747   8.739   9.861  0.0886  0.5840  0.3688
  321MOL0     C44224   7.707   8.646   9.757  0.1462 -0.9253 -0.0439
  321MOL0     C44225   7.696   8.561   9.672  0.1479  0.3264  0.5197
  321MOL0     C44226   8.344   8.502   9.939 -0.7131  0.7071  0.3695
  321MOL0     C44227   8.475   8.461   9.944 -0.9558  0.7595  0.8020
  321MOL0     C44228   8.498   8.312   9.979  0.4785 -0.6160  0.2638
  321MOL0     H44229   8.900   8.299  10.085  0.3902 -3.8020 -0.2704
  321MOL0     H44230   9.153   8.279  10.085 -1.8632 -2.5995  1.2638
  321MOL0     H44231   9.336   8.402  10.041 -0.3577 -0.0650 -1.2563
  321MOL0     H44232   9.363   8.505   9.904  0.4190  0.1148 -1.7184
  321MOL0     H44233   9.545   8.256   9.962 -0.7676 -0.1854  3.6246
  321MOL0     H44234   9.573   8.383   9.839 -2.2032  1.5374 -0.9242
  321MOL0     H44235   9.534   8.504  10.118 -1.0220 -0.1870  1.0738
  321MOL0     H44236   9.668   8.384  10.101  0.6626  1.9066  0.2513
  321MOL0     H44237   9.737   8.555   9.900  0.5526  3.6821 -1.1869
  321MOL0     H44238   9.587   8.638   9.948 -0.5372 -0.8735 -0.4130
  321MOL0     H44239   9.819   8.570  10.143 -1.0832 -1.0371  0.3349
  321MOL0     H44240   9.688   8.674  10.182 -1.1710 -0.8256 -1.5155
  321MOL0     H44241   9.917   8.732   9.982 -1.0116  0.2702 -1.1740
  321MOL0     H44242   9.763   8.821   9.985 -2.3834 -0.0669  1.5560
  321MOL0     H44243   9.955   8.762  10.216  1.3257 -0.3164 -1.7584
  321MOL0     H44244   9.814   8.872  10.234 -0.9154  1.0158 -2.3212
  321MOL0     H44245   9.919   9.021  10.070 -2.6215 -0.8138  1.7074
  321MOL0     H44246  10.042   9.011  10.193  0.8555  0.6386 -0.8755
  321MOL0     H44247  10.187   8.733  10.126 -0.2195 -2.9849 -2.2261
  321MOL0     H44248  10.378   8.638   9.898 -0.8294  1.2537 -1.9656
  321MOL0     H44249  10.463   8.721  10.035  1.2854  0.5387 -1.0320
  321MOL0     H44250  10.450   8.805   9.745  0.0351 -2.6636 -1.3015
  321MOL0     H44251  10.572   8.860   9.872 -2.0754  1.9849  0.0939
  321MOL0     H44252  10.584   8.624   9.691 -0.1027 -0.7513 -0.9736
  321MOL0     H44253  10.697   8.735   9.749 -0.0427  0.0322  1.0608
  321MOL0     H44254  10.580   8.540   9.947 -0.6265  2.0740  1.8038
  321MOL0     H44255  10.727   8.513   9.873 -0.6402  0.0739 -0.9658
  321MOL0     H44256  10.926   8.634   9.833  0.4996 -2.8165 -0.7290
  321MOL0     H44257  11.148   8.544   9.785  0.4869 -0.9496  0.0643
  321MOL0     H44258  11.244   8.475   9.912  0.6874 -1.8966 -4.2688
  321MOL0     H44259  11.257   8.654   9.886 -1.4375  0.7404  0.2288
  321MOL0     H44260  11.320   8.578  10.536  0.9197  0.7527  0.2745
  321MOL0     H44261  11.508   8.444  10.646  0.1127  0.4035  0.3870
  321MOL0     H44262  11.755   8.351  10.608  1.6229 -1.2398 -0.0775
  321MOL0     H44263  11.644   8.264  10.720  1.0152  0.6588  0.2529
  321MOL0     H44264  11.760   8.050  10.700  1.4101 -1.0830 -0.5291
  321MOL0     H44265  11.852   8.097  10.570 -1.5666 -2.0730  0.7810
  321MOL0     H44266  11.883   8.236  10.834  1.0722  2.2462 -2.0628
  321MOL0     H44267  11.989   8.234  10.687  0.6575 -2.9166 -2.1701
  321MOL0     H44268  12.002   7.983  10.708  1.1777  0.1849  0.5010
  321MOL0     H44269  11.920   7.988  10.865 -0.8694  1.2114  0.3646
  321MOL0     H44270  12.174   8.134  10.809  0.1154  0.5731 -0.1396
  321MOL0     H44271  12.079   8.145  10.953  0.2194  0.2409  0.8161
  321MOL0     H44272  12.098   7.892  10.971 -1.3326  1.8885  1.0708
  321MOL0     H44273  12.246   7.992  11.003 -1.1608  0.8168  1.1558
  321MOL0     H44274  12.176   7.865  10.739  0.9794  0.2649 -1.4183
  321MOL0     H44275  12.242   7.762  10.868  1.6053  0.9524  2.9526
  321MOL0     H44276  12.438   7.930  10.863 -2.3377  1.2968  1.2814
  321MOL0     H44277  12.376   8.019  10.718 -0.7686  1.0593  1.1461
  321MOL0     H44278  11.547   8.207  10.284 -1.1377 -1.4971  0.7242
  321MOL0     H44279  11.361   8.345  10.188  2.2400  2.2020 -1.9872
  321MOL0     H44280  11.062   8.699  10.302 -1.0025  4.6906 -0.0428
  321MOL0     H44281  10.829   8.736  10.245  0.9684  3.6253 -0.6987
  321MOL0     H44282   9.143   8.377   9.663  0.5123 -0.0782  1.3297
  321MOL0     H44283   8.891   8.389   9.675  1.2908  0.8331 -0.3383
  321MOL0     H44284   8.638   8.740   9.878  0.9098 -1.7908  3.3664
  321MOL0     H44285   8.404   8.821   9.820 -1.9517 -0.5280  0.3814
  321MOL0     H44286   8.139   8.832   9.918 -2.0104 -2.3058  1.1146
  321MOL0     H44287   8.209   8.807   9.752 -0.1120  2.1686  0.7927
  321MOL0     H44288   7.986   8.715   9.684  0.3471  0.2567 -0.7874
  321MOL0     H44289   7.970   8.870   9.756 -0.2708 -0.4664 -0.6540
  321MOL0     H44290   7.921   8.611   9.916  1.5730 -0.1555 -0.1448
  321MOL0     H44291   7.926   8.774   9.976 -0.5167  2.8276 -1.9677
  321MOL0     H44292   7.730   8.847   9.851  1.0748  1.0655  3.0522
  321MOL0     H44293   7.697   8.707   9.953 -2.8605  3.2717 -0.1241
  321MOL0     H44294   7.682   8.482   9.601 -1.3690 -0.2255  1.3905
  321MOL0     H44295   8.259   8.436   9.952  0.2354 -0.4830  0.6606
  321MOL0     H44296   8.404   8.257   9.989 -0.7276  0.4957 -3.4338
  321MOL0     H44297   8.533   8.257   9.892 -0.3989 -0.6467 -0.0824
  321MOL0     H44298   8.563   8.302  10.067  3.0252  0.6699 -1.3545
  322MOL0     O44299   3.527   1.064  10.002 -0.9777 -0.0300 -0.2386
  322MOL0     C44300   3.474   1.174  10.019  0.2973  0.0136  0.1348
  322MOL0     O44301   3.349   1.207   9.961  0.3700  0.5944  0.1122
  322MOL0     C44302   3.288   1.127   9.874  0.2165 -0.7809  0.7017
  322MOL0     C44303   3.242   1.180   9.752  0.1697 -0.3146  0.3895
  322MOL0     C44304   3.176   1.092   9.662 -0.0269  0.6522  1.0242
  322MOL0     C44305   3.150   0.958   9.688  0.1105  0.0982  0.1251
  322MOL0     O44306   3.072   0.872   9.626 -0.9252 -0.3202  0.0137
  322MOL0     C44307   2.986   0.890   9.514 -0.5482 -0.0918  0.3576
  322MOL0     C44308   2.878   0.787   9.533  0.4325  0.3260 -0.4318
  322MOL0     C44309   2.812   0.790   9.671 -0.0645 -0.0740  0.4371
  322MOL0     C44310   2.674   0.722   9.688 -0.1068  0.7757  0.0443
  322MOL0     C44311   2.646   0.708   9.834 -0.9909  0.2591 -0.6420
  322MOL0     C44312   2.513   0.643   9.845  0.6882  0.0856 -0.2820
  322MOL0     C44313   2.481   0.624   9.995  0.0936 -0.1176  0.0635
  322MOL0     C44314   2.386   0.735  10.050 -0.1475  0.1380 -0.8943
  322MOL0     N44315   2.456   0.865  10.047  0.4575 -0.1622 -0.7517
  322MOL0     C44316   2.437   0.960   9.946  0.4841 -0.2943  0.4999
  322MOL0     C44317   2.496   1.077   9.982  0.6293  0.3149  0.5754
  322MOL0     C44318   2.500   1.209   9.918  0.3990  0.6171  0.4766
  322MOL0     C44319   2.557   1.209   9.775  0.4927 -1.1276  0.5947
  322MOL0     C44320   2.705   1.163   9.772 -0.3287  0.2360 -0.3750
  322MOL0     C44321   2.778   1.208   9.646 -0.3026  0.6609  0.1388
  322MOL0     O44322   2.774   1.354   9.621  0.0539 -0.0351  0.0185
  322MOL0     C44323   2.880   1.436   9.662 -0.1166  0.0647 -0.2202
  322MOL0     C44324   2.903   1.559   9.598  0.5064 -0.7379 -1.2345
  322MOL0     C44325   3.018   1.637   9.626  1.0186  0.1779  0.5076
  322MOL0     C44326   3.052   1.754   9.540  0.6057 -0.8105  0.6448
  322MOL0     C44327   3.114   1.604   9.730  0.7315 -0.4250  0.6275
  322MOL0     C44328   3.222   1.686   9.778  1.8924  0.1300  0.2990
  322MOL0     O44329   3.219   1.711   9.917 -0.3739 -0.2675 -0.2159
  322MOL0     C44330   3.304   1.799   9.985  0.2249  0.3359 -0.0052
  322MOL0     C44331   3.438   1.832   9.945  0.6628 -0.1147 -0.0056
  322MOL0     C44332   3.517   1.928  10.010  0.5397 -0.6323  0.1423
  322MOL0     C44333   3.457   1.990  10.120 -0.2785  0.3019 -0.4300
  322MOL0     O44334   3.529   2.098  10.173  0.0228  0.4326 -0.7234
  322MOL0     C44335   3.489   2.136  10.311  0.2550  0.5499 -0.5495
  322MOL0     C44336   3.587   2.233  10.370  0.1435 -0.4840 -0.4308
  322MOL0     C44337   3.590   2.241  10.525  0.2168  0.2158 -0.5798
  322MOL0     C44338   3.726   2.290  10.571 -0.8435 -0.4231 -0.0426
  322MOL0     C44339   3.743   2.300  10.725 -0.5077 -0.0179  0.7944
  322MOL0     C44340   3.664   2.424  10.783 -0.4551 -0.9092  0.4492
  322MOL0     C44341   3.666   2.435  10.942  0.3482 -0.8922 -0.7584
  322MOL0     C44342   3.757   2.551  10.997 -0.3627 -0.9353 -0.6722
  322MOL0    Cl44343   3.928   2.520  10.988 -0.3018 -0.2868  0.0901
  322MOL0     C44344   3.337   1.945  10.172 -0.4654 -0.2340  0.1783
  322MOL0     C44345   3.260   1.850  10.103 -0.5491  0.0462  0.1198
  322MOL0     O44346   3.311   1.709   9.695  0.2974 -0.0766  0.7241
  322MOL0     C44347   3.085   1.490   9.800 -0.9044  0.1540 -0.8276
  322MOL0     C44348   2.976   1.406   9.762  0.0571  0.5174 -0.7592
  322MOL0     N44349   2.549   1.054  10.107 -0.3544 -0.3005 -0.1881
  322MOL0     N44350   2.539   0.923  10.145  0.7871  0.5208  0.0705
  322MOL0     C44351   3.201   0.906   9.802 -0.1159 -0.1881 -0.2936
  322MOL0     C44352   3.259   0.987   9.899 -0.1156  0.4067 -0.1791
  322MOL0     C44353   3.542   1.281  10.097  0.2086 -0.1424  0.0489
  322MOL0     C44354   3.483   1.404  10.088  0.4850  0.8055  0.3749
  322MOL0     C44355   3.547   1.512  10.138 -0.0950 -0.2861 -0.4354
  322MOL0     C44356   3.677   1.516  10.182  0.2301  0.4390  0.6274
  322MOL0     O44357   3.750   1.617  10.240 -0.2115  0.1591  0.0551
  322MOL0     C44358   3.721   1.747  10.198  0.0307 -0.6769 -0.2433
  322MOL0     C44359   3.837   1.837  10.244  0.2564 -0.3792  1.6769
  322MOL0     C44360   3.816   1.878  10.380  0.4028  0.0331 -0.6577
  322MOL0     C44361   3.933   1.981  10.426  0.3921 -0.6056 -0.8701
  322MOL0     C44362   4.064   1.929  10.435  0.0695 -0.6166  0.0772
  322MOL0     C44363   4.180   1.883  10.433  0.0112 -0.0303 -1.0944
  322MOL0     C44364   3.735   1.390  10.198 -0.0396 -0.7857 -0.5908
  322MOL0     C44365   3.666   1.272  10.161  0.6503 -0.5500  0.4002
  322MOL0     C44366   3.743   1.139  10.177  0.5991  0.5054  0.1102
  322MOL0     H44367   3.250   1.285   9.726 -0.4719 -0.3538  0.0097
  322MOL0     H44368   3.123   1.124   9.573 -2.5822 -1.4041  1.6836
  322MOL0     H44369   3.035   0.876   9.418  0.8384 -0.1071  1.0518
  322MOL0     H44370   2.950   0.994   9.509 -2.1627 -0.3097  3.9723
  322MOL0     H44371   2.808   0.805   9.452 -1.7444 -1.2738  0.9757
  322MOL0     H44372   2.917   0.688   9.508  0.7771  0.1661  0.6366
  322MOL0     H44373   2.886   0.755   9.743 -0.4620  1.1602  1.4941
  322MOL0     H44374   2.791   0.895   9.694 -3.1165 -0.7507  1.2801
  322MOL0     H44375   2.591   0.774   9.639  1.5702  2.5998 -0.9710
  322MOL0     H44376   2.680   0.619   9.652  0.3030  0.1271  1.8447
  322MOL0     H44377   2.642   0.804   9.885  2.1644 -0.2999  0.9135
  322MOL0     H44378   2.728   0.648   9.876  1.3838  3.1279 -0.8150
  322MOL0     H44379   2.441   0.714   9.804 -1.2399 -1.5157  0.1645
  322MOL0     H44380   2.513   0.543   9.800 -3.1156  0.6193 -1.8798
  322MOL0     H44381   2.566   0.607  10.062  1.4704 -1.1434 -1.8601
  322MOL0     H44382   2.421   0.532   9.995  0.7691 -0.5653  0.6690
  322MOL0     H44383   2.301   0.722   9.982  2.1231 -3.2085 -3.4520
  322MOL0     H44384   2.371   0.720  10.157  0.3369 -2.1030 -1.0825
  322MOL0     H44385   2.375   0.927   9.864  0.1553 -2.5288  1.5826
  322MOL0     H44386   2.542   1.284   9.986  0.6471  1.8715 -1.0027
  322MOL0     H44387   2.394   1.230   9.902 -0.3552 -2.5318  0.8381
  322MOL0     H44388   2.495   1.162   9.698  0.6506 -0.5237  0.0829
  322MOL0     H44389   2.557   1.311   9.735 -0.4253 -2.3702 -3.0508
  322MOL0     H44390   2.752   1.218   9.854 -1.1008  0.0221  0.2290
  322MOL0     H44391   2.710   1.054   9.784 -2.3367  0.0766 -0.5308
  322MOL0     H44392   2.880   1.169   9.636 -1.1844 -1.1653 -2.7515
  322MOL0     H44393   2.729   1.174   9.555 -0.4590 -2.5698  1.3171
  322MOL0     H44394   2.835   1.579   9.516 -2.4480 -1.5007  0.8361
  322MOL0     H44395   3.136   1.720   9.478  1.4723 -0.2531  1.4772
  322MOL0     H44396   3.079   1.840   9.602  2.9345 -0.2995 -0.9222
  322MOL0     H44397   2.979   1.792   9.467  1.9479  2.8961  0.9976
  322MOL0     H44398   3.480   1.786   9.856  0.9726 -0.1102  0.1380
  322MOL0     H44399   3.612   1.953   9.965 -0.6632 -1.6642 -3.2454
  322MOL0     H44400   3.393   2.187  10.319 -0.4984 -0.6837 -1.3294
  322MOL0     H44401   3.483   2.043  10.369 -3.0413 -0.2772 -1.9609
  322MOL0     H44402   3.679   2.223  10.313  0.9402 -0.6202  0.8376
  322MOL0     H44403   3.552   2.334  10.345  0.5466  0.7840  3.4134
  322MOL0     H44404   3.579   2.138  10.560 -0.0785  0.3245 -0.3376
  322MOL0     H44405   3.505   2.304  10.554  0.2230 -0.4710  1.0692
  322MOL0     H44406   3.762   2.383  10.526 -0.3248 -1.2022 -1.2855
  322MOL0     H44407   3.810   2.230  10.534 -0.9539 -0.0579 -0.9098
  322MOL0     H44408   3.705   2.205  10.764  3.6675 -2.8408 -1.3237
  322MOL0     H44409   3.850   2.308  10.746 -1.1120  2.2086  3.7713
  322MOL0     H44410   3.560   2.416  10.752 -0.6291  2.3986 -0.2601
  322MOL0     H44411   3.714   2.513  10.744 -0.1614 -0.1628  2.4071
  322MOL0     H44412   3.680   2.332  10.977  0.4846 -1.6962 -3.0245
  322MOL0     H44413   3.566   2.455  10.981 -0.0521  2.7872 -3.1956
  322MOL0     H44414   3.730   2.572  11.101 -3.7179  0.1746 -1.6378
  322MOL0     H44415   3.730   2.649  10.956 -1.2338 -0.6774  0.4743
  322MOL0     H44416   3.288   1.981  10.262 -0.6779  0.7474 -0.3216
  322MOL0     H44417   3.161   1.831  10.143 -0.7847 -0.4145 -0.6602
  322MOL0     H44418   3.149   1.464   9.884 -1.7828 -0.4371 -0.3265
  322MOL0     H44419   2.961   1.315   9.819  0.0218  1.0950  0.1598
  322MOL0     H44420   3.175   0.803   9.826 -0.1961 -0.1014 -0.0023
  322MOL0     H44421   3.298   0.944   9.991 -0.8643  1.1441  0.4918
  322MOL0     H44422   3.385   1.414  10.044  1.8718  1.2072 -2.9574
  322MOL0     H44423   3.491   1.605  10.145 -2.2554 -1.6882  2.7305
  322MOL0     H44424   3.700   1.754  10.091 -0.6466  0.7609 -0.0408
  322MOL0     H44425   3.622   1.768  10.240 -1.4421 -1.3950 -3.1232
  322MOL0     H44426   3.828   1.926  10.181 -0.4622 -1.7227 -0.2065
  322MOL0     H44427   3.934   1.794  10.217 -0.9043 -1.7059 -0.6198
  322MOL0     H44428   3.715   1.918  10.390  0.9147  1.8641 -2.2226
  322MOL0     H44429   3.829   1.789  10.443  2.5266 -0.0920 -1.1871
  322MOL0     H44430   3.900   2.010  10.526  0.6228  2.1181 -1.4958
  322MOL0     H44431   3.931   2.069  10.361  2.0298 -0.7357 -1.1464
  322MOL0     H44432   4.273   1.829  10.431  0.3605  0.5369 -0.4709
  322MOL0     H44433   3.833   1.373  10.240  0.3598 -1.7428 -1.8358
  322MOL0     H44434   3.846   1.145  10.214  0.0823  3.8003  1.3805
  322MOL0     H44435   3.693   1.068  10.242  2.2981 -1.1820 -0.3271
  322MOL0     H44436   3.764   1.108  10.074  1.9042  1.3422  0.0943
  323MOL0     O44437  10.677  10.803   7.362  0.4300 -0.0567  0.2953
  323MOL0     C44438  10.660  10.864   7.256 -0.1250  1.5156 -0.2495
  323MOL0     O44439  10.766  10.866   7.160  0.2344  1.2620 -0.0824
  323MOL0     C44440  10.893  10.820   7.190  0.0497  0.2959 -0.1230
  323MOL0     C44441  10.999  10.908   7.182  0.5210 -0.5656 -1.1571
  323MOL0     C44442  11.127  10.862   7.209 -0.1011  0.4086 -0.8804
  323MOL0     C44443  11.146  10.733   7.250  1.1714 -0.7468 -0.7038
  323MOL0     O44444  11.270  10.688   7.300 -0.0036 -0.0701  1.0299
  323MOL0     C44445  11.320  10.753   7.419  0.1295  0.8839 -0.0260
  323MOL0     C44446  11.394  10.881   7.396 -0.4733  0.9654  0.3547
  323MOL0     C44447  11.511  10.866   7.291 -0.2091 -0.2670  0.0135
  323MOL0     C44448  11.599  10.986   7.283 -0.4115 -0.3457 -0.7833
  323MOL0     C44449  11.682  11.016   7.410  0.2321  0.4510  0.4031
  323MOL0     C44450  11.790  10.922   7.462 -0.8140  0.9683 -0.2631
  323MOL0     C44451  11.908  10.901   7.371 -0.1976  0.5194 -0.2467
  323MOL0     C44452  11.900  10.783   7.283  0.8846 -0.7647 -1.2453
  323MOL0     N44453  12.026  10.781   7.212  0.4013  0.9726  0.3371
  323MOL0     C44454  12.150  10.723   7.241  0.0112  0.5430  0.0491
  323MOL0     C44455  12.230  10.758   7.130 -0.1198  0.2069  0.1301
  323MOL0     C44456  12.383  10.718   7.105 -0.0287 -0.1164  0.5337
  323MOL0     C44457  12.403  10.570   7.106 -0.0345  0.3823  0.5190
  323MOL0     C44458  12.376  10.512   6.964 -0.4209 -0.8200  0.7289
  323MOL0     C44459  12.415  10.363   6.940  0.8467  0.4841 -0.6077
  323MOL0     O44460  12.391  10.315   6.806 -0.3404  0.2195 -0.0023
  323MOL0     C44461  12.491  10.300   6.718 -0.0876 -0.7049 -0.0725
  323MOL0     C44462  12.629  10.322   6.739 -0.0906  0.4928  0.0712
  323MOL0     C44463  12.727  10.291   6.639 -0.1291 -0.1502 -0.4820
  323MOL0     C44464  12.867  10.344   6.674 -0.9764  0.5087  0.1438
  323MOL0     C44465  12.693  10.228   6.521 -0.7269 -0.3766 -0.5262
  323MOL0     C44466  12.792  10.184   6.416 -0.6508 -0.6266 -0.1063
  323MOL0     O44467  12.739  10.152   6.292 -0.1067 -0.3270  0.7652
  323MOL0     C44468  12.813  10.111   6.187  0.7189 -0.7191  0.7781
  323MOL0     C44469  12.951  10.088   6.175 -0.5840 -0.7674  0.2295
  323MOL0     C44470  13.014  10.035   6.068  0.2778 -0.5486  0.4562
  323MOL0     C44471  12.941  10.012   5.950  0.0417 -0.6671 -0.7201
  323MOL0     O44472  13.000   9.937   5.853 -0.3029 -0.8701  0.0719
  323MOL0     C44473  12.918   9.891   5.741 -0.1109 -0.1969 -0.5900
  323MOL0     C44474  13.003   9.803   5.661  0.1348  0.5465 -0.8514
  323MOL0     C44475  13.091   9.879   5.564 -1.0049  0.0749  0.0903
  323MOL0     C44476  13.199   9.792   5.499 -0.1729  0.0962 -0.3491
  323MOL0     C44477  13.301   9.885   5.437 -0.4153  0.3745 -0.8419
  323MOL0     C44478  13.416   9.806   5.367  0.1351 -1.1068  0.4078
  323MOL0     C44479  13.517   9.896   5.299 -0.4855 -0.3539  0.0322
  323MOL0     C44480  13.595   9.819   5.196 -0.2685  0.2748  0.2648
  323MOL0    Cl44481  13.698   9.698   5.264 -0.6341 -0.6624  0.1093
  323MOL0     C44482  12.803  10.031   5.952 -0.6305 -0.2300  0.1419
  323MOL0     C44483  12.740  10.075   6.073 -0.5537  0.3840  0.2113
  323MOL0     O44484  12.913  10.169   6.449  0.3487  0.4973  0.5391
  323MOL0     C44485  12.558  10.209   6.498  0.7916 -1.1895  1.0686
  323MOL0     C44486  12.456  10.236   6.598  0.0110 -1.4908 -0.3753
  323MOL0     N44487  12.150  10.823   7.039  0.0267  0.0683 -0.6455
  323MOL0     N44488  12.032  10.842   7.089 -0.2802 -0.8977 -0.7099
  323MOL0     C44489  11.042  10.642   7.259 -0.3502 -0.3024 -0.8514
  323MOL0     C44490  10.913  10.692   7.233  0.3996  0.6254 -0.4563
  323MOL0     C44491  10.539  10.919   7.204  0.1706  0.0848 -0.2861
  323MOL0     C44492  10.518  10.967   7.074 -0.6664  0.1439  0.9937
  323MOL0     C44493  10.404  11.031   7.023  0.0051 -0.1719 -0.6283
  323MOL0     C44494  10.297  11.041   7.116  0.2587  0.3492  0.4857
  323MOL0     O44495  10.175  11.097   7.078 -0.1045 -0.1171 -0.3264
  323MOL0     C44496  10.152  11.143   6.950  0.3110 -0.2238 -1.0210
  323MOL0     C44497  10.098  11.034   6.851 -0.3083 -0.7679  0.2858
  323MOL0     C44498  10.119  11.081   6.704  0.1136  0.9880  0.3049
  323MOL0     C44499  10.089  10.959   6.610 -0.1878  0.8028  0.8178
  323MOL0     C44500  10.194  10.846   6.627  0.4779 -0.0691  0.7486
  323MOL0     C44501  10.268  10.750   6.629  0.5805 -0.0877  0.6008
  323MOL0     C44502  10.313  10.999   7.250 -0.5880 -0.5650  0.3195
  323MOL0     C44503  10.427  10.936   7.292 -0.3746  0.2348  0.8185
  323MOL0     C44504  10.421  10.900   7.441  0.1482  0.2151 -0.5509
  323MOL0     H44505  10.982  11.010   7.149 -1.8351  0.0271  1.5004
  323MOL0     H44506  11.210  10.931   7.200  2.6674 -2.6334 -0.4588
  323MOL0     H44507  11.381  10.686   7.481 -0.8623 -0.7258 -0.7121
  323MOL0     H44508  11.236  10.773   7.485  3.1668 -2.7645  5.8283
  323MOL0     H44509  11.322  10.951   7.353 -0.8987  0.3738  0.0966
  323MOL0     H44510  11.427  10.912   7.496  1.2336  1.7251 -0.4204
  323MOL0     H44511  11.568  10.773   7.302  4.3214  1.7611 -3.1084
  323MOL0     H44512  11.461  10.863   7.194 -0.7872  0.0597  0.2956
  323MOL0     H44513  11.669  10.971   7.201  1.7765 -2.5948  1.3295
  323MOL0     H44514  11.534  11.071   7.260 -0.6101  1.2237  4.3545
  323MOL0     H44515  11.605  11.021   7.487 -1.9672  0.8507 -1.6993
  323MOL0     H44516  11.730  11.113   7.390  0.2257  0.3403 -0.1542
  323MOL0     H44517  11.820  10.969   7.556 -1.5523 -1.3488  1.2275
  323MOL0     H44518  11.746  10.829   7.499  0.2101  0.0435 -1.3162
  323MOL0     H44519  11.998  10.899   7.434 -2.3200  1.5078  3.0233
  323MOL0     H44520  11.919  10.993   7.312  3.0139  0.9654  0.8197
  323MOL0     H44521  11.878  10.689   7.335 -0.3618 -0.2186 -0.7483
  323MOL0     H44522  11.817  10.801   7.215 -3.3264  3.6879  4.1065
  323MOL0     H44523  12.193  10.654   7.314 -0.8991 -1.4249 -1.1760
  323MOL0     H44524  12.425  10.760   7.197 -1.3479 -2.5452  2.3524
  323MOL0     H44525  12.425  10.758   7.012  0.4361 -0.6740  0.4988
  323MOL0     H44526  12.499  10.547   7.153 -0.0172  3.3602  2.1635
  323MOL0     H44527  12.326  10.515   7.162 -0.3706 -0.2914 -0.5744
  323MOL0     H44528  12.279  10.544   6.925  0.6803  2.0302  0.0866
  323MOL0     H44529  12.436  10.565   6.889 -2.7338 -2.1285 -2.2586
  323MOL0     H44530  12.512  10.336   6.982  1.2446  2.6612 -0.0023
  323MOL0     H44531  12.339  10.300   6.986  0.8423 -1.4185 -3.0094
  323MOL0     H44532  12.667  10.375   6.826  1.0769 -0.3320  0.0979
  323MOL0     H44533  12.916  10.401   6.595  1.3861 -2.4146 -0.6617
  323MOL0     H44534  12.925  10.254   6.697 -0.7110  0.8254  0.7692
  323MOL0     H44535  12.864  10.416   6.757  1.5303  3.3917 -2.0241
  323MOL0     H44536  13.025  10.112   6.251 -0.6289  1.0085 -0.2505
  323MOL0     H44537  13.122  10.020   6.077  0.0790 -1.6248  1.2610
  323MOL0     H44538  12.843   9.825   5.785  1.4770 -0.9253  1.1970
  323MOL0     H44539  12.873   9.974   5.687 -2.4546  1.1778  3.1008
  323MOL0     H44540  13.052   9.732   5.729 -1.9077  2.7035  3.2699
  323MOL0     H44541  12.935   9.748   5.595  0.1510 -1.6767  0.8324
  323MOL0     H44542  13.131   9.956   5.631 -1.0214 -0.0058  0.1927
  323MOL0     H44543  13.033   9.924   5.483  2.0082  1.9210 -1.1987
  323MOL0     H44544  13.149   9.719   5.435 -2.8329 -0.0727  1.7281
  323MOL0     H44545  13.248   9.738   5.580 -0.4884  0.6858  0.2455
  323MOL0     H44546  13.259   9.944   5.355  0.5926  3.0787  0.4547
  323MOL0     H44547  13.337   9.943   5.522 -2.1894 -2.1385  1.8321
  323MOL0     H44548  13.367   9.748   5.288  0.6771 -0.5580 -0.3478
  323MOL0     H44549  13.470   9.745   5.440  1.3483 -0.1685  0.3342
  323MOL0     H44550  13.583   9.923   5.383  1.0237 -1.7734 -0.6496
  323MOL0     H44551  13.481   9.991   5.257  1.4088  1.5295  2.3377
  323MOL0     H44552  13.677   9.884   5.164  1.4231 -0.8935  1.9817
  323MOL0     H44553  13.525   9.777   5.124  2.0959  2.8722 -3.9709
  323MOL0     H44554  12.739   9.993   5.873  0.9855  2.9689 -3.0349
  323MOL0     H44555  12.633  10.091   6.081 -0.4387  0.4055  2.7657
  323MOL0     H44556  12.514  10.171   6.406 -0.7263  0.5698  1.0055
  323MOL0     H44557  12.350  10.210   6.589  0.1158 -2.1983  0.2821
  323MOL0     H44558  11.052  10.548   7.311  0.0359 -0.2968 -0.9104
  323MOL0     H44559  10.828  10.630   7.259  1.7258 -1.4120 -0.7808
  323MOL0     H44560  10.594  10.940   7.001 -1.2851  3.8707 -1.3103
  323MOL0     H44561  10.405  11.062   6.919 -0.1637  0.7877 -0.3600
  323MOL0     H44562  10.077  11.223   6.948 -0.1616 -0.6082 -4.0464
  323MOL0     H44563  10.244  11.191   6.915  0.1016 -0.3705 -1.7896
  323MOL0     H44564   9.993  11.006   6.862 -1.7510  2.6409 -2.6233
  323MOL0     H44565  10.167  10.954   6.877  0.5476  0.5757  2.4347
  323MOL0     H44566  10.052  11.166   6.688 -1.0607 -0.0483 -0.4880
  323MOL0     H44567  10.224  11.111   6.694  0.1886  0.8860  0.7971
  323MOL0     H44568  10.079  10.989   6.505  1.8523 -0.4385  0.2161
  323MOL0     H44569   9.990  10.918   6.633 -0.7783  1.9560  0.4140
  323MOL0     H44570  10.332  10.664   6.634 -1.3392 -1.4993  3.4401
  323MOL0     H44571  10.225  11.022   7.308 -1.7951  1.6739 -2.2033
  323MOL0     H44572  10.496  10.955   7.499 -1.6785  2.7608 -0.4358
  323MOL0     H44573  10.330  10.935   7.490 -0.2837 -0.7367 -0.6460
  323MOL0     H44574  10.421  10.792   7.459 -0.6071  0.4316  0.9209
  324MOL0     O44575  10.537   5.050   4.587  0.2343  0.9911 -0.7016
  324MOL0     C44576  10.540   4.986   4.695  1.5196  1.0226  0.3817
  324MOL0     O44577  10.649   4.943   4.750 -0.3557 -0.6309 -1.0961
  324MOL0     C44578  10.773   4.950   4.688  0.8866  0.6815  0.3159
  324MOL0     C44579  10.856   5.049   4.735  0.7817  0.7697  0.3610
  324MOL0     C44580  10.976   5.067   4.680  0.4261 -0.1330 -0.7304
  324MOL0     C44581  11.027   4.978   4.584  0.2670 -0.2386  0.7850
  324MOL0     O44582  11.157   4.983   4.534  0.4364 -0.7025 -0.4956
  324MOL0     C44583  11.252   5.088   4.570  0.1286  0.3160 -0.3554
  324MOL0     C44584  11.376   5.053   4.490  0.3203 -0.2808  0.0283
  324MOL0     C44585  11.369   5.103   4.343  0.0713  0.2949 -0.4241
  324MOL0     C44586  11.412   5.000   4.244 -0.2295  0.6816 -0.1148
  324MOL0     C44587  11.410   5.066   4.098  0.5832  0.7948 -0.2277
  324MOL0     C44588  11.456   4.969   3.985  0.4267 -0.9798  0.4315
  324MOL0     C44589  11.446   5.044   3.851  1.4727  0.1898  0.0902
  324MOL0     C44590  11.549   4.993   3.756 -0.0141  0.0414  0.2636
  324MOL0     N44591  11.552   4.848   3.763 -0.3074  1.1238  0.0052
  324MOL0     C44592  11.455   4.751   3.737  0.0749 -0.8083  0.0915
  324MOL0     C44593  11.527   4.637   3.732  0.6837  0.6944  0.7495
  324MOL0     C44594  11.476   4.513   3.692 -0.5259 -0.2116 -0.1629
  324MOL0     C44595  11.431   4.414   3.801  0.0642 -0.2558  0.0064
  324MOL0     C44596  11.327   4.480   3.896  0.2169  0.5905  0.4937
  324MOL0     C44597  11.241   4.379   3.981 -0.5094  0.0404  1.0689
  324MOL0     O44598  11.174   4.282   3.902  0.5203 -0.3073  0.9483
  324MOL0     C44599  11.081   4.196   3.963 -0.8647  0.4402 -0.0786
  324MOL0     C44600  11.011   4.109   3.882  0.8184 -0.4052 -0.5240
  324MOL0     C44601  10.930   4.004   3.933 -0.6237 -0.7280 -0.0284
  324MOL0     C44602  10.849   3.927   3.832  0.8060  0.1103 -0.2729
  324MOL0     C44603  10.912   3.997   4.075 -0.5269  0.7669  0.0105
  324MOL0     C44604  10.818   3.906   4.140  0.0420 -0.1396  0.3154
  324MOL0     O44605  10.802   3.941   4.271  0.2912  0.1877  0.1311
  324MOL0     C44606  10.720   3.856   4.340 -0.2983 -0.0798  0.3156
  324MOL0     C44607  10.586   3.900   4.343 -0.1563  0.2427 -0.3756
  324MOL0     C44608  10.488   3.831   4.421 -0.1430  1.0608  0.0945
  324MOL0     C44609  10.520   3.705   4.486  0.2376 -0.0218 -0.4477
  324MOL0     O44610  10.440   3.631   4.568  0.0873 -0.1286 -0.8248
  324MOL0     C44611  10.300   3.670   4.572 -0.4677  0.0428  0.1787
  324MOL0     C44612  10.230   3.610   4.696  0.1098 -0.0532 -0.0490
  324MOL0     C44613  10.255   3.450   4.710  0.2721  0.2031 -0.2851
  324MOL0     C44614  10.238   3.378   4.843  0.1176 -0.2065  0.1333
  324MOL0     C44615  10.084   3.369   4.870 -0.4790 -0.5512  0.1656
  324MOL0     C44616  10.047   3.275   4.985 -0.9300  0.0659  0.0604
  324MOL0     C44617   9.901   3.250   4.974 -0.3233  0.6734 -0.0516
  324MOL0     C44618   9.856   3.120   5.042  0.2075  0.1180  0.5114
  324MOL0    Cl44619   9.685   3.101   5.015 -0.3529 -0.4164 -0.1160
  324MOL0     C44620  10.652   3.663   4.473 -0.7352  0.1078  1.1304
  324MOL0     C44621  10.751   3.736   4.403 -1.0057  0.3680 -0.2587
  324MOL0     O44622  10.763   3.812   4.084  0.7458 -0.6268 -0.0502
  324MOL0     C44623  10.990   4.083   4.153 -0.4890  0.7349  0.7805
  324MOL0     C44624  11.073   4.185   4.096  0.5737 -0.4863  0.3401
  324MOL0     N44625  11.660   4.661   3.756 -0.6152  0.5307  0.1166
  324MOL0     N44626  11.671   4.786   3.787 -0.6840  0.9528 -0.5976
  324MOL0     C44627  10.939   4.877   4.530 -0.0284 -0.5159 -0.1858
  324MOL0     C44628  10.815   4.864   4.586 -0.1433 -0.2615  0.3417
  324MOL0     C44629  10.412   4.954   4.762  1.0524  0.7587  0.2625
  324MOL0     C44630  10.423   4.903   4.891  0.8215  0.1544 -0.8239
  324MOL0     C44631  10.305   4.871   4.956  1.2120 -0.2837  0.1878
  324MOL0     C44632  10.178   4.884   4.901  0.1432  0.8942  0.4182
  324MOL0     O44633  10.057   4.861   4.954  0.4523  0.1572 -0.4885
  324MOL0     C44634  10.032   4.890   5.095  0.1139 -0.2976  0.1302
  324MOL0     C44635  10.051   4.769   5.187 -0.6459  1.1633 -0.2200
  324MOL0     C44636  10.027   4.630   5.116  1.0526 -0.2621 -0.0660
  324MOL0     C44637  10.033   4.507   5.207 -0.2306 -0.5872  0.2987
  324MOL0     C44638  10.009   4.394   5.123  0.6910 -0.5857 -0.2945
  324MOL0     C44639   9.979   4.300   5.055 -0.6495  0.5077  0.1580
  324MOL0     C44640  10.174   4.921   4.767 -0.6290  0.9264  0.2028
  324MOL0     C44641  10.284   4.963   4.693  0.9969  0.9361  0.1227
  324MOL0     C44642  10.250   4.981   4.547  0.2460  0.0378 -0.1401
  324MOL0     H44643  10.838   5.107   4.825 -1.4897 -3.4318  2.9555
  324MOL0     H44644  11.034   5.151   4.718  2.0576 -2.0362  1.3131
  324MOL0     H44645  11.269   5.084   4.678 -2.0035 -0.1796  0.0042
  324MOL0     H44646  11.226   5.189   4.539  0.0891  1.0489  1.8392
  324MOL0     H44647  11.452   5.114   4.539  0.1865  0.5699 -0.7894
  324MOL0     H44648  11.390   4.945   4.494  2.6460  0.0090  2.3631
  324MOL0     H44649  11.266   5.132   4.320 -1.1852 -3.8655 -0.8365
  324MOL0     H44650  11.433   5.189   4.320  0.7183 -0.7054 -2.6959
  324MOL0     H44651  11.509   4.952   4.260 -0.8466 -0.0021  1.8284
  324MOL0     H44652  11.339   4.919   4.242  0.5965 -0.0615 -1.0688
  324MOL0     H44653  11.478   5.151   4.111  2.9871 -0.9067 -0.9416
  324MOL0     H44654  11.310   5.108   4.080 -1.1105 -2.8987 -0.3825
  324MOL0     H44655  11.557   4.926   3.994  0.4900 -0.8152  0.5129
  324MOL0     H44656  11.387   4.884   3.980 -1.6759  0.6466  0.4610
  324MOL0     H44657  11.476   5.147   3.872  1.0718  0.1332  0.9930
  324MOL0     H44658  11.348   5.039   3.802  0.8406  1.2527  1.1848
  324MOL0     H44659  11.515   5.022   3.656  0.7345  0.7479  0.1999
  324MOL0     H44660  11.648   5.037   3.772 -0.0977  1.7413 -3.0289
  324MOL0     H44661  11.349   4.772   3.720  0.7986  2.6365 -1.0466
  324MOL0     H44662  11.549   4.466   3.626  0.7096  1.2033  0.1242
  324MOL0     H44663  11.390   4.539   3.630 -0.9833  0.8821  0.8714
  324MOL0     H44664  11.374   4.333   3.755  0.0830 -0.7057  0.7630
  324MOL0     H44665  11.513   4.369   3.859  0.2928 -0.6040 -0.5809
  324MOL0     H44666  11.380   4.551   3.959  1.3744 -0.3049  0.5729
  324MOL0     H44667  11.256   4.533   3.833  2.6230  0.3534 -2.7129
  324MOL0     H44668  11.328   4.333   4.030 -0.3813 -2.4866 -1.3343
  324MOL0     H44669  11.169   4.431   4.045 -2.9510 -1.2293 -0.5214
  324MOL0     H44670  11.021   4.130   3.776 -0.4689 -2.1343 -1.0264
  324MOL0     H44671  10.842   3.974   3.733  2.1498 -2.1953 -1.5415
  324MOL0     H44672  10.747   3.932   3.872 -0.0211 -2.8158 -1.7708
  324MOL0     H44673  10.886   3.826   3.817  0.9895 -0.0321  1.0356
  324MOL0     H44674  10.565   3.992   4.290 -0.5255  0.8338  0.7531
  324MOL0     H44675  10.393   3.882   4.433 -0.1734  0.7373  1.3366
  324MOL0     H44676  10.282   3.778   4.575  0.2803  0.1570  2.4925
  324MOL0     H44677  10.248   3.641   4.481  0.5814  2.6883 -1.3756
  324MOL0     H44678  10.267   3.655   4.789  0.5286 -2.6507  1.1568
  324MOL0     H44679  10.126   3.641   4.682 -0.1119 -1.7710 -2.8996
  324MOL0     H44680  10.360   3.423   4.693  0.6118  1.0297  0.3708
  324MOL0     H44681  10.189   3.409   4.632 -0.7576  0.2845  0.5266
  324MOL0     H44682  10.282   3.440   4.922 -0.0775 -0.7350  0.6577
  324MOL0     H44683  10.287   3.281   4.850  2.9165  1.0893 -0.0272
  324MOL0     H44684  10.051   3.473   4.883  1.2415  0.6070 -3.2610
  324MOL0     H44685  10.045   3.328   4.776  0.7550 -3.5284  0.8657
  324MOL0     H44686  10.091   3.315   5.077  0.8252  2.3328 -1.6355
  324MOL0     H44687  10.095   3.181   4.956 -2.7516 -2.2233  3.7384
  324MOL0     H44688   9.871   3.245   4.869 -2.2273 -1.9156  0.4942
  324MOL0     H44689   9.847   3.332   5.023 -0.0486  0.9155 -0.1543
  324MOL0     H44690   9.878   3.106   5.148  1.2585 -1.3162  0.1393
  324MOL0     H44691   9.915   3.044   4.991  1.6127  0.5962  1.3444
  324MOL0     H44692  10.671   3.569   4.524  3.6141 -0.7123 -1.4883
  324MOL0     H44693  10.851   3.694   4.391 -2.2607 -2.4147 -2.2163
  324MOL0     H44694  10.987   4.071   4.261 -0.2019 -1.3078  0.5972
  324MOL0     H44695  11.122   4.255   4.163  0.5678  0.3000 -0.4469
  324MOL0     H44696  10.972   4.794   4.468 -0.2564 -1.8040  1.3645
  324MOL0     H44697  10.775   4.773   4.545  2.5622  0.6494 -5.2178
  324MOL0     H44698  10.513   4.895   4.951 -1.1486 -5.3084  2.0180
  324MOL0     H44699  10.308   4.828   5.055  1.1519 -0.9562 -0.0937
  324MOL0     H44700  10.093   4.976   5.126 -0.9408  0.0620  1.2557
  324MOL0     H44701   9.932   4.934   5.102  0.9826  2.3394 -1.9103
  324MOL0     H44702   9.977   4.778   5.267  0.6404  2.9216  0.8358
  324MOL0     H44703  10.144   4.777   5.244 -1.6853 -0.0934  1.7710
  324MOL0     H44704   9.927   4.640   5.072  0.4264  1.3086  1.5975
  324MOL0     H44705  10.098   4.621   5.033 -1.0989 -3.3898 -1.7877
  324MOL0     H44706   9.966   4.521   5.291 -2.3005  0.4474 -1.4251
  324MOL0     H44707  10.135   4.493   5.245 -0.5343 -3.1583  0.3272
  324MOL0     H44708   9.958   4.215   4.993  1.9024  2.0236 -3.0848
  324MOL0     H44709  10.077   4.913   4.718 -0.7671 -0.0027  0.5963
  324MOL0     H44710  10.334   4.948   4.486  0.0711 -2.7277  0.9665
  324MOL0     H44711  10.157   4.929   4.522 -1.5956  2.1741  1.7776
  324MOL0     H44712  10.248   5.084   4.511  2.8908  0.1884 -0.0075
  325MOL0     O44713   9.473   6.244   1.875  0.3507 -0.2718  1.0496
  325MOL0     C44714   9.407   6.227   1.975  0.1289 -1.1610 -0.0620
  325MOL0     O44715   9.445   6.270   2.093 -0.3533 -0.2065 -0.0867
  325MOL0     C44716   9.546   6.361   2.093  0.4551 -0.6710  0.1909
  325MOL0     C44717   9.671   6.326   2.127  0.0197  0.1500 -0.6255
  325MOL0     C44718   9.777   6.422   2.136  0.1411  0.3736 -0.6744
  325MOL0     C44719   9.742   6.552   2.135  0.1249  1.5328 -0.5930
  325MOL0     O44720   9.827   6.647   2.166  0.0074  0.5581 -0.0837
  325MOL0     C44721   9.915   6.625   2.280 -0.6075  0.2581  0.8850
  325MOL0     C44722   9.988   6.755   2.310  0.8575 -0.3767 -0.3750
  325MOL0     C44723   9.898   6.880   2.316  0.3289 -0.3061  1.0142
  325MOL0     C44724   9.811   6.867   2.438  0.7424 -0.1533  0.3312
  325MOL0     C44725   9.727   7.001   2.442  0.1202  1.0444 -0.5687
  325MOL0     C44726   9.613   6.984   2.545 -0.1885 -0.3708 -0.7697
  325MOL0     C44727   9.470   6.975   2.484  0.1266 -0.0282  0.0482
  325MOL0     C44728   9.439   6.834   2.438  0.0046  0.7337  0.4068
  325MOL0     N44729   9.312   6.833   2.365  0.4532 -0.5965 -0.3844
  325MOL0     C44730   9.191   6.795   2.426  0.3647 -0.3073 -0.4144
  325MOL0     C44731   9.107   6.797   2.323  0.2117  0.0056  0.8550
  325MOL0     C44732   8.969   6.747   2.332 -0.3575 -0.3320  0.7482
  325MOL0     C44733   8.886   6.843   2.414 -0.3973  1.4916 -0.5270
  325MOL0     C44734   8.738   6.794   2.396  0.6333 -0.0978 -0.3966
  325MOL0     C44735   8.724   6.689   2.502  0.6743 -0.3167 -0.5618
  325MOL0     O44736   8.732   6.752   2.636 -0.2366 -0.0155 -0.4911
  325MOL0     C44737   8.629   6.779   2.717 -0.3529  0.7012 -0.1731
  325MOL0     C44738   8.650   6.781   2.852  0.0418  0.5317  0.8111
  325MOL0     C44739   8.544   6.769   2.939 -0.6560 -0.8248 -0.4872
  325MOL0     C44740   8.592   6.749   3.082 -0.0635 -0.3162  0.2377
  325MOL0     C44741   8.413   6.764   2.900 -0.3915 -0.5071  0.1130
  325MOL0     C44742   8.301   6.752   2.993 -0.1504  0.4863  1.5832
  325MOL0     O44743   8.177   6.780   2.942 -0.4828  0.7390 -0.1759
  325MOL0     C44744   8.066   6.783   3.025 -0.1464 -1.1171  0.0287
  325MOL0     C44745   8.035   6.693   3.127  0.1830 -0.5527  0.3125
  325MOL0     C44746   7.914   6.711   3.196 -0.0948  0.3940 -0.2740
  325MOL0     C44747   7.815   6.805   3.177  0.6404  0.3492  0.2580
  325MOL0     O44748   7.698   6.825   3.253  0.5382 -0.2448  0.2847
  325MOL0     C44749   7.657   6.706   3.331  0.6708 -0.5664  0.7124
  325MOL0     C44750   7.566   6.620   3.239 -0.0281 -0.3672  0.6996
  325MOL0     C44751   7.625   6.474   3.255  1.0922 -0.7963 -0.2445
  325MOL0     C44752   7.527   6.381   3.198 -0.5106 -0.3756  0.2672
  325MOL0     C44753   7.567   6.242   3.248 -0.1319 -0.0939 -0.4110
  325MOL0     C44754   7.528   6.133   3.151 -0.6202 -0.5394  0.3183
  325MOL0     C44755   7.388   6.097   3.112 -0.7538  0.1053 -0.3626
  325MOL0     C44756   7.308   6.072   3.246 -0.8622 -0.2164  0.1177
  325MOL0    Cl44757   7.367   5.919   3.310 -0.5590 -0.1709  0.2368
  325MOL0     C44758   7.849   6.893   3.074  0.3177 -0.2920  0.6506
  325MOL0     C44759   7.969   6.886   2.995  0.4210  0.7602  0.9286
  325MOL0     O44760   8.323   6.700   3.102 -0.2393  0.3312  0.0008
  325MOL0     C44761   8.394   6.775   2.759 -0.6443  0.7675  1.0373
  325MOL0     C44762   8.502   6.781   2.667  0.8301  0.3172 -0.9850
  325MOL0     N44763   9.168   6.856   2.214 -0.7176  0.0368  0.5992
  325MOL0     N44764   9.294   6.866   2.235  0.8380 -0.1521 -0.7299
  325MOL0     C44765   9.610   6.594   2.113  0.1986  0.5361  0.4075
  325MOL0     C44766   9.513   6.496   2.079  0.2479  0.3842  0.7070
  325MOL0     C44767   9.290   6.145   1.970  0.6573  0.0548 -0.2211
  325MOL0     C44768   9.238   6.086   2.091  0.1212  0.4474 -0.7512
  325MOL0     C44769   9.110   6.030   2.089 -0.9073 -0.0543 -0.1511
  325MOL0     C44770   9.032   6.022   1.967 -0.1054  1.2661 -0.4720
  325MOL0     O44771   8.913   5.950   1.977  0.4805 -0.1965  1.1117
  325MOL0     C44772   8.803   6.001   1.893  0.3047  0.6300 -0.2664
  325MOL0     C44773   8.664   5.945   1.931  0.2498  0.4195 -0.2416
  325MOL0     C44774   8.661   5.797   1.906 -1.0071 -0.4363 -0.1031
  325MOL0     C44775   8.522   5.742   1.901 -0.0730  0.8441 -0.1083
  325MOL0     C44776   8.444   5.784   2.019  0.9004  1.2156 -0.3106
  325MOL0     C44777   8.365   5.815   2.103  1.2018  0.4891 -0.5730
  325MOL0     C44778   9.094   6.067   1.854  0.5411 -0.2585  0.7959
  325MOL0     C44779   9.223   6.115   1.852 -0.3021  0.4331 -0.8451
  325MOL0     C44780   9.282   6.128   1.710 -0.2421 -0.3162  0.1866
  325MOL0     H44781   9.698   6.221   2.126 -1.4578 -0.2736  0.5929
  325MOL0     H44782   9.881   6.394   2.150 -0.4827 -0.7532  2.6015
  325MOL0     H44783   9.987   6.546   2.255 -0.3219  1.2817 -1.7874
  325MOL0     H44784   9.864   6.580   2.366  1.3848 -1.7688  1.0936
  325MOL0     H44785  10.058   6.762   2.394 -0.7558  1.1363  0.8946
  325MOL0     H44786  10.041   6.762   2.214  0.3469 -2.0492 -0.8180
  325MOL0     H44787   9.956   6.972   2.313  1.4950 -1.0474  0.2357
  325MOL0     H44788   9.829   6.873   2.232  1.0928 -1.7692  0.4676
  325MOL0     H44789   9.732   6.794   2.417 -1.6268  1.1557  3.7238
  325MOL0     H44790   9.857   6.852   2.535  1.3631 -0.5895 -0.0260
  325MOL0     H44791   9.678   7.014   2.345 -1.6773 -1.6339 -0.1266
  325MOL0     H44792   9.795   7.085   2.458  1.7088 -0.3893  0.5630
  325MOL0     H44793   9.631   6.907   2.621 -3.0841 -0.1703  0.2673
  325MOL0     H44794   9.617   7.074   2.608 -1.9105 -1.5174  1.1453
  325MOL0     H44795   9.448   7.050   2.408 -2.4324  1.4898  2.0867
  325MOL0     H44796   9.395   6.995   2.562 -0.2663  2.0806 -0.8067
  325MOL0     H44797   9.508   6.819   2.354 -0.4933 -2.5702  0.4706
  325MOL0     H44798   9.445   6.761   2.519  1.5908 -1.0341 -1.1982
  325MOL0     H44799   9.177   6.762   2.528  0.3821  2.5911  0.6118
  325MOL0     H44800   8.961   6.644   2.368 -1.0983 -0.6133 -0.1689
  325MOL0     H44801   8.920   6.746   2.234  2.4886  0.3573 -0.7676
  325MOL0     H44802   8.926   6.843   2.516 -3.5796 -1.3272  0.9139
  325MOL0     H44803   8.879   6.944   2.371 -0.5244  1.6504 -0.1322
  325MOL0     H44804   8.666   6.871   2.424 -2.3736 -2.4977 -0.9306
  325MOL0     H44805   8.714   6.750   2.298  3.6132  0.5744 -1.5331
  325MOL0     H44806   8.629   6.638   2.483  2.4435 -2.7585 -4.0446
  325MOL0     H44807   8.796   6.608   2.491 -0.5629 -1.7715  1.3430
  325MOL0     H44808   8.755   6.785   2.876  0.4308 -2.0891 -0.0671
  325MOL0     H44809   8.696   6.783   3.081 -0.1162 -0.1326 -1.2361
  325MOL0     H44810   8.576   6.644   3.104 -1.2362 -0.2678 -0.2868
  325MOL0     H44811   8.528   6.802   3.153 -2.1368  0.1992 -1.8643
  325MOL0     H44812   8.102   6.612   3.154  1.7315  1.3222  2.4620
  325MOL0     H44813   7.903   6.633   3.271 -0.0751  1.5551  0.9672
  325MOL0     H44814   7.737   6.650   3.379 -0.5519 -1.9059  1.2744
  325MOL0     H44815   7.584   6.731   3.409 -1.2266 -0.6754 -0.9345
  325MOL0     H44816   7.461   6.619   3.268 -1.0743  1.4116 -2.5097
  325MOL0     H44817   7.566   6.654   3.135 -1.0766 -0.7551  0.5634
  325MOL0     H44818   7.637   6.440   3.359 -2.5857  1.0481  0.9531
  325MOL0     H44819   7.710   6.457   3.188 -0.8252  1.2093 -3.4508
  325MOL0     H44820   7.523   6.381   3.088 -4.1468 -2.4167  0.2436
  325MOL0     H44821   7.431   6.412   3.241 -1.3141 -3.7240  1.2370
  325MOL0     H44822   7.676   6.234   3.244 -0.2783 -2.0114 -1.6174
  325MOL0     H44823   7.532   6.224   3.350 -1.7677 -0.7376 -1.0554
  325MOL0     H44824   7.587   6.053   3.197 -0.2823  1.4323  3.6404
  325MOL0     H44825   7.577   6.155   3.056  2.8231 -0.3525  1.9711
  325MOL0     H44826   7.392   6.012   3.044  0.3746  0.7109 -1.0992
  325MOL0     H44827   7.350   6.181   3.053  0.0235  0.2032 -0.7342
  325MOL0     H44828   7.201   6.064   3.225 -1.1238  0.1169  1.2563
  325MOL0     H44829   7.318   6.153   3.319 -0.4412  0.6045 -0.8344
  325MOL0     H44830   7.780   6.976   3.062 -1.5575 -1.9902 -1.2047
  325MOL0     H44831   8.008   6.951   2.917  0.4637  0.5226  0.7508
  325MOL0     H44832   8.292   6.777   2.722 -1.6041 -0.4497  3.3981
  325MOL0     H44833   8.490   6.773   2.560 -4.1152 -1.2360 -0.5576
  325MOL0     H44834   9.589   6.697   2.085  0.4742  0.3671 -0.4474
  325MOL0     H44835   9.418   6.540   2.050 -0.2146 -1.2700 -0.4601
  325MOL0     H44836   9.286   6.089   2.189  1.7797 -0.6372 -1.4871
  325MOL0     H44837   9.058   5.994   2.178 -2.0247  3.1440  0.6219
  325MOL0     H44838   8.798   6.110   1.897 -3.0464  0.5467  0.2207
  325MOL0     H44839   8.826   5.980   1.788  2.6775 -0.7637  0.4472
  325MOL0     H44840   8.592   5.990   1.862 -0.1707 -3.5580 -2.7628
  325MOL0     H44841   8.649   5.969   2.037  1.5179  1.4361 -0.2684
  325MOL0     H44842   8.713   5.774   1.813 -0.6376 -0.7448  0.1767
  325MOL0     H44843   8.723   5.751   1.984  2.0380  2.9660 -0.2230
  325MOL0     H44844   8.529   5.633   1.906  1.6717  0.9846  2.8299
  325MOL0     H44845   8.470   5.763   1.807 -0.0994 -0.6911 -0.4714
  325MOL0     H44846   8.299   5.836   2.185  0.7618 -1.1065 -0.4773
  325MOL0     H44847   9.036   6.054   1.764 -1.8853  0.4702  2.1484
  325MOL0     H44848   9.209   6.101   1.634  1.7679  1.8769 -2.7610
  325MOL0     H44849   9.315   6.230   1.690 -0.3837 -0.2703  0.1909
  325MOL0     H44850   9.374   6.070   1.695 -1.8971 -3.5273  1.4112
  326MOL0     O44851   6.215   5.071   0.034 -0.3176  0.0964  0.1594
  326MOL0     C44852   6.099   5.067   0.083  0.1189 -0.6838  0.7369
  326MOL0     O44853   6.064   5.132   0.194  0.3119 -0.3561  0.4359
  326MOL0     C44854   6.166   5.190   0.257 -0.3160 -0.6355  0.2244
  326MOL0     C44855   6.224   5.140   0.371 -0.2512  0.6260  0.6864
  326MOL0     C44856   6.325   5.205   0.444 -1.1431  0.1116  0.2484
  326MOL0     C44857   6.373   5.322   0.399 -0.2421 -0.3717  0.0550
  326MOL0     O44858   6.482   5.383   0.464 -0.2252 -0.3101 -0.2527
  326MOL0     C44859   6.612   5.319   0.462  0.3657 -0.2822  0.3996
  326MOL0     C44860   6.728   5.414   0.501  0.4900 -0.0505 -0.2588
  326MOL0     C44861   6.759   5.527   0.398  0.4189 -0.1603 -0.0356
  326MOL0     C44862   6.653   5.618   0.339  0.4237  0.5820 -0.5500
  326MOL0     C44863   6.709   5.746   0.267 -0.7506 -0.0132 -0.4237
  326MOL0     C44864   6.592   5.805   0.198  0.9075 -0.0801  0.3286
  326MOL0     C44865   6.623   5.948   0.153  0.0141 -0.5212 -0.0536
  326MOL0     C44866   6.495   6.030   0.111 -0.7060 -0.4473 -0.0325
  326MOL0     N44867   6.504   6.181   0.119  0.5796  0.3648 -0.8624
  326MOL0     C44868   6.567   6.262   0.204  0.1750  0.1250 -0.1931
  326MOL0     C44869   6.589   6.378   0.145  0.5962 -0.7892  0.0910
  326MOL0     C44870   6.651   6.510   0.201  0.6199  0.3524 -0.0743
  326MOL0     C44871   6.660   6.606   0.090 -0.0445 -0.4795  0.3344
  326MOL0     C44872   6.734   6.731   0.135 -0.0839  0.3235 -0.5338
  326MOL0     C44873   6.732   6.837   0.026  0.0456 -0.3044 -0.7149
  326MOL0     O44874   6.839   6.928   0.060  0.2856  0.6141 -0.4160
  326MOL0     C44875   6.837   7.048  -0.009  0.0511  0.3568  0.1336
  326MOL0     C44876   6.745   7.091  -0.106 -0.3643  0.3307 -0.0442
  326MOL0     C44877   6.759   7.225  -0.164 -0.0907  0.2463 -0.4781
  326MOL0     C44878   6.648   7.268  -0.256  0.0023  0.5133 -0.2979
  326MOL0     C44879   6.863   7.307  -0.123  0.8045 -0.6174  1.5184
  326MOL0     C44880   6.899   7.441  -0.178  1.4051 -0.4264  0.5740
  326MOL0     O44881   6.987   7.512  -0.108 -0.5503 -0.0903  0.9838
  326MOL0     C44882   7.021   7.633  -0.174 -0.3552 -0.2779 -0.1611
  326MOL0     C44883   6.949   7.750  -0.160 -0.0448  0.3772  0.0236
  326MOL0     C44884   6.979   7.868  -0.238 -0.3673 -0.6873 -0.0458
  326MOL0     C44885   7.084   7.865  -0.330 -0.1124  0.3912  0.1059
  326MOL0     O44886   7.105   7.967  -0.421  0.1386 -0.0527  0.4698
  326MOL0     C44887   7.084   8.105  -0.378  0.6672  0.4371 -0.6179
  326MOL0     C44888   7.218   8.183  -0.424  0.1476  0.1876 -0.3950
  326MOL0     C44889   7.344   8.132  -0.368  0.3325  0.5108 -0.2490
  326MOL0     C44890   7.471   8.228  -0.372 -0.2412 -0.0360 -0.5662
  326MOL0     C44891   7.563   8.170  -0.264 -0.3134 -0.6157  0.2024
  326MOL0     C44892   7.704   8.228  -0.281 -0.3777 -0.4060 -1.1851
  326MOL0     C44893   7.796   8.148  -0.181  0.8716 -0.8403  0.0849
  326MOL0     C44894   7.936   8.226  -0.178  0.0652  0.8146 -0.2331
  326MOL0    Cl44895   8.031   8.167  -0.045  0.3320 -0.0749 -0.1836
  326MOL0     C44896   7.157   7.743  -0.337 -0.5225  0.5867  0.6155
  326MOL0     C44897   7.129   7.632  -0.265  0.2254  0.4749  0.4178
  326MOL0     O44898   6.854   7.472  -0.285  0.3579 -0.3020 -0.0876
  326MOL0     C44899   6.956   7.258  -0.031 -0.3922  1.2105 -0.7869
  326MOL0     C44900   6.941   7.132   0.028  0.2014  0.2918  0.8820
  326MOL0     N44901   6.532   6.372   0.014  0.9366 -0.4859  0.4673
  326MOL0     N44902   6.489   6.253   0.011  1.1375  0.1281  1.0210
  326MOL0     C44903   6.318   5.386   0.290 -0.1695 -0.2414  0.3985
  326MOL0     C44904   6.221   5.318   0.215  0.4836 -0.1535  0.3377
  326MOL0     C44905   5.997   4.981   0.019 -0.5392  0.3814 -0.0989
  326MOL0     C44906   5.896   4.941   0.111 -0.4798 -1.0040  0.4527
  326MOL0     C44907   5.804   4.843   0.082  0.0794  0.3476  0.9109
  326MOL0     C44908   5.805   4.790  -0.047  0.1360 -0.2421 -0.2069
  326MOL0     O44909   5.716   4.684  -0.059  0.4230 -0.0332 -0.6429
  326MOL0     C44910   5.722   4.595  -0.170  0.4478  0.2415 -0.6067
  326MOL0     C44911   5.675   4.451  -0.125  0.3838 -0.4856  0.5551
  326MOL0     C44912   5.526   4.449  -0.095  0.7230  0.4077 -0.4959
  326MOL0     C44913   5.425   4.460  -0.215 -0.0426 -0.8278  0.2814
  326MOL0     C44914   5.283   4.460  -0.167  1.1879  0.2759 -0.8850
  326MOL0     C44915   5.165   4.449  -0.126 -0.4227 -0.1827 -0.5238
  326MOL0     C44916   5.904   4.829  -0.136 -0.2052  0.2226  0.8015
  326MOL0     C44917   6.001   4.928  -0.104  0.3210  0.0718  0.3638
  326MOL0     C44918   6.086   4.965  -0.219  0.2034  0.1045  0.0235
  326MOL0     H44919   6.184   5.045   0.405  0.1414 -1.1129 -3.2021
  326MOL0     H44920   6.377   5.151   0.522  0.8785  4.0480  1.9488
  326MOL0     H44921   6.632   5.273   0.365 -0.6076  0.2549 -0.0703
  326MOL0     H44922   6.624   5.234   0.530  1.2430 -1.5035 -1.2258
  326MOL0     H44923   6.700   5.456   0.598 -0.6577 -0.8277 -0.2299
  326MOL0     H44924   6.820   5.357   0.521 -1.7733 -4.2475 -0.7490
  326MOL0     H44925   6.831   5.596   0.443  1.8948  0.1472 -2.6334
  326MOL0     H44926   6.830   5.483   0.326  3.1981  0.3713  2.2080
  326MOL0     H44927   6.614   5.559   0.256  0.2223 -1.8726  1.1762
  326MOL0     H44928   6.579   5.638   0.418  3.1679  0.5485  2.2293
  326MOL0     H44929   6.788   5.711   0.200  2.3228  2.8401  1.4305
  326MOL0     H44930   6.762   5.814   0.334  1.2296 -0.7931 -1.1266
  326MOL0     H44931   6.559   5.736   0.119  0.1787 -0.7631  1.2101
  326MOL0     H44932   6.511   5.805   0.271 -1.7827 -3.7762 -2.2697
  326MOL0     H44933   6.705   5.940   0.080  0.4744 -1.4619  0.5447
  326MOL0     H44934   6.671   5.998   0.237  0.7241  0.3092 -0.9210
  326MOL0     H44935   6.470   5.995   0.010  1.7181  2.5414 -1.8482
  326MOL0     H44936   6.416   6.000   0.180 -2.8853  3.2880 -0.6411
  326MOL0     H44937   6.607   6.225   0.298  0.7970 -0.7970 -0.8058
  326MOL0     H44938   6.746   6.477   0.244  1.4750  0.9761 -1.4126
  326MOL0     H44939   6.591   6.552   0.283  1.9658 -0.1229  1.1821
  326MOL0     H44940   6.718   6.561   0.009 -0.3327  0.3705 -0.3651
  326MOL0     H44941   6.561   6.636   0.053 -0.0093 -0.2632  0.4161
  326MOL0     H44942   6.689   6.774   0.225 -0.3716  0.8225 -0.9096
  326MOL0     H44943   6.839   6.710   0.158  0.0440  0.7866 -0.6719
  326MOL0     H44944   6.751   6.787  -0.070  2.5329  0.3538 -0.6378
  326MOL0     H44945   6.633   6.883   0.033 -0.2505 -0.5403 -2.7295
  326MOL0     H44946   6.662   7.032  -0.143 -0.6121  0.8462 -0.3177
  326MOL0     H44947   6.559   7.205  -0.249  0.4034 -0.1156 -0.7157
  326MOL0     H44948   6.678   7.256  -0.360 -0.8534  1.2552 -0.6379
  326MOL0     H44949   6.627   7.372  -0.231  1.2773  0.5490  0.7581
  326MOL0     H44950   6.861   7.750  -0.095 -0.1203 -1.1856 -0.0392
  326MOL0     H44951   6.911   7.952  -0.233  2.5304  1.7959  4.2663
  326MOL0     H44952   6.988   8.145  -0.411 -0.3409 -0.4731  1.0477
  326MOL0     H44953   7.076   8.113  -0.269 -0.2928  1.4049 -0.7417
  326MOL0     H44954   7.225   8.168  -0.533  1.8931 -2.9836  0.0190
  326MOL0     H44955   7.203   8.291  -0.414  0.9790  0.1682  1.3864
  326MOL0     H44956   7.353   8.040  -0.427 -0.5046 -0.6682  1.3710
  326MOL0     H44957   7.326   8.127  -0.260  1.4277  2.0919  0.0348
  326MOL0     H44958   7.452   8.335  -0.361  0.6333 -0.0983  2.2514
  326MOL0     H44959   7.511   8.218  -0.474 -1.9260 -3.0521 -1.0326
  326MOL0     H44960   7.514   8.200  -0.171 -1.5545  2.6266 -1.3225
  326MOL0     H44961   7.570   8.061  -0.273  1.5564 -0.3776 -2.4666
  326MOL0     H44962   7.701   8.334  -0.253  1.9280 -0.3558 -0.8941
  326MOL0     H44963   7.749   8.213  -0.379  2.5319 -1.9774  0.2631
  326MOL0     H44964   7.814   8.044  -0.210 -0.2372 -2.2290  3.8398
  326MOL0     H44965   7.750   8.136  -0.083  0.5511 -1.0942 -0.0971
  326MOL0     H44966   7.927   8.335  -0.180  3.2309  1.2953  2.8024
  326MOL0     H44967   8.003   8.202  -0.260 -2.8199 -0.3229 -2.4267
  326MOL0     H44968   7.233   7.725  -0.412 -2.5837 -1.2627 -1.1748
  326MOL0     H44969   7.184   7.541  -0.289  0.0866 -0.6496  3.8395
  326MOL0     H44970   7.048   7.305   0.001  1.1625 -1.4105 -1.1811
  326MOL0     H44971   7.025   7.099   0.089  0.3486  2.4242  1.9322
  326MOL0     H44972   6.347   5.479   0.241  0.0916 -2.1476 -3.5006
  326MOL0     H44973   6.180   5.348   0.119 -0.8405  1.0803  1.2455
  326MOL0     H44974   5.893   4.977   0.213  0.8338 -0.7327  0.4175
  326MOL0     H44975   5.732   4.815   0.159 -0.2246 -0.2165  0.4308
  326MOL0     H44976   5.672   4.647  -0.251 -0.3640 -0.0046 -0.2830
  326MOL0     H44977   5.827   4.581  -0.197  0.6262  1.2710 -0.4680
  326MOL0     H44978   5.731   4.420  -0.036  0.5397  2.1715  1.4865
  326MOL0     H44979   5.684   4.374  -0.201  1.1107 -1.5712  1.7096
  326MOL0     H44980   5.509   4.349  -0.053  0.8369  1.3680  1.9664
  326MOL0     H44981   5.498   4.513  -0.011  0.0879 -1.8777  1.1301
  326MOL0     H44982   5.461   4.380  -0.281  0.0687  0.5006 -1.3519
  326MOL0     H44983   5.455   4.554  -0.264  2.8445 -0.7482  1.9479
  326MOL0     H44984   5.059   4.441  -0.107 -0.7842  4.3841  0.6316
  326MOL0     H44985   5.929   4.771  -0.225  0.4484  1.2014  0.3385
  326MOL0     H44986   6.191   4.954  -0.191  0.4209 -1.0479 -1.1122
  326MOL0     H44987   6.061   4.911  -0.311 -2.4119  1.5303 -0.1734
  326MOL0     H44988   6.062   5.070  -0.233 -2.9158 -0.6182 -0.8606
  327MOL0     O44989   4.621   1.474   6.989 -0.0433 -0.0344 -0.4327
  327MOL0     C44990   4.683   1.386   7.043 -0.9922  0.6388  0.3805
  327MOL0     O44991   4.806   1.397   7.099  0.8267 -0.3989  0.1112
  327MOL0     C44992   4.872   1.521   7.102 -0.0588 -0.0329  0.6872
  327MOL0     C44993   4.945   1.530   7.224 -0.4061  0.1454  0.8770
  327MOL0     C44994   5.019   1.655   7.243 -0.2914 -0.1537  0.1755
  327MOL0     C44995   5.039   1.748   7.144  0.5930  0.1870 -0.8280
  327MOL0     O44996   5.133   1.856   7.170  0.6021  0.3437 -0.0261
  327MOL0     C44997   5.104   1.971   7.100  0.2450 -0.1685 -1.0057
  327MOL0     C44998   5.166   2.086   7.169 -0.1003  0.7126 -0.1177
  327MOL0     C44999   5.164   2.221   7.085  0.3686  0.0596  0.1356
  327MOL0     C45000   5.281   2.235   6.989  0.2043 -1.1389 -0.5757
  327MOL0     C45001   5.278   2.374   6.909  1.0232  0.1704  0.3504
  327MOL0     C45002   5.410   2.424   6.846  0.2051 -0.1045 -0.5271
  327MOL0     C45003   5.524   2.468   6.942  0.0605  0.8054 -0.2619
  327MOL0     C45004   5.642   2.508   6.855 -0.2157  0.2002 -0.6295
  327MOL0     N45005   5.757   2.552   6.918  0.2501 -0.2314 -0.9082
  327MOL0     C45006   5.867   2.470   6.949 -0.4796 -0.5978  0.7457
  327MOL0     C45007   5.958   2.555   7.008  0.5972 -0.0948 -0.9882
  327MOL0     C45008   6.105   2.529   7.032  0.2202  0.9095 -0.0835
  327MOL0     C45009   6.174   2.631   7.125  0.2499  0.1170  0.2460
  327MOL0     C45010   6.303   2.584   7.187  0.5122 -0.0561  1.2279
  327MOL0     C45011   6.424   2.558   7.093 -0.6818  0.4294 -0.3004
  327MOL0     O45012   6.538   2.514   7.171  0.8977 -0.3941 -0.4028
  327MOL0     C45013   6.646   2.467   7.103 -0.2081  0.0924 -0.3780
  327MOL0     C45014   6.760   2.425   7.176  0.8210  0.2769  0.3270
  327MOL0     C45015   6.864   2.352   7.124 -0.2925  0.0005 -0.4653
  327MOL0     C45016   6.968   2.309   7.219 -0.6171 -0.8832  1.0159
  327MOL0     C45017   6.862   2.331   6.983 -0.1405 -0.8053  0.6011
  327MOL0     C45018   6.966   2.254   6.923 -0.2906 -0.0842 -0.8062
  327MOL0     O45019   6.930   2.151   6.837  0.1731 -0.4954 -0.6142
  327MOL0     C45020   7.029   2.061   6.809  0.6505 -1.0739  0.5534
  327MOL0     C45021   7.106   2.080   6.689 -0.0018  0.0334 -0.0410
  327MOL0     C45022   7.201   1.987   6.669  0.2243  0.6679 -0.5378
  327MOL0     C45023   7.211   1.871   6.739  0.3302 -0.0915 -0.5885
  327MOL0     O45024   7.305   1.783   6.707 -0.4160  0.9102  0.2088
  327MOL0     C45025   7.382   1.719   6.807 -0.4748  0.2077  0.0106
  327MOL0     C45026   7.473   1.613   6.742 -0.2617  0.9264 -0.6489
  327MOL0     C45027   7.578   1.550   6.845 -0.5136 -0.7804  0.2267
  327MOL0     C45028   7.510   1.465   6.949 -0.6927  0.4433 -0.2004
  327MOL0     C45029   7.592   1.368   7.035  1.0017 -0.6545  0.2848
  327MOL0     C45030   7.696   1.437   7.125  0.8224  0.2132  0.4286
  327MOL0     C45031   7.770   1.344   7.217 -0.5493  0.4686  0.4747
  327MOL0     C45032   7.836   1.422   7.334  0.2120 -0.2582  0.7020
  327MOL0    Cl45033   7.936   1.553   7.265  0.0040  0.3543  0.0035
  327MOL0     C45034   7.127   1.850   6.851 -0.3919  0.8620  1.1964
  327MOL0     C45035   7.043   1.955   6.891 -0.8279 -0.2633 -0.0932
  327MOL0     O45036   7.085   2.289   6.946 -0.1494 -0.3674  0.2529
  327MOL0     C45037   6.754   2.372   6.904  0.4291  0.1854  0.5045
  327MOL0     C45038   6.651   2.449   6.964 -0.0730  0.1276  0.2435
  327MOL0     N45039   5.896   2.672   7.032  1.5888 -0.6347  0.0930
  327MOL0     N45040   5.784   2.675   6.971  0.4069 -1.2628 -0.3199
  327MOL0     C45041   4.966   1.735   7.021 -0.2865  0.4051  0.5143
  327MOL0     C45042   4.882   1.622   6.997 -0.1964  0.6955 -0.2939
  327MOL0     C45043   4.630   1.246   7.040 -0.6886 -1.1164 -0.3392
  327MOL0     C45044   4.708   1.152   7.112  0.3476  0.2210  0.3638
  327MOL0     C45045   4.673   1.020   7.105 -0.9369 -0.4719  0.0548
  327MOL0     C45046   4.566   0.969   7.039  0.9595  0.5048  0.4082
  327MOL0     O45047   4.542   0.837   7.053 -0.4717 -0.0929  0.3109
  327MOL0     C45048   4.408   0.792   7.023 -0.6573 -0.2602 -0.4042
  327MOL0     C45049   4.303   0.818   7.136 -0.2001  0.4167 -0.2198
  327MOL0     C45050   4.180   0.742   7.113  0.1801  0.2592  0.6023
  327MOL0     C45051   4.185   0.587   7.147  0.7005  0.4407 -0.4511
  327MOL0     C45052   4.054   0.521   7.128  0.0743  0.2877 -0.1929
  327MOL0     C45053   3.952   0.464   7.132  0.0899  0.3967 -0.7498
  327MOL0     C45054   4.483   1.062   6.970  0.0797 -0.6188  0.0200
  327MOL0     C45055   4.519   1.197   6.968 -0.5427 -0.3205 -0.0369
  327MOL0     C45056   4.414   1.299   6.914 -0.4431 -1.6862 -0.8417
  327MOL0     H45057   4.950   1.452   7.299  4.3096 -0.0730  0.6682
  327MOL0     H45058   5.079   1.659   7.334 -0.7545 -1.8197  0.6035
  327MOL0     H45059   4.999   1.999   7.092  0.2778  0.5391  0.6202
  327MOL0     H45060   5.145   1.958   7.000 -2.1267  1.8423 -2.3362
  327MOL0     H45061   5.115   2.106   7.264 -0.7052 -0.7828 -0.0950
  327MOL0     H45062   5.266   2.061   7.206 -0.1422  0.2136 -0.3249
  327MOL0     H45063   5.075   2.223   7.021  0.6684  0.5770 -0.2711
  327MOL0     H45064   5.178   2.303   7.155 -1.4851  0.6239 -0.1023
  327MOL0     H45065   5.370   2.250   7.051 -0.1679  0.9492 -0.4977
  327MOL0     H45066   5.289   2.149   6.922 -4.0979 -2.3358  0.1602
  327MOL0     H45067   5.235   2.450   6.975  2.0354  2.2688 -1.2723
  327MOL0     H45068   5.200   2.366   6.832 -0.7623  2.0814  1.8418
  327MOL0     H45069   5.456   2.333   6.805  3.9989  1.1280  0.6007
  327MOL0     H45070   5.390   2.508   6.779  1.9669  0.1892 -0.7191
  327MOL0     H45071   5.550   2.378   6.998  0.7712  0.3071 -1.3524
  327MOL0     H45072   5.489   2.552   7.003  0.7354 -0.6727  2.3388
  327MOL0     H45073   5.669   2.421   6.793  1.1824  1.3864 -1.7470
  327MOL0     H45074   5.613   2.583   6.781  1.6532  2.2415  0.5824
  327MOL0     H45075   5.899   2.374   6.911 -0.1514  0.3340 -1.4620
  327MOL0     H45076   6.148   2.533   6.932 -1.4285  1.8454 -0.7993
  327MOL0     H45077   6.113   2.431   7.080 -2.2259  2.5977  4.3796
  327MOL0     H45078   6.196   2.721   7.068 -0.9187  0.4416  0.2748
  327MOL0     H45079   6.098   2.660   7.198  0.6675 -0.2480  0.8300
  327MOL0     H45080   6.331   2.644   7.275  0.9732  1.3067  0.1974
  327MOL0     H45081   6.287   2.485   7.231  2.4484 -1.4157 -0.8999
  327MOL0     H45082   6.390   2.487   7.017  0.6079 -1.1004  0.4617
  327MOL0     H45083   6.462   2.647   7.042  0.7414  0.0332  0.0038
  327MOL0     H45084   6.758   2.459   7.279 -0.8989  1.6206 -0.1144
  327MOL0     H45085   7.036   2.395   7.217  0.1308 -1.3189 -3.4550
  327MOL0     H45086   7.029   2.225   7.184  0.0623 -1.4692  3.4002
  327MOL0     H45087   6.928   2.278   7.316 -2.0106 -2.2995  0.0346
  327MOL0     H45088   7.092   2.168   6.627 -1.2901 -0.6287 -0.7350
  327MOL0     H45089   7.256   1.998   6.576 -1.8990  0.7332 -1.8780
  327MOL0     H45090   7.436   1.798   6.859  0.8885 -0.9779  0.4641
  327MOL0     H45091   7.321   1.657   6.873  0.6284  0.5136  1.3615
  327MOL0     H45092   7.411   1.545   6.682  0.1078  0.9219 -1.0367
  327MOL0     H45093   7.539   1.662   6.670  1.3214  2.4781  1.7222
  327MOL0     H45094   7.641   1.621   6.899  1.8154 -1.8378 -0.9453
  327MOL0     H45095   7.638   1.494   6.773 -3.0885 -1.1290 -1.7758
  327MOL0     H45096   7.436   1.408   6.892  1.3135 -0.4119 -2.0659
  327MOL0     H45097   7.462   1.533   7.021 -1.0696  0.8625 -0.8382
  327MOL0     H45098   7.530   1.308   7.102 -1.5483  3.1630  1.6178
  327MOL0     H45099   7.627   1.293   6.963 -2.7028 -2.9322  0.5681
  327MOL0     H45100   7.659   1.524   7.180 -0.8537 -1.2586  1.6952
  327MOL0     H45101   7.773   1.474   7.055  0.8822  0.7745  0.7819
  327MOL0     H45102   7.847   1.301   7.152  0.2407  2.5558 -0.0661
  327MOL0     H45103   7.707   1.271   7.268 -0.8572 -0.9962 -1.8707
  327MOL0     H45104   7.898   1.359   7.398  1.2218  1.1012  1.0959
  327MOL0     H45105   7.758   1.470   7.394  0.6813 -0.1124  1.1927
  327MOL0     H45106   7.132   1.760   6.911 -0.5372  0.4159  0.5399
  327MOL0     H45107   6.985   1.943   6.982 -0.9166 -4.9222 -0.5692
  327MOL0     H45108   6.744   2.332   6.804 -1.5566  0.3322  0.5944
  327MOL0     H45109   6.574   2.470   6.890  1.5565  0.2012 -1.4968
  327MOL0     H45110   4.974   1.806   6.939 -0.9474  0.4575  0.4930
  327MOL0     H45111   4.822   1.616   6.907  1.7166  2.4091 -1.7769
  327MOL0     H45112   4.803   1.165   7.164  1.7818  0.7205 -2.2246
  327MOL0     H45113   4.733   0.943   7.152  0.7593 -0.7751 -2.4153
  327MOL0     H45114   4.378   0.816   6.921 -1.4803 -0.9506 -0.3387
  327MOL0     H45115   4.410   0.683   7.012  2.9222 -0.4322  0.7788
  327MOL0     H45116   4.286   0.926   7.136  0.3782  0.8280 -5.6854
  327MOL0     H45117   4.345   0.784   7.231  0.9194  2.7887  0.2296
  327MOL0     H45118   4.102   0.785   7.176 -1.9950 -2.0641 -0.3502
  327MOL0     H45119   4.133   0.744   7.014  0.2418 -1.0878  0.5356
  327MOL0     H45120   4.221   0.576   7.250 -0.7462  1.7451  0.2415
  327MOL0     H45121   4.258   0.531   7.088 -1.3257 -3.3387  0.3118
  327MOL0     H45122   3.862   0.406   7.128 -0.9415  1.9180 -0.4810
  327MOL0     H45123   4.390   1.027   6.926 -0.4924  0.9806 -0.1016
  327MOL0     H45124   4.456   1.359   6.833 -0.5552 -1.4811 -0.7481
  327MOL0     H45125   4.317   1.258   6.883 -1.3363  1.4680 -2.7358
  327MOL0     H45126   4.400   1.368   6.998  0.3379 -1.3964 -0.9465
  328MOL0     O45127  10.317   4.744   5.574 -0.4586  0.7773  0.5966
  328MOL0     C45128  10.203   4.784   5.562  0.6853  0.6902  0.0675
  328MOL0     O45129  10.082   4.726   5.601 -0.2936 -0.7192  0.3012
  328MOL0     C45130  10.076   4.599   5.645 -0.2153  0.7406 -0.9730
  328MOL0     C45131  10.023   4.576   5.774 -0.1229  0.6374 -0.5761
  328MOL0     C45132   9.992   4.443   5.815  0.2027 -0.8082 -0.5024
  328MOL0     C45133  10.009   4.340   5.738  0.2960  1.0116 -0.5599
  328MOL0     O45134   9.988   4.208   5.773  0.4080  0.3000 -0.0571
  328MOL0     C45135   9.890   4.180   5.867  0.0335 -0.1773  0.4670
  328MOL0     C45136   9.858   4.033   5.861 -0.1132  0.2410  0.1509
  328MOL0     C45137   9.982   3.941   5.900  0.6578 -0.9261  0.4648
  328MOL0     C45138   9.928   3.790   5.893 -0.1468 -0.0445  0.6273
  328MOL0     C45139   9.944   3.715   5.760 -0.6037  0.0608 -0.6751
  328MOL0     C45140  10.085   3.642   5.730 -0.2377 -1.4096  0.1206
  328MOL0     C45141  10.074   3.545   5.619  0.5720  0.5593  0.4794
  328MOL0     C45142  10.204   3.467   5.571  0.4099  0.5386 -0.2983
  328MOL0     N45143  10.245   3.381   5.677  0.9480  0.2507  0.6462
  328MOL0     C45144  10.173   3.273   5.735  0.8104  0.7463 -0.0515
  328MOL0     C45145  10.247   3.237   5.841 -0.1278  0.0537 -0.2445
  328MOL0     C45146  10.228   3.138   5.954  0.6813 -0.1770  0.1950
  328MOL0     C45147  10.185   3.220   6.081 -0.4351  1.4628  0.6208
  328MOL0     C45148  10.040   3.260   6.056 -1.0908 -0.1367 -1.0452
  328MOL0     C45149  10.024   3.405   6.098 -0.4502  0.7297  0.7288
  328MOL0     O45150   9.898   3.451   6.040  0.0068 -0.1782 -1.3437
  328MOL0     C45151   9.807   3.534   6.106 -0.6438 -0.0001 -0.8831
  328MOL0     C45152   9.692   3.558   6.032  0.1674 -0.0526 -0.2014
  328MOL0     C45153   9.611   3.668   6.062  0.4248  0.4060 -0.6243
  328MOL0     C45154   9.518   3.709   5.950  0.3879 -0.9136  0.2896
  328MOL0     C45155   9.641   3.744   6.179  0.2367 -0.1684 -0.1198
  328MOL0     C45156   9.565   3.868   6.204  0.5866 -0.7725 -0.6775
  328MOL0     O45157   9.637   3.964   6.271 -0.7461  0.6473  0.3853
  328MOL0     C45158   9.591   4.095   6.275  0.5190  0.5629 -0.9533
  328MOL0     C45159   9.511   4.132   6.384 -0.3400 -0.1850 -0.5162
  328MOL0     C45160   9.444   4.257   6.382 -0.4853  0.4891 -0.9713
  328MOL0     C45161   9.455   4.356   6.280 -0.5871 -0.4754 -0.1126
  328MOL0     O45162   9.380   4.473   6.263 -0.1399  0.9460  0.0070
  328MOL0     C45163   9.307   4.468   6.140  0.5941  0.8227 -0.2245
  328MOL0     C45164   9.301   4.615   6.080  0.3298 -0.5915 -0.5259
  328MOL0     C45165   9.425   4.650   6.001  0.1591 -1.1625  0.2814
  328MOL0     C45166   9.438   4.797   5.987 -0.1366 -0.3997  0.5072
  328MOL0     C45167   9.575   4.827   5.929 -0.0812  0.1447  0.9144
  328MOL0     C45168   9.596   4.978   5.912  0.0291  0.3266 -0.0433
  328MOL0     C45169   9.741   5.002   5.869  0.3468 -0.1552  0.4627
  328MOL0     C45170   9.788   5.151   5.889  0.8746  0.3076  0.5093
  328MOL0    Cl45171   9.790   5.186   6.071 -0.3184  0.2083  0.0712
  328MOL0     C45172   9.548   4.320   6.180  0.2555  0.2417 -0.2267
  328MOL0     C45173   9.608   4.189   6.168 -0.0074 -0.3509 -0.1231
  328MOL0     O45174   9.442   3.883   6.196 -0.0935  0.4245  0.3800
  328MOL0     C45175   9.759   3.713   6.256  0.1601 -1.1942 -0.1254
  328MOL0     C45176   9.843   3.622   6.211 -0.3929  0.4229 -0.4713
  328MOL0     N45177  10.349   3.327   5.852 -0.6458  0.7887 -0.6824
  328MOL0     N45178  10.343   3.414   5.758 -0.3412  0.0095 -0.8260
  328MOL0     C45179  10.061   4.354   5.606  0.2570 -0.8666  0.3601
  328MOL0     C45180  10.097   4.486   5.567 -0.4309  0.6146 -0.0350
  328MOL0     C45181  10.192   4.923   5.484  0.4861  0.7850  0.1137
  328MOL0     C45182  10.069   4.994   5.511  0.6229  0.0580  0.0506
  328MOL0     C45183  10.029   5.103   5.437 -0.5696 -0.3063 -0.5799
  328MOL0     C45184  10.124   5.167   5.357  0.3420 -0.1641  0.3623
  328MOL0     O45185  10.086   5.284   5.293  0.0425  0.1126 -0.4048
  328MOL0     C45186  10.116   5.405   5.362 -0.1976  0.0305  0.1201
  328MOL0     C45187  10.265   5.440   5.348  0.4740 -0.2518  0.2569
  328MOL0     C45188  10.311   5.554   5.435  0.6015 -0.3217 -0.5172
  328MOL0     C45189  10.455   5.580   5.410 -0.4883  0.3738 -0.3851
  328MOL0     C45190  10.543   5.480   5.467  0.0132 -0.1509  0.4502
  328MOL0     C45191  10.613   5.412   5.544  0.3648 -0.2347 -0.8994
  328MOL0     C45192  10.249   5.109   5.331 -0.7381  0.4342 -0.9355
  328MOL0     C45193  10.287   4.988   5.397  0.0950 -0.3167  0.0535
  328MOL0     C45194  10.413   4.917   5.346 -0.4616  0.1666  0.8457
  328MOL0     H45195  10.018   4.660   5.842  2.3544 -0.4023  1.0226
  328MOL0     H45196   9.961   4.439   5.918  4.7483  0.8354  1.1723
  328MOL0     H45197   9.795   4.230   5.847 -0.0909 -1.3276 -2.1056
  328MOL0     H45198   9.920   4.214   5.967 -0.8992  1.7735  0.1335
  328MOL0     H45199   9.777   4.021   5.934 -2.1000  2.6777 -1.4783
  328MOL0     H45200   9.825   4.002   5.762 -0.3867 -0.4551  0.4581
  328MOL0     H45201  10.063   3.959   5.829  0.6126  4.0284  1.3261
  328MOL0     H45202  10.025   3.963   5.998 -0.6703 -2.2691  1.4020
  328MOL0     H45203   9.972   3.733   5.975 -2.7525 -1.0855  1.4088
  328MOL0     H45204   9.820   3.800   5.905 -0.0415 -0.0949  1.6614
  328MOL0     H45205   9.920   3.785   5.679 -2.3647 -2.6189 -2.6139
  328MOL0     H45206   9.871   3.634   5.761 -1.6011  0.9337 -0.8104
  328MOL0     H45207  10.159   3.719   5.705  1.7119 -3.2631 -0.0352
  328MOL0     H45208  10.125   3.588   5.817 -1.7469 -1.1143  1.0499
  328MOL0     H45209  10.048   3.592   5.524  2.8201 -0.9578 -0.9848
  328MOL0     H45210  10.013   3.461   5.653 -0.1167  0.7224 -0.3139
  328MOL0     H45211  10.182   3.403   5.485 -1.4814  0.2559  0.3554
  328MOL0     H45212  10.282   3.535   5.535 -0.7119  2.0577  0.0401
  328MOL0     H45213  10.082   3.232   5.694  1.3667  2.3773 -3.2218
  328MOL0     H45214  10.323   3.089   5.977  1.9781  1.5067 -1.3130
  328MOL0     H45215  10.160   3.056   5.928  2.4332 -1.4313 -0.6498
  328MOL0     H45216  10.186   3.144   6.160 -3.2901 -0.2466 -0.7893
  328MOL0     H45217  10.247   3.309   6.093  2.4823 -0.3613  0.3688
  328MOL0     H45218  10.003   3.248   5.954 -2.3570  0.6273 -0.6947
  328MOL0     H45219   9.962   3.210   6.115 -1.1093 -0.5631 -1.4225
  328MOL0     H45220  10.045   3.420   6.204  1.5155  0.9785  0.3462
  328MOL0     H45221  10.103   3.466   6.052  1.1103 -1.0845  0.8893
  328MOL0     H45222   9.679   3.498   5.942  0.0759 -2.0280  1.0539
  328MOL0     H45223   9.531   3.813   5.919 -2.5612 -0.5446 -0.0435
  328MOL0     H45224   9.413   3.714   5.980  0.1022  2.2937 -0.7894
  328MOL0     H45225   9.516   3.646   5.862  1.4185 -1.1503  0.4261
  328MOL0     H45226   9.494   4.060   6.462 -2.9278 -0.4881 -1.2791
  328MOL0     H45227   9.385   4.283   6.469  4.3760  1.5212  2.4335
  328MOL0     H45228   9.368   4.417   6.065  2.5004  1.1694  1.0137
  328MOL0     H45229   9.209   4.423   6.152  1.1243  0.1192  1.8985
  328MOL0     H45230   9.218   4.625   6.010 -0.3167 -0.0304  0.3035
  328MOL0     H45231   9.284   4.684   6.164  0.6414 -0.1184 -0.8437
  328MOL0     H45232   9.421   4.599   5.904 -2.0501  0.5293 -0.6279
  328MOL0     H45233   9.513   4.609   6.049  1.6611  0.3082 -1.0612
  328MOL0     H45234   9.430   4.838   6.089  3.2115 -3.0035  1.9945
  328MOL0     H45235   9.364   4.839   5.918  1.3756 -1.1286 -1.6571
  328MOL0     H45236   9.658   4.789   5.990  1.1522 -1.9691 -1.8632
  328MOL0     H45237   9.579   4.779   5.831  1.3375 -0.9350  1.4655
  328MOL0     H45238   9.573   5.034   6.003  1.4489  2.1421 -0.7354
  328MOL0     H45239   9.532   5.021   5.834  1.0855 -1.0287 -1.7296
  328MOL0     H45240   9.754   4.959   5.770  0.7615 -1.1771  0.9525
  328MOL0     H45241   9.804   4.947   5.939 -0.2052  1.4837  2.3451
  328MOL0     H45242   9.718   5.214   5.833 -0.4978 -0.4412  1.3133
  328MOL0     H45243   9.891   5.162   5.856  1.5252 -1.7644  1.7131
  328MOL0     H45244   9.568   4.385   6.096 -1.5162  1.1821  0.0476
  328MOL0     H45245   9.672   4.166   6.083  1.1233  2.3368 -0.0879
  328MOL0     H45246   9.788   3.774   6.341  1.2628 -1.3773 -0.3525
  328MOL0     H45247   9.939   3.593   6.251  0.2761 -0.9096 -2.8573
  328MOL0     H45248  10.080   4.276   5.533  1.5515 -0.9105  0.7090
  328MOL0     H45249  10.146   4.502   5.471 -0.2255  2.2091  0.3012
  328MOL0     H45250  10.006   4.953   5.589 -0.8329 -0.5265 -1.3877
  328MOL0     H45251   9.930   5.144   5.453 -0.5064 -0.2780 -0.2466
  328MOL0     H45252  10.051   5.481   5.319 -1.7827 -1.7238 -0.7732
  328MOL0     H45253  10.087   5.400   5.468  0.4472 -3.2292  0.2662
  328MOL0     H45254  10.265   5.475   5.244  0.7482 -2.3485 -0.4986
  328MOL0     H45255  10.319   5.346   5.364  0.4592 -0.1539  0.9072
  328MOL0     H45256  10.242   5.636   5.412  3.7418  2.1821 -1.7871
  328MOL0     H45257  10.302   5.541   5.543  1.7505  0.1267 -0.3603
  328MOL0     H45258  10.477   5.675   5.459  1.8846 -0.5438  0.5049
  328MOL0     H45259  10.483   5.587   5.304  1.3103  1.0288  0.0906
  328MOL0     H45260  10.680   5.374   5.618 -0.3086 -0.4271 -0.3849
  328MOL0     H45261  10.317   5.163   5.266  1.8138 -0.0109  1.1793
  328MOL0     H45262  10.454   4.961   5.254  1.5539 -3.8659 -0.4052
  328MOL0     H45263  10.490   4.902   5.422 -0.3601 -1.4740  0.4368
  328MOL0     H45264  10.380   4.816   5.319  1.2630 -0.8134  2.2432
  329MOL0     O45265   8.635   5.012   8.357  0.3519 -0.3084 -0.3360
  329MOL0     C45266   8.664   5.045   8.244 -0.2956 -0.5418 -0.3384
  329MOL0     O45267   8.789   5.081   8.192 -0.2585 -0.1311 -0.0262
  329MOL0     C45268   8.907   5.033   8.242 -0.4513 -0.6644 -0.2691
  329MOL0     C45269   8.935   4.944   8.347 -0.0402 -0.6975 -0.5340
  329MOL0     C45270   9.076   4.916   8.382  0.0492 -0.2842  0.2256
  329MOL0     C45271   9.179   4.984   8.322 -0.9902  0.0288  0.0476
  329MOL0     O45272   9.304   4.945   8.361 -0.1344  0.0021 -0.1638
  329MOL0     C45273   9.416   5.036   8.316  0.1111  0.3465 -0.1755
  329MOL0     C45274   9.545   5.009   8.389  0.6371  0.4547  0.4033
  329MOL0     C45275   9.664   5.106   8.370  0.0125  0.1375 -0.2404
  329MOL0     C45276   9.790   5.055   8.438  0.1848 -0.5957  0.2703
  329MOL0     C45277   9.905   5.130   8.373  0.0583  0.7215 -0.5420
  329MOL0     C45278   9.953   5.059   8.246  0.7188 -0.3748  0.0489
  329MOL0     C45279  10.105   5.090   8.231 -0.5563 -0.0286 -0.7947
  329MOL0     C45280  10.141   5.244   8.201  0.3466  0.3565  0.0552
  329MOL0     N45281  10.285   5.277   8.194 -0.0289  0.1893 -0.3116
  329MOL0     C45282  10.390   5.181   8.197  0.5973  1.0362  0.6826
  329MOL0     C45283  10.501   5.243   8.180 -0.0697  0.1663 -1.2004
  329MOL0     C45284  10.642   5.191   8.159  0.0818  0.4061 -0.0660
  329MOL0     C45285  10.726   5.246   8.053  0.2620 -0.4349 -0.7478
  329MOL0     C45286  10.851   5.160   8.022  0.3982  0.7767  0.3603
  329MOL0     C45287  10.904   5.206   7.899 -0.1069 -0.6907  1.0680
  329MOL0     O45288  10.970   5.338   7.897 -0.4137  0.5114 -0.6820
  329MOL0     C45289  11.094   5.362   7.952  0.6719  0.5372  0.5321
  329MOL0     C45290  11.138   5.487   7.994  0.8114 -1.1474 -0.4010
  329MOL0     C45291  11.264   5.511   8.052 -0.0959  0.8533  0.3508
  329MOL0     C45292  11.290   5.654   8.097  0.0137 -0.0472  0.0549
  329MOL0     C45293  11.350   5.400   8.080  1.8743 -0.8486  1.1127
  329MOL0     C45294  11.477   5.415   8.150 -0.0481 -0.6318 -0.2103
  329MOL0     O45295  11.524   5.302   8.211  0.2668  0.5385  0.6748
  329MOL0     C45296  11.659   5.299   8.234 -0.4813  0.3265 -0.4937
  329MOL0     C45297  11.700   5.314   8.365 -0.1187  0.7277 -0.2248
  329MOL0     C45298  11.832   5.330   8.406  0.0385  0.0784 -0.1496
  329MOL0     C45299  11.924   5.350   8.303  0.1988  0.3414 -0.6568
  329MOL0     O45300  12.052   5.384   8.332 -0.7067 -0.1980 -0.9052
  329MOL0     C45301  12.069   5.452   8.457 -0.3165  0.2655 -1.0720
  329MOL0     C45302  12.208   5.510   8.461 -0.8072  0.5931 -0.1531
  329MOL0     C45303  12.228   5.586   8.599  0.0348  0.3956  0.0477
  329MOL0     C45304  12.340   5.686   8.575 -0.0710  0.1968 -0.3036
  329MOL0     C45305  12.346   5.777   8.701  0.1949 -0.6645  0.2764
  329MOL0     C45306  12.426   5.705   8.818  0.6476 -0.6032 -1.0746
  329MOL0     C45307  12.433   5.805   8.939  0.6708 -0.3070 -0.0671
  329MOL0     C45308  12.292   5.841   8.992  0.2482 -0.1863  0.0090
  329MOL0    Cl45309  12.315   5.862   9.164 -0.0466 -0.0801 -0.0260
  329MOL0     C45310  11.886   5.328   8.169 -0.6739 -0.6186  0.1617
  329MOL0     C45311  11.758   5.310   8.130  0.3337  1.2318 -0.4122
  329MOL0     O45312  11.545   5.520   8.138 -0.4952 -0.4574  0.1933
  329MOL0     C45313  11.305   5.275   8.046  1.0642 -0.3960  0.1747
  329MOL0     C45314  11.180   5.257   7.982  0.3270  0.1023  0.6844
  329MOL0     N45315  10.466   5.375   8.166 -0.1310 -0.3070 -0.5158
  329MOL0     N45316  10.337   5.400   8.179  0.3983 -0.5941  0.1753
  329MOL0     C45317   9.148   5.074   8.220  0.5139  0.6300 -0.3060
  329MOL0     C45318   9.018   5.089   8.180  0.3067 -0.2616  0.5635
  329MOL0     C45319   8.552   5.053   8.152 -0.9964 -0.9438  0.8146
  329MOL0     C45320   8.424   5.041   8.200  0.6151  0.8585 -0.6969
  329MOL0     C45321   8.304   5.065   8.127  0.7349  0.3645 -0.2523
  329MOL0     C45322   8.314   5.120   8.001  0.8973  0.6280  0.1616
  329MOL0     O45323   8.201   5.168   7.935 -0.3964 -0.1596 -0.0258
  329MOL0     C45324   8.068   5.123   7.977 -0.7029 -0.3142  0.5572
  329MOL0     C45325   8.010   5.227   8.074  0.5234 -0.5583  0.8046
  329MOL0     C45326   7.992   5.364   8.009 -0.2870  0.3908 -0.1901
  329MOL0     C45327   8.047   5.482   8.095  0.6068  0.7129  0.1608
  329MOL0     C45328   7.939   5.539   8.184 -1.0540  0.6259  0.2644
  329MOL0     C45329   7.842   5.586   8.231  0.1130  1.0636 -0.8701
  329MOL0     C45330   8.439   5.129   7.942  0.7664 -0.2970 -0.0045
  329MOL0     C45331   8.550   5.096   8.015 -0.2985  0.3208 -0.1179
  329MOL0     C45332   8.670   5.115   7.934  1.0430  0.9737  0.2913
  329MOL0     H45333   8.846   4.891   8.380 -2.1880  1.8253 -1.8411
  329MOL0     H45334   9.092   4.838   8.456  1.3686 -3.2371 -2.8883
  329MOL0     H45335   9.373   5.132   8.348 -4.3584 -1.2167 -0.8384
  329MOL0     H45336   9.439   5.034   8.209 -1.9094 -3.6557 -0.7128
  329MOL0     H45337   9.521   5.009   8.496  5.5782  0.9811  1.7734
  329MOL0     H45338   9.576   4.910   8.356 -0.9682 -0.1000  0.4851
  329MOL0     H45339   9.689   5.112   8.264 -1.2972 -0.0386 -0.5865
  329MOL0     H45340   9.643   5.201   8.420  1.1760  0.0066  0.5453
  329MOL0     H45341   9.781   5.084   8.543  1.1244 -0.0811  0.2194
  329MOL0     H45342   9.801   4.947   8.429  1.5787 -0.3524 -1.7528
  329MOL0     H45343   9.989   5.131   8.444  1.2817 -1.5123 -1.8371
  329MOL0     H45344   9.877   5.233   8.348  0.5512  0.8854 -0.4317
  329MOL0     H45345   9.929   4.953   8.260 -2.5764  0.5523  2.8465
  329MOL0     H45346   9.887   5.098   8.168  0.1517 -1.0840  0.1633
  329MOL0     H45347  10.153   5.027   8.155 -0.7588 -4.3161  2.2786
  329MOL0     H45348  10.162   5.063   8.320 -0.6152  0.2452 -0.6719
  329MOL0     H45349  10.100   5.276   8.105  3.1431  0.5288 -1.1969
  329MOL0     H45350  10.086   5.301   8.276 -4.2848 -1.3412 -1.6930
  329MOL0     H45351  10.363   5.078   8.220  0.4702  0.7733 -0.5545
  329MOL0     H45352  10.634   5.085   8.133 -4.0005  1.0338 -2.1372
  329MOL0     H45353  10.697   5.202   8.253  0.9439  2.8508 -0.7682
  329MOL0     H45354  10.663   5.255   7.964 -0.7205 -1.7510 -0.2144
  329MOL0     H45355  10.759   5.346   8.083  0.5419 -0.6503 -0.3212
  329MOL0     H45356  10.929   5.169   8.097  1.8229 -1.2655 -0.8029
  329MOL0     H45357  10.825   5.054   8.017 -0.6049  1.0038  0.4086
  329MOL0     H45358  10.971   5.133   7.853 -2.2023 -1.0964 -1.5630
  329MOL0     H45359  10.817   5.205   7.832  0.8407  3.6400 -0.5413
  329MOL0     H45360  11.086   5.582   7.989  4.5611  1.2979  1.5368
  329MOL0     H45361  11.361   5.658   8.180  0.2161  2.0040 -0.1579
  329MOL0     H45362  11.201   5.695   8.145  0.2341  1.5923 -0.8586
  329MOL0     H45363  11.322   5.716   8.013 -0.5622 -0.5175 -0.5247
  329MOL0     H45364  11.629   5.312   8.447 -0.0353  1.3569 -0.1307
  329MOL0     H45365  11.846   5.346   8.512 -1.6411 -0.0788  0.1303
  329MOL0     H45366  12.003   5.538   8.475  3.6007  3.3393  0.0890
  329MOL0     H45367  12.057   5.382   8.540 -0.7457  1.2130 -0.3177
  329MOL0     H45368  12.282   5.430   8.455 -2.7572 -1.3859  0.5401
  329MOL0     H45369  12.223   5.575   8.374  0.7165 -1.3820 -1.4574
  329MOL0     H45370  12.248   5.517   8.681 -0.2203 -0.9679 -1.0050
  329MOL0     H45371  12.140   5.649   8.611  1.2843  2.5068 -1.1278
  329MOL0     H45372  12.312   5.758   8.497 -3.2034 -1.1217 -0.5178
  329MOL0     H45373  12.435   5.636   8.555 -1.8548 -2.8257 -1.9939
  329MOL0     H45374  12.400   5.870   8.678 -1.7513  0.8632  1.5165
  329MOL0     H45375  12.254   5.811   8.750  0.9862 -0.5000  1.7155
  329MOL0     H45376  12.527   5.677   8.787  1.6866 -0.3426  1.7828
  329MOL0     H45377  12.374   5.615   8.854  1.9597 -1.3492 -0.9880
  329MOL0     H45378  12.491   5.896   8.921  0.4926 -0.1674  0.0585
  329MOL0     H45379  12.489   5.751   9.017 -2.3810 -0.7089  2.0416
  329MOL0     H45380  12.220   5.763   8.968  0.6211 -1.1786  1.9268
  329MOL0     H45381  12.256   5.936   8.952 -0.6288 -0.2473  0.6317
  329MOL0     H45382  11.959   5.341   8.090  1.1974 -0.6441  1.8063
  329MOL0     H45383  11.725   5.315   8.027 -0.7132  0.7838 -0.1191
  329MOL0     H45384  11.375   5.192   8.057  4.6784  2.4537  0.7411
  329MOL0     H45385  11.167   5.151   7.963 -0.1666 -0.2162  2.5729
  329MOL0     H45386   9.228   5.114   8.158  0.5172  0.0768 -0.6646
  329MOL0     H45387   9.014   5.147   8.089  2.5551 -1.3499 -0.2899
  329MOL0     H45388   8.397   5.004   8.298  0.0992  0.7856 -0.8644
  329MOL0     H45389   8.205   5.045   8.166  1.0810  0.2054  0.5659
  329MOL0     H45390   8.005   5.117   7.888  0.5387 -2.6953 -0.2665
  329MOL0     H45391   8.070   5.024   8.024  2.6619 -0.4260  0.4321
  329MOL0     H45392   8.090   5.240   8.148  0.5579  0.7451  0.5535
  329MOL0     H45393   7.913   5.200   8.117  0.5916 -0.5043  0.9907
  329MOL0     H45394   8.057   5.357   7.922 -2.1492 -0.1038 -1.6029
  329MOL0     H45395   7.890   5.377   7.973  0.4579  0.5528 -2.3999
  329MOL0     H45396   8.083   5.562   8.029  0.3794  0.3520 -0.4033
  329MOL0     H45397   8.131   5.442   8.153  0.5992 -0.5502 -0.6645
  329MOL0     H45398   7.749   5.624   8.267 -0.7430  0.2909 -2.1818
  329MOL0     H45399   8.438   5.152   7.836  2.7278 -4.5301 -1.1621
  329MOL0     H45400   8.736   5.029   7.941 -0.7886 -0.7550 -2.0088
  329MOL0     H45401   8.634   5.120   7.831 -0.5255  1.0396  0.8097
  329MOL0     H45402   8.716   5.212   7.957  0.3632  1.9015 -1.9723
  330MOL0     O45403   9.464   6.174   3.315  1.0379  0.0104 -0.0911
  330MOL0     C45404   9.563   6.167   3.382 -0.1924  0.4831 -0.2677
  330MOL0     O45405   9.625   6.273   3.438  0.5342 -0.8539  0.1380
  330MOL0     C45406   9.548   6.393   3.427 -0.2829 -0.3230  0.4077
  330MOL0     C45407   9.548   6.462   3.306 -0.6669 -0.2350  0.7342
  330MOL0     C45408   9.478   6.580   3.287  0.2699 -0.2205  0.1319
  330MOL0     C45409   9.403   6.635   3.397  0.3104 -0.8533 -0.1936
  330MOL0     O45410   9.355   6.761   3.374  0.2295  0.6309  0.4151
  330MOL0     C45411   9.312   6.840   3.484 -0.1445 -0.5718 -0.5762
  330MOL0     C45412   9.292   6.990   3.432 -1.4877  0.4781 -0.1490
  330MOL0     C45413   9.201   7.005   3.306  0.2201  0.8213 -0.7290
  330MOL0     C45414   9.234   7.137   3.221 -0.8214  0.4700  0.9842
  330MOL0     C45415   9.317   7.105   3.093  0.3625  0.3645 -0.4007
  330MOL0     C45416   9.428   6.996   3.107 -0.3167  0.0785  0.6524
  330MOL0     C45417   9.504   6.996   2.978 -0.3290 -0.1655  0.9051
  330MOL0     C45418   9.651   6.965   3.004 -0.2732  0.8687  0.8981
  330MOL0     N45419   9.734   7.029   2.896  0.1002 -0.4189  1.0093
  330MOL0     C45420   9.759   7.164   2.893  0.9572  0.3066 -0.2082
  330MOL0     C45421   9.856   7.168   2.792  0.5197 -0.3628 -0.4058
  330MOL0     C45422   9.922   7.299   2.767  0.3966  0.4144  0.4722
  330MOL0     C45423   9.842   7.359   2.644  0.3387 -0.8767  0.4037
  330MOL0     C45424   9.886   7.493   2.584 -0.9117 -0.5823  0.2301
  330MOL0     C45425  10.019   7.478   2.512 -0.4474  0.6871 -0.6106
  330MOL0     O45426  10.055   7.610   2.486 -0.5845 -0.6331 -0.5308
  330MOL0     C45427  10.190   7.641   2.499 -0.6573 -0.0882 -0.6187
  330MOL0     C45428  10.235   7.752   2.578 -0.5405  0.2188 -0.0728
  330MOL0     C45429  10.370   7.783   2.575 -1.1444 -0.6975 -1.1988
  330MOL0     C45430  10.414   7.907   2.653  1.0568  0.0509 -0.0267
  330MOL0     C45431  10.464   7.709   2.501  0.0551 -1.2762 -0.3628
  330MOL0     C45432  10.606   7.751   2.467 -0.2290  0.3836 -0.2999
  330MOL0     O45433  10.665   7.708   2.356  0.0714 -0.1794  0.0079
  330MOL0     C45434  10.795   7.747   2.334 -0.5997 -0.1389 -0.8833
  330MOL0     C45435  10.898   7.755   2.426 -0.7374 -0.0174 -1.0703
  330MOL0     C45436  11.029   7.795   2.392 -0.2556  0.2680 -0.1899
  330MOL0     C45437  11.062   7.833   2.263 -0.6230 -0.4400  0.7171
  330MOL0     O45438  11.190   7.869   2.222 -0.1459 -0.1918  0.4997
  330MOL0     C45439  11.286   7.900   2.320 -0.2604 -0.0604  0.9884
  330MOL0     C45440  11.420   7.962   2.263 -0.8833 -0.1428 -0.1692
  330MOL0     C45441  11.517   7.857   2.185  0.6268 -0.1227  0.2433
  330MOL0     C45442  11.616   7.933   2.106 -1.3323  1.3330  0.6421
  330MOL0     C45443  11.733   7.835   2.079  0.4644  0.6822  0.3736
  330MOL0     C45444  11.829   7.898   1.972  0.6077  0.9625  0.1715
  330MOL0     C45445  11.949   7.801   1.960  0.7899  0.2197 -0.9889
  330MOL0     C45446  12.046   7.847   1.855 -0.0665  0.8811  0.0671
  330MOL0    Cl45447  12.053   7.726   1.724  0.0240  0.0169  0.2794
  330MOL0     C45448  10.958   7.817   2.161  0.3565  0.8652  0.8538
  330MOL0     C45449  10.829   7.783   2.201  1.2682 -0.3393 -0.1918
  330MOL0     O45450  10.665   7.808   2.558  0.6161 -0.7294  0.2584
  330MOL0     C45451  10.414   7.599   2.433 -0.0477 -0.4567  0.5413
  330MOL0     C45452  10.284   7.568   2.429  0.0271 -0.5070  0.1525
  330MOL0     N45453   9.890   7.042   2.746  0.6077  0.5770  0.8195
  330MOL0     N45454   9.809   6.961   2.809  0.1755 -0.3760 -0.3003
  330MOL0     C45455   9.391   6.565   3.515 -0.8271 -0.3819  0.2491
  330MOL0     C45456   9.458   6.434   3.526 -0.6174 -0.6630 -0.4054
  330MOL0     C45457   9.619   6.040   3.426  0.8203 -0.7377 -0.1531
  330MOL0     C45458   9.534   5.947   3.492 -0.3567 -0.3720  0.4751
  330MOL0     C45459   9.580   5.821   3.530 -0.8663 -0.2886  0.8340
  330MOL0     C45460   9.715   5.788   3.515 -0.4127 -0.0403 -0.0011
  330MOL0     O45461   9.763   5.661   3.562 -0.2654 -0.1028  0.1445
  330MOL0     C45462   9.675   5.568   3.606  0.5735  0.5104 -0.4503
  330MOL0     C45463   9.755   5.437   3.639 -0.0948 -0.1473  0.8132
  330MOL0     C45464   9.666   5.313   3.651 -0.0405  0.1789 -0.0215
  330MOL0     C45465   9.700   5.242   3.790  0.2082  0.1850  0.1187
  330MOL0     C45466   9.632   5.118   3.786  0.2291 -0.1525  0.6709
  330MOL0     C45467   9.574   5.015   3.791  0.2190  0.3381  0.1898
  330MOL0     C45468   9.804   5.887   3.454  0.0139  0.2897 -0.0916
  330MOL0     C45469   9.756   6.012   3.404  0.2850 -0.4558  0.9634
  330MOL0     C45470   9.854   6.110   3.326 -0.0961 -0.8276  0.0272
  330MOL0     H45471   9.607   6.420   3.225 -1.6310 -0.2544  0.0129
  330MOL0     H45472   9.461   6.626   3.190 -1.4222 -2.0381 -0.4917
  330MOL0     H45473   9.391   6.853   3.560  1.3894  2.0965 -2.4500
  330MOL0     H45474   9.222   6.799   3.530  1.2768 -0.8654  2.1876
  330MOL0     H45475   9.250   7.057   3.508  0.0023  2.1643 -0.7463
  330MOL0     H45476   9.385   7.034   3.395 -1.6539  2.9868  2.1154
  330MOL0     H45477   9.196   6.916   3.243  0.6448  0.6752 -0.5540
  330MOL0     H45478   9.097   7.006   3.343  1.0202 -0.3364  1.8303
  330MOL0     H45479   9.147   7.191   3.182  0.3900  0.0375 -2.6771
  330MOL0     H45480   9.299   7.207   3.275 -0.6820 -0.3540  1.8980
  330MOL0     H45481   9.345   7.202   3.052 -3.7766  2.2282  0.6734
  330MOL0     H45482   9.241   7.063   3.026 -1.6049  0.7831  1.4545
  330MOL0     H45483   9.499   7.006   3.189  1.8104 -2.7417 -0.6359
  330MOL0     H45484   9.372   6.902   3.113  3.0214 -2.1213  0.0931
  330MOL0     H45485   9.504   7.098   2.939  0.5354 -0.7649 -0.7790
  330MOL0     H45486   9.468   6.922   2.905  1.3746 -0.5524  0.4019
  330MOL0     H45487   9.686   6.994   3.104  1.3481  0.7336  0.3999
  330MOL0     H45488   9.668   6.858   2.995  1.4608  1.1791 -0.0634
  330MOL0     H45489   9.708   7.237   2.956 -0.3203 -0.8097  0.1119
  330MOL0     H45490  10.024   7.280   2.734 -0.7039 -2.2297 -1.7633
  330MOL0     H45491   9.922   7.363   2.856  0.7637 -1.0789  1.5801
  330MOL0     H45492   9.837   7.283   2.565 -0.5780 -0.1841 -0.2220
  330MOL0     H45493   9.740   7.376   2.679  0.8538  2.7373  0.4660
  330MOL0     H45494   9.813   7.542   2.519 -2.6202 -1.1068  1.6751
  330MOL0     H45495   9.896   7.559   2.671  3.4307 -0.2782 -0.2506
  330MOL0     H45496  10.094   7.431   2.576 -0.0275  0.0029 -1.5799
  330MOL0     H45497  10.009   7.416   2.422 -1.0444  0.6327 -0.5083
  330MOL0     H45498  10.167   7.825   2.620 -0.9013 -1.0468  1.6624
  330MOL0     H45499  10.432   7.991   2.585 -0.9648 -0.3674 -1.1734
  330MOL0     H45500  10.507   7.894   2.710  2.2703 -0.6905 -2.0708
  330MOL0     H45501  10.337   7.940   2.723  1.6395 -0.2019  0.7409
  330MOL0     H45502  10.896   7.725   2.530  2.5811 -1.8226 -1.3851
  330MOL0     H45503  11.092   7.790   2.480 -0.5205 -3.6449 -0.0885
  330MOL0     H45504  11.251   7.974   2.392 -0.3905  1.1281 -0.2697
  330MOL0     H45505  11.318   7.821   2.389  0.3866  0.1380  0.9225
  330MOL0     H45506  11.400   8.045   2.195 -0.9470 -0.4176 -0.4879
  330MOL0     H45507  11.484   7.998   2.344  0.2406 -0.9324 -0.6801
  330MOL0     H45508  11.458   7.793   2.118 -0.9628  1.3741  0.1287
  330MOL0     H45509  11.562   7.799   2.266  1.2480  1.5515  1.1476
  330MOL0     H45510  11.650   8.019   2.164  0.5352  1.1615 -0.1218
  330MOL0     H45511  11.577   7.969   2.010  3.3546  1.6614 -1.4166
  330MOL0     H45512  11.783   7.812   2.174 -0.7071 -1.0269  0.6213
  330MOL0     H45513  11.707   7.736   2.041  2.5029 -0.1741  1.0872
  330MOL0     H45514  11.867   8.000   1.981 -0.1020  1.3615 -1.1060
  330MOL0     H45515  11.774   7.891   1.877  0.4888  0.3838  0.2787
  330MOL0     H45516  11.905   7.703   1.942  1.9323 -0.1735 -1.7095
  330MOL0     H45517  11.998   7.795   2.058  1.3998  0.4958 -1.2754
  330MOL0     H45518  12.148   7.852   1.895  0.0527  0.1589 -0.1264
  330MOL0     H45519  12.016   7.943   1.813  2.8397  2.2285  0.8382
  330MOL0     H45520  10.982   7.821   2.056 -2.6444  0.7395  0.0801
  330MOL0     H45521  10.752   7.772   2.126  3.2079 -1.2675 -2.1347
  330MOL0     H45522  10.483   7.526   2.392 -0.7601  1.3895 -4.7116
  330MOL0     H45523  10.248   7.486   2.368 -3.0884  0.6012  0.3522
  330MOL0     H45524   9.338   6.615   3.596  0.6615  2.1712 -0.2501
  330MOL0     H45525   9.455   6.378   3.618 -0.4479  0.6484  0.4340
  330MOL0     H45526   9.429   5.970   3.502 -0.7066 -1.6796 -0.0437
  330MOL0     H45527   9.495   5.765   3.566 -2.0341 -1.2763 -2.9403
  330MOL0     H45528   9.632   5.599   3.701 -2.1450  1.7032 -1.9674
  330MOL0     H45529   9.594   5.558   3.533  0.1269  0.5960  0.0324
  330MOL0     H45530   9.815   5.462   3.728 -0.7769  2.6112  0.5789
  330MOL0     H45531   9.826   5.409   3.561  0.2192 -2.4010  1.8328
  330MOL0     H45532   9.556   5.319   3.650 -0.5355 -4.2382  2.0479
  330MOL0     H45533   9.685   5.252   3.563 -1.7731 -0.4994  0.0214
  330MOL0     H45534   9.659   5.304   3.870  1.3190  2.3841 -0.9234
  330MOL0     H45535   9.807   5.231   3.809  0.1616 -1.9466 -0.6436
  330MOL0     H45536   9.508   4.931   3.797 -0.6692  0.8253 -1.7456
  330MOL0     H45537   9.907   5.855   3.457  0.3060  1.2814  1.5641
  330MOL0     H45538   9.871   6.209   3.370  1.3003 -1.8900  2.0398
  330MOL0     H45539   9.951   6.061   3.319  0.8150  0.3993  2.5930
  330MOL0     H45540   9.804   6.132   3.231 -3.4270 -0.9671  1.5866
  331MOL0     O45541   4.176   5.322   3.759 -0.3992  0.1132 -0.3479
  331MOL0     C45542   4.136   5.226   3.823 -0.9006 -0.9227  0.8966
  331MOL0     O45543   4.206   5.124   3.863 -0.0260  0.0440  0.3791
  331MOL0     C45544   4.344   5.128   3.838  0.1765  0.2190 -0.4153
  331MOL0     C45545   4.424   5.111   3.947 -0.4277 -1.0777 -0.6677
  331MOL0     C45546   4.567   5.131   3.930  1.4405  0.5465  0.2322
  331MOL0     C45547   4.628   5.156   3.810  0.0851  0.0377  0.3706
  331MOL0     O45548   4.764   5.159   3.818  0.3272  0.1452  0.3757
  331MOL0     C45549   4.839   5.173   3.691 -0.4781  0.7026 -0.6051
  331MOL0     C45550   4.988   5.186   3.721  0.1511 -1.2965 -0.8780
  331MOL0     C45551   5.035   5.060   3.789  0.3021  0.6313  0.6510
  331MOL0     C45552   5.181   5.049   3.815 -0.6999  0.7283 -0.2348
  331MOL0     C45553   5.217   5.144   3.927 -0.1409 -0.8375  0.1688
  331MOL0     C45554   5.345   5.105   3.999 -0.3240  0.9738 -0.0366
  331MOL0     C45555   5.376   5.230   4.100  0.0131  0.7642  0.6547
  331MOL0     C45556   5.264   5.227   4.209  1.1034  0.0601  0.6906
  331MOL0     N45557   5.333   5.257   4.337 -0.0125  0.4510  0.5377
  331MOL0     C45558   5.331   5.166   4.437  0.1975  0.0397  0.4020
  331MOL0     C45559   5.355   5.236   4.555  0.0097 -0.0139 -0.1605
  331MOL0     C45560   5.362   5.190   4.696  0.2409  0.7471  0.2049
  331MOL0     C45561   5.251   5.232   4.792  0.0508  1.3589 -0.2346
  331MOL0     C45562   5.199   5.371   4.795 -0.1670  0.3539 -0.0931
  331MOL0     C45563   5.304   5.458   4.859 -0.4204  0.1086 -0.5032
  331MOL0     O45564   5.351   5.429   4.987  0.4033  0.3047 -0.3271
  331MOL0     C45565   5.457   5.344   5.007  0.8081  0.2177  0.1688
  331MOL0     C45566   5.444   5.244   5.110 -0.1598 -0.7220 -0.3447
  331MOL0     C45567   5.532   5.134   5.115  0.7037  0.0119 -1.1998
  331MOL0     C45568   5.489   5.030   5.220  0.0679  0.7440 -0.1268
  331MOL0     C45569   5.635   5.119   5.026  0.0716  0.2131  0.2988
  331MOL0     C45570   5.723   5.002   5.016  0.0523  0.9276 -0.5088
  331MOL0     O45571   5.827   5.016   4.946  0.6007 -0.1229  0.6370
  331MOL0     C45572   5.925   4.915   4.939 -0.4457 -0.2598  0.2782
  331MOL0     C45573   6.005   4.888   5.051 -0.5636  0.8212  0.2505
  331MOL0     C45574   6.109   4.810   5.032  0.0570  0.9739 -0.9486
  331MOL0     C45575   6.156   4.760   4.909  0.3835  0.3481  0.1614
  331MOL0     O45576   6.262   4.676   4.915  0.0350  0.5292  0.3002
  331MOL0     C45577   6.360   4.674   4.799  0.5702  0.0232 -0.7802
  331MOL0     C45578   6.479   4.582   4.837 -0.3831 -0.4473 -0.0328
  331MOL0     C45579   6.431   4.440   4.868 -0.8121 -0.1061 -0.0267
  331MOL0     C45580   6.393   4.347   4.750 -0.4481 -0.6479  0.3845
  331MOL0     C45581   6.355   4.210   4.783 -0.6259 -0.8789  0.4752
  331MOL0     C45582   6.294   4.146   4.652 -0.1299  0.0967  0.6790
  331MOL0     C45583   6.234   4.008   4.678 -0.4694  0.0335  0.1184
  331MOL0     C45584   6.143   3.952   4.580 -0.1367 -0.5137  0.1161
  331MOL0    Cl45585   6.004   4.050   4.541 -0.8954 -0.6594 -0.1494
  331MOL0     C45586   6.082   4.800   4.797  1.5044 -0.9496  0.5073
  331MOL0     C45587   5.964   4.875   4.809 -0.3884  0.3886  0.0293
  331MOL0     O45588   5.686   4.896   5.069  0.0007 -0.1004  0.5303
  331MOL0     C45589   5.667   5.237   4.942  0.0437 -0.2562  0.1501
  331MOL0     C45590   5.570   5.341   4.927  0.3331 -0.8122  0.2904
  331MOL0     N45591   5.384   5.368   4.512 -0.4246  0.7711  0.1848
  331MOL0     N45592   5.370   5.377   4.384  0.5892 -0.3533 -0.5441
  331MOL0     C45593   4.543   5.154   3.698  0.0378  0.6146  0.3275
  331MOL0     C45594   4.405   5.135   3.712 -0.2333 -0.0930 -0.8166
  331MOL0     C45595   3.998   5.211   3.834 -0.3789 -0.5179 -0.1752
  331MOL0     C45596   3.947   5.113   3.752  0.2615  0.0748 -0.7206
  331MOL0     C45597   3.810   5.093   3.763 -0.0300 -0.0307  0.2212
  331MOL0     C45598   3.722   5.169   3.839  0.0692  0.5578 -0.4745
  331MOL0     O45599   3.585   5.142   3.845 -0.5927  0.1932 -0.6497
  331MOL0     C45600   3.505   5.181   3.730 -0.1469 -0.0484  0.1243
  331MOL0     C45601   3.376   5.119   3.751 -0.1076  0.4293 -0.1231
  331MOL0     C45602   3.310   5.176   3.886 -0.8839  0.1898 -0.1115
  331MOL0     C45603   3.161   5.128   3.898  0.3745  0.1876 -0.3561
  331MOL0     C45604   3.074   5.174   3.788 -0.1767  0.3063  0.3756
  331MOL0     C45605   2.995   5.201   3.707  0.4904 -0.4395  0.2082
  331MOL0     C45606   3.778   5.262   3.924 -0.5133  0.2836  0.0822
  331MOL0     C45607   3.920   5.284   3.923  1.2079 -0.0178 -0.7744
  331MOL0     C45608   3.972   5.397   4.008 -1.1739  0.0995  0.4361
  331MOL0     H45609   4.391   5.087   4.047  0.9584 -0.6373 -0.0728
  331MOL0     H45610   4.631   5.140   4.017 -1.1485 -0.6979  2.4188
  331MOL0     H45611   4.804   5.264   3.641  2.1228  0.8120 -2.4305
  331MOL0     H45612   4.835   5.090   3.619  1.6958 -1.9793  2.0982
  331MOL0     H45613   5.050   5.201   3.632  3.2982 -0.7576  1.2267
  331MOL0     H45614   4.995   5.268   3.794  1.0832 -0.6760 -1.6352
  331MOL0     H45615   4.988   5.048   3.886  0.4512  0.7620  0.7403
  331MOL0     H45616   5.011   4.968   3.734  1.8869 -0.7310  2.1210
  331MOL0     H45617   5.194   4.945   3.848  3.0088  1.3080  0.6522
  331MOL0     H45618   5.240   5.063   3.724  0.6006 -0.4407  0.3866
  331MOL0     H45619   5.140   5.156   4.004 -3.5260  1.3511 -3.2085
  331MOL0     H45620   5.226   5.242   3.880 -1.9903 -1.1804 -0.9909
  331MOL0     H45621   5.329   5.011   4.053 -5.1922  1.0085 -1.0095
  331MOL0     H45622   5.427   5.096   3.927  0.9212 -1.3235  1.5374
  331MOL0     H45623   5.373   5.329   4.052  1.1391  0.5005  0.0067
  331MOL0     H45624   5.474   5.220   4.148  0.5289  0.0642 -0.4980
  331MOL0     H45625   5.191   5.303   4.182  0.6645 -0.8076 -0.6774
  331MOL0     H45626   5.205   5.134   4.209  0.6566  0.3417  0.5716
  331MOL0     H45627   5.312   5.059   4.441 -2.3310  0.4526  1.4152
  331MOL0     H45628   5.460   5.232   4.723  0.3495  1.0043 -0.5555
  331MOL0     H45629   5.364   5.081   4.692 -0.5880  0.7644 -1.2521
  331MOL0     H45630   5.168   5.163   4.774  1.2388 -0.0897 -0.4191
  331MOL0     H45631   5.274   5.193   4.891  1.3066  1.2099 -0.5643
  331MOL0     H45632   5.173   5.409   4.696 -0.5241  4.8522  1.5320
  331MOL0     H45633   5.103   5.377   4.847 -0.0432 -0.3024  0.2251
  331MOL0     H45634   5.382   5.470   4.783 -0.9437 -0.4901 -1.1529
  331MOL0     H45635   5.265   5.559   4.875 -3.2067 -0.9793  0.1849
  331MOL0     H45636   5.361   5.247   5.179 -1.2320  0.8306 -1.6180
  331MOL0     H45637   5.569   4.992   5.283 -0.1743 -2.1156 -1.4127
  331MOL0     H45638   5.453   4.942   5.165 -0.8519  2.1395 -1.9147
  331MOL0     H45639   5.398   5.066   5.269 -0.1489  3.1616 -2.0749
  331MOL0     H45640   5.978   4.926   5.149  2.6921  2.2286  0.7280
  331MOL0     H45641   6.172   4.791   5.118  0.0544  1.1104 -0.9159
  331MOL0     H45642   6.329   4.641   4.699  0.0792  0.3163 -0.7284
  331MOL0     H45643   6.393   4.778   4.786 -0.3039  0.5324  0.8519
  331MOL0     H45644   6.562   4.589   4.765 -1.6853  0.0890 -1.5276
  331MOL0     H45645   6.511   4.629   4.931 -2.5436  2.0139 -0.4357
  331MOL0     H45646   6.335   4.456   4.917  0.0740  0.8412  1.4852
  331MOL0     H45647   6.495   4.404   4.949  1.1025  1.2115 -0.8669
  331MOL0     H45648   6.478   4.339   4.682 -0.1028  2.6650  0.2415
  331MOL0     H45649   6.318   4.407   4.698 -0.5308 -0.7842  0.3466
  331MOL0     H45650   6.444   4.157   4.817 -0.0576 -1.4394 -1.7357
  331MOL0     H45651   6.282   4.227   4.862 -0.8185 -1.1287  0.3501
  331MOL0     H45652   6.366   4.125   4.572 -0.4289  0.3658  0.3352
  331MOL0     H45653   6.221   4.214   4.607 -0.9250  0.9700  3.1305
  331MOL0     H45654   6.180   3.998   4.773 -3.4352 -1.3109 -1.5838
  331MOL0     H45655   6.318   3.939   4.695  1.7385  2.1377 -1.4757
  331MOL0     H45656   6.108   3.855   4.617 -2.7341 -1.2413 -3.6646
  331MOL0     H45657   6.201   3.926   4.492 -1.9694  0.0179 -1.3273
  331MOL0     H45658   6.118   4.771   4.699 -2.2042 -2.5451 -0.5583
  331MOL0     H45659   5.907   4.909   4.723  1.6127  0.2031 -1.4378
  331MOL0     H45660   5.754   5.225   4.878  0.4284  3.2080 -0.1621
  331MOL0     H45661   5.586   5.420   4.855 -0.2563  0.7722  1.8148
  331MOL0     H45662   4.584   5.182   3.602  0.5848  1.0918  0.6948
  331MOL0     H45663   4.346   5.128   3.621 -0.2352 -1.1093 -0.7499
  331MOL0     H45664   4.007   5.045   3.692 -0.8340  0.6340 -2.5267
  331MOL0     H45665   3.764   5.021   3.696 -0.4371  0.2499  0.1956
  331MOL0     H45666   3.497   5.290   3.724 -1.5475 -0.0928  0.8117
  331MOL0     H45667   3.542   5.143   3.635 -0.6426  3.9442 -1.9052
  331MOL0     H45668   3.380   5.010   3.761  1.6481  0.6360  2.2885
  331MOL0     H45669   3.314   5.138   3.662 -1.4256 -0.4347  0.5724
  331MOL0     H45670   3.367   5.148   3.975  2.4078  2.0353 -1.4462
  331MOL0     H45671   3.311   5.284   3.903 -1.6151  0.2453 -0.3709
  331MOL0     H45672   3.123   5.168   3.993  4.5214  1.5345  0.9621
  331MOL0     H45673   3.151   5.019   3.896 -0.0684  0.1980  0.6800
  331MOL0     H45674   2.921   5.223   3.633  0.1446 -0.0779  0.6546
  331MOL0     H45675   3.706   5.313   3.987 -1.8793 -2.7134  1.1426
  331MOL0     H45676   3.901   5.473   4.040 -0.0470  1.5297 -0.3564
  331MOL0     H45677   4.010   5.358   4.103 -1.2917  1.5123  1.0885
  331MOL0     H45678   4.061   5.435   3.957 -0.8010 -2.0965 -0.6769
  332MOL0     O45679   4.633   5.485   7.057 -0.2057  0.2534  0.9084
  332MOL0     C45680   4.578   5.439   7.161  0.9810 -0.8602  0.3794
  332MOL0     O45681   4.619   5.468   7.292  0.0232 -0.0861 -0.1083
  332MOL0     C45682   4.728   5.548   7.324 -0.6017 -0.4935  1.1601
  332MOL0     C45683   4.765   5.669   7.246 -0.3948  0.3442 -0.8506
  332MOL0     C45684   4.874   5.749   7.295 -0.6684 -0.3777 -1.2144
  332MOL0     C45685   4.938   5.719   7.414 -0.7952 -0.2722 -0.9909
  332MOL0     O45686   5.056   5.785   7.445 -0.3268 -0.2930  0.4036
  332MOL0     C45687   5.162   5.793   7.350 -0.0229 -0.1335 -0.3005
  332MOL0     C45688   5.271   5.887   7.388  0.5500 -0.7554 -1.2784
  332MOL0     C45689   5.359   5.919   7.271 -0.0725 -0.8978 -0.2013
  332MOL0     C45690   5.464   6.026   7.318 -0.1426  0.1961 -1.4367
  332MOL0     C45691   5.560   6.064   7.200  0.1585  0.0585 -0.4987
  332MOL0     C45692   5.666   5.960   7.164 -0.2917 -0.3257 -0.1929
  332MOL0     C45693   5.730   5.996   7.033 -0.4179  0.6077  0.3603
  332MOL0     C45694   5.846   5.898   6.996 -0.9203  0.7752  0.3849
  332MOL0     N45695   5.900   5.919   6.858  0.0361  0.5284 -0.0032
  332MOL0     C45696   6.004   6.008   6.826  0.5184  0.0869 -0.0520
  332MOL0     C45697   6.031   5.977   6.696 -0.7415  0.4208 -1.1214
  332MOL0     C45698   6.116   6.065   6.615 -0.3962  0.5473  0.1313
  332MOL0     C45699   6.269   6.029   6.626 -0.7108  0.5738  1.3445
  332MOL0     C45700   6.353   6.095   6.506 -0.5599  0.0640  0.6191
  332MOL0     C45701   6.509   6.052   6.506 -0.0810  0.3855  0.6286
  332MOL0     O45702   6.553   6.038   6.372  1.1117 -0.2780 -0.6816
  332MOL0     C45703   6.586   6.146   6.289  0.1290 -0.5623 -0.2970
  332MOL0     C45704   6.645   6.258   6.346 -0.1931  0.1867 -0.1446
  332MOL0     C45705   6.679   6.372   6.272  0.1115  0.3022  0.3221
  332MOL0     C45706   6.765   6.473   6.346 -0.1167  0.0404  0.8768
  332MOL0     C45707   6.631   6.384   6.137  0.1950 -0.1309 -0.0007
  332MOL0     C45708   6.660   6.497   6.048 -0.5952 -0.4250 -0.4245
  332MOL0     O45709   6.759   6.590   6.083  0.0870  0.1975 -0.1953
  332MOL0     C45710   6.771   6.700   6.003 -0.2187  0.3201  0.6462
  332MOL0     C45711   6.688   6.813   6.016 -1.0933 -0.0105  0.6795
  332MOL0     C45712   6.706   6.921   5.927 -0.7304 -0.6614  0.3816
  332MOL0     C45713   6.777   6.904   5.808 -0.2257 -0.6239 -0.0118
  332MOL0     O45714   6.802   7.003   5.716 -0.2191  0.0062  0.1936
  332MOL0     C45715   6.803   7.136   5.767  0.8402  0.2055  0.1931
  332MOL0     C45716   6.843   7.245   5.657  0.2706 -0.6334 -0.0530
  332MOL0     C45717   6.780   7.224   5.519 -0.0889  0.0906 -0.0536
  332MOL0     C45718   6.843   7.305   5.411  0.3849  0.0797 -0.5382
  332MOL0     C45719   6.767   7.271   5.282  0.0068  0.2990 -0.1716
  332MOL0     C45720   6.812   7.348   5.156 -0.3610  1.1634 -0.6998
  332MOL0     C45721   6.713   7.310   5.037 -0.0362  0.4362  0.1907
  332MOL0     C45722   6.774   7.379   4.907 -0.1579 -0.5790 -0.1204
  332MOL0    Cl45723   6.671   7.343   4.757 -0.1086 -0.1590 -0.1452
  332MOL0     C45724   6.846   6.786   5.792 -0.8421  0.6286 -0.6460
  332MOL0     C45725   6.850   6.685   5.884  0.5760 -0.3183 -1.4311
  332MOL0     O45726   6.581   6.510   5.957 -0.2803 -0.4266 -0.3967
  332MOL0     C45727   6.559   6.270   6.085  0.0457 -0.2119  0.1230
  332MOL0     C45728   6.541   6.154   6.160 -0.2018  0.1539  0.3220
  332MOL0     N45729   5.946   5.880   6.651 -0.0729  0.5553 -0.6676
  332MOL0     N45730   5.865   5.848   6.748 -0.0851  0.6332 -0.7486
  332MOL0     C45731   4.900   5.603   7.487 -0.0415 -0.5378 -0.1218
  332MOL0     C45732   4.795   5.517   7.446  0.0506  0.2368  0.1060
  332MOL0     C45733   4.450   5.370   7.138  0.3318  0.2514 -0.1053
  332MOL0     C45734   4.347   5.393   7.227 -0.1623  0.1023 -0.1308
  332MOL0     C45735   4.232   5.314   7.219  0.4231  0.5417  0.7050
  332MOL0     C45736   4.219   5.224   7.110  1.1899  0.5069 -0.6512
  332MOL0     O45737   4.098   5.158   7.113  0.5192 -0.3503  1.0545
  332MOL0     C45738   4.079   5.059   7.008  0.2506  0.2561  0.2647
  332MOL0     C45739   3.940   5.004   7.017 -0.2554  0.1295  0.1423
  332MOL0     C45740   3.897   4.921   6.892 -0.0856  0.1452 -0.0435
  332MOL0     C45741   3.754   4.972   6.854  0.4463  0.0706  0.4866
  332MOL0     C45742   3.650   4.916   6.937  1.1522  0.2757  0.7439
  332MOL0     C45743   3.552   4.906   7.006 -0.5074 -0.2379  0.1946
  332MOL0     C45744   4.316   5.209   7.018  1.0568 -0.4401  0.3190
  332MOL0     C45745   4.433   5.283   7.033 -0.3295 -0.6684  0.5892
  332MOL0     C45746   4.544   5.258   6.922 -0.0678 -0.4804  0.6913
  332MOL0     H45747   4.708   5.700   7.159 -0.8901  0.9672 -0.3120
  332MOL0     H45748   4.914   5.840   7.251  0.5644 -0.5611 -0.5453
  332MOL0     H45749   5.129   5.830   7.252 -0.4002 -3.1423 -1.3912
  332MOL0     H45750   5.202   5.693   7.332 -2.5520 -1.2124 -0.2772
  332MOL0     H45751   5.241   5.977   7.441  2.9482  0.2215 -1.4541
  332MOL0     H45752   5.328   5.832   7.464 -1.4304 -1.4000 -0.1955
  332MOL0     H45753   5.413   5.831   7.235 -3.6678 -2.8270 -1.3930
  332MOL0     H45754   5.320   5.968   7.181 -0.2478 -2.0448 -0.7838
  332MOL0     H45755   5.414   6.117   7.353  2.5479  1.6857 -1.2087
  332MOL0     H45756   5.517   5.989   7.406 -2.3718  0.8338  0.2659
  332MOL0     H45757   5.614   6.159   7.210  1.9956 -0.7812 -1.8689
  332MOL0     H45758   5.504   6.070   7.106 -0.3701 -3.2373 -0.5168
  332MOL0     H45759   5.740   5.972   7.243 -0.5326 -1.6075  0.2379
  332MOL0     H45760   5.614   5.864   7.171 -0.7704  0.0442  3.9852
  332MOL0     H45761   5.774   6.096   7.036  0.9680  0.0034  2.1754
  332MOL0     H45762   5.656   5.990   6.953 -0.0212  0.2022  0.0171
  332MOL0     H45763   5.932   5.904   7.064 -0.8882 -2.8731  0.8540
  332MOL0     H45764   5.805   5.797   6.995  1.3777 -0.2398  1.1033
  332MOL0     H45765   6.020   6.103   6.877 -1.6773 -0.2558  1.4122
  332MOL0     H45766   6.092   6.169   6.637 -2.5947  0.8131 -2.9248
  332MOL0     H45767   6.090   6.049   6.510  1.0446  2.2586 -0.5265
  332MOL0     H45768   6.299   6.061   6.726 -4.0704 -1.0807  3.0773
  332MOL0     H45769   6.266   5.919   6.622 -2.8740  0.5927  0.7904
  332MOL0     H45770   6.308   6.065   6.411 -1.3592  0.1987  0.9389
  332MOL0     H45771   6.343   6.204   6.512  0.2453  0.1209  1.0263
  332MOL0     H45772   6.567   6.122   6.567  1.5204 -0.4300  0.0899
  332MOL0     H45773   6.517   5.954   6.554  0.8137  0.0736 -0.1237
  332MOL0     H45774   6.672   6.258   6.451 -0.7093  1.9178  0.0125
  332MOL0     H45775   6.780   6.442   6.450 -2.6786 -1.5288  0.8642
  332MOL0     H45776   6.715   6.570   6.353 -4.6632 -2.0085  0.5513
  332MOL0     H45777   6.864   6.481   6.301 -1.1826 -0.5696 -1.7751
  332MOL0     H45778   6.615   6.816   6.097  1.3214 -0.1597  3.0047
  332MOL0     H45779   6.636   7.002   5.945 -2.9705 -1.8855 -2.0970
  332MOL0     H45780   6.700   7.152   5.800  1.1020  1.0511  0.6348
  332MOL0     H45781   6.875   7.139   5.850  0.6935  2.5529  0.3152
  332MOL0     H45782   6.801   7.340   5.692 -2.2922 -2.0433  0.9407
  332MOL0     H45783   6.952   7.251   5.649  0.2806 -0.5542  0.1290
  332MOL0     H45784   6.676   7.251   5.538  0.4716  2.0253  0.5660
  332MOL0     H45785   6.770   7.124   5.477 -2.9136  1.0270 -1.8370
  332MOL0     H45786   6.950   7.283   5.401 -0.2930 -2.7923 -2.8054
  332MOL0     H45787   6.834   7.414   5.415  0.3477  0.0767 -0.5225
  332MOL0     H45788   6.785   7.165   5.263 -2.1178  0.0531 -1.0803
  332MOL0     H45789   6.660   7.289   5.294 -0.2839 -2.0335  1.5541
  332MOL0     H45790   6.917   7.320   5.142 -0.1588  2.0745 -1.0267
  332MOL0     H45791   6.810   7.455   5.177  1.7783  1.1901 -0.4021
  332MOL0     H45792   6.615   7.353   5.059 -0.8902  0.0083 -2.4107
  332MOL0     H45793   6.696   7.205   5.014 -1.3677  1.1818 -2.8289
  332MOL0     H45794   6.873   7.336   4.888 -0.9879 -2.8245  0.2997
  332MOL0     H45795   6.776   7.486   4.932 -2.8345 -0.8059  1.4668
  332MOL0     H45796   6.906   6.774   5.703 -0.6346  2.6265 -0.8281
  332MOL0     H45797   6.904   6.594   5.857  1.6316  0.3537 -1.6508
  332MOL0     H45798   6.512   6.274   5.987 -0.5883  3.1895  0.4524
  332MOL0     H45799   6.489   6.077   6.105  0.8880 -1.6058  1.6596
  332MOL0     H45800   4.962   5.578   7.572  0.5966 -0.9518 -0.6994
  332MOL0     H45801   4.778   5.419   7.490  0.2224  0.1633  0.0068
  332MOL0     H45802   4.348   5.465   7.308  0.0695 -0.7390  0.6364
  332MOL0     H45803   4.150   5.329   7.290  0.6394 -0.4012  1.1605
  332MOL0     H45804   4.094   5.093   6.906  6.9514 -0.6249  0.5303
  332MOL0     H45805   4.152   4.978   7.017 -0.2313 -0.2453 -0.2452
  332MOL0     H45806   3.869   5.088   7.027 -1.4611 -0.9692  1.1896
  332MOL0     H45807   3.937   4.943   7.107  1.9996  1.1399  0.9766
  332MOL0     H45808   3.973   4.926   6.813  1.4159  0.3997  1.3559
  332MOL0     H45809   3.892   4.813   6.908 -2.9668  0.0594 -0.9898
  332MOL0     H45810   3.728   4.940   6.752  0.1263 -1.8419  1.1245
  332MOL0     H45811   3.747   5.080   6.839 -1.4486 -0.2180 -1.2070
  332MOL0     H45812   3.471   4.904   7.077  0.9028 -3.0141  1.9098
  332MOL0     H45813   4.302   5.144   6.933 -2.0587  0.1922  0.2573
  332MOL0     H45814   4.533   5.331   6.841 -1.3787 -0.9539  0.4280
  332MOL0     H45815   4.643   5.270   6.969  0.5974  1.0465 -0.9637
  332MOL0     H45816   4.542   5.155   6.886  2.4217 -0.1567 -0.6345
  333MOL0     O45817  10.383  10.673  10.709 -0.1455 -0.0226  0.1440
  333MOL0     C45818  10.435  10.641  10.599 -0.0817 -0.3028 -0.2386
  333MOL0     O45819  10.370  10.640  10.478  0.3566 -0.2748  0.0334
  333MOL0     C45820  10.233  10.669  10.467 -0.4659 -0.0589  0.2540
  333MOL0     C45821  10.205  10.692  10.330  0.1079 -0.0147 -0.2294
  333MOL0     C45822  10.070  10.683  10.295 -0.4164  0.2860  0.1162
  333MOL0     C45823   9.969  10.680  10.390  0.8589 -1.0200  0.0925
  333MOL0     O45824   9.841  10.672  10.357 -0.4702 -0.5057  0.4939
  333MOL0     C45825   9.801  10.738  10.238  0.2773 -0.2323 -0.7096
  333MOL0     C45826   9.647  10.727  10.201 -0.0073 -0.1705 -0.0289
  333MOL0     C45827   9.615  10.782  10.061 -0.5132 -0.2164 -0.1915
  333MOL0     C45828   9.470  10.730  10.039 -0.3362  0.3714 -0.8157
  333MOL0     C45829   9.404  10.742   9.901 -0.3100 -0.2909 -0.4551
  333MOL0     C45830   9.469  10.640   9.793  0.1711 -0.2430 -0.0389
  333MOL0     C45831   9.605  10.670   9.722  0.2494  0.5519  0.4455
  333MOL0     C45832   9.645  10.558   9.630  0.3534 -0.1243  0.6495
  333MOL0     N45833   9.715  10.602   9.511 -0.2295  0.5479  0.1405
  333MOL0     C45834   9.641  10.653   9.403 -0.8484  0.1105  0.2302
  333MOL0     C45835   9.735  10.683   9.309 -0.0727 -0.3760  0.6927
  333MOL0     C45836   9.694  10.709   9.166  0.2281  0.4184 -0.0595
  333MOL0     C45837   9.689  10.865   9.141  0.5639 -0.2319 -1.3971
  333MOL0     C45838   9.828  10.928   9.111  0.1273 -0.1392 -0.0525
  333MOL0     C45839   9.909  10.861   9.001 -0.0080  0.8812  0.2594
  333MOL0     O45840  10.016  10.937   8.943  0.1043  0.6551  0.1863
  333MOL0     C45841  10.094  10.885   8.846  0.3406  0.1138 -0.1903
  333MOL0     C45842  10.213  10.952   8.803  0.6399 -0.1690  1.5611
  333MOL0     C45843  10.306  10.902   8.705  0.0731  0.5884 -0.7363
  333MOL0     C45844  10.428  10.983   8.685 -0.5335 -0.8399  0.0391
  333MOL0     C45845  10.277  10.778   8.649  1.2292 -0.4677 -0.4363
  333MOL0     C45846  10.364  10.704   8.558  0.0766 -0.8978 -1.1777
  333MOL0     O45847  10.461  10.773   8.496  0.2015 -0.3093  0.2507
  333MOL0     C45848  10.548  10.715   8.413 -0.5411  0.1329 -0.2055
  333MOL0     C45849  10.667  10.678   8.469 -0.7133 -0.3087  0.7860
  333MOL0     C45850  10.778  10.634   8.393 -0.7368  0.2527  0.8399
  333MOL0     C45851  10.765  10.642   8.252 -0.3699 -0.0708 -0.3108
  333MOL0     O45852  10.875  10.634   8.167  0.6100  0.7084 -0.0137
  333MOL0     C45853  10.990  10.565   8.214  0.9695 -0.2601 -0.3649
  333MOL0     C45854  11.090  10.520   8.105 -0.4769 -0.2028  0.2550
  333MOL0     C45855  11.154  10.648   8.043  0.3622 -0.2936 -0.1232
  333MOL0     C45856  11.271  10.614   7.955  0.4983 -0.5410 -0.0305
  333MOL0     C45857  11.331  10.744   7.892  0.2962  0.3336  0.7565
  333MOL0     C45858  11.441  10.712   7.791  0.2449  0.1489 -0.0757
  333MOL0     C45859  11.503  10.844   7.729 -1.0248  1.1935  0.2877
  333MOL0     C45860  11.616  10.903   7.824 -0.0788  0.6054 -0.2556
  333MOL0    Cl45861  11.759  10.787   7.840  0.0590 -0.1336  0.0903
  333MOL0     C45862  10.642  10.660   8.192  0.5339 -0.7031  0.5963
  333MOL0     C45863  10.534  10.697   8.276 -0.2049  0.1411  0.5845
  333MOL0     O45864  10.340  10.585   8.537  0.7616  0.4293 -0.3072
  333MOL0     C45865  10.157  10.709   8.682 -0.3105  0.3004  1.1045
  333MOL0     C45866  10.068  10.762   8.779 -0.3763  0.7916  0.4586
  333MOL0     N45867   9.861  10.672   9.364  0.4226 -0.1306 -1.2868
  333MOL0     N45868   9.849  10.595   9.472  0.0708 -0.1201 -0.8283
  333MOL0     C45869  10.005  10.676  10.523 -0.0138  0.2478 -1.1974
  333MOL0     C45870  10.131  10.665  10.565  0.3282 -0.0156  0.6507
  333MOL0     C45871  10.579  10.607  10.604 -0.6209 -0.5611  0.4314
  333MOL0     C45872  10.634  10.541  10.713  0.1930 -0.5437  0.4682
  333MOL0     C45873  10.772  10.508  10.721 -0.5788 -0.2947  0.2501
  333MOL0     C45874  10.858  10.551  10.619  0.2273  0.1934  0.2201
  333MOL0     O45875  10.996  10.527  10.639 -0.3096  0.2300  0.6734
  333MOL0     C45876  11.088  10.584  10.541 -0.2430  1.5441 -0.9441
  333MOL0     C45877  11.236  10.587  10.595  0.2741  0.5163  0.2070
  333MOL0     C45878  11.317  10.456  10.593  0.3620 -0.2462 -0.2215
  333MOL0     C45879  11.463  10.493  10.593 -0.0497  0.4834 -0.0267
  333MOL0     C45880  11.509  10.502  10.729  0.4826 -0.2703 -0.1822
  333MOL0     C45881  11.530  10.509  10.840  0.2989 -0.0072 -0.5969
  333MOL0     C45882  10.801  10.609  10.512 -0.5064 -0.7649  0.3927
  333MOL0     C45883  10.668  10.635  10.491  0.9309 -0.2775  0.0287
  333MOL0     C45884  10.622  10.684  10.358 -0.2069 -0.6112 -0.0101
  333MOL0     H45885  10.281  10.690  10.252  2.5753  0.7282  2.0195
  333MOL0     H45886  10.053  10.670  10.189  0.6447  2.3474 -0.3662
  333MOL0     H45887   9.864  10.694  10.160 -0.3011 -1.3270 -0.5805
  333MOL0     H45888   9.827  10.844  10.250 -3.5045  0.7649 -0.2514
  333MOL0     H45889   9.625  10.622  10.221 -0.8967 -0.0098 -0.1431
  333MOL0     H45890   9.591  10.781  10.278  1.7163 -0.0749  1.2198
  333MOL0     H45891   9.632  10.890  10.062  0.5564 -0.3702 -0.3183
  333MOL0     H45892   9.684  10.734   9.992 -0.1255 -0.5872  0.4392
  333MOL0     H45893   9.464  10.626  10.070 -1.6503  0.9916  1.1310
  333MOL0     H45894   9.416  10.781  10.119  1.4927 -2.0314  2.1791
  333MOL0     H45895   9.414  10.848   9.874 -0.4930  1.0799  4.0261
  333MOL0     H45896   9.300  10.713   9.914 -0.1858  0.3821  3.3450
  333MOL0     H45897   9.489  10.556   9.861  0.5395  0.4025  0.6668
  333MOL0     H45898   9.398  10.623   9.712  3.3028 -0.7988 -2.8643
  333MOL0     H45899   9.686  10.689   9.794  2.1519  0.4732 -1.5498
  333MOL0     H45900   9.602  10.758   9.657  2.1228 -0.4292 -1.0636
  333MOL0     H45901   9.716  10.494   9.684  1.6016 -1.1885 -2.0717
  333MOL0     H45902   9.558  10.495   9.606  0.6027 -0.1114 -0.3183
  333MOL0     H45903   9.534  10.643   9.386 -1.0255 -1.4615  1.9343
  333MOL0     H45904   9.592  10.673   9.148 -1.5127  4.1494  1.2555
  333MOL0     H45905   9.767  10.656   9.104 -0.5740  0.6989 -1.2583
  333MOL0     H45906   9.624  10.893   9.058 -1.1449  1.2048  0.3319
  333MOL0     H45907   9.647  10.916   9.228 -0.4911 -0.2041 -1.9110
  333MOL0     H45908   9.802  11.029   9.080 -4.8590 -0.9123  0.7036
  333MOL0     H45909   9.889  10.936   9.202  4.2566  3.6711 -2.7860
  333MOL0     H45910   9.939  10.767   9.048 -0.9291  0.8896  0.8925
  333MOL0     H45911   9.833  10.850   8.924  1.0180 -1.4545 -0.5175
  333MOL0     H45912  10.233  11.052   8.840  0.9172  0.7494 -0.9433
  333MOL0     H45913  10.432  11.057   8.765  0.7960 -2.0772  1.1663
  333MOL0     H45914  10.425  11.033   8.588  1.9279  1.0030  0.7930
  333MOL0     H45915  10.512  10.914   8.695 -0.2579 -0.5446 -0.2203
  333MOL0     H45916  10.687  10.686   8.575 -0.2176 -0.0862  0.6784
  333MOL0     H45917  10.870  10.596   8.437  0.0081  1.9837  0.8280
  333MOL0     H45918  11.048  10.626   8.284 -0.1172  1.4031 -0.8576
  333MOL0     H45919  10.943  10.480   8.265 -4.0350  0.5836 -2.9384
  333MOL0     H45920  11.170  10.457   8.145  1.9679  2.1479 -0.6095
  333MOL0     H45921  11.045  10.461   8.026 -1.8182  0.5102  0.4700
  333MOL0     H45922  11.175  10.728   8.114  2.5037  0.1855 -1.2211
  333MOL0     H45923  11.072  10.692   7.985  1.1406  1.9411  0.3743
  333MOL0     H45924  11.244  10.530   7.889  4.0227 -4.5237  2.9935
  333MOL0     H45925  11.350  10.571   8.017 -0.5187  1.1738  2.6202
  333MOL0     H45926  11.251  10.789   7.833  1.6610 -1.1756 -2.5161
  333MOL0     H45927  11.355  10.815   7.971 -3.7486  1.5818  1.1080
  333MOL0     H45928  11.403  10.646   7.713  0.9906  0.8244 -1.0323
  333MOL0     H45929  11.525  10.659   7.838  0.5614 -0.2872 -1.0977
  333MOL0     H45930  11.429  10.922   7.708 -0.4614  2.1396  1.6486
  333MOL0     H45931  11.549  10.818   7.634 -0.7391  1.0289  0.4710
  333MOL0     H45932  11.570  10.923   7.921  1.4776 -0.2075  0.6757
  333MOL0     H45933  11.662  10.995   7.787 -2.6834  0.6994 -3.8616
  333MOL0     H45934  10.632  10.663   8.084  1.5184 -0.9541  0.4900
  333MOL0     H45935  10.439  10.724   8.231 -1.4648  2.2617  4.0398
  333MOL0     H45936  10.132  10.616   8.632 -4.7753  1.0606  1.5372
  333MOL0     H45937   9.987  10.694   8.805 -0.5739  1.2216  0.9801
  333MOL0     H45938   9.941  10.684  10.611 -1.1708  1.2810 -2.0923
  333MOL0     H45939  10.150  10.648  10.670 -0.9117  1.9115  1.2451
  333MOL0     H45940  10.581  10.528  10.807 -3.1378  0.1425 -1.1293
  333MOL0     H45941  10.823  10.462  10.805  1.5133 -1.2936 -1.4523
  333MOL0     H45942  11.082  10.520  10.452  0.6811 -1.5019  1.0161
  333MOL0     H45943  11.074  10.689  10.513 -0.8832  1.2723 -1.6571
  333MOL0     H45944  11.232  10.624  10.698 -0.6002 -2.5329  1.3952
  333MOL0     H45945  11.290  10.658  10.532  0.3091  0.0067 -0.3525
  333MOL0     H45946  11.281  10.392  10.674 -0.7118  1.2851  0.5748
  333MOL0     H45947  11.293  10.406  10.499 -0.0815  0.3285 -0.4197
  333MOL0     H45948  11.478  10.589  10.544  0.8205  0.6256  0.4982
  333MOL0     H45949  11.509  10.404  10.548 -1.8976 -0.9045  0.6848
  333MOL0     H45950  11.572  10.533  10.935  0.0204 -0.7013 -0.2916
  333MOL0     H45951  10.864  10.649  10.433  1.6701 -1.0584  1.8875
  333MOL0     H45952  10.546  10.623  10.308 -0.2287 -1.3821  0.9519
  333MOL0     H45953  10.589  10.788  10.362 -1.3296 -0.9010 -1.0342
  333MOL0     H45954  10.702  10.684  10.284 -1.9367  1.7480 -2.0462
  334MOL0     O45955   7.147   0.671  11.197  0.5576 -0.4891  0.0848
  334MOL0     C45956   7.046   0.604  11.229  0.3722 -0.0319  0.3477
  334MOL0     O45957   7.039   0.515  11.336  0.0872  0.1064 -0.0405
  334MOL0     C45958   7.158   0.463  11.392 -0.4438  0.6319 -0.4771
  334MOL0     C45959   7.282   0.454  11.323 -0.7776 -0.0385 -0.8237
  334MOL0     C45960   7.399   0.423  11.394  0.4496 -0.2354  0.0279
  334MOL0     C45961   7.393   0.369  11.530  0.1212  0.2003  0.1997
  334MOL0     O45962   7.494   0.322  11.602 -0.7983  0.4408 -0.3400
  334MOL0     C45963   7.609   0.408  11.605 -0.2267  0.4158 -0.6082
  334MOL0     C45964   7.645   0.447  11.748  0.5795 -0.3975  0.1915
  334MOL0     C45965   7.777   0.383  11.782 -0.1058 -0.8385  0.4295
  334MOL0     C45966   7.818   0.428  11.922  0.6181 -0.3422  1.0354
  334MOL0     C45967   7.874   0.307  12.001 -0.4713 -0.0227  0.1420
  334MOL0     C45968   7.882   0.345  12.148  0.4393  0.6090  0.6501
  334MOL0     C45969   7.923   0.211  12.220 -0.0883 -0.2489 -0.0798
  334MOL0     C45970   7.947   0.244  12.377 -0.1324 -0.1970 -0.3380
  334MOL0     N45971   7.971   0.125  12.455 -1.2813  0.5997  0.1861
  334MOL0     C45972   8.097   0.080  12.490 -0.3571  0.6321  0.4742
  334MOL0     C45973   8.078  -0.044  12.531 -0.2208  0.0459  0.0101
  334MOL0     C45974   8.186  -0.135  12.594  0.5254  0.3577 -0.2993
  334MOL0     C45975   8.153  -0.156  12.740 -0.1004  0.4641 -0.4862
  334MOL0     C45976   8.157  -0.023  12.818  0.6780 -0.4693 -0.0877
  334MOL0     C45977   8.289   0.038  12.849  0.9569  0.3309 -0.0031
  334MOL0     O45978   8.378  -0.048  12.911 -0.1913  0.0944 -0.1129
  334MOL0     C45979   8.356  -0.090  13.045 -0.3630  0.5179  0.6475
  334MOL0     C45980   8.297   0.001  13.134  0.2986  0.7219 -0.1162
  334MOL0     C45981   8.238  -0.041  13.251 -0.4142 -0.7711 -0.3015
  334MOL0     C45982   8.164   0.061  13.337 -0.1608 -0.1026  1.0649
  334MOL0     C45983   8.257  -0.179  13.287  0.0229 -0.0807 -0.1009
  334MOL0     C45984   8.211  -0.239  13.406  0.0445 -0.0346 -0.5091
  334MOL0     O45985   8.221  -0.383  13.415 -0.3842  0.0370  0.0440
  334MOL0     C45986   8.114  -0.451  13.481 -0.8614 -0.4428 -0.1590
  334MOL0     C45987   8.110  -0.460  13.616 -0.7048 -0.5354 -0.9608
  334MOL0     C45988   8.007  -0.534  13.679  0.5514  0.7417 -0.5199
  334MOL0     C45989   7.907  -0.593  13.611  0.7625 -0.6147  0.3705
  334MOL0     O45990   7.806  -0.668  13.667  0.4468  0.4639 -0.0935
  334MOL0     C45991   7.789  -0.655  13.814  0.0074  0.3758  0.0216
  334MOL0     C45992   7.663  -0.734  13.840 -0.7179  0.0696 -0.1343
  334MOL0     C45993   7.622  -0.744  13.985  0.4444 -0.3398  0.3139
  334MOL0     C45994   7.573  -0.608  14.042 -0.2942  0.0290  0.3123
  334MOL0     C45995   7.518  -0.624  14.187  0.3134  0.7443 -0.4028
  334MOL0     C45996   7.371  -0.584  14.218  0.3598 -0.3093 -0.1393
  334MOL0     C45997   7.363  -0.432  14.183  0.0084 -0.2681 -0.9091
  334MOL0     C45998   7.223  -0.392  14.233 -0.1115 -0.3401  0.2162
  334MOL0    Cl45999   7.107  -0.440  14.106 -0.1598  0.1638 -0.2596
  334MOL0     C46000   7.918  -0.586  13.466 -0.3954 -0.1458 -0.6724
  334MOL0     C46001   8.017  -0.515  13.404 -0.4686  0.2856 -0.3353
  334MOL0     O46002   8.190  -0.162  13.502  0.4479 -0.3429 -0.3703
  334MOL0     C46003   8.332  -0.266  13.199 -0.0178 -0.2624 -0.5010
  334MOL0     C46004   8.372  -0.222  13.078 -0.4023 -0.1940 -0.1646
  334MOL0     N46005   7.950  -0.082  12.510 -0.3585 -0.0812 -0.3236
  334MOL0     N46006   7.890   0.018  12.467  0.0642 -0.2200  0.7096
  334MOL0     C46007   7.263   0.351  11.585  0.5685  0.6129 -0.4712
  334MOL0     C46008   7.154   0.422  11.525  0.7743  0.8175 -0.3796
  334MOL0     C46009   6.918   0.621  11.160 -0.0634  0.2512  0.2569
  334MOL0     C46010   6.802   0.580  11.215 -0.2533 -0.2455  0.2169
  334MOL0     C46011   6.672   0.606  11.172 -0.0135  0.1420 -0.7515
  334MOL0     C46012   6.663   0.672  11.048  0.7475 -0.0645  0.1927
  334MOL0     O46013   6.535   0.693  11.001 -0.5555 -0.6088 -0.6514
  334MOL0     C46014   6.507   0.755  10.876 -0.3197  0.3529  0.1661
  334MOL0     C46015   6.526   0.908  10.883 -0.3692 -0.3423  0.2836
  334MOL0     C46016   6.395   0.962  10.945  0.8103 -1.0469 -0.9511
  334MOL0     C46017   6.405   1.114  10.958  0.7225 -0.6333  0.9652
  334MOL0     C46018   6.409   1.171  10.826 -0.3990 -1.0702  0.4065
  334MOL0     C46019   6.399   1.201  10.711  0.4458 -0.4387  0.4630
  334MOL0     C46020   6.779   0.712  10.981 -0.8073  0.2594  0.1370
  334MOL0     C46021   6.908   0.682  11.033 -0.1668  0.3386  0.2132
  334MOL0     C46022   7.024   0.699  10.946  0.7170 -0.0135 -0.2049
  334MOL0     H46023   7.284   0.492  11.222 -4.3132  0.1642 -0.9300
  334MOL0     H46024   7.494   0.433  11.342  0.5111 -0.4145  0.1082
  334MOL0     H46025   7.603   0.494  11.538 -0.2155  1.9064  1.2252
  334MOL0     H46026   7.694   0.351  11.566 -1.0971 -2.9024  1.9000
  334MOL0     H46027   7.653   0.556  11.740  0.2651 -0.4650 -1.2448
  334MOL0     H46028   7.565   0.419  11.817 -0.8098  0.4641 -1.0187
  334MOL0     H46029   7.776   0.273  11.780  1.1116 -0.8848  1.2066
  334MOL0     H46030   7.853   0.419  11.713 -0.0593 -0.8790  0.4595
  334MOL0     H46031   7.900   0.500  11.924 -0.8545  1.3864  2.1888
  334MOL0     H46032   7.743   0.490  11.972  0.4703 -1.3328  2.0892
  334MOL0     H46033   7.974   0.281  11.967 -0.7897 -3.5311  1.3891
  334MOL0     H46034   7.805   0.222  11.995 -1.0315  0.4810 -0.5604
  334MOL0     H46035   7.950   0.429  12.165  0.4632  0.6854  0.2038
  334MOL0     H46036   7.784   0.376  12.184 -1.1797 -3.4295  0.2904
  334MOL0     H46037   8.014   0.173  12.173  0.5576  0.1496  0.8224
  334MOL0     H46038   7.836   0.145  12.217  0.7177 -1.3754  0.5671
  334MOL0     H46039   8.034   0.309  12.392  0.7050 -1.8313  2.6359
  334MOL0     H46040   7.866   0.305  12.417  1.2376  2.8941 -1.8818
  334MOL0     H46041   8.189   0.137  12.479  0.8007 -1.1053  0.7719
  334MOL0     H46042   8.289  -0.099  12.584  1.1968 -1.7939 -1.8230
  334MOL0     H46043   8.180  -0.228  12.536  0.8793  0.5552 -0.6526
  334MOL0     H46044   8.052  -0.198  12.749 -1.3868  2.4365 -3.9219
  334MOL0     H46045   8.223  -0.227  12.786 -1.1035 -1.0599 -1.2233
  334MOL0     H46046   8.095   0.054  12.771  0.7247 -0.7906 -0.6962
  334MOL0     H46047   8.106  -0.045  12.912 -0.7043  0.4754 -0.5781
  334MOL0     H46048   8.335   0.075  12.757 -0.2499  2.2054  0.0941
  334MOL0     H46049   8.269   0.129  12.907 -5.8269 -0.3302 -0.5341
  334MOL0     H46050   8.277   0.106  13.115 -2.9381 -0.1227 -2.2450
  334MOL0     H46051   8.220   0.070  13.430 -1.1510 -0.4453  1.7160
  334MOL0     H46052   8.065   0.027  13.370  0.7811 -1.9217  2.1746
  334MOL0     H46053   8.160   0.155  13.281 -0.8199  0.2558  1.6934
  334MOL0     H46054   8.187  -0.415  13.677 -0.8371  0.0252 -1.1999
  334MOL0     H46055   8.020  -0.547  13.786 -1.4599  0.8492 -0.2258
  334MOL0     H46056   7.873  -0.701  13.867 -0.5472 -0.3015  0.3334
  334MOL0     H46057   7.772  -0.550  13.839 -4.7750 -0.3853  0.8483
  334MOL0     H46058   7.581  -0.691  13.782  0.1894 -1.4418 -2.7203
  334MOL0     H46059   7.664  -0.835  13.797 -1.2029 -0.0453  0.1149
  334MOL0     H46060   7.708  -0.772  14.047 -0.8915 -1.3236  1.8138
  334MOL0     H46061   7.558  -0.832  13.992  3.1354 -2.8140 -2.9287
  334MOL0     H46062   7.484  -0.573  13.989  0.0619  0.3824 -0.0674
  334MOL0     H46063   7.658  -0.539  14.038  1.5292 -2.0483  1.4186
  334MOL0     H46064   7.509  -0.729  14.216 -1.1859  1.1773  0.8451
  334MOL0     H46065   7.595  -0.571  14.243  5.2780 -0.7804 -4.8887
  334MOL0     H46066   7.355  -0.601  14.325 -1.1981  2.6717  0.1926
  334MOL0     H46067   7.304  -0.651  14.164  1.4851 -1.3378 -0.3193
  334MOL0     H46068   7.372  -0.414  14.075  1.3419 -1.4642 -1.0235
  334MOL0     H46069   7.439  -0.375  14.236  0.6680 -1.5126 -0.4868
  334MOL0     H46070   7.220  -0.284  14.247 -0.6046 -0.2224 -0.7088
  334MOL0     H46071   7.206  -0.435  14.332  0.5187  0.1899  0.5627
  334MOL0     H46072   7.840  -0.635  13.407  0.8253 -0.4455 -2.0859
  334MOL0     H46073   8.028  -0.513  13.296 -1.4168 -3.6688 -0.6859
  334MOL0     H46074   8.343  -0.372  13.216 -1.2268 -0.1270  1.3788
  334MOL0     H46075   8.419  -0.293  13.010  0.8745  0.3121  0.1781
  334MOL0     H46076   7.254   0.297  11.678  1.0905 -1.3907 -1.5416
  334MOL0     H46077   7.064   0.420  11.586  2.0061 -3.9832  1.7908
  334MOL0     H46078   6.810   0.544  11.317 -1.0905  1.1735  0.8147
  334MOL0     H46079   6.580   0.576  11.222  0.0805 -1.4721 -1.4930
  334MOL0     H46080   6.585   0.726  10.805  1.6526 -1.5056  2.9078
  334MOL0     H46081   6.407   0.738  10.834  0.1204  0.1321 -0.8119
  334MOL0     H46082   6.535   0.934  10.777  0.1498 -3.4629 -0.5315
  334MOL0     H46083   6.618   0.944  10.931 -1.7707  1.7578  1.5063
  334MOL0     H46084   6.311   0.930  10.882 -1.3438  0.0887  1.1722
  334MOL0     H46085   6.380   0.913  11.041  2.1685  2.5061  1.2604
  334MOL0     H46086   6.494   1.138  11.018  0.4435  3.8578 -0.0526
  334MOL0     H46087   6.319   1.161  11.005  1.8153  0.9897  1.4530
  334MOL0     H46088   6.393   1.229  10.608  0.0495  0.7138  0.7765
  334MOL0     H46089   6.763   0.759  10.885  0.2510  0.9462  0.2761
  334MOL0     H46090   7.079   0.604  10.950  2.1345  0.8151  2.9286
  334MOL0     H46091   6.983   0.716  10.846 -1.0096  1.8028  0.7540
  334MOL0     H46092   7.093   0.778  10.977  2.7371 -1.7007 -0.1469
  335MOL0     O46093  10.052   3.205   1.313 -0.3344  0.5874  0.0918
  335MOL0     C46094  10.023   3.098   1.249  0.2508 -0.7189  0.3629
  335MOL0     O46095   9.896   3.068   1.206  0.3948  0.4708  0.3178
  335MOL0     C46096   9.789   3.126   1.278 -0.7684  0.6819  0.2027
  335MOL0     C46097   9.749   3.257   1.255  0.6094  0.8621  0.2500
  335MOL0     C46098   9.638   3.309   1.324  0.7099 -0.8453 -0.0877
  335MOL0     C46099   9.582   3.235   1.437  0.5317  0.0578  0.7118
  335MOL0     O46100   9.486   3.306   1.513 -0.0908 -0.8441 -0.0154
  335MOL0     C46101   9.444   3.248   1.630 -0.9264 -0.0412  0.2911
  335MOL0     C46102   9.386   3.352   1.713 -0.6271 -0.0246  0.5539
  335MOL0     C46103   9.264   3.433   1.668 -0.5799 -0.1268 -0.3174
  335MOL0     C46104   9.237   3.541   1.777  0.2154  0.1543  0.3586
  335MOL0     C46105   9.131   3.640   1.728 -0.2575 -0.2665  0.5514
  335MOL0     C46106   9.080   3.742   1.833  0.0822 -0.4753  0.0385
  335MOL0     C46107   8.953   3.827   1.783 -0.2779 -1.5523 -0.3937
  335MOL0     C46108   8.823   3.738   1.785  0.2020 -0.8623  0.4487
  335MOL0     N46109   8.785   3.696   1.919 -0.2429  0.0494 -0.2192
  335MOL0     C46110   8.710   3.775   2.008 -0.1514 -0.4883  0.2993
  335MOL0     C46111   8.684   3.687   2.117 -0.1584  0.2295  1.0965
  335MOL0     C46112   8.600   3.722   2.229  0.0402  0.0385 -0.6470
  335MOL0     C46113   8.464   3.657   2.220  0.2694 -0.3019 -0.2452
  335MOL0     C46114   8.380   3.702   2.345  0.1515  0.4880  0.4315
  335MOL0     C46115   8.242   3.631   2.348 -0.0024 -0.5782 -0.2541
  335MOL0     O46116   8.255   3.487   2.382  0.3123  0.1206  0.4101
  335MOL0     C46117   8.141   3.425   2.435 -0.8902  0.1180 -0.1677
  335MOL0     C46118   8.018   3.429   2.374 -0.0304  0.6631  0.3709
  335MOL0     C46119   7.911   3.343   2.420 -0.7862 -1.2295 -0.6073
  335MOL0     C46120   7.790   3.374   2.335 -0.1587  0.2577 -0.0343
  335MOL0     C46121   7.935   3.254   2.526  0.1934 -0.7304  0.4622
  335MOL0     C46122   7.830   3.172   2.579 -0.6134 -0.4596  0.3142
  335MOL0     O46123   7.851   3.103   2.695  0.5694 -0.3515  0.4868
  335MOL0     C46124   7.750   3.018   2.734 -0.9363 -0.0885  0.2772
  335MOL0     C46125   7.713   3.030   2.865 -0.7770 -0.0895 -0.7243
  335MOL0     C46126   7.621   2.940   2.922  0.4032 -0.5686  0.6488
  335MOL0     C46127   7.584   2.831   2.848 -0.2556  0.5600  0.2879
  335MOL0     O46128   7.505   2.735   2.904 -0.4541 -0.1048 -0.0781
  335MOL0     C46129   7.370   2.767   2.879  1.1487 -0.4501  0.6315
  335MOL0     C46130   7.308   2.635   2.922  0.1490  0.1122 -0.0018
  335MOL0     C46131   7.163   2.680   2.954  0.4314 -0.0423 -0.2129
  335MOL0     C46132   7.069   2.562   2.990  0.0019  0.2239 -0.3909
  335MOL0     C46133   6.933   2.626   3.008 -0.2693  0.1409  0.1679
  335MOL0     C46134   6.847   2.530   3.101 -0.2561 -0.2957  2.0109
  335MOL0     C46135   6.815   2.397   3.032 -0.6179 -0.4527 -0.8095
  335MOL0     C46136   6.751   2.290   3.126  0.3285 -0.9752  0.1680
  335MOL0    Cl46137   6.862   2.261   3.283  0.3048  0.5557  0.3177
  335MOL0     C46138   7.619   2.824   2.716 -0.7654 -0.0093  0.5312
  335MOL0     C46139   7.704   2.917   2.656  0.3435  0.2151 -0.7193
  335MOL0     O46140   7.724   3.161   2.512  0.2412 -0.5847 -0.7426
  335MOL0     C46141   8.059   3.261   2.592 -0.4621  0.3362  0.3245
  335MOL0     C46142   8.157   3.342   2.545  0.5098 -0.5937 -0.1241
  335MOL0     N46143   8.756   3.573   2.093 -0.5811 -0.0900 -0.8195
  335MOL0     N46144   8.814   3.579   1.983 -0.6972  0.2671  0.4982
  335MOL0     C46145   9.627   3.107   1.455  0.0095 -0.3184  0.1883
  335MOL0     C46146   9.722   3.045   1.374 -0.0302  0.3589 -0.2866
  335MOL0     C46147  10.129   3.008   1.210  0.5028  0.1060 -0.2578
  335MOL0     C46148  10.098   2.904   1.127 -0.5795  0.3391  0.8431
  335MOL0     C46149  10.189   2.807   1.084  0.4821 -0.5426  1.2596
  335MOL0     C46150  10.323   2.821   1.124 -0.0766 -0.5670 -0.0409
  335MOL0     O46151  10.427   2.743   1.088 -0.2478 -0.0768 -0.1112
  335MOL0     C46152  10.387   2.611   1.046 -0.2918  0.7817 -0.2490
  335MOL0     C46153  10.511   2.523   1.047  0.6854 -0.9919  0.3767
  335MOL0     C46154  10.487   2.383   0.994 -0.2560  1.2228  0.3278
  335MOL0     C46155  10.612   2.308   0.940 -0.0914 -0.4134  0.5787
  335MOL0     C46156  10.681   2.376   0.827  0.3830 -1.0766  0.3520
  335MOL0     C46157  10.749   2.401   0.730  0.0247  0.2614  0.0259
  335MOL0     C46158  10.357   2.926   1.210  0.3982 -0.1824 -0.5413
  335MOL0     C46159  10.260   3.019   1.260 -0.3239 -0.7456 -0.5658
  335MOL0     C46160  10.314   3.125   1.361  0.4010 -0.2118 -0.4451
  335MOL0     H46161   9.811   3.310   1.184  2.2129 -0.9507  0.2137
  335MOL0     H46162   9.605   3.404   1.282 -1.5615 -1.5760 -0.1294
  335MOL0     H46163   9.527   3.200   1.683 -1.2811 -2.5721 -1.2680
  335MOL0     H46164   9.372   3.171   1.599 -1.5331  0.0739  1.3733
  335MOL0     H46165   9.367   3.300   1.808  1.9216 -1.3470  0.4281
  335MOL0     H46166   9.470   3.419   1.731  0.4577 -1.1088 -0.3022
  335MOL0     H46167   9.288   3.483   1.574 -1.4533  3.3404  1.1302
  335MOL0     H46168   9.184   3.362   1.643  0.6845 -1.8124  0.2822
  335MOL0     H46169   9.208   3.492   1.870 -1.7473  1.3607  0.4354
  335MOL0     H46170   9.333   3.589   1.798 -0.8876  2.3963  0.5551
  335MOL0     H46171   9.047   3.592   1.678  0.1291 -0.9966  0.5973
  335MOL0     H46172   9.185   3.689   1.646  0.0611 -3.9043 -1.6319
  335MOL0     H46173   9.047   3.690   1.923 -0.3543 -0.9054 -0.3574
  335MOL0     H46174   9.161   3.810   1.861 -3.1053  2.6955  2.4081
  335MOL0     H46175   8.968   3.859   1.680  0.9940  1.8611  0.7212
  335MOL0     H46176   8.951   3.913   1.850  1.5814 -2.8834  1.5281
  335MOL0     H46177   8.746   3.798   1.734  1.6621  0.9076  0.2034
  335MOL0     H46178   8.834   3.651   1.719 -0.1295  1.0018 -2.2385
  335MOL0     H46179   8.655   3.868   1.994 -3.9776 -2.6377 -0.1446
  335MOL0     H46180   8.587   3.830   2.212  0.3551  0.0675 -0.6992
  335MOL0     H46181   8.659   3.708   2.320  1.0013 -1.7045 -1.5012
  335MOL0     H46182   8.417   3.693   2.128  4.2969 -0.1019 -2.4465
  335MOL0     H46183   8.479   3.549   2.210  1.5360 -0.1743  0.0340
  335MOL0     H46184   8.432   3.674   2.437  2.2102  1.1788 -0.4556
  335MOL0     H46185   8.369   3.811   2.343  1.2419  0.7034  2.4790
  335MOL0     H46186   8.178   3.678   2.424 -0.9818  0.0617 -1.4322
  335MOL0     H46187   8.195   3.636   2.249 -1.4261 -0.7246  0.3875
  335MOL0     H46188   8.008   3.489   2.284  1.2059  2.4282  1.3686
  335MOL0     H46189   7.822   3.425   2.243 -0.4017  0.0784 -0.2206
  335MOL0     H46190   7.710   3.433   2.381  1.1296  1.6361  0.5096
  335MOL0     H46191   7.751   3.276   2.305  1.4532 -0.8287  1.2570
  335MOL0     H46192   7.745   3.117   2.921  0.0059 -0.8760  0.0807
  335MOL0     H46193   7.591   2.952   3.026 -0.6829 -0.4283  0.3220
  335MOL0     H46194   7.340   2.855   2.937 -0.6108 -0.3677 -0.3306
  335MOL0     H46195   7.330   2.779   2.778 -2.0781 -3.1262  1.4118
  335MOL0     H46196   7.312   2.561   2.843  2.6672  0.2313 -0.0580
  335MOL0     H46197   7.358   2.589   3.008 -2.0072 -1.4180  0.5283
  335MOL0     H46198   7.111   2.729   2.871  1.0072  2.2463  0.7119
  335MOL0     H46199   7.167   2.751   3.037 -1.3845  1.3054 -1.1885
  335MOL0     H46200   7.099   2.523   3.087 -0.9545  0.7427  0.1357
  335MOL0     H46201   7.072   2.482   2.915 -1.1154  0.1300 -0.3610
  335MOL0     H46202   6.943   2.726   3.051 -1.6786  1.0083 -1.3939
  335MOL0     H46203   6.887   2.632   2.909 -0.8065 -0.7342  0.3467
  335MOL0     H46204   6.752   2.576   3.131 -0.5164 -1.5249  3.1339
  335MOL0     H46205   6.897   2.511   3.196  1.1019  0.8198  1.5717
  335MOL0     H46206   6.909   2.351   2.999  2.3051  3.9731  0.4407
  335MOL0     H46207   6.752   2.411   2.943 -0.6941 -0.0217 -0.6876
  335MOL0     H46208   6.747   2.202   3.061  2.1611  0.4622 -2.0947
  335MOL0     H46209   6.650   2.315   3.158 -1.1383 -2.5541 -2.8245
  335MOL0     H46210   7.577   2.741   2.660  1.8955 -0.0950 -1.5357
  335MOL0     H46211   7.729   2.916   2.551 -0.3073  0.8913 -0.8811
  335MOL0     H46212   8.078   3.206   2.683 -2.7303 -0.9014  0.1436
  335MOL0     H46213   8.254   3.349   2.593  0.0525 -0.8982  0.8786
  335MOL0     H46214   9.591   3.043   1.535  2.0947 -0.2295  1.2495
  335MOL0     H46215   9.748   2.940   1.389 -0.5400  0.5763  2.7302
  335MOL0     H46216  10.002   2.889   1.078 -0.5211  1.8979  0.1822
  335MOL0     H46217  10.153   2.738   1.009 -1.2822  0.1779  1.3824
  335MOL0     H46218  10.327   2.565   1.126  3.5659 -2.7814  0.9666
  335MOL0     H46219  10.333   2.594   0.953 -0.7177  0.8884 -0.0247
  335MOL0     H46220  10.526   2.505   1.154  0.3698  1.3961  0.8737
  335MOL0     H46221  10.598   2.576   1.009 -1.7239  2.6100 -0.6420
  335MOL0     H46222  10.432   2.314   1.059  1.9337 -1.2004 -0.2239
  335MOL0     H46223  10.427   2.391   0.903  1.4228 -0.0319 -0.9655
  335MOL0     H46224  10.597   2.206   0.904  2.5568 -0.4725 -0.5729
  335MOL0     H46225  10.685   2.302   1.021  1.6273 -0.3598 -0.9202
  335MOL0     H46226  10.811   2.430   0.647 -1.0107  1.7096 -0.2716
  335MOL0     H46227  10.460   2.948   1.237  0.0063 -1.8116  2.8698
  335MOL0     H46228  10.405   3.087   1.409 -0.3997  0.3869  1.6414
  335MOL0     H46229  10.347   3.221   1.319  1.6756  0.7805  2.5172
  335MOL0     H46230  10.243   3.134   1.443  0.6731  0.0233 -0.2328
  336MOL0     O46231   9.021   1.751   9.029 -0.2643 -0.1578 -0.3916
  336MOL0     C46232   9.022   1.821   8.924 -0.6459  0.2524  0.1262
  336MOL0     O46233   9.142   1.840   8.844 -0.2110 -0.1545  0.1498
  336MOL0     C46234   9.258   1.773   8.879  0.5388  0.5087 -0.4956
  336MOL0     C46235   9.370   1.856   8.920 -0.2402  0.3326  0.8346
  336MOL0     C46236   9.501   1.806   8.939  1.1054  0.5337  0.8077
  336MOL0     C46237   9.522   1.666   8.932  0.1175 -0.1331 -0.5762
  336MOL0     O46238   9.648   1.607   8.950  0.0509  0.6920  0.1194
  336MOL0     C46239   9.659   1.467   8.980 -0.6259  0.1188 -0.0346
  336MOL0     C46240   9.801   1.408   8.969 -0.0917 -0.4726  0.2307
  336MOL0     C46241   9.887   1.486   8.860  0.2867  0.1655  0.3727
  336MOL0     C46242  10.032   1.439   8.851 -0.0656 -0.0715  0.4875
  336MOL0     C46243  10.048   1.315   8.761  0.1797  0.1972 -1.0082
  336MOL0     C46244  10.044   1.350   8.608 -0.3079  0.3257 -0.3065
  336MOL0     C46245  10.154   1.282   8.532 -0.3146 -0.0095 -0.4659
  336MOL0     C46246  10.148   1.337   8.392 -0.7281  0.3762 -0.1467
  336MOL0     N46247  10.224   1.242   8.308  0.1786  0.0643  0.5714
  336MOL0     C46248  10.190   1.108   8.294  0.0247  0.4094 -0.4466
  336MOL0     C46249  10.267   1.059   8.202  0.3871  0.1816  0.6261
  336MOL0     C46250  10.254   0.917   8.142  0.4435 -0.2462  0.2421
  336MOL0     C46251  10.176   0.918   8.007 -0.9323 -0.0237  0.6976
  336MOL0     C46252  10.247   0.998   7.883  1.0663  0.6184 -0.4006
  336MOL0     C46253  10.397   0.974   7.856  0.2444  0.5008  0.2475
  336MOL0     O46254  10.424   1.065   7.757 -0.7839  0.1414 -0.1882
  336MOL0     C46255  10.554   1.109   7.747 -0.0966 -1.6967 -0.7210
  336MOL0     C46256  10.655   1.049   7.673  0.6432 -0.0753 -0.1629
  336MOL0     C46257  10.783   1.113   7.656  0.0765  0.4138  0.7878
  336MOL0     C46258  10.877   1.032   7.565  0.0222 -0.2133 -0.2618
  336MOL0     C46259  10.817   1.229   7.729  0.9761  0.6221  0.2955
  336MOL0     C46260  10.948   1.296   7.735 -0.6454 -0.9381  0.1911
  336MOL0     O46261  11.051   1.218   7.702 -0.1085  0.0177 -0.0207
  336MOL0     C46262  11.180   1.272   7.705  0.3369  0.5213  0.9121
  336MOL0     C46263  11.249   1.290   7.833 -0.5050 -0.2344  0.6937
  336MOL0     C46264  11.381   1.344   7.830 -0.5313  0.0761 -0.1034
  336MOL0     C46265  11.446   1.372   7.712  0.1269 -0.4429  0.1683
  336MOL0     O46266  11.570   1.422   7.726 -0.1480 -0.1018 -0.2706
  336MOL0     C46267  11.593   1.554   7.669  0.7184  0.3529  0.4819
  336MOL0     C46268  11.726   1.608   7.701  0.2323  0.5480  0.3845
  336MOL0     C46269  11.766   1.587   7.850  0.1131 -0.9178 -0.8534
  336MOL0     C46270  11.914   1.586   7.866  0.2619  0.3567  0.5825
  336MOL0     C46271  11.976   1.635   7.996 -0.7495 -0.1843  0.3664
  336MOL0     C46272  12.124   1.671   7.970  0.3263 -0.4547 -0.3372
  336MOL0     C46273  12.138   1.813   7.911  0.0647 -0.0741  0.5473
  336MOL0     C46274  12.246   1.815   7.803 -0.3830 -0.1467  0.3531
  336MOL0    Cl46275  12.413   1.760   7.866 -0.2954 -0.4226 -0.4818
  336MOL0     C46276  11.384   1.355   7.594 -0.1520 -0.3747  0.5681
  336MOL0     C46277  11.249   1.300   7.590 -0.3811  0.2979 -0.0332
  336MOL0     O46278  10.958   1.418   7.766 -0.0662 -0.0602 -0.2351
  336MOL0     C46279  10.723   1.278   7.819  1.4390 -0.7683 -0.0468
  336MOL0     C46280  10.593   1.223   7.819 -0.2034 -0.2663  0.3510
  336MOL0     N46281  10.348   1.163   8.157  0.1418  0.1411 -0.2471
  336MOL0     N46282  10.319   1.276   8.214  0.3042 -0.0409  0.5909
  336MOL0     C46283   9.408   1.593   8.887 -0.6554 -0.6517  0.1556
  336MOL0     C46284   9.283   1.642   8.859  0.1391  0.0706 -0.2096
  336MOL0     C46285   8.895   1.895   8.880 -0.2095 -0.2215 -0.1930
  336MOL0     C46286   8.909   1.995   8.776  0.0121 -0.8812 -0.5531
  336MOL0     C46287   8.799   2.073   8.743  0.3532 -0.0190  0.5668
  336MOL0     C46288   8.678   2.067   8.801  0.1770  0.5901 -0.4346
  336MOL0     O46289   8.588   2.154   8.751  0.9404 -1.0607  0.0211
  336MOL0     C46290   8.461   2.167   8.833 -0.7397  1.2372 -0.3381
  336MOL0     C46291   8.354   2.260   8.779 -0.8049  0.3908 -0.0402
  336MOL0     C46292   8.222   2.231   8.860 -0.5159  0.6768  1.2303
  336MOL0     C46293   8.206   2.326   8.985  0.4716  0.5022 -0.1776
  336MOL0     C46294   8.294   2.286   9.094  0.5983  0.0497 -0.0133
  336MOL0     C46295   8.372   2.257   9.178 -0.4097 -0.0267 -0.9777
  336MOL0     C46296   8.665   1.974   8.909  0.3268 -0.7844  0.9626
  336MOL0     C46297   8.769   1.881   8.943 -0.6976 -0.6558  0.6826
  336MOL0     C46298   8.741   1.779   9.045 -0.3027  0.3480  0.0558
  336MOL0     H46299   9.358   1.963   8.912  0.8452  0.5746  2.0534
  336MOL0     H46300   9.589   1.865   8.963  1.7128  0.1108 -0.3017
  336MOL0     H46301   9.610   1.411   8.900  0.8043 -0.0029 -0.8486
  336MOL0     H46302   9.612   1.440   9.075  3.0577  0.2861  2.0271
  336MOL0     H46303   9.862   1.409   9.059 -0.6077 -2.2504  0.6371
  336MOL0     H46304   9.785   1.303   8.942  1.3409 -1.2651  2.2533
  336MOL0     H46305   9.839   1.471   8.763  0.3407  0.6692  0.2669
  336MOL0     H46306   9.900   1.592   8.884 -0.1142  0.0334  1.2224
  336MOL0     H46307  10.086   1.524   8.807  0.5075 -0.0257  1.2601
  336MOL0     H46308  10.078   1.419   8.948 -3.1643 -2.1667  1.6684
  336MOL0     H46309   9.972   1.245   8.799 -0.3058  0.9961 -0.4580
  336MOL0     H46310  10.141   1.268   8.794 -0.3676  0.2234  0.6826
  336MOL0     H46311   9.943   1.329   8.571 -0.8463  1.4562  0.4524
  336MOL0     H46312  10.057   1.457   8.590 -2.1244  1.0683  2.1893
  336MOL0     H46313  10.143   1.173   8.536 -2.2497  0.1893  0.7610
  336MOL0     H46314  10.251   1.302   8.579 -1.3206 -1.3310  2.4099
  336MOL0     H46315  10.043   1.336   8.363 -0.8711  2.6767  0.1270
  336MOL0     H46316  10.192   1.437   8.381 -2.1913  1.3983  2.4034
  336MOL0     H46317  10.106   1.060   8.344  0.0846 -0.0341 -0.7624
  336MOL0     H46318  10.194   0.855   8.208 -2.0336  0.8823 -0.8262
  336MOL0     H46319  10.351   0.867   8.129  0.2884 -0.6101  0.4684
  336MOL0     H46320  10.173   0.812   7.982  1.2252 -0.8783  3.5483
  336MOL0     H46321  10.077   0.963   8.018 -0.9441 -0.5405  3.2470
  336MOL0     H46322  10.194   0.966   7.792  0.4385  3.5651 -1.1785
  336MOL0     H46323  10.236   1.105   7.905 -0.5739  0.3911  0.0189
  336MOL0     H46324  10.458   0.992   7.945 -0.2511  2.1421  0.3032
  336MOL0     H46325  10.419   0.875   7.816  3.3479  1.7612 -1.5391
  336MOL0     H46326  10.623   0.961   7.619 -1.8068  0.1579  0.7439
  336MOL0     H46327  10.947   0.968   7.620 -1.5388  0.7591  3.1735
  336MOL0     H46328  10.940   1.100   7.508 -0.2431  0.4731  0.2452
  336MOL0     H46329  10.827   0.975   7.486 -1.6039  2.1107 -1.0029
  336MOL0     H46330  11.190   1.266   7.921 -1.4914 -3.6269 -0.6996
  336MOL0     H46331  11.437   1.373   7.918  0.7939  4.8898 -2.2435
  336MOL0     H46332  11.575   1.557   7.561 -2.8183  0.1101  0.9646
  336MOL0     H46333  11.522   1.625   7.712  2.1503  1.2584  1.4695
  336MOL0     H46334  11.803   1.562   7.639  0.2431  2.1194 -0.8495
  336MOL0     H46335  11.735   1.713   7.672  1.1999  0.2156 -0.5678
  336MOL0     H46336  11.724   1.497   7.895  1.4786 -0.4831  1.4614
  336MOL0     H46337  11.731   1.669   7.915  3.8911  0.4713 -0.3035
  336MOL0     H46338  11.945   1.663   7.794 -2.4198  3.0639  2.1128
  336MOL0     H46339  11.955   1.488   7.841  1.1075 -0.1477  3.5795
  336MOL0     H46340  11.927   1.729   8.026 -0.2409  1.9706 -4.6380
  336MOL0     H46341  11.955   1.564   8.077 -0.8090 -1.1805 -0.5065
  336MOL0     H46342  12.182   1.601   7.909  2.0423  1.3450 -0.8833
  336MOL0     H46343  12.175   1.677   8.066 -1.9934 -0.4455  0.9850
  336MOL0     H46344  12.166   1.882   7.991  2.0442  2.3839 -2.0590
  336MOL0     H46345  12.046   1.860   7.874  1.0705  1.1553 -0.5045
  336MOL0     H46346  12.262   1.917   7.766  1.2445 -0.7165 -0.6175
  336MOL0     H46347  12.219   1.754   7.715  0.0542  3.2528 -2.3571
  336MOL0     H46348  11.434   1.368   7.499 -0.4107 -1.6134  0.2418
  336MOL0     H46349  11.204   1.285   7.493  1.3737  1.0541 -1.0120
  336MOL0     H46350  10.743   1.369   7.876  1.5323 -1.2913  0.7659
  336MOL0     H46351  10.512   1.278   7.866 -1.4291  0.6263 -2.5464
  336MOL0     H46352   9.418   1.489   8.859  0.6856 -0.1296 -1.4883
  336MOL0     H46353   9.201   1.582   8.821 -1.2229  1.6395  0.1498
  336MOL0     H46354   9.004   2.004   8.724 -0.1257  1.3123 -0.5198
  336MOL0     H46355   8.816   2.151   8.670 -0.2297 -1.8935 -1.6711
  336MOL0     H46356   8.419   2.066   8.837  3.7297 -0.8273  0.4427
  336MOL0     H46357   8.488   2.191   8.936  2.5717 -2.2196 -0.1882
  336MOL0     H46358   8.337   2.231   8.675  2.6919  0.0666 -0.6540
  336MOL0     H46359   8.383   2.364   8.764  2.6224 -0.3997  0.3380
  336MOL0     H46360   8.140   2.254   8.791 -0.4526  0.1752  0.9867
  336MOL0     H46361   8.207   2.125   8.879  0.0434  0.4972  0.6682
  336MOL0     H46362   8.106   2.313   9.025  0.4794  3.1933  0.9318
  336MOL0     H46363   8.215   2.430   8.951 -2.1957  1.1536  0.9129
  336MOL0     H46364   8.440   2.229   9.255 -1.2957  1.4338  0.3820
  336MOL0     H46365   8.565   1.958   8.949 -0.2750  0.2411 -0.0496
  336MOL0     H46366   8.769   1.678   9.013 -4.4026 -1.4706  1.5452
  336MOL0     H46367   8.786   1.804   9.142  0.5036  2.1643 -0.7357
  336MOL0     H46368   8.633   1.781   9.058 -0.1955  3.3500  1.3423
  337MOL0     O46369   1.714   7.673   0.810  0.1587  0.1741 -0.7694
  337MOL0     C46370   1.636   7.642   0.729  0.3581  0.5866 -0.9809
  337MOL0     O46371   1.514   7.600   0.756 -0.8876  0.6583 -0.9484
  337MOL0     C46372   1.464   7.555   0.879  0.9765 -0.4049 -0.6539
  337MOL0     C46373   1.539   7.528   0.991  0.2875 -0.1441  0.0127
  337MOL0     C46374   1.477   7.478   1.108  0.6927 -0.3113  0.4580
  337MOL0     C46375   1.336   7.449   1.113  0.3190 -0.2510  1.5670
  337MOL0     O46376   1.289   7.402   1.230  0.0309  0.9076 -0.6483
  337MOL0     C46377   1.269   7.257   1.231 -0.7160  0.5843 -0.1577
  337MOL0     C46378   1.306   7.189   1.356  0.6275  1.1494 -0.5409
  337MOL0     C46379   1.262   7.045   1.340  1.2215  0.6380  0.7524
  337MOL0     C46380   1.360   6.964   1.263 -0.6885  0.7459 -0.7343
  337MOL0     C46381   1.329   6.812   1.277 -0.3854 -0.7854  0.3988
  337MOL0     C46382   1.419   6.738   1.174  0.2036 -0.3997 -0.3644
  337MOL0     C46383   1.430   6.581   1.195  0.6011 -0.4248  0.3463
  337MOL0     C46384   1.285   6.526   1.241 -0.2515 -0.0691 -0.1163
  337MOL0     N46385   1.189   6.526   1.126  0.2255 -0.5357 -0.4846
  337MOL0     C46386   1.204   6.459   1.003  0.1403 -0.4419 -0.3842
  337MOL0     C46387   1.100   6.497   0.925  0.6576  0.1709  0.5116
  337MOL0     C46388   1.073   6.433   0.783 -0.0679 -0.0264  0.2964
  337MOL0     C46389   0.932   6.365   0.779 -0.6416  0.2946  1.3123
  337MOL0     C46390   0.908   6.325   0.630  0.7223 -0.4537  0.0635
  337MOL0     C46391   0.806   6.223   0.611  0.4742 -1.1857  0.1331
  337MOL0     O46392   0.760   6.213   0.477  0.3036  0.2102  0.1849
  337MOL0     C46393   0.645   6.146   0.458 -0.6618 -0.3272 -0.3114
  337MOL0     C46394   0.542   6.203   0.384  0.4990  0.1159  0.2715
  337MOL0     C46395   0.423   6.137   0.358 -1.0422 -0.2690  0.0331
  337MOL0     C46396   0.324   6.214   0.282  0.2949  0.2045  0.6187
  337MOL0     C46397   0.398   6.017   0.427 -0.8785  0.1117  0.6240
  337MOL0     C46398   0.278   5.940   0.413  0.0980 -0.0799 -0.5128
  337MOL0     O46399   0.216   5.929   0.531 -0.1370  0.3878 -0.3530
  337MOL0     C46400   0.088   5.882   0.531 -0.1626  0.3258  0.2560
  337MOL0     C46401   0.060   5.747   0.542 -0.8015 -0.0118  0.1260
  337MOL0     C46402  -0.071   5.703   0.554 -0.0593  0.1394 -0.2632
  337MOL0     C46403  -0.180   5.790   0.548  0.4395  0.1954 -0.5304
  337MOL0     O46404  -0.304   5.735   0.558  0.3064 -0.3886  0.1729
  337MOL0     C46405  -0.401   5.820   0.623  0.0875  0.0171  0.5750
  337MOL0     C46406  -0.531   5.736   0.664 -0.5756 -1.5444  0.4369
  337MOL0     C46407  -0.595   5.662   0.546  0.2713 -0.4648  0.4812
  337MOL0     C46408  -0.748   5.678   0.528 -0.2867  0.2830  0.2118
  337MOL0     C46409  -0.823   5.579   0.620 -0.0465  0.2597  0.2545
  337MOL0     C46410  -0.974   5.597   0.627  0.0672  0.7079  0.3559
  337MOL0     C46411  -1.051   5.528   0.515  0.7962 -1.1747 -0.7504
  337MOL0     C46412  -1.187   5.588   0.505 -0.4712  0.0887  0.5281
  337MOL0    Cl46413  -1.284   5.471   0.411 -0.2225  0.0925 -0.0415
  337MOL0     C46414  -0.150   5.927   0.530 -1.0720 -0.3535 -0.5026
  337MOL0     C46415  -0.018   5.973   0.521  0.4523  0.2845 -0.4789
  337MOL0     O46416   0.246   5.876   0.312 -0.2038  0.0421  0.2138
  337MOL0     C46417   0.501   5.956   0.495  0.7490 -0.6319  0.6788
  337MOL0     C46418   0.625   6.021   0.509  0.1356  1.0352  0.3415
  337MOL0     N46419   1.029   6.587   0.997  0.0322  0.8306  0.9163
  337MOL0     N46420   1.080   6.604   1.111 -0.3026  0.5042 -0.5072
  337MOL0     C46421   1.258   7.485   1.007 -0.4024  0.5908 -0.1275
  337MOL0     C46422   1.317   7.545   0.895 -0.8010 -0.1008  0.0275
  337MOL0     C46423   1.675   7.677   0.588  0.5447  0.4506 -0.6178
  337MOL0     C46424   1.812   7.686   0.560 -0.1436  0.2501  0.3892
  337MOL0     C46425   1.863   7.725   0.441  0.4854 -0.2615 -0.8652
  337MOL0     C46426   1.780   7.762   0.330 -0.3686 -1.1929 -0.2941
  337MOL0     O46427   1.807   7.796   0.200  0.0507 -0.5448  0.0715
  337MOL0     C46428   1.920   7.875   0.176 -0.0097 -0.4966 -0.4153
  337MOL0     C46429   1.905   7.945   0.044  0.6914  0.1532  0.1297
  337MOL0     C46430   1.763   7.926  -0.032 -0.0832  0.5911  0.2391
  337MOL0     C46431   1.747   8.031  -0.144 -0.5846  0.0338  0.4246
  337MOL0     C46432   1.847   8.012  -0.246 -0.1577 -0.1863 -0.0463
  337MOL0     C46433   1.932   8.006  -0.330 -0.0546  0.7140  0.2369
  337MOL0     C46434   1.646   7.754   0.353  0.6441 -0.1639 -0.6030
  337MOL0     C46435   1.589   7.705   0.480  0.0059 -0.4163 -0.1169
  337MOL0     C46436   1.438   7.685   0.500  1.4391 -0.4801 -0.0411
  337MOL0     H46437   1.647   7.535   0.983  0.3508  1.9024  1.9517
  337MOL0     H46438   1.545   7.443   1.184  2.4541  1.0916 -0.4020
  337MOL0     H46439   1.322   7.219   1.142  0.7814  0.6853  0.6604
  337MOL0     H46440   1.163   7.242   1.210 -0.0640 -0.4429 -3.3333
  337MOL0     H46441   1.409   7.216   1.383  0.1701  3.1804 -0.7390
  337MOL0     H46442   1.243   7.231   1.434  2.0575 -0.3405  1.5341
  337MOL0     H46443   1.266   6.994   1.437 -0.6325 -2.1362 -0.5056
  337MOL0     H46444   1.165   7.033   1.292 -0.0531  1.3472  2.9984
  337MOL0     H46445   1.360   6.978   1.154  4.1811 -0.4394 -1.1490
  337MOL0     H46446   1.457   6.996   1.301 -1.3812 -0.8833  2.7434
  337MOL0     H46447   1.221   6.800   1.267 -1.0296  3.1751  1.0144
  337MOL0     H46448   1.342   6.775   1.379 -3.3054 -0.3971  0.9979
  337MOL0     H46449   1.384   6.756   1.072  1.0865 -0.0490 -0.6128
  337MOL0     H46450   1.523   6.772   1.179  0.4188 -0.9078 -1.2532
  337MOL0     H46451   1.498   6.555   1.276  1.7690 -0.6793 -0.6883
  337MOL0     H46452   1.459   6.529   1.104 -1.0022 -0.1308 -0.3713
  337MOL0     H46453   1.308   6.422   1.267  0.2394  0.1195  0.2319
  337MOL0     H46454   1.250   6.579   1.330  1.6421 -1.8094  1.7914
  337MOL0     H46455   1.263   6.370   0.983 -0.4118 -0.2113 -3.6295
  337MOL0     H46456   1.154   6.372   0.742 -0.9138 -0.2028 -1.1831
  337MOL0     H46457   1.068   6.516   0.712 -0.7828 -1.2095 -1.0984
  337MOL0     H46458   0.923   6.278   0.844 -4.4945 -0.0347  0.5764
  337MOL0     H46459   0.857   6.435   0.817 -1.4073 -0.4341  1.1625
  337MOL0     H46460   0.876   6.411   0.570 -1.3455 -0.3636  1.2000
  337MOL0     H46461   0.999   6.280   0.590  0.2074 -2.4364  0.9777
  337MOL0     H46462   0.837   6.129   0.657 -0.1960 -0.2910  2.6348
  337MOL0     H46463   0.716   6.240   0.673  1.8750 -2.4722  2.6932
  337MOL0     H46464   0.544   6.305   0.347 -1.6712  0.9631  2.2796
  337MOL0     H46465   0.269   6.149   0.212  2.0775 -1.1989  0.4496
  337MOL0     H46466   0.358   6.307   0.235 -0.4368  0.9911  1.5971
  337MOL0     H46467   0.244   6.249   0.348 -0.8383  0.0337 -0.6148
  337MOL0     H46468   0.139   5.673   0.553 -0.3113  0.2559 -1.3579
  337MOL0     H46469  -0.104   5.602   0.571 -0.3759  0.2596 -0.1721
  337MOL0     H46470  -0.361   5.873   0.709 -0.6972  0.2103  0.8262
  337MOL0     H46471  -0.427   5.889   0.542 -1.7407 -0.0478  1.0595
  337MOL0     H46472  -0.475   5.667   0.728  3.3436  0.9946  0.0905
  337MOL0     H46473  -0.588   5.808   0.723 -1.5938 -0.5286 -1.7212
  337MOL0     H46474  -0.569   5.557   0.534 -1.3755 -0.8424 -0.0497
  337MOL0     H46475  -0.549   5.721   0.466  3.5740  0.1108  2.6130
  337MOL0     H46476  -0.776   5.650   0.426 -0.5552  2.2253 -0.2879
  337MOL0     H46477  -0.780   5.783   0.535 -0.6510  0.2622 -1.0275
  337MOL0     H46478  -0.804   5.481   0.575 -4.9950 -1.8637  2.0892
  337MOL0     H46479  -0.783   5.572   0.722  1.2535 -0.7603 -0.2940
  337MOL0     H46480  -0.994   5.704   0.628 -0.6043  0.5879  0.2757
  337MOL0     H46481  -1.016   5.573   0.724 -0.2707 -1.0102 -0.1757
  337MOL0     H46482  -1.059   5.421   0.537  2.3101 -0.6404  3.2274
  337MOL0     H46483  -1.000   5.541   0.419 -1.3841 -0.4267 -1.8765
  337MOL0     H46484  -1.179   5.672   0.436  2.0520 -2.4865 -2.6237
  337MOL0     H46485  -1.230   5.616   0.602  1.8435 -1.9979  2.2662
  337MOL0     H46486  -0.233   5.996   0.517 -0.6671  0.5540  1.4183
  337MOL0     H46487  -0.013   6.079   0.499 -0.2787 -0.3367 -4.3668
  337MOL0     H46488   0.487   5.857   0.538 -0.6258 -1.6285 -1.8724
  337MOL0     H46489   0.705   5.977   0.569 -1.0755 -2.8688 -0.5908
  337MOL0     H46490   1.151   7.469   1.004 -0.1681 -1.3311  0.2143
  337MOL0     H46491   1.255   7.567   0.809 -2.3652  1.8742  1.5710
  337MOL0     H46492   1.880   7.659   0.640  0.0629 -1.2313 -0.2700
  337MOL0     H46493   1.971   7.717   0.430  1.5534  0.4807  5.3719
  337MOL0     H46494   1.936   7.952   0.252 -0.5123 -1.8629  1.1371
  337MOL0     H46495   2.007   7.810   0.183 -0.7479 -1.7153 -1.9849
  337MOL0     H46496   1.986   7.905  -0.017 -0.0059 -1.9693  0.4893
  337MOL0     H46497   1.937   8.046   0.070 -0.4281 -0.1857  3.2488
  337MOL0     H46498   1.764   7.826  -0.076 -0.4638  1.0552 -0.8847
  337MOL0     H46499   1.680   7.946   0.036 -1.8686 -0.1511 -1.6142
  337MOL0     H46500   1.741   8.130  -0.097 -1.8310  0.5941 -0.8463
  337MOL0     H46501   1.651   8.012  -0.192 -0.4872  0.3309  0.1058
  337MOL0     H46502   2.012   8.005  -0.402  0.9516 -0.4033  1.3208
  337MOL0     H46503   1.577   7.755   0.270 -2.1238 -3.1129  1.4140
  337MOL0     H46504   1.393   7.733   0.413  1.2555 -1.0863 -0.2876
  337MOL0     H46505   1.403   7.581   0.505  1.1020 -0.6983 -3.8675
  337MOL0     H46506   1.411   7.735   0.594  1.3246 -0.1986 -0.2211
  338MOL0     O46507   8.961   8.540   5.601  0.8379 -0.1899  0.5117
  338MOL0     C46508   8.917   8.593   5.707  0.4779 -1.0694  0.2590
  338MOL0     O46509   8.893   8.727   5.732  0.1289 -0.3746 -0.2234
  338MOL0     C46510   8.947   8.835   5.659  0.2116 -0.6932  0.2366
  338MOL0     C46511   8.919   8.955   5.726 -0.0397  0.1618 -0.1675
  338MOL0     C46512   8.984   9.078   5.685  0.6271  0.6413 -0.2001
  338MOL0     C46513   9.066   9.071   5.575  0.4318  0.8010 -0.0821
  338MOL0     O46514   9.139   9.172   5.535 -0.1313  0.8755  0.5859
  338MOL0     C46515   9.160   9.286   5.612  0.5902 -0.2801 -0.2747
  338MOL0     C46516   9.040   9.390   5.611 -0.3899 -0.3455 -0.2049
  338MOL0     C46517   9.035   9.463   5.476  0.2543  0.3093 -0.3213
  338MOL0     C46518   9.169   9.552   5.455  0.5796 -0.8552 -0.1915
  338MOL0     C46519   9.142   9.675   5.359  0.2460  0.1160 -0.7547
  338MOL0     C46520   9.262   9.687   5.271  0.6258 -0.4718  0.0150
  338MOL0     C46521   9.220   9.760   5.143 -0.8735  0.7215  0.1369
  338MOL0     C46522   9.346   9.778   5.062 -0.7892 -0.2273  0.3689
  338MOL0     N46523   9.318   9.842   4.928 -0.0704  0.0937 -0.0992
  338MOL0     C46524   9.232   9.793   4.837  0.7471 -0.6059  0.7362
  338MOL0     C46525   9.235   9.888   4.733  0.1886 -0.0836 -0.0005
  338MOL0     C46526   9.148   9.896   4.615  0.2067  0.2389 -0.6859
  338MOL0     C46527   9.203   9.971   4.493  0.2956 -0.1802 -0.2226
  338MOL0     C46528   9.181   9.907   4.357  1.0993 -0.2315  0.1097
  338MOL0     C46529   9.209  10.002   4.249 -0.4664  0.1163 -0.0059
  338MOL0     O46530   9.165   9.958   4.118 -0.0720 -0.1703 -0.8107
  338MOL0     C46531   9.199   9.835   4.077 -0.7820 -0.0550 -0.7419
  338MOL0     C46532   9.319   9.771   4.089  0.1996  0.3715 -0.0986
  338MOL0     C46533   9.353   9.651   4.019  0.4647 -0.5483 -0.1099
  338MOL0     C46534   9.494   9.588   4.036 -0.3166 -0.1844  0.8894
  338MOL0     C46535   9.249   9.580   3.947 -0.3629  0.0477 -0.7274
  338MOL0     C46536   9.273   9.456   3.874 -0.3097  0.2507 -0.1790
  338MOL0     O46537   9.160   9.384   3.846  0.5070 -0.1138 -0.3331
  338MOL0     C46538   9.177   9.257   3.805  0.1738 -0.5917 -0.9547
  338MOL0     C46539   9.184   9.214   3.676  0.3331 -0.2123  0.4038
  338MOL0     C46540   9.200   9.074   3.656  0.2953 -1.2763  0.3975
  338MOL0     C46541   9.176   8.977   3.754  0.4996 -0.3394 -0.0750
  338MOL0     O46542   9.161   8.844   3.724 -0.2481  0.2221 -0.0589
  338MOL0     C46543   9.064   8.809   3.622  0.1216  0.6334 -0.1488
  338MOL0     C46544   9.093   8.665   3.584  0.1647 -0.1854 -0.4459
  338MOL0     C46545   9.229   8.644   3.512 -0.3943 -0.0156  0.0953
  338MOL0     C46546   9.274   8.504   3.483  0.3312 -0.2874  0.8026
  338MOL0     C46547   9.384   8.507   3.385 -0.7974  0.5474 -0.4768
  338MOL0     C46548   9.468   8.373   3.356 -0.2644 -0.0409 -0.9155
  338MOL0     C46549   9.612   8.399   3.292  0.0351  0.6731 -0.0846
  338MOL0     C46550   9.615   8.493   3.168 -0.1411 -0.1651  0.4708
  338MOL0    Cl46551   9.591   8.673   3.194 -0.2963  0.5238 -0.3846
  338MOL0     C46552   9.174   9.020   3.884 -1.5514 -0.3802 -1.4898
  338MOL0     C46553   9.167   9.161   3.907  0.4447  0.6077 -0.3549
  338MOL0     O46554   9.390   9.416   3.836  0.7942  0.4624  0.2731
  338MOL0     C46555   9.130   9.649   3.935  0.6060  0.8738 -0.5134
  338MOL0     C46556   9.105   9.771   3.999 -0.2771 -0.0968  0.5674
  338MOL0     N46557   9.330   9.982   4.761 -0.9697 -0.5620  0.5618
  338MOL0     N46558   9.385   9.950   4.872 -1.0231  1.0968 -0.7428
  338MOL0     C46559   9.087   8.950   5.507  0.2269  0.0676 -0.9125
  338MOL0     C46560   9.030   8.836   5.546 -0.3010 -0.5460  0.2324
  338MOL0     C46561   8.870   8.495   5.814 -0.0056 -0.6498  1.0134
  338MOL0     C46562   8.884   8.540   5.949 -0.0872  0.0369  0.2538
  338MOL0     C46563   8.842   8.453   6.052  0.1662 -0.3498 -0.2523
  338MOL0     C46564   8.796   8.321   6.035  0.4605  0.0862 -0.0673
  338MOL0     O46565   8.768   8.229   6.139 -0.1081 -0.5026  0.7633
  338MOL0     C46566   8.783   8.275   6.274  0.2012  0.5880 -0.1157
  338MOL0     C46567   8.745   8.159   6.367 -0.2805 -0.0790 -1.0089
  338MOL0     C46568   8.709   8.211   6.504 -0.6055  0.1693 -0.1700
  338MOL0     C46569   8.637   8.107   6.598 -0.7307  0.6509  1.3334
  338MOL0     C46570   8.526   8.048   6.535 -0.3135 -0.6470 -0.2827
  338MOL0     C46571   8.434   7.980   6.496 -0.2561 -0.8480 -0.4189
  338MOL0     C46572   8.780   8.276   5.899  0.5572  0.0154 -0.0268
  338MOL0     C46573   8.813   8.364   5.791 -0.0620 -0.9795 -0.0599
  338MOL0     C46574   8.814   8.296   5.657  0.3308 -0.5613  0.1542
  338MOL0     H46575   8.853   8.952   5.812 -0.4598  1.8791 -0.3832
  338MOL0     H46576   8.958   9.166   5.742 -0.1021  0.6719 -0.5741
  338MOL0     H46577   9.255   9.336   5.593  0.9001 -0.0568  1.6515
  338MOL0     H46578   9.175   9.249   5.714  2.4973 -1.6008 -0.9889
  338MOL0     H46579   8.941   9.344   5.620 -1.1320  0.7147 -2.3389
  338MOL0     H46580   9.054   9.462   5.691 -1.4408  0.8550 -1.0632
  338MOL0     H46581   9.030   9.390   5.395 -0.3116  0.1018 -0.1015
  338MOL0     H46582   8.945   9.522   5.458 -0.9620 -1.7563 -1.2734
  338MOL0     H46583   9.196   9.592   5.553  0.4295  0.9260 -0.8304
  338MOL0     H46584   9.243   9.486   5.411  0.7497 -1.5527  1.1142
  338MOL0     H46585   9.115   9.771   5.406 -0.7276 -0.4876 -0.0442
  338MOL0     H46586   9.068   9.649   5.282 -0.9029  0.3694  0.2264
  338MOL0     H46587   9.337   9.740   5.331  1.3289 -1.8289  0.3796
  338MOL0     H46588   9.313   9.593   5.248  4.3187  1.0153  1.3371
  338MOL0     H46589   9.161   9.849   5.164 -2.3300  0.4633 -2.3804
  338MOL0     H46590   9.156   9.691   5.086 -0.2539  0.3838 -0.1666
  338MOL0     H46591   9.420   9.841   5.113  0.2860 -1.0003 -0.1849
  338MOL0     H46592   9.402   9.686   5.044 -1.5171 -0.3357 -1.5651
  338MOL0     H46593   9.164   9.710   4.852 -1.0694  0.6144 -0.3403
  338MOL0     H46594   9.050   9.932   4.648  0.2696 -2.1057  2.5835
  338MOL0     H46595   9.142   9.793   4.578 -0.9236  0.1550 -0.3023
  338MOL0     H46596   9.158  10.071   4.492  0.3085 -0.1754 -0.9601
  338MOL0     H46597   9.311   9.979   4.507  0.4148 -0.7873 -0.7402
  338MOL0     H46598   9.257   9.828   4.361 -1.1664 -2.5221  1.3784
  338MOL0     H46599   9.081   9.863   4.351  1.0654 -0.0755 -0.4760
  338MOL0     H46600   9.154  10.097   4.259 -1.8822 -0.3214 -2.6452
  338MOL0     H46601   9.315  10.028   4.247 -0.3679 -0.1087  1.4388
  338MOL0     H46602   9.396   9.828   4.140  0.8102  0.3544 -0.9783
  338MOL0     H46603   9.551   9.575   3.943 -1.1408  0.0370  0.3441
  338MOL0     H46604   9.487   9.488   4.079 -0.9636  0.5267  2.5121
  338MOL0     H46605   9.556   9.651   4.100  0.0575  2.5458 -1.8997
  338MOL0     H46606   9.179   9.292   3.601  0.4374  0.0562  0.6714
  338MOL0     H46607   9.210   9.036   3.555 -0.6872  0.8324 -0.5463
  338MOL0     H46608   8.961   8.814   3.660 -0.7833 -1.6417 -2.0808
  338MOL0     H46609   9.073   8.869   3.531 -2.2087 -1.7057 -2.0753
  338MOL0     H46610   9.102   8.600   3.672 -1.4644 -1.7552 -1.3813
  338MOL0     H46611   9.009   8.627   3.525  0.2112 -1.8162  0.4645
  338MOL0     H46612   9.302   8.703   3.568 -0.2550  0.7610 -0.8701
  338MOL0     H46613   9.215   8.706   3.423 -0.3656  1.4193  1.0539
  338MOL0     H46614   9.188   8.455   3.436  0.7614 -1.3276  1.0672
  338MOL0     H46615   9.290   8.444   3.573  0.4840  0.1371  1.0597
  338MOL0     H46616   9.333   8.521   3.290  0.5426 -2.9452 -1.8766
  338MOL0     H46617   9.449   8.588   3.421 -0.3736  0.1433 -0.3150
  338MOL0     H46618   9.410   8.317   3.283  1.4716  0.1650 -2.5278
  338MOL0     H46619   9.475   8.302   3.439 -0.1314 -3.2713 -3.5058
  338MOL0     H46620   9.643   8.298   3.261 -1.1663 -0.3471  1.8490
  338MOL0     H46621   9.680   8.441   3.366  0.4652 -0.1611  0.0132
  338MOL0     H46622   9.529   8.466   3.106 -0.7032  1.7352  0.3573
  338MOL0     H46623   9.704   8.487   3.104  0.8137 -4.5529  1.8932
  338MOL0     H46624   9.182   8.953   3.970 -1.5417 -0.4130 -1.5165
  338MOL0     H46625   9.171   9.201   4.008 -0.2800 -1.2377  0.4472
  338MOL0     H46626   9.055   9.604   3.870 -0.6697  2.4986 -0.2490
  338MOL0     H46627   9.002   9.807   3.993  0.2799  2.1390  2.8105
  338MOL0     H46628   9.156   8.947   5.423  1.8881 -1.2104  0.4354
  338MOL0     H46629   9.038   8.741   5.493  0.3398 -0.7572  0.6980
  338MOL0     H46630   8.913   8.638   5.982 -0.8873  1.1475 -2.0983
  338MOL0     H46631   8.849   8.493   6.152 -2.0277  0.5543 -0.3901
  338MOL0     H46632   8.886   8.301   6.300 -0.2441  1.3870  0.9380
  338MOL0     H46633   8.714   8.358   6.293 -0.4988  0.1046 -0.5393
  338MOL0     H46634   8.824   8.084   6.364  0.7714  0.9930 -1.0774
  338MOL0     H46635   8.662   8.114   6.312 -1.2005  0.5247 -0.1552
  338MOL0     H46636   8.797   8.248   6.558 -1.1493  0.3291  0.6205
  338MOL0     H46637   8.652   8.302   6.481  0.9533  0.6093 -2.6540
  338MOL0     H46638   8.627   8.161   6.692  4.2071  1.3801  1.6795
  338MOL0     H46639   8.710   8.030   6.627  2.2114  1.5676 -2.7047
  338MOL0     H46640   8.353   7.928   6.449 -0.8900  0.6127 -1.0153
  338MOL0     H46641   8.736   8.180   5.874 -0.3459 -0.1844  2.1108
  338MOL0     H46642   8.914   8.256   5.634  0.7583 -0.2649  1.4277
  338MOL0     H46643   8.751   8.208   5.669  1.0803 -1.2596 -0.8491
  338MOL0     H46644   8.781   8.361   5.575  3.7729  3.0424  1.2871
  339MOL0     O46645  10.162   3.799   7.285  0.0164  0.0530  0.6998
  339MOL0     C46646  10.185   3.689   7.235  0.2008 -0.4301  0.2666
  339MOL0     O46647  10.095   3.610   7.168 -0.0512 -0.3386  0.4299
  339MOL0     C46648   9.961   3.641   7.177  0.3494 -0.0453  0.2465
  339MOL0     C46649   9.885   3.603   7.065 -0.2776 -0.2226  0.6592
  339MOL0     C46650   9.751   3.649   7.053  0.1955  0.0368  0.2791
  339MOL0     C46651   9.686   3.719   7.147 -0.2780  0.1865 -0.1973
  339MOL0     O46652   9.564   3.774   7.112  0.3206 -0.6549 -0.6236
  339MOL0     C46653   9.519   3.888   7.191 -0.4138 -0.4440 -0.5948
  339MOL0     C46654   9.392   3.947   7.121 -0.2943  0.2335  0.2985
  339MOL0     C46655   9.377   4.095   7.148 -0.5866  0.5715 -0.2655
  339MOL0     C46656   9.365   4.124   7.300 -0.0209 -0.2378  0.2311
  339MOL0     C46657   9.295   4.265   7.327  0.4135  1.0594 -0.0854
  339MOL0     C46658   9.359   4.378   7.249 -0.5723  0.2156  0.2766
  339MOL0     C46659   9.286   4.511   7.258 -0.0339  1.2644 -0.3950
  339MOL0     C46660   9.277   4.574   7.398 -0.2235  0.0836 -0.5788
  339MOL0     N46661   9.140   4.552   7.450  0.1457  0.2865 -0.5524
  339MOL0     C46662   9.112   4.503   7.573  0.3238 -0.3138 -0.0255
  339MOL0     C46663   8.974   4.499   7.581  0.2561  1.0786  0.0420
  339MOL0     C46664   8.900   4.468   7.705  0.1482  0.3493 -0.1661
  339MOL0     C46665   8.927   4.337   7.772 -0.6330 -0.6877  0.1316
  339MOL0     C46666   9.018   4.336   7.893  1.0489 -0.0874 -0.2106
  339MOL0     C46667   9.029   4.196   7.948 -0.1469 -0.8474  0.3719
  339MOL0     O46668   9.062   4.097   7.844  0.1981  0.0718 -1.1516
  339MOL0     C46669   9.195   4.064   7.829  0.6089  0.2534 -0.4587
  339MOL0     C46670   9.310   4.151   7.818 -0.1318 -0.2572 -0.8920
  339MOL0     C46671   9.437   4.104   7.767 -0.1944 -0.3913 -0.4027
  339MOL0     C46672   9.545   4.196   7.763  0.1329 -0.1073  0.4120
  339MOL0     C46673   9.452   3.965   7.735 -0.2579 -0.1798  0.2588
  339MOL0     C46674   9.582   3.896   7.689 -0.1179 -0.1844  0.3381
  339MOL0     O46675   9.614   3.767   7.726  0.0570 -0.2114  0.2011
  339MOL0     C46676   9.726   3.706   7.678 -0.6810  0.9681  0.0299
  339MOL0     C46677   9.740   3.564   7.675 -0.5676 -0.0478  0.1279
  339MOL0     C46678   9.866   3.509   7.642  0.7912  0.5238 -1.0235
  339MOL0     C46679   9.981   3.583   7.629  0.3131 -0.4734 -0.7425
  339MOL0     O46680  10.092   3.501   7.612 -0.1719 -0.4507  0.9417
  339MOL0     C46681  10.223   3.551   7.649  0.2908  0.2739 -1.3321
  339MOL0     C46682  10.314   3.444   7.577 -0.0997 -0.2930  0.3694
  339MOL0     C46683  10.452   3.466   7.632  0.9082 -1.1632 -0.3188
  339MOL0     C46684  10.565   3.406   7.549  0.0013 -0.8587  0.6605
  339MOL0     C46685  10.687   3.370   7.625  0.1651 -0.0937 -0.5414
  339MOL0     C46686  10.747   3.498   7.687  0.0625  0.5487 -0.9659
  339MOL0     C46687  10.875   3.448   7.755  0.6234 -0.5087 -1.0672
  339MOL0     C46688  10.953   3.561   7.815  1.1786  0.2927  0.8908
  339MOL0    Cl46689  11.084   3.492   7.911 -0.6039  0.3156  0.2100
  339MOL0     C46690   9.973   3.721   7.624  0.8160 -0.2974 -0.1573
  339MOL0     C46691   9.842   3.786   7.644  0.1839  0.5247 -0.2867
  339MOL0     O46692   9.646   3.964   7.610  0.0046  0.0511  0.1820
  339MOL0     C46693   9.342   3.881   7.775  0.1305 -0.0757 -0.4399
  339MOL0     C46694   9.220   3.933   7.809  0.3381 -0.3576  0.5961
  339MOL0     N46695   8.916   4.553   7.466  0.6124  0.8773 -0.2497
  339MOL0     N46696   9.017   4.587   7.387  0.5761  0.0461  0.6934
  339MOL0     C46697   9.756   3.742   7.271  0.5247 -0.5102  0.7374
  339MOL0     C46698   9.895   3.710   7.278  0.5599  0.8403 -0.3733
  339MOL0     C46699  10.323   3.648   7.236  0.4974  0.2340  1.1580
  339MOL0     C46700  10.342   3.519   7.178 -0.7608 -0.1951  0.0278
  339MOL0     C46701  10.474   3.458   7.173 -0.2688 -0.6346  0.3274
  339MOL0     C46702  10.586   3.537   7.211 -0.2598 -0.0283  0.0087
  339MOL0     O46703  10.723   3.498   7.184  1.1464 -0.0527 -0.4392
  339MOL0     C46704  10.750   3.376   7.115  0.7444 -1.3363  0.3098
  339MOL0     C46705  10.897   3.333   7.132 -0.1929  0.1855 -0.1163
  339MOL0     C46706  10.947   3.349   7.271 -0.7950 -0.8636  0.1725
  339MOL0     C46707  11.094   3.314   7.286 -0.2727 -0.3905 -0.4380
  339MOL0     C46708  11.137   3.340   7.427 -0.5573  0.2570 -0.3879
  339MOL0     C46709  11.141   3.379   7.539 -0.5482 -0.2199  0.2573
  339MOL0     C46710  10.563   3.660   7.273  0.4358  0.8557  0.4042
  339MOL0     C46711  10.435   3.719   7.293 -0.5378  0.6978  0.2691
  339MOL0     C46712  10.436   3.858   7.357  1.2696 -0.2603 -0.0976
  339MOL0     H46713   9.928   3.568   6.971  0.2634 -0.1739  0.8861
  339MOL0     H46714   9.703   3.628   6.958  1.6151  1.2563 -0.7679
  339MOL0     H46715   9.593   3.969   7.187 -0.5161 -0.3899 -1.7112
  339MOL0     H46716   9.503   3.860   7.295 -0.1326 -0.3437 -0.5249
  339MOL0     H46717   9.407   3.924   7.015 -0.3767  0.8605  0.1480
  339MOL0     H46718   9.304   3.890   7.154 -1.1180  1.8329  0.9658
  339MOL0     H46719   9.449   4.154   7.091 -1.2156  0.6052 -1.0492
  339MOL0     H46720   9.279   4.110   7.101 -0.5920  0.5028 -0.2743
  339MOL0     H46721   9.301   4.045   7.342  0.7953  0.0319  2.0921
  339MOL0     H46722   9.461   4.128   7.353 -0.0661  0.4593  0.2642
  339MOL0     H46723   9.301   4.280   7.435  1.7292 -0.3034  0.0486
  339MOL0     H46724   9.188   4.258   7.302 -0.2353  4.6575  1.0809
  339MOL0     H46725   9.460   4.397   7.287 -1.9864  2.3216  3.4952
  339MOL0     H46726   9.352   4.351   7.144 -1.1194 -1.4859  0.7254
  339MOL0     H46727   9.187   4.502   7.213 -1.0060 -2.7853  2.1038
  339MOL0     H46728   9.346   4.585   7.204  4.4921 -0.9271  1.1945
  339MOL0     H46729   9.353   4.522   7.457  0.8212  0.2740 -1.7143
  339MOL0     H46730   9.297   4.681   7.401  0.4392 -0.0440  0.0954
  339MOL0     H46731   9.177   4.470   7.654 -2.2563  0.8727  2.7471
  339MOL0     H46732   8.791   4.471   7.693  0.2945 -0.4881 -2.0281
  339MOL0     H46733   8.918   4.545   7.780  1.4766 -0.5778  0.5087
  339MOL0     H46734   8.831   4.309   7.817 -1.2414  3.2214  1.6493
  339MOL0     H46735   8.965   4.263   7.701  0.3594 -1.9982  1.9327
  339MOL0     H46736   9.115   4.382   7.874  2.0512 -1.4803  1.2787
  339MOL0     H46737   8.982   4.404   7.970 -0.3476  2.1691 -2.6761
  339MOL0     H46738   9.119   4.206   8.010 -0.5966  0.6926  0.8242
  339MOL0     H46739   8.941   4.167   8.006 -1.6782 -0.7123 -1.7561
  339MOL0     H46740   9.288   4.251   7.853  0.2188 -0.7429  0.8011
  339MOL0     H46741   9.518   4.299   7.786  4.6442  0.8688  2.2504
  339MOL0     H46742   9.595   4.198   7.666  0.4041  2.4206  0.5343
  339MOL0     H46743   9.625   4.175   7.834  0.5380  2.6381  0.8567
  339MOL0     H46744   9.652   3.502   7.690 -0.4935  0.3029  2.4418
  339MOL0     H46745   9.867   3.400   7.637 -0.3770  0.4960 -1.0346
  339MOL0     H46746  10.246   3.654   7.621  3.1327 -0.1725 -1.0037
  339MOL0     H46747  10.244   3.533   7.755  4.3934  2.8540 -1.4757
  339MOL0     H46748  10.280   3.348   7.618 -1.6395  0.5822  1.2575
  339MOL0     H46749  10.317   3.455   7.469 -0.6949 -0.6911  0.3101
  339MOL0     H46750  10.463   3.426   7.733  0.1112 -0.6506 -0.0209
  339MOL0     H46751  10.468   3.574   7.634 -2.1002 -0.5968 -1.5261
  339MOL0     H46752  10.582   3.482   7.473 -0.7146 -1.2312  0.1256
  339MOL0     H46753  10.521   3.319   7.501  0.8488  0.5875 -3.0375
  339MOL0     H46754  10.682   3.285   7.694  0.0842  0.7133  0.4609
  339MOL0     H46755  10.758   3.339   7.547  2.1908 -1.3153  1.6350
  339MOL0     H46756  10.678   3.552   7.752 -1.2143 -0.3443 -1.5314
  339MOL0     H46757  10.770   3.573   7.611  0.8404 -0.5069 -1.8048
  339MOL0     H46758  10.940   3.407   7.677  1.2169  1.7775 -1.8607
  339MOL0     H46759  10.852   3.371   7.829  1.0986  0.5155  0.1747
  339MOL0     H46760  10.895   3.630   7.877 -0.9289  0.1813 -0.8577
  339MOL0     H46761  10.992   3.623   7.733 -1.8000  1.9525  0.6105
  339MOL0     H46762  10.058   3.786   7.610  1.5679 -1.1512  0.3641
  339MOL0     H46763   9.850   3.893   7.661 -0.6338  0.4483  0.6492
  339MOL0     H46764   9.344   3.773   7.763 -1.7464 -0.2592  0.4876
  339MOL0     H46765   9.134   3.869   7.827  1.0934 -1.3841  0.6247
  339MOL0     H46766   9.709   3.793   7.355  0.8417  3.5481 -1.2877
  339MOL0     H46767   9.942   3.736   7.372 -1.5665  0.3211  0.9057
  339MOL0     H46768  10.267   3.445   7.153 -0.6702 -1.1957  2.4229
  339MOL0     H46769  10.484   3.353   7.144  0.9703 -0.8584  1.4896
  339MOL0     H46770  10.678   3.297   7.138 -0.3201 -0.5535 -0.2400
  339MOL0     H46771  10.739   3.399   7.008 -3.8709 -0.0933  0.8565
  339MOL0     H46772  10.957   3.385   7.057 -2.0253  1.7678 -0.5419
  339MOL0     H46773  10.913   3.228   7.102  2.4535 -0.1123  1.9153
  339MOL0     H46774  10.941   3.456   7.294  1.2266 -1.2370  2.8350
  339MOL0     H46775  10.897   3.303   7.356  0.0063 -0.8433  0.6603
  339MOL0     H46776  11.154   3.374   7.217 -1.3476  0.2923 -0.7892
  339MOL0     H46777  11.109   3.208   7.260  1.9403  0.0338 -1.1119
  339MOL0     H46778  11.150   3.394   7.645 -2.5868  1.7691  0.2248
  339MOL0     H46779  10.651   3.717   7.302  2.3894 -1.4999 -0.5677
  339MOL0     H46780  10.340   3.877   7.406  0.2817  0.0378 -2.0547
  339MOL0     H46781  10.517   3.872   7.429  0.7027  3.4112  0.0413
  339MOL0     H46782  10.464   3.937   7.286 -1.8149  1.8526  0.8012
  340MOL0     O46783   8.575   6.976   6.535  0.6542 -0.2518  0.5825
  340MOL0     C46784   8.618   7.053   6.453 -0.2371  0.4956 -0.4853
  340MOL0     O46785   8.706   7.019   6.356 -0.0854 -0.0019  0.5722
  340MOL0     C46786   8.773   6.902   6.361  0.3306 -1.2523 -0.0664
  340MOL0     C46787   8.913   6.893   6.369 -0.6285 -0.2414  0.0026
  340MOL0     C46788   8.977   6.775   6.375 -0.9894  0.0542  0.5492
  340MOL0     C46789   8.911   6.646   6.364  0.1180 -0.3994  0.6858
  340MOL0     O46790   8.969   6.523   6.378 -0.4062  0.1384  0.5922
  340MOL0     C46791   9.095   6.508   6.296 -0.6743  0.8790  0.2507
  340MOL0     C46792   9.117   6.353   6.305  0.7008 -0.1884  0.1225
  340MOL0     C46793   8.998   6.270   6.247  0.3336 -0.4891 -0.3069
  340MOL0     C46794   9.017   6.125   6.263  0.1013 -0.6270  0.6558
  340MOL0     C46795   8.888   6.054   6.223 -0.0358  0.2688 -0.4579
  340MOL0     C46796   8.839   6.085   6.083  0.0229 -0.7734 -0.1631
  340MOL0     C46797   8.704   6.019   6.055 -0.4285  0.0819  0.2625
  340MOL0     C46798   8.661   6.072   5.909 -0.3863  0.1945 -0.1736
  340MOL0     N46799   8.521   6.052   5.891 -0.1465 -0.2290  0.2158
  340MOL0     C46800   8.472   5.936   5.837  0.3128 -0.0122 -0.8614
  340MOL0     C46801   8.338   5.958   5.833  0.0091  0.1093  0.2986
  340MOL0     C46802   8.243   5.878   5.746  0.1133 -1.3603  0.5220
  340MOL0     C46803   8.219   5.930   5.608 -0.1949  0.2596  0.3404
  340MOL0     C46804   8.107   5.861   5.522  0.6485  0.5861 -0.1128
  340MOL0     C46805   7.959   5.909   5.543  0.4933  0.7025 -0.4259
  340MOL0     O46806   7.935   6.034   5.467  0.0992 -0.0647 -1.0227
  340MOL0     C46807   7.844   6.112   5.532 -0.5596  0.3386  0.2649
  340MOL0     C46808   7.725   6.067   5.574  0.3191  0.1689  0.1110
  340MOL0     C46809   7.630   6.156   5.633  0.1920 -0.3439 -0.1035
  340MOL0     C46810   7.515   6.091   5.698 -0.4812  0.3591 -0.5757
  340MOL0     C46811   7.657   6.298   5.636  0.2907 -0.6490 -0.0688
  340MOL0     C46812   7.571   6.409   5.690  0.8568 -0.2614  0.6282
  340MOL0     O46813   7.609   6.536   5.647  0.6679 -0.1932 -0.1624
  340MOL0     C46814   7.519   6.643   5.627 -0.3036 -0.2754  0.0338
  340MOL0     C46815   7.575   6.771   5.597 -0.0633 -0.0842  0.3692
  340MOL0     C46816   7.498   6.886   5.592  0.6418  0.6669  0.6273
  340MOL0     C46817   7.362   6.869   5.599  0.2157  0.6884  0.4929
  340MOL0     O46818   7.295   6.985   5.592 -0.1620  0.2740 -0.4845
  340MOL0     C46819   7.175   6.996   5.679 -1.5286 -0.0427  0.8583
  340MOL0     C46820   7.174   7.138   5.735 -0.2872  0.1285  0.3525
  340MOL0     C46821   7.304   7.176   5.800  0.2168 -0.2376  0.1625
  340MOL0     C46822   7.286   7.297   5.890 -0.0397  0.5583 -0.2644
  340MOL0     C46823   7.423   7.343   5.938 -0.0510  0.2686 -0.3027
  340MOL0     C46824   7.411   7.466   6.033  0.4487 -0.8708 -0.2875
  340MOL0     C46825   7.538   7.521   6.104  0.1771 -1.4215  1.0722
  340MOL0     C46826   7.632   7.602   6.001 -0.3333  0.9281 -0.6462
  340MOL0    Cl46827   7.529   7.737   5.956  0.1958 -0.4033  0.2774
  340MOL0     C46828   7.301   6.739   5.609 -0.2050 -0.0575  0.6804
  340MOL0     C46829   7.381   6.632   5.623 -0.2658 -0.8672  0.9973
  340MOL0     O46830   7.471   6.380   5.750  0.5370  0.1135  0.1226
  340MOL0     C46831   7.780   6.340   5.591  1.3288  0.2542 -0.3234
  340MOL0     C46832   7.866   6.244   5.538 -0.6143 -0.1028  0.1500
  340MOL0     N46833   8.315   6.080   5.892  0.1182 -0.4124 -0.2080
  340MOL0     N46834   8.424   6.138   5.923 -0.3732  0.0360 -0.9074
  340MOL0     C46835   8.773   6.652   6.350  0.3630 -0.6237 -0.3140
  340MOL0     C46836   8.706   6.778   6.349  0.2469 -0.2810 -0.1419
  340MOL0     C46837   8.547   7.183   6.435  0.2293 -0.3323  0.2987
  340MOL0     C46838   8.589   7.266   6.326 -0.7612  0.0700 -0.0600
  340MOL0     C46839   8.537   7.393   6.305  0.7179  0.3791  0.1394
  340MOL0     C46840   8.433   7.437   6.378  0.1190 -0.2197 -1.1704
  340MOL0     O46841   8.392   7.558   6.342 -1.1867  0.2876 -0.1330
  340MOL0     C46842   8.281   7.633   6.398  0.0705 -0.5155  0.3649
  340MOL0     C46843   8.152   7.595   6.325 -0.2275 -0.5218 -0.6085
  340MOL0     C46844   8.153   7.641   6.181  0.3609 -0.1841  0.8600
  340MOL0     C46845   8.026   7.594   6.100 -0.2981  0.8220  0.5303
  340MOL0     C46846   8.007   7.447   6.096 -0.1294 -0.3092 -0.1693
  340MOL0     C46847   7.993   7.331   6.111 -0.5028  0.0687  0.1102
  340MOL0     C46848   8.380   7.348   6.479  0.7590  0.5199  0.3672
  340MOL0     C46849   8.432   7.224   6.510  0.7391  0.2372  0.1520
  340MOL0     C46850   8.378   7.141   6.627 -0.7199 -0.3478 -0.6267
  340MOL0     H46851   8.963   6.989   6.368 -2.0245  0.5452 -2.2677
  340MOL0     H46852   9.084   6.768   6.392 -0.9595  1.4703  1.0663
  340MOL0     H46853   9.179   6.545   6.356 -2.0077  1.3688  1.8776
  340MOL0     H46854   9.088   6.556   6.197 -1.3775  0.4577  0.0957
  340MOL0     H46855   9.213   6.324   6.262  1.2215  0.5000  0.7994
  340MOL0     H46856   9.117   6.325   6.411 -1.0782  1.7106  0.6912
  340MOL0     H46857   8.906   6.302   6.297 -0.2995 -0.8033 -1.2374
  340MOL0     H46858   8.996   6.293   6.140 -0.4082 -2.7834 -0.8505
  340MOL0     H46859   9.100   6.096   6.197  2.6408  2.4676  2.2591
  340MOL0     H46860   9.041   6.099   6.367  0.9799 -3.7144 -0.1926
  340MOL0     H46861   8.813   6.081   6.299  1.1265 -0.0449  0.8468
  340MOL0     H46862   8.904   5.946   6.228  1.2959  0.5132  2.0537
  340MOL0     H46863   8.827   6.194   6.077  1.8902 -0.4993  0.3448
  340MOL0     H46864   8.915   6.048   6.014 -1.9220 -3.2245 -1.1190
  340MOL0     H46865   8.630   6.044   6.131 -0.1562  0.2191  0.4869
  340MOL0     H46866   8.713   5.911   6.062 -3.7848 -0.1908  2.2333
  340MOL0     H46867   8.669   6.181   5.904 -0.9511  0.2822  0.6951
  340MOL0     H46868   8.721   6.026   5.830 -0.0249  0.6044 -0.1383
  340MOL0     H46869   8.520   5.852   5.788 -0.4148 -1.4337  0.7808
  340MOL0     H46870   8.147   5.882   5.798  0.5628  1.2567  1.3204
  340MOL0     H46871   8.266   5.772   5.737  1.6369 -1.2739  2.5837
  340MOL0     H46872   8.187   6.034   5.616 -2.9213 -0.4675 -0.2149
  340MOL0     H46873   8.314   5.918   5.554 -0.4964  1.8643 -0.6056
  340MOL0     H46874   8.139   5.858   5.418  1.6670  3.1734  0.0464
  340MOL0     H46875   8.092   5.757   5.551  2.6504 -0.5757 -2.8421
  340MOL0     H46876   7.888   5.836   5.506  1.0601 -2.1326  3.4542
  340MOL0     H46877   7.942   5.926   5.650 -1.4254  0.2849 -0.6307
  340MOL0     H46878   7.705   5.961   5.570 -1.6808  0.4927  0.4648
  340MOL0     H46879   7.427   6.080   5.634 -1.6353  0.1536  0.9773
  340MOL0     H46880   7.469   6.143   5.783 -1.4955 -1.4422  0.0337
  340MOL0     H46881   7.544   5.995   5.742 -2.5051 -0.5850 -1.1852
  340MOL0     H46882   7.683   6.769   5.591  0.2983  4.6640  1.4665
  340MOL0     H46883   7.532   6.988   5.573 -1.8926  2.0098  2.6023
  340MOL0     H46884   7.085   6.980   5.618 -1.9333 -0.5176  1.5720
  340MOL0     H46885   7.167   6.928   5.764  1.4378 -0.4904  0.9022
  340MOL0     H46886   7.167   7.215   5.658  4.0788 -1.4641 -2.0072
  340MOL0     H46887   7.100   7.131   5.815  2.0295  0.7780  2.6786
  340MOL0     H46888   7.372   7.203   5.719 -1.6267  0.1819 -1.3148
  340MOL0     H46889   7.346   7.088   5.850 -0.7068 -0.5062  0.4819
  340MOL0     H46890   7.211   7.283   5.968  1.2918  2.4826  1.4845
  340MOL0     H46891   7.236   7.367   5.822 -0.3680  0.8837  0.3079
  340MOL0     H46892   7.474   7.259   5.987  3.8456  1.2705 -2.2568
  340MOL0     H46893   7.484   7.374   5.853 -0.0001 -1.9163 -1.1412
  340MOL0     H46894   7.348   7.442   6.119  0.2116  1.9601  0.4262
  340MOL0     H46895   7.361   7.553   5.989  1.3941  1.4659  2.9060
  340MOL0     H46896   7.600   7.450   6.158  3.0309  1.7159  2.3058
  340MOL0     H46897   7.517   7.592   6.185  2.9206  0.7447  0.0482
  340MOL0     H46898   7.652   7.544   5.911 -3.2082  0.7842 -1.2913
  340MOL0     H46899   7.727   7.637   6.041  1.2235 -0.7508 -2.6568
  340MOL0     H46900   7.194   6.725   5.626 -0.7966  0.5051 -2.1801
  340MOL0     H46901   7.334   6.535   5.610 -2.1375  0.1735 -0.6794
  340MOL0     H46902   7.819   6.441   5.588 -1.4570  1.3904 -1.3584
  340MOL0     H46903   7.960   6.275   5.494  0.5253  0.0362  2.4893
  340MOL0     H46904   8.705   6.568   6.340 -0.8909  0.2303  0.6861
  340MOL0     H46905   8.600   6.794   6.331  0.2574  1.3168  0.9889
  340MOL0     H46906   8.671   7.224   6.268  1.3190  2.9176  0.5734
  340MOL0     H46907   8.585   7.449   6.225 -2.6719  2.4365 -0.6522
  340MOL0     H46908   8.262   7.624   6.506 -1.3747 -0.2228  0.1550
  340MOL0     H46909   8.301   7.738   6.372  0.1663  0.0343  2.4214
  340MOL0     H46910   8.064   7.638   6.375  1.6857  3.8679 -0.5619
  340MOL0     H46911   8.143   7.486   6.318  0.1676 -0.5103 -1.4088
  340MOL0     H46912   8.159   7.750   6.178  1.6526 -0.2509 -1.2196
  340MOL0     H46913   8.247   7.610   6.134  0.2472  3.9606 -2.8116
  340MOL0     H46914   8.023   7.631   5.997 -2.6101  0.6168  0.4699
  340MOL0     H46915   7.936   7.643   6.140 -2.5108  0.4382 -3.4531
  340MOL0     H46916   7.962   7.229   6.117 -1.8443  0.4687  0.4176
  340MOL0     H46917   8.297   7.387   6.537 -0.5545 -0.7766 -0.5662
  340MOL0     H46918   8.348   7.039   6.605 -4.7303  0.9857 -2.1620
  340MOL0     H46919   8.446   7.143   6.713 -2.1006  1.7762  0.4967
  340MOL0     H46920   8.285   7.183   6.665 -1.8816 -1.9921 -1.5422
  341MOL0     O46921   5.656   5.116  10.470  0.6418  0.3655 -0.3816
  341MOL0     C46922   5.597   5.194  10.543  0.2740  0.5588  0.3439
  341MOL0     O46923   5.651   5.303  10.599  0.2211 -0.0060  0.0572
  341MOL0     C46924   5.782   5.311  10.637  0.2534 -0.7814 -1.1783
  341MOL0     C46925   5.869   5.203  10.662  0.0909  0.3171  0.5601
  341MOL0     C46926   5.993   5.221  10.722  0.5756 -0.1314  0.6045
  341MOL0     C46927   6.040   5.345  10.756  0.3067 -0.2724  0.1095
  341MOL0     O46928   6.163   5.344  10.816  0.5339 -0.1253 -0.3107
  341MOL0     C46929   6.206   5.472  10.874 -0.9080 -0.1477  0.1756
  341MOL0     C46930   6.348   5.462  10.917  0.1148  0.0283 -0.9246
  341MOL0     C46931   6.379   5.369  11.035  0.1320 -1.4984 -0.4417
  341MOL0     C46932   6.353   5.446  11.170  0.4938 -0.2447 -0.6570
  341MOL0     C46933   6.325   5.337  11.280  0.6674  0.2070 -0.9233
  341MOL0     C46934   6.424   5.223  11.282 -0.1200  0.4891  0.0740
  341MOL0     C46935   6.564   5.268  11.319  0.7874  0.5554 -0.4379
  341MOL0     C46936   6.565   5.292  11.469  0.4615  0.5244  0.1436
  341MOL0     N46937   6.706   5.302  11.514  0.4721  0.0906 -0.0202
  341MOL0     C46938   6.789   5.407  11.490  0.4768  0.6019  0.1572
  341MOL0     C46939   6.900   5.368  11.551 -0.8255 -0.4242  0.0256
  341MOL0     C46940   7.035   5.430  11.526  0.2385 -0.3418 -0.2907
  341MOL0     C46941   7.033   5.568  11.459  0.2011 -0.7544  0.0266
  341MOL0     C46942   7.182   5.622  11.465 -0.0533 -0.1559  0.5062
  341MOL0     C46943   7.206   5.742  11.375  0.6096 -0.0184  0.2631
  341MOL0     O46944   7.343   5.775  11.366  0.0870 -0.5811  0.0454
  341MOL0     C46945   7.404   5.831  11.472  0.1800  0.4610 -0.6511
  341MOL0     C46946   7.469   5.754  11.571 -0.2378  0.0513 -0.2978
  341MOL0     C46947   7.524   5.811  11.695 -0.7851  0.3317  1.0070
  341MOL0     C46948   7.575   5.713  11.793  0.2077  0.2465 -0.0980
  341MOL0     C46949   7.510   5.950  11.711  0.2508  0.2104 -0.7727
  341MOL0     C46950   7.560   6.020  11.832  0.8483  1.0487  0.1892
  341MOL0     O46951   7.630   5.944  11.929 -0.1617 -0.0022  0.5062
  341MOL0     C46952   7.637   6.004  12.053  0.5043 -0.0503 -0.4777
  341MOL0     C46953   7.520   6.025  12.137  0.0750 -0.7880 -0.9017
  341MOL0     C46954   7.523   6.120  12.251 -0.2201 -0.4485 -0.1717
  341MOL0     C46955   7.652   6.174  12.281 -0.3038  0.4964 -0.4069
  341MOL0     O46956   7.678   6.281  12.361  1.4527  0.0471 -0.3911
  341MOL0     C46957   7.573   6.333  12.458 -0.1333  0.2741 -0.0865
  341MOL0     C46958   7.488   6.450  12.400  0.2402 -0.4480  0.1466
  341MOL0     C46959   7.574   6.560  12.332 -0.6680  0.3225 -0.3248
  341MOL0     C46960   7.480   6.687  12.312  0.3212  0.2298  0.3505
  341MOL0     C46961   7.560   6.816  12.280 -0.2188  0.7631  0.1154
  341MOL0     C46962   7.596   6.830  12.133 -0.4367 -0.8194  0.9423
  341MOL0     C46963   7.699   6.939  12.110 -0.8825  0.2879  0.0471
  341MOL0     C46964   7.804   6.909  11.999  0.7842  0.3993  0.8363
  341MOL0    Cl46965   7.820   7.065  11.918 -0.0834  0.0397  0.2203
  341MOL0     C46966   7.765   6.134  12.211  0.1296 -0.4591  0.8356
  341MOL0     C46967   7.755   6.046  12.096 -0.4349 -0.1148 -0.3239
  341MOL0     O46968   7.554   6.143  11.827  0.0419  0.1255 -0.3786
  341MOL0     C46969   7.446   6.023  11.609  0.2534  0.6696  0.2876
  341MOL0     C46970   7.396   5.965  11.496  0.6319 -0.4278  0.3087
  341MOL0     N46971   6.875   5.257  11.632  0.9369  0.5914 -0.2363
  341MOL0     N46972   6.755   5.209  11.606 -0.1901 -0.2917 -0.7741
  341MOL0     C46973   5.961   5.456  10.721  1.3501 -0.4038 -0.5016
  341MOL0     C46974   5.831   5.444  10.671  0.4520 -0.3164  0.6918
  341MOL0     C46975   5.456   5.177  10.569  0.2899 -0.6222 -0.2171
  341MOL0     C46976   5.366   5.285  10.558  0.0340  0.1519 -0.9154
  341MOL0     C46977   5.230   5.263  10.565 -0.3055 -0.9957  0.1120
  341MOL0     C46978   5.179   5.138  10.600  0.1948 -0.9130 -0.1885
  341MOL0     O46979   5.047   5.122  10.628 -0.3091 -0.6966  0.1849
  341MOL0     C46980   4.945   5.227  10.634  0.3124  0.3430  0.0512
  341MOL0     C46981   4.815   5.146  10.628 -0.1360 -0.7128 -0.1565
  341MOL0     C46982   4.694   5.240  10.666 -0.1851 -0.2009  0.5190
  341MOL0     C46983   4.678   5.260  10.814 -0.2971  0.8321 -0.5807
  341MOL0     C46984   4.643   5.129  10.876  0.5042 -0.4361  0.2685
  341MOL0     C46985   4.614   5.029  10.928 -0.2258 -0.2067 -0.4495
  341MOL0     C46986   5.263   5.032  10.601 -0.7932 -0.3200 -0.0527
  341MOL0     C46987   5.402   5.046  10.588  0.4004  0.0857  1.3647
  341MOL0     C46988   5.489   4.922  10.594  0.4128 -0.0816 -0.4387
  341MOL0     H46989   5.840   5.100  10.643 -0.6277  0.8596 -1.5135
  341MOL0     H46990   6.053   5.138  10.757  1.2048  1.6171  4.0324
  341MOL0     H46991   6.131   5.503  10.947 -1.7399 -0.8010 -0.3792
  341MOL0     H46992   6.207   5.540  10.788  0.8996  0.5459  0.6895
  341MOL0     H46993   6.412   5.409  10.847  2.6463 -0.2431  1.4138
  341MOL0     H46994   6.388   5.563  10.935  1.2684 -0.5777  0.1238
  341MOL0     H46995   6.315   5.284  11.010 -1.2400  0.5057 -4.8882
  341MOL0     H46996   6.486   5.346  11.030  0.0381 -1.9405 -0.4777
  341MOL0     H46997   6.430   5.518  11.199  1.4067 -0.5713 -2.1042
  341MOL0     H46998   6.262   5.507  11.165  0.8099  0.9972  4.2033
  341MOL0     H46999   6.229   5.286  11.270  0.9059 -0.8476  1.5862
  341MOL0     H47000   6.317   5.396  11.371  1.2023  0.2793 -0.9185
  341MOL0     H47001   6.388   5.149  11.354 -1.1535 -1.2666 -2.0996
  341MOL0     H47002   6.429   5.164  11.190  2.7065 -0.6056  0.8247
  341MOL0     H47003   6.585   5.358  11.261 -0.6205  1.1180 -0.1105
  341MOL0     H47004   6.639   5.192  11.295  1.3913  1.8778 -3.0737
  341MOL0     H47005   6.508   5.382  11.496 -1.6031 -1.0872  1.4419
  341MOL0     H47006   6.525   5.201  11.514 -0.1169  0.1736 -1.0290
  341MOL0     H47007   6.777   5.495  11.427  0.2084  1.4945  1.4221
  341MOL0     H47008   7.091   5.354  11.471  0.7947 -1.6376  1.9180
  341MOL0     H47009   7.103   5.431  11.612 -1.2582 -2.2861  0.9880
  341MOL0     H47010   7.000   5.553  11.356 -0.4900 -2.0663  0.4196
  341MOL0     H47011   6.967   5.640  11.509 -0.3299 -1.5244  0.4468
  341MOL0     H47012   7.205   5.645  11.570  0.6489  3.0408 -0.2432
  341MOL0     H47013   7.240   5.535  11.433 -3.8919 -2.7603 -0.0678
  341MOL0     H47014   7.165   5.714  11.277 -1.1346 -0.0615  0.9677
  341MOL0     H47015   7.149   5.827  11.415  0.7549 -0.2742  1.0303
  341MOL0     H47016   7.475   5.646  11.584 -1.7743  0.0735  0.8905
  341MOL0     H47017   7.580   5.613  11.749 -0.1681  0.9024 -1.6672
  341MOL0     H47018   7.506   5.717  11.878  0.5634  0.8173  0.1682
  341MOL0     H47019   7.675   5.731  11.833 -1.2278  2.5491  2.9428
  341MOL0     H47020   7.427   5.989  12.095 -1.0943 -0.9140  1.5698
  341MOL0     H47021   7.428   6.137  12.300 -1.8311 -1.3418 -2.7662
  341MOL0     H47022   7.507   6.253  12.492 -2.8812  2.2490 -0.4451
  341MOL0     H47023   7.632   6.370  12.542  2.2809 -0.9716 -1.1398
  341MOL0     H47024   7.417   6.407  12.329 -0.8998 -0.8938  1.5000
  341MOL0     H47025   7.422   6.494  12.476  1.4346  2.1185 -0.1810
  341MOL0     H47026   7.612   6.528  12.235  0.0441 -0.3896  0.1707
  341MOL0     H47027   7.658   6.587  12.397 -0.7256 -0.6628  0.1757
  341MOL0     H47028   7.429   6.698  12.409 -1.7139 -0.2937 -0.6001
  341MOL0     H47029   7.399   6.666  12.241  1.0291 -2.0576  0.1308
  341MOL0     H47030   7.498   6.900  12.313 -1.9622 -0.4647  0.0996
  341MOL0     H47031   7.651   6.805  12.341 -0.4385 -2.1558  0.0493
  341MOL0     H47032   7.504   6.834  12.073 -0.7348 -1.5042  1.3383
  341MOL0     H47033   7.645   6.736  12.105 -0.5216 -0.4918 -0.3808
  341MOL0     H47034   7.755   6.951  12.203 -0.3950 -0.9387 -0.0638
  341MOL0     H47035   7.650   7.035  12.093 -2.9614 -0.8099 -0.6053
  341MOL0     H47036   7.769   6.832  11.930  1.5120 -0.5769  1.5428
  341MOL0     H47037   7.900   6.882  12.044  0.6914  0.5787  1.1449
  341MOL0     H47038   7.858   6.179  12.245  1.9764 -3.4117  0.0628
  341MOL0     H47039   7.834   6.011  12.030 -1.2522  1.2566 -2.0986
  341MOL0     H47040   7.442   6.130  11.624 -1.2631  0.4414  1.8830
  341MOL0     H47041   7.349   6.024  11.418 -2.5642 -3.2703 -0.1595
  341MOL0     H47042   5.997   5.558  10.730  0.2262 -0.0946  0.7005
  341MOL0     H47043   5.764   5.525  10.644 -0.1122 -0.1137  2.5384
  341MOL0     H47044   5.408   5.381  10.529  0.5403  1.2877  2.9265
  341MOL0     H47045   5.166   5.350  10.560  1.2988  0.1625 -1.5801
  341MOL0     H47046   4.950   5.285  10.726 -2.0957  1.4877 -0.4686
  341MOL0     H47047   4.950   5.299  10.551  1.0170  0.5770  0.2882
  341MOL0     H47048   4.816   5.074  10.711  1.3698  1.1036  1.4767
  341MOL0     H47049   4.793   5.097  10.532 -0.7529  1.7258 -1.3457
  341MOL0     H47050   4.687   5.336  10.616 -3.6568  0.6864  2.4123
  341MOL0     H47051   4.600   5.191  10.642  0.6542 -2.0882  0.8322
  341MOL0     H47052   4.606   5.337  10.841  0.4452  1.6446 -0.8815
  341MOL0     H47053   4.775   5.282  10.859  0.0275 -0.5079 -0.5745
  341MOL0     H47054   4.597   4.941  10.985 -1.2701 -0.2813 -0.8586
  341MOL0     H47055   5.235   4.931  10.629  1.5443 -1.7670 -2.5291
  341MOL0     H47056   5.525   4.901  10.493 -1.2293  1.8639 -1.5090
  341MOL0     H47057   5.567   4.940  10.668  1.1767  1.5951 -1.5789
  341MOL0     H47058   5.442   4.828  10.624  1.3389 -0.5785 -0.5096
  342MOL0     O47059   8.091   7.861   2.296  0.5532  0.5704 -0.1662
  342MOL0     C47060   8.091   7.787   2.396  0.6515  0.3837  0.3204
  342MOL0     O47061   8.178   7.798   2.494 -0.6299  0.4679  0.2591
  342MOL0     C47062   8.264   7.903   2.493 -0.2532 -0.0282 -0.2609
  342MOL0     C47063   8.251   7.995   2.591  0.1127  0.4038  0.5884
  342MOL0     C47064   8.339   8.108   2.589 -0.0342 -0.0095 -0.2348
  342MOL0     C47065   8.456   8.108   2.504 -0.4185  0.6695 -0.8921
  342MOL0     O47066   8.548   8.205   2.529 -0.2936  0.5830  0.2225
  342MOL0     C47067   8.607   8.267   2.411  0.5468  0.3301  0.3502
  342MOL0     C47068   8.686   8.388   2.443 -0.0735 -0.5152 -0.1494
  342MOL0     C47069   8.758   8.442   2.323  0.2827  0.3770  0.3967
  342MOL0     C47070   8.857   8.548   2.352  0.2506  0.6753 -0.0828
  342MOL0     C47071   8.917   8.628   2.240 -0.1745  0.7247  0.3922
  342MOL0     C47072   8.826   8.685   2.130 -0.0583  0.4894 -0.4133
  342MOL0     C47073   8.719   8.779   2.190  0.1130 -0.3406 -0.6747
  342MOL0     C47074   8.671   8.880   2.089  0.1087 -1.2739  0.2999
  342MOL0     N47075   8.563   8.966   2.124 -0.4016 -0.0077 -0.5679
  342MOL0     C47076   8.513   9.003   2.247  0.0853 -0.6754  0.1704
  342MOL0     C47077   8.395   9.072   2.227  0.0777 -0.2395  0.0186
  342MOL0     C47078   8.312   9.131   2.342 -0.7386  0.2997  0.7530
  342MOL0     C47079   8.259   9.273   2.322 -0.0555  0.1419  0.6852
  342MOL0     C47080   8.166   9.280   2.193  0.1040 -0.4459 -0.0362
  342MOL0     C47081   8.107   9.425   2.178 -0.4923 -0.0372 -0.7955
  342MOL0     O47082   8.051   9.473   2.298 -0.0905 -0.3418 -0.5409
  342MOL0     C47083   7.964   9.397   2.370 -0.0365  0.2409 -0.1994
  342MOL0     C47084   7.858   9.319   2.320  0.0159 -0.2427  0.4634
  342MOL0     C47085   7.755   9.283   2.405 -0.3839  0.4252  0.0110
  342MOL0     C47086   7.647   9.204   2.333 -1.1864  0.0442  0.0668
  342MOL0     C47087   7.756   9.307   2.548 -0.4828 -0.2552  0.2459
  342MOL0     C47088   7.643   9.270   2.636  0.0236  0.0517 -0.6371
  342MOL0     O47089   7.542   9.195   2.598 -0.0861  0.5713  0.3736
  342MOL0     C47090   7.474   9.131   2.692 -0.5791 -0.5655  0.2983
  342MOL0     C47091   7.486   8.993   2.706  0.5735 -0.2831  0.1216
  342MOL0     C47092   7.414   8.916   2.796 -0.5188 -0.3292  0.2706
  342MOL0     C47093   7.330   8.989   2.882 -0.9818  0.6508 -0.6188
  342MOL0     O47094   7.258   8.916   2.978  0.3392  0.1168 -0.6319
  342MOL0     C47095   7.313   8.794   3.031  0.2441  1.1398 -0.4750
  342MOL0     C47096   7.242   8.671   2.967  0.2817  0.4513 -0.1351
  342MOL0     C47097   7.106   8.656   3.036 -0.3455  0.5971 -0.6715
  342MOL0     C47098   7.018   8.535   3.012  0.7628 -0.1581 -0.5432
  342MOL0     C47099   6.877   8.554   3.078  0.4582  0.0367 -0.0415
  342MOL0     C47100   6.788   8.430   3.045  0.8010 -0.1552  0.3170
  342MOL0     C47101   6.668   8.443   3.134  0.1743  0.1782 -0.1356
  342MOL0     C47102   6.544   8.359   3.084 -0.0305  0.4732 -0.0434
  342MOL0    Cl47103   6.497   8.395   2.915 -0.2665 -0.0882 -0.0012
  342MOL0     C47104   7.302   9.125   2.866  0.4682 -0.3697 -0.8786
  342MOL0     C47105   7.379   9.200   2.766  0.7371  0.1092 -0.8964
  342MOL0     O47106   7.648   9.324   2.754 -0.5640  0.0968  0.4756
  342MOL0     C47107   7.869   9.371   2.591  0.2819 -0.0490 -0.7277
  342MOL0     C47108   7.973   9.414   2.508  0.4516 -0.3642  0.1697
  342MOL0     N47109   8.374   9.080   2.095  0.6121 -0.3440  0.0639
  342MOL0     N47110   8.475   9.022   2.035  0.3000  0.2310  0.5983
  342MOL0     C47111   8.475   8.001   2.418  0.5207 -0.1909 -1.1235
  342MOL0     C47112   8.369   7.908   2.403 -0.6172  0.0867  0.4879
  342MOL0     C47113   7.989   7.676   2.404  0.4309 -0.5171 -0.2191
  342MOL0     C47114   8.024   7.569   2.489 -0.5237  0.2098  0.3887
  342MOL0     C47115   7.944   7.457   2.507  0.3935  0.0654 -0.9012
  342MOL0     C47116   7.823   7.446   2.440  0.8243 -1.7016 -1.1821
  342MOL0     O47117   7.731   7.342   2.436 -0.0548  0.3043  0.9474
  342MOL0     C47118   7.725   7.256   2.552  0.1967 -0.0581 -0.4945
  342MOL0     C47119   7.670   7.339   2.667 -0.9051 -0.1572 -0.9004
  342MOL0     C47120   7.645   7.255   2.792  0.7330  0.2373  0.2302
  342MOL0     C47121   7.569   7.331   2.905  0.4150  1.1842 -1.0107
  342MOL0     C47122   7.571   7.252   3.029 -0.7944 -0.2079 -0.6367
  342MOL0     C47123   7.572   7.179   3.129  0.3477  0.6534  0.1025
  342MOL0     C47124   7.788   7.553   2.352 -0.1291  0.0244 -0.4284
  342MOL0     C47125   7.869   7.661   2.333  0.4987 -0.6688 -0.1235
  342MOL0     C47126   7.819   7.764   2.238 -0.1500  0.3346 -0.1453
  342MOL0     H47127   8.191   7.995   2.681 -0.0947  2.0193  0.4760
  342MOL0     H47128   8.330   8.204   2.639  1.4536  0.2882 -0.5055
  342MOL0     H47129   8.540   8.291   2.328  1.2716  1.4914  0.0728
  342MOL0     H47130   8.685   8.199   2.375  1.8102  2.0060 -0.2125
  342MOL0     H47131   8.625   8.459   2.499  0.6263 -0.4256  0.5193
  342MOL0     H47132   8.760   8.355   2.516  2.6162  0.5433 -2.2515
  342MOL0     H47133   8.810   8.368   2.262  0.2275  0.4435  0.2693
  342MOL0     H47134   8.679   8.479   2.257  0.2526 -0.0154  0.2127
  342MOL0     H47135   8.813   8.610   2.430 -0.7766 -0.8332  0.5895
  342MOL0     H47136   8.936   8.494   2.406 -0.5079 -2.1733 -1.5950
  342MOL0     H47137   8.979   8.562   2.178 -0.3081  1.1394 -0.1897
  342MOL0     H47138   8.992   8.698   2.279 -0.9454  0.7415  1.9090
  342MOL0     H47139   8.877   8.731   2.044  0.2977 -0.4572 -0.7193
  342MOL0     H47140   8.768   8.611   2.075  0.5389  0.1711 -0.6265
  342MOL0     H47141   8.758   8.841   2.272  0.9337 -0.0363 -1.2801
  342MOL0     H47142   8.633   8.724   2.229 -0.9501  1.1844 -0.7965
  342MOL0     H47143   8.757   8.937   2.053 -0.3699  0.0402  1.1835
  342MOL0     H47144   8.634   8.829   2.000 -1.5521 -1.9131  1.3112
  342MOL0     H47145   8.551   8.989   2.348 -3.0884  0.2794  1.6278
  342MOL0     H47146   8.371   9.128   2.434  4.1110  0.9427 -2.0022
  342MOL0     H47147   8.224   9.067   2.351  0.0349 -0.9260 -0.1071
  342MOL0     H47148   8.211   9.316   2.410  1.7294 -1.5793  2.5835
  342MOL0     H47149   8.347   9.337   2.309  0.3704 -0.3993  0.8612
  342MOL0     H47150   8.218   9.255   2.100 -0.7658 -0.2312 -0.6052
  342MOL0     H47151   8.081   9.212   2.205 -2.2173  2.0799 -0.8801
  342MOL0     H47152   8.189   9.489   2.145 -2.2479  2.3242 -0.8301
  342MOL0     H47153   8.035   9.439   2.097  0.1255  2.0363 -1.0306
  342MOL0     H47154   7.845   9.318   2.212  0.4039  1.9374  0.3366
  342MOL0     H47155   7.567   9.270   2.298 -1.8876 -1.3599 -1.0693
  342MOL0     H47156   7.611   9.115   2.385 -0.2096 -0.2255  0.2986
  342MOL0     H47157   7.692   9.176   2.237 -1.2254  3.6993 -1.1800
  342MOL0     H47158   7.555   8.936   2.646  2.0411  0.6186  0.8956
  342MOL0     H47159   7.423   8.808   2.789  1.6610 -0.1139 -2.5633
  342MOL0     H47160   7.422   8.790   3.020  0.4260  0.7502  1.1519
  342MOL0     H47161   7.285   8.809   3.135 -1.3405 -1.0982 -0.5036
  342MOL0     H47162   7.231   8.686   2.859  2.5851 -3.2533 -1.0646
  342MOL0     H47163   7.298   8.580   2.990 -0.4777  0.3075  1.2322
  342MOL0     H47164   7.051   8.750   3.028  0.2503  1.0319  0.1236
  342MOL0     H47165   7.115   8.663   3.145  1.1160 -1.6102 -0.5809
  342MOL0     H47166   7.061   8.439   3.044 -1.6738 -1.1399 -0.0227
  342MOL0     H47167   6.994   8.540   2.906  0.6523 -0.3028 -0.5253
  342MOL0     H47168   6.877   8.561   3.187  0.9959 -0.1156 -0.0325
  342MOL0     H47169   6.844   8.645   3.027  1.2743  2.3441  3.2431
  342MOL0     H47170   6.833   8.340   3.088  3.2211  2.7418  4.6402
  342MOL0     H47171   6.744   8.425   2.945 -1.8871 -0.2693  1.4355
  342MOL0     H47172   6.637   8.547   3.149  1.7776  0.8382 -1.1850
  342MOL0     H47173   6.709   8.398   3.225 -0.8239  0.0282  0.2602
  342MOL0     H47174   6.468   8.365   3.162  1.4293  1.8647  1.3647
  342MOL0     H47175   6.586   8.258   3.090 -0.6117  0.2846  1.1383
  342MOL0     H47176   7.239   9.182   2.933 -0.6816 -1.7149 -0.7527
  342MOL0     H47177   7.364   9.305   2.742  0.3938 -0.1345 -1.8013
  342MOL0     H47178   7.866   9.396   2.697 -3.0486  2.3289 -1.2224
  342MOL0     H47179   8.047   9.478   2.556  0.8999 -1.3424  0.7960
  342MOL0     H47180   8.568   8.003   2.362  0.2308  1.2597 -1.6135
  342MOL0     H47181   8.381   7.833   2.325  1.8680 -2.3840  3.0137
  342MOL0     H47182   8.121   7.576   2.539 -0.1174  5.5637 -0.5373
  342MOL0     H47183   7.982   7.376   2.569  0.7370  2.1084  1.7853
  342MOL0     H47184   7.659   7.170   2.538 -1.0394  0.7529  0.0652
  342MOL0     H47185   7.825   7.219   2.572 -0.1230 -1.0162 -0.6272
  342MOL0     H47186   7.581   7.388   2.628  1.5532  3.6862 -2.2760
  342MOL0     H47187   7.746   7.412   2.697 -2.5056  1.7140 -1.2249
  342MOL0     H47188   7.580   7.172   2.766  2.0746 -0.6001 -0.5265
  342MOL0     H47189   7.733   7.208   2.836 -0.9041 -2.2438  1.0655
  342MOL0     H47190   7.463   7.349   2.885 -1.1482 -3.7847  1.1190
  342MOL0     H47191   7.615   7.427   2.930 -1.0832  1.3321  1.5423
  342MOL0     H47192   7.561   7.115   3.214 -2.0783  2.2121  1.0435
  342MOL0     H47193   7.698   7.548   2.292 -1.0582  0.4830  0.8719
  342MOL0     H47194   7.881   7.782   2.151 -1.3090 -1.7330 -1.4986
  342MOL0     H47195   7.725   7.735   2.189  1.0931  1.3446 -3.3634
  342MOL0     H47196   7.798   7.858   2.290  1.2472 -0.2091  1.4819
  343MOL0     O47197   8.337   4.460   1.199  0.2292  0.3067  0.3709
  343MOL0     C47198   8.241   4.511   1.258  0.6442  0.4742 -0.0501
  343MOL0     O47199   8.175   4.622   1.219 -0.0054  0.2384  0.2007
  343MOL0     C47200   8.232   4.696   1.122 -0.4858 -0.6329 -0.6750
  343MOL0     C47201   8.362   4.753   1.143 -0.0934 -0.0502  0.5752
  343MOL0     C47202   8.420   4.849   1.058  0.5818  0.1126  0.4975
  343MOL0     C47203   8.337   4.904   0.953 -0.3323  0.1336 -0.0143
  343MOL0     O47204   8.375   5.007   0.877 -0.0014  0.4231  1.1350
  343MOL0     C47205   8.463   5.113   0.931 -0.0895  0.2828 -0.8375
  343MOL0     C47206   8.605   5.094   0.880  0.1324  0.5345 -0.6382
  343MOL0     C47207   8.705   5.198   0.925 -0.1850 -0.2480 -0.2438
  343MOL0     C47208   8.834   5.172   0.860 -0.0961  0.3209 -0.2802
  343MOL0     C47209   8.907   5.298   0.848 -0.2428 -0.2254  0.2407
  343MOL0     C47210   8.877   5.350   0.712  1.2570 -0.1707  0.2502
  343MOL0     C47211   8.943   5.478   0.674 -0.3201 -0.2990  0.0288
  343MOL0     C47212   8.908   5.522   0.533  0.6074  0.1612  0.5100
  343MOL0     N47213   8.986   5.650   0.501  0.0319 -0.0527 -0.0913
  343MOL0     C47214   9.115   5.652   0.466  0.4221 -0.0135 -1.2005
  343MOL0     C47215   9.146   5.777   0.447  0.0065 -0.4406  0.3936
  343MOL0     C47216   9.277   5.828   0.385 -0.3891  0.5194  0.8297
  343MOL0     C47217   9.406   5.730   0.394  0.0296 -0.8229  0.0175
  343MOL0     C47218   9.482   5.764   0.520 -0.0054 -0.3997 -0.2992
  343MOL0     C47219   9.574   5.655   0.576 -0.4298 -0.6869  0.2652
  343MOL0     O47220   9.663   5.612   0.475  0.4635 -0.5784 -0.7437
  343MOL0     C47221   9.784   5.680   0.448  0.4544 -0.1750 -0.0670
  343MOL0     C47222   9.849   5.770   0.534  0.5099  0.1579  0.1048
  343MOL0     C47223   9.969   5.826   0.500 -0.3297 -0.5814 -0.6501
  343MOL0     C47224  10.019   5.922   0.606 -0.0219  0.2263 -0.0908
  343MOL0     C47225  10.025   5.811   0.367 -0.2047 -0.4100 -0.6701
  343MOL0     C47226  10.166   5.859   0.334 -0.2400 -0.0390 -0.4453
  343MOL0     O47227  10.216   5.813   0.208 -0.0350 -0.5861  0.2135
  343MOL0     C47228  10.324   5.879   0.161 -1.1612  0.6391  0.6432
  343MOL0     C47229  10.426   5.806   0.088 -0.0127  0.0270 -0.0153
  343MOL0     C47230  10.535   5.869   0.037  0.7123  0.0576  0.2508
  343MOL0     C47231  10.564   6.005   0.054 -0.3172  0.7834 -0.0996
  343MOL0     O47232  10.678   6.054   0.001 -0.1175 -0.0440  0.1184
  343MOL0     C47233  10.701   6.191   0.022  0.5465 -0.0882  0.3463
  343MOL0     C47234  10.839   6.240  -0.016 -0.5394 -0.7146  0.3309
  343MOL0     C47235  10.838   6.390   0.012 -0.4047  0.1505  1.2571
  343MOL0     C47236  10.981   6.451  -0.001 -0.5682 -0.3483 -0.8425
  343MOL0     C47237  10.985   6.589   0.068  0.0712  1.0375 -0.5356
  343MOL0     C47238  11.125   6.640   0.072 -0.0126 -0.1398  0.5428
  343MOL0     C47239  11.136   6.758   0.163 -0.1155 -0.0514 -0.2109
  343MOL0     C47240  11.265   6.761   0.251  0.0967  0.7684  0.2773
  343MOL0    Cl47241  11.273   6.919   0.341 -0.1321 -0.3408 -0.0052
  343MOL0     C47242  10.465   6.082   0.125 -0.0431  0.3703  0.3065
  343MOL0     C47243  10.353   6.014   0.171  0.0435  0.5918  0.4882
  343MOL0     O47244  10.225   5.915   0.422  0.0820  1.0823  0.9166
  343MOL0     C47245   9.964   5.718   0.287  0.3054 -0.5973  0.5516
  343MOL0     C47246   9.849   5.653   0.326  0.0169 -0.2903 -1.1946
  343MOL0     N47247   9.038   5.858   0.485  0.3249 -0.7605  0.2393
  343MOL0     N47248   8.945   5.778   0.519  0.0176 -0.1256 -0.9394
  343MOL0     C47249   8.217   4.849   0.932  0.1177  0.0481 -0.1675
  343MOL0     C47250   8.160   4.750   1.017  0.4639  0.3188 -0.8972
  343MOL0     C47251   8.190   4.443   1.368 -0.1698  0.1423 -0.8858
  343MOL0     C47252   8.283   4.366   1.445 -0.3930 -0.1575 -0.1997
  343MOL0     C47253   8.244   4.290   1.551  0.1526  0.2093 -0.7848
  343MOL0     C47254   8.110   4.275   1.587  0.6188  0.5718  0.1634
  343MOL0     O47255   8.076   4.207   1.705  0.4696  0.0837  0.0103
  343MOL0     C47256   7.942   4.215   1.740  0.0231  0.2529  0.3274
  343MOL0     C47257   7.932   4.148   1.886  0.6500 -0.3730 -0.3142
  343MOL0     C47258   7.789   4.182   1.924 -0.5088 -0.3006  0.0817
  343MOL0     C47259   7.766   4.176   2.075 -0.1366 -0.4155  0.4621
  343MOL0     C47260   7.622   4.182   2.082 -0.4047 -0.4861  0.4007
  343MOL0     C47261   7.505   4.196   2.113  0.6824 -0.3330  0.5106
  343MOL0     C47262   8.015   4.326   1.489  0.1325 -0.0644  0.0846
  343MOL0     C47263   8.048   4.408   1.381 -0.3781  0.1791  0.8958
  343MOL0     C47264   7.940   4.450   1.283  0.2326 -0.6130  0.4046
  343MOL0     H47265   8.416   4.736   1.236 -0.0482 -0.3775  0.4900
  343MOL0     H47266   8.522   4.877   1.083  1.8955 -3.1090 -0.6526
  343MOL0     H47267   8.464   5.130   1.039 -1.4689  1.1874 -0.9465
  343MOL0     H47268   8.425   5.205   0.886 -1.5663 -0.0303 -0.3126
  343MOL0     H47269   8.644   4.999   0.920  1.4104 -0.0243 -2.9955
  343MOL0     H47270   8.609   5.084   0.771 -0.9150 -1.0224 -0.5712
  343MOL0     H47271   8.665   5.296   0.895 -1.3383 -0.6686 -0.1475
  343MOL0     H47272   8.719   5.186   1.033  5.1167  0.0601 -0.6620
  343MOL0     H47273   8.904   5.115   0.923 -1.3836 -0.2727  0.6605
  343MOL0     H47274   8.828   5.107   0.772 -0.8204  0.3623 -0.2609
  343MOL0     H47275   9.011   5.266   0.856 -0.7568 -2.2026 -0.4189
  343MOL0     H47276   8.888   5.370   0.928 -0.5444 -1.7875  1.6185
  343MOL0     H47277   8.891   5.275   0.633 -0.6640  2.0418 -2.3440
  343MOL0     H47278   8.770   5.365   0.700  1.2589 -0.1466  0.2650
  343MOL0     H47279   9.049   5.462   0.695 -0.4649  1.2126  2.2788
  343MOL0     H47280   8.900   5.560   0.734 -1.0654 -1.2233  0.7865
  343MOL0     H47281   8.936   5.450   0.456  4.0765 -3.1005  4.3506
  343MOL0     H47282   8.800   5.541   0.531  0.5984  0.1088 -1.1664
  343MOL0     H47283   9.172   5.565   0.434 -0.4809 -1.1393  0.1340
  343MOL0     H47284   9.301   5.927   0.425  0.5888 -0.7909  3.7173
  343MOL0     H47285   9.257   5.829   0.277  5.2833 -4.3692 -0.8409
  343MOL0     H47286   9.382   5.624   0.400 -0.4237 -0.6490  3.0171
  343MOL0     H47287   9.465   5.737   0.302  1.5101  2.0062  1.0468
  343MOL0     H47288   9.547   5.849   0.503 -1.4693  1.2641  1.8615
  343MOL0     H47289   9.412   5.793   0.599  0.0436  1.3518 -0.8730
  343MOL0     H47290   9.620   5.707   0.660  1.6863  0.5040 -1.5093
  343MOL0     H47291   9.521   5.570   0.619 -0.3515 -0.2491  1.2398
  343MOL0     H47292   9.813   5.782   0.636  0.7485  1.1336  0.0843
  343MOL0     H47293   9.956   5.917   0.695 -0.0394 -3.3103 -0.1363
  343MOL0     H47294  10.018   6.025   0.570  0.8425  0.6335  0.9805
  343MOL0     H47295  10.108   5.897   0.664 -0.9102 -2.8527  0.1573
  343MOL0     H47296  10.416   5.699   0.077  0.4521  0.0367 -0.5411
  343MOL0     H47297  10.600   5.802  -0.018 -1.0964 -1.6934  0.1443
  343MOL0     H47298  10.624   6.237  -0.040 -0.5782 -0.7592  1.2248
  343MOL0     H47299  10.687   6.204   0.130 -0.3748 -2.9273  0.6505
  343MOL0     H47300  10.916   6.191   0.045  0.3591  0.4568  0.1747
  343MOL0     H47301  10.863   6.221  -0.121 -0.3305 -4.1315  0.8882
  343MOL0     H47302  10.805   6.415   0.114 -1.3228  0.2453  0.9457
  343MOL0     H47303  10.765   6.438  -0.053 -0.6530  0.3295  1.6682
  343MOL0     H47304  11.024   6.451  -0.101  0.0442  0.6286 -0.5888
  343MOL0     H47305  11.042   6.386   0.063 -0.2119  0.9290  0.1679
  343MOL0     H47306  10.928   6.653   0.001 -1.1925 -0.5936 -1.0902
  343MOL0     H47307  10.934   6.585   0.165 -0.6914  0.8839 -0.9413
  343MOL0     H47308  11.165   6.668  -0.026 -1.0528  0.5034  0.2960
  343MOL0     H47309  11.180   6.566   0.131 -1.3493  0.5325  2.7497
  343MOL0     H47310  11.057   6.759   0.239  0.7319  3.6727  0.8063
  343MOL0     H47311  11.114   6.843   0.098  1.3673  2.6617  2.6023
  343MOL0     H47312  11.353   6.754   0.186  0.5397  0.0301  0.9308
  343MOL0     H47313  11.252   6.679   0.323 -3.9019 -0.4789 -1.5947
  343MOL0     H47314  10.468   6.190   0.137  2.8539  0.4414 -0.4032
  343MOL0     H47315  10.290   6.073   0.236  0.8310  0.2412  1.6096
  343MOL0     H47316  10.012   5.678   0.198  5.5660  3.8857  0.8506
  343MOL0     H47317   9.807   5.574   0.265 -0.9124  0.0261 -0.9731
  343MOL0     H47318   8.150   4.898   0.861  2.7829  1.4380 -1.9013
  343MOL0     H47319   8.057   4.717   1.004  0.2229  0.4885  0.5008
  343MOL0     H47320   8.391   4.376   1.438 -0.2575  0.2374  1.7846
  343MOL0     H47321   8.319   4.237   1.609 -0.0207  1.6179  0.8353
  343MOL0     H47322   7.893   4.312   1.740 -4.6221 -1.8066 -0.7891
  343MOL0     H47323   7.877   4.152   1.677 -0.1559  1.3573 -0.6236
  343MOL0     H47324   8.000   4.200   1.953 -3.5352  2.6774  2.0802
  343MOL0     H47325   7.961   4.043   1.892 -1.4801 -0.9559  0.8811
  343MOL0     H47326   7.762   4.284   1.896  1.5903  0.3289  0.1865
  343MOL0     H47327   7.725   4.114   1.868 -0.7085 -0.7155  0.7926
  343MOL0     H47328   7.798   4.264   2.131 -0.8181  0.3405 -0.3097
  343MOL0     H47329   7.805   4.087   2.125 -0.2386 -1.3509 -1.0357
  343MOL0     H47330   7.401   4.198   2.138  0.2811  1.2143 -1.1000
  343MOL0     H47331   7.912   4.300   1.507  0.3991  0.0826  1.9301
  343MOL0     H47332   7.858   4.378   1.282 -0.0073 -0.3485  1.0607
  343MOL0     H47333   7.896   4.547   1.303 -1.7656 -1.3840 -0.0606
  343MOL0     H47334   7.987   4.446   1.184  0.6781 -1.4190  0.6336
  344MOL0     O47335   9.334   1.118   4.862 -0.6716 -0.1404 -0.7444
  344MOL0     C47336   9.237   1.166   4.797  0.0899  0.6117 -0.5603
  344MOL0     O47337   9.246   1.245   4.685  0.7856 -0.5250  0.4462
  344MOL0     C47338   9.361   1.248   4.614 -0.5615 -0.1537 -0.3321
  344MOL0     C47339   9.373   1.350   4.522 -0.3909  0.0157 -0.4201
  344MOL0     C47340   9.483   1.364   4.440 -0.7007 -0.0928  0.3009
  344MOL0     C47341   9.581   1.271   4.438 -0.2496  0.6477  0.2204
  344MOL0     O47342   9.680   1.280   4.349 -0.1780 -0.3270  0.4514
  344MOL0     C47343   9.793   1.356   4.411  1.1216 -0.2705 -0.0788
  344MOL0     C47344   9.774   1.499   4.362 -0.9627 -0.4750  0.0670
  344MOL0     C47345   9.905   1.580   4.346 -0.1927 -0.2978 -0.0407
  344MOL0     C47346   9.960   1.638   4.482  0.6101 -0.2331  0.0191
  344MOL0     C47347  10.077   1.730   4.455 -0.2029 -0.2729  0.4732
  344MOL0     C47348  10.121   1.819   4.572 -0.3672 -0.1126  0.4126
  344MOL0     C47349  10.240   1.918   4.552 -0.1384  0.5032 -0.0648
  344MOL0     C47350  10.253   2.037   4.650  0.2858  0.6218  0.1629
  344MOL0     N47351  10.286   1.967   4.777 -0.6086 -0.1770  0.3983
  344MOL0     C47352  10.409   1.939   4.829 -0.4636 -0.6837  0.5139
  344MOL0     C47353  10.385   1.881   4.951 -0.4367  0.2563  0.5816
  344MOL0     C47354  10.497   1.830   5.040 -0.3032 -0.5012 -0.5387
  344MOL0     C47355  10.573   1.721   4.967  0.9100 -0.0198 -1.1615
  344MOL0     C47356  10.657   1.623   5.062  0.4886  0.5404  0.4736
  344MOL0     C47357  10.799   1.673   5.092  0.6554 -0.3863  0.6004
  344MOL0     O47358  10.807   1.802   5.164 -0.1177 -0.3754 -0.4034
  344MOL0     C47359  10.926   1.862   5.190 -0.1395 -0.0192 -0.7441
  344MOL0     C47360  10.921   1.982   5.250  0.7029 -0.6104 -0.3246
  344MOL0     C47361  11.038   2.047   5.288  0.3487 -0.5903 -0.7832
  344MOL0     C47362  11.018   2.187   5.355 -0.2775 -0.2626  0.1184
  344MOL0     C47363  11.166   1.997   5.257  0.9468  0.4370  0.2819
  344MOL0     C47364  11.295   2.064   5.287  0.7220  0.1100  0.5054
  344MOL0     O47365  11.359   2.094   5.171 -0.0870 -0.1781 -0.0531
  344MOL0     C47366  11.461   2.191   5.175 -0.5676  0.4867 -0.8534
  344MOL0     C47367  11.552   2.182   5.076 -1.4155  0.2791 -0.3893
  344MOL0     C47368  11.654   2.274   5.063 -0.9503 -0.8529  0.3948
  344MOL0     C47369  11.666   2.389   5.153  0.7862  0.3866 -0.9107
  344MOL0     O47370  11.757   2.495   5.140  0.3676  1.1276  0.0178
  344MOL0     C47371  11.801   2.544   5.007 -0.0995  0.0600 -0.3157
  344MOL0     C47372  11.903   2.647   5.032 -0.2100 -0.1038  0.0070
  344MOL0     C47373  11.858   2.763   5.130  0.0433  0.0602 -0.2524
  344MOL0     C47374  11.985   2.863   5.148  0.0390 -0.3340 -0.2580
  344MOL0     C47375  11.958   2.978   5.245  0.4168 -0.4358  0.1459
  344MOL0     C47376  12.093   3.053   5.261  0.1810 -1.1218 -0.0864
  344MOL0     C47377  12.061   3.176   5.338 -0.1434 -0.5463 -0.6103
  344MOL0     C47378  12.171   3.273   5.336 -0.4007  0.0244  0.2961
  344MOL0    Cl47379  12.149   3.388   5.470  0.0745 -0.0941 -0.1412
  344MOL0     C47380  11.569   2.390   5.254 -0.3294  0.1564 -0.1507
  344MOL0     C47381  11.474   2.294   5.274 -1.2923 -0.1889  1.0252
  344MOL0     O47382  11.332   2.055   5.401 -0.3500  0.0063  0.2968
  344MOL0     C47383  11.175   1.878   5.185  0.0511 -0.3219  0.8363
  344MOL0     C47384  11.049   1.816   5.149 -0.4844  0.9058  0.5212
  344MOL0     N47385  10.247   1.897   4.974  0.0536 -0.2374  0.1477
  344MOL0     N47386  10.191   1.947   4.874  0.3944 -0.1047  0.1743
  344MOL0     C47387   9.563   1.147   4.502 -0.0387  0.5505  0.8437
  344MOL0     C47388   9.453   1.143   4.584  0.2834 -0.1259  0.2907
  344MOL0     C47389   9.109   1.131   4.865  0.2336  0.8919 -0.8514
  344MOL0     C47390   9.104   1.038   4.971  0.3106 -0.1462 -1.0389
  344MOL0     C47391   8.987   1.004   5.034 -0.2463  0.4685  0.3845
  344MOL0     C47392   8.865   1.061   4.983 -0.5327  0.1839 -0.6623
  344MOL0     O47393   8.755   1.009   5.050 -0.7150  0.4656 -0.7591
  344MOL0     C47394   8.624   1.030   4.994  0.0215 -0.1928 -0.4481
  344MOL0     C47395   8.596   0.945   4.873 -0.1449 -0.4201  0.5846
  344MOL0     C47396   8.444   0.943   4.836  0.5327 -0.3111  0.6675
  344MOL0     C47397   8.395   1.038   4.726 -0.3001  0.5593  0.4078
  344MOL0     C47398   8.400   1.178   4.765  0.1081 -0.5731  0.3629
  344MOL0     C47399   8.415   1.302   4.788 -0.0023  0.4156  0.3275
  344MOL0     C47400   8.872   1.156   4.885 -0.2575  0.3756 -0.1718
  344MOL0     C47401   8.991   1.200   4.830 -0.3618 -0.7009  0.8520
  344MOL0     C47402   8.975   1.303   4.715  0.5565  0.2087 -0.4511
  344MOL0     H47403   9.295   1.425   4.523 -0.7040 -0.2624  2.3759
  344MOL0     H47404   9.485   1.455   4.381 -0.6258  0.5319  1.2424
  344MOL0     H47405   9.890   1.318   4.377  1.2038  0.5661 -0.8287
  344MOL0     H47406   9.795   1.336   4.518  1.9074 -0.5004 -0.1243
  344MOL0     H47407   9.733   1.507   4.261  2.2142  2.2106 -1.2115
  344MOL0     H47408   9.708   1.550   4.433  2.0821  0.7483  2.2599
  344MOL0     H47409   9.978   1.520   4.291  0.6003  0.6067  0.0076
  344MOL0     H47410   9.871   1.662   4.282 -2.1568 -2.1850 -1.5972
  344MOL0     H47411   9.882   1.697   4.532  0.8454 -1.1033  1.4698
  344MOL0     H47412   9.986   1.564   4.558  3.0503  1.9998  1.5471
  344MOL0     H47413  10.055   1.805   4.379 -0.1715  0.8291  1.5070
  344MOL0     H47414  10.161   1.668   4.424  0.4052  0.5451  0.4542
  344MOL0     H47415  10.036   1.870   4.619  1.8395  0.3832  4.3525
  344MOL0     H47416  10.143   1.746   4.650 -1.6759 -2.0375 -0.9525
  344MOL0     H47417  10.232   1.948   4.447  4.0603 -0.8980 -0.9685
  344MOL0     H47418  10.332   1.859   4.544 -1.4794 -1.4843 -1.9493
  344MOL0     H47419  10.337   2.099   4.617  2.6036 -2.4815 -0.2420
  344MOL0     H47420  10.162   2.095   4.665  0.4150  0.2063  3.3878
  344MOL0     H47421  10.505   1.958   4.784 -1.1404 -0.2877 -0.8307
  344MOL0     H47422  10.450   1.796   5.133  0.0071 -0.7602 -0.4753
  344MOL0     H47423  10.558   1.914   5.072 -3.2208  0.8511  1.9959
  344MOL0     H47424  10.509   1.650   4.914 -1.7255 -0.6481  2.4686
  344MOL0     H47425  10.628   1.775   4.891 -2.9075  0.4607 -3.8724
  344MOL0     H47426  10.611   1.614   5.161 -2.7998  1.3621 -0.8324
  344MOL0     H47427  10.661   1.529   5.006 -3.4867 -0.0499  0.8570
  344MOL0     H47428  10.839   1.587   5.145 -1.2992 -1.7828 -0.1063
  344MOL0     H47429  10.860   1.692   5.003  0.3642 -0.7347  0.3246
  344MOL0     H47430  10.829   2.027   5.285  1.7047  1.1684  0.1429
  344MOL0     H47431  11.042   2.266   5.283 -0.8120  0.4707  0.7245
  344MOL0     H47432  11.071   2.182   5.451 -1.6746  0.4179  0.9665
  344MOL0     H47433  10.915   2.205   5.386  0.1419 -0.8099  2.0139
  344MOL0     H47434  11.551   2.097   5.009  0.7204  0.8972 -1.2928
  344MOL0     H47435  11.717   2.252   4.978 -1.9715 -3.6742  0.2557
  344MOL0     H47436  11.850   2.458   4.961  2.4203  0.6838  0.9881
  344MOL0     H47437  11.725   2.587   4.942 -0.1410  1.2543  0.4858
  344MOL0     H47438  11.997   2.600   5.063 -1.4123 -1.3787  1.9162
  344MOL0     H47439  11.923   2.695   4.936  0.7428  0.5559  0.5206
  344MOL0     H47440  11.822   2.727   5.227 -0.0442  2.3213  0.6246
  344MOL0     H47441  11.771   2.823   5.103  0.0777  0.9796  1.5187
  344MOL0     H47442  12.002   2.907   5.050 -1.1370 -0.9483 -0.7674
  344MOL0     H47443  12.075   2.808   5.176 -0.9752 -0.9670  1.9635
  344MOL0     H47444  11.884   3.047   5.203  1.1888  0.4581  0.2425
  344MOL0     H47445  11.924   2.942   5.343  0.1310 -0.0592  0.1887
  344MOL0     H47446  12.111   3.087   5.159 -0.8153  3.0879  0.9476
  344MOL0     H47447  12.169   2.986   5.303 -2.7790 -3.8894  1.2485
  344MOL0     H47448  12.022   3.143   5.435  0.1829 -0.1649 -0.3481
  344MOL0     H47449  11.971   3.223   5.295  0.2132  0.2765 -0.4642
  344MOL0     H47450  12.171   3.334   5.244 -0.5588  3.6056  2.4761
  344MOL0     H47451  12.262   3.214   5.346 -0.7268 -0.6666 -0.6376
  344MOL0     H47452  11.559   2.475   5.320  2.0684 -1.6644  2.8694
  344MOL0     H47453  11.414   2.299   5.364  1.7198  1.3135  3.1229
  344MOL0     H47454  11.268   1.837   5.148  0.1154  0.6238 -0.0950
  344MOL0     H47455  11.043   1.730   5.083 -0.6982  1.4725 -0.2142
  344MOL0     H47456   9.630   1.065   4.479 -1.2188 -0.4833  0.9240
  344MOL0     H47457   9.427   1.048   4.628  1.7110 -1.0499 -0.7722
  344MOL0     H47458   9.193   0.993   5.015 -0.2257 -0.7860 -0.5993
  344MOL0     H47459   8.992   0.944   5.124 -3.5044 -1.1577 -0.3494
  344MOL0     H47460   8.553   1.006   5.074  2.8368 -1.4216  1.8749
  344MOL0     H47461   8.589   1.131   4.971 -2.9902 -1.3879 -1.6488
  344MOL0     H47462   8.612   0.846   4.916  0.6356  0.3046  2.0391
  344MOL0     H47463   8.655   0.973   4.785  0.0965 -1.5535  0.3662
  344MOL0     H47464   8.421   0.843   4.796 -0.1938  0.3476 -0.6298
  344MOL0     H47465   8.393   0.962   4.930  1.9316 -1.6636  1.7635
  344MOL0     H47466   8.294   1.012   4.693  0.7634 -1.6557 -1.3529
  344MOL0     H47467   8.445   1.018   4.631 -0.8288 -1.7290  0.5689
  344MOL0     H47468   8.439   1.404   4.810 -0.9397  1.4673 -2.9433
  344MOL0     H47469   8.777   1.203   4.859  1.2234  3.2031 -0.8314
  344MOL0     H47470   9.014   1.263   4.621 -0.0879 -1.2648 -0.1238
  344MOL0     H47471   8.868   1.321   4.703  0.0621 -3.1732 -2.3651
  344MOL0     H47472   9.031   1.393   4.743  0.1278 -0.3256  2.4891
  345MOL0     O47473   3.988   9.066   4.616 -0.2863  0.4126 -0.3997
  345MOL0     C47474   3.969   9.100   4.498 -0.1782  1.2446 -1.0863
  345MOL0     O47475   3.861   9.052   4.424  0.1920 -0.0006 -0.1207
  345MOL0     C47476   3.770   8.957   4.475 -0.0734 -0.1788 -0.2735
  345MOL0     C47477   3.634   8.961   4.441 -0.2238  0.5750  1.3047
  345MOL0     C47478   3.540   8.870   4.498  0.5413 -0.0873 -0.0171
  345MOL0     C47479   3.589   8.760   4.567  0.5054  0.1495  0.5038
  345MOL0     O47480   3.502   8.674   4.617 -0.1411 -0.0302 -0.1873
  345MOL0     C47481   3.529   8.587   4.733  0.3847  0.3385  1.0469
  345MOL0     C47482   3.392   8.527   4.778  0.7320 -0.6857  0.4050
  345MOL0     C47483   3.287   8.640   4.816 -0.7007  0.6702 -0.2385
  345MOL0     C47484   3.152   8.579   4.847 -0.2483  0.0228  0.3239
  345MOL0     C47485   3.143   8.508   4.982  0.1793 -0.7147  0.5004
  345MOL0     C47486   2.998   8.473   5.019 -0.1511  0.1426  0.4785
  345MOL0     C47487   2.988   8.399   5.142 -0.9074  0.7219  0.1158
  345MOL0     C47488   2.837   8.372   5.185  0.5633 -0.8033  0.9548
  345MOL0     N47489   2.774   8.503   5.230  0.2225  0.6058  0.0307
  345MOL0     C47490   2.697   8.587   5.148 -0.4544 -0.3812  0.0013
  345MOL0     C47491   2.680   8.692   5.228  0.5032  0.1253 -0.0823
  345MOL0     C47492   2.605   8.817   5.182  0.6113 -1.1302 -0.3191
  345MOL0     C47493   2.461   8.777   5.129 -0.5471  0.8176 -0.9091
  345MOL0     C47494   2.382   8.723   5.252  0.3074  0.2761  0.7811
  345MOL0     C47495   2.243   8.669   5.213  0.2088  0.1895 -0.8639
  345MOL0     O47496   2.156   8.759   5.141 -0.0778 -0.5537  0.3617
  345MOL0     C47497   2.101   8.731   5.019 -0.9075  0.0527  0.1857
  345MOL0     C47498   2.054   8.604   4.988 -0.2883  0.6626 -0.3616
  345MOL0     C47499   2.027   8.559   4.867  0.5663 -0.2073  0.1148
  345MOL0     C47500   1.967   8.418   4.853  0.2564  0.0496 -0.4391
  345MOL0     C47501   2.023   8.658   4.764 -0.5264  0.5045  0.5237
  345MOL0     C47502   1.976   8.625   4.631  0.4984 -0.0264  0.3798
  345MOL0     O47503   1.876   8.692   4.571  0.8582  0.1280 -0.5043
  345MOL0     C47504   1.838   8.653   4.446 -0.3290 -0.0692  0.3002
  345MOL0     C47505   1.920   8.682   4.330 -0.5978  1.6509 -0.1052
  345MOL0     C47506   1.875   8.659   4.204 -0.2119  0.3311 -0.1423
  345MOL0     C47507   1.748   8.601   4.178  0.1238  0.5569  0.7544
  345MOL0     O47508   1.709   8.588   4.047  0.8494  0.6198 -0.0730
  345MOL0     C47509   1.626   8.472   4.016  0.0281 -0.7490  0.0421
  345MOL0     C47510   1.648   8.433   3.860 -0.3867 -0.4022 -0.9109
  345MOL0     C47511   1.640   8.540   3.752  0.9251 -0.3687  0.5588
  345MOL0     C47512   1.509   8.616   3.778 -0.1524  0.1890  0.8840
  345MOL0     C47513   1.489   8.724   3.678 -0.0785  0.2617 -0.4791
  345MOL0     C47514   1.357   8.797   3.704  0.6077 -0.2085 -0.8838
  345MOL0     C47515   1.337   8.926   3.616  0.0887 -0.0975 -0.0880
  345MOL0     C47516   1.399   9.050   3.689 -0.3971  0.9770  0.0336
  345MOL0    Cl47517   1.386   9.193   3.590 -0.0112 -0.2976  0.0317
  345MOL0     C47518   1.659   8.591   4.295  0.3344 -0.5128 -0.7296
  345MOL0     C47519   1.706   8.611   4.421 -0.3111  0.2907 -0.7663
  345MOL0     O47520   2.047   8.548   4.575 -0.3212  0.1552  0.2997
  345MOL0     C47521   2.044   8.787   4.797 -1.1753  0.2529  0.6684
  345MOL0     C47522   2.091   8.826   4.922 -0.1074 -0.2871  0.5306
  345MOL0     N47523   2.729   8.674   5.356 -0.1888  0.7764 -0.7050
  345MOL0     N47524   2.776   8.557   5.358  0.4089  0.5963 -0.1150
  345MOL0     C47525   3.723   8.750   4.589 -0.0929  0.5563  0.6110
  345MOL0     C47526   3.814   8.845   4.546 -0.1926  0.3944  0.5877
  345MOL0     C47527   4.040   9.207   4.439  0.0896 -0.1166  0.0709
  345MOL0     C47528   3.963   9.306   4.374  0.4853  0.0124 -0.7420
  345MOL0     C47529   4.029   9.414   4.317 -0.3054 -0.0528  0.3563
  345MOL0     C47530   4.169   9.430   4.318  1.3825  1.0698  0.1102
  345MOL0     O47531   4.220   9.532   4.241  0.0842  0.2430  0.6066
  345MOL0     C47532   4.357   9.573   4.265  0.0255  0.0568 -0.1380
  345MOL0     C47533   4.362   9.721   4.256  0.2226 -0.3108  0.4760
  345MOL0     C47534   4.336   9.787   4.396 -0.0424  0.7527 -0.6902
  345MOL0     C47535   4.314   9.943   4.392 -0.7236 -0.0478 -0.0433
  345MOL0     C47536   4.410  10.006   4.302  0.3077  0.3404 -1.0269
  345MOL0     C47537   4.500  10.055   4.241 -0.7360  0.5014 -0.1120
  345MOL0     C47538   4.249   9.340   4.382  0.3670  0.5756 -0.2601
  345MOL0     C47539   4.179   9.222   4.437  0.0423 -1.1865  0.1064
  345MOL0     C47540   4.274   9.116   4.482  0.4404 -0.5174 -0.3257
  345MOL0     H47541   3.588   9.039   4.381  1.0088  2.4381  2.6682
  345MOL0     H47542   3.436   8.894   4.480  0.0249 -1.4147  1.0277
  345MOL0     H47543   3.571   8.654   4.808 -1.4932  2.6230  0.2171
  345MOL0     H47544   3.604   8.510   4.713  0.2641 -0.1057  2.2034
  345MOL0     H47545   3.340   8.467   4.702  1.1980 -2.1819  1.2145
  345MOL0     H47546   3.407   8.453   4.857 -1.9766 -2.2753 -0.4251
  345MOL0     H47547   3.338   8.692   4.898 -2.7118  1.7469  0.3737
  345MOL0     H47548   3.281   8.703   4.726 -1.1764 -0.5172 -1.0600
  345MOL0     H47549   3.083   8.664   4.837 -1.1815 -0.7866 -0.2832
  345MOL0     H47550   3.125   8.506   4.771 -3.2894  0.3850  0.9324
  345MOL0     H47551   3.189   8.573   5.057  1.8748  2.1597 -2.7003
  345MOL0     H47552   3.206   8.420   4.969  3.3693  1.4976 -0.5936
  345MOL0     H47553   2.935   8.561   5.026  1.9621  1.6216  2.9962
  345MOL0     H47554   2.950   8.416   4.939  1.7861 -2.9315  1.3126
  345MOL0     H47555   3.040   8.450   5.223  1.6671  0.4618 -1.2756
  345MOL0     H47556   3.035   8.303   5.119 -0.6334  0.4093  1.8751
  345MOL0     H47557   2.785   8.325   5.100 -3.0049  0.7735  2.0578
  345MOL0     H47558   2.849   8.304   5.269  2.9472  0.7061  1.9335
  345MOL0     H47559   2.678   8.576   5.042  0.3003 -1.1078 -0.0694
  345MOL0     H47560   2.666   8.864   5.104  0.3687 -2.4652 -1.3607
  345MOL0     H47561   2.598   8.881   5.270 -0.6147  0.3498 -1.4361
  345MOL0     H47562   2.404   8.859   5.084 -0.4684  0.4230 -1.7434
  345MOL0     H47563   2.477   8.694   5.060  3.7577 -1.2013  2.0765
  345MOL0     H47564   2.438   8.636   5.288  2.4333  0.6650 -1.3460
  345MOL0     H47565   2.365   8.794   5.333  2.7404  0.7237  0.9625
  345MOL0     H47566   2.256   8.575   5.159 -0.0406 -1.8340  2.3694
  345MOL0     H47567   2.189   8.636   5.302 -0.7371  0.3670 -1.3542
  345MOL0     H47568   2.048   8.539   5.074  2.4730  0.8124  0.0242
  345MOL0     H47569   1.866   8.435   4.890  1.1319  0.3594  1.9559
  345MOL0     H47570   2.023   8.342   4.907  3.4784  2.0031 -0.7812
  345MOL0     H47571   1.967   8.384   4.749 -0.7027  1.9869 -1.1209
  345MOL0     H47572   2.024   8.714   4.333  0.7764 -2.2737 -0.2774
  345MOL0     H47573   1.962   8.669   4.140  1.2668  1.1802  1.8983
  345MOL0     H47574   1.659   8.382   4.070 -1.7606 -0.1266  2.3391
  345MOL0     H47575   1.519   8.482   4.035 -0.0944 -0.6981 -0.6612
  345MOL0     H47576   1.747   8.386   3.856  0.9611  2.0074  1.0503
  345MOL0     H47577   1.571   8.358   3.841 -0.9728  0.8617 -4.1940
  345MOL0     H47578   1.645   8.495   3.653  0.4785 -0.5503  0.6148
  345MOL0     H47579   1.725   8.609   3.755  2.3263 -1.9965  0.5267
  345MOL0     H47580   1.525   8.667   3.873 -0.0447 -1.9763  2.0863
  345MOL0     H47581   1.425   8.547   3.790  1.7644 -2.2393  1.0174
  345MOL0     H47582   1.569   8.799   3.678 -1.7922  2.2013 -0.0045
  345MOL0     H47583   1.487   8.682   3.577  1.2006  2.1604 -1.3447
  345MOL0     H47584   1.345   8.820   3.811 -1.4796 -1.0861 -0.8857
  345MOL0     H47585   1.274   8.731   3.677  0.4801 -1.2862  1.8394
  345MOL0     H47586   1.231   8.954   3.608 -0.5282 -2.3792 -0.3774
  345MOL0     H47587   1.379   8.921   3.515 -0.1118 -1.3432 -0.1180
  345MOL0     H47588   1.506   9.042   3.707 -0.2702 -0.7258 -1.2163
  345MOL0     H47589   1.334   9.068   3.775 -1.3444  0.6725 -0.6017
  345MOL0     H47590   1.556   8.559   4.285  0.6304 -1.9575  0.4454
  345MOL0     H47591   1.646   8.601   4.511  0.8029  1.6637  0.1641
  345MOL0     H47592   2.028   8.863   4.720 -0.6815 -1.2988 -1.0396
  345MOL0     H47593   2.132   8.926   4.931  2.4906 -1.4730  3.7915
  345MOL0     H47594   3.751   8.663   4.647 -0.2907 -0.0190 -0.1353
  345MOL0     H47595   3.918   8.825   4.569 -0.3701 -0.8850  0.3782
  345MOL0     H47596   3.854   9.299   4.372  0.1274  2.2169  3.0061
  345MOL0     H47597   3.967   9.487   4.265 -0.7118 -0.3842  0.3701
  345MOL0     H47598   4.397   9.543   4.363 -2.3020  0.4656  1.0143
  345MOL0     H47599   4.420   9.526   4.189  1.9353  3.4822 -0.8784
  345MOL0     H47600   4.290   9.751   4.180  1.1803 -0.4402 -0.4944
  345MOL0     H47601   4.460   9.744   4.214  0.0732 -1.0594 -0.2888
  345MOL0     H47602   4.252   9.741   4.450  1.4214  0.6270  1.6171
  345MOL0     H47603   4.427   9.770   4.454  0.3995 -1.4726 -1.9270
  345MOL0     H47604   4.323   9.983   4.494  0.0179  0.0001 -0.1205
  345MOL0     H47605   4.215   9.961   4.350  0.1039  4.0767 -0.5923
  345MOL0     H47606   4.589  10.090   4.192 -1.2556  0.8586 -0.8233
  345MOL0     H47607   4.358   9.345   4.386  0.3027  1.8453  1.8661
  345MOL0     H47608   4.307   9.136   4.584  1.3746  0.4570 -0.7999
  345MOL0     H47609   4.239   9.012   4.482  0.5884 -0.5804 -1.3271
  345MOL0     H47610   4.364   9.120   4.419 -0.7385 -0.3206 -2.0547
  346MOL0     O47611   1.840   3.668  10.758 -0.5718 -0.4262 -0.2133
  346MOL0     C47612   1.838   3.658  10.879 -0.3117  0.4932 -0.5603
  346MOL0     O47613   1.945   3.657  10.963 -0.4603  0.1212 -0.4988
  346MOL0     C47614   2.069   3.622  10.910 -1.2459 -0.0980  0.7691
  346MOL0     C47615   2.097   3.488  10.861 -0.6358 -0.4835 -0.3469
  346MOL0     C47616   2.231   3.460  10.836  0.2044 -0.3503  0.2680
  346MOL0     C47617   2.342   3.545  10.861  0.0173 -0.0319 -0.2782
  346MOL0     O47618   2.462   3.506  10.819 -0.3375  0.1980  0.0644
  346MOL0     C47619   2.572   3.560  10.899  0.5699 -0.3311 -0.4501
  346MOL0     C47620   2.692   3.504  10.829  0.1246 -0.2684 -0.7469
  346MOL0     C47621   2.825   3.558  10.883 -0.6947 -0.5297  0.6087
  346MOL0     C47622   2.939   3.450  10.895  0.7486 -0.9144 -0.1562
  346MOL0     C47623   3.077   3.519  10.920  0.1549  0.1572  0.6025
  346MOL0     C47624   3.178   3.399  10.916  0.5038 -0.2255 -0.1393
  346MOL0     C47625   3.309   3.440  10.971  0.0439 -0.4316 -0.5430
  346MOL0     C47626   3.384   3.562  10.922 -0.4434 -0.0234 -0.7424
  346MOL0     N47627   3.533   3.561  10.959 -0.0842  0.3848  0.6686
  346MOL0     C47628   3.581   3.593  11.088 -0.8095  1.3894 -0.3232
  346MOL0     C47629   3.695   3.516  11.099 -0.4463  0.1009  0.7796
  346MOL0     C47630   3.787   3.531  11.220 -0.5430 -0.2523 -0.0297
  346MOL0     C47631   3.903   3.637  11.205 -1.1456  0.0857  0.4415
  346MOL0     C47632   3.961   3.688  11.334  0.2677 -0.3832 -0.5946
  346MOL0     C47633   4.050   3.575  11.398 -0.3944 -0.0217 -0.0483
  346MOL0     O47634   4.129   3.499  11.303 -0.4496 -0.4807  0.1380
  346MOL0     C47635   4.261   3.535  11.272  0.1995  0.2079 -0.1748
  346MOL0     C47636   4.329   3.445  11.193 -0.1369 -0.0617  0.3755
  346MOL0     C47637   4.462   3.471  11.148  0.2555  0.1844  0.5460
  346MOL0     C47638   4.526   3.370  11.059 -0.0590  0.3691  0.3078
  346MOL0     C47639   4.521   3.597  11.182  0.2605 -0.4572 -0.3206
  346MOL0     C47640   4.666   3.642  11.146 -0.6858  0.0717  0.3081
  346MOL0     O47641   4.697   3.777  11.146  0.0605  0.3399  0.6030
  346MOL0     C47642   4.810   3.813  11.084  0.0707 -0.2937 -1.1092
  346MOL0     C47643   4.940   3.772  11.124 -0.6572 -1.3935  0.7326
  346MOL0     C47644   5.057   3.817  11.053  0.3137 -0.1368 -0.6326
  346MOL0     C47645   5.054   3.919  10.961 -0.3884 -0.5810  0.4178
  346MOL0     O47646   5.171   3.969  10.920 -0.3540  0.2762 -0.5548
  346MOL0     C47647   5.184   3.997  10.780 -0.4935 -0.2673  0.1027
  346MOL0     C47648   5.303   3.948  10.719 -0.2560 -0.2494 -0.7388
  346MOL0     C47649   5.427   4.021  10.770 -0.3740  0.1598  0.8251
  346MOL0     C47650   5.549   3.945  10.718  0.2822  1.0216  0.1742
  346MOL0     C47651   5.679   3.974  10.794 -0.1079 -0.4261  0.3202
  346MOL0     C47652   5.791   3.905  10.711 -0.4367  1.2183 -0.0709
  346MOL0     C47653   5.925   3.914  10.780  0.0424 -0.1073  0.4598
  346MOL0     C47654   6.022   3.855  10.685  0.2844  0.0148 -0.4127
  346MOL0    Cl47655   6.046   3.941  10.535  0.3871  0.3316 -0.2724
  346MOL0     C47656   4.925   3.968  10.925 -0.5147  0.3492  0.0484
  346MOL0     C47657   4.805   3.911  10.983  0.0317  0.1463 -0.6455
  346MOL0     O47658   4.749   3.556  11.129 -0.6041  0.0748 -0.5224
  346MOL0     C47659   4.436   3.689  11.249 -0.2943 -0.1549  0.4210
  346MOL0     C47660   4.316   3.661  11.304  0.0154  1.2470 -1.2329
  346MOL0     N47661   3.716   3.448  10.985  0.0709 -0.1551  0.1528
  346MOL0     N47662   3.619   3.471  10.903 -0.3033 -0.3834 -0.4155
  346MOL0     C47663   2.311   3.671  10.912  0.4658 -0.1785 -0.2858
  346MOL0     C47664   2.176   3.708  10.936 -0.1130 -0.0470 -0.1309
  346MOL0     C47665   1.703   3.645  10.932 -0.6139  0.3988 -1.4965
  346MOL0     C47666   1.608   3.728  10.869 -0.1769  0.2187  0.1864
  346MOL0     C47667   1.477   3.726  10.907 -0.2064 -0.0173  0.0260
  346MOL0     C47668   1.444   3.655  11.025 -0.1821  0.9013  0.9645
  346MOL0     O47669   1.312   3.658  11.049 -0.2354  0.0897  0.4886
  346MOL0     C47670   1.263   3.618  11.175 -0.4975 -0.2877 -0.2717
  346MOL0     C47671   1.109   3.634  11.167  0.3393  0.1619 -0.5525
  346MOL0     C47672   1.024   3.647  11.303 -0.3475 -0.3733 -0.3980
  346MOL0     C47673   1.052   3.534  11.408 -1.1477  0.4191 -0.3661
  346MOL0     C47674   1.002   3.405  11.364 -0.5373 -0.5266 -0.7955
  346MOL0     C47675   0.936   3.313  11.305 -0.4994 -0.7719  0.0999
  346MOL0     C47676   1.538   3.577  11.096  0.2181  0.1476  0.3199
  346MOL0     C47677   1.665   3.575  11.050  0.5272  0.2676  0.0635
  346MOL0     C47678   1.762   3.497  11.142  0.0757 -0.0171  0.4299
  346MOL0     H47679   2.019   3.413  10.849 -0.0850 -1.1534  0.1525
  346MOL0     H47680   2.253   3.361  10.797 -1.5564 -0.4908 -0.4639
  346MOL0     H47681   2.583   3.527  11.003  3.8834 -1.5772 -1.0939
  346MOL0     H47682   2.579   3.669  10.897  1.6454 -0.3699  0.4628
  346MOL0     H47683   2.697   3.401  10.864  0.9716  0.7497  2.4909
  346MOL0     H47684   2.684   3.506  10.720 -2.3158 -0.9972 -0.6265
  346MOL0     H47685   2.862   3.643  10.826  0.6677 -0.7536  1.1121
  346MOL0     H47686   2.807   3.599  10.983  0.0957 -1.1156  1.0095
  346MOL0     H47687   2.902   3.378  10.968 -0.2546  1.9412  2.3061
  346MOL0     H47688   2.938   3.393  10.801  2.9165 -0.8797 -0.2524
  346MOL0     H47689   3.080   3.564  11.020  0.2589  0.4322  0.4796
  346MOL0     H47690   3.112   3.584  10.840 -2.1902  0.8099  0.0282
  346MOL0     H47691   3.136   3.312  10.967 -0.0888 -0.9392 -1.7586
  346MOL0     H47692   3.185   3.358  10.815 -0.6149 -1.5061  0.2744
  346MOL0     H47693   3.381   3.364  10.940  2.4319 -0.2120  3.7071
  346MOL0     H47694   3.314   3.457  11.079 -0.0542 -0.6911 -0.4970
  346MOL0     H47695   3.382   3.564  10.813 -1.9728 -1.2600 -0.7739
  346MOL0     H47696   3.328   3.647  10.961 -4.1322 -2.4105 -0.2949
  346MOL0     H47697   3.548   3.673  11.152  0.2826  0.6545  1.2024
  346MOL0     H47698   3.840   3.449  11.269 -0.3144 -0.8219 -1.1947
  346MOL0     H47699   3.716   3.564  11.296 -1.4793 -2.7278  0.2846
  346MOL0     H47700   3.981   3.593  11.142 -0.9717 -0.8819  1.2878
  346MOL0     H47701   3.866   3.725  11.153 -0.5314  0.5733  0.8088
  346MOL0     H47702   4.027   3.774  11.321 -0.7654  0.3997 -0.8550
  346MOL0     H47703   3.891   3.738  11.402  3.7542  1.9982  1.5522
  346MOL0     H47704   4.113   3.621  11.474 -0.2707 -1.5939  0.8561
  346MOL0     H47705   3.991   3.504  11.457 -0.9236  0.6227  0.2150
  346MOL0     H47706   4.284   3.347  11.180  0.8189 -1.1475  3.9272
  346MOL0     H47707   4.449   3.314  11.006 -1.8304  1.5480  1.5291
  346MOL0     H47708   4.589   3.301  11.117 -3.1365 -1.1848  2.0576
  346MOL0     H47709   4.576   3.423  10.977  0.4747  2.1848  1.7236
  346MOL0     H47710   4.950   3.705  11.209  0.4063 -0.6084  1.2571
  346MOL0     H47711   5.153   3.769  11.070  1.0559 -0.1004 -3.9706
  346MOL0     H47712   5.098   3.953  10.727 -0.7269 -1.6815  1.5857
  346MOL0     H47713   5.176   4.105  10.766 -0.0441  0.0457  2.0974
  346MOL0     H47714   5.320   3.841  10.728 -0.4379 -0.3508 -1.5558
  346MOL0     H47715   5.292   3.974  10.613  0.3010  2.0385 -0.3055
  346MOL0     H47716   5.434   4.025  10.879  1.0194  1.2813  0.7216
  346MOL0     H47717   5.442   4.119  10.723 -0.5806 -0.8296 -1.4088
  346MOL0     H47718   5.557   3.966  10.611  1.5615 -0.1447  0.0079
  346MOL0     H47719   5.538   3.836  10.720  2.1539  0.5096 -4.5101
  346MOL0     H47720   5.692   4.082  10.788  2.6069 -0.7534 -0.8648
  346MOL0     H47721   5.685   3.947  10.900  1.3225 -0.1924  0.3172
  346MOL0     H47722   5.798   3.972  10.625  2.2549  3.4875  1.7238
  346MOL0     H47723   5.772   3.798  10.694  0.9706  1.1718 -1.5347
  346MOL0     H47724   5.925   3.859  10.875  1.4642  0.2405  0.6816
  346MOL0     H47725   5.961   4.016  10.801 -0.0210  0.4563 -1.8873
  346MOL0     H47726   5.995   3.750  10.671  0.9044 -0.2504  0.3305
  346MOL0     H47727   6.117   3.848  10.739 -0.2484  1.3276  0.7496
  346MOL0     H47728   4.926   4.041  10.845 -0.0475 -0.2910 -0.5443
  346MOL0     H47729   4.705   3.942  10.956 -0.7719 -1.3258  0.5266
  346MOL0     H47730   4.480   3.781  11.285 -1.9044 -0.3472  3.0970
  346MOL0     H47731   4.262   3.738  11.358  0.6528  1.1738 -0.4696
  346MOL0     H47732   2.377   3.751  10.943 -0.0072 -0.7229  2.3595
  346MOL0     H47733   2.146   3.801  10.983 -4.0820  0.5940 -3.3057
  346MOL0     H47734   1.638   3.803  10.797  0.1939  1.0041  1.1357
  346MOL0     H47735   1.403   3.783  10.852 -3.1173 -3.6143 -0.2393
  346MOL0     H47736   1.282   3.512  11.197  1.8165  0.2208  0.4164
  346MOL0     H47737   1.293   3.678  11.261 -2.4605 -0.7103  0.7762
  346MOL0     H47738   1.057   3.563  11.102 -0.6639  1.0926 -0.7936
  346MOL0     H47739   1.084   3.720  11.105 -2.7018  0.2436  0.6028
  346MOL0     H47740   1.065   3.740  11.345  0.3089 -0.3389 -1.0805
  346MOL0     H47741   0.920   3.653  11.273 -0.2870 -1.8593 -1.0049
  346MOL0     H47742   1.001   3.550  11.503 -1.5335 -1.5481 -0.2133
  346MOL0     H47743   1.160   3.525  11.418 -1.1453 -0.1606 -0.8280
  346MOL0     H47744   0.878   3.238  11.257 -1.3811  0.7756 -1.3678
  346MOL0     H47745   1.518   3.537  11.195  1.3181  1.4184  1.0909
  346MOL0     H47746   1.824   3.560  11.206  2.2956  1.1810 -2.6470
  346MOL0     H47747   1.703   3.437  11.212  1.2397 -1.4912  0.2016
  346MOL0     H47748   1.826   3.428  11.086  0.3856 -0.5467  1.4044
  347MOL0     O47749   8.559   1.676   8.578 -0.8226 -0.6177  0.4333
  347MOL0     C47750   8.508   1.668   8.685 -0.3801 -0.8764 -0.3769
  347MOL0     O47751   8.547   1.578   8.791 -0.6591 -0.3794  0.0365
  347MOL0     C47752   8.664   1.507   8.760  0.2397  0.6855 -0.8169
  347MOL0     C47753   8.666   1.366   8.779  0.6417 -0.1260  0.0933
  347MOL0     C47754   8.791   1.296   8.781 -1.3791  0.2506  0.3285
  347MOL0     C47755   8.913   1.369   8.774 -0.1589  0.3942  0.6333
  347MOL0     O47756   9.030   1.305   8.773  0.2915  0.3234 -0.2404
  347MOL0     C47757   9.050   1.189   8.866  0.2380  0.3084 -0.9303
  347MOL0     C47758   9.030   1.240   9.014 -0.3609 -0.1519  0.4974
  347MOL0     C47759   9.100   1.374   9.040 -0.1185  0.5005  0.0326
  347MOL0     C47760   9.120   1.398   9.193 -0.9511 -1.1701 -0.5558
  347MOL0     C47761   9.227   1.505   9.211  0.9444  0.8466  0.5079
  347MOL0     C47762   9.365   1.469   9.220  0.2734  1.2310  0.4900
  347MOL0     C47763   9.393   1.399   9.359  0.0563  0.9703  0.4920
  347MOL0     C47764   9.538   1.350   9.372 -0.7170  0.2450 -0.4652
  347MOL0     N47765   9.633   1.467   9.373 -0.2777 -0.0854 -0.7382
  347MOL0     C47766   9.605   1.595   9.405 -1.2526  0.7027 -0.3585
  347MOL0     C47767   9.722   1.660   9.370 -0.8837 -0.1170 -1.2248
  347MOL0     C47768   9.751   1.810   9.341  0.2347  0.0216  0.1779
  347MOL0     C47769   9.659   1.902   9.426  0.2618 -0.3349  0.4714
  347MOL0     C47770   9.539   1.955   9.332 -0.4356  0.6294 -0.0476
  347MOL0     C47771   9.426   2.027   9.409 -0.6756  0.0790  0.6518
  347MOL0     O47772   9.316   2.032   9.333  0.8785  0.0234  0.2285
  347MOL0     C47773   9.200   1.990   9.397  0.0379 -0.4293  0.0639
  347MOL0     C47774   9.166   2.031   9.532 -0.6568  0.0764  0.7377
  347MOL0     C47775   9.059   1.983   9.607  0.2030  0.2400  0.2861
  347MOL0     C47776   9.033   2.041   9.746 -0.3054  0.3891  2.1209
  347MOL0     C47777   8.982   1.881   9.541  0.9434  0.2053  0.0972
  347MOL0     C47778   8.868   1.804   9.610 -0.1355  0.3470  0.1246
  347MOL0     O47779   8.788   1.739   9.525  0.0482  0.2333  0.2228
  347MOL0     C47780   8.688   1.655   9.568 -0.2940 -0.8161 -0.0772
  347MOL0     C47781   8.715   1.524   9.604 -0.4769  0.6572  0.5536
  347MOL0     C47782   8.614   1.437   9.651  0.2875 -0.9006 -0.4094
  347MOL0     C47783   8.486   1.484   9.674 -0.8321  0.0297  0.9553
  347MOL0     O47784   8.392   1.398   9.745 -0.3731 -0.4817 -0.2168
  347MOL0     C47785   8.357   1.287   9.668  0.1989 -0.8947  0.9505
  347MOL0     C47786   8.285   1.188   9.757  0.2702 -0.7738  0.7336
  347MOL0     C47787   8.379   1.083   9.817  0.2915 -0.5250  0.1557
  347MOL0     C47788   8.405   0.977   9.707 -0.0224  0.2588 -0.0865
  347MOL0     C47789   8.540   0.901   9.759  0.2131 -0.4656  0.6566
  347MOL0     C47790   8.602   0.823   9.645  0.2938  0.4701  0.3065
  347MOL0     C47791   8.509   0.717   9.602 -0.5579 -0.7421 -0.7132
  347MOL0     C47792   8.555   0.620   9.493 -0.2702  0.1057 -0.3880
  347MOL0    Cl47793   8.433   0.501   9.449 -0.2106 -0.4808  0.6609
  347MOL0     C47794   8.456   1.615   9.634  0.4818 -0.2653  0.0837
  347MOL0     C47795   8.554   1.692   9.580 -0.3758 -0.5165 -0.3172
  347MOL0     O47796   8.869   1.797   9.739 -0.6610  0.0201  0.2125
  347MOL0     C47797   9.009   1.839   9.416  0.6577 -0.9641  0.9262
  347MOL0     C47798   9.125   1.887   9.345  0.1878  0.3208  0.0888
  347MOL0     N47799   9.820   1.569   9.331  0.2481  0.3737 -0.6699
  347MOL0     N47800   9.761   1.459   9.331 -0.6064  0.0193  0.2463
  347MOL0     C47801   8.906   1.502   8.752  0.2002  0.1637  0.1374
  347MOL0     C47802   8.781   1.572   8.741 -0.0122  0.0428 -0.5889
  347MOL0     C47803   8.376   1.743   8.706 -0.4043 -0.9708  0.0638
  347MOL0     C47804   8.282   1.695   8.800 -0.2014 -0.2705 -0.3871
  347MOL0     C47805   8.160   1.757   8.835 -0.6215 -0.5447 -0.0410
  347MOL0     C47806   8.111   1.871   8.754 -0.3465 -0.0045 -0.1155
  347MOL0     O47807   7.997   1.943   8.773  0.1539  0.3650  0.2474
  347MOL0     C47808   7.897   1.894   8.860 -0.0726 -0.4125 -0.2871
  347MOL0     C47809   7.769   1.985   8.843 -0.8439  1.0536  0.2341
  347MOL0     C47810   7.787   2.122   8.900  0.9257  0.4214  0.2565
  347MOL0     C47811   7.806   2.134   9.052 -0.1877  0.4494 -0.7886
  347MOL0     C47812   7.694   2.081   9.131 -0.8765  0.0196  0.1875
  347MOL0     C47813   7.621   2.011   9.197 -0.3869 -0.0011 -1.0216
  347MOL0     C47814   8.200   1.922   8.654 -1.0580  0.2037  0.2563
  347MOL0     C47815   8.329   1.859   8.636 -0.6506  0.8084 -0.0021
  347MOL0     C47816   8.422   1.923   8.529  0.4980 -0.5615  0.3338
  347MOL0     H47817   8.577   1.307   8.801 -0.7387  2.0715  0.7846
  347MOL0     H47818   8.790   1.189   8.800 -3.0400  0.2303  0.2477
  347MOL0     H47819   9.155   1.164   8.851  1.0242  2.2732  0.8840
  347MOL0     H47820   8.992   1.099   8.842  0.7091 -0.2260 -0.1270
  347MOL0     H47821   8.925   1.256   9.043 -0.0915  1.5268  0.6766
  347MOL0     H47822   9.076   1.167   9.081  0.7321 -0.8188 -0.9320
  347MOL0     H47823   9.198   1.380   8.991 -0.2142 -1.1939 -0.4343
  347MOL0     H47824   9.033   1.453   9.005  2.2330  1.8598 -1.7575
  347MOL0     H47825   9.037   1.437   9.251  2.7381  1.4427  3.6216
  347MOL0     H47826   9.143   1.299   9.235 -3.7074 -1.7793 -0.2888
  347MOL0     H47827   9.195   1.568   9.294 -0.6934  1.6217 -0.6676
  347MOL0     H47828   9.220   1.573   9.126 -1.1941  1.1179  0.8545
  347MOL0     H47829   9.395   1.406   9.135  3.2855 -0.1677  2.4112
  347MOL0     H47830   9.428   1.558   9.222  0.8624  0.8170  1.7119
  347MOL0     H47831   9.332   1.308   9.356  4.3791 -2.4412 -4.8564
  347MOL0     H47832   9.369   1.460   9.446 -1.9181 -1.9170  2.1341
  347MOL0     H47833   9.552   1.295   9.466  0.6936  1.6240  0.1967
  347MOL0     H47834   9.571   1.304   9.279 -2.1846 -0.1326 -0.8139
  347MOL0     H47835   9.514   1.643   9.437 -0.2476  2.2858  0.2618
  347MOL0     H47836   9.743   1.817   9.232  2.6397  0.6085 -0.0406
  347MOL0     H47837   9.856   1.836   9.361 -0.3755  4.1723 -0.9551
  347MOL0     H47838   9.628   1.852   9.518 -1.4743 -0.8614 -0.3598
  347MOL0     H47839   9.713   1.991   9.462  0.1140 -0.3194  0.6544
  347MOL0     H47840   9.580   2.026   9.260 -4.1384  2.8251 -0.2075
  347MOL0     H47841   9.500   1.874   9.270  2.0125 -0.3644 -0.4184
  347MOL0     H47842   9.400   1.971   9.500  0.1501 -0.5229  0.5338
  347MOL0     H47843   9.467   2.127   9.430  3.8785 -1.3365 -0.2308
  347MOL0     H47844   9.249   2.090   9.570 -0.1280  0.5145 -1.0083
  347MOL0     H47845   9.088   1.975   9.814  5.3573  3.8301  1.4882
  347MOL0     H47846   8.927   2.043   9.775 -0.0011  0.1770  3.3211
  347MOL0     H47847   9.079   2.138   9.767  1.8105 -0.8830  3.7651
  347MOL0     H47848   8.816   1.487   9.596  0.3405  2.3525  2.1896
  347MOL0     H47849   8.624   1.330   9.670  0.6288 -0.6168  1.1927
  347MOL0     H47850   8.284   1.321   9.593  1.7927 -1.5388 -0.9830
  347MOL0     H47851   8.442   1.249   9.611  0.6968  1.5689 -0.0841
  347MOL0     H47852   8.224   1.249   9.824 -1.5982 -0.3247 -1.3027
  347MOL0     H47853   8.227   1.139   9.678 -0.2412  0.4197  0.3442
  347MOL0     H47854   8.322   1.057   9.907 -0.8093  2.9376  0.5906
  347MOL0     H47855   8.474   1.127   9.849 -0.9779  0.9849  2.0844
  347MOL0     H47856   8.417   1.014   9.605  2.0462  1.9732  0.7003
  347MOL0     H47857   8.333   0.895   9.713  0.0875  0.2569  2.2050
  347MOL0     H47858   8.614   0.967   9.805 -1.7996  2.2165  0.2513
  347MOL0     H47859   8.510   0.829   9.836 -2.7515  0.0496  0.1094
  347MOL0     H47860   8.697   0.783   9.680  0.2234  2.6718  3.4160
  347MOL0     H47861   8.624   0.888   9.560  1.7619  0.1874  0.4415
  347MOL0     H47862   8.427   0.773   9.556  1.1511  1.3473 -1.3732
  347MOL0     H47863   8.484   0.663   9.693  1.5936  0.1046  0.4691
  347MOL0     H47864   8.635   0.563   9.542 -2.2298 -0.9793  1.7906
  347MOL0     H47865   8.584   0.679   9.406 -0.2661 -0.9872 -1.1400
  347MOL0     H47866   8.357   1.642   9.671  0.7001 -3.8408  4.1028
  347MOL0     H47867   8.514   1.790   9.556  0.8609  0.2880  0.7661
  347MOL0     H47868   8.947   1.774   9.355 -1.3566  0.7382  1.0273
  347MOL0     H47869   9.140   1.863   9.240  0.1052  0.2981  0.0811
  347MOL0     H47870   8.994   1.565   8.749 -0.1655  0.6632 -0.3652
  347MOL0     H47871   8.784   1.680   8.752 -0.2737  0.0972 -1.0578
  347MOL0     H47872   8.306   1.612   8.866 -3.4983 -0.3148  0.9542
  347MOL0     H47873   8.110   1.729   8.927  3.0998 -2.1587  1.6657
  347MOL0     H47874   7.877   1.791   8.832 -3.9220 -0.5225  2.0980
  347MOL0     H47875   7.929   1.898   8.965 -0.7303 -1.0546 -0.0596
  347MOL0     H47876   7.683   1.931   8.886  0.7005 -0.0363  2.1012
  347MOL0     H47877   7.766   1.983   8.733  1.0769 -3.1864  0.0566
  347MOL0     H47878   7.869   2.181   8.857  0.7674  0.5390  0.1173
  347MOL0     H47879   7.696   2.180   8.882 -0.5301 -1.6047  0.7620
  347MOL0     H47880   7.806   2.241   9.078  1.4030 -0.2349  2.5040
  347MOL0     H47881   7.905   2.095   9.078 -1.0555 -1.9547 -0.8757
  347MOL0     H47882   7.582   1.929   9.254  1.6849  0.5148  1.3013
  347MOL0     H47883   8.162   2.008   8.599 -3.5356 -0.1541  1.2803
  347MOL0     H47884   8.388   2.020   8.492  0.4619 -0.6730  0.0681
  347MOL0     H47885   8.528   1.930   8.556  1.3778  2.7537 -3.0696
  347MOL0     H47886   8.428   1.860   8.439  0.0022  3.0880 -2.4886
  348MOL0     O47887   1.757   3.105   7.958 -0.3236  0.0081 -0.9555
  348MOL0     C47888   1.770   3.119   8.082 -0.4504 -0.4527 -0.0037
  348MOL0     O47889   1.742   3.025   8.179 -0.6045 -0.2089 -0.3148
  348MOL0     C47890   1.695   2.908   8.127 -1.5923  0.5084  0.1929
  348MOL0     C47891   1.558   2.885   8.129 -0.5943  0.0068  0.4012
  348MOL0     C47892   1.509   2.758   8.099 -0.1146  0.1904  0.5375
  348MOL0     C47893   1.588   2.650   8.057 -0.3410 -0.5751 -0.4357
  348MOL0     O47894   1.533   2.522   8.048  0.2179  0.0553 -0.1658
  348MOL0     C47895   1.415   2.498   7.966 -0.1697 -0.8541  0.1056
  348MOL0     C47896   1.448   2.419   7.844  0.1103  0.2825  0.6121
  348MOL0     C47897   1.540   2.495   7.746 -0.6440 -0.1162 -0.1191
  348MOL0     C47898   1.587   2.402   7.640  0.3199 -0.5238  0.1836
  348MOL0     C47899   1.677   2.456   7.544 -0.1943 -0.4719  0.7291
  348MOL0     C47900   1.815   2.487   7.606 -0.8145 -0.6154 -0.5355
  348MOL0     C47901   1.927   2.520   7.503 -0.5588  0.4597  0.6130
  348MOL0     C47902   2.043   2.588   7.562 -0.0322  0.2191  0.0365
  348MOL0     N47903   2.159   2.599   7.475  0.2042 -0.4196 -0.0542
  348MOL0     C47904   2.152   2.654   7.352 -0.5020  0.1328  0.7764
  348MOL0     C47905   2.278   2.634   7.299 -0.1801  0.0339  0.3009
  348MOL0     C47906   2.322   2.675   7.165  0.8364  0.3370  0.0097
  348MOL0     C47907   2.217   2.626   7.053  0.3996 -0.3006 -0.2300
  348MOL0     C47908   2.282   2.628   6.920 -0.0438  0.0726 -0.1286
  348MOL0     C47909   2.195   2.598   6.796 -0.6961 -0.3956  0.5196
  348MOL0     O47910   2.283   2.602   6.680 -0.3892 -0.0072 -0.0455
  348MOL0     C47911   2.243   2.579   6.551  0.8208  1.3891  0.4349
  348MOL0     C47912   2.106   2.543   6.511  0.3494 -0.9110 -1.6089
  348MOL0     C47913   2.072   2.495   6.388 -0.3232 -0.6826 -0.8964
  348MOL0     C47914   1.925   2.458   6.369 -0.5512  0.8128 -1.0409
  348MOL0     C47915   2.174   2.492   6.287 -0.1364 -0.4125  1.0601
  348MOL0     C47916   2.141   2.432   6.147  0.1880 -0.0407  0.4431
  348MOL0     O47917   2.016   2.446   6.097  0.2796  0.5064 -0.2249
  348MOL0     C47918   1.993   2.419   5.967 -1.0223  0.5532 -0.1512
  348MOL0     C47919   1.909   2.311   5.931 -0.1518 -0.2283 -0.4354
  348MOL0     C47920   1.874   2.292   5.799  0.0601  0.6991 -0.3070
  348MOL0     C47921   1.923   2.364   5.695  0.4751 -0.9283  0.0589
  348MOL0     O47922   1.903   2.350   5.563 -0.5360 -0.3636  0.6675
  348MOL0     C47923   1.811   2.257   5.504 -0.6334  0.5991 -0.7044
  348MOL0     C47924   1.828   2.255   5.358  0.1793  0.0830  0.8696
  348MOL0     C47925   1.840   2.389   5.280 -0.4298 -1.2069  0.2611
  348MOL0     C47926   1.902   2.376   5.138  1.2035  0.0648 -0.4706
  348MOL0     C47927   1.873   2.498   5.057 -0.0510 -0.0204 -0.2301
  348MOL0     C47928   1.729   2.502   4.995 -0.0179 -0.4377 -0.2445
  348MOL0     C47929   1.729   2.424   4.857 -0.1342  0.1804 -0.2876
  348MOL0     C47930   1.686   2.278   4.869  0.2733 -0.4352 -0.0077
  348MOL0    Cl47931   1.644   2.204   4.708  0.1963 -0.4650  0.1278
  348MOL0     C47932   2.016   2.465   5.729  0.7222 -0.1510 -0.5241
  348MOL0     C47933   2.051   2.490   5.855  1.1971  0.2857 -0.4162
  348MOL0     O47934   2.240   2.381   6.090  0.2154  0.6034  0.4918
  348MOL0     C47935   2.304   2.535   6.313 -0.2472  0.2042 -0.4007
  348MOL0     C47936   2.333   2.582   6.441  0.6027  0.3367 -0.9852
  348MOL0     N47937   2.356   2.576   7.397  0.2815  0.4171  0.4750
  348MOL0     N47938   2.289   2.559   7.502 -0.0530 -0.3048 -0.0224
  348MOL0     C47939   1.722   2.670   8.060 -0.1922  0.8400  0.8260
  348MOL0     C47940   1.778   2.802   8.085  0.2284  0.8913 -0.0066
  348MOL0     C47941   1.819   3.250   8.128 -0.7358  0.0929  0.2454
  348MOL0     C47942   1.833   3.264   8.269 -0.8184 -1.3851 -0.0072
  348MOL0     C47943   1.888   3.376   8.331  0.1214  0.6214  0.5491
  348MOL0     C47944   1.939   3.483   8.253 -0.0446 -0.6137  0.6466
  348MOL0     O47945   1.997   3.592   8.314 -0.1331 -0.4458  0.0787
  348MOL0     C47946   2.031   3.699   8.232 -0.3797  0.3649 -0.2053
  348MOL0     C47947   2.077   3.823   8.317  0.4589  0.0128 -0.1765
  348MOL0     C47948   2.207   3.807   8.401  0.4917 -0.1800  0.3375
  348MOL0     C47949   2.340   3.843   8.337 -0.2566 -0.2643 -0.3776
  348MOL0     C47950   2.438   3.754   8.401 -0.1125  0.3565 -0.6681
  348MOL0     C47951   2.534   3.690   8.449  0.6301  0.0851  0.7620
  348MOL0     C47952   1.912   3.471   8.116  0.4314  1.2840  1.0167
  348MOL0     C47953   1.850   3.365   8.050  0.0685 -0.2675 -0.9833
  348MOL0     C47954   1.848   3.382   7.895 -0.9186 -0.2246 -0.5861
  348MOL0     H47955   1.492   2.967   8.154 -1.3013 -0.3476 -0.2592
  348MOL0     H47956   1.403   2.740   8.116 -0.6466  1.2530 -1.4212
  348MOL0     H47957   1.363   2.589   7.935 -0.0445 -1.1710 -1.1090
  348MOL0     H47958   1.343   2.438   8.022  0.7344 -0.8539  1.3157
  348MOL0     H47959   1.492   2.322   7.869 -0.1007  0.0447  0.0897
  348MOL0     H47960   1.352   2.390   7.801  0.9968 -1.5733 -0.2006
  348MOL0     H47961   1.482   2.579   7.707 -1.6265 -0.3287  0.8020
  348MOL0     H47962   1.627   2.525   7.804  0.0297 -1.8309 -0.1807
  348MOL0     H47963   1.635   2.316   7.687 -2.1705 -1.5056  1.1063
  348MOL0     H47964   1.498   2.358   7.594  0.1816  0.0208 -0.0808
  348MOL0     H47965   1.637   2.547   7.497 -0.4885 -1.9174 -2.0691
  348MOL0     H47966   1.695   2.378   7.470 -0.5187  1.2214 -1.2469
  348MOL0     H47967   1.795   2.576   7.666 -0.3085  2.0335 -4.0281
  348MOL0     H47968   1.853   2.404   7.667  1.5404  1.5490  1.1267
  348MOL0     H47969   1.873   2.587   7.435 -1.4648 -0.7581  0.1012
  348MOL0     H47970   1.959   2.431   7.448  2.4072  1.0779  1.1795
  348MOL0     H47971   2.005   2.691   7.571  0.2324  0.3302 -0.1105
  348MOL0     H47972   2.064   2.542   7.659  1.1758 -0.3838 -0.5026
  348MOL0     H47973   2.064   2.694   7.302 -2.6081 -1.3722  3.0570
  348MOL0     H47974   2.417   2.624   7.148  1.0032  0.4379  0.6590
  348MOL0     H47975   2.327   2.784   7.156 -2.4888  0.4986 -1.7636
  348MOL0     H47976   2.185   2.525   7.079  0.9780  0.0717  2.1540
  348MOL0     H47977   2.136   2.699   7.050  0.1385 -0.5608  0.4141
  348MOL0     H47978   2.322   2.727   6.898 -0.2880 -0.5121 -3.6878
  348MOL0     H47979   2.369   2.561   6.914  0.5190  0.9320 -2.2896
  348MOL0     H47980   2.143   2.502   6.805 -1.2468  0.0192  2.1584
  348MOL0     H47981   2.127   2.682   6.778  0.4535  0.4823  0.1513
  348MOL0     H47982   2.027   2.542   6.586  0.7511  0.4942 -1.1571
  348MOL0     H47983   1.870   2.521   6.439 -0.8119 -1.0021  0.4446
  348MOL0     H47984   1.908   2.354   6.398  1.6954  1.5327  3.6891
  348MOL0     H47985   1.885   2.493   6.273  1.6500  2.7579 -1.3382
  348MOL0     H47986   1.889   2.233   6.004  1.7610  1.5747  2.2355
  348MOL0     H47987   1.813   2.210   5.762  1.1666  0.4661 -1.6441
  348MOL0     H47988   1.826   2.157   5.546 -1.5142  1.4359  1.8291
  348MOL0     H47989   1.707   2.281   5.528 -1.0661 -2.1071  0.5300
  348MOL0     H47990   1.923   2.200   5.354  2.2424  3.3029  1.9601
  348MOL0     H47991   1.750   2.190   5.317  1.6213 -1.2958  0.1606
  348MOL0     H47992   1.916   2.450   5.329  0.4217 -1.3466 -0.8539
  348MOL0     H47993   1.740   2.433   5.277  0.0600 -0.0884 -1.8897
  348MOL0     H47994   1.856   2.288   5.092 -2.7149  2.9132 -2.6427
  348MOL0     H47995   2.010   2.361   5.138  1.1140 -0.6249 -1.1641
  348MOL0     H47996   1.877   2.586   5.122  1.7168 -0.3716  0.1897
  348MOL0     H47997   1.955   2.514   4.986 -1.1225  0.9558 -1.3000
  348MOL0     H47998   1.706   2.609   4.988  3.6414  0.5985  1.3166
  348MOL0     H47999   1.666   2.455   5.071 -0.3021 -0.7451 -0.6622
  348MOL0     H48000   1.825   2.436   4.806  0.8213  0.0096  1.3811
  348MOL0     H48001   1.665   2.464   4.778 -0.6355 -1.4439 -0.7463
  348MOL0     H48002   1.592   2.278   4.925 -0.7168  0.7467 -1.5746
  348MOL0     H48003   1.762   2.216   4.918 -0.7737 -3.1455 -1.5952
  348MOL0     H48004   2.069   2.516   5.650  0.0495 -1.5528 -1.9206
  348MOL0     H48005   2.129   2.564   5.867  2.4253 -0.9643 -0.3851
  348MOL0     H48006   2.382   2.531   6.237 -0.9739  0.5645 -1.1857
  348MOL0     H48007   2.431   2.617   6.470 -0.4735  3.5889 -0.8860
  348MOL0     H48008   1.777   2.580   8.035 -0.9489  0.4670  0.4563
  348MOL0     H48009   1.886   2.814   8.083  0.4107 -0.4487  0.2362
  348MOL0     H48010   1.818   3.183   8.340  0.8839 -1.3798  0.4019
  348MOL0     H48011   1.890   3.389   8.439  1.4950 -0.1133  0.6409
  348MOL0     H48012   2.120   3.671   8.175 -0.9216 -0.4550 -0.6718
  348MOL0     H48013   1.946   3.721   8.167 -0.9479  0.9806  0.7153
  348MOL0     H48014   1.993   3.836   8.386  1.1930  1.0111  0.5584
  348MOL0     H48015   2.096   3.912   8.256 -1.0871 -1.4185 -2.9650
  348MOL0     H48016   2.215   3.862   8.495  0.9588  0.4560 -0.0664
  348MOL0     H48017   2.206   3.703   8.434  0.9652  0.0669  1.1491
  348MOL0     H48018   2.373   3.944   8.363  0.3741 -0.9510  1.6560
  348MOL0     H48019   2.348   3.823   8.230  0.3795 -4.6200  0.2668
  348MOL0     H48020   2.609   3.627   8.492 -1.1624 -1.4616  1.7403
  348MOL0     H48021   1.951   3.544   8.046 -2.7167  3.4708  1.2992
  348MOL0     H48022   1.744   3.367   7.862 -0.5760  1.7866 -2.9119
  348MOL0     H48023   1.892   3.474   7.855 -0.6807  0.0770  0.3436
  348MOL0     H48024   1.916   3.305   7.857  0.4023  0.9103 -0.6039
  349MOL0     O48025   6.047   4.326  11.409 -0.6033 -0.0220  0.0424
  349MOL0     C48026   6.071   4.234  11.488 -0.1533  0.2682 -0.2506
  349MOL0     O48027   5.996   4.126  11.512 -0.4072 -0.2044  0.1808
  349MOL0     C48028   5.867   4.113  11.462  0.8613  0.3890 -0.0987
  349MOL0     C48029   5.847   4.106  11.323 -0.3220 -0.0016 -0.2966
  349MOL0     C48030   5.717   4.109  11.270 -0.0019  0.0644 -0.9400
  349MOL0     C48031   5.607   4.111  11.355  0.0344 -0.7867  0.2429
  349MOL0     O48032   5.489   4.119  11.286  0.6740  0.3481 -0.0586
  349MOL0     C48033   5.442   4.012  11.193 -0.0787 -0.3785  0.3086
  349MOL0     C48034   5.456   3.871  11.250  0.0587  0.4472 -0.8647
  349MOL0     C48035   5.336   3.838  11.340 -0.4727 -0.1537 -0.5077
  349MOL0     C48036   5.358   3.702  11.413  0.7638  1.3590 -0.7709
  349MOL0     C48037   5.254   3.698  11.525  0.3493 -0.3771 -0.7419
  349MOL0     C48038   5.254   3.572  11.611  0.6819 -0.4456 -0.6238
  349MOL0     C48039   5.377   3.535  11.685 -0.7050 -1.0032  0.3698
  349MOL0     C48040   5.367   3.397  11.737 -0.4026 -0.4603  0.2728
  349MOL0     N48041   5.479   3.355  11.820 -0.8988 -0.9932  0.0032
  349MOL0     C48042   5.595   3.301  11.768  0.5967 -0.3440 -0.0658
  349MOL0     C48043   5.665   3.269  11.885  0.0168  0.0368 -0.2643
  349MOL0     C48044   5.797   3.202  11.888  0.4611 -0.6299 -0.0681
  349MOL0     C48045   5.797   3.057  11.844 -0.3280 -0.3464 -0.3573
  349MOL0     C48046   5.931   2.997  11.875  0.3388  0.6122 -0.5620
  349MOL0     C48047   5.944   2.851  11.834 -0.0474  0.4624 -0.2028
  349MOL0     O48048   6.063   2.800  11.881  0.3607  0.3489 -1.0929
  349MOL0     C48049   6.108   2.685  11.819 -0.3839  0.3953 -0.1255
  349MOL0     C48050   6.244   2.649  11.833  0.2129 -0.9311  0.0929
  349MOL0     C48051   6.303   2.529  11.801  0.1648 -0.1425  0.2527
  349MOL0     C48052   6.453   2.512  11.826  0.3808  0.5817 -0.4119
  349MOL0     C48053   6.223   2.441  11.732  0.3020  0.0619  0.9789
  349MOL0     C48054   6.268   2.316  11.668 -0.7259  0.1325  0.2867
  349MOL0     O48055   6.371   2.248  11.730  0.3646  0.3086 -0.3268
  349MOL0     C48056   6.404   2.132  11.661  0.3283  0.2613 -1.1704
  349MOL0     C48057   6.324   2.019  11.658  0.7663  0.3789  0.2837
  349MOL0     C48058   6.371   1.896  11.604  0.6215  0.0592 -0.8242
  349MOL0     C48059   6.503   1.888  11.553  1.3907 -0.3212  0.7102
  349MOL0     O48060   6.542   1.765  11.504 -0.9190 -0.0087 -0.4107
  349MOL0     C48061   6.592   1.757  11.372  0.5597 -0.5262  0.0232
  349MOL0     C48062   6.738   1.721  11.368 -1.3948  0.7164 -0.1298
  349MOL0     C48063   6.799   1.736  11.230 -0.5673 -0.0959 -0.1243
  349MOL0     C48064   6.953   1.740  11.215 -0.5323  1.3252  1.1494
  349MOL0     C48065   6.983   1.742  11.066  0.1010 -0.1350 -0.8531
  349MOL0     C48066   7.138   1.728  11.051  0.1069 -0.5780 -0.3032
  349MOL0     C48067   7.158   1.662  10.908 -0.9505 -1.1578 -0.0394
  349MOL0     C48068   7.253   1.751  10.828  0.0702 -0.4038  0.0068
  349MOL0    Cl48069   7.295   1.688  10.669 -0.2555 -0.4246 -0.3227
  349MOL0     C48070   6.586   1.999  11.564  0.4389 -0.2573  0.0076
  349MOL0     C48071   6.541   2.120  11.617  0.2428  0.5154 -0.5658
  349MOL0     O48072   6.204   2.274  11.573 -0.3695  0.6523 -0.3533
  349MOL0     C48073   6.088   2.474  11.707 -0.8518  0.3659 -0.3455
  349MOL0     C48074   6.030   2.596  11.748  0.8824  0.4144  0.0162
  349MOL0     N48075   5.583   3.288  11.998 -0.1556 -0.9042  0.8013
  349MOL0     N48076   5.473   3.337  11.952 -0.7041  0.2518  0.0783
  349MOL0     C48077   5.624   4.125  11.495 -0.2800 -0.1523 -0.1794
  349MOL0     C48078   5.755   4.117  11.545 -0.0950  0.3258 -0.0020
  349MOL0     C48079   6.190   4.235  11.574  0.4544  0.5046  0.2221
  349MOL0     C48080   6.197   4.161  11.697  0.4415 -0.0865  0.2385
  349MOL0     C48081   6.297   4.197  11.788  0.4564  0.4079 -0.0887
  349MOL0     C48082   6.388   4.297  11.771 -0.8898 -0.3576 -1.0805
  349MOL0     O48083   6.469   4.331  11.881 -0.3350 -0.6328 -0.1531
  349MOL0     C48084   6.607   4.343  11.853  0.5954  0.1884 -0.7655
  349MOL0     C48085   6.685   4.374  11.984 -0.3469 -0.3990 -0.6547
  349MOL0     C48086   6.725   4.242  12.066  0.3786 -0.3760  0.7049
  349MOL0     C48087   6.769   4.267  12.201 -0.4262 -0.8002 -0.3492
  349MOL0     C48088   6.803   4.142  12.272 -0.2247  0.6251  1.0024
  349MOL0     C48089   6.836   4.037  12.320 -0.4376 -0.3173 -0.5349
  349MOL0     C48090   6.390   4.356  11.648  0.3663  0.1253 -0.1876
  349MOL0     C48091   6.295   4.326  11.550 -0.1482  1.1232  1.0811
  349MOL0     C48092   6.314   4.393  11.425 -0.0679  0.4475  0.8540
  349MOL0     H48093   5.933   4.110  11.256 -0.5926  0.9006 -0.6019
  349MOL0     H48094   5.707   4.116  11.162  0.6846  1.5486 -0.9429
  349MOL0     H48095   5.506   4.021  11.105  1.6432  0.9997  1.6218
  349MOL0     H48096   5.340   4.031  11.158  0.6930 -1.5675 -2.9909
  349MOL0     H48097   5.436   3.802  11.168  0.0564  0.6426 -1.0281
  349MOL0     H48098   5.553   3.855  11.299 -0.6119  1.7894  1.0153
  349MOL0     H48099   5.307   3.919  11.408  1.8160 -1.2128  1.9015
  349MOL0     H48100   5.248   3.819  11.277  0.5030 -0.3157 -1.8778
  349MOL0     H48101   5.343   3.618  11.344 -0.7479  1.0904 -0.1485
  349MOL0     H48102   5.459   3.695  11.455  0.5036 -0.0149 -0.3033
  349MOL0     H48103   5.152   3.719  11.489  1.1846  0.9844 -2.4660
  349MOL0     H48104   5.269   3.782  11.594 -0.9216  0.4227 -1.3774
  349MOL0     H48105   5.181   3.592  11.690  0.3524  1.4512 -1.3821
  349MOL0     H48106   5.219   3.484  11.556 -0.8759  1.2558 -2.4910
  349MOL0     H48107   5.382   3.617  11.757 -1.1652  1.9751 -2.7347
  349MOL0     H48108   5.468   3.534  11.624  0.0769 -0.0855  1.4725
  349MOL0     H48109   5.282   3.395  11.806  1.3264  1.5255  2.6503
  349MOL0     H48110   5.352   3.320  11.660  4.4270 -0.1830 -1.2661
  349MOL0     H48111   5.638   3.302  11.668 -1.5636 -2.4321 -1.1224
  349MOL0     H48112   5.836   3.224  11.988  1.4792  1.0332 -0.7727
  349MOL0     H48113   5.862   3.259  11.821  2.4676 -0.0468  2.2043
  349MOL0     H48114   5.713   3.016  11.901 -2.2954  1.8479 -1.4828
  349MOL0     H48115   5.783   3.051  11.735  0.4193 -0.9896 -0.4307
  349MOL0     H48116   6.018   3.052  11.839  2.1894 -1.9860 -0.3817
  349MOL0     H48117   5.934   2.999  11.985 -1.2458 -3.5301 -0.2480
  349MOL0     H48118   5.862   2.789  11.871 -0.5825  1.4945  0.3929
  349MOL0     H48119   5.928   2.847  11.726 -3.8437  1.7261  0.1591
  349MOL0     H48120   6.308   2.727  11.873 -0.7364  0.4901 -1.0818
  349MOL0     H48121   6.465   2.450  11.915  0.4419 -3.2096 -2.8188
  349MOL0     H48122   6.492   2.613  11.839  1.1096  0.3337 -0.6347
  349MOL0     H48123   6.503   2.457  11.746 -0.3120 -0.8738  0.1060
  349MOL0     H48124   6.222   2.028  11.691 -0.6078  1.0295 -3.6050
  349MOL0     H48125   6.294   1.820  11.605  0.2474  0.3886 -2.3490
  349MOL0     H48126   6.540   1.677  11.320  1.4832 -0.5665 -0.8489
  349MOL0     H48127   6.564   1.848  11.319 -0.7964  1.0318  3.1033
  349MOL0     H48128   6.794   1.798  11.422  0.3029  2.4305 -3.9411
  349MOL0     H48129   6.749   1.623  11.415  2.4827  0.8820 -0.3774
  349MOL0     H48130   6.773   1.834  11.189  0.9894  0.1870 -0.5110
  349MOL0     H48131   6.757   1.662  11.161  0.5554 -0.0788 -0.8414
  349MOL0     H48132   6.989   1.644  11.253  3.3562  1.3420 -1.8886
  349MOL0     H48133   7.004   1.828  11.257  5.1195  1.5029 -4.6115
  349MOL0     H48134   6.940   1.660  11.008  2.7562 -1.2069 -1.4293
  349MOL0     H48135   6.968   1.842  11.024  2.3441  0.1693 -1.0212
  349MOL0     H48136   7.186   1.666  11.128 -1.6771 -1.6876 -0.0195
  349MOL0     H48137   7.186   1.825  11.065 -0.3750 -0.2172 -1.0498
  349MOL0     H48138   7.067   1.667  10.848 -1.0866  0.3312  0.2575
  349MOL0     H48139   7.178   1.554  10.908 -0.0460 -1.0539 -2.6487
  349MOL0     H48140   7.347   1.770  10.880 -0.0190  3.0824 -0.8920
  349MOL0     H48141   7.212   1.850  10.810  0.4257 -0.0292  1.1754
  349MOL0     H48142   6.689   1.987  11.531 -0.0445 -2.1053 -0.9626
  349MOL0     H48143   6.609   2.202  11.634 -2.0765  2.2228  1.1419
  349MOL0     H48144   6.023   2.405  11.655  1.4809 -1.2405 -1.2835
  349MOL0     H48145   5.923   2.617  11.746  0.9662  0.8226 -1.0330
  349MOL0     H48146   5.542   4.121  11.566 -0.1675 -0.5935 -0.0710
  349MOL0     H48147   5.787   4.127  11.648  1.0836  0.0240 -0.3286
  349MOL0     H48148   6.116   4.098  11.734 -1.6686  2.8703  1.1129
  349MOL0     H48149   6.293   4.145  11.883 -1.0379  3.1017  1.4375
  349MOL0     H48150   6.641   4.243  11.822  1.1515  0.7204 -1.9384
  349MOL0     H48151   6.631   4.418  11.778  1.0274 -1.1501 -2.0208
  349MOL0     H48152   6.629   4.441  12.051  0.4387 -0.7164  0.3539
  349MOL0     H48153   6.777   4.425  11.952  0.2335 -1.7244 -1.1629
  349MOL0     H48154   6.637   4.177  12.065  1.3297 -1.8077  3.1639
  349MOL0     H48155   6.805   4.195  12.008  0.4841  1.4878 -0.7543
  349MOL0     H48156   6.699   4.328  12.259 -0.1202  1.1731 -1.9287
  349MOL0     H48157   6.861   4.325  12.189 -0.7428 -0.3937 -0.8573
  349MOL0     H48158   6.876   3.951  12.369 -0.7827 -0.2498 -0.1222
  349MOL0     H48159   6.470   4.427  11.630 -0.1129 -0.2646 -5.1634
  349MOL0     H48160   6.297   4.319  11.346  0.8378  2.3235 -1.1981
  349MOL0     H48161   6.246   4.478  11.415  1.2419  1.6639  1.8251
  349MOL0     H48162   6.417   4.427  11.415  0.7837 -2.3252 -1.1654
  350MOL0     O48163   3.769  10.452  10.964  0.1391 -0.8866  0.1642
  350MOL0     C48164   3.753  10.332  10.989 -0.2685  0.1484 -0.9105
  350MOL0     O48165   3.636  10.269  11.031  0.7131 -0.2525 -0.6494
  350MOL0     C48166   3.522  10.348  11.033  0.0462 -0.8036 -0.2279
  350MOL0     C48167   3.498  10.451  11.122 -1.1493  0.4299  0.3351
  350MOL0     C48168   3.388  10.531  11.122  0.2507  0.4891 -0.0845
  350MOL0     C48169   3.290  10.511  11.027 -0.3409  0.8064 -1.0709
  350MOL0     O48170   3.184  10.586  10.999  0.3105 -1.1612  0.0726
  350MOL0     C48171   3.159  10.716  11.049  0.2444 -0.2204 -1.3091
  350MOL0     C48172   3.096  10.700  11.194 -0.0025 -0.3524  0.1316
  350MOL0     C48173   2.963  10.606  11.163  0.3564 -0.4503 -0.3535
  350MOL0     C48174   2.854  10.611  11.277  0.4424 -1.0422 -0.2249
  350MOL0     C48175   2.919  10.609  11.423  0.9990 -0.6804 -0.5168
  350MOL0     C48176   2.996  10.489  11.459 -0.2792 -0.3891 -0.7005
  350MOL0     C48177   3.014  10.476  11.607 -0.3711  0.2146 -1.1192
  350MOL0     C48178   2.896  10.437  11.689  0.0588 -0.3196 -0.7901
  350MOL0     N48179   2.919  10.444  11.840  0.3066 -0.5974  0.3465
  350MOL0     C48180   3.005  10.370  11.915  0.1869 -0.8781 -0.1925
  350MOL0     C48181   2.975  10.416  12.044  0.1356 -0.9937 -0.1596
  350MOL0     C48182   3.036  10.359  12.172 -0.0515  0.7375 -0.1543
  350MOL0     C48183   3.003  10.456  12.286 -0.5964 -0.2982 -0.2652
  350MOL0     C48184   3.069  10.414  12.408  0.0953  0.0222  0.2888
  350MOL0     C48185   3.046  10.503  12.533 -0.5839  0.8223  0.5259
  350MOL0     O48186   3.113  10.633  12.513 -0.0171 -0.3524 -0.1998
  350MOL0     C48187   3.235  10.647  12.573  0.2968  0.7597 -0.4638
  350MOL0     C48188   3.287  10.587  12.692  0.1910  0.9134 -0.5999
  350MOL0     C48189   3.413  10.620  12.748 -0.0225 -0.4975 -0.1263
  350MOL0     C48190   3.447  10.586  12.894  0.4781 -0.4803 -0.0593
  350MOL0     C48191   3.495  10.702  12.668  0.5909  0.3778 -0.0870
  350MOL0     C48192   3.628  10.750  12.719 -0.3406 -0.3334 -0.5484
  350MOL0     O48193   3.731  10.768  12.623  0.0103  0.0184 -0.6759
  350MOL0     C48194   3.858  10.810  12.654 -0.5117  0.2282 -0.4466
  350MOL0     C48195   3.964  10.751  12.594 -0.4773 -0.3842 -0.1723
  350MOL0     C48196   4.094  10.795  12.604  0.1134 -0.5532  0.6733
  350MOL0     C48197   4.125  10.905  12.689  0.6865 -0.5518 -0.6554
  350MOL0     O48198   4.261  10.922  12.722  0.5186 -1.4635 -0.2872
  350MOL0     C48199   4.313  11.020  12.815  0.3186 -0.6692  0.0315
  350MOL0     C48200   4.459  11.035  12.785  0.5598 -0.2614 -0.3678
  350MOL0     C48201   4.539  11.136  12.879 -0.1803  0.7265  0.0138
  350MOL0     C48202   4.680  11.167  12.822 -0.9048 -0.5892  0.0616
  350MOL0     C48203   4.774  11.053  12.803 -0.7820  0.8183  0.7497
  350MOL0     C48204   4.838  10.986  12.924  0.1325  0.3798  0.2413
  350MOL0     C48205   4.918  10.867  12.884 -0.1627 -0.4930  0.1529
  350MOL0     C48206   4.835  10.740  12.849 -0.6911 -0.0763  0.5280
  350MOL0    Cl48207   4.753  10.669  12.978 -0.3211  0.4516 -0.0050
  350MOL0     C48208   4.016  10.974  12.747 -0.5251  0.6190 -0.2408
  350MOL0     C48209   3.885  10.926  12.737  0.9418  0.6048 -0.0047
  350MOL0     O48210   3.633  10.795  12.831 -0.5313  0.8952 -0.3774
  350MOL0     C48211   3.455  10.737  12.535 -0.0178 -0.4024  0.2134
  350MOL0     C48212   3.328  10.723  12.496  0.6699  0.1196 -0.7630
  350MOL0     N48213   2.881  10.516  12.032 -0.4275 -0.6464 -0.3868
  350MOL0     N48214   2.838  10.531  11.916 -0.6819 -0.2661  0.2658
  350MOL0     C48215   3.309  10.404  10.945  0.8108  0.5340 -1.0862
  350MOL0     C48216   3.421  10.318  10.948 -0.8063 -0.2486 -0.0134
  350MOL0     C48217   3.876  10.250  10.994  0.7919 -1.1132  0.6146
  350MOL0     C48218   3.900  10.185  11.121  0.2699 -0.4575  0.2523
  350MOL0     C48219   4.026  10.119  11.141 -0.2473  0.1490  0.1223
  350MOL0     C48220   4.119  10.109  11.038  0.4706  0.2875  0.4750
  350MOL0     O48221   4.226  10.032  11.064  0.3784 -0.4720  0.7399
  350MOL0     C48222   4.345  10.049  10.993 -0.4195 -0.8053 -0.5276
  350MOL0     C48223   4.355   9.962  10.867  0.0310  0.2101  0.5016
  350MOL0     C48224   4.489   9.894  10.841 -0.3319  0.1797 -0.4720
  350MOL0     C48225   4.605  10.003  10.849 -0.3880 -0.5628  0.3943
  350MOL0     C48226   4.590  10.125  10.767 -1.0638  0.1586 -0.1030
  350MOL0     C48227   4.566  10.209  10.684 -0.6047  0.2049  0.3360
  350MOL0     C48228   4.097  10.178  10.919  0.2393  0.5125  0.2192
  350MOL0     C48229   3.968  10.232  10.888  0.4952  0.0747 -0.3517
  350MOL0     C48230   3.932  10.297  10.752  0.0711  0.6991  0.0640
  350MOL0     H48231   3.575  10.481  11.193 -1.0356  1.8495 -0.3538
  350MOL0     H48232   3.371  10.602  11.202 -0.1358 -1.5853  1.7534
  350MOL0     H48233   3.099  10.785  10.988 -0.5160 -1.6599 -2.2407
  350MOL0     H48234   3.252  10.770  11.070  0.4068 -0.8247 -0.3864
  350MOL0     H48235   3.177  10.653  11.251 -1.2778 -2.0313  0.6418
  350MOL0     H48236   3.067  10.800  11.228 -0.3984 -0.6384  0.6326
  350MOL0     H48237   2.922  10.643  11.069  2.7180  2.3314 -0.4122
  350MOL0     H48238   2.989  10.499  11.162  0.0830 -0.5762  1.4926
  350MOL0     H48239   2.795  10.702  11.261  1.3168 -0.6261 -1.1694
  350MOL0     H48240   2.784  10.527  11.271  1.1137 -1.6833  0.6245
  350MOL0     H48241   2.834  10.630  11.489 -0.4730 -2.8783 -1.6218
  350MOL0     H48242   2.975  10.702  11.437  1.0834 -0.8171  0.1014
  350MOL0     H48243   2.938  10.408  11.413 -0.0405 -2.0581  1.7715
  350MOL0     H48244   3.086  10.501  11.399 -0.1641  3.2975 -0.0143
  350MOL0     H48245   3.042  10.575  11.643 -3.1527  0.8298 -0.3599
  350MOL0     H48246   3.079  10.393  11.635 -1.3156  0.6265  2.9357
  350MOL0     H48247   2.801  10.483  11.658 -0.6734 -1.6340 -0.5862
  350MOL0     H48248   2.869  10.332  11.677 -0.2350 -0.4925  1.0517
  350MOL0     H48249   3.077  10.303  11.870  0.1377 -3.0507  2.6894
  350MOL0     H48250   3.142  10.337  12.163 -0.8925 -3.4812 -1.7910
  350MOL0     H48251   3.001  10.258  12.192 -0.0589  0.7526 -0.0873
  350MOL0     H48252   3.043  10.554  12.260  0.4960 -1.4082 -3.2234
  350MOL0     H48253   2.896  10.466  12.303 -0.0420  1.0051  3.4791
  350MOL0     H48254   3.035  10.313  12.435  0.8512  0.3428  2.6945
  350MOL0     H48255   3.178  10.412  12.402  0.3124 -0.6994  2.9520
  350MOL0     H48256   2.937  10.508  12.538 -0.8068 -1.9972  0.0758
  350MOL0     H48257   3.076  10.452  12.625  1.3984  2.0526  0.6285
  350MOL0     H48258   3.225  10.519  12.750  0.2478  1.7408  0.4680
  350MOL0     H48259   3.548  10.543  12.898 -0.0707 -1.7275  1.0645
  350MOL0     H48260   3.383  10.508  12.935 -0.4534  1.7824  3.1476
  350MOL0     H48261   3.447  10.672  12.961 -2.8826 -0.7649  0.4969
  350MOL0     H48262   3.934  10.668  12.530  2.1711 -0.2326 -1.7525
  350MOL0     H48263   4.170  10.726  12.568 -0.4218 -1.5061  1.2915
  350MOL0     H48264   4.274  11.119  12.790 -1.4024 -1.6167 -1.2358
  350MOL0     H48265   4.291  10.995  12.919 -1.4006  1.1501  0.1702
  350MOL0     H48266   4.497  10.935  12.803  2.1845  0.1215 -1.4704
  350MOL0     H48267   4.478  11.067  12.682  2.6683  2.6142  0.7660
  350MOL0     H48268   4.537  11.091  12.979  1.0901  2.5233  0.8907
  350MOL0     H48269   4.488  11.232  12.878  0.1045  0.8806 -0.9675
  350MOL0     H48270   4.733  11.228  12.896 -0.7718 -0.0575 -0.4696
  350MOL0     H48271   4.679  11.229  12.732 -0.5222  1.4986  1.4344
  350MOL0     H48272   4.720  10.978  12.744 -2.2855  4.1790 -2.5267
  350MOL0     H48273   4.853  11.079  12.732 -1.3570 -1.0177 -0.6370
  350MOL0     H48274   4.759  10.963  12.996 -0.4855 -2.0778 -1.0940
  350MOL0     H48275   4.903  11.058  12.975  2.6796 -1.8186  0.3741
  350MOL0     H48276   4.987  10.851  12.967 -1.4698 -0.4336  1.2851
  350MOL0     H48277   4.981  10.902  12.801  1.3161 -1.0925  0.9875
  350MOL0     H48278   4.900  10.665  12.802  0.8222  2.2909 -1.4180
  350MOL0     H48279   4.759  10.769  12.776  2.0608  2.5491 -1.5611
  350MOL0     H48280   4.045  11.056  12.812 -1.7257  0.8221  0.0567
  350MOL0     H48281   3.808  10.991  12.777  3.4457  3.0951  1.1002
  350MOL0     H48282   3.523  10.782  12.464 -1.0693  1.0878  0.1126
  350MOL0     H48283   3.292  10.768  12.403 -0.2899 -1.9781 -1.4843
  350MOL0     H48284   3.230  10.380  10.874  0.7071  2.4119 -1.6638
  350MOL0     H48285   3.440  10.237  10.878  0.0421 -0.3627  0.3423
  350MOL0     H48286   3.830  10.184  11.204  1.1209 -0.8047  0.9781
  350MOL0     H48287   4.048  10.078  11.239 -0.1596  1.2757  0.5895
  350MOL0     H48288   4.356  10.153  10.962  2.0839 -0.4376  1.2567
  350MOL0     H48289   4.430  10.032  11.060  1.1964 -2.7807 -2.8684
  350MOL0     H48290   4.343  10.023  10.778  2.0756 -3.2408 -2.4113
  350MOL0     H48291   4.277   9.885  10.878  1.0288 -1.0600 -0.8974
  350MOL0     H48292   4.502   9.815  10.916 -1.1430  1.1249  0.6924
  350MOL0     H48293   4.483   9.841  10.746 -0.0227 -0.5825 -0.0751
  350MOL0     H48294   4.694   9.944  10.824 -0.5697 -0.8528  0.4289
  350MOL0     H48295   4.612  10.036  10.953  1.0065 -0.1546  0.1960
  350MOL0     H48296   4.531  10.292  10.626  0.0215 -0.3324 -0.8394
  350MOL0     H48297   4.168  10.178  10.837 -0.9455  1.2061 -0.8453
  350MOL0     H48298   4.015  10.302  10.682  0.4203  1.6386  0.5309
  350MOL0     H48299   3.867  10.221  10.706  0.3279  1.3468 -1.4063
  350MOL0     H48300   3.882  10.394  10.746  0.3000  0.7495 -1.1219
  351MOL0     O48301   2.814   3.099   2.421  0.2001 -0.2984  0.3309
  351MOL0     C48302   2.835   3.016   2.329  0.4740 -0.4404  0.7294
  351MOL0     O48303   2.859   2.887   2.354  0.5763 -0.7341 -1.1310
  351MOL0     C48304   2.867   2.853   2.484 -0.8995  0.6507 -0.2715
  351MOL0     C48305   2.756   2.863   2.573  0.0732 -0.7780 -0.0377
  351MOL0     C48306   2.770   2.820   2.703 -0.3423  0.2488  0.0711
  351MOL0     C48307   2.892   2.775   2.757 -0.1545  0.1550  0.8726
  351MOL0     O48308   2.898   2.738   2.888 -0.1217  0.3783 -0.7336
  351MOL0     C48309   3.018   2.674   2.945  0.6726 -0.0999 -0.0085
  351MOL0     C48310   3.126   2.773   2.981 -0.0901 -0.4431 -0.2707
  351MOL0     C48311   3.108   2.830   3.122  0.2282  0.4056 -0.0544
  351MOL0     C48312   3.221   2.916   3.165 -0.1155 -1.8599 -0.6493
  351MOL0     C48313   3.189   3.023   3.272  0.5821 -0.4157  0.5504
  351MOL0     C48314   3.163   2.959   3.408  0.6515 -0.5476 -0.3554
  351MOL0     C48315   3.103   3.066   3.510 -0.6824 -0.8180 -0.5269
  351MOL0     C48316   3.042   2.991   3.632  0.0365 -0.2739 -1.2438
  351MOL0     N48317   3.154   2.948   3.714  0.2151  0.1532 -0.2429
  351MOL0     C48318   3.222   3.018   3.813 -0.2975 -0.4399  0.3182
  351MOL0     C48319   3.327   2.936   3.835 -0.1370 -0.3073 -1.0430
  351MOL0     C48320   3.441   2.965   3.925  0.6231  0.0391 -0.1184
  351MOL0     C48321   3.527   3.080   3.868  0.2433  0.2221  0.1532
  351MOL0     C48322   3.657   3.077   3.951 -1.1502  0.4358 -0.3999
  351MOL0     C48323   3.747   3.200   3.918 -0.5033 -0.0882  0.1237
  351MOL0     O48324   3.696   3.333   3.953 -1.1537  0.4966 -0.3100
  351MOL0     C48325   3.787   3.431   3.932 -0.3386 -0.3071  1.2527
  351MOL0     C48326   3.826   3.517   4.039 -0.2249  0.7672  0.2325
  351MOL0     C48327   3.910   3.626   4.006  0.1695  0.5422  0.0727
  351MOL0     C48328   3.936   3.727   4.122 -0.0602 -0.2451  0.3215
  351MOL0     C48329   3.961   3.642   3.870 -0.4085 -0.3516  0.9634
  351MOL0     C48330   4.064   3.746   3.837 -0.1106 -0.3709  0.6818
  351MOL0     O48331   4.071   3.797   3.704  0.5307  0.1752 -0.2912
  351MOL0     C48332   4.181   3.868   3.669  0.2029  1.0867 -1.1101
  351MOL0     C48333   4.169   4.002   3.645  0.7287 -0.1175 -0.0343
  351MOL0     C48334   4.276   4.075   3.603  0.4981  0.4666 -0.0985
  351MOL0     C48335   4.402   4.009   3.583 -0.3561 -0.9401 -0.0366
  351MOL0     O48336   4.508   4.100   3.567 -0.3207 -0.2463 -0.8578
  351MOL0     C48337   4.620   4.054   3.486  0.7528  0.7892 -0.4279
  351MOL0     C48338   4.730   4.157   3.493 -0.9558  0.0441 -0.3028
  351MOL0     C48339   4.802   4.184   3.627 -0.0496 -0.5527  0.7396
  351MOL0     C48340   4.741   4.319   3.686  0.1133 -0.0950  0.2374
  351MOL0     C48341   4.762   4.299   3.833 -0.8598 -0.3114 -0.3447
  351MOL0     C48342   4.905   4.331   3.862 -0.8211 -0.1158 -0.6345
  351MOL0     C48343   4.934   4.277   4.007 -0.3121 -0.5390  0.6009
  351MOL0     C48344   5.070   4.323   4.057 -0.2203  1.1065 -0.3254
  351MOL0    Cl48345   5.203   4.275   3.960 -0.0652 -0.1945 -0.3008
  351MOL0     C48346   4.414   3.874   3.603 -0.2043 -0.3210 -0.3654
  351MOL0     C48347   4.297   3.806   3.648 -0.0013 -0.0665 -0.1366
  351MOL0     O48348   4.149   3.768   3.923  0.3304  0.1825  1.0517
  351MOL0     C48349   3.926   3.547   3.770 -0.8095  0.7331 -0.2785
  351MOL0     C48350   3.830   3.453   3.798  0.2236 -1.0033  0.1183
  351MOL0     N48351   3.311   2.816   3.778  0.0900 -0.2414  0.2208
  351MOL0     N48352   3.203   2.824   3.705 -0.2062 -0.8979  0.0873
  351MOL0     C48353   3.004   2.762   2.675  0.5456  0.4467  0.3117
  351MOL0     C48354   2.991   2.804   2.542 -0.7150 -0.5614  0.6399
  351MOL0     C48355   2.825   3.059   2.185 -0.0138  1.4729  0.4518
  351MOL0     C48356   2.705   3.014   2.110  0.1722 -0.5965  0.5324
  351MOL0     C48357   2.690   3.055   1.982 -0.0792 -0.0747 -0.5394
  351MOL0     C48358   2.796   3.135   1.919  0.4908  0.4120  0.6265
  351MOL0     O48359   2.771   3.191   1.794 -0.6366  0.3171  0.2390
  351MOL0     C48360   2.643   3.169   1.733  0.0308  0.5032  0.5520
  351MOL0     C48361   2.624   3.250   1.602 -0.1001  0.6676  0.9455
  351MOL0     C48362   2.497   3.212   1.518  0.3309  0.2013 -0.8396
  351MOL0     C48363   2.385   3.318   1.502  0.4920 -0.3702 -0.3388
  351MOL0     C48364   2.457   3.433   1.438 -0.2399 -0.7065 -1.3704
  351MOL0     C48365   2.514   3.520   1.380  0.1101  0.0042 -0.0974
  351MOL0     C48366   2.905   3.172   1.991 -0.4142  0.0472  0.1958
  351MOL0     C48367   2.921   3.141   2.122 -0.1600  0.1516 -0.1901
  351MOL0     C48368   3.047   3.177   2.189 -0.9249 -0.4245 -0.7505
  351MOL0     H48369   2.663   2.916   2.556  1.2521  2.1199  1.8739
  351MOL0     H48370   2.687   2.808   2.772 -0.2864  1.5144  0.3766
  351MOL0     H48371   3.064   2.591   2.890 -0.6773 -1.2229  0.5077
  351MOL0     H48372   2.974   2.632   3.036 -3.1468  1.7030 -0.8284
  351MOL0     H48373   3.217   2.713   2.971  1.4538  1.4649  1.4898
  351MOL0     H48374   3.139   2.851   2.906  2.3955  0.2969  0.8078
  351MOL0     H48375   3.013   2.886   3.123 -0.1443 -0.2217  0.0970
  351MOL0     H48376   3.090   2.751   3.196  0.4116 -0.4139 -0.8779
  351MOL0     H48377   3.307   2.860   3.201 -1.1288 -2.9332  0.1656
  351MOL0     H48378   3.259   2.974   3.080 -2.3288 -1.6364 -1.5543
  351MOL0     H48379   3.111   3.092   3.238  1.0620  0.7398  1.6809
  351MOL0     H48380   3.270   3.093   3.293 -2.5662  3.0471  2.3842
  351MOL0     H48381   3.082   2.887   3.398 -1.7638  1.7743  1.1734
  351MOL0     H48382   3.258   2.919   3.445 -0.0675  0.3095  2.6669
  351MOL0     H48383   3.024   3.133   3.474  0.3739  0.0271 -1.3448
  351MOL0     H48384   3.183   3.131   3.543  0.0567 -2.2702  0.6422
  351MOL0     H48385   2.982   3.056   3.697  1.0037  1.7308 -2.2700
  351MOL0     H48386   2.986   2.909   3.585  0.8336 -0.0022 -2.7442
  351MOL0     H48387   3.201   3.119   3.846  0.4580 -0.7463  1.8253
  351MOL0     H48388   3.498   2.872   3.932  0.0654 -0.2880  0.2005
  351MOL0     H48389   3.403   2.992   4.025  3.4971 -0.0341  1.0713
  351MOL0     H48390   3.549   3.065   3.762 -1.0371  2.2750 -0.4607
  351MOL0     H48391   3.478   3.176   3.886 -1.2906 -0.6862  1.0167
  351MOL0     H48392   3.627   3.090   4.055 -0.8337 -0.5261 -0.1833
  351MOL0     H48393   3.710   2.986   3.924  0.9920  2.1608 -2.4287
  351MOL0     H48394   3.848   3.184   3.957 -0.2614  0.5882 -0.2209
  351MOL0     H48395   3.764   3.194   3.810 -0.1731 -1.1889  0.2208
  351MOL0     H48396   3.798   3.486   4.139  1.1890 -1.1983  0.0769
  351MOL0     H48397   4.009   3.807   4.103 -0.5636 -0.4834 -3.3342
  351MOL0     H48398   3.953   3.666   4.211  3.6466  0.8767  0.5652
  351MOL0     H48399   3.847   3.789   4.135  1.3394  1.9168  0.0850
  351MOL0     H48400   4.081   4.052   3.684  0.5300  1.2714 -2.1170
  351MOL0     H48401   4.259   4.181   3.590  2.7904  1.0087  0.9293
  351MOL0     H48402   4.659   3.959   3.523 -1.6212 -0.0237  0.1310
  351MOL0     H48403   4.587   4.043   3.382 -0.1620  0.4039 -0.1087
  351MOL0     H48404   4.806   4.112   3.428  2.6810  0.5818  3.1678
  351MOL0     H48405   4.696   4.250   3.447  2.6692  1.7158  0.0413
  351MOL0     H48406   4.909   4.193   3.606 -0.4989  2.4793 -0.7251
  351MOL0     H48407   4.789   4.105   3.702 -1.4250 -0.8735  0.1936
  351MOL0     H48408   4.634   4.324   3.665  0.1100 -0.7873  0.0777
  351MOL0     H48409   4.793   4.408   3.650 -0.6350  0.5679  0.7545
  351MOL0     H48410   4.701   4.377   3.880  1.9336  2.5498 -1.1613
  351MOL0     H48411   4.739   4.203   3.881 -0.7862 -0.6373 -0.9499
  351MOL0     H48412   4.910   4.440   3.850  0.7333  0.0246  0.8927
  351MOL0     H48413   4.984   4.280   3.807  1.4201  1.2933  1.0834
  351MOL0     H48414   4.923   4.169   4.016 -0.8471 -0.3755  2.1922
  351MOL0     H48415   4.856   4.320   4.070 -1.8853  0.6942 -2.0335
  351MOL0     H48416   5.076   4.292   4.162 -4.7907  2.0073  0.4141
  351MOL0     H48417   5.075   4.432   4.068 -0.3633  1.4006 -2.7529
  351MOL0     H48418   4.511   3.824   3.608 -0.4633 -0.7672  0.3485
  351MOL0     H48419   4.312   3.701   3.673  1.3363 -0.0657 -0.8159
  351MOL0     H48420   3.972   3.577   3.677  1.0123  5.2536  1.7548
  351MOL0     H48421   3.789   3.383   3.726 -0.0428 -0.1328 -0.5923
  351MOL0     H48422   3.100   2.736   2.719  1.5684  2.3736 -0.6479
  351MOL0     H48423   3.074   2.789   2.473 -0.7382  2.2809 -0.1535
  351MOL0     H48424   2.621   2.956   2.148 -1.6585  1.1177 -0.6930
  351MOL0     H48425   2.603   3.027   1.923 -0.7973  1.2137 -0.1425
  351MOL0     H48426   2.641   3.063   1.705  0.2055  0.7123 -0.2733
  351MOL0     H48427   2.565   3.191   1.807 -0.7472 -1.9095  0.5705
  351MOL0     H48428   2.711   3.234   1.537 -0.0728  1.5340  0.7593
  351MOL0     H48429   2.634   3.356   1.626  1.1019  1.1416 -1.3956
  351MOL0     H48430   2.529   3.172   1.421 -3.2952  0.6095 -2.3894
  351MOL0     H48431   2.447   3.124   1.562 -2.9806  1.8287 -1.0446
  351MOL0     H48432   2.334   3.345   1.595  0.1277 -1.2642 -0.2727
  351MOL0     H48433   2.313   3.293   1.424  3.9447 -2.6711 -3.0863
  351MOL0     H48434   2.558   3.604   1.329  0.7007  0.2146  0.7439
  351MOL0     H48435   2.983   3.228   1.941  0.3324 -1.6152 -0.5701
  351MOL0     H48436   3.092   3.085   2.228  2.9855  1.9979  1.1319
  351MOL0     H48437   3.128   3.219   2.129 -0.3192 -0.3172  0.1170
  351MOL0     H48438   3.020   3.245   2.270  1.2017 -0.1876 -0.1700
  352MOL0     O48439   0.080   2.871   3.454 -0.4209 -0.2112 -0.2358
  352MOL0     C48440   0.004   2.779   3.427 -0.5105  0.4254 -0.0343
  352MOL0     O48441   0.008   2.697   3.316  0.4268  0.0677 -0.0393
  352MOL0     C48442   0.097   2.730   3.225  0.2985 -0.3730  0.4138
  352MOL0     C48443   0.186   2.636   3.174 -0.3264 -0.2242 -0.1998
  352MOL0     C48444   0.288   2.679   3.086 -0.7944 -0.0894 -0.2325
  352MOL0     C48445   0.297   2.808   3.025  0.3977  0.6931 -0.4965
  352MOL0     O48446   0.399   2.847   2.933 -0.0603 -0.2239 -1.1919
  352MOL0     C48447   0.366   2.943   2.837 -0.1484 -0.1388 -1.0676
  352MOL0     C48448   0.399   3.085   2.881 -0.0633 -0.6031  0.3325
  352MOL0     C48449   0.365   3.194   2.774  0.1508  1.0469  0.1137
  352MOL0     C48450   0.425   3.319   2.823  0.4689  0.0955  0.5513
  352MOL0     C48451   0.393   3.433   2.739 -0.1047  0.4528 -0.5283
  352MOL0     C48452   0.471   3.427   2.606  0.5704  0.2032 -0.5057
  352MOL0     C48453   0.447   3.553   2.522  0.5217 -0.4641 -0.1287
  352MOL0     C48454   0.550   3.569   2.421 -0.7164  0.2619 -0.0732
  352MOL0     N48455   0.562   3.457   2.339 -0.3896  0.1575  0.5836
  352MOL0     C48456   0.475   3.421   2.240  0.3844 -1.4609 -0.2105
  352MOL0     C48457   0.513   3.302   2.201 -0.3646  0.3102  0.2683
  352MOL0     C48458   0.448   3.211   2.097 -0.1940 -0.6002  0.0897
  352MOL0     C48459   0.409   3.083   2.159  0.0635  0.4174 -1.0437
  352MOL0     C48460   0.379   2.976   2.056 -0.5042  0.2089  0.0616
  352MOL0     C48461   0.499   2.898   1.981  0.8766  0.0369 -0.5982
  352MOL0     O48462   0.540   2.780   2.058  0.5509  0.0293  0.3739
  352MOL0     C48463   0.662   2.726   2.027 -0.2043 -0.7363 -0.6110
  352MOL0     C48464   0.688   2.614   2.101  0.4748 -0.0912 -0.7752
  352MOL0     C48465   0.798   2.530   2.103  0.4076 -0.8202  0.5462
  352MOL0     C48466   0.803   2.396   2.179 -0.0023 -0.1264 -0.7940
  352MOL0     C48467   0.898   2.573   2.008  0.1863 -0.1354 -1.0951
  352MOL0     C48468   1.009   2.482   1.984  0.4845  0.0273  1.0055
  352MOL0     O48469   1.126   2.528   2.019 -0.2347 -0.7953  0.5753
  352MOL0     C48470   1.220   2.425   2.046 -0.0929 -0.1428  0.1664
  352MOL0     C48471   1.223   2.344   2.156 -1.1507 -0.9909 -0.3380
  352MOL0     C48472   1.325   2.254   2.181  0.0832  0.0519 -0.0098
  352MOL0     C48473   1.436   2.241   2.096  0.9757  0.5103  1.0826
  352MOL0     O48474   1.540   2.161   2.130  0.3303  0.3139 -0.2135
  352MOL0     C48475   1.608   2.090   2.026 -0.3343  0.0671 -0.3557
  352MOL0     C48476   1.739   2.035   2.083  0.0016 -0.4823  0.4534
  352MOL0     C48477   1.722   1.907   2.171 -0.4401  0.3756  0.7886
  352MOL0     C48478   1.856   1.833   2.181 -0.4812 -0.3803  0.5119
  352MOL0     C48479   1.859   1.725   2.282  0.7667 -0.3259  0.1123
  352MOL0     C48480   1.990   1.658   2.288 -0.1231 -0.1970 -0.1117
  352MOL0     C48481   2.019   1.558   2.173 -0.8428  0.5707 -1.2998
  352MOL0     C48482   2.160   1.486   2.206  0.3655 -0.0651 -0.4751
  352MOL0    Cl48483   2.258   1.416   2.067  0.2131  0.4223 -0.3250
  352MOL0     C48484   1.433   2.323   1.978 -0.0348 -0.0064 -0.6921
  352MOL0     C48485   1.331   2.419   1.955 -0.0073  0.0189 -0.7060
  352MOL0     O48486   0.983   2.369   1.935 -0.4015  0.2225  0.5701
  352MOL0     C48487   0.871   2.682   1.922 -0.0756 -0.0921  0.6055
  352MOL0     C48488   0.759   2.767   1.933  0.6431  0.2174 -0.8847
  352MOL0     N48489   0.618   3.258   2.271  0.1701  0.0204  0.3222
  352MOL0     N48490   0.649   3.358   2.350  0.0478 -0.3513 -0.4436
  352MOL0     C48491   0.175   2.888   3.046  0.3397 -0.6827 -0.9482
  352MOL0     C48492   0.087   2.848   3.142 -1.1392 -0.3810 -0.5250
  352MOL0     C48493  -0.090   2.740   3.529 -0.4883  0.2282 -0.1860
  352MOL0     C48494  -0.113   2.604   3.539  0.3381 -1.3447 -0.4682
  352MOL0     C48495  -0.210   2.563   3.635 -0.2676 -0.5862 -0.9361
  352MOL0     C48496  -0.275   2.648   3.736  0.1228 -0.2357  0.5273
  352MOL0     O48497  -0.370   2.591   3.805  0.7180  0.8890  0.3181
  352MOL0     C48498  -0.449   2.658   3.908  0.4038 -0.0875  0.1818
  352MOL0     C48499  -0.596   2.595   3.925 -0.5964 -0.2670  0.4680
  352MOL0     C48500  -0.579   2.457   3.977  0.3192 -1.2853  0.2026
  352MOL0     C48501  -0.720   2.384   3.983 -0.6914  0.1481  0.4797
  352MOL0     C48502  -0.681   2.244   3.986  0.3648  0.4216 -0.3761
  352MOL0     C48503  -0.648   2.130   4.000 -0.5338  0.5258  0.2393
  352MOL0     C48504  -0.250   2.792   3.724 -0.0915  0.3561 -0.2307
  352MOL0     C48505  -0.156   2.835   3.620  0.0739  0.2355  0.8885
  352MOL0     C48506  -0.135   2.982   3.603 -0.6236 -0.6518  0.7747
  352MOL0     H48507   0.188   2.535   3.212  2.5921  0.0273  0.5826
  352MOL0     H48508   0.370   2.609   3.069 -0.4607  0.8942 -3.2651
  352MOL0     H48509   0.266   2.925   2.798 -0.0845 -4.3683  0.2265
  352MOL0     H48510   0.423   2.925   2.745 -1.0383  1.6123 -1.9975
  352MOL0     H48511   0.350   3.096   2.978 -2.0704 -0.1970 -0.6664
  352MOL0     H48512   0.507   3.091   2.897  0.5071  1.1910 -3.2384
  352MOL0     H48513   0.396   3.147   2.680 -3.6734 -0.3899 -0.6265
  352MOL0     H48514   0.256   3.190   2.774  0.1352 -2.9356  1.9685
  352MOL0     H48515   0.390   3.358   2.919 -1.5672  2.2328 -0.9381
  352MOL0     H48516   0.534   3.311   2.826  0.5578  0.9069 -0.1893
  352MOL0     H48517   0.417   3.526   2.791 -2.4336  1.6803 -1.4944
  352MOL0     H48518   0.286   3.434   2.717 -0.1022  0.9141 -0.5387
  352MOL0     H48519   0.577   3.418   2.631  0.8295  3.1959 -0.2096
  352MOL0     H48520   0.432   3.346   2.544  0.3446  2.2478 -3.2108
  352MOL0     H48521   0.459   3.640   2.587  5.1142 -2.4949  2.2118
  352MOL0     H48522   0.348   3.560   2.477  0.4024  0.0165  0.2009
  352MOL0     H48523   0.526   3.660   2.365 -1.7760  0.2907  0.4061
  352MOL0     H48524   0.647   3.586   2.470 -0.0319 -0.4880 -1.1204
  352MOL0     H48525   0.393   3.473   2.193  0.9893 -1.5287 -1.3660
  352MOL0     H48526   0.530   3.192   2.028 -1.9852 -2.9074 -1.5979
  352MOL0     H48527   0.370   3.257   2.036  0.5517 -2.0649 -2.0728
  352MOL0     H48528   0.496   3.045   2.213 -0.0867 -0.6984 -1.5410
  352MOL0     H48529   0.326   3.087   2.231  1.3132 -0.1819  0.4888
  352MOL0     H48530   0.323   2.896   2.106  1.3433 -1.4064 -0.2971
  352MOL0     H48531   0.308   3.014   1.982  0.3600  1.5096 -0.1362
  352MOL0     H48532   0.461   2.877   1.881  1.5427  2.2860 -1.3864
  352MOL0     H48533   0.578   2.971   1.960  1.4099 -0.3153  0.1097
  352MOL0     H48534   0.609   2.583   2.169  0.8254 -0.7904 -0.6699
  352MOL0     H48535   0.755   2.311   2.129 -1.3261  0.1589 -0.0837
  352MOL0     H48536   0.743   2.393   2.271  0.3720 -1.3219 -0.5663
  352MOL0     H48537   0.905   2.365   2.203 -0.1729 -1.7495 -2.0293
  352MOL0     H48538   1.138   2.360   2.222 -0.8305 -1.3116  0.1587
  352MOL0     H48539   1.325   2.199   2.274  0.3054 -3.1808 -1.7501
  352MOL0     H48540   1.536   2.022   1.980  0.6927 -0.1249 -1.7436
  352MOL0     H48541   1.650   2.160   1.953 -0.8720  3.0879  2.0203
  352MOL0     H48542   1.797   2.007   1.994  1.2803  1.1064  0.7373
  352MOL0     H48543   1.786   2.112   2.145 -2.2457  2.6726 -1.4401
  352MOL0     H48544   1.650   1.837   2.126  1.2796 -2.3501  2.0452
  352MOL0     H48545   1.675   1.911   2.269  3.9640 -1.6960  3.2845
  352MOL0     H48546   1.938   1.902   2.198 -0.4235  0.4372 -2.4877
  352MOL0     H48547   1.882   1.797   2.081  0.0294  1.5527 -0.0850
  352MOL0     H48548   1.834   1.769   2.379 -1.2839  1.4159 -1.1142
  352MOL0     H48549   1.783   1.650   2.255  2.4253 -2.4389  0.9579
  352MOL0     H48550   1.995   1.601   2.381  2.9211  1.3353  0.7679
  352MOL0     H48551   2.069   1.732   2.297  1.0465 -1.2959 -0.9386
  352MOL0     H48552   2.034   1.612   2.078  1.4532 -2.9474 -3.1614
  352MOL0     H48553   1.945   1.479   2.161  1.1663 -1.9736  1.4920
  352MOL0     H48554   2.143   1.410   2.283  1.3371 -0.1391 -0.3224
  352MOL0     H48555   2.218   1.567   2.250 -0.8813 -0.3432  1.7925
  352MOL0     H48556   1.522   2.316   1.916  1.1290 -3.0299  1.1425
  352MOL0     H48557   1.345   2.495   1.879  6.4919  1.2350  1.0644
  352MOL0     H48558   0.942   2.707   1.844 -2.4654 -1.3542 -2.1351
  352MOL0     H48559   0.740   2.854   1.871 -1.9358  1.4851  1.4926
  352MOL0     H48560   0.171   2.983   2.994 -0.5281 -0.4204 -0.4058
  352MOL0     H48561   0.002   2.911   3.168 -1.6164 -0.8266 -0.9842
  352MOL0     H48562  -0.056   2.522   3.497  1.0864 -0.5496 -1.0450
  352MOL0     H48563  -0.246   2.461   3.641  0.9089 -0.9720  0.0913
  352MOL0     H48564  -0.393   2.658   4.002 -1.7313  3.0347  1.6408
  352MOL0     H48565  -0.462   2.760   3.872 -1.1914 -0.3194  0.0450
  352MOL0     H48566  -0.639   2.608   3.826  0.0169 -1.1304  0.0700
  352MOL0     H48567  -0.658   2.653   3.994  0.1873  0.5149  0.5346
  352MOL0     H48568  -0.504   2.402   3.919  0.3851 -0.0467 -0.9280
  352MOL0     H48569  -0.549   2.471   4.081  2.8871  0.9166 -0.7306
  352MOL0     H48570  -0.780   2.410   3.895  0.6981  0.5992 -0.3566
  352MOL0     H48571  -0.774   2.423   4.070 -0.6658  0.8336  0.1949
  352MOL0     H48572  -0.612   2.032   4.021 -0.0082  1.1185  2.2823
  352MOL0     H48573  -0.303   2.868   3.780 -1.0944 -0.7406  0.3331
  352MOL0     H48574  -0.153   3.022   3.504  2.0651 -0.5984  0.2211
  352MOL0     H48575  -0.195   3.042   3.672 -0.7218  0.6310 -0.3956
  352MOL0     H48576  -0.027   2.995   3.616 -0.0007 -3.5220 -0.7032
  353MOL0     O48577   6.346   0.423   0.651  0.0489 -0.5514 -0.3793
  353MOL0     C48578   6.396   0.533   0.672  0.8126 -0.9010  0.3906
  353MOL0     O48579   6.360   0.651   0.607 -0.3001 -0.0397 -0.1774
  353MOL0     C48580   6.243   0.672   0.545 -0.3058 -0.5856  0.3881
  353MOL0     C48581   6.245   0.760   0.435  0.1448 -0.3566 -0.4469
  353MOL0     C48582   6.134   0.778   0.353  0.1417  0.7886 -0.2293
  353MOL0     C48583   6.009   0.716   0.383 -0.6176 -0.9870 -0.6853
  353MOL0     O48584   5.892   0.736   0.323  0.2700 -0.9388  0.0106
  353MOL0     C48585   5.892   0.810   0.201  0.9992 -0.2463  0.6262
  353MOL0     C48586   5.753   0.809   0.152 -0.0038 -0.8387 -0.3369
  353MOL0     C48587   5.685   0.946   0.171  0.2172 -1.3334  0.4213
  353MOL0     C48588   5.627   0.969   0.308 -0.2342  0.9345 -0.4746
  353MOL0     C48589   5.543   1.094   0.319  0.1555 -0.0458 -0.2315
  353MOL0     C48590   5.401   1.082   0.257  0.1261 -0.3459  0.1679
  353MOL0     C48591   5.300   0.994   0.329  0.2050 -0.4096  0.4663
  353MOL0     C48592   5.159   1.022   0.280 -0.1495 -0.2657 -0.1336
  353MOL0     N48593   5.099   1.139   0.345  0.2307  0.8320 -0.1556
  353MOL0     C48594   5.068   1.141   0.471 -0.1977  0.2023  0.5367
  353MOL0     C48595   5.018   1.269   0.491 -0.7317 -0.1043 -0.3838
  353MOL0     C48596   4.933   1.317   0.604  0.7101  0.0971 -0.0129
  353MOL0     C48597   4.790   1.321   0.542  0.4279  0.4059  0.6738
  353MOL0     C48598   4.690   1.319   0.649  0.3045 -0.6110 -1.4937
  353MOL0     C48599   4.538   1.349   0.602  0.6282  1.6297 -0.4196
  353MOL0     O48600   4.513   1.275   0.481 -0.1114 -0.6517  0.5440
  353MOL0     C48601   4.384   1.257   0.437 -0.8504 -0.4191 -0.5134
  353MOL0     C48602   4.364   1.200   0.318 -0.5405 -0.6556 -0.0136
  353MOL0     C48603   4.234   1.183   0.264  0.3520  0.8181  0.0832
  353MOL0     C48604   4.224   1.120   0.129 -0.1040 -0.1234  0.0469
  353MOL0     C48605   4.122   1.226   0.341 -0.1684  0.3145  0.5622
  353MOL0     C48606   3.981   1.221   0.305 -0.5123  0.1377  0.4307
  353MOL0     O48607   3.901   1.339   0.309 -0.0324  0.0321 -0.5931
  353MOL0     C48608   3.763   1.334   0.296  0.5658 -0.1883  0.6077
  353MOL0     C48609   3.682   1.422   0.372 -0.3997 -0.5653  0.5847
  353MOL0     C48610   3.543   1.416   0.354 -0.6404  0.8622 -0.1940
  353MOL0     C48611   3.483   1.333   0.255 -0.0718  0.6210  0.0263
  353MOL0     O48612   3.352   1.329   0.257  0.2370  0.7837  0.2285
  353MOL0     C48613   3.275   1.272   0.154  0.1972  0.3045 -0.2016
  353MOL0     C48614   3.135   1.244   0.201 -0.1088 -0.5701 -0.3256
  353MOL0     C48615   3.123   1.165   0.331 -0.0931 -0.2340 -0.8480
  353MOL0     C48616   2.975   1.170   0.372  0.4899  0.2382 -0.6269
  353MOL0     C48617   2.944   1.060   0.479 -0.5295  0.1840 -0.4667
  353MOL0     C48618   2.828   1.110   0.565  0.2644 -0.3266 -0.2929
  353MOL0     C48619   2.686   1.094   0.490  0.5409 -0.7509 -0.3745
  353MOL0     C48620   2.567   1.138   0.583 -0.1795  0.6410  1.2705
  353MOL0    Cl48621   2.555   1.309   0.588  0.5257 -0.4350 -0.3047
  353MOL0     C48622   3.559   1.250   0.177 -0.6497  0.8873 -0.1213
  353MOL0     C48623   3.701   1.257   0.195 -0.5541  0.8698  0.5432
  353MOL0     O48624   3.943   1.105   0.301  0.0151  0.8726  0.4315
  353MOL0     C48625   4.145   1.280   0.465  0.3924  0.6246 -0.3195
  353MOL0     C48626   4.270   1.306   0.508 -0.1412 -0.6187 -0.4708
  353MOL0     N48627   5.040   1.338   0.372 -0.4340 -0.0410 -0.2667
  353MOL0     N48628   5.099   1.260   0.286  0.3078 -0.3461 -0.0934
  353MOL0     C48629   6.008   0.626   0.486 -0.0496  0.1715  0.4247
  353MOL0     C48630   6.124   0.604   0.575  0.5755 -0.7412  0.8661
  353MOL0     C48631   6.497   0.541   0.780  0.1036  0.0924 -0.4573
  353MOL0     C48632   6.497   0.656   0.865 -1.2034 -1.3349  0.0641
  353MOL0     C48633   6.576   0.667   0.978 -0.5972 -0.9891 -0.1123
  353MOL0     C48634   6.673   0.568   0.996 -0.7856  0.6378  0.3853
  353MOL0     O48635   6.759   0.595   1.102  0.4395  0.7661  1.0033
  353MOL0     C48636   6.867   0.503   1.129 -0.0408  0.0007 -0.8357
  353MOL0     C48637   6.926   0.541   1.271  0.5867  0.3574 -1.0203
  353MOL0     C48638   7.005   0.665   1.268  0.0057  0.1400  0.1500
  353MOL0     C48639   7.080   0.700   1.391 -0.3030 -0.0493 -0.8225
  353MOL0     C48640   7.063   0.839   1.434  0.1272 -0.1210  1.4143
  353MOL0     C48641   7.045   0.956   1.458 -0.4699  0.0572  0.3484
  353MOL0     C48642   6.680   0.454   0.909 -0.1989 -1.2010  0.5516
  353MOL0     C48643   6.595   0.440   0.795 -0.8690 -0.2245 -1.1322
  353MOL0     C48644   6.619   0.316   0.707  0.1021  0.0700  0.2842
  353MOL0     H48645   6.336   0.818   0.423  0.2151 -0.0419  1.3237
  353MOL0     H48646   6.143   0.849   0.272  0.1888 -1.5484 -2.3806
  353MOL0     H48647   5.955   0.767   0.122  0.5364  0.5541 -0.1921
  353MOL0     H48648   5.928   0.912   0.216  0.5165  0.1801 -0.9521
  353MOL0     H48649   5.772   0.796   0.045 -0.8660  2.1801 -0.9497
  353MOL0     H48650   5.695   0.727   0.196  0.9859 -1.4973 -0.2260
  353MOL0     H48651   5.744   1.036   0.151 -0.6307 -1.1351 -1.3550
  353MOL0     H48652   5.604   0.949   0.097  0.7552  1.0726 -0.1615
  353MOL0     H48653   5.579   0.877   0.342  0.9746  0.4498 -0.0096
  353MOL0     H48654   5.706   0.981   0.383 -1.1313  0.7483  0.5226
  353MOL0     H48655   5.595   1.176   0.269  3.3019 -2.0258 -0.4869
  353MOL0     H48656   5.529   1.108   0.426 -0.0177 -3.1946  0.2621
  353MOL0     H48657   5.353   1.180   0.267  1.4430  0.3250  0.1745
  353MOL0     H48658   5.401   1.051   0.152  1.8595 -1.2734  0.4056
  353MOL0     H48659   5.293   0.999   0.438 -0.2876  0.9274  0.3976
  353MOL0     H48660   5.329   0.892   0.304  3.1729  0.9956 -2.8037
  353MOL0     H48661   5.165   1.047   0.174 -0.5040 -2.2964 -0.6610
  353MOL0     H48662   5.103   0.929   0.295 -1.2646  0.6768  1.9231
  353MOL0     H48663   5.086   1.060   0.541 -0.0212 -1.3829 -1.2695
  353MOL0     H48664   4.958   1.419   0.636  1.0903 -0.0954  0.3152
  353MOL0     H48665   4.946   1.244   0.685  1.9186  1.1179  0.7558
  353MOL0     H48666   4.774   1.409   0.478 -2.7866 -1.8412 -1.9143
  353MOL0     H48667   4.779   1.232   0.480  1.2569 -0.4104  1.6574
  353MOL0     H48668   4.704   1.227   0.706  2.0870 -1.2650 -2.8943
  353MOL0     H48669   4.702   1.404   0.717 -0.3642 -1.7284  0.0673
  353MOL0     H48670   4.469   1.302   0.673  1.3027  1.6089  0.2297
  353MOL0     H48671   4.520   1.456   0.588  3.8240  2.3714  0.3302
  353MOL0     H48672   4.456   1.184   0.262  0.1622 -0.3536  1.0264
  353MOL0     H48673   4.218   1.198   0.053 -1.2955  2.0369  2.1990
  353MOL0     H48674   4.131   1.063   0.127  0.3473 -0.8664 -1.4334
  353MOL0     H48675   4.304   1.050   0.103  0.9914  1.5208 -1.2010
  353MOL0     H48676   3.724   1.492   0.444  0.3106  0.8467 -1.1203
  353MOL0     H48677   3.483   1.471   0.426 -0.5477  0.5213  0.1476
  353MOL0     H48678   3.259   1.354   0.083  2.1012  0.7050 -0.2030
  353MOL0     H48679   3.314   1.181   0.108  1.2607 -0.2174  1.6342
  353MOL0     H48680   3.083   1.340   0.202  1.5211  0.4562  3.4630
  353MOL0     H48681   3.090   1.186   0.120 -2.5181  1.7588 -0.7917
  353MOL0     H48682   3.180   1.204   0.416 -0.2037  0.5648 -1.1301
  353MOL0     H48683   3.157   1.063   0.311  0.3726 -0.5683  1.4465
  353MOL0     H48684   2.911   1.161   0.284 -0.3873  2.7716 -0.3280
  353MOL0     H48685   2.962   1.264   0.427 -0.7106  0.6411 -1.5427
  353MOL0     H48686   2.928   0.958   0.442 -0.7684 -0.9672  2.5713
  353MOL0     H48687   3.035   1.050   0.538 -1.5669 -1.2147  0.9850
  353MOL0     H48688   2.840   1.213   0.598  1.0738 -0.9321  1.4001
  353MOL0     H48689   2.832   1.040   0.649 -1.7341 -3.6556 -2.6972
  353MOL0     H48690   2.671   0.992   0.455 -0.3056 -0.2360 -1.5616
  353MOL0     H48691   2.677   1.159   0.403 -1.4828 -1.0312 -0.4026
  353MOL0     H48692   2.573   1.103   0.687 -1.2875 -2.2875  0.4407
  353MOL0     H48693   2.469   1.099   0.555  1.1919 -2.0114 -0.2502
  353MOL0     H48694   3.516   1.177   0.108 -1.7037 -1.0708  2.4668
  353MOL0     H48695   3.771   1.187   0.150 -1.6144 -0.7981  1.3583
  353MOL0     H48696   4.067   1.327   0.525  0.5282  1.5489 -0.8358
  353MOL0     H48697   4.283   1.355   0.604  3.5294 -3.2536  0.5985
  353MOL0     H48698   5.923   0.560   0.505  0.3698 -0.8763 -1.1815
  353MOL0     H48699   6.105   0.524   0.645 -3.1274  1.4844  2.7745
  353MOL0     H48700   6.423   0.735   0.861  0.8528  0.6637 -1.0207
  353MOL0     H48701   6.569   0.755   1.041 -1.3922  0.0899 -1.6245
  353MOL0     H48702   6.840   0.398   1.145  1.8895 -0.3167  0.7501
  353MOL0     H48703   6.942   0.498   1.050  0.2496  2.1394 -0.7379
  353MOL0     H48704   6.982   0.450   1.297 -1.9911 -0.9176  0.4132
  353MOL0     H48705   6.851   0.559   1.348  2.6813  1.0223  0.9786
  353MOL0     H48706   7.064   0.665   1.176 -3.8575 -1.1915 -2.6272
  353MOL0     H48707   6.929   0.743   1.255 -1.1890 -1.3419 -2.5658
  353MOL0     H48708   7.186   0.684   1.369  0.3909  1.2465  1.2457
  353MOL0     H48709   7.043   0.634   1.470 -1.7208  2.3597  0.6672
  353MOL0     H48710   7.019   1.059   1.464 -0.6292  0.0431 -0.0563
  353MOL0     H48711   6.754   0.380   0.937  1.5923 -0.3523 -1.6255
  353MOL0     H48712   6.647   0.338   0.604 -1.2380 -1.3991 -0.4350
  353MOL0     H48713   6.694   0.256   0.759 -0.8219 -0.4391  1.0742
  353MOL0     H48714   6.522   0.265   0.710  1.2124 -2.1348  0.2662
  354MOL0     O48715   5.564   4.019   9.672 -0.5369  0.1796  0.6226
  354MOL0     C48716   5.467   3.999   9.731  0.6549 -0.6997 -0.4962
  354MOL0     O48717   5.447   4.046   9.857 -0.4205  0.1561 -0.3968
  354MOL0     C48718   5.557   4.108   9.914 -0.5376 -0.3208  0.2640
  354MOL0     C48719   5.661   4.041   9.982 -0.4415 -0.2030  0.0525
  354MOL0     C48720   5.744   4.120  10.064 -0.0558  0.2387 -0.4298
  354MOL0     C48721   5.728   4.256  10.085 -0.1095 -0.2345  0.2641
  354MOL0     O48722   5.810   4.329  10.167  0.6754  0.8542 -0.2530
  354MOL0     C48723   5.911   4.268  10.242  0.2880 -0.0672 -0.1129
  354MOL0     C48724   5.969   4.375  10.338  0.6557 -0.4115  0.9412
  354MOL0     C48725   6.114   4.334  10.374  0.2857 -0.2737  0.6217
  354MOL0     C48726   6.193   4.449  10.426 -0.2456 -0.3705  0.3279
  354MOL0     C48727   6.316   4.410  10.501  0.8403 -0.4290 -0.4097
  354MOL0     C48728   6.411   4.318  10.423 -0.1652  0.1302 -0.5812
  354MOL0     C48729   6.560   4.354  10.468 -0.8550  0.6176  0.7930
  354MOL0     C48730   6.618   4.293  10.593  0.2689 -0.0667 -0.5559
  354MOL0     N48731   6.556   4.349  10.722  0.6867  0.1127 -0.2750
  354MOL0     C48732   6.448   4.291  10.785  1.0929  0.6005  0.5819
  354MOL0     C48733   6.422   4.371  10.888  0.2887 -0.9542 -0.1254
  354MOL0     C48734   6.314   4.351  10.992  0.1481 -0.5797 -0.4273
  354MOL0     C48735   6.212   4.461  10.975 -0.3536  0.5538 -0.4724
  354MOL0     C48736   6.090   4.437  11.068 -0.1394 -0.0341 -0.1470
  354MOL0     C48737   5.988   4.340  11.020  0.0868  0.0917  0.2765
  354MOL0     O48738   5.917   4.393  10.919  0.7139 -0.8381  1.1768
  354MOL0     C48739   5.782   4.418  10.936  0.5081  0.8536 -0.6484
  354MOL0     C48740   5.724   4.538  10.913 -0.3024  0.4515 -0.0271
  354MOL0     C48741   5.592   4.555  10.915 -0.4208 -0.7581  0.1444
  354MOL0     C48742   5.544   4.696  10.890  0.4915 -0.0603 -0.0564
  354MOL0     C48743   5.500   4.453  10.937  0.7497  0.1785  0.0014
  354MOL0     C48744   5.353   4.463  10.937 -0.4335 -0.0296 -0.0355
  354MOL0     O48745   5.291   4.347  10.901  0.5548 -0.0491 -0.2466
  354MOL0     C48746   5.158   4.335  10.930  0.8343 -0.1821  0.8014
  354MOL0     C48747   5.112   4.279  11.051  0.4205  0.5860  0.3489
  354MOL0     C48748   4.982   4.258  11.092  0.2739 -0.3429 -0.2313
  354MOL0     C48749   4.879   4.292  11.005  0.2887 -0.0241  0.1126
  354MOL0     O48750   4.750   4.275  11.043 -0.2068 -0.1136  0.1074
  354MOL0     C48751   4.712   4.277  11.181  0.4193  0.1083 -0.4750
  354MOL0     C48752   4.569   4.330  11.191  0.4666 -0.2875 -0.2440
  354MOL0     C48753   4.564   4.474  11.134  1.1860 -0.4963 -0.1148
  354MOL0     C48754   4.423   4.512  11.140  0.5330  0.3267 -0.8234
  354MOL0     C48755   4.404   4.660  11.107 -0.0313  0.0625 -0.3243
  354MOL0     C48756   4.258   4.702  11.100  0.0145 -0.4439  0.8065
  354MOL0     C48757   4.243   4.843  11.038 -0.7827 -0.4214  0.0302
  354MOL0     C48758   4.127   4.912  11.090  0.1697 -0.3734 -0.4467
  354MOL0    Cl48759   4.120   5.087  11.036 -0.1473 -0.0319  0.3425
  354MOL0     C48760   4.914   4.343  10.877 -0.9554  1.3795 -0.0612
  354MOL0     C48761   5.047   4.362  10.840 -1.4223 -0.9690 -0.0053
  354MOL0     O48762   5.296   4.567  10.974 -0.5757 -0.1763  0.2953
  354MOL0     C48763   5.557   4.325  10.954  0.6523  0.3806  0.7904
  354MOL0     C48764   5.691   4.305  10.950  0.5095  0.2142 -0.0947
  354MOL0     N48765   6.509   4.476  10.895 -0.2480  0.6345  0.7165
  354MOL0     N48766   6.590   4.459  10.799 -0.4864  0.1362  0.2928
  354MOL0     C48767   5.627   4.318  10.022  0.0147 -0.0782  0.3941
  354MOL0     C48768   5.545   4.246   9.937 -0.1737  0.3955 -0.0605
  354MOL0     C48769   5.363   3.913   9.665 -0.3996  1.2693 -0.1161
  354MOL0     C48770   5.278   3.844   9.753 -0.3654 -0.3549 -1.0745
  354MOL0     C48771   5.169   3.769   9.707 -0.8350 -0.2768 -0.0315
  354MOL0     C48772   5.154   3.747   9.578  0.0508  0.5861  0.3267
  354MOL0     O48773   5.039   3.692   9.547  0.6279 -0.2612  0.5379
  354MOL0     C48774   5.040   3.593   9.444 -0.3827  0.0991 -0.8371
  354MOL0     C48775   5.050   3.455   9.498 -0.4599 -0.7789  0.0619
  354MOL0     C48776   4.923   3.426   9.582 -0.1194 -0.1283  0.5545
  354MOL0     C48777   4.912   3.276   9.592  0.1229  0.4821  0.1425
  354MOL0     C48778   5.001   3.234   9.698  0.8062 -0.0618  0.2285
  354MOL0     C48779   5.072   3.185   9.782 -0.3622 -0.1823 -0.1328
  354MOL0     C48780   5.251   3.798   9.491  1.2719 -0.1477 -0.3276
  354MOL0     C48781   5.357   3.880   9.535  0.5401 -0.8658 -0.5249
  354MOL0     C48782   5.440   3.940   9.425 -0.1022  0.2155  0.0687
  354MOL0     H48783   5.675   3.934   9.986 -1.8857 -0.3878  0.9438
  354MOL0     H48784   5.801   4.057  10.131 -0.5827 -0.1583 -0.3453
  354MOL0     H48785   5.982   4.232  10.166 -1.6558 -3.3444 -0.5419
  354MOL0     H48786   5.874   4.181  10.297  1.5560 -0.9762 -0.6387
  354MOL0     H48787   5.971   4.466  10.278 -0.0540 -0.9324  0.0910
  354MOL0     H48788   5.911   4.388  10.430 -2.1314  2.2930 -0.9748
  354MOL0     H48789   6.104   4.246  10.439 -2.1628 -1.9483 -1.7606
  354MOL0     H48790   6.163   4.307  10.279  1.7517  4.5906 -0.2698
  354MOL0     H48791   6.221   4.510  10.339  1.1623 -0.3845  0.7512
  354MOL0     H48792   6.139   4.512  10.496  1.3613 -0.6002  1.8406
  354MOL0     H48793   6.292   4.369  10.599  0.1236  0.9506  0.0130
  354MOL0     H48794   6.367   4.500  10.535  1.0211 -1.2366  1.5784
  354MOL0     H48795   6.393   4.213  10.447  0.4747  0.4325  1.3598
  354MOL0     H48796   6.414   4.334  10.315 -0.1582  1.5446 -0.3928
  354MOL0     H48797   6.575   4.462  10.477 -0.0555  0.5695  0.1311
  354MOL0     H48798   6.623   4.315  10.388 -0.6028  1.6502  0.4777
  354MOL0     H48799   6.603   4.185  10.588 -0.0028  0.0151 -1.7871
  354MOL0     H48800   6.723   4.319  10.579 -0.0550  2.5329  1.1732
  354MOL0     H48801   6.409   4.193  10.759  4.1812 -1.0484  1.5585
  354MOL0     H48802   6.365   4.378  11.084  1.3421  2.5641 -1.8830
  354MOL0     H48803   6.271   4.250  11.001 -3.0763  0.5625 -1.5049
  354MOL0     H48804   6.252   4.562  10.986 -1.0731  0.9884 -1.6978
  354MOL0     H48805   6.170   4.457  10.874 -0.1217 -3.8916 -0.5787
  354MOL0     H48806   6.126   4.415  11.169  0.2187  3.6711  0.6762
  354MOL0     H48807   6.040   4.534  11.075  2.4656  1.7056 -2.9071
  354MOL0     H48808   6.038   4.247  10.992 -0.3168 -0.7552  2.1733
  354MOL0     H48809   5.914   4.316  11.097 -1.4674  2.5734 -0.3100
  354MOL0     H48810   5.799   4.614  10.898  1.3394 -1.2842 -1.1698
  354MOL0     H48811   5.509   4.743  10.983  2.5393  1.9652 -0.2313
  354MOL0     H48812   5.470   4.695  10.810  0.0909  0.1808  0.3054
  354MOL0     H48813   5.615   4.765  10.843 -1.0307  3.5749  2.4618
  354MOL0     H48814   5.195   4.256  11.117  0.8137  1.5974  0.2245
  354MOL0     H48815   4.972   4.221  11.194  1.6237  0.1019  0.0732
  354MOL0     H48816   4.708   4.174  11.218  2.1449 -0.8213 -2.6122
  354MOL0     H48817   4.787   4.331  11.240  1.9152 -0.5760 -1.6607
  354MOL0     H48818   4.503   4.260  11.140  0.3523 -0.7866  0.5696
  354MOL0     H48819   4.553   4.332  11.299  3.5314 -0.3322  0.3059
  354MOL0     H48820   4.588   4.489  11.028 -0.5404  0.2920 -0.4235
  354MOL0     H48821   4.615   4.540  11.204 -0.3299  0.8044 -0.1846
  354MOL0     H48822   4.384   4.497  11.241  1.7705 -0.9834 -0.5058
  354MOL0     H48823   4.357   4.460  11.071 -1.2475  1.3514  0.0270
  354MOL0     H48824   4.473   4.716  11.171  1.4095  0.2813 -1.9995
  354MOL0     H48825   4.446   4.671  11.007 -2.4615 -2.9657 -1.8467
  354MOL0     H48826   4.215   4.705  11.200 -1.1375  0.9053  0.3087
  354MOL0     H48827   4.200   4.633  11.037 -1.9248  0.5829  1.4136
  354MOL0     H48828   4.235   4.835  10.929 -2.7766  0.2247  0.0814
  354MOL0     H48829   4.336   4.895  11.062  0.2473 -3.0649  2.3444
  354MOL0     H48830   4.142   4.924  11.198  2.3664  3.1294 -0.9735
  354MOL0     H48831   4.032   4.863  11.065 -1.7357  2.0617  1.4962
  354MOL0     H48832   4.825   4.347  10.814 -1.7209 -1.5734  0.6622
  354MOL0     H48833   5.069   4.399  10.741 -1.5398  0.7034  0.5589
  354MOL0     H48834   5.495   4.240  10.979  0.2940  0.4812  0.2661
  354MOL0     H48835   5.729   4.205  10.966  0.7810  0.6341  2.3420
  354MOL0     H48836   5.612   4.426  10.027  4.8624  0.7853  1.8240
  354MOL0     H48837   5.471   4.307   9.887  1.2778  1.5267 -0.8914
  354MOL0     H48838   5.280   3.858   9.861  0.7904 -0.8559 -1.0182
  354MOL0     H48839   5.098   3.726   9.776 -1.3819  0.3277 -0.2038
  354MOL0     H48840   4.949   3.605   9.383 -2.3098  0.6407  1.9675
  354MOL0     H48841   5.129   3.606   9.381 -1.4867 -0.5043 -2.6134
  354MOL0     H48842   5.140   3.441   9.558  0.1587 -3.6528 -1.3366
  354MOL0     H48843   5.054   3.393   9.408 -0.1903 -1.3221  0.4442
  354MOL0     H48844   4.918   3.471   9.681 -0.4540  1.3949 -0.1183
  354MOL0     H48845   4.831   3.462   9.534 -0.6917  0.4542  2.0364
  354MOL0     H48846   4.942   3.226   9.499 -0.7349  1.1772 -0.5311
  354MOL0     H48847   4.813   3.243   9.624  0.5255 -0.8949  0.0116
  354MOL0     H48848   5.146   3.154   9.852  1.0472 -2.5251 -2.5115
  354MOL0     H48849   5.255   3.774   9.385 -0.8656  0.4293 -0.5888
  354MOL0     H48850   5.511   3.866   9.387 -0.6230  0.4738 -1.4572
  354MOL0     H48851   5.378   3.970   9.341 -2.2757 -0.1890  1.4553
  354MOL0     H48852   5.482   4.039   9.445 -1.2556  0.5853  0.7719
  355MOL0     O48853   2.491   8.663   1.632 -0.4867 -0.1606 -0.0717
  355MOL0     C48854   2.435   8.558   1.603  0.0728  0.5151  0.1128
  355MOL0     O48855   2.481   8.472   1.509 -0.3679  0.2284 -0.7040
  355MOL0     C48856   2.603   8.485   1.445  0.8929  0.6484  0.5197
  355MOL0     C48857   2.661   8.363   1.399  0.0450 -0.3821  0.0035
  355MOL0     C48858   2.769   8.364   1.315 -0.7737 -1.1196 -0.4524
  355MOL0     C48859   2.813   8.487   1.259  0.0259 -0.4782 -0.4094
  355MOL0     O48860   2.917   8.494   1.172  0.2021  0.4863  0.8919
  355MOL0     C48861   3.052   8.471   1.229  0.8190  0.5906  0.1855
  355MOL0     C48862   3.164   8.507   1.124  0.4027 -0.1023 -1.1097
  355MOL0     C48863   3.181   8.424   0.994 -0.1545  0.0211  0.4160
  355MOL0     C48864   3.274   8.495   0.903 -0.3397  0.5093 -0.1683
  355MOL0     C48865   3.420   8.493   0.954  0.6968 -0.0284 -0.1805
  355MOL0     C48866   3.527   8.539   0.852 -0.0728 -0.6505  0.9065
  355MOL0     C48867   3.540   8.436   0.743  0.0206  0.8913 -0.2032
  355MOL0     C48868   3.670   8.460   0.659 -0.1189  0.3606 -0.2885
  355MOL0     N48869   3.657   8.564   0.549 -0.0645 -0.3197 -0.3338
  355MOL0     C48870   3.743   8.570   0.440  0.2111  1.1825 -0.2965
  355MOL0     C48871   3.722   8.694   0.396 -0.3433 -0.4706  0.2018
  355MOL0     C48872   3.789   8.749   0.278 -1.2679 -0.2384  0.7793
  355MOL0     C48873   3.759   8.661   0.155  0.5052  0.8833  0.5297
  355MOL0     C48874   3.816   8.714   0.021  0.7788 -0.0354 -0.0348
  355MOL0     C48875   3.933   8.644  -0.041  0.0742 -0.1281  0.2545
  355MOL0     O48876   4.032   8.631   0.056 -0.3609 -0.2197 -0.9219
  355MOL0     C48877   4.151   8.568   0.008 -0.7039 -0.8447 -0.0217
  355MOL0     C48878   4.191   8.534  -0.126  0.5895 -1.4164  0.0418
  355MOL0     C48879   4.314   8.481  -0.159 -0.3088 -0.0688  0.1698
  355MOL0     C48880   4.330   8.430  -0.302  0.3004 -0.0338  0.5873
  355MOL0     C48881   4.410   8.465  -0.052  1.2932 -0.2860  0.7850
  355MOL0     C48882   4.544   8.404  -0.067  0.6478  1.0226  0.5050
  355MOL0     O48883   4.588   8.396  -0.190 -0.0082 -0.6109  0.7460
  355MOL0     C48884   4.706   8.334  -0.230  0.0626  0.5333  0.6309
  355MOL0     C48885   4.786   8.392  -0.330  0.1437  0.1379 -0.5135
  355MOL0     C48886   4.907   8.338  -0.369 -0.1690  0.1575  0.0862
  355MOL0     C48887   4.951   8.217  -0.317  0.1894  0.8252  0.2003
  355MOL0     O48888   5.061   8.148  -0.355  0.1476 -0.3295  0.1641
  355MOL0     C48889   5.178   8.219  -0.338 -0.6624 -0.5501  0.7026
  355MOL0     C48890   5.293   8.172  -0.427 -1.2334 -0.0813  0.0456
  355MOL0     C48891   5.433   8.224  -0.386 -0.2799  0.4389 -0.3752
  355MOL0     C48892   5.550   8.167  -0.471  0.6322  0.1380 -0.1192
  355MOL0     C48893   5.685   8.222  -0.420  1.1029 -0.1028  0.4381
  355MOL0     C48894   5.707   8.381  -0.428  0.7162 -0.0271  0.8412
  355MOL0     C48895   5.824   8.407  -0.339  0.1349  0.5845 -0.3001
  355MOL0     C48896   5.895   8.539  -0.375  0.0581 -0.9991 -0.2845
  355MOL0    Cl48897   5.995   8.578  -0.234 -0.5540 -0.2884 -0.0029
  355MOL0     C48898   4.865   8.153  -0.228 -0.6729  0.7647 -0.4193
  355MOL0     C48899   4.751   8.209  -0.178  0.1771 -0.6639  0.4964
  355MOL0     O48900   4.603   8.354   0.034  1.0247  0.1158  0.1463
  355MOL0     C48901   4.369   8.495   0.073  0.5978 -0.7320  0.3775
  355MOL0     C48902   4.242   8.552   0.105  0.1817 -0.4519  0.4201
  355MOL0     N48903   3.618   8.752   0.463 -0.2398 -0.4496 -0.4947
  355MOL0     N48904   3.580   8.676   0.559 -0.4496 -0.2411  0.1975
  355MOL0     C48905   2.762   8.609   1.302 -0.4127 -0.8469 -1.0225
  355MOL0     C48906   2.659   8.611   1.399  1.0157  0.6216  0.3246
  355MOL0     C48907   2.301   8.529   1.657  0.0857 -0.0219 -0.1778
  355MOL0     C48908   2.217   8.451   1.576  0.1340  0.2151 -0.5502
  355MOL0     C48909   2.091   8.408   1.627 -0.0310  0.4562  0.2588
  355MOL0     C48910   2.052   8.448   1.759  0.3731 -0.2810  0.6234
  355MOL0     O48911   1.921   8.415   1.793 -0.0275 -0.1072  0.0880
  355MOL0     C48912   1.857   8.450   1.914  0.4214 -0.2666  0.1842
  355MOL0     C48913   1.812   8.601   1.908 -0.3655 -0.0126 -0.2024
  355MOL0     C48914   1.733   8.628   2.037  0.5579  0.4908  0.3103
  355MOL0     C48915   1.679   8.765   2.049  0.9325 -1.0767 -0.0596
  355MOL0     C48916   1.570   8.784   2.155 -0.4975 -0.1579 -0.0918
  355MOL0     C48917   1.479   8.805   2.235 -0.1413 -0.7401 -0.0822
  355MOL0     C48918   2.145   8.515   1.835  1.3493 -0.3575  0.5676
  355MOL0     C48919   2.272   8.548   1.798  0.1425 -0.7017 -0.2595
  355MOL0     C48920   2.372   8.608   1.888 -0.7744 -0.3540 -0.9444
  355MOL0     H48921   2.630   8.271   1.448  2.7861 -0.8343  1.0433
  355MOL0     H48922   2.823   8.284   1.267  1.6978 -0.1928  0.6154
  355MOL0     H48923   3.048   8.362   1.236 -0.1618  0.5663 -0.4451
  355MOL0     H48924   3.063   8.514   1.329 -0.4393 -0.3260  0.7427
  355MOL0     H48925   3.132   8.609   1.102 -4.1009 -1.1141 -0.1982
  355MOL0     H48926   3.259   8.505   1.179  0.3449 -0.9903 -1.0290
  355MOL0     H48927   3.217   8.325   1.023 -1.3355 -0.4353  0.4093
  355MOL0     H48928   3.085   8.414   0.943  1.1495 -1.8155 -1.8631
  355MOL0     H48929   3.277   8.439   0.809 -1.0451  1.1400 -0.5746
  355MOL0     H48930   3.241   8.598   0.888 -1.1624 -0.0382 -2.4433
  355MOL0     H48931   3.448   8.396   0.996 -1.4465  0.2402  2.1533
  355MOL0     H48932   3.417   8.560   1.041 -0.3135 -2.3312  1.6880
  355MOL0     H48933   3.498   8.635   0.809  1.4358 -0.0040  1.2831
  355MOL0     H48934   3.624   8.559   0.897  0.8773  0.1177 -1.3411
  355MOL0     H48935   3.456   8.447   0.673  0.2603 -0.4179 -0.7204
  355MOL0     H48936   3.542   8.337   0.788 -2.9637  0.2721 -1.1957
  355MOL0     H48937   3.745   8.498   0.728  1.4282 -0.1366 -1.6139
  355MOL0     H48938   3.704   8.367   0.611 -1.4445 -2.0184  2.9704
  355MOL0     H48939   3.824   8.500   0.421 -2.2639 -1.7496 -0.9017
  355MOL0     H48940   3.895   8.769   0.300 -2.1044  1.9408  3.5213
  355MOL0     H48941   3.749   8.848   0.255  1.3843  0.7482  0.0566
  355MOL0     H48942   3.792   8.558   0.173  3.2966  1.4517 -0.7956
  355MOL0     H48943   3.650   8.657   0.143  0.6033  0.1236 -0.1921
  355MOL0     H48944   3.734   8.724  -0.052  1.8543  2.8411 -0.9978
  355MOL0     H48945   3.838   8.819   0.044 -3.3400  1.3923 -1.5307
  355MOL0     H48946   3.896   8.545  -0.070 -0.7423 -0.2045  1.4753
  355MOL0     H48947   3.968   8.692  -0.133  0.0364 -1.1945 -0.3287
  355MOL0     H48948   4.122   8.548  -0.208  1.2737 -0.7138 -0.4375
  355MOL0     H48949   4.414   8.485  -0.347  0.3304 -1.0046 -0.5900
  355MOL0     H48950   4.257   8.456  -0.379  2.1702  2.3055 -0.5366
  355MOL0     H48951   4.344   8.322  -0.296  0.8562  0.0542  1.0128
  355MOL0     H48952   4.762   8.489  -0.374  1.0404 -1.1975 -4.3968
  355MOL0     H48953   4.969   8.387  -0.444  1.4929 -1.8971  0.0249
  355MOL0     H48954   5.163   8.328  -0.344  3.0974  0.0208 -3.3232
  355MOL0     H48955   5.199   8.210  -0.231 -0.8325 -1.4994  0.6646
  355MOL0     H48956   5.293   8.063  -0.415  2.2072 -0.0403  1.4908
  355MOL0     H48957   5.271   8.193  -0.532 -0.7791 -0.4466 -0.1272
  355MOL0     H48958   5.457   8.201  -0.282 -0.5197  0.0052 -0.4151
  355MOL0     H48959   5.424   8.332  -0.403 -2.1894  0.6177  1.4145
  355MOL0     H48960   5.541   8.192  -0.578  0.6682 -2.8474 -0.8963
  355MOL0     H48961   5.540   8.059  -0.472  5.6678 -0.5827 -0.2377
  355MOL0     H48962   5.704   8.198  -0.316  0.5393 -2.6135  0.0221
  355MOL0     H48963   5.750   8.155  -0.476  0.3103 -1.7781  1.4467
  355MOL0     H48964   5.616   8.432  -0.395  0.6070 -0.8573  1.8901
  355MOL0     H48965   5.716   8.418  -0.531  1.4294  1.3544  1.3735
  355MOL0     H48966   5.896   8.325  -0.329 -2.6776 -1.8145  1.8552
  355MOL0     H48967   5.775   8.424  -0.242  0.9628 -1.8939  0.6398
  355MOL0     H48968   5.819   8.618  -0.386  1.7220  0.4037 -2.7094
  355MOL0     H48969   5.949   8.532  -0.470  1.6647  5.4041 -0.2991
  355MOL0     H48970   4.904   8.055  -0.205 -1.7998  0.6105  0.9930
  355MOL0     H48971   4.690   8.155  -0.107  0.0174  0.4230  1.2111
  355MOL0     H48972   4.440   8.483   0.154  0.6607 -0.0142  0.4359
  355MOL0     H48973   4.221   8.592   0.204 -3.0021  0.8148 -0.6374
  355MOL0     H48974   2.806   8.702   1.270 -1.2219  0.3090  1.0030
  355MOL0     H48975   2.606   8.704   1.415 -0.3042  0.6481 -3.2801
  355MOL0     H48976   2.244   8.416   1.477  2.8021 -1.4410  0.6627
  355MOL0     H48977   2.031   8.351   1.558 -0.5029  0.5197  0.6064
  355MOL0     H48978   1.768   8.389   1.929 -0.3768  0.3075 -1.9791
  355MOL0     H48979   1.912   8.436   2.008  0.4229  1.4364  0.4797
  355MOL0     H48980   1.757   8.627   1.817 -1.9006 -0.5175  0.5500
  355MOL0     H48981   1.900   8.665   1.916 -0.7948  0.4868  0.6581
  355MOL0     H48982   1.650   8.558   2.040  0.5641 -0.0453 -4.4303
  355MOL0     H48983   1.796   8.597   2.121  0.0004 -1.1271  0.1615
  355MOL0     H48984   1.623   8.779   1.956 -0.2244 -1.7149  0.5018
  355MOL0     H48985   1.757   8.840   2.057 -0.3608  0.2414  0.6326
  355MOL0     H48986   1.395   8.817   2.301  1.9711 -1.8126  3.0293
  355MOL0     H48987   2.125   8.537   1.940  2.9591 -2.0878  1.2920
  355MOL0     H48988   2.444   8.530   1.914 -2.2426 -1.1563  0.9550
  355MOL0     H48989   2.425   8.699   1.859  1.2386 -0.3453  2.3179
  355MOL0     H48990   2.333   8.632   1.987 -0.4388  1.3571 -1.1904
  356MOL0     O48991   8.064   7.105   4.857 -0.8243  0.6884 -0.1708
  356MOL0     C48992   7.969   7.053   4.799  0.4546 -0.5494  0.0710
  356MOL0     O48993   7.893   7.111   4.708  0.5729  0.1499 -0.3778
  356MOL0     C48994   7.893   7.246   4.707  0.0352 -0.9581 -0.9649
  356MOL0     C48995   7.957   7.314   4.602 -0.1339  0.0699  0.1758
  356MOL0     C48996   7.950   7.452   4.587 -0.0677 -0.5928  0.0928
  356MOL0     C48997   7.914   7.535   4.701  0.6399 -0.0117 -0.0848
  356MOL0     O48998   7.916   7.676   4.700 -0.6052  0.3436 -0.3819
  356MOL0     C48999   7.887   7.743   4.580 -0.4280 -0.7240 -0.6424
  356MOL0     C49000   7.843   7.881   4.612  0.2021 -0.2364  1.3376
  356MOL0     C49001   7.958   7.975   4.657  0.0710  0.0804  0.1491
  356MOL0     C49002   7.903   8.099   4.732 -0.2121  0.8824 -0.3614
  356MOL0     C49003   8.029   8.179   4.776  0.2551  0.1156 -0.1556
  356MOL0     C49004   8.123   8.127   4.887  0.3342  0.0062  0.4259
  356MOL0     C49005   8.066   8.112   5.031 -0.7506  0.0431 -0.1224
  356MOL0     C49006   8.004   7.979   5.078  0.5341 -0.5273 -0.0256
  356MOL0     N49007   8.066   7.939   5.203  0.2113 -0.5142 -0.3427
  356MOL0     C49008   8.196   7.901   5.209  0.5790  0.0766 -0.7429
  356MOL0     C49009   8.209   7.882   5.342 -0.2046  0.4216  0.9268
  356MOL0     C49010   8.336   7.842   5.401  0.5744 -0.2294 -0.0026
  356MOL0     C49011   8.349   7.683   5.400  0.2199 -0.0632 -0.2458
  356MOL0     C49012   8.473   7.628   5.475  0.0945 -0.7886  0.2943
  356MOL0     C49013   8.496   7.705   5.606  0.5170 -0.1890 -0.1384
  356MOL0     O49014   8.381   7.701   5.690 -0.1358  0.5436  0.8396
  356MOL0     C49015   8.372   7.788   5.798  0.4786 -0.1596  0.6521
  356MOL0     C49016   8.479   7.831   5.882  0.7372 -0.0780  0.0243
  356MOL0     C49017   8.455   7.914   5.995  0.0843  0.0966  0.6277
  356MOL0     C49018   8.580   7.946   6.066 -0.1435 -0.1759 -0.9567
  356MOL0     C49019   8.320   7.951   6.032 -0.6935  0.9084  0.3049
  356MOL0     C49020   8.288   8.024   6.155 -0.0215  0.1175 -1.0507
  356MOL0     O49021   8.160   7.991   6.212  0.5220 -0.3279  0.1970
  356MOL0     C49022   8.126   8.027   6.340  0.9872 -0.5936  0.3456
  356MOL0     C49023   8.169   8.142   6.409  0.0404  0.4154 -0.2207
  356MOL0     C49024   8.116   8.174   6.531 -1.5519  0.4014  0.3051
  356MOL0     C49025   8.048   8.077   6.604  0.1277  0.0068  0.1391
  356MOL0     O49026   8.021   8.099   6.742  1.0155  0.9990  0.4261
  356MOL0     C49027   8.074   8.210   6.805 -0.1704 -0.2295  0.9494
  356MOL0     C49028   8.068   8.193   6.953  0.2039  0.3137 -0.2428
  356MOL0     C49029   8.158   8.079   7.008  0.0112  0.0614 -0.4002
  356MOL0     C49030   8.195   8.098   7.160 -0.6089 -0.5159 -0.1114
  356MOL0     C49031   8.092   8.033   7.254  0.6665 -0.3231 -0.7563
  356MOL0     C49032   8.070   7.886   7.272  0.5588  0.8199 -0.4167
  356MOL0     C49033   8.195   7.805   7.299  0.0370  0.1132  0.1361
  356MOL0     C49034   8.271   7.837   7.433  1.1784  0.0672 -0.6245
  356MOL0    Cl49035   8.154   7.862   7.564  0.4471 -0.0390  0.3630
  356MOL0     C49036   8.011   7.962   6.533  0.0737 -0.1929  0.2129
  356MOL0     C49037   8.035   7.935   6.403  0.0722  0.2789 -0.2135
  356MOL0     O49038   8.367   8.099   6.213 -0.2747 -0.7121  0.3777
  356MOL0     C49039   8.217   7.896   5.946  1.3769  0.3225  0.1999
  356MOL0     C49040   8.243   7.823   5.838  0.4414  0.0838  0.3246
  356MOL0     N49041   8.088   7.888   5.414 -0.1574  0.0897  0.3520
  356MOL0     N49042   8.004   7.907   5.319 -0.0009  0.4788  0.1943
  356MOL0     C49043   7.866   7.464   4.814 -0.7869 -0.5081  0.1516
  356MOL0     C49044   7.852   7.328   4.816  0.0132  1.2434 -0.0040
  356MOL0     C49045   7.935   6.904   4.825 -0.0738  0.4298  0.3257
  356MOL0     C49046   7.827   6.851   4.758 -0.3134  0.2237 -0.1302
  356MOL0     C49047   7.783   6.724   4.766 -0.8047  0.3617 -0.0277
  356MOL0     C49048   7.853   6.623   4.834  1.1187  0.0301 -0.3759
  356MOL0     O49049   7.816   6.490   4.844  0.0861 -0.4387  0.2942
  356MOL0     C49050   7.681   6.453   4.824  0.0108  0.1874 -0.5771
  356MOL0     C49051   7.654   6.412   4.684  0.3036  0.6588  0.0999
  356MOL0     C49052   7.769   6.323   4.643 -0.0571  0.1337  0.0437
  356MOL0     C49053   7.740   6.255   4.500  0.2689  0.5343  0.2942
  356MOL0     C49054   7.847   6.170   4.454  0.0351 -0.6768 -0.5101
  356MOL0     C49055   7.920   6.077   4.418  0.0945  0.5586 -0.7071
  356MOL0     C49056   7.974   6.672   4.895  0.7533 -0.6249 -0.4763
  356MOL0     C49057   8.019   6.809   4.890  0.1633 -0.3848 -0.2860
  356MOL0     C49058   8.159   6.833   4.947  0.2440  0.2917  0.4561
  356MOL0     H49059   7.996   7.248   4.525  2.3525 -2.0885  3.0521
  356MOL0     H49060   7.994   7.495   4.497  2.4656 -2.2029  0.4481
  356MOL0     H49061   7.795   7.699   4.540 -0.8205  0.3002 -0.8948
  356MOL0     H49062   7.965   7.739   4.503 -0.9672 -0.0943 -1.2328
  356MOL0     H49063   7.793   7.932   4.530 -2.2070 -2.0608  1.5652
  356MOL0     H49064   7.764   7.877   4.687  1.0706  3.0923  2.6003
  356MOL0     H49065   8.018   7.920   4.730 -2.8012 -1.3198  1.6332
  356MOL0     H49066   8.022   8.019   4.581  0.6202  2.8374  2.0305
  356MOL0     H49067   7.839   8.161   4.669  1.6549  0.5579 -2.7438
  356MOL0     H49068   7.856   8.052   4.818  0.6357 -1.6862 -1.1961
  356MOL0     H49069   7.985   8.268   4.823  1.4238  1.1674 -0.9873
  356MOL0     H49070   8.080   8.212   4.685 -1.5871  3.6376 -0.0934
  356MOL0     H49071   8.169   8.034   4.851  0.2552 -0.2507  0.9821
  356MOL0     H49072   8.203   8.201   4.900 -0.0871  0.0823  3.2281
  356MOL0     H49073   7.989   8.187   5.049  0.4060  1.1227  0.4923
  356MOL0     H49074   8.146   8.144   5.098  0.5998  0.8147 -1.9995
  356MOL0     H49075   7.896   7.996   5.084  0.0534 -2.9500 -0.5922
  356MOL0     H49076   8.026   7.905   5.000 -0.6105 -0.0293 -0.8613
  356MOL0     H49077   8.269   7.877   5.132 -0.6987 -1.4445 -1.5452
  356MOL0     H49078   8.328   7.884   5.501 -1.3827 -1.6800  0.5250
  356MOL0     H49079   8.418   7.887   5.345 -1.2448  2.0684 -1.0033
  356MOL0     H49080   8.258   7.647   5.449 -0.6800  1.0965 -0.9729
  356MOL0     H49081   8.368   7.657   5.295  2.3856 -0.9016  0.3130
  356MOL0     H49082   8.451   7.523   5.496 -2.0858 -0.8029 -1.6697
  356MOL0     H49083   8.564   7.641   5.416  0.3580 -1.2375  0.5887
  356MOL0     H49084   8.584   7.661   5.655  1.9959  2.3024 -0.3678
  356MOL0     H49085   8.524   7.809   5.586  1.2195 -0.4125 -0.3685
  356MOL0     H49086   8.575   7.807   5.837  1.1674  3.6967 -1.3731
  356MOL0     H49087   8.570   8.052   6.091  2.7268 -0.3669  1.6241
  356MOL0     H49088   8.676   7.934   6.014  0.8774 -1.6705  1.1268
  356MOL0     H49089   8.587   7.890   6.159 -0.8327  0.7957 -0.2981
  356MOL0     H49090   8.217   8.223   6.355 -0.0666  0.1089 -0.7890
  356MOL0     H49091   8.147   8.270   6.568 -0.8221  0.9470 -1.6011
  356MOL0     H49092   8.181   8.221   6.787 -0.1117  0.0482  1.4411
  356MOL0     H49093   8.017   8.300   6.778  0.8522  0.4235  0.9112
  356MOL0     H49094   8.105   8.286   6.997 -1.6397 -0.5024  3.4981
  356MOL0     H49095   7.963   8.186   6.986 -0.2274 -1.3446 -1.8195
  356MOL0     H49096   8.247   8.076   6.943 -1.5555 -2.5738 -2.6514
  356MOL0     H49097   8.120   7.978   6.995  1.1703 -0.6805  1.5500
  356MOL0     H49098   8.201   8.203   7.190 -1.9211  0.0989 -1.8576
  356MOL0     H49099   8.294   8.056   7.183 -1.2938 -2.1378 -0.0258
  356MOL0     H49100   8.123   8.060   7.356  0.3513 -0.3308 -0.6574
  356MOL0     H49101   7.996   8.083   7.238 -0.3595 -0.2647  3.9381
  356MOL0     H49102   8.016   7.844   7.187 -0.2589  1.0962 -0.0464
  356MOL0     H49103   8.014   7.872   7.365 -1.4448  0.4785 -1.6112
  356MOL0     H49104   8.266   7.818   7.218 -1.1765 -3.3583 -1.7148
  356MOL0     H49105   8.164   7.700   7.300  1.2300 -0.3215 -2.2424
  356MOL0     H49106   8.322   7.934   7.431 -0.5659  1.1699  2.4058
  356MOL0     H49107   8.334   7.757   7.471  0.7218 -0.6340 -1.3305
  356MOL0     H49108   7.963   7.878   6.582  0.2324 -0.1726  0.4031
  356MOL0     H49109   8.005   7.847   6.347  1.0484 -1.0530  1.2538
  356MOL0     H49110   8.111   7.913   5.957  1.1931 -0.6857  0.0402
  356MOL0     H49111   8.156   7.812   5.774  1.2894 -2.2472 -0.5515
  356MOL0     H49112   7.833   7.535   4.890 -0.3003  0.7698 -0.8036
  356MOL0     H49113   7.816   7.273   4.903 -2.3793  1.0647 -1.0168
  356MOL0     H49114   7.765   6.917   4.697  1.0247  3.8470  2.1424
  356MOL0     H49115   7.702   6.699   4.699  1.8042 -2.3343 -2.4644
  356MOL0     H49116   7.664   6.366   4.889 -0.5788  0.8200  0.1284
  356MOL0     H49117   7.616   6.533   4.860  1.4680 -0.0020  3.0011
  356MOL0     H49118   7.649   6.500   4.620  0.7928 -0.8284 -2.0949
  356MOL0     H49119   7.558   6.360   4.675 -0.1016  1.7648 -3.0020
  356MOL0     H49120   7.855   6.388   4.621 -0.7881  0.9422 -0.5059
  356MOL0     H49121   7.797   6.242   4.711 -2.0966 -2.5387 -2.0461
  356MOL0     H49122   7.727   6.335   4.427  1.5101  0.1898 -0.3348
  356MOL0     H49123   7.643   6.204   4.505  0.7894 -0.3810  2.1091
  356MOL0     H49124   7.985   5.995   4.397 -1.9857 -0.3323 -4.6239
  356MOL0     H49125   8.042   6.600   4.939  0.1416 -1.5527 -1.0111
  356MOL0     H49126   8.194   6.751   5.011  2.8046 -1.1458 -2.5273
  356MOL0     H49127   8.239   6.853   4.876  1.0828 -3.0042  0.2882
  356MOL0     H49128   8.145   6.918   5.014 -0.4465  0.5939 -0.0567
  357MOL0     O49129   4.942   5.123   8.793  0.2150  0.4647 -0.2493
  357MOL0     C49130   4.831   5.079   8.848  0.2341 -0.0107  0.4078
  357MOL0     O49131   4.711   5.138   8.826  0.0644 -0.3435 -0.3482
  357MOL0     C49132   4.696   5.233   8.726 -0.4769  0.6837  0.2012
  357MOL0     C49133   4.753   5.362   8.737 -0.0711  0.2110 -0.6747
  357MOL0     C49134   4.758   5.452   8.627  0.1029  0.1581 -0.6914
  357MOL0     C49135   4.686   5.421   8.510 -0.6034 -0.4365  0.6816
  357MOL0     O49136   4.694   5.506   8.397 -0.1631  0.3926 -0.9378
  357MOL0     C49137   4.597   5.494   8.300 -0.4700 -0.3658 -0.3830
  357MOL0     C49138   4.619   5.598   8.195  0.6420 -0.4758  0.7036
  357MOL0     C49139   4.641   5.740   8.259 -0.0954  0.4021  0.3905
  357MOL0     C49140   4.619   5.841   8.135 -1.2406  0.2002  0.2241
  357MOL0     C49141   4.674   5.987   8.147  0.0340  0.1672 -1.2169
  357MOL0     C49142   4.683   6.056   8.017  0.1446 -0.2869  0.0818
  357MOL0     C49143   4.718   6.206   8.028  0.4382 -0.3953  0.1312
  357MOL0     C49144   4.832   6.249   8.131 -0.1014 -0.2818  0.8712
  357MOL0     N49145   4.850   6.393   8.119 -0.0408 -0.4177 -0.4355
  357MOL0     C49146   4.758   6.491   8.086  0.2753  0.8576 -0.0415
  357MOL0     C49147   4.831   6.605   8.078  0.1753 -0.3794  0.2098
  357MOL0     C49148   4.772   6.744   8.061  0.0415  0.6075  0.0479
  357MOL0     C49149   4.861   6.858   8.120  0.5338 -0.8170  0.1385
  357MOL0     C49150   4.951   6.900   8.006  0.0305 -0.0480 -0.1713
  357MOL0     C49151   5.004   7.039   8.011  0.6395 -0.6035  0.9682
  357MOL0     O49152   5.097   7.053   8.116  0.2589  0.5192 -0.6134
  357MOL0     C49153   5.090   7.168   8.189  0.9423  0.4054  0.0304
  357MOL0     C49154   4.997   7.193   8.286 -0.0431 -0.3328  0.3216
  357MOL0     C49155   4.997   7.316   8.361  0.2322  0.2097 -0.1051
  357MOL0     C49156   4.893   7.333   8.469  0.2406 -0.7150 -0.3034
  357MOL0     C49157   5.101   7.406   8.341  0.4509 -0.8229 -0.0275
  357MOL0     C49158   5.125   7.529   8.427  0.3678 -0.1050 -0.0102
  357MOL0     O49159   5.190   7.636   8.356 -0.8250  0.8439 -0.2284
  357MOL0     C49160   5.251   7.724   8.441 -0.6637  0.9149 -0.3210
  357MOL0     C49161   5.393   7.723   8.448 -0.4313 -0.3621 -0.5740
  357MOL0     C49162   5.453   7.808   8.547  0.8556  0.3167 -0.2740
  357MOL0     C49163   5.365   7.892   8.626 -0.3135  0.0527 -0.1119
  357MOL0     O49164   5.416   7.971   8.719  1.0004  0.3146  0.0428
  357MOL0     C49165   5.474   8.094   8.674  0.4853  0.9144  1.2156
  357MOL0     C49166   5.541   8.176   8.784  0.2133  0.8315  0.0242
  357MOL0     C49167   5.444   8.216   8.899 -0.5028 -0.2516 -0.2855
  357MOL0     C49168   5.516   8.279   9.016  0.3468  0.5930 -1.6822
  357MOL0     C49169   5.415   8.359   9.101 -0.4654 -0.3230  0.2429
  357MOL0     C49170   5.337   8.274   9.207  0.0842  0.5985  0.3195
  357MOL0     C49171   5.262   8.362   9.307  0.0192  0.6056 -0.6286
  357MOL0     C49172   5.129   8.421   9.253 -0.6830 -0.5830 -0.0334
  357MOL0    Cl49173   5.045   8.502   9.389 -0.2266 -0.3429  0.1037
  357MOL0     C49174   5.230   7.895   8.604 -0.2821  0.2317  0.8041
  357MOL0     C49175   5.179   7.815   8.511 -0.0375 -0.1405  0.0184
  357MOL0     O49176   5.107   7.525   8.546  0.0559  0.0313  0.0989
  357MOL0     C49177   5.193   7.388   8.236 -0.4156 -0.0014 -0.4527
  357MOL0     C49178   5.192   7.268   8.168 -0.6013  0.6354 -0.2321
  357MOL0     N49179   4.967   6.582   8.098  0.8496  0.3618 -0.3223
  357MOL0     N49180   4.976   6.454   8.116 -0.0598 -0.1341  0.6914
  357MOL0     C49181   4.630   5.288   8.496  0.4368 -0.4955 -0.4704
  357MOL0     C49182   4.635   5.202   8.605  0.0081  0.5999  0.0379
  357MOL0     C49183   4.838   4.962   8.937 -0.5179  0.4096  0.0727
  357MOL0     C49184   4.959   4.936   9.003 -0.4263 -0.2360  0.9160
  357MOL0     C49185   4.981   4.827   9.086 -0.1403  0.5742 -0.7783
  357MOL0     C49186   4.881   4.736   9.114 -0.0753  0.7445 -0.5065
  357MOL0     O49187   4.899   4.633   9.204  0.0246  0.4753  0.2612
  357MOL0     C49188   5.027   4.601   9.263 -0.6846 -0.0909  0.4993
  357MOL0     C49189   5.026   4.478   9.358  0.0899 -0.2217  0.3406
  357MOL0     C49190   5.160   4.429   9.397 -0.7331  0.0265  0.0473
  357MOL0     C49191   5.170   4.280   9.419  0.0262 -0.5269 -0.0042
  357MOL0     C49192   5.135   4.237   9.553 -1.1560  0.0158  0.0127
  357MOL0     C49193   5.102   4.180   9.655  0.3854  0.2055  0.0897
  357MOL0     C49194   4.756   4.769   9.061  0.2268  0.2799 -0.3156
  357MOL0     C49195   4.727   4.878   8.973 -0.1049  0.5288  0.5652
  357MOL0     C49196   4.593   4.873   8.897  0.5243  0.6581  0.1620
  357MOL0     H49197   4.777   5.390   8.838 -2.5001 -1.2275  0.4052
  357MOL0     H49198   4.804   5.551   8.628  1.0961 -0.2692  1.8505
  357MOL0     H49199   4.501   5.506   8.351  0.3191 -0.5579  1.2389
  357MOL0     H49200   4.604   5.390   8.265 -1.0514 -0.0873 -1.3596
  357MOL0     H49201   4.691   5.572   8.117 -1.4263 -0.4666 -1.3298
  357MOL0     H49202   4.517   5.597   8.154  0.6570 -0.2451  0.6581
  357MOL0     H49203   4.567   5.761   8.336 -0.8070  0.9958 -0.4340
  357MOL0     H49204   4.738   5.747   8.308  1.7193  0.7510 -2.9537
  357MOL0     H49205   4.660   5.792   8.046 -2.5193 -1.4962  0.5266
  357MOL0     H49206   4.511   5.845   8.118 -0.9832  0.9138 -1.3980
  357MOL0     H49207   4.773   5.984   8.194 -0.1053  2.9608 -0.5933
  357MOL0     H49208   4.610   6.033   8.222  1.8450 -1.2123  1.3412
  357MOL0     H49209   4.770   6.015   7.965 -1.2084 -0.4812 -2.1213
  357MOL0     H49210   4.595   6.041   7.954  0.3056 -1.0393  0.0296
  357MOL0     H49211   4.627   6.256   8.062  0.8242  1.0114 -0.8370
  357MOL0     H49212   4.748   6.246   7.931 -1.2367  2.4363  0.6634
  357MOL0     H49213   4.823   6.223   8.237  0.1306 -0.8387  0.7558
  357MOL0     H49214   4.929   6.204   8.108 -0.1520  0.9926 -2.3561
  357MOL0     H49215   4.650   6.487   8.091  0.3735 -1.4666  1.8423
  357MOL0     H49216   4.679   6.732   8.117  0.4715  0.2847  0.7051
  357MOL0     H49217   4.747   6.756   7.955 -1.9398 -0.8507  0.2949
  357MOL0     H49218   4.793   6.936   8.153 -2.4559 -2.8576 -0.7561
  357MOL0     H49219   4.917   6.828   8.209  0.1886  2.7480  1.7241
  357MOL0     H49220   5.040   6.836   8.014  0.7396  1.1493  2.5683
  357MOL0     H49221   4.903   6.889   7.908  2.2854  4.2151 -2.0360
  357MOL0     H49222   5.064   7.075   7.926  2.4466  2.5005  3.3458
  357MOL0     H49223   4.919   7.106   8.026  0.9286  0.8561 -2.7229
  357MOL0     H49224   4.929   7.109   8.292 -1.3558  0.7842  2.8383
  357MOL0     H49225   4.833   7.423   8.454 -2.2621 -2.6871 -3.1942
  357MOL0     H49226   4.948   7.341   8.563 -2.0151  0.3904  1.0124
  357MOL0     H49227   4.826   7.248   8.486 -0.3605  0.0784  1.6404
  357MOL0     H49228   5.452   7.658   8.385 -1.9049 -1.5228 -0.8009
  357MOL0     H49229   5.561   7.811   8.559  1.0232  0.3003 -1.6294
  357MOL0     H49230   5.547   8.071   8.596  0.0415  0.4164  0.9394
  357MOL0     H49231   5.391   8.152   8.632  0.0509  0.1722  1.0376
  357MOL0     H49232   5.622   8.112   8.820  1.0198  2.6770  1.6337
  357MOL0     H49233   5.584   8.259   8.726 -2.9563  1.4587 -1.6242
  357MOL0     H49234   5.382   8.134   8.936 -0.7640  0.6698  1.4027
  357MOL0     H49235   5.375   8.290   8.858 -1.4029  0.2581  2.0496
  357MOL0     H49236   5.598   8.346   8.987  2.4402 -1.9348 -2.0188
  357MOL0     H49237   5.572   8.203   9.072  0.5543  1.5700 -0.5031
  357MOL0     H49238   5.472   8.430   9.161  1.3908  0.5378 -2.3754
  357MOL0     H49239   5.340   8.411   9.041 -0.7257 -0.7129  0.2209
  357MOL0     H49240   5.404   8.213   9.268 -0.0311 -2.1269 -2.0511
  357MOL0     H49241   5.268   8.206   9.156 -1.7846  3.3301 -1.0214
  357MOL0     H49242   5.327   8.441   9.346  0.7118 -0.3123  0.1440
  357MOL0     H49243   5.230   8.301   9.393 -2.0067  2.4323 -0.0029
  357MOL0     H49244   5.075   8.335   9.211 -0.9062  0.4147 -1.9142
  357MOL0     H49245   5.153   8.498   9.179 -1.9414  1.6230  1.7354
  357MOL0     H49246   5.173   7.965   8.664 -0.2592 -0.7861  2.0664
  357MOL0     H49247   5.072   7.804   8.494  0.6134 -4.5399 -2.8624
  357MOL0     H49248   5.271   7.460   8.213  0.7425 -1.1310 -0.2204
  357MOL0     H49249   5.270   7.248   8.095 -1.0593  0.6420 -0.7318
  357MOL0     H49250   4.560   5.264   8.417 -2.9070  1.4843  1.6313
  357MOL0     H49251   4.589   5.106   8.584 -2.6053  2.0685 -1.4873
  357MOL0     H49252   5.041   5.003   8.979 -0.3994 -0.0998  1.3795
  357MOL0     H49253   5.079   4.820   9.132  0.2924  1.7582 -1.4833
  357MOL0     H49254   5.103   4.594   9.184  1.0502 -0.4679  2.1045
  357MOL0     H49255   5.064   4.680   9.329 -1.2447 -0.5246  1.3559
  357MOL0     H49256   4.972   4.397   9.308  0.0571 -0.0319  0.0697
  357MOL0     H49257   4.966   4.489   9.449 -0.4843  0.1947 -0.0755
  357MOL0     H49258   5.228   4.443   9.313  0.1182 -0.4934  0.6263
  357MOL0     H49259   5.212   4.479   9.480 -0.6478  1.4991 -0.8586
  357MOL0     H49260   5.277   4.263   9.403  1.0991  4.0319  0.9027
  357MOL0     H49261   5.111   4.221   9.348  0.4239  1.3133 -1.9614
  357MOL0     H49262   5.064   4.135   9.745 -0.2359  2.7983  1.2377
  357MOL0     H49263   4.680   4.697   9.090 -0.9619  0.9380 -1.6734
  357MOL0     H49264   4.533   4.952   8.941 -1.8741 -0.5844 -0.7105
  357MOL0     H49265   4.615   4.891   8.792  2.8861 -1.1722  0.2376
  357MOL0     H49266   4.558   4.769   8.904  1.2340  0.3319 -0.8850
  358MOL0     O49267   4.986   4.472   7.800  1.1643 -0.3262  0.2112
  358MOL0     C49268   4.904   4.383   7.785 -0.3191  0.3729 -0.8909
  358MOL0     O49269   4.919   4.251   7.820 -0.5024  0.2184 -0.7808
  358MOL0     C49270   5.039   4.223   7.889  0.4906 -0.8147 -0.6969
  358MOL0     C49271   5.033   4.202   8.030  0.0632  0.1108  0.5262
  358MOL0     C49272   5.152   4.168   8.103 -0.4526 -0.1511 -0.5868
  358MOL0     C49273   5.279   4.160   8.037  0.5714 -0.4589  0.5383
  358MOL0     O49274   5.398   4.140   8.097 -0.1799 -0.2320  1.0529
  358MOL0     C49275   5.396   4.083   8.232 -0.3472 -0.1390 -0.0448
  358MOL0     C49276   5.524   4.037   8.275 -0.3707 -0.1633 -0.7376
  358MOL0     C49277   5.589   3.929   8.188 -0.1398  0.0493 -1.4617
  358MOL0     C49278   5.731   3.889   8.232  1.1212 -0.0841  1.0489
  358MOL0     C49279   5.847   3.986   8.193  0.1831 -0.4796 -0.3415
  358MOL0     C49280   5.982   3.927   8.228  0.3732 -0.5284  0.6333
  358MOL0     C49281   6.090   4.024   8.267  0.4493  0.3223 -0.1913
  358MOL0     C49282   6.046   4.126   8.384  0.3777 -0.5175  0.0338
  358MOL0     N49283   6.147   4.185   8.466 -0.3762 -0.5941  1.4564
  358MOL0     C49284   6.289   4.195   8.440 -0.1008 -0.4124  0.5135
  358MOL0     C49285   6.342   4.270   8.535  0.0746  1.5155  0.8263
  358MOL0     C49286   6.480   4.318   8.538  0.0722 -0.8358 -0.4615
  358MOL0     C49287   6.562   4.204   8.600 -0.0004 -0.7891  0.0465
  358MOL0     C49288   6.702   4.246   8.652 -0.4833  0.3128 -0.1936
  358MOL0     C49289   6.771   4.134   8.728 -0.2796 -0.0582  0.1781
  358MOL0     O49290   6.910   4.147   8.723 -0.0854  0.6277 -0.5562
  358MOL0     C49291   6.993   4.140   8.835 -0.0096  0.1369  0.5195
  358MOL0     C49292   7.128   4.149   8.802 -0.4087  0.1159 -0.1699
  358MOL0     C49293   7.219   4.162   8.902 -0.2830  0.5743 -0.3719
  358MOL0     C49294   7.359   4.202   8.866  0.1629  0.2540 -0.1670
  358MOL0     C49295   7.187   4.132   9.040  0.1373  0.2907  0.3533
  358MOL0     C49296   7.288   4.124   9.148  1.3355  0.2963  1.0636
  358MOL0     O49297   7.244   4.147   9.280  0.0199  0.1691  0.2030
  358MOL0     C49298   7.342   4.137   9.373 -0.1832  0.2385  0.1833
  358MOL0     C49299   7.317   4.062   9.491 -0.3799  0.0034  0.0036
  358MOL0     C49300   7.416   4.049   9.584  0.7224 -0.8132 -0.5349
  358MOL0     C49301   7.538   4.115   9.581 -0.5389 -0.7185 -0.2227
  358MOL0     O49302   7.629   4.102   9.686 -0.4456 -0.4597  0.7070
  358MOL0     C49303   7.703   4.216   9.717 -0.5902  0.5971  0.0302
  358MOL0     C49304   7.793   4.211   9.846 -0.1817  0.4795  0.3292
  358MOL0     C49305   7.779   4.339   9.926  0.2820 -0.3607  0.5731
  358MOL0     C49306   7.863   4.371  10.056  0.3462  0.4567  0.0003
  358MOL0     C49307   7.796   4.459  10.174  0.9075 -0.4511  0.2144
  358MOL0     C49308   7.749   4.356  10.287 -0.1411  0.3193 -0.2442
  358MOL0     C49309   7.664   4.422  10.391  0.4260  0.4290  1.2984
  358MOL0     C49310   7.612   4.339  10.515  0.6091  0.6747 -0.5065
  358MOL0    Cl49311   7.759   4.268  10.596 -0.2486 -0.3693 -0.0385
  358MOL0     C49312   7.560   4.191   9.474 -0.6394 -0.0347 -0.7196
  358MOL0     C49313   7.463   4.211   9.373 -0.0545 -0.1181 -1.4578
  358MOL0     O49314   7.401   4.090   9.118  0.5169 -0.2870  0.2205
  358MOL0     C49315   7.049   4.108   9.067 -0.9421  0.2066  0.2311
  358MOL0     C49316   6.957   4.111   8.965 -0.0931 -0.8431 -0.5017
  358MOL0     N49317   6.243   4.278   8.634 -0.0518  0.3870  0.1121
  358MOL0     N49318   6.125   4.237   8.597  0.2490 -0.1866  0.2242
  358MOL0     C49319   5.279   4.191   7.893 -0.2445 -0.2144 -0.5219
  358MOL0     C49320   5.168   4.214   7.822  0.1732 -0.4172 -0.1042
  358MOL0     C49321   4.767   4.419   7.737  0.7557 -0.9392  0.3603
  358MOL0     C49322   4.673   4.313   7.730 -0.1454  0.1338 -0.0321
  358MOL0     C49323   4.545   4.340   7.689 -1.2705  0.1751 -1.0080
  358MOL0     C49324   4.503   4.467   7.651  1.1383 -0.4905 -0.1214
  358MOL0     O49325   4.372   4.491   7.610  1.1234 -0.9225  0.1121
  358MOL0     C49326   4.310   4.621   7.643 -0.2797 -0.1988 -0.2847
  358MOL0     C49327   4.215   4.665   7.527 -0.6471 -0.3008 -0.6085
  358MOL0     C49328   4.091   4.589   7.534 -0.2923 -0.0398  0.1384
  358MOL0     C49329   3.989   4.665   7.632 -0.7536  0.3491  0.6722
  358MOL0     C49330   3.882   4.576   7.671 -0.6759 -0.3601  0.1233
  358MOL0     C49331   3.799   4.496   7.708  0.1354  0.3568  0.1358
  358MOL0     C49332   4.601   4.565   7.655 -0.5495 -0.0065  0.0218
  358MOL0     C49333   4.731   4.549   7.694 -0.7915 -0.6843  0.8511
  358MOL0     C49334   4.827   4.673   7.677 -0.4449  0.7937  0.4352
  358MOL0     H49335   4.936   4.210   8.077 -0.2884  1.2167 -0.3325
  358MOL0     H49336   5.135   4.126   8.201 -2.9613 -0.7398 -1.1941
  358MOL0     H49337   5.328   3.997   8.237  0.8453 -1.1985 -1.2010
  358MOL0     H49338   5.360   4.156   8.305 -1.8711 -0.2868 -0.5944
  358MOL0     H49339   5.584   4.128   8.275  3.8981 -2.6798  1.1821
  358MOL0     H49340   5.529   3.993   8.375 -2.2887 -0.3985 -0.7047
  358MOL0     H49341   5.526   3.839   8.191 -0.3227  0.2000  0.4784
  358MOL0     H49342   5.596   3.962   8.084  0.2647  2.2858 -0.7711
  358MOL0     H49343   5.721   3.869   8.339  0.1188  0.6462  1.1079
  358MOL0     H49344   5.755   3.792   8.188 -0.3112  0.6784 -1.6124
  358MOL0     H49345   5.838   4.082   8.244  2.1315 -0.7086  0.5565
  358MOL0     H49346   5.847   4.020   8.089  1.2731 -1.1633 -0.5881
  358MOL0     H49347   5.972   3.860   8.313  0.2504 -0.0476  1.0033
  358MOL0     H49348   6.003   3.875   8.134 -1.1784  0.4527 -0.3044
  358MOL0     H49349   6.122   4.083   8.181  1.3409  1.1951  0.7078
  358MOL0     H49350   6.165   3.950   8.299  1.3090 -0.3753 -3.4275
  358MOL0     H49351   5.983   4.209   8.353  0.2159 -0.5828  0.1864
  358MOL0     H49352   5.989   4.069   8.458 -1.1726 -0.4145 -1.0503
  358MOL0     H49353   6.337   4.153   8.352 -0.7883 -1.1241  0.4627
  358MOL0     H49354   6.485   4.407   8.602  2.0268 -0.7504 -0.6901
  358MOL0     H49355   6.520   4.340   8.439  1.4899 -2.3887 -0.2754
  358MOL0     H49356   6.514   4.160   8.688  1.5800 -0.0852  1.3130
  358MOL0     H49357   6.566   4.125   8.524  0.4721  0.7171 -1.5561
  358MOL0     H49358   6.762   4.281   8.567 -0.8875  2.3197  0.3056
  358MOL0     H49359   6.699   4.330   8.721  0.2507  1.8016 -1.8784
  358MOL0     H49360   6.739   4.133   8.833  3.1023  1.5036  1.3642
  358MOL0     H49361   6.746   4.038   8.683  0.5447 -0.1604 -0.0599
  358MOL0     H49362   7.172   4.160   8.704  1.2181  0.8953  0.6078
  358MOL0     H49363   7.359   4.258   8.772 -0.0696 -2.9449 -2.2319
  358MOL0     H49364   7.420   4.113   8.856  0.9121  1.0249 -4.9013
  358MOL0     H49365   7.398   4.267   8.945 -0.3022  0.6172 -0.2277
  358MOL0     H49366   7.221   4.013   9.506  0.7970 -1.4849  3.9758
  358MOL0     H49367   7.413   3.976   9.664  3.7482 -1.9262 -1.2989
  358MOL0     H49368   7.766   4.257   9.637 -0.4868 -0.6741 -0.5623
  358MOL0     H49369   7.628   4.295   9.727  0.7448  1.8955  0.1762
  358MOL0     H49370   7.762   4.131   9.914  1.0161 -1.0576 -0.8658
  358MOL0     H49371   7.898   4.187   9.827 -0.3140 -0.6054  0.9217
  358MOL0     H49372   7.676   4.363   9.955 -0.3861 -0.5346 -1.5172
  358MOL0     H49373   7.799   4.420   9.856 -2.4870 -0.6428 -0.6625
  358MOL0     H49374   7.939   4.434  10.009 -2.8566  1.4709 -4.4853
  358MOL0     H49375   7.902   4.281  10.104 -3.2621 -1.3670 -0.1505
  358MOL0     H49376   7.880   4.520  10.209  0.4384  1.0381 -1.1012
  358MOL0     H49377   7.712   4.516  10.134  1.3152  0.0762  0.1024
  358MOL0     H49378   7.840   4.308  10.324  0.7064  1.3966 -0.8591
  358MOL0     H49379   7.690   4.279  10.237  1.2753 -1.2445  0.3842
  358MOL0     H49380   7.572   4.461  10.348  0.8755 -0.5631 -0.6509
  358MOL0     H49381   7.714   4.514  10.423 -1.5507  2.2796 -0.6219
  358MOL0     H49382   7.554   4.256  10.475 -0.0128  1.5372 -1.4494
  358MOL0     H49383   7.552   4.405  10.578 -0.3775  0.4969 -1.2397
  358MOL0     H49384   7.658   4.234   9.459 -0.1457 -0.9972 -0.3192
  358MOL0     H49385   7.491   4.289   9.303  1.6803 -0.1594 -0.8498
  358MOL0     H49386   7.013   4.074   9.164  0.9827 -1.9039  0.2924
  358MOL0     H49387   6.859   4.072   8.990  1.2186 -2.5766  2.5997
  358MOL0     H49388   5.376   4.187   7.844 -0.4033  3.0247 -1.3356
  358MOL0     H49389   5.182   4.228   7.715 -0.9555 -0.2689 -0.2445
  358MOL0     H49390   4.712   4.213   7.747  2.2480  1.4445  3.3755
  358MOL0     H49391   4.475   4.257   7.690 -0.8096 -0.2226  0.5298
  358MOL0     H49392   4.258   4.606   7.737 -1.0154 -2.4348 -0.9783
  358MOL0     H49393   4.389   4.694   7.662  0.2836 -0.9101  0.1795
  358MOL0     H49394   4.263   4.632   7.434  1.5055  0.2486  0.2605
  358MOL0     H49395   4.191   4.772   7.525 -0.9085 -0.3428  0.0943
  358MOL0     H49396   4.043   4.595   7.436 -0.9496  0.5435  0.4795
  358MOL0     H49397   4.103   4.486   7.566 -0.2346  0.9889  3.9012
  358MOL0     H49398   3.934   4.743   7.579 -0.6350 -1.6177 -2.6552
  358MOL0     H49399   4.032   4.701   7.726  1.9442 -0.2334 -0.2237
  358MOL0     H49400   3.741   4.415   7.748 -0.0459 -0.3576 -1.4849
  358MOL0     H49401   4.574   4.660   7.610 -1.8636  0.4003  1.5793
  358MOL0     H49402   4.872   4.688   7.776 -1.1076  2.0709  0.5495
  358MOL0     H49403   4.903   4.658   7.600 -1.4227 -1.6492 -0.1486
  358MOL0     H49404   4.767   4.762   7.656  1.0839  2.3524  2.2942
  359MOL0     O49405   1.332   3.499   9.078 -0.3895 -0.0137  0.6505
  359MOL0     C49406   1.234   3.518   9.147 -0.1913  0.0114 -0.4967
  359MOL0     O49407   1.224   3.608   9.249  0.1369 -0.0994 -0.2411
  359MOL0     C49408   1.324   3.698   9.274 -0.1610  0.8963  0.6723
  359MOL0     C49409   1.327   3.819   9.195 -0.3334  0.4065 -0.2123
  359MOL0     C49410   1.441   3.909   9.211  1.0894  0.1960 -0.1432
  359MOL0     C49411   1.548   3.867   9.287 -0.7980  0.2640 -0.4698
  359MOL0     O49412   1.661   3.939   9.321 -0.4054 -0.4252 -0.2197
  359MOL0     C49413   1.640   4.084   9.307  0.1739  0.0926  0.0361
  359MOL0     C49414   1.730   4.134   9.417  0.6790  0.0907  0.5356
  359MOL0     C49415   1.876   4.095   9.386 -0.3550 -0.5209 -0.1553
  359MOL0     C49416   1.951   4.094   9.523 -0.2122  0.8091  0.1525
  359MOL0     C49417   1.908   3.978   9.612  0.6360 -0.6367 -0.6127
  359MOL0     C49418   1.908   4.018   9.770 -0.3340  0.1588 -0.4256
  359MOL0     C49419   1.920   3.898   9.862 -0.4587  0.3320 -0.0569
  359MOL0     C49420   1.963   3.924  10.008 -0.1972 -0.2630 -0.2833
  359MOL0     N49421   2.091   3.979  10.024  0.6155 -0.4313  0.2910
  359MOL0     C49422   2.126   4.112  10.016 -0.1483 -0.4361 -0.3222
  359MOL0     C49423   2.251   4.111  10.061  0.1823  0.3242 -0.4976
  359MOL0     C49424   2.358   4.227  10.067 -0.2344  0.3362  0.2896
  359MOL0     C49425   2.421   4.235  10.209  0.0281  0.4701  1.4498
  359MOL0     C49426   2.518   4.359  10.221 -1.1885  0.0840 -0.0724
  359MOL0     C49427   2.611   4.360  10.347  0.1020 -0.1597 -0.0318
  359MOL0     O49428   2.678   4.486  10.345 -0.6025  0.3094 -0.0886
  359MOL0     C49429   2.810   4.479  10.387 -0.6585 -0.4145  0.9495
  359MOL0     C49430   2.912   4.429  10.304 -0.1088 -0.0794 -0.2562
  359MOL0     C49431   3.048   4.430  10.342 -0.4122  0.8376  0.0944
  359MOL0     C49432   3.145   4.377  10.240 -0.4576 -0.1804 -0.3965
  359MOL0     C49433   3.088   4.473  10.465 -0.4784  0.5849  0.0318
  359MOL0     C49434   3.223   4.464  10.521 -0.8284 -0.8500  0.3912
  359MOL0     O49435   3.313   4.384  10.457  0.1843 -1.0464 -0.7727
  359MOL0     C49436   3.447   4.397  10.483  0.7617  0.1008 -0.4247
  359MOL0     C49437   3.509   4.369  10.605 -0.1049 -0.6791  0.3406
  359MOL0     C49438   3.642   4.378  10.619 -0.5931  0.3677  0.3664
  359MOL0     C49439   3.730   4.432  10.520 -0.4260 -0.6649  0.0648
  359MOL0     O49440   3.863   4.457  10.532 -0.5653  0.4442  0.9137
  359MOL0     C49441   3.908   4.484  10.666  0.4019  0.1185 -0.0145
  359MOL0     C49442   3.965   4.369  10.744 -0.3483 -0.4196 -0.5446
  359MOL0     C49443   4.082   4.296  10.669  0.1367  0.1878  0.4589
  359MOL0     C49444   4.218   4.383  10.676  0.3890 -0.0331  0.4419
  359MOL0     C49445   4.331   4.291  10.635  0.0273  0.0760 -0.0299
  359MOL0     C49446   4.467   4.369  10.662 -0.0860  0.4239 -0.0395
  359MOL0     C49447   4.595   4.300  10.605  0.0266 -0.3845 -0.2398
  359MOL0     C49448   4.627   4.174  10.688  0.2176  0.4519  1.3960
  359MOL0    Cl49449   4.789   4.121  10.651 -0.2186 -0.3657 -0.5561
  359MOL0     C49450   3.670   4.459  10.400 -0.3111 -0.0068  0.3356
  359MOL0     C49451   3.531   4.445  10.381 -0.8105 -1.1527 -0.0240
  359MOL0     O49452   3.247   4.548  10.608 -0.5879  0.8883 -0.1269
  359MOL0     C49453   2.986   4.519  10.552  0.0578 -0.1026  0.7026
  359MOL0     C49454   2.846   4.529  10.509 -0.8661 -0.0561 -0.9254
  359MOL0     N49455   2.286   3.983  10.101  0.0297 -0.2320  0.0842
  359MOL0     N49456   2.186   3.908  10.081 -0.1931 -0.2763  0.5799
  359MOL0     C49457   1.548   3.743   9.344 -0.6266 -0.1773  0.2211
  359MOL0     C49458   1.432   3.658   9.341 -0.8919 -0.2615  0.2846
  359MOL0     C49459   1.116   3.432   9.115  0.1121 -0.1386  0.0729
  359MOL0     C49460   0.995   3.488   9.085 -0.9761  0.4069 -0.4729
  359MOL0     C49461   0.886   3.409   9.049  0.3054  0.8165 -0.9743
  359MOL0     C49462   0.889   3.265   9.064  0.5357  0.2678  0.4870
  359MOL0     O49463   0.782   3.175   9.033 -0.4726 -0.2771  0.3129
  359MOL0     C49464   0.660   3.233   8.983  0.2507  0.5021 -0.0818
  359MOL0     C49465   0.552   3.128   8.982  1.2924 -0.2427  0.3156
  359MOL0     C49466   0.465   3.142   8.867 -0.1523  0.3876 -0.1750
  359MOL0     C49467   0.495   3.079   8.736 -0.2959 -0.5711 -0.0248
  359MOL0     C49468   0.602   3.140   8.645  0.0091  0.0416 -0.8630
  359MOL0     C49469   0.692   3.201   8.595 -0.0428  0.2242  0.5159
  359MOL0     C49470   1.014   3.213   9.091  0.7705 -0.0356 -0.1718
  359MOL0     C49471   1.125   3.293   9.112 -0.3647 -0.1441 -0.0653
  359MOL0     C49472   1.252   3.213   9.127  0.5419 -0.4948 -0.2388
  359MOL0     H49473   1.240   3.844   9.135 -1.1321 -1.3661  0.1596
  359MOL0     H49474   1.458   4.003   9.161  2.9285  0.9351  1.7214
  359MOL0     H49475   1.545   4.123   9.343  0.3626 -1.2079  2.1390
  359MOL0     H49476   1.651   4.123   9.205 -2.3263 -1.5832 -0.9679
  359MOL0     H49477   1.731   4.243   9.431  1.3342 -0.1487  2.5972
  359MOL0     H49478   1.689   4.086   9.506 -2.6150  2.0163  0.2172
  359MOL0     H49479   1.884   4.000   9.332  0.8981  0.6232 -2.1006
  359MOL0     H49480   1.911   4.177   9.322  3.5709 -2.9766 -1.4838
  359MOL0     H49481   2.058   4.079   9.502 -0.4562 -1.7122  0.4898
  359MOL0     H49482   1.953   4.188   9.579  0.7389  0.3741  0.8786
  359MOL0     H49483   1.959   3.884   9.588 -1.4191 -1.5071 -1.8851
  359MOL0     H49484   1.804   3.946   9.596  0.6117 -1.8303  1.5376
  359MOL0     H49485   1.992   4.089   9.772  2.9568 -3.2773 -2.5504
  359MOL0     H49486   1.821   4.081   9.792  0.5915  1.6315 -0.8341
  359MOL0     H49487   2.003   3.840   9.819 -1.1678  1.8891 -4.0316
  359MOL0     H49488   1.828   3.838   9.859 -0.5256  0.2395  2.2970
  359MOL0     H49489   1.887   3.992  10.049  1.6926  1.2575  0.8733
  359MOL0     H49490   1.949   3.832  10.066 -2.4467 -1.2173 -2.1639
  359MOL0     H49491   2.053   4.181   9.975 -2.4683 -2.1837  0.5646
  359MOL0     H49492   2.314   4.323  10.038  1.2715  0.8583 -0.3312
  359MOL0     H49493   2.438   4.205   9.996  2.0855  0.0803  2.7979
  359MOL0     H49494   2.345   4.261  10.283 -1.4271  1.0112 -0.1668
  359MOL0     H49495   2.471   4.141  10.235  2.8681  1.1879 -0.8480
  359MOL0     H49496   2.576   4.365  10.128 -1.8653  1.5472 -0.4232
  359MOL0     H49497   2.446   4.440  10.228 -0.2752  1.0323 -1.2513
  359MOL0     H49498   2.553   4.343  10.438  1.8258  0.4097  1.2312
  359MOL0     H49499   2.677   4.276  10.326  0.7655  0.3930 -0.2090
  359MOL0     H49500   2.887   4.378  10.211 -0.9864  2.6109 -1.5878
  359MOL0     H49501   3.092   4.369  10.145 -2.0252  0.1209  0.4293
  359MOL0     H49502   3.183   4.278  10.269  1.2629  0.6077  0.1588
  359MOL0     H49503   3.229   4.446  10.227 -1.4796  0.8523 -1.8981
  359MOL0     H49504   3.442   4.353  10.689  0.8617  1.6772  1.6482
  359MOL0     H49505   3.660   4.343  10.720 -4.8189 -0.0809  1.1290
  359MOL0     H49506   3.983   4.562  10.652  1.5568 -1.0221 -0.3161
  359MOL0     H49507   3.826   4.522  10.728  0.4353  0.1348  0.0203
  359MOL0     H49508   4.009   4.410  10.835  0.0985 -0.2806 -0.8242
  359MOL0     H49509   3.883   4.303  10.774  0.4756 -0.2175  2.4917
  359MOL0     H49510   4.049   4.263  10.570  2.5383 -1.7540  0.2074
  359MOL0     H49511   4.100   4.202  10.722 -0.5672  0.7188  1.6908
  359MOL0     H49512   4.238   4.415  10.778 -0.1876  0.9481  0.2612
  359MOL0     H49513   4.212   4.468  10.608 -1.6775  0.8919  1.6965
  359MOL0     H49514   4.341   4.214  10.712  2.6973  0.9926  0.6486
  359MOL0     H49515   4.324   4.251  10.533 -0.2610  1.7102 -0.6819
  359MOL0     H49516   4.474   4.410  10.763 -1.6693 -1.0338  0.7252
  359MOL0     H49517   4.455   4.455  10.596 -2.5765  0.9494  0.9902
  359MOL0     H49518   4.682   4.366  10.612  0.3488 -0.8840  0.6261
  359MOL0     H49519   4.586   4.283  10.497 -2.5562 -0.2095 -0.0984
  359MOL0     H49520   4.557   4.096  10.659 -1.5978  3.1487 -2.1789
  359MOL0     H49521   4.626   4.204  10.793 -0.1674 -0.7257  1.7469
  359MOL0     H49522   3.734   4.495  10.321 -1.5168  1.3443 -0.0810
  359MOL0     H49523   3.489   4.480  10.288  0.1709 -1.4432 -0.5867
  359MOL0     H49524   2.997   4.548  10.656 -1.5273  3.2267  0.0602
  359MOL0     H49525   2.776   4.578  10.576  3.8968  3.4038  2.1992
  359MOL0     H49526   1.624   3.686   9.396 -0.5199  1.3552  1.8673
  359MOL0     H49527   1.444   3.558   9.382 -1.6489  0.9931  3.9285
  359MOL0     H49528   0.988   3.596   9.075 -0.4213  0.6953  1.6746
  359MOL0     H49529   0.798   3.462   9.016  0.2068 -0.7064 -3.4133
  359MOL0     H49530   0.628   3.312   9.051  3.3277  1.3692  0.5329
  359MOL0     H49531   0.679   3.264   8.879 -0.1993 -2.5148 -1.1663
  359MOL0     H49532   0.494   3.145   9.074  3.5711  2.5860  1.3700
  359MOL0     H49533   0.601   3.031   8.975 -0.2060 -0.9266 -2.0142
  359MOL0     H49534   0.374   3.092   8.900 -1.0968  2.4658  0.5372
  359MOL0     H49535   0.439   3.248   8.857  0.2851  0.3979 -1.3470
  359MOL0     H49536   0.398   3.074   8.686  0.2191 -2.4931 -0.9413
  359MOL0     H49537   0.533   2.979   8.758  0.7223  0.1488  1.7202
  359MOL0     H49538   0.775   3.251   8.550  0.1903  0.5398  1.2725
  359MOL0     H49539   0.996   3.106   9.106 -1.1078  0.3302  0.4987
  359MOL0     H49540   1.304   3.211   9.031 -1.6081 -0.7543 -1.4685
  359MOL0     H49541   1.314   3.257   9.206 -1.8063  2.8106 -0.0035
  359MOL0     H49542   1.228   3.115   9.170 -0.8436 -0.0676  0.0157
  360MOL0     O49543   7.312  10.390   0.591  0.7027 -0.2151 -0.6562
  360MOL0     C49544   7.392  10.328   0.527  0.5266  0.4493  0.0616
  360MOL0     O49545   7.535  10.346   0.529  0.3774 -0.6119  0.7734
  360MOL0     C49546   7.586  10.417   0.633  0.1403  0.2071 -0.3598
  360MOL0     C49547   7.692  10.506   0.608 -0.2757  0.5149  0.4142
  360MOL0     C49548   7.755  10.581   0.709 -0.4739  0.5625  0.9075
  360MOL0     C49549   7.715  10.560   0.844 -0.5146 -0.2130 -0.3798
  360MOL0     O49550   7.768  10.626   0.952 -0.3435 -0.4633 -0.2622
  360MOL0     C49551   7.911  10.650   0.937 -0.4548  0.1715 -0.2473
  360MOL0     C49552   7.979  10.647   1.078 -0.0086 -0.9845  0.2191
  360MOL0     C49553   7.935  10.526   1.170  0.8889 -0.1327  0.6342
  360MOL0     C49554   7.998  10.528   1.308  0.0685  0.2372 -0.0005
  360MOL0     C49555   7.930  10.414   1.396 -0.9334 -0.4573  0.4709
  360MOL0     C49556   7.783  10.448   1.424  0.3835  0.2012  0.4898
  360MOL0     C49557   7.739  10.378   1.557  0.2511 -1.0488 -1.0946
  360MOL0     C49558   7.588  10.373   1.568 -0.2954  0.5019 -0.2989
  360MOL0     N49559   7.550  10.507   1.605  0.2214  0.0768  1.1048
  360MOL0     C49560   7.563  10.568   1.726  0.2002  0.8562 -0.0501
  360MOL0     C49561   7.522  10.687   1.708 -0.0167 -0.6422  0.3297
  360MOL0     C49562   7.538  10.802   1.799  0.5398  0.0651  0.2029
  360MOL0     C49563   7.437  10.802   1.905 -0.1299  0.2276  0.3049
  360MOL0     C49564   7.432  10.917   2.010 -0.7840 -1.0255  0.3945
  360MOL0     C49565   7.325  10.890   2.111 -0.1209 -0.1673  0.3820
  360MOL0     O49566   7.368  10.774   2.173  0.5852  0.7288  0.0057
  360MOL0     C49567   7.286  10.710   2.272 -0.5326 -0.0866  0.2248
  360MOL0     C49568   7.169  10.758   2.320 -0.5158 -1.2012  0.7830
  360MOL0     C49569   7.101  10.682   2.423 -0.1631 -0.8251  0.6449
  360MOL0     C49570   6.974  10.730   2.485  0.0312  0.1392 -0.5509
  360MOL0     C49571   7.159  10.562   2.480  0.3538 -0.8307 -0.5524
  360MOL0     C49572   7.104  10.486   2.596  0.1361 -0.1920 -0.3296
  360MOL0     O49573   7.155  10.361   2.607 -0.4528  0.3328 -0.3846
  360MOL0     C49574   7.103  10.283   2.708 -0.4289 -1.0101  0.0384
  360MOL0     C49575   7.183  10.279   2.831 -0.0970 -1.1090  0.1643
  360MOL0     C49576   7.139  10.198   2.938 -0.2578 -1.0154  0.4980
  360MOL0     C49577   7.004  10.137   2.927 -0.6363 -1.1713  0.2756
  360MOL0     O49578   6.975  10.048   3.033 -0.2368 -0.0649 -0.2608
  360MOL0     C49579   6.848   9.977   3.023  0.0526 -0.4996 -0.8324
  360MOL0     C49580   6.829   9.892   3.152  0.5649  0.4959 -0.9598
  360MOL0     C49581   6.747   9.770   3.140 -0.4310 -0.1622  0.1710
  360MOL0     C49582   6.596   9.796   3.151 -0.6057  0.3111  0.3013
  360MOL0     C49583   6.516   9.674   3.118  0.8060  1.0142  0.3623
  360MOL0     C49584   6.534   9.551   3.218  0.3700  0.2401  0.6581
  360MOL0     C49585   6.495   9.582   3.365  0.7919  0.2290  0.0218
  360MOL0     C49586   6.351   9.629   3.392 -0.4046 -0.0819 -0.2099
  360MOL0    Cl49587   6.232   9.514   3.326  0.3076  0.3659 -0.3891
  360MOL0     C49588   6.934  10.145   2.801  0.3814 -0.1049 -0.2090
  360MOL0     C49589   6.984  10.214   2.693  0.8674  0.2555 -0.0889
  360MOL0     O49590   7.023  10.539   2.672 -0.0474 -0.5418  0.4426
  360MOL0     C49591   7.281  10.519   2.415  0.5108  0.4156 -0.1354
  360MOL0     C49592   7.331  10.591   2.311 -0.0347  0.2934  0.1040
  360MOL0     N49593   7.484  10.704   1.579 -0.0955 -0.1600 -0.4463
  360MOL0     N49594   7.488  10.585   1.516 -0.3221 -0.4972  0.4244
  360MOL0     C49595   7.607  10.469   0.873  0.4943 -0.4331  0.5971
  360MOL0     C49596   7.545  10.392   0.769 -0.9992 -0.8467 -0.1816
  360MOL0     C49597   7.331  10.219   0.452  0.3459 -0.0206  0.1877
  360MOL0     C49598   7.204  10.174   0.493  0.5233 -0.4261 -0.5286
  360MOL0     C49599   7.140  10.074   0.431 -0.0428 -0.0046  0.5830
  360MOL0     C49600   7.191  10.010   0.322 -0.7421  0.0158  0.5382
  360MOL0     O49601   7.132   9.916   0.245 -0.6127  0.5633  0.2320
  360MOL0     C49602   6.990   9.935   0.232  0.0575 -0.8204  0.7668
  360MOL0     C49603   6.962   9.908   0.083 -0.0365  0.0268  0.9805
  360MOL0     C49604   6.805   9.919   0.065  0.4383 -0.4029  0.5533
  360MOL0     C49605   6.773   9.984  -0.069  0.0389 -0.3848  0.2803
  360MOL0     C49606   6.841   9.919  -0.192  0.2586  0.5507 -0.9490
  360MOL0     C49607   6.916   9.862  -0.270  0.8258  0.2428 -0.4970
  360MOL0     C49608   7.315  10.053   0.276 -0.3903  0.6283  0.8112
  360MOL0     C49609   7.394  10.158   0.334  0.0319 -0.7983  0.1245
  360MOL0     C49610   7.530  10.203   0.279 -0.1049 -1.1573  0.1952
  360MOL0     H49611   7.725  10.504   0.505  1.2798  1.0255  0.8698
  360MOL0     H49612   7.837  10.647   0.684  0.3757 -1.2615 -1.5243
  360MOL0     H49613   7.933  10.746   0.888 -2.1772  0.3917 -0.6457
  360MOL0     H49614   7.961  10.567   0.886  0.0274  0.0655  0.3854
  360MOL0     H49615   8.087  10.657   1.069 -0.3682  1.7535 -4.9708
  360MOL0     H49616   7.943  10.738   1.127 -1.6295 -2.5042  2.0845
  360MOL0     H49617   7.827  10.539   1.180  1.0783  1.0894  1.3167
  360MOL0     H49618   7.960  10.434   1.117 -0.3596  0.4907 -1.1418
  360MOL0     H49619   8.104  10.508   1.293 -0.3604 -1.4405 -1.1819
  360MOL0     H49620   7.971  10.622   1.356  3.0092  1.9033 -1.3932
  360MOL0     H49621   7.978  10.412   1.494  0.1022  0.7462  0.0201
  360MOL0     H49622   7.931  10.312   1.356 -1.0806 -0.4027  0.3270
  360MOL0     H49623   7.772  10.557   1.434  0.0860  0.2175  0.0347
  360MOL0     H49624   7.726  10.413   1.338  0.5619 -0.0245  0.4639
  360MOL0     H49625   7.777  10.430   1.645 -3.3073 -0.9491  0.5460
  360MOL0     H49626   7.783  10.278   1.550  3.3393  0.1060  0.2183
  360MOL0     H49627   7.545  10.343   1.472 -2.2292 -3.1922  1.5381
  360MOL0     H49628   7.556  10.307   1.649  0.1620  2.1869  1.3285
  360MOL0     H49629   7.606  10.519   1.812  0.4858 -2.6573 -1.9937
  360MOL0     H49630   7.521  10.888   1.734 -2.5015 -0.6986 -0.1537
  360MOL0     H49631   7.637  10.821   1.840  0.8847  0.4484 -0.7691
  360MOL0     H49632   7.340  10.813   1.856 -2.0851 -1.9396  3.3420
  360MOL0     H49633   7.432  10.699   1.942 -2.0850  0.3293  0.4202
  360MOL0     H49634   7.531  10.928   2.055 -1.0611  2.3570  0.4072
  360MOL0     H49635   7.430  11.015   1.961  1.1053 -0.2389  1.7472
  360MOL0     H49636   7.318  10.964   2.192 -3.1370 -1.4517  1.4518
  360MOL0     H49637   7.227  10.885   2.063 -0.7762  0.4750  1.5944
  360MOL0     H49638   7.141  10.861   2.299  0.5266 -0.8045  1.2954
  360MOL0     H49639   6.998  10.766   2.586  0.4942 -2.9304  0.5553
  360MOL0     H49640   6.894  10.656   2.488  0.3469 -0.1932 -0.2619
  360MOL0     H49641   6.939  10.817   2.429  2.0571  1.5960  0.3152
  360MOL0     H49642   7.271  10.338   2.854  0.1914 -2.0281  1.4991
  360MOL0     H49643   7.193  10.198   3.032  0.3380  2.3792  0.2887
  360MOL0     H49644   6.771  10.054   3.016  0.4437  0.0197  0.4283
  360MOL0     H49645   6.851   9.916   2.932  3.6075 -0.7694 -0.6648
  360MOL0     H49646   6.924   9.863   3.198  0.3393 -0.3324 -0.9932
  360MOL0     H49647   6.778   9.958   3.222  1.2193 -0.8809  0.8908
  360MOL0     H49648   6.785   9.702   3.217 -1.2508 -1.1162 -0.2470
  360MOL0     H49649   6.749   9.727   3.039 -4.9470 -2.1870  0.7241
  360MOL0     H49650   6.568   9.872   3.078 -1.3541 -0.3691 -0.1306
  360MOL0     H49651   6.569   9.838   3.249  1.7610 -3.4049  2.8344
  360MOL0     H49652   6.413   9.712   3.118  1.2261  2.1865  1.1782
  360MOL0     H49653   6.531   9.642   3.014 -2.8657  2.5872 -0.8441
  360MOL0     H49654   6.630   9.499   3.212  0.0753 -0.4774  1.7165
  360MOL0     H49655   6.473   9.472   3.174  2.2248 -1.7374  1.3967
  360MOL0     H49656   6.567   9.660   3.391  2.3956  1.2014 -5.8701
  360MOL0     H49657   6.504   9.493   3.428 -1.6936  1.0535  1.7205
  360MOL0     H49658   6.330   9.722   3.339 -3.5561 -0.9431 -0.6492
  360MOL0     H49659   6.344   9.652   3.499 -1.0183  0.0785 -0.2804
  360MOL0     H49660   6.840  10.093   2.790 -0.4846  0.7344  2.3922
  360MOL0     H49661   6.940  10.214   2.594 -0.1903  1.3362  0.3538
  360MOL0     H49662   7.334  10.430   2.445  1.5205  0.7825 -0.8121
  360MOL0     H49663   7.422  10.550   2.270  0.9035  2.5965 -0.2803
  360MOL0     H49664   7.581  10.453   0.977 -2.1009 -2.0011 -0.1728
  360MOL0     H49665   7.475  10.319   0.806  0.5032 -1.9783  0.5257
  360MOL0     H49666   7.141  10.224   0.566 -0.5219  2.8614 -3.3895
  360MOL0     H49667   7.038  10.046   0.452  0.0527 -0.5153  0.4069
  360MOL0     H49668   6.944   9.857   0.293 -0.5735 -4.4547 -3.7814
  360MOL0     H49669   6.949  10.032   0.261 -2.7337 -1.7901  0.3994
  360MOL0     H49670   7.009   9.815   0.052  1.8350  0.8591  1.1671
  360MOL0     H49671   7.011   9.992   0.032  2.7752 -0.8146  2.1104
  360MOL0     H49672   6.757   9.822   0.076 -0.4619  0.0605  0.8159
  360MOL0     H49673   6.770   9.977   0.151  1.7730  0.7626  0.3464
  360MOL0     H49674   6.802  10.090  -0.071 -2.6642  0.5096 -3.5534
  360MOL0     H49675   6.664   9.983  -0.075 -0.2660  3.0270  2.6136
  360MOL0     H49676   6.974   9.806  -0.341 -0.0627 -3.0580  1.1808
  360MOL0     H49677   7.360   9.997   0.194 -2.5460 -0.9539  0.6177
  360MOL0     H49678   7.621  10.163   0.326  0.3817  1.3961  1.6010
  360MOL0     H49679   7.531  10.164   0.177  1.8884  1.6067 -0.9725
  360MOL0     H49680   7.536  10.312   0.270 -1.5503 -0.8420  2.4131
  361MOL0     O49681   6.526   2.022   6.609 -0.1126  0.8031 -0.1767
  361MOL0     C49682   6.416   2.068   6.646 -0.5833 -0.4460  0.1051
  361MOL0     O49683   6.292   2.051   6.575 -0.5083 -0.1271  0.3660
  361MOL0     C49684   6.319   2.002   6.452  0.4217  0.6148 -0.5258
  361MOL0     C49685   6.406   2.042   6.350 -0.5508 -0.0650 -0.6990
  361MOL0     C49686   6.407   1.973   6.225 -0.1525 -0.1176 -0.4897
  361MOL0     C49687   6.318   1.875   6.193 -0.7000 -0.0230  0.5452
  361MOL0     O49688   6.332   1.798   6.076  0.5946 -0.5739  0.0407
  361MOL0     C49689   6.210   1.775   6.000  0.3210  0.8676 -0.0036
  361MOL0     C49690   6.167   1.898   5.917  0.3632 -0.1659  0.4033
  361MOL0     C49691   6.271   1.981   5.851 -0.1946  0.7399 -0.0717
  361MOL0     C49692   6.211   2.080   5.742 -0.4214  0.0451 -0.3707
  361MOL0     C49693   6.297   2.123   5.634  0.2234 -0.3057 -0.5491
  361MOL0     C49694   6.236   2.231   5.554 -0.4657 -0.3697 -0.5323
  361MOL0     C49695   6.329   2.281   5.439  0.4658 -0.3036 -0.2267
  361MOL0     C49696   6.255   2.399   5.380 -0.1257 -0.4063  1.0470
  361MOL0     N49697   6.338   2.449   5.268  0.9949  0.0764 -0.0840
  361MOL0     C49698   6.465   2.503   5.270  0.4227 -0.2267 -0.6637
  361MOL0     C49699   6.493   2.549   5.143  0.0700  0.8856 -0.4327
  361MOL0     C49700   6.622   2.615   5.108 -0.1363 -0.2463 -0.1440
  361MOL0     C49701   6.667   2.562   4.961 -0.2001 -0.2219  0.2082
  361MOL0     C49702   6.577   2.626   4.855 -0.0865  0.5799  0.6204
  361MOL0     C49703   6.644   2.625   4.717  1.3517  0.1931  0.1830
  361MOL0     O49704   6.669   2.498   4.658 -0.5812 -0.2911  0.1645
  361MOL0     C49705   6.795   2.451   4.659  0.1211  0.2175  0.4478
  361MOL0     C49706   6.866   2.486   4.554 -0.2524 -0.0186  0.8281
  361MOL0     C49707   6.999   2.441   4.516 -0.7093 -0.3618  0.5275
  361MOL0     C49708   7.058   2.480   4.392  1.0057 -0.1659  0.1300
  361MOL0     C49709   7.057   2.343   4.605 -0.8234  0.1405  0.6901
  361MOL0     C49710   7.193   2.292   4.582  0.1004  0.0213  0.0306
  361MOL0     O49711   7.260   2.276   4.703 -0.6493 -0.7824 -0.0147
  361MOL0     C49712   7.394   2.237   4.704  0.5635  0.7530 -1.4457
  361MOL0     C49713   7.448   2.137   4.635  0.2896  0.2395  0.9009
  361MOL0     C49714   7.581   2.099   4.629 -0.6417  0.2119 -0.4293
  361MOL0     C49715   7.667   2.181   4.699 -0.8704 -0.5846 -0.3498
  361MOL0     O49716   7.799   2.150   4.693 -0.4222 -0.5301 -0.2162
  361MOL0     C49717   7.889   2.253   4.646  0.2441 -0.9094  0.8949
  361MOL0     C49718   8.022   2.189   4.619  0.1382  0.6727 -0.9085
  361MOL0     C49719   8.072   2.106   4.737  0.9401 -0.3222 -0.0138
  361MOL0     C49720   8.217   2.076   4.735 -0.3414  0.0074  0.0161
  361MOL0     C49721   8.259   2.012   4.866 -0.3192  0.2095  0.1634
  361MOL0     C49722   8.315   2.107   4.967  0.3358  0.3260  0.4936
  361MOL0     C49723   8.405   2.033   5.072 -0.0648  0.1516  0.6721
  361MOL0     C49724   8.324   1.922   5.140 -1.0876 -0.1277 -0.0577
  361MOL0    Cl49725   8.198   1.975   5.246 -0.4092 -0.0683 -0.0952
  361MOL0     C49726   7.621   2.291   4.783  0.7688  0.1031 -0.3931
  361MOL0     C49727   7.482   2.322   4.784  0.5388  0.1562  0.4650
  361MOL0     O49728   7.243   2.269   4.467  0.3234 -0.1909 -0.6352
  361MOL0     C49729   6.982   2.316   4.720 -0.3066  0.8359  0.5703
  361MOL0     C49730   6.848   2.359   4.744  0.4767 -0.0500  0.2846
  361MOL0     N49731   6.398   2.492   5.059 -0.3707  0.7210 -0.4853
  361MOL0     N49732   6.310   2.434   5.137 -0.2658  0.1329  0.2762
  361MOL0     C49733   6.235   1.841   6.297  0.8267  0.2305 -0.2928
  361MOL0     C49734   6.233   1.898   6.423  0.3761 -0.4392 -0.0486
  361MOL0     C49735   6.416   2.128   6.786 -0.0341 -0.0859  0.5608
  361MOL0     C49736   6.527   2.125   6.866  0.1637 -0.0734 -0.0148
  361MOL0     C49737   6.525   2.165   7.003  0.0992 -0.0321  0.1334
  361MOL0     C49738   6.409   2.195   7.067 -0.9988  0.9482  0.7210
  361MOL0     O49739   6.385   2.205   7.202 -0.4374 -0.0153 -0.5413
  361MOL0     C49740   6.488   2.172   7.287  0.1080  0.0692 -0.4461
  361MOL0     C49741   6.444   2.202   7.428 -0.2908 -0.2381  0.4932
  361MOL0     C49742   6.564   2.164   7.521  0.9999  0.2865  0.6254
  361MOL0     C49743   6.558   2.205   7.668  0.0587  0.7383 -0.1918
  361MOL0     C49744   6.692   2.175   7.729 -0.7558 -0.0292 -0.5583
  361MOL0     C49745   6.802   2.142   7.771 -0.0374 -0.2644 -0.7174
  361MOL0     C49746   6.299   2.202   6.988  0.5194 -0.1554 -0.2333
  361MOL0     C49747   6.294   2.158   6.852  0.0849 -0.2870 -0.2363
  361MOL0     C49748   6.161   2.160   6.791  0.4220 -0.7262  0.1793
  361MOL0     H49749   6.469   2.126   6.380 -1.0022 -0.5315  1.7806
  361MOL0     H49750   6.495   1.996   6.164  1.3084 -1.0777  1.1672
  361MOL0     H49751   6.131   1.749   6.071 -0.7623  0.9294 -1.1393
  361MOL0     H49752   6.223   1.689   5.934 -0.1253  1.5494 -1.0066
  361MOL0     H49753   6.096   1.863   5.842  1.4874 -1.8115  0.0501
  361MOL0     H49754   6.117   1.967   5.985  0.2752 -0.0187  0.1915
  361MOL0     H49755   6.330   2.039   5.922 -0.2973  1.2869 -0.4263
  361MOL0     H49756   6.345   1.910   5.813  0.1362  0.1529  1.6018
  361MOL0     H49757   6.125   2.026   5.704 -1.0940  1.8850 -1.5803
  361MOL0     H49758   6.180   2.167   5.800  1.0787  0.0640  0.4614
  361MOL0     H49759   6.333   2.041   5.571 -1.0517  0.5382 -2.4847
  361MOL0     H49760   6.381   2.177   5.680 -0.1220 -0.1915 -0.0391
  361MOL0     H49761   6.136   2.209   5.516 -0.2846 -0.5414 -0.9197
  361MOL0     H49762   6.235   2.316   5.623  1.8965 -1.8529  1.4892
  361MOL0     H49763   6.333   2.196   5.369 -1.3398  1.5509 -2.7841
  361MOL0     H49764   6.423   2.321   5.479 -0.5022  3.9423 -1.6366
  361MOL0     H49765   6.159   2.380   5.331  1.1249  0.2092 -1.8255
  361MOL0     H49766   6.249   2.473   5.460  0.8652  3.8368 -2.4306
  361MOL0     H49767   6.530   2.529   5.353 -1.2067 -1.1133  0.9518
  361MOL0     H49768   6.694   2.586   5.185  1.5058 -0.9309 -1.8551
  361MOL0     H49769   6.622   2.724   5.106  2.4973 -0.1297  1.1575
  361MOL0     H49770   6.769   2.595   4.938 -0.4126 -0.8266 -1.7651
  361MOL0     H49771   6.654   2.453   4.965  1.4749 -0.4469  0.0839
  361MOL0     H49772   6.483   2.571   4.851 -1.2728  2.5260  0.6245
  361MOL0     H49773   6.544   2.725   4.889 -0.7279  0.8636 -0.7548
  361MOL0     H49774   6.570   2.674   4.654 -0.7484  0.8484  2.9517
  361MOL0     H49775   6.728   2.694   4.730  1.3337 -0.0971  2.3007
  361MOL0     H49776   6.833   2.563   4.485 -1.6261 -0.4256  0.9998
  361MOL0     H49777   7.058   2.392   4.327 -1.6782  0.7063 -1.1835
  361MOL0     H49778   7.161   2.515   4.406  1.2185 -0.1058 -1.4303
  361MOL0     H49779   7.000   2.559   4.343 -0.9166 -0.9985  0.9670
  361MOL0     H49780   7.390   2.072   4.572  1.3282  2.1005 -2.2348
  361MOL0     H49781   7.631   2.014   4.583  3.1055  2.0314 -0.0720
  361MOL0     H49782   7.861   2.296   4.550  1.6946 -0.9263  0.4348
  361MOL0     H49783   7.903   2.330   4.722 -1.9506 -2.0587  2.5809
  361MOL0     H49784   8.009   2.130   4.528 -0.3078  2.2915 -1.9287
  361MOL0     H49785   8.096   2.268   4.604  1.9484 -1.0278 -1.3334
  361MOL0     H49786   8.017   2.012   4.747 -0.0348  0.3418  1.1644
  361MOL0     H49787   8.058   2.163   4.829 -1.4139  0.9324 -1.0452
  361MOL0     H49788   8.268   2.167   4.702 -2.5055  1.1611 -0.2714
  361MOL0     H49789   8.235   1.997   4.660 -5.1992 -0.3324 -1.1509
  361MOL0     H49790   8.173   1.958   4.906 -0.0297  0.0433  0.5624
  361MOL0     H49791   8.345   1.947   4.847 -2.2575 -2.6109  0.3000
  361MOL0     H49792   8.238   2.158   5.025  0.3499 -0.6264  1.3891
  361MOL0     H49793   8.377   2.188   4.927 -0.8798  1.5566  1.0420
  361MOL0     H49794   8.442   2.095   5.154  1.1710 -0.0121  0.2463
  361MOL0     H49795   8.494   1.995   5.022 -0.4777  1.9792 -1.6020
  361MOL0     H49796   8.399   1.877   5.206  0.1375  2.9198  0.7775
  361MOL0     H49797   8.294   1.844   5.069  1.3164 -1.5390  0.3530
  361MOL0     H49798   7.690   2.351   4.841  2.4675 -1.1076 -1.0658
  361MOL0     H49799   7.440   2.410   4.832 -1.1807 -0.4150  0.0880
  361MOL0     H49800   7.031   2.235   4.771  0.7158  1.0780  0.0071
  361MOL0     H49801   6.796   2.319   4.831  1.4785 -1.2929  0.3345
  361MOL0     H49802   6.168   1.757   6.284  0.0917  0.8510 -0.5926
  361MOL0     H49803   6.151   1.877   6.490 -0.5831  1.6104 -0.5117
  361MOL0     H49804   6.620   2.088   6.824 -1.1489 -2.2761 -1.1907
  361MOL0     H49805   6.620   2.165   7.056 -0.3965  0.6966  1.0597
  361MOL0     H49806   6.533   2.073   7.273  0.5115 -0.2382  2.4075
  361MOL0     H49807   6.571   2.242   7.274  0.7533 -0.7138 -0.6483
  361MOL0     H49808   6.353   2.154   7.465 -1.3382 -0.3235 -1.9868
  361MOL0     H49809   6.423   2.309   7.439  0.0094 -0.1516  0.2634
  361MOL0     H49810   6.592   2.059   7.511 -0.2003 -0.1625  1.6951
  361MOL0     H49811   6.646   2.232   7.495  2.1948 -0.7562  1.5805
  361MOL0     H49812   6.482   2.147   7.720  2.0542 -1.0987  0.8327
  361MOL0     H49813   6.529   2.309   7.685  1.9533  1.1242  1.0286
  361MOL0     H49814   6.896   2.114   7.815  0.3921  2.2163  0.1544
  361MOL0     H49815   6.201   2.221   7.031 -0.6821 -2.1992 -1.8278
  361MOL0     H49816   6.153   2.222   6.701 -1.0953  1.5974  1.7952
  361MOL0     H49817   6.120   2.059   6.782 -2.5834  0.3591  0.5413
  361MOL0     H49818   6.090   2.216   6.853 -1.4491 -1.7814 -0.9053
  362MOL0     O49819   8.616   3.931  10.716  0.1396  0.6563 -0.0757
  362MOL0     C49820   8.602   3.866  10.611  0.2173 -0.8503  0.5679
  362MOL0     O49821   8.706   3.833  10.530  0.3234  0.2684 -0.4982
  362MOL0     C49822   8.829   3.861  10.588  0.3428 -0.3388 -1.0267
  362MOL0     C49823   8.880   3.985  10.580 -0.6717 -0.2118  0.0077
  362MOL0     C49824   8.998   4.025  10.636 -0.1398 -1.0263  0.5937
  362MOL0     C49825   9.075   3.942  10.719  1.2022 -0.0415  0.7174
  362MOL0     O49826   9.191   3.989  10.773  0.2366  0.3662  0.3947
  362MOL0     C49827   9.234   3.902  10.879  0.7062 -0.1094 -0.8068
  362MOL0     C49828   9.359   3.968  10.945 -0.4988 -0.2592  0.8062
  362MOL0     C49829   9.435   3.884  11.042  0.0301 -0.2571  0.4574
  362MOL0     C49830   9.349   3.843  11.170 -0.1064  0.9262  0.2439
  362MOL0     C49831   9.431   3.785  11.283  0.4498 -0.4294  0.1705
  362MOL0     C49832   9.484   3.647  11.256 -0.6496  0.7119  0.3179
  362MOL0     C49833   9.555   3.602  11.386 -0.2224 -0.5688  0.6691
  362MOL0     C49834   9.609   3.461  11.373 -0.1616  0.6635  0.8715
  362MOL0     N49835   9.713   3.434  11.465 -0.4073  0.8316  0.4917
  362MOL0     C49836   9.798   3.321  11.464 -0.3268 -0.0401  0.7929
  362MOL0     C49837   9.897   3.342  11.557  0.1455  0.3086 -0.1011
  362MOL0     C49838  10.002   3.242  11.607  0.1876  0.4159 -0.8620
  362MOL0     C49839  10.045   3.263  11.751  0.9031  0.0492  0.5971
  362MOL0     C49840  10.126   3.132  11.806 -0.0636  0.5898  0.5421
  362MOL0     C49841  10.237   3.088  11.703 -0.3527  1.0293 -0.0041
  362MOL0     O49842  10.304   2.979  11.771 -0.4867 -0.5298 -0.3716
  362MOL0     C49843  10.418   2.933  11.713 -0.1341 -0.2222  0.4632
  362MOL0     C49844  10.478   2.821  11.770 -0.9683 -0.0810 -0.9571
  362MOL0     C49845  10.597   2.767  11.720 -0.5137  0.0606  0.4763
  362MOL0     C49846  10.653   2.648  11.784 -0.3006 -0.9946 -0.1198
  362MOL0     C49847  10.638   2.810  11.586  0.8250 -0.6919 -0.2185
  362MOL0     C49848  10.744   2.733  11.505  1.0303  0.1634 -0.2546
  362MOL0     O49849  10.721   2.597  11.499  0.6613  0.2305  0.5786
  362MOL0     C49850  10.808   2.525  11.412  0.1422 -0.8644 -1.0609
  362MOL0     C49851  10.937   2.500  11.457  0.2465 -0.1870  1.0717
  362MOL0     C49852  11.031   2.439  11.370 -0.0213  0.1148  0.3524
  362MOL0     C49853  11.006   2.427  11.234  0.4892  1.0605  0.4056
  362MOL0     O49854  11.086   2.385  11.127  0.4777 -0.2968 -0.7294
  362MOL0     C49855  11.196   2.300  11.160  0.2597  0.3288  0.2974
  362MOL0     C49856  11.259   2.275  11.020  0.3550  1.1928  0.6424
  362MOL0     C49857  11.378   2.180  11.029  0.9830 -0.3657  1.0172
  362MOL0     C49858  11.431   2.155  10.889  0.0291 -0.9194 -0.8124
  362MOL0     C49859  11.518   2.029  10.902 -0.2486  0.2184 -0.6476
  362MOL0     C49860  11.556   1.969  10.764  1.0406  0.3416 -0.5358
  362MOL0     C49861  11.640   1.836  10.770 -0.3237 -0.1521 -1.1946
  362MOL0     C49862  11.704   1.814  10.629 -0.0719  0.6076  0.2842
  362MOL0    Cl49863  11.869   1.725  10.655  0.3701 -0.3494  0.0538
  362MOL0     C49864  10.875   2.449  11.189 -0.5287  0.7451 -0.1156
  362MOL0     C49865  10.779   2.497  11.281  0.8662  0.4517  0.2185
  362MOL0     O49866  10.838   2.797  11.465 -0.0373 -0.4046 -0.3250
  362MOL0     C49867  10.579   2.923  11.532 -0.4025 -0.5206  0.4909
  362MOL0     C49868  10.475   2.987  11.592  0.0607 -0.2201 -0.1518
  362MOL0     N49869   9.870   3.462  11.620  0.5202 -0.4366  1.4259
  362MOL0     N49870   9.764   3.512  11.561  0.5026  0.1431 -0.2751
  362MOL0     C49871   9.014   3.816  10.729 -0.0298  0.8487 -0.6569
  362MOL0     C49872   8.901   3.768  10.668 -0.4690 -0.3447 -0.0771
  362MOL0     C49873   8.464   3.826  10.560 -0.5376  0.3713 -0.0985
  362MOL0     C49874   8.457   3.706  10.491 -0.3213 -0.3040  0.7117
  362MOL0     C49875   8.337   3.631  10.469  0.7472  0.5409  0.1792
  362MOL0     C49876   8.219   3.684  10.518 -0.7209  1.0181 -0.0840
  362MOL0     O49877   8.109   3.604  10.526 -0.3583  0.2659 -0.5384
  362MOL0     C49878   8.010   3.636  10.430 -0.4569 -0.0424  0.8641
  362MOL0     C49879   8.026   3.545  10.308  0.5662 -1.0722 -0.7265
  362MOL0     C49880   7.913   3.563  10.204 -0.5103 -0.1224  0.4488
  362MOL0     C49881   7.784   3.490  10.221  0.4416 -0.5426 -0.0391
  362MOL0     C49882   7.784   3.351  10.169  0.1736 -0.4207  0.8664
  362MOL0     C49883   7.791   3.236  10.127 -0.0076  0.4318  0.3037
  362MOL0     C49884   8.223   3.797  10.592  0.4900 -0.1363  0.8628
  362MOL0     C49885   8.343   3.867  10.611 -0.2235 -0.1828 -0.0796
  362MOL0     C49886   8.336   3.978  10.710  0.6990  0.0369  0.0375
  362MOL0     H49887   8.840   4.075  10.534  1.8395  0.4447 -1.0609
  362MOL0     H49888   9.032   4.127  10.623  2.8012 -2.0805 -1.1004
  362MOL0     H49889   9.265   3.801  10.850 -0.6512  0.2095 -3.7124
  362MOL0     H49890   9.156   3.882  10.952  1.6658 -1.2986 -0.0545
  362MOL0     H49891   9.422   3.999  10.861  1.0334 -2.4972  1.0645
  362MOL0     H49892   9.333   4.067  10.986 -2.1764 -0.0403 -0.6508
  362MOL0     H49893   9.453   3.787  10.995 -0.2038 -1.0191  1.8660
  362MOL0     H49894   9.528   3.928  11.079  1.1900  0.5558 -3.0518
  362MOL0     H49895   9.303   3.935  11.208  0.4612  3.3724 -4.2588
  362MOL0     H49896   9.277   3.775  11.125  2.3173 -0.7744 -1.3127
  362MOL0     H49897   9.370   3.772  11.372 -2.7526 -2.7513 -2.1414
  362MOL0     H49898   9.504   3.852  11.330 -0.3894  0.4091  0.2951
  362MOL0     H49899   9.409   3.569  11.242  0.7597 -0.5079 -0.6756
  362MOL0     H49900   9.553   3.640  11.171 -0.0003  0.1046  0.8878
  362MOL0     H49901   9.475   3.609  11.461  0.8389 -0.3803  1.8061
  362MOL0     H49902   9.642   3.663  11.409  0.7119 -1.0688 -1.3080
  362MOL0     H49903   9.529   3.395  11.409 -2.5811  3.2158  0.5509
  362MOL0     H49904   9.634   3.433  11.271 -1.0767 -1.0686  1.0917
  362MOL0     H49905   9.786   3.228  11.410  0.4562  0.3127 -0.0074
  362MOL0     H49906  10.099   3.252  11.557  1.7687  0.2569  1.9454
  362MOL0     H49907   9.978   3.135  11.605  2.7223 -0.4218  2.8735
  362MOL0     H49908  10.114   3.347  11.758  0.2385  0.9433 -2.3040
  362MOL0     H49909   9.958   3.280  11.816  0.7009 -1.2772  0.7189
  362MOL0     H49910  10.168   3.144  11.906  1.0866 -2.4613  0.5064
  362MOL0     H49911  10.054   3.051  11.813 -0.3591  0.5125 -2.0904
  362MOL0     H49912  10.195   3.043  11.613 -1.2686 -1.6095  1.6311
  362MOL0     H49913  10.301   3.175  11.689 -1.2470  1.3337 -2.8893
  362MOL0     H49914  10.438   2.784  11.864 -1.2158  2.0582 -0.1718
  362MOL0     H49915  10.576   2.571  11.795 -1.5657  0.2032 -0.1980
  362MOL0     H49916  10.680   2.677  11.886  1.1469  2.1922 -1.2550
  362MOL0     H49917  10.743   2.612  11.733  1.4324  2.7407 -0.0758
  362MOL0     H49918  10.949   2.526  11.562 -2.2002 -0.2700  1.4178
  362MOL0     H49919  11.128   2.422  11.415  0.6563  0.1130 -1.0574
  362MOL0     H49920  11.273   2.341  11.226  2.0804 -0.4210 -1.2844
  362MOL0     H49921  11.163   2.208  11.209  0.7047  0.7044  1.3302
  362MOL0     H49922  11.179   2.224  10.965 -1.4412  0.7040  3.4988
  362MOL0     H49923  11.297   2.366  10.973  1.7663  0.3448  0.0688
  362MOL0     H49924  11.332   2.097  11.083  0.4452 -0.8747 -0.1708
  362MOL0     H49925  11.462   2.211  11.091 -0.2149 -2.8343  4.1395
  362MOL0     H49926  11.476   2.244  10.845  1.2418 -0.2270  1.6530
  362MOL0     H49927  11.347   2.129  10.824 -0.5606 -1.0199 -0.0363
  362MOL0     H49928  11.611   2.036  10.960  0.1890  0.8507 -1.4111
  362MOL0     H49929  11.448   1.956  10.944 -0.0758 -0.4220 -1.4541
  362MOL0     H49930  11.611   2.046  10.710  2.5968 -2.3613 -3.0628
  362MOL0     H49931  11.464   1.959  10.705  1.2103  3.6484 -1.5767
  362MOL0     H49932  11.591   1.746  10.808  0.8237  0.3878  1.8904
  362MOL0     H49933  11.725   1.838  10.838 -0.5726 -4.5066 -0.4375
  362MOL0     H49934  11.718   1.896  10.558 -0.0416 -1.3260 -2.0824
  362MOL0     H49935  11.636   1.741  10.582 -0.1348  0.1211  1.1136
  362MOL0     H49936  10.843   2.451  11.085 -0.6533 -2.7082 -0.2465
  362MOL0     H49937  10.681   2.527  11.245  1.6418  1.5864 -1.0364
  362MOL0     H49938  10.603   2.959  11.432  0.2368 -2.9283 -0.2781
  362MOL0     H49939  10.436   3.077  11.546  0.9716  0.7002  0.8246
  362MOL0     H49940   9.062   3.736  10.784 -2.4827 -1.4568 -1.6167
  362MOL0     H49941   8.866   3.667  10.690  2.0268 -0.8656  2.0255
  362MOL0     H49942   8.549   3.652  10.471 -1.0460 -1.2552 -0.1070
  362MOL0     H49943   8.336   3.531  10.427 -0.7973  0.7523 -0.3472
  362MOL0     H49944   7.913   3.621  10.480  0.2981 -0.2337  2.3380
  362MOL0     H49945   8.025   3.739  10.398  2.8606 -0.8335 -0.5671
  362MOL0     H49946   8.036   3.441  10.340  1.4175 -0.8887 -0.3729
  362MOL0     H49947   8.121   3.576  10.264  0.1425  2.3657  0.4251
  362MOL0     H49948   7.890   3.670  10.195  2.5016  0.6246  0.4992
  362MOL0     H49949   7.950   3.542  10.103  1.8669  2.9253  0.5107
  362MOL0     H49950   7.704   3.548  10.173  0.8942 -0.2506 -0.4524
  362MOL0     H49951   7.766   3.498  10.329 -1.7346 -0.5828 -0.3441
  362MOL0     H49952   7.799   3.134  10.096  0.5270  0.0095  1.7783
  362MOL0     H49953   8.136   3.820  10.653  0.4594  1.4030  0.2902
  362MOL0     H49954   8.384   4.070  10.674  0.3897  1.4529  3.0078
  362MOL0     H49955   8.234   4.013  10.728 -0.0487 -2.1027  0.2620
  362MOL0     H49956   8.371   3.952  10.810 -0.2910 -2.5896 -0.2069
  363MOL0     O49957   4.996   3.038   2.188  0.7531 -0.2866  0.0540
  363MOL0     C49958   4.999   3.164   2.202 -0.1683 -0.1246 -0.3263
  363MOL0     O49959   4.916   3.242   2.273 -0.2909  0.1892 -0.0537
  363MOL0     C49960   4.808   3.173   2.331  0.1036 -0.7776  0.2169
  363MOL0     C49961   4.681   3.217   2.296 -0.1015 -0.0106  0.2799
  363MOL0     C49962   4.570   3.166   2.363 -0.5157  0.0676 -0.3913
  363MOL0     C49963   4.590   3.085   2.475  0.1950 -0.1239  0.0645
  363MOL0     O49964   4.492   3.034   2.561  0.0662  0.3829 -0.2209
  363MOL0     C49965   4.359   3.035   2.502 -0.8371  0.3886  0.3442
  363MOL0     C49966   4.265   2.959   2.589  0.7345 -0.2210  0.3887
  363MOL0     C49967   4.126   2.923   2.533 -0.7940  1.1629 -0.2070
  363MOL0     C49968   4.045   3.042   2.483 -0.2734  0.9126 -0.0558
  363MOL0     C49969   3.915   2.992   2.397  0.0958 -0.4510 -0.7150
  363MOL0     C49970   3.861   3.094   2.303 -0.7620  0.3071  0.7203
  363MOL0     C49971   3.723   3.054   2.242 -0.4010 -0.5395  0.0078
  363MOL0     C49972   3.686   3.144   2.124  0.3049 -0.3770  0.0520
  363MOL0     N49973   3.556   3.099   2.075  0.1118 -0.7626  1.4565
  363MOL0     C49974   3.537   3.004   1.973  0.9392  0.0782 -0.0586
  363MOL0     C49975   3.401   3.003   1.956 -0.6125  0.3506 -0.5205
  363MOL0     C49976   3.338   2.899   1.862 -0.5144 -0.3629  0.2143
  363MOL0     C49977   3.274   2.783   1.935 -0.2236 -1.0118 -0.0910
  363MOL0     C49978   3.179   2.712   1.835 -0.4607 -0.2825 -1.4597
  363MOL0     C49979   3.129   2.571   1.890  0.1579 -0.2835 -0.2094
  363MOL0     O49980   3.030   2.577   1.992 -0.3449  0.4923  0.2229
  363MOL0     C49981   2.907   2.626   1.967 -0.3414 -0.6392  0.1885
  363MOL0     C49982   2.856   2.672   1.839  0.0679  0.9564 -0.5196
  363MOL0     C49983   2.719   2.715   1.833 -1.2365 -0.0920 -0.7297
  363MOL0     C49984   2.660   2.746   1.694 -0.0360  0.1803  0.0571
  363MOL0     C49985   2.635   2.699   1.954  0.6773  0.1440  0.1145
  363MOL0     C49986   2.487   2.734   1.948  0.0239  0.6862  0.8129
  363MOL0     O49987   2.405   2.663   2.022  0.3523  0.0319  0.4275
  363MOL0     C49988   2.272   2.659   2.005  0.0623  0.0110 -0.6375
  363MOL0     C49989   2.192   2.777   2.012 -0.1679 -0.1570 -0.8393
  363MOL0     C49990   2.051   2.771   2.018 -0.0242  1.5699  0.0702
  363MOL0     C49991   1.993   2.642   2.003  0.8505 -0.4137  0.0064
  363MOL0     O49992   1.850   2.625   2.008  0.7611 -0.4211  0.1211
  363MOL0     C49993   1.756   2.730   2.038 -0.5545  0.0448 -0.1685
  363MOL0     C49994   1.697   2.798   1.916 -0.7890  1.1520  0.4147
  363MOL0     C49995   1.556   2.849   1.934  1.1726 -0.3452  1.0124
  363MOL0     C49996   1.446   2.759   1.873  0.3410 -1.1006  0.2764
  363MOL0     C49997   1.296   2.815   1.888 -0.0677 -0.6541  0.1937
  363MOL0     C49998   1.288   2.965   1.839 -0.4254  0.3203  0.8413
  363MOL0     C49999   1.151   3.004   1.797 -0.5495 -0.0417 -0.1994
  363MOL0     C50000   1.136   3.129   1.722 -0.2614 -0.7300 -0.5216
  363MOL0    Cl50001   0.963   3.170   1.695 -0.4086 -0.2211  0.0246
  363MOL0     C50002   2.078   2.524   1.980  0.1562 -0.3048 -0.0061
  363MOL0     C50003   2.217   2.539   1.986  0.5899  0.4006  0.2198
  363MOL0     O50004   2.451   2.837   1.885 -0.0129  0.1695 -0.0698
  363MOL0     C50005   2.681   2.631   2.062  0.6192  0.5353  0.8367
  363MOL0     C50006   2.819   2.612   2.069  0.3395  0.6398  0.0034
  363MOL0     N50007   3.342   3.089   2.046 -0.2429 -0.5695 -0.1314
  363MOL0     N50008   3.438   3.141   2.119 -0.1893 -0.2444  0.3304
  363MOL0     C50009   4.713   3.036   2.508 -0.1069  0.3273  0.0452
  363MOL0     C50010   4.822   3.090   2.439 -0.6052 -0.4763 -0.5114
  363MOL0     C50011   5.122   3.223   2.144  1.0313 -0.0454  0.5476
  363MOL0     C50012   5.150   3.352   2.181 -0.0238  0.0037 -0.4304
  363MOL0     C50013   5.266   3.420   2.133  0.4336 -0.8863 -0.4112
  363MOL0     C50014   5.360   3.353   2.058 -0.4416 -1.0038 -0.0247
  363MOL0     O50015   5.469   3.433   2.021 -0.3290  0.2714 -0.0944
  363MOL0     C50016   5.576   3.369   1.948  0.1873  0.5036 -0.6124
  363MOL0     C50017   5.693   3.465   1.926  0.8088 -0.5607 -0.0685
  363MOL0     C50018   5.818   3.392   1.869  0.3365  0.9118  0.9494
  363MOL0     C50019   5.940   3.477   1.836  0.7441  0.0257 -0.3887
  363MOL0     C50020   5.935   3.564   1.716  0.3011  0.3844 -1.2713
  363MOL0     C50021   5.936   3.630   1.610 -0.9877  0.5111  0.0377
  363MOL0     C50022   5.335   3.222   2.023 -0.1933 -0.2533  0.9210
  363MOL0     C50023   5.217   3.154   2.058 -0.1499  0.2048  1.1584
  363MOL0     C50024   5.192   3.008   2.003  0.4924 -0.1529  0.0236
  363MOL0     H50025   4.658   3.294   2.223 -0.0907 -0.3995 -0.1405
  363MOL0     H50026   4.471   3.190   2.326 -0.8785 -3.0074 -1.7076
  363MOL0     H50027   4.370   2.979   2.408  3.0937 -2.0153  1.9760
  363MOL0     H50028   4.329   3.139   2.491 -1.5076  0.3413  1.5286
  363MOL0     H50029   4.312   2.863   2.611 -3.2026 -3.0083 -2.1452
  363MOL0     H50030   4.249   3.007   2.686  0.0676  0.8030 -0.2060
  363MOL0     H50031   4.151   2.865   2.443 -1.1892 -0.4653  0.7053
  363MOL0     H50032   4.072   2.854   2.598 -1.0122  2.6007  1.1783
  363MOL0     H50033   4.016   3.112   2.562  3.4247  1.0265  1.3964
  363MOL0     H50034   4.112   3.097   2.416  2.6504 -1.1576  0.9718
  363MOL0     H50035   3.836   2.970   2.470  2.2618  0.4941  2.0493
  363MOL0     H50036   3.938   2.902   2.340 -0.5867  0.0682 -1.8496
  363MOL0     H50037   3.858   3.184   2.365 -0.5926 -1.0706  2.8138
  363MOL0     H50038   3.929   3.100   2.218  0.7726  1.6084  1.9732
  363MOL0     H50039   3.643   3.069   2.315  1.4913  1.2497  1.8456
  363MOL0     H50040   3.737   2.956   2.194  0.1065  1.6220 -4.8910
  363MOL0     H50041   3.670   3.246   2.161  0.3018  0.1572 -1.3513
  363MOL0     H50042   3.761   3.134   2.045 -0.5450  1.4798 -1.0467
  363MOL0     H50043   3.603   2.943   1.911 -1.2998 -2.5395 -0.0426
  363MOL0     H50044   3.402   2.861   1.781 -1.6393 -0.8077 -0.5032
  363MOL0     H50045   3.269   2.967   1.811 -0.2359 -0.9337 -0.9701
  363MOL0     H50046   3.353   2.725   1.983 -0.6689 -1.0905  0.5589
  363MOL0     H50047   3.207   2.805   2.019  0.7558  0.0940  0.4331
  363MOL0     H50048   3.101   2.785   1.812 -0.7853 -0.9583 -2.5600
  363MOL0     H50049   3.245   2.690   1.750  2.9945  0.8174  0.7112
  363MOL0     H50050   3.085   2.511   1.810  2.4725 -1.6527 -0.5428
  363MOL0     H50051   3.222   2.529   1.927 -0.7617  0.3003  3.0225
  363MOL0     H50052   2.916   2.678   1.749  0.2854  2.8502 -0.2876
  363MOL0     H50053   2.719   2.707   1.611  0.9567  1.6696  0.0297
  363MOL0     H50054   2.673   2.854   1.687  1.6042  0.0075  0.0318
  363MOL0     H50055   2.557   2.713   1.709 -0.1566  1.3269  1.9752
  363MOL0     H50056   2.232   2.878   2.023 -1.6305  0.4157 -0.6414
  363MOL0     H50057   1.993   2.863   2.027  1.0135  2.5041 -1.9530
  363MOL0     H50058   1.670   2.689   2.091 -0.5412 -0.2783 -0.3911
  363MOL0     H50059   1.801   2.811   2.095  0.8580 -1.1875  0.5408
  363MOL0     H50060   1.762   2.882   1.887 -1.0361  0.5636 -2.1027
  363MOL0     H50061   1.696   2.733   1.828 -3.6840 -0.3415  1.4353
  363MOL0     H50062   1.544   2.945   1.884 -1.9380 -1.1317  0.0084
  363MOL0     H50063   1.529   2.872   2.037 -1.5803 -1.2022  0.5441
  363MOL0     H50064   1.468   2.666   1.927  1.0439 -0.3492  1.3364
  363MOL0     H50065   1.459   2.757   1.765 -3.4997  1.7767 -0.4607
  363MOL0     H50066   1.227   2.758   1.825 -1.9711  1.0612  0.6241
  363MOL0     H50067   1.268   2.813   1.993 -1.8228 -1.5302 -0.2425
  363MOL0     H50068   1.347   2.972   1.747  0.4633  0.9456  1.4421
  363MOL0     H50069   1.329   3.028   1.918  0.0966 -2.0375  2.5601
  363MOL0     H50070   1.098   3.015   1.892 -2.4691  0.2464 -1.2370
  363MOL0     H50071   1.110   2.924   1.734 -1.2259 -1.4035  1.8356
  363MOL0     H50072   1.199   3.116   1.634 -1.6037 -1.9273 -1.3573
  363MOL0     H50073   1.180   3.209   1.781 -1.1745  0.5498 -1.5226
  363MOL0     H50074   2.038   2.424   1.962  2.2847 -1.1997 -0.0607
  363MOL0     H50075   2.286   2.455   1.982  1.2303  0.5192  4.2690
  363MOL0     H50076   2.626   2.605   2.152 -1.0669 -0.1184 -0.3350
  363MOL0     H50077   2.868   2.561   2.152  2.1512 -0.5604 -1.6945
  363MOL0     H50078   4.724   2.977   2.598 -0.6171  1.2286  0.7235
  363MOL0     H50079   4.925   3.060   2.456 -0.6728 -1.4407 -1.6081
  363MOL0     H50080   5.078   3.413   2.235  0.6358  1.8099 -1.4817
  363MOL0     H50081   5.288   3.523   2.157 -1.1553 -1.0704  2.2172
  363MOL0     H50082   5.614   3.290   2.013 -2.4841 -0.8506 -0.5327
  363MOL0     H50083   5.548   3.328   1.850  0.6980 -0.9769 -0.1570
  363MOL0     H50084   5.724   3.503   2.024  0.1654  0.8329 -0.3792
  363MOL0     H50085   5.677   3.549   1.857  2.4346  3.2731  3.7153
  363MOL0     H50086   5.852   3.316   1.940 -2.0330 -1.1292  0.0436
  363MOL0     H50087   5.787   3.342   1.777 -0.2386  0.4341  1.3997
  363MOL0     H50088   6.032   3.418   1.832  1.2952  0.8821 -0.5614
  363MOL0     H50089   5.963   3.537   1.925  0.4314 -2.8072  1.7516
  363MOL0     H50090   5.937   3.678   1.514  1.3290  4.2594  1.7055
  363MOL0     H50091   5.406   3.166   1.963 -1.9045 -1.1385 -0.3579
  363MOL0     H50092   5.269   2.994   1.928 -0.2335 -0.1155 -0.7447
  363MOL0     H50093   5.211   2.934   2.082  1.5908  1.5347  1.4378
  363MOL0     H50094   5.097   3.001   1.949  0.1194 -1.4008  0.7840
  364MOL0     O50095   0.568   3.794   5.048 -0.2174 -0.0370 -0.4140
  364MOL0     C50096   0.444   3.776   5.042 -0.3959  0.4432  0.2859
  364MOL0     O50097   0.352   3.879   5.041  0.6896  0.2897 -0.2664
  364MOL0     C50098   0.391   4.002   5.084 -0.1024 -0.0527 -0.3021
  364MOL0     C50099   0.444   4.035   5.204 -0.4520  0.4254 -0.1967
  364MOL0     C50100   0.475   4.166   5.243  1.1333 -1.0412  0.2945
  364MOL0     C50101   0.448   4.280   5.153  0.2977 -0.2573 -0.4188
  364MOL0     O50102   0.477   4.404   5.189 -0.6170 -0.6615  0.0813
  364MOL0     C50103   0.503   4.440   5.325  0.6764  0.1464  0.5936
  364MOL0     C50104   0.378   4.441   5.415 -0.2584  0.4944  0.1022
  364MOL0     C50105   0.407   4.524   5.539 -0.4353  0.1550 -0.1524
  364MOL0     C50106   0.289   4.519   5.633 -0.3829  0.8473  0.1274
  364MOL0     C50107   0.330   4.606   5.751 -0.0063 -1.4888 -0.0460
  364MOL0     C50108   0.219   4.609   5.859  0.2062 -0.2821 -0.1347
  364MOL0     C50109   0.095   4.695   5.814 -0.2397  1.0946  0.2604
  364MOL0     C50110  -0.030   4.678   5.891 -0.8831  0.3702 -0.1564
  364MOL0     N50111  -0.015   4.705   6.036  0.1052 -0.2670  0.2492
  364MOL0     C50112  -0.037   4.604   6.129 -0.7979 -0.3672  0.5499
  364MOL0     C50113  -0.062   4.666   6.246  0.4748 -0.0903  0.5944
  364MOL0     C50114  -0.093   4.606   6.375  0.3408 -0.1263  0.4248
  364MOL0     C50115   0.004   4.513   6.430  0.5841  0.8678 -0.7159
  364MOL0     C50116  -0.041   4.455   6.559 -0.2492 -0.2193 -0.4340
  364MOL0     C50117   0.092   4.415   6.628 -0.2027 -0.6953 -0.2120
  364MOL0     O50118   0.154   4.534   6.684 -0.1803  0.2759  0.2438
  364MOL0     C50119   0.294   4.515   6.696  0.2506  0.6245  0.0549
  364MOL0     C50120   0.374   4.626   6.687 -0.2164 -0.0173  0.3672
  364MOL0     C50121   0.513   4.618   6.680  0.4320 -0.7032  0.2158
  364MOL0     C50122   0.591   4.747   6.644  0.6038  0.4037 -0.2768
  364MOL0     C50123   0.578   4.491   6.687  0.5497  1.5349 -0.3531
  364MOL0     C50124   0.723   4.452   6.666  0.1500  0.0210 -0.2411
  364MOL0     O50125   0.744   4.315   6.672 -0.8697  0.2060 -0.4046
  364MOL0     C50126   0.865   4.272   6.721 -0.1772 -0.2587 -0.4970
  364MOL0     C50127   0.896   4.307   6.850  0.8576  0.6460 -0.0603
  364MOL0     C50128   1.019   4.265   6.906  0.8071  1.0558  0.0372
  364MOL0     C50129   1.112   4.192   6.836 -0.5846  0.4878 -0.2402
  364MOL0     O50130   1.230   4.151   6.899  0.2197 -0.2633 -0.3879
  364MOL0     C50131   1.202   4.112   7.036  0.0542 -0.6355  0.4933
  364MOL0     C50132   1.298   4.001   7.090  0.1077  0.1341  0.0938
  364MOL0     C50133   1.428   4.066   7.144 -0.2877  0.0101  0.0964
  364MOL0     C50134   1.533   3.975   7.209  0.7417 -0.6754  0.2095
  364MOL0     C50135   1.657   4.048   7.261 -0.3285 -0.0071 -0.6044
  364MOL0     C50136   1.647   4.075   7.414  0.3178  1.2833 -0.0360
  364MOL0     C50137   1.771   4.035   7.487  0.3545 -0.0146 -0.8765
  364MOL0     C50138   1.881   4.130   7.442  0.2746 -0.8841 -0.0012
  364MOL0    Cl50139   2.033   4.060   7.516 -0.3782 -0.1172 -0.2033
  364MOL0     C50140   1.078   4.149   6.707 -0.6792  0.2016 -0.3698
  364MOL0     C50141   0.957   4.194   6.651  0.3871  0.0071  0.5420
  364MOL0     O50142   0.805   4.540   6.662  0.3119 -1.0094 -0.4866
  364MOL0     C50143   0.493   4.375   6.719 -0.1487 -0.5280  0.1544
  364MOL0     C50144   0.355   4.389   6.728  0.2823  0.1286  0.4626
  364MOL0     N50145  -0.057   4.806   6.228 -0.1259 -0.5585  0.0764
  364MOL0     N50146  -0.015   4.828   6.103 -0.4234  0.0411  0.6216
  364MOL0     C50147   0.391   4.240   5.033  0.5300 -0.3539  0.5385
  364MOL0     C50148   0.359   4.109   5.007  0.0935 -0.3306 -0.0632
  364MOL0     C50149   0.401   3.637   5.014 -0.3829 -0.5744 -0.5169
  364MOL0     C50150   0.264   3.609   5.011  0.0079 -1.1330 -0.0833
  364MOL0     C50151   0.223   3.477   4.992  0.3955  0.6531 -0.0715
  364MOL0     C50152   0.308   3.368   4.977 -0.0908 -0.2748  0.4524
  364MOL0     O50153   0.273   3.233   4.978 -0.5771  0.2732  0.1534
  364MOL0     C50154   0.133   3.199   4.958  0.6452  0.6506 -0.4349
  364MOL0     C50155   0.113   3.058   4.910  0.7072 -0.0973 -0.2516
  364MOL0     C50156  -0.028   3.031   4.864  0.8537  0.2168  0.1531
  364MOL0     C50157  -0.134   3.002   4.985 -0.1733 -0.6015 -0.3148
  364MOL0     C50158  -0.269   2.991   4.925  0.3228 -0.1190 -0.1531
  364MOL0     C50159  -0.385   2.986   4.882 -0.0923 -0.3643  0.0338
  364MOL0     C50160   0.443   3.398   4.983 -0.1456 -0.3914 -0.1623
  364MOL0     C50161   0.492   3.525   5.004  0.5029 -0.4615 -0.6125
  364MOL0     C50162   0.647   3.535   5.008  0.6950 -0.2389  0.0031
  364MOL0     H50163   0.463   3.948   5.265 -5.2732  0.2306  1.4419
  364MOL0     H50164   0.506   4.178   5.346  1.2632 -1.3402  0.2921
  364MOL0     H50165   0.547   4.540   5.331  1.4008 -0.1412  0.1704
  364MOL0     H50166   0.577   4.370   5.366  0.2713  0.4594  1.8888
  364MOL0     H50167   0.297   4.492   5.362  0.1902  1.5471  0.4132
  364MOL0     H50168   0.358   4.338   5.446  1.3888 -0.3743 -1.5464
  364MOL0     H50169   0.496   4.487   5.590 -1.2456 -0.5316  0.7924
  364MOL0     H50170   0.437   4.624   5.508 -0.0321  0.3041  0.6891
  364MOL0     H50171   0.204   4.568   5.585 -0.0502  2.6631  1.3009
  364MOL0     H50172   0.260   4.418   5.665  0.2434 -0.3045 -2.6156
  364MOL0     H50173   0.341   4.710   5.721 -2.1107 -0.8266  1.2781
  364MOL0     H50174   0.410   4.559   5.808 -3.0039 -2.7978  3.4726
  364MOL0     H50175   0.195   4.504   5.877  2.6314 -0.8987 -0.1786
  364MOL0     H50176   0.268   4.646   5.949  1.0802  4.4589 -2.2559
  364MOL0     H50177   0.071   4.665   5.712  1.1838  0.9082 -0.0397
  364MOL0     H50178   0.115   4.802   5.800 -1.1376  1.5333  2.0132
  364MOL0     H50179  -0.096   4.754   5.849  1.7544  2.3566 -0.9457
  364MOL0     H50180  -0.076   4.580   5.872 -2.5731  1.3471 -1.4143
  364MOL0     H50181  -0.039   4.497   6.115  0.7761 -0.2018 -1.3688
  364MOL0     H50182  -0.190   4.558   6.359  2.4890 -4.6997 -0.2385
  364MOL0     H50183  -0.092   4.682   6.454  3.0942 -1.5745  1.9056
  364MOL0     H50184   0.016   4.428   6.362 -0.2947  1.1082 -1.1905
  364MOL0     H50185   0.100   4.563   6.447  0.5160  0.0709  2.7471
  364MOL0     H50186  -0.079   4.538   6.619  1.6139  0.3359  0.0469
  364MOL0     H50187  -0.104   4.368   6.537 -1.6096  0.9710 -1.4019
  364MOL0     H50188   0.084   4.338   6.705  0.1078  0.8886  1.4800
  364MOL0     H50189   0.167   4.377   6.558 -1.5735 -1.2590 -1.4300
  364MOL0     H50190   0.332   4.724   6.665 -0.3616  0.6501  3.1885
  364MOL0     H50191   0.530   4.828   6.602  0.4172  1.1434  1.3384
  364MOL0     H50192   0.655   4.729   6.557 -0.0330  0.2074 -0.7058
  364MOL0     H50193   0.644   4.790   6.730  0.7496  0.1105 -0.2199
  364MOL0     H50194   0.828   4.371   6.906 -0.2985  0.8804 -1.6361
  364MOL0     H50195   1.044   4.287   7.010 -2.6099  1.9131  0.8222
  364MOL0     H50196   1.199   4.195   7.108 -0.3971 -1.2655  1.2209
  364MOL0     H50197   1.101   4.069   7.041 -1.4710  2.2856 -1.6232
  364MOL0     H50198   1.253   3.944   7.171  0.4244  1.9552  1.6236
  364MOL0     H50199   1.331   3.936   7.008 -2.6317  2.0522 -2.7954
  364MOL0     H50200   1.398   4.146   7.212  0.3044  1.5770 -1.4232
  364MOL0     H50201   1.488   4.107   7.062  0.2183 -1.0560 -0.0775
  364MOL0     H50202   1.566   3.913   7.125 -0.2116 -0.4679 -0.3442
  364MOL0     H50203   1.493   3.903   7.280  0.3183 -1.6292 -0.9505
  364MOL0     H50204   1.744   3.982   7.257 -1.1522 -1.1538 -0.3308
  364MOL0     H50205   1.674   4.134   7.196 -1.5548 -0.3843 -1.4633
  364MOL0     H50206   1.566   4.017   7.459  2.0399 -1.5414 -0.2971
  364MOL0     H50207   1.607   4.175   7.432 -0.8691  0.8016  0.0834
  364MOL0     H50208   1.794   3.929   7.471 -0.1696 -0.5496  1.4714
  364MOL0     H50209   1.762   4.042   7.596  0.3825  0.6080 -0.9113
  364MOL0     H50210   1.862   4.230   7.484 -1.6400  0.0149 -2.7872
  364MOL0     H50211   1.889   4.148   7.335  0.9966 -3.1642 -0.3789
  364MOL0     H50212   1.140   4.091   6.640  0.4171  0.6030  0.2544
  364MOL0     H50213   0.940   4.159   6.549  1.3295  2.2311 -0.4519
  364MOL0     H50214   0.533   4.276   6.741  1.3140  0.0716  0.2745
  364MOL0     H50215   0.303   4.298   6.753  1.1090  0.2006  2.6903
  364MOL0     H50216   0.366   4.313   4.957  0.0249 -1.0893 -0.0171
  364MOL0     H50217   0.308   4.095   4.912  3.9273  0.3272 -2.4135
  364MOL0     H50218   0.188   3.686   5.022 -0.5575 -1.9147  1.9439
  364MOL0     H50219   0.114   3.467   4.989  0.5450 -1.1646 -0.5261
  364MOL0     H50220   0.074   3.212   5.049 -1.4323 -0.7257 -1.5059
  364MOL0     H50221   0.088   3.271   4.889 -1.0206 -0.3198 -0.4089
  364MOL0     H50222   0.142   2.985   4.986 -0.0318 -0.4830 -0.3325
  364MOL0     H50223   0.166   3.052   4.815 -2.2929  1.2115 -2.1494
  364MOL0     H50224  -0.071   3.113   4.806 -3.0604 -0.1187  2.2096
  364MOL0     H50225  -0.031   2.953   4.787 -0.2218  4.2956 -4.4376
  364MOL0     H50226  -0.104   3.086   5.048  3.2760 -1.1007 -1.0534
  364MOL0     H50227  -0.113   2.908   5.037 -2.3979 -1.1050 -0.2234
  364MOL0     H50228  -0.491   2.982   4.870 -0.3133  1.4525  1.0298
  364MOL0     H50229   0.507   3.314   4.959 -0.3096 -0.1965 -1.3115
  364MOL0     H50230   0.668   3.587   4.914 -2.4857 -2.8260 -2.3980
  364MOL0     H50231   0.688   3.581   5.098  0.6210 -3.0096  1.5506
  364MOL0     H50232   0.707   3.447   4.980  2.8205  1.9246 -2.9470
  365MOL0     O50233   3.584   7.765  10.616 -0.6191  1.0365 -0.2036
  365MOL0     C50234   3.518   7.688  10.689 -0.0309 -0.6300 -0.7622
  365MOL0     O50235   3.524   7.554  10.700  0.4773 -0.2421  0.5612
  365MOL0     C50236   3.647   7.498  10.673  0.1876 -0.5517 -0.2079
  365MOL0     C50237   3.712   7.502  10.547  1.3595  0.3033  0.1328
  365MOL0     C50238   3.827   7.425  10.527 -0.2099 -0.7531 -0.5884
  365MOL0     C50239   3.881   7.349  10.629 -0.1083 -0.2097 -0.5670
  365MOL0     O50240   3.982   7.269  10.593  0.3182 -1.0790 -0.4704
  365MOL0     C50241   4.072   7.229  10.692  0.1119  0.2113 -0.3515
  365MOL0     C50242   4.191   7.165  10.630 -0.5394 -0.0926  0.5053
  365MOL0     C50243   4.268   7.254  10.528  0.4178 -0.2036  0.4873
  365MOL0     C50244   4.376   7.168  10.449  0.2776 -0.4331 -0.2025
  365MOL0     C50245   4.465   7.257  10.361  0.2662  0.0651  0.7238
  365MOL0     C50246   4.395   7.328  10.249  0.1525  0.4206 -0.5362
  365MOL0     C50247   4.475   7.405  10.156 -0.5948 -0.1655 -0.4017
  365MOL0     C50248   4.383   7.484  10.059  1.4429  0.0732 -0.4331
  365MOL0     N50249   4.451   7.580   9.972  0.0225 -0.0884  0.5728
  365MOL0     C50250   4.532   7.688   9.999  0.0684 -0.1067  0.3312
  365MOL0     C50251   4.577   7.731   9.878  0.3343  1.2194 -0.6391
  365MOL0     C50252   4.671   7.836   9.853  0.6841  0.3635  0.0155
  365MOL0     C50253   4.739   7.901   9.976 -0.4476 -0.5250  0.5652
  365MOL0     C50254   4.841   8.007   9.945 -0.3400 -0.1808 -1.2077
  365MOL0     C50255   4.907   8.089  10.069  0.3362  0.3916  0.1115
  365MOL0     O50256   4.940   7.997  10.170  0.2082 -0.0240  0.0226
  365MOL0     C50257   5.038   7.902  10.151 -0.0254  1.0500  0.0294
  365MOL0     C50258   5.056   7.802  10.244 -0.7835 -0.3281  0.4947
  365MOL0     C50259   5.156   7.707  10.234  0.7252  0.1048 -0.4446
  365MOL0     C50260   5.151   7.603  10.348 -0.4457 -0.3880 -0.0158
  365MOL0     C50261   5.232   7.696  10.121 -0.0536 -1.0098  0.7801
  365MOL0     C50262   5.324   7.591  10.089 -0.5399  0.0834  0.2850
  365MOL0     O50263   5.393   7.603   9.974 -0.3954 -0.5882 -0.0221
  365MOL0     C50264   5.444   7.504   9.893 -0.0647  0.0896  0.0711
  365MOL0     C50265   5.424   7.503   9.757  0.6430  0.2718 -0.9952
  365MOL0     C50266   5.469   7.402   9.679 -0.2866  0.1038 -0.0668
  365MOL0     C50267   5.528   7.288   9.737  0.7789 -0.4048 -0.6539
  365MOL0     O50268   5.579   7.179   9.673  0.2504 -0.0139  0.3500
  365MOL0     C50269   5.555   7.166   9.531  0.7274 -0.4866  0.3033
  365MOL0     C50270   5.422   7.106   9.495 -0.5294 -0.3460  1.0964
  365MOL0     C50271   5.389   6.964   9.541  0.3000  0.4831  0.0521
  365MOL0     C50272   5.342   6.954   9.683 -0.4442  0.2692  0.6492
  365MOL0     C50273   5.343   6.812   9.749  0.2501 -0.9506  0.4758
  365MOL0     C50274   5.226   6.729   9.705  0.7623 -0.0098  0.3536
  365MOL0     C50275   5.219   6.594   9.772  0.0408 -0.5448  0.5490
  365MOL0     C50276   5.113   6.501   9.725 -0.3559  0.4895  0.5083
  365MOL0    Cl50277   4.945   6.555   9.734  0.2268 -0.1384  0.2633
  365MOL0     C50278   5.537   7.283   9.882  0.3989 -0.5563  0.0136
  365MOL0     C50279   5.499   7.392   9.953 -0.1186 -0.3537 -0.7750
  365MOL0     O50280   5.321   7.494  10.154  0.4793  0.3071  0.4081
  365MOL0     C50281   5.222   7.802  10.021  0.1726  0.4350 -0.0119
  365MOL0     C50282   5.121   7.900  10.032  0.0691  0.3506 -0.4738
  365MOL0     N50283   4.510   7.658   9.780 -0.0701  0.1143  0.5143
  365MOL0     N50284   4.454   7.563   9.843  0.0565 -0.3726  0.7730
  365MOL0     C50285   3.820   7.362  10.762 -0.7842 -0.4109 -0.0863
  365MOL0     C50286   3.703   7.430  10.783  0.2595 -0.6549 -0.1690
  365MOL0     C50287   3.410   7.761  10.766 -0.5371 -0.5857  0.3614
  365MOL0     C50288   3.302   7.685  10.815 -0.3740 -0.1410 -0.0921
  365MOL0     C50289   3.180   7.739  10.861 -0.6813  0.1861  0.6067
  365MOL0     C50290   3.172   7.876  10.872 -0.1496 -0.6198  0.6470
  365MOL0     O50291   3.064   7.939  10.914  0.0892 -0.3260  0.0079
  365MOL0     C50292   3.047   7.921  11.056  1.0397  0.2900  0.2829
  365MOL0     C50293   2.918   7.855  11.072  0.9929 -0.7726 -0.8647
  365MOL0     C50294   2.805   7.957  11.097 -0.1933  0.7717  0.0106
  365MOL0     C50295   2.670   7.895  11.103  0.4402  0.0876  0.1768
  365MOL0     C50296   2.638   7.846  11.240 -0.6558  0.2968 -0.0192
  365MOL0     C50297   2.614   7.843  11.358 -0.1631  0.7278 -0.0294
  365MOL0     C50298   3.278   7.960  10.829 -0.8780  0.4886 -0.4080
  365MOL0     C50299   3.406   7.904  10.798 -0.6831 -0.6941 -0.3360
  365MOL0     C50300   3.515   8.002  10.772  0.3545  1.1421 -0.1644
  365MOL0     H50301   3.687   7.561  10.460  2.6346  0.4655 -0.1324
  365MOL0     H50302   3.878   7.442  10.433  0.6755 -0.9409 -0.1523
  365MOL0     H50303   4.018   7.160  10.758 -1.1489  1.0121 -0.5163
  365MOL0     H50304   4.105   7.313  10.753 -3.1029 -0.0809  2.0391
  365MOL0     H50305   4.263   7.149  10.711 -0.6299  0.0809  0.6197
  365MOL0     H50306   4.162   7.066  10.595  1.7153 -0.6332 -0.0247
  365MOL0     H50307   4.199   7.307  10.462  4.9007  0.0185 -4.7593
  365MOL0     H50308   4.338   7.322  10.578  1.7478 -0.9300 -0.3389
  365MOL0     H50309   4.449   7.120  10.515  0.3654 -0.3094 -0.2103
  365MOL0     H50310   4.333   7.094  10.382 -1.2209  0.3969 -0.1947
  365MOL0     H50311   4.544   7.189  10.329 -0.2752  0.3221 -1.2919
  365MOL0     H50312   4.513   7.338  10.417  1.2467 -0.1487  0.2220
  365MOL0     H50313   4.338   7.248  10.200  0.0196  1.2382 -1.7670
  365MOL0     H50314   4.317   7.391  10.293 -2.4660 -2.4552 -0.7470
  365MOL0     H50315   4.538   7.332  10.103 -2.1555 -1.3568 -0.6862
  365MOL0     H50316   4.535   7.479  10.210 -2.6541  0.6853  0.7968
  365MOL0     H50317   4.335   7.405  10.001  0.3917  0.9146 -0.7503
  365MOL0     H50318   4.310   7.531  10.125  0.1636 -1.9534 -0.3355
  365MOL0     H50319   4.556   7.738  10.093  0.7839  0.2601 -0.0439
  365MOL0     H50320   4.619   7.914   9.796 -1.4207 -1.0337 -0.0848
  365MOL0     H50321   4.736   7.783   9.783 -1.4038  1.1309 -2.6808
  365MOL0     H50322   4.676   7.951  10.050  0.4003  1.1056  0.2546
  365MOL0     H50323   4.794   7.821  10.026  1.7154 -0.8317 -2.0579
  365MOL0     H50324   4.927   7.957   9.900  0.2535 -2.2013  1.8346
  365MOL0     H50325   4.793   8.082   9.882  1.1366  2.3159  0.4519
  365MOL0     H50326   4.993   8.152  10.045 -0.4626  2.0194  1.2722
  365MOL0     H50327   4.833   8.152  10.119  0.5121  1.4459 -0.9184
  365MOL0     H50328   4.997   7.799  10.335  1.1890 -2.2917  1.8134
  365MOL0     H50329   5.069   7.619  10.418 -1.0128 -1.2562 -0.4612
  365MOL0     H50330   5.251   7.598  10.393  0.9306  1.2859 -2.6249
  365MOL0     H50331   5.130   7.499  10.322  0.2248 -0.4485 -0.3415
  365MOL0     H50332   5.367   7.590   9.726  0.6946  0.1817 -1.3503
  365MOL0     H50333   5.465   7.422   9.573 -1.6800  1.5809  0.2213
  365MOL0     H50334   5.557   7.266   9.486  0.3540 -0.1420  1.0404
  365MOL0     H50335   5.629   7.098   9.487  0.4487 -0.4808 -0.1735
  365MOL0     H50336   5.339   7.165   9.535 -1.4155 -0.0226 -1.0876
  365MOL0     H50337   5.408   7.101   9.387 -1.1297 -1.9334  1.2131
  365MOL0     H50338   5.481   6.907   9.531  1.0080  1.4682  0.7500
  365MOL0     H50339   5.315   6.926   9.470 -0.9566  2.1232  0.4288
  365MOL0     H50340   5.240   6.995   9.685 -0.5177  0.5176 -2.7260
  365MOL0     H50341   5.410   7.010   9.748  1.1608 -1.4878  0.5512
  365MOL0     H50342   5.434   6.759   9.722  0.8985  0.5864 -0.5041
  365MOL0     H50343   5.347   6.817   9.858  3.0428  0.3387  0.4067
  365MOL0     H50344   5.241   6.717   9.597 -0.1865 -0.5162  0.2649
  365MOL0     H50345   5.127   6.773   9.722  0.1489 -1.2011 -0.0288
  365MOL0     H50346   5.206   6.619   9.878 -0.5228  1.9589 -0.0628
  365MOL0     H50347   5.313   6.540   9.755  1.5347  1.0390  3.1179
  365MOL0     H50348   5.125   6.408   9.781  3.8720  0.0572 -0.8158
  365MOL0     H50349   5.121   6.471   9.620 -2.3544 -3.2617  1.2339
  365MOL0     H50350   5.584   7.193   9.920  0.8131  0.0611  1.0076
  365MOL0     H50351   5.537   7.395  10.055  2.0224  2.1629 -1.5255
  365MOL0     H50352   5.281   7.804   9.930  2.7665  3.1833  1.5595
  365MOL0     H50353   5.115   7.971   9.950 -0.9685  0.2730 -0.4773
  365MOL0     H50354   3.875   7.316  10.843  1.5002  0.6909 -0.8925
  365MOL0     H50355   3.667   7.430  10.885 -0.8065  0.9571 -0.5152
  365MOL0     H50356   3.307   7.578  10.803  1.0972 -0.1975  0.8663
  365MOL0     H50357   3.107   7.663  10.885 -0.3170 -1.3292 -2.5737
  365MOL0     H50358   3.124   7.857  11.101  0.2465  0.6353  2.1862
  365MOL0     H50359   3.063   8.008  11.120  1.7315 -0.2287  0.8366
  365MOL0     H50360   2.923   7.797  11.165 -0.0408 -1.3050 -1.1309
  365MOL0     H50361   2.901   7.782  10.992  1.6946  1.9408 -3.6913
  365MOL0     H50362   2.829   8.021  11.182  1.4267  2.1974 -1.4382
  365MOL0     H50363   2.808   8.024  11.011 -1.7756 -0.0083 -0.7006
  365MOL0     H50364   2.667   7.811  11.033  0.7270 -0.4169  0.7519
  365MOL0     H50365   2.588   7.962  11.078 -1.4056 -2.5441 -1.3879
  365MOL0     H50366   2.593   7.826  11.462  2.0651  0.0114  0.3650
  365MOL0     H50367   3.270   8.066  10.850 -0.0254  0.4269  0.2432
  365MOL0     H50368   3.491   8.051  10.678 -1.9192  2.1649  0.8631
  365MOL0     H50369   3.517   8.074  10.854 -1.2482  1.6365 -0.5202
  365MOL0     H50370   3.617   7.962  10.766  1.1380  3.0694 -0.3042
  366MOL0     O50371   6.862   9.369  11.238  0.5727  0.1925  0.0261
  366MOL0     C50372   6.831   9.478  11.199  0.2001 -0.2563 -0.8960
  366MOL0     O50373   6.896   9.538  11.100 -0.2363 -0.4109 -0.3271
  366MOL0     C50374   7.035   9.525  11.090  0.1170  1.0089 -0.3927
  366MOL0     C50375   7.116   9.509  11.199  0.0822  0.3623 -0.8867
  366MOL0     C50376   7.255   9.502  11.193  0.8135 -0.1741 -0.0745
  366MOL0     C50377   7.317   9.509  11.068 -1.2481  0.2567 -0.4533
  366MOL0     O50378   7.457   9.497  11.053 -0.1924 -0.4464 -0.0327
  366MOL0     C50379   7.539   9.481  11.165 -0.5952  0.2861  0.1467
  366MOL0     C50380   7.681   9.447  11.122  0.4472  0.1949  0.8310
  366MOL0     C50381   7.776   9.569  11.130  0.4069 -0.0645 -0.0654
  366MOL0     C50382   7.915   9.540  11.087 -1.4521 -0.5109  0.1260
  366MOL0     C50383   8.006   9.665  11.114  0.1465 -0.3615 -0.9094
  366MOL0     C50384   8.129   9.667  11.028  0.5293  0.2907 -0.0682
  366MOL0     C50385   8.238   9.760  11.074 -0.2581  0.7894  0.1700
  366MOL0     C50386   8.379   9.730  11.007  0.4476  0.6029  0.0921
  366MOL0     N50387   8.469   9.845  11.025  0.6108  0.6449  0.4515
  366MOL0     C50388   8.472   9.942  10.939 -0.9141 -0.4033 -0.0089
  366MOL0     C50389   8.570  10.021  10.989 -0.3735 -0.2675  0.4849
  366MOL0     C50390   8.636  10.150  10.945  0.3195  0.4883 -1.0398
  366MOL0     C50391   8.722  10.146  10.822  0.3062  0.0695  0.6877
  366MOL0     C50392   8.633  10.175  10.698 -0.2411 -0.2449  0.1083
  366MOL0     C50393   8.718  10.152  10.571 -0.5725 -0.0610  0.0862
  366MOL0     O50394   8.786  10.270  10.558  0.3232  0.1564 -0.1305
  366MOL0     C50395   8.838  10.300  10.436  1.0300  1.0181  0.6593
  366MOL0     C50396   8.874  10.429  10.407  0.0347 -0.0191  0.3255
  366MOL0     C50397   8.921  10.467  10.281 -0.9495 -0.5884 -0.6514
  366MOL0     C50398   8.931  10.613  10.257 -0.4399  0.0808  0.2112
  366MOL0     C50399   8.942  10.368  10.180  0.8176 -0.8332  0.2807
  366MOL0     C50400   9.003  10.393  10.052 -0.1860 -1.1376 -0.0311
  366MOL0     O50401   9.008  10.294   9.956  0.1673 -0.6346  0.5050
  366MOL0     C50402   9.081  10.326   9.846 -0.1833 -0.1944 -0.5687
  366MOL0     C50403   9.225  10.307   9.849 -0.0198  0.2060  0.2840
  366MOL0     C50404   9.308  10.319   9.729 -1.0606 -0.8286 -0.2947
  366MOL0     C50405   9.259  10.352   9.614  0.5525 -0.3405  1.0476
  366MOL0     O50406   9.343  10.367   9.501 -0.1185  0.4543  0.2577
  366MOL0     C50407   9.285  10.321   9.382 -0.2613 -0.7742  0.3309
  366MOL0     C50408   9.404  10.282   9.288  0.4322  0.3590 -0.4903
  366MOL0     C50409   9.368  10.210   9.164 -1.0729  1.0453 -0.2383
  366MOL0     C50410   9.375  10.048   9.183  0.0406  0.4727 -0.2912
  366MOL0     C50411   9.407   9.982   9.053  0.1089 -0.0783  0.3988
  366MOL0     C50412   9.406   9.830   9.071 -0.7189  0.0360  0.1285
  366MOL0     C50413   9.455   9.764   8.940  0.8119  0.5859  0.3761
  366MOL0     C50414   9.418   9.615   8.921 -0.1880 -0.5813  0.5263
  366MOL0    Cl50415   9.390   9.523   9.077  0.2324 -0.3214 -0.1381
  366MOL0     C50416   9.116  10.372   9.607  0.1228  0.2568 -0.5130
  366MOL0     C50417   9.032  10.352   9.720  0.0723  0.1413  0.7246
  366MOL0     O50418   9.065  10.499  10.037  0.5887  0.2857 -0.0364
  366MOL0     C50419   8.896  10.238  10.206  0.6579  0.4335 -0.8556
  366MOL0     C50420   8.851  10.201  10.340 -0.4901  0.1304  0.1353
  366MOL0     N50421   8.616   9.969  11.113  0.6037 -0.6294 -0.7822
  366MOL0     N50422   8.556   9.858  11.122 -0.2186  0.5495 -0.0436
  366MOL0     C50423   7.234   9.534  10.957 -0.8997 -0.7898  1.2084
  366MOL0     C50424   7.092   9.542  10.970 -1.0699 -0.3164  0.0317
  366MOL0     C50425   6.710   9.548  11.252 -0.0461  0.4301  0.4467
  366MOL0     C50426   6.680   9.534  11.383  0.8151  1.2714  0.5670
  366MOL0     C50427   6.564   9.589  11.431  0.2638  0.0515 -0.1688
  366MOL0     C50428   6.482   9.676  11.350  0.6135  0.9127 -0.5641
  366MOL0     O50429   6.373   9.727  11.412  0.1817 -0.1327 -0.5587
  366MOL0     C50430   6.288   9.824  11.331  0.8865  0.6315  0.3461
  366MOL0     C50431   6.156   9.811  11.409 -0.0720  0.5740 -0.9186
  366MOL0     C50432   6.132   9.885  11.545 -0.0007  0.6729  1.0804
  366MOL0     C50433   6.182  10.032  11.522 -0.8823  0.6397  0.4688
  366MOL0     C50434   6.321  10.052  11.540  0.3977 -0.2199 -0.0674
  366MOL0     C50435   6.436  10.089  11.572  0.8382  0.9294 -0.7480
  366MOL0     C50436   6.515   9.693  11.216 -0.0187 -0.4871 -0.8474
  366MOL0     C50437   6.631   9.619  11.169  0.7844 -0.2470  0.0359
  366MOL0     C50438   6.637   9.625  11.016  0.2625  0.4076 -1.6306
  366MOL0     H50439   7.077   9.490  11.298  3.3550 -0.7626  0.3466
  366MOL0     H50440   7.309   9.490  11.286 -1.5926  1.7678  1.7155
  366MOL0     H50441   7.515   9.403  11.238  0.8962 -0.9994 -0.6804
  366MOL0     H50442   7.516   9.576  11.215 -1.5549  0.0413  0.1937
  366MOL0     H50443   7.709   9.369  11.194 -0.4405  0.1354  1.1308
  366MOL0     H50444   7.699   9.407  11.022  3.1427 -1.1221  1.7429
  366MOL0     H50445   7.727   9.658  11.090 -0.5093 -0.0241  1.0883
  366MOL0     H50446   7.773   9.607  11.233 -1.6143 -0.3626  0.0438
  366MOL0     H50447   7.953   9.448  11.133 -4.6937 -1.0721  1.9619
  366MOL0     H50448   7.904   9.530  10.978  0.9399  0.6362 -0.2705
  366MOL0     H50449   8.034   9.667  11.220  2.5134  0.4939 -1.5015
  366MOL0     H50450   7.951   9.758  11.097  3.0606  1.8707  0.8126
  366MOL0     H50451   8.172   9.566  11.028 -2.2850 -1.0068 -0.4328
  366MOL0     H50452   8.096   9.672  10.924 -2.3624 -0.9910  0.6780
  366MOL0     H50453   8.252   9.743  11.181  0.7389 -1.3019 -0.2504
  366MOL0     H50454   8.203   9.864  11.065 -1.7157  0.3523  0.6052
  366MOL0     H50455   8.437   9.647  11.047 -0.1594 -0.4557 -1.1185
  366MOL0     H50456   8.357   9.715  10.900  2.1332 -2.0204  0.0466
  366MOL0     H50457   8.431   9.961  10.841 -0.0492  0.6163 -0.1967
  366MOL0     H50458   8.712  10.168  11.022 -2.4976 -1.3965  2.5034
  366MOL0     H50459   8.565  10.233  10.941 -0.1213  0.2206  0.5603
  366MOL0     H50460   8.796  10.227  10.823  0.0971  0.2555  1.2781
  366MOL0     H50461   8.760  10.043  10.823 -3.3594 -1.5455 -1.8480
  366MOL0     H50462   8.553  10.101  10.693  2.1416 -2.9428 -2.3994
  366MOL0     H50463   8.580  10.270  10.706 -1.3390 -0.5344 -2.5806
  366MOL0     H50464   8.782  10.065  10.582 -2.2620 -1.1130  2.8522
  366MOL0     H50465   8.650  10.128  10.489  1.3087 -2.0950 -0.9944
  366MOL0     H50466   8.865  10.503  10.487 -1.1816  1.4087 -1.0727
  366MOL0     H50467   8.891  10.668  10.343  0.7251  1.1023  0.1238
  366MOL0     H50468   8.873  10.637  10.168  4.0834  1.3680 -2.6948
  366MOL0     H50469   9.035  10.641  10.240 -1.1418  0.5134 -4.4096
  366MOL0     H50470   9.272  10.279   9.943  2.2124 -3.3864 -1.6855
  366MOL0     H50471   9.415  10.304   9.732 -1.3144 -2.7355  2.1796
  366MOL0     H50472   9.211  10.242   9.400 -1.4364  0.4876  1.2024
  366MOL0     H50473   9.238  10.408   9.335  1.9286  0.2867  0.0128
  366MOL0     H50474   9.459  10.369   9.251  1.4066 -1.2506 -3.1196
  366MOL0     H50475   9.474  10.220   9.345  0.3216 -0.4940 -1.2492
  366MOL0     H50476   9.431  10.236   9.079 -0.7899 -1.8538 -1.0324
  366MOL0     H50477   9.271  10.242   9.127 -2.8677 -2.0192  1.3297
  366MOL0     H50478   9.279  10.007   9.216 -1.0314 -0.8873 -4.4763
  366MOL0     H50479   9.451  10.024   9.259 -0.1381 -0.4633 -0.4064
  366MOL0     H50480   9.333  10.005   8.977 -1.9332 -0.6820  2.1039
  366MOL0     H50481   9.510  10.015   9.033  0.9555 -2.6728  0.0444
  366MOL0     H50482   9.305   9.796   9.095 -0.9586  1.4406  1.2148
  366MOL0     H50483   9.462   9.785   9.153  0.2843  0.0920 -0.5072
  366MOL0     H50484   9.562   9.782   8.946  1.0756 -0.7339 -0.1529
  366MOL0     H50485   9.415   9.814   8.851  0.8860  1.5106  0.8510
  366MOL0     H50486   9.494   9.573   8.855  1.0548  1.0592  0.8284
  366MOL0     H50487   9.325   9.612   8.864 -0.8095 -0.8496  1.5183
  366MOL0     H50488   9.076  10.389   9.508  0.0157 -1.9941 -0.9007
  366MOL0     H50489   8.927  10.355   9.694  0.9026  0.6044 -3.1412
  366MOL0     H50490   8.900  10.163  10.128 -0.8030  0.4215 -0.9466
  366MOL0     H50491   8.821  10.100  10.369  2.3222 -0.1570  2.6934
  366MOL0     H50492   7.271   9.568  10.861 -0.4300  1.5646  2.1484
  366MOL0     H50493   7.028   9.558  10.884 -1.7785 -3.6454 -0.1981
  366MOL0     H50494   6.751   9.483  11.448 -0.4948  1.1639  1.9473
  366MOL0     H50495   6.534   9.578  11.534 -3.4889  1.2339 -0.9676
  366MOL0     H50496   6.327   9.926  11.325 -1.7158  1.6126 -2.6171
  366MOL0     H50497   6.272   9.800  11.225 -0.1432 -1.3305  0.9038
  366MOL0     H50498   6.126   9.708  11.431  3.6432  0.2357  4.5652
  366MOL0     H50499   6.076   9.856  11.349 -0.3039  3.0622  1.0623
  366MOL0     H50500   6.029   9.881  11.583  0.3520  1.9103  2.2692
  366MOL0     H50501   6.185   9.820  11.616 -1.0761 -1.8006 -0.2421
  366MOL0     H50502   6.134  10.094  11.598 -0.4693 -1.4629  2.5576
  366MOL0     H50503   6.154  10.086  11.431  1.1866  0.7135 -0.1645
  366MOL0     H50504   6.539  10.114  11.589  0.2506  1.8722  1.9589
  366MOL0     H50505   6.449   9.750  11.151 -1.7057 -3.7770 -2.2728
  366MOL0     H50506   6.692   9.543  10.970  1.6738 -0.3799  1.2267
  366MOL0     H50507   6.544   9.660  10.970 -1.1171  0.3377  0.9182
  366MOL0     H50508   6.710   9.702  10.991  2.0941 -1.4868 -2.3795
  367MOL0     O50509   4.290   3.132   1.242 -0.1908 -0.3736 -0.7753
  367MOL0     C50510   4.206   3.127   1.148 -0.8416  0.4360  0.5726
  367MOL0     O50511   4.239   3.070   1.022  0.5465 -1.0368  0.0887
  367MOL0     C50512   4.366   3.020   1.011 -0.4935  0.2534 -0.4795
  367MOL0     C50513   4.381   2.892   1.028 -0.0261  0.5099 -0.0762
  367MOL0     C50514   4.505   2.833   1.028  0.3798 -0.2010  0.7102
  367MOL0     C50515   4.618   2.907   1.021 -0.5911 -0.1400 -0.5175
  367MOL0     O50516   4.750   2.867   1.007  0.4887 -0.0613 -0.2038
  367MOL0     C50517   4.769   2.721   1.002 -0.3233 -0.3912  0.8470
  367MOL0     C50518   4.916   2.687   0.998 -0.5577 -0.2349 -0.5175
  367MOL0     C50519   4.974   2.733   1.137  0.6494 -0.4844  0.2527
  367MOL0     C50520   5.127   2.721   1.120  0.4755  0.0458 -1.1463
  367MOL0     C50521   5.196   2.798   1.233  0.2116  0.5350 -0.1274
  367MOL0     C50522   5.350   2.801   1.244  0.3044  0.1703 -0.3953
  367MOL0     C50523   5.407   2.929   1.316 -0.5621 -0.2562 -0.2182
  367MOL0     C50524   5.558   2.928   1.334 -0.4539  0.7644 -0.3574
  367MOL0     N50525   5.633   2.938   1.208  0.0140  0.5585 -0.0736
  367MOL0     C50526   5.618   3.046   1.117 -0.0491  0.5409  0.2402
  367MOL0     C50527   5.720   3.025   1.027  0.7159 -0.5921 -0.3293
  367MOL0     C50528   5.750   3.097   0.897 -0.4725 -0.9607  0.3747
  367MOL0     C50529   5.897   3.136   0.892 -0.0758  0.9535  0.1649
  367MOL0     C50530   5.931   3.211   0.760 -0.7624 -0.2370 -0.0827
  367MOL0     C50531   6.074   3.280   0.767 -0.3699  0.8578 -0.5148
  367MOL0     O50532   6.174   3.172   0.761  0.4717  0.2117  0.0426
  367MOL0     C50533   6.304   3.222   0.748  0.2059  0.0209  1.4310
  367MOL0     C50534   6.359   3.279   0.631  0.4125  0.1726  0.4107
  367MOL0     C50535   6.492   3.306   0.634  0.0615 -0.6872  1.0085
  367MOL0     C50536   6.535   3.375   0.508 -0.2193 -0.6029 -0.5291
  367MOL0     C50537   6.575   3.264   0.746 -0.3166 -0.5667  0.2562
  367MOL0     C50538   6.725   3.271   0.751 -0.5744 -0.6913 -0.1440
  367MOL0     O50539   6.793   3.224   0.852 -0.3643 -0.1657  0.0043
  367MOL0     C50540   6.928   3.237   0.868 -0.5369  0.2895  0.9847
  367MOL0     C50541   7.023   3.190   0.780  1.3309 -0.4449 -0.9092
  367MOL0     C50542   7.160   3.207   0.805  0.5483 -0.9223  0.1724
  367MOL0     C50543   7.208   3.272   0.920  0.7508 -0.2666  0.6707
  367MOL0     O50544   7.338   3.289   0.960  0.0786 -0.8698 -0.5139
  367MOL0     C50545   7.451   3.234   0.882 -0.5373 -0.3396 -0.5979
  367MOL0     C50546   7.570   3.249   0.966 -0.0578 -0.1111 -0.0833
  367MOL0     C50547   7.682   3.211   0.883 -0.2476 -0.8455  0.5862
  367MOL0     C50548   7.818   3.228   0.961 -0.3514  0.5844  0.9440
  367MOL0     C50549   7.937   3.193   0.869  0.1656  0.6435 -1.6042
  367MOL0     C50550   8.063   3.247   0.926  0.4630  0.2447  0.5683
  367MOL0     C50551   8.194   3.192   0.853 -0.3901  0.7896  0.1681
  367MOL0     C50552   8.321   3.277   0.882 -0.1665  0.2231  1.0016
  367MOL0    Cl50553   8.426   3.187   0.993 -0.0475  0.7140 -0.1808
  367MOL0     C50554   7.106   3.327   1.008 -0.2942 -0.6448  0.0281
  367MOL0     C50555   6.971   3.310   0.975 -0.2170  0.2701 -0.1484
  367MOL0     O50556   6.786   3.322   0.651 -0.1453  0.1561  0.9816
  367MOL0     C50557   6.510   3.213   0.856 -0.7739  0.8837 -0.5123
  367MOL0     C50558   6.375   3.197   0.861  0.2204  0.5782  0.7405
  367MOL0     N50559   5.785   2.911   1.062  0.3236  0.3162 -0.0442
  367MOL0     N50560   5.746   2.871   1.175  1.1908 -0.1059  1.3231
  367MOL0     C50561   4.598   3.050   0.999 -0.5127 -0.0151  0.1895
  367MOL0     C50562   4.474   3.102   0.990 -0.3222 -0.7602 -0.8735
  367MOL0     C50563   4.073   3.188   1.165 -0.4041 -0.3767  0.9571
  367MOL0     C50564   4.023   3.267   1.057  0.1658 -0.1704  0.3090
  367MOL0     C50565   3.899   3.325   1.069 -0.0640 -0.4305  0.3878
  367MOL0     C50566   3.824   3.313   1.189  0.1197 -0.5113 -0.9909
  367MOL0     O50567   3.697   3.360   1.194  0.2521  0.4319  0.2677
  367MOL0     C50568   3.628   3.389   1.313  0.9544  0.0690  0.0988
  367MOL0     C50569   3.524   3.503   1.295 -0.2683  0.0230  0.2971
  367MOL0     C50570   3.453   3.538   1.430  0.4210 -0.1821  0.1777
  367MOL0     C50571   3.362   3.660   1.401 -0.1226  0.5016 -1.2065
  367MOL0     C50572   3.343   3.729   1.518  1.2364 -0.9694 -0.9403
  367MOL0     C50573   3.321   3.778   1.625  0.3114  0.9544 -0.2841
  367MOL0     C50574   3.881   3.242   1.292  0.1362 -0.0957  0.0666
  367MOL0     C50575   4.002   3.176   1.287  0.1809  0.2751 -0.2838
  367MOL0     C50576   4.052   3.090   1.407  0.5842  0.1432  0.0582
  367MOL0     H50577   4.297   2.824   1.041 -0.8619  1.9037  2.3171
  367MOL0     H50578   4.519   2.726   1.046  0.6883 -0.1671  0.6702
  367MOL0     H50579   4.739   2.685   0.904  0.7380 -0.2941  0.4770
  367MOL0     H50580   4.720   2.675   1.089  0.1391  1.8785  2.3843
  367MOL0     H50581   4.936   2.581   0.977 -1.1346 -0.2806 -0.8697
  367MOL0     H50582   4.959   2.736   0.910  1.6843 -0.7134  0.2301
  367MOL0     H50583   4.936   2.835   1.153 -2.8667 -1.3879 -1.2768
  367MOL0     H50584   4.944   2.664   1.216 -0.0433 -2.5591 -1.7201
  367MOL0     H50585   5.166   2.619   1.127  1.4871  0.4463 -0.8310
  367MOL0     H50586   5.162   2.782   1.036  2.7825  3.8684  2.2418
  367MOL0     H50587   5.149   2.751   1.320 -1.0260 -1.0095 -1.5485
  367MOL0     H50588   5.166   2.903   1.226 -0.6668  0.3586  0.7451
  367MOL0     H50589   5.379   2.719   1.311 -0.4696  1.7460  2.0110
  367MOL0     H50590   5.395   2.796   1.145  1.1919  0.0991  0.0025
  367MOL0     H50591   5.366   2.939   1.417  0.8520 -0.1208  0.3520
  367MOL0     H50592   5.384   3.016   1.254  2.9406  2.2174  1.6699
  367MOL0     H50593   5.594   3.016   1.389 -0.3267  0.8482 -0.5751
  367MOL0     H50594   5.580   2.832   1.381  1.6689  0.9462 -0.9131
  367MOL0     H50595   5.536   3.116   1.108 -0.2988  0.5836  2.3324
  367MOL0     H50596   5.682   3.182   0.886 -1.2812 -1.8501 -1.9301
  367MOL0     H50597   5.726   3.032   0.812  1.4760  0.5812 -1.4622
  367MOL0     H50598   5.920   3.205   0.973  0.1867 -0.1619  1.0577
  367MOL0     H50599   5.972   3.056   0.898 -1.7498 -0.5629  1.7398
  367MOL0     H50600   5.933   3.150   0.669  0.8382  0.6891 -0.6953
  367MOL0     H50601   5.864   3.297   0.751 -0.4482 -0.1089 -1.3909
  367MOL0     H50602   6.094   3.359   0.694 -3.1854  2.6215  0.4558
  367MOL0     H50603   6.087   3.320   0.868 -2.7976  1.6037 -0.4311
  367MOL0     H50604   6.290   3.303   0.551  0.3154 -1.8611 -0.1699
  367MOL0     H50605   6.448   3.409   0.451 -1.8096 -3.0125  0.3341
  367MOL0     H50606   6.606   3.321   0.444 -0.9123 -1.4748 -0.5892
  367MOL0     H50607   6.583   3.464   0.549 -1.0925 -1.1674  1.8917
  367MOL0     H50608   6.989   3.136   0.692 -0.2648  1.3058 -1.4509
  367MOL0     H50609   7.236   3.154   0.748 -1.5693 -3.5585 -0.4026
  367MOL0     H50610   7.448   3.126   0.863  1.8753 -0.9132  1.5959
  367MOL0     H50611   7.455   3.300   0.795  0.8440  1.7100  0.9222
  367MOL0     H50612   7.573   3.353   0.999  0.1133  0.6858 -2.4010
  367MOL0     H50613   7.559   3.186   1.055 -3.3693  1.6746  0.9440
  367MOL0     H50614   7.693   3.278   0.797  0.6295  3.6258  3.8267
  367MOL0     H50615   7.676   3.106   0.851 -3.0607 -1.9304  4.0439
  367MOL0     H50616   7.810   3.165   1.049 -0.0908 -0.4232  0.2648
  367MOL0     H50617   7.814   3.332   0.995 -1.5882  0.3722  1.5032
  367MOL0     H50618   7.956   3.085   0.863  1.4330  0.8595 -1.8154
  367MOL0     H50619   7.927   3.225   0.765  1.2784 -2.9777 -2.9848
  367MOL0     H50620   8.069   3.222   1.032 -2.3197  2.6203  1.4525
  367MOL0     H50621   8.061   3.355   0.909 -0.4923 -0.0240 -1.2339
  367MOL0     H50622   8.170   3.191   0.746 -2.5583 -2.8627  0.5208
  367MOL0     H50623   8.204   3.091   0.893 -3.4419  0.1499 -0.4376
  367MOL0     H50624   8.292   3.377   0.916 -3.0774 -0.7568  1.6737
  367MOL0     H50625   8.374   3.280   0.786 -3.0445 -0.9010 -0.7462
  367MOL0     H50626   7.144   3.402   1.077 -0.8772  0.9611 -1.3373
  367MOL0     H50627   6.903   3.347   1.052  0.9633  1.1565  0.4943
  367MOL0     H50628   6.565   3.195   0.948  0.8187 -1.1749 -1.7785
  367MOL0     H50629   6.310   3.157   0.938  1.5902  0.4512  1.8784
  367MOL0     H50630   4.680   3.118   0.979  0.5992 -1.8226 -1.8070
  367MOL0     H50631   4.461   3.209   0.974 -3.7627 -0.1731  3.7321
  367MOL0     H50632   4.081   3.280   0.966  2.5282 -3.7320  1.1026
  367MOL0     H50633   3.862   3.386   0.987  1.8354 -3.6453 -3.1105
  367MOL0     H50634   3.573   3.302   1.348 -2.3159  1.4414 -1.2082
  367MOL0     H50635   3.697   3.420   1.392 -0.2081  0.6753  0.8988
  367MOL0     H50636   3.455   3.472   1.216  1.0865 -1.3824 -0.3853
  367MOL0     H50637   3.568   3.594   1.255 -0.0304  0.1809  0.9024
  367MOL0     H50638   3.387   3.458   1.464 -0.2144  0.2841  0.0465
  367MOL0     H50639   3.526   3.552   1.510  2.9662  2.6195 -2.3822
  367MOL0     H50640   3.265   3.629   1.363 -1.3900 -0.5366  2.4843
  367MOL0     H50641   3.413   3.732   1.336  2.2208 -0.7576 -0.8909
  367MOL0     H50642   3.312   3.832   1.717  1.3302  0.9451 -0.1782
  367MOL0     H50643   3.816   3.221   1.376 -0.9876  1.6567 -0.3151
  367MOL0     H50644   3.984   3.085   1.493  0.9067  0.7239  0.3533
  367MOL0     H50645   4.079   2.988   1.379  0.8152  0.7905 -2.2042
  367MOL0     H50646   4.137   3.146   1.447 -1.6281  3.1839  0.8954
  368MOL0     O50647   3.444   2.680  10.773 -0.0629 -0.0765 -0.3122
  368MOL0     C50648   3.421   2.691  10.652 -0.8112 -0.7576 -0.3477
  368MOL0     O50649   3.521   2.713  10.558 -0.7151  0.2364 -0.5510
  368MOL0     C50650   3.650   2.743  10.587  0.6084 -0.8429 -0.4683
  368MOL0     C50651   3.686   2.825  10.696 -0.1782  0.5315 -0.0758
  368MOL0     C50652   3.817   2.825  10.727 -0.6600  0.4099 -0.1350
  368MOL0     C50653   3.909   2.766  10.646 -0.4034 -0.1771 -0.5347
  368MOL0     O50654   4.052   2.778  10.664  1.0758 -0.3366  0.0592
  368MOL0     C50655   4.091   2.756  10.804  1.2305 -0.2419  0.9526
  368MOL0     C50656   4.204   2.858  10.839 -0.5641 -0.5127  0.6545
  368MOL0     C50657   4.149   3.000  10.823 -0.2861  0.4962 -0.5764
  368MOL0     C50658   4.249   3.114  10.853 -0.5080  0.1040  0.4757
  368MOL0     C50659   4.293   3.177  10.725  0.5031  0.0964  0.5106
  368MOL0     C50660   4.363   3.080  10.634  0.1712 -0.6465 -0.3013
  368MOL0     C50661   4.421   3.138  10.507  0.8125 -0.0648 -0.0405
  368MOL0     C50662   4.536   3.230  10.512  0.0039 -1.2829 -0.3047
  368MOL0     N50663   4.623   3.193  10.630  0.3716  0.0482 -0.4369
  368MOL0     C50664   4.733   3.109  10.627 -0.4383 -0.5103  0.1137
  368MOL0     C50665   4.791   3.126  10.748 -0.5236  0.3482 -0.4261
  368MOL0     C50666   4.905   3.048  10.808 -0.2652  0.1801 -0.0015
  368MOL0     C50667   4.996   3.000  10.694  0.2525  1.2078  0.0279
  368MOL0     C50668   5.083   3.118  10.650 -0.3797 -0.7120  0.3117
  368MOL0     C50669   5.137   3.091  10.506 -0.6615  0.4242 -0.7026
  368MOL0     O50670   5.043   3.085  10.402  1.0943 -0.1308  0.1595
  368MOL0     C50671   5.037   3.194  10.321  0.2814 -0.0816 -1.3159
  368MOL0     C50672   5.140   3.233  10.236 -0.1119  0.3572 -0.0085
  368MOL0     C50673   5.127   3.351  10.157 -0.0356 -0.1344  1.7365
  368MOL0     C50674   5.257   3.360  10.070  0.1589  0.4796 -0.9269
  368MOL0     C50675   5.022   3.436  10.163 -1.0387  0.2996  0.0646
  368MOL0     C50676   5.016   3.561  10.096  0.6786 -1.0191  0.2017
  368MOL0     O50677   4.896   3.608  10.084 -0.4860 -0.0622  0.2093
  368MOL0     C50678   4.870   3.719  10.016 -0.0588 -0.6948 -0.5153
  368MOL0     C50679   4.876   3.847  10.083 -1.1490  0.5585 -0.8055
  368MOL0     C50680   4.848   3.966  10.006 -0.0024  0.1038  0.0688
  368MOL0     C50681   4.828   3.954   9.868  0.2619 -0.2816 -0.0224
  368MOL0     O50682   4.805   4.059   9.783  0.3543  0.3739  0.4767
  368MOL0     C50683   4.777   4.194   9.826  0.0454  0.3801  0.5164
  368MOL0     C50684   4.676   4.244   9.723  0.0867 -0.1029  0.1647
  368MOL0     C50685   4.602   4.369   9.777 -0.1128 -0.5252 -0.0289
  368MOL0     C50686   4.688   4.486   9.824 -0.9522 -0.6374 -0.5481
  368MOL0     C50687   4.767   4.559   9.715  0.4686  0.2209 -0.5594
  368MOL0     C50688   4.676   4.635   9.619  0.2354 -0.0947 -0.6275
  368MOL0     C50689   4.766   4.713   9.523 -0.0798  0.1839 -0.5161
  368MOL0     C50690   4.672   4.791   9.427 -0.1956  1.0701  0.3971
  368MOL0    Cl50691   4.584   4.915   9.526  0.5824 -0.2267 -0.1257
  368MOL0     C50692   4.847   3.831   9.800 -0.2709 -0.0528  0.5664
  368MOL0     C50693   4.857   3.712   9.876 -0.1618 -0.4453 -0.6359
  368MOL0     O50694   5.121   3.609  10.046 -0.0507  0.1054 -0.6073
  368MOL0     C50695   4.920   3.396  10.253 -0.3929  0.0137 -0.1646
  368MOL0     C50696   4.927   3.271  10.324 -0.5640 -0.8905  0.2501
  368MOL0     N50697   4.728   3.225  10.818 -0.2441  0.3540  0.1559
  368MOL0     N50698   4.633   3.265  10.744 -0.0629 -0.0625  0.4818
  368MOL0     C50699   3.873   2.683  10.538 -0.2756 -0.1972 -0.2726
  368MOL0     C50700   3.741   2.672  10.503  0.0209  0.6969 -0.3656
  368MOL0     C50701   3.282   2.669  10.611  0.2085  0.6267  0.4580
  368MOL0     C50702   3.183   2.653  10.712  0.2725 -0.3786  0.6195
  368MOL0     C50703   3.046   2.634  10.674 -0.3333 -0.0131  0.2493
  368MOL0     C50704   2.998   2.608  10.546 -0.1809  0.0235  0.8784
  368MOL0     O50705   2.865   2.576  10.524  0.8513  0.5581 -0.2633
  368MOL0     C50706   2.834   2.546  10.384  0.6148 -0.1632  0.1294
  368MOL0     C50707   2.686   2.540  10.361 -0.1123 -0.2796 -0.5379
  368MOL0     C50708   2.667   2.505  10.217  0.1279 -0.5179 -0.0721
  368MOL0     C50709   2.674   2.632  10.129 -0.3619  0.3263 -0.1377
  368MOL0     C50710   2.653   2.573   9.996 -0.3169 -0.3185  0.1190
  368MOL0     C50711   2.636   2.518   9.886 -1.3752 -0.4100  0.7205
  368MOL0     C50712   3.094   2.625  10.442  0.5313  0.8721 -0.6629
  368MOL0     C50713   3.235   2.663  10.473 -0.3250  0.0933  0.1697
  368MOL0     C50714   3.324   2.674  10.354 -0.3347  0.2416 -0.4469
  368MOL0     H50715   3.606   2.858  10.762 -0.1163 -0.2420  0.4005
  368MOL0     H50716   3.838   2.873  10.822  2.2946 -0.8548 -0.0538
  368MOL0     H50717   4.131   2.655  10.815  1.9510  0.0470  1.1064
  368MOL0     H50718   4.014   2.775  10.879  0.2525 -0.6861  0.0740
  368MOL0     H50719   4.248   2.841  10.938  0.9906  2.3393  0.5538
  368MOL0     H50720   4.289   2.852  10.770 -2.1816 -1.8016 -1.3446
  368MOL0     H50721   4.095   3.013  10.729 -0.2793  1.7075 -0.4344
  368MOL0     H50722   4.075   3.011  10.903 -0.6770 -2.4893 -0.4031
  368MOL0     H50723   4.184   3.188  10.902 -3.2077 -0.3394 -2.1796
  368MOL0     H50724   4.327   3.079  10.921  0.8195  1.4254 -0.3084
  368MOL0     H50725   4.358   3.264  10.741  1.2291 -0.2357 -0.5169
  368MOL0     H50726   4.204   3.216  10.674 -0.1076 -2.6087 -0.6745
  368MOL0     H50727   4.444   3.034  10.692  0.4552  2.1450  1.7068
  368MOL0     H50728   4.301   2.995  10.605 -1.0385  0.7684 -2.0667
  368MOL0     H50729   4.349   3.185  10.440  2.8375  3.5594  0.0607
  368MOL0     H50730   4.449   3.046  10.455  2.4690 -0.9371  2.2027
  368MOL0     H50731   4.589   3.235  10.417 -0.2467 -2.2707 -0.4998
  368MOL0     H50732   4.508   3.334  10.535  0.2835 -0.9896 -1.2754
  368MOL0     H50733   4.746   3.036  10.547 -0.8559 -0.9944  0.4772
  368MOL0     H50734   4.860   2.956  10.846  0.6644 -0.8893 -1.4051
  368MOL0     H50735   4.950   3.112  10.885 -3.4426  1.7566  0.7229
  368MOL0     H50736   5.058   2.916  10.727 -2.2469 -0.0151  1.9473
  368MOL0     H50737   4.941   2.973  10.603  2.4042  0.2249 -1.0363
  368MOL0     H50738   5.033   3.215  10.649 -0.5389 -0.7956  0.0846
  368MOL0     H50739   5.166   3.132  10.719  2.1772 -3.1009 -2.0181
  368MOL0     H50740   5.211   3.169  10.487  2.1269 -0.3673  4.8083
  368MOL0     H50741   5.193   2.999  10.522 -0.3783  1.0429  2.5571
  368MOL0     H50742   5.223   3.163  10.242  0.0731  0.5774 -0.0090
  368MOL0     H50743   5.231   3.381   9.966 -2.2020 -3.0366 -1.2104
  368MOL0     H50744   5.315   3.268  10.080  2.7761  2.3083  3.9745
  368MOL0     H50745   5.325   3.440  10.100  0.4301  1.2314 -3.3009
  368MOL0     H50746   4.894   3.851  10.190  2.5368 -0.7084 -1.2418
  368MOL0     H50747   4.853   4.063  10.054  3.3378  0.9587 -1.6958
  368MOL0     H50748   4.731   4.196   9.925 -2.6447 -2.0473 -0.5182
  368MOL0     H50749   4.865   4.258   9.820  0.1063  0.2175 -0.6714
  368MOL0     H50750   4.731   4.265   9.631 -1.3222 -1.0571 -0.9322
  368MOL0     H50751   4.604   4.169   9.692  2.6660 -3.9058  2.4634
  368MOL0     H50752   4.551   4.332   9.866  0.1220 -3.3395 -0.9825
  368MOL0     H50753   4.520   4.405   9.714  0.7118  0.1126 -0.7779
  368MOL0     H50754   4.743   4.443   9.908  2.5715 -0.3835 -2.5161
  368MOL0     H50755   4.622   4.556   9.876  2.3503  1.0826  1.6886
  368MOL0     H50756   4.827   4.628   9.775  1.6519 -1.8370  0.7276
  368MOL0     H50757   4.833   4.492   9.660 -0.7595 -1.6908  0.1644
  368MOL0     H50758   4.608   4.693   9.682 -1.1822 -0.8230 -1.4555
  368MOL0     H50759   4.607   4.569   9.567 -2.1229  0.6375  1.4045
  368MOL0     H50760   4.832   4.641   9.474 -1.1605 -1.2292  0.0121
  368MOL0     H50761   4.834   4.781   9.575 -1.8825  1.2359  0.5663
  368MOL0     H50762   4.607   4.717   9.380  2.2023 -2.3359  2.0966
  368MOL0     H50763   4.726   4.850   9.352 -1.8077  1.0570 -0.8258
  368MOL0     H50764   4.847   3.822   9.692  4.6551 -1.8544  0.4817
  368MOL0     H50765   4.846   3.612   9.833 -3.8098  1.0197 -3.7056
  368MOL0     H50766   4.838   3.465  10.272 -1.0065 -1.1400  1.7240
  368MOL0     H50767   4.844   3.239  10.386 -0.2209 -0.1537  1.1099
  368MOL0     H50768   3.949   2.644  10.472  1.1162  0.9099  0.5960
  368MOL0     H50769   3.717   2.621  10.411  2.2698  2.1466 -1.8743
  368MOL0     H50770   3.190   2.642  10.820 -2.7458  0.4491  1.0211
  368MOL0     H50771   2.970   2.612  10.747  0.3395  1.5109  1.4655
  368MOL0     H50772   2.867   2.629  10.321  2.1770 -0.0710  1.0162
  368MOL0     H50773   2.877   2.449  10.358  1.4981  0.0680  0.6647
  368MOL0     H50774   2.641   2.634  10.393  0.2993 -1.2003  3.1213
  368MOL0     H50775   2.639   2.464  10.424  0.7065  0.8748  1.5543
  368MOL0     H50776   2.734   2.426  10.182  2.2628  1.6120 -1.0874
  368MOL0     H50777   2.566   2.463  10.214 -0.2960  0.3314  1.3823
  368MOL0     H50778   2.777   2.670  10.138 -0.8274  1.0438  3.8690
  368MOL0     H50779   2.595   2.697  10.166  0.4938  1.1268  0.3172
  368MOL0     H50780   2.640   2.458   9.797  2.9404  0.0743  0.3487
  368MOL0     H50781   3.078   2.622  10.335  2.1386  1.9674 -0.9603
  368MOL0     H50782   3.279   2.668  10.255  1.5797 -3.2711 -1.2820
  368MOL0     H50783   3.378   2.769  10.355 -0.4581  0.4005 -2.7901
  368MOL0     H50784   3.406   2.602  10.364  0.4762  1.2439  0.3915
  369MOL0     O50785   0.928   9.758   7.497  0.1541 -0.5369 -0.6820
  369MOL0     C50786   0.848   9.698   7.566  0.0857 -0.2876  0.1590
  369MOL0     O50787   0.859   9.566   7.598 -0.0622  0.3331  0.6003
  369MOL0     C50788   0.980   9.503   7.588  0.5527 -0.2394 -0.7125
  369MOL0     C50789   1.070   9.532   7.694  0.0546 -0.5401  0.3378
  369MOL0     C50790   1.190   9.462   7.708 -0.2282  0.1962 -0.0716
  369MOL0     C50791   1.223   9.380   7.602 -0.4938  0.2116  0.2885
  369MOL0     O50792   1.331   9.296   7.604  0.1633 -0.1832 -0.3269
  369MOL0     C50793   1.446   9.332   7.688  0.1447  0.5555  0.0345
  369MOL0     C50794   1.552   9.234   7.653 -0.1494 -0.4007 -1.1735
  369MOL0     C50795   1.689   9.301   7.628  0.1554  0.7283 -0.3759
  369MOL0     C50796   1.799   9.199   7.622 -0.1594 -0.3775  0.2163
  369MOL0     C50797   1.942   9.253   7.613  0.2462  0.1627  0.4467
  369MOL0     C50798   2.028   9.130   7.599  0.1659 -0.2042 -0.5963
  369MOL0     C50799   2.167   9.178   7.581 -0.1435 -0.2305 -0.5713
  369MOL0     C50800   2.275   9.066   7.584  0.5892 -0.7609 -0.3870
  369MOL0     N50801   2.406   9.131   7.569 -0.5385  0.8100 -0.2137
  369MOL0     C50802   2.476   9.210   7.658  0.6386 -0.0595  0.4635
  369MOL0     C50803   2.586   9.248   7.595  0.8744  0.5950  0.1396
  369MOL0     C50804   2.692   9.339   7.643 -0.4094 -0.5799  0.2567
  369MOL0     C50805   2.834   9.321   7.574  1.0065 -1.0430 -0.4979
  369MOL0     C50806   2.888   9.182   7.608 -0.1838  0.2040  0.2068
  369MOL0     C50807   2.940   9.166   7.756 -0.2152 -0.8336 -0.0276
  369MOL0     O50808   3.062   9.244   7.782  0.4280  0.0311  0.1096
  369MOL0     C50809   3.176   9.195   7.723 -0.9592 -1.3801 -0.0740
  369MOL0     C50810   3.201   9.063   7.668 -0.1685  0.5324  0.5733
  369MOL0     C50811   3.328   9.027   7.611  0.6255 -1.3219  0.0258
  369MOL0     C50812   3.347   8.878   7.581 -0.1330  0.6358  0.1802
  369MOL0     C50813   3.429   9.128   7.607 -0.3120 -0.2578 -0.3628
  369MOL0     C50814   3.573   9.095   7.562  0.3552  0.2480  0.2115
  369MOL0     O50815   3.642   9.204   7.509 -0.4511  0.1323 -0.4576
  369MOL0     C50816   3.777   9.193   7.494  0.5949 -0.2692 -0.2287
  369MOL0     C50817   3.855   9.112   7.577 -0.2713  0.0628 -0.5468
  369MOL0     C50818   3.997   9.101   7.566  0.0029  0.6073  0.6576
  369MOL0     C50819   4.058   9.165   7.450  0.9119  0.1236 -0.6977
  369MOL0     O50820   4.193   9.152   7.448 -0.3385 -0.3807 -0.1252
  369MOL0     C50821   4.267   9.240   7.363  0.3259  0.7955  0.0568
  369MOL0     C50822   4.411   9.257   7.395 -0.2992 -0.0776 -0.1374
  369MOL0     C50823   4.490   9.129   7.344 -0.6393  0.3667  0.9714
  369MOL0     C50824   4.641   9.156   7.354  0.3651 -0.4174  0.1691
  369MOL0     C50825   4.706   9.021   7.310 -0.2759  0.3179  0.7766
  369MOL0     C50826   4.853   9.042   7.272 -0.6131  0.0736  0.5442
  369MOL0     C50827   4.908   8.928   7.193  0.1555  0.0405  0.4428
  369MOL0     C50828   5.042   8.965   7.147  0.0759 -0.1007  0.2256
  369MOL0    Cl50829   5.026   9.066   6.997 -0.2829 -0.1045  0.1653
  369MOL0     C50830   3.974   9.230   7.356 -0.2564 -0.4422 -0.5712
  369MOL0     C50831   3.839   9.235   7.376  0.3983 -0.5570  0.3756
  369MOL0     O50832   3.611   8.980   7.562  0.4766 -0.3543 -0.6337
  369MOL0     C50833   3.393   9.259   7.644  0.0220  0.7565 -0.1385
  369MOL0     C50834   3.272   9.286   7.708 -0.2924 -0.1273  0.8917
  369MOL0     N50835   2.581   9.189   7.471 -0.2232  0.2086  0.2215
  369MOL0     N50836   2.476   9.109   7.457 -0.2156 -0.2065  0.3917
  369MOL0     C50837   1.131   9.355   7.501 -0.0740  0.0169  0.8759
  369MOL0     C50838   1.011   9.411   7.495  0.2125 -0.3744 -0.2229
  369MOL0     C50839   0.731   9.769   7.609  0.2756  0.0916  0.0580
  369MOL0     C50840   0.691   9.881   7.540  0.3255  0.7453  0.2461
  369MOL0     C50841   0.575   9.949   7.565  1.1532  0.0765 -0.2531
  369MOL0     C50842   0.488   9.919   7.669 -0.0300  0.0314 -0.7063
  369MOL0     O50843   0.382  10.013   7.677  0.9855  0.4726 -0.5960
  369MOL0     C50844   0.313  10.038   7.804 -0.0980  0.2331 -0.3567
  369MOL0     C50845   0.245  10.175   7.790  0.1493 -0.2574  1.2576
  369MOL0     C50846   0.176  10.212   7.913  0.8882 -0.3479 -0.0869
  369MOL0     C50847   0.077  10.336   7.899 -0.8159  0.0289 -0.7107
  369MOL0     C50848   0.015  10.359   8.028  0.7187  0.8897 -0.3465
  369MOL0     C50849  -0.043  10.380   8.134  0.3919  0.2252  0.3865
  369MOL0     C50850   0.524   9.806   7.747  1.1538 -0.4759  0.1230
  369MOL0     C50851   0.645   9.737   7.719  0.5811  0.1866 -0.5731
  369MOL0     C50852   0.693   9.628   7.808  0.0183  0.2580 -0.4070
  369MOL0     H50853   1.040   9.597   7.776  0.4762 -0.8481  0.7384
  369MOL0     H50854   1.238   9.497   7.798  0.3970  1.0913 -0.7348
  369MOL0     H50855   1.415   9.316   7.791 -3.8319 -2.1103 -1.3180
  369MOL0     H50856   1.481   9.430   7.652  0.2126 -0.9159 -4.5686
  369MOL0     H50857   1.563   9.154   7.726 -1.0391  0.9869  0.5555
  369MOL0     H50858   1.531   9.180   7.560  1.4787  0.9712 -2.4025
  369MOL0     H50859   1.693   9.364   7.539  1.6072  2.3465  0.7815
  369MOL0     H50860   1.706   9.365   7.714  1.0892  0.8233 -0.6224
  369MOL0     H50861   1.802   9.129   7.706 -0.3420 -2.4441 -1.4106
  369MOL0     H50862   1.781   9.133   7.536 -1.1297 -0.3453  0.3741
  369MOL0     H50863   1.977   9.307   7.701  2.6603 -0.0828 -0.3020
  369MOL0     H50864   1.947   9.318   7.525  0.4429 -1.2504 -0.6244
  369MOL0     H50865   2.013   9.069   7.688 -0.4559 -0.8575 -1.1393
  369MOL0     H50866   1.995   9.068   7.515  1.4169  0.7361 -1.8342
  369MOL0     H50867   2.187   9.256   7.655  1.0773  0.4294 -1.5735
  369MOL0     H50868   2.181   9.225   7.484  3.7988 -3.0011 -1.5681
  369MOL0     H50869   2.276   9.015   7.681 -0.6994  2.7357  1.6664
  369MOL0     H50870   2.245   8.988   7.513 -1.3902  0.5531 -1.0856
  369MOL0     H50871   2.440   9.236   7.757  1.4141 -1.3912  1.1243
  369MOL0     H50872   2.709   9.329   7.751  0.2523  0.2619  0.2402
  369MOL0     H50873   2.649   9.437   7.620  0.0745 -0.7791 -1.7005
  369MOL0     H50874   2.824   9.323   7.465  2.1049 -0.0097 -0.6026
  369MOL0     H50875   2.899   9.402   7.608  1.3389 -2.0376  1.4057
  369MOL0     H50876   2.805   9.112   7.593  1.4170 -1.4473 -1.3919
  369MOL0     H50877   2.976   9.161   7.547 -0.9404  2.5095 -1.8209
  369MOL0     H50878   2.870   9.194   7.835 -0.6829 -3.4639  0.5756
  369MOL0     H50879   2.952   9.059   7.774 -2.3860 -1.2340 -0.5848
  369MOL0     H50880   3.132   8.981   7.685  0.1548 -0.8862 -3.8740
  369MOL0     H50881   3.261   8.820   7.614  0.2054 -1.1681 -1.8971
  369MOL0     H50882   3.431   8.828   7.630 -0.8676 -1.5906 -0.7117
  369MOL0     H50883   3.361   8.851   7.476 -2.5899 -0.8510  0.1625
  369MOL0     H50884   3.812   9.061   7.663 -1.7230 -0.0992 -1.3309
  369MOL0     H50885   4.056   9.034   7.627  0.9984  0.5047 -0.3984
  369MOL0     H50886   4.264   9.192   7.265  1.5727 -0.5168  0.6227
  369MOL0     H50887   4.226   9.341   7.359 -1.9025 -0.0793 -0.8108
  369MOL0     H50888   4.455   9.349   7.354 -2.7294  1.8986  1.3725
  369MOL0     H50889   4.414   9.248   7.504  5.6555 -0.9495 -0.0356
  369MOL0     H50890   4.473   9.103   7.239  0.0730 -1.1179  1.2039
  369MOL0     H50891   4.477   9.039   7.404 -0.9859  1.5592  2.7866
  369MOL0     H50892   4.681   9.203   7.444 -1.8314  3.9337 -0.8523
  369MOL0     H50893   4.675   9.231   7.282  0.7242 -0.2872  0.4711
  369MOL0     H50894   4.698   8.952   7.394 -1.9670 -0.2352  0.1957
  369MOL0     H50895   4.656   8.972   7.225 -1.1579  0.2298  1.3403
  369MOL0     H50896   4.917   9.058   7.359  1.2535  0.0909 -0.7574
  369MOL0     H50897   4.849   9.136   7.216 -1.8375  0.6393  1.5388
  369MOL0     H50898   4.841   8.913   7.107  0.1377  0.9870  0.2805
  369MOL0     H50899   4.913   8.834   7.247  2.5037 -0.9178 -1.2550
  369MOL0     H50900   5.089   8.872   7.115 -2.4409 -1.1525 -0.6729
  369MOL0     H50901   5.104   9.012   7.225 -0.5032 -1.4852  1.5774
  369MOL0     H50902   4.011   9.292   7.275 -0.6288  1.6334  0.7749
  369MOL0     H50903   3.769   9.278   7.306  1.6079 -1.4943 -1.4794
  369MOL0     H50904   3.468   9.335   7.626  1.2163 -0.5983 -1.2240
  369MOL0     H50905   3.256   9.387   7.743 -0.0301  1.2008 -2.4614
  369MOL0     H50906   1.142   9.293   7.412  0.9334  1.1158  0.2110
  369MOL0     H50907   0.931   9.387   7.426  0.2899 -0.2272 -0.3639
  369MOL0     H50908   0.746   9.920   7.455  0.5247 -0.7495 -0.3431
  369MOL0     H50909   0.544  10.024   7.492 -0.0113 -0.2059 -0.0758
  369MOL0     H50910   0.242   9.957   7.823 -0.8717  1.2326  1.1185
  369MOL0     H50911   0.390  10.040   7.881 -0.1577 -3.4909 -0.0053
  369MOL0     H50912   0.179  10.171   7.703  3.8421  1.5728 -1.9572
  369MOL0     H50913   0.314  10.256   7.765 -2.2932  1.2707 -1.0186
  369MOL0     H50914   0.118  10.121   7.934 -2.4514  1.5459 -0.3945
  369MOL0     H50915   0.236  10.229   8.002 -1.1127 -0.7238  1.4015
  369MOL0     H50916   0.002  10.311   7.823  0.8037 -3.5714 -1.3453
  369MOL0     H50917   0.141  10.421   7.874 -0.2008 -0.1209  0.3043
  369MOL0     H50918  -0.085  10.397   8.231  2.5197 -1.6023  1.6911
  369MOL0     H50919   0.477   9.769   7.838 -0.0127 -2.0167 -1.0482
  369MOL0     H50920   0.800   9.633   7.830  0.6999 -2.1208 -2.7372
  369MOL0     H50921   0.636   9.630   7.902  0.3318  2.0939 -0.2227
  369MOL0     H50922   0.678   9.528   7.766  4.8985 -0.4829 -0.9229
  370MOL0     O50923   2.355   7.552  10.781  0.4348 -0.4630 -0.0882
  370MOL0     C50924   2.240   7.588  10.750 -0.1133 -0.2659 -0.6375
  370MOL0     O50925   2.210   7.705  10.691 -0.1294 -0.4165 -0.1323
  370MOL0     C50926   2.302   7.805  10.682  0.7402 -0.2990 -0.1720
  370MOL0     C50927   2.312   7.871  10.566  0.3745 -0.0813  0.9075
  370MOL0     C50928   2.389   7.988  10.554  0.6877  0.3064  0.6718
  370MOL0     C50929   2.468   8.034  10.663 -0.7341  0.1259  0.8832
  370MOL0     O50930   2.553   8.144  10.664  0.3136 -0.1038 -0.7917
  370MOL0     C50931   2.592   8.211  10.545 -0.4152  0.3600 -0.4276
  370MOL0     C50932   2.477   8.294  10.489  0.3072  0.9039  0.3436
  370MOL0     C50933   2.465   8.430  10.571  0.2756 -1.0612  0.0828
  370MOL0     C50934   2.426   8.543  10.487 -0.0164 -0.8135  0.9892
  370MOL0     C50935   2.383   8.669  10.565  0.8733  0.0885  0.0993
  370MOL0     C50936   2.308   8.767  10.468 -0.2885  0.1117 -0.0145
  370MOL0     C50937   2.306   8.923  10.506 -0.9309  0.2525 -0.2086
  370MOL0     C50938   2.217   9.012  10.422 -0.3478  0.1614 -0.6861
  370MOL0     N50939   2.213   9.149  10.471  0.7332 -0.8710  0.4292
  370MOL0     C50940   2.292   9.245  10.414 -0.0205  0.3503 -0.3793
  370MOL0     C50941   2.236   9.353  10.479 -0.7102 -0.6706  1.0114
  370MOL0     C50942   2.263   9.501  10.445 -0.7582  0.6594  0.4311
  370MOL0     C50943   2.166   9.560  10.340  0.3058 -0.1835  0.7492
  370MOL0     C50944   2.160   9.714  10.343 -0.2967  0.9243  0.4809
  370MOL0     C50945   2.262   9.772  10.243 -0.1776  0.4376 -0.6955
  370MOL0     O50946   2.383   9.753  10.320 -0.4471 -0.4476 -0.0340
  370MOL0     C50947   2.500   9.786  10.253  0.1286 -0.1488 -0.1029
  370MOL0     C50948   2.500   9.833  10.121  0.5685  0.9890 -0.0456
  370MOL0     C50949   2.622   9.845  10.048  0.0864  0.0856 -0.4221
  370MOL0     C50950   2.618   9.897   9.908 -0.1533  0.4552  0.6384
  370MOL0     C50951   2.744   9.815  10.118  0.0908 -0.7238  0.7190
  370MOL0     C50952   2.882   9.838  10.061 -0.3774 -0.0980  0.5720
  370MOL0     O50953   2.969   9.927  10.120  0.3057  0.3147  1.4356
  370MOL0     C50954   3.099   9.920  10.089  0.1244 -0.3972  1.3929
  370MOL0     C50955   3.144  10.008   9.998 -0.5222 -1.0301 -0.2238
  370MOL0     C50956   3.278  10.009   9.956  0.2494  0.1341 -0.0698
  370MOL0     C50957   3.363   9.910  10.002 -0.2263 -0.5354 -0.9601
  370MOL0     O50958   3.505   9.925   9.971 -0.2707  1.0930  0.3927
  370MOL0     C50959   3.600   9.849  10.048  0.6256  0.1313  0.3302
  370MOL0     C50960   3.736   9.901  10.012  0.1738 -0.4614  0.4146
  370MOL0     C50961   3.766   9.872   9.858 -0.3024 -0.0778 -0.1484
  370MOL0     C50962   3.908   9.920   9.809  0.0195 -0.7815 -0.2846
  370MOL0     C50963   3.933   9.906   9.661  0.6433  0.1193  0.6928
  370MOL0     C50964   3.945   9.762   9.613 -0.8114 -0.3313 -0.3032
  370MOL0     C50965   4.009   9.745   9.483 -0.2336 -0.0030  0.2222
  370MOL0     C50966   3.973   9.610   9.418 -0.1192 -0.4152  1.0928
  370MOL0    Cl50967   4.039   9.603   9.261 -0.0880  0.0573  0.5099
  370MOL0     C50968   3.317   9.823  10.104 -0.4888  0.0913  0.2371
  370MOL0     C50969   3.185   9.821  10.140  1.4537  0.7729 -0.1911
  370MOL0     O50970   2.912   9.761   9.969  0.7929  0.3815 -0.1376
  370MOL0     C50971   2.745   9.779  10.254 -1.4781 -0.3537  0.3279
  370MOL0     C50972   2.620   9.761  10.317  0.1454  1.2295 -0.3259
  370MOL0     N50973   2.128   9.321  10.554  0.5659 -0.0856  0.0678
  370MOL0     N50974   2.120   9.193  10.559 -0.2637 -0.7945 -0.0624
  370MOL0     C50975   2.463   7.964  10.776 -1.1180 -0.4959 -0.2241
  370MOL0     C50976   2.380   7.847  10.791  0.3652  0.4786 -0.0006
  370MOL0     C50977   2.133   7.493  10.772  0.1601  0.1169 -0.2516
  370MOL0     C50978   2.000   7.537  10.755  0.0377 -1.1627 -0.2085
  370MOL0     C50979   1.892   7.453  10.780  0.4857  1.0474 -0.2019
  370MOL0     C50980   1.908   7.322  10.828 -0.2728 -0.6043 -0.0352
  370MOL0     O50981   1.805   7.252  10.864 -0.0500  0.3018  0.1131
  370MOL0     C50982   1.754   7.151  10.769  0.2704  0.2625  0.5195
  370MOL0     C50983   1.612   7.135  10.816 -0.3873  0.0683  0.1562
  370MOL0     C50984   1.549   7.015  10.764  0.0378  0.2973 -0.2968
  370MOL0     C50985   1.606   6.895  10.833  0.0360 -0.7724  0.0170
  370MOL0     C50986   1.517   6.787  10.808  0.2667 -0.6333  0.8672
  370MOL0     C50987   1.430   6.710  10.773 -0.7518 -0.8757  1.0713
  370MOL0     C50988   2.040   7.277  10.827  0.3164  0.3736 -0.3470
  370MOL0     C50989   2.148   7.354  10.803 -0.2703  0.0068 -0.6303
  370MOL0     C50990   2.280   7.287  10.821  0.3540  0.0511  0.5103
  370MOL0     H50991   2.249   7.845  10.481  0.5760  2.2194 -0.0285
  370MOL0     H50992   2.389   8.037  10.457  1.1972 -1.7634 -0.4285
  370MOL0     H50993   2.630   8.148  10.464 -1.8422  0.6901 -1.3947
  370MOL0     H50994   2.681   8.266  10.575  0.1290 -0.8528  0.2387
  370MOL0     H50995   2.496   8.316  10.383 -0.3861 -1.4876 -0.3341
  370MOL0     H50996   2.380   8.244  10.489  0.8668 -0.2341  1.3315
  370MOL0     H50997   2.379   8.424  10.638 -0.0659 -1.0070 -0.3446
  370MOL0     H50998   2.552   8.444  10.636 -0.2347 -2.0325  0.9987
  370MOL0     H50999   2.507   8.560  10.416  0.0996 -1.9197  0.8350
  370MOL0     H51000   2.332   8.509  10.442  1.7055 -2.4463 -1.6771
  370MOL0     H51001   2.479   8.709  10.599  3.7038 -2.2663 -4.2143
  370MOL0     H51002   2.323   8.650  10.654 -2.9174  0.9647 -2.0537
  370MOL0     H51003   2.347   8.761  10.366 -3.0369 -0.0718 -1.1643
  370MOL0     H51004   2.207   8.726  10.457 -0.0134 -0.9076  1.1080
  370MOL0     H51005   2.407   8.966  10.504 -1.1542  1.2174  3.3164
  370MOL0     H51006   2.277   8.934  10.610  1.2559  1.3667  0.3420
  370MOL0     H51007   2.263   9.018  10.322  2.3616  2.9024  0.5629
  370MOL0     H51008   2.120   8.962  10.406 -1.2978  1.9386 -0.6811
  370MOL0     H51009   2.374   9.236  10.342 -0.0038 -2.1928 -0.1486
  370MOL0     H51010   2.365   9.515  10.409 -0.6568 -1.5217 -0.2839
  370MOL0     H51011   2.253   9.535  10.549  0.2828 -5.0026  2.7801
  370MOL0     H51012   2.198   9.525  10.242 -2.0880  0.2390 -0.2391
  370MOL0     H51013   2.065   9.522  10.356 -0.5407  1.1994 -1.0202
  370MOL0     H51014   2.061   9.752  10.316 -0.5960  0.7166  1.2537
  370MOL0     H51015   2.174   9.746  10.447 -1.4957  0.3080  0.8515
  370MOL0     H51016   2.262   9.720  10.147 -1.2724  0.3564 -0.6644
  370MOL0     H51017   2.240   9.876  10.218  0.9466  0.5043 -1.4731
  370MOL0     H51018   2.409   9.860  10.068 -0.9339 -0.3482  1.6591
  370MOL0     H51019   2.572   9.996   9.920  1.6800  1.2333  1.5638
  370MOL0     H51020   2.571   9.829   9.836  3.0898  0.5444 -1.7546
  370MOL0     H51021   2.720   9.914   9.874 -0.9636  1.0991 -1.7032
  370MOL0     H51022   3.079  10.087   9.962  1.6093  0.0643 -1.8660
  370MOL0     H51023   3.328  10.079   9.889  0.7615 -0.0888  0.0712
  370MOL0     H51024   3.591   9.864  10.156  2.1213 -1.1950  0.6711
  370MOL0     H51025   3.589   9.742  10.033 -0.0805  0.0392  1.3461
  370MOL0     H51026   3.744  10.010  10.012 -1.7291 -0.2861 -0.9097
  370MOL0     H51027   3.813   9.858  10.077 -0.8160  0.6937  2.4309
  370MOL0     H51028   3.697   9.931   9.796 -1.2138 -0.9588  0.0013
  370MOL0     H51029   3.752   9.766   9.834 -1.3868  0.2990 -1.2635
  370MOL0     H51030   3.994   9.879   9.863  0.2408 -2.3387 -1.7268
  370MOL0     H51031   3.914  10.027   9.832 -0.0741 -1.3105  2.6599
  370MOL0     H51032   3.850   9.947   9.604  2.5727  2.9534 -0.3365
  370MOL0     H51033   4.022   9.961   9.630  0.9293  0.0750  1.4029
  370MOL0     H51034   3.852   9.705   9.625 -1.4287  0.8076  0.4465
  370MOL0     H51035   4.007   9.718   9.692  0.3290  0.4659 -0.7316
  370MOL0     H51036   4.116   9.763   9.496 -0.1137  1.1289 -1.8847
  370MOL0     H51037   3.971   9.827   9.420  2.1255  2.9653  2.3559
  370MOL0     H51038   3.867   9.591   9.404 -0.0542  1.0040 -2.0217
  370MOL0     H51039   4.015   9.527   9.477  0.3052 -1.9425 -1.2406
  370MOL0     H51040   3.378   9.751  10.159 -0.2278  0.5084  0.4989
  370MOL0     H51041   3.148   9.760  10.222  0.2385  0.5975 -0.8419
  370MOL0     H51042   2.837   9.774  10.311  0.5240  0.4150 -2.5997
  370MOL0     H51043   2.606   9.729  10.420 -5.7949 -1.0053 -1.4226
  370MOL0     H51044   2.526   8.005  10.854 -0.7623  1.2324 -1.3502
  370MOL0     H51045   2.378   7.799  10.889 -0.9159 -1.5185 -0.9231
  370MOL0     H51046   1.998   7.642  10.728  0.5568 -0.6072  1.7531
  370MOL0     H51047   1.790   7.490  10.782 -0.5028 -1.4751 -0.3293
  370MOL0     H51048   1.758   7.200  10.671 -1.8116 -0.6311 -0.0691
  370MOL0     H51049   1.808   7.057  10.785  0.7383  0.6432  1.2518
  370MOL0     H51050   1.544   7.213  10.777 -2.3151 -1.8313 -0.4933
  370MOL0     H51051   1.603   7.136  10.925  0.6326 -1.4402  0.2802
  370MOL0     H51052   1.441   7.026  10.774 -0.2500 -0.0645 -2.5062
  370MOL0     H51053   1.564   7.006  10.656  0.6269 -0.5969 -0.1624
  370MOL0     H51054   1.607   6.915  10.941 -0.5693  1.6008 -0.3615
  370MOL0     H51055   1.700   6.864  10.788 -0.0050  1.5945 -1.9434
  370MOL0     H51056   1.342   6.656  10.745 -0.3413 -1.5389  1.0241
  370MOL0     H51057   2.048   7.172  10.856  0.7678  0.6701  0.6102
  370MOL0     H51058   2.334   7.310  10.729  0.5693  3.4673  1.3366
  370MOL0     H51059   2.331   7.339  10.903  0.1127  2.9017 -1.0208
  370MOL0     H51060   2.268   7.182  10.847 -1.9856  0.5036  1.4849
  371MOL0     O51061   5.554   7.117   5.524  0.0338 -0.7005 -0.1141
  371MOL0     C51062   5.550   6.999   5.540  0.1097  0.2489 -0.6079
  371MOL0     O51063   5.438   6.916   5.583 -0.2541  0.1527  0.0842
  371MOL0     C51064   5.314   6.971   5.582  0.2398  0.4064  0.3478
  371MOL0     C51065   5.278   7.022   5.464  0.5626 -0.0688  1.1497
  371MOL0     C51066   5.146   7.093   5.458  0.4767 -0.4005 -0.2579
  371MOL0     C51067   5.072   7.105   5.577 -0.7905  0.2100  1.0283
  371MOL0     O51068   4.960   7.174   5.564  0.6492 -0.7149 -0.1259
  371MOL0     C51069   4.847   7.087   5.570 -0.5319  0.9327 -1.0297
  371MOL0     C51070   4.800   7.049   5.434  0.5004  0.0060  0.8067
  371MOL0     C51071   4.658   6.991   5.439 -0.3404  0.4763 -0.1252
  371MOL0     C51072   4.540   7.096   5.457 -0.2355 -0.1583  0.9355
  371MOL0     C51073   4.409   7.012   5.469  0.2950  1.2765  0.2391
  371MOL0     C51074   4.281   7.095   5.523  0.7267 -0.4086  0.4405
  371MOL0     C51075   4.282   7.113   5.667  0.2607 -0.1652  0.1108
  371MOL0     C51076   4.167   7.190   5.722  0.1742 -0.3793  0.4355
  371MOL0     N51077   4.028   7.130   5.703  0.0450  0.4768  0.7562
  371MOL0     C51078   3.932   7.217   5.666 -0.0638  0.4995 -0.0825
  371MOL0     C51079   3.816   7.140   5.676 -1.4942 -0.7508  0.1476
  371MOL0     C51080   3.681   7.193   5.635  0.0765 -0.2337 -0.4222
  371MOL0     C51081   3.680   7.237   5.489 -1.1297 -0.4809  0.6334
  371MOL0     C51082   3.741   7.125   5.396 -0.2065 -0.2974  0.4732
  371MOL0     C51083   3.656   6.995   5.397 -0.7186  0.1780  0.3563
  371MOL0     O51084   3.712   6.900   5.298  0.3812 -1.0694 -0.1527
  371MOL0     C51085   3.835   6.843   5.318  0.0030 -0.5569 -0.4405
  371MOL0     C51086   3.900   6.791   5.210  0.2304  0.2684 -0.1042
  371MOL0     C51087   4.032   6.752   5.207  0.4806  1.1651 -0.7884
  371MOL0     C51088   4.091   6.698   5.080 -0.2630 -1.1326 -0.0676
  371MOL0     C51089   4.095   6.747   5.335 -0.0471 -0.5303 -0.3291
  371MOL0     C51090   4.233   6.709   5.363  0.1006 -0.2763 -0.0525
  371MOL0     O51091   4.252   6.638   5.476 -0.1534 -0.5902  0.2519
  371MOL0     C51092   4.368   6.570   5.487  0.3342 -0.0529 -0.3469
  371MOL0     C51093   4.366   6.432   5.499 -1.0220 -0.2387 -0.8699
  371MOL0     C51094   4.480   6.357   5.505 -0.0163  0.3046 -0.1932
  371MOL0     C51095   4.607   6.422   5.508 -0.8843 -0.1807 -0.8091
  371MOL0     O51096   4.736   6.362   5.535  0.1982  0.3663 -0.0757
  371MOL0     C51097   4.757   6.244   5.463 -0.0633  1.3201 -0.6409
  371MOL0     C51098   4.907   6.228   5.467  0.2219 -0.8407 -0.5285
  371MOL0     C51099   4.952   6.086   5.438 -0.6866 -0.4283  0.1052
  371MOL0     C51100   5.103   6.075   5.417  0.5260  1.1039  0.4274
  371MOL0     C51101   5.135   5.917   5.412  0.3379 -0.8229 -0.1938
  371MOL0     C51102   5.286   5.884   5.379 -0.3407 -0.0066  0.7210
  371MOL0     C51103   5.327   5.763   5.456  0.2391 -0.1753 -0.5772
  371MOL0     C51104   5.427   5.667   5.393 -0.2643  0.0014  0.0988
  371MOL0    Cl51105   5.341   5.585   5.250  0.2954 -0.3330 -0.3735
  371MOL0     C51106   4.611   6.564   5.498  0.6694 -0.0278 -0.5512
  371MOL0     C51107   4.489   6.638   5.487  0.0174  0.0198 -1.0246
  371MOL0     O51108   4.320   6.730   5.281 -0.4458  0.2496 -0.1444
  371MOL0     C51109   4.017   6.773   5.458 -0.1383 -0.1745  0.9822
  371MOL0     C51110   3.890   6.827   5.445  0.9604  0.2445 -0.2955
  371MOL0     N51111   3.849   7.014   5.717  0.7877 -0.3196 -0.5589
  371MOL0     N51112   3.975   7.012   5.733  0.0797  0.3302  0.7307
  371MOL0     C51113   5.115   7.034   5.691 -0.0383  0.0999 -0.5681
  371MOL0     C51114   5.239   6.973   5.693  0.5800 -0.3905 -0.0704
  371MOL0     C51115   5.676   6.928   5.546  0.1602 -0.7040 -0.1265
  371MOL0     C51116   5.677   6.784   5.541  1.2195  0.1096 -0.2520
  371MOL0     C51117   5.795   6.708   5.546  0.1843 -0.1147  0.8335
  371MOL0     C51118   5.911   6.771   5.570  0.1328 -0.3858 -1.0619
  371MOL0     O51119   6.024   6.697   5.550  0.7137 -0.2952 -0.3483
  371MOL0     C51120   6.042   6.572   5.627  0.2899  0.3156  0.0445
  371MOL0     C51121   6.003   6.576   5.780  0.0219  0.9405 -0.3663
  371MOL0     C51122   6.075   6.455   5.843  0.1924 -0.0880 -0.4977
  371MOL0     C51123   6.040   6.425   5.992  0.0319 -0.0109 -0.0497
  371MOL0     C51124   6.144   6.354   6.059 -0.3977 -0.8381 -1.2471
  371MOL0     C51125   6.219   6.296   6.133 -0.1464 -0.1361 -0.4383
  371MOL0     C51126   5.919   6.909   5.581 -1.0541  0.5242 -0.1296
  371MOL0     C51127   5.804   6.995   5.563  0.3124  0.1406  0.2475
  371MOL0     C51128   5.829   7.144   5.573  1.0658  0.1602  0.3934
  371MOL0     H51129   5.345   7.022   5.379 -0.1727 -1.9178  0.5123
  371MOL0     H51130   5.113   7.137   5.365 -1.7022  1.5930  1.3578
  371MOL0     H51131   4.777   7.153   5.622  0.3230  0.2674  1.0994
  371MOL0     H51132   4.866   6.994   5.625 -0.2131  1.2186 -0.6512
  371MOL0     H51133   4.806   7.138   5.370  0.3917 -0.2964  0.3781
  371MOL0     H51134   4.866   6.968   5.404 -0.1777 -0.7701  1.3742
  371MOL0     H51135   4.636   6.931   5.350 -0.5126  2.6733 -1.6304
  371MOL0     H51136   4.656   6.916   5.519  0.1385 -2.1063 -2.3971
  371MOL0     H51137   4.553   7.151   5.550  0.3636  0.1004  0.7006
  371MOL0     H51138   4.537   7.159   5.368  0.4389 -1.9806 -0.4502
  371MOL0     H51139   4.441   6.955   5.556  1.5478  0.9076 -0.4315
  371MOL0     H51140   4.402   6.959   5.373  1.6584 -3.2957  2.3731
  371MOL0     H51141   4.291   7.195   5.479 -0.7244 -0.7776 -0.7950
  371MOL0     H51142   4.180   7.061   5.500 -0.7738  2.7077  1.7952
  371MOL0     H51143   4.380   7.153   5.696  1.2124 -2.3843  0.1191
  371MOL0     H51144   4.262   7.019   5.718 -0.9069  0.6131  1.1677
  371MOL0     H51145   4.179   7.195   5.831  0.8659  0.2817  0.3406
  371MOL0     H51146   4.162   7.293   5.686  0.1471  0.2923  2.2665
  371MOL0     H51147   3.946   7.313   5.616  0.5133  0.0991 -0.7010
  371MOL0     H51148   3.655   7.277   5.701  0.3212 -0.3931 -0.1165
  371MOL0     H51149   3.605   7.116   5.651  1.2807 -1.4930 -0.5682
  371MOL0     H51150   3.577   7.263   5.462 -0.5914  0.1825 -0.8644
  371MOL0     H51151   3.735   7.329   5.468  0.7531 -0.4000  4.8835
  371MOL0     H51152   3.756   7.162   5.294  0.0886  1.5236  1.1441
  371MOL0     H51153   3.845   7.101   5.419 -0.2421 -0.6552  0.2661
  371MOL0     H51154   3.646   6.954   5.498 -0.2139  0.4830  0.5350
  371MOL0     H51155   3.553   7.012   5.363 -1.4368 -1.5709  1.5288
  371MOL0     H51156   3.852   6.796   5.113 -0.7592 -2.8284  0.1261
  371MOL0     H51157   4.017   6.668   5.005 -1.2483 -3.3879  1.6816
  371MOL0     H51158   4.168   6.622   5.088  1.0729  0.0560 -1.1106
  371MOL0     H51159   4.144   6.786   5.041 -1.2793 -0.2173  0.5610
  371MOL0     H51160   4.269   6.384   5.488 -1.7317  0.2872  2.2304
  371MOL0     H51161   4.471   6.250   5.521 -0.9637  0.8190  4.0701
  371MOL0     H51162   4.698   6.164   5.511 -1.2720  1.6782 -1.4719
  371MOL0     H51163   4.739   6.238   5.356  2.7113 -2.0651 -1.1113
  371MOL0     H51164   4.964   6.297   5.405 -2.1726 -0.5817 -2.5947
  371MOL0     H51165   4.929   6.238   5.574  0.0313 -0.5524 -0.5151
  371MOL0     H51166   4.879   6.049   5.365 -1.5805 -2.5971  1.9994
  371MOL0     H51167   4.936   6.024   5.526  2.3095 -1.3624  0.1238
  371MOL0     H51168   5.159   6.119   5.500 -0.2752  1.7690  0.6326
  371MOL0     H51169   5.133   6.122   5.323 -0.3637 -1.1208 -1.0512
  371MOL0     H51170   5.111   5.879   5.512  0.6549 -2.1606 -0.6039
  371MOL0     H51171   5.081   5.860   5.336  0.7460  1.3850 -2.2594
  371MOL0     H51172   5.344   5.966   5.423 -0.4886  0.9738 -0.8618
  371MOL0     H51173   5.303   5.896   5.272 -2.6407 -2.0222  0.0246
  371MOL0     H51174   5.241   5.696   5.469  0.6030 -0.6262 -0.4824
  371MOL0     H51175   5.386   5.799   5.541  1.5967  2.8910 -2.6445
  371MOL0     H51176   5.470   5.599   5.467  0.3797  0.8552  0.5270
  371MOL0     H51177   5.518   5.714   5.355  0.0789 -0.7849 -0.0560
  371MOL0     H51178   4.702   6.621   5.515  0.5116 -0.2859  1.3642
  371MOL0     H51179   4.497   6.746   5.492  3.4473 -0.1944  1.2422
  371MOL0     H51180   4.066   6.748   5.551 -1.3034 -1.3374  1.3160
  371MOL0     H51181   3.823   6.846   5.528  2.6801  2.3332  0.7070
  371MOL0     H51182   5.051   7.035   5.779 -3.3737  0.3206 -2.8240
  371MOL0     H51183   5.286   6.935   5.784 -0.5664  2.0379  1.6544
  371MOL0     H51184   5.581   6.738   5.520  2.4536 -1.6012 -2.6327
  371MOL0     H51185   5.773   6.602   5.538 -3.9205  0.7214 -1.9677
  371MOL0     H51186   5.991   6.489   5.577  0.7056  1.0834 -1.7163
  371MOL0     H51187   6.148   6.548   5.618  0.8356  2.6099 -0.1409
  371MOL0     H51188   5.897   6.559   5.796  0.1089  0.8079  0.0867
  371MOL0     H51189   6.018   6.672   5.829 -0.2789  0.3905  0.8257
  371MOL0     H51190   6.062   6.363   5.784  3.4891 -2.2692  1.8180
  371MOL0     H51191   6.183   6.473   5.848  0.1463  0.2718 -0.7731
  371MOL0     H51192   5.946   6.370   6.005  0.4899 -0.7472  0.2201
  371MOL0     H51193   6.028   6.520   6.044 -1.9531 -0.2799  0.0518
  371MOL0     H51194   6.290   6.243   6.194  0.6626  0.6010 -0.7126
  371MOL0     H51195   6.011   6.964   5.595 -1.9520  2.5002 -1.4286
  371MOL0     H51196   5.809   7.186   5.474 -0.1270 -2.3024 -0.4930
  371MOL0     H51197   5.765   7.185   5.652 -0.8587 -1.3403 -0.3062
  371MOL0     H51198   5.932   7.175   5.591  1.7887  1.0112 -4.0961
  372MOL0     O51199   7.648   1.072   2.463  0.0388  0.4050 -0.1531
  372MOL0     C51200   7.601   1.178   2.412 -0.5671 -0.3736 -0.5054
  372MOL0     O51201   7.676   1.298   2.411 -0.0043  0.0800 -0.2915
  372MOL0     C51202   7.803   1.286   2.448  0.7892  0.3354 -0.3423
  372MOL0     C51203   7.896   1.282   2.350 -0.1975 -0.2962 -0.4162
  372MOL0     C51204   8.036   1.279   2.391  0.2350  0.2226  0.2513
  372MOL0     C51205   8.065   1.291   2.524  0.8051 -0.5127 -0.2439
  372MOL0     O51206   8.197   1.306   2.554  0.3258 -0.3117  0.3384
  372MOL0     C51207   8.233   1.326   2.685 -0.3937 -0.7686  0.2846
  372MOL0     C51208   8.375   1.374   2.702  0.2423 -0.6361 -0.3212
  372MOL0     C51209   8.379   1.519   2.662 -0.7702 -0.5880 -0.5057
  372MOL0     C51210   8.512   1.593   2.688  0.0271  1.5097 -0.8873
  372MOL0     C51211   8.630   1.506   2.623  0.0927 -0.0413  0.1884
  372MOL0     C51212   8.746   1.599   2.581  0.1464  0.9808  0.1649
  372MOL0     C51213   8.814   1.527   2.456 -0.1933 -0.0478  0.6832
  372MOL0     C51214   8.756   1.603   2.331  0.0732 -0.2096  0.0188
  372MOL0     N51215   8.813   1.570   2.206 -0.0365 -0.0651  0.1138
  372MOL0     C51216   8.777   1.447   2.143 -0.2694 -0.9730 -0.6951
  372MOL0     C51217   8.854   1.451   2.034 -0.2504  0.2567 -0.4920
  372MOL0     C51218   8.844   1.342   1.930  0.9674 -0.5016  0.1277
  372MOL0     C51219   8.967   1.243   1.951  0.0047  0.2475 -0.2297
  372MOL0     C51220   8.963   1.137   1.842 -0.2225 -0.0757 -0.2099
  372MOL0     C51221   9.038   1.012   1.878  0.8703  0.2058  0.3361
  372MOL0     O51222   9.057   0.920   1.767 -0.2878  0.3483  0.1722
  372MOL0     C51223   8.962   0.848   1.716  0.9874  0.6974  0.2575
  372MOL0     C51224   8.982   0.802   1.581 -0.2599 -0.7631 -1.0722
  372MOL0     C51225   8.887   0.722   1.516  0.1785  0.0411 -0.4792
  372MOL0     C51226   8.906   0.672   1.377 -0.3868 -0.1627  0.2129
  372MOL0     C51227   8.766   0.685   1.587 -0.5371 -0.2527 -0.4054
  372MOL0     C51228   8.642   0.624   1.522  0.3073 -0.0851 -1.2402
  372MOL0     O51229   8.622   0.637   1.387 -0.3305 -0.0920 -0.0876
  372MOL0     C51230   8.499   0.631   1.330 -0.2695  0.2070 -0.8513
  372MOL0     C51231   8.442   0.512   1.305  0.7601  0.1183 -0.4953
  372MOL0     C51232   8.337   0.516   1.220  0.6684  1.0913  0.3520
  372MOL0     C51233   8.275   0.628   1.174  0.2327  0.3750 -0.6561
  372MOL0     O51234   8.160   0.618   1.104 -0.4809 -0.0627 -0.6109
  372MOL0     C51235   8.128   0.729   1.023  0.0650 -0.0259  0.7504
  372MOL0     C51236   8.042   0.672   0.908  0.2455  0.1625 -0.0659
  372MOL0     C51237   7.903   0.633   0.959  0.1027 -0.2867 -0.1690
  372MOL0     C51238   7.792   0.682   0.880  0.1383 -0.4673 -0.6102
  372MOL0     C51239   7.794   0.840   0.872  0.5664 -0.5958  0.1288
  372MOL0     C51240   7.659   0.903   0.921 -0.1027 -0.0334  0.3075
  372MOL0     C51241   7.682   1.055   0.956  0.9825  0.6021 -0.2193
  372MOL0     C51242   7.764   1.090   1.080 -0.3032  0.0237 -0.9883
  372MOL0    Cl51243   7.772   1.272   1.092 -0.4852  0.2855  0.4521
  372MOL0     C51244   8.323   0.751   1.223  0.0320  0.2061 -0.0501
  372MOL0     C51245   8.438   0.752   1.299  0.1630 -0.2488 -0.1838
  372MOL0     O51246   8.575   0.555   1.600  0.8364 -0.3029  0.4841
  372MOL0     C51247   8.744   0.731   1.716 -1.4724  0.4866  0.1023
  372MOL0     C51248   8.847   0.807   1.783  0.8693 -0.4975 -0.0592
  372MOL0     N51249   8.912   1.570   2.015 -0.0665  0.0657 -0.0989
  372MOL0     N51250   8.887   1.640   2.116  0.2523 -0.2538 -0.7485
  372MOL0     C51251   7.961   1.277   2.617 -0.4154  0.4515 -0.6255
  372MOL0     C51252   7.833   1.282   2.580 -0.6572 -0.4667 -0.0455
  372MOL0     C51253   7.474   1.160   2.352  0.0072  0.6281  0.1320
  372MOL0     C51254   7.393   1.061   2.401 -0.1985 -0.0444  0.2181
  372MOL0     C51255   7.270   1.023   2.345 -0.1724  0.3491  0.1929
  372MOL0     C51256   7.210   1.111   2.245  0.1661 -0.0379 -0.5175
  372MOL0     O51257   7.090   1.095   2.188 -0.0980 -0.7534  1.2014
  372MOL0     C51258   7.028   0.966   2.209 -0.0351 -0.7332 -0.2791
  372MOL0     C51259   7.106   0.847   2.148 -0.1282 -0.5699  0.3438
  372MOL0     C51260   7.120   0.867   1.997 -0.7863  0.0038  0.6926
  372MOL0     C51261   7.140   0.720   1.937  0.0641  0.1231  0.5489
  372MOL0     C51262   7.196   0.745   1.796 -0.7014  0.3824 -0.0624
  372MOL0     C51263   7.242   0.758   1.686 -0.3607  0.2759  0.2636
  372MOL0     C51264   7.285   1.209   2.199  0.0361  0.3158 -0.9508
  372MOL0     C51265   7.415   1.238   2.247 -0.2238  0.0428  0.5144
  372MOL0     C51266   7.502   1.338   2.174 -0.3839  0.1638  0.6804
  372MOL0     H51267   7.873   1.268   2.245 -1.6579  1.3437 -0.3515
  372MOL0     H51268   8.125   1.275   2.328  0.7405 -0.9492  1.0075
  372MOL0     H51269   8.232   1.226   2.729 -0.1706 -0.7901  0.2412
  372MOL0     H51270   8.171   1.399   2.737 -0.3040  0.1464 -0.8517
  372MOL0     H51271   8.412   1.363   2.804 -0.3077  0.9958  0.0854
  372MOL0     H51272   8.438   1.308   2.641  0.4544 -0.8305  0.1040
  372MOL0     H51273   8.353   1.526   2.556  1.7327  2.2993 -1.0580
  372MOL0     H51274   8.303   1.579   2.713 -1.0628  1.3638 -3.0561
  372MOL0     H51275   8.500   1.692   2.642 -3.4014  1.3691 -0.5686
  372MOL0     H51276   8.527   1.588   2.796 -1.0151 -3.1684 -0.7665
  372MOL0     H51277   8.594   1.450   2.536  2.1706 -2.7942  0.9683
  372MOL0     H51278   8.663   1.439   2.703 -0.6485  1.4077  1.7982
  372MOL0     H51279   8.727   1.702   2.552 -0.5845  0.7369 -0.2522
  372MOL0     H51280   8.810   1.607   2.669  0.4800  3.9171 -0.2397
  372MOL0     H51281   8.783   1.422   2.457 -3.3733  0.7866  2.4010
  372MOL0     H51282   8.924   1.533   2.463 -0.2028  0.8943  0.2177
  372MOL0     H51283   8.650   1.579   2.321  0.3573 -1.7544  0.6055
  372MOL0     H51284   8.747   1.710   2.355 -0.6980 -0.9797  3.6763
  372MOL0     H51285   8.703   1.377   2.178 -0.0399 -1.1248 -0.5179
  372MOL0     H51286   8.832   1.382   1.829 -2.2482 -0.9436  0.2149
  372MOL0     H51287   8.754   1.284   1.950  0.4221  0.4922  0.6528
  372MOL0     H51288   9.061   1.298   1.945 -0.3535  0.8459 -0.4522
  372MOL0     H51289   8.955   1.199   2.050 -1.0741 -0.9700 -0.8724
  372MOL0     H51290   8.862   1.109   1.810 -0.6491  0.2235  0.8329
  372MOL0     H51291   9.023   1.188   1.766  2.4812 -0.5576  1.4665
  372MOL0     H51292   9.135   1.049   1.911  0.9370 -0.7196  1.1980
  372MOL0     H51293   8.975   0.963   1.953 -0.3870  0.0283 -0.7989
  372MOL0     H51294   9.077   0.812   1.528 -0.1144 -3.2495 -1.3849
  372MOL0     H51295   8.876   0.567   1.370  0.3243 -0.5800  2.6541
  372MOL0     H51296   9.008   0.686   1.338 -0.7113 -0.8911 -0.9685
  372MOL0     H51297   8.844   0.735   1.313  2.4206  1.6489 -0.9066
  372MOL0     H51298   8.481   0.420   1.349 -1.7435 -1.1169 -0.6366
  372MOL0     H51299   8.294   0.420   1.194  0.3407  0.7667  1.9629
  372MOL0     H51300   8.076   0.805   1.082 -2.1071  2.1220 -3.4949
  372MOL0     H51301   8.220   0.767   0.977  0.5840 -1.6729  0.3560
  372MOL0     H51302   8.043   0.738   0.822  1.6011  0.1700 -0.0784
  372MOL0     H51303   8.098   0.584   0.873  0.2295  0.2942 -0.4223
  372MOL0     H51304   7.900   0.686   1.054  2.3284 -0.5751  0.1210
  372MOL0     H51305   7.888   0.526   0.975 -1.6051 -0.3053 -1.5319
  372MOL0     H51306   7.691   0.659   0.914 -1.0276 -0.8628 -4.0085
  372MOL0     H51307   7.802   0.646   0.777  3.6943  0.2188 -0.6581
  372MOL0     H51308   7.874   0.880   0.934  0.5232 -3.5045  2.2544
  372MOL0     H51309   7.806   0.873   0.768 -2.1576  0.8418  0.1794
  372MOL0     H51310   7.605   0.856   1.003 -2.7313  3.0832  0.5302
  372MOL0     H51311   7.586   0.896   0.840 -0.3718 -0.0444  0.5509
  372MOL0     H51312   7.580   1.090   0.973  0.5094 -0.1729 -1.3235
  372MOL0     H51313   7.718   1.116   0.872  2.3748  1.2054  0.7652
  372MOL0     H51314   7.864   1.050   1.064 -0.9810 -1.6879 -1.1486
  372MOL0     H51315   7.718   1.054   1.173 -1.9074  3.6396 -0.1831
  372MOL0     H51316   8.278   0.847   1.200  1.5527  1.9379  3.4912
  372MOL0     H51317   8.492   0.844   1.321 -1.3558  0.9712 -1.2773
  372MOL0     H51318   8.658   0.716   1.781 -0.4600 -0.6986  1.2080
  372MOL0     H51319   8.833   0.824   1.889  6.1130 -2.5465  1.3251
  372MOL0     H51320   7.992   1.274   2.722 -1.3491  2.6452 -0.2312
  372MOL0     H51321   7.750   1.288   2.649  0.1719  2.5464  0.8446
  372MOL0     H51322   7.428   1.000   2.484 -0.9715 -0.5826  0.1540
  372MOL0     H51323   7.211   0.949   2.399  0.8995 -0.7334 -0.0923
  372MOL0     H51324   7.007   0.965   2.316 -0.8417 -1.9368 -0.4301
  372MOL0     H51325   6.927   0.977   2.167 -1.8201  2.7518  4.1181
  372MOL0     H51326   7.054   0.752   2.162 -2.2316  0.4551 -0.0949
  372MOL0     H51327   7.205   0.832   2.192  0.2523  0.3091 -0.1998
  372MOL0     H51328   7.027   0.897   1.949  0.3461  0.1682 -1.5387
  372MOL0     H51329   7.208   0.929   1.977 -0.5179 -0.3591  0.7185
  372MOL0     H51330   7.043   0.672   1.944  1.1898 -2.0866  2.2770
  372MOL0     H51331   7.218   0.673   1.998  0.6993 -0.2095 -0.4829
  372MOL0     H51332   7.288   0.763   1.589  1.8901  0.2057  1.2597
  372MOL0     H51333   7.238   1.283   2.134 -2.8675  1.7340  2.4341
  372MOL0     H51334   7.591   1.284   2.139  0.7220  1.1068  1.9112
  372MOL0     H51335   7.441   1.386   2.098 -0.1182  1.4286  1.2339
  372MOL0     H51336   7.531   1.427   2.231  1.8054 -1.9641  3.2203
  373MOL0     O51337   7.717   3.323   1.344 -0.8007 -0.4146 -0.1281
  373MOL0     C51338   7.701   3.337   1.465 -0.3684 -0.4074  0.0743
  373MOL0     O51339   7.804   3.352   1.558  0.1859 -0.8399 -0.2554
  373MOL0     C51340   7.933   3.318   1.523  0.3449  0.4766 -0.3967
  373MOL0     C51341   7.962   3.209   1.434 -0.2698 -0.3188 -0.1197
  373MOL0     C51342   8.092   3.174   1.410 -0.4236  0.3113  0.1683
  373MOL0     C51343   8.200   3.236   1.476  1.0801 -0.1008 -0.4321
  373MOL0     O51344   8.332   3.218   1.441 -0.4093 -0.1203 -0.0813
  373MOL0     C51345   8.345   3.162   1.305 -0.5919 -0.1063  0.9732
  373MOL0     C51346   8.408   3.029   1.319 -0.1279  0.2449  0.5949
  373MOL0     C51347   8.556   3.023   1.355  0.0091  0.0002 -0.3622
  373MOL0     C51348   8.567   2.905   1.451 -0.5441 -0.2141 -0.0512
  373MOL0     C51349   8.714   2.875   1.501  0.6338 -0.2417  0.1529
  373MOL0     C51350   8.780   2.991   1.582  0.1674  0.0253  0.4054
  373MOL0     C51351   8.910   2.952   1.647 -0.6291 -0.0277  0.5565
  373MOL0     C51352   8.966   3.056   1.740  0.6796  0.0722  0.6749
  373MOL0     N51353   9.081   3.010   1.822 -0.3421 -0.0777  0.0861
  373MOL0     C51354   9.077   2.973   1.952  0.7728 -0.8322 -0.0914
  373MOL0     C51355   9.194   2.920   1.985  0.8875 -1.0101 -0.7467
  373MOL0     C51356   9.227   2.864   2.116 -0.3517  0.3181 -0.3441
  373MOL0     C51357   9.204   2.711   2.125 -0.4713  0.7838  0.7888
  373MOL0     C51358   9.322   2.630   2.065 -0.5007 -0.1833  0.3561
  373MOL0     C51359   9.321   2.616   1.913 -0.5407 -0.7192  0.6681
  373MOL0     O51360   9.438   2.539   1.875 -0.0097 -0.4806  0.4175
  373MOL0     C51361   9.556   2.607   1.865 -1.0473  0.2676  0.1582
  373MOL0     C51362   9.570   2.743   1.890 -0.5289  0.0334  0.4882
  373MOL0     C51363   9.693   2.807   1.856 -0.1110 -0.0301 -0.8224
  373MOL0     C51364   9.712   2.956   1.893  0.0476 -0.0621  0.0462
  373MOL0     C51365   9.801   2.737   1.806  0.3104  1.0700 -0.4883
  373MOL0     C51366   9.928   2.793   1.750 -0.4479 -0.2409  0.2077
  373MOL0     O51367  10.033   2.727   1.796 -0.5870 -0.1425 -0.3221
  373MOL0     C51368  10.157   2.777   1.759  0.5409  0.1396  0.1500
  373MOL0     C51369  10.244   2.703   1.686 -0.5228  0.5594  0.5212
  373MOL0     C51370  10.373   2.754   1.648  0.1617 -0.1330 -0.0502
  373MOL0     C51371  10.406   2.890   1.686 -0.7940  0.4050 -0.2775
  373MOL0     O51372  10.519   2.953   1.643  0.0692 -0.0650  0.2400
  373MOL0     C51373  10.585   2.907   1.523 -0.2270  0.5158 -0.7281
  373MOL0     C51374  10.690   3.000   1.472  0.0271 -0.3196  0.1919
  373MOL0     C51375  10.838   2.957   1.513 -0.1061 -0.0145  0.3665
  373MOL0     C51376  10.940   3.065   1.502  0.0495 -0.7957  0.6624
  373MOL0     C51377  11.083   3.018   1.544  0.1016  0.3276 -0.3650
  373MOL0     C51378  11.132   2.894   1.473  0.3015  0.7396  0.8369
  373MOL0     C51379  11.115   2.767   1.559 -0.6220  0.3648  0.1536
  373MOL0     C51380  11.238   2.656   1.547  0.7071 -0.6473 -0.3719
  373MOL0    Cl51381  11.244   2.522   1.671 -0.2883 -0.5243 -0.2346
  373MOL0     C51382  10.312   2.962   1.756 -0.0656  0.2169  0.6550
  373MOL0     C51383  10.188   2.909   1.798  0.1206 -0.1598 -0.0034
  373MOL0     O51384   9.930   2.881   1.655 -0.2311 -0.4723  0.0279
  373MOL0     C51385   9.788   2.598   1.781  0.1793  0.4263 -0.8587
  373MOL0     C51386   9.659   2.535   1.800 -0.2389  0.2655 -0.3691
  373MOL0     N51387   9.278   2.939   1.877  0.3765 -0.1422 -0.6705
  373MOL0     N51388   9.206   2.985   1.779  0.6630  0.1211 -0.2268
  373MOL0     C51389   8.171   3.350   1.554 -0.1947  0.5294  0.0773
  373MOL0     C51390   8.036   3.395   1.570 -0.2309 -0.0937  0.1943
  373MOL0     C51391   7.568   3.350   1.518 -1.2320 -0.6631 -0.6235
  373MOL0     C51392   7.550   3.353   1.660 -0.3288  1.3097  0.1431
  373MOL0     C51393   7.432   3.378   1.722 -0.5204 -0.8080  0.0440
  373MOL0     C51394   7.316   3.387   1.649 -0.4896 -0.0799  0.0370
  373MOL0     O51395   7.194   3.406   1.719 -0.6181  0.1646 -0.3824
  373MOL0     C51396   7.183   3.527   1.796  0.4494  0.1058 -0.8323
  373MOL0     C51397   7.197   3.658   1.714 -0.1761 -0.0527  0.2184
  373MOL0     C51398   7.208   3.787   1.801  0.1606  0.2305 -0.9962
  373MOL0     C51399   7.065   3.851   1.819 -1.1147  0.7028  0.0390
  373MOL0     C51400   7.004   3.895   1.688 -0.6024  1.0805 -0.5874
  373MOL0     C51401   6.948   3.920   1.585 -0.0139 -0.7123  0.0876
  373MOL0     C51402   7.323   3.375   1.508  0.1691 -0.0723  0.2659
  373MOL0     C51403   7.449   3.359   1.443  1.3500 -0.7668  0.0990
  373MOL0     C51404   7.434   3.325   1.299 -0.3373  0.3064  0.2183
  373MOL0     H51405   7.883   3.145   1.395 -0.9105  0.3721  0.0037
  373MOL0     H51406   8.093   3.074   1.368 -2.5358 -0.9060  2.7184
  373MOL0     H51407   8.423   3.206   1.241  0.2018 -4.2568 -1.2605
  373MOL0     H51408   8.252   3.152   1.248 -0.0161 -1.1159  0.1832
  373MOL0     H51409   8.343   2.967   1.381 -1.1318 -1.4748 -2.0059
  373MOL0     H51410   8.403   2.982   1.220 -0.1574  0.2036  0.6159
  373MOL0     H51411   8.615   3.016   1.263 -0.6037 -2.4652 -0.6158
  373MOL0     H51412   8.589   3.111   1.412 -0.0711  0.3499 -0.8439
  373MOL0     H51413   8.512   2.935   1.541  2.7152 -0.7140  2.2871
  373MOL0     H51414   8.520   2.814   1.412  1.8582 -1.2525 -0.7207
  373MOL0     H51415   8.772   2.855   1.410 -0.1274  1.1111 -0.6633
  373MOL0     H51416   8.727   2.781   1.555  3.4490 -1.4424 -2.2718
  373MOL0     H51417   8.804   3.068   1.507  0.3890 -0.2461  0.1964
  373MOL0     H51418   8.715   3.033   1.660 -4.0672 -0.9548 -2.2382
  373MOL0     H51419   8.991   2.931   1.576  2.6460  2.5017  3.1854
  373MOL0     H51420   8.877   2.868   1.708 -1.7579  0.5731  0.8095
  373MOL0     H51421   9.008   3.144   1.691  0.3933  0.0196  0.3298
  373MOL0     H51422   8.892   3.091   1.813 -0.4926 -4.9021  2.2552
  373MOL0     H51423   8.992   2.980   2.019 -0.6768 -1.2042 -1.7891
  373MOL0     H51424   9.150   2.905   2.182  0.4644 -1.2200  1.6710
  373MOL0     H51425   9.330   2.882   2.149  0.7151 -1.6191 -2.3471
  373MOL0     H51426   9.200   2.677   2.229 -1.2939  2.0980  1.2182
  373MOL0     H51427   9.110   2.687   2.076 -0.2921 -2.1139  1.6711
  373MOL0     H51428   9.415   2.673   2.102 -0.1004  2.3134 -3.0056
  373MOL0     H51429   9.303   2.532   2.110 -0.6209 -1.3936 -2.1139
  373MOL0     H51430   9.235   2.559   1.876  1.3035 -1.5831 -2.7463
  373MOL0     H51431   9.314   2.712   1.862  2.8484 -2.2112 -3.2051
  373MOL0     H51432   9.487   2.798   1.933 -1.2646  0.4661 -1.3666
  373MOL0     H51433   9.617   3.010   1.898 -0.8065 -1.5840  1.8872
  373MOL0     H51434   9.783   3.017   1.837 -1.8665  1.4768 -0.7955
  373MOL0     H51435   9.747   2.951   1.997 -1.7503 -0.5247  0.6683
  373MOL0     H51436  10.223   2.600   1.661 -0.4838  0.2594  1.7026
  373MOL0     H51437  10.441   2.689   1.593  0.3664 -0.1543  0.2237
  373MOL0     H51438  10.636   2.814   1.550  0.3018  1.3510  1.3676
  373MOL0     H51439  10.498   2.889   1.459 -3.4624 -0.3460  3.4519
  373MOL0     H51440  10.689   3.000   1.363 -2.8894 -0.9547  0.1377
  373MOL0     H51441  10.674   3.098   1.517 -1.2278 -0.9643  1.2194
  373MOL0     H51442  10.865   2.875   1.446  0.9231 -1.7597  2.7926
  373MOL0     H51443  10.840   2.925   1.617  2.3891  0.3984  0.5127
  373MOL0     H51444  10.915   3.152   1.563  2.4992  1.7605 -1.7197
  373MOL0     H51445  10.947   3.104   1.400 -1.0338 -0.1360  0.8290
  373MOL0     H51446  11.143   3.103   1.511  0.4672  0.3485  0.3283
  373MOL0     H51447  11.092   3.011   1.653 -0.5902 -2.0163 -0.3987
  373MOL0     H51448  11.239   2.913   1.456 -0.2504  2.9183 -0.5457
  373MOL0     H51449  11.086   2.874   1.377  2.8166 -0.4665 -0.2147
  373MOL0     H51450  11.036   2.722   1.499  0.4537  1.4578 -2.2342
  373MOL0     H51451  11.088   2.785   1.663 -2.6755 -0.2902 -0.2266
  373MOL0     H51452  11.331   2.714   1.554  0.4940  0.3765 -3.9231
  373MOL0     H51453  11.246   2.612   1.448 -2.3044 -0.9452 -0.5803
  373MOL0     H51454  10.327   3.063   1.791 -0.9374 -0.3308  2.8223
  373MOL0     H51455  10.125   2.980   1.850 -1.0359 -1.2188  0.0807
  373MOL0     H51456   9.870   2.533   1.751 -2.3697 -3.0956 -0.8121
  373MOL0     H51457   9.624   2.435   1.779 -3.0455  0.4672  2.4559
  373MOL0     H51458   8.254   3.407   1.595  0.8266 -1.0934  0.3499
  373MOL0     H51459   8.018   3.495   1.609 -2.3822 -0.1513 -0.4970
  373MOL0     H51460   7.644   3.343   1.715 -1.2421  1.2674  1.7627
  373MOL0     H51461   7.435   3.381   1.830  1.0811  0.6269  0.0156
  373MOL0     H51462   7.085   3.525   1.845 -0.2270 -1.0020 -2.1657
  373MOL0     H51463   7.264   3.537   1.870  1.4022 -0.1966 -1.8056
  373MOL0     H51464   7.114   3.654   1.642  1.0219  0.6493 -1.2548
  373MOL0     H51465   7.285   3.650   1.651 -1.3741 -1.8007 -1.3341
  373MOL0     H51466   7.248   3.762   1.900 -2.0804  0.7458  0.1140
  373MOL0     H51467   7.277   3.862   1.762 -0.1581  1.3907  0.5622
  373MOL0     H51468   7.100   3.941   1.870  2.0835  2.2623 -4.2783
  373MOL0     H51469   7.009   3.779   1.880  0.5728  0.6781  1.6383
  373MOL0     H51470   6.899   3.956   1.496  2.0026 -1.9456 -1.6211
  373MOL0     H51471   7.225   3.365   1.462 -0.2525 -0.6666  1.2769
  373MOL0     H51472   7.457   3.419   1.247 -3.4718  0.7894 -0.4630
  373MOL0     H51473   7.497   3.241   1.270 -0.0154  0.7828 -0.4966
  373MOL0     H51474   7.333   3.291   1.277  0.5759 -2.8449  0.3953
  374MOL0     O51475   5.877   4.717   1.632 -0.2582 -0.7402  0.2435
  374MOL0     C51476   5.927   4.682   1.738  0.8355  0.6409 -0.0749
  374MOL0     O51477   6.002   4.755   1.823  0.1627  0.0129  0.1362
  374MOL0     C51478   6.084   4.856   1.766  0.7187 -0.5691  0.1317
  374MOL0     C51479   6.210   4.820   1.709  0.0827 -0.6780  0.9093
  374MOL0     C51480   6.286   4.929   1.659  0.4337 -0.1284  0.0453
  374MOL0     C51481   6.246   5.061   1.674 -0.1777 -0.0035  0.6955
  374MOL0     O51482   6.326   5.168   1.658  0.3497  0.3573 -0.3483
  374MOL0     C51483   6.428   5.154   1.555 -0.3610  0.6561  0.6140
  374MOL0     C51484   6.370   5.158   1.412 -0.3472  0.3477  0.2420
  374MOL0     C51485   6.410   5.290   1.329 -0.8110  0.0234  0.0595
  374MOL0     C51486   6.360   5.416   1.405 -0.1369  0.4108  0.2910
  374MOL0     C51487   6.424   5.549   1.350  0.2434  0.0353  0.4776
  374MOL0     C51488   6.396   5.671   1.446  0.2310  1.9541 -1.1182
  374MOL0     C51489   6.467   5.780   1.396  0.6001 -0.5298 -0.0702
  374MOL0     C51490   6.441   5.909   1.470  0.1938 -0.0215 -0.6173
  374MOL0     N51491   6.503   6.027   1.412  0.5668  0.4151 -0.1545
  374MOL0     C51492   6.437   6.110   1.323  1.0910  0.5441  0.1676
  374MOL0     C51493   6.528   6.198   1.289  0.2539 -0.4261 -1.6209
  374MOL0     C51494   6.499   6.295   1.182 -0.7781 -0.2293  0.3264
  374MOL0     C51495   6.611   6.306   1.075 -0.0718  0.6782  0.1370
  374MOL0     C51496   6.631   6.177   0.981  0.7155 -0.2763  0.2054
  374MOL0     C51497   6.506   6.120   0.923  0.3749  0.2553 -0.1320
  374MOL0     O51498   6.427   6.037   1.009  0.6467  0.3145 -0.3884
  374MOL0     C51499   6.306   5.983   0.957  0.6068  0.0521 -0.1732
  374MOL0     C51500   6.212   5.951   1.055  1.5614  0.0945 -0.3200
  374MOL0     C51501   6.094   5.900   1.024  0.4370 -0.0047  0.7110
  374MOL0     C51502   6.000   5.854   1.130 -0.1127 -0.3779  0.0525
  374MOL0     C51503   6.047   5.900   0.891  0.0756  0.4999  0.2281
  374MOL0     C51504   5.921   5.845   0.839  1.1075  0.1911  0.2039
  374MOL0     O51505   5.828   5.805   0.935  0.0803  0.3360  0.3447
  374MOL0     C51506   5.717   5.727   0.881 -0.5926 -0.5680 -0.7714
  374MOL0     C51507   5.754   5.604   0.840 -0.3320 -0.2080  1.1713
  374MOL0     C51508   5.656   5.515   0.795 -0.5549  1.0850 -0.6392
  374MOL0     C51509   5.523   5.541   0.813  0.2470 -0.4419  0.2777
  374MOL0     O51510   5.432   5.453   0.754  0.1120 -0.0099 -0.0622
  374MOL0     C51511   5.316   5.498   0.680 -0.5766 -0.9797 -0.0309
  374MOL0     C51512   5.260   5.378   0.608  0.6146 -0.7560  0.4003
  374MOL0     C51513   5.124   5.394   0.543 -0.3777  0.7872 -0.4428
  374MOL0     C51514   5.013   5.350   0.640  0.5157 -0.5477 -0.2724
  374MOL0     C51515   4.871   5.323   0.581  0.1804 -0.0346  0.7515
  374MOL0     C51516   4.871   5.213   0.473 -1.3330  0.0467 -0.5992
  374MOL0     C51517   4.931   5.086   0.511  0.0429  0.0762 -0.5884
  374MOL0     C51518   4.863   5.002   0.618  0.1033 -0.0352  0.0176
  374MOL0    Cl51519   4.687   5.002   0.611  0.1453  0.1801  0.0682
  374MOL0     C51520   5.488   5.664   0.855 -0.0350  0.7425 -0.3094
  374MOL0     C51521   5.584   5.759   0.897  0.5098 -0.3055  1.1625
  374MOL0     O51522   5.889   5.844   0.720  0.0282 -0.0186 -0.8482
  374MOL0     C51523   6.135   5.943   0.795  0.6058  0.2325 -0.1324
  374MOL0     C51524   6.267   5.986   0.827 -0.0053 -0.2134  0.9651
  374MOL0     N51525   6.645   6.167   1.358 -0.0238 -0.1892  0.4691
  374MOL0     N51526   6.634   6.057   1.419  0.0441  0.6467 -0.7701
  374MOL0     C51527   6.119   5.091   1.717  0.1191  0.8440 -0.1452
  374MOL0     C51528   6.028   4.983   1.757 -0.5273 -0.1403 -0.0174
  374MOL0     C51529   5.883   4.550   1.789  0.2060 -0.0071 -0.4954
  374MOL0     C51530   5.842   4.537   1.924  0.2342 -0.2342 -0.4429
  374MOL0     C51531   5.814   4.409   1.966 -0.3063 -1.2629 -0.3007
  374MOL0     C51532   5.830   4.300   1.884 -1.0932  1.0928 -0.8863
  374MOL0     O51533   5.816   4.175   1.943  0.4317  0.2829  0.5211
  374MOL0     C51534   5.776   4.061   1.861 -0.5094 -0.1605  0.7628
  374MOL0     C51535   5.631   4.069   1.819 -0.7500  0.7148 -0.0366
  374MOL0     C51536   5.586   3.933   1.743  0.4524  0.3132  0.8962
  374MOL0     C51537   5.681   3.868   1.639  0.0726 -0.9317 -0.5530
  374MOL0     C51538   5.710   3.963   1.530  0.3426 -0.2031 -0.8769
  374MOL0     C51539   5.746   4.020   1.434 -0.6260 -0.0348  0.4446
  374MOL0     C51540   5.856   4.312   1.755 -0.1516 -0.6075  0.4334
  374MOL0     C51541   5.889   4.438   1.706  0.1998  0.9397 -0.0238
  374MOL0     C51542   5.928   4.446   1.555 -0.0384 -0.0272 -0.9304
  374MOL0     H51543   6.246   4.718   1.707 -1.9079 -1.4262 -0.9432
  374MOL0     H51544   6.383   4.905   1.616  0.4565 -0.1007  0.0809
  374MOL0     H51545   6.501   5.075   1.575 -0.1692  0.9957  1.3257
  374MOL0     H51546   6.492   5.243   1.564 -0.8266  1.2693 -1.6737
  374MOL0     H51547   6.412   5.071   1.360  0.2441 -0.8548  2.5775
  374MOL0     H51548   6.262   5.143   1.425 -0.0945 -2.5143 -0.2951
  374MOL0     H51549   6.519   5.294   1.319 -0.8235 -0.6777 -0.4189
  374MOL0     H51550   6.371   5.289   1.227  0.1342 -1.7672 -0.3316
  374MOL0     H51551   6.251   5.403   1.403 -0.3562  2.0312 -1.1996
  374MOL0     H51552   6.389   5.418   1.510  0.0387 -0.4830  0.2656
  374MOL0     H51553   6.369   5.572   1.258 -1.7820  0.3303  1.6991
  374MOL0     H51554   6.530   5.529   1.334  0.0701  1.8858 -4.8529
  374MOL0     H51555   6.288   5.687   1.439 -0.4467 -1.1538  0.4972
  374MOL0     H51556   6.427   5.645   1.547  0.1860  0.1033 -1.5552
  374MOL0     H51557   6.416   5.798   1.301 -1.5976 -0.2197  1.1088
  374MOL0     H51558   6.574   5.757   1.390  0.6109 -0.5872  0.3614
  374MOL0     H51559   6.333   5.912   1.486  0.1862 -3.5339  1.0067
  374MOL0     H51560   6.485   5.896   1.570 -0.3360 -1.7897 -0.5735
  374MOL0     H51561   6.334   6.104   1.289  1.0680 -0.5611  0.4036
  374MOL0     H51562   6.492   6.390   1.235 -1.5268  1.2455 -2.2472
  374MOL0     H51563   6.401   6.279   1.136 -0.6126 -0.4667  0.0538
  374MOL0     H51564   6.587   6.393   1.013  1.2615  2.2485  1.7276
  374MOL0     H51565   6.708   6.318   1.125 -0.1501 -1.2031  0.8233
  374MOL0     H51566   6.692   6.211   0.896  0.1493  0.2697  0.0124
  374MOL0     H51567   6.692   6.111   1.044 -0.1789  0.0718  1.4678
  374MOL0     H51568   6.453   6.208   0.887  0.4372  0.4364  0.2112
  374MOL0     H51569   6.535   6.061   0.836  1.8674 -0.7903  1.0127
  374MOL0     H51570   6.233   5.955   1.162  0.8725  0.1867 -0.1827
  374MOL0     H51571   5.970   5.750   1.115 -2.4181  0.5541 -2.7123
  374MOL0     H51572   5.908   5.913   1.143  0.7346  1.4946 -1.7552
  374MOL0     H51573   6.044   5.868   1.229  0.6943 -1.7562 -0.0910
  374MOL0     H51574   5.860   5.584   0.828 -0.7998 -2.2498 -0.1548
  374MOL0     H51575   5.679   5.419   0.750  1.3594  0.9857  0.4250
  374MOL0     H51576   5.245   5.541   0.752  1.8827 -0.3271  2.1654
  374MOL0     H51577   5.345   5.576   0.608  0.6678  0.8352  2.2891
  374MOL0     H51578   5.334   5.364   0.529 -1.8447  0.0636 -2.1693
  374MOL0     H51579   5.262   5.288   0.671 -0.1568 -0.4174  0.9242
  374MOL0     H51580   5.129   5.329   0.455  0.7159  1.5450 -0.9576
  374MOL0     H51581   5.107   5.494   0.502 -0.5997  0.3129 -1.5429
  374MOL0     H51582   5.004   5.433   0.710  0.4122 -1.4137  0.7826
  374MOL0     H51583   5.046   5.259   0.692 -1.4531 -0.6556  0.9134
  374MOL0     H51584   4.800   5.295   0.660 -1.2724  3.6829  0.9697
  374MOL0     H51585   4.835   5.417   0.537 -4.1724 -0.9062  1.9277
  374MOL0     H51586   4.938   5.255   0.397  0.2448  1.4369  1.4391
  374MOL0     H51587   4.773   5.199   0.427 -1.5885  0.3127 -0.1435
  374MOL0     H51588   5.032   5.087   0.554  0.1042  0.8406 -0.7373
  374MOL0     H51589   4.939   5.025   0.420 -2.9519  0.5809 -1.2716
  374MOL0     H51590   4.894   5.032   0.719 -3.0876 -0.1445  1.1305
  374MOL0     H51591   4.897   4.899   0.602 -0.6852 -0.2554 -0.2543
  374MOL0     H51592   5.381   5.681   0.865  0.4200  3.3003  1.0667
  374MOL0     H51593   5.571   5.861   0.934  3.0318 -0.0423  1.5418
  374MOL0     H51594   6.115   5.943   0.688  2.0799  0.8843 -0.4353
  374MOL0     H51595   6.318   6.039   0.748 -0.1317 -2.6228 -0.8620
  374MOL0     H51596   6.095   5.196   1.736  0.1936  0.4754  2.3827
  374MOL0     H51597   5.933   4.998   1.807  0.4323  0.1811  1.8127
  374MOL0     H51598   5.852   4.623   1.990  1.8317 -0.9892  0.3703
  374MOL0     H51599   5.777   4.400   2.068 -1.8753 -2.6953 -0.9430
  374MOL0     H51600   5.837   4.056   1.770  0.2147 -3.3699  1.3015
  374MOL0     H51601   5.810   3.971   1.912 -1.1287 -2.0163 -1.8981
  374MOL0     H51602   5.612   4.158   1.759 -0.8064 -0.7732 -2.3582
  374MOL0     H51603   5.576   4.072   1.914  1.3996  0.8875  1.2496
  374MOL0     H51604   5.566   3.857   1.819  2.3615  0.7427  1.8791
  374MOL0     H51605   5.493   3.959   1.691 -0.7040 -2.8394  1.1562
  374MOL0     H51606   5.648   3.777   1.588 -0.3829 -0.7469 -0.5914
  374MOL0     H51607   5.773   3.844   1.692 -0.9843 -0.2952  1.6672
  374MOL0     H51608   5.782   4.077   1.351  1.2945  1.0917  1.9778
  374MOL0     H51609   5.864   4.227   1.687  2.5334 -0.6452  0.7027
  374MOL0     H51610   5.950   4.350   1.508  0.2803 -0.5115  0.1678
  374MOL0     H51611   5.842   4.501   1.515  0.8875  2.0866 -0.2033
  374MOL0     H51612   6.012   4.515   1.547 -0.5357  1.0630  1.7824
  375MOL0     O51613   7.700   7.385  10.799 -1.0345  0.2306  0.5353
  375MOL0     C51614   7.772   7.289  10.828 -0.6373  0.2264 -0.4604
  375MOL0     O51615   7.733   7.164  10.868  0.1447  0.4845 -0.8081
  375MOL0     C51616   7.628   7.101  10.818  0.7282 -0.1552  0.0821
  375MOL0     C51617   7.532   7.141  10.723 -0.5961  0.0328 -0.0822
  375MOL0     C51618   7.443   7.052  10.666 -0.0750 -0.1855  0.4279
  375MOL0     C51619   7.433   6.925  10.712  0.3761 -0.3706  0.4708
  375MOL0     O51620   7.343   6.843  10.647 -0.1102 -0.9026 -0.4500
  375MOL0     C51621   7.358   6.700  10.661  0.7497  0.1684  0.5999
  375MOL0     C51622   7.231   6.639  10.599 -0.2231 -0.5857  0.1272
  375MOL0     C51623   7.097   6.671  10.662 -1.0158  0.5105  0.1000
  375MOL0     C51624   6.994   6.585  10.587 -0.0928  0.0896  0.6016
  375MOL0     C51625   6.856   6.614  10.650 -0.3282 -0.2460 -0.7995
  375MOL0     C51626   6.800   6.752  10.637  0.5986 -0.2445 -0.6234
  375MOL0     C51627   6.753   6.804  10.497  1.0260  0.1907 -0.6889
  375MOL0     C51628   6.686   6.938  10.514  0.5353 -0.8396 -0.2011
  375MOL0     N51629   6.707   7.011  10.388 -0.1518 -0.4401 -0.2814
  375MOL0     C51630   6.617   7.013  10.285 -0.0402 -0.0004  0.3539
  375MOL0     C51631   6.674   7.093  10.198 -0.5000 -0.2258 -0.6483
  375MOL0     C51632   6.631   7.150  10.063 -0.3530  0.3927 -0.1385
  375MOL0     C51633   6.568   7.288  10.086  0.1101  1.0007 -0.6384
  375MOL0     C51634   6.416   7.291  10.116  0.3937  1.2015 -0.0200
  375MOL0     C51635   6.317   7.238  10.011  0.2651  0.7446  0.3935
  375MOL0     O51636   6.189   7.185  10.040  0.0469 -0.1441 -0.1292
  375MOL0     C51637   6.083   7.273  10.076 -0.2124  1.3796 -0.4846
  375MOL0     C51638   5.970   7.210  10.120 -0.7075  0.6964  0.0821
  375MOL0     C51639   5.862   7.294  10.156 -0.2986  0.2132  0.5857
  375MOL0     C51640   5.739   7.216  10.205  0.0308 -0.1133 -0.3247
  375MOL0     C51641   5.870   7.438  10.154  0.6159  0.2655 -0.5761
  375MOL0     C51642   5.777   7.526  10.224 -0.4869  1.3546 -0.0254
  375MOL0     O51643   5.801   7.655  10.210  0.0194 -0.1315  0.9893
  375MOL0     C51644   5.723   7.751  10.272  0.9003  0.2009  0.4569
  375MOL0     C51645   5.781   7.864  10.321 -0.1345  0.1385  0.0745
  375MOL0     C51646   5.704   7.962  10.383  0.7471 -0.6023  0.5811
  375MOL0     C51647   5.567   7.957  10.399 -0.6990  0.2810 -0.2041
  375MOL0     O51648   5.505   8.056  10.471 -0.4927  0.0724 -0.5493
  375MOL0     C51649   5.359   8.039  10.494  0.4790  0.1538  0.7765
  375MOL0     C51650   5.307   8.153  10.586 -0.6855 -0.9827 -0.0478
  375MOL0     C51651   5.337   8.297  10.541 -0.1312 -0.5095 -0.6351
  375MOL0     C51652   5.275   8.391  10.643  0.8391  0.1244 -1.3029
  375MOL0     C51653   5.276   8.532  10.599 -0.1202  0.1154 -0.1463
  375MOL0     C51654   5.274   8.625  10.721 -0.0799  0.1548 -0.1747
  375MOL0     C51655   5.282   8.768  10.669 -0.3724  0.0591 -0.1116
  375MOL0     C51656   5.426   8.816  10.655  0.1274 -0.2487 -0.1271
  375MOL0    Cl51657   5.463   8.976  10.580  0.4994  0.3475 -0.4020
  375MOL0     C51658   5.500   7.842  10.336  0.4633 -1.4025 -0.3803
  375MOL0     C51659   5.581   7.738  10.278 -0.5913 -0.0890  0.3177
  375MOL0     O51660   5.682   7.475  10.286  0.0481  0.8611  0.8579
  375MOL0     C51661   5.992   7.490  10.120 -0.5141 -0.6773  0.0833
  375MOL0     C51662   6.094   7.410  10.079  0.2808 -0.6548 -0.6879
  375MOL0     N51663   6.800   7.135  10.249  0.5252  0.6367 -0.4875
  375MOL0     N51664   6.818   7.072  10.359 -1.2741 -0.2101 -0.0880
  375MOL0     C51665   7.520   6.891  10.814  0.9296 -0.3471  0.4942
  375MOL0     C51666   7.623   6.968  10.865  0.2061 -0.5456 -0.2371
  375MOL0     C51667   7.915   7.326  10.851 -0.2560 -0.1967 -0.7482
  375MOL0     C51668   7.963   7.409  10.755 -0.3674  0.7754  0.5831
  375MOL0     C51669   8.098   7.424  10.735  0.5867  1.4097 -0.3962
  375MOL0     C51670   8.191   7.351  10.813  0.1794 -0.2545  0.0354
  375MOL0     O51671   8.329   7.354  10.779 -0.0365  0.8148 -0.7103
  375MOL0     C51672   8.372   7.405  10.646  0.2105  0.1234 -0.0183
  375MOL0     C51673   8.514   7.355  10.622 -0.0518 -0.2463  0.1163
  375MOL0     C51674   8.558   7.399  10.482  0.0179 -0.2384 -0.1186
  375MOL0     C51675   8.714   7.384  10.462 -0.4548  0.4307  0.1143
  375MOL0     C51676   8.757   7.249  10.477  0.6734 -0.7365 -0.1627
  375MOL0     C51677   8.786   7.133  10.499  0.3305 -0.2206 -0.2881
  375MOL0     C51678   8.140   7.271  10.914 -0.0445  0.4080  0.2595
  375MOL0     C51679   8.004   7.251  10.933  0.7974  0.9241  0.8228
  375MOL0     C51680   7.958   7.152  11.038  0.3889  0.6017 -1.1501
  375MOL0     H51681   7.524   7.248  10.706 -2.9487  0.4117  2.5988
  375MOL0     H51682   7.374   7.086  10.590  0.6935 -1.0969 -0.7088
  375MOL0     H51683   7.371   6.675  10.766  0.8872  1.1766  0.8342
  375MOL0     H51684   7.453   6.667  10.618 -0.0794 -1.5744  0.0357
  375MOL0     H51685   7.226   6.676  10.496  1.6150 -0.6040 -0.0047
  375MOL0     H51686   7.248   6.531  10.602 -0.8419 -0.6917 -0.0638
  375MOL0     H51687   7.100   6.630  10.764  2.7081 -1.1783 -0.5238
  375MOL0     H51688   7.074   6.777  10.667 -0.4594  0.6278  0.2397
  375MOL0     H51689   6.990   6.601  10.479 -0.7956 -0.1634  0.5882
  375MOL0     H51690   7.007   6.478  10.604 -1.1433 -0.1407  0.0215
  375MOL0     H51691   6.876   6.601  10.757  2.8453 -1.9512 -1.4960
  375MOL0     H51692   6.783   6.535  10.627 -2.2590  0.7948  1.3443
  375MOL0     H51693   6.709   6.748  10.698  0.1537 -3.1018 -1.3374
  375MOL0     H51694   6.851   6.831  10.693 -0.3492 -0.5252  0.6826
  375MOL0     H51695   6.686   6.730  10.453  0.1615 -1.0600  2.4593
  375MOL0     H51696   6.844   6.816  10.438  0.8952  0.4311 -0.8459
  375MOL0     H51697   6.581   6.926  10.542  0.3251  5.4201  3.7011
  375MOL0     H51698   6.725   6.993  10.600 -3.3789 -0.0685  1.2640
  375MOL0     H51699   6.515   6.976  10.276 -0.6179  1.6356 -0.2637
  375MOL0     H51700   6.556   7.093  10.007  0.0132  1.4819 -1.8199
  375MOL0     H51701   6.718   7.160   9.997 -0.7725 -2.1304 -1.1874
  375MOL0     H51702   6.624   7.338  10.165  2.2955 -0.8198 -0.9223
  375MOL0     H51703   6.565   7.351   9.996 -1.9195  1.8395 -0.0450
  375MOL0     H51704   6.395   7.243  10.212  0.6090  0.2877 -0.4222
  375MOL0     H51705   6.382   7.395  10.122  1.1782  1.3750  1.8733
  375MOL0     H51706   6.309   7.315   9.934  1.1267 -1.5993 -2.1858
  375MOL0     H51707   6.373   7.154   9.970 -3.3017 -0.8873 -1.5462
  375MOL0     H51708   5.972   7.104  10.143  0.7023 -0.2078 -3.4460
  375MOL0     H51709   5.751   7.118  10.158 -1.2705  0.5755 -2.1809
  375MOL0     H51710   5.641   7.255  10.176 -0.6685  1.3702  3.3803
  375MOL0     H51711   5.744   7.202  10.314 -0.7887 -0.5071 -0.3281
  375MOL0     H51712   5.882   7.897  10.300  0.5447  0.0929  2.9014
  375MOL0     H51713   5.738   8.056  10.425 -1.7716  0.0117  1.4510
  375MOL0     H51714   5.305   8.041  10.399 -1.6560  0.0529  1.9208
  375MOL0     H51715   5.341   7.942  10.542 -0.1737 -0.4047 -0.5635
  375MOL0     H51716   5.200   8.134  10.593 -1.0766  0.9388 -0.2755
  375MOL0     H51717   5.363   8.146  10.681  2.8064  0.1621 -1.8436
  375MOL0     H51718   5.291   8.324  10.445 -1.1175  0.2374  0.0323
  375MOL0     H51719   5.445   8.311  10.535 -0.0384 -0.5283  0.7847
  375MOL0     H51720   5.320   8.379  10.742  0.7327  0.2658 -1.2374
  375MOL0     H51721   5.173   8.353  10.657  0.5457  0.3735 -2.6252
  375MOL0     H51722   5.372   8.546  10.548  0.9179  1.8314  2.1193
  375MOL0     H51723   5.194   8.552  10.530  1.4775  1.0632 -1.8551
  375MOL0     H51724   5.360   8.592  10.779 -0.0348 -1.3402 -1.0229
  375MOL0     H51725   5.185   8.615  10.785 -0.5291  4.4052  0.1371
  375MOL0     H51726   5.231   8.835  10.739  1.5654  0.0094  1.4125
  375MOL0     H51727   5.232   8.776  10.572  0.0107  0.2047 -0.2948
  375MOL0     H51728   5.497   8.755  10.599 -1.6261  1.2649 -4.3916
  375MOL0     H51729   5.466   8.811  10.757 -2.6683  0.0338  1.0556
  375MOL0     H51730   5.394   7.834  10.317  0.7431 -2.1065 -1.8622
  375MOL0     H51731   5.544   7.645  10.235  0.9381 -0.6807  0.2213
  375MOL0     H51732   6.006   7.597  10.136 -1.4856 -0.7280  1.4767
  375MOL0     H51733   6.188   7.449  10.040  0.7778 -0.2002  0.9164
  375MOL0     H51734   7.517   6.792  10.858 -2.4219 -0.7488 -0.3633
  375MOL0     H51735   7.693   6.941  10.943 -0.3513  1.6254  1.1062
  375MOL0     H51736   7.883   7.450  10.695  0.7058  1.9705 -0.0768
  375MOL0     H51737   8.136   7.488  10.656  1.6692  1.2712 -0.0071
  375MOL0     H51738   8.306   7.392  10.560 -0.7784  2.1327  0.3682
  375MOL0     H51739   8.384   7.514  10.648  1.5582 -0.0189  1.0560
  375MOL0     H51740   8.537   7.250  10.646  1.9886  0.5606  2.1613
  375MOL0     H51741   8.579   7.411  10.691  4.2274 -0.2953 -3.4524
  375MOL0     H51742   8.501   7.343  10.406  0.4450 -0.5826 -0.1894
  375MOL0     H51743   8.538   7.506  10.467  1.0063 -0.0462 -0.1116
  375MOL0     H51744   8.767   7.451  10.531 -0.2244  1.9022 -1.4371
  375MOL0     H51745   8.743   7.409  10.360  2.5959 -1.6108  0.3434
  375MOL0     H51746   8.823   7.035  10.519  1.9934  0.1491 -1.3368
  375MOL0     H51747   8.211   7.203  10.959 -2.6508 -2.4489  0.3773
  375MOL0     H51748   7.946   7.050  11.001 -0.5798  0.4007 -0.3186
  375MOL0     H51749   8.033   7.152  11.118  0.2096  2.5022 -0.9372
  375MOL0     H51750   7.867   7.180  11.090  0.6947 -2.3278  1.2735
  376MOL0     O51751  11.430  10.530  10.280  0.5587  0.2700 -0.8274
  376MOL0     C51752  11.366  10.584  10.191 -0.1499 -0.6428 -0.7308
  376MOL0     O51753  11.414  10.673  10.105  0.6936 -0.2969 -0.7252
  376MOL0     C51754  11.544  10.718  10.116  0.1272  0.7621 -0.6516
  376MOL0     C51755  11.577  10.774  10.246 -0.0789 -0.3222  0.4153
  376MOL0     C51756  11.710  10.825  10.269 -0.3584 -0.2565  0.1964
  376MOL0     C51757  11.807  10.808  10.161 -0.3287 -0.8276  0.6487
  376MOL0     O51758  11.941  10.836  10.173 -0.3824 -0.3254  0.0143
  376MOL0     C51759  12.006  10.827  10.304 -0.3327 -0.3165  0.2776
  376MOL0     C51760  12.152  10.830  10.281 -0.4073 -0.3624  0.0484
  376MOL0     C51761  12.235  10.823  10.414 -0.4165  0.2930  0.1651
  376MOL0     C51762  12.179  10.721  10.520 -1.1541 -0.5208  1.0260
  376MOL0     C51763  12.263  10.706  10.644  0.1187  0.5579  0.0650
  376MOL0     C51764  12.399  10.774  10.663 -0.2881 -0.6979 -0.5707
  376MOL0     C51765  12.474  10.743  10.792  0.0059 -0.2850  0.3250
  376MOL0     C51766  12.603  10.832  10.796 -0.3927  0.2802  0.2650
  376MOL0     N51767  12.691  10.830  10.914  0.5737 -0.0789 -0.0017
  376MOL0     C51768  12.726  10.928  10.999  0.6479  0.0245 -0.6229
  376MOL0     C51769  12.816  10.875  11.090 -0.2240  0.8394 -0.4294
  376MOL0     C51770  12.864  10.959  11.213  0.3608 -0.1157 -0.6112
  376MOL0     C51771  12.910  10.868  11.330  0.4211 -0.5967 -0.1146
  376MOL0     C51772  12.797  10.830  11.429 -0.0432 -0.7741  0.4582
  376MOL0     C51773  12.838  10.695  11.497  0.0742 -0.1768  0.2844
  376MOL0     O51774  12.728  10.631  11.573 -0.4126 -0.3749 -0.3467
  376MOL0     C51775  12.620  10.588  11.497 -0.1410  0.5314  0.2535
  376MOL0     C51776  12.634  10.548  11.364 -0.5499  0.3989  0.0407
  376MOL0     C51777  12.528  10.492  11.293  1.4936 -0.1251  0.5649
  376MOL0     C51778  12.550  10.433  11.156  0.3211  0.0223  0.2856
  376MOL0     C51779  12.400  10.506  11.351  0.7026 -0.2035 -0.4193
  376MOL0     C51780  12.276  10.471  11.282  0.3444 -0.2400 -0.6299
  376MOL0     O51781  12.267  10.524  11.157  0.1943 -0.2026 -0.2578
  376MOL0     C51782  12.160  10.509  11.072  0.7688  0.0365 -0.1350
  376MOL0     C51783  12.022  10.521  11.103  0.1188 -0.4061  0.2355
  376MOL0     C51784  11.927  10.491  11.005 -0.5404 -0.5432 -0.1174
  376MOL0     C51785  11.957  10.463  10.873  0.1535  0.0869 -0.1029
  376MOL0     O51786  11.862  10.430  10.781 -0.3251 -0.0069  0.5350
  376MOL0     C51787  11.880  10.497  10.652  0.4855  0.1598  0.2862
  376MOL0     C51788  11.829  10.393  10.554 -0.1881  0.2577  0.1079
  376MOL0     C51789  11.793  10.468  10.427 -0.3496  0.3631 -0.4296
  376MOL0     C51790  11.719  10.387  10.317 -0.9330  0.3857 -0.0116
  376MOL0     C51791  11.817  10.283  10.249 -0.3670 -1.4049 -0.2452
  376MOL0     C51792  11.781  10.245  10.103  0.6067 -0.1710  0.5920
  376MOL0     C51793  11.898  10.158  10.057  0.7950 -0.2324 -0.0370
  376MOL0     C51794  11.883  10.108   9.916 -1.2605  0.0876 -0.3556
  376MOL0    Cl51795  11.988   9.959   9.908 -0.3224  0.0455 -0.2686
  376MOL0     C51796  12.095  10.454  10.849 -0.2414 -0.0941  0.2073
  376MOL0     C51797  12.197  10.488  10.942  0.4586  0.1395 -0.5036
  376MOL0     O51798  12.194  10.392  11.332  0.0169 -0.4278  0.6951
  376MOL0     C51799  12.390  10.546  11.488  0.6477 -0.9511  0.4901
  376MOL0     C51800  12.503  10.574  11.565 -0.2650  0.2721 -0.0656
  376MOL0     N51801  12.828  10.740  11.064 -0.2235 -0.6290 -0.2254
  376MOL0     N51802  12.756  10.714  10.958  0.3767 -0.0153  0.2021
  376MOL0     C51803  11.774  10.744  10.041  0.5850  0.0147  0.3961
  376MOL0     C51804  11.638  10.707  10.014 -0.3323  0.7011 -0.7122
  376MOL0     C51805  11.225  10.548  10.178 -0.2082  1.1470  0.0221
  376MOL0     C51806  11.193  10.417  10.185  0.0971  0.7415  0.5887
  376MOL0     C51807  11.068  10.363  10.148 -0.5432  0.5678 -0.1397
  376MOL0     C51808  10.969  10.452  10.114  0.4014 -0.5415  0.3780
  376MOL0     O51809  10.843  10.403  10.089  0.6290 -0.2186 -0.4436
  376MOL0     C51810  10.838  10.357   9.950  0.1562 -0.1493  1.0806
  376MOL0     C51811  10.773  10.224   9.945  0.1736  0.3373  0.2745
  376MOL0     C51812  10.746  10.179   9.801  1.0844 -0.0473 -0.5493
  376MOL0     C51813  10.672  10.048   9.811 -0.0387  0.1524  0.2293
  376MOL0     C51814  10.629   9.996   9.682 -0.0107  0.2929  0.5679
  376MOL0     C51815  10.581   9.962   9.578 -0.4342 -0.1308 -0.0618
  376MOL0     C51816  10.989  10.588  10.127 -0.1932  0.2181  0.0974
  376MOL0     C51817  11.115  10.636  10.164 -0.1153 -0.6488  0.9753
  376MOL0     C51818  11.137  10.783  10.169 -0.4463 -0.0209 -0.0841
  376MOL0     H51819  11.495  10.766  10.317 -1.0678  0.3801 -0.6069
  376MOL0     H51820  11.743  10.852  10.369  1.2733 -1.3464 -0.0018
  376MOL0     H51821  11.982  10.728  10.344 -2.5390 -0.9107 -2.2426
  376MOL0     H51822  11.987  10.899  10.384 -0.9395 -0.4667  0.2711
  376MOL0     H51823  12.189  10.749  10.218  2.5668  0.7417  0.1802
  376MOL0     H51824  12.178  10.926  10.235  3.8839  0.1890  2.9804
  376MOL0     H51825  12.338  10.795  10.390 -0.0472  0.4327  1.5159
  376MOL0     H51826  12.236  10.923  10.458 -1.8738 -0.3088  1.7219
  376MOL0     H51827  12.083  10.754  10.559 -0.0321  1.3956  2.3808
  376MOL0     H51828  12.182  10.625  10.468 -0.7987  0.0662 -0.0995
  376MOL0     H51829  12.285  10.601  10.666  1.7918  1.2388  1.8609
  376MOL0     H51830  12.208  10.749  10.728  1.0916 -0.8343  1.4555
  376MOL0     H51831  12.458  10.730  10.582 -0.1130  3.8753 -3.2747
  376MOL0     H51832  12.383  10.882  10.654  0.7555 -0.3889  0.9854
  376MOL0     H51833  12.504  10.637  10.793 -0.4544 -0.4126  0.5612
  376MOL0     H51834  12.412  10.769  10.877 -1.2417  0.0369 -0.6546
  376MOL0     H51835  12.669  10.797  10.716 -1.9324 -1.2138 -0.4148
  376MOL0     H51836  12.580  10.937  10.777  1.1848  0.8665  1.3832
  376MOL0     H51837  12.705  11.034  11.003  2.5031  0.4318 -0.8809
  376MOL0     H51838  12.783  11.022  11.250  1.4278  0.2331  1.2656
  376MOL0     H51839  12.949  11.025  11.196 -1.4684  3.0298  1.5253
  376MOL0     H51840  12.974  10.790  11.288  2.7095  1.5492 -0.8922
  376MOL0     H51841  12.983  10.927  11.387  1.1567  0.5766 -2.1476
  376MOL0     H51842  12.766  10.913  11.494 -1.8704  1.1409 -2.5624
  376MOL0     H51843  12.708  10.825  11.365 -0.1796 -1.4894  0.7033
  376MOL0     H51844  12.880  10.631  11.419 -1.1388  3.6755 -3.9568
  376MOL0     H51845  12.917  10.728  11.565  0.3083  1.8372 -0.8704
  376MOL0     H51846  12.725  10.531  11.306 -1.5795  1.1899 -1.8964
  376MOL0     H51847  12.467  10.366  11.134 -0.7154  1.1679  0.5931
  376MOL0     H51848  12.647  10.382  11.157  0.6309  0.5972 -0.3108
  376MOL0     H51849  12.544  10.520  11.090 -1.5137 -1.0809 -1.0850
  376MOL0     H51850  11.983  10.533  11.203  0.4353  1.0557  0.2022
  376MOL0     H51851  11.824  10.500  11.035 -0.2771 -1.0033  0.9685
  376MOL0     H51852  11.819  10.588  10.650  0.0056 -0.1625  0.1026
  376MOL0     H51853  11.987  10.517  10.640  0.6256  1.2560  2.8118
  376MOL0     H51854  11.899  10.309  10.544 -1.6400 -1.0339  0.3087
  376MOL0     H51855  11.736  10.349  10.591 -0.6473  1.1460  0.0297
  376MOL0     H51856  11.886  10.510  10.387 -0.3797  0.6557 -0.1933
  376MOL0     H51857  11.737  10.561  10.440 -0.9752  0.1347 -1.4184
  376MOL0     H51858  11.673  10.455  10.245  0.7727  1.8104  0.1858
  376MOL0     H51859  11.636  10.323  10.349 -0.1106 -0.9265 -0.4382
  376MOL0     H51860  11.921  10.310  10.266 -1.3154  1.6960  1.4560
  376MOL0     H51861  11.795  10.199  10.316 -1.7669 -1.1509 -0.3462
  376MOL0     H51862  11.758  10.328  10.036  3.2574 -0.3549 -0.6679
  376MOL0     H51863  11.689  10.187  10.093 -0.0622  0.5879  2.1400
  376MOL0     H51864  11.916  10.076  10.128  2.7289  2.9400  3.5181
  376MOL0     H51865  11.992  10.214  10.051  1.0540 -0.7463 -1.0066
  376MOL0     H51866  11.930  10.171   9.839  0.2543 -0.5705 -0.0082
  376MOL0     H51867  11.779  10.091   9.887 -0.9230  1.4818 -2.6192
  376MOL0     H51868  12.141  10.401  10.766  0.6273  2.3603 -0.9816
  376MOL0     H51869  12.299  10.489  10.904  0.9642 -1.1883  0.7227
  376MOL0     H51870  12.293  10.568  11.531  1.3518  2.5216  0.6148
  376MOL0     H51871  12.490  10.587  11.672 -2.0844 -0.3061 -0.1747
  376MOL0     H51872  11.857  10.729   9.972  0.8280 -0.6990  0.8289
  376MOL0     H51873  11.609  10.662   9.920 -1.1021  1.4665 -0.8583
  376MOL0     H51874  11.257  10.338  10.222 -0.3359  0.2702  0.3343
  376MOL0     H51875  11.046  10.257  10.143 -0.5518  0.4415  1.9461
  376MOL0     H51876  10.772  10.430   9.902 -1.3473 -0.6765  2.2512
  376MOL0     H51877  10.931  10.359   9.892 -1.1257  1.7754 -1.0904
  376MOL0     H51878  10.686  10.235  10.011 -1.0176 -1.1673 -0.9811
  376MOL0     H51879  10.841  10.152   9.992 -0.5913 -0.0203  0.8615
  376MOL0     H51880  10.675  10.243   9.747  1.2275 -1.1859 -2.1421
  376MOL0     H51881  10.839  10.172   9.745  1.9540  0.3034  0.8115
  376MOL0     H51882  10.583  10.073   9.870  0.5393 -0.7796  1.5340
  376MOL0     H51883  10.732   9.978   9.870  0.3103 -1.4736 -1.9628
  376MOL0     H51884  10.540   9.924   9.487 -0.5063  4.9593 -2.4735
  376MOL0     H51885  10.903  10.649  10.099 -2.0252 -2.5755 -0.7812
  376MOL0     H51886  11.228  10.786  10.230  0.6678 -1.9040 -1.5111
  376MOL0     H51887  11.156  10.822  10.069  0.6246 -0.7965 -0.2053
  376MOL0     H51888  11.060  10.831  10.230 -0.6034  0.7456 -0.8695
  377MOL0     O51889   9.120   5.709  10.442 -0.1166  0.0322  0.4468
  377MOL0     C51890   9.084   5.763  10.346  0.2785  0.6355  0.1218
  377MOL0     O51891   9.169   5.822  10.262 -0.1701  0.2173 -0.4106
  377MOL0     C51892   9.301   5.804  10.292  0.8788  0.2304  0.8525
  377MOL0     C51893   9.365   5.675  10.298  0.4669  0.0997 -0.6851
  377MOL0     C51894   9.505   5.659  10.288 -0.4521  0.1521 -0.4732
  377MOL0     C51895   9.580   5.778  10.298 -0.0818  0.2005  0.0314
  377MOL0     O51896   9.722   5.770  10.311  0.5333  0.2397  0.1442
  377MOL0     C51897   9.792   5.657  10.371 -0.0413 -0.6111 -0.0766
  377MOL0     C51898   9.941   5.692  10.381  1.1969  0.4036  0.3231
  377MOL0     C51899  10.017   5.567  10.428 -0.5489  0.0496 -0.2570
  377MOL0     C51900  10.166   5.619  10.452  0.0368 -0.0367 -0.4122
  377MOL0     C51901  10.268   5.506  10.450  0.2916  0.6035  0.2815
  377MOL0     C51902  10.411   5.533  10.495  0.0352 -0.1388 -0.3088
  377MOL0     C51903  10.495   5.599  10.380  0.3898  0.7823  0.1934
  377MOL0     C51904  10.628   5.659  10.424  0.0226 -0.4975  0.0243
  377MOL0     N51905  10.694   5.716  10.303 -0.4040 -0.0118  0.3966
  377MOL0     C51906  10.674   5.838  10.243  0.2228  0.2419  0.3595
  377MOL0     C51907  10.741   5.833  10.122 -0.1315  0.4215  0.3662
  377MOL0     C51908  10.757   5.947  10.028  0.6271 -1.1772 -0.6990
  377MOL0     C51909  10.623   5.994   9.955  0.0019 -0.0158 -0.5771
  377MOL0     C51910  10.611   5.919   9.821  0.0829 -0.1209 -0.0287
  377MOL0     C51911  10.465   5.925   9.759 -0.5653 -0.6584 -0.4007
  377MOL0     O51912  10.382   5.887   9.862 -0.1692 -0.1712  0.7245
  377MOL0     C51913  10.252   5.866   9.844  0.1601  0.1368 -0.0220
  377MOL0     C51914  10.191   5.789   9.748 -0.9317  0.6715 -0.6050
  377MOL0     C51915  10.050   5.782   9.742 -0.3649 -0.3674 -0.1422
  377MOL0     C51916   9.995   5.690   9.640 -0.0901  0.9829  0.7054
  377MOL0     C51917   9.970   5.860   9.829 -0.4113  0.2923 -0.2289
  377MOL0     C51918   9.823   5.879   9.816 -0.0772 -0.4757 -0.5380
  377MOL0     O51919   9.759   5.974   9.891  0.1834 -0.8431 -0.2838
  377MOL0     C51920   9.622   5.976   9.875  0.0553 -0.2760 -0.0076
  377MOL0     C51921   9.570   6.097   9.830 -1.1636  0.4107  0.7423
  377MOL0     C51922   9.432   6.117   9.814 -0.0271  0.1881  0.0414
  377MOL0     C51923   9.336   6.014   9.841 -0.1406 -0.6420 -0.0568
  377MOL0     O51924   9.205   6.025   9.828  0.0370  0.9393 -0.3166
  377MOL0     C51925   9.148   6.156   9.811 -0.3785  0.3777  1.6992
  377MOL0     C51926   9.003   6.148   9.851 -0.2933 -0.1546 -0.5767
  377MOL0     C51927   8.942   6.280   9.829 -0.3642  0.1265 -0.2079
  377MOL0     C51928   8.793   6.271   9.845  0.0360 -0.1046  0.3358
  377MOL0     C51929   8.740   6.224   9.982 -0.0653  0.2741 -0.1321
  377MOL0     C51930   8.591   6.246   9.985  0.1366  0.3292 -0.7653
  377MOL0     C51931   8.508   6.217  10.113  0.6521 -0.7734 -0.4560
  377MOL0     C51932   8.368   6.273  10.101  0.2286  0.4282 -0.6670
  377MOL0    Cl51933   8.296   6.187   9.977  0.3288  0.4099 -0.1435
  377MOL0     C51934   9.390   5.898   9.888  0.6183  1.1073  0.1921
  377MOL0     C51935   9.532   5.880   9.917 -0.1976 -0.1200 -0.1168
  377MOL0     O51936   9.763   5.805   9.739 -1.1709 -0.2211  0.1857
  377MOL0     C51937  10.036   5.947   9.921  0.4269 -0.2139 -0.0810
  377MOL0     C51938  10.173   5.933   9.936 -0.3479 -1.0910  0.3956
  377MOL0     N51939  10.803   5.709  10.117  0.2692 -0.8954  0.0620
  377MOL0     N51940  10.775   5.649  10.222 -0.4860 -0.9243  0.1616
  377MOL0     C51941   9.521   5.905  10.298  0.3516 -0.1699  0.4941
  377MOL0     C51942   9.381   5.914  10.286  0.2618 -0.8385  0.2150
  377MOL0     C51943   8.938   5.779  10.324  0.1614  0.4407  0.5219
  377MOL0     C51944   8.890   5.897  10.264  1.0315  0.4544  0.2558
  377MOL0     C51945   8.755   5.923  10.247  0.3773  0.1899  0.3896
  377MOL0     C51946   8.666   5.835  10.311  0.0614 -0.6372 -0.0442
  377MOL0     O51947   8.533   5.860  10.285 -0.1505 -0.5806 -0.1553
  377MOL0     C51948   8.428   5.829  10.378 -0.5704 -0.2738  0.1529
  377MOL0     C51949   8.304   5.839  10.297  0.5449 -0.0275 -0.3886
  377MOL0     C51950   8.178   5.838  10.392 -0.1941 -0.1488 -0.0499
  377MOL0     C51951   8.111   5.708  10.438 -0.4364 -0.7098  0.4761
  377MOL0     C51952   8.089   5.617  10.327 -0.2150 -0.1052 -0.0381
  377MOL0     C51953   8.050   5.553  10.233  0.1781 -0.6212  0.5022
  377MOL0     C51954   8.709   5.728  10.386 -0.0590  0.9105 -0.5861
  377MOL0     C51955   8.839   5.696  10.391  0.0404  0.0441  0.1121
  377MOL0     C51956   8.864   5.560  10.447 -0.0353 -0.3403  0.1046
  377MOL0     H51957   9.299   5.589  10.305 -0.9818  1.2905  0.8825
  377MOL0     H51958   9.561   5.566  10.293 -0.9389 -0.2949 -2.2726
  377MOL0     H51959   9.783   5.568  10.308 -2.0628  0.8757 -2.0710
  377MOL0     H51960   9.741   5.651  10.468 -1.7641  1.1661 -0.7997
  377MOL0     H51961   9.958   5.720  10.277 -2.7617  0.6527 -0.4401
  377MOL0     H51962   9.965   5.775  10.449 -4.6833  1.9709  1.0396
  377MOL0     H51963   9.974   5.524  10.519 -1.6609 -0.7287 -1.1356
  377MOL0     H51964  10.015   5.487  10.354 -0.9127  0.4180 -0.6531
  377MOL0     H51965  10.193   5.702  10.386 -2.5310  0.5839 -0.8138
  377MOL0     H51966  10.173   5.666  10.551  1.2203 -1.0021 -0.0085
  377MOL0     H51967  10.268   5.464  10.348 -2.5872 -1.0107  0.8333
  377MOL0     H51968  10.235   5.419  10.508  0.8253  0.6733  0.6961
  377MOL0     H51969  10.408   5.601  10.581 -0.7625 -0.7221  0.1382
  377MOL0     H51970  10.458   5.439  10.523 -3.9278 -1.9946  0.7739
  377MOL0     H51971  10.442   5.685  10.338 -1.0590  0.7198  1.7509
  377MOL0     H51972  10.513   5.528  10.299 -1.0716 -0.2277  0.6969
  377MOL0     H51973  10.610   5.747  10.487  2.4835  2.2044 -2.7258
  377MOL0     H51974  10.689   5.584  10.475 -0.8599  0.7198  3.0875
  377MOL0     H51975  10.608   5.913  10.286 -1.3090 -1.3756  0.9790
  377MOL0     H51976  10.840   5.930   9.959  1.1435  0.2394 -0.4630
  377MOL0     H51977  10.777   6.039  10.084 -1.8414  0.7834 -2.7731
  377MOL0     H51978  10.532   5.999  10.017 -1.5641 -1.2920 -2.6685
  377MOL0     H51979  10.633   6.099   9.924 -0.2478  0.0405 -0.4757
  377MOL0     H51980  10.666   5.976   9.746  1.0437 -0.1761  0.6151
  377MOL0     H51981  10.649   5.818   9.838  0.4238 -0.1608 -0.9655
  377MOL0     H51982  10.431   6.024   9.728 -1.5788 -0.8587  0.0440
  377MOL0     H51983  10.469   5.867   9.666  3.2420  1.2494 -1.6694
  377MOL0     H51984  10.257   5.733   9.682 -0.6935 -1.2098  1.1009
  377MOL0     H51985  10.066   5.625   9.589 -0.0109  2.0612 -0.6073
  377MOL0     H51986   9.946   5.746   9.560 -0.6569  0.7816  0.9090
  377MOL0     H51987   9.932   5.617   9.690  1.2854  1.0040  2.5716
  377MOL0     H51988   9.637   6.173   9.790 -0.5614 -2.2920 -4.1494
  377MOL0     H51989   9.405   6.213   9.771  1.2348  0.3549 -0.4300
  377MOL0     H51990   9.213   6.226   9.864  0.2482  1.5541 -0.5029
  377MOL0     H51991   9.152   6.188   9.707 -0.3549 -1.4624  1.0925
  377MOL0     H51992   8.953   6.066   9.799 -1.0477  0.1065 -0.2675
  377MOL0     H51993   8.991   6.126   9.957 -0.0592  1.3022 -0.2303
  377MOL0     H51994   8.967   6.311   9.727 -0.6656 -1.8414 -0.9218
  377MOL0     H51995   8.982   6.353   9.900 -0.6795  1.7565 -1.6492
  377MOL0     H51996   8.753   6.205   9.767  1.8514 -0.1083 -0.6204
  377MOL0     H51997   8.751   6.367   9.816 -0.5175 -0.3718  0.2237
  377MOL0     H51998   8.759   6.119  10.006  2.5300  0.1607 -2.2974
  377MOL0     H51999   8.783   6.280  10.065 -1.8366  2.0040 -0.3118
  377MOL0     H52000   8.557   6.183   9.903  0.8279 -1.6263  0.3656
  377MOL0     H52001   8.587   6.354   9.972  2.7142  1.0204  2.6133
  377MOL0     H52002   8.565   6.256  10.198  1.4000 -0.5611 -1.0423
  377MOL0     H52003   8.495   6.111  10.133 -1.4177 -0.1090  2.2408
  377MOL0     H52004   8.368   6.380  10.076 -4.5073  0.4105 -1.7350
  377MOL0     H52005   8.305   6.273  10.190  0.0209  1.2702 -0.8014
  377MOL0     H52006   9.329   5.810   9.905  1.5925  0.4372  0.3224
  377MOL0     H52007   9.567   5.788   9.962  0.7074 -0.2022 -0.9484
  377MOL0     H52008   9.997   6.020   9.991  2.9377 -2.5993  4.2654
  377MOL0     H52009  10.223   5.989  10.014 -2.3415  0.3730  0.7013
  377MOL0     H52010   9.586   5.992  10.296  0.9685 -0.5715 -2.7169
  377MOL0     H52011   9.331   6.011  10.282 -1.4801 -1.6885  0.2497
  377MOL0     H52012   8.967   5.964  10.228  3.1896 -1.1254  1.6988
  377MOL0     H52013   8.714   6.009  10.195  0.0529  0.2600  0.7548
  377MOL0     H52014   8.439   5.730  10.424 -2.8016 -0.3547  0.6321
  377MOL0     H52015   8.432   5.910  10.452 -1.9997  0.1458 -0.1973
  377MOL0     H52016   8.305   5.764  10.217  0.5352 -1.8641  1.2616
  377MOL0     H52017   8.295   5.930  10.237 -0.2795 -0.7331 -1.3892
  377MOL0     H52018   8.206   5.886  10.486  2.3090 -1.0343 -0.2568
  377MOL0     H52019   8.101   5.898  10.342  1.6725  1.3618 -1.2855
  377MOL0     H52020   8.015   5.726  10.487  0.6197  1.1873  2.0054
  377MOL0     H52021   8.179   5.656  10.507 -0.4277  0.2885  1.2420
  377MOL0     H52022   8.031   5.511  10.136 -1.1559  0.2752  0.3624
  377MOL0     H52023   8.634   5.659  10.423  1.3345 -1.5934 -2.1877
  377MOL0     H52024   8.773   5.501  10.435  0.4991 -0.9116 -1.3343
  377MOL0     H52025   8.936   5.503  10.388  1.2066 -2.7017  3.6215
  377MOL0     H52026   8.911   5.567  10.545  1.2039  2.0552 -0.5676
  378MOL0     O52027   5.632   4.122   3.588  0.4336 -0.4882 -0.2174
  378MOL0     C52028   5.526   4.116   3.653 -0.0870 -0.5407  0.0020
  378MOL0     O52029   5.507   4.186   3.770 -0.2268  0.1337 -0.8142
  378MOL0     C52030   5.608   4.258   3.841  0.2054  0.7048  0.3776
  378MOL0     C52031   5.577   4.361   3.930 -0.9082 -0.0226 -0.5039
  378MOL0     C52032   5.675   4.432   4.005  0.1009 -0.6499  0.2680
  378MOL0     C52033   5.806   4.424   3.965 -0.1736  0.2182 -0.9699
  378MOL0     O52034   5.900   4.502   4.015  0.2918 -0.0368  0.3323
  378MOL0     C52035   5.866   4.631   4.063 -0.4640 -0.7805 -0.1261
  378MOL0     C52036   5.815   4.727   3.955 -0.3447  0.4224 -0.4326
  378MOL0     C52037   5.824   4.873   4.004 -0.1638 -0.9879  0.2672
  378MOL0     C52038   5.765   4.973   3.898  0.1461 -0.8975 -0.2004
  378MOL0     C52039   5.745   5.116   3.959 -0.6405  0.0994  0.1567
  378MOL0     C52040   5.878   5.189   4.002  0.2864  0.1954  0.2741
  378MOL0     C52041   5.982   5.212   3.891 -1.0974 -0.1745  0.0629
  378MOL0     C52042   6.095   5.296   3.956  0.2180 -0.1752 -0.4335
  378MOL0     N52043   6.198   5.302   3.852  0.9048 -0.5217  0.5386
  378MOL0     C52044   6.327   5.258   3.872 -0.0270 -0.4824 -0.2808
  378MOL0     C52045   6.404   5.334   3.792 -0.7754 -0.3556 -0.7434
  378MOL0     C52046   6.552   5.324   3.769 -0.6983 -0.3429  0.0784
  378MOL0     C52047   6.588   5.228   3.657  0.2501 -0.4568  0.0980
  378MOL0     C52048   6.714   5.147   3.679  0.8104 -0.0719 -0.0652
  378MOL0     C52049   6.735   5.061   3.560 -0.1874  0.2485 -0.4768
  378MOL0     O52050   6.843   4.970   3.579  0.3822 -0.2660 -0.9694
  378MOL0     C52051   6.835   4.840   3.610 -0.4574  0.0121  0.3400
  378MOL0     C52052   6.723   4.765   3.651  0.3521  0.8985 -0.0670
  378MOL0     C52053   6.731   4.626   3.676  0.3360  0.3022  0.8217
  378MOL0     C52054   6.603   4.561   3.698  0.3953  0.1344 -0.3389
  378MOL0     C52055   6.859   4.556   3.656  0.6208 -0.4433  0.8993
  378MOL0     C52056   6.889   4.414   3.683  0.5476 -0.1710  0.9314
  378MOL0     O52057   6.993   4.355   3.619 -1.5571  0.5981 -0.8291
  378MOL0     C52058   7.038   4.223   3.636 -0.6796  0.9148 -1.0403
  378MOL0     C52059   7.108   4.168   3.522 -0.2982 -0.2024  0.1402
  378MOL0     C52060   7.151   4.030   3.523  0.1649  0.6532 -0.9737
  378MOL0     C52061   7.127   3.957   3.639  0.9505  0.8766  0.0776
  378MOL0     O52062   7.160   3.823   3.651  0.4054  0.3154 -0.1199
  378MOL0     C52063   7.296   3.775   3.618  0.1366  0.1029 -0.7896
  378MOL0     C52064   7.402   3.866   3.680 -0.1389 -0.1756  0.5028
  378MOL0     C52065   7.553   3.826   3.645 -0.0139  0.0913 -0.4475
  378MOL0     C52066   7.663   3.900   3.711  0.7244 -0.3791  0.4258
  378MOL0     C52067   7.802   3.835   3.692  1.1230 -0.2136  0.0597
  378MOL0     C52068   7.908   3.940   3.670  0.5246  1.0257  0.1323
  378MOL0     C52069   8.050   3.889   3.693  0.4490 -0.2348 -1.0851
  378MOL0     C52070   8.058   3.827   3.838  1.0392  0.1719 -0.5196
  378MOL0    Cl52071   8.233   3.793   3.858 -0.2917 -0.0670 -0.2015
  378MOL0     C52072   7.078   4.016   3.751  0.3644 -0.1637 -0.5864
  378MOL0     C52073   7.031   4.143   3.755 -1.1404  0.8640  0.5832
  378MOL0     O52074   6.809   4.359   3.763 -0.3769 -0.2736 -0.5252
  378MOL0     C52075   6.967   4.633   3.603 -0.1435 -1.0473  0.9122
  378MOL0     C52076   6.954   4.775   3.579  0.0047  0.6413 -0.0906
  378MOL0     N52077   6.320   5.417   3.728 -0.2234  0.1574  0.5515
  378MOL0     N52078   6.199   5.407   3.764 -0.5836 -0.8754 -0.6527
  378MOL0     C52079   5.843   4.332   3.877 -0.0323  0.2179 -0.6577
  378MOL0     C52080   5.747   4.238   3.829 -0.8464 -0.5113  0.0168
  378MOL0     C52081   5.413   4.032   3.618 -0.8341  0.0422  1.1359
  378MOL0     C52082   5.289   4.046   3.679  0.2285  0.2701  0.4446
  378MOL0     C52083   5.165   3.997   3.643 -0.7006  0.1813  1.3989
  378MOL0     C52084   5.166   3.912   3.533  0.7067  0.7782  0.4693
  378MOL0     O52085   5.036   3.863   3.501 -0.3553 -0.2139  0.3385
  378MOL0     C52086   5.018   3.736   3.433  0.6831  0.4828  0.4924
  378MOL0     C52087   4.869   3.703   3.434 -0.3529  0.6076  0.3467
  378MOL0     C52088   4.843   3.570   3.366 -0.5130  0.6859  0.2943
  378MOL0     C52089   4.708   3.507   3.391  0.0997 -0.1052 -0.3616
  378MOL0     C52090   4.682   3.480   3.534 -0.6986  0.2245  0.3736
  378MOL0     C52091   4.655   3.456   3.651 -0.4297  0.1443  0.2310
  378MOL0     C52092   5.290   3.879   3.474  0.1948  0.4386  1.0662
  378MOL0     C52093   5.409   3.934   3.515 -0.9828  0.2192  1.0048
  378MOL0     C52094   5.532   3.871   3.448  0.3252  0.8810  0.0707
  378MOL0     H52095   5.473   4.384   3.952  0.4256  4.4651  2.6411
  378MOL0     H52096   5.639   4.507   4.075 -0.7773 -2.0404  1.3579
  378MOL0     H52097   5.954   4.673   4.114 -1.6097 -0.0536  1.3194
  378MOL0     H52098   5.788   4.631   4.139 -1.2326 -2.5124 -0.8659
  378MOL0     H52099   5.865   4.725   3.858 -1.9300  4.2292 -1.5408
  378MOL0     H52100   5.709   4.701   3.941 -0.9262  1.8877  0.8686
  378MOL0     H52101   5.785   4.889   4.106  0.6644  0.2063  0.4128
  378MOL0     H52102   5.932   4.891   4.009  0.6359 -3.9215 -2.9616
  378MOL0     H52103   5.830   4.994   3.813 -0.0974  1.8825  0.2070
  378MOL0     H52104   5.668   4.931   3.871 -1.0135  0.0983  2.1422
  378MOL0     H52105   5.678   5.120   4.045 -0.4962  1.4170  0.2277
  378MOL0     H52106   5.703   5.183   3.884  0.6262 -1.6602 -2.2476
  378MOL0     H52107   5.862   5.280   4.061 -2.5717  0.4609 -0.7667
  378MOL0     H52108   5.926   5.128   4.079  0.2709  1.6829  1.5166
  378MOL0     H52109   5.938   5.262   3.804  0.9966 -2.3692 -2.4236
  378MOL0     H52110   6.029   5.117   3.863 -0.4973  0.5125 -1.3769
  378MOL0     H52111   6.065   5.399   3.978  1.3672  0.2250 -0.6668
  378MOL0     H52112   6.150   5.261   4.044  1.9203  1.2565 -0.8799
  378MOL0     H52113   6.370   5.184   3.938  1.4688 -1.2447 -2.0095
  378MOL0     H52114   6.610   5.308   3.860 -1.5655 -0.1544  0.6752
  378MOL0     H52115   6.588   5.424   3.741 -0.3805 -0.6074 -0.4769
  378MOL0     H52116   6.502   5.160   3.659 -0.7040  0.6869 -0.9056
  378MOL0     H52117   6.589   5.285   3.564  1.4207  0.6193  0.7553
  378MOL0     H52118   6.802   5.213   3.686 -1.6502  3.5426 -0.3525
  378MOL0     H52119   6.696   5.090   3.770 -1.3873 -1.0278 -1.0218
  378MOL0     H52120   6.647   4.997   3.551 -0.2094 -0.0387  1.4544
  378MOL0     H52121   6.762   5.122   3.473 -2.1567  2.1331  0.1411
  378MOL0     H52122   6.633   4.816   3.682  0.8668  2.0948 -0.4685
  378MOL0     H52123   6.600   4.503   3.791  0.6052  1.9948  0.8716
  378MOL0     H52124   6.578   4.493   3.615 -0.4321 -1.1900  0.9378
  378MOL0     H52125   6.524   4.635   3.713 -1.7751 -2.2579  0.9379
  378MOL0     H52126   7.126   4.235   3.439  0.6914 -0.6547 -0.0243
  378MOL0     H52127   7.210   4.000   3.437  2.4670 -0.1656  0.7997
  378MOL0     H52128   7.317   3.676   3.660  0.2310  1.5626  2.9688
  378MOL0     H52129   7.304   3.770   3.509 -0.5798 -0.4635 -0.8230
  378MOL0     H52130   7.380   3.966   3.642  1.4143 -0.9027 -2.5887
  378MOL0     H52131   7.388   3.871   3.789 -1.0542  0.1151  0.3787
  378MOL0     H52132   7.556   3.835   3.536 -4.9990  0.1979 -0.7910
  378MOL0     H52133   7.565   3.717   3.645 -0.1167  0.0736 -1.0414
  378MOL0     H52134   7.640   3.904   3.818 -2.0108  0.7732 -0.1331
  378MOL0     H52135   7.658   4.004   3.675 -1.7996 -0.6291 -0.1160
  378MOL0     H52136   7.826   3.767   3.774  1.2774  0.7380  0.8228
  378MOL0     H52137   7.800   3.770   3.604  1.2935 -1.1812  0.7588
  378MOL0     H52138   7.890   4.027   3.733 -0.9018  1.6181 -1.0377
  378MOL0     H52139   7.898   3.967   3.565  1.9140  0.3549 -0.1993
  378MOL0     H52140   8.121   3.969   3.675  1.6874 -0.8014  0.9374
  378MOL0     H52141   8.069   3.796   3.637 -0.6621 -2.8317  2.4607
  378MOL0     H52142   8.013   3.727   3.841  0.4977  0.0235 -5.6127
  378MOL0     H52143   8.019   3.885   3.922  1.1104 -2.7953  1.7716
  378MOL0     H52144   7.068   3.959   3.843 -2.7316  0.7704 -0.2190
  378MOL0     H52145   6.987   4.190   3.842  2.3597  0.8486  2.5301
  378MOL0     H52146   7.062   4.586   3.583 -0.2688 -1.0197  0.2270
  378MOL0     H52147   7.039   4.833   3.546  1.4734 -0.9752  0.6982
  378MOL0     H52148   5.944   4.321   3.839 -0.6756  1.6683 -3.0623
  378MOL0     H52149   5.790   4.153   3.776  0.3822 -1.0337  1.7376
  378MOL0     H52150   5.265   4.104   3.768 -0.3199 -1.6109  1.5703
  378MOL0     H52151   5.080   4.031   3.702 -0.7668  0.4169  1.1727
  378MOL0     H52152   5.051   3.747   3.329 -1.0855 -4.8224 -0.9205
  378MOL0     H52153   5.069   3.650   3.478 -2.2847 -0.5269  2.2278
  378MOL0     H52154   4.819   3.780   3.375 -0.8294 -2.8233 -4.2595
  378MOL0     H52155   4.843   3.699   3.540 -1.9185 -0.6071 -0.0498
  378MOL0     H52156   4.861   3.569   3.258 -0.4816 -1.9738  0.2634
  378MOL0     H52157   4.917   3.500   3.403 -0.5102  0.7744  0.4553
  378MOL0     H52158   4.707   3.416   3.330  1.2072 -0.7625  0.5672
  378MOL0     H52159   4.634   3.574   3.347 -0.7166 -1.7361 -1.5625
  378MOL0     H52160   4.645   3.429   3.754  2.7786 -1.0119  0.3421
  378MOL0     H52161   5.281   3.791   3.410 -0.6453  0.9448  0.4666
  378MOL0     H52162   5.586   3.942   3.384  2.5771  1.5349  2.5379
  378MOL0     H52163   5.599   3.832   3.525  1.6244  0.7647 -1.0997
  378MOL0     H52164   5.510   3.777   3.398 -1.1839  1.5520 -0.5964
  379MOL0     O52165   6.480   9.645   1.041  0.3531 -0.1485 -1.0075
  379MOL0     C52166   6.542   9.538   1.069 -0.0661 -0.8436 -0.1499
  379MOL0     O52167   6.626   9.479   0.980 -0.2789 -0.8042 -0.5153
  379MOL0     C52168   6.636   9.526   0.851 -0.6555  0.0034  0.1308
  379MOL0     C52169   6.719   9.638   0.829 -0.5995  0.7693  0.7688
  379MOL0     C52170   6.742   9.685   0.701  0.2669 -0.3477  0.3267
  379MOL0     C52171   6.681   9.631   0.583 -0.4284  0.4483 -0.0324
  379MOL0     O52172   6.724   9.676   0.461 -0.0766  0.2851 -0.6163
  379MOL0     C52173   6.641   9.641   0.346  0.3768  0.2736 -0.4817
  379MOL0     C52174   6.508   9.725   0.364 -0.0521  1.0653 -0.3880
  379MOL0     C52175   6.530   9.870   0.382  0.7121 -0.8824 -0.1928
  379MOL0     C52176   6.406   9.913   0.466 -0.8783 -0.0608  0.2881
  379MOL0     C52177   6.421   9.882   0.614  0.2385  0.7996 -0.1847
  379MOL0     C52178   6.335   9.961   0.717  0.3028 -0.2712 -0.0588
  379MOL0     C52179   6.360   9.918   0.856 -0.4477 -0.2596 -0.7766
  379MOL0     C52180   6.279   9.995   0.965  0.1903 -0.4851  0.2692
  379MOL0     N52181   6.296  10.139   0.968 -0.7602 -0.1620  0.7895
  379MOL0     C52182   6.408  10.216   0.987  0.2132 -0.0866  0.6882
  379MOL0     C52183   6.366  10.339   0.979 -0.2477  0.4239  0.3183
  379MOL0     C52184   6.448  10.467   0.992  0.4907  0.0665 -0.3223
  379MOL0     C52185   6.590  10.450   0.929  0.1421  0.1929  0.0330
  379MOL0     C52186   6.606  10.436   0.770  0.4923  0.0533 -0.2890
  379MOL0     C52187   6.743  10.479   0.714  0.6278  0.8941  0.8851
  379MOL0     O52188   6.742  10.613   0.678 -0.1330  0.0863  0.0598
  379MOL0     C52189   6.858  10.654   0.615 -0.2359 -0.6909  0.3763
  379MOL0     C52190   6.855  10.787   0.563  0.2389  0.0715 -0.1566
  379MOL0     C52191   6.964  10.849   0.497 -0.0007  0.1226 -0.6925
  379MOL0     C52192   6.947  10.990   0.445 -0.2924  0.0410 -0.7565
  379MOL0     C52193   7.080  10.770   0.479 -0.2893 -0.2157  0.8280
  379MOL0     C52194   7.196  10.823   0.411 -0.7262 -0.0657 -0.5031
  379MOL0     O52195   7.316  10.822   0.482  0.4396 -0.1014 -0.2362
  379MOL0     C52196   7.422  10.866   0.409  0.3372 -0.0506  0.6432
  379MOL0     C52197   7.461  10.999   0.383  0.3468 -0.6421 -0.0180
  379MOL0     C52198   7.568  11.036   0.299  0.3979  0.3941 -0.8550
  379MOL0     C52199   7.649  10.935   0.241 -0.5963 -0.3757 -0.3019
  379MOL0     O52200   7.748  10.954   0.147 -0.8465  0.3967  0.4281
  379MOL0     C52201   7.716  10.996   0.024  0.1799 -0.2103  0.5675
  379MOL0     C52202   7.852  11.017  -0.059 -0.6848  0.2151 -0.9476
  379MOL0     C52203   7.932  11.147  -0.023  0.0820 -0.1587  0.6190
  379MOL0     C52204   8.012  11.145   0.109  0.1037  0.9196  0.0472
  379MOL0     C52205   8.135  11.242   0.117 -0.0795  0.4646  0.2820
  379MOL0     C52206   8.206  11.229   0.256 -0.6198 -0.4622 -0.3368
  379MOL0     C52207   8.285  11.098   0.270 -0.8554  0.3165 -0.9449
  379MOL0     C52208   8.347  11.096   0.416 -0.1636  0.0582 -0.1784
  379MOL0    Cl52209   8.436  10.941   0.430  0.1231  0.3223  0.1971
  379MOL0     C52210   7.617  10.801   0.271 -0.1571  0.2349  0.8232
  379MOL0     C52211   7.503  10.768   0.349  0.3729  0.3049 -0.0378
  379MOL0     O52212   7.187  10.860   0.292  0.0823  0.0131 -0.5720
  379MOL0     C52213   7.094  10.638   0.529  0.0623  0.3616 -0.2684
  379MOL0     C52214   6.981  10.585   0.606 -0.9533  0.6473 -0.3906
  379MOL0     N52215   6.227  10.332   0.951  0.3575  0.3341 -0.0780
  379MOL0     N52216   6.183  10.215   0.947 -0.6288  0.0555  0.1973
  379MOL0     C52217   6.590   9.524   0.613 -0.5937 -0.1591  0.1008
  379MOL0     C52218   6.574   9.471   0.742 -0.0482 -0.0922 -0.9247
  379MOL0     C52219   6.547   9.501   1.213 -0.5699  0.0258  0.7105
  379MOL0     C52220   6.462   9.556   1.305 -0.8576 -0.3973  0.1120
  379MOL0     C52221   6.452   9.520   1.436  0.0673  0.7499 -0.7902
  379MOL0     C52222   6.544   9.420   1.481 -0.2859 -0.8221 -0.0543
  379MOL0     O52223   6.539   9.361   1.602 -0.6223 -0.0878  0.0808
  379MOL0     C52224   6.456   9.419   1.710 -0.2153  0.1823 -0.0393
  379MOL0     C52225   6.312   9.355   1.707  0.0081  0.3214  0.0831
  379MOL0     C52226   6.308   9.220   1.776 -0.3034  0.0519  0.2741
  379MOL0     C52227   6.167   9.165   1.792 -0.6394  0.3322 -0.4243
  379MOL0     C52228   6.112   9.124   1.661  0.5763  0.0216 -0.9248
  379MOL0     C52229   6.074   9.107   1.551  0.1164 -0.7555  0.4394
  379MOL0     C52230   6.637   9.370   1.396  0.3275  0.2527  0.2362
  379MOL0     C52231   6.645   9.405   1.262 -0.1856  0.5429  0.1115
  379MOL0     C52232   6.740   9.317   1.180  1.0989  0.1571  0.3892
  379MOL0     H52233   6.772   9.675   0.916  1.1543 -1.4981  0.7811
  379MOL0     H52234   6.819   9.759   0.684  2.0359 -2.0711  0.4964
  379MOL0     H52235   6.627   9.533   0.340 -2.0925  0.2569  2.5735
  379MOL0     H52236   6.682   9.674   0.251 -1.6153  0.5013 -1.3203
  379MOL0     H52237   6.442   9.708   0.279 -0.2872 -2.7809  0.3690
  379MOL0     H52238   6.447   9.675   0.440 -0.7411  0.9926 -0.9873
  379MOL0     H52239   6.628   9.884   0.429 -0.1711 -1.2493  1.8452
  379MOL0     H52240   6.523   9.919   0.285 -0.3234  2.6981  1.5274
  379MOL0     H52241   6.395  10.021   0.453 -1.8747  0.1296  2.2877
  379MOL0     H52242   6.311   9.868   0.435 -0.6883  0.0987 -0.5446
  379MOL0     H52243   6.528   9.885   0.635  0.0785  2.2276  0.5435
  379MOL0     H52244   6.376   9.785   0.635  1.1752  1.0102  3.4666
  379MOL0     H52245   6.354  10.068   0.703  0.4996 -0.1226  1.2677
  379MOL0     H52246   6.228   9.950   0.699  0.4583 -2.1089  0.0212
  379MOL0     H52247   6.466   9.939   0.875 -0.5144 -0.2616 -0.4046
  379MOL0     H52248   6.333   9.813   0.870  0.0814 -0.3042 -0.0515
  379MOL0     H52249   6.174   9.976   0.941  1.0870 -2.6841 -2.5965
  379MOL0     H52250   6.297   9.956   1.065 -1.7654 -2.5692 -0.0959
  379MOL0     H52251   6.508  10.172   0.992  0.7773  1.1014  0.1066
  379MOL0     H52252   6.472  10.486   1.097  2.5239 -1.9889 -0.3057
  379MOL0     H52253   6.399  10.552   0.944  1.0075  0.6573  0.1862
  379MOL0     H52254   6.655  10.530   0.966 -1.4928  0.7745  1.8212
  379MOL0     H52255   6.644  10.364   0.969  0.8827  1.0039  0.8115
  379MOL0     H52256   6.565  10.339   0.741 -2.3749  0.8545  0.7742
  379MOL0     H52257   6.537  10.504   0.721  1.2245  1.2126  0.2331
  379MOL0     H52258   6.813  10.476   0.798 -1.7691  1.6649  3.0667
  379MOL0     H52259   6.776  10.405   0.640 -2.0005  0.8949 -0.4293
  379MOL0     H52260   6.756  10.829   0.577 -0.1623 -1.4970  2.1252
  379MOL0     H52261   6.938  11.004   0.337  3.4323  0.9358 -1.0746
  379MOL0     H52262   7.030  11.054   0.478 -0.6899  0.9213 -1.4352
  379MOL0     H52263   6.858  11.031   0.493  0.4568  0.5596  0.2124
  379MOL0     H52264   7.395  11.070   0.432  0.6549 -0.1357 -0.3359
  379MOL0     H52265   7.586  11.139   0.269  1.7586  0.4118 -0.0331
  379MOL0     H52266   7.654  10.919  -0.022  1.1533 -0.8513  0.3063
  379MOL0     H52267   7.671  11.096   0.033  1.9317  0.7602 -0.7689
  379MOL0     H52268   7.913  10.927  -0.052 -3.3813 -1.7939 -1.4789
  379MOL0     H52269   7.828  11.007  -0.165 -0.0250 -0.9144 -1.0047
  379MOL0     H52270   7.874  11.239  -0.033  2.1704  1.0734 -0.9206
  379MOL0     H52271   8.005  11.167  -0.102 -2.0828  1.7413 -1.0691
  379MOL0     H52272   8.060  11.048   0.117  3.3667  2.4533  0.7129
  379MOL0     H52273   7.937  11.152   0.188 -0.9113  1.3844 -0.9276
  379MOL0     H52274   8.204  11.222   0.035 -1.1448  0.1319 -0.5509
  379MOL0     H52275   8.093  11.342   0.106  0.3282  1.2214  4.1456
  379MOL0     H52276   8.142  11.237   0.344  1.3015 -2.5355  1.3754
  379MOL0     H52277   8.273  11.316   0.254 -3.1520  1.7351  2.0091
  379MOL0     H52278   8.356  11.093   0.187  1.4180 -0.3947  0.9306
  379MOL0     H52279   8.213  11.016   0.266 -0.2295 -0.2306 -1.0413
  379MOL0     H52280   8.271  11.107   0.493 -0.3683  0.6877 -0.4550
  379MOL0     H52281   8.420  11.177   0.412 -0.7376  0.5417 -2.7652
  379MOL0     H52282   7.682  10.720   0.242 -0.5628  0.6602 -1.3978
  379MOL0     H52283   7.471  10.666   0.369  0.3525  0.1562 -0.8097
  379MOL0     H52284   7.193  10.593   0.520  0.9048  1.8831  0.9501
  379MOL0     H52285   6.989  10.496   0.667 -0.0679  1.0025  0.0249
  379MOL0     H52286   6.544   9.464   0.536  1.2676 -0.3019 -0.9456
  379MOL0     H52287   6.514   9.382   0.760  0.6164 -0.2183  0.8595
  379MOL0     H52288   6.378   9.619   1.276  0.5500  0.6341 -1.9892
  379MOL0     H52289   6.366   9.556   1.491  1.3238 -0.3550  2.0962
  379MOL0     H52290   6.494   9.402   1.812  0.2809  0.4122 -0.1847
  379MOL0     H52291   6.445   9.527   1.703 -1.5721  0.1323  0.9013
  379MOL0     H52292   6.290   9.342   1.601  2.7878  1.8565 -0.7878
  379MOL0     H52293   6.243   9.419   1.762 -0.3306 -1.6383  2.0628
  379MOL0     H52294   6.371   9.154   1.716  2.5100  3.4024 -0.8787
  379MOL0     H52295   6.355   9.242   1.873 -1.1227  0.5328  0.5675
  379MOL0     H52296   6.095   9.224   1.849 -0.7648  0.1608 -0.4040
  379MOL0     H52297   6.169   9.073   1.852  1.0196  1.1862  0.9152
  379MOL0     H52298   6.042   9.082   1.452 -3.5640  1.6610  0.8350
  379MOL0     H52299   6.711   9.307   1.445 -0.3715  1.2054  2.7101
  379MOL0     H52300   6.676   9.256   1.115  0.7132  2.2110 -1.2691
  379MOL0     H52301   6.808   9.377   1.119  2.3960 -1.8500 -0.2458
  379MOL0     H52302   6.794   9.246   1.243 -2.5366 -0.5221  3.0431
  380MOL0     O52303   7.153   5.223   5.408  0.0154  0.4281  0.1817
  380MOL0     C52304   7.087   5.185   5.309  0.7601  0.2316  0.1280
  380MOL0     O52305   7.127   5.099   5.211 -0.1370 -0.5994  0.0119
  380MOL0     C52306   7.260   5.074   5.214  1.0854 -0.0798 -0.2780
  380MOL0     C52307   7.345   5.104   5.106  0.5026 -1.0061 -0.3079
  380MOL0     C52308   7.467   5.053   5.091 -0.7364  0.2466  0.1628
  380MOL0     C52309   7.512   4.968   5.191 -0.7608  0.2409 -0.8396
  380MOL0     O52310   7.635   4.907   5.189 -0.0336  0.5954 -0.3441
  380MOL0     C52311   7.709   4.906   5.065  0.1638  0.2165  0.6403
  380MOL0     C52312   7.814   4.804   5.094 -0.0817 -1.4149  0.6677
  380MOL0     C52313   7.917   4.810   4.977 -0.3375  0.4514  0.9377
  380MOL0     C52314   8.015   4.694   4.988 -0.1301 -0.5297  0.7469
  380MOL0     C52315   8.122   4.705   4.875 -0.3165 -0.1281  0.1446
  380MOL0     C52316   8.193   4.565   4.852 -0.4139 -0.4880  0.6538
  380MOL0     C52317   8.298   4.585   4.740 -0.5676  0.4093 -0.1654
  380MOL0     C52318   8.322   4.441   4.682  0.0732 -0.2325 -0.1015
  380MOL0     N52319   8.391   4.442   4.556  0.0573  1.2924  0.2560
  380MOL0     C52320   8.479   4.536   4.506  0.1600  0.0912 -0.0075
  380MOL0     C52321   8.511   4.493   4.378  0.4815 -0.1018 -0.3051
  380MOL0     C52322   8.610   4.550   4.278 -0.2691 -0.0950 -0.3876
  380MOL0     C52323   8.605   4.701   4.288 -0.2325 -0.2598  1.0618
  380MOL0     C52324   8.644   4.764   4.143  0.1612  0.8577 -0.3863
  380MOL0     C52325   8.627   4.917   4.128 -0.7573  0.2775 -0.3634
  380MOL0     O52326   8.485   4.934   4.128  0.3536 -0.4172  0.1161
  380MOL0     C52327   8.446   5.062   4.092  0.2576 -1.1410  0.4325
  380MOL0     C52328   8.315   5.074   4.045  0.3074  0.1797 -0.6584
  380MOL0     C52329   8.266   5.203   4.007 -0.8967 -0.5075 -0.2006
  380MOL0     C52330   8.129   5.206   3.971  0.5254 -0.0981  0.1485
  380MOL0     C52331   8.347   5.329   4.012 -0.0450  0.9843 -0.2306
  380MOL0     C52332   8.306   5.475   3.998  0.0529 -0.1493  0.1838
  380MOL0     O52333   8.387   5.574   4.062 -0.4315 -0.0487  0.2528
  380MOL0     C52334   8.330   5.694   4.077  0.4937  0.2223  0.7997
  380MOL0     C52335   8.397   5.815   4.036 -0.0067 -0.3974 -0.2633
  380MOL0     C52336   8.345   5.944   4.056  0.6043 -0.3806 -0.0183
  380MOL0     C52337   8.212   5.953   4.104  0.5816  0.7442 -0.3914
  380MOL0     O52338   8.136   6.068   4.136  0.6617 -0.6471  0.7354
  380MOL0     C52339   8.143   6.189   4.060  0.0794  0.4902 -0.1337
  380MOL0     C52340   8.004   6.249   4.075  0.6341  0.0319  0.0354
  380MOL0     C52341   7.984   6.388   4.015  0.0240 -0.4833 -0.1009
  380MOL0     C52342   8.033   6.493   4.111  1.4146  0.9204 -0.1624
  380MOL0     C52343   8.020   6.637   4.067  0.2321 -0.0957 -0.1394
  380MOL0     C52344   8.107   6.721   4.166  0.0766 -0.4562  0.3000
  380MOL0     C52345   8.088   6.873   4.143 -0.1750 -0.3152  0.4106
  380MOL0     C52346   7.978   6.959   4.213  0.4305  0.4279  0.3124
  380MOL0    Cl52347   7.828   6.897   4.144 -0.2034  0.3291 -0.3837
  380MOL0     C52348   8.145   5.837   4.149 -0.4243  0.4561 -0.3013
  380MOL0     C52349   8.204   5.705   4.142 -0.7507 -0.0627 -0.5038
  380MOL0     O52350   8.198   5.487   3.949 -0.0379 -0.8443  0.0145
  380MOL0     C52351   8.483   5.305   4.044 -0.3387 -0.3412 -0.1442
  380MOL0     C52352   8.528   5.177   4.080  0.5151  0.4017 -1.3689
  380MOL0     N52353   8.444   4.373   4.360 -0.4716 -0.2899  0.0167
  380MOL0     N52354   8.368   4.345   4.459  0.6743 -0.9689  0.3175
  380MOL0     C52355   7.436   4.943   5.309  0.0377  0.0601  0.3734
  380MOL0     C52356   7.306   4.989   5.318 -0.2355  0.7301 -0.3311
  380MOL0     C52357   6.957   5.247   5.285 -0.3292 -0.6485 -0.8145
  380MOL0     C52358   6.867   5.247   5.395 -0.1738  0.3230 -0.8574
  380MOL0     C52359   6.750   5.324   5.388  0.0399 -0.5591  0.1709
  380MOL0     C52360   6.708   5.372   5.266 -0.1552 -0.1480  0.4588
  380MOL0     O52361   6.582   5.420   5.274 -0.4022 -0.3225 -0.2793
  380MOL0     C52362   6.533   5.515   5.178  0.0256 -0.5815  0.2876
  380MOL0     C52363   6.475   5.449   5.050  0.3122 -0.6354  0.6273
  380MOL0     C52364   6.489   5.535   4.924  0.1804  0.1512 -0.5728
  380MOL0     C52365   6.593   5.468   4.826 -0.1649 -0.5955  1.1751
  380MOL0     C52366   6.727   5.528   4.853  0.2923 -0.4324  0.0355
  380MOL0     C52367   6.836   5.570   4.887  1.1108 -0.0776 -0.4195
  380MOL0     C52368   6.787   5.357   5.152 -0.8400  0.8954 -0.1010
  380MOL0     C52369   6.915   5.302   5.162  0.8259  0.5176  0.8549
  380MOL0     C52370   6.985   5.276   5.025 -0.4827 -0.1015  0.0621
  380MOL0     H52371   7.304   5.159   5.022  1.1189 -0.5205 -0.3005
  380MOL0     H52372   7.530   5.086   5.009 -1.1668  2.2593  0.5855
  380MOL0     H52373   7.753   5.006   5.065  0.3656  0.1288  0.5553
  380MOL0     H52374   7.650   4.882   4.976 -0.6633 -3.1150  1.9444
  380MOL0     H52375   7.859   4.833   5.190 -0.5658  0.1305  0.4533
  380MOL0     H52376   7.767   4.706   5.107 -1.3419 -1.1969 -1.7080
  380MOL0     H52377   7.854   4.798   4.889 -1.3057  0.8144  1.5589
  380MOL0     H52378   7.974   4.902   4.969  0.7740 -0.1465  1.7784
  380MOL0     H52379   8.068   4.705   5.083  2.2438  3.9581 -0.8144
  380MOL0     H52380   7.962   4.599   4.983  0.0338 -0.5710 -2.1801
  380MOL0     H52381   8.195   4.781   4.905 -0.1291  0.0709 -0.7895
  380MOL0     H52382   8.083   4.729   4.776  0.3028  0.2693 -0.0148
  380MOL0     H52383   8.256   4.539   4.938  2.4136  0.8432 -0.8793
  380MOL0     H52384   8.116   4.489   4.835 -1.3044  0.2538  1.3006
  380MOL0     H52385   8.389   4.627   4.785 -1.1618  0.4796  0.9923
  380MOL0     H52386   8.256   4.659   4.671  0.4166  4.3664  3.0898
  380MOL0     H52387   8.378   4.391   4.761 -0.2335  2.2997  1.8313
  380MOL0     H52388   8.224   4.394   4.668 -0.7362  0.6874  2.1256
  380MOL0     H52389   8.518   4.621   4.562 -0.4121  0.1981  0.2348
  380MOL0     H52390   8.610   4.510   4.177 -1.2615  4.7910 -2.5859
  380MOL0     H52391   8.712   4.525   4.308  0.8850  0.0972 -3.8016
  380MOL0     H52392   8.503   4.733   4.310 -0.4707  2.8290 -3.1687
  380MOL0     H52393   8.678   4.741   4.360  2.0594  1.4627 -1.9522
  380MOL0     H52394   8.751   4.757   4.122 -0.1044 -0.2638 -1.4939
  380MOL0     H52395   8.597   4.707   4.061  0.8540  1.0552 -0.9316
  380MOL0     H52396   8.670   4.971   4.212  0.4331 -1.5518  0.2777
  380MOL0     H52397   8.668   4.956   4.034  1.3418  0.6173  0.6205
  380MOL0     H52398   8.242   4.995   4.045  0.7887 -0.2763  0.3529
  380MOL0     H52399   8.120   5.250   3.871  0.3921 -1.7414 -0.6073
  380MOL0     H52400   8.069   5.266   4.039  2.3591  3.8740 -1.4455
  380MOL0     H52401   8.081   5.108   3.961  0.2972 -0.4034  3.2271
  380MOL0     H52402   8.500   5.815   4.000  0.9701 -0.1912  2.3676
  380MOL0     H52403   8.386   6.040   4.027 -2.3983  0.7290 -0.9173
  380MOL0     H52404   8.222   6.259   4.086  1.7530 -1.1990 -0.4894
  380MOL0     H52405   8.162   6.162   3.955  1.3517 -0.0949  0.2332
  380MOL0     H52406   7.940   6.178   4.022 -3.0969  2.3112  1.0519
  380MOL0     H52407   7.966   6.246   4.178  2.3674 -2.2236  0.6787
  380MOL0     H52408   7.876   6.405   4.010 -0.0024 -0.9870 -1.8627
  380MOL0     H52409   8.044   6.386   3.924  4.1524  2.6077  2.2451
  380MOL0     H52410   8.138   6.469   4.131  0.9321 -1.3098 -0.0704
  380MOL0     H52411   7.983   6.483   4.208  0.6649  1.6293 -0.4685
  380MOL0     H52412   8.057   6.650   3.965 -0.9716  0.8028 -0.4818
  380MOL0     H52413   7.914   6.663   4.066  0.2294  0.0001 -2.0223
  380MOL0     H52414   8.212   6.691   4.157 -0.5895 -2.3198 -2.9738
  380MOL0     H52415   8.069   6.696   4.266 -0.9899  1.0768  0.3140
  380MOL0     H52416   8.088   6.886   4.034 -0.4939 -0.2395  0.4211
  380MOL0     H52417   8.183   6.923   4.167  1.3091 -1.8062 -1.9359
  380MOL0     H52418   7.985   7.066   4.190  0.9135  1.3599  4.0926
  380MOL0     H52419   7.983   6.944   4.321  2.2467 -1.1206  0.0694
  380MOL0     H52420   8.044   5.840   4.189  0.8737  2.2266  3.1561
  380MOL0     H52421   8.159   5.615   4.183 -1.2473  0.7310  0.7533
  380MOL0     H52422   8.555   5.386   4.051 -1.9239  1.1274 -0.2353
  380MOL0     H52423   8.627   5.156   4.119 -0.3804 -0.1816  0.6918
  380MOL0     H52424   7.470   4.868   5.381  2.1224  0.4121 -0.1853
  380MOL0     H52425   7.235   4.951   5.392 -1.8504 -1.0575 -2.6610
  380MOL0     H52426   6.895   5.194   5.486 -0.5797  2.3553  0.5088
  380MOL0     H52427   6.680   5.322   5.472 -1.9053 -1.8816 -1.3782
  380MOL0     H52428   6.453   5.581   5.214  0.8176  1.3868 -1.3620
  380MOL0     H52429   6.615   5.580   5.148 -2.2632  1.8899 -1.1055
  380MOL0     H52430   6.369   5.426   5.068  0.8503 -3.2792  0.6966
  380MOL0     H52431   6.523   5.352   5.037 -1.8452 -1.4301 -2.3898
  380MOL0     H52432   6.390   5.539   4.876  1.8512  0.5505 -4.3141
  380MOL0     H52433   6.519   5.636   4.953 -0.3257 -0.0518  0.7198
  380MOL0     H52434   6.568   5.503   4.726 -0.8503  1.5758  2.0469
  380MOL0     H52435   6.601   5.359   4.828 -2.6144 -0.9647 -1.8950
  380MOL0     H52436   6.935   5.604   4.907  2.0286 -3.2133  0.9913
  380MOL0     H52437   6.746   5.377   5.053 -1.2801 -0.6865 -0.2632
  380MOL0     H52438   7.092   5.292   5.038 -0.2326 -1.2208 -0.5329
  380MOL0     H52439   6.979   5.169   5.006 -0.3328  0.2027 -1.9173
  380MOL0     H52440   6.941   5.334   4.943  0.9180  2.2377  0.8839
  381MOL0     O52441   2.817   9.460   4.585  0.7391 -0.6402 -0.4041
  381MOL0     C52442   2.860   9.562   4.629 -0.2807  0.5294 -0.1000
  381MOL0     O52443   2.965   9.565   4.719  0.7312  0.7124  0.5930
  381MOL0     C52444   3.038   9.447   4.744  0.0765 -0.4522 -0.2740
  381MOL0     C52445   3.146   9.419   4.654 -0.2045 -1.1298  0.3266
  381MOL0     C52446   3.219   9.298   4.664  0.2843 -0.1880  0.1169
  381MOL0     C52447   3.179   9.196   4.753 -0.8276  0.2868 -0.0291
  381MOL0     O52448   3.258   9.083   4.742  0.4417  1.2438  0.1443
  381MOL0     C52449   3.284   9.017   4.864 -0.2906  0.0317 -0.0717
  381MOL0     C52450   3.436   8.992   4.859  0.3838  0.3104  0.3316
  381MOL0     C52451   3.471   8.940   4.999  0.2843  0.1801  0.3206
  381MOL0     C52452   3.593   9.006   5.065  0.0323  0.2198  0.2847
  381MOL0     C52453   3.722   8.958   5.020  0.3364  0.5740 -0.0868
  381MOL0     C52454   3.834   8.977   5.125 -0.4615  1.6730  0.8047
  381MOL0     C52455   3.966   8.905   5.069 -0.0735 -0.2125 -0.0410
  381MOL0     C52456   4.036   8.991   4.970 -0.0328 -0.7208 -0.5210
  381MOL0     N52457   4.183   8.961   4.961 -0.6213 -0.4109  0.8876
  381MOL0     C52458   4.277   8.945   5.061  1.2260  0.0277 -0.2363
  381MOL0     C52459   4.397   8.950   4.986  0.2460  0.2163  0.6212
  381MOL0     C52460   4.537   8.947   5.035  0.2914  0.2818  0.3853
  381MOL0     C52461   4.538   8.894   5.185  1.0748 -0.4234 -0.0288
  381MOL0     C52462   4.483   8.992   5.295  0.0660  0.5593 -0.2979
  381MOL0     C52463   4.587   9.092   5.331 -0.4132 -1.0355 -0.7186
  381MOL0     O52464   4.707   9.035   5.380  0.3619 -0.0442 -0.5808
  381MOL0     C52465   4.820   9.085   5.319 -0.3329  0.5218 -0.3536
  381MOL0     C52466   4.893   9.004   5.241 -0.2724  0.6475  0.5754
  381MOL0     C52467   4.997   9.047   5.166 -0.5844 -0.1419  0.3869
  381MOL0     C52468   5.045   8.946   5.059  0.7835 -0.2222 -0.1399
  381MOL0     C52469   5.055   9.169   5.198 -0.3831 -0.8249 -0.3156
  381MOL0     C52470   5.195   9.207   5.160 -1.4960  0.1305 -1.2336
  381MOL0     O52471   5.229   9.338   5.188 -0.1194 -0.4420 -0.2068
  381MOL0     C52472   5.355   9.387   5.191 -0.1065  1.3334  0.2679
  381MOL0     C52473   5.452   9.345   5.096 -0.6502  0.2055 -0.1864
  381MOL0     C52474   5.586   9.397   5.100  0.7730 -0.0977 -1.4314
  381MOL0     C52475   5.621   9.487   5.203  0.1980  1.0740  1.0530
  381MOL0     O52476   5.753   9.535   5.215  0.6325 -0.3599 -0.7099
  381MOL0     C52477   5.820   9.554   5.092 -0.6892  0.4296 -1.1565
  381MOL0     C52478   5.948   9.635   5.130  1.2987  0.2644 -0.1051
  381MOL0     C52479   5.929   9.762   5.201  0.6930 -0.1012 -0.1488
  381MOL0     C52480   6.043   9.854   5.141  0.6992  0.4398 -1.1108
  381MOL0     C52481   6.039   9.988   5.218  0.1554  0.5299 -0.5385
  381MOL0     C52482   6.108   9.963   5.367 -0.1439 -0.1384  0.1076
  381MOL0     C52483   6.121  10.088   5.454 -0.4706  0.0980  0.2621
  381MOL0     C52484   5.986  10.150   5.497  0.3428 -0.4304 -0.5358
  381MOL0    Cl52485   6.012  10.295   5.591 -0.2567  0.1884 -0.0731
  381MOL0     C52486   5.519   9.518   5.292  0.2335  0.8695  0.6747
  381MOL0     C52487   5.386   9.478   5.286  0.1287  0.0589 -0.5988
  381MOL0     O52488   5.272   9.113   5.126  0.2623 -0.4892 -0.0004
  381MOL0     C52489   4.985   9.257   5.285  0.5689 -0.0557  0.6307
  381MOL0     C52490   4.867   9.209   5.345  0.7904 -0.1653  0.2111
  381MOL0     N52491   4.377   8.970   4.852  0.2415  0.1612 -0.2937
  381MOL0     N52492   4.245   8.974   4.841 -0.0986 -0.0274 -0.4582
  381MOL0     C52493   3.064   9.220   4.833  0.2162  1.5671 -0.3755
  381MOL0     C52494   2.996   9.343   4.830 -1.2728 -0.9642  0.0304
  381MOL0     C52495   2.799   9.687   4.588 -0.8797  1.0924 -0.4539
  381MOL0     C52496   2.667   9.695   4.545  0.5784 -0.3260  0.2576
  381MOL0     C52497   2.608   9.814   4.514  0.0410  0.1507 -1.0340
  381MOL0     C52498   2.667   9.934   4.538  0.3990  0.0754  0.0876
  381MOL0     O52499   2.584  10.042   4.523 -0.2889 -0.0888  0.2482
  381MOL0     C52500   2.632  10.170   4.565 -0.4916  0.0004  0.4457
  381MOL0     C52501   2.718  10.244   4.458 -0.1225 -0.0313 -0.4003
  381MOL0     C52502   2.633  10.268   4.332 -0.0147  0.4205 -1.2377
  381MOL0     C52503   2.725  10.241   4.215 -0.2825  0.1427  0.3614
  381MOL0     C52504   2.656  10.247   4.092  0.1333  0.2200  0.4928
  381MOL0     C52505   2.591  10.244   3.991  0.6035 -0.4997  0.2236
  381MOL0     C52506   2.801   9.935   4.569 -0.0545 -0.1914 -0.1264
  381MOL0     C52507   2.873   9.813   4.589 -0.4188 -0.4004 -0.8050
  381MOL0     C52508   3.016   9.837   4.627 -0.6483 -0.1104 -0.9808
  381MOL0     H52509   3.170   9.507   4.597 -3.4980  0.0490  0.5435
  381MOL0     H52510   3.304   9.285   4.597  0.1890 -0.7478  0.1004
  381MOL0     H52511   3.228   8.923   4.864  0.0107 -0.2450 -3.0833
  381MOL0     H52512   3.252   9.073   4.952 -2.0155 -0.9249 -0.0273
  381MOL0     H52513   3.444   8.929   4.770  3.6555  0.7070  0.2137
  381MOL0     H52514   3.499   9.076   4.827  0.1133  0.2452 -0.3860
  381MOL0     H52515   3.393   8.971   5.069 -0.4581  0.8659 -0.7782
  381MOL0     H52516   3.476   8.831   4.987  1.7478  0.3813 -1.2757
  381MOL0     H52517   3.587   9.114   5.046 -0.2905 -0.4013 -4.0735
  381MOL0     H52518   3.580   8.977   5.170 -0.6032 -1.4138 -0.2174
  381MOL0     H52519   3.738   9.005   4.923  1.9450  0.4796  0.1113
  381MOL0     H52520   3.717   8.849   5.010  3.4949  0.2180  1.2315
  381MOL0     H52521   3.839   9.084   5.150 -2.1251  1.9155  0.2076
  381MOL0     H52522   3.803   8.929   5.218 -1.9702  2.7011  0.8625
  381MOL0     H52523   3.962   8.801   5.033  2.4293 -0.7598  1.0809
  381MOL0     H52524   4.027   8.891   5.158 -0.2051 -1.1336 -0.0857
  381MOL0     H52525   3.999   8.979   4.868 -0.2043 -0.2402 -0.5177
  381MOL0     H52526   4.026   9.095   5.003 -1.9584  0.4674 -4.3133
  381MOL0     H52527   4.268   8.910   5.163 -0.3469 -1.5584 -0.8567
  381MOL0     H52528   4.589   9.044   5.029 -0.2507  0.5595  0.1130
  381MOL0     H52529   4.580   8.871   4.970  1.3874  1.2124 -0.0151
  381MOL0     H52530   4.476   8.804   5.181 -1.0403  1.0165 -1.4416
  381MOL0     H52531   4.637   8.850   5.204  1.2163 -0.7326 -1.3948
  381MOL0     H52532   4.405   9.057   5.254  0.8613  2.2573  0.7861
  381MOL0     H52533   4.444   8.931   5.377 -2.5165 -1.9103 -3.0999
  381MOL0     H52534   4.605   9.152   5.241 -2.2231  0.5085 -0.1315
  381MOL0     H52535   4.550   9.161   5.407  2.1133 -0.7885  0.3836
  381MOL0     H52536   4.856   8.903   5.226 -0.6108  0.6406  1.3875
  381MOL0     H52537   4.968   8.881   5.019  2.6443 -2.3626 -0.4707
  381MOL0     H52538   5.109   8.874   5.112 -3.0305 -2.8915  1.3102
  381MOL0     H52539   5.089   8.992   4.970  0.1055  3.5875  1.2981
  381MOL0     H52540   5.426   9.278   5.015 -0.5291 -1.5654  1.1768
  381MOL0     H52541   5.654   9.370   5.020  2.9534 -0.2469  0.3717
  381MOL0     H52542   5.851   9.459   5.048  1.9898  0.3543  0.6075
  381MOL0     H52543   5.758   9.610   5.022 -3.3215 -0.8008  0.0397
  381MOL0     H52544   6.006   9.578   5.202  1.0416  0.3962  0.2102
  381MOL0     H52545   6.002   9.651   5.036  2.7524 -1.7250  0.3304
  381MOL0     H52546   5.936   9.741   5.308 -4.6975  3.1124  1.2289
  381MOL0     H52547   5.832   9.810   5.185  2.4004  3.4239 -0.8103
  381MOL0     H52548   6.029   9.862   5.033 -1.1016 -0.3122 -0.9544
  381MOL0     H52549   6.146   9.817   5.152 -0.2697 -2.1798  0.0374
  381MOL0     H52550   6.086  10.065   5.156 -1.7944  2.5814  0.4033
  381MOL0     H52551   5.936  10.023   5.226 -0.6922 -1.8135 -0.5120
  381MOL0     H52552   6.207   9.920   5.350 -0.3304 -1.1476  1.3732
  381MOL0     H52553   6.048   9.887   5.419 -1.1564  1.3677  1.2134
  381MOL0     H52554   6.158  10.171   5.393 -3.1092  0.1895 -1.3642
  381MOL0     H52555   6.191  10.073   5.537  2.0873 -1.5579 -2.0394
  381MOL0     H52556   5.930  10.080   5.561  1.1253  1.0151  1.8775
  381MOL0     H52557   5.924  10.179   5.412  2.2251 -1.4293 -2.3343
  381MOL0     H52558   5.564   9.581   5.368  2.3142  1.3071 -0.8214
  381MOL0     H52559   5.322   9.503   5.370  0.2723 -1.1786 -0.0986
  381MOL0     H52560   5.016   9.360   5.300 -1.7472  1.0881 -1.5871
  381MOL0     H52561   4.822   9.281   5.413  0.3046 -0.1830 -0.0849
  381MOL0     H52562   3.047   9.130   4.891  1.9127  0.9364 -0.8162
  381MOL0     H52563   2.911   9.363   4.894 -0.5661  4.2138 -0.1802
  381MOL0     H52564   2.616   9.599   4.539 -0.4955  0.3123 -1.7343
  381MOL0     H52565   2.506   9.809   4.477 -0.8781  1.2069  1.1926
  381MOL0     H52566   2.545  10.233   4.589  0.1222  1.8075 -1.7138
  381MOL0     H52567   2.692  10.159   4.655 -0.0655 -0.0144  0.1601
  381MOL0     H52568   2.810  10.187   4.445  0.5712  0.8019  0.6443
  381MOL0     H52569   2.763  10.337   4.495  2.9930 -2.3873  2.4848
  381MOL0     H52570   2.540  10.211   4.327 -0.6165  1.2797 -0.2826
  381MOL0     H52571   2.604  10.373   4.324  3.0172  1.3950 -0.7457
  381MOL0     H52572   2.760  10.138   4.224  1.0225  0.4972 -0.3933
  381MOL0     H52573   2.811  10.309   4.219  0.7946 -1.0741 -1.0395
  381MOL0     H52574   2.535  10.231   3.901  0.8099 -1.8100  0.2636
  381MOL0     H52575   2.848  10.033   4.572  0.7319 -0.4284 -2.7920
  381MOL0     H52576   3.078   9.759   4.582 -0.1570  0.0526 -0.5958
  381MOL0     H52577   3.054   9.929   4.583  0.3446 -0.3144 -0.5697
  381MOL0     H52578   3.030   9.834   4.736 -0.9186 -3.0249 -0.9533
  382MOL0     O52579   8.241   5.107   2.913  0.2184  0.2965 -1.2338
  382MOL0     C52580   8.194   4.999   2.864  0.0180 -0.7778  0.7603
  382MOL0     O52581   8.230   4.930   2.749 -1.2363  0.6919  0.4414
  382MOL0     C52582   8.333   4.980   2.671  1.3037  0.0269 -0.6610
  382MOL0     C52583   8.324   4.978   2.531 -0.4954 -0.3050 -0.6842
  382MOL0     C52584   8.427   5.042   2.461 -0.6213 -0.7791  0.1361
  382MOL0     C52585   8.544   5.083   2.526  0.0886 -0.2066  1.4613
  382MOL0     O52586   8.647   5.131   2.440  0.0079  0.3390 -0.3839
  382MOL0     C52587   8.765   5.049   2.438  0.4985 -1.0696  0.4415
  382MOL0     C52588   8.795   4.980   2.312 -0.4349 -0.1451 -0.1573
  382MOL0     C52589   8.847   5.068   2.196 -0.5092 -0.2765 -0.1450
  382MOL0     C52590   9.001   5.100   2.189 -0.4711 -0.2077  0.2576
  382MOL0     C52591   9.071   4.996   2.102  0.2009  0.1574  0.9260
  382MOL0     C52592   9.215   5.055   2.063  0.4180 -0.6804  1.0683
  382MOL0     C52593   9.283   4.965   1.958 -0.0444  0.5967  0.3046
  382MOL0     C52594   9.438   5.003   1.953 -0.4023  0.4201 -0.3743
  382MOL0     N52595   9.522   4.911   1.875 -0.2554 -0.8331 -0.4419
  382MOL0     C52596   9.660   4.923   1.867 -0.9952 -0.5970 -0.0472
  382MOL0     C52597   9.691   4.840   1.759 -0.1535  0.2876 -0.0940
  382MOL0     C52598   9.836   4.815   1.703 -0.6460  0.2300  0.0789
  382MOL0     C52599   9.927   4.936   1.735  0.5083  0.0606 -0.8868
  382MOL0     C52600  10.047   4.945   1.640 -0.7053 -0.2566  0.1736
  382MOL0     C52601  10.117   5.083   1.673  0.0698 -1.3694 -0.2873
  382MOL0     O52602  10.207   5.106   1.566 -0.7955  0.2211 -0.1231
  382MOL0     C52603  10.334   5.052   1.568 -0.4642  0.8959 -0.4646
  382MOL0     C52604  10.412   5.094   1.456 -0.4865 -0.4649 -0.4109
  382MOL0     C52605  10.535   5.038   1.428  1.2918  0.8622 -0.0423
  382MOL0     C52606  10.622   5.093   1.316 -0.7962  0.2998  0.1274
  382MOL0     C52607  10.590   4.941   1.518  0.4260  1.0066 -0.3778
  382MOL0     C52608  10.716   4.868   1.505 -0.3723 -0.0206 -0.7575
  382MOL0     O52609  10.780   4.802   1.611  0.7035  0.0241  0.0143
  382MOL0     C52610  10.898   4.736   1.601 -0.0804 -0.0259 -0.5090
  382MOL0     C52611  11.009   4.758   1.519  0.3966 -0.2100 -0.6579
  382MOL0     C52612  11.128   4.672   1.516 -0.1982 -0.1928  0.9707
  382MOL0     C52613  11.136   4.572   1.614  0.1300  0.0899  0.9798
  382MOL0     O52614  11.242   4.497   1.643 -0.2408  0.5249  0.6396
  382MOL0     C52615  11.380   4.548   1.620 -0.2309  0.6980 -0.9362
  382MOL0     C52616  11.439   4.538   1.479 -0.2737 -0.2896  0.1578
  382MOL0     C52617  11.578   4.588   1.473 -0.1437 -0.2705  0.3138
  382MOL0     C52618  11.674   4.505   1.559 -0.1124  0.0839  0.2333
  382MOL0     C52619  11.821   4.525   1.518  0.3769 -0.5025 -0.2086
  382MOL0     C52620  11.880   4.650   1.584 -0.0828 -0.6532 -0.5696
  382MOL0     C52621  12.025   4.663   1.576  1.0710  0.7326  0.2538
  382MOL0     C52622  12.072   4.792   1.634 -1.1247 -0.3457 -0.2379
  382MOL0    Cl52623  12.026   4.811   1.812 -0.2194  0.1157 -0.0001
  382MOL0     C52624  11.024   4.543   1.696  0.8680  0.1808 -0.7394
  382MOL0     C52625  10.910   4.627   1.687 -0.3026 -0.5022 -0.4079
  382MOL0     O52626  10.762   4.877   1.389 -0.4907  0.3648 -0.7101
  382MOL0     C52627  10.510   4.896   1.631 -0.1885 -0.3124  0.5240
  382MOL0     C52628  10.387   4.947   1.655 -0.1378  0.6557 -0.0127
  382MOL0     N52629   9.582   4.773   1.716  0.1370 -0.3265 -0.0624
  382MOL0     N52630   9.482   4.823   1.781  1.0048  0.2789 -0.1751
  382MOL0     C52631   8.556   5.067   2.661 -0.8135  0.5935 -0.3884
  382MOL0     C52632   8.457   5.009   2.733  0.1578  0.5722  0.1527
  382MOL0     C52633   8.082   4.934   2.935  0.0316  0.7207 -1.0914
  382MOL0     C52634   8.079   4.939   3.079  0.3516 -0.6831  0.6220
  382MOL0     C52635   7.974   4.889   3.159 -0.5787  0.4639 -0.0584
  382MOL0     C52636   7.873   4.814   3.099 -0.3412  0.5719  0.1806
  382MOL0     O52637   7.757   4.768   3.153  0.2010  0.7134 -0.3153
  382MOL0     C52638   7.707   4.850   3.256  0.8507  0.1016 -0.4107
  382MOL0     C52639   7.560   4.834   3.288  0.5480  0.5308 -0.6400
  382MOL0     C52640   7.523   4.683   3.337  0.0497  0.3972  0.8402
  382MOL0     C52641   7.373   4.674   3.376 -0.3168  0.2169 -0.0719
  382MOL0     C52642   7.345   4.784   3.468  0.2166  0.1254 -0.0446
  382MOL0     C52643   7.288   4.861   3.551 -0.2666  0.1675 -0.1128
  382MOL0     C52644   7.875   4.795   2.959 -0.3553  0.3210 -0.1956
  382MOL0     C52645   7.979   4.855   2.878  1.0775  0.3175  0.1227
  382MOL0     C52646   7.958   4.852   2.731 -0.3610 -0.5603  0.0464
  382MOL0     H52647   8.228   4.940   2.498 -0.5271 -1.4006  0.5837
  382MOL0     H52648   8.417   5.058   2.354 -0.8421 -0.5133  0.1960
  382MOL0     H52649   8.753   4.976   2.518  2.0937 -1.0036  0.7888
  382MOL0     H52650   8.851   5.115   2.453 -2.2232  4.0720 -3.5428
  382MOL0     H52651   8.869   4.899   2.317  0.0445  0.0393 -2.7618
  382MOL0     H52652   8.703   4.938   2.269 -0.7864  0.8719 -0.4341
  382MOL0     H52653   8.818   5.019   2.103 -0.1040  1.2886 -1.1368
  382MOL0     H52654   8.791   5.162   2.208 -0.5033 -0.3109  0.1608
  382MOL0     H52655   9.021   5.197   2.142 -1.0978 -0.3429 -0.3098
  382MOL0     H52656   9.049   5.091   2.286 -0.5073 -2.3849  0.1348
  382MOL0     H52657   9.010   4.987   2.012  4.4785 -3.2641 -2.0134
  382MOL0     H52658   9.082   4.905   2.162  3.2824 -0.0355  0.2502
  382MOL0     H52659   9.214   5.159   2.029 -0.4722 -0.3372  2.0896
  382MOL0     H52660   9.276   5.060   2.154  2.0127  0.6891 -0.0178
  382MOL0     H52661   9.247   4.982   1.856 -1.8734 -4.2755 -0.1216
  382MOL0     H52662   9.252   4.862   1.975  0.5844  0.5890  1.5464
  382MOL0     H52663   9.451   5.110   1.934 -1.0442  0.5252 -0.2502
  382MOL0     H52664   9.484   4.994   2.052  0.4935  1.4958 -0.6677
  382MOL0     H52665   9.724   4.998   1.912 -0.0939 -0.0590 -2.1329
  382MOL0     H52666   9.837   4.810   1.594 -2.0364  0.1296  0.0506
  382MOL0     H52667   9.872   4.724   1.750 -1.7216 -1.1460 -1.6460
  382MOL0     H52668   9.863   5.024   1.720 -1.2808 -1.1484 -0.6633
  382MOL0     H52669   9.958   4.918   1.838 -0.3380 -0.8277 -0.7717
  382MOL0     H52670  10.114   4.867   1.676 -0.6729 -0.5964 -0.6162
  382MOL0     H52671  10.026   4.940   1.533 -4.9300  1.4520  0.7488
  382MOL0     H52672  10.061   5.176   1.681  0.5679 -1.1740  1.1340
  382MOL0     H52673  10.175   5.065   1.764 -2.3776 -3.7006  0.9698
  382MOL0     H52674  10.387   5.185   1.403  0.5316 -0.0121 -0.1324
  382MOL0     H52675  10.578   5.183   1.273 -0.8394 -0.5116 -1.5836
  382MOL0     H52676  10.646   5.025   1.234 -0.7773  0.6544 -0.1594
  382MOL0     H52677  10.712   5.128   1.367 -0.1502 -0.7684 -0.2303
  382MOL0     H52678  11.006   4.842   1.451  3.0525  1.5764  1.1913
  382MOL0     H52679  11.216   4.698   1.458 -1.9987  0.8622 -1.4761
  382MOL0     H52680  11.374   4.654   1.646  2.1482  1.3099 -2.6279
  382MOL0     H52681  11.449   4.507   1.694 -2.8246  1.6484  2.2592
  382MOL0     H52682  11.435   4.434   1.446 -0.2256  0.1082 -1.1598
  382MOL0     H52683  11.380   4.600   1.411 -0.2729  1.7514  1.9335
  382MOL0     H52684  11.581   4.693   1.505  0.6258  0.2028 -1.2188
  382MOL0     H52685  11.607   4.577   1.368 -2.6330 -1.1590 -0.3299
  382MOL0     H52686  11.662   4.396   1.556  0.3680 -0.1323  3.0106
  382MOL0     H52687  11.649   4.531   1.662 -2.7701 -0.1166 -0.2847
  382MOL0     H52688  11.880   4.436   1.542  0.6570 -0.2369  0.0978
  382MOL0     H52689  11.836   4.530   1.410  1.2648 -1.7740 -0.1641
  382MOL0     H52690  11.841   4.646   1.686  0.8353 -1.8463 -0.2450
  382MOL0     H52691  11.829   4.733   1.534  1.3116  0.9917  0.6065
  382MOL0     H52692  12.051   4.664   1.470 -1.3085  0.1581 -0.3918
  382MOL0     H52693  12.072   4.573   1.615  1.5349 -0.6827 -3.2190
  382MOL0     H52694  12.034   4.870   1.568 -1.9198 -1.1546 -0.7567
  382MOL0     H52695  12.181   4.784   1.630 -1.0470 -2.3800  2.6043
  382MOL0     H52696  11.027   4.463   1.770  0.7014  1.0501  0.2355
  382MOL0     H52697  10.820   4.608   1.745 -0.9310 -2.4659 -1.9316
  382MOL0     H52698  10.546   4.820   1.699 -1.2187 -0.9055  0.4242
  382MOL0     H52699  10.329   4.895   1.730  0.2169  1.1502  0.6162
  382MOL0     H52700   8.654   5.087   2.704 -0.9907  1.2612 -0.2818
  382MOL0     H52701   8.478   4.990   2.838  0.2634 -4.8836 -0.5440
  382MOL0     H52702   8.152   4.996   3.135  3.5281 -1.4301 -2.3922
  382MOL0     H52703   7.975   4.886   3.267 -0.0558  0.9465 -0.0473
  382MOL0     H52704   7.760   4.818   3.346 -0.6337  1.7876  1.1308
  382MOL0     H52705   7.714   4.959   3.250 -2.8232  0.9977  4.7814
  382MOL0     H52706   7.504   4.863   3.199  1.0385 -0.4098 -1.2668
  382MOL0     H52707   7.550   4.906   3.370  6.6796  2.4091 -0.9919
  382MOL0     H52708   7.534   4.614   3.253 -0.8077  1.9145 -0.5664
  382MOL0     H52709   7.591   4.658   3.419  1.6221  0.3764 -0.4006
  382MOL0     H52710   7.343   4.578   3.421 -0.4511 -0.4861 -1.6018
  382MOL0     H52711   7.325   4.682   3.279  2.2263  2.7118 -1.2536
  382MOL0     H52712   7.237   4.932   3.613 -0.3883 -0.7335  0.8636
  382MOL0     H52713   7.794   4.741   2.910  0.9533 -2.3283  0.3443
  382MOL0     H52714   7.955   4.953   2.690  1.1025 -0.1350  0.9303
  382MOL0     H52715   8.039   4.793   2.687  3.0621  3.0024  0.9952
  382MOL0     H52716   7.863   4.806   2.701  0.4053 -3.3218  1.5468
  383MOL0     O52717   3.395   7.494   7.505 -0.3537  0.5981 -0.5528
  383MOL0     C52718   3.301   7.455   7.441  0.9393  0.0641 -0.0422
  383MOL0     O52719   3.258   7.508   7.320  0.1956 -0.7590  0.7981
  383MOL0     C52720   3.267   7.638   7.287 -0.2719 -0.8222 -0.6320
  383MOL0     C52721   3.250   7.742   7.382  0.3738  0.8293  0.2678
  383MOL0     C52722   3.289   7.867   7.340  0.9409 -0.5585 -0.7432
  383MOL0     C52723   3.315   7.898   7.201 -1.0913 -0.0474  0.0454
  383MOL0     O52724   3.316   8.026   7.155  0.3584 -0.5105 -0.6738
  383MOL0     C52725   3.430   8.117   7.192  1.3225  0.4140  0.0060
  383MOL0     C52726   3.512   8.153   7.074  1.2009 -0.3100 -0.0367
  383MOL0     C52727   3.625   8.258   7.121 -0.7652 -0.5224 -0.1769
  383MOL0     C52728   3.733   8.311   7.013  0.0750 -0.9545 -0.2375
  383MOL0     C52729   3.833   8.395   7.087 -0.7624 -0.2108 -0.2833
  383MOL0     C52730   3.965   8.424   7.013  0.8630  0.8897  0.9541
  383MOL0     C52731   4.066   8.497   7.086  0.0943  0.9472  0.3687
  383MOL0     C52732   4.182   8.529   7.000  0.3838  0.0085 -0.2150
  383MOL0     N52733   4.281   8.420   6.994  0.5892 -0.0755  0.3305
  383MOL0     C52734   4.358   8.373   7.097  0.5012  0.1624  0.1517
  383MOL0     C52735   4.436   8.282   7.036 -0.9612  0.3135  0.1455
  383MOL0     C52736   4.521   8.188   7.112  0.2557 -0.1379 -0.2131
  383MOL0     C52737   4.667   8.239   7.129  0.3085  0.7126  0.1957
  383MOL0     C52738   4.759   8.115   7.158  0.1105  0.1973 -0.0327
  383MOL0     C52739   4.905   8.149   7.162 -0.4660 -0.0067 -0.7501
  383MOL0     O52740   4.943   8.265   7.236  0.5214  0.0413 -0.6666
  383MOL0     C52741   4.961   8.246   7.368 -0.3259 -0.7492  0.3714
  383MOL0     C52742   5.085   8.240   7.426  0.5064  0.6586  0.2551
  383MOL0     C52743   5.104   8.224   7.566 -0.7654 -0.5064 -0.4306
  383MOL0     C52744   5.255   8.225   7.613  0.4996 -0.6442 -0.8832
  383MOL0     C52745   4.988   8.192   7.648  1.1907  0.2522  0.8132
  383MOL0     C52746   4.990   8.151   7.792 -0.5635 -0.4931 -0.2148
  383MOL0     O52747   4.874   8.176   7.860  0.1293  0.7431 -0.4324
  383MOL0     C52748   4.863   8.111   7.987 -0.5698 -1.3288  0.1650
  383MOL0     C52749   4.803   7.988   7.990  0.4559 -0.4432 -0.2014
  383MOL0     C52750   4.775   7.919   8.109  0.2754 -0.2976 -0.8394
  383MOL0     C52751   4.806   7.979   8.233 -1.2164  0.8612 -0.8017
  383MOL0     O52752   4.818   7.914   8.353  0.5848 -0.1217  0.5448
  383MOL0     C52753   4.732   7.812   8.380  0.1113 -0.4054 -0.2278
  383MOL0     C52754   4.690   7.823   8.528  0.4883  0.0876  0.8247
  383MOL0     C52755   4.610   7.947   8.561 -0.8461 -0.7380 -0.1940
  383MOL0     C52756   4.589   7.955   8.712  1.3337  0.4221  0.4199
  383MOL0     C52757   4.481   7.857   8.761 -0.6013  0.2856 -1.0564
  383MOL0     C52758   4.445   7.877   8.910 -0.3530 -0.2974 -0.1232
  383MOL0     C52759   4.381   8.013   8.933 -0.1132  0.7996  0.4486
  383MOL0     C52760   4.333   8.045   9.086 -0.7869  0.4328  0.0858
  383MOL0    Cl52761   4.240   7.905   9.136  0.2735  0.4846  0.1493
  383MOL0     C52762   4.879   8.093   8.228 -0.3983 -0.3020 -0.2463
  383MOL0     C52763   4.893   8.169   8.109  0.3099  0.7612 -0.1510
  383MOL0     O52764   5.103   8.117   7.842  0.0540  0.6525  0.8804
  383MOL0     C52765   4.861   8.210   7.585  0.0010  0.2997  0.0032
  383MOL0     C52766   4.848   8.238   7.447  0.1089  0.7213 -0.3021
  383MOL0     N52767   4.415   8.284   6.898  0.0821  0.7137  0.0660
  383MOL0     N52768   4.316   8.368   6.879  0.4785 -0.8888 -0.4585
  383MOL0     C52769   3.309   7.796   7.103 -0.1843 -0.4686  0.6634
  383MOL0     C52770   3.291   7.671   7.148  0.1917 -0.2970 -0.7898
  383MOL0     C52771   3.228   7.337   7.503 -0.2645 -0.2493  0.4388
  383MOL0     C52772   3.109   7.283   7.454  0.5445  0.6102  0.4420
  383MOL0     C52773   3.044   7.169   7.500  0.0092  0.0979  1.0302
  383MOL0     C52774   3.091   7.093   7.608 -0.5965 -0.0157  0.0385
  383MOL0     O52775   3.006   6.996   7.665  0.1947 -0.6659 -0.5048
  383MOL0     C52776   3.046   6.924   7.784  0.3499  0.3701  0.6454
  383MOL0     C52777   2.937   6.821   7.816 -0.2365 -0.2398  0.2893
  383MOL0     C52778   2.816   6.896   7.875  0.3330  0.2497 -0.3792
  383MOL0     C52779   2.701   6.801   7.871 -0.4106  1.0174  0.5429
  383MOL0     C52780   2.717   6.671   7.934  0.2397  0.2287  0.8029
  383MOL0     C52781   2.738   6.576   8.008 -0.1641  0.3084 -0.2034
  383MOL0     C52782   3.213   7.142   7.665 -0.6335 -0.3494  0.7410
  383MOL0     C52783   3.282   7.266   7.616  0.7453  0.4392  0.6284
  383MOL0     C52784   3.418   7.293   7.688  1.2208 -0.1134 -0.4722
  383MOL0     H52785   3.216   7.725   7.483  0.4984  0.1621  0.2051
  383MOL0     H52786   3.262   7.944   7.411  0.6110 -2.0277  0.8049
  383MOL0     H52787   3.489   8.057   7.262  3.9466  1.7206 -0.9449
  383MOL0     H52788   3.387   8.208   7.235 -2.2435 -1.2583  0.3986
  383MOL0     H52789   3.546   8.065   7.019 -0.6299  0.0602 -1.8786
  383MOL0     H52790   3.456   8.202   6.994  1.9860  1.0399  0.2098
  383MOL0     H52791   3.584   8.351   7.162 -0.5901 -2.0279  3.8966
  383MOL0     H52792   3.686   8.204   7.194 -0.8074  1.1899  1.2051
  383MOL0     H52793   3.791   8.226   6.975 -0.4302 -0.8898 -1.1863
  383MOL0     H52794   3.685   8.359   6.927  2.0007  0.4298 -0.6041
  383MOL0     H52795   3.851   8.348   7.184 -2.4113 -0.2316  0.0410
  383MOL0     H52796   3.784   8.489   7.115  0.1126 -0.0103  0.6555
  383MOL0     H52797   4.002   8.327   6.977  0.8617  1.3145 -0.2536
  383MOL0     H52798   3.944   8.471   6.916  1.3275 -0.6637  0.0709
  383MOL0     H52799   4.092   8.439   7.175 -1.7458  1.6387  1.3953
  383MOL0     H52800   4.020   8.588   7.126 -2.3574  0.9097 -2.0392
  383MOL0     H52801   4.149   8.542   6.896  1.1948  0.7087 -0.4006
  383MOL0     H52802   4.223   8.626   7.032  2.1734 -1.0444  0.8695
  383MOL0     H52803   4.359   8.397   7.203 -0.5483  0.4534  0.1115
  383MOL0     H52804   4.527   8.093   7.060 -1.8620  0.6325 -2.0119
  383MOL0     H52805   4.464   8.170   7.204 -2.0767  2.2548 -1.0562
  383MOL0     H52806   4.694   8.288   7.035  0.1807  1.2660  0.4446
  383MOL0     H52807   4.661   8.309   7.212 -2.9589  1.3397 -0.4409
  383MOL0     H52808   4.728   8.075   7.255 -0.2011 -2.3641 -1.1122
  383MOL0     H52809   4.743   8.033   7.088  0.9085  1.5745 -1.9162
  383MOL0     H52810   4.946   8.058   7.205  0.0114 -1.8993 -4.8006
  383MOL0     H52811   4.939   8.152   7.058 -3.3811  1.6465 -1.7945
  383MOL0     H52812   5.158   8.260   7.347 -0.0973 -0.3101 -0.5785
  383MOL0     H52813   5.284   8.296   7.690  1.8121  0.2674 -2.1550
  383MOL0     H52814   5.317   8.240   7.523  3.8378  2.9639  1.7053
  383MOL0     H52815   5.279   8.126   7.655 -0.5561  0.1948  1.9023
  383MOL0     H52816   4.778   7.943   7.895 -1.1064  2.1629 -1.1336
  383MOL0     H52817   4.720   7.826   8.099  0.3055 -0.3564 -0.4473
  383MOL0     H52818   4.638   7.832   8.328  0.0681  2.6319  0.8051
  383MOL0     H52819   4.778   7.717   8.352  0.0590 -0.3537 -0.4904
  383MOL0     H52820   4.629   7.737   8.555 -0.5226  1.1724  2.1567
  383MOL0     H52821   4.775   7.821   8.596  1.5270  0.2480 -0.4400
  383MOL0     H52822   4.515   7.971   8.514 -1.3418  0.9372  1.5015
  383MOL0     H52823   4.674   8.031   8.532  1.7024 -2.0928  1.1106
  383MOL0     H52824   4.585   8.057   8.752 -0.3125 -0.7886  3.6248
  383MOL0     H52825   4.685   7.926   8.754  1.5197 -2.7153 -1.7824
  383MOL0     H52826   4.398   7.867   8.690 -2.1184 -1.7656  0.3267
  383MOL0     H52827   4.522   7.755   8.759  0.6335  0.6697  1.1174
  383MOL0     H52828   4.531   7.863   8.977  0.4097 -2.4907 -1.4493
  383MOL0     H52829   4.374   7.797   8.932  0.2009 -0.0481  3.1705
  383MOL0     H52830   4.291   8.022   8.871 -0.0312  3.2959  0.5958
  383MOL0     H52831   4.454   8.090   8.910  0.1624  1.2061  2.4540
  383MOL0     H52832   4.261   8.127   9.091 -1.0064  0.3807 -1.7479
  383MOL0     H52833   4.419   8.078   9.146 -0.5581  2.1117 -1.0977
  383MOL0     H52834   4.922   8.135   8.318  0.6725  2.9386 -2.0910
  383MOL0     H52835   4.946   8.263   8.117 -0.6045  1.4650 -1.8158
  383MOL0     H52836   4.773   8.193   7.646  1.1863  0.3145  1.7777
  383MOL0     H52837   4.747   8.244   7.409 -0.0172 -2.1339 -0.6566
  383MOL0     H52838   3.322   7.821   6.998  0.4889 -3.8234 -0.1771
  383MOL0     H52839   3.292   7.590   7.075  2.0276  0.3923 -1.5807
  383MOL0     H52840   3.058   7.328   7.370  0.3556  0.2933  0.3870
  383MOL0     H52841   2.959   7.121   7.453  0.7015 -1.7500  1.5822
  383MOL0     H52842   3.140   6.875   7.757 -0.0545  1.2825 -2.9187
  383MOL0     H52843   3.051   6.993   7.868 -1.9870 -1.2964  2.2611
  383MOL0     H52844   2.981   6.757   7.893  2.3266  0.8854 -0.1330
  383MOL0     H52845   2.918   6.756   7.730  3.4354  0.9466 -1.6574
  383MOL0     H52846   2.844   6.922   7.978  2.8230 -3.2184  0.0005
  383MOL0     H52847   2.780   6.985   7.823 -0.2919  1.7050  2.3204
  383MOL0     H52848   2.685   6.786   7.764  1.1675  0.2643  0.3867
  383MOL0     H52849   2.617   6.843   7.927 -0.0900 -1.1534  2.8501
  383MOL0     H52850   2.741   6.484   8.063  0.2745  0.7393  0.4956
  383MOL0     H52851   3.254   7.094   7.754  0.2844  2.0513  1.6730
  383MOL0     H52852   3.492   7.256   7.616 -0.4737 -2.1345 -1.2617
  383MOL0     H52853   3.439   7.396   7.720 -0.0463 -0.1003  0.3689
  383MOL0     H52854   3.423   7.229   7.776 -2.1335  0.5813  0.3683
  384MOL0     O52855   5.137   1.262   2.529 -0.3008  0.0475  0.7163
  384MOL0     C52856   5.109   1.168   2.593 -0.2155 -0.0161 -0.5577
  384MOL0     O52857   5.140   1.040   2.567  0.3299 -0.1548  0.5009
  384MOL0     C52858   5.225   1.017   2.457 -0.2464 -0.2643  0.8683
  384MOL0     C52859   5.353   0.960   2.473  0.4475 -0.7852 -0.8060
  384MOL0     C52860   5.437   0.925   2.371  0.2802  0.2291  0.2191
  384MOL0     C52861   5.390   0.951   2.239 -0.1150  0.0212  0.7197
  384MOL0     O52862   5.470   0.920   2.133 -0.2095  0.5697  0.4740
  384MOL0     C52863   5.596   1.001   2.130  0.2367 -0.1010  0.3428
  384MOL0     C52864   5.571   1.127   2.040  0.7456  0.2023 -0.9402
  384MOL0     C52865   5.513   1.095   1.901  0.1549  0.2948 -0.4035
  384MOL0     C52866   5.572   1.187   1.794 -0.6020  0.5919  0.5380
  384MOL0     C52867   5.509   1.149   1.653  0.6168 -0.6224 -0.4623
  384MOL0     C52868   5.360   1.192   1.642 -0.5435 -0.1054  0.3010
  384MOL0     C52869   5.288   1.149   1.516 -0.8136  0.1398 -0.6486
  384MOL0     C52870   5.154   1.216   1.490  0.2766  0.9115 -0.1247
  384MOL0     N52871   5.154   1.358   1.481 -0.5928 -0.3556 -0.3923
  384MOL0     C52872   5.152   1.440   1.594 -0.1591  0.6587  0.5064
  384MOL0     C52873   5.143   1.566   1.545  0.1621 -0.0034  0.5806
  384MOL0     C52874   5.127   1.688   1.626  0.2501  0.4697 -0.4179
  384MOL0     C52875   5.257   1.767   1.644 -0.4360  0.0300  0.3707
  384MOL0     C52876   5.263   1.833   1.778 -0.4312 -0.4379  0.5274
  384MOL0     C52877   5.411   1.885   1.805  0.3164  0.1870 -0.5201
  384MOL0     O52878   5.413   1.962   1.935  0.1955 -0.0137  0.0790
  384MOL0     C52879   5.502   2.068   1.959  0.2917  0.4062  0.6168
  384MOL0     C52880   5.477   2.167   2.054 -0.1623 -0.3793  0.9401
  384MOL0     C52881   5.573   2.253   2.101 -0.1166 -0.7926  0.2094
  384MOL0     C52882   5.542   2.323   2.230  0.9095 -0.3131 -0.0547
  384MOL0     C52883   5.697   2.261   2.038  0.6611 -0.3284  0.2818
  384MOL0     C52884   5.801   2.353   2.080  0.1278  0.8009 -0.0398
  384MOL0     O52885   5.932   2.324   2.039  0.5770  0.0852  0.1654
  384MOL0     C52886   6.028   2.412   2.084  0.7269  0.5533  0.5884
  384MOL0     C52887   6.078   2.508   1.998 -0.5156  0.2470  0.4568
  384MOL0     C52888   6.160   2.612   2.040  0.2071 -0.5373 -0.3333
  384MOL0     C52889   6.187   2.638   2.173 -0.3131  0.1447  0.3622
  384MOL0     O52890   6.247   2.744   2.230  0.2575 -0.0392  0.4606
  384MOL0     C52891   6.195   2.874   2.185  0.0330 -0.6183 -0.1877
  384MOL0     C52892   6.133   2.933   2.315  0.5902 -0.9555  1.0775
  384MOL0     C52893   6.001   2.862   2.337 -0.3624  0.0748  1.0497
  384MOL0     C52894   5.926   2.918   2.463  0.2514  0.3595 -0.5153
  384MOL0     C52895   5.972   2.874   2.602 -0.0995  0.9769  0.0434
  384MOL0     C52896   5.912   2.736   2.632  0.0454 -0.7678 -0.0711
  384MOL0     C52897   5.941   2.691   2.777 -0.0469 -1.3776 -0.2113
  384MOL0     C52898   5.852   2.581   2.828 -0.2091  0.8188  0.6402
  384MOL0    Cl52899   5.924   2.538   2.991 -0.0125 -0.2878  0.7895
  384MOL0     C52900   6.147   2.530   2.260 -0.6484 -0.5490  0.5419
  384MOL0     C52901   6.073   2.421   2.218 -0.3180 -0.0372  0.1456
  384MOL0     O52902   5.777   2.458   2.141  0.4584 -0.0234  0.1803
  384MOL0     C52903   5.723   2.166   1.935 -0.9068  0.1118  0.5042
  384MOL0     C52904   5.630   2.069   1.902 -0.0152  0.1695 -1.5015
  384MOL0     N52905   5.151   1.557   1.409  0.1420 -0.4783  0.5430
  384MOL0     N52906   5.154   1.428   1.368 -0.4222 -0.9234  0.1033
  384MOL0     C52907   5.268   1.016   2.217  0.0307 -0.3670 -0.3552
  384MOL0     C52908   5.181   1.050   2.328 -1.7288 -0.0518  0.4470
  384MOL0     C52909   5.023   1.195   2.711 -0.9360 -0.5431  0.1505
  384MOL0     C52910   4.890   1.226   2.701 -0.1943  1.2943 -1.0659
  384MOL0     C52911   4.825   1.284   2.809 -0.5695 -0.1005 -1.0993
  384MOL0     C52912   4.883   1.286   2.928  0.3533 -0.6844 -1.1513
  384MOL0     O52913   4.819   1.343   3.034  0.5911 -0.0630 -0.0873
  384MOL0     C52914   4.873   1.345   3.166 -1.2746  0.6398 -0.5524
  384MOL0     C52915   4.770   1.377   3.276 -0.5197 -0.1025  0.2425
  384MOL0     C52916   4.682   1.262   3.295  0.6649  0.0960 -1.2877
  384MOL0     C52917   4.703   1.177   3.428 -0.3399  0.1809 -0.5391
  384MOL0     C52918   4.837   1.112   3.442  0.4550  0.1021 -0.4970
  384MOL0     C52919   4.942   1.060   3.478 -0.6516 -1.3066 -1.1512
  384MOL0     C52920   5.016   1.238   2.947 -0.8776 -0.2749  0.6090
  384MOL0     C52921   5.088   1.192   2.840  0.3852  0.2266  0.1125
  384MOL0     C52922   5.231   1.141   2.856 -0.4878 -0.0457 -0.7784
  384MOL0     H52923   5.383   0.973   2.577 -1.4370 -0.7445 -0.2249
  384MOL0     H52924   5.529   0.869   2.377 -0.9834 -2.2309 -1.5431
  384MOL0     H52925   5.677   0.940   2.090 -0.5529 -1.4810  0.7596
  384MOL0     H52926   5.619   1.032   2.233  0.7333  0.1324  0.1639
  384MOL0     H52927   5.503   1.198   2.088  0.6009  0.1189 -1.0211
  384MOL0     H52928   5.662   1.186   2.030 -0.0493  1.0987 -3.7645
  384MOL0     H52929   5.542   0.991   1.881  0.6615 -0.2594  2.6629
  384MOL0     H52930   5.404   1.092   1.894  0.2831 -0.5179 -4.4028
  384MOL0     H52931   5.565   1.293   1.820 -1.2277 -0.1247  3.6237
  384MOL0     H52932   5.678   1.163   1.796 -0.0418  2.6598  3.6881
  384MOL0     H52933   5.529   1.044   1.633  2.1939 -0.4855  0.2940
  384MOL0     H52934   5.556   1.201   1.569 -0.2145  0.3065 -0.3685
  384MOL0     H52935   5.301   1.168   1.731 -3.2020  0.9655 -1.0604
  384MOL0     H52936   5.373   1.300   1.634  2.6524 -0.2859  1.5779
  384MOL0     H52937   5.272   1.041   1.519 -0.3015  0.0761  0.2703
  384MOL0     H52938   5.362   1.156   1.436  1.3645 -2.9759  0.8700
  384MOL0     H52939   5.108   1.182   1.397 -1.5416  2.5249  0.1140
  384MOL0     H52940   5.087   1.183   1.571 -0.0804  0.8246 -0.4508
  384MOL0     H52941   5.144   1.419   1.700 -1.8663  0.7705  0.4268
  384MOL0     H52942   5.081   1.655   1.719  1.3043 -3.4869 -1.1214
  384MOL0     H52943   5.054   1.753   1.577  1.1478  1.3787 -0.5855
  384MOL0     H52944   5.342   1.698   1.651  1.0208  1.3395 -2.6246
  384MOL0     H52945   5.269   1.837   1.561 -1.2477 -0.3352 -0.0651
  384MOL0     H52946   5.196   1.920   1.776 -1.9776 -1.5943 -0.5712
  384MOL0     H52947   5.241   1.762   1.858 -1.2439 -1.6991 -0.7685
  384MOL0     H52948   5.471   1.795   1.820  0.0784 -0.3787 -2.6620
  384MOL0     H52949   5.454   1.942   1.722  0.8079  0.5790 -0.0101
  384MOL0     H52950   5.374   2.167   2.086 -0.8654 -0.3966 -1.1541
  384MOL0     H52951   5.627   2.328   2.298  0.5701  1.2262  0.2806
  384MOL0     H52952   5.455   2.275   2.277  0.6792 -0.6454 -0.8035
  384MOL0     H52953   5.503   2.424   2.215 -0.7778 -1.1967 -2.1579
  384MOL0     H52954   6.043   2.510   1.896  0.1328 -0.8706  0.1903
  384MOL0     H52955   6.188   2.693   1.973  3.9546 -1.4211 -0.0424
  384MOL0     H52956   6.279   2.934   2.148 -1.4373  2.1961  0.7312
  384MOL0     H52957   6.119   2.874   2.106  0.0137  3.2355 -0.3496
  384MOL0     H52958   6.194   2.908   2.403  2.7331 -0.2767 -0.1449
  384MOL0     H52959   6.124   3.041   2.307 -1.1614 -0.8719  3.3576
  384MOL0     H52960   6.011   2.754   2.348  2.0146  0.0862 -0.3852
  384MOL0     H52961   5.939   2.881   2.250  1.9329 -0.0798 -0.7174
  384MOL0     H52962   5.819   2.896   2.460  0.8462 -3.2154  0.5642
  384MOL0     H52963   5.950   3.025   2.462  2.2909  0.0341  2.3183
  384MOL0     H52964   6.081   2.879   2.598 -0.0190 -0.0656  0.4203
  384MOL0     H52965   5.933   2.944   2.676 -1.3611  0.7196 -0.3639
  384MOL0     H52966   5.940   2.666   2.554 -0.1356 -1.6844  0.6637
  384MOL0     H52967   5.803   2.745   2.629  0.2450  3.1041 -0.4833
  384MOL0     H52968   5.953   2.778   2.842  1.1913 -0.4634 -1.5986
  384MOL0     H52969   6.039   2.643   2.777  0.5720 -0.1453  0.3385
  384MOL0     H52970   5.852   2.496   2.759  0.8044  2.2190 -1.1932
  384MOL0     H52971   5.749   2.617   2.835  0.2849  2.6397 -0.7096
  384MOL0     H52972   6.152   2.547   2.367  0.9644 -0.3546  0.4521
  384MOL0     H52973   6.031   2.352   2.291  1.3643 -1.0209  0.2300
  384MOL0     H52974   5.824   2.169   1.895 -1.2966  0.6091 -0.4777
  384MOL0     H52975   5.661   2.008   1.818  0.1901  1.5695 -2.4641
  384MOL0     H52976   5.216   1.051   2.129 -4.1035 -1.4918  1.3792
  384MOL0     H52977   5.083   1.097   2.315 -1.1103  1.8363  2.0576
  384MOL0     H52978   4.833   1.215   2.609 -2.3085 -1.1172  0.3860
  384MOL0     H52979   4.727   1.327   2.790 -0.4753  0.4142 -0.4088
  384MOL0     H52980   4.921   1.252   3.196 -3.9080 -0.5501  0.2416
  384MOL0     H52981   4.948   1.425   3.176 -0.1135 -0.5879  1.1123
  384MOL0     H52982   4.713   1.464   3.241 -1.0563 -1.0833 -1.4906
  384MOL0     H52983   4.816   1.409   3.370  0.8923 -1.0511 -0.1015
  384MOL0     H52984   4.583   1.307   3.306  0.4990  0.6270 -4.1702
  384MOL0     H52985   4.690   1.193   3.211 -0.5749 -2.1796  0.3574
  384MOL0     H52986   4.635   1.092   3.416 -0.9095  0.4608  0.5093
  384MOL0     H52987   4.686   1.235   3.520  1.3709 -1.9398  1.2448
  384MOL0     H52988   5.041   1.031   3.503 -0.0530  2.2044  1.2775
  384MOL0     H52989   5.062   1.237   3.045 -1.4096 -3.2766  0.9482
  384MOL0     H52990   5.238   1.032   2.863  0.8627 -0.0008 -1.1299
  384MOL0     H52991   5.305   1.168   2.780  3.1930 -1.1409  2.0769
  384MOL0     H52992   5.265   1.178   2.953  1.5529  1.4658 -1.9922
  385MOL0     O52993   5.340  10.857  11.338 -0.6524 -0.2729  0.2669
  385MOL0     C52994   5.230  10.808  11.337  0.0297  0.4364  0.0028
  385MOL0     O52995   5.121  10.861  11.271 -0.8923 -0.1281 -0.4960
  385MOL0     C52996   5.128  10.997  11.240  1.2979  0.5374  1.0139
  385MOL0     C52997   5.129  11.032  11.103 -0.0393 -0.2579 -0.0485
  385MOL0     C52998   5.145  11.175  11.072 -0.0922  0.3807  0.1247
  385MOL0     C52999   5.169  11.265  11.171  0.0216 -0.0344 -0.6517
  385MOL0     O53000   5.190  11.395  11.130 -0.2949 -1.0136  0.0648
  385MOL0     C53001   5.326  11.437  11.102  0.2914 -0.3170  0.4258
  385MOL0     C53002   5.383  11.385  10.968  0.5364 -0.4957 -0.4576
  385MOL0     C53003   5.513  11.449  10.929  0.3979 -0.0326  0.5815
  385MOL0     C53004   5.569  11.374  10.811  0.2008 -0.1871 -0.3080
  385MOL0     C53005   5.722  11.395  10.801 -0.0538  0.3330 -0.5090
  385MOL0     C53006   5.784  11.314  10.692 -0.4666  0.2559  0.3066
  385MOL0     C53007   5.933  11.342  10.662 -0.1108  0.3007  0.6884
  385MOL0     C53008   5.954  11.472  10.584  0.6448  0.6194  0.2672
  385MOL0     N53009   6.093  11.474  10.546  0.3442 -0.6772  1.9682
  385MOL0     C53010   6.203  11.459  10.629  1.1529 -0.0887  0.5583
  385MOL0     C53011   6.295  11.396  10.555  0.3334 -0.4150  0.4552
  385MOL0     C53012   6.425  11.354  10.614 -0.2805 -0.3489 -0.0769
  385MOL0     C53013   6.534  11.424  10.538 -0.4171 -0.7764 -0.0338
  385MOL0     C53014   6.670  11.384  10.605 -0.6713  0.7852 -0.2740
  385MOL0     C53015   6.795  11.458  10.550  0.1039  0.1212  0.1771
  385MOL0     O53016   6.888  11.426  10.656 -0.5304  0.3898 -0.7394
  385MOL0     C53017   6.987  11.327  10.644  0.1689 -0.0352 -0.0640
  385MOL0     C53018   6.982  11.237  10.541  0.8077 -0.6756 -0.2439
  385MOL0     C53019   7.084  11.145  10.517  0.6878  0.2678  0.2395
  385MOL0     C53020   7.066  11.063  10.387 -0.6120 -0.3629  0.2053
  385MOL0     C53021   7.195  11.153  10.603  0.3757  0.2265 -0.4615
  385MOL0     C53022   7.331  11.094  10.566 -0.3722  0.5530  1.0131
  385MOL0     O53023   7.445  11.153  10.615 -0.7255 -0.2800 -0.0327
  385MOL0     C53024   7.571  11.120  10.577 -0.2658 -0.0450  0.1631
  385MOL0     C53025   7.670  11.164  10.655 -0.4098  0.2478 -1.0799
  385MOL0     C53026   7.806  11.139  10.634  0.3172 -0.5242 -0.0806
  385MOL0     C53027   7.850  11.073  10.514 -0.0172  0.2936  0.1247
  385MOL0     O53028   7.983  11.053  10.480  0.6115 -1.0868  0.1246
  385MOL0     C53029   8.080  11.148  10.519  0.2919 -0.9871 -0.4242
  385MOL0     C53030   8.192  11.075  10.598  0.0944 -0.6878  0.1102
  385MOL0     C53031   8.141  11.022  10.730  0.4016  0.0826 -0.4692
  385MOL0     C53032   8.259  10.960  10.814 -0.2266 -0.1539 -0.0004
  385MOL0     C53033   8.216  10.909  10.942  0.8598 -0.2632 -0.4565
  385MOL0     C53034   8.328  10.875  11.040 -0.6423 -0.6885  0.7534
  385MOL0     C53035   8.274  10.850  11.181  0.8417 -0.3937  1.1517
  385MOL0     C53036   8.285  10.982  11.268  0.1360  0.2014  0.8933
  385MOL0    Cl53037   8.237  10.917  11.436  0.0159  0.3038  0.0009
  385MOL0     C53038   7.753  11.014  10.433  0.6008 -0.7440 -0.8127
  385MOL0     C53039   7.619  11.035  10.471  0.1535 -0.1026 -0.1539
  385MOL0     O53040   7.336  10.983  10.505 -0.0917 -0.3522  0.2938
  385MOL0     C53041   7.195  11.245  10.709  0.5173  0.4708 -0.1503
  385MOL0     C53042   7.089  11.328  10.737 -0.4969  0.0107  0.8526
  385MOL0     N53043   6.245  11.375  10.428 -0.2642  0.8024 -0.5661
  385MOL0     N53044   6.128  11.422  10.421  0.3228  1.0803  0.7809
  385MOL0     C53045   5.166  11.226  11.301 -0.3126  0.3281  0.0472
  385MOL0     C53046   5.143  11.090  11.338  0.5769  0.8338  0.6119
  385MOL0     C53047   5.228  10.663  11.365 -0.7628  0.0102  0.2170
  385MOL0     C53048   5.351  10.597  11.401 -0.2506  0.7569 -1.0035
  385MOL0     C53049   5.360  10.462  11.396  0.1381 -0.5125  0.0219
  385MOL0     C53050   5.244  10.382  11.378  0.2036 -0.3835 -0.0936
  385MOL0     O53051   5.236  10.246  11.377  0.4009 -0.2761  0.1265
  385MOL0     C53052   5.283  10.190  11.503 -0.0993  0.1223 -0.5676
  385MOL0     C53053   5.316  10.045  11.461  0.1609 -0.6207  0.6081
  385MOL0     C53054   5.184   9.956  11.453  0.1536 -0.3074 -0.1083
  385MOL0     C53055   5.204   9.817  11.395  0.0546  1.2393 -0.3695
  385MOL0     C53056   5.259   9.725  11.499 -0.1000 -0.2867  0.7896
  385MOL0     C53057   5.297   9.658  11.592  0.8419  0.1430  0.3840
  385MOL0     C53058   5.119  10.448  11.350 -0.3403  0.3757  0.5615
  385MOL0     C53059   5.109  10.585  11.354 -0.4003  0.4579 -0.7976
  385MOL0     C53060   4.967  10.633  11.336  0.3549  0.0404  1.1280
  385MOL0     H53061   5.119  10.959  11.024 -0.6247  1.0276 -1.2056
  385MOL0     H53062   5.141  11.219  10.973 -3.1348  0.1714  0.0772
  385MOL0     H53063   5.375  11.396  11.191  0.1882 -0.4438  0.4247
  385MOL0     H53064   5.328  11.546  11.109 -0.7253 -0.1482 -1.3822
  385MOL0     H53065   5.398  11.281  11.001 -0.4880  0.0714  2.0170
  385MOL0     H53066   5.309  11.387  10.887  1.6704 -0.3036 -1.5350
  385MOL0     H53067   5.515  11.555  10.903  1.7004  0.0084  0.7594
  385MOL0     H53068   5.583  11.449  11.013  0.1531  1.0367  0.8061
  385MOL0     H53069   5.546  11.270  10.837  0.1294  0.4710  2.6900
  385MOL0     H53070   5.505  11.409  10.730 -0.9431  1.7437  1.3275
  385MOL0     H53071   5.769  11.366  10.895  3.1042 -0.2363 -2.1346
  385MOL0     H53072   5.752  11.500  10.798 -1.2886  0.7603  0.7856
  385MOL0     H53073   5.776  11.209  10.723  2.4673 -0.5550 -1.3224
  385MOL0     H53074   5.728  11.323  10.598 -1.4995 -0.6094  0.8047
  385MOL0     H53075   5.966  11.256  10.604  1.1086  0.9407  0.4059
  385MOL0     H53076   5.989  11.345  10.756 -0.4103 -0.4540  0.9006
  385MOL0     H53077   5.888  11.476  10.497 -1.0960 -2.9764  1.2203
  385MOL0     H53078   5.937  11.553  10.656  0.7070 -0.8303  1.9861
  385MOL0     H53079   6.214  11.478  10.735 -0.7078  2.4879  0.4003
  385MOL0     H53080   6.442  11.246  10.622  0.9268 -0.0573  2.4731
  385MOL0     H53081   6.423  11.381  10.720 -2.2962  0.6288 -0.3202
  385MOL0     H53082   6.541  11.388  10.435  1.8559 -0.9306  0.1153
  385MOL0     H53083   6.513  11.531  10.527 -1.7433 -1.0686 -0.5411
  385MOL0     H53084   6.666  11.407  10.712  0.8318 -0.6536  0.1220
  385MOL0     H53085   6.688  11.279  10.582  0.9250  0.9803 -0.0085
  385MOL0     H53086   6.820  11.414  10.453  2.6349 -0.0005  0.8297
  385MOL0     H53087   6.771  11.565  10.548  1.7800  0.5834 -3.9706
  385MOL0     H53088   6.900  11.232  10.470 -1.8603 -1.2229  2.6748
  385MOL0     H53089   7.071  11.130  10.300  0.8518 -0.7844 -0.0549
  385MOL0     H53090   6.966  11.022  10.405 -0.5918 -0.0911  0.9787
  385MOL0     H53091   7.142  10.987  10.367  0.5418  1.5182 -3.5978
  385MOL0     H53092   7.657  11.217  10.749  0.9197  0.5641 -1.0560
  385MOL0     H53093   7.873  11.182  10.708 -1.1164  2.0094 -0.1511
  385MOL0     H53094   8.119  11.200  10.430 -1.1013  2.7048  0.9067
  385MOL0     H53095   8.039  11.234  10.573 -1.0878 -1.0744 -1.2928
  385MOL0     H53096   8.222  10.982  10.548  1.5427 -0.1356 -0.1135
  385MOL0     H53097   8.286  11.131  10.605  1.3017 -2.5174 -0.5806
  385MOL0     H53098   8.056  10.952  10.728 -1.2706  1.9643  0.8948
  385MOL0     H53099   8.105  11.109  10.785 -3.3411 -1.1372 -0.6864
  385MOL0     H53100   8.340  11.032  10.830 -1.1732  0.8035  0.6077
  385MOL0     H53101   8.296  10.881  10.748 -0.0454 -0.3535  0.3410
  385MOL0     H53102   8.156  10.987  10.988  0.8592 -1.1281  1.0668
  385MOL0     H53103   8.149  10.824  10.930  2.5792 -1.3850 -2.9990
  385MOL0     H53104   8.406  10.952  11.041 -0.5726 -0.7369 -0.3056
  385MOL0     H53105   8.371  10.783  10.999 -2.6517 -0.5216 -2.0145
  385MOL0     H53106   8.329  10.765  11.222 -0.2071 -1.8912 -0.4629
  385MOL0     H53107   8.168  10.828  11.190  0.2263  1.1699 -1.3804
  385MOL0     H53108   8.224  11.061  11.223 -1.9393 -1.9676 -0.3219
  385MOL0     H53109   8.382  11.029  11.286  1.9515 -2.4838 -1.0357
  385MOL0     H53110   7.772  10.971  10.336  0.4643  1.7583 -2.0319
  385MOL0     H53111   7.553  10.980  10.405 -1.9904  0.3328  1.5097
  385MOL0     H53112   7.283  11.241  10.773  1.8306 -1.3844 -1.9497
  385MOL0     H53113   7.083  11.402  10.815 -0.1352  0.2764  0.6357
  385MOL0     H53114   5.174  11.294  11.385 -0.9738  2.7750 -1.7736
  385MOL0     H53115   5.141  11.059  11.442 -1.3921 -1.3181  0.0155
  385MOL0     H53116   5.447  10.647  11.410 -1.7747  3.6226  0.5892
  385MOL0     H53117   5.458  10.414  11.406 -0.0992 -1.2428 -0.9714
  385MOL0     H53118   5.376  10.230  11.545  0.2624  0.4351 -1.6383
  385MOL0     H53119   5.202  10.188  11.578 -1.2173 -0.7903 -1.7552
  385MOL0     H53120   5.377  10.009  11.544  0.1456  0.6247  1.1801
  385MOL0     H53121   5.373  10.031  11.369  0.5839 -0.0717  0.7845
  385MOL0     H53122   5.136   9.949  11.551  1.3478 -0.4673  0.4816
  385MOL0     H53123   5.118   9.999  11.378 -0.6210 -1.8398 -0.3483
  385MOL0     H53124   5.268   9.818  11.307  1.4420  0.1060  0.5680
  385MOL0     H53125   5.108   9.773  11.366  0.3883 -0.3356  0.7538
  385MOL0     H53126   5.306   9.607  11.686 -1.3606  0.6900  0.9580
  385MOL0     H53127   5.030  10.396  11.316  2.9261 -2.9923 -4.3238
  385MOL0     H53128   4.952  10.659  11.230 -1.8534 -4.5829  0.0265
  385MOL0     H53129   4.886  10.562  11.353 -1.5898  2.3467  2.2136
  385MOL0     H53130   4.948  10.709  11.412 -1.4855 -0.8276  1.5886
  386MOL0     O53131   0.791   5.862   9.882  0.4598 -0.3511  0.1476
  386MOL0     C53132   0.878   5.802   9.828  0.0114 -0.9238  0.1718
  386MOL0     O53133   0.945   5.854   9.716 -0.3594 -0.3000  0.3227
  386MOL0     C53134   0.898   5.974   9.668 -0.4755 -0.2045  0.1851
  386MOL0     C53135   0.911   6.102   9.730 -0.0004  0.8403  0.2783
  386MOL0     C53136   0.868   6.209   9.656  0.4314 -0.4160  0.2597
  386MOL0     C53137   0.800   6.203   9.532 -0.5117 -0.2717 -0.3273
  386MOL0     O53138   0.751   6.305   9.453 -0.2383 -0.3500 -0.7512
  386MOL0     C53139   0.776   6.441   9.499  0.3119 -0.2403 -0.9375
  386MOL0     C53140   0.754   6.540   9.384  0.0364 -0.2045  0.1818
  386MOL0     C53141   0.789   6.686   9.432  0.3272  0.5519 -0.4309
  386MOL0     C53142   0.749   6.785   9.324  0.0557  0.4811 -1.2488
  386MOL0     C53143   0.595   6.803   9.314 -0.0308  0.0009 -0.7299
  386MOL0     C53144   0.535   6.849   9.443 -0.0490 -0.6957  0.4266
  386MOL0     C53145   0.587   6.987   9.488 -0.2405  0.4578  0.4448
  386MOL0     C53146   0.572   7.099   9.384 -0.6243 -0.6670 -0.2383
  386MOL0     N53147   0.636   7.229   9.411  0.2133  0.2760 -0.3639
  386MOL0     C53148   0.722   7.295   9.325  0.5584  0.1369 -0.5471
  386MOL0     C53149   0.718   7.417   9.340  0.9321  0.0664  0.0102
  386MOL0     C53150   0.782   7.530   9.264  0.0473 -0.4234  0.2779
  386MOL0     C53151   0.719   7.566   9.129  0.7287 -0.2305 -0.3071
  386MOL0     C53152   0.606   7.668   9.150 -0.5915  0.3874 -0.4066
  386MOL0     C53153   0.514   7.703   9.033 -0.3510 -0.6618  0.3102
  386MOL0     O53154   0.491   7.584   8.951 -1.0485 -0.2009 -0.5829
  386MOL0     C53155   0.402   7.587   8.846  0.8916  0.6614 -0.7108
  386MOL0     C53156   0.406   7.485   8.747  0.0912  0.3452  0.6754
  386MOL0     C53157   0.345   7.498   8.621  0.7036  0.0620 -1.2851
  386MOL0     C53158   0.369   7.391   8.526 -0.0872 -0.4774  0.1133
  386MOL0     C53159   0.257   7.608   8.587  0.3215 -0.6034  0.0866
  386MOL0     C53160   0.188   7.630   8.455  1.0370 -0.7193  0.0409
  386MOL0     O53161   0.084   7.718   8.451  0.2558  0.1558 -1.2772
  386MOL0     C53162   0.053   7.769   8.325 -0.0561 -0.4046  0.5464
  386MOL0     C53163   0.054   7.914   8.301 -0.4327 -0.1345  0.6066
  386MOL0     C53164   0.011   7.969   8.179  0.0444 -0.6560  0.5679
  386MOL0     C53165  -0.036   7.881   8.081 -0.0590 -0.0624  0.3146
  386MOL0     O53166  -0.083   7.925   7.956  0.5629 -0.0578  0.3766
  386MOL0     C53167  -0.154   8.052   7.964  0.5413 -0.0814 -0.6713
  386MOL0     C53168  -0.221   8.076   7.826  0.6705 -0.5231  0.4913
  386MOL0     C53169  -0.329   8.188   7.818 -0.4109  0.3087 -0.6601
  386MOL0     C53170  -0.279   8.327   7.782 -0.4900  1.0941  0.1522
  386MOL0     C53171  -0.247   8.342   7.635  0.1268 -0.1066 -0.7635
  386MOL0     C53172  -0.193   8.480   7.601  0.1291 -1.3018  0.3501
  386MOL0     C53173  -0.254   8.532   7.473  0.7541  0.1684 -0.0334
  386MOL0     C53174  -0.188   8.658   7.424 -0.1069 -0.4540  0.0163
  386MOL0    Cl53175  -0.235   8.788   7.537  0.1482  0.1242  0.4000
  386MOL0     C53176  -0.040   7.744   8.101  0.4352 -1.8169  0.3583
  386MOL0     C53177   0.007   7.690   8.219 -0.3385 -0.7786 -0.9270
  386MOL0     O53178   0.217   7.552   8.360  0.4954 -0.8063 -0.1364
  386MOL0     C53179   0.240   7.697   8.695 -0.1562 -0.4361 -0.2904
  386MOL0     C53180   0.311   7.684   8.820  0.2185  0.7922  0.0755
  386MOL0     N53181   0.618   7.429   9.437  0.8316 -0.0654  0.8441
  386MOL0     N53182   0.576   7.322   9.486  0.2386 -0.0263  0.8586
  386MOL0     C53183   0.782   6.075   9.485  1.0611 -0.3262  0.7529
  386MOL0     C53184   0.832   5.963   9.551 -0.2864  0.0451  0.6423
  386MOL0     C53185   0.937   5.681   9.891  0.8177  0.5081 -0.0031
  386MOL0     C53186   1.057   5.633   9.838  0.0756 -0.7023 -0.3878
  386MOL0     C53187   1.124   5.523   9.900 -0.5735  0.2902  0.6205
  386MOL0     C53188   1.079   5.465  10.016 -0.1983  0.5100 -0.5296
  386MOL0     O53189   1.134   5.356  10.077  0.3099 -0.0384  0.9054
  386MOL0     C53190   1.255   5.295  10.028 -0.2154 -0.4667 -0.2988
  386MOL0     C53191   1.282   5.174  10.095  0.1153  0.4360  0.3622
  386MOL0     C53192   1.157   5.085  10.073 -0.1220 -0.1292  0.3465
  386MOL0     C53193   1.118   5.011  10.207 -0.2244 -0.4208  0.8137
  386MOL0     C53194   1.034   4.902  10.179  0.3172 -0.0203 -0.0969
  386MOL0     C53195   0.973   4.802  10.157 -0.2965  0.3143 -0.1938
  386MOL0     C53196   0.968   5.513  10.079 -0.2185  0.0413 -0.1298
  386MOL0     C53197   0.892   5.622  10.016  0.7304 -0.1141  0.2833
  386MOL0     C53198   0.763   5.667  10.092 -0.8744  0.8480 -0.2326
  386MOL0     H53199   0.967   6.113   9.822  0.5182  1.1495 -0.0643
  386MOL0     H53200   0.890   6.300   9.711  0.5383 -0.6240  0.5633
  386MOL0     H53201   0.871   6.454   9.553 -0.7595 -0.3396  1.0799
  386MOL0     H53202   0.702   6.464   9.576  1.3613 -2.2855  0.7821
  386MOL0     H53203   0.828   6.523   9.306  1.4675  2.6290  0.7536
  386MOL0     H53204   0.652   6.527   9.346  0.8815  1.8451 -3.2184
  386MOL0     H53205   0.745   6.709   9.530 -0.7280 -0.0091 -0.7546
  386MOL0     H53206   0.895   6.698   9.452 -0.0665  3.1010  0.4667
  386MOL0     H53207   0.804   6.875   9.351 -1.7569  1.1346  0.5450
  386MOL0     H53208   0.790   6.734   9.237  1.9185 -3.5221  1.6466
  386MOL0     H53209   0.553   6.702   9.304  0.2017 -0.3632  1.5069
  386MOL0     H53210   0.571   6.861   9.225 -2.3337  0.1008 -0.0979
  386MOL0     H53211   0.426   6.849   9.431 -0.4787  5.1364  1.4704
  386MOL0     H53212   0.556   6.776   9.522  0.8153  0.1877  1.0281
  386MOL0     H53213   0.695   6.979   9.501 -0.3869 -0.0322  1.4964
  386MOL0     H53214   0.549   7.015   9.587 -1.0470 -0.6727  0.4815
  386MOL0     H53215   0.608   7.066   9.286  1.3008 -0.3041  0.3032
  386MOL0     H53216   0.465   7.118   9.385 -0.1704  2.9295  2.6198
  386MOL0     H53217   0.769   7.236   9.247 -0.7478 -2.5316  0.5537
  386MOL0     H53218   0.890   7.517   9.249  0.1313  2.1000 -2.0871
  386MOL0     H53219   0.778   7.626   9.316  0.9592  0.6599 -1.5270
  386MOL0     H53220   0.786   7.622   9.063  0.8585  0.0243  0.0386
  386MOL0     H53221   0.681   7.478   9.076  0.1627 -0.0810 -0.1553
  386MOL0     H53222   0.549   7.640   9.239  1.1702  2.4464  1.5128
  386MOL0     H53223   0.663   7.756   9.179 -1.0096  1.1124 -1.7222
  386MOL0     H53224   0.418   7.733   9.075  0.4269  0.1719  1.5584
  386MOL0     H53225   0.559   7.792   8.989  0.8080  0.0569  2.7443
  386MOL0     H53226   0.476   7.408   8.777  0.8425  0.5297 -0.5432
  386MOL0     H53227   0.430   7.315   8.575  1.9068  1.5272  0.8816
  386MOL0     H53228   0.415   7.421   8.431 -1.2914 -0.0507 -0.3703
  386MOL0     H53229   0.271   7.348   8.504 -0.2876 -1.1138  2.0630
  386MOL0     H53230   0.088   7.979   8.382  1.1239 -1.3107  0.9372
  386MOL0     H53231   0.016   8.078   8.171  0.3026 -0.5401  2.0207
  386MOL0     H53232  -0.228   8.049   8.045  1.5646 -0.4360  0.2671
  386MOL0     H53233  -0.088   8.135   7.992 -2.4573  2.1213  0.4640
  386MOL0     H53234  -0.141   8.100   7.755  0.0516  1.1110  0.2871
  386MOL0     H53235  -0.267   7.987   7.782  0.0521  1.2132 -2.7078
  386MOL0     H53236  -0.387   8.191   7.911  1.2754 -1.4240  0.5425
  386MOL0     H53237  -0.396   8.149   7.741  0.6542 -0.0216 -1.4339
  386MOL0     H53238  -0.188   8.343   7.840 -0.1224 -0.4078  0.0304
  386MOL0     H53239  -0.356   8.400   7.808 -0.0438  1.8566 -0.6246
  386MOL0     H53240  -0.178   8.262   7.609 -0.5108 -1.8235  2.3511
  386MOL0     H53241  -0.330   8.327   7.565  0.7024 -0.3981 -1.3845
  386MOL0     H53242  -0.086   8.479   7.578  0.2010  0.2382  0.5106
  386MOL0     H53243  -0.211   8.550   7.684  0.8580 -0.7479  0.0549
  386MOL0     H53244  -0.361   8.557   7.478  0.4740 -0.9972  0.0811
  386MOL0     H53245  -0.243   8.458   7.393  0.3483 -0.4048  0.4304
  386MOL0     H53246  -0.227   8.671   7.323  1.4949 -1.6685 -0.7993
  386MOL0     H53247  -0.079   8.650   7.413  0.2012  1.7213  0.9494
  386MOL0     H53248  -0.070   7.674   8.024 -2.3189 -0.2536 -0.1260
  386MOL0     H53249   0.004   7.583   8.238 -1.7727 -0.3378  1.7527
  386MOL0     H53250   0.162   7.773   8.689 -1.5396 -1.6268  1.5758
  386MOL0     H53251   0.293   7.766   8.888  0.0863  1.4929 -0.7883
  386MOL0     H53252   0.722   6.066   9.394  1.1051  2.0847  0.4260
  386MOL0     H53253   0.829   5.858   9.526  1.1515 -0.9843  4.1878
  386MOL0     H53254   1.096   5.678   9.748  0.0519 -0.3626 -0.2310
  386MOL0     H53255   1.208   5.482   9.844  0.1570  0.9372  1.2145
  386MOL0     H53256   1.258   5.273   9.921 -0.3494 -2.0835  0.0085
  386MOL0     H53257   1.334   5.370  10.042 -1.4147  0.5440  1.5654
  386MOL0     H53258   1.308   5.188  10.200 -1.8123 -0.4269  0.9930
  386MOL0     H53259   1.373   5.132  10.051  0.1609  3.2903 -2.6279
  386MOL0     H53260   1.068   5.128  10.028 -0.3509  0.0986  1.0021
  386MOL0     H53261   1.179   5.014   9.993 -3.5572 -0.6139 -0.3346
  386MOL0     H53262   1.067   5.072  10.281 -0.5809 -0.6146  0.7290
  386MOL0     H53263   1.210   4.973  10.253  0.5660  0.6991  0.2229
  386MOL0     H53264   0.928   4.705  10.160 -0.1053  0.2601  1.3302
  386MOL0     H53265   0.931   5.469  10.172  1.2888  0.3285  0.6370
  386MOL0     H53266   0.679   5.676  10.024 -0.6134  0.8295 -0.5585
  386MOL0     H53267   0.732   5.595  10.168 -2.1259 -0.9493 -2.3377
  386MOL0     H53268   0.787   5.758  10.148  0.0975 -0.1760  1.1029
  387MOL0     O53269   6.864   9.364   3.831 -0.1052 -0.5760 -0.0437
  387MOL0     C53270   6.858   9.351   3.957  0.0174 -0.1564 -0.3532
  387MOL0     O53271   6.907   9.444   4.053  0.2204  0.6584  0.1481
  387MOL0     C53272   6.954   9.568   4.012  0.1740  0.2333  0.6917
  387MOL0     C53273   6.895   9.657   3.913  0.2633  0.8519 -0.0436
  387MOL0     C53274   6.964   9.772   3.875 -0.6219 -0.5913 -0.1778
  387MOL0     C53275   7.087   9.802   3.926  0.3605  0.0546  0.4044
  387MOL0     O53276   7.150   9.915   3.880  0.3117 -0.5407  0.0697
  387MOL0     C53277   7.213  10.007   3.964  0.4899  0.2548 -0.3128
  387MOL0     C53278   7.292  10.096   3.873  0.1995  0.0720 -0.5622
  387MOL0     C53279   7.401  10.026   3.794  0.7771 -0.5318  0.0702
  387MOL0     C53280   7.494  10.118   3.713 -0.0841 -0.0692  0.0712
  387MOL0     C53281   7.607  10.040   3.634 -0.3842 -0.8186  0.0936
  387MOL0     C53282   7.730  10.003   3.726  0.3370  1.0689  0.1816
  387MOL0     C53283   7.828   9.928   3.634 -0.6321  0.3548 -0.3182
  387MOL0     C53284   7.964   9.892   3.708 -0.2338 -1.3856 -0.5203
  387MOL0     N53285   8.056   9.841   3.612 -0.3826 -0.5676  0.2126
  387MOL0     C53286   8.151   9.916   3.549  0.0113  0.5434  0.7146
  387MOL0     C53287   8.244   9.829   3.504 -0.6772  0.9214 -0.1169
  387MOL0     C53288   8.370   9.857   3.445 -0.5977  0.7253 -0.2748
  387MOL0     C53289   8.399   9.774   3.319 -0.0197 -0.2945  0.5698
  387MOL0     C53290   8.297   9.798   3.214 -0.2222  0.2900 -0.0668
  387MOL0     C53291   8.302   9.926   3.131 -0.2700 -0.0770 -0.5026
  387MOL0     O53292   8.438   9.951   3.084  0.3092  0.3149 -0.2878
  387MOL0     C53293   8.478  10.078   3.045 -0.4620 -0.1453  0.1216
  387MOL0     C53294   8.612  10.098   3.019 -0.2204  0.6306 -0.0718
  387MOL0     C53295   8.664  10.215   2.973 -0.1912  0.0342  0.2058
  387MOL0     C53296   8.809  10.222   2.928  0.1374  0.3956 -0.3701
  387MOL0     C53297   8.580  10.331   2.977  0.0796  0.7136 -0.1374
  387MOL0     C53298   8.625  10.465   2.928 -1.1075 -1.3509 -0.0517
  387MOL0     O53299   8.735  10.508   2.988  1.0429  0.4557  0.1757
  387MOL0     C53300   8.795  10.623   2.945 -0.3357  0.0309 -0.1689
  387MOL0     C53301   8.934  10.616   2.975  0.2860 -0.1047  0.7007
  387MOL0     C53302   9.011  10.727   2.941 -0.4973 -0.2071 -0.2313
  387MOL0     C53303   8.959  10.841   2.886 -0.0232 -0.0482 -0.0411
  387MOL0     O53304   9.050  10.945   2.882 -0.0590 -0.2644  0.4993
  387MOL0     C53305   9.031  11.054   2.793  0.3791 -0.7694 -0.4036
  387MOL0     C53306   9.148  11.141   2.762  0.1964 -0.7513  0.2387
  387MOL0     C53307   9.255  11.178   2.859  0.3492 -0.1596  0.0013
  387MOL0     C53308   9.317  11.318   2.834 -0.4455  0.5316 -0.1671
  387MOL0     C53309   9.415  11.363   2.945 -0.3843  0.1342 -0.1167
  387MOL0     C53310   9.468  11.499   2.921 -0.6008 -0.3953  0.3860
  387MOL0     C53311   9.555  11.529   3.042 -0.1478  0.1969 -0.0296
  387MOL0     C53312   9.592  11.677   3.046 -0.1353 -0.4065  0.3539
  387MOL0    Cl53313   9.698  11.736   2.924  0.3402 -0.0882 -0.0530
  387MOL0     C53314   8.820  10.847   2.857 -0.5309  0.0571 -0.0137
  387MOL0     C53315   8.739  10.741   2.887  0.0658 -0.0328 -1.1816
  387MOL0     O53316   8.557  10.523   2.846 -0.5802 -0.5136 -0.1143
  387MOL0     C53317   8.445  10.307   2.995 -0.3077  0.0793  0.2916
  387MOL0     C53318   8.390  10.184   3.034  0.6089 -0.0074  0.2206
  387MOL0     N53319   8.207   9.701   3.544  0.5637 -0.2940 -0.0532
  387MOL0     N53320   8.088   9.706   3.595  0.8725 -0.4008 -0.5175
  387MOL0     C53321   7.140   9.720   4.034 -0.3813 -1.2612  0.1970
  387MOL0     C53322   7.078   9.600   4.064  0.6964 -0.3458 -0.0678
  387MOL0     C53323   6.781   9.227   4.002  0.0712  0.7331  0.1031
  387MOL0     C53324   6.793   9.187   4.141  0.4581 -0.9094 -0.4381
  387MOL0     C53325   6.703   9.097   4.185  0.3134  0.4401  0.0065
  387MOL0     C53326   6.615   9.017   4.107 -0.5435 -0.1879  0.1076
  387MOL0     O53327   6.523   8.926   4.146 -0.1860  0.1180 -0.5662
  387MOL0     C53328   6.519   8.890   4.283 -1.4200  0.5571  0.2052
  387MOL0     C53329   6.441   8.764   4.299 -0.6533  0.3975  0.0292
  387MOL0     C53330   6.476   8.659   4.201 -0.2632 -0.0194 -0.1440
  387MOL0     C53331   6.406   8.524   4.222  0.3153  0.1925  0.8408
  387MOL0     C53332   6.261   8.539   4.241 -0.0321  0.3914  0.0991
  387MOL0     C53333   6.138   8.562   4.245 -0.2460 -0.3623 -0.0282
  387MOL0     C53334   6.615   9.041   3.969  0.3906 -0.6380  0.0568
  387MOL0     C53335   6.691   9.147   3.918  0.4237  0.1729  1.0570
  387MOL0     C53336   6.689   9.160   3.771  0.7759 -0.4121  0.2541
  387MOL0     H53337   6.801   9.635   3.863 -1.7560  1.2763  3.2752
  387MOL0     H53338   6.926   9.852   3.813 -0.9935 -0.3359  0.3697
  387MOL0     H53339   7.277   9.954   4.035  0.5339  1.3969  0.5226
  387MOL0     H53340   7.142  10.068   4.022  0.7992  0.3433 -0.0239
  387MOL0     H53341   7.231  10.161   3.810 -0.9009  1.5357  1.8636
  387MOL0     H53342   7.347  10.173   3.929  1.4091 -1.2741  0.1660
  387MOL0     H53343   7.447   9.960   3.867 -1.7646  1.4578  3.8238
  387MOL0     H53344   7.348   9.966   3.719  0.0833 -1.9218  1.6106
  387MOL0     H53345   7.425  10.170   3.646  0.9783  2.7375  1.0081
  387MOL0     H53346   7.548  10.192   3.773  2.8985 -1.1582 -1.0765
  387MOL0     H53347   7.636  10.116   3.561 -2.3554 -0.3165 -0.2329
  387MOL0     H53348   7.561   9.950   3.591 -1.6472 -1.1562  2.0374
  387MOL0     H53349   7.784  10.087   3.768 -0.3851  1.3887  0.4824
  387MOL0     H53350   7.696   9.938   3.807  2.8310 -3.2173 -1.7867
  387MOL0     H53351   7.853   9.991   3.548 -0.0437 -1.4438 -1.5221
  387MOL0     H53352   7.774   9.841   3.596  0.2660 -0.3363 -0.0483
  387MOL0     H53353   8.003   9.985   3.750 -3.6275 -0.5759  1.3041
  387MOL0     H53354   7.943   9.823   3.790 -2.5703  0.5568  0.6576
  387MOL0     H53355   8.151  10.024   3.533 -2.4833  0.4692 -0.1129
  387MOL0     H53356   8.444   9.821   3.518 -0.9327  0.3737 -0.1053
  387MOL0     H53357   8.397   9.960   3.417  1.0810  0.3137 -0.2934
  387MOL0     H53358   8.501   9.789   3.281  0.6145 -3.5103  0.7281
  387MOL0     H53359   8.409   9.666   3.335 -0.5570 -0.6846 -1.4428
  387MOL0     H53360   8.323   9.719   3.143 -1.7205  0.9900 -1.4618
  387MOL0     H53361   8.192   9.787   3.242 -0.7778  0.8291 -1.8128
  387MOL0     H53362   8.227   9.922   3.052 -1.6062  2.0899  0.5494
  387MOL0     H53363   8.269  10.005   3.200 -3.8167 -0.9720 -0.9894
  387MOL0     H53364   8.685  10.018   3.017 -1.9856 -1.0302  0.1329
  387MOL0     H53365   8.874  10.236   3.015  0.3710 -1.7044 -0.1650
  387MOL0     H53366   8.824  10.308   2.861  0.2053  0.5491 -0.1583
  387MOL0     H53367   8.833  10.128   2.879 -1.5242 -2.6764  4.0893
  387MOL0     H53368   8.978  10.529   3.023 -1.0075  0.3887  2.9349
  387MOL0     H53369   9.117  10.729   2.963 -0.2866  0.2756 -1.2272
  387MOL0     H53370   8.992  11.032   2.693 -1.6283  2.2434 -0.4328
  387MOL0     H53371   8.952  11.118   2.835  0.4735 -0.4668 -0.6762
  387MOL0     H53372   9.183  11.091   2.672  0.0088 -1.0087  0.3100
  387MOL0     H53373   9.111  11.237   2.723  0.3401 -0.3287  1.1154
  387MOL0     H53374   9.327  11.096   2.870 -0.4230 -1.3244 -2.6508
  387MOL0     H53375   9.218  11.185   2.961 -1.1433  2.0267 -0.6092
  387MOL0     H53376   9.232  11.387   2.830 -1.2928 -0.5164 -3.9115
  387MOL0     H53377   9.362  11.331   2.735  1.5451  2.0173  0.8623
  387MOL0     H53378   9.357  11.366   3.038  0.0247  1.7965  0.1231
  387MOL0     H53379   9.491  11.284   2.947 -1.0323 -0.4836  0.4865
  387MOL0     H53380   9.394  11.578   2.908  0.4916  0.8172  1.2140
  387MOL0     H53381   9.533  11.507   2.833 -2.2570  3.5563 -0.6607
  387MOL0     H53382   9.644  11.466   3.036 -0.4037 -0.0449 -2.5991
  387MOL0     H53383   9.490  11.514   3.129  0.7688 -2.1024  0.3370
  387MOL0     H53384   9.631  11.701   3.145 -2.0737  1.9240  0.6494
  387MOL0     H53385   9.501  11.737   3.037 -1.0030 -1.8476 -0.7498
  387MOL0     H53386   8.772  10.930   2.807 -0.4496  0.4596  0.5658
  387MOL0     H53387   8.633  10.751   2.866 -0.8981 -2.0395  1.9976
  387MOL0     H53388   8.383  10.394   2.978  0.3402  0.7908  1.5088
  387MOL0     H53389   8.283  10.172   3.047  0.0318  2.6798 -1.4149
  387MOL0     H53390   7.234   9.734   4.086  0.1466 -0.1913 -0.9902
  387MOL0     H53391   7.133   9.534   4.131  0.6387 -1.5940 -1.2199
  387MOL0     H53392   6.850   9.250   4.210 -1.8672  1.4774 -0.5306
  387MOL0     H53393   6.690   9.088   4.292  0.0539  0.0331 -0.0551
  387MOL0     H53394   6.620   8.876   4.324 -2.8448 -1.3689  3.4522
  387MOL0     H53395   6.483   8.969   4.350 -0.1339  2.2673 -1.0093
  387MOL0     H53396   6.338   8.793   4.278 -1.0481  0.7693  2.2707
  387MOL0     H53397   6.449   8.728   4.402 -2.4027  0.3793  0.1814
  387MOL0     H53398   6.455   8.696   4.101  1.0236  0.4986 -0.2445
  387MOL0     H53399   6.580   8.626   4.203 -0.4704 -0.9556 -2.1716
  387MOL0     H53400   6.463   8.480   4.304  3.2281 -0.1090 -1.1804
  387MOL0     H53401   6.428   8.462   4.134  1.4722  0.7397  0.7252
  387MOL0     H53402   6.034   8.586   4.231 -0.0347 -0.0160 -1.1635
  387MOL0     H53403   6.566   8.970   3.902  1.0959  0.2810 -1.4885
  387MOL0     H53404   6.616   9.092   3.726  1.7668 -0.6452 -1.0686
  387MOL0     H53405   6.662   9.263   3.747  1.2663  0.4476  3.0198
  387MOL0     H53406   6.781   9.131   3.719  0.5784 -1.9408  0.7104
  388MOL0     O53407   3.039   5.855   3.224 -0.7529 -0.6418  0.0424
  388MOL0     C53408   3.093   5.961   3.242 -0.2343 -0.5774 -0.4212
  388MOL0     O53409   3.228   5.975   3.268 -0.3650  0.2307  0.6400
  388MOL0     C53410   3.316   5.864   3.256 -0.8743 -0.2301 -0.3248
  388MOL0     C53411   3.317   5.773   3.147 -0.4795 -0.0606  0.2142
  388MOL0     C53412   3.422   5.688   3.125 -0.2842  0.3323  0.1375
  388MOL0     C53413   3.526   5.681   3.225  0.8738 -0.1134  0.2582
  388MOL0     O53414   3.644   5.620   3.200  0.0011  0.8279  0.1707
  388MOL0     C53415   3.686   5.574   3.070  0.0008  0.0354 -0.6105
  388MOL0     C53416   3.814   5.513   3.080  0.1801  0.3761 -0.0106
  388MOL0     C53417   3.931   5.587   3.117  1.3116  0.3372 -0.2313
  388MOL0     C53418   4.062   5.508   3.101 -0.3048 -0.1884  0.3857
  388MOL0     C53419   4.177   5.562   3.185  0.0859  0.9187  1.2052
  388MOL0     C53420   4.210   5.710   3.167  0.6536  0.4333 -0.1661
  388MOL0     C53421   4.298   5.756   3.285  0.6010  0.8332 -0.5098
  388MOL0     C53422   4.431   5.686   3.292 -0.4387  0.8285 -0.1020
  388MOL0     N53423   4.496   5.681   3.161  0.6694 -0.5671 -0.3425
  388MOL0     C53424   4.556   5.792   3.104 -0.9246  0.0343 -0.3279
  388MOL0     C53425   4.621   5.734   2.993 -0.1547  0.2590 -0.9855
  388MOL0     C53426   4.704   5.813   2.894  0.3831 -0.3082  0.5716
  388MOL0     C53427   4.621   5.908   2.809  0.2275  0.6646 -0.0090
  388MOL0     C53428   4.614   6.059   2.848 -0.1106 -0.3758  0.0796
  388MOL0     C53429   4.471   6.117   2.834  0.4667  0.1572 -1.0360
  388MOL0     O53430   4.369   6.029   2.880 -0.0793  0.3243  0.2165
  388MOL0     C53431   4.238   6.038   2.845  0.4849 -0.3903 -0.2422
  388MOL0     C53432   4.177   6.168   2.825 -0.7636  0.9739  0.6962
  388MOL0     C53433   4.043   6.190   2.812  0.3167  1.4376  1.0188
  388MOL0     C53434   3.999   6.333   2.803  0.1433 -0.4773 -0.7523
  388MOL0     C53435   3.952   6.078   2.808  0.7571  0.3829  0.0705
  388MOL0     C53436   3.802   6.094   2.808 -0.3970 -0.0360  0.5944
  388MOL0     O53437   3.726   5.975   2.833 -0.3198 -0.1001 -0.2854
  388MOL0     C53438   3.593   5.982   2.816 -0.5805 -0.3677  0.2511
  388MOL0     C53439   3.543   5.965   2.681  0.7382 -1.0798  0.1955
  388MOL0     C53440   3.410   5.966   2.665 -0.0546 -0.3213 -0.4002
  388MOL0     C53441   3.321   5.990   2.777 -0.0031  0.0940 -0.0447
  388MOL0     O53442   3.181   5.999   2.753 -0.9756 -0.4318 -0.1585
  388MOL0     C53443   3.087   6.029   2.857 -0.6320 -0.0817 -0.4757
  388MOL0     C53444   2.940   6.004   2.813 -0.9999  0.2926 -0.0114
  388MOL0     C53445   2.835   5.983   2.921 -0.1457 -0.9286 -0.2004
  388MOL0     C53446   2.717   5.921   2.868 -0.9582  0.1019  0.0900
  388MOL0     C53447   2.623   5.879   2.976  0.3968 -0.8833 -0.1076
  388MOL0     C53448   2.555   6.003   3.044  0.5938 -0.2458 -0.3355
  388MOL0     C53449   2.421   5.971   3.120  0.2762 -0.0040 -0.3972
  388MOL0     C53450   2.348   6.095   3.164  0.5689 -0.5045  0.4800
  388MOL0    Cl53451   2.389   6.161   3.329 -1.0069 -0.1516  0.2723
  388MOL0     C53452   3.373   6.005   2.901 -0.1131 -0.2696 -0.1045
  388MOL0     C53453   3.512   6.002   2.922 -0.0523 -0.0114 -0.4812
  388MOL0     O53454   3.749   6.199   2.769  0.2474 -0.5040  0.1534
  388MOL0     C53455   4.013   5.946   2.820  0.3089  0.3206  0.4745
  388MOL0     C53456   4.152   5.924   2.838 -0.3368 -0.0540  0.3420
  388MOL0     N53457   4.607   5.597   2.995  0.3532 -0.2346  0.1156
  388MOL0     N53458   4.529   5.569   3.098  0.5102  0.3273  0.5993
  388MOL0     C53459   3.516   5.760   3.349 -0.8256  0.0403  0.8109
  388MOL0     C53460   3.411   5.853   3.356  0.3540  0.9205 -0.0784
  388MOL0     C53461   3.007   6.086   3.252 -0.7988 -0.1149 -0.7285
  388MOL0     C53462   3.060   6.209   3.212  0.1852  0.0392 -0.0081
  388MOL0     C53463   2.985   6.329   3.212 -0.2201  0.2404 -0.2409
  388MOL0     C53464   2.855   6.334   3.256 -0.3858  0.8575 -0.4738
  388MOL0     O53465   2.783   6.445   3.255  0.4877  0.1526  0.1853
  388MOL0     C53466   2.661   6.461   3.331 -0.5503  0.0595 -0.1179
  388MOL0     C53467   2.627   6.618   3.332 -0.3224  0.3565 -0.3246
  388MOL0     C53468   2.711   6.688   3.435 -0.1799  0.0247 -0.9164
  388MOL0     C53469   2.688   6.832   3.412 -0.5905  0.1128 -0.4797
  388MOL0     C53470   2.770   6.906   3.505 -0.1672 -0.4989 -0.1375
  388MOL0     C53471   2.845   6.964   3.580 -0.2795 -0.6131 -0.3239
  388MOL0     C53472   2.801   6.206   3.300  0.9927 -0.8529 -0.3038
  388MOL0     C53473   2.874   6.091   3.301 -0.5852  0.0380 -0.2807
  388MOL0     C53474   2.803   5.966   3.343 -0.2622  0.3137 -0.5959
  388MOL0     H53475   3.251   5.808   3.069  1.3745  0.5223 -1.1907
  388MOL0     H53476   3.427   5.640   3.028 -3.5662  0.1627 -0.0473
  388MOL0     H53477   3.688   5.658   3.001 -3.7088  1.3620  0.6933
  388MOL0     H53478   3.625   5.492   3.030 -0.6892  1.1947 -1.9937
  388MOL0     H53479   3.822   5.430   3.151 -1.0831  1.1720  1.1238
  388MOL0     H53480   3.830   5.478   2.978  3.7108  1.7494 -0.0633
  388MOL0     H53481   3.921   5.666   3.043 -0.9079 -0.4227 -0.8204
  388MOL0     H53482   3.910   5.612   3.221 -2.6188 -0.3644 -0.7244
  388MOL0     H53483   4.053   5.400   3.117  0.3203  0.0488  2.8229
  388MOL0     H53484   4.098   5.537   3.002  1.7520  0.8021  1.3497
  388MOL0     H53485   4.268   5.503   3.176  1.8997  3.5363  1.3975
  388MOL0     H53486   4.159   5.568   3.293 -0.0452 -0.5133  1.2775
  388MOL0     H53487   4.266   5.723   3.074  3.0354  0.5063  1.1829
  388MOL0     H53488   4.121   5.774   3.160  0.1615 -0.4359 -3.9192
  388MOL0     H53489   4.233   5.753   3.373  0.9810  2.0466 -0.1707
  388MOL0     H53490   4.324   5.862   3.276 -2.2392  1.9195  2.3166
  388MOL0     H53491   4.497   5.734   3.364  1.6448 -1.7315 -0.1656
  388MOL0     H53492   4.415   5.586   3.333  1.9581  1.2279  2.0261
  388MOL0     H53493   4.553   5.898   3.125 -0.5271 -0.1070  0.4918
  388MOL0     H53494   4.760   5.741   2.834  0.8859  0.2700  0.3329
  388MOL0     H53495   4.773   5.882   2.943  0.0070  3.1837 -3.2232
  388MOL0     H53496   4.671   5.900   2.713  1.3326 -0.7287  0.6482
  388MOL0     H53497   4.519   5.869   2.809  1.3526 -2.7251  2.0273
  388MOL0     H53498   4.637   6.071   2.954 -1.0772  0.2449  0.2275
  388MOL0     H53499   4.693   6.117   2.801 -0.5399  1.1867  1.2183
  388MOL0     H53500   4.467   6.204   2.900  1.6016  0.2234 -1.0410
  388MOL0     H53501   4.458   6.148   2.730  0.8122 -2.1198 -1.7920
  388MOL0     H53502   4.244   6.250   2.851  0.3019 -0.2355  1.9327
  388MOL0     H53503   3.909   6.354   2.862  0.0631  0.3613 -1.1575
  388MOL0     H53504   3.994   6.370   2.700  0.2909  1.4204 -0.1280
  388MOL0     H53505   4.070   6.391   2.862  1.3397 -1.6377 -1.0159
  388MOL0     H53506   3.612   5.947   2.599  1.3729 -3.7389  1.1937
  388MOL0     H53507   3.384   5.968   2.560  3.2661  0.9246 -1.3256
  388MOL0     H53508   3.102   5.964   2.943 -0.6558  1.9397  1.1312
  388MOL0     H53509   3.109   6.134   2.878  4.3574 -1.5325  3.7724
  388MOL0     H53510   2.913   6.085   2.744  0.9250  1.5144  0.5677
  388MOL0     H53511   2.947   5.918   2.746 -0.1072 -0.0029  0.4336
  388MOL0     H53512   2.815   6.086   2.951  0.7409 -0.9362  0.4631
  388MOL0     H53513   2.869   5.931   3.011 -0.8386 -0.6366  0.2360
  388MOL0     H53514   2.753   5.836   2.809 -1.0531  0.6016 -0.7075
  388MOL0     H53515   2.663   5.982   2.795  0.0424  1.7960  0.7280
  388MOL0     H53516   2.549   5.812   2.934 -2.4366  1.2152  1.1927
  388MOL0     H53517   2.668   5.818   3.055  2.5904  0.8641  0.1199
  388MOL0     H53518   2.538   6.077   2.965  2.1861  2.1424  1.4337
  388MOL0     H53519   2.619   6.054   3.117 -1.0227  1.0490  0.2498
  388MOL0     H53520   2.441   5.911   3.210  0.8183  1.3100  0.3957
  388MOL0     H53521   2.356   5.910   3.058 -1.5629  0.9759  0.5057
  388MOL0     H53522   2.247   6.055   3.168  0.2424  0.2970  0.3210
  388MOL0     H53523   2.352   6.170   3.085  1.1228 -1.6154 -0.5864
  388MOL0     H53524   3.298   6.039   2.972 -0.3712  3.5312 -1.9840
  388MOL0     H53525   3.562   6.022   3.017  0.1107 -2.0346 -0.1060
  388MOL0     H53526   3.948   5.859   2.822 -0.3115  0.7405 -0.5883
  388MOL0     H53527   4.196   5.826   2.854 -0.6886 -0.4961 -1.1760
  388MOL0     H53528   3.596   5.746   3.421  1.7792  2.3898 -1.4206
  388MOL0     H53529   3.400   5.920   3.441  4.6706  1.1436  0.5110
  388MOL0     H53530   3.164   6.219   3.183  0.2380 -0.5372 -0.0185
  388MOL0     H53531   3.022   6.423   3.173  1.9513 -0.7217 -0.6189
  388MOL0     H53532   2.581   6.408   3.279  1.0453 -0.8481 -1.7681
  388MOL0     H53533   2.678   6.430   3.434  0.1629 -0.4182 -0.3758
  388MOL0     H53534   2.526   6.628   3.372 -0.3937 -4.0228  1.0539
  388MOL0     H53535   2.648   6.651   3.229  0.8498  0.0658 -0.1912
  388MOL0     H53536   2.683   6.655   3.535  0.7466  4.6326  1.1014
  388MOL0     H53537   2.814   6.654   3.428 -1.0290 -2.6520 -1.7036
  388MOL0     H53538   2.582   6.861   3.413 -1.1451 -1.7370  1.3846
  388MOL0     H53539   2.727   6.854   3.312 -1.2357 -0.4937 -0.8718
  388MOL0     H53540   2.922   7.007   3.641 -0.4849  0.0040 -0.4914
  388MOL0     H53541   2.701   6.191   3.341  1.9916 -3.4827  1.3851
  388MOL0     H53542   2.855   5.915   3.425 -5.4039  0.5109  3.2725
  388MOL0     H53543   2.706   5.988   3.388 -0.0468 -0.1270  0.1007
  388MOL0     H53544   2.792   5.894   3.261 -2.0127 -1.7305  1.2751
  389MOL0     O53545   3.358   2.679   4.981 -0.3470 -0.0299 -0.5464
  389MOL0     C53546   3.313   2.566   5.009  0.8267  0.9936  0.1109
  389MOL0     O53547   3.378   2.448   5.010  1.0616 -0.0176  0.0740
  389MOL0     C53548   3.509   2.436   4.993  0.0385  0.4142 -0.3252
  389MOL0     C53549   3.578   2.365   5.091 -1.2288  0.6505 -0.1546
  389MOL0     C53550   3.718   2.340   5.083  0.0010  0.0215  0.1066
  389MOL0     C53551   3.786   2.393   4.978 -0.3580  0.3097 -0.6961
  389MOL0     O53552   3.922   2.369   4.980 -1.0857 -0.1158  0.4256
  389MOL0     C53553   3.994   2.331   4.859 -0.0836  0.4670 -0.2755
  389MOL0     C53554   4.077   2.204   4.893 -0.0685  0.2508 -0.6613
  389MOL0     C53555   3.994   2.102   4.977 -1.0074  0.0387 -0.7224
  389MOL0     C53556   3.885   2.031   4.896 -0.1205 -1.0861  0.6494
  389MOL0     C53557   3.849   1.890   4.954  0.2604  0.3421 -0.4486
  389MOL0     C53558   3.733   1.818   4.889  0.8082 -0.6298  0.3469
  389MOL0     C53559   3.752   1.808   4.731  0.6788 -0.2387 -0.0949
  389MOL0     C53560   3.649   1.699   4.671 -0.0403 -0.2210 -0.2235
  389MOL0     N53561   3.654   1.716   4.522 -0.2747 -0.1335 -0.1258
  389MOL0     C53562   3.614   1.827   4.453 -0.7721 -0.5936 -0.2300
  389MOL0     C53563   3.649   1.803   4.325  0.1695  0.7506 -0.2696
  389MOL0     C53564   3.619   1.900   4.216 -0.6089 -0.6228 -0.3224
  389MOL0     C53565   3.708   1.885   4.092  0.2363 -0.4346 -0.0158
  389MOL0     C53566   3.661   1.985   3.976  0.1028  0.1895 -0.0592
  389MOL0     C53567   3.700   2.131   4.020 -0.5188 -0.3920  0.0165
  389MOL0     O53568   3.605   2.190   4.111 -0.5740 -0.4802 -0.1406
  389MOL0     C53569   3.482   2.225   4.064 -0.0751 -0.2879  0.0413
  389MOL0     C53570   3.453   2.340   3.987 -0.6858  0.0951 -0.4706
  389MOL0     C53571   3.329   2.377   3.938 -0.1735 -0.1371 -0.0529
  389MOL0     C53572   3.312   2.493   3.848  0.2081  0.1991  0.0324
  389MOL0     C53573   3.215   2.291   3.969 -0.6478  0.2389 -0.1623
  389MOL0     C53574   3.075   2.298   3.915 -0.0488  0.0475 -0.0182
  389MOL0     O53575   3.053   2.378   3.803 -0.1570  0.8295  0.3378
  389MOL0     C53576   2.932   2.400   3.734 -0.0916  0.6060 -1.0930
  389MOL0     C53577   2.806   2.349   3.773  0.7312 -0.5454 -0.0760
  389MOL0     C53578   2.685   2.383   3.701 -1.4820 -0.4998 -0.4575
  389MOL0     C53579   2.692   2.483   3.607 -0.3359 -0.5464 -0.6475
  389MOL0     O53580   2.574   2.519   3.553  0.2430  0.8637 -0.6290
  389MOL0     C53581   2.545   2.658   3.535 -0.2265  0.8200  0.1187
  389MOL0     C53582   2.399   2.683   3.549  0.3401 -1.2476  0.2838
  389MOL0     C53583   2.348   2.652   3.690  0.4421 -0.2763 -0.7301
  389MOL0     C53584   2.199   2.678   3.704 -0.0277 -0.4025 -0.1651
  389MOL0     C53585   2.141   2.658   3.843  0.3657 -0.2163  0.7785
  389MOL0     C53586   2.143   2.796   3.919  0.0103  0.0295 -0.2875
  389MOL0     C53587   2.044   2.808   4.041 -0.3841  0.0707  0.1721
  389MOL0     C53588   2.034   2.939   4.105 -0.3929  1.1963 -0.1142
  389MOL0    Cl53589   1.922   3.054   4.022 -0.1378 -0.2644 -0.2181
  389MOL0     C53590   2.814   2.536   3.565 -0.5680 -0.1929 -0.1752
  389MOL0     C53591   2.935   2.494   3.625  0.1061 -0.3361  0.1574
  389MOL0     O53592   2.997   2.213   3.958 -0.3945 -0.3404  0.3990
  389MOL0     C53593   3.236   2.190   4.069  0.0460  0.0788 -0.0664
  389MOL0     C53594   3.368   2.164   4.119  0.1694  0.4171  0.0638
  389MOL0     N53595   3.699   1.675   4.319  0.1785 -0.1585 -0.4290
  389MOL0     N53596   3.705   1.627   4.431  0.0536  0.4433  0.5631
  389MOL0     C53597   3.718   2.473   4.884 -0.9055 -0.0853  0.7487
  389MOL0     C53598   3.581   2.493   4.891  0.0272 -0.2140 -0.2454
  389MOL0     C53599   3.160   2.567   5.026  1.5177  0.0305 -0.2610
  389MOL0     C53600   3.103   2.580   5.154 -0.0040 -0.8321 -0.0510
  389MOL0     C53601   2.962   2.596   5.168  0.4952  0.1873 -0.0680
  389MOL0     C53602   2.884   2.628   5.063  0.2415 -0.1500 -0.3312
  389MOL0     O53603   2.753   2.668   5.092  0.0437  0.3202 -0.4152
  389MOL0     C53604   2.664   2.693   4.984 -0.4207  0.5782 -0.2552
  389MOL0     C53605   2.527   2.748   5.021 -0.3416 -0.2997 -0.2822
  389MOL0     C53606   2.465   2.639   5.119  0.5827  0.3953  0.5405
  389MOL0     C53607   2.316   2.646   5.132  0.6046 -0.0765  0.7483
  389MOL0     C53608   2.263   2.559   5.240 -0.2113  0.5694 -0.3020
  389MOL0     C53609   2.230   2.497   5.339 -0.1770 -0.4364  0.0247
  389MOL0     C53610   2.938   2.619   4.939  0.7031 -0.3874  0.9919
  389MOL0     C53611   3.073   2.590   4.912  0.0040  0.0896 -1.3498
  389MOL0     C53612   3.119   2.597   4.767  0.1781  0.4475 -0.2256
  389MOL0     H53613   3.529   2.303   5.165 -0.2668 -1.1725 -0.9770
  389MOL0     H53614   3.773   2.298   5.167 -0.6394  2.7443  2.0119
  389MOL0     H53615   4.065   2.406   4.823 -0.5237  0.6362 -0.8121
  389MOL0     H53616   3.916   2.319   4.783  2.2497  0.2079 -2.7725
  389MOL0     H53617   4.118   2.151   4.806 -0.4910  1.0349 -1.3482
  389MOL0     H53618   4.158   2.232   4.960  0.3264  0.4525 -1.2119
  389MOL0     H53619   4.054   2.021   5.017 -0.0174  0.2527 -1.7322
  389MOL0     H53620   3.952   2.151   5.065  2.3795  0.2136  0.9353
  389MOL0     H53621   3.798   2.098   4.894  0.6395 -0.0203  1.8197
  389MOL0     H53622   3.921   2.012   4.795 -1.9251 -1.8608  0.1091
  389MOL0     H53623   3.828   1.881   5.061 -1.3587 -3.3813 -0.9410
  389MOL0     H53624   3.936   1.828   4.933 -1.2038 -0.6953 -4.4712
  389MOL0     H53625   3.703   1.720   4.926  0.3485 -0.9134 -0.7600
  389MOL0     H53626   3.639   1.869   4.907  1.1792 -0.6279  2.5515
  389MOL0     H53627   3.854   1.775   4.711  0.8343 -1.0722  1.8387
  389MOL0     H53628   3.736   1.912   4.701 -2.3453 -0.8767 -1.0314
  389MOL0     H53629   3.692   1.600   4.689  3.4721  0.8134 -1.8984
  389MOL0     H53630   3.559   1.726   4.726  0.7693  0.1849  0.9279
  389MOL0     H53631   3.583   1.925   4.486 -1.1237 -0.7439 -0.1029
  389MOL0     H53632   3.629   2.002   4.254  3.3118 -0.3716 -1.6079
  389MOL0     H53633   3.517   1.897   4.179 -0.1913 -2.1540 -1.4605
  389MOL0     H53634   3.816   1.896   4.107  0.0826  0.8274  0.2610
  389MOL0     H53635   3.692   1.784   4.054 -0.8298  0.3482 -1.8239
  389MOL0     H53636   3.723   1.951   3.892  0.3345  1.1242 -0.2879
  389MOL0     H53637   3.555   1.974   3.950  0.0214 -2.0933  1.0225
  389MOL0     H53638   3.799   2.133   4.068 -1.2887  3.7859  1.8521
  389MOL0     H53639   3.705   2.185   3.925  1.8448 -0.0282  0.2727
  389MOL0     H53640   3.535   2.386   3.933 -1.1316  1.2281 -0.2093
  389MOL0     H53641   3.240   2.564   3.888  0.1671 -0.8990  2.0505
  389MOL0     H53642   3.263   2.456   3.758 -0.3970 -1.6335  1.0644
  389MOL0     H53643   3.406   2.544   3.822 -1.1169  2.6661 -0.1910
  389MOL0     H53644   2.805   2.302   3.872  2.0053  0.4639  0.4397
  389MOL0     H53645   2.584   2.346   3.715 -0.6553 -2.8142 -0.1916
  389MOL0     H53646   2.592   2.703   3.623 -2.1989  0.3000  1.4944
  389MOL0     H53647   2.598   2.699   3.448 -0.4197  0.1593 -0.3168
  389MOL0     H53648   2.388   2.791   3.530  1.4221 -1.2594 -0.4655
  389MOL0     H53649   2.335   2.633   3.476 -3.5599  3.4667 -0.0858
  389MOL0     H53650   2.396   2.725   3.756  1.9744 -0.6352 -1.4044
  389MOL0     H53651   2.369   2.550   3.722 -3.4292 -0.2684  2.5677
  389MOL0     H53652   2.144   2.608   3.639  0.4445 -1.1519  0.2264
  389MOL0     H53653   2.168   2.777   3.669 -0.5729 -0.2700  0.6494
  389MOL0     H53654   2.042   2.613   3.836  1.3303 -2.8469  2.3242
  389MOL0     H53655   2.198   2.594   3.911  2.3940 -0.6117 -1.1866
  389MOL0     H53656   2.108   2.875   3.850 -0.9747 -0.8606 -0.8392
  389MOL0     H53657   2.242   2.809   3.963 -0.7098  0.0256  1.3831
  389MOL0     H53658   2.085   2.742   4.117  0.7068 -0.4801 -0.8504
  389MOL0     H53659   1.944   2.780   4.006 -0.4227 -0.6732  0.8623
  389MOL0     H53660   2.132   2.987   4.099 -1.0019  3.7613  5.0778
  389MOL0     H53661   2.008   2.931   4.211  1.8228  0.3367  0.4134
  389MOL0     H53662   2.813   2.606   3.483 -1.6796 -0.0009 -0.0221
  389MOL0     H53663   3.032   2.531   3.591  0.8410 -1.5263  0.8598
  389MOL0     H53664   3.154   2.131   4.108 -0.5439  2.4290  2.5646
  389MOL0     H53665   3.383   2.100   4.206 -0.7705  3.7568  2.9364
  389MOL0     H53666   3.775   2.515   4.802 -0.6000  0.5844  1.2855
  389MOL0     H53667   3.535   2.556   4.815  1.5397 -0.2433 -1.2517
  389MOL0     H53668   3.164   2.583   5.243 -1.0535 -1.6739  0.7227
  389MOL0     H53669   2.933   2.596   5.273  2.5702  0.4665  0.5506
  389MOL0     H53670   2.714   2.771   4.927  2.4971 -0.6293  0.4945
  389MOL0     H53671   2.651   2.595   4.936 -2.3947 -1.1146  3.2531
  389MOL0     H53672   2.466   2.762   4.931  0.8273 -1.7854 -1.3655
  389MOL0     H53673   2.535   2.847   5.067 -0.4673 -0.5746  0.3487
  389MOL0     H53674   2.487   2.535   5.094  0.5834 -0.1095  2.4871
  389MOL0     H53675   2.508   2.667   5.215 -0.4142  1.8072  0.6132
  389MOL0     H53676   2.268   2.618   5.038  0.1208  0.9585  0.6626
  389MOL0     H53677   2.303   2.751   5.161  2.8805  0.2914  0.6074
  389MOL0     H53678   2.211   2.431   5.421  0.5573 -1.8797 -0.9262
  389MOL0     H53679   2.872   2.645   4.857  1.5142 -0.1202  0.4061
  389MOL0     H53680   3.158   2.498   4.741 -0.9278  0.1033 -0.6180
  389MOL0     H53681   3.040   2.615   4.694  1.1510  0.8062 -1.2310
  389MOL0     H53682   3.191   2.676   4.743  0.7974 -0.5486 -1.7924
  390MOL0     O53683   2.763   5.626   7.952 -0.5124  0.3160 -0.3511
  390MOL0     C53684   2.714   5.691   7.861 -0.0681  0.3384 -0.1515
  390MOL0     O53685   2.781   5.747   7.756 -0.5838 -0.6414 -0.2085
  390MOL0     C53686   2.917   5.768   7.751 -0.3614  0.0929  0.8227
  390MOL0     C53687   2.956   5.827   7.637  0.7248  0.2408 -0.2927
  390MOL0     C53688   3.088   5.846   7.613 -0.1631 -0.2514 -0.4672
  390MOL0     C53689   3.188   5.820   7.711  0.0844 -0.6611  1.0970
  390MOL0     O53690   3.324   5.832   7.693 -0.1438 -0.3210  0.2411
  390MOL0     C53691   3.371   5.962   7.649  0.0657  0.4574 -0.2994
  390MOL0     C53692   3.374   6.059   7.769 -0.8507 -0.2902  0.3705
  390MOL0     C53693   3.432   6.002   7.898  0.1633 -0.5103  0.4337
  390MOL0     C53694   3.584   5.968   7.884  0.1708  0.5959  0.7555
  390MOL0     C53695   3.660   5.998   8.009  0.5973  0.3344 -0.6689
  390MOL0     C53696   3.673   6.150   8.064  0.1339 -0.5166  0.4604
  390MOL0     C53697   3.758   6.251   7.975 -0.1046  0.2464  0.7247
  390MOL0     C53698   3.672   6.359   7.899  0.8206  0.5429  0.2967
  390MOL0     N53699   3.747   6.459   7.823 -0.0177  0.1411 -0.4352
  390MOL0     C53700   3.798   6.441   7.700  0.1173  0.0369  0.2571
  390MOL0     C53701   3.887   6.539   7.689 -0.0780 -0.1108 -0.5129
  390MOL0     C53702   3.965   6.584   7.570  0.5640  0.2993  0.0996
  390MOL0     C53703   3.863   6.635   7.463  0.4401 -0.4056 -0.7190
  390MOL0     C53704   3.925   6.654   7.331 -1.2467 -0.6468  0.5960
  390MOL0     C53705   4.034   6.754   7.322  0.0770 -0.1785 -0.0985
  390MOL0     O53706   4.119   6.727   7.211 -0.2796 -0.0784 -0.2780
  390MOL0     C53707   4.215   6.824   7.187 -1.1843  0.2645 -0.0008
  390MOL0     C53708   4.190   6.961   7.171  1.0886  0.3351  1.1870
  390MOL0     C53709   4.288   7.059   7.150  0.2468 -0.4508  0.2261
  390MOL0     C53710   4.250   7.201   7.108  0.1388 -0.7555 -0.6356
  390MOL0     C53711   4.425   7.014   7.160  0.8200 -0.0629 -0.7166
  390MOL0     C53712   4.537   7.112   7.135  0.2023  0.1270  0.0584
  390MOL0     O53713   4.560   7.153   7.003  0.2108  0.0047 -0.2495
  390MOL0     C53714   4.647   7.258   6.975  0.3708 -0.8030 -0.5248
  390MOL0     C53715   4.653   7.373   7.054 -0.3795 -1.0455 -0.2408
  390MOL0     C53716   4.749   7.472   7.030  0.9127 -0.5882 -0.7205
  390MOL0     C53717   4.831   7.464   6.926  0.4473  0.8350 -0.3255
  390MOL0     O53718   4.905   7.575   6.916  0.5915 -0.0373  0.8690
  390MOL0     C53719   5.042   7.557   6.887  0.2093  0.5938  0.9488
  390MOL0     C53720   5.111   7.477   6.990  0.2727 -0.7637 -0.4237
  390MOL0     C53721   5.252   7.448   6.940 -0.1157 -0.7183 -1.0982
  390MOL0     C53722   5.322   7.323   7.012  0.5424 -0.2867  1.1540
  390MOL0     C53723   5.440   7.266   6.938 -1.6688  0.1615 -0.1050
  390MOL0     C53724   5.570   7.318   7.001 -0.7116  0.2203 -1.0258
  390MOL0     C53725   5.698   7.278   6.915  0.3937  0.1547  0.2642
  390MOL0     C53726   5.714   7.372   6.796 -0.9624  0.4370 -0.2722
  390MOL0    Cl53727   5.822   7.294   6.680  0.1691  0.2105  0.0222
  390MOL0     C53728   4.820   7.353   6.844  1.0567 -1.2220  1.1832
  390MOL0     C53729   4.739   7.246   6.869 -0.7909 -0.3179 -0.6257
  390MOL0     O53730   4.593   7.145   7.240 -0.1361 -0.3646 -0.5009
  390MOL0     C53731   4.451   6.867   7.170 -0.2992  0.0713  0.1413
  390MOL0     C53732   4.350   6.780   7.180  0.4971 -0.0542 -0.0562
  390MOL0     N53733   3.883   6.612   7.808  1.4025  0.7686  0.3266
  390MOL0     N53734   3.801   6.569   7.885 -0.1413 -0.0981 -0.2268
  390MOL0     C53735   3.135   5.777   7.828  0.1191  1.0014  0.3529
  390MOL0     C53736   3.008   5.731   7.850 -0.0604 -0.2399 -0.0952
  390MOL0     C53737   2.586   5.746   7.887 -0.1146  0.3694  1.2180
  390MOL0     C53738   2.484   5.677   7.817 -0.2282 -0.3000  0.8440
  390MOL0     C53739   2.352   5.719   7.834  0.0149 -0.2643  0.0805
  390MOL0     C53740   2.319   5.827   7.917 -0.6107  0.8002  0.2130
  390MOL0     O53741   2.193   5.847   7.977 -0.0103  0.3131  0.3046
  390MOL0     C53742   2.093   5.754   7.937 -0.4303  0.1006  0.1717
  390MOL0     C53743   1.964   5.777   8.010 -0.0792  0.6989 -0.1530
  390MOL0     C53744   1.852   5.674   7.980 -1.0101  0.3946 -0.3303
  390MOL0     C53745   1.853   5.613   7.846  0.4030 -0.0106  0.1376
  390MOL0     C53746   1.958   5.510   7.839  0.4060 -0.7481  0.2563
  390MOL0     C53747   2.039   5.421   7.822  0.1904  0.4410 -0.2763
  390MOL0     C53748   2.429   5.894   7.977 -0.1080  0.5742  0.4588
  390MOL0     C53749   2.563   5.850   7.967 -0.1544 -0.0997 -0.1964
  390MOL0     C53750   2.681   5.917   8.041  0.1552  0.6992 -0.2872
  390MOL0     H53751   2.873   5.854   7.572 -0.8596 -4.3774 -0.5337
  390MOL0     H53752   3.094   5.897   7.517 -0.4845  1.6936  0.4945
  390MOL0     H53753   3.299   6.004   7.578 -0.5670 -2.2734 -1.3958
  390MOL0     H53754   3.473   5.958   7.610 -0.6606 -0.7146 -2.2392
  390MOL0     H53755   3.426   6.146   7.727  3.2300 -2.5058  0.4303
  390MOL0     H53756   3.268   6.077   7.792 -0.5743  0.2598  1.2812
  390MOL0     H53757   3.433   6.074   7.981  0.1780  1.9418 -1.5645
  390MOL0     H53758   3.370   5.918   7.928 -1.4973  0.4458 -0.1842
  390MOL0     H53759   3.595   5.861   7.867 -0.6176  0.2670  2.1937
  390MOL0     H53760   3.625   6.030   7.803 -1.9615  1.3173  0.1591
  390MOL0     H53761   3.754   5.945   8.018  0.8613  1.1087  1.7429
  390MOL0     H53762   3.608   5.943   8.088  2.9085 -1.2775 -0.1772
  390MOL0     H53763   3.579   6.206   8.075 -1.2460 -2.7979  0.8971
  390MOL0     H53764   3.719   6.137   8.162  2.4354 -0.9932 -0.6238
  390MOL0     H53765   3.813   6.204   7.893 -0.0816 -2.0528  1.9858
  390MOL0     H53766   3.827   6.306   8.039  0.3588 -2.5908  2.8363
  390MOL0     H53767   3.611   6.308   7.824  1.1896  0.8783 -0.2353
  390MOL0     H53768   3.610   6.415   7.971  0.6244  2.4315 -1.2641
  390MOL0     H53769   3.758   6.368   7.629 -1.9155  2.1514 -0.8984
  390MOL0     H53770   4.028   6.505   7.528  0.4460  1.0870 -1.6444
  390MOL0     H53771   4.037   6.656   7.610  0.4467 -1.1594  3.2382
  390MOL0     H53772   3.781   6.564   7.453  0.8653 -1.3663  1.8415
  390MOL0     H53773   3.813   6.727   7.497 -0.5246 -0.3149 -2.2632
  390MOL0     H53774   3.953   6.567   7.272 -2.0451 -0.7066  0.2955
  390MOL0     H53775   3.849   6.698   7.266  1.6943  0.7498 -2.1835
  390MOL0     H53776   3.980   6.849   7.330  0.8007  0.1657  1.1481
  390MOL0     H53777   4.101   6.750   7.409  1.1626  1.5662 -0.8010
  390MOL0     H53778   4.090   6.997   7.151  1.3939 -0.1456 -1.5838
  390MOL0     H53779   4.170   7.240   7.172 -0.3130  1.5794 -2.5073
  390MOL0     H53780   4.203   7.205   7.010 -2.5506  1.3859  0.6270
  390MOL0     H53781   4.343   7.257   7.118 -0.8657  1.2907 -2.1307
  390MOL0     H53782   4.586   7.388   7.138  1.8242  0.5304  1.3606
  390MOL0     H53783   4.748   7.558   7.096  0.0213 -0.2885 -1.1009
  390MOL0     H53784   5.055   7.510   6.789 -1.2376  3.1770 -0.5749
  390MOL0     H53785   5.091   7.654   6.876  1.2036  0.1978  1.7317
  390MOL0     H53786   5.112   7.545   7.076 -1.4606  0.0245 -0.9823
  390MOL0     H53787   5.065   7.379   7.008  1.0960 -1.5873 -2.4627
  390MOL0     H53788   5.316   7.532   6.967  0.0437 -2.3187  4.7905
  390MOL0     H53789   5.232   7.416   6.837 -2.3500 -0.5657 -0.7597
  390MOL0     H53790   5.256   7.236   7.011  2.2508 -1.6457  1.2529
  390MOL0     H53791   5.337   7.347   7.118 -1.6195  0.4229  1.3527
  390MOL0     H53792   5.442   7.157   6.954  1.2012  0.3656  1.5970
  390MOL0     H53793   5.434   7.291   6.831  2.2267  1.0814 -0.2653
  390MOL0     H53794   5.584   7.274   7.100 -4.3297  2.2441  0.5683
  390MOL0     H53795   5.565   7.426   7.010  0.4295  0.1169  1.7941
  390MOL0     H53796   5.678   7.176   6.882 -1.8720  0.4711  0.4698
  390MOL0     H53797   5.789   7.277   6.975 -0.1622  0.3442  1.1323
  390MOL0     H53798   5.765   7.465   6.826  3.3077 -1.2866 -1.4021
  390MOL0     H53799   5.617   7.400   6.754  0.3044  1.4542 -2.7058
  390MOL0     H53800   4.884   7.355   6.756  2.0102  1.7695  1.8341
  390MOL0     H53801   4.730   7.162   6.802  0.7321  0.4414 -1.8498
  390MOL0     H53802   4.553   6.832   7.161 -0.9468 -1.4468 -2.6145
  390MOL0     H53803   4.369   6.674   7.186 -0.5301 -0.2330  0.2877
  390MOL0     H53804   3.205   5.753   7.908 -0.6039 -2.7075  0.0911
  390MOL0     H53805   2.985   5.688   7.947 -1.9318  2.6941  0.8984
  390MOL0     H53806   2.509   5.597   7.747 -0.8325  2.1296 -2.4114
  390MOL0     H53807   2.279   5.666   7.774  0.5125 -0.8111 -0.0583
  390MOL0     H53808   2.079   5.783   7.832  0.8829 -1.4021 -0.4604
  390MOL0     H53809   2.126   5.651   7.954  0.7608  0.9986  4.4331
  390MOL0     H53810   1.933   5.880   7.987  1.0505  0.7428 -1.6542
  390MOL0     H53811   1.993   5.780   8.116  1.9401 -1.1614 -0.5873
  390MOL0     H53812   1.857   5.599   8.059  3.3387  0.9841  0.2100
  390MOL0     H53813   1.759   5.732   7.981 -1.0227  0.3890 -0.9740
  390MOL0     H53814   1.854   5.691   7.769  0.2099 -1.6371 -1.5740
  390MOL0     H53815   1.755   5.566   7.830  0.1466  1.1180 -2.1008
  390MOL0     H53816   2.111   5.350   7.786  0.4553  0.3956  0.3380
  390MOL0     H53817   2.407   5.966   8.055 -1.4513  0.4443  0.2265
  390MOL0     H53818   2.755   5.847   8.080 -0.2018 -0.7770 -2.1348
  390MOL0     H53819   2.719   5.995   7.975 -0.7562  0.0929 -1.5868
  390MOL0     H53820   2.646   5.975   8.127 -0.5702  1.3810 -1.0189
  391MOL0     O53821   6.619   3.289   3.092 -0.0433  0.0216  1.0983
  391MOL0     C53822   6.569   3.195   3.031 -0.0228  0.6253 -0.4831
  391MOL0     O53823   6.638   3.115   2.945  0.0229 -0.1113 -0.1643
  391MOL0     C53824   6.773   3.102   2.937 -0.7874 -0.2688  0.1585
  391MOL0     C53825   6.820   3.066   2.812 -0.2948  0.3882 -0.6336
  391MOL0     C53826   6.958   3.040   2.797  0.0093 -0.3489 -0.2976
  391MOL0     C53827   7.047   3.055   2.903 -0.5424 -0.2402  0.0013
  391MOL0     O53828   7.182   3.034   2.893  0.6835 -0.6400  0.8829
  391MOL0     C53829   7.255   3.118   2.804 -0.3346  1.6441  0.5650
  391MOL0     C53830   7.303   3.240   2.874 -1.0776 -1.0693 -0.4595
  391MOL0     C53831   7.444   3.280   2.855 -0.0411  0.3438  0.3296
  391MOL0     C53832   7.480   3.420   2.908  0.9050  0.4038 -0.4298
  391MOL0     C53833   7.628   3.455   2.891  0.0114  0.4422 -0.4793
  391MOL0     C53834   7.662   3.501   2.752 -0.2283 -0.4132 -0.0670
  391MOL0     C53835   7.799   3.564   2.733 -0.3023 -0.3037 -0.3230
  391MOL0     C53836   7.799   3.697   2.809 -0.9189 -0.6053 -0.3258
  391MOL0     N53837   7.922   3.774   2.780 -0.3707 -0.0478 -0.4525
  391MOL0     C53838   8.046   3.718   2.750 -0.4138 -0.4911 -1.0798
  391MOL0     C53839   8.137   3.821   2.774  0.2833 -0.4055 -0.2622
  391MOL0     C53840   8.286   3.814   2.761 -0.5323  0.0383  0.0011
  391MOL0     C53841   8.323   3.917   2.657  0.9705 -0.2194  0.2335
  391MOL0     C53842   8.476   3.917   2.647 -0.2007 -0.5577  0.5661
  391MOL0     C53843   8.518   4.035   2.543  0.4573  0.3736 -0.2752
  391MOL0     O53844   8.665   4.040   2.539  0.4469  0.0903 -0.7342
  391MOL0     C53845   8.732   4.089   2.431 -0.7104  0.6258  0.3449
  391MOL0     C53846   8.671   4.105   2.302  0.5639 -0.3634  1.0238
  391MOL0     C53847   8.752   4.145   2.193 -0.9654  0.3681  0.7944
  391MOL0     C53848   8.686   4.159   2.057 -0.0794  0.2635  0.0885
  391MOL0     C53849   8.894   4.147   2.208 -0.0595  0.7394  0.7648
  391MOL0     C53850   8.996   4.172   2.095  0.4991 -0.0783  0.6365
  391MOL0     O53851   8.956   4.188   1.967 -0.7882 -0.4426  0.5641
  391MOL0     C53852   9.036   4.162   1.850  1.3584  0.5346  0.3093
  391MOL0     C53853   9.168   4.116   1.837 -0.0476  0.1954  0.0265
  391MOL0     C53854   9.226   4.101   1.710 -0.3243  0.4203 -0.1201
  391MOL0     C53855   9.157   4.152   1.596 -0.3111 -0.6790  0.3825
  391MOL0     O53856   9.211   4.140   1.469 -0.1336 -0.2144  0.2141
  391MOL0     C53857   9.136   4.190   1.360  0.4702 -0.1240  0.6146
  391MOL0     C53858   9.222   4.166   1.229  0.2477  0.5341  0.5040
  391MOL0     C53859   9.370   4.220   1.235 -0.9112  0.6559  0.0209
  391MOL0     C53860   9.363   4.370   1.271  0.6460 -0.2073  0.4403
  391MOL0     C53861   9.503   4.444   1.250  0.2579  0.4894 -0.6818
  391MOL0     C53862   9.521   4.582   1.326  1.5043  0.7095 -0.0544
  391MOL0     C53863   9.401   4.669   1.283 -0.0391 -0.3917  0.9232
  391MOL0     C53864   9.423   4.805   1.350  0.2860  0.1387 -0.2865
  391MOL0    Cl53865   9.319   4.921   1.277  0.3875  0.2837 -0.5473
  391MOL0     C53866   9.027   4.194   1.611 -0.1499  0.0837  0.4342
  391MOL0     C53867   8.962   4.189   1.734 -0.1034  0.3378  0.0253
  391MOL0     O53868   9.111   4.172   2.134  0.2258  0.0657  0.1876
  391MOL0     C53869   8.940   4.126   2.336 -0.3912 -0.5089 -0.3175
  391MOL0     C53870   8.867   4.111   2.449 -0.8658  0.1188 -0.0693
  391MOL0     N53871   8.062   3.942   2.801  0.4750  0.0119 -0.0495
  391MOL0     N53872   7.935   3.911   2.802 -0.3229 -0.0509 -0.7669
  391MOL0     C53873   7.000   3.093   3.018  1.2915 -0.3406  0.5246
  391MOL0     C53874   6.862   3.117   3.038 -0.5758 -0.7402 -0.2625
  391MOL0     C53875   6.424   3.165   3.039  0.2191 -0.0113  0.2715
  391MOL0     C53876   6.375   3.052   2.964  0.0306  0.4337  0.3421
  391MOL0     C53877   6.240   3.014   2.956  0.3623  0.4623 -0.1287
  391MOL0     C53878   6.148   3.092   3.034  0.4636  0.3140 -0.1142
  391MOL0     O53879   6.022   3.065   3.005 -0.0354  0.3978  0.3016
  391MOL0     C53880   5.965   3.004   3.118  0.1027  0.6600  0.1252
  391MOL0     C53881   5.887   2.885   3.080 -0.0566 -0.6976  0.7593
  391MOL0     C53882   5.780   2.835   3.187  0.9009 -0.6890 -0.0224
  391MOL0     C53883   5.842   2.757   3.299 -0.8614  1.7032 -0.9561
  391MOL0     C53884   5.747   2.727   3.406 -0.4212  0.1456 -0.7777
  391MOL0     C53885   5.666   2.713   3.495 -0.5204  0.2247  0.8784
  391MOL0     C53886   6.198   3.188   3.122 -0.9276  0.0546  0.7115
  391MOL0     C53887   6.334   3.224   3.129  0.0300 -0.8971 -0.2079
  391MOL0     C53888   6.363   3.358   3.209 -0.6193 -0.3572  0.0750
  391MOL0     H53889   6.755   3.059   2.725  0.2689 -0.5966 -0.9883
  391MOL0     H53890   6.999   3.005   2.703  1.4151 -0.8913  0.4929
  391MOL0     H53891   7.195   3.143   2.716 -1.5347  1.9674  1.4339
  391MOL0     H53892   7.344   3.065   2.771 -0.3876  1.8029  0.1619
  391MOL0     H53893   7.228   3.318   2.854 -0.5829 -0.6470 -0.7154
  391MOL0     H53894   7.298   3.218   2.981 -1.0980  0.7980 -0.0447
  391MOL0     H53895   7.511   3.215   2.912  0.6947  0.8347  0.0402
  391MOL0     H53896   7.466   3.270   2.748 -2.1642 -0.7041 -0.0717
  391MOL0     H53897   7.413   3.498   2.870  3.4031  4.9791  3.5918
  391MOL0     H53898   7.470   3.419   3.016  1.7772  0.3232 -0.3445
  391MOL0     H53899   7.690   3.374   2.930  1.8257  1.5540 -0.9135
  391MOL0     H53900   7.640   3.544   2.954 -1.6687  0.7044 -0.4798
  391MOL0     H53901   7.640   3.419   2.684  0.6841 -1.8004  1.2235
  391MOL0     H53902   7.593   3.584   2.734 -0.1562 -0.7780 -2.2513
  391MOL0     H53903   7.819   3.589   2.628  1.3997 -2.3766 -0.5765
  391MOL0     H53904   7.877   3.497   2.772 -1.1871  0.1674  2.4038
  391MOL0     H53905   7.720   3.758   2.763  0.5728  0.2542 -1.8635
  391MOL0     H53906   7.779   3.686   2.916  1.8961 -0.9041  0.2448
  391MOL0     H53907   8.070   3.613   2.734  1.1797 -0.3978  0.3997
  391MOL0     H53908   8.319   3.717   2.723  3.7244  1.1692  0.3753
  391MOL0     H53909   8.339   3.830   2.855 -1.2966 -2.2286  0.8899
  391MOL0     H53910   8.268   3.893   2.566  0.0500 -0.5364  0.8548
  391MOL0     H53911   8.289   4.016   2.687  2.2449  0.3776 -0.2362
  391MOL0     H53912   8.526   3.950   2.738 -1.0688 -0.2472  0.9404
  391MOL0     H53913   8.524   3.825   2.611  2.3737  0.7961  0.3233
  391MOL0     H53914   8.484   4.005   2.444 -1.5759 -1.9822  1.0058
  391MOL0     H53915   8.476   4.130   2.575 -0.2297 -0.3633  1.1496
  391MOL0     H53916   8.563   4.115   2.289  0.4927 -1.8605  0.1815
  391MOL0     H53917   8.576   4.156   2.059 -0.0994  0.4409  2.5797
  391MOL0     H53918   8.718   4.082   1.987  1.8285  4.1854 -3.8163
  391MOL0     H53919   8.719   4.256   2.019  3.7062 -1.3767 -1.2874
  391MOL0     H53920   9.230   4.074   1.916  2.7661  1.0277 -1.6085
  391MOL0     H53921   9.321   4.048   1.707 -0.8531 -0.5413 -0.6253
  391MOL0     H53922   9.044   4.137   1.334 -0.6258  2.4086 -1.0164
  391MOL0     H53923   9.107   4.294   1.375  2.4626  0.3971  1.0940
  391MOL0     H53924   9.226   4.064   1.191  2.0394  0.6194  0.3714
  391MOL0     H53925   9.180   4.222   1.145  1.0878  2.2075  1.1380
  391MOL0     H53926   9.421   4.200   1.141 -2.8755 -2.7217 -0.4913
  391MOL0     H53927   9.432   4.159   1.302 -2.6125 -0.9920  0.1909
  391MOL0     H53928   9.322   4.400   1.368  1.3603  3.4964 -0.2421
  391MOL0     H53929   9.293   4.410   1.197 -0.8972 -1.9564  0.8779
  391MOL0     H53930   9.572   4.368   1.286 -0.9722 -0.0342  0.6500
  391MOL0     H53931   9.528   4.452   1.144  0.0706  0.2848 -0.7407
  391MOL0     H53932   9.614   4.631   1.296  2.7364 -2.1315 -1.2137
  391MOL0     H53933   9.530   4.560   1.433  0.0087 -2.2393 -0.4372
  391MOL0     H53934   9.304   4.629   1.314 -0.7821  1.7235  1.4616
  391MOL0     H53935   9.397   4.674   1.173  1.7584 -2.1204  0.7244
  391MOL0     H53936   9.526   4.839   1.339  0.2485  0.5491  0.5205
  391MOL0     H53937   9.403   4.787   1.456  0.9688 -0.9783 -0.3317
  391MOL0     H53938   8.964   4.216   1.525  0.5279 -1.6023 -0.5445
  391MOL0     H53939   8.863   4.233   1.745  0.2102  0.4841  3.3079
  391MOL0     H53940   9.046   4.125   2.362 -0.2972 -0.8054 -0.7010
  391MOL0     H53941   8.898   4.111   2.553 -2.9828  1.8690  0.6336
  391MOL0     H53942   7.067   3.091   3.103  1.6403 -0.4490  0.2501
  391MOL0     H53943   6.829   3.125   3.142  0.8705  0.5512  0.1255
  391MOL0     H53944   6.442   2.998   2.897 -2.2615  1.4670 -3.0138
  391MOL0     H53945   6.206   2.936   2.888 -0.5343 -0.0257  0.8535
  391MOL0     H53946   6.045   2.977   3.189  0.0592 -1.7888 -0.6855
  391MOL0     H53947   5.896   3.064   3.178  0.1318 -1.8864  2.9977
  391MOL0     H53948   5.959   2.804   3.068  0.3137 -0.2421 -0.2031
  391MOL0     H53949   5.836   2.905   2.985  0.8056 -3.4033 -0.3634
  391MOL0     H53950   5.727   2.923   3.225  1.2742  0.0108 -1.0903
  391MOL0     H53951   5.707   2.774   3.133  0.7403 -0.9555  0.4868
  391MOL0     H53952   5.924   2.814   3.342 -1.6305  1.7246  0.5779
  391MOL0     H53953   5.881   2.659   3.270  0.9114  2.0269  0.1694
  391MOL0     H53954   5.590   2.688   3.567 -0.2254  1.1588  1.5384
  391MOL0     H53955   6.123   3.245   3.177 -1.5115  1.8819 -1.7841
  391MOL0     H53956   6.277   3.392   3.267 -0.5806 -1.1310  0.6057
  391MOL0     H53957   6.451   3.331   3.269 -1.9099 -0.0727  2.2042
  391MOL0     H53958   6.403   3.433   3.140  3.3031 -1.7100  0.5899
  392MOL0     O53959   0.165  10.223   6.675 -0.3872 -0.1057  1.7901
  392MOL0     C53960   0.108  10.185   6.574 -0.3973 -0.9530  0.1801
  392MOL0     O53961   0.055  10.267   6.481 -1.2797 -0.7181  0.0152
  392MOL0     C53962   0.094  10.400   6.484 -0.5898  0.1789  0.1515
  392MOL0     C53963   0.213  10.445   6.429  0.8112 -0.2501 -0.1006
  392MOL0     C53964   0.248  10.571   6.431  0.1571  0.1945 -0.3367
  392MOL0     C53965   0.165  10.673   6.474 -1.4071  0.4736 -0.5599
  392MOL0     O53966   0.222  10.793   6.467 -0.3209 -0.1035  0.1158
  392MOL0     C53967   0.210  10.860   6.593 -0.3382 -0.1525  0.2549
  392MOL0     C53968   0.326  10.971   6.580 -0.0697 -0.8190 -0.1740
  392MOL0     C53969   0.461  10.918   6.616 -0.7108  0.2385 -0.1407
  392MOL0     C53970   0.582  11.003   6.563  0.7653  0.3754 -0.0582
  392MOL0     C53971   0.724  10.941   6.570  0.4403 -0.5460 -1.2544
  392MOL0     C53972   0.770  10.930   6.720  0.0145 -0.0636  0.5942
  392MOL0     C53973   0.815  11.054   6.798  1.0271  0.1348 -0.3866
  392MOL0     C53974   0.953  11.105   6.769 -0.1375 -0.2560  0.5435
  392MOL0     N53975   0.967  11.244   6.813 -0.1753  0.5856 -0.3318
  392MOL0     C53976   0.867  11.339   6.785 -0.1905 -0.3394  1.0193
  392MOL0     C53977   0.913  11.446   6.856  0.2137 -0.4803 -0.0849
  392MOL0     C53978   0.843  11.584   6.844  0.5816 -0.3898 -0.2668
  392MOL0     C53979   0.892  11.688   6.955  0.6294  0.0354  0.1489
  392MOL0     C53980   0.776  11.787   6.971 -0.6739 -0.3334 -0.1518
  392MOL0     C53981   0.792  11.920   6.884  0.3518  0.1769  0.8021
  392MOL0     O53982   0.773  11.895   6.743 -0.4784  0.0487 -0.3497
  392MOL0     C53983   0.815  11.983   6.641 -0.8319 -0.4476  0.2557
  392MOL0     C53984   0.896  12.093   6.672  0.3958  0.7662 -0.9111
  392MOL0     C53985   0.932  12.191   6.584  0.7332  0.1056 -0.2244
  392MOL0     C53986   1.026  12.305   6.631 -0.1475  1.3131 -0.9458
  392MOL0     C53987   0.894  12.177   6.454 -0.3830 -1.2472  0.6065
  392MOL0     C53988   0.933  12.270   6.339 -0.2702  0.0902 -0.6424
  392MOL0     O53989   0.947  12.408   6.371 -0.1488  0.3096 -0.0171
  392MOL0     C53990   0.940  12.482   6.252  0.6182  0.4452  0.4712
  392MOL0     C53991   1.039  12.544   6.189  0.1669  0.2387  0.9276
  392MOL0     C53992   1.027  12.622   6.070 -0.0203  0.5300 -0.6318
  392MOL0     C53993   0.899  12.661   6.028 -0.5920  0.1454  0.2774
  392MOL0     O53994   0.890  12.747   5.922  0.2716 -0.0663  0.2129
  392MOL0     C53995   0.922  12.876   5.959 -0.3888 -0.5993 -0.1334
  392MOL0     C53996   0.826  12.929   6.067 -0.1974  0.1519  0.6912
  392MOL0     C53997   0.820  13.087   6.064  0.7226  0.1562 -0.1147
  392MOL0     C53998   0.680  13.135   6.022 -0.0527 -0.4425 -0.3536
  392MOL0     C53999   0.662  13.280   6.037 -0.2766 -0.2429  0.7561
  392MOL0     C54000   0.624  13.353   6.162  0.2702 -0.3440  0.6080
  392MOL0     C54001   0.591  13.494   6.134  0.4716 -0.3344  0.7637
  392MOL0     C54002   0.539  13.566   6.257 -1.1258 -0.4484  0.2969
  392MOL0    Cl54003   0.647  13.648   6.364  0.1601  0.2508 -0.5397
  392MOL0     C54004   0.791  12.611   6.106  0.6482  1.3938  0.7091
  392MOL0     C54005   0.812  12.513   6.208  0.2716 -0.5062 -0.6604
  392MOL0     O54006   0.935  12.225   6.225 -0.1713  0.0266  0.0160
  392MOL0     C54007   0.819  12.060   6.416 -0.0538  0.4478  0.9498
  392MOL0     C54008   0.775  11.974   6.507  0.6025 -0.0022  0.2390
  392MOL0     N54009   1.040  11.410   6.915 -0.0168 -0.1104 -0.0096
  392MOL0     N54010   1.074  11.288   6.887  0.0619  0.0136  0.7565
  392MOL0     C54011   0.034  10.639   6.521 -0.0079 -0.3780 -0.1849
  392MOL0     C54012  -0.002  10.503   6.523 -0.3551 -0.2949 -0.1556
  392MOL0     C54013   0.074  10.049   6.573  0.3193 -0.4632  0.4551
  392MOL0     C54014  -0.063  10.010   6.572  1.3593 -1.0507  0.6555
  392MOL0     C54015  -0.110   9.881   6.602  0.2106 -0.6632  0.3877
  392MOL0     C54016  -0.016   9.779   6.631  0.5307  0.1958 -0.7469
  392MOL0     O54017  -0.071   9.660   6.649  0.1182  0.2709 -0.1879
  392MOL0     C54018   0.007   9.542   6.663 -0.8863 -0.5986 -0.3573
  392MOL0     C54019  -0.081   9.410   6.658 -0.4878 -1.0604 -0.8869
  392MOL0     C54020  -0.158   9.414   6.793  0.2996  1.5374 -0.9905
  392MOL0     C54021  -0.275   9.313   6.807  0.0237  0.0165  0.7469
  392MOL0     C54022  -0.369   9.325   6.702 -0.2724 -0.2067  0.1031
  392MOL0     C54023  -0.442   9.344   6.612 -0.3750  0.1014  0.6884
  392MOL0     C54024   0.115   9.817   6.624  0.4616  0.2956  0.0427
  392MOL0     C54025   0.166   9.942   6.590 -0.4895 -0.2261 -0.8825
  392MOL0     C54026   0.318   9.957   6.582  0.6296 -0.2085 -0.2703
  392MOL0     H54027   0.268  10.365   6.380 -3.6412 -4.1213  0.4693
  392MOL0     H54028   0.345  10.607   6.398  0.5188  0.8211  1.3239
  392MOL0     H54029   0.226  10.795   6.679  3.5028  0.8303  0.4536
  392MOL0     H54030   0.110  10.905   6.600 -0.0709  0.7166 -1.0511
  392MOL0     H54031   0.334  11.016   6.480  1.5779 -0.3103  0.1638
  392MOL0     H54032   0.318  11.051   6.654  1.6524 -0.1935 -0.6050
  392MOL0     H54033   0.461  10.905   6.724  0.9558  3.2564  0.3408
  392MOL0     H54034   0.468  10.821   6.566  2.5652  0.5916 -0.5886
  392MOL0     H54035   0.555  11.016   6.458 -0.7428  1.0990  0.3878
  392MOL0     H54036   0.582  11.104   6.605 -1.9444  1.7916 -3.0010
  392MOL0     H54037   0.797  10.993   6.507  1.2974 -0.3868 -0.1673
  392MOL0     H54038   0.728  10.838   6.534  0.3261 -0.9273 -0.2164
  392MOL0     H54039   0.690  10.887   6.781 -1.6806 -0.0701 -1.4928
  392MOL0     H54040   0.849  10.854   6.713 -2.1580 -2.8708  3.4262
  392MOL0     H54041   0.795  11.043   6.905 -0.3516  0.9974 -0.5353
  392MOL0     H54042   0.733  11.124   6.780  0.3717  0.1995  2.3294
  392MOL0     H54043   1.033  11.048   6.817  0.5092 -0.1230 -0.3325
  392MOL0     H54044   0.956  11.092   6.660 -0.3336 -2.3799  0.7552
  392MOL0     H54045   0.779  11.334   6.722  1.6951 -3.4812 -1.6905
  392MOL0     H54046   0.734  11.574   6.849  0.2075  2.8150  0.6917
  392MOL0     H54047   0.849  11.640   6.750 -1.6760  0.7037  0.1595
  392MOL0     H54048   0.925  11.634   7.045  1.4744 -1.2996 -0.9138
  392MOL0     H54049   0.981  11.741   6.919  0.0631  0.5109 -0.5730
  392MOL0     H54050   0.680  11.746   6.939  0.2515 -1.1890 -1.9881
  392MOL0     H54051   0.751  11.816   7.073  2.0753 -0.8998  0.7715
  392MOL0     H54052   0.715  11.993   6.912 -0.8850 -1.6229  2.2975
  392MOL0     H54053   0.890  11.965   6.904  0.8128 -0.2971 -0.3113
  392MOL0     H54054   0.932  12.105   6.773  0.9316  3.2006 -1.3360
  392MOL0     H54055   1.093  12.268   6.710  0.0525 -1.6312 -2.3603
  392MOL0     H54056   0.957  12.386   6.658 -2.5289 -0.2409 -2.0165
  392MOL0     H54057   1.090  12.338   6.550  0.0070  1.9210 -0.5852
  392MOL0     H54058   1.141  12.515   6.213  0.2270  0.1139  0.5388
  392MOL0     H54059   1.117  12.655   6.019  0.5881  3.1806  1.8626
  392MOL0     H54060   1.021  12.880   6.007  0.5066  0.0302 -1.9298
  392MOL0     H54061   0.921  12.941   5.871  0.2976 -0.4092 -0.0150
  392MOL0     H54062   0.725  12.887   6.062 -0.7946  0.9540  3.9672
  392MOL0     H54063   0.860  12.902   6.167  4.5776 -0.4376 -0.8174
  392MOL0     H54064   0.892  13.118   5.988 -1.0118 -3.2021 -3.4103
  392MOL0     H54065   0.858  13.130   6.158 -0.4468 -2.7241  1.7966
  392MOL0     H54066   0.599  13.084   6.076  2.1038  0.4034  4.1975
  392MOL0     H54067   0.674  13.109   5.916 -0.4914 -2.3599  0.1036
  392MOL0     H54068   0.749  13.321   5.984 -1.4227 -1.6584 -2.4722
  392MOL0     H54069   0.580  13.303   5.968  0.5908  0.5815 -0.0424
  392MOL0     H54070   0.708  13.355   6.232  0.8441 -1.7667 -0.0161
  392MOL0     H54071   0.533  13.303   6.197  0.4193 -0.4741  0.8067
  392MOL0     H54072   0.508  13.499   6.063  2.7288  2.7128 -2.0097
  392MOL0     H54073   0.678  13.544   6.090 -0.3065  1.2748  0.9657
  392MOL0     H54074   0.472  13.505   6.317  1.5344 -0.9519  3.0277
  392MOL0     H54075   0.480  13.644   6.209  2.2250  1.6522 -0.8180
  392MOL0     H54076   0.689  12.638   6.081  0.2563 -1.4062 -1.2973
  392MOL0     H54077   0.725  12.486   6.266  0.2002  0.1035 -0.4844
  392MOL0     H54078   0.790  12.045   6.312 -0.6105 -2.1048  1.4166
  392MOL0     H54079   0.703  11.900   6.474  0.2895  0.8886 -1.1679
  392MOL0     H54080  -0.032  10.709   6.571  1.8787  2.1121 -1.0109
  392MOL0     H54081  -0.093  10.464   6.566  0.4400  1.2388  3.2808
  392MOL0     H54082  -0.139  10.082   6.546  2.2726  0.3304  1.6395
  392MOL0     H54083  -0.213   9.853   6.586  0.2635 -0.9468  0.5274
  392MOL0     H54084   0.087   9.538   6.588 -0.3227  3.7146 -0.2332
  392MOL0     H54085   0.066   9.548   6.755  1.1873 -1.3794 -1.5686
  392MOL0     H54086  -0.017   9.321   6.655 -0.0382 -0.8180  0.5505
  392MOL0     H54087  -0.155   9.428   6.580  0.1239 -0.7854 -1.4105
  392MOL0     H54088  -0.087   9.409   6.877 -2.8986  1.1628  1.8836
  392MOL0     H54089  -0.199   9.515   6.808 -0.5624  0.8643  1.7133
  392MOL0     H54090  -0.316   9.319   6.909 -0.1545 -0.9492  0.7439
  392MOL0     H54091  -0.229   9.214   6.801  2.0619  1.0513 -2.2586
  392MOL0     H54092  -0.517   9.363   6.538 -1.4012  0.1746  1.7223
  392MOL0     H54093   0.181   9.735   6.650  1.2467  0.5552 -1.0575
  392MOL0     H54094   0.354  10.025   6.661 -0.3505 -1.3565  1.2265
  392MOL0     H54095   0.367   9.860   6.589  1.1043 -0.0210 -0.9397
  392MOL0     H54096   0.331   9.998   6.482 -2.5710  2.1984  0.1287
  393MOL0     O54097  10.118   4.481  11.150  0.9197 -0.7535  0.0591
  393MOL0     C54098  10.218   4.518  11.205 -0.0561  0.3259 -1.2359
  393MOL0     O54099  10.237   4.502  11.336  0.2038  0.6948 -0.3702
  393MOL0     C54100  10.128   4.466  11.419 -0.0892 -0.2596  0.2259
  393MOL0     C54101  10.012   4.535  11.436 -1.0345 -0.5309 -0.1974
  393MOL0     C54102   9.919   4.496  11.533  1.1044 -0.2194  0.4644
  393MOL0     C54103   9.943   4.372  11.599  0.7088 -0.2961  0.8335
  393MOL0     O54104   9.858   4.317  11.692  0.4247 -0.2536  0.4624
  393MOL0     C54105   9.749   4.397  11.734 -0.0187  0.5434 -0.2855
  393MOL0     C54106   9.621   4.353  11.667 -0.2184 -0.0729 -0.0430
  393MOL0     C54107   9.492   4.399  11.737 -0.4730 -0.6137  0.8144
  393MOL0     C54108   9.388   4.445  11.642 -0.2191  0.1536  1.6476
  393MOL0     C54109   9.271   4.500  11.724  0.8773  0.0560  0.9688
  393MOL0     C54110   9.184   4.545  11.600  0.0632  0.1643 -0.2992
  393MOL0     C54111   9.053   4.610  11.651 -0.3659  0.6837  0.5953
  393MOL0     C54112   8.942   4.637  11.537 -0.5154  0.4322  0.8658
  393MOL0     N54113   8.822   4.676  11.588  0.0935  0.6724  0.2657
  393MOL0     C54114   8.700   4.620  11.550 -0.0490 -0.8596 -0.7874
  393MOL0     C54115   8.609   4.699  11.599  0.1631 -0.1392 -0.3750
  393MOL0     C54116   8.459   4.697  11.587 -0.4241 -0.2460  0.4992
  393MOL0     C54117   8.415   4.810  11.493  0.5220 -0.4812  0.3365
  393MOL0     C54118   8.273   4.804  11.468  0.9584  0.2905 -0.3032
  393MOL0     C54119   8.221   4.908  11.367 -0.2699  0.2120 -0.2752
  393MOL0     O54120   8.242   5.040  11.419  0.1454  0.3256  0.0127
  393MOL0     C54121   8.156   5.091  11.515 -0.4684 -0.0895  0.5364
  393MOL0     C54122   8.046   5.022  11.565 -0.3141  0.9894 -0.1129
  393MOL0     C54123   7.954   5.072  11.660  0.2303 -0.5147 -0.2672
  393MOL0     C54124   7.854   4.967  11.719  0.9210  0.0954  0.1921
  393MOL0     C54125   7.977   5.204  11.716  0.0918 -0.1024 -1.1046
  393MOL0     C54126   7.889   5.260  11.822 -0.4255 -0.2427  0.8525
  393MOL0     O54127   7.952   5.337  11.915 -0.1588  0.0052  0.7455
  393MOL0     C54128   7.899   5.428  11.987  0.3010 -0.0836  0.2927
  393MOL0     C54129   7.767   5.467  11.979  0.4933 -0.3785 -0.3540
  393MOL0     C54130   7.715   5.565  12.071  0.8826  1.1413 -0.6952
  393MOL0     C54131   7.794   5.607  12.179 -0.2922 -0.3142 -0.3958
  393MOL0     O54132   7.742   5.694  12.264  0.5220 -0.8464 -0.3634
  393MOL0     C54133   7.765   5.657  12.399 -0.0729  0.0817 -0.7120
  393MOL0     C54134   7.694   5.755  12.486  0.2432  0.5885  0.0174
  393MOL0     C54135   7.765   5.896  12.491  0.5868 -0.2038 -1.0343
  393MOL0     C54136   7.898   5.883  12.566  0.3760  0.4429 -0.2297
  393MOL0     C54137   7.952   6.014  12.608 -0.4100  0.4987  0.6186
  393MOL0     C54138   7.880   6.069  12.731 -0.3551 -0.1232  0.3028
  393MOL0     C54139   7.919   6.213  12.770  0.0644  0.2300  0.8958
  393MOL0     C54140   8.068   6.228  12.796 -0.8596  0.2353  0.2286
  393MOL0    Cl54141   8.104   6.403  12.858 -0.2239 -0.5159  0.8928
  393MOL0     C54142   7.930   5.589  12.164  0.6241 -0.3677 -0.7613
  393MOL0     C54143   7.986   5.493  12.073 -0.1758 -0.6352  0.2904
  393MOL0     O54144   7.773   5.234  11.820  0.5772  0.4408 -0.4157
  393MOL0     C54145   8.096   5.277  11.668  0.9806 -0.4245 -0.2382
  393MOL0     C54146   8.179   5.218  11.571  0.6206 -0.1665 -0.4729
  393MOL0     N54147   8.671   4.791  11.681 -0.2677  0.0934 -0.0188
  393MOL0     N54148   8.800   4.768  11.677  0.0376 -0.2251 -0.5746
  393MOL0     C54149  10.057   4.301  11.574  0.4327 -0.2845 -0.0246
  393MOL0     C54150  10.156   4.355  11.495  1.3578 -0.1089  0.0855
  393MOL0     C54151  10.334   4.567  11.124 -0.5288  0.2835  0.4595
  393MOL0     C54152  10.460   4.518  11.149 -0.3564  0.5293 -1.0205
  393MOL0     C54153  10.570   4.565  11.076 -0.2979  0.4634 -0.3079
  393MOL0     C54154  10.552   4.667  10.985  0.7880 -0.3120  0.4305
  393MOL0     O54155  10.664   4.724  10.948  0.2210 -0.6570 -0.4560
  393MOL0     C54156  10.671   4.779  10.806 -0.3976  0.2049  0.1511
  393MOL0     C54157  10.805   4.860  10.791  0.3670  0.5143  0.4996
  393MOL0     C54158  10.821   4.986  10.884  0.1489 -0.4355  0.2361
  393MOL0     C54159  10.956   5.033  10.868  0.4527 -0.2939 -0.8329
  393MOL0     C54160  11.006   5.072  10.735  0.6994 -0.3412 -0.0879
  393MOL0     C54161  11.068   5.090  10.634  0.7004 -0.3921  0.1105
  393MOL0     C54162  10.428   4.721  10.964 -0.0606  0.3066  0.3526
  393MOL0     C54163  10.311   4.665  11.027 -0.0450  0.0099 -0.7884
  393MOL0     C54164  10.187   4.737  10.996  0.2778 -0.1585  0.6168
  393MOL0     H54165   9.997   4.621  11.372  0.9706  0.2064  0.2330
  393MOL0     H54166   9.828   4.556  11.539  1.6962  0.7281  0.1893
  393MOL0     H54167   9.760   4.505  11.722  0.2808  0.6476  0.8574
  393MOL0     H54168   9.743   4.372  11.840  2.4124  0.3143 -0.1440
  393MOL0     H54169   9.614   4.401  11.568  1.7803  2.0058  0.7443
  393MOL0     H54170   9.611   4.245  11.653  1.4432 -0.2245 -0.1874
  393MOL0     H54171   9.449   4.318  11.796 -2.1958  0.4367  1.0668
  393MOL0     H54172   9.516   4.475  11.812 -0.9052 -0.5790  0.9222
  393MOL0     H54173   9.438   4.515  11.574  2.0954 -1.0434  2.0444
  393MOL0     H54174   9.359   4.364  11.575 -0.9182  0.3316  1.7205
  393MOL0     H54175   9.301   4.586  11.784 -3.1820  0.9980  1.9943
  393MOL0     H54176   9.217   4.425  11.783 -0.1487 -1.6593 -1.9536
  393MOL0     H54177   9.249   4.611  11.543 -0.7011 -0.5100 -2.0281
  393MOL0     H54178   9.162   4.454  11.543 -2.3364  0.2821  0.3064
  393MOL0     H54179   9.072   4.702  11.708  0.3216  2.2088 -1.9545
  393MOL0     H54180   9.001   4.546  11.723  0.0535  0.8523  1.0571
  393MOL0     H54181   8.967   4.723  11.475 -0.5674 -0.6333 -0.6925
  393MOL0     H54182   8.931   4.554  11.466 -0.7166  2.2644 -1.3591
  393MOL0     H54183   8.689   4.525  11.498 -2.7804 -1.1156  0.0451
  393MOL0     H54184   8.422   4.727  11.686 -2.4134 -1.9338  0.3519
  393MOL0     H54185   8.433   4.593  11.568  0.6907 -0.7335  1.4922
  393MOL0     H54186   8.419   4.906  11.545  1.0158 -0.7524  0.8196
  393MOL0     H54187   8.458   4.815  11.392 -2.5969 -0.9134 -1.1328
  393MOL0     H54188   8.244   4.706  11.428  2.7917  0.2921 -1.7676
  393MOL0     H54189   8.233   4.828  11.567  3.9523  2.0983  0.5910
  393MOL0     H54190   8.278   4.904  11.273 -0.9514  2.2536 -0.8139
  393MOL0     H54191   8.123   4.892  11.322 -0.9965 -1.2791  1.7256
  393MOL0     H54192   8.029   4.920  11.533  2.6307 -0.3518  2.0595
  393MOL0     H54193   7.889   4.863  11.725  2.4141  0.5734  0.1442
  393MOL0     H54194   7.767   4.963  11.652  1.0373  1.6781 -0.0849
  393MOL0     H54195   7.804   4.991  11.813  0.0968  1.1861 -0.5069
  393MOL0     H54196   7.701   5.446  11.895  2.0705 -0.2644 -1.6818
  393MOL0     H54197   7.616   5.607  12.063  0.4371  0.5279  1.1288
  393MOL0     H54198   7.739   5.552  12.415  2.6783 -0.4284  1.1576
  393MOL0     H54199   7.871   5.653  12.426 -0.0517 -1.0746 -0.8911
  393MOL0     H54200   7.596   5.778  12.443  0.2778 -0.5434 -0.6857
  393MOL0     H54201   7.676   5.709  12.584 -2.7889 -1.4103 -1.3482
  393MOL0     H54202   7.708   5.956  12.562  0.7140 -2.2742  0.9311
  393MOL0     H54203   7.775   5.944  12.393 -0.7001 -2.1963 -2.2139
  393MOL0     H54204   7.962   5.838  12.489  2.3972  0.1240  1.5272
  393MOL0     H54205   7.885   5.820  12.655  0.5645 -0.7886 -1.0433
  393MOL0     H54206   8.058   5.999  12.633 -0.3632 -1.0198 -0.3914
  393MOL0     H54207   7.950   6.084  12.525 -1.1495  2.1713  1.9934
  393MOL0     H54208   7.905   6.011  12.820 -0.5337  1.6999  1.5938
  393MOL0     H54209   7.772   6.077  12.725 -0.6131 -1.0294  2.7645
  393MOL0     H54210   7.869   6.244  12.862 -2.8618  0.5053 -0.6538
  393MOL0     H54211   7.885   6.284  12.694  2.0536  0.4217  0.1348
  393MOL0     H54212   8.123   6.205  12.704 -0.6864 -0.3657  0.4728
  393MOL0     H54213   8.110   6.158  12.870 -1.8457 -0.5070  0.1124
  393MOL0     H54214   7.992   5.636  12.240 -3.6962  1.7359  1.8125
  393MOL0     H54215   8.093   5.475  12.079 -0.3689 -1.6983  0.6920
  393MOL0     H54216   8.120   5.378  11.699 -1.5588  0.6069 -1.3492
  393MOL0     H54217   8.266   5.274  11.538  1.3112 -0.8308  0.1974
  393MOL0     H54218  10.067   4.199  11.610 -1.2988 -0.1669  0.9264
  393MOL0     H54219  10.244   4.296  11.473 -0.0487 -1.9574 -0.7921
  393MOL0     H54220  10.458   4.447  11.231 -1.1906 -0.1558 -1.6092
  393MOL0     H54221  10.669   4.528  11.100 -1.6447 -2.4849  1.1890
  393MOL0     H54222  10.704   4.691  10.750  3.3753  1.0782  0.6818
  393MOL0     H54223  10.588   4.839  10.768  0.2528  0.9283 -0.1429
  393MOL0     H54224  10.835   4.870  10.687  2.6719 -3.6388  0.5765
  393MOL0     H54225  10.882   4.793  10.829  1.4417  1.5869  0.2596
  393MOL0     H54226  10.753   5.067  10.856  0.9868  0.9728  2.0398
  393MOL0     H54227  10.791   4.952  10.984 -1.2249  0.5009  0.1778
  393MOL0     H54228  11.015   4.952  10.911 -3.1350 -2.4104  0.5242
  393MOL0     H54229  10.961   5.124  10.930  1.7403 -1.0216  0.1768
  393MOL0     H54230  11.134   5.111  10.553 -0.4315  0.1408 -0.6925
  393MOL0     H54231  10.423   4.809  10.900 -1.0317  1.9810  2.5883
  393MOL0     H54232  10.099   4.682  11.031  1.3693 -1.4969  1.3457
  393MOL0     H54233  10.185   4.836  11.043 -1.1764  0.8568 -1.3940
  393MOL0     H54234  10.178   4.749  10.887  1.1020  0.1044  0.5750
  394MOL0     O54235   1.761   8.222   4.728  0.5892  0.2938  0.7959
  394MOL0     C54236   1.641   8.184   4.731 -0.5710 -0.7444 -0.0634
  394MOL0     O54237   1.564   8.187   4.837 -0.0557  0.1145  0.3172
  394MOL0     C54238   1.614   8.204   4.961  0.3411 -1.1051  0.1068
  394MOL0     C54239   1.751   8.188   5.000  0.0496  0.1245  0.0037
  394MOL0     C54240   1.787   8.234   5.123 -0.1045  0.4133 -0.1933
  394MOL0     C54241   1.696   8.292   5.212 -0.7487  0.3960  0.7611
  394MOL0     O54242   1.752   8.339   5.326  0.1543  0.2510 -0.2966
  394MOL0     C54243   1.707   8.469   5.369  0.7227  0.2901  0.7615
  394MOL0     C54244   1.812   8.533   5.456 -0.5545 -0.6402 -0.7307
  394MOL0     C54245   1.828   8.485   5.602  0.5295 -0.6583  0.2156
  394MOL0     C54246   1.924   8.564   5.693 -0.3584 -0.4946  0.1569
  394MOL0     C54247   1.895   8.551   5.847 -0.1610 -0.1120  0.3777
  394MOL0     C54248   1.918   8.417   5.909 -0.4675  0.3228  0.1398
  394MOL0     C54249   2.059   8.359   5.899  1.0117  0.5130  0.7706
  394MOL0     C54250   2.084   8.252   6.008  0.4052  0.2937 -0.3254
  394MOL0     N54251   2.217   8.196   6.008 -0.2586  0.1903 -0.0010
  394MOL0     C54252   2.310   8.227   6.099  0.0852 -0.5639  0.8882
  394MOL0     C54253   2.422   8.155   6.066 -0.6965 -0.3820  0.3734
  394MOL0     C54254   2.557   8.177   6.127 -0.5049 -0.5558  0.0177
  394MOL0     C54255   2.630   8.261   6.022 -0.7966 -0.1713  0.5655
  394MOL0     C54256   2.767   8.304   6.066 -0.2267 -0.7922 -0.9207
  394MOL0     C54257   2.861   8.395   5.981  0.0021 -0.2817 -0.1446
  394MOL0     O54258   2.972   8.445   6.055 -0.9530  0.5077 -0.2608
  394MOL0     C54259   3.057   8.352   6.099  0.0921  0.3483 -0.0631
  394MOL0     C54260   3.059   8.322   6.234  0.0747  0.0008  0.7814
  394MOL0     C54261   3.149   8.224   6.275  0.4320 -0.6751  0.2006
  394MOL0     C54262   3.131   8.203   6.424  0.5520  0.0399 -0.7482
  394MOL0     C54263   3.247   8.161   6.187  1.0206 -0.9680  0.7445
  394MOL0     C54264   3.338   8.059   6.240  0.0353  0.0320 -0.7260
  394MOL0     O54265   3.282   7.952   6.297  0.4941  0.3159  0.1159
  394MOL0     C54266   3.351   7.840   6.330 -0.1672 -1.1428  0.1542
  394MOL0     C54267   3.475   7.794   6.283 -0.0137  0.0362  0.5628
  394MOL0     C54268   3.529   7.663   6.323  0.4098 -0.3263 -0.2312
  394MOL0     C54269   3.456   7.574   6.399  0.6530 -0.9947 -0.0714
  394MOL0     O54270   3.517   7.454   6.427  0.1906 -0.0579 -0.3593
  394MOL0     C54271   3.446   7.355   6.504  0.0935  1.0694 -0.9182
  394MOL0     C54272   3.525   7.236   6.567  0.1288  0.3043 -0.2580
  394MOL0     C54273   3.544   7.139   6.453  0.0091 -0.5218  0.2264
  394MOL0     C54274   3.635   7.033   6.513  0.4151  0.8670  0.2608
  394MOL0     C54275   3.660   6.919   6.407  0.5504  0.3790  0.1029
  394MOL0     C54276   3.753   6.811   6.472 -0.1627  0.0575  0.1557
  394MOL0     C54277   3.901   6.851   6.451  0.7157  0.6080  0.0185
  394MOL0     C54278   4.000   6.739   6.499  0.1684 -0.4251  0.2381
  394MOL0    Cl54279   3.938   6.569   6.480 -0.1994 -0.3295  0.1333
  394MOL0     C54280   3.329   7.617   6.446 -0.8364 -0.3770 -0.4537
  394MOL0     C54281   3.279   7.753   6.414 -0.7945  0.3764  0.1361
  394MOL0     O54282   3.452   8.064   6.202 -0.3395  0.3912  0.4764
  394MOL0     C54283   3.243   8.202   6.055  0.0590  0.4111  1.0249
  394MOL0     C54284   3.154   8.298   6.011  0.6310  0.6385 -0.9709
  394MOL0     N54285   2.383   8.059   5.960 -0.1189 -0.6087 -0.0304
  394MOL0     N54286   2.260   8.087   5.930  0.4016 -0.3627 -0.2109
  394MOL0     C54287   1.562   8.311   5.169 -0.3156  0.3188  0.1133
  394MOL0     C54288   1.521   8.256   5.052  0.8628  0.7580  0.6801
  394MOL0     C54289   1.586   8.122   4.617  0.4360 -0.4370  0.0553
  394MOL0     C54290   1.505   8.006   4.620  0.4085  0.5439 -0.0508
  394MOL0     C54291   1.448   7.948   4.508  1.1686  0.3198  0.4076
  394MOL0     C54292   1.478   7.985   4.377 -0.1894 -0.7005  0.1799
  394MOL0     O54293   1.425   7.929   4.264 -0.3901 -0.2291 -0.5916
  394MOL0     C54294   1.475   7.799   4.232 -0.3231 -0.1360 -0.1059
  394MOL0     C54295   1.389   7.761   4.102 -0.7536 -0.4907  0.0522
  394MOL0     C54296   1.463   7.630   4.055  0.1966 -0.6146 -0.0944
  394MOL0     C54297   1.402   7.591   3.921  0.2641  0.6148 -0.2773
  394MOL0     C54298   1.267   7.537   3.921  0.1904  0.0086  0.8599
  394MOL0     C54299   1.160   7.482   3.900 -0.7560 -0.5130 -0.3696
  394MOL0     C54300   1.558   8.101   4.370 -0.3965 -0.8765 -0.1814
  394MOL0     C54301   1.606   8.170   4.489 -0.2327  1.0402  0.3081
  394MOL0     C54302   1.677   8.300   4.454  0.7175  1.0170 -0.1697
  394MOL0     H54303   1.835   8.146   4.946  0.5932  0.9205  0.2212
  394MOL0     H54304   1.889   8.222   5.156  0.5387  0.7348 -1.9767
  394MOL0     H54305   1.614   8.475   5.427  1.9260  1.0162  2.7331
  394MOL0     H54306   1.690   8.530   5.280  2.6128 -1.5724 -0.9565
  394MOL0     H54307   1.902   8.530   5.393 -1.1583  0.8022 -1.7036
  394MOL0     H54308   1.769   8.633   5.460 -2.2830 -1.3017 -1.8787
  394MOL0     H54309   1.726   8.492   5.642  0.4354 -1.8912  0.2489
  394MOL0     H54310   1.852   8.379   5.618  2.1534 -0.3936 -0.2942
  394MOL0     H54311   2.023   8.518   5.680  1.1460  2.1060  1.4370
  394MOL0     H54312   1.941   8.665   5.655  0.9427  0.2059  2.3580
  394MOL0     H54313   1.797   8.588   5.879 -0.1770 -0.8657  1.2476
  394MOL0     H54314   1.965   8.615   5.901 -0.1357 -0.3206  0.5941
  394MOL0     H54315   1.898   8.424   6.016  2.7689  0.9116  0.8294
  394MOL0     H54316   1.849   8.346   5.862  1.6599 -1.3987 -0.5612
  394MOL0     H54317   2.131   8.438   5.922  1.5300 -0.1960  1.6503
  394MOL0     H54318   2.084   8.320   5.800  1.9511 -2.1794  1.9692
  394MOL0     H54319   2.060   8.295   6.106  0.6908 -0.2275 -0.0214
  394MOL0     H54320   2.013   8.170   5.993 -0.0328  0.6273 -0.1004
  394MOL0     H54321   2.298   8.308   6.170  1.3704 -0.8269  1.4355
  394MOL0     H54322   2.624   8.092   6.143  0.2781 -0.5557 -2.8504
  394MOL0     H54323   2.540   8.226   6.224 -0.3817 -1.9291  0.7600
  394MOL0     H54324   2.646   8.205   5.930  1.3576 -2.3265  2.1201
  394MOL0     H54325   2.567   8.347   5.999 -2.2643 -2.0416 -3.2462
  394MOL0     H54326   2.772   8.352   6.164  3.0457 -0.5551 -1.1087
  394MOL0     H54327   2.823   8.211   6.073  0.7292 -0.1747 -0.2614
  394MOL0     H54328   2.898   8.330   5.901  1.0738 -0.8425  0.7945
  394MOL0     H54329   2.804   8.482   5.948  3.7868  1.8468 -1.7141
  394MOL0     H54330   2.997   8.388   6.294  2.5775  2.0251  1.3085
  394MOL0     H54331   3.109   8.097   6.441  0.4631  0.2238  0.3086
  394MOL0     H54332   3.067   8.281   6.465 -0.7550  1.2701 -4.6861
  394MOL0     H54333   3.226   8.219   6.477 -1.5278 -1.4783  3.9724
  394MOL0     H54334   3.545   7.848   6.221  0.0097 -0.1526  0.4228
  394MOL0     H54335   3.628   7.645   6.282 -0.3838  0.7804 -2.8714
  394MOL0     H54336   3.393   7.414   6.580 -0.6837  1.5108 -1.7768
  394MOL0     H54337   3.364   7.311   6.446 -1.2514  1.1056  0.8623
  394MOL0     H54338   3.622   7.260   6.610  1.3430 -0.8296 -2.2195
  394MOL0     H54339   3.468   7.181   6.642 -1.9535 -0.1210 -2.0564
  394MOL0     H54340   3.602   7.179   6.370 -0.7338  2.7176  1.1328
  394MOL0     H54341   3.447   7.119   6.407  0.2296  1.4386 -1.2136
  394MOL0     H54342   3.598   6.992   6.607 -2.9844  0.8073 -0.9462
  394MOL0     H54343   3.732   7.071   6.545  1.3953 -1.7519  0.6266
  394MOL0     H54344   3.559   6.882   6.383 -0.6336  2.8866  0.8727
  394MOL0     H54345   3.710   6.959   6.318  2.4777 -1.6744  0.1834
  394MOL0     H54346   3.725   6.711   6.437 -0.9323  0.7707 -1.3293
  394MOL0     H54347   3.739   6.806   6.580  2.3597 -0.4457  0.5404
  394MOL0     H54348   3.929   6.950   6.487 -4.3885  1.2736  3.2194
  394MOL0     H54349   3.911   6.848   6.342  3.2883  1.0945  0.1775
  394MOL0     H54350   4.019   6.755   6.606  0.0632 -1.1848  0.3742
  394MOL0     H54351   4.096   6.751   6.449 -0.9471 -0.7795 -2.0883
  394MOL0     H54352   3.259   7.550   6.495  0.6981 -0.8970  1.1487
  394MOL0     H54353   3.175   7.772   6.441 -0.7578  2.7481 -1.1499
  394MOL0     H54354   3.310   8.149   5.988  0.6156  0.9370  1.1555
  394MOL0     H54355   3.156   8.333   5.908 -0.1273 -2.1594 -2.0348
  394MOL0     H54356   1.482   8.350   5.231 -4.2758 -2.6464 -2.6760
  394MOL0     H54357   1.425   8.282   5.008  0.6624 -0.3130  0.4549
  394MOL0     H54358   1.474   7.957   4.711 -1.3843  3.7367  1.2174
  394MOL0     H54359   1.386   7.859   4.513 -0.9188  1.4057 -3.0360
  394MOL0     H54360   1.583   7.794   4.217 -0.6091 -1.2894 -2.2091
  394MOL0     H54361   1.444   7.723   4.304 -0.3419 -1.5044 -1.5122
  394MOL0     H54362   1.415   7.845   4.036  0.6150 -0.6271  0.3782
  394MOL0     H54363   1.282   7.746   4.117 -0.8014 -2.1262 -1.5145
  394MOL0     H54364   1.571   7.651   4.052 -0.0496  0.6669 -0.8642
  394MOL0     H54365   1.461   7.542   4.119 -1.3462 -0.4909  0.0574
  394MOL0     H54366   1.469   7.520   3.872 -1.0373 -0.5816 -0.3731
  394MOL0     H54367   1.399   7.681   3.858 -1.3133  0.9526  0.2387
  394MOL0     H54368   1.066   7.437   3.876 -0.8877 -1.2636  1.4419
  394MOL0     H54369   1.572   8.151   4.275 -2.6874  0.1587 -0.0441
  394MOL0     H54370   1.775   8.306   4.503 -0.2122 -0.8859  2.1040
  394MOL0     H54371   1.694   8.309   4.346 -0.5577  0.6497 -0.4111
  394MOL0     H54372   1.617   8.383   4.491 -0.2499 -0.2678  1.2599
  395MOL0     O54373   1.935   1.198   8.708 -0.4863 -0.5025 -0.4509
  395MOL0     C54374   1.818   1.251   8.713 -0.5955  0.0436  0.2596
  395MOL0     O54375   1.744   1.303   8.604  0.7090  0.2948  0.0783
  395MOL0     C54376   1.795   1.285   8.477 -0.7166 -0.4544  0.5889
  395MOL0     C54377   1.872   1.403   8.433  0.0691 -0.7696  0.5220
  395MOL0     C54378   1.929   1.394   8.307  0.1442  0.3260  0.0878
  395MOL0     C54379   1.903   1.279   8.216 -0.5365 -0.7775 -0.2875
  395MOL0     O54380   1.946   1.273   8.086  0.3537 -0.1486 -0.6827
  395MOL0     C54381   2.068   1.341   8.063  0.4336 -0.2284  0.6666
  395MOL0     C54382   2.140   1.269   7.945  0.3457  0.1764  0.1030
  395MOL0     C54383   2.259   1.358   7.905 -0.3350 -0.7412 -0.5569
  395MOL0     C54384   2.302   1.346   7.763 -0.4678  0.2001  0.0954
  395MOL0     C54385   2.438   1.419   7.742 -0.2607  0.7528  0.0879
  395MOL0     C54386   2.501   1.399   7.595  0.0585  0.6703 -0.1433
  395MOL0     C54387   2.639   1.469   7.600  0.2593 -0.0700 -0.4359
  395MOL0     C54388   2.726   1.430   7.485  0.3004 -0.4831 -0.0530
  395MOL0     N54389   2.861   1.505   7.486 -0.7322 -2.1071 -0.0313
  395MOL0     C54390   2.869   1.637   7.438  1.2292  1.1293  0.4590
  395MOL0     C54391   3.006   1.656   7.431  0.3241 -0.4553  1.0167
  395MOL0     C54392   3.064   1.790   7.391  0.1503  0.8177  0.8613
  395MOL0     C54393   3.151   1.836   7.509 -0.1300  1.3589  1.0767
  395MOL0     C54394   3.068   1.850   7.636 -0.7790 -0.7832 -0.1429
  395MOL0     C54395   3.161   1.852   7.753  0.6598  0.5809  0.2052
  395MOL0     O54396   3.056   1.865   7.854  0.2729 -0.7251 -0.2997
  395MOL0     C54397   3.066   1.783   7.958  0.0087 -0.1353  0.6754
  395MOL0     C54398   3.009   1.656   7.954 -0.0570  0.2327 -0.2573
  395MOL0     C54399   3.007   1.575   8.072  0.6897 -0.2305  0.6245
  395MOL0     C54400   2.948   1.442   8.052 -0.7499  1.0478 -0.1314
  395MOL0     C54401   3.089   1.617   8.179 -0.0708 -0.4136  0.0322
  395MOL0     C54402   3.109   1.545   8.302  0.7487  0.2391 -0.1857
  395MOL0     O54403   3.097   1.611   8.421 -0.4925  0.5087  0.2169
  395MOL0     C54404   3.115   1.533   8.537 -0.7249  0.2145 -0.3067
  395MOL0     C54405   3.189   1.594   8.637 -0.6508 -0.0782  0.0053
  395MOL0     C54406   3.207   1.535   8.757 -0.2073  0.8740  0.6223
  395MOL0     C54407   3.153   1.406   8.782 -0.2066  0.1136  0.1917
  395MOL0     O54408   3.163   1.337   8.898 -0.4009 -0.0578 -0.1286
  395MOL0     C54409   3.266   1.240   8.882  0.2474 -0.4214  0.5951
  395MOL0     C54410   3.252   1.128   8.989  0.8970 -0.4246  0.3154
  395MOL0     C54411   3.114   1.056   8.978 -0.6671  0.4230  0.4552
  395MOL0     C54412   3.125   0.926   9.050 -0.2106 -0.7923  0.2324
  395MOL0     C54413   2.988   0.875   9.090 -0.0361  1.2974  0.0805
  395MOL0     C54414   2.993   0.733   9.142  1.1732  0.5471 -0.0431
  395MOL0     C54415   2.850   0.680   9.112  0.4267 -0.1296 -0.3050
  395MOL0     C54416   2.827   0.549   9.183  0.0100 -0.6196  0.1575
  395MOL0    Cl54417   2.891   0.415   9.085  0.4927 -0.3197 -0.0960
  395MOL0     C54418   3.076   1.338   8.681  0.4714  0.3231  0.6201
  395MOL0     C54419   3.065   1.400   8.563  0.3232 -0.0908  0.9124
  395MOL0     O54420   3.122   1.426   8.292 -0.0849  0.3321  0.3332
  395MOL0     C54421   3.151   1.735   8.178 -0.2801 -0.3127 -0.7457
  395MOL0     C54422   3.136   1.821   8.064  0.4584  1.0577  0.1579
  395MOL0     N54423   3.071   1.546   7.483 -0.4977  0.1904 -0.1403
  395MOL0     N54424   2.984   1.460   7.520 -0.7232 -0.1302 -0.5709
  395MOL0     C54425   1.810   1.177   8.262  0.1769 -0.1829 -0.5152
  395MOL0     C54426   1.768   1.177   8.395 -0.6977  0.5359  0.0234
  395MOL0     C54427   1.749   1.266   8.848  0.2878 -0.3576  0.1397
  395MOL0     C54428   1.615   1.296   8.861 -0.8321 -0.1939 -0.5664
  395MOL0     C54429   1.541   1.299   8.981 -0.6453  0.6565 -0.1196
  395MOL0     C54430   1.601   1.249   9.095  0.9516 -0.2065 -0.1208
  395MOL0     O54431   1.544   1.239   9.225  0.0468 -0.0293  0.3876
  395MOL0     C54432   1.403   1.265   9.237  0.4430 -0.0012  0.0629
  395MOL0     C54433   1.321   1.148   9.178 -0.6455 -0.3129  0.2312
  395MOL0     C54434   1.202   1.114   9.272 -0.2636 -0.6161 -0.3803
  395MOL0     C54435   1.077   1.211   9.275 -0.9227 -0.5909  0.4852
  395MOL0     C54436   0.983   1.181   9.383 -0.3228  0.3881  0.7741
  395MOL0     C54437   0.923   1.182   9.485  1.2780 -0.5039 -0.3196
  395MOL0     C54438   1.734   1.219   9.089  0.5051 -0.3310  0.0159
  395MOL0     C54439   1.815   1.227   8.974 -0.5047  0.9554 -0.2521
  395MOL0     C54440   1.959   1.205   8.988 -0.2364 -1.4259 -0.5751
  395MOL0     H54441   1.883   1.488   8.499  0.3975 -0.6764  0.3507
  395MOL0     H54442   1.983   1.479   8.268 -0.4662  0.0555 -1.3904
  395MOL0     H54443   2.136   1.333   8.148 -0.5553  0.5372  1.5670
  395MOL0     H54444   2.048   1.447   8.042  0.9504 -0.2522  0.0101
  395MOL0     H54445   2.181   1.176   7.987 -3.0236 -2.0902 -1.1846
  395MOL0     H54446   2.066   1.255   7.866 -2.6669  2.9996  2.1549
  395MOL0     H54447   2.246   1.463   7.935  3.0359 -0.7500  1.4653
  395MOL0     H54448   2.343   1.324   7.966 -1.0620  1.9893  2.2009
  395MOL0     H54449   2.320   1.241   7.736 -0.5331  0.3510 -0.5411
  395MOL0     H54450   2.223   1.388   7.701  0.7417 -0.5746 -2.0842
  395MOL0     H54451   2.505   1.370   7.813  1.5821 -1.4743 -2.9517
  395MOL0     H54452   2.435   1.527   7.759 -0.9559  0.4251  2.4671
  395MOL0     H54453   2.511   1.293   7.571 -0.9985  0.7141 -0.8801
  395MOL0     H54454   2.432   1.435   7.518  0.7819  3.5273  0.4187
  395MOL0     H54455   2.680   1.450   7.700 -1.8720 -0.0109  0.4894
  395MOL0     H54456   2.636   1.578   7.596  0.3025 -0.0056  0.8795
  395MOL0     H54457   2.756   1.325   7.489 -3.8133 -1.8345  0.3169
  395MOL0     H54458   2.673   1.458   7.393  1.4235  0.3147 -0.4875
  395MOL0     H54459   2.797   1.714   7.412 -0.6032 -1.1236 -1.6565
  395MOL0     H54460   2.989   1.870   7.387  0.1090  0.7382 -1.7424
  395MOL0     H54461   3.117   1.790   7.296 -1.9123  1.2377 -0.3532
  395MOL0     H54462   3.229   1.760   7.520 -3.4901 -2.2781  2.0775
  395MOL0     H54463   3.195   1.935   7.492 -1.4155  2.3101  2.9146
  395MOL0     H54464   3.018   1.947   7.633  2.2290  1.1700  3.6379
  395MOL0     H54465   2.994   1.770   7.644  0.5594 -2.4156 -2.7485
  395MOL0     H54466   3.219   1.760   7.769  0.7184  0.7906  1.2835
  395MOL0     H54467   3.231   1.936   7.760  0.9241  0.2742  1.5154
  395MOL0     H54468   2.972   1.624   7.857  3.2307  0.7191 -1.8059
  395MOL0     H54469   2.890   1.437   7.959  0.0062 -1.3489 -0.5343
  395MOL0     H54470   2.880   1.420   8.135 -0.6396  0.0063 -0.3031
  395MOL0     H54471   3.022   1.362   8.053 -0.3765  1.2512  3.6380
  395MOL0     H54472   3.244   1.684   8.612  0.0074  0.1252  1.9523
  395MOL0     H54473   3.267   1.579   8.836  3.3373  0.7269 -1.7541
  395MOL0     H54474   3.272   1.197   8.782  0.0098 -1.5329  1.0434
  395MOL0     H54475   3.362   1.289   8.899 -0.1137  1.3788 -2.0327
  395MOL0     H54476   3.321   1.045   8.976  1.1464 -0.7301  3.1760
  395MOL0     H54477   3.254   1.167   9.091 -2.2322  2.0495 -0.3860
  395MOL0     H54478   3.098   1.030   8.873 -0.8483 -1.4450  0.8998
  395MOL0     H54479   3.028   1.113   9.014 -0.6314  1.4225 -0.9626
  395MOL0     H54480   3.192   0.932   9.137  0.1493  2.5354 -0.1258
  395MOL0     H54481   3.166   0.860   8.972  0.3915  0.2166 -0.3264
  395MOL0     H54482   2.937   0.942   9.160  1.1042  0.8444  1.4034
  395MOL0     H54483   2.925   0.879   9.001 -3.2913 -0.5020  2.1201
  395MOL0     H54484   3.021   0.739   9.247 -0.3890  0.7071  0.3931
  395MOL0     H54485   3.069   0.677   9.086  1.7094  1.1514  0.0802
  395MOL0     H54486   2.823   0.672   9.006  0.9894 -1.2112 -0.3880
  395MOL0     H54487   2.778   0.746   9.161 -1.5924 -1.2115 -1.6763
  395MOL0     H54488   2.720   0.532   9.192  0.1270 -0.5080  2.1312
  395MOL0     H54489   2.870   0.549   9.284  1.2030  2.0674 -0.2607
  395MOL0     H54490   3.051   1.234   8.704  2.0309 -0.4419 -0.9116
  395MOL0     H54491   3.021   1.356   8.474 -1.1134  0.4561  1.3290
  395MOL0     H54492   3.206   1.764   8.266 -2.0822  1.9790 -0.3007
  395MOL0     H54493   3.176   1.921   8.063  0.1439  1.1933  0.6948
  395MOL0     H54494   1.773   1.112   8.183 -3.2072  1.4802 -0.4852
  395MOL0     H54495   1.703   1.095   8.425 -1.1627 -0.0630 -2.4030
  395MOL0     H54496   1.556   1.332   8.777 -2.0408  0.7197  0.6276
  395MOL0     H54497   1.434   1.321   8.982 -0.3043  2.6252  1.7884
  395MOL0     H54498   1.377   1.278   9.342 -1.8253  1.2766 -0.5811
  395MOL0     H54499   1.378   1.362   9.192  2.4335 -0.4689 -2.2627
  395MOL0     H54500   1.376   1.056   9.160 -0.7806  0.0301 -2.2417
  395MOL0     H54501   1.276   1.185   9.085 -4.4007  0.2109  2.0785
  395MOL0     H54502   1.152   1.023   9.237  2.2484 -1.1384 -3.0262
  395MOL0     H54503   1.238   1.087   9.371 -0.6936 -0.9327 -0.3041
  395MOL0     H54504   1.028   1.201   9.178 -2.3708  1.1779  0.9783
  395MOL0     H54505   1.098   1.317   9.289 -2.9123  0.1917 -1.7836
  395MOL0     H54506   0.876   1.168   9.580  0.3443 -1.3818 -0.8981
  395MOL0     H54507   1.783   1.190   9.181 -2.0569 -2.4533  0.8193
  395MOL0     H54508   2.016   1.274   8.926 -1.1464  1.0853  1.2342
  395MOL0     H54509   1.991   1.203   9.092  2.8697  1.0899 -1.3316
  395MOL0     H54510   1.989   1.103   8.960  0.4581 -1.0500 -1.2301
  396MOL0     O54511   8.662  10.219   2.617  0.0081 -0.4254  0.3196
  396MOL0     C54512   8.647  10.309   2.527  0.2108  0.6786  0.6200
  396MOL0     O54513   8.739  10.397   2.493 -0.0819 -0.0205  0.5257
  396MOL0     C54514   8.863  10.382   2.543  0.6412  0.8884 -0.3620
  396MOL0     C54515   8.959  10.295   2.490  0.2250 -0.1184  1.0026
  396MOL0     C54516   9.084  10.284   2.537 -0.3900  0.0506 -0.1268
  396MOL0     C54517   9.126  10.367   2.642 -0.5488  0.1452  0.3238
  396MOL0     O54518   9.251  10.374   2.699  0.1621 -0.2178 -0.5896
  396MOL0     C54519   9.346  10.275   2.648  0.6863  0.6347  0.0209
  396MOL0     C54520   9.471  10.286   2.732  0.1683  0.2321  0.7361
  396MOL0     C54521   9.472  10.202   2.863 -1.2099 -0.1452 -0.2409
  396MOL0     C54522   9.599  10.247   2.938 -0.0173  0.4425 -0.8260
  396MOL0     C54523   9.603  10.168   3.066  0.0441  0.2218 -0.2824
  396MOL0     C54524   9.708  10.219   3.156 -0.2824  0.1128  1.1784
  396MOL0     C54525   9.729  10.118   3.268 -0.0109  0.0353  0.1385
  396MOL0     C54526   9.794  10.173   3.399 -0.6971 -0.0268  0.6746
  396MOL0     N54527   9.932  10.233   3.392  0.1125  0.5915  0.4775
  396MOL0     C54528   9.957  10.358   3.356  0.3508 -0.5928 -0.7486
  396MOL0     C54529  10.092  10.367   3.336 -0.5068 -0.0201 -0.5030
  396MOL0     C54530  10.176  10.491   3.306 -0.0287 -1.3623 -0.5681
  396MOL0     C54531  10.323  10.492   3.334  0.7579 -0.9445 -0.0981
  396MOL0     C54532  10.401  10.403   3.245  0.6303  0.2030  0.2977
  396MOL0     C54533  10.546  10.438   3.262  0.5701  0.3692  0.4166
  396MOL0     O54534  10.567  10.581   3.277  0.3429  0.2379 -0.8031
  396MOL0     C54535  10.694  10.612   3.309 -0.1286  0.1506  0.1772
  396MOL0     C54536  10.716  10.707   3.404  0.4660  0.3720 -0.4843
  396MOL0     C54537  10.844  10.729   3.452  0.3600  0.3536 -0.1052
  396MOL0     C54538  10.844  10.789   3.585  0.3731  0.5360 -0.2898
  396MOL0     C54539  10.955  10.688   3.376  0.4360 -0.1723 -0.5977
  396MOL0     C54540  11.100  10.720   3.417 -0.9627  0.6359  0.3669
  396MOL0     O54541  11.196  10.674   3.330 -0.4403 -0.7095 -0.0122
  396MOL0     C54542  11.327  10.691   3.364 -0.3696 -0.1505 -0.0944
  396MOL0     C54543  11.384  10.823   3.349 -1.2973  0.3052  0.0097
  396MOL0     C54544  11.529  10.834   3.392  0.5349 -0.7773 -0.0535
  396MOL0     C54545  11.600  10.730   3.442 -0.9014 -0.2343 -0.6497
  396MOL0     O54546  11.735  10.746   3.427  0.1009  0.5559 -0.6000
  396MOL0     C54547  11.807  10.634   3.391 -0.7552  0.2388  0.4645
  396MOL0     C54548  11.781  10.573   3.249  0.0799  0.2633 -0.6690
  396MOL0     C54549  11.887  10.486   3.184  0.0815 -0.5814  0.1308
  396MOL0     C54550  11.923  10.378   3.281 -0.5566  0.3068 -0.3572
  396MOL0     C54551  12.028  10.275   3.234 -0.9724 -0.2153  0.3539
  396MOL0     C54552  12.042  10.169   3.342  0.0226  0.4554 -0.2855
  396MOL0     C54553  12.124  10.039   3.316  0.0053 -0.7938 -0.1671
  396MOL0     C54554  12.079   9.905   3.385  0.2216 -0.4190 -0.5625
  396MOL0    Cl54555  11.944   9.834   3.286  0.1052  0.2123 -0.4203
  396MOL0     C54556  11.532  10.608   3.453  0.3627 -0.4456  0.1326
  396MOL0     C54557  11.400  10.591   3.419  1.6138  0.0054  0.2708
  396MOL0     O54558  11.126  10.784   3.520 -0.3483  0.3074  0.0216
  396MOL0     C54559  10.932  10.616   3.258  0.6044  0.1373  0.1436
  396MOL0     C54560  10.803  10.576   3.228  0.6209  0.4747 -0.3058
  396MOL0     N54561  10.144  10.241   3.367 -0.4474  0.1471 -0.7197
  396MOL0     N54562  10.049  10.162   3.403 -0.0912  1.0743 -0.2981
  396MOL0     C54563   9.036  10.464   2.694 -0.7652  0.8415 -0.1389
  396MOL0     C54564   8.906  10.474   2.644 -0.6898 -0.7206 -0.0478
  396MOL0     C54565   8.518  10.315   2.451 -0.6544 -0.5568 -0.1529
  396MOL0     C54566   8.411  10.324   2.537 -0.4925 -0.2992  0.3054
  396MOL0     C54567   8.282  10.356   2.486 -0.6999 -0.7546  0.4657
  396MOL0     C54568   8.268  10.405   2.357  0.2994 -1.0538 -0.4245
  396MOL0     O54569   8.152  10.457   2.306  0.4959  0.8596  0.4361
  396MOL0     C54570   8.156  10.534   2.183  0.0378 -0.2595  0.4724
  396MOL0     C54571   8.022  10.583   2.153  0.5365 -0.3189 -0.4524
  396MOL0     C54572   7.929  10.466   2.117  0.2876 -0.4985 -0.6579
  396MOL0     C54573   7.807  10.516   2.044  0.3094 -0.0750  0.4020
  396MOL0     C54574   7.723  10.397   2.014 -0.0086 -0.3788  0.0652
  396MOL0     C54575   7.647  10.302   2.003 -0.5451  0.1992 -0.5076
  396MOL0     C54576   8.385  10.400   2.276  0.3987 -0.2823  0.5742
  396MOL0     C54577   8.507  10.352   2.321 -0.3384  0.5982 -0.2525
  396MOL0     C54578   8.628  10.369   2.232 -0.1685 -0.6781 -0.6894
  396MOL0     H54579   8.920  10.217   2.425  1.9193 -1.1008  1.1063
  396MOL0     H54580   9.149  10.220   2.478  1.8933  0.7807  1.4786
  396MOL0     H54581   9.369  10.283   2.541 -1.8593  1.6833 -0.5331
  396MOL0     H54582   9.317  10.173   2.674  2.4854 -0.4926 -2.0630
  396MOL0     H54583   9.553  10.239   2.677 -0.6411 -0.8528  0.4123
  396MOL0     H54584   9.493  10.391   2.755  3.1102 -0.0271 -0.5061
  396MOL0     H54585   9.382  10.230   2.919  0.3303  3.0883  0.8413
  396MOL0     H54586   9.466  10.096   2.834 -3.9899  1.0099 -5.0579
  396MOL0     H54587   9.684  10.221   2.875  0.7965  1.5057 -0.2015
  396MOL0     H54588   9.604  10.355   2.958  4.5061  0.3053 -0.2036
  396MOL0     H54589   9.626  10.066   3.035 -1.3612  0.3151 -1.8465
  396MOL0     H54590   9.503  10.164   3.111  0.1831 -3.7071  0.0023
  396MOL0     H54591   9.800  10.234   3.099 -1.0979  1.4450  0.1860
  396MOL0     H54592   9.688  10.321   3.190 -0.2044  0.7654 -0.6289
  396MOL0     H54593   9.790  10.040   3.223  0.6366  1.3626 -1.3676
  396MOL0     H54594   9.630  10.079   3.294  0.8665 -1.0042  2.1103
  396MOL0     H54595   9.715  10.232   3.445 -2.0044 -1.1200 -0.0943
  396MOL0     H54596   9.813  10.092   3.471  1.0337  0.1964  0.5071
  396MOL0     H54597   9.881  10.435   3.362 -0.5938 -1.5789  3.0488
  396MOL0     H54598  10.139  10.569   3.374  2.3191 -1.0299  0.4280
  396MOL0     H54599  10.176  10.518   3.200  0.1540 -1.6339 -0.6374
  396MOL0     H54600  10.347  10.598   3.321  0.6615 -1.1026 -1.7766
  396MOL0     H54601  10.347  10.466   3.438  0.0053  0.0440  0.3374
  396MOL0     H54602  10.388  10.299   3.277 -0.4671 -0.4419 -2.0580
  396MOL0     H54603  10.362  10.410   3.143 -3.4658 -1.3096  1.5694
  396MOL0     H54604  10.583  10.390   3.353  2.1107 -0.7121 -0.7246
  396MOL0     H54605  10.601  10.385   3.184  0.7775  0.8687  0.2214
  396MOL0     H54606  10.637  10.760   3.456  2.3024  0.5465  2.3731
  396MOL0     H54607  10.746  10.802   3.632 -0.5882 -2.7323 -1.1214
  396MOL0     H54608  10.892  10.887   3.576  0.8042  0.4898  1.2340
  396MOL0     H54609  10.901  10.730   3.657 -0.0335 -0.7978 -1.0302
  396MOL0     H54610  11.336  10.910   3.306 -0.2183 -0.4008 -2.8980
  396MOL0     H54611  11.577  10.932   3.386  0.9838 -0.6572  3.3354
  396MOL0     H54612  11.912  10.661   3.403 -0.6453  0.0027  0.0574
  396MOL0     H54613  11.793  10.558   3.469  1.2890 -0.1801  0.4580
  396MOL0     H54614  11.692  10.510   3.261  0.8207 -0.9935 -1.5527
  396MOL0     H54615  11.748  10.650   3.180  3.3572  0.8319 -1.7347
  396MOL0     H54616  11.980  10.538   3.162  0.5505 -0.7588  1.5905
  396MOL0     H54617  11.846  10.444   3.091  1.6522  0.5753 -1.1159
  396MOL0     H54618  11.836  10.318   3.307 -1.4079  1.1712 -1.1304
  396MOL0     H54619  11.958  10.424   3.375  1.3739 -0.8924 -0.4347
  396MOL0     H54620  12.014  10.231   3.135  3.6613  0.6703 -0.9551
  396MOL0     H54621  12.127  10.322   3.227 -0.4461 -1.2768  0.4909
  396MOL0     H54622  11.938  10.142   3.363 -0.2233  1.0977 -0.6595
  396MOL0     H54623  12.078  10.217   3.433  1.4039 -0.9651 -0.0324
  396MOL0     H54624  12.222  10.073   3.350 -0.0411 -0.1392 -0.6781
  396MOL0     H54625  12.135  10.018   3.210 -0.7831 -1.3105 -0.1590
  396MOL0     H54626  12.048   9.925   3.488 -0.2784 -2.5274 -0.2555
  396MOL0     H54627  12.162   9.834   3.385  0.6010  0.0001  0.4110
  396MOL0     H54628  11.572  10.512   3.486 -0.0032 -0.4191  0.6694
  396MOL0     H54629  11.355  10.493   3.418  2.6347 -0.4698 -0.3889
  396MOL0     H54630  11.020  10.576   3.208  0.1938 -0.2535 -0.2885
  396MOL0     H54631  10.787  10.504   3.148  0.9656 -0.3481  0.3561
  396MOL0     H54632   9.055  10.520   2.785  2.0244  0.7300 -0.5760
  396MOL0     H54633   8.835  10.550   2.674  0.2809 -0.2724  1.2364
  396MOL0     H54634   8.416  10.298   2.643  1.6474 -2.3381 -0.1982
  396MOL0     H54635   8.191  10.352   2.543 -1.7555  0.5488 -1.0370
  396MOL0     H54636   8.231  10.613   2.185  1.7841 -1.7954 -0.9757
  396MOL0     H54637   8.195  10.471   2.103 -1.1639  1.4333 -1.5456
  396MOL0     H54638   8.035  10.646   2.065  4.6460  0.4232  0.4657
  396MOL0     H54639   7.958  10.627   2.230  0.8805 -2.5356  1.2091
  396MOL0     H54640   7.975  10.382   2.064 -1.0230 -1.0485 -0.9815
  396MOL0     H54641   7.905  10.423   2.215 -1.9837 -1.8812 -1.7138
  396MOL0     H54642   7.834  10.548   1.943 -0.5722 -1.1317 -0.1979
  396MOL0     H54643   7.749  10.592   2.096 -0.4740 -1.1790  1.1857
  396MOL0     H54644   7.602  10.205   1.998  0.0542 -0.2153  1.3856
  396MOL0     H54645   8.382  10.442   2.176 -0.6133  1.4760  1.2974
  396MOL0     H54646   8.691  10.452   2.266  0.7287 -0.8285 -1.9166
  396MOL0     H54647   8.691  10.280   2.224  0.7250  0.0870 -3.0321
  396MOL0     H54648   8.591  10.380   2.129 -1.5348  1.2271 -0.0450
  397MOL0     O54649  10.694   9.943   5.452  0.7050  0.4786  0.3595
  397MOL0     C54650  10.632   9.975   5.549  0.6280 -0.5036  0.7986
  397MOL0     O54651  10.561   9.883   5.632  0.2034 -0.8069 -0.3941
  397MOL0     C54652  10.565   9.759   5.589 -0.2069  0.2634 -0.2117
  397MOL0     C54653  10.684   9.686   5.588  0.2273  0.6344  1.3412
  397MOL0     C54654  10.684   9.553   5.540  0.7819 -0.7358  0.2412
  397MOL0     C54655  10.561   9.483   5.513  0.1452  0.7627 -0.2709
  397MOL0     O54656  10.556   9.350   5.464  0.0081  0.6058 -0.4165
  397MOL0     C54657  10.434   9.293   5.412  0.2805 -0.0703 -0.2023
  397MOL0     C54658  10.465   9.168   5.334  0.0426  1.2684 -0.4592
  397MOL0     C54659  10.525   9.051   5.413  1.1084  0.5509 -0.9629
  397MOL0     C54660  10.430   8.926   5.408 -0.2637 -0.6850 -0.4974
  397MOL0     C54661  10.303   8.954   5.492  0.4853 -0.1910  0.6681
  397MOL0     C54662  10.321   8.909   5.633  0.7272  0.2474  0.0633
  397MOL0     C54663  10.191   8.940   5.707 -0.2106  0.5574 -0.1931
  397MOL0     C54664  10.211   8.905   5.855  0.7768  0.6698 -0.3982
  397MOL0     N54665  10.082   8.912   5.919 -0.2127 -0.9343 -0.1428
  397MOL0     C54666  10.016   8.799   5.957  0.2410  0.2265 -0.4485
  397MOL0     C54667   9.923   8.858   6.035  0.3565  0.0451  0.0587
  397MOL0     C54668   9.822   8.775   6.106 -0.1061 -0.3474 -0.2264
  397MOL0     C54669   9.688   8.785   6.025 -0.3136 -0.2733  0.3861
  397MOL0     C54670   9.576   8.691   6.063 -0.8052  0.6370  0.4096
  397MOL0     C54671   9.600   8.536   6.039  0.5278 -0.6000  1.3166
  397MOL0     O54672   9.653   8.506   5.900 -0.1585 -0.9055  0.7250
  397MOL0     C54673   9.734   8.394   5.898  0.0497  0.3136  0.6496
  397MOL0     C54674   9.700   8.270   5.941 -0.3339 -0.6992  0.4211
  397MOL0     C54675   9.783   8.162   5.937  0.5663  0.3907  0.2566
  397MOL0     C54676   9.730   8.040   6.008  0.4167 -0.7559  0.9319
  397MOL0     C54677   9.909   8.165   5.866 -0.0840 -0.0615  0.3482
  397MOL0     C54678   9.998   8.050   5.833  0.4910 -0.1879 -1.1650
  397MOL0     O54679  10.098   8.068   5.736 -0.2534 -0.0238  0.2932
  397MOL0     C54680  10.216   7.999   5.766  0.6154  0.2184 -0.2536
  397MOL0     C54681  10.330   8.072   5.810  1.0292  0.1097  1.6239
  397MOL0     C54682  10.456   8.009   5.831  0.1682 -0.1990  0.7758
  397MOL0     C54683  10.468   7.866   5.807  0.6053  0.3850  0.5318
  397MOL0     O54684  10.580   7.789   5.823  0.0913  0.4325 -0.5765
  397MOL0     C54685  10.679   7.858   5.908 -0.1131  0.7443  0.1590
  397MOL0     C54686  10.779   7.753   5.956  0.3527 -1.3666 -0.4163
  397MOL0     C54687  10.908   7.814   6.011 -0.6604  0.8065 -0.2863
  397MOL0     C54688  10.925   7.794   6.159  1.4362 -0.3248 -0.3735
  397MOL0     C54689  11.062   7.817   6.202 -0.4669 -0.3328 -0.8117
  397MOL0     C54690  11.072   7.884   6.337 -0.5960 -0.9762  0.0544
  397MOL0     C54691  11.200   7.846   6.418  0.2734 -0.5855 -0.2567
  397MOL0     C54692  11.199   7.933   6.548 -0.2361  0.0559  0.1206
  397MOL0    Cl54693  11.316   7.866   6.669 -0.2714  0.2925 -0.0731
  397MOL0     C54694  10.355   7.802   5.759 -0.4848 -0.2277  0.5687
  397MOL0     C54695  10.231   7.864   5.734 -0.2025  0.1139 -0.3037
  397MOL0     O54696   9.981   7.941   5.891 -0.1042  0.2154 -0.3179
  397MOL0     C54697   9.954   8.292   5.832  0.1526  0.6481  0.3723
  397MOL0     C54698   9.866   8.401   5.840  0.2445 -1.0105  0.1607
  397MOL0     N54699   9.937   8.990   6.060 -0.1805  0.2629 -0.4555
  397MOL0     N54700  10.031   9.025   5.982  0.4022  0.3746 -1.0229
  397MOL0     C54701  10.443   9.557   5.534  0.3027  1.0499 -0.5262
  397MOL0     C54702  10.448   9.693   5.572  0.7103 -0.2346 -0.0399
  397MOL0     C54703  10.639  10.123   5.586 -0.2394  0.0104 -0.2140
  397MOL0     C54704  10.561  10.181   5.685  0.0748  0.4891  0.1346
  397MOL0     C54705  10.595  10.295   5.750  0.1387 -0.3104 -0.0812
  397MOL0     C54706  10.707  10.366   5.709 -0.6496 -0.4175  0.3025
  397MOL0     O54707  10.754  10.483   5.762 -0.2933 -0.7973 -0.6580
  397MOL0     C54708  10.835  10.462   5.883  0.7454 -0.2083 -0.3172
  397MOL0     C54709  10.983  10.434   5.853 -0.4226  0.7613  0.9302
  397MOL0     C54710  11.056  10.544   5.767  0.9826  0.8818 -0.6927
  397MOL0     C54711  11.197  10.526   5.728  0.2090  0.2612 -0.3256
  397MOL0     C54712  11.241  10.405   5.655 -0.3216 -0.4990  0.2614
  397MOL0     C54713  11.258  10.309   5.584  0.1684  0.6235 -0.5605
  397MOL0     C54714  10.766  10.330   5.592  0.9014  1.0990 -0.0596
  397MOL0     C54715  10.731  10.206   5.523 -0.2572  0.0116  0.0886
  397MOL0     C54716  10.816  10.182   5.403  0.1124 -0.4385  0.4374
  397MOL0     H54717  10.780   9.733   5.607  1.5657 -1.1672 -0.5566
  397MOL0     H54718  10.777   9.502   5.518  0.5772 -1.1878  0.4208
  397MOL0     H54719  10.380   9.368   5.353 -1.7587 -0.5515  0.9498
  397MOL0     H54720  10.359   9.268   5.487  0.0102  0.2928 -0.3515
  397MOL0     H54721  10.367   9.157   5.287  1.3758 -1.3494 -2.9970
  397MOL0     H54722  10.540   9.175   5.254  1.2779 -0.6381  0.4473
  397MOL0     H54723  10.625   9.033   5.373  0.6369  1.0917 -2.4489
  397MOL0     H54724  10.536   9.064   5.521  1.7030  1.5972 -1.1340
  397MOL0     H54725  10.398   8.907   5.305 -4.2979  0.3427  0.3792
  397MOL0     H54726  10.492   8.841   5.438 -1.3207 -1.2228  0.2635
  397MOL0     H54727  10.226   8.900   5.437  0.0900  1.2865 -0.2924
  397MOL0     H54728  10.285   9.062   5.493 -2.8505 -0.6317  0.3588
  397MOL0     H54729  10.349   8.804   5.646  1.6946  0.6205  1.2137
  397MOL0     H54730  10.396   8.968   5.687  0.9452 -1.7347  2.0902
  397MOL0     H54731  10.111   8.877   5.667  0.6862 -1.4432  1.0624
  397MOL0     H54732  10.164   9.044   5.683 -1.4049 -0.0187 -1.5457
  397MOL0     H54733  10.245   8.805   5.883  1.0531  0.4750 -1.3888
  397MOL0     H54734  10.279   8.978   5.902 -0.3111  0.3190  1.8602
  397MOL0     H54735  10.026   8.696   5.922 -0.3218  0.8235 -2.5097
  397MOL0     H54736   9.821   8.817   6.207 -0.6957  0.4288 -0.5499
  397MOL0     H54737   9.857   8.672   6.112  1.0013  0.0757  1.0750
  397MOL0     H54738   9.654   8.889   6.025  1.2161  0.3031 -2.1952
  397MOL0     H54739   9.721   8.760   5.924  0.7366 -2.2243  1.1544
  397MOL0     H54740   9.544   8.704   6.167 -5.4913  0.4020 -0.7732
  397MOL0     H54741   9.490   8.724   6.004 -0.8287  1.8297  1.0810
  397MOL0     H54742   9.674   8.513   6.117 -0.7810  0.4171  2.9081
  397MOL0     H54743   9.506   8.483   6.055 -0.2812  0.7605  1.1848
  397MOL0     H54744   9.601   8.254   5.985 -1.3081  0.3059 -1.2910
  397MOL0     H54745   9.627   8.051   6.042  0.1635  1.7665 -0.3961
  397MOL0     H54746   9.782   8.024   6.102  0.2329  1.5956  1.4980
  397MOL0     H54747   9.742   7.946   5.953 -0.4027 -1.3236  1.6914
  397MOL0     H54748  10.322   8.180   5.810  0.9928  0.2957 -2.9949
  397MOL0     H54749  10.544   8.071   5.846 -1.7695  3.6065 -1.9613
  397MOL0     H54750  10.738   7.923   5.843  1.0863 -0.6787 -0.2346
  397MOL0     H54751  10.625   7.891   5.997 -1.8607  0.8864 -0.9175
  397MOL0     H54752  10.724   7.686   6.023 -0.1917 -0.0026  0.5380
  397MOL0     H54753  10.806   7.692   5.869 -0.5258 -3.3015  0.5910
  397MOL0     H54754  10.909   7.921   5.991 -2.1376  0.7929 -0.5272
  397MOL0     H54755  10.981   7.756   5.954 -1.9914 -2.0794  0.7340
  397MOL0     H54756  10.900   7.692   6.189  2.2250 -1.0804 -2.1864
  397MOL0     H54757  10.852   7.869   6.193 -0.8221 -2.3537 -0.4726
  397MOL0     H54758  11.118   7.723   6.205  0.6968  0.3618  0.9779
  397MOL0     H54759  11.115   7.887   6.136 -0.1919  1.2774  1.0156
  397MOL0     H54760  10.982   7.854   6.391 -0.9297  0.7119  0.5076
  397MOL0     H54761  11.050   7.990   6.321 -3.1664 -1.3879  0.3834
  397MOL0     H54762  11.289   7.875   6.361 -1.2280  2.1376 -1.4263
  397MOL0     H54763  11.209   7.739   6.437  1.9308 -0.3785  0.2901
  397MOL0     H54764  11.098   7.926   6.589 -0.9114  4.3629 -0.3899
  397MOL0     H54765  11.201   8.040   6.528 -2.4171  0.3448  1.2008
  397MOL0     H54766  10.376   7.701   5.724  0.3354  0.9783 -2.7845
  397MOL0     H54767  10.139   7.820   5.696 -0.1860  1.3674 -1.8794
  397MOL0     H54768  10.054   8.314   5.796 -1.1539  2.0701 -2.6345
  397MOL0     H54769   9.903   8.502   5.826  0.0023 -0.1473  4.5577
  397MOL0     H54770  10.346   9.512   5.516 -0.6942  2.8724  0.0355
  397MOL0     H54771  10.352   9.739   5.594  0.7820  0.7466 -1.6184
  397MOL0     H54772  10.487  10.127   5.743 -2.2881  0.2692 -2.8214
  397MOL0     H54773  10.543  10.327   5.840 -0.5552  2.2378 -1.2984
  397MOL0     H54774  10.833  10.547   5.952 -2.2165  0.7851 -1.4507
  397MOL0     H54775  10.800  10.384   5.951  1.4350 -0.1313  0.1340
  397MOL0     H54776  10.989  10.337   5.804  0.3755  0.5486  1.4302
  397MOL0     H54777  11.038  10.431   5.948 -1.6038 -0.1242  1.6264
  397MOL0     H54778  11.009  10.532   5.669  2.1087 -2.4858 -0.9564
  397MOL0     H54779  11.045  10.644   5.810  0.0888  0.7103 -0.4959
  397MOL0     H54780  11.248  10.520   5.825 -1.7445 -1.2792  0.6774
  397MOL0     H54781  11.222  10.612   5.665 -1.0698  0.5251 -0.4982
  397MOL0     H54782  11.260  10.220   5.524  0.7544  0.3687 -0.1782
  397MOL0     H54783  10.847  10.385   5.545  0.5252  1.2449 -0.5524
  397MOL0     H54784  10.900  10.115   5.423 -0.2471 -0.9916  0.1014
  397MOL0     H54785  10.758  10.133   5.325 -0.9623  0.8620  0.3796
  397MOL0     H54786  10.856  10.278   5.369  0.5879 -1.0581 -0.8119
  398MOL0     O54787   0.642   1.299   3.380  0.1975 -0.3322 -1.0589
  398MOL0     C54788   0.580   1.252   3.468 -0.0921 -0.2725 -1.0643
  398MOL0     O54789   0.566   1.311   3.586 -0.4648 -0.6238  0.6718
  398MOL0     C54790   0.659   1.399   3.623 -1.2406 -0.6223  0.4386
  398MOL0     C54791   0.622   1.535   3.636  0.4520  1.2696 -0.3482
  398MOL0     C54792   0.718   1.624   3.674 -0.4096 -0.5676 -0.6680
  398MOL0     C54793   0.850   1.592   3.678 -0.6949 -0.0743 -0.5075
  398MOL0     O54794   0.943   1.692   3.703  0.8853 -0.5202 -0.3385
  398MOL0     C54795   1.053   1.714   3.606 -0.1713 -0.0163  0.5183
  398MOL0     C54796   1.050   1.858   3.543  0.1224 -0.0844  0.7503
  398MOL0     C54797   1.163   1.856   3.442  0.6175 -0.1597 -1.1027
  398MOL0     C54798   1.156   2.002   3.381 -0.5417 -0.4134 -0.3251
  398MOL0     C54799   1.244   2.012   3.257 -0.7198  0.6217 -0.2417
  398MOL0     C54800   1.275   2.151   3.197  0.0452  0.4388 -0.4857
  398MOL0     C54801   1.352   2.247   3.289 -0.5942 -0.0637 -0.4419
  398MOL0     C54802   1.489   2.196   3.322 -0.7123 -0.5232 -0.1531
  398MOL0     N54803   1.578   2.177   3.204  0.0264 -0.4702 -0.2945
  398MOL0     C54804   1.652   2.275   3.146 -0.2983 -0.3140  0.8898
  398MOL0     C54805   1.714   2.210   3.048  0.4630 -0.6645 -0.8518
  398MOL0     C54806   1.827   2.272   2.971  0.7716 -0.5381  0.0148
  398MOL0     C54807   1.771   2.288   2.826 -0.0119  0.4483 -0.1377
  398MOL0     C54808   1.847   2.389   2.744 -0.0063 -0.1506 -0.0367
  398MOL0     C54809   1.984   2.369   2.708 -0.5553  0.2806 -0.2770
  398MOL0     O54810   1.993   2.250   2.627  1.0336  0.4331 -0.4028
  398MOL0     C54811   2.109   2.185   2.600  0.0488 -0.4144 -0.2425
  398MOL0     C54812   2.237   2.244   2.626  0.5558  0.7886  0.6092
  398MOL0     C54813   2.359   2.179   2.589  0.2666  0.0839 -0.5834
  398MOL0     C54814   2.478   2.248   2.633  0.3365  0.5878 -0.7820
  398MOL0     C54815   2.354   2.046   2.546  0.8120 -0.2494  0.1372
  398MOL0     C54816   2.475   1.962   2.532 -0.1754  0.4990 -0.2758
  398MOL0     O54817   2.476   1.879   2.428  0.1141  0.6350  0.0510
  398MOL0     C54818   2.571   1.785   2.395  0.1107 -0.4698 -0.2814
  398MOL0     C54819   2.707   1.827   2.379 -0.1837  1.0743  0.8874
  398MOL0     C54820   2.803   1.729   2.325  0.3837  1.2587 -0.2529
  398MOL0     C54821   2.765   1.587   2.316 -0.5229 -1.0324 -0.6044
  398MOL0     O54822   2.859   1.493   2.291  0.8490 -0.2157  0.0114
  398MOL0     C54823   2.895   1.404   2.391 -0.2849 -0.1841  0.2465
  398MOL0     C54824   3.001   1.308   2.333 -1.0816  0.0968  0.5003
  398MOL0     C54825   2.941   1.209   2.240  0.6800 -0.4346 -0.2923
  398MOL0     C54826   2.888   1.269   2.109  1.0975 -0.0326 -0.6433
  398MOL0     C54827   2.869   1.153   2.007  0.4113 -0.3800 -0.6470
  398MOL0     C54828   2.763   1.180   1.896 -0.0329  1.0514  0.2721
  398MOL0     C54829   2.609   1.199   1.941  0.0832  0.1899  0.8026
  398MOL0     C54830   2.518   1.259   1.826 -0.5495  0.0452 -0.7568
  398MOL0    Cl54831   2.465   1.132   1.712 -0.1012 -0.2493 -0.3044
  398MOL0     C54832   2.633   1.551   2.350 -0.4247  0.0145  0.3666
  398MOL0     C54833   2.536   1.650   2.373 -0.6469 -0.6402 -0.9284
  398MOL0     O54834   2.563   1.965   2.620  1.0384 -0.2125  0.2134
  398MOL0     C54835   2.228   1.985   2.503 -0.5884 -0.1077  0.1545
  398MOL0     C54836   2.103   2.053   2.536 -0.4279 -0.6308  0.2324
  398MOL0     N54837   1.681   2.078   3.052 -0.1201 -0.0051 -0.2252
  398MOL0     N54838   1.599   2.053   3.142 -0.3925  0.5707  0.1688
  398MOL0     C54839   0.892   1.454   3.654  0.5290  0.6570 -0.0593
  398MOL0     C54840   0.790   1.357   3.633 -0.4722 -0.6816 -0.3420
  398MOL0     C54841   0.522   1.120   3.440  1.3501 -0.7551 -0.1510
  398MOL0     C54842   0.390   1.108   3.505  0.3398  0.3352  0.2259
  398MOL0     C54843   0.321   0.988   3.480 -0.9566 -0.2765  0.1674
  398MOL0     C54844   0.384   0.884   3.421 -0.2827 -0.4136  0.1607
  398MOL0     O54845   0.314   0.767   3.425  0.0586 -0.4103  0.6485
  398MOL0     C54846   0.250   0.734   3.305  0.9091 -0.7368 -0.1208
  398MOL0     C54847   0.103   0.771   3.289 -0.3704  0.7718 -0.6795
  398MOL0     C54848   0.015   0.734   3.407  0.2056  0.5105 -0.1918
  398MOL0     C54849  -0.136   0.752   3.368 -0.1931  0.6123  0.6739
  398MOL0     C54850  -0.231   0.698   3.464  0.2856 -0.3217  0.2626
  398MOL0     C54851  -0.306   0.650   3.547 -0.4119  0.8943  0.2426
  398MOL0     C54852   0.512   0.895   3.361 -0.0397 -0.0789 -0.4277
  398MOL0     C54853   0.577   1.013   3.369  0.2903 -0.6873 -0.3677
  398MOL0     C54854   0.710   1.026   3.294 -0.1101  0.3555 -0.4217
  398MOL0     H54855   0.517   1.559   3.623 -0.7714 -2.1658  1.7320
  398MOL0     H54856   0.691   1.728   3.687 -1.9671 -0.9085 -1.0347
  398MOL0     H54857   1.066   1.639   3.527  1.4224 -0.6163  1.3132
  398MOL0     H54858   1.142   1.706   3.668  0.1268  0.8671  0.2224
  398MOL0     H54859   0.955   1.869   3.489 -0.3835 -0.7260  1.4906
  398MOL0     H54860   1.061   1.939   3.615 -0.7102  1.1643 -0.4822
  398MOL0     H54861   1.260   1.837   3.489  0.9584 -0.4293 -1.8847
  398MOL0     H54862   1.145   1.781   3.364 -1.8365  1.6804 -2.4484
  398MOL0     H54863   1.052   2.024   3.354 -1.0294 -2.2080 -0.0279
  398MOL0     H54864   1.182   2.078   3.455  1.4602 -1.8322  0.5116
  398MOL0     H54865   1.205   1.941   3.183  1.1845 -1.7479  0.9024
  398MOL0     H54866   1.342   1.969   3.280  0.3102  2.0502 -1.7618
  398MOL0     H54867   1.326   2.134   3.102 -1.8902 -0.9656 -1.3291
  398MOL0     H54868   1.182   2.200   3.166 -1.3854 -1.8878 -0.1192
  398MOL0     H54869   1.297   2.278   3.378  0.6059  0.1684  0.2329
  398MOL0     H54870   1.366   2.346   3.246  0.4221 -0.1466 -0.3190
  398MOL0     H54871   1.535   2.266   3.392  0.7550 -2.4155  0.8760
  398MOL0     H54872   1.489   2.107   3.386  1.1984 -1.1698 -0.9450
  398MOL0     H54873   1.666   2.376   3.184  1.0526  0.2806 -0.9873
  398MOL0     H54874   1.910   2.205   2.992  0.5916 -0.6084  0.5167
  398MOL0     H54875   1.849   2.374   3.004 -0.1490  0.6591 -2.7876
  398MOL0     H54876   1.800   2.193   2.781  1.4407 -0.2289  2.0352
  398MOL0     H54877   1.664   2.312   2.826  0.1711  1.3984  1.3802
  398MOL0     H54878   1.783   2.399   2.655 -4.7757  0.0858  3.0373
  398MOL0     H54879   1.831   2.482   2.801 -1.2706 -0.9539  0.9815
  398MOL0     H54880   2.021   2.457   2.654 -0.7307  1.6859  1.7839
  398MOL0     H54881   2.042   2.354   2.799  2.0441 -0.7224 -1.9853
  398MOL0     H54882   2.253   2.334   2.685  2.8994 -0.2546  1.7159
  398MOL0     H54883   2.470   2.355   2.616  1.5813  0.5273 -1.9518
  398MOL0     H54884   2.567   2.217   2.576  0.1219 -0.9588 -0.3373
  398MOL0     H54885   2.496   2.220   2.738 -1.8007  0.8078 -0.3144
  398MOL0     H54886   2.729   1.930   2.403  4.6956  1.1528 -2.5625
  398MOL0     H54887   2.906   1.763   2.312 -0.0236  2.4014 -0.6468
  398MOL0     H54888   2.930   1.459   2.479  1.2151  2.2186 -1.7046
  398MOL0     H54889   2.810   1.344   2.424 -0.0227  0.4481  2.2241
  398MOL0     H54890   3.085   1.358   2.285  2.4092 -4.6156  0.9776
  398MOL0     H54891   3.041   1.255   2.420 -2.0779 -1.2075  0.2089
  398MOL0     H54892   2.862   1.164   2.300 -2.8496  1.9868 -2.7426
  398MOL0     H54893   3.005   1.122   2.226  1.3516 -0.6084  2.9486
  398MOL0     H54894   2.967   1.330   2.066  0.6607  1.5596  0.7111
  398MOL0     H54895   2.793   1.318   2.133  2.4925  1.7271  1.8792
  398MOL0     H54896   2.966   1.125   1.964  0.6646 -1.4967  0.5878
  398MOL0     H54897   2.837   1.065   2.063 -2.0042  0.0752 -1.1827
  398MOL0     H54898   2.771   1.090   1.834 -0.5190  2.0742 -1.3147
  398MOL0     H54899   2.795   1.267   1.838  2.5504  1.7429  2.5261
  398MOL0     H54900   2.608   1.261   2.031  0.6595  1.2895  0.0791
  398MOL0     H54901   2.569   1.102   1.971 -1.7127  0.5547 -0.2652
  398MOL0     H54902   2.575   1.335   1.771 -0.5637  0.4594 -0.2043
  398MOL0     H54903   2.425   1.300   1.866  1.1960  0.5838  3.2041
  398MOL0     H54904   2.608   1.445   2.345  1.5309 -0.4165 -1.4097
  398MOL0     H54905   2.434   1.617   2.386 -0.5532 -0.1513  1.5899
  398MOL0     H54906   2.225   1.888   2.455  2.8395  0.7014 -2.0305
  398MOL0     H54907   2.003   2.017   2.513 -0.7093  0.2239  0.1052
  398MOL0     H54908   1.000   1.445   3.657  0.8391  3.0515 -1.2204
  398MOL0     H54909   0.814   1.254   3.609 -1.3035 -0.8568 -0.4711
  398MOL0     H54910   0.339   1.188   3.558 -0.1876  1.7051 -2.2138
  398MOL0     H54911   0.223   0.980   3.524 -0.6971 -1.5318  0.5609
  398MOL0     H54912   0.297   0.792   3.225  1.7122 -1.9692 -0.5713
  398MOL0     H54913   0.260   0.627   3.284  1.0455 -0.6574 -0.4628
  398MOL0     H54914   0.067   0.727   3.195  2.4395 -0.8459 -1.1129
  398MOL0     H54915   0.101   0.880   3.275  0.2046  0.7421 -1.0564
  398MOL0     H54916   0.021   0.628   3.433 -1.1994  0.5497  0.3929
  398MOL0     H54917   0.042   0.794   3.494  0.0194  1.7952 -0.9849
  398MOL0     H54918  -0.139   0.705   3.269  0.5502 -0.4196  1.1184
  398MOL0     H54919  -0.153   0.859   3.356  1.1164  0.5052 -3.9827
  398MOL0     H54920  -0.352   0.600   3.630 -0.4892  0.5040 -0.0299
  398MOL0     H54921   0.557   0.815   3.304  1.1876  0.0632  0.3030
  398MOL0     H54922   0.780   1.103   3.328  0.0911  1.0945 -2.3566
  398MOL0     H54923   0.766   0.932   3.293 -0.4756 -0.0088  2.8429
  398MOL0     H54924   0.687   1.061   3.192  0.7132  3.4254  0.3274
  399MOL0     O54925   0.816   3.758   8.943  0.1181  0.2870  0.4443
  399MOL0     C54926   0.789   3.690   8.848 -0.6115 -0.6838  0.4293
  399MOL0     O54927   0.875   3.641   8.753 -0.2030 -0.2816  0.5982
  399MOL0     C54928   1.009   3.675   8.764  0.0634 -0.1938  1.6515
  399MOL0     C54929   1.105   3.586   8.791 -0.5899  0.6221 -0.0905
  399MOL0     C54930   1.235   3.625   8.816  0.4180 -0.1710 -0.7811
  399MOL0     C54931   1.280   3.758   8.795  0.1899  0.1637 -0.5766
  399MOL0     O54932   1.412   3.800   8.811 -0.5196  0.6247 -0.1942
  399MOL0     C54933   1.509   3.705   8.865 -0.0622 -0.2691 -0.5076
  399MOL0     C54934   1.646   3.773   8.844 -0.3186 -0.5700 -0.6586
  399MOL0     C54935   1.772   3.720   8.902  0.3997  0.1980  0.2323
  399MOL0     C54936   1.884   3.825   8.887  0.3053 -0.8837 -0.2096
  399MOL0     C54937   1.943   3.851   8.747  0.0987  0.7648 -0.6066
  399MOL0     C54938   1.995   3.715   8.686  0.3592  0.3197 -0.4793
  399MOL0     C54939   2.099   3.642   8.768 -0.0869  0.1682  0.0187
  399MOL0     C54940   2.137   3.511   8.690 -0.5855  0.6105 -0.4061
  399MOL0     N54941   2.236   3.450   8.769  0.0904  1.1177  0.4591
  399MOL0     C54942   2.368   3.447   8.758 -0.9137  0.6395 -0.1113
  399MOL0     C54943   2.412   3.338   8.833  1.2605 -0.3053 -0.0105
  399MOL0     C54944   2.561   3.297   8.850 -0.3917 -0.0236  1.3980
  399MOL0     C54945   2.645   3.378   8.956 -0.9015 -0.2463  0.6251
  399MOL0     C54946   2.679   3.525   8.902 -0.1473  0.1910  0.4586
  399MOL0     C54947   2.746   3.624   8.996  0.4939  0.7068 -0.2220
  399MOL0     O54948   2.811   3.729   8.933 -0.1625  0.3514 -0.5949
  399MOL0     C54949   2.873   3.828   9.005 -0.1867  0.8405  0.4544
  399MOL0     C54950   3.010   3.830   9.023 -0.8807  0.0170  0.1650
  399MOL0     C54951   3.073   3.919   9.111  0.6280 -1.1981  0.1400
  399MOL0     C54952   3.217   3.907   9.141  0.4008  0.8719  0.4832
  399MOL0     C54953   2.991   4.019   9.173 -0.4596 -0.2030 -0.8123
  399MOL0     C54954   3.043   4.143   9.252 -0.0341 -0.0570  0.9328
  399MOL0     O54955   3.173   4.139   9.306  0.2950 -0.1054  0.2944
  399MOL0     C54956   3.202   4.175   9.432  0.1087 -0.2600  0.6508
  399MOL0     C54957   3.098   4.171   9.524 -0.7003  0.2331 -0.4598
  399MOL0     C54958   3.122   4.177   9.664 -0.4699  0.1470 -0.2270
  399MOL0     C54959   3.252   4.195   9.712 -0.0867 -0.0359 -0.1912
  399MOL0     O54960   3.268   4.195   9.851 -0.5619 -0.1419  0.3752
  399MOL0     C54961   3.406   4.213   9.907  0.7388  0.7998 -0.0777
  399MOL0     C54962   3.449   4.357   9.902  0.8157  0.1944  0.8655
  399MOL0     C54963   3.555   4.396  10.001 -0.1984  0.4501 -0.4519
  399MOL0     C54964   3.688   4.358   9.935 -0.4169 -0.2966 -0.1404
  399MOL0     C54965   3.791   4.405  10.036 -0.3445  0.4713 -1.0739
  399MOL0     C54966   3.931   4.374   9.986  0.3568 -0.0470  0.3278
  399MOL0     C54967   4.039   4.432  10.082  0.4332  0.6024 -0.2946
  399MOL0     C54968   4.052   4.359  10.222 -0.1856  0.3590 -0.0432
  399MOL0    Cl54969   4.148   4.211  10.204 -0.0813 -0.3161 -0.0537
  399MOL0     C54970   3.354   4.207   9.610 -0.2887  0.5235  0.2386
  399MOL0     C54971   3.328   4.196   9.477 -0.2574  0.1345 -0.2842
  399MOL0     O54972   2.969   4.235   9.262  0.5688 -0.1588 -0.1113
  399MOL0     C54973   2.857   4.016   9.149  0.2233 -0.1972  0.0387
  399MOL0     C54974   2.797   3.927   9.062  0.0424  0.6667 -0.2974
  399MOL0     N54975   2.300   3.269   8.871  0.5208 -0.1816 -0.6966
  399MOL0     N54976   2.197   3.347   8.851  0.2210  0.7434  0.1247
  399MOL0     C54977   1.176   3.845   8.749  0.2922  0.0508 -0.2448
  399MOL0     C54978   1.046   3.802   8.738 -0.3857 -0.3698 -0.3711
  399MOL0     C54979   0.639   3.646   8.823 -0.5262 -0.1703 -1.2763
  399MOL0     C54980   0.600   3.594   8.699 -0.4252 -0.4632 -0.0870
  399MOL0     C54981   0.478   3.537   8.667  0.5312  0.5589  0.3568
  399MOL0     C54982   0.388   3.521   8.772  0.2997 -0.4863  0.4621
  399MOL0     O54983   0.264   3.455   8.752  0.8374  0.0651  0.2095
  399MOL0     C54984   0.221   3.428   8.624  0.7835 -1.0695  0.0579
  399MOL0     C54985   0.072   3.384   8.635 -0.6953 -0.2459 -0.1470
  399MOL0     C54986   0.069   3.238   8.687 -0.1582 -0.3582 -0.4101
  399MOL0     C54987  -0.071   3.192   8.695 -1.6201 -0.0116  0.5023
  399MOL0     C54988  -0.113   3.087   8.595  0.0033  0.4609  0.0819
  399MOL0     C54989  -0.113   3.001   8.511 -0.1039  0.5491 -0.5942
  399MOL0     C54990   0.421   3.565   8.897 -0.1260  0.1147  0.2849
  399MOL0     C54991   0.544   3.625   8.928  0.1006  0.0219 -1.0312
  399MOL0     C54992   0.572   3.658   9.070 -0.1943  0.0976  0.3933
  399MOL0     H54993   1.062   3.487   8.799  0.4834  0.0863 -0.7772
  399MOL0     H54994   1.301   3.541   8.838  3.3496  0.8262 -4.7097
  399MOL0     H54995   1.494   3.607   8.821 -0.4950 -0.0423 -0.8749
  399MOL0     H54996   1.501   3.703   8.974  1.4137  2.5851 -0.2301
  399MOL0     H54997   1.656   3.789   8.736 -0.8169  1.2226 -0.4768
  399MOL0     H54998   1.647   3.878   8.873  1.6292 -0.7542  0.0934
  399MOL0     H54999   1.743   3.695   9.004 -0.0404 -1.0584 -0.1780
  399MOL0     H55000   1.805   3.623   8.863 -0.5850 -0.9579  2.1184
  399MOL0     H55001   1.847   3.916   8.936  1.0009 -1.7495  2.0938
  399MOL0     H55002   1.960   3.794   8.960  0.6095 -1.2462 -0.6769
  399MOL0     H55003   2.025   3.924   8.751  0.7245  0.0748 -0.7563
  399MOL0     H55004   1.866   3.885   8.677  1.5657 -0.5953 -2.9761
  399MOL0     H55005   1.924   3.633   8.670  4.5209 -3.7532 -0.0950
  399MOL0     H55006   2.028   3.734   8.583 -4.1158 -1.5600 -2.5688
  399MOL0     H55007   2.058   3.618   8.866 -0.0935 -1.2307 -0.3076
  399MOL0     H55008   2.186   3.706   8.785  0.3614 -0.1381 -1.0308
  399MOL0     H55009   2.048   3.447   8.685 -0.3893  0.1309  1.5900
  399MOL0     H55010   2.185   3.531   8.593  0.0218 -4.3193 -1.3958
  399MOL0     H55011   2.434   3.508   8.697  1.1010 -0.3644  0.9382
  399MOL0     H55012   2.620   3.305   8.758  1.6991 -0.7199  2.6317
  399MOL0     H55013   2.577   3.195   8.884 -0.3803  0.1052  1.7848
  399MOL0     H55014   2.588   3.390   9.049 -3.0188  1.8826 -0.8174
  399MOL0     H55015   2.735   3.325   8.986 -1.3219 -0.2095  2.0184
  399MOL0     H55016   2.739   3.529   8.811  0.4578  1.7002  0.8848
  399MOL0     H55017   2.585   3.578   8.880 -0.2471  0.1637  0.8105
  399MOL0     H55018   2.670   3.670   9.061 -1.1752 -0.0161 -1.5709
  399MOL0     H55019   2.814   3.572   9.063 -1.7633 -0.2895  1.4503
  399MOL0     H55020   3.060   3.756   8.961 -2.3413  1.3793 -2.8369
  399MOL0     H55021   3.226   3.850   9.235  1.0692 -1.7640 -1.0701
  399MOL0     H55022   3.283   3.994   9.137  3.4419 -1.3225 -1.1902
  399MOL0     H55023   3.258   3.835   9.070  1.1425  1.1050  0.6705
  399MOL0     H55024   2.995   4.143   9.507 -0.7163 -0.5836  0.8493
  399MOL0     H55025   3.042   4.141   9.729  0.0015  2.2495  1.6803
  399MOL0     H55026   3.398   4.192  10.014 -0.3825  3.2637  0.4097
  399MOL0     H55027   3.480   4.153   9.854  1.6937  2.4015 -0.6180
  399MOL0     H55028   3.498   4.373   9.806  2.2247 -0.0362  1.5138
  399MOL0     H55029   3.366   4.427   9.916  1.7776  1.6000 -0.1711
  399MOL0     H55030   3.543   4.325  10.083 -0.3210 -0.6460 -1.3865
  399MOL0     H55031   3.551   4.502  10.029  0.4469  0.0167  1.3826
  399MOL0     H55032   3.692   4.427   9.850  0.3062  0.1270  0.2198
  399MOL0     H55033   3.700   4.255   9.902 -1.7324 -0.6242  0.3686
  399MOL0     H55034   3.779   4.510  10.067  0.2675 -0.2441  1.9247
  399MOL0     H55035   3.782   4.359  10.135 -0.5687  4.1902  0.8227
  399MOL0     H55036   3.943   4.432   9.893 -0.3378  1.5867  1.2115
  399MOL0     H55037   3.950   4.267   9.973 -1.9825 -0.3122 -1.6787
  399MOL0     H55038   4.017   4.539  10.097 -1.1124  0.1227  1.2748
  399MOL0     H55039   4.135   4.435  10.031  1.9525  0.5327  2.3977
  399MOL0     H55040   3.966   4.325  10.281  1.1977 -0.7589  1.4239
  399MOL0     H55041   4.107   4.420  10.294 -0.0316  1.3045 -0.9245
  399MOL0     H55042   3.457   4.232   9.633  0.9712 -3.9772  0.4828
  399MOL0     H55043   3.412   4.181   9.410 -0.3492 -1.2417 -0.1125
  399MOL0     H55044   2.788   4.086   9.194  0.1904 -0.8584  1.0569
  399MOL0     H55045   2.690   3.935   9.047 -0.2091 -0.9771  0.4938
  399MOL0     H55046   1.201   3.942   8.707  2.3506 -1.0299 -1.6964
  399MOL0     H55047   0.964   3.867   8.708  0.5848  0.0929 -2.1852
  399MOL0     H55048   0.666   3.594   8.613  0.7576  1.2887  0.7566
  399MOL0     H55049   0.459   3.506   8.564  0.3937 -0.9199  0.8157
  399MOL0     H55050   0.228   3.518   8.562  0.2904 -1.3113 -0.3594
  399MOL0     H55051   0.287   3.352   8.580  0.6715  0.0397 -2.1511
  399MOL0     H55052   0.022   3.394   8.538 -1.8204  0.2471  0.4681
  399MOL0     H55053   0.017   3.444   8.708  3.5546  0.8717  2.5304
  399MOL0     H55054   0.126   3.170   8.624 -1.6734 -1.6869 -0.3986
  399MOL0     H55055   0.118   3.242   8.785 -0.3905  0.1095 -0.3088
  399MOL0     H55056  -0.147   3.268   8.675 -2.1312 -0.5624  0.3218
  399MOL0     H55057  -0.089   3.146   8.792  1.1657 -3.4129 -0.3995
  399MOL0     H55058  -0.109   2.918   8.443 -2.5900  0.4204 -0.6747
  399MOL0     H55059   0.342   3.564   8.972  0.0467  1.3661  0.4953
  399MOL0     H55060   0.618   3.756   9.084 -1.1856  0.9768 -1.9233
  399MOL0     H55061   0.472   3.654   9.115 -1.3509 -1.6672 -2.0509
  399MOL0     H55062   0.645   3.588   9.110 -0.2861 -0.3636 -0.2290
  400MOL0     O55063   4.709   7.342   8.135 -0.7260  0.6782 -0.5231
  400MOL0     C55064   4.718   7.307   8.019  0.3435 -0.0460 -0.0608
  400MOL0     O55065   4.811   7.351   7.926  0.7949  0.2457 -0.1333
  400MOL0     C55066   4.910   7.437   7.955 -0.4733  0.6993  0.8406
  400MOL0     C55067   5.036   7.417   7.888  0.2066  0.3661  0.5840
  400MOL0     C55068   5.132   7.510   7.902 -0.8587 -0.3060  0.5069
  400MOL0     C55069   5.128   7.614   7.995 -0.1643 -1.1226  0.4059
  400MOL0     O55070   5.231   7.697   8.019 -0.1363  0.3401  0.0677
  400MOL0     C55071   5.196   7.836   8.022  0.0774 -0.1508  0.7557
  400MOL0     C55072   5.328   7.895   8.016 -0.1948 -0.7256 -0.1179
  400MOL0     C55073   5.400   7.891   8.152  0.0129  0.2600 -0.2355
  400MOL0     C55074   5.543   7.941   8.127  0.0453  0.9290  0.2701
  400MOL0     C55075   5.633   7.941   8.245 -0.0336 -0.1638 -1.0347
  400MOL0     C55076   5.777   7.966   8.195  0.2949  0.3527 -0.8166
  400MOL0     C55077   5.808   8.109   8.179  0.4590 -0.1292 -0.6422
  400MOL0     C55078   5.938   8.139   8.113  0.3147 -0.1504 -0.3178
  400MOL0     N55079   6.055   8.101   8.192  0.5973  0.3923  0.0735
  400MOL0     C55080   6.115   8.177   8.284 -0.1216  0.5102 -0.2835
  400MOL0     C55081   6.214   8.098   8.337 -0.1281  0.6811  0.3210
  400MOL0     C55082   6.299   8.120   8.463  0.5756 -1.0786  0.3423
  400MOL0     C55083   6.331   8.016   8.573  0.7436  0.2249  0.3293
  400MOL0     C55084   6.199   7.983   8.634 -0.5605  0.6908 -0.1798
  400MOL0     C55085   6.233   7.897   8.756  0.6547  0.4490 -0.2967
  400MOL0     O55086   6.120   7.884   8.841  0.0419 -0.4214 -0.8372
  400MOL0     C55087   6.065   7.991   8.918 -0.5212 -0.2570 -0.3427
  400MOL0     C55088   6.126   8.119   8.929 -0.1909 -0.0260 -0.5772
  400MOL0     C55089   6.068   8.221   9.010  0.1306 -0.1315  0.0218
  400MOL0     C55090   6.139   8.353   9.039  1.1147  0.4233 -0.3157
  400MOL0     C55091   5.937   8.198   9.065  0.2124 -0.3929  0.5385
  400MOL0     C55092   5.874   8.291   9.159 -0.6292 -0.5540 -0.8501
  400MOL0     O55093   5.863   8.240   9.288  0.0323  0.3749 -0.2573
  400MOL0     C55094   5.804   8.314   9.387 -0.2048  0.2411 -0.4400
  400MOL0     C55095   5.848   8.284   9.519  0.0766 -0.9682 -0.7796
  400MOL0     C55096   5.783   8.341   9.629 -0.7052 -0.1330  0.3288
  400MOL0     C55097   5.703   8.450   9.610  0.6496  0.1240 -0.1210
  400MOL0     O55098   5.665   8.512   9.726  0.1361 -0.0786  0.4558
  400MOL0     C55099   5.606   8.640   9.710  0.1389 -0.0936  0.2416
  400MOL0     C55100   5.603   8.713   9.849  0.8211  0.5379 -0.1833
  400MOL0     C55101   5.705   8.832   9.870  0.2564  0.0316  0.6400
  400MOL0     C55102   5.674   8.898   9.999  0.0951 -0.1551 -0.4548
  400MOL0     C55103   5.792   8.962  10.067 -0.3971 -0.4335  0.7823
  400MOL0     C55104   5.891   8.872  10.147  0.7647 -0.1226 -0.3303
  400MOL0     C55105   5.998   8.954  10.235 -0.1151  0.3907  0.6628
  400MOL0     C55106   6.111   8.852  10.277  0.0843 -1.0384 -0.2393
  400MOL0    Cl55107   6.071   8.711  10.382 -0.1358  0.1493  0.1758
  400MOL0     C55108   5.643   8.467   9.482 -0.7849 -0.2549 -0.8330
  400MOL0     C55109   5.696   8.403   9.372 -0.0610  0.1281 -0.0389
  400MOL0     O55110   5.833   8.400   9.117 -0.5270  1.2918  0.3847
  400MOL0     C55111   5.869   8.074   9.050 -0.7938  0.5423 -0.5734
  400MOL0     C55112   5.938   7.978   8.978  0.6843 -0.9326 -0.9971
  400MOL0     N55113   6.211   7.974   8.275 -0.1060 -0.2010  0.2231
  400MOL0     N55114   6.105   7.973   8.195 -0.4812  0.9796  0.6287
  400MOL0     C55115   5.009   7.631   8.063 -0.4168 -0.0648  0.0605
  400MOL0     C55116   4.899   7.547   8.040  0.0304 -1.1344 -0.4069
  400MOL0     C55117   4.627   7.205   7.965  0.5394 -0.5627  1.3200
  400MOL0     C55118   4.632   7.170   7.826  0.1730 -0.8336 -0.2246
  400MOL0     C55119   4.563   7.067   7.771  0.7595  0.2198  0.3855
  400MOL0     C55120   4.487   6.978   7.852  0.5026  0.2359  0.1738
  400MOL0     O55121   4.413   6.872   7.795 -0.2727 -0.3041 -0.9628
  400MOL0     C55122   4.351   6.895   7.668 -0.0000  0.2342  0.1902
  400MOL0     C55123   4.203   6.949   7.679 -0.1648  0.3224 -0.1775
  400MOL0     C55124   4.149   6.991   7.548 -1.4228  0.5874 -1.1324
  400MOL0     C55125   4.175   7.143   7.522  0.3557 -0.0379  0.9884
  400MOL0     C55126   4.304   7.189   7.486  0.0866  0.1599  0.0644
  400MOL0     C55127   4.406   7.243   7.459 -0.3695  1.2820 -0.3683
  400MOL0     C55128   4.487   7.002   7.994 -0.0030 -0.5441 -0.5022
  400MOL0     C55129   4.557   7.113   8.056 -0.0629 -0.2360  0.5814
  400MOL0     C55130   4.550   7.112   8.204  0.2023  0.1844  0.2973
  400MOL0     H55131   5.041   7.341   7.812  0.2358  2.5226 -1.7126
  400MOL0     H55132   5.226   7.491   7.853 -1.1753 -0.2202 -0.1438
  400MOL0     H55133   5.159   7.854   8.124 -0.0686 -1.3691  0.9267
  400MOL0     H55134   5.133   7.875   7.942  3.0510  0.3614 -1.4829
  400MOL0     H55135   5.393   7.863   7.934 -0.8168  0.9677 -1.3203
  400MOL0     H55136   5.300   7.999   7.998 -3.3557 -1.6478 -1.1951
  400MOL0     H55137   5.345   7.959   8.218 -0.2493  0.7960 -0.9958
  400MOL0     H55138   5.401   7.789   8.191  1.3752  0.1334 -0.5635
  400MOL0     H55139   5.585   7.868   8.057 -0.7015  1.9738 -1.3320
  400MOL0     H55140   5.539   8.031   8.065 -0.9622  0.2053 -0.7794
  400MOL0     H55141   5.623   7.843   8.292 -0.1001  2.0023  4.0562
  400MOL0     H55142   5.606   8.016   8.319  2.4824 -0.2329  0.0701
  400MOL0     H55143   5.835   7.930   8.280 -1.6078 -0.5780  0.1568
  400MOL0     H55144   5.808   7.901   8.112  2.9354 -2.3845  2.0502
  400MOL0     H55145   5.793   8.160   8.274  0.1193 -0.5489 -0.4662
  400MOL0     H55146   5.735   8.158   8.113  0.8273  2.7326  0.9243
  400MOL0     H55147   5.935   8.083   8.019 -2.8211 -0.9768  0.1623
  400MOL0     H55148   5.943   8.245   8.088 -1.4008 -0.0793 -0.4769
  400MOL0     H55149   6.083   8.276   8.314  2.0986  0.2389  3.5505
  400MOL0     H55150   6.254   8.204   8.516 -0.9189  0.0238 -2.4168
  400MOL0     H55151   6.397   8.151   8.425  0.3665  0.2759  0.8620
  400MOL0     H55152   6.376   7.926   8.528 -0.8282  0.0710 -1.0493
  400MOL0     H55153   6.390   8.071   8.646  1.6978 -0.2262 -0.0803
  400MOL0     H55154   6.159   8.079   8.668  1.2503  0.7347  2.0686
  400MOL0     H55155   6.134   7.937   8.558  0.4820 -0.5158 -0.3745
  400MOL0     H55156   6.271   7.797   8.733 -0.1722 -1.4586  5.1408
  400MOL0     H55157   6.318   7.946   8.804  0.7780  2.2305 -2.1932
  400MOL0     H55158   6.221   8.147   8.886  0.6939 -0.5185  0.9760
  400MOL0     H55159   6.127   8.384   9.143  0.7735 -0.1297 -0.1863
  400MOL0     H55160   6.109   8.433   8.972  2.4440  1.2811  0.0663
  400MOL0     H55161   6.246   8.330   9.036  0.5791 -2.5938 -0.0410
  400MOL0     H55162   5.927   8.214   9.546 -1.2272 -2.4952 -0.7970
  400MOL0     H55163   5.833   8.311   9.720  1.8990  0.0341 -0.9549
  400MOL0     H55164   5.657   8.696   9.631  0.7410 -0.5583  0.2917
  400MOL0     H55165   5.503   8.623   9.679 -0.3634  2.5854  0.2012
  400MOL0     H55166   5.503   8.757   9.861  0.8446  0.9322 -1.2897
  400MOL0     H55167   5.614   8.639   9.928  2.6990 -0.2640 -1.1460
  400MOL0     H55168   5.698   8.912   9.795  1.8343  1.4315  1.8923
  400MOL0     H55169   5.807   8.793   9.859 -0.4789 -1.8265  0.0552
  400MOL0     H55170   5.634   8.827  10.073 -0.8214  1.3656  0.5692
  400MOL0     H55171   5.602   8.980   9.986 -0.5940 -0.7746 -0.6697
  400MOL0     H55172   5.860   9.016  10.001  1.4781  1.6266  4.1127
  400MOL0     H55173   5.747   9.033  10.138  1.2780  4.0974 -2.1885
  400MOL0     H55174   5.946   8.813  10.073  0.4189  1.3062 -1.7685
  400MOL0     H55175   5.836   8.803  10.212  0.3207  2.9253  2.8222
  400MOL0     H55176   5.954   9.013  10.316  1.0387  1.5452  0.4796
  400MOL0     H55177   6.052   9.023  10.169  2.1004 -1.5575  0.3269
  400MOL0     H55178   6.208   8.895  10.305  1.5873 -3.0003 -2.1034
  400MOL0     H55179   6.146   8.822  10.178  3.3266 -0.1011  0.4827
  400MOL0     H55180   5.550   8.524   9.478 -0.3425  0.9079  2.3968
  400MOL0     H55181   5.646   8.424   9.278  0.2732  0.5442 -0.1271
  400MOL0     H55182   5.775   8.040   9.093 -0.4703 -0.5670 -0.7134
  400MOL0     H55183   5.895   7.879   8.969 -1.0415 -0.0955 -2.6169
  400MOL0     H55184   4.996   7.705   8.142 -0.1996  0.9576 -0.8371
  400MOL0     H55185   4.807   7.571   8.093  1.3583  0.6950  1.1667
  400MOL0     H55186   4.679   7.239   7.757 -3.1976  1.6962 -0.2718
  400MOL0     H55187   4.574   7.043   7.666  1.2705 -2.4543  0.9742
  400MOL0     H55188   4.409   6.968   7.611  0.6476  0.4347  1.0810
  400MOL0     H55189   4.348   6.807   7.604 -0.4965  1.0700 -0.9713
  400MOL0     H55190   4.200   7.039   7.742 -2.5064 -0.5978  1.1658
  400MOL0     H55191   4.130   6.875   7.713 -0.2498 -0.2273 -1.4878
  400MOL0     H55192   4.194   6.932   7.467 -3.0329  1.6470 -2.8921
  400MOL0     H55193   4.040   6.982   7.537 -1.3187 -0.4902 -1.3134
  400MOL0     H55194   4.146   7.197   7.613 -1.8412 -0.9988  0.9245
  400MOL0     H55195   4.109   7.186   7.446  2.7831  0.2759 -1.0649
  400MOL0     H55196   4.493   7.300   7.434 -0.0297  0.6550 -0.6511
  400MOL0     H55197   4.421   6.944   8.058  0.3816 -2.1613 -1.5244
  400MOL0     H55198   4.653   7.133   8.235  0.1022  3.5324 -1.2345
  400MOL0     H55199   4.479   7.194   8.219  0.0683 -0.0310  0.8669
  400MOL0     H55200   4.512   7.018   8.245 -2.6425 -0.0638 -2.4819
  401MOL0     O55201   1.852  10.118   2.288 -0.1498 -0.3106  0.2074
  401MOL0     C55202   1.845  10.220   2.225 -0.2985 -0.4200 -0.9025
  401MOL0     O55203   1.872  10.348   2.272 -0.1336  0.1658  1.0674
  401MOL0     C55204   1.939  10.365   2.395 -0.1418 -0.7366  0.5456
  401MOL0     C55205   2.054  10.289   2.445  0.0252 -0.5962 -1.2217
  401MOL0     C55206   2.117  10.316   2.566 -0.4912 -0.1121 -0.4959
  401MOL0     C55207   2.073  10.422   2.653 -0.3685  0.3117  0.0396
  401MOL0     O55208   2.152  10.436   2.772 -0.0729 -0.5725  0.8870
  401MOL0     C55209   2.131  10.546   2.851 -0.0359 -0.1867 -0.2757
  401MOL0     C55210   2.201  10.518   2.985 -0.4199 -0.9186  0.0271
  401MOL0     C55211   2.348  10.543   2.981 -0.4820  1.1654 -0.2663
  401MOL0     C55212   2.429  10.419   3.037 -0.2599  0.0619 -0.3592
  401MOL0     C55213   2.570  10.459   3.056  0.4065 -0.7456  0.6663
  401MOL0     C55214   2.659  10.337   3.028  0.3728  0.3350 -0.3372
  401MOL0     C55215   2.659  10.241   3.144  0.3807  0.4172 -0.6754
  401MOL0     C55216   2.752  10.117   3.115  0.1331  0.3628 -0.5487
  401MOL0     N55217   2.724  10.044   2.980 -0.0857  0.0587 -0.9098
  401MOL0     C55218   2.776  10.078   2.855  0.4020  0.4840 -0.1266
  401MOL0     C55219   2.708   9.998   2.772 -0.0095 -0.2398 -0.8063
  401MOL0     C55220   2.709   9.995   2.623 -0.0006  0.1331  0.5264
  401MOL0     C55221   2.840   9.929   2.581 -0.4359 -0.2203 -0.5968
  401MOL0     C55222   2.962  10.022   2.577 -0.1375 -0.8929 -0.3272
  401MOL0     C55223   3.079   9.984   2.494  0.5127  0.5545  0.2216
  401MOL0     O55224   3.128   9.857   2.534  0.2004  0.6169  0.0629
  401MOL0     C55225   3.214   9.782   2.459 -0.9487 -0.6715 -0.3119
  401MOL0     C55226   3.257   9.661   2.527  0.1084  0.1398 -0.4418
  401MOL0     C55227   3.364   9.585   2.481  0.7767  0.5751  1.7104
  401MOL0     C55228   3.415   9.458   2.549 -0.2453  0.2872 -0.0765
  401MOL0     C55229   3.415   9.615   2.351  0.2160 -0.0057  0.5699
  401MOL0     C55230   3.521   9.539   2.277  0.0643 -0.7229 -0.2325
  401MOL0     O55231   3.591   9.614   2.188  0.1669 -0.7550 -0.8996
  401MOL0     C55232   3.705   9.551   2.141  0.4174 -0.4022 -0.7179
  401MOL0     C55233   3.819   9.616   2.181 -0.7552  1.0257 -0.0423
  401MOL0     C55234   3.939   9.592   2.117 -1.0925  0.3405 -0.0310
  401MOL0     C55235   3.956   9.489   2.021  0.0905 -0.1836 -0.1587
  401MOL0     O55236   4.087   9.456   2.004 -0.2559  0.7288  1.1254
  401MOL0     C55237   4.110   9.347   1.906 -0.2090 -0.4681  0.0645
  401MOL0     C55238   4.243   9.300   1.965 -0.2628  0.1831  0.3099
  401MOL0     C55239   4.310   9.178   1.897  0.3466  0.7060  0.1220
  401MOL0     C55240   4.462   9.161   1.915  0.0794  0.3822 -0.4184
  401MOL0     C55241   4.516   9.093   2.043 -0.4224 -0.2194  0.2498
  401MOL0     C55242   4.668   9.098   2.043  0.6576  0.4073  0.3820
  401MOL0     C55243   4.724   9.029   2.174 -0.4668 -0.3057 -0.1933
  401MOL0     C55244   4.874   9.068   2.169  0.5603 -0.3190 -0.6934
  401MOL0    Cl55245   4.914   9.241   2.198 -0.1755  0.0463  0.3731
  401MOL0     C55246   3.841   9.430   1.975  0.4848 -0.8751 -1.0131
  401MOL0     C55247   3.713   9.457   2.037 -0.6830  0.2644 -0.6244
  401MOL0     O55248   3.515   9.412   2.279  0.6822 -0.5868 -0.0800
  401MOL0     C55249   3.367   9.732   2.290 -0.1386 -0.2366 -0.5651
  401MOL0     C55250   3.261   9.810   2.337 -0.1529  1.0547 -0.2517
  401MOL0     N55251   2.607   9.928   2.838 -0.7242 -0.7009 -0.2859
  401MOL0     N55252   2.626   9.947   2.966 -0.3050  0.6031  0.1276
  401MOL0     C55253   1.969  10.503   2.601 -0.1670  0.0909  1.0471
  401MOL0     C55254   1.908  10.482   2.475 -0.3763 -0.1332  0.3728
  401MOL0     C55255   1.812  10.220   2.086 -0.5700  0.0990  0.1417
  401MOL0     C55256   1.890  10.295   1.989 -0.7578  0.2509 -0.2350
  401MOL0     C55257   1.848  10.292   1.853 -0.7331 -0.1825  0.1481
  401MOL0     C55258   1.733  10.228   1.810  0.6295 -0.8111 -0.2975
  401MOL0     O55259   1.704  10.219   1.680 -0.9278  0.0720  0.0771
  401MOL0     C55260   1.584  10.158   1.634  0.8005  0.5494 -0.9260
  401MOL0     C55261   1.445  10.221   1.673 -0.0591  0.7656 -0.1422
  401MOL0     C55262   1.324  10.138   1.623  0.3440 -0.3527 -0.9335
  401MOL0     C55263   1.309  10.118   1.470  0.0577 -0.4171 -0.5085
  401MOL0     C55264   1.264  10.236   1.398 -0.3672  0.3188  0.4820
  401MOL0     C55265   1.238  10.330   1.337  0.0486 -0.2642 -0.4887
  401MOL0     C55266   1.659  10.157   1.908 -0.3387 -0.1729 -0.2319
  401MOL0     C55267   1.698  10.145   2.042 -0.2172  0.8171  1.2160
  401MOL0     C55268   1.614  10.059   2.137  0.4535 -0.0567 -0.5571
  401MOL0     H55269   2.094  10.205   2.389 -2.7081 -1.4754 -2.0084
  401MOL0     H55270   2.204  10.255   2.587  0.3003  0.6304 -1.5260
  401MOL0     H55271   2.024  10.562   2.864 -0.0152 -0.6215  0.4346
  401MOL0     H55272   2.170  10.638   2.806 -1.2664  1.5119  1.8958
  401MOL0     H55273   2.157  10.570   3.070  3.1849  1.3746  0.7140
  401MOL0     H55274   2.173  10.412   2.992  0.5554 -1.3501 -1.9559
  401MOL0     H55275   2.378  10.567   2.878 -2.7161  0.8409 -1.0426
  401MOL0     H55276   2.375  10.631   3.040 -2.5872  2.1623 -0.7206
  401MOL0     H55277   2.382  10.390   3.132  0.5966  0.3709  0.1764
  401MOL0     H55278   2.406  10.343   2.961 -2.9182  0.8275 -0.4062
  401MOL0     H55279   2.585  10.505   3.154 -2.4476 -1.7633  1.6978
  401MOL0     H55280   2.596  10.530   2.977 -2.0185 -1.8593 -1.3014
  401MOL0     H55281   2.632  10.273   2.944  2.1169  0.6151 -1.1433
  401MOL0     H55282   2.761  10.367   3.004  1.1124 -0.4818  1.5392
  401MOL0     H55283   2.558  10.207   3.170  0.2361  1.5469  0.3853
  401MOL0     H55284   2.703  10.291   3.231 -1.6725  1.1852 -0.0125
  401MOL0     H55285   2.855  10.154   3.114  0.2151  0.2834 -3.1350
  401MOL0     H55286   2.748  10.039   3.191  1.1899 -0.4567 -1.2902
  401MOL0     H55287   2.852  10.153   2.835  2.9767 -1.1468  2.5712
  401MOL0     H55288   2.713  10.101   2.595  0.0753  0.1394  0.5587
  401MOL0     H55289   2.613   9.957   2.588 -0.0983 -0.7061  1.6663
  401MOL0     H55290   2.859   9.849   2.653 -1.8195 -0.8376 -0.8929
  401MOL0     H55291   2.820   9.875   2.488  0.7316  0.6206 -1.3527
  401MOL0     H55292   2.928  10.119   2.540  0.7037 -1.6945 -3.5793
  401MOL0     H55293   2.998  10.039   2.679  3.5543 -2.5672 -1.1988
  401MOL0     H55294   3.046   9.981   2.390 -0.7460  1.3086  0.5805
  401MOL0     H55295   3.157  10.059   2.511  1.0059 -0.0584  0.7636
  401MOL0     H55296   3.211   9.633   2.621  1.3071  1.4891  0.5986
  401MOL0     H55297   3.523   9.441   2.544 -0.4643 -2.5857  2.0728
  401MOL0     H55298   3.364   9.382   2.488 -0.3614  0.6687 -0.4596
  401MOL0     H55299   3.370   9.454   2.649  0.5555 -0.4089  0.2612
  401MOL0     H55300   3.822   9.698   2.252 -2.5959  0.2247  1.0499
  401MOL0     H55301   4.034   9.640   2.142 -1.6081  1.0351  0.6504
  401MOL0     H55302   4.052   9.256   1.918  1.7669 -1.9936 -1.2051
  401MOL0     H55303   4.102   9.378   1.801  0.5839  2.1714  0.6986
  401MOL0     H55304   4.313   9.384   1.974  1.5057 -1.3444  2.0434
  401MOL0     H55305   4.222   9.277   2.070 -0.5026  1.3421  0.5229
  401MOL0     H55306   4.293   9.184   1.789  2.4931  0.2144 -0.2936
  401MOL0     H55307   4.260   9.084   1.922  2.6284 -1.5003 -2.7919
  401MOL0     H55308   4.506   9.260   1.901 -0.2869  0.4116 -1.3887
  401MOL0     H55309   4.494   9.105   1.827  0.4475 -1.4120  0.7983
  401MOL0     H55310   4.479   9.149   2.130  0.4399  0.8289 -0.0318
  401MOL0     H55311   4.493   8.987   2.046 -0.4370 -0.3312 -2.0968
  401MOL0     H55312   4.701   9.202   2.045  3.1164 -0.2267 -1.8313
  401MOL0     H55313   4.714   9.051   1.955  1.1099 -0.1533  0.9084
  401MOL0     H55314   4.718   8.920   2.179  1.4582 -0.4694 -0.9096
  401MOL0     H55315   4.678   9.068   2.265  0.2424  1.5824 -0.6082
  401MOL0     H55316   4.906   9.022   2.075 -0.3658 -2.9194  0.1621
  401MOL0     H55317   4.929   9.013   2.245 -1.0101 -0.3413  0.4771
  401MOL0     H55318   3.838   9.347   1.905 -0.4124 -0.3779 -1.5726
  401MOL0     H55319   3.621   9.417   1.995 -0.8597 -0.5420  0.4930
  401MOL0     H55320   3.407   9.753   2.192 -2.1887  1.1455 -1.1680
  401MOL0     H55321   3.227   9.889   2.271 -3.8988 -1.5300 -1.8182
  401MOL0     H55322   1.927  10.583   2.660  1.7343  2.8901 -1.1178
  401MOL0     H55323   1.829  10.551   2.446 -2.6102 -1.3222  3.2394
  401MOL0     H55324   1.981  10.338   2.028 -1.3048  0.1587  1.1840
  401MOL0     H55325   1.922  10.336   1.786  0.8059 -2.3560  0.3146
  401MOL0     H55326   1.582  10.145   1.525  0.0337  1.5068 -1.0533
  401MOL0     H55327   1.584  10.061   1.685 -0.6075 -0.5340 -2.8432
  401MOL0     H55328   1.453  10.324   1.638  2.1322  0.6093 -0.2820
  401MOL0     H55329   1.435  10.234   1.781  1.7114 -0.6770  0.2610
  401MOL0     H55330   1.327  10.040   1.669 -1.5650  0.3035  0.7138
  401MOL0     H55331   1.228  10.182   1.653  0.6955  0.4275 -0.9126
  401MOL0     H55332   1.233  10.042   1.453  0.8759 -1.3206 -0.2262
  401MOL0     H55333   1.402  10.080   1.426  1.3545  1.6433  0.2886
  401MOL0     H55334   1.212  10.409   1.269  2.0953  4.4082  3.4922
  401MOL0     H55335   1.569  10.101   1.884 -1.2775  1.5946 -1.0319
  401MOL0     H55336   1.521  10.034   2.085  1.3358 -2.2816 -1.1805
  401MOL0     H55337   1.658   9.964   2.168 -1.4438 -0.3440  1.5856
  401MOL0     H55338   1.597  10.121   2.226  1.8531 -1.2786  0.6041
  402MOL0     O55339   8.735   4.529   2.850  0.1149 -0.0780 -0.2054
  402MOL0     C55340   8.789   4.440   2.786  0.2931  0.1273 -0.5073
  402MOL0     O55341   8.775   4.304   2.817 -0.5033  0.3034 -0.4612
  402MOL0     C55342   8.683   4.257   2.905  0.0860 -0.7814  0.5690
  402MOL0     C55343   8.546   4.288   2.886  0.5545 -0.4728 -0.1090
  402MOL0     C55344   8.460   4.221   2.975 -0.6442  0.2829  0.2190
  402MOL0     C55345   8.492   4.130   3.073  0.0515 -1.0087 -0.2110
  402MOL0     O55346   8.391   4.088   3.156 -0.4302  0.2290 -0.3417
  402MOL0     C55347   8.278   4.028   3.094  0.4386 -0.6659 -0.4080
  402MOL0     C55348   8.192   3.977   3.214 -1.0313 -0.7674  0.6729
  402MOL0     C55349   8.051   3.920   3.184  0.6355  1.1160  0.3330
  402MOL0     C55350   7.997   3.848   3.312 -0.2968 -0.1452  0.6036
  402MOL0     C55351   7.872   3.769   3.292 -0.7341 -0.6523  0.2008
  402MOL0     C55352   7.749   3.854   3.254  0.0625  0.1525  0.4240
  402MOL0     C55353   7.620   3.770   3.247 -0.0430 -0.2297  0.0668
  402MOL0     C55354   7.499   3.857   3.218  0.8017  0.5117 -0.6816
  402MOL0     N55355   7.513   3.940   3.101 -0.3339  0.5645  0.1858
  402MOL0     C55356   7.536   4.074   3.103 -0.7321  0.5903 -0.1440
  402MOL0     C55357   7.533   4.105   2.967  0.7246  0.2915  0.6331
  402MOL0     C55358   7.545   4.244   2.918  0.5762  0.2075  0.4681
  402MOL0     C55359   7.560   4.268   2.768  0.1726  0.4237  0.6076
  402MOL0     C55360   7.591   4.411   2.717 -0.0914  0.6290 -0.1290
  402MOL0     C55361   7.621   4.420   2.569  0.4583 -0.2508 -0.5116
  402MOL0     O55362   7.749   4.362   2.533 -0.3576  0.6049 -0.0446
  402MOL0     C55363   7.815   4.402   2.422 -1.2155 -1.2814  0.2752
  402MOL0     C55364   7.765   4.485   2.323  0.6121  0.1210 -0.2811
  402MOL0     C55365   7.837   4.531   2.216  0.6087 -0.7267 -0.5286
  402MOL0     C55366   7.764   4.612   2.110 -0.5976 -0.1022 -0.1915
  402MOL0     C55367   7.977   4.507   2.219  0.0588  0.2227 -0.4883
  402MOL0     C55368   8.076   4.560   2.124 -0.4222 -0.2846 -0.0191
  402MOL0     O55369   8.182   4.473   2.091  0.4059 -0.2452 -0.3815
  402MOL0     C55370   8.253   4.497   1.975  0.0487 -0.2929 -0.5720
  402MOL0     C55371   8.209   4.573   1.865 -0.1483 -0.4932 -0.3477
  402MOL0     C55372   8.288   4.589   1.749  0.2370  0.6937 -0.6144
  402MOL0     C55373   8.423   4.549   1.754 -0.3524  0.7475  0.0719
  402MOL0     O55374   8.499   4.574   1.640  0.4746 -0.1224 -0.2257
  402MOL0     C55375   8.599   4.481   1.611  0.0505 -0.1643 -0.1608
  402MOL0     C55376   8.657   4.502   1.467 -0.1187  0.2889 -0.4851
  402MOL0     C55377   8.798   4.563   1.466  0.1629 -0.4200 -0.0363
  402MOL0     C55378   8.833   4.620   1.326 -0.0954  0.5572 -0.6463
  402MOL0     C55379   8.981   4.665   1.315  0.1071 -0.1895  0.5115
  402MOL0     C55380   9.032   4.708   1.184  0.1306 -0.3036 -0.1173
  402MOL0     C55381   8.935   4.787   1.093  0.8591  0.3273  0.5162
  402MOL0     C55382   9.000   4.851   0.973 -0.3496 -0.0526 -0.4599
  402MOL0    Cl55383   9.099   4.740   0.870 -0.2673 -0.6086 -0.4805
  402MOL0     C55384   8.461   4.473   1.862 -0.3256 -0.2930  0.2657
  402MOL0     C55385   8.382   4.443   1.966 -0.3886 -0.2297 -0.2149
  402MOL0     O55386   8.077   4.683   2.105 -0.2525 -0.4792  0.4049
  402MOL0     C55387   8.029   4.422   2.314 -0.1660 -0.4931 -0.1846
  402MOL0     C55388   7.950   4.361   2.407 -0.6637 -0.2747  0.0691
  402MOL0     N55389   7.507   3.996   2.888 -0.2070 -0.3269  0.0259
  402MOL0     N55390   7.486   3.898   2.967  0.3791 -0.4412 -0.4333
  402MOL0     C55391   8.633   4.102   3.093  0.1436  0.1345  0.3966
  402MOL0     C55392   8.722   4.172   3.011 -0.2690  1.0123 -0.2173
  402MOL0     C55393   8.898   4.473   2.678  0.3853 -0.4219  0.3818
  402MOL0     C55394   9.001   4.375   2.661 -0.5789  0.1814  0.2651
  402MOL0     C55395   9.093   4.391   2.561  0.0658 -0.0270 -0.5275
  402MOL0     C55396   9.091   4.500   2.475  1.1013 -0.2251 -0.3428
  402MOL0     O55397   9.187   4.526   2.374  0.1228 -0.0627  0.8959
  402MOL0     C55398   9.193   4.414   2.290  0.4012 -0.3820  0.2092
  402MOL0     C55399   9.327   4.438   2.212  0.3250  0.4466 -0.8138
  402MOL0     C55400   9.438   4.390   2.313  0.4743  0.0451 -0.4734
  402MOL0     C55401   9.566   4.344   2.233  0.3675  0.3832 -0.6526
  402MOL0     C55402   9.531   4.225   2.159 -0.1270  0.6085 -0.1338
  402MOL0     C55403   9.515   4.113   2.107 -0.1196 -0.4126  0.2792
  402MOL0     C55404   8.991   4.599   2.501 -0.6469  0.2565 -0.1416
  402MOL0     C55405   8.900   4.590   2.609 -0.5544 -0.4946  0.2343
  402MOL0     C55406   8.796   4.703   2.628 -0.0956 -0.3029 -0.1830
  402MOL0     H55407   8.504   4.365   2.822 -4.7703 -1.1236  2.0269
  402MOL0     H55408   8.360   4.263   2.970 -0.4784  0.5008 -2.5840
  402MOL0     H55409   8.319   3.945   3.036  0.0172 -1.3874  0.3061
  402MOL0     H55410   8.226   4.102   3.033 -0.5910 -2.3126 -1.6173
  402MOL0     H55411   8.258   3.907   3.266  3.4050  3.5433  1.6645
  402MOL0     H55412   8.183   4.055   3.290  0.6279  0.3143 -0.1749
  402MOL0     H55413   7.983   4.000   3.154  0.0020  1.6781  3.0416
  402MOL0     H55414   8.068   3.845   3.107 -0.4106 -0.7479  1.8411
  402MOL0     H55415   8.073   3.780   3.351 -0.0260 -0.5333 -0.5326
  402MOL0     H55416   7.981   3.932   3.380 -2.1469 -1.1452  1.4890
  402MOL0     H55417   7.851   3.721   3.389  0.4716  0.4016  1.0165
  402MOL0     H55418   7.885   3.692   3.216 -0.0410 -0.2024 -0.1455
  402MOL0     H55419   7.739   3.927   3.335  2.7458  0.3739  0.6380
  402MOL0     H55420   7.767   3.902   3.158 -1.7253 -2.0437 -1.1129
  402MOL0     H55421   7.604   3.718   3.342  0.0947  1.2637  0.9283
  402MOL0     H55422   7.632   3.700   3.164  2.0573 -2.1482  1.8673
  402MOL0     H55423   7.412   3.792   3.210  1.8683 -1.0974  0.1797
  402MOL0     H55424   7.478   3.924   3.303 -5.0520 -0.2224 -1.1189
  402MOL0     H55425   7.565   4.136   3.188 -0.4283 -0.7847  0.7935
  402MOL0     H55426   7.634   4.284   2.968  0.3515  0.3107  0.7913
  402MOL0     H55427   7.459   4.299   2.960 -0.1858 -0.2471 -0.4580
  402MOL0     H55428   7.632   4.190   2.742 -2.3179 -1.6982 -0.3049
  402MOL0     H55429   7.467   4.241   2.718 -1.9844  2.5592  3.1152
  402MOL0     H55430   7.511   4.481   2.743 -1.4359 -1.1068  0.5926
  402MOL0     H55431   7.681   4.446   2.768  0.3739  1.4250 -1.4357
  402MOL0     H55432   7.544   4.372   2.509 -3.2605  1.4103  2.5223
  402MOL0     H55433   7.607   4.525   2.546 -3.9979 -0.4217  0.6076
  402MOL0     H55434   7.665   4.527   2.323  0.8377  0.6663  0.5704
  402MOL0     H55435   7.660   4.578   2.109 -1.4362  2.1667 -2.8034
  402MOL0     H55436   7.817   4.585   2.018  0.4533 -2.2886  0.9658
  402MOL0     H55437   7.759   4.720   2.125  0.4425 -0.0258 -0.3092
  402MOL0     H55438   8.108   4.611   1.861 -0.0339 -0.3073 -2.0139
  402MOL0     H55439   8.251   4.635   1.658 -1.0596 -1.8351 -1.4622
  402MOL0     H55440   8.683   4.500   1.679  0.5883  1.4014 -1.2121
  402MOL0     H55441   8.557   4.381   1.626  1.6969 -0.9103 -0.2382
  402MOL0     H55442   8.679   4.406   1.421  0.5345  0.2042 -0.0139
  402MOL0     H55443   8.592   4.564   1.403  1.2574 -0.0077 -2.2330
  402MOL0     H55444   8.874   4.487   1.488 -0.2776 -1.3159 -1.4976
  402MOL0     H55445   8.804   4.644   1.539 -1.1399  0.8213 -1.2644
  402MOL0     H55446   8.769   4.706   1.304  0.9508  1.8004  0.9106
  402MOL0     H55447   8.821   4.538   1.255  0.4479  0.1362 -0.2700
  402MOL0     H55448   8.984   4.749   1.385 -2.7970 -0.1753  0.7257
  402MOL0     H55449   9.042   4.583   1.353  1.8805 -1.0446 -3.6356
  402MOL0     H55450   9.056   4.620   1.124 -1.2295 -0.6499 -0.1944
  402MOL0     H55451   9.125   4.764   1.198  0.8619 -1.7065  0.9273
  402MOL0     H55452   8.881   4.862   1.152 -0.4106 -0.1554  0.0084
  402MOL0     H55453   8.860   4.716   1.056  1.6203 -0.3534  0.2538
  402MOL0     H55454   9.065   4.933   1.004 -1.4571  0.3235  0.9417
  402MOL0     H55455   8.920   4.886   0.909 -0.1292  1.4294  0.0475
  402MOL0     H55456   8.566   4.446   1.871  0.2583  1.6589 -0.1882
  402MOL0     H55457   8.420   4.373   2.040 -3.1134  0.4359  2.0032
  402MOL0     H55458   8.135   4.405   2.300  0.1071 -0.6356  1.8804
  402MOL0     H55459   7.996   4.300   2.485  1.0241  0.5385 -0.2261
  402MOL0     H55460   8.649   4.034   3.176 -2.7183 -1.5505 -0.2519
  402MOL0     H55461   8.828   4.151   3.015 -0.7844 -1.8874  0.7632
  402MOL0     H55462   9.009   4.290   2.728  0.2471 -0.0748 -0.1508
  402MOL0     H55463   9.161   4.307   2.566  0.7697  0.5994  3.3622
  402MOL0     H55464   9.193   4.314   2.335  1.6051 -1.6371 -2.3960
  402MOL0     H55465   9.106   4.411   2.224  1.0785 -2.0587 -0.6651
  402MOL0     H55466   9.349   4.543   2.189  1.2268  0.1175 -1.4941
  402MOL0     H55467   9.328   4.379   2.120 -2.4288 -0.3954 -0.4003
  402MOL0     H55468   9.461   4.464   2.390 -3.5376 -0.1303  1.1436
  402MOL0     H55469   9.411   4.305   2.377  1.0525 -0.7132 -1.2177
  402MOL0     H55470   9.645   4.316   2.303 -0.6759  0.1633  0.4834
  402MOL0     H55471   9.598   4.420   2.162  0.4083 -0.5067 -1.6109
  402MOL0     H55472   9.498   4.016   2.065  1.0828 -0.1672 -0.8353
  402MOL0     H55473   8.981   4.687   2.438 -3.6802 -1.1918 -1.8895
  402MOL0     H55474   8.833   4.762   2.712  0.4850  0.0706 -0.6894
  402MOL0     H55475   8.774   4.752   2.533  0.3706 -0.9140 -0.6112
  402MOL0     H55476   8.701   4.661   2.663  0.8644 -0.1370  2.8759
  403MOL0     O55477   0.701   3.758  11.094 -0.0301  0.1757 -0.9371
  403MOL0     C55478   0.592   3.702  11.133  0.8464 -0.0566  0.6569
  403MOL0     O55479   0.530   3.597  11.063 -0.4291 -0.1653  0.1171
  403MOL0     C55480   0.444   3.518  11.130  0.4156  0.1425 -0.4690
  403MOL0     C55481   0.314   3.499  11.075 -0.1627  0.0289 -0.1306
  403MOL0     C55482   0.217   3.443  11.151 -0.1425  0.1731 -0.6129
  403MOL0     C55483   0.253   3.372  11.277  0.7771 -0.6185  0.3922
  403MOL0     O55484   0.174   3.302  11.368 -0.0656 -0.0372  0.5499
  403MOL0     C55485   0.033   3.329  11.357  0.5831  0.3875 -1.1452
  403MOL0     C55486  -0.019   3.259  11.491 -0.2590 -0.1040 -0.8898
  403MOL0     C55487  -0.149   3.328  11.519 -0.4908  0.8967 -1.0589
  403MOL0     C55488  -0.196   3.257  11.653  0.1333 -0.7064 -0.3049
  403MOL0     C55489  -0.327   3.331  11.698  0.0126  0.0628  0.2400
  403MOL0     C55490  -0.358   3.307  11.843  0.1463  0.6913 -0.4828
  403MOL0     C55491  -0.500   3.355  11.867  0.0806  1.0081  0.3090
  403MOL0     C55492  -0.599   3.235  11.859 -0.0378  0.7475 -0.0860
  403MOL0     N55493  -0.750   3.263  11.852  0.0261 -0.0277  0.8674
  403MOL0     C55494  -0.828   3.305  11.952  0.3372  0.5224 -0.2544
  403MOL0     C55495  -0.947   3.330  11.909 -0.0353  0.8351  0.0089
  403MOL0     C55496  -1.060   3.361  12.007  0.3717 -0.0195 -0.0729
  403MOL0     C55497  -1.089   3.512  12.019  1.0574 -0.2186  0.8670
  403MOL0     C55498  -1.200   3.549  11.927  0.0974 -0.1543  0.2443
  403MOL0     C55499  -1.254   3.694  11.955 -0.6761 -0.4457  0.1014
  403MOL0     O55500  -1.309   3.714  12.090 -0.7594  0.5331  0.2732
  403MOL0     C55501  -1.435   3.665  12.117 -0.0408 -1.0363 -0.2104
  403MOL0     C55502  -1.522   3.611  12.027  0.1591  0.9202 -0.8398
  403MOL0     C55503  -1.656   3.586  12.060 -0.2055  0.2490 -0.3316
  403MOL0     C55504  -1.743   3.556  11.944  0.2880  0.0547 -0.8577
  403MOL0     C55505  -1.695   3.592  12.199  0.1487 -0.4893  0.4727
  403MOL0     C55506  -1.832   3.565  12.247  0.1839  0.0041 -0.1250
  403MOL0     O55507  -1.919   3.516  12.156 -1.3546 -0.0742  0.3502
  403MOL0     C55508  -2.048   3.481  12.195  0.3939  0.1456  0.5430
  403MOL0     C55509  -2.082   3.367  12.270 -0.3674  0.0078  0.1796
  403MOL0     C55510  -2.215   3.341  12.307 -0.6868 -0.2140  0.7269
  403MOL0     C55511  -2.319   3.434  12.277 -0.7558  0.5334  0.4465
  403MOL0     O55512  -2.452   3.428  12.308 -0.4855 -0.4465 -0.6397
  403MOL0     C55513  -2.511   3.301  12.338 -0.0578  0.1474 -0.8681
  403MOL0     C55514  -2.666   3.316  12.371 -1.0667 -0.0133 -0.0224
  403MOL0     C55515  -2.735   3.189  12.321  0.1839 -0.5465  0.5895
  403MOL0     C55516  -2.697   3.079  12.420 -0.5114 -0.5875 -0.0654
  403MOL0     C55517  -2.764   2.940  12.399 -0.2630  0.1747 -0.3249
  403MOL0     C55518  -2.719   2.841  12.500 -0.3050 -0.3526  0.1519
  403MOL0     C55519  -2.790   2.708  12.475  0.5010  0.2788  0.1744
  403MOL0     C55520  -2.953   2.691  12.477  0.2991  0.1648 -0.9274
  403MOL0    Cl55521  -3.015   2.716  12.648  0.1108 -0.0987  0.5018
  403MOL0     C55522  -2.289   3.547  12.204  0.6767 -0.0658  0.2623
  403MOL0     C55523  -2.154   3.571  12.159  1.3078 -0.4585 -0.0030
  403MOL0     O55524  -1.863   3.589  12.364 -0.3235  0.0278 -0.1515
  403MOL0     C55525  -1.594   3.630  12.289  0.1220 -0.5065  0.3634
  403MOL0     C55526  -1.473   3.674  12.249  0.1508 -0.1447 -0.1242
  403MOL0     N55527  -0.944   3.313  11.773  0.3450 -0.0142 -0.6681
  403MOL0     N55528  -0.829   3.269  11.735 -0.2744  0.2011  0.7417
  403MOL0     C55529   0.387   3.373  11.310  0.4420  0.7405 -0.9201
  403MOL0     C55530   0.477   3.444  11.242 -0.6205  0.3777  1.0662
  403MOL0     C55531   0.511   3.770  11.249  0.1695  0.1628  0.1867
  403MOL0     C55532   0.370   3.772  11.238 -0.8721  0.8920  0.1464
  403MOL0     C55533   0.300   3.831  11.345 -1.0626  0.0164  0.3262
  403MOL0     C55534   0.357   3.875  11.463 -0.0912 -0.0399  0.8794
  403MOL0     O55535   0.266   3.939  11.540 -0.1751  0.6154 -0.7700
  403MOL0     C55536   0.303   4.034  11.644 -0.6546  0.5427  0.2595
  403MOL0     C55537   0.195   4.055  11.744 -0.6653  0.2214 -0.6294
  403MOL0     C55538   0.072   4.093  11.663 -0.3816  0.1329 -0.1653
  403MOL0     C55539  -0.053   4.129  11.750 -0.6020 -0.0205 -0.2973
  403MOL0     C55540  -0.036   4.262  11.814  0.3400  0.5981 -0.3745
  403MOL0     C55541  -0.011   4.367  11.863 -0.8988 -0.8110 -0.4598
  403MOL0     C55542   0.497   3.872  11.473  0.7952 -0.7604 -0.7704
  403MOL0     C55543   0.572   3.816  11.371 -0.6888  0.7077 -0.2426
  403MOL0     C55544   0.725   3.830  11.387 -0.0332  0.2681  0.1951
  403MOL0     H55545   0.284   3.537  10.978  1.1329  0.1038 -0.5152
  403MOL0     H55546   0.123   3.442  11.098  0.3501 -1.3327 -1.5246
  403MOL0     H55547  -0.010   3.278  11.270 -1.9647  1.3250 -0.5239
  403MOL0     H55548   0.011   3.436  11.362  0.8091  0.4893 -2.0816
  403MOL0     H55549  -0.027   3.151  11.474 -0.2308  0.0885 -2.2544
  403MOL0     H55550   0.057   3.273  11.568  2.4604  0.0417 -3.4029
  403MOL0     H55551  -0.141   3.437  11.518 -0.5120  1.0119  2.2244
  403MOL0     H55552  -0.231   3.306  11.450 -1.4030  0.4519  0.1307
  403MOL0     H55553  -0.222   3.156  11.618 -1.1025 -0.6060  0.2880
  403MOL0     H55554  -0.110   3.263  11.721  1.6972 -0.7903 -2.1700
  403MOL0     H55555  -0.406   3.299  11.629 -1.0170  1.5518  0.6884
  403MOL0     H55556  -0.315   3.438  11.683  0.2896 -0.1782 -1.5253
  403MOL0     H55557  -0.346   3.204  11.877 -1.0910  1.2358  1.8879
  403MOL0     H55558  -0.287   3.370  11.897  0.4525  1.6444 -1.9406
  403MOL0     H55559  -0.523   3.436  11.797  1.9835  2.4322  1.2412
  403MOL0     H55560  -0.514   3.398  11.967  2.2518  0.9216  0.7035
  403MOL0     H55561  -0.576   3.174  11.771  0.1569  1.1049 -0.2845
  403MOL0     H55562  -0.582   3.166  11.942 -1.1658  0.9122  0.2939
  403MOL0     H55563  -0.812   3.307  12.060 -2.8987  0.1050  0.3239
  403MOL0     H55564  -1.035   3.330  12.109  2.8114  0.9592 -0.2938
  403MOL0     H55565  -1.153   3.308  11.984  0.8087 -0.4538 -0.9247
  403MOL0     H55566  -1.124   3.536  12.120  4.2515  0.2350  1.9535
  403MOL0     H55567  -0.994   3.560  11.994  1.4858 -0.6395  1.6435
  403MOL0     H55568  -1.172   3.537  11.822  4.5011 -0.1574  1.2137
  403MOL0     H55569  -1.293   3.493  11.943 -0.7852  1.6217  1.6613
  403MOL0     H55570  -1.176   3.770  11.947 -0.8203  0.2779  3.7321
  403MOL0     H55571  -1.328   3.717  11.878  0.8249  3.7587 -0.3297
  403MOL0     H55572  -1.499   3.596  11.922 -0.5322 -2.9073 -0.5510
  403MOL0     H55573  -1.793   3.459  11.955  1.2884 -0.3660  0.1291
  403MOL0     H55574  -1.688   3.552  11.850 -2.2482 -0.0706 -2.4348
  403MOL0     H55575  -1.816   3.636  11.932 -0.1138  0.1948  1.8284
  403MOL0     H55576  -1.999   3.305  12.301  1.7111  1.0046 -2.8645
  403MOL0     H55577  -2.231   3.261  12.380 -0.3180 -1.4308 -0.4837
  403MOL0     H55578  -2.497   3.229  12.257  0.1826 -1.9774  0.9642
  403MOL0     H55579  -2.465   3.260  12.429 -2.2179 -2.0217 -0.6388
  403MOL0     H55580  -2.667   3.333  12.479  4.0896  1.3614  0.0693
  403MOL0     H55581  -2.701   3.402  12.312 -1.3852  1.4397  2.1398
  403MOL0     H55582  -2.724   3.167  12.214 -0.7751 -0.0103  0.3743
  403MOL0     H55583  -2.842   3.201  12.338  0.4175  1.3526  0.9410
  403MOL0     H55584  -2.742   3.109  12.515 -4.7593 -2.4705 -1.2374
  403MOL0     H55585  -2.589   3.071  12.439 -0.6149 -3.6366 -0.1387
  403MOL0     H55586  -2.873   2.943  12.393 -0.4330 -1.4856  1.2057
  403MOL0     H55587  -2.728   2.909  12.300 -0.3286 -4.1672  0.8413
  403MOL0     H55588  -2.744   2.883  12.598  0.4422  2.9756 -0.9507
  403MOL0     H55589  -2.610   2.832  12.492 -0.3498 -2.3230  1.1751
  403MOL0     H55590  -2.756   2.639  12.552 -0.9463  2.7675  3.2652
  403MOL0     H55591  -2.757   2.682  12.373  0.4258 -2.9474  0.8554
  403MOL0     H55592  -2.960   2.583  12.459  0.5121 -0.3059  1.4616
  403MOL0     H55593  -3.004   2.764  12.415 -1.3534  2.5432  2.8693
  403MOL0     H55594  -2.355   3.632  12.188  0.8618  0.0640  0.1917
  403MOL0     H55595  -2.129   3.660  12.103 -0.8030 -0.2052 -0.6551
  403MOL0     H55596  -1.626   3.635  12.393 -2.6629 -2.1282 -0.3042
  403MOL0     H55597  -1.401   3.710  12.322 -1.7122  1.1554  1.1516
  403MOL0     H55598   0.423   3.340  11.407  0.6711 -0.9811 -1.5555
  403MOL0     H55599   0.571   3.453  11.295 -1.5809  1.6741  2.6283
  403MOL0     H55600   0.326   3.753  11.141 -0.2650  1.6164 -0.2750
  403MOL0     H55601   0.196   3.862  11.338 -0.2003  2.7372 -4.4187
  403MOL0     H55602   0.389   3.994  11.699 -0.0456  2.7295  1.0188
  403MOL0     H55603   0.341   4.121  11.591  3.0598  0.0108  1.6770
  403MOL0     H55604   0.230   4.129  11.817  0.3949 -0.8981  0.0368
  403MOL0     H55605   0.169   3.958  11.787 -4.7842  0.7695 -1.4639
  403MOL0     H55606   0.111   4.170  11.596  2.3389 -1.5325 -0.6258
  403MOL0     H55607   0.031   4.015  11.598 -0.8399  1.6713 -1.8132
  403MOL0     H55608  -0.066   4.054  11.829 -2.3199 -0.9707 -1.4119
  403MOL0     H55609  -0.150   4.136  11.701 -1.3165 -0.2122  1.0390
  403MOL0     H55610   0.014   4.457  11.917  0.6282 -1.2816 -0.3583
  403MOL0     H55611   0.541   3.921  11.559 -1.4635  0.6695 -0.3575
  403MOL0     H55612   0.752   3.897  11.469 -0.9598  0.9786 -0.0656
  403MOL0     H55613   0.765   3.736  11.427  0.0308  0.2176  0.0125
  403MOL0     H55614   0.780   3.865  11.299 -0.5096 -0.1944 -0.2857
  404MOL0     O55615   5.598   3.678   3.047  0.1610  0.3811 -0.4939
  404MOL0     C55616   5.662   3.782   3.054 -1.0339 -0.2621 -0.4306
  404MOL0     O55617   5.777   3.805   3.127 -0.1734 -0.2665 -0.5025
  404MOL0     C55618   5.824   3.695   3.192  0.4766 -0.1126 -0.2702
  404MOL0     C55619   5.825   3.684   3.327  1.3079  0.1123 -0.1856
  404MOL0     C55620   5.867   3.586   3.410 -0.5036  0.2014  0.5424
  404MOL0     C55621   5.904   3.465   3.352  0.4760  0.4122  0.4893
  404MOL0     O55622   5.970   3.365   3.416 -0.3827 -0.2847  0.1388
  404MOL0     C55623   5.877   3.277   3.478  0.2556  0.4514  0.6169
  404MOL0     C55624   5.937   3.149   3.516  0.1545 -0.2280  0.3294
  404MOL0     C55625   5.831   3.037   3.529 -0.8320  0.4857 -1.1245
  404MOL0     C55626   5.733   3.057   3.638 -0.0287 -0.6141  0.3793
  404MOL0     C55627   5.740   2.959   3.752 -0.1144 -1.0354 -0.1407
  404MOL0     C55628   5.616   2.973   3.857 -0.6401 -0.2852 -0.3560
  404MOL0     C55629   5.516   2.851   3.853  0.0991 -0.7523  0.0005
  404MOL0     C55630   5.576   2.709   3.862  0.0150 -0.0919 -0.2889
  404MOL0     N55631   5.463   2.613   3.865  0.6078  0.7105 -0.1071
  404MOL0     C55632   5.396   2.586   3.981  0.6618 -0.7607  0.2919
  404MOL0     C55633   5.329   2.472   3.954 -0.7445  0.5992 -0.1056
  404MOL0     C55634   5.220   2.411   4.042  0.7891  0.1160  0.9351
  404MOL0     C55635   5.201   2.257   4.023 -0.6071  0.3366  0.2905
  404MOL0     C55636   5.089   2.189   4.106 -0.8174 -0.0677  0.6517
  404MOL0     C55637   5.156   2.153   4.247 -1.1609  0.9554  0.7629
  404MOL0     O55638   5.256   2.053   4.218 -0.3426  0.3199 -0.3158
  404MOL0     C55639   5.216   1.921   4.196  0.4189 -1.4991  0.2560
  404MOL0     C55640   5.089   1.870   4.229  0.2521  0.1440 -0.1594
  404MOL0     C55641   5.068   1.729   4.228  0.5239 -0.3439 -0.0927
  404MOL0     C55642   4.924   1.685   4.264  0.2907  0.7412  0.5103
  404MOL0     C55643   5.167   1.639   4.196 -0.6135 -0.0292 -0.6561
  404MOL0     C55644   5.151   1.490   4.215 -0.5162  0.6550  0.4306
  404MOL0     O55645   5.242   1.405   4.158  0.8396  0.0749  0.7522
  404MOL0     C55646   5.206   1.276   4.130 -1.0159  1.1381  0.6761
  404MOL0     C55647   5.185   1.178   4.219 -0.0894 -0.9085 -0.1454
  404MOL0     C55648   5.164   1.053   4.180 -0.2514  0.1194 -0.1815
  404MOL0     C55649   5.162   1.021   4.044  0.1026  0.6083  0.5660
  404MOL0     O55650   5.134   0.891   3.996 -0.4411  0.7757 -0.2577
  404MOL0     C55651   5.254   0.818   3.970  0.8172  0.9075  0.3325
  404MOL0     C55652   5.314   0.765   4.097  0.6416 -0.1322 -1.1266
  404MOL0     C55653   5.423   0.662   4.053 -0.0050 -0.1745  0.7397
  404MOL0     C55654   5.506   0.625   4.180  0.2323  0.8310  0.2899
  404MOL0     C55655   5.606   0.520   4.136  0.3885 -0.4913 -0.5708
  404MOL0     C55656   5.702   0.509   4.249 -0.5674 -0.0330 -0.2122
  404MOL0     C55657   5.828   0.425   4.210  0.6523  0.1229 -0.3957
  404MOL0     C55658   5.930   0.516   4.136  0.9857  0.5398 -0.1452
  404MOL0    Cl55659   6.085   0.434   4.123  0.0565 -0.2711  0.5020
  404MOL0     C55660   5.189   1.111   3.952 -0.4838 -0.2350  0.5894
  404MOL0     C55661   5.219   1.240   3.994  0.2949 -0.3774 -0.1081
  404MOL0     O55662   5.065   1.455   4.291 -0.2594  0.7661 -0.3623
  404MOL0     C55663   5.294   1.693   4.162 -0.5873 -0.2983 -0.1017
  404MOL0     C55664   5.321   1.836   4.166 -0.2577  0.2796 -0.0029
  404MOL0     N55665   5.366   2.436   3.825  0.0578 -0.1326  0.5745
  404MOL0     N55666   5.449   2.521   3.764  0.6148  0.0335 -0.0025
  404MOL0     C55667   5.906   3.460   3.212  0.8985 -0.3322 -0.0005
  404MOL0     C55668   5.873   3.575   3.133 -0.0890  0.8765  0.4456
  404MOL0     C55669   5.619   3.895   2.964  1.0504 -0.5132  0.4461
  404MOL0     C55670   5.690   4.014   2.968  0.4593  0.3697  0.1602
  404MOL0     C55671   5.671   4.123   2.879  0.3193  0.6047  0.4860
  404MOL0     C55672   5.556   4.120   2.807 -0.4250 -0.0451  0.0989
  404MOL0     O55673   5.526   4.239   2.744  0.2761  0.4670  0.3967
  404MOL0     C55674   5.397   4.262   2.682  0.0349  0.0805 -0.6883
  404MOL0     C55675   5.280   4.298   2.773 -1.0774  0.4498 -0.8899
  404MOL0     C55676   5.318   4.401   2.881 -0.9269 -0.2124  0.7190
  404MOL0     C55677   5.200   4.453   2.964 -0.5247 -0.3844 -0.2691
  404MOL0     C55678   5.098   4.520   2.879  0.4831 -0.1219 -0.2884
  404MOL0     C55679   5.004   4.570   2.831  1.1584 -0.9596 -0.4653
  404MOL0     C55680   5.466   4.010   2.814  0.0251 -1.4406 -0.0618
  404MOL0     C55681   5.506   3.891   2.878  0.1884 -0.5108 -0.3442
  404MOL0     C55682   5.411   3.775   2.843  0.4736  0.0426  0.4213
  404MOL0     H55683   5.788   3.769   3.384  0.0352 -0.1024 -0.6572
  404MOL0     H55684   5.889   3.585   3.516 -0.2632 -3.4057  0.5805
  404MOL0     H55685   5.803   3.253   3.403  1.3385  1.9663 -1.0261
  404MOL0     H55686   5.828   3.330   3.561  0.6925  3.8061 -1.1019
  404MOL0     H55687   6.001   3.112   3.436  0.4870 -1.3798  1.1099
  404MOL0     H55688   6.006   3.157   3.601  0.9246  0.9672 -0.3789
  404MOL0     H55689   5.770   3.042   3.439 -1.8240  1.2050 -0.4280
  404MOL0     H55690   5.885   2.942   3.524  1.0136  1.4476 -0.4096
  404MOL0     H55691   5.740   3.156   3.684  1.5324 -1.3254  1.7665
  404MOL0     H55692   5.634   3.049   3.591  0.1169 -6.0654  0.4656
  404MOL0     H55693   5.835   2.967   3.806  0.9743 -3.8796 -1.3970
  404MOL0     H55694   5.733   2.857   3.714 -1.2122 -1.3792  0.9314
  404MOL0     H55695   5.655   2.983   3.959  0.8920  2.2920 -1.1104
  404MOL0     H55696   5.552   3.058   3.833  1.4233  1.0137 -1.5393
  404MOL0     H55697   5.456   2.860   3.762 -0.0624 -0.5795  0.1217
  404MOL0     H55698   5.449   2.872   3.937  2.7787 -0.5678  2.2367
  404MOL0     H55699   5.636   2.681   3.775  0.0063 -0.4967 -0.1655
  404MOL0     H55700   5.637   2.695   3.952 -0.5205  1.2084  0.3045
  404MOL0     H55701   5.404   2.644   4.072  2.4386  0.7183 -0.7407
  404MOL0     H55702   5.124   2.457   4.017  2.0562  3.4639  1.7403
  404MOL0     H55703   5.255   2.435   4.143  1.7069  0.6470  0.4930
  404MOL0     H55704   5.173   2.247   3.917  3.1139  0.5722 -0.8650
  404MOL0     H55705   5.292   2.196   4.033  0.2191  1.6474  1.0454
  404MOL0     H55706   5.012   2.266   4.119  1.4148  3.2215 -3.1879
  404MOL0     H55707   5.055   2.100   4.053  2.0347 -1.3241  0.7535
  404MOL0     H55708   5.197   2.239   4.301  0.8900  0.1286  0.6121
  404MOL0     H55709   5.073   2.116   4.308 -0.3869 -2.0372  0.1678
  404MOL0     H55710   4.999   1.927   4.248 -1.2277 -1.7847 -0.9740
  404MOL0     H55711   4.920   1.652   4.368 -3.0538 -3.3857 -0.6601
  404MOL0     H55712   4.896   1.598   4.204 -0.4605  1.3520 -0.0452
  404MOL0     H55713   4.846   1.755   4.232 -0.0218 -1.1352 -3.4422
  404MOL0     H55714   5.196   1.210   4.322 -0.4717 -1.2883  0.0171
  404MOL0     H55715   5.159   0.972   4.253  1.4874 -0.0727 -0.2353
  404MOL0     H55716   5.228   0.736   3.903  0.3106  0.2421  1.3173
  404MOL0     H55717   5.322   0.880   3.910 -0.5879  2.7889  0.5785
  404MOL0     H55718   5.354   0.840   4.165  3.2873 -3.5017  1.4326
  404MOL0     H55719   5.228   0.715   4.143 -1.0301  1.0926 -2.7808
  404MOL0     H55720   5.482   0.715   3.977 -1.3942  1.2672  0.5945
  404MOL0     H55721   5.375   0.573   4.010  0.6957 -1.1893  2.0152
  404MOL0     H55722   5.445   0.571   4.253 -1.8919  1.7142 -0.7717
  404MOL0     H55723   5.551   0.714   4.225  1.2751  0.6378 -0.3244
  404MOL0     H55724   5.555   0.424   4.125  0.9882 -1.3243  2.7483
  404MOL0     H55725   5.645   0.550   4.039 -0.6192  2.5168 -0.1441
  404MOL0     H55726   5.641   0.466   4.329 -0.7269 -1.9981 -1.3475
  404MOL0     H55727   5.736   0.606   4.287  1.7986 -1.4693  1.6054
  404MOL0     H55728   5.807   0.339   4.145  3.1047 -1.7051  1.0751
  404MOL0     H55729   5.881   0.394   4.300  0.6053  2.4694  0.5162
  404MOL0     H55730   5.945   0.605   4.198  0.8834  0.1945  0.3877
  404MOL0     H55731   5.893   0.557   4.042 -2.5232  0.0317  0.8626
  404MOL0     H55732   5.178   1.080   3.849 -2.3158 -2.0303  1.2548
  404MOL0     H55733   5.248   1.328   3.937  1.9787 -0.1501  1.0210
  404MOL0     H55734   5.380   1.627   4.155  2.4938  3.4492 -2.3271
  404MOL0     H55735   5.422   1.870   4.145 -0.4468  2.4812  2.2565
  404MOL0     H55736   5.943   3.369   3.167  0.0614 -0.5802 -0.1983
  404MOL0     H55737   5.881   3.567   3.025  1.9206 -0.9590  0.6682
  404MOL0     H55738   5.780   4.005   3.028  0.2097  1.3118  0.7055
  404MOL0     H55739   5.728   4.213   2.900  1.7693 -0.6457  2.3549
  404MOL0     H55740   5.406   4.337   2.603  2.4171 -1.3814 -1.9191
  404MOL0     H55741   5.358   4.179   2.622  0.1667 -0.2860 -0.2701
  404MOL0     H55742   5.238   4.207   2.816 -0.6949  1.0714  0.9273
  404MOL0     H55743   5.192   4.337   2.722 -2.0433 -0.4494  0.0672
  404MOL0     H55744   5.387   4.355   2.953 -0.4075 -0.8123 -0.1417
  404MOL0     H55745   5.364   4.486   2.831 -0.6945 -2.9538 -4.4037
  404MOL0     H55746   5.235   4.525   3.038 -0.5181 -1.9970  1.3801
  404MOL0     H55747   5.150   4.373   3.021 -0.9567  1.0219  1.4346
  404MOL0     H55748   4.922   4.619   2.783  2.3288  2.1199  0.4006
  404MOL0     H55749   5.368   4.014   2.768 -0.6376 -5.4333  0.6442
  404MOL0     H55750   5.349   3.769   2.933 -0.3307 -0.3529 -0.1398
  404MOL0     H55751   5.363   3.799   2.747 -0.3540 -0.1621  0.7722
  404MOL0     H55752   5.454   3.675   2.833 -1.9857 -1.2900  2.2399
  405MOL0     O55753   0.689   8.704   0.044  0.5146 -0.0937 -0.4407
  405MOL0     C55754   0.613   8.681   0.143 -0.4667 -0.8628  0.1567
  405MOL0     O55755   0.658   8.653   0.273  0.2435 -0.6273  0.6390
  405MOL0     C55756   0.791   8.638   0.295 -0.1312  0.2460  0.2956
  405MOL0     C55757   0.887   8.726   0.247 -1.0132  0.4017 -0.4811
  405MOL0     C55758   1.020   8.718   0.298  0.0389  0.1402 -0.5642
  405MOL0     C55759   1.048   8.623   0.397 -1.2543  0.7091 -0.3986
  405MOL0     O55760   1.172   8.638   0.451 -0.4590  0.2215 -0.1306
  405MOL0     C55761   1.222   8.532   0.542  0.3890 -0.1612  0.1436
  405MOL0     C55762   1.358   8.561   0.598  0.4537  0.0051 -0.2944
  405MOL0     C55763   1.467   8.575   0.492  1.1785 -0.5922  0.6668
  405MOL0     C55764   1.581   8.643   0.548  1.1271 -0.4135  0.0357
  405MOL0     C55765   1.693   8.658   0.458 -0.1098  0.0909  0.7975
  405MOL0     C55766   1.817   8.702   0.539 -0.7547 -0.1638 -0.3650
  405MOL0     C55767   1.944   8.726   0.447 -0.9374 -0.7374  0.2258
  405MOL0     C55768   2.068   8.739   0.541  0.6566  0.8578  0.6193
  405MOL0     N55769   2.187   8.748   0.465 -0.2660 -0.0286  0.6220
  405MOL0     C55770   2.318   8.731   0.517 -0.0269  0.3947  0.1343
  405MOL0     C55771   2.409   8.772   0.420  0.7475  0.5465  1.1336
  405MOL0     C55772   2.557   8.787   0.431  0.8157  0.1515  0.3304
  405MOL0     C55773   2.627   8.647   0.410  0.7564  0.0767 -0.5807
  405MOL0     C55774   2.621   8.591   0.267  0.2413 -0.3420  0.9347
  405MOL0     C55775   2.676   8.442   0.259  0.4408  0.2302 -0.7112
  405MOL0     O55776   2.815   8.437   0.269  0.6995  0.9255 -0.0285
  405MOL0     C55777   2.884   8.329   0.222  0.1498 -0.5462  0.1898
  405MOL0     C55778   2.840   8.217   0.156  0.3461  0.7026 -0.2725
  405MOL0     C55779   2.919   8.120   0.103 -0.5047 -1.5721  0.6772
  405MOL0     C55780   2.857   8.013   0.036  0.2208  0.2677 -0.6394
  405MOL0     C55781   3.057   8.149   0.097 -0.2755 -0.5848  0.2459
  405MOL0     C55782   3.154   8.070   0.019  0.1928 -0.0543 -0.4928
  405MOL0     O55783   3.283   8.114   0.008  0.1918  0.8015  0.6110
  405MOL0     C55784   3.366   8.027  -0.052  0.0081  1.4135 -0.3138
  405MOL0     C55785   3.431   7.930   0.020 -0.1406  0.3358  0.1080
  405MOL0     C55786   3.525   7.846  -0.040  0.4083  0.0549  0.1686
  405MOL0     C55787   3.562   7.873  -0.178  0.1647  0.7942 -1.1000
  405MOL0     O55788   3.636   7.782  -0.253 -0.0286 -0.0496 -0.0322
  405MOL0     C55789   3.743   7.710  -0.190 -0.3047  0.0339  0.6217
  405MOL0     C55790   3.840   7.624  -0.283 -0.4231  0.0945 -0.3534
  405MOL0     C55791   3.824   7.639  -0.425 -0.5254  0.2833  0.8773
  405MOL0     C55792   3.859   7.777  -0.481  0.4109  0.0405 -0.7853
  405MOL0     C55793   3.884   7.771  -0.624  0.3273 -0.0216 -0.2086
  405MOL0     C55794   3.916   7.919  -0.660 -0.5391 -0.4017 -0.2392
  405MOL0     C55795   3.924   7.939  -0.819 -0.3422  0.4582 -0.5952
  405MOL0     C55796   3.902   8.083  -0.861  0.1306 -0.2464  0.7952
  405MOL0    Cl55797   4.035   8.169  -0.792 -0.7370 -0.1906  0.2178
  405MOL0     C55798   3.500   7.979  -0.246 -0.4823 -0.1629  1.0141
  405MOL0     C55799   3.404   8.060  -0.178 -0.7147  0.7420 -0.5501
  405MOL0     O55800   3.112   7.964  -0.025  0.4906 -0.5037 -0.7484
  405MOL0     C55801   3.109   8.260   0.158  1.3295 -0.3706  0.1371
  405MOL0     C55802   3.022   8.349   0.216  0.3180 -0.8357 -0.3663
  405MOL0     N55803   2.325   8.802   0.306 -0.3478  1.0212 -0.4195
  405MOL0     N55804   2.199   8.798   0.334  0.0304 -0.9622  0.1834
  405MOL0     C55805   0.952   8.529   0.447  0.1586 -0.2113 -0.2408
  405MOL0     C55806   0.820   8.544   0.390 -0.4574  0.0624 -0.1942
  405MOL0     C55807   0.470   8.687   0.113  0.6411 -0.1138  0.4805
  405MOL0     C55808   0.426   8.766   0.009  0.2320 -0.0959  0.8043
  405MOL0     C55809   0.293   8.771  -0.026 -0.3218 -0.3860  0.2309
  405MOL0     C55810   0.192   8.716   0.058 -0.5654 -0.6085 -1.1293
  405MOL0     O55811   0.053   8.733   0.056  0.4849  0.5751 -0.2198
  405MOL0     C55812  -0.000   8.798  -0.053  0.2127  0.0864  0.6704
  405MOL0     C55813   0.013   8.958  -0.054  0.6075  0.7542  0.0007
  405MOL0     C55814  -0.085   9.020  -0.168  0.6095  0.0557  0.0818
  405MOL0     C55815  -0.237   8.979  -0.160 -1.1851 -0.1892  0.3069
  405MOL0     C55816  -0.329   9.065  -0.232  0.4431  0.2317  0.2783
  405MOL0     C55817  -0.413   9.133  -0.292  0.3446 -0.1265 -0.5359
  405MOL0     C55818   0.237   8.638   0.172  0.0966  0.5055  0.0525
  405MOL0     C55819   0.376   8.617   0.192  0.7558 -0.9535  0.0819
  405MOL0     C55820   0.408   8.534   0.307 -0.8803 -0.0120  0.0623
  405MOL0     H55821   0.869   8.811   0.181  1.7739 -0.3303 -2.3679
  405MOL0     H55822   1.092   8.794   0.271  0.9311  0.5301  2.4915
  405MOL0     H55823   1.221   8.442   0.481  1.1556  0.4468 -0.7871
  405MOL0     H55824   1.164   8.502   0.630 -0.5717 -1.8329 -1.0198
  405MOL0     H55825   1.355   8.657   0.652  2.8665  0.0939 -0.2060
  405MOL0     H55826   1.387   8.489   0.675  1.3623  1.0263  0.3657
  405MOL0     H55827   1.493   8.471   0.468 -0.1190 -1.1505  1.5651
  405MOL0     H55828   1.448   8.626   0.397 -0.1995 -1.8760  0.2011
  405MOL0     H55829   1.541   8.733   0.596 -0.1534  0.3456 -2.2763
  405MOL0     H55830   1.612   8.583   0.633  0.2870  0.2224  0.8101
  405MOL0     H55831   1.663   8.724   0.377 -2.5495 -0.3246  1.2851
  405MOL0     H55832   1.712   8.562   0.409 -0.8318 -0.2374  1.1413
  405MOL0     H55833   1.790   8.800   0.579  1.0852  0.7772 -1.3242
  405MOL0     H55834   1.844   8.632   0.619 -3.4049 -1.1379 -0.2200
  405MOL0     H55835   1.937   8.818   0.389  0.8436  0.3316  1.5904
  405MOL0     H55836   1.955   8.643   0.377  1.0359 -0.2980 -0.0448
  405MOL0     H55837   2.057   8.832   0.598  2.5710  0.8035  1.1437
  405MOL0     H55838   2.064   8.654   0.609 -1.7035 -1.4690 -2.1548
  405MOL0     H55839   2.347   8.709   0.619 -1.6171  0.3904  0.6133
  405MOL0     H55840   2.565   8.839   0.527 -2.2141  3.8877 -1.1705
  405MOL0     H55841   2.593   8.843   0.345 -0.6159 -1.4726 -1.4163
  405MOL0     H55842   2.734   8.666   0.426  0.9692 -0.0205 -1.7911
  405MOL0     H55843   2.577   8.579   0.480  1.2356 -0.7693 -1.0466
  405MOL0     H55844   2.517   8.600   0.233  1.3882 -2.8799 -4.2031
  405MOL0     H55845   2.688   8.657   0.212 -1.1885  2.2713  2.1111
  405MOL0     H55846   2.631   8.382   0.339  0.2559  2.6969  1.1783
  405MOL0     H55847   2.640   8.390   0.170 -0.3735  1.9953 -1.4495
  405MOL0     H55848   2.732   8.205   0.164  0.6548 -2.2534  0.6179
  405MOL0     H55849   2.890   8.007  -0.068  2.9929  3.0406 -0.0496
  405MOL0     H55850   2.749   8.023   0.050  0.3743 -1.2249  2.6505
  405MOL0     H55851   2.879   7.923   0.094  0.6207  2.1557  2.3411
  405MOL0     H55852   3.388   7.919   0.119 -0.2276  3.1797  0.4605
  405MOL0     H55853   3.563   7.756   0.008  1.3388  0.3852  0.0887
  405MOL0     H55854   3.807   7.785  -0.143  2.5368 -3.2462  2.5055
  405MOL0     H55855   3.712   7.644  -0.108 -0.1686 -3.1242 -1.6951
  405MOL0     H55856   3.942   7.658  -0.265 -0.8596  1.9200 -1.1519
  405MOL0     H55857   3.832   7.516  -0.269  0.2551  0.3463  2.3809
  405MOL0     H55858   3.721   7.613  -0.450 -0.7582  2.8717 -1.3529
  405MOL0     H55859   3.883   7.570  -0.486  1.2690  3.3325 -1.1110
  405MOL0     H55860   3.956   7.805  -0.439  0.8628  0.1237 -1.8371
  405MOL0     H55861   3.775   7.842  -0.456 -0.9740 -0.8966 -2.7320
  405MOL0     H55862   3.972   7.710  -0.645  1.6534  1.5190  0.6056
  405MOL0     H55863   3.801   7.731  -0.683 -0.6039  0.3756  0.7984
  405MOL0     H55864   4.005   7.953  -0.607 -1.0269 -1.3263  1.2278
  405MOL0     H55865   3.835   7.986  -0.630  0.0452  0.4618 -0.5258
  405MOL0     H55866   3.852   7.872  -0.867 -1.4207 -0.8551  2.5808
  405MOL0     H55867   4.021   7.900  -0.851 -1.0308 -2.3984  0.4318
  405MOL0     H55868   3.806   8.122  -0.826  0.9588 -1.7851  5.3948
  405MOL0     H55869   3.915   8.094  -0.970  1.1435  1.0249  1.0116
  405MOL0     H55870   3.522   8.003  -0.349 -0.9074  1.0618  1.1931
  405MOL0     H55871   3.366   8.152  -0.222 -1.9151  0.3321 -0.4082
  405MOL0     H55872   3.214   8.286   0.149  1.7500 -1.8952  0.4275
  405MOL0     H55873   3.049   8.438   0.271 -0.9721  1.2778 -2.9387
  405MOL0     H55874   0.963   8.464   0.534 -1.5163 -1.8287 -1.1504
  405MOL0     H55875   0.741   8.484   0.433  0.0023 -2.9783 -3.2511
  405MOL0     H55876   0.480   8.811  -0.074  0.3122 -0.3189  0.7353
  405MOL0     H55877   0.263   8.822  -0.117  0.1014  0.5727  0.6102
  405MOL0     H55878   0.046   8.757  -0.143 -2.1705 -3.3502  0.8348
  405MOL0     H55879  -0.106   8.770  -0.059  0.7719 -2.4081  1.2716
  405MOL0     H55880   0.112   9.000  -0.072  0.5586  0.5688 -0.7379
  405MOL0     H55881  -0.007   8.989   0.049  0.7097 -0.4210  0.3976
  405MOL0     H55882  -0.064   9.128  -0.164  1.4108 -0.1186  0.7970
  405MOL0     H55883  -0.051   8.998  -0.269 -1.3931  3.7968 -1.6284
  405MOL0     H55884  -0.272   8.982  -0.057 -1.3118 -3.2401  0.4626
  405MOL0     H55885  -0.232   8.871  -0.179  0.7790 -0.6378  2.7761
  405MOL0     H55886  -0.454   9.220  -0.339  3.6244  2.3077  0.7374
  405MOL0     H55887   0.156   8.606   0.238  1.5945 -1.7613  0.9038
  405MOL0     H55888   0.322   8.474   0.338  0.4137 -3.1720 -1.8861
  405MOL0     H55889   0.481   8.457   0.280  1.1942  0.2165  4.2477
  405MOL0     H55890   0.458   8.586   0.389  2.2406 -1.3613 -0.8219
  406MOL0     O55891   3.179   8.660   1.459 -0.5592 -0.2262  1.0928
  406MOL0     C55892   3.198   8.731   1.555  0.3064  0.3129 -0.0375
  406MOL0     O55893   3.322   8.747   1.608  0.2007  0.6206 -0.8154
  406MOL0     C55894   3.447   8.718   1.556 -0.5156 -0.2961  0.0193
  406MOL0     C55895   3.472   8.659   1.428  0.1902  0.0348  0.3988
  406MOL0     C55896   3.600   8.642   1.388 -1.5018 -0.7860  0.2666
  406MOL0     C55897   3.709   8.692   1.465 -0.6840  0.4635 -0.1847
  406MOL0     O55898   3.844   8.665   1.440  0.7488  0.4394 -0.2104
  406MOL0     C55899   3.890   8.679   1.304  0.4982 -0.0033 -0.1027
  406MOL0     C55900   3.885   8.541   1.240 -0.1207  0.3842  0.3679
  406MOL0     C55901   4.006   8.533   1.158  0.4406  0.4295 -0.2028
  406MOL0     C55902   3.989   8.601   1.017  0.1584 -0.2398 -0.1726
  406MOL0     C55903   4.114   8.570   0.931 -0.2462 -0.2294 -0.1479
  406MOL0     C55904   4.247   8.604   0.989  0.5494  0.0090  0.1232
  406MOL0     C55905   4.348   8.594   0.882 -0.5375  0.9572  0.6368
  406MOL0     C55906   4.480   8.635   0.942 -0.4242 -1.0284 -1.2778
  406MOL0     N55907   4.590   8.587   0.864 -0.1300  0.3365  1.6143
  406MOL0     C55908   4.712   8.541   0.899 -0.4767  0.8117  0.2348
  406MOL0     C55909   4.787   8.527   0.790 -0.3865 -0.0887 -0.5324
  406MOL0     C55910   4.940   8.500   0.789  0.2037 -0.0134 -1.1052
  406MOL0     C55911   5.019   8.586   0.692  0.1617 -0.9666 -0.7092
  406MOL0     C55912   5.063   8.713   0.756 -0.8363  0.1918 -0.1543
  406MOL0     C55913   5.118   8.806   0.648  0.0120  0.5221 -0.0670
  406MOL0     O55914   5.114   8.943   0.692 -0.1251 -0.1417  0.7573
  406MOL0     C55915   4.987   9.005   0.715 -0.0898 -0.3527  0.8967
  406MOL0     C55916   4.865   8.953   0.657 -0.4179 -0.3653 -0.7320
  406MOL0     C55917   4.742   9.023   0.674 -0.0852 -0.4935 -0.0646
  406MOL0     C55918   4.612   8.967   0.613  1.0744 -1.0605 -0.3443
  406MOL0     C55919   4.743   9.148   0.736  0.3748 -0.9161 -0.7784
  406MOL0     C55920   4.628   9.241   0.755  0.0922  0.1887 -0.6992
  406MOL0     O55921   4.522   9.239   0.656 -0.4750  0.5696  0.2815
  406MOL0     C55922   4.404   9.299   0.684 -0.0383 -0.3960 -1.3204
  406MOL0     C55923   4.381   9.421   0.751  1.1831  0.6603 -0.9527
  406MOL0     C55924   4.247   9.458   0.763  0.2866 -0.3616 -0.3246
  406MOL0     C55925   4.132   9.392   0.703 -0.4422 -0.0534 -0.2686
  406MOL0     O55926   4.010   9.453   0.716  0.2696 -0.5921 -0.0573
  406MOL0     C55927   3.890   9.389   0.669  0.3023  0.1300  0.0321
  406MOL0     C55928   3.798   9.487   0.606  0.0406  0.4387 -1.2725
  406MOL0     C55929   3.749   9.596   0.707 -0.2173  0.0993 -0.2510
  406MOL0     C55930   3.677   9.557   0.838 -0.4271  0.9043  0.9517
  406MOL0     C55931   3.545   9.483   0.810  0.0486  0.2828  0.3407
  406MOL0     C55932   3.477   9.449   0.946 -0.0773  0.6783 -0.2174
  406MOL0     C55933   3.348   9.374   0.909 -0.3938  0.2971  0.3550
  406MOL0     C55934   3.251   9.352   1.032 -0.9953  0.2114  0.4036
  406MOL0    Cl55935   3.344   9.267   1.164  0.6648  0.3232 -0.0598
  406MOL0     C55936   4.157   9.269   0.646 -0.6719  1.0350 -0.6777
  406MOL0     C55937   4.292   9.230   0.630  0.7398  0.2080  0.7768
  406MOL0     O55938   4.620   9.293   0.869  0.1675 -0.8143 -0.0052
  406MOL0     C55939   4.868   9.196   0.786  1.2543 -0.2610 -0.1855
  406MOL0     C55940   4.988   9.130   0.766  0.1883 -0.5759  0.2531
  406MOL0     N55941   4.716   8.574   0.678  0.5077  0.0094  0.0192
  406MOL0     N55942   4.601   8.609   0.728  0.0009  0.3987 -0.4233
  406MOL0     C55943   3.689   8.748   1.591 -0.4577 -0.2226 -0.7675
  406MOL0     C55944   3.552   8.765   1.639 -0.4183  0.1484  0.3941
  406MOL0     C55945   3.085   8.799   1.617 -0.3809  0.2992  0.0567
  406MOL0     C55946   3.102   8.932   1.652 -1.2223  0.1024  0.5007
  406MOL0     C55947   2.996   9.007   1.718 -0.4391  0.4031 -0.0226
  406MOL0     C55948   2.874   8.953   1.735  0.5325  0.1169  0.2340
  406MOL0     O55949   2.778   9.031   1.790  0.1205  0.3924 -0.4828
  406MOL0     C55950   2.640   8.984   1.792 -0.8181 -0.4983 -0.6924
  406MOL0     C55951   2.565   9.108   1.839 -0.6460 -0.1593 -1.2021
  406MOL0     C55952   2.408   9.086   1.836  0.1456 -0.4995 -0.2800
  406MOL0     C55953   2.342   9.226   1.873 -0.4821  0.0746  0.2726
  406MOL0     C55954   2.194   9.229   1.846  0.2618 -0.1000 -0.1261
  406MOL0     C55955   2.072   9.232   1.820  0.8132  1.6222 -1.0682
  406MOL0     C55956   2.854   8.816   1.699  0.1128 -0.3383  0.2677
  406MOL0     C55957   2.963   8.734   1.648  0.9053  0.2119 -0.2218
  406MOL0     C55958   2.944   8.580   1.641  0.0540  0.1874  0.1827
  406MOL0     H55959   3.398   8.612   1.364  1.8248  1.3816 -2.7502
  406MOL0     H55960   3.621   8.586   1.297 -0.3618 -1.1433  0.7335
  406MOL0     H55961   3.987   8.728   1.319 -0.9731  2.8278  0.9592
  406MOL0     H55962   3.818   8.741   1.249  0.9415  2.3031  1.7091
  406MOL0     H55963   3.880   8.454   1.306 -1.5088 -0.6672 -1.0682
  406MOL0     H55964   3.791   8.533   1.185 -1.2502 -0.0766  2.2583
  406MOL0     H55965   4.103   8.560   1.201  3.1973 -4.9794 -2.1012
  406MOL0     H55966   4.021   8.426   1.140  0.6182  0.6550 -1.4899
  406MOL0     H55967   3.907   8.554   0.962  2.8948 -1.4012 -3.7003
  406MOL0     H55968   3.974   8.708   1.029 -0.1844 -0.0270 -2.1843
  406MOL0     H55969   4.106   8.619   0.833  2.0673  0.7140  0.0609
  406MOL0     H55970   4.121   8.461   0.927  2.1754 -0.1098 -0.8708
  406MOL0     H55971   4.235   8.705   1.029 -1.5438 -1.2337  2.9284
  406MOL0     H55972   4.280   8.534   1.065  1.1937 -1.4496 -1.4330
  406MOL0     H55973   4.331   8.661   0.798  0.3776  1.5393  0.9020
  406MOL0     H55974   4.351   8.488   0.856 -0.4961  0.4255  2.5942
  406MOL0     H55975   4.489   8.744   0.942  1.5233 -1.1342 -2.8223
  406MOL0     H55976   4.485   8.601   1.046  3.1403 -2.3026 -1.7217
  406MOL0     H55977   4.754   8.524   0.998  1.8371  0.3168 -0.7629
  406MOL0     H55978   4.949   8.404   0.737 -2.2972 -0.1188 -1.4243
  406MOL0     H55979   4.991   8.492   0.885  1.1257 -2.9685 -1.7342
  406MOL0     H55980   5.115   8.541   0.664  0.6224  0.6582 -1.8798
  406MOL0     H55981   4.955   8.604   0.605  1.0385  4.4850 -0.5944
  406MOL0     H55982   4.990   8.771   0.813 -0.6242 -1.8322  2.3358
  406MOL0     H55983   5.143   8.688   0.826 -2.2270 -0.5008  1.2567
  406MOL0     H55984   5.223   8.780   0.630 -0.1598 -1.2542  1.2797
  406MOL0     H55985   5.058   8.792   0.558  1.1901 -1.8693 -0.5558
  406MOL0     H55986   4.864   8.851   0.619  2.6573 -0.8201  0.1252
  406MOL0     H55987   4.539   8.961   0.694  0.5043  1.0159 -0.6570
  406MOL0     H55988   4.630   8.864   0.580 -1.5688 -1.0537 -2.0031
  406MOL0     H55989   4.579   9.035   0.535  0.5885 -2.1374 -1.0991
  406MOL0     H55990   4.449   9.484   0.807  2.2757 -2.1626  1.1364
  406MOL0     H55991   4.229   9.554   0.810 -2.5408  1.5908 -4.6661
  406MOL0     H55992   3.908   9.321   0.586 -2.7359 -1.0824  0.2298
  406MOL0     H55993   3.854   9.333   0.757  2.1471  1.4739  1.7200
  406MOL0     H55994   3.845   9.541   0.523 -0.5689  2.3905 -0.3992
  406MOL0     H55995   3.718   9.424   0.568  1.1763 -0.0155 -3.0259
  406MOL0     H55996   3.696   9.674   0.652  0.7133 -1.8892 -4.3890
  406MOL0     H55997   3.839   9.651   0.737  1.3423 -1.4674 -1.8276
  406MOL0     H55998   3.646   9.645   0.895  0.4529  0.9177  1.4222
  406MOL0     H55999   3.746   9.505   0.905  0.1869  2.9496  1.9760
  406MOL0     H56000   3.489   9.546   0.741  0.5882 -2.1435 -2.5749
  406MOL0     H56001   3.571   9.392   0.755 -0.6606  0.8821 -1.0178
  406MOL0     H56002   3.445   9.533   1.007 -2.0946 -0.5685  0.5294
  406MOL0     H56003   3.546   9.388   1.006 -1.7556 -0.1805  0.9167
  406MOL0     H56004   3.376   9.280   0.860  2.6905  0.5988  1.3351
  406MOL0     H56005   3.291   9.430   0.834 -1.5103 -1.1081  0.0953
  406MOL0     H56006   3.181   9.274   1.001  0.3548 -1.5350  1.5798
  406MOL0     H56007   3.213   9.448   1.068  0.8583  1.2980 -0.3761
  406MOL0     H56008   4.079   9.207   0.603  1.6237 -2.2491 -0.4700
  406MOL0     H56009   4.296   9.140   0.569 -0.2865  0.5578  0.1644
  406MOL0     H56010   4.873   9.293   0.836 -1.7529  0.6949 -1.5510
  406MOL0     H56011   5.079   9.188   0.777 -0.3631  0.0462  2.0704
  406MOL0     H56012   3.774   8.763   1.656  1.6986 -2.6064 -2.8440
  406MOL0     H56013   3.531   8.800   1.739  0.6027 -0.7023  0.9282
  406MOL0     H56014   3.199   8.975   1.629 -1.4492  1.3621  1.8147
  406MOL0     H56015   3.007   9.114   1.731 -1.2964  0.4224  0.6385
  406MOL0     H56016   2.624   8.942   1.692  1.5074  0.0110 -1.3266
  406MOL0     H56017   2.602   8.910   1.864 -3.4656  3.2496  2.1476
  406MOL0     H56018   2.588   9.187   1.767  0.5191  1.6379  1.0269
  406MOL0     H56019   2.595   9.147   1.936 -2.0335  2.5312 -1.7563
  406MOL0     H56020   2.381   9.054   1.735 -1.5198  0.8162 -0.2809
  406MOL0     H56021   2.386   9.007   1.908  1.5291 -0.0423  0.6842
  406MOL0     H56022   2.394   9.296   1.806 -0.2357 -1.3933 -1.1347
  406MOL0     H56023   2.359   9.253   1.978  0.0813  0.6256  0.0444
  406MOL0     H56024   1.969   9.230   1.788  1.3937 -3.4996 -3.5738
  406MOL0     H56025   2.760   8.765   1.716  0.5375 -1.8517 -1.5476
  406MOL0     H56026   2.933   8.524   1.735  2.2229  0.8764  0.9042
  406MOL0     H56027   2.854   8.556   1.584  1.2017 -1.2129 -1.1400
  406MOL0     H56028   3.030   8.536   1.590 -0.4149 -1.1082  0.4655
  407MOL0     O56029   4.683  10.292   4.451 -0.0807  0.1988 -0.3677
  407MOL0     C56030   4.743  10.186   4.466 -0.5379  0.2872 -0.7680
  407MOL0     O56031   4.841  10.140   4.382  0.2937 -0.3750 -0.0475
  407MOL0     C56032   4.853  10.170   4.245  0.7684 -0.1722 -0.5570
  407MOL0     C56033   4.866  10.069   4.152 -0.0527  0.4804 -0.2136
  407MOL0     C56034   4.893  10.094   4.021  0.5531 -0.3116  0.0893
  407MOL0     C56035   4.916  10.223   3.971 -0.0636  0.2867  0.2709
  407MOL0     O56036   4.947  10.258   3.842 -0.0395 -0.1751  0.4787
  407MOL0     C56037   4.870  10.198   3.735  0.8146 -0.0710  0.1213
  407MOL0     C56038   4.923  10.249   3.596  0.1317 -0.2006 -0.3393
  407MOL0     C56039   5.032  10.154   3.526  0.2352  0.0970  0.0940
  407MOL0     C56040   5.152  10.140   3.619 -0.0160 -0.5512  0.3165
  407MOL0     C56041   5.263  10.066   3.551  0.3922 -0.5527  0.0189
  407MOL0     C56042   5.384  10.041   3.643 -0.1513  0.1148 -0.6239
  407MOL0     C56043   5.462   9.931   3.560 -0.2694  0.1114 -0.9105
  407MOL0     C56044   5.578   9.874   3.638  0.3663  0.3346 -0.0793
  407MOL0     N56045   5.680   9.980   3.666  0.3550 -0.0278  0.4902
  407MOL0     C56046   5.690  10.061   3.771 -0.3714  1.1542 -0.5443
  407MOL0     C56047   5.798  10.137   3.739  0.2425  0.1046 -0.1383
  407MOL0     C56048   5.851  10.255   3.810 -0.3958 -1.1558  0.0220
  407MOL0     C56049   5.885  10.232   3.961  0.7439  0.7421 -0.3498
  407MOL0     C56050   5.980  10.113   3.979 -0.1914 -0.7152  0.5071
  407MOL0     C56051   6.113  10.124   3.901  0.0936  0.3464 -0.6263
  407MOL0     O56052   6.188  10.008   3.946  0.6473  0.4290 -0.0865
  407MOL0     C56053   6.294   9.987   3.870  0.2996 -0.1832  0.3724
  407MOL0     C56054   6.406  10.067   3.895  0.4474  0.4803  0.0989
  407MOL0     C56055   6.528  10.063   3.827 -0.5462 -0.0820 -0.6651
  407MOL0     C56056   6.639  10.155   3.877 -0.0459  0.7504 -0.3258
  407MOL0     C56057   6.539   9.962   3.725 -0.1907  0.3632  0.2329
  407MOL0     C56058   6.653   9.958   3.629 -0.2882 -0.6183  0.7915
  407MOL0     O56059   6.773  10.008   3.676  0.5172  0.4628 -0.1906
  407MOL0     C56060   6.888  10.000   3.607 -0.5292  0.5416  0.6676
  407MOL0     C56061   6.915   9.909   3.505 -0.2089 -0.6307  0.2871
  407MOL0     C56062   7.037   9.911   3.437 -0.7600 -0.0702 -0.1692
  407MOL0     C56063   7.131  10.012   3.467  0.9113 -0.1053  0.6334
  407MOL0     O56064   7.262  10.011   3.426  0.6792 -0.2133 -0.6349
  407MOL0     C56065   7.301   9.923   3.319 -0.0385  0.2442  0.0491
  407MOL0     C56066   7.443   9.959   3.272  0.1686  0.2347 -0.3875
  407MOL0     C56067   7.452  10.103   3.208 -0.3941 -0.4137 -0.3267
  407MOL0     C56068   7.476  10.089   3.057 -0.3426  0.4887 -0.2880
  407MOL0     C56069   7.533  10.220   2.990  1.3293 -0.4856  0.0785
  407MOL0     C56070   7.578  10.191   2.844  0.4446  0.3699 -0.0304
  407MOL0     C56071   7.635  10.310   2.776 -0.1655  0.5896  0.2607
  407MOL0     C56072   7.737  10.280   2.664 -0.6791  0.5075 -0.0364
  407MOL0    Cl56073   7.882  10.187   2.719 -0.3500 -0.0943  0.1254
  407MOL0     C56074   7.096  10.111   3.562  0.8752  0.4763  0.3159
  407MOL0     C56075   6.979  10.099   3.632 -0.4246 -0.5035  0.9055
  407MOL0     O56076   6.628   9.924   3.512 -0.2431  0.6952 -0.2146
  407MOL0     C56077   6.434   9.874   3.705 -0.4884 -0.7924  0.8663
  407MOL0     C56078   6.308   9.886   3.767  0.3839 -0.4244  0.6070
  407MOL0     N56079   5.850  10.099   3.617  0.2879 -0.1929 -0.5539
  407MOL0     N56080   5.786   9.999   3.581 -0.1005 -0.1759 -0.2363
  407MOL0     C56081   4.921  10.323   4.070 -0.4842 -0.0565  0.6342
  407MOL0     C56082   4.887  10.301   4.206 -0.1376 -0.2841 -0.1757
  407MOL0     C56083   4.733  10.104   4.597 -0.0810 -0.3009  0.6539
  407MOL0     C56084   4.773   9.971   4.587 -0.7932  0.2512 -0.8534
  407MOL0     C56085   4.772   9.900   4.705 -0.4306  0.5961 -1.1323
  407MOL0     C56086   4.728   9.947   4.827 -1.0119  0.9210  1.4032
  407MOL0     O56087   4.722   9.865   4.933  0.1205 -0.2389  0.0816
  407MOL0     C56088   4.718   9.918   5.071 -0.5134  0.8974  0.0488
  407MOL0     C56089   4.697   9.782   5.146  0.7826  0.4274 -0.3807
  407MOL0     C56090   4.653   9.814   5.293  0.3424 -0.3006 -0.3207
  407MOL0     C56091   4.631   9.691   5.387 -0.4196 -0.1731  0.7397
  407MOL0     C56092   4.516   9.610   5.349 -0.4489 -0.1848 -0.5705
  407MOL0     C56093   4.417   9.541   5.323  0.1496  0.5670  0.7946
  407MOL0     C56094   4.674  10.076   4.834  0.3165  0.1136 -0.1823
  407MOL0     C56095   4.673  10.155   4.715 -0.3818  0.6409  0.2368
  407MOL0     C56096   4.646  10.305   4.737  0.0186 -0.2345  0.3947
  407MOL0     H56097   4.868   9.964   4.179 -0.2867  0.1295 -1.4930
  407MOL0     H56098   4.894  10.019   3.943 -1.5963 -0.8128  0.5048
  407MOL0     H56099   4.762  10.217   3.741  0.7269  0.4943 -2.1442
  407MOL0     H56100   4.885  10.090   3.733  2.8797  0.1360 -2.7966
  407MOL0     H56101   4.832  10.251   3.535  0.3498  0.0880 -0.6612
  407MOL0     H56102   4.965  10.350   3.599 -1.5661  0.5806 -1.3138
  407MOL0     H56103   4.974  10.063   3.511  1.6810 -0.8113 -0.1958
  407MOL0     H56104   5.065  10.195   3.430 -0.0715  1.1214  0.4101
  407MOL0     H56105   5.190  10.241   3.634 -0.9298 -0.4477  2.1177
  407MOL0     H56106   5.132  10.101   3.719  2.6557 -0.5402  0.9481
  407MOL0     H56107   5.296  10.131   3.469 -3.4158  0.5431 -0.8190
  407MOL0     H56108   5.227   9.977   3.497  1.0001  0.6593 -2.5254
  407MOL0     H56109   5.443  10.133   3.650  1.7654 -1.2059  1.8271
  407MOL0     H56110   5.350  10.018   3.744 -1.9103  1.5722 -0.8235
  407MOL0     H56111   5.500   9.968   3.465  0.5669  0.2647 -0.5180
  407MOL0     H56112   5.391   9.850   3.538  0.1831 -0.1267 -1.5378
  407MOL0     H56113   5.545   9.826   3.730  0.4622  2.4475  1.1309
  407MOL0     H56114   5.611   9.794   3.571 -1.3036  0.7695 -1.4932
  407MOL0     H56115   5.626  10.067   3.858  0.4900 -0.3168  0.2175
  407MOL0     H56116   5.773  10.332   3.811 -1.2761 -2.0211 -0.4779
  407MOL0     H56117   5.939  10.286   3.753  0.2022 -2.9918 -0.0976
  407MOL0     H56118   5.922  10.320   4.014 -0.5605 -0.0567  2.0316
  407MOL0     H56119   5.793  10.195   4.007  1.1825 -1.2641 -0.9741
  407MOL0     H56120   6.011  10.114   4.084  1.1982  0.3505  0.1127
  407MOL0     H56121   5.939  10.013   3.964  1.2215 -1.2447  0.0074
  407MOL0     H56122   6.095  10.128   3.793  1.6766  0.9007 -0.8841
  407MOL0     H56123   6.171  10.215   3.921 -0.3909  0.8786 -1.5759
  407MOL0     H56124   6.389  10.134   3.978  1.9772  1.3818 -0.2563
  407MOL0     H56125   6.723  10.094   3.911  2.1237  3.7533  0.1329
  407MOL0     H56126   6.612  10.209   3.968  0.3181  0.5450 -0.0949
  407MOL0     H56127   6.671  10.230   3.804 -1.1863  0.2685 -1.3698
  407MOL0     H56128   6.836   9.844   3.469 -0.1212  1.1952 -3.8454
  407MOL0     H56129   7.058   9.824   3.375 -0.9680  0.0700 -0.4408
  407MOL0     H56130   7.299   9.819   3.350  1.5100 -0.0489 -0.7472
  407MOL0     H56131   7.224   9.921   3.241 -1.3413 -2.8889  1.2625
  407MOL0     H56132   7.514   9.955   3.356  1.2263  2.2857 -1.1053
  407MOL0     H56133   7.481   9.883   3.204  1.2849 -0.0459  0.5168
  407MOL0     H56134   7.533  10.155   3.261 -1.0815  0.3369  0.0075
  407MOL0     H56135   7.363  10.162   3.233  0.7514  0.0410  3.2265
  407MOL0     H56136   7.389  10.053   3.000 -1.0787  1.5157  0.1447
  407MOL0     H56137   7.557  10.017   3.046 -0.6340  0.2339 -0.8040
  407MOL0     H56138   7.454  10.295   2.994 -1.5929 -3.3038 -0.4136
  407MOL0     H56139   7.618  10.259   3.047 -0.4461 -1.3027  3.6105
  407MOL0     H56140   7.499  10.153   2.778  0.2466  0.1055  0.3541
  407MOL0     H56141   7.643  10.103   2.847  0.3979  0.2085 -2.2633
  407MOL0     H56142   7.679  10.379   2.848  0.8901  2.1836 -1.7925
  407MOL0     H56143   7.545  10.356   2.734 -0.5641 -0.3018  0.1014
  407MOL0     H56144   7.761  10.377   2.619 -2.6568  0.6138 -1.0103
  407MOL0     H56145   7.679  10.220   2.593 -2.8654  1.8816  0.4922
  407MOL0     H56146   7.146  10.207   3.570 -1.7799  2.0054 -0.3468
  407MOL0     H56147   6.958  10.169   3.712  2.9191  2.0732 -0.2362
  407MOL0     H56148   6.450   9.806   3.622 -0.3848  2.2162 -1.7828
  407MOL0     H56149   6.225   9.821   3.741 -1.2414  1.6768  0.2164
  407MOL0     H56150   4.945  10.425   4.044 -0.8718 -0.2216 -0.4105
  407MOL0     H56151   4.871  10.382   4.276 -1.5556 -2.5264  2.2734
  407MOL0     H56152   4.804   9.927   4.493  1.6796  0.0037  0.0224
  407MOL0     H56153   4.808   9.798   4.706 -0.1382  0.5338 -4.4458
  407MOL0     H56154   4.817   9.954   5.098  1.4134 -2.0746 -2.3287
  407MOL0     H56155   4.639   9.990   5.091  1.1155  2.3031  1.7564
  407MOL0     H56156   4.793   9.729   5.152  0.3530 -0.4180 -0.9010
  407MOL0     H56157   4.613   9.726   5.105 -1.7375 -0.6709  5.2741
  407MOL0     H56158   4.735   9.875   5.332  0.7738  0.7580 -2.6996
  407MOL0     H56159   4.561   9.873   5.298  1.5788  1.6447  0.7690
  407MOL0     H56160   4.622   9.731   5.488 -1.4413  4.6703 -0.9961
  407MOL0     H56161   4.720   9.629   5.376 -0.4787 -0.3579  1.3005
  407MOL0     H56162   4.326   9.485   5.324 -0.7955  1.9663 -0.8027
  407MOL0     H56163   4.637  10.110   4.930 -1.7809 -0.6209 -0.6696
  407MOL0     H56164   4.637  10.320   4.845  0.1974 -0.1329  0.3962
  407MOL0     H56165   4.736  10.355   4.699 -0.8052 -0.5962 -2.2493
  407MOL0     H56166   4.565  10.356   4.684 -0.7718 -1.9633 -0.1522
  408MOL0     O56167  10.720   9.987   2.405 -0.8055  0.0151 -0.6854
  408MOL0     C56168  10.824  10.022   2.460  0.6575 -0.0416 -0.2606
  408MOL0     O56169  10.920  10.109   2.411 -0.3724 -0.4282  0.4263
  408MOL0     C56170  10.930  10.131   2.274 -0.3795 -0.0506 -0.1017
  408MOL0     C56171  10.832  10.207   2.210 -0.5147 -0.4058 -1.2818
  408MOL0     C56172  10.844  10.226   2.083 -0.0589 -0.5204  0.7371
  408MOL0     C56173  10.964  10.190   2.003 -0.5573 -0.3014 -0.7637
  408MOL0     O56174  10.961  10.208   1.868  0.6550 -0.2874 -0.2236
  408MOL0     C56175  10.962  10.082   1.789 -0.9296  0.0935  0.3345
  408MOL0     C56176  10.961  10.115   1.641  0.6008  0.0417 -0.0368
  408MOL0     C56177  10.960   9.996   1.549 -0.8154  0.1528 -0.9254
  408MOL0     C56178  10.816   9.936   1.541 -0.2048 -1.0918 -1.0138
  408MOL0     C56179  10.817   9.822   1.455  0.2349  0.2948  0.0160
  408MOL0     C56180  10.678   9.758   1.438  0.5916 -0.0824 -0.1311
  408MOL0     C56181  10.672   9.673   1.308  0.9313  0.0029  0.5290
  408MOL0     C56182  10.537   9.622   1.277 -0.0925 -0.1300  0.2686
  408MOL0     N56183  10.555   9.539   1.150 -0.3973 -0.4726 -0.6523
  408MOL0     C56184  10.621   9.421   1.146  0.4027 -0.0299 -0.6740
  408MOL0     C56185  10.607   9.370   1.021 -0.3864 -0.2485 -0.8258
  408MOL0     C56186  10.655   9.236   0.981 -0.1667 -0.2147 -0.1620
  408MOL0     C56187  10.623   9.206   0.828 -0.3439 -0.4982  0.2207
  408MOL0     C56188  10.688   9.073   0.780  0.9386 -1.8197 -0.2246
  408MOL0     C56189  10.643   9.035   0.637 -0.0609 -0.7073 -0.5091
  408MOL0     O56190  10.647   9.146   0.547  0.0387 -0.0448  0.2885
  408MOL0     C56191  10.604   9.123   0.416 -0.0199 -0.1647  0.1005
  408MOL0     C56192  10.568   8.995   0.364 -0.0377 -0.2285  0.3900
  408MOL0     C56193  10.519   8.981   0.233  0.4255 -0.3622 -0.0462
  408MOL0     C56194  10.466   8.849   0.175 -1.1392 -1.5492 -0.2913
  408MOL0     C56195  10.521   9.089   0.144  1.2748 -0.2531 -0.5910
  408MOL0     C56196  10.487   9.092   0.005 -0.3066  0.1660  0.0205
  408MOL0     O56197  10.412   9.204  -0.046 -0.5126  0.6244  0.2202
  408MOL0     C56198  10.356   9.195  -0.168 -0.3495 -0.1651 -0.1764
  408MOL0     C56199  10.226   9.221  -0.165 -0.0071  0.6003 -0.3106
  408MOL0     C56200  10.162   9.230  -0.291 -0.6787 -0.5226  0.5953
  408MOL0     C56201  10.238   9.220  -0.418  0.0040 -0.5747 -0.4829
  408MOL0     O56202  10.168   9.241  -0.539  0.6047 -0.4227 -0.1873
  408MOL0     C56203  10.235   9.272  -0.664  0.1793  0.1053  0.0261
  408MOL0     C56204  10.141   9.291  -0.788  0.1077 -0.1795 -0.2850
  408MOL0     C56205  10.052   9.168  -0.830 -0.2037  0.0059 -0.5298
  408MOL0     C56206   9.965   9.212  -0.951  0.7541 -0.0136 -0.4183
  408MOL0     C56207   9.857   9.107  -0.976 -0.3433 -0.8442  0.2966
  408MOL0     C56208   9.762   9.154  -1.085  0.0973 -0.2206  0.2750
  408MOL0     C56209   9.643   9.056  -1.083 -0.6591  0.5296  0.2063
  408MOL0     C56210   9.514   9.109  -1.160  0.0102  0.8582 -0.1438
  408MOL0    Cl56211   9.365   8.992  -1.147 -0.7720  0.3513 -0.0369
  408MOL0     C56212  10.370   9.175  -0.410 -0.9181 -1.0019 -0.5801
  408MOL0     C56213  10.437   9.168  -0.286  0.6865  0.6269  0.0576
  408MOL0     O56214  10.544   9.004  -0.060  0.1844 -0.0915 -0.4475
  408MOL0     C56215  10.560   9.214   0.201 -0.1113  1.2308  0.6802
  408MOL0     C56216  10.607   9.230   0.330  0.4263 -0.4102  0.0673
  408MOL0     N56217  10.536   9.467   0.943  0.5756  0.5418 -0.0323
  408MOL0     N56218  10.508   9.567   1.022  0.0297 -0.1226 -0.4340
  408MOL0     C56219  11.066  10.126   2.072 -0.5716 -0.0483  0.0182
  408MOL0     C56220  11.050  10.097   2.210 -0.4303  0.0252 -0.8994
  408MOL0     C56221  10.852   9.965   2.601 -0.0934  0.5319  0.0057
  408MOL0     C56222  10.987   9.952   2.638 -0.0913  0.8002  0.3534
  408MOL0     C56223  11.038   9.917   2.764  0.0948 -0.2399 -0.0628
  408MOL0     C56224  10.938   9.889   2.860  0.6911 -0.3888  0.6439
  408MOL0     O56225  10.960   9.862   2.996  0.6792  0.1701  0.7675
  408MOL0     C56226  11.090   9.834   3.034  0.0008 -0.0849 -0.1176
  408MOL0     C56227  11.082   9.765   3.169 -0.1037  0.8800  0.0014
  408MOL0     C56228  11.230   9.759   3.215  0.1155  0.6716 -0.4578
  408MOL0     C56229  11.248   9.686   3.351  0.5984 -0.1922  0.2639
  408MOL0     C56230  11.385   9.690   3.380 -1.0870 -0.1740 -0.4821
  408MOL0     C56231  11.506   9.689   3.399 -0.2836 -0.0842 -0.4052
  408MOL0     C56232  10.803   9.922   2.832  0.2318 -0.4332  0.0496
  408MOL0     C56233  10.756   9.950   2.706  0.4269  0.2722  0.3703
  408MOL0     C56234  10.603   9.992   2.687  0.1282  0.4054  0.2184
  408MOL0     H56235  10.752  10.249   2.270  0.4261  0.3934 -0.5557
  408MOL0     H56236  10.761  10.265   2.026  0.2462  1.5795  1.6164
  408MOL0     H56237  10.877  10.021   1.822 -1.8804  0.9132 -0.5208
  408MOL0     H56238  11.056  10.030   1.809 -0.8726 -0.5094 -1.3891
  408MOL0     H56239  10.868  10.170   1.622 -1.7412 -3.4426  0.3709
  408MOL0     H56240  11.048  10.173   1.611 -0.8448  0.7807 -3.2252
  408MOL0     H56241  10.992  10.035   1.451 -0.5377  1.7411 -0.2443
  408MOL0     H56242  11.028   9.919   1.586 -0.3202 -1.8426 -5.3166
  408MOL0     H56243  10.788   9.914   1.644  1.5699 -0.9436 -0.4663
  408MOL0     H56244  10.744  10.009   1.504  1.4607  0.7045 -0.8515
  408MOL0     H56245  10.881   9.749   1.504  0.3124 -0.1654 -0.7515
  408MOL0     H56246  10.863   9.842   1.357 -1.4249  2.1262 -0.4657
  408MOL0     H56247  10.656   9.709   1.533  2.4047 -0.0045  0.3636
  408MOL0     H56248  10.608   9.840   1.419  1.5581  1.6710  3.0844
  408MOL0     H56249  10.737   9.585   1.319 -0.2623 -1.2064 -1.3774
  408MOL0     H56250  10.699   9.739   1.225  1.2653  2.1956  2.2979
  408MOL0     H56251  10.509   9.560   1.362  4.4188 -0.7994  1.4888
  408MOL0     H56252  10.462   9.701   1.267 -1.4943 -1.4507 -0.0509
  408MOL0     H56253  10.653   9.369   1.236 -1.0631  0.9853  0.4912
  408MOL0     H56254  10.612   9.164   1.051  0.4218 -0.5229 -0.1145
  408MOL0     H56255  10.763   9.225   0.991 -0.4601 -2.0853  1.5324
  408MOL0     H56256  10.517   9.191   0.808 -0.1769 -2.4088  0.5195
  408MOL0     H56257  10.656   9.291   0.767  0.1131  1.1549  2.6462
  408MOL0     H56258  10.797   9.081   0.782  0.8714  2.5773 -2.1761
  408MOL0     H56259  10.641   9.010   0.855 -2.1542 -1.2403 -1.5006
  408MOL0     H56260  10.698   8.946   0.606 -0.7012 -0.9285 -1.0398
  408MOL0     H56261  10.536   9.012   0.642  0.2602 -2.8287 -2.1884
  408MOL0     H56262  10.566   8.904   0.423 -0.9690  0.1205  0.9067
  408MOL0     H56263  10.455   8.785   0.263 -1.8895 -0.4550  0.4404
  408MOL0     H56264  10.551   8.829   0.109 -0.7046  0.1482 -0.3085
  408MOL0     H56265  10.375   8.862   0.116 -1.7262 -0.6619  0.7701
  408MOL0     H56266  10.169   9.232  -0.073 -1.1863 -0.6796 -0.8598
  408MOL0     H56267  10.056   9.255  -0.290 -0.3949  0.9432 -1.0251
  408MOL0     H56268  10.310   9.351  -0.649  0.7142 -0.4427  0.2691
  408MOL0     H56269  10.295   9.188  -0.700 -0.3640  0.2860 -1.3456
  408MOL0     H56270  10.073   9.374  -0.767 -2.4046 -1.4295 -2.7654
  408MOL0     H56271  10.200   9.309  -0.878 -0.3053 -1.7493 -0.9192
  408MOL0     H56272   9.986   9.143  -0.746 -0.4284  0.5317 -0.5394
  408MOL0     H56273  10.115   9.082  -0.853 -0.6412 -0.3799 -0.3028
  408MOL0     H56274  10.025   9.232  -1.041  1.2396 -0.5918 -0.2283
  408MOL0     H56275   9.909   9.301  -0.920 -1.9555 -2.0078  0.8336
  408MOL0     H56276   9.904   9.015  -1.013 -2.9555 -1.3281 -2.1545
  408MOL0     H56277   9.801   9.088  -0.884 -1.8313 -1.4293 -0.6844
  408MOL0     H56278   9.810   9.163  -1.183  1.9815  1.9678  1.2943
  408MOL0     H56279   9.727   9.253  -1.055  0.7240  0.2684 -0.5716
  408MOL0     H56280   9.600   9.040  -0.984 -0.0805  2.2600  0.7772
  408MOL0     H56281   9.685   8.961  -1.117 -1.6761 -0.0577  0.5339
  408MOL0     H56282   9.528   9.128  -1.267 -2.1006  3.0329 -0.1344
  408MOL0     H56283   9.480   9.204  -1.117  3.0099  2.3031 -0.6317
  408MOL0     H56284  10.416   9.175  -0.508 -5.3316 -0.1820 -2.9219
  408MOL0     H56285  10.544   9.153  -0.294  1.0239  1.1278  2.6891
  408MOL0     H56286  10.542   9.305   0.144  0.5239 -0.4902 -2.5673
  408MOL0     H56287  10.630   9.329   0.366 -1.1618  0.7079 -1.7821
  408MOL0     H56288  11.158  10.114   2.015 -0.8810 -0.2469 -0.4480
  408MOL0     H56289  11.127  10.054   2.272 -1.9584  1.0159  1.8489
  408MOL0     H56290  11.067   9.973   2.568  0.0648 -0.8357  0.0133
  408MOL0     H56291  11.143   9.934   2.786  0.3499 -1.3068 -0.3961
  408MOL0     H56292  11.137   9.762   2.967 -0.1085  0.6805 -1.0237
  408MOL0     H56293  11.146   9.928   3.034 -1.0503  0.5606  0.5678
  408MOL0     H56294  11.025   9.673   3.158  3.0899 -1.3022  0.3537
  408MOL0     H56295  11.030   9.833   3.238 -0.0834  1.0979 -0.1932
  408MOL0     H56296  11.294   9.716   3.137 -0.3601 -1.7471  0.4072
  408MOL0     H56297  11.256   9.862   3.243  0.5015  0.6096 -0.5800
  408MOL0     H56298  11.198   9.590   3.345 -2.6221  1.4294 -1.1393
  408MOL0     H56299  11.186   9.742   3.422  0.1569 -1.8301  1.2258
  408MOL0     H56300  11.610   9.694   3.425 -0.2570 -0.2227 -0.4857
  408MOL0     H56301  10.730   9.911   2.912 -0.3553 -1.2843 -0.5895
  408MOL0     H56302  10.559   9.937   2.604 -0.6521  1.6519 -0.2271
  408MOL0     H56303  10.552   9.976   2.782 -2.3653  0.3080 -1.0524
  408MOL0     H56304  10.594  10.096   2.653 -2.7077 -0.3508 -1.6690
  409MOL0     O56305   5.706   0.487   7.904  0.5302 -0.0263  0.7641
  409MOL0     C56306   5.618   0.444   7.824  0.0303  0.5880  0.2460
  409MOL0     O56307   5.610   0.477   7.692 -0.2931 -0.0911 -0.0452
  409MOL0     C56308   5.679   0.588   7.643  0.0385 -0.0163  0.5351
  409MOL0     C56309   5.715   0.575   7.514  0.0948  0.1245  0.6756
  409MOL0     C56310   5.800   0.677   7.450 -0.2910 -0.5811  0.8940
  409MOL0     C56311   5.835   0.793   7.525  0.0259  0.2016 -0.0668
  409MOL0     O56312   5.901   0.903   7.466  0.0244  0.5759 -0.0449
  409MOL0     C56313   5.920   0.901   7.322 -0.5066  0.2836  0.0303
  409MOL0     C56314   5.886   1.049   7.276 -1.0895  1.1045  0.6097
  409MOL0     C56315   5.929   1.074   7.135  0.2278  0.0281 -0.0868
  409MOL0     C56316   5.902   1.221   7.100 -1.1291 -0.6368  0.9235
  409MOL0     C56317   5.882   1.245   6.946  0.3901 -0.3685 -0.2245
  409MOL0     C56318   5.857   1.398   6.917 -0.0282 -0.3726 -0.8046
  409MOL0     C56319   5.943   1.510   6.985  0.4012 -0.5662  0.0484
  409MOL0     C56320   5.903   1.641   6.923 -0.3281 -0.5796 -0.4991
  409MOL0     N56321   5.968   1.764   6.977  0.8503  0.0271  0.7588
  409MOL0     C56322   5.950   1.813   7.104  0.2242 -0.8170  0.5056
  409MOL0     C56323   6.035   1.924   7.112  0.5854  0.4545 -0.2580
  409MOL0     C56324   6.062   2.016   7.224  0.3269 -0.0174 -0.3142
  409MOL0     C56325   5.969   2.128   7.228  0.6575 -1.0717  0.1083
  409MOL0     C56326   5.983   2.208   7.361  0.0229 -0.5169  0.3039
  409MOL0     C56327   5.936   2.352   7.348  0.3267 -0.1661  0.3282
  409MOL0     O56328   5.797   2.329   7.358 -0.1078 -0.3673 -0.2008
  409MOL0     C56329   5.714   2.435   7.323 -0.7949  0.2198 -0.1486
  409MOL0     C56330   5.582   2.416   7.306  0.0161  0.1649  1.1949
  409MOL0     C56331   5.493   2.516   7.281 -0.4865  0.0665 -0.5744
  409MOL0     C56332   5.355   2.493   7.265 -0.0267  0.9890  0.2600
  409MOL0     C56333   5.530   2.657   7.291 -0.8658  0.2588 -0.1660
  409MOL0     C56334   5.447   2.780   7.283 -0.1580  0.0945  0.2150
  409MOL0     O56335   5.461   2.887   7.376  0.8331 -0.3823 -0.0539
  409MOL0     C56336   5.420   3.020   7.356 -1.2865  0.0474  0.0737
  409MOL0     C56337   5.386   3.079   7.232 -0.2698  0.1672  0.9476
  409MOL0     C56338   5.337   3.212   7.221  0.5086  0.4220 -0.0837
  409MOL0     C56339   5.332   3.297   7.337 -0.0566 -0.3420 -0.1574
  409MOL0     O56340   5.288   3.425   7.343  0.1280 -0.0671 -0.3683
  409MOL0     C56341   5.217   3.482   7.229  0.4241  0.6177 -0.8310
  409MOL0     C56342   5.118   3.600   7.266  0.7115  0.2064 -0.1607
  409MOL0     C56343   5.029   3.561   7.383  0.5474 -0.7028  0.2725
  409MOL0     C56344   4.911   3.471   7.339 -0.4259  0.1141 -0.3366
  409MOL0     C56345   4.828   3.451   7.464 -0.1623  0.5474  0.1131
  409MOL0     C56346   4.705   3.367   7.428  1.0998 -0.3766  0.1922
  409MOL0     C56347   4.609   3.306   7.532  0.4286 -0.8470 -0.7754
  409MOL0     C56348   4.533   3.411   7.615 -0.7012 -0.8492  0.5966
  409MOL0    Cl56349   4.650   3.454   7.755  0.2679  0.5178  0.4421
  409MOL0     C56350   5.379   3.243   7.460  0.2133 -0.5166  0.4440
  409MOL0     C56351   5.419   3.108   7.470  0.3790  0.0559 -0.2792
  409MOL0     O56352   5.376   2.783   7.186  0.6751 -0.3764 -0.0481
  409MOL0     C56353   5.668   2.678   7.310  0.0876  0.3111 -1.0593
  409MOL0     C56354   5.753   2.570   7.330 -0.0175  0.4232 -0.0091
  409MOL0     N56355   6.114   1.923   6.998  1.2035  0.1787  0.9889
  409MOL0     N56356   6.076   1.824   6.917 -0.2213  0.2075 -0.1810
  409MOL0     C56357   5.799   0.799   7.661  0.3039 -0.9524 -0.8454
  409MOL0     C56358   5.722   0.704   7.716  0.3459  1.0425  0.4708
  409MOL0     C56359   5.519   0.350   7.882  0.0375  0.5585 -0.2185
  409MOL0     C56360   5.524   0.327   8.021 -0.4543  0.7718 -0.8868
  409MOL0     C56361   5.428   0.250   8.084  0.5346  0.7202 -0.0238
  409MOL0     C56362   5.323   0.188   8.015 -0.0799  0.6863  0.2596
  409MOL0     O56363   5.235   0.105   8.082  0.3947  0.3172  0.3173
  409MOL0     C56364   5.198  -0.026   8.022 -0.0434  0.2945 -0.0085
  409MOL0     C56365   5.085  -0.088   8.107  0.4400  0.1764 -0.2794
  409MOL0     C56366   4.959  -0.008   8.085  0.1962  0.0070 -0.2307
  409MOL0     C56367   4.867  -0.070   7.973  0.2462 -0.3075 -0.2886
  409MOL0     C56368   4.786  -0.185   8.008  0.3568 -0.1449 -0.3783
  409MOL0     C56369   4.690  -0.259   8.033 -0.1858 -0.6361  0.4935
  409MOL0     C56370   5.309   0.214   7.881  0.4890  0.9105  1.3637
  409MOL0     C56371   5.403   0.295   7.810  0.4047  0.1657 -0.9054
  409MOL0     C56372   5.353   0.328   7.674 -0.6963 -0.3824  0.2406
  409MOL0     H56373   5.713   0.478   7.465  1.9125  0.1339  0.5357
  409MOL0     H56374   5.816   0.648   7.347  0.1876 -1.0069  1.0825
  409MOL0     H56375   5.869   0.824   7.264  1.6173  1.0697 -3.1214
  409MOL0     H56376   6.027   0.889   7.304 -0.8776 -1.0827 -1.4966
  409MOL0     H56377   5.780   1.074   7.277 -0.9082  1.9539  0.1003
  409MOL0     H56378   5.936   1.121   7.342  1.2641  0.2450 -0.1363
  409MOL0     H56379   6.037   1.061   7.137  0.1680 -0.7580  2.9621
  409MOL0     H56380   5.879   0.999   7.073  1.4408 -2.9727  2.3143
  409MOL0     H56381   5.816   1.265   7.152 -2.3901 -0.1972 -1.4085
  409MOL0     H56382   5.993   1.277   7.125 -1.0474 -0.2119 -0.2703
  409MOL0     H56383   5.800   1.186   6.907  1.7096 -1.3535 -1.6214
  409MOL0     H56384   5.965   1.202   6.890  2.0707 -0.8954  2.4742
  409MOL0     H56385   5.855   1.409   6.809  1.0431  0.8011 -0.7249
  409MOL0     H56386   5.753   1.421   6.942 -0.2382 -2.3797  0.3832
  409MOL0     H56387   6.048   1.485   6.971  0.6599 -1.1541  2.4781
  409MOL0     H56388   5.923   1.515   7.093 -0.5139  1.0636 -0.1590
  409MOL0     H56389   5.912   1.636   6.814 -1.0368 -0.3041 -0.5752
  409MOL0     H56390   5.796   1.658   6.941 -0.0010 -0.3141  1.3982
  409MOL0     H56391   5.887   1.778   7.185  1.9576 -1.1172  1.7733
  409MOL0     H56392   6.162   2.060   7.216 -0.9051  3.0585 -0.3766
  409MOL0     H56393   6.052   1.961   7.318 -3.2387 -1.3568 -1.3295
  409MOL0     H56394   5.996   2.197   7.148 -3.6008  0.2576 -0.4716
  409MOL0     H56395   5.865   2.098   7.209  0.5749 -0.6006 -0.2053
  409MOL0     H56396   5.931   2.152   7.438  0.8409 -1.9579 -0.1465
  409MOL0     H56397   6.085   2.217   7.399 -0.3540  0.7057  1.0824
  409MOL0     H56398   5.980   2.400   7.436  3.3331 -0.5183 -0.8926
  409MOL0     H56399   5.969   2.405   7.258 -0.6459  0.5015  0.3455
  409MOL0     H56400   5.549   2.312   7.305  1.3895 -0.2865  0.7487
  409MOL0     H56401   5.307   2.538   7.178 -2.7086  1.5736  1.9174
  409MOL0     H56402   5.295   2.529   7.349 -0.4995  0.0969  0.3247
  409MOL0     H56403   5.328   2.387   7.274  0.4122  0.7757 -0.7786
  409MOL0     H56404   5.380   3.025   7.138 -1.4630 -0.4274  1.3420
  409MOL0     H56405   5.311   3.253   7.124  1.4847  2.5799  0.4840
  409MOL0     H56406   5.289   3.516   7.154  0.5264  1.3783 -0.3913
  409MOL0     H56407   5.163   3.397   7.185 -0.9541  0.7663  0.5054
  409MOL0     H56408   5.169   3.694   7.289 -2.0128  2.0401 -1.1144
  409MOL0     H56409   5.049   3.620   7.184  3.1548  0.8538 -2.1743
  409MOL0     H56410   4.992   3.658   7.417  1.1762  0.7442 -2.7532
  409MOL0     H56411   5.073   3.508   7.468 -1.4953 -1.7332  0.7553
  409MOL0     H56412   4.948   3.373   7.306 -0.3521 -0.8815  2.4625
  409MOL0     H56413   4.855   3.519   7.258  1.7965 -1.2720 -2.8831
  409MOL0     H56414   4.887   3.391   7.533 -2.9242 -0.4383  1.7841
  409MOL0     H56415   4.797   3.543   7.514 -2.0778 -0.8194  1.6224
  409MOL0     H56416   4.744   3.283   7.370 -1.2148 -0.3260 -1.5766
  409MOL0     H56417   4.641   3.425   7.362 -2.2215 -1.7076  1.9908
  409MOL0     H56418   4.661   3.236   7.598  1.1763  1.8911  1.7409
  409MOL0     H56419   4.538   3.244   7.477 -2.5632 -0.7897  2.7054
  409MOL0     H56420   4.443   3.364   7.655 -0.7175 -0.4543  1.0368
  409MOL0     H56421   4.498   3.497   7.556 -2.7859  0.1676  3.1680
  409MOL0     H56422   5.380   3.305   7.549  0.4804 -2.4611  1.8418
  409MOL0     H56423   5.454   3.063   7.562 -0.1374  0.4720  0.1267
  409MOL0     H56424   5.703   2.780   7.324  3.3384 -0.8951  0.7755
  409MOL0     H56425   5.854   2.590   7.364  0.5218 -1.3362 -0.4360
  409MOL0     H56426   5.826   0.887   7.718  0.0381 -1.0048 -0.6316
  409MOL0     H56427   5.702   0.702   7.823  0.5046 -1.9529  0.5294
  409MOL0     H56428   5.597   0.376   8.086 -2.5367  1.1550  1.2830
  409MOL0     H56429   5.443   0.235   8.191  1.1676  1.0723 -0.0597
  409MOL0     H56430   5.177  -0.014   7.916  1.1877  0.8723 -0.2028
  409MOL0     H56431   5.287  -0.090   8.026 -1.7447 -2.2051  3.1167
  409MOL0     H56432   5.120  -0.089   8.211  2.7000  0.3052 -0.9775
  409MOL0     H56433   5.067  -0.194   8.088 -0.9086 -0.0516  1.8937
  409MOL0     H56434   4.900  -0.001   8.177 -3.9363 -1.7903 -2.4929
  409MOL0     H56435   4.975   0.098   8.063 -1.5557  0.8450  2.0711
  409MOL0     H56436   4.922  -0.089   7.881  2.4781 -1.5598  1.2127
  409MOL0     H56437   4.796   0.009   7.947  1.7516  0.8974 -0.8701
  409MOL0     H56438   4.610  -0.329   8.045 -1.1250 -0.0841 -1.9802
  409MOL0     H56439   5.229   0.170   7.821 -0.6925  4.5168  0.0383
  409MOL0     H56440   5.358   0.436   7.657 -0.2157 -0.3927  0.3003
  409MOL0     H56441   5.414   0.278   7.598  0.1427  0.1171  0.5727
  409MOL0     H56442   5.249   0.296   7.658  0.3162 -2.5419 -3.2783
  410MOL0     O56443   3.122   2.557   6.905  0.5108  0.3239 -0.5847
  410MOL0     C56444   3.168   2.464   6.838  0.4134  0.5245  0.5427
  410MOL0     O56445   3.222   2.469   6.716 -0.4767  0.6987  0.1307
  410MOL0     C56446   3.210   2.577   6.638  0.4477 -1.0407 -0.7427
  410MOL0     C56447   3.318   2.631   6.583 -0.9330  0.0811  0.6973
  410MOL0     C56448   3.322   2.742   6.498 -0.0641  0.1093  0.2565
  410MOL0     C56449   3.194   2.793   6.461  0.2400 -0.6699  0.2944
  410MOL0     O56450   3.187   2.902   6.378 -0.1831 -0.4591  0.1097
  410MOL0     C56451   3.069   2.944   6.313  0.3306  0.0314 -0.8832
  410MOL0     C56452   3.069   3.098   6.300 -0.6642 -0.2164 -0.3898
  410MOL0     C56453   3.136   3.133   6.163  0.5841 -0.3624 -0.9812
  410MOL0     C56454   3.066   3.251   6.094 -0.0552 -0.2782  0.5125
  410MOL0     C56455   3.131   3.276   5.964  0.0722  0.0158 -0.0766
  410MOL0     C56456   3.277   3.327   5.964 -0.1453 -0.5618 -0.8726
  410MOL0     C56457   3.330   3.400   5.834  0.0942 -0.3921 -0.0664
  410MOL0     C56458   3.486   3.397   5.831 -0.2245  1.0440  0.7340
  410MOL0     N56459   3.540   3.444   5.708 -0.6522 -0.0852  1.1753
  410MOL0     C56460   3.550   3.579   5.672  0.2062 -0.3424 -0.6364
  410MOL0     C56461   3.594   3.571   5.544  0.5190 -0.1041  0.2811
  410MOL0     C56462   3.641   3.698   5.473  0.6469 -0.4443  0.5784
  410MOL0     C56463   3.546   3.813   5.460  0.5647  0.1002 -0.0389
  410MOL0     C56464   3.428   3.787   5.373  0.2398  0.4872 -0.8022
  410MOL0     C56465   3.313   3.700   5.422  0.0586 -0.1909 -0.7992
  410MOL0     O56466   3.204   3.701   5.334  0.1582 -0.3859  0.0891
  410MOL0     C56467   3.089   3.630   5.361 -0.1241 -0.7109  0.0707
  410MOL0     C56468   3.066   3.565   5.479 -1.1890 -0.1616 -0.0294
  410MOL0     C56469   2.948   3.497   5.498  0.4734  0.0300 -0.2914
  410MOL0     C56470   2.956   3.421   5.630  0.0150 -0.9346 -0.0577
  410MOL0     C56471   2.844   3.494   5.402 -0.3609  0.4955 -0.2293
  410MOL0     C56472   2.705   3.436   5.429  0.1556 -0.0085 -0.0628
  410MOL0     O56473   2.669   3.400   5.556  0.8869  0.1507 -0.0574
  410MOL0     C56474   2.548   3.354   5.587 -0.0047  0.3741 -1.0016
  410MOL0     C56475   2.433   3.411   5.533  0.6758  0.1878  0.0088
  410MOL0     C56476   2.304   3.365   5.574  0.4165  0.4237 -0.4972
  410MOL0     C56477   2.291   3.274   5.688 -0.3393  0.5085  0.0884
  410MOL0     O56478   2.175   3.224   5.740 -0.2962  0.3818 -0.9770
  410MOL0     C56479   2.063   3.311   5.759  0.9540 -0.0943  0.1650
  410MOL0     C56480   1.994   3.303   5.888  0.1483 -0.1062  1.1131
  410MOL0     C56481   2.084   3.358   6.006 -0.7220 -0.0994  1.0246
  410MOL0     C56482   2.031   3.332   6.150  1.3291  0.0116  0.6452
  410MOL0     C56483   2.112   3.395   6.260  0.1777 -0.2285  0.1867
  410MOL0     C56484   2.244   3.317   6.276  0.2548 -0.1885 -0.4713
  410MOL0     C56485   2.325   3.353   6.405  0.0560 -0.3078 -0.0442
  410MOL0     C56486   2.447   3.265   6.395 -0.2275  0.1160  0.0071
  410MOL0    Cl56487   2.552   3.283   6.540 -0.5591  0.3725  0.0918
  410MOL0     C56488   2.414   3.219   5.733 -0.6644 -0.1095 -0.2425
  410MOL0     C56489   2.541   3.267   5.692 -0.2162 -0.1826 -0.5149
  410MOL0     O56490   2.641   3.416   5.328 -0.8855  0.1750 -0.4728
  410MOL0     C56491   2.868   3.562   5.286 -0.1650 -0.5273 -0.5643
  410MOL0     C56492   2.992   3.621   5.262 -0.4380 -0.6713 -0.7673
  410MOL0     N56493   3.614   3.443   5.504  0.4373  0.4042 -0.5525
  410MOL0     N56494   3.582   3.365   5.606 -0.2198 -0.9404  0.1685
  410MOL0     C56495   3.080   2.726   6.506 -0.2199 -0.0020 -0.2247
  410MOL0     C56496   3.087   2.623   6.604  0.0018  0.1050 -0.0365
  410MOL0     C56497   3.161   2.327   6.877 -0.0893 -0.6067  0.3515
  410MOL0     C56498   3.121   2.233   6.780  0.1766  0.0238  0.9360
  410MOL0     C56499   3.117   2.093   6.807 -0.9935  1.3264  0.0078
  410MOL0     C56500   3.138   2.054   6.940 -0.1545 -0.1724  0.6646
  410MOL0     O56501   3.126   1.930   6.984 -0.1743 -0.0868  0.0751
  410MOL0     C56502   3.024   1.852   6.920 -0.7248 -0.7028  0.3141
  410MOL0     C56503   2.990   1.734   7.012 -0.3895  0.5920 -0.7564
  410MOL0     C56504   2.902   1.634   6.944 -0.7272  0.6323 -0.1533
  410MOL0     C56505   2.861   1.533   7.046  0.4377  0.0847  0.1373
  410MOL0     C56506   2.745   1.450   6.998  0.5828  0.0751  0.6974
  410MOL0     C56507   2.646   1.386   6.958  0.1144  0.1373 -0.5698
  410MOL0     C56508   3.177   2.148   7.032 -0.6303  0.2551  0.2993
  410MOL0     C56509   3.191   2.282   7.008  0.0554  0.8247  0.2884
  410MOL0     C56510   3.214   2.373   7.128 -0.6323 -0.1897 -1.0571
  410MOL0     H56511   3.411   2.584   6.612 -1.4547 -1.8848 -0.6655
  410MOL0     H56512   3.415   2.785   6.463 -1.1935  2.0444 -0.5537
  410MOL0     H56513   2.982   2.921   6.374  1.1644 -0.5060  0.1371
  410MOL0     H56514   3.068   2.889   6.218 -0.5101 -1.2107 -0.1792
  410MOL0     H56515   2.968   3.141   6.307 -1.2202 -1.3548 -1.0334
  410MOL0     H56516   3.131   3.143   6.378 -1.7247  0.2851  0.1888
  410MOL0     H56517   3.233   3.175   6.190 -1.2507  3.2055  0.8508
  410MOL0     H56518   3.150   3.051   6.092  1.8092 -0.0939 -1.0706
  410MOL0     H56519   2.967   3.207   6.080  0.6599 -3.6647  4.2288
  410MOL0     H56520   3.068   3.341   6.157  2.0687 -0.0755  0.2193
  410MOL0     H56521   3.064   3.351   5.923  0.5811  2.2514  2.8667
  410MOL0     H56522   3.119   3.192   5.895  0.8216 -0.9765  0.9623
  410MOL0     H56523   3.293   3.384   6.056 -2.1679  0.0489 -0.8524
  410MOL0     H56524   3.338   3.238   5.983  0.3596 -0.0225  0.1313
  410MOL0     H56525   3.282   3.498   5.830  1.3093  0.2064 -0.1416
  410MOL0     H56526   3.298   3.343   5.746 -1.1738  0.1129  0.0399
  410MOL0     H56527   3.534   3.452   5.913  2.0169  0.7491 -0.2934
  410MOL0     H56528   3.511   3.290   5.838 -3.1731  0.2475  0.4174
  410MOL0     H56529   3.524   3.666   5.730 -1.9079 -0.9685 -0.5769
  410MOL0     H56530   3.671   3.673   5.371 -2.0580  0.7478 -0.5890
  410MOL0     H56531   3.727   3.733   5.532  1.6842  2.2279 -2.2931
  410MOL0     H56532   3.502   3.827   5.559 -0.3124 -4.8182  0.5098
  410MOL0     H56533   3.611   3.891   5.419  0.8413 -1.7143 -3.4174
  410MOL0     H56534   3.391   3.885   5.342  4.4644  2.4596 -0.2598
  410MOL0     H56535   3.470   3.739   5.284  1.0735 -0.7679  0.2260
  410MOL0     H56536   3.350   3.598   5.435  2.7143  0.6657 -1.0459
  410MOL0     H56537   3.275   3.744   5.514 -0.5416  1.2468 -1.7055
  410MOL0     H56538   3.136   3.579   5.561 -0.3361 -3.2509 -0.0811
  410MOL0     H56539   3.062   3.412   5.656  1.0789  0.5698 -3.3202
  410MOL0     H56540   2.910   3.322   5.626  0.3971 -1.0779 -3.1839
  410MOL0     H56541   2.910   3.488   5.703 -2.2153 -1.2819 -1.0882
  410MOL0     H56542   2.434   3.482   5.451  1.5505 -0.4363 -0.5282
  410MOL0     H56543   2.220   3.409   5.522  1.8063  3.9515 -0.0495
  410MOL0     H56544   2.110   3.406   5.732  3.6341 -1.3168  0.2156
  410MOL0     H56545   1.996   3.278   5.680  0.2296 -0.5230  0.9374
  410MOL0     H56546   1.911   3.374   5.880  1.6784  1.5351 -1.4427
  410MOL0     H56547   1.959   3.202   5.911  0.5168 -0.5026 -0.0179
  410MOL0     H56548   2.104   3.462   5.980  0.0334 -0.9136 -2.0598
  410MOL0     H56549   2.185   3.318   6.008 -0.6092  0.0934 -0.0614
  410MOL0     H56550   2.034   3.224   6.170  2.2035 -0.2150 -0.5370
  410MOL0     H56551   1.929   3.364   6.171  2.0735  3.4356 -0.3279
  410MOL0     H56552   2.132   3.496   6.224  2.2244 -1.1167 -1.4368
  410MOL0     H56553   2.067   3.401   6.359  0.9556 -0.2148  0.5488
  410MOL0     H56554   2.307   3.336   6.188  0.1847 -0.9534 -0.6957
  410MOL0     H56555   2.222   3.210   6.266 -0.4070  0.1283 -2.9657
  410MOL0     H56556   2.269   3.333   6.496  1.5186  0.4655  1.0543
  410MOL0     H56557   2.349   3.459   6.407 -0.0322 -0.2654  2.9837
  410MOL0     H56558   2.506   3.290   6.306  4.1437 -0.4066  2.4511
  410MOL0     H56559   2.417   3.160   6.386 -1.4425  0.4154  0.4547
  410MOL0     H56560   2.412   3.154   5.821  1.3826  1.0947  0.7494
  410MOL0     H56561   2.632   3.223   5.732 -1.2567 -0.3073  1.8541
  410MOL0     H56562   2.800   3.581   5.204 -1.0882  0.8380  0.4680
  410MOL0     H56563   3.025   3.665   5.169 -3.5934  1.6854 -0.9261
  410MOL0     H56564   2.978   2.737   6.469  0.1135 -0.0328 -1.1746
  410MOL0     H56565   2.994   2.574   6.630 -0.0144 -0.9719 -1.9283
  410MOL0     H56566   3.094   2.266   6.680  0.4568  0.6126  1.0529
  410MOL0     H56567   3.090   2.029   6.724  1.2308  0.0947  0.1661
  410MOL0     H56568   2.937   1.916   6.902  0.9939  1.2896 -1.4037
  410MOL0     H56569   3.061   1.811   6.825  0.1950 -4.4544  2.1057
  410MOL0     H56570   2.948   1.768   7.106 -1.4901  1.8395 -1.6717
  410MOL0     H56571   3.083   1.683   7.041 -1.2352 -2.2485 -2.5846
  410MOL0     H56572   2.811   1.681   6.907 -0.6939  2.3516  1.7339
  410MOL0     H56573   2.950   1.580   6.862 -0.0299  1.4547 -0.2928
  410MOL0     H56574   2.828   1.580   7.139  0.6657 -0.7228  0.6421
  410MOL0     H56575   2.945   1.469   7.075  0.2929 -1.1539 -1.9790
  410MOL0     H56576   2.551   1.338   6.942 -1.5781  2.6659  1.1401
  410MOL0     H56577   3.201   2.104   7.128 -0.1993  1.5634  0.8130
  410MOL0     H56578   3.246   2.471   7.093  0.2087  0.4125  1.2729
  410MOL0     H56579   3.131   2.388   7.197 -0.1928  2.5777 -1.0133
  410MOL0     H56580   3.287   2.333   7.199 -2.6368 -1.6717  0.2790
  411MOL0     O56581   1.477   9.258   2.892 -0.7613 -0.3139 -0.5313
  411MOL0     C56582   1.459   9.213   2.778  0.7278 -0.1442  0.1695
  411MOL0     O56583   1.338   9.218   2.714 -0.3112 -0.1595  0.1632
  411MOL0     C56584   1.242   9.306   2.761  0.1696 -0.5275  0.5298
  411MOL0     C56585   1.122   9.243   2.789 -0.2235 -0.2450 -0.1455
  411MOL0     C56586   1.017   9.320   2.841  0.1602 -0.0777 -0.3365
  411MOL0     C56587   1.024   9.463   2.859  0.7097  1.2273 -0.3095
  411MOL0     O56588   0.916   9.525   2.919  0.0117  0.4378 -0.4495
  411MOL0     C56589   0.916   9.665   2.928  0.3213  0.8741 -0.3775
  411MOL0     C56590   0.786   9.713   2.996  0.0620  0.4129 -0.1120
  411MOL0     C56591   0.666   9.697   2.895  0.1418  0.1020 -0.5189
  411MOL0     C56592   0.535   9.716   2.979  0.0888 -0.2649  0.6073
  411MOL0     C56593   0.405   9.697   2.888 -0.0109  0.0869 -1.0432
  411MOL0     C56594   0.282   9.726   2.973 -0.5087 -0.3534  0.0289
  411MOL0     C56595   0.167   9.731   2.880  0.0657  0.5198 -0.3306
  411MOL0     C56596   0.035   9.729   2.962 -0.3057  0.1515  0.7436
  411MOL0     N56597  -0.074   9.730   2.873  0.1416  0.0179  0.2874
  411MOL0     C56598  -0.147   9.621   2.832 -0.2372  0.0844  0.0016
  411MOL0     C56599  -0.211   9.657   2.717 -0.2762  0.6041  0.8238
  411MOL0     C56600  -0.318   9.565   2.660  0.4665 -0.0439 -0.0641
  411MOL0     C56601  -0.275   9.512   2.520 -0.8196  0.0736 -0.6042
  411MOL0     C56602  -0.285   9.627   2.414 -1.2462 -0.3564  0.8296
  411MOL0     C56603  -0.192   9.577   2.306 -0.6164 -0.2117  0.3730
  411MOL0     O56604  -0.238   9.642   2.185 -0.1372 -0.6273 -0.0391
  411MOL0     C56605  -0.162   9.657   2.079  0.2712 -0.1641 -0.0011
  411MOL0     C56606  -0.209   9.729   1.967  0.6907 -0.9238 -0.5146
  411MOL0     C56607  -0.132   9.750   1.851  0.5023  0.5168 -0.3646
  411MOL0     C56608  -0.184   9.842   1.750  0.0444  0.3751  0.5714
  411MOL0     C56609  -0.008   9.682   1.832  0.1011 -1.1214 -0.5498
  411MOL0     C56610   0.080   9.695   1.719  0.7997  0.4113  0.7323
  411MOL0     O56611   0.076   9.818   1.655  0.2959 -0.5645  0.5124
  411MOL0     C56612   0.168   9.866   1.562  0.0261 -0.0757 -0.5182
  411MOL0     C56613   0.181  10.000   1.559  0.6143 -0.4394  0.6699
  411MOL0     C56614   0.274  10.058   1.465 -0.4384 -0.1801 -0.4114
  411MOL0     C56615   0.353   9.977   1.381  0.0765  0.2363  0.0883
  411MOL0     O56616   0.436  10.015   1.277  0.3487 -0.4793 -0.1064
  411MOL0     C56617   0.464  10.147   1.246  0.4900 -0.0145 -0.5899
  411MOL0     C56618   0.379  10.176   1.128  0.0538 -0.3925  0.3758
  411MOL0     C56619   0.227  10.173   1.133  0.2903 -0.0673 -0.8431
  411MOL0     C56620   0.161  10.235   1.011  0.2353  0.0562  0.9422
  411MOL0     C56621   0.030  10.295   1.059 -0.3070 -0.2409  0.3625
  411MOL0     C56622  -0.046  10.364   0.948 -0.2633  0.5744 -0.2340
  411MOL0     C56623  -0.199  10.388   0.972 -0.5231  0.3357 -0.0354
  411MOL0     C56624  -0.266  10.465   0.862  0.0525  0.4568 -0.1855
  411MOL0    Cl56625  -0.210  10.635   0.855 -0.1650  0.0382  0.0111
  411MOL0     C56626   0.325   9.838   1.387 -0.5745 -0.6809  0.1030
  411MOL0     C56627   0.245   9.782   1.478  0.3864  0.3769 -0.2947
  411MOL0     O56628   0.145   9.593   1.685  0.1182 -0.5544  0.0151
  411MOL0     C56629   0.026   9.591   1.934 -0.4851  0.4948  0.3983
  411MOL0     C56630  -0.051   9.576   2.053 -0.6490  0.4493  0.1657
  411MOL0     N56631  -0.176   9.791   2.693  0.2162 -0.3974  0.1979
  411MOL0     N56632  -0.094   9.826   2.786 -0.4656 -0.0610  0.0872
  411MOL0     C56633   1.152   9.519   2.822 -0.0462  0.7440 -1.0081
  411MOL0     C56634   1.252   9.445   2.773 -0.8983  0.1040 -1.1548
  411MOL0     C56635   1.567   9.126   2.712  0.1799 -0.2775  0.2280
  411MOL0     C56636   1.535   9.039   2.608  0.1992  0.2507 -0.1630
  411MOL0     C56637   1.624   8.955   2.552 -0.0071 -0.3436 -0.1134
  411MOL0     C56638   1.754   8.944   2.595 -0.1304 -0.2772  0.1275
  411MOL0     O56639   1.819   8.845   2.529 -0.0374  0.3378 -0.2365
  411MOL0     C56640   1.945   8.799   2.570  0.0787  0.4550  0.1999
  411MOL0     C56641   2.025   8.729   2.457  0.0520 -0.5610  0.0512
  411MOL0     C56642   2.033   8.824   2.331  0.6506 -0.4953  0.6992
  411MOL0     C56643   2.121   8.755   2.219  0.8120 -0.5505  0.2165
  411MOL0     C56644   2.102   8.815   2.091 -0.0386 -0.9615  0.3322
  411MOL0     C56645   2.099   8.868   1.977 -0.9462 -0.9245 -0.5452
  411MOL0     C56646   1.798   9.034   2.692  0.7227  0.7277 -0.2807
  411MOL0     C56647   1.707   9.128   2.740 -0.1525  0.1591 -0.3040
  411MOL0     C56648   1.770   9.229   2.834  0.3319 -0.5960 -0.1852
  411MOL0     H56649   1.107   9.137   2.769  1.2559 -0.3528 -0.8302
  411MOL0     H56650   0.930   9.272   2.885 -0.6522 -0.1509 -1.9681
  411MOL0     H56651   0.942   9.713   2.833 -1.2905  3.7663  0.5232
  411MOL0     H56652   0.997   9.696   2.995  0.2753 -0.0237  0.1162
  411MOL0     H56653   0.766   9.654   3.086 -1.6830  2.1623  0.7110
  411MOL0     H56654   0.797   9.816   3.030 -1.7912  0.3333  0.8521
  411MOL0     H56655   0.661   9.783   2.828 -2.0416 -0.5558 -1.2856
  411MOL0     H56656   0.667   9.604   2.838 -1.6295 -0.3070  0.0482
  411MOL0     H56657   0.537   9.642   3.059  1.0289 -1.1125 -0.1692
  411MOL0     H56658   0.538   9.814   3.027  3.1165  0.8594 -1.5612
  411MOL0     H56659   0.408   9.598   2.842 -2.2007  0.3773 -1.9347
  411MOL0     H56660   0.405   9.762   2.800 -0.9655 -0.5543 -1.5361
  411MOL0     H56661   0.259   9.672   3.066  0.2157  3.9951  3.0325
  411MOL0     H56662   0.298   9.830   3.003  2.7247 -0.3682 -1.2715
  411MOL0     H56663   0.171   9.643   2.816 -1.6750  0.8524 -0.9638
  411MOL0     H56664   0.176   9.823   2.822 -0.4269  1.3022  0.7821
  411MOL0     H56665   0.031   9.645   3.031 -1.9811  0.1779  0.7174
  411MOL0     H56666   0.038   9.827   3.011  1.5649  0.8936 -0.7100
  411MOL0     H56667  -0.175   9.534   2.890 -2.1749 -0.7752 -2.0454
  411MOL0     H56668  -0.403   9.632   2.648 -2.3778 -3.1023  1.2002
  411MOL0     H56669  -0.345   9.480   2.725 -0.1150  0.0023 -0.2480
  411MOL0     H56670  -0.172   9.483   2.538 -1.0148  0.7041  1.9049
  411MOL0     H56671  -0.342   9.435   2.481  0.2373  0.3441 -3.1713
  411MOL0     H56672  -0.384   9.625   2.367 -2.0253  0.4605  2.3974
  411MOL0     H56673  -0.247   9.721   2.453  0.1491 -1.3194  1.8988
  411MOL0     H56674  -0.089   9.598   2.336 -1.3312  0.4680  2.5489
  411MOL0     H56675  -0.192   9.469   2.285  1.8374 -0.0432 -0.9635
  411MOL0     H56676  -0.304   9.780   1.973  0.9843 -0.2797 -1.1887
  411MOL0     H56677  -0.173   9.795   1.652  3.1432  0.2508  0.9005
  411MOL0     H56678  -0.119   9.930   1.750 -1.3064  1.4186 -0.7857
  411MOL0     H56679  -0.291   9.868   1.755 -0.1188 -0.0974 -0.3430
  411MOL0     H56680   0.114  10.062   1.617  0.2219  1.6502 -1.8270
  411MOL0     H56681   0.275  10.162   1.437  1.2008 -0.6499 -2.3894
  411MOL0     H56682   0.462  10.212   1.335  0.7845 -3.3796  2.0796
  411MOL0     H56683   0.563  10.160   1.203  0.3417  0.9662 -0.6566
  411MOL0     H56684   0.406  10.276   1.093  0.5084 -0.1632  1.3356
  411MOL0     H56685   0.407  10.106   1.048  2.3797  1.9520 -1.0285
  411MOL0     H56686   0.201  10.227   1.224  1.8884  5.3317 -3.1937
  411MOL0     H56687   0.201  10.067   1.145  4.1185 -1.0723  0.2162
  411MOL0     H56688   0.154  10.152   0.940  2.0531 -3.1216  4.2342
  411MOL0     H56689   0.221  10.312   0.962  0.0774 -0.4175 -0.0343
  411MOL0     H56690  -0.028  10.206   1.085  2.3933 -2.5432 -0.9820
  411MOL0     H56691   0.039  10.356   1.149 -0.8429  0.4955 -0.0684
  411MOL0     H56692  -0.035  10.305   0.857  0.1948  0.5191 -0.1461
  411MOL0     H56693  -0.006  10.464   0.931 -0.4164  0.7406  0.3614
  411MOL0     H56694  -0.214  10.438   1.068  1.2820  0.5164  0.1796
  411MOL0     H56695  -0.242  10.287   0.975  0.7278 -0.1849  1.2914
  411MOL0     H56696  -0.373  10.458   0.881  0.3884 -1.7866  1.1349
  411MOL0     H56697  -0.243  10.421   0.764  0.5273 -3.3641  1.4959
  411MOL0     H56698   0.387   9.772   1.326 -0.2329 -2.9676  2.7286
  411MOL0     H56699   0.240   9.674   1.475  0.3185  0.2237  2.7812
  411MOL0     H56700   0.099   9.514   1.913 -1.6917  0.1124 -3.0909
  411MOL0     H56701  -0.018   9.499   2.122  0.1370 -0.1674 -0.8718
  411MOL0     H56702   1.180   9.622   2.842 -0.1698  0.8645 -1.4331
  411MOL0     H56703   1.347   9.492   2.751  0.6304 -1.7037  1.0600
  411MOL0     H56704   1.431   9.008   2.597 -0.3128  0.3081  3.2560
  411MOL0     H56705   1.597   8.875   2.483  0.6994 -1.0418  0.3949
  411MOL0     H56706   2.009   8.879   2.608  1.3787 -1.1105  1.4184
  411MOL0     H56707   1.942   8.721   2.646  2.1437 -0.9799 -1.0917
  411MOL0     H56708   1.968   8.642   2.423 -0.1224  0.0979 -1.4362
  411MOL0     H56709   2.126   8.709   2.496  2.1512  2.9065 -2.9652
  411MOL0     H56710   1.928   8.837   2.307  0.6998  0.0497  0.7709
  411MOL0     H56711   2.071   8.922   2.363 -0.5688 -0.1915  1.2693
  411MOL0     H56712   2.100   8.647   2.215 -0.7495 -0.3995  2.4551
  411MOL0     H56713   2.227   8.761   2.243  0.6095  0.2327  0.9335
  411MOL0     H56714   2.115   8.917   1.883  0.4251  1.9737  1.0640
  411MOL0     H56715   1.903   9.035   2.720  0.7468 -2.7412  0.1806
  411MOL0     H56716   1.878   9.234   2.849  0.4591  0.6718 -1.3347
  411MOL0     H56717   1.736   9.328   2.804  1.2395 -1.1463 -3.3675
  411MOL0     H56718   1.734   9.206   2.935  1.2280 -1.5372 -0.0677
  412MOL0     O56719   5.249   3.123   8.820 -0.7057  0.2966  0.3363
  412MOL0     C56720   5.229   3.132   8.701 -0.7399 -0.0950  0.0378
  412MOL0     O56721   5.288   3.062   8.606 -0.3991 -0.3746 -0.6325
  412MOL0     C56722   5.422   3.031   8.629 -0.1243 -0.2870 -0.8620
  412MOL0     C56723   5.514   3.137   8.653  0.2058  0.0533 -0.3235
  412MOL0     C56724   5.652   3.104   8.668  0.2331 -0.4014 -0.6589
  412MOL0     C56725   5.689   2.974   8.658 -0.5326  0.3494 -0.3384
  412MOL0     O56726   5.811   2.944   8.684 -0.7618  0.9058 -0.7843
  412MOL0     C56727   5.873   3.011   8.798 -0.9129 -0.2552 -0.3395
  412MOL0     C56728   5.997   2.942   8.851 -0.8712 -1.0908 -0.2128
  412MOL0     C56729   6.121   2.992   8.775 -0.1652 -0.2681  0.3496
  412MOL0     C56730   6.259   2.968   8.839  0.2053  0.1247  0.4889
  412MOL0     C56731   6.363   2.982   8.734  0.5360 -0.2575  0.8055
  412MOL0     C56732   6.502   2.994   8.795  0.4288  0.3044 -0.2237
  412MOL0     C56733   6.538   2.868   8.884  0.5772 -0.0976  0.0550
  412MOL0     C56734   6.683   2.880   8.933  0.6367  0.3320  0.7860
  412MOL0     N56735   6.763   2.849   8.813 -0.5360  0.3328  0.1537
  412MOL0     C56736   6.869   2.930   8.767  0.6865 -0.8598 -0.6439
  412MOL0     C56737   6.919   2.849   8.684  0.6619  1.2825  0.1916
  412MOL0     C56738   7.043   2.888   8.609  0.4702  0.4826  0.9359
  412MOL0     C56739   7.019   2.962   8.485 -0.0164  0.4472 -0.1190
  412MOL0     C56740   6.959   3.098   8.499 -1.1342 -0.1891 -0.1756
  412MOL0     C56741   6.897   3.158   8.369  0.1723  1.1752  0.1001
  412MOL0     O56742   6.843   3.293   8.386  0.0256  0.7796  0.3284
  412MOL0     C56743   6.758   3.350   8.300  0.2999  0.5430  0.2447
  412MOL0     C56744   6.801   3.392   8.178 -0.8269  0.9465  0.2619
  412MOL0     C56745   6.704   3.439   8.090 -0.8547 -0.6056 -1.1516
  412MOL0     C56746   6.760   3.505   7.962  0.5593  0.4077  0.3453
  412MOL0     C56747   6.562   3.445   8.114 -0.1191 -0.0931  0.2304
  412MOL0     C56748   6.452   3.506   8.029  0.0874  0.5135  0.9451
  412MOL0     O56749   6.346   3.558   8.093 -0.3873 -0.9260 -0.4018
  412MOL0     C56750   6.249   3.592   8.011  0.7901 -0.1058 -0.0496
  412MOL0     C56751   6.241   3.724   7.965 -0.2097 -0.2218  0.2347
  412MOL0     C56752   6.120   3.761   7.896 -0.7259  0.4314  0.3348
  412MOL0     C56753   6.029   3.666   7.856  0.5179  0.4372  0.6341
  412MOL0     O56754   5.914   3.695   7.781  0.3601 -0.6308 -0.4293
  412MOL0     C56755   5.868   3.831   7.774  0.3734  0.6890 -0.7054
  412MOL0     C56756   5.714   3.849   7.748 -0.3859 -0.3712  0.1776
  412MOL0     C56757   5.669   3.985   7.719 -0.0538  0.7197  0.6063
  412MOL0     C56758   5.745   4.055   7.605 -0.4343 -0.6363 -0.2908
  412MOL0     C56759   5.679   4.180   7.543 -0.0598  0.3268 -0.6673
  412MOL0     C56760   5.652   4.292   7.637  0.4190  1.6904 -0.1306
  412MOL0     C56761   5.764   4.372   7.673  0.0367 -0.2811  0.1998
  412MOL0     C56762   5.802   4.490   7.587 -0.0780  0.7285 -0.9382
  412MOL0    Cl56763   5.940   4.571   7.661 -0.0130  0.3535  0.7763
  412MOL0     C56764   6.041   3.537   7.896 -0.2298  1.4091 -0.0533
  412MOL0     C56765   6.148   3.500   7.986  0.5350  0.4718  0.4823
  412MOL0     O56766   6.466   3.503   7.906  0.3604 -0.0735  0.3824
  412MOL0     C56767   6.528   3.387   8.236  0.1289  0.6682 -0.3649
  412MOL0     C56768   6.621   3.342   8.334  0.0904  0.4375 -0.0697
  412MOL0     N56769   6.854   2.728   8.662  0.6879  0.4961  0.3197
  412MOL0     N56770   6.745   2.741   8.738 -0.0163 -0.0616 -0.8660
  412MOL0     C56771   5.599   2.871   8.633 -0.3920  0.3385  1.5613
  412MOL0     C56772   5.466   2.902   8.627  0.0704  0.0101 -0.2132
  412MOL0     C56773   5.119   3.234   8.674  0.1307  0.7296 -0.1694
  412MOL0     C56774   5.094   3.262   8.537 -0.4019  0.0918  0.3501
  412MOL0     C56775   5.005   3.360   8.491 -0.5559 -0.1291 -0.0057
  412MOL0     C56776   4.950   3.452   8.579 -0.2083  0.1860 -0.5514
  412MOL0     O56777   4.854   3.541   8.525 -0.3662  0.0263  0.0019
  412MOL0     C56778   4.804   3.650   8.605 -0.7251 -0.0382 -0.3746
  412MOL0     C56779   4.675   3.694   8.537  0.4101 -0.4194  0.4270
  412MOL0     C56780   4.567   3.582   8.552 -0.4804 -0.4288 -0.2205
  412MOL0     C56781   4.434   3.621   8.509  1.0621  0.2819 -0.3730
  412MOL0     C56782   4.317   3.521   8.526 -0.5298 -0.0936 -0.6809
  412MOL0     C56783   4.220   3.448   8.537 -0.1468  0.5673 -0.5365
  412MOL0     C56784   4.988   3.445   8.714  0.3778 -0.2900  0.2524
  412MOL0     C56785   5.064   3.331   8.766  0.1565 -0.7382  0.3779
  412MOL0     C56786   5.069   3.314   8.916 -0.3953 -0.1928 -0.6643
  412MOL0     H56787   5.484   3.241   8.653 -0.1840 -0.0300 -1.7122
  412MOL0     H56788   5.717   3.189   8.687 -2.5816  1.7863 -0.1371
  412MOL0     H56789   5.802   3.018   8.881  0.7097 -1.1013  1.1901
  412MOL0     H56790   5.907   3.103   8.749  1.2488 -2.5242 -3.4876
  412MOL0     H56791   6.003   2.983   8.952 -0.8421  3.2070 -1.7588
  412MOL0     H56792   5.992   2.834   8.862  3.0217 -1.1642  4.0069
  412MOL0     H56793   6.121   2.938   8.680 -0.0837  0.7332 -0.2236
  412MOL0     H56794   6.108   3.099   8.760 -0.8176  0.1107  3.0832
  412MOL0     H56795   6.257   3.043   8.918 -1.1780  1.4064 -0.6986
  412MOL0     H56796   6.250   2.870   8.887 -3.1103 -0.3098 -0.7585
  412MOL0     H56797   6.334   3.069   8.674  1.1681  1.3404  2.7040
  412MOL0     H56798   6.369   2.891   8.673 -1.7378 -0.5019  0.8453
  412MOL0     H56799   6.581   3.001   8.720  2.5492 -2.4999  1.5744
  412MOL0     H56800   6.500   3.089   8.849 -0.3908  0.1752 -0.0022
  412MOL0     H56801   6.532   2.776   8.825 -0.8847 -0.6977  1.0733
  412MOL0     H56802   6.475   2.862   8.972  0.1504 -0.5427 -0.2776
  412MOL0     H56803   6.693   2.977   8.984 -2.2432  1.3484 -0.3770
  412MOL0     H56804   6.699   2.812   9.017  2.5430 -1.4684 -0.9316
  412MOL0     H56805   6.908   3.018   8.818  1.2019 -1.0478 -0.7036
  412MOL0     H56806   7.102   2.800   8.582 -2.1407 -0.6971 -1.3624
  412MOL0     H56807   7.106   2.952   8.671  1.1915 -0.4139  1.1571
  412MOL0     H56808   7.103   2.954   8.415  0.2557 -1.0861  0.3311
  412MOL0     H56809   6.937   2.902   8.444 -0.5976  0.7163  0.6264
  412MOL0     H56810   6.878   3.103   8.573 -1.2606 -0.6267 -0.2779
  412MOL0     H56811   7.036   3.163   8.542 -0.3415 -1.1866 -0.0415
  412MOL0     H56812   6.977   3.156   8.294  0.9382  0.1147  0.9148
  412MOL0     H56813   6.823   3.094   8.319  1.6964 -0.3953 -0.2724
  412MOL0     H56814   6.908   3.404   8.166 -0.9519 -0.0636 -2.5869
  412MOL0     H56815   6.758   3.426   7.886  0.3186  1.5315 -0.8447
  412MOL0     H56816   6.867   3.530   7.965  1.1879 -1.9338  0.0763
  412MOL0     H56817   6.695   3.583   7.922  1.7894  0.2701 -2.1101
  412MOL0     H56818   6.321   3.796   7.973  0.2765 -0.8966  2.1707
  412MOL0     H56819   6.113   3.864   7.862  0.7375  0.7821  1.0033
  412MOL0     H56820   5.901   3.881   7.865  1.9915 -0.9149 -0.3431
  412MOL0     H56821   5.923   3.883   7.695 -1.6704  1.7643 -1.4908
  412MOL0     H56822   5.679   3.781   7.670 -2.1576  1.8962 -1.1139
  412MOL0     H56823   5.666   3.822   7.842  0.7039 -0.0165  0.8629
  412MOL0     H56824   5.688   4.046   7.808  4.0923 -1.0751  1.2275
  412MOL0     H56825   5.563   3.996   7.696  0.0323 -1.6115 -1.3211
  412MOL0     H56826   5.749   3.974   7.532 -0.1750 -0.2718 -0.6872
  412MOL0     H56827   5.848   4.081   7.630 -0.9429  2.0339 -0.6558
  412MOL0     H56828   5.740   4.210   7.458 -0.0439  0.9660 -0.4349
  412MOL0     H56829   5.580   4.146   7.513 -0.8036 -2.2539  3.7775
  412MOL0     H56830   5.611   4.252   7.730 -0.0942 -0.9104 -1.4038
  412MOL0     H56831   5.579   4.355   7.587 -0.9505  0.7698  0.6466
  412MOL0     H56832   5.850   4.306   7.689  1.6030  2.1548  2.7797
  412MOL0     H56833   5.744   4.423   7.768 -4.2779  0.3847 -0.8880
  412MOL0     H56834   5.718   4.561   7.589 -0.7267 -0.0278 -0.6329
  412MOL0     H56835   5.828   4.449   7.489 -0.0173 -0.7999 -0.3005
  412MOL0     H56836   5.957   3.473   7.871  1.0298 -0.3888  0.1339
  412MOL0     H56837   6.140   3.401   8.031  0.0223  1.7475  3.4665
  412MOL0     H56838   6.423   3.385   8.263 -0.1020  4.6873 -0.2544
  412MOL0     H56839   6.578   3.311   8.429  1.6471  0.4522  0.6686
  412MOL0     H56840   5.634   2.770   8.612  1.2363  1.2978 -0.7814
  412MOL0     H56841   5.397   2.821   8.605 -0.3744 -0.3085  2.1442
  412MOL0     H56842   5.149   3.207   8.462 -1.9278 -0.9112 -0.0706
  412MOL0     H56843   5.004   3.381   8.385 -1.9911 -2.1600 -0.4481
  412MOL0     H56844   4.779   3.608   8.703 -1.3189 -4.2416 -2.0892
  412MOL0     H56845   4.887   3.721   8.611 -2.9179  2.5726  1.3680
  412MOL0     H56846   4.691   3.697   8.428 -0.5945 -2.7911  0.1527
  412MOL0     H56847   4.636   3.785   8.583 -1.3272 -1.2726  0.7209
  412MOL0     H56848   4.607   3.498   8.495 -2.7000 -1.0880 -0.9218
  412MOL0     H56849   4.575   3.551   8.657  0.3293 -1.9213 -0.6860
  412MOL0     H56850   4.445   3.645   8.403 -1.6263  1.6327 -0.4519
  412MOL0     H56851   4.401   3.711   8.563 -1.8211 -0.1888 -1.1417
  412MOL0     H56852   4.131   3.388   8.541  1.0726 -1.2574  0.6503
  412MOL0     H56853   4.962   3.516   8.791  0.8445 -1.3717  1.4475
  412MOL0     H56854   5.021   3.219   8.942  1.4043 -1.0106 -0.2187
  412MOL0     H56855   5.162   3.307   8.972 -1.9666  1.6093  2.4483
  412MOL0     H56856   5.015   3.395   8.965 -1.3252  0.3382 -2.4666
  413MOL0     O56857  10.025   7.988   5.371  0.0593  0.4127  0.1337
  413MOL0     C56858   9.970   7.908   5.451 -0.1764  0.6079  0.0589
  413MOL0     O56859   9.990   7.770   5.451  0.7505  0.2743  0.0492
  413MOL0     C56860  10.074   7.718   5.362 -0.3710 -0.2342 -0.0859
  413MOL0     C56861  10.212   7.688   5.403 -0.1576 -0.0771 -0.0416
  413MOL0     C56862  10.313   7.644   5.315 -0.7041 -0.6793 -0.6713
  413MOL0     C56863  10.279   7.626   5.177  0.0091  0.1549  0.0010
  413MOL0     O56864  10.374   7.576   5.088  0.2463  0.7574 -0.2007
  413MOL0     C56865  10.377   7.640   4.968 -1.5407 -0.3685  0.5931
  413MOL0     C56866  10.518   7.688   4.956 -0.7294 -0.5091 -0.4391
  413MOL0     C56867  10.558   7.745   4.819 -0.3642  0.4052 -1.0873
  413MOL0     C56868  10.454   7.851   4.762  0.8663  0.4590 -0.6979
  413MOL0     C56869  10.508   7.917   4.633 -1.1849 -1.1700  0.8604
  413MOL0     C56870  10.514   7.814   4.522 -0.4150 -0.4868  0.2539
  413MOL0     C56871  10.616   7.854   4.419  0.6035 -0.1464 -0.3342
  413MOL0     C56872  10.609   7.761   4.302  0.1349 -0.6024 -0.7434
  413MOL0     N56873  10.712   7.653   4.312 -0.0019  0.2754  0.6622
  413MOL0     C56874  10.758   7.589   4.429  0.0541 -0.0038 -0.3767
  413MOL0     C56875  10.850   7.507   4.383  0.9304  1.1468  0.4118
  413MOL0     C56876  10.927   7.406   4.451  0.2348  0.4684  0.5757
  413MOL0     C56877  11.073   7.435   4.490  0.9345  0.8000  0.7327
  413MOL0     C56878  11.099   7.568   4.568  0.2546 -0.1989  0.4335
  413MOL0     C56879  11.245   7.589   4.611  0.3981  0.2531  0.1361
  413MOL0     O56880  11.324   7.580   4.488  0.2888  0.5612  0.0960
  413MOL0     C56881  11.434   7.507   4.485 -0.1285 -0.1372  0.2438
  413MOL0     C56882  11.496   7.488   4.360  0.5230 -0.1551 -0.0575
  413MOL0     C56883  11.612   7.410   4.350 -0.5077  0.0421  0.6107
  413MOL0     C56884  11.670   7.389   4.210  0.4556 -0.1314  0.9349
  413MOL0     C56885  11.664   7.347   4.472  0.3107  0.1175 -0.0886
  413MOL0     C56886  11.781   7.258   4.474 -1.3080  0.2625  0.3563
  413MOL0     O56887  11.780   7.167   4.578 -0.1637 -0.2309 -0.8041
  413MOL0     C56888  11.896   7.105   4.606 -0.0537  0.4717  0.4824
  413MOL0     C56889  11.993   7.164   4.686 -0.5766 -0.2369 -0.6002
  413MOL0     C56890  12.116   7.095   4.712  0.3264  0.4959 -0.4120
  413MOL0     C56891  12.135   6.966   4.661  0.4731 -0.0612  0.2171
  413MOL0     O56892  12.246   6.893   4.700  0.7389 -0.2767 -0.2104
  413MOL0     C56893  12.366   6.956   4.649  0.0115  1.1539  0.0938
  413MOL0     C56894  12.495   6.886   4.698 -0.4563  0.0122  0.4123
  413MOL0     C56895  12.503   6.846   4.844 -0.4468  0.2671 -0.6313
  413MOL0     C56896  12.583   6.714   4.868 -0.5491 -0.4525  0.1753
  413MOL0     C56897  12.627   6.698   5.012  1.0131  0.7266 -1.1958
  413MOL0     C56898  12.672   6.551   5.033 -0.1763 -0.9780  0.2348
  413MOL0     C56899  12.706   6.503   5.176  0.6398 -0.0571  0.0829
  413MOL0     C56900  12.833   6.582   5.226  0.3757  0.4411  0.6244
  413MOL0    Cl56901  12.781   6.722   5.307 -0.0245  0.0031  0.1433
  413MOL0     C56902  12.035   6.903   4.580 -0.5308  0.1217 -0.6237
  413MOL0     C56903  11.919   6.977   4.549  0.1791  0.2748 -0.0166
  413MOL0     O56904  11.876   7.275   4.398  0.6409 -0.6156 -0.2410
  413MOL0     C56905  11.595   7.362   4.594 -0.4784  0.6263  0.6375
  413MOL0     C56906  11.488   7.451   4.602 -0.4744 -0.1739 -0.6631
  413MOL0     N56907  10.869   7.522   4.245  0.5885  0.1213  0.3611
  413MOL0     N56908  10.784   7.615   4.205 -0.7630 -0.0376  0.2721
  413MOL0     C56909  10.150   7.663   5.140 -0.6866 -0.5034  0.6460
  413MOL0     C56910  10.051   7.714   5.229  0.2788 -0.4833  0.5366
  413MOL0     C56911   9.855   7.958   5.524 -0.2743 -0.4227 -1.1945
  413MOL0     C56912   9.777   7.861   5.595  0.4522  0.0528  0.3633
  413MOL0     C56913   9.656   7.903   5.665 -0.3151 -0.0817 -0.7370
  413MOL0     C56914   9.606   8.033   5.669  0.6311  0.6461  0.3625
  413MOL0     O56915   9.479   8.052   5.729  0.4630  0.3635 -0.4582
  413MOL0     C56916   9.438   8.192   5.735 -0.7486 -0.3233 -0.6090
  413MOL0     C56917   9.289   8.215   5.780  1.0952 -0.5307  0.4334
  413MOL0     C56918   9.278   8.351   5.868  0.1810  0.3690 -0.8793
  413MOL0     C56919   9.307   8.484   5.797 -0.1003  0.2285  0.4405
  413MOL0     C56920   9.240   8.608   5.847  0.6762 -0.1459 -1.2313
  413MOL0     C56921   9.205   8.720   5.876  0.9036  1.0047  0.3122
  413MOL0     C56922   9.687   8.126   5.598 -0.5365 -0.8369 -0.3160
  413MOL0     C56923   9.804   8.090   5.532 -0.0047 -1.0816 -0.2490
  413MOL0     C56924   9.893   8.206   5.484 -0.2417  0.0450  0.0269
  413MOL0     H56925  10.236   7.706   5.508 -0.2272  1.5413 -0.2835
  413MOL0     H56926  10.410   7.626   5.358 -1.6883 -3.2398  0.6715
  413MOL0     H56927  10.315   7.730   4.971 -1.4972 -0.3438  2.6594
  413MOL0     H56928  10.347   7.565   4.895  0.0997 -1.8618  1.3612
  413MOL0     H56929  10.544   7.768   5.027  2.6011 -0.1472 -1.8647
  413MOL0     H56930  10.584   7.605   4.983  2.3167  2.1042  0.8084
  413MOL0     H56931  10.659   7.787   4.822  0.1486 -0.8044  1.5454
  413MOL0     H56932  10.560   7.667   4.742 -3.5261  0.5980 -1.4908
  413MOL0     H56933  10.360   7.802   4.737  1.3444 -0.8604 -0.0318
  413MOL0     H56934  10.425   7.928   4.834  1.2411  1.0635 -1.1753
  413MOL0     H56935  10.606   7.961   4.655 -1.1799  0.0053 -1.2003
  413MOL0     H56936  10.447   8.003   4.605  0.8446 -0.2229 -1.0148
  413MOL0     H56937  10.534   7.713   4.559 -0.5081 -0.2823  0.8752
  413MOL0     H56938  10.417   7.814   4.471  0.2851  3.7084 -1.3958
  413MOL0     H56939  10.719   7.850   4.457 -0.2805 -1.8954  2.0611
  413MOL0     H56940  10.593   7.954   4.381 -0.6699 -0.5659 -0.6949
  413MOL0     H56941  10.513   7.710   4.296  0.9419 -2.3140  0.1840
  413MOL0     H56942  10.621   7.819   4.210 -1.0518  1.5229  0.3728
  413MOL0     H56943  10.723   7.595   4.532  2.4767  1.3166  0.4643
  413MOL0     H56944  10.909   7.320   4.386 -0.4902  2.5029 -2.1177
  413MOL0     H56945  10.879   7.386   4.547  2.5535 -1.2770  1.4840
  413MOL0     H56946  11.122   7.344   4.525 -0.1100 -1.1586 -2.4456
  413MOL0     H56947  11.120   7.438   4.391  0.5936 -0.4070  0.5212
  413MOL0     H56948  11.067   7.651   4.505  4.1427 -0.0464 -1.6145
  413MOL0     H56949  11.040   7.569   4.661  1.4550 -1.9518  1.2626
  413MOL0     H56950  11.270   7.681   4.665  1.5056 -1.5919  3.0095
  413MOL0     H56951  11.263   7.498   4.670 -0.3658 -1.1299 -1.6664
  413MOL0     H56952  11.448   7.523   4.269 -0.5702 -1.1202  0.1356
  413MOL0     H56953  11.774   7.423   4.203  0.8806 -1.6031 -0.9248
  413MOL0     H56954  11.619   7.442   4.130  0.6079 -3.0635 -1.2765
  413MOL0     H56955  11.666   7.280   4.199  2.5520 -0.3953  2.1045
  413MOL0     H56956  11.977   7.257   4.739 -1.0110 -2.0676  2.7248
  413MOL0     H56957  12.189   7.130   4.784 -0.0942 -4.3956  2.8672
  413MOL0     H56958  12.382   6.933   4.544 -1.5720 -3.6841  0.6476
  413MOL0     H56959  12.366   7.065   4.662  0.8220  0.9945  1.6585
  413MOL0     H56960  12.497   6.789   4.648  1.0162 -1.1176  2.5011
  413MOL0     H56961  12.585   6.942   4.671 -1.2529  1.3862  0.5256
  413MOL0     H56962  12.400   6.835   4.879 -0.6237 -0.8894 -1.4483
  413MOL0     H56963  12.560   6.923   4.897 -2.4446  1.0378  0.5080
  413MOL0     H56964  12.680   6.710   4.818 -0.8458 -1.3084 -0.3661
  413MOL0     H56965  12.525   6.625   4.838  2.7492 -3.2328  1.3847
  413MOL0     H56966  12.707   6.767   5.042 -0.6437  1.3921  2.1409
  413MOL0     H56967  12.541   6.718   5.076  1.6221 -0.7849  0.1874
  413MOL0     H56968  12.764   6.532   4.977 -0.5017  2.2785 -1.6634
  413MOL0     H56969  12.600   6.489   4.979  0.4793 -2.1490  0.6649
  413MOL0     H56970  12.717   6.394   5.180 -2.1176 -0.3859  1.4768
  413MOL0     H56971  12.618   6.512   5.241  0.3021  1.4539 -0.5603
  413MOL0     H56972  12.904   6.616   5.151  1.0992 -0.0030  1.1033
  413MOL0     H56973  12.884   6.511   5.292  2.0663  0.3882 -0.6754
  413MOL0     H56974  12.062   6.802   4.550  0.4600 -0.4481  1.9667
  413MOL0     H56975  11.842   6.931   4.488  0.8420  0.6317 -1.1421
  413MOL0     H56976  11.625   7.322   4.691 -1.8722 -2.6005 -0.1113
  413MOL0     H56977  11.448   7.458   4.703  0.9264  1.9117 -0.1833
  413MOL0     H56978  10.141   7.649   5.032  4.0312  1.6855 -0.3238
  413MOL0     H56979   9.955   7.743   5.187 -1.3165 -3.0538  2.1511
  413MOL0     H56980   9.799   7.756   5.610  0.6769  0.1430  0.6831
  413MOL0     H56981   9.596   7.829   5.716  0.0931 -0.1601 -0.3624
  413MOL0     H56982   9.506   8.249   5.799 -1.6160 -0.7350  0.7162
  413MOL0     H56983   9.460   8.244   5.641  0.7536  0.9984  0.4160
  413MOL0     H56984   9.261   8.125   5.837  1.3538 -0.3712  0.8170
  413MOL0     H56985   9.208   8.229   5.709 -0.8040  2.3593  2.9401
  413MOL0     H56986   9.173   8.344   5.895  0.5581 -2.6094  0.2114
  413MOL0     H56987   9.337   8.341   5.959  0.1567  2.4139 -0.6040
  413MOL0     H56988   9.280   8.469   5.692 -3.1772 -3.4632  1.5089
  413MOL0     H56989   9.414   8.503   5.804 -0.0611 -0.2932  1.4088
  413MOL0     H56990   9.163   8.812   5.910 -2.3350  0.0579 -0.7978
  413MOL0     H56991   9.651   8.228   5.591 -2.9700 -1.1258  4.3004
  413MOL0     H56992   9.863   8.287   5.553 -0.6206  0.9115 -1.1268
  413MOL0     H56993   9.998   8.176   5.482 -0.7456 -1.8707 -3.3257
  413MOL0     H56994   9.871   8.238   5.382 -0.6561  0.4742  0.2438
  414MOL0     O56995   9.797   9.846   9.890 -0.0447 -0.3571 -0.1068
  414MOL0     C56996   9.883   9.819   9.807 -0.1261 -0.9403  0.4106
  414MOL0     O56997   9.849   9.805   9.679 -0.3392  0.8817 -0.7768
  414MOL0     C56998   9.725   9.816   9.638  0.9033  0.5269  0.5082
  414MOL0     C56999   9.641   9.920   9.675  0.8216  0.2358 -1.0713
  414MOL0     C57000   9.516   9.940   9.620  0.0602  0.3242 -0.0223
  414MOL0     C57001   9.456   9.843   9.542 -0.4756  0.2810 -0.3314
  414MOL0     O57002   9.320   9.849   9.515  0.0558 -0.0691 -1.5666
  414MOL0     C57003   9.231   9.918   9.613  0.4716  0.6110  0.1834
  414MOL0     C57004   9.088   9.882   9.593 -0.0686 -0.1297 -0.4801
  414MOL0     C57005   9.057   9.748   9.642  0.5696  0.0847  0.5036
  414MOL0     C57006   8.901   9.723   9.659 -0.0087 -0.0339  0.0510
  414MOL0     C57007   8.849   9.580   9.680 -0.3826  0.1656  0.1396
  414MOL0     C57008   8.699   9.579   9.663 -0.2421 -0.3489  0.0737
  414MOL0     C57009   8.633   9.431   9.644 -0.1291 -0.6790  0.4808
  414MOL0     C57010   8.484   9.445   9.616  0.1016  0.4238  1.1305
  414MOL0     N57011   8.454   9.553   9.524 -0.0939  0.2555  0.2208
  414MOL0     C57012   8.374   9.663   9.551  0.4586 -0.4590 -1.3950
  414MOL0     C57013   8.376   9.731   9.431 -0.0399  0.5280  0.0291
  414MOL0     C57014   8.288   9.845   9.378 -0.1027  0.9952 -0.5461
  414MOL0     C57015   8.371   9.920   9.281 -0.7851 -0.9848  0.3316
  414MOL0     C57016   8.280  10.008   9.205 -0.7311 -0.1623 -0.4947
  414MOL0     C57017   8.361  10.091   9.100  0.3573  0.5741  0.4759
  414MOL0     O57018   8.281  10.205   9.060 -0.3093 -0.5600 -0.2328
  414MOL0     C57019   8.312  10.293   8.960 -0.1824 -1.0042  0.2986
  414MOL0     C57020   8.231  10.394   8.922  0.1675  0.1835  0.2400
  414MOL0     C57021   8.272  10.496   8.833 -0.2032  0.0761  0.1285
  414MOL0     C57022   8.161  10.598   8.800  0.4234 -1.0039 -0.5549
  414MOL0     C57023   8.388  10.481   8.759  1.2099 -0.4108 -0.0308
  414MOL0     C57024   8.445  10.567   8.640 -0.1005 -0.1206  0.3100
  414MOL0     O57025   8.563  10.538   8.582 -0.0715  0.7169  0.1719
  414MOL0     C57026   8.608  10.612   8.476 -0.1428 -0.1362 -0.0641
  414MOL0     C57027   8.600  10.554   8.350  0.5796 -0.2017  0.3977
  414MOL0     C57028   8.651  10.621   8.241  0.7352 -0.8787  0.2835
  414MOL0     C57029   8.707  10.753   8.251  0.5387  0.3707  0.8045
  414MOL0     O57030   8.749  10.825   8.142  0.0803 -0.6120  0.3274
  414MOL0     C57031   8.655  10.914   8.082 -0.0225  0.4150  0.3875
  414MOL0     C57032   8.713  11.055   8.065 -1.0524  0.2950  0.7095
  414MOL0     C57033   8.753  11.112   8.205  0.2707 -0.2512  0.2006
  414MOL0     C57034   8.786  11.256   8.197 -0.9689  0.1010  0.0382
  414MOL0     C57035   8.811  11.324   8.333 -0.8558  0.4186  0.5638
  414MOL0     C57036   8.924  11.257   8.413  1.4465  0.7899 -0.5902
  414MOL0     C57037   8.971  11.349   8.521 -0.1392  0.2414 -0.7230
  414MOL0     C57038   9.049  11.277   8.642  0.3546 -0.6140  0.9083
  414MOL0    Cl57039   9.180  11.168   8.584 -0.0135 -0.4750 -0.6566
  414MOL0     C57040   8.699  10.807   8.378  0.2478 -0.3214  0.6741
  414MOL0     C57041   8.653  10.740   8.492  0.1197  0.1816 -0.4843
  414MOL0     O57042   8.370  10.657   8.611  0.3085  0.2026  0.1859
  414MOL0     C57043   8.478  10.376   8.797  0.2964  0.2308 -0.7612
  414MOL0     C57044   8.446  10.290   8.902 -0.0499 -0.7939 -0.1931
  414MOL0     N57045   8.441   9.651   9.334 -0.0677  0.1757 -0.5236
  414MOL0     N57046   8.490   9.555   9.391 -0.2885  0.1054  0.4967
  414MOL0     C57047   9.538   9.738   9.501 -0.1250  0.4184  0.4777
  414MOL0     C57048   9.671   9.727   9.545  0.5253  1.1493  0.4426
  414MOL0     C57049  10.020   9.776   9.834  0.9592  0.7331  0.0456
  414MOL0     C57050  10.101   9.727   9.726 -0.3105 -0.5172 -1.0720
  414MOL0     C57051  10.237   9.693   9.753  0.1999  0.1044  0.6463
  414MOL0     C57052  10.300   9.708   9.881  0.2208 -0.3346  0.2167
  414MOL0     O57053  10.432   9.667   9.888  1.7265  0.9726  0.0448
  414MOL0     C57054  10.528   9.765   9.938 -0.0345  1.1417  0.0143
  414MOL0     C57055  10.560   9.759  10.084  0.5971  0.4517 -0.7308
  414MOL0     C57056  10.639   9.634  10.132 -0.8349  0.5827 -0.2473
  414MOL0     C57057  10.664   9.643  10.284 -0.0700  0.7611  0.4666
  414MOL0     C57058  10.742   9.539  10.356 -0.0834 -0.0682 -0.3913
  414MOL0     C57059  10.809   9.457  10.422  0.3328 -0.0733 -1.0505
  414MOL0     C57060  10.222   9.762   9.985  0.5491  1.0025 -0.6397
  414MOL0     C57061  10.087   9.798   9.961 -0.8268 -0.9695  0.5872
  414MOL0     C57062  10.024   9.882  10.060  0.5365  0.0101 -0.5520
  414MOL0     H57063   9.689  10.000   9.731  0.6576  0.4625 -1.2463
  414MOL0     H57064   9.459  10.029   9.642  0.2460  0.7237 -1.1206
  414MOL0     H57065   9.257  10.023   9.596  4.2744 -0.1870  0.2093
  414MOL0     H57066   9.262   9.881   9.712 -0.0864 -2.2311 -0.6342
  414MOL0     H57067   9.038   9.957   9.656  2.3431  0.3527  0.9856
  414MOL0     H57068   9.052   9.889   9.490  2.6542  0.6863 -1.4564
  414MOL0     H57069   9.086   9.677   9.564 -1.7518  0.4314 -0.7494
  414MOL0     H57070   9.115   9.724   9.732 -0.5228  1.5333  1.6429
  414MOL0     H57071   8.866   9.792   9.736 -0.6305  1.4740 -1.5141
  414MOL0     H57072   8.856   9.752   9.563 -0.5340 -1.7518 -0.2562
  414MOL0     H57073   8.885   9.551   9.780 -1.6362 -0.5718  0.4052
  414MOL0     H57074   8.890   9.510   9.607 -2.4667  1.8169 -2.8088
  414MOL0     H57075   8.655   9.640   9.743  0.5559  1.3629 -0.7280
  414MOL0     H57076   8.675   9.627   9.568  2.0375  3.3661  1.1243
  414MOL0     H57077   8.641   9.371   9.735 -0.4301 -1.9275 -0.2819
  414MOL0     H57078   8.695   9.370   9.577  0.9453  0.6773  0.1785
  414MOL0     H57079   8.438   9.360   9.566 -0.2193  1.6646 -0.7946
  414MOL0     H57080   8.424   9.450   9.707 -1.2268  0.4217  0.2831
  414MOL0     H57081   8.311   9.682   9.637 -0.6811 -1.0136 -2.0881
  414MOL0     H57082   8.238   9.896   9.461 -1.1648 -0.7976 -0.0238
  414MOL0     H57083   8.205   9.792   9.329  1.6287 -1.4905 -0.9421
  414MOL0     H57084   8.439   9.988   9.333 -0.6218  0.4952 -1.6533
  414MOL0     H57085   8.431   9.864   9.208 -3.9135 -1.6331 -1.9565
  414MOL0     H57086   8.200   9.947   9.161  1.5281 -1.2910 -3.3551
  414MOL0     H57087   8.242  10.078   9.280 -0.2769 -0.0115 -0.4069
  414MOL0     H57088   8.461  10.116   9.138  1.5491 -1.9043 -0.8004
  414MOL0     H57089   8.369  10.031   9.010 -2.5986 -1.6373  1.5549
  414MOL0     H57090   8.127  10.389   8.955  0.2761 -1.4628  0.4190
  414MOL0     H57091   8.113  10.580   8.704 -0.8690 -0.4006 -0.0533
  414MOL0     H57092   8.190  10.702   8.782 -2.7269 -0.0198 -0.5545
  414MOL0     H57093   8.084  10.606   8.878 -0.5612 -3.1122 -1.2310
  414MOL0     H57094   8.555  10.456   8.338  1.1033 -0.1767 -2.4554
  414MOL0     H57095   8.648  10.573   8.143  1.7794  0.6738 -0.5517
  414MOL0     H57096   8.634  10.880   7.980 -1.4901  0.4116  0.6676
  414MOL0     H57097   8.556  10.916   8.128 -0.6038  0.0419 -0.7957
  414MOL0     H57098   8.797  11.042   7.996  1.0191 -0.3413  3.1581
  414MOL0     H57099   8.641  11.120   8.014  0.5848 -0.4884 -2.9609
  414MOL0     H57100   8.837  11.057   8.248  0.1644 -0.0535  0.6761
  414MOL0     H57101   8.662  11.105   8.266 -0.1451 -2.6584 -0.5729
  414MOL0     H57102   8.708  11.315   8.148 -1.2624 -0.3917 -0.0972
  414MOL0     H57103   8.879  11.264   8.141  0.6799 -0.6926  2.4957
  414MOL0     H57104   8.825  11.431   8.315  1.4660  0.6052  2.7961
  414MOL0     H57105   8.713  11.303   8.377 -1.7126 -1.6647 -2.1099
  414MOL0     H57106   9.007  11.221   8.351  1.5458  1.5731 -0.9280
  414MOL0     H57107   8.883  11.164   8.451  2.2616 -0.8809 -3.4774
  414MOL0     H57108   8.887  11.402   8.568 -0.3803 -0.7047 -0.0610
  414MOL0     H57109   9.040  11.416   8.469 -0.7284  1.2218 -0.2715
  414MOL0     H57110   8.977  11.222   8.703  0.3007 -0.2615  1.1608
  414MOL0     H57111   9.102  11.342   8.712 -0.6281 -2.1650  3.2537
  414MOL0     H57112   8.709  10.915   8.392  0.0898 -0.1180 -0.6925
  414MOL0     H57113   8.646  10.790   8.588  2.1663 -0.4632  0.0684
  414MOL0     H57114   8.574  10.358   8.749  2.4280  2.3539  2.2709
  414MOL0     H57115   8.517  10.225   8.951 -0.1764  1.7421  3.9205
  414MOL0     H57116   9.505   9.660   9.433  3.1224 -0.1227 -0.6098
  414MOL0     H57117   9.735   9.647   9.510  2.2936  2.5000  0.4502
  414MOL0     H57118  10.064   9.717   9.624  0.6319 -2.6144 -1.2637
  414MOL0     H57119  10.299   9.649   9.675 -0.1599 -1.0125  0.9703
  414MOL0     H57120  10.615   9.764   9.872  0.4142 -0.3246  0.5963
  414MOL0     H57121  10.492   9.866   9.917  0.4193  2.2044  3.6589
  414MOL0     H57122  10.474   9.765  10.152 -0.0322 -0.3438 -1.4302
  414MOL0     H57123  10.629   9.840  10.109  0.2688  0.1856  1.1684
  414MOL0     H57124  10.592   9.538  10.108  1.9670 -0.4356 -2.2444
  414MOL0     H57125  10.737   9.635  10.084 -0.6418  3.2533  0.0621
  414MOL0     H57126  10.565   9.643  10.331 -0.5327 -1.3466 -0.3969
  414MOL0     H57127  10.712   9.739  10.304  1.6871  0.9955 -3.8201
  414MOL0     H57128  10.853   9.387  10.491  0.3484  0.5232 -0.4344
  414MOL0     H57129  10.259   9.765  10.087  0.3695 -0.2142 -0.5307
  414MOL0     H57130   9.973   9.974  10.030  0.1538 -0.1389 -0.3495
  414MOL0     H57131   9.960   9.824  10.127 -2.0353  2.0517 -1.1070
  414MOL0     H57132  10.104   9.907  10.131  2.3402 -2.8539 -1.3918
  415MOL0     O57133   6.435   6.395   9.622  0.4623 -0.2269 -0.1995
  415MOL0     C57134   6.403   6.485   9.706  0.8924 -0.1144 -0.0612
  415MOL0     O57135   6.375   6.463   9.838  0.1174  0.5795 -0.3539
  415MOL0     C57136   6.373   6.335   9.906 -0.4726 -0.9477  0.3482
  415MOL0     C57137   6.446   6.221   9.865  0.7633 -0.4124  0.6404
  415MOL0     C57138   6.444   6.106   9.943  0.9711 -0.1165  0.7810
  415MOL0     C57139   6.374   6.094  10.066  0.3565 -0.0336 -1.0431
  415MOL0     O57140   6.366   5.989  10.152 -0.2843  0.0341  0.3972
  415MOL0     C57141   6.441   5.873  10.129 -1.0291  0.8337 -0.6330
  415MOL0     C57142   6.586   5.898  10.184 -0.3527  0.3853  0.0907
  415MOL0     C57143   6.680   5.771  10.175  0.3278 -0.1716 -1.0526
  415MOL0     C57144   6.831   5.821  10.190  1.0873  0.7615 -0.6247
  415MOL0     C57145   6.934   5.706  10.157  0.7831 -1.3002 -0.7417
  415MOL0     C57146   7.079   5.757  10.162  0.1978 -0.3045  0.1296
  415MOL0     C57147   7.167   5.636  10.178  0.2802 -0.3371  0.9747
  415MOL0     C57148   7.318   5.663  10.221  0.1113 -0.7445 -0.0046
  415MOL0     N57149   7.385   5.744  10.118  0.0281  0.3594  0.7439
  415MOL0     C57150   7.404   5.705   9.988 -0.0166 -0.0868 -0.3454
  415MOL0     C57151   7.501   5.792   9.948  0.3838  0.5426  0.4903
  415MOL0     C57152   7.590   5.781   9.823 -1.0765  0.1826 -0.3520
  415MOL0     C57153   7.730   5.708   9.839  0.2801  0.1569  0.3756
  415MOL0     C57154   7.800   5.777   9.955  0.8039  0.4103 -0.2653
  415MOL0     C57155   7.949   5.748   9.938 -0.1704 -0.3712  0.1601
  415MOL0     O57156   7.990   5.799   9.805  1.0602 -0.2634  0.8774
  415MOL0     C57157   8.132   5.799   9.797  0.6920 -0.5181  0.6685
  415MOL0     C57158   8.207   5.681   9.774  0.3551 -0.3553 -0.3349
  415MOL0     C57159   8.348   5.692   9.756  0.0852  0.3737  0.2148
  415MOL0     C57160   8.414   5.561   9.721 -0.2022 -0.0871  0.8616
  415MOL0     C57161   8.409   5.816   9.755  0.4830  0.2245 -0.1424
  415MOL0     C57162   8.553   5.841   9.742 -0.9012  0.8803 -0.2085
  415MOL0     O57163   8.581   5.932   9.649  0.3641  0.0843 -0.6898
  415MOL0     C57164   8.710   5.937   9.608 -0.3317  0.1218 -0.0906
  415MOL0     C57165   8.747   6.064   9.566  0.2371 -0.3936 -0.8611
  415MOL0     C57166   8.872   6.094   9.523 -0.3568  0.1943  0.2830
  415MOL0     C57167   8.977   5.998   9.511  0.3741 -0.3261 -0.5732
  415MOL0     O57168   9.098   6.053   9.482  0.0799 -0.1764  0.5272
  415MOL0     C57169   9.197   5.950   9.472 -0.4819 -0.2917  0.7719
  415MOL0     C57170   9.338   6.026   9.484 -0.8437  0.4636 -0.0140
  415MOL0     C57171   9.463   5.943   9.477  0.0351  0.3454  0.6325
  415MOL0     C57172   9.477   5.870   9.349  0.5504  0.1523  0.1326
  415MOL0     C57173   9.624   5.820   9.333 -0.6921 -0.8650 -0.5486
  415MOL0     C57174   9.658   5.749   9.194  0.3720  0.8078 -0.1302
  415MOL0     C57175   9.637   5.845   9.082  0.1823  0.0994 -0.5305
  415MOL0     C57176   9.711   5.793   8.955 -0.4541 -0.4266  0.2805
  415MOL0    Cl57177   9.888   5.775   8.985 -0.2431  0.4051  0.0285
  415MOL0     C57178   8.940   5.865   9.559 -0.0288 -0.1433  0.8676
  415MOL0     C57179   8.809   5.838   9.613 -0.1247  0.8535 -0.9275
  415MOL0     O57180   8.628   5.779   9.816  0.2162 -0.6477  0.8428
  415MOL0     C57181   8.335   5.931   9.786  1.2989  1.1667  0.4034
  415MOL0     C57182   8.194   5.925   9.795  0.4126  0.7819  0.1865
  415MOL0     N57183   7.526   5.887  10.057  0.6950  0.9936  0.7559
  415MOL0     N57184   7.461   5.844  10.156 -0.1656  0.2868  0.3226
  415MOL0     C57185   6.314   6.213  10.105  0.0547 -0.7354  0.4796
  415MOL0     C57186   6.312   6.333  10.028 -0.6592  0.6467 -0.0774
  415MOL0     C57187   6.365   6.623   9.649  0.2778 -0.1253  0.4768
  415MOL0     C57188   6.339   6.730   9.739 -0.6594 -0.2203 -0.8959
  415MOL0     C57189   6.326   6.858   9.697  0.0373 -0.1718  0.7849
  415MOL0     C57190   6.332   6.896   9.561  0.2616  0.2017  0.2323
  415MOL0     O57191   6.306   7.028   9.514  0.9870  0.1686 -1.1128
  415MOL0     C57192   6.213   7.109   9.597 -1.3111 -0.4530 -0.0829
  415MOL0     C57193   6.272   7.213   9.694 -0.3503  0.2714 -0.4623
  415MOL0     C57194   6.325   7.333   9.613  0.3874  0.0908  0.7104
  415MOL0     C57195   6.451   7.302   9.529  0.4127 -0.3020 -0.4685
  415MOL0     C57196   6.557   7.234   9.604  0.7616 -0.2310  0.2500
  415MOL0     C57197   6.639   7.178   9.665  0.0477  0.3403  0.1751
  415MOL0     C57198   6.341   6.790   9.468  0.4736 -0.1146  0.1891
  415MOL0     C57199   6.361   6.652   9.513  0.4560  0.7329 -0.2194
  415MOL0     C57200   6.404   6.558   9.398  0.1476  0.6541 -0.0653
  415MOL0     H57201   6.506   6.213   9.775  0.5303 -0.0140  0.4439
  415MOL0     H57202   6.497   6.019   9.907  1.1350  1.5293 -3.5448
  415MOL0     H57203   6.447   5.851  10.022  0.9963  1.9724 -0.8106
  415MOL0     H57204   6.388   5.796  10.185  2.5715 -0.1502  1.7511
  415MOL0     H57205   6.614   5.986  10.126 -0.7035  1.9121  2.1362
  415MOL0     H57206   6.589   5.917  10.292  0.3142 -4.3789  1.1546
  415MOL0     H57207   6.649   5.693  10.246  1.9018  2.1471  2.4457
  415MOL0     H57208   6.669   5.730  10.074  1.7704  2.2582 -2.2981
  415MOL0     H57209   6.836   5.908  10.124 -2.5371  0.8964 -0.9521
  415MOL0     H57210   6.844   5.850  10.295 -1.5087 -0.0899  0.0246
  415MOL0     H57211   6.912   5.668  10.056  0.5960 -1.7104 -0.5511
  415MOL0     H57212   6.907   5.632  10.233 -0.1182  0.7174  0.9949
  415MOL0     H57213   7.105   5.805  10.068 -1.1908 -0.4238 -0.3367
  415MOL0     H57214   7.089   5.816  10.254 -2.6973 -0.5333  0.6688
  415MOL0     H57215   7.154   5.570  10.091 -4.2798  0.2056  1.0104
  415MOL0     H57216   7.134   5.580  10.266  3.8563 -2.8302  0.9357
  415MOL0     H57217   7.313   5.731  10.307  0.0945 -1.1326  0.3024
  415MOL0     H57218   7.366   5.570  10.252  2.8432  0.6873  0.3648
  415MOL0     H57219   7.352   5.632   9.926  1.2775 -0.6023 -0.8571
  415MOL0     H57220   7.615   5.878   9.779 -0.5376  1.9093  3.3804
  415MOL0     H57221   7.535   5.734   9.741 -1.3152  4.0653 -2.6915
  415MOL0     H57222   7.710   5.608   9.877 -1.6311  0.8479  1.3472
  415MOL0     H57223   7.785   5.720   9.745  0.6174  0.8897  0.6637
  415MOL0     H57224   7.793   5.886   9.951  1.2510  0.4051 -2.3026
  415MOL0     H57225   7.756   5.753  10.052  1.8149  2.3436  0.7171
  415MOL0     H57226   8.009   5.796  10.016  1.4066 -1.5248 -0.2775
  415MOL0     H57227   7.972   5.641   9.942 -1.1906 -0.5992  0.1442
  415MOL0     H57228   8.168   5.580   9.774 -0.0206 -0.3454  3.4224
  415MOL0     H57229   8.522   5.575   9.737 -0.5238  1.4403  1.8980
  415MOL0     H57230   8.397   5.540   9.615 -0.0521 -0.0045  0.8201
  415MOL0     H57231   8.378   5.484   9.789  0.9878 -2.1848 -0.7536
  415MOL0     H57232   8.681   6.148   9.580  3.8525  2.6318 -0.4626
  415MOL0     H57233   8.895   6.198   9.505  3.2211 -0.2872  1.3042
  415MOL0     H57234   9.195   5.874   9.551  0.1607 -2.2434 -1.0056
  415MOL0     H57235   9.189   5.903   9.373 -0.2798 -0.6756  0.9381
  415MOL0     H57236   9.358   6.098   9.404  0.9658  0.0770  0.0521
  415MOL0     H57237   9.346   6.072   9.583 -3.5601 -2.5944  1.8417
  415MOL0     H57238   9.478   5.867   9.555  1.5495 -0.4933 -0.4169
  415MOL0     H57239   9.538   6.020   9.497 -0.6197  1.2019 -0.1542
  415MOL0     H57240   9.440   5.940   9.274 -2.4219  0.1042  1.4217
  415MOL0     H57241   9.410   5.784   9.345 -1.1059  1.3630 -4.4455
  415MOL0     H57242   9.687   5.910   9.329 -0.2863 -0.8867  2.7483
  415MOL0     H57243   9.646   5.753   9.416  1.0386  0.4464  0.1328
  415MOL0     H57244   9.606   5.654   9.181 -1.6880  1.8000  0.4409
  415MOL0     H57245   9.761   5.716   9.209  0.3132  0.6061 -0.1769
  415MOL0     H57246   9.682   5.936   9.122 -1.8644  0.9567 -0.0165
  415MOL0     H57247   9.531   5.853   9.053  0.2943 -0.7116 -1.1949
  415MOL0     H57248   9.703   5.868   8.876 -1.9046  0.9909  1.7024
  415MOL0     H57249   9.673   5.699   8.915 -0.2795 -0.7361  0.8349
  415MOL0     H57250   9.010   5.783   9.564  0.4874  0.1342 -1.1956
  415MOL0     H57251   8.798   5.735   9.645  0.0867  0.6072 -1.6192
  415MOL0     H57252   8.377   6.031   9.783  0.3251  1.5873 -3.1869
  415MOL0     H57253   8.128   6.011   9.803 -1.4972 -0.6383  0.2127
  415MOL0     H57254   6.268   6.207  10.203 -1.7561 -1.4355 -0.3707
  415MOL0     H57255   6.277   6.429  10.064  2.8792  2.4546 -0.9889
  415MOL0     H57256   6.349   6.708   9.845 -0.6029  1.8700 -0.4397
  415MOL0     H57257   6.317   6.928   9.779 -2.7085  0.6155 -0.1119
  415MOL0     H57258   6.151   7.166   9.528  1.9148  1.5548 -1.5593
  415MOL0     H57259   6.149   7.040   9.652 -1.3479 -0.9486 -0.7421
  415MOL0     H57260   6.352   7.163   9.749  1.1203 -0.0397 -2.7482
  415MOL0     H57261   6.199   7.236   9.773 -0.0452 -3.4076  1.1095
  415MOL0     H57262   6.246   7.366   9.545  1.3023 -1.6353 -1.2964
  415MOL0     H57263   6.354   7.412   9.683  0.7851 -1.0432  1.8700
  415MOL0     H57264   6.487   7.394   9.483  0.2431 -0.2162 -0.4309
  415MOL0     H57265   6.404   7.237   9.454 -3.4376 -0.8854  2.1581
  415MOL0     H57266   6.718   7.127   9.716 -0.7185 -1.4245 -0.2885
  415MOL0     H57267   6.343   6.822   9.365  2.2915  1.6776  0.7321
  415MOL0     H57268   6.353   6.461   9.392 -1.9357  1.7742 -3.8444
  415MOL0     H57269   6.380   6.600   9.299  0.8321 -1.6420 -1.2780
  415MOL0     H57270   6.512   6.539   9.395  0.0163 -0.3487  1.0575
  416MOL0     O57271   1.708   7.531   9.216  0.2887 -0.2800 -0.0056
  416MOL0     C57272   1.648   7.595   9.127 -0.4987  0.4727 -0.1572
  416MOL0     O57273   1.688   7.601   8.994 -0.2310  0.5859  0.4745
  416MOL0     C57274   1.823   7.624   8.971  0.8955 -1.1374  0.3753
  416MOL0     C57275   1.874   7.748   9.024 -0.2722  0.4271  0.1719
  416MOL0     C57276   2.008   7.789   8.989  0.0399  0.8721  0.8176
  416MOL0     C57277   2.082   7.716   8.886  0.7766  0.1564 -0.2006
  416MOL0     O57278   2.198   7.763   8.834 -0.4971  0.2331  0.9283
  416MOL0     C57279   2.286   7.851   8.915  1.6453  1.3921 -0.6167
  416MOL0     C57280   2.421   7.870   8.849  0.2760  0.0124 -0.3893
  416MOL0     C57281   2.392   7.946   8.724  0.1110 -0.0991  0.0766
  416MOL0     C57282   2.523   7.954   8.638 -0.0617 -0.0716 -0.7190
  416MOL0     C57283   2.643   8.050   8.692  0.5238 -0.3124 -0.6352
  416MOL0     C57284   2.762   8.045   8.593  0.1882 -0.1520 -0.3955
  416MOL0     C57285   2.747   8.114   8.458  0.1204  0.5789 -0.0347
  416MOL0     C57286   2.802   8.256   8.461  0.5261  0.1541  0.6761
  416MOL0     N57287   2.945   8.271   8.452  0.2466 -0.2524  0.2212
  416MOL0     C57288   3.018   8.345   8.357 -0.8997  0.5732  0.2815
  416MOL0     C57289   3.145   8.306   8.388 -0.5154  0.0377 -0.3506
  416MOL0     C57290   3.270   8.343   8.301  0.7342  0.3631 -0.4812
  416MOL0     C57291   3.273   8.249   8.186 -0.3935 -1.0595 -0.3722
  416MOL0     C57292   3.404   8.223   8.106  0.3575  0.7562  0.2894
  416MOL0     C57293   3.470   8.347   8.045 -1.2145  0.7377 -0.5336
  416MOL0     O57294   3.501   8.440   8.153  0.2762  0.3296  0.1085
  416MOL0     C57295   3.581   8.542   8.130  0.7780 -0.6068 -0.7573
  416MOL0     C57296   3.620   8.615   8.239 -0.1320 -0.0643 -0.1361
  416MOL0     C57297   3.704   8.736   8.215 -0.6238  0.7402  0.2650
  416MOL0     C57298   3.758   8.816   8.329 -0.1631 -0.0844  1.2657
  416MOL0     C57299   3.748   8.766   8.085 -0.8274  0.1171 -0.2206
  416MOL0     C57300   3.831   8.897   8.041  0.0506  0.1997  1.0055
  416MOL0     O57301   3.858   9.002   8.123  0.2537  0.0915 -0.3037
  416MOL0     C57302   3.917   9.118   8.084  0.3407 -0.1883 -0.0196
  416MOL0     C57303   4.022   9.165   8.172  0.2736  0.0315  0.0666
  416MOL0     C57304   4.074   9.291   8.144  0.7670  0.2804  0.0080
  416MOL0     C57305   4.036   9.366   8.035 -0.7712  0.7888  0.7625
  416MOL0     O57306   4.090   9.485   8.003 -0.5073  0.0876  0.5672
  416MOL0     C57307   4.214   9.454   7.934 -0.1759  0.2421  0.5402
  416MOL0     C57308   4.285   9.590   7.921  0.2221  0.7443  0.3571
  416MOL0     C57309   4.348   9.644   8.049  0.0893  0.3111 -0.0183
  416MOL0     C57310   4.417   9.782   8.024  0.9498  0.3720 -0.1687
  416MOL0     C57311   4.499   9.836   8.144 -0.5991 -0.0583 -0.4166
  416MOL0     C57312   4.428   9.927   8.239 -0.3772 -0.9173 -0.4848
  416MOL0     C57313   4.521   9.983   8.348 -0.3315  0.0711  0.1699
  416MOL0     C57314   4.452  10.096   8.435  0.9761  0.1243 -0.1157
  416MOL0    Cl57315   4.299  10.028   8.499 -0.0923  0.2489  0.2693
  416MOL0     C57316   3.939   9.318   7.949 -0.6940  0.0379 -0.3584
  416MOL0     C57317   3.879   9.202   7.977  0.6292  0.2321 -0.2450
  416MOL0     O57318   3.859   8.900   7.917 -0.1947 -0.8557 -0.1110
  416MOL0     C57319   3.707   8.683   7.979 -0.2921 -0.5497 -0.0028
  416MOL0     C57320   3.625   8.574   7.999 -1.2220 -0.5982  0.2914
  416MOL0     N57321   3.148   8.213   8.493 -0.0320 -0.2003 -0.1379
  416MOL0     N57322   3.030   8.205   8.536  0.2046 -0.8635  0.1463
  416MOL0     C57323   2.033   7.585   8.839  0.3111  0.0325 -0.3044
  416MOL0     C57324   1.903   7.550   8.882 -0.8578 -0.3232  0.6894
  416MOL0     C57325   1.506   7.621   9.151 -0.0385  0.0594  0.1615
  416MOL0     C57326   1.459   7.748   9.131  1.4313  0.2266  0.2869
  416MOL0     C57327   1.324   7.783   9.153  0.2782 -0.1674  0.1579
  416MOL0     C57328   1.235   7.692   9.210 -0.0930  0.2734 -0.1218
  416MOL0     O57329   1.103   7.718   9.248  0.5866  0.0187 -0.8045
  416MOL0     C57330   1.065   7.855   9.259 -0.1228  0.4669 -0.2066
  416MOL0     C57331   1.121   7.918   9.387 -0.1561  0.5857  0.5677
  416MOL0     C57332   1.087   8.062   9.379 -0.3855 -1.1995 -0.2736
  416MOL0     C57333   1.029   8.132   9.502 -0.2053 -0.8689 -0.1267
  416MOL0     C57334   1.024   8.279   9.482  0.0509  0.3246  0.1884
  416MOL0     C57335   1.015   8.399   9.469 -0.3602 -0.4024 -0.0097
  416MOL0     C57336   1.279   7.561   9.237 -0.1737 -0.5007 -0.0303
  416MOL0     C57337   1.407   7.520   9.196 -0.0260 -0.6142 -0.7038
  416MOL0     C57338   1.441   7.376   9.211 -0.0288  0.4531  0.4589
  416MOL0     H57339   1.825   7.813   9.095  1.6961  1.1043  0.9663
  416MOL0     H57340   2.042   7.886   9.025  3.3493 -0.0341  0.5417
  416MOL0     H57341   2.292   7.808   9.015 -0.6150 -1.4784 -1.5642
  416MOL0     H57342   2.237   7.946   8.941 -3.3955 -1.0753  0.0760
  416MOL0     H57343   2.487   7.920   8.921  1.4447 -2.3942  0.3375
  416MOL0     H57344   2.471   7.776   8.824 -0.3139 -1.7347  3.9901
  416MOL0     H57345   2.314   7.888   8.672  0.0230  0.0985 -0.0145
  416MOL0     H57346   2.350   8.046   8.742  1.0281  0.1353  0.9735
  416MOL0     H57347   2.568   7.856   8.617 -2.5178 -1.4991  0.3069
  416MOL0     H57348   2.493   7.995   8.541 -0.1243 -1.0271 -1.1177
  416MOL0     H57349   2.675   8.019   8.792  1.4519  0.0307 -0.8130
  416MOL0     H57350   2.603   8.152   8.700  2.7589  0.5299  0.9584
  416MOL0     H57351   2.851   8.082   8.645 -1.9336 -1.7146  4.9283
  416MOL0     H57352   2.782   7.941   8.567 -0.6963 -0.8882  1.6522
  416MOL0     H57353   2.646   8.103   8.417  1.1679  1.4502 -3.1583
  416MOL0     H57354   2.796   8.066   8.372 -0.3277  3.4890 -2.0513
  416MOL0     H57355   2.764   8.305   8.371  1.4205 -1.5951 -0.7166
  416MOL0     H57356   2.769   8.317   8.546  1.3697  0.9667  0.4470
  416MOL0     H57357   2.976   8.417   8.286 -0.4833  0.6914  0.1533
  416MOL0     H57358   3.363   8.348   8.357  1.4764  1.2784 -1.7385
  416MOL0     H57359   3.269   8.446   8.264  2.1851 -0.0930 -1.9147
  416MOL0     H57360   3.247   8.149   8.220 -0.6823 -1.4425 -1.6788
  416MOL0     H57361   3.194   8.279   8.117 -0.0216 -0.2540 -0.4615
  416MOL0     H57362   3.474   8.163   8.164  0.5797 -0.5455 -1.2695
  416MOL0     H57363   3.375   8.157   8.024 -2.1913  2.1355 -0.0214
  416MOL0     H57364   3.559   8.315   7.990  0.0653 -0.0401  1.8272
  416MOL0     H57365   3.406   8.403   7.976 -2.0600  0.7425  0.2332
  416MOL0     H57366   3.594   8.575   8.337  0.2394 -0.1134 -0.0557
  416MOL0     H57367   3.758   8.758   8.421 -0.0588 -1.7651  0.2465
  416MOL0     H57368   3.707   8.913   8.332 -0.5068 -0.2881  2.6325
  416MOL0     H57369   3.866   8.825   8.309 -0.5121  0.7128 -0.4830
  416MOL0     H57370   4.053   9.126   8.268 -0.8770  0.3177  0.5742
  416MOL0     H57371   4.151   9.324   8.214  0.0156 -2.5678  2.3564
  416MOL0     H57372   4.270   9.384   7.996 -1.7080 -2.5137 -1.0142
  416MOL0     H57373   4.187   9.410   7.838  2.1692 -0.1125 -0.0008
  416MOL0     H57374   4.345   9.585   7.830 -2.6105  1.6650 -1.7245
  416MOL0     H57375   4.208   9.662   7.893 -0.3162  0.8855  2.0715
  416MOL0     H57376   4.415   9.568   8.091  1.0000 -0.1711 -2.1946
  416MOL0     H57377   4.268   9.661   8.122  0.1785 -2.4165  0.8265
  416MOL0     H57378   4.332   9.850   8.010 -1.5100 -2.4580  0.0345
  416MOL0     H57379   4.468   9.777   7.927 -0.4204  1.3463 -0.9775
  416MOL0     H57380   4.541   9.748   8.192  0.4328 -0.1538 -1.4601
  416MOL0     H57381   4.588   9.886   8.104 -1.4370  0.6930 -1.4175
  416MOL0     H57382   4.337   9.879   8.278  0.6878 -3.0364 -0.4774
  416MOL0     H57383   4.398  10.017   8.185  0.2590 -1.4547 -1.7571
  416MOL0     H57384   4.607  10.026   8.296 -1.1664  0.9446 -0.5105
  416MOL0     H57385   4.553   9.892   8.399  0.1824  0.6370  0.8792
  416MOL0     H57386   4.437  10.175   8.361  1.8085 -1.4048 -2.0261
  416MOL0     H57387   4.507  10.138   8.519  0.2637  2.0594 -0.5698
  416MOL0     H57388   3.917   9.392   7.872  2.6538  2.0100  0.3569
  416MOL0     H57389   3.792   9.165   7.923  0.7323 -0.3908  0.0079
  416MOL0     H57390   3.734   8.704   7.876  1.3555 -1.9121  0.0965
  416MOL0     H57391   3.601   8.517   7.910  0.9232 -0.5875 -0.3461
  416MOL0     H57392   2.092   7.538   8.761  0.8901 -1.4367  0.9557
  416MOL0     H57393   1.869   7.460   8.832  1.4970  0.1298 -1.9457
  416MOL0     H57394   1.521   7.834   9.109  0.0683  1.0357 -0.5432
  416MOL0     H57395   1.297   7.887   9.138  2.7752  0.6170  0.6038
  416MOL0     H57396   1.086   7.914   9.168 -0.5425  2.0122  0.6568
  416MOL0     H57397   0.958   7.848   9.280 -0.2927  3.3614  0.3200
  416MOL0     H57398   1.230   7.916   9.384 -0.1627  0.7021  0.0517
  416MOL0     H57399   1.077   7.854   9.464 -0.9701 -0.6641 -0.8688
  416MOL0     H57400   1.171   8.120   9.340 -1.7139  1.0436 -0.0089
  416MOL0     H57401   1.013   8.081   9.301 -1.2598  2.9639  1.2708
  416MOL0     H57402   1.082   8.110   9.596  2.5461  1.0084 -1.0976
  416MOL0     H57403   0.928   8.094   9.519 -0.2073 -2.4587 -3.1605
  416MOL0     H57404   0.997   8.505   9.462 -2.0753 -0.7485 -1.7562
  416MOL0     H57405   1.212   7.482   9.270 -1.9986 -0.0710 -2.4287
  416MOL0     H57406   1.348   7.318   9.216 -1.9348  3.3326  0.6810
  416MOL0     H57407   1.504   7.338   9.130 -1.6861  1.8893 -1.6391
  416MOL0     H57408   1.497   7.356   9.303 -1.2429  0.3008  1.1933
  417MOL0     O57409   4.856   1.922   3.007 -0.7479 -0.2403 -0.0631
  417MOL0     C57410   4.751   1.978   2.974  0.8542 -0.1909 -0.2271
  417MOL0     O57411   4.732   2.102   2.937  0.5099  0.0083 -0.0233
  417MOL0     C57412   4.849   2.175   2.917 -0.2842 -0.3876  1.1918
  417MOL0     C57413   4.890   2.202   2.782 -0.2321  0.0273 -0.9791
  417MOL0     C57414   5.000   2.278   2.757  0.5718 -0.3477  0.2762
  417MOL0     C57415   5.078   2.327   2.860 -0.4909 -0.7451 -0.3132
  417MOL0     O57416   5.190   2.406   2.840  0.7786 -0.1399  0.0056
  417MOL0     C57417   5.237   2.447   2.709  0.1170 -0.1483 -0.0113
  417MOL0     C57418   5.353   2.539   2.705  0.0457  0.5729  0.1762
  417MOL0     C57419   5.368   2.603   2.572  0.0404  0.8580  0.2350
  417MOL0     C57420   5.506   2.684   2.578 -0.1289 -0.5763 -0.0416
  417MOL0     C57421   5.560   2.709   2.436  0.9322 -0.5932  0.3574
  417MOL0     C57422   5.494   2.825   2.361  0.4563  0.5435  0.0013
  417MOL0     C57423   5.581   2.875   2.236  0.3696  0.2902 -0.4288
  417MOL0     C57424   5.594   2.773   2.127 -0.2531  0.4924  0.4776
  417MOL0     N57425   5.675   2.817   2.014 -0.6323  0.5142  0.3691
  417MOL0     C57426   5.699   2.734   1.906 -0.0501  0.2051  0.3860
  417MOL0     C57427   5.728   2.812   1.801  0.2105 -0.1659  0.2851
  417MOL0     C57428   5.794   2.779   1.666 -0.1215 -0.2506  0.1039
  417MOL0     C57429   5.897   2.665   1.695 -0.2061  0.8949  0.2612
  417MOL0     C57430   5.940   2.589   1.569 -0.4832  0.4840 -0.2247
  417MOL0     C57431   6.025   2.669   1.471 -0.2557  0.3507  0.0123
  417MOL0     O57432   6.139   2.732   1.534 -0.0648 -0.1581 -0.4653
  417MOL0     C57433   6.268   2.678   1.524  0.2721 -0.8387  0.1476
  417MOL0     C57434   6.295   2.559   1.457 -0.5268 -0.3305 -0.3996
  417MOL0     C57435   6.430   2.515   1.435  0.8011 -0.0219 -1.0746
  417MOL0     C57436   6.443   2.372   1.398 -0.2388 -0.1301  0.0097
  417MOL0     C57437   6.537   2.603   1.484  0.2955  0.1009  0.0112
  417MOL0     C57438   6.677   2.562   1.446 -0.8149  0.7027  0.6807
  417MOL0     O57439   6.707   2.425   1.448  0.0464 -0.8039  0.6187
  417MOL0     C57440   6.831   2.398   1.400 -0.3768  0.4959 -0.1940
  417MOL0     C57441   6.934   2.386   1.493  0.1055 -0.3255  0.9406
  417MOL0     C57442   7.071   2.360   1.454 -0.7343  0.3651 -0.0448
  417MOL0     C57443   7.091   2.324   1.322 -0.4502 -0.4856 -0.5583
  417MOL0     O57444   7.206   2.304   1.253 -0.2028  0.5390 -1.0620
  417MOL0     C57445   7.326   2.363   1.304 -0.2649 -0.1147 -0.3701
  417MOL0     C57446   7.448   2.322   1.215 -0.3044 -0.9661  0.5729
  417MOL0     C57447   7.580   2.379   1.265 -0.2197 -0.4575  0.0709
  417MOL0     C57448   7.673   2.365   1.141  0.0748  0.0561  0.7917
  417MOL0     C57449   7.812   2.394   1.163 -0.2047 -0.1515 -1.1755
  417MOL0     C57450   7.907   2.369   1.050 -0.1472  0.1416  0.0509
  417MOL0     C57451   8.050   2.396   1.108 -0.5535 -0.6759  0.7278
  417MOL0     C57452   8.169   2.365   1.025 -0.8622 -0.0403 -0.0775
  417MOL0    Cl57453   8.326   2.395   1.095  0.3354 -0.3171 -0.3874
  417MOL0     C57454   6.986   2.325   1.233 -0.2756  1.1476  0.5052
  417MOL0     C57455   6.860   2.370   1.263  0.7790  0.3046 -0.0299
  417MOL0     O57456   6.762   2.651   1.419 -0.2552  0.2202 -0.1408
  417MOL0     C57457   6.503   2.715   1.552  0.5436  0.2097  0.4344
  417MOL0     C57458   6.370   2.756   1.574 -0.2637  0.3424 -0.6169
  417MOL0     N57459   5.718   2.943   1.846 -0.0804  1.1531 -0.2260
  417MOL0     N57460   5.679   2.943   1.967 -0.6563 -0.1783 -0.1258
  417MOL0     C57461   5.042   2.301   2.989  0.4293 -0.8514 -0.0203
  417MOL0     C57462   4.926   2.227   3.018 -0.0352 -0.3932  0.4514
  417MOL0     C57463   4.628   1.895   2.979  0.9613  0.4380  0.5410
  417MOL0     C57464   4.642   1.763   2.954  0.4102 -0.2610 -0.1633
  417MOL0     C57465   4.539   1.678   2.952  0.1365  0.4226  0.3701
  417MOL0     C57466   4.415   1.720   3.002 -0.2176  0.2927 -0.6643
  417MOL0     O57467   4.309   1.636   3.017  0.7096  0.0704  0.2984
  417MOL0     C57468   4.334   1.509   3.079 -0.3043  0.0095  0.2595
  417MOL0     C57469   4.260   1.482   3.221  0.6684 -0.1258 -0.0731
  417MOL0     C57470   4.132   1.560   3.238  0.9602 -0.3585  0.0492
  417MOL0     C57471   4.023   1.508   3.153  0.3887  0.1143 -0.5125
  417MOL0     C57472   4.006   1.357   3.162 -0.7677  0.3062  1.1945
  417MOL0     C57473   3.993   1.243   3.152  0.4746 -0.6468 -0.3611
  417MOL0     C57474   4.398   1.850   3.030 -0.0348  0.0763  0.4469
  417MOL0     C57475   4.502   1.947   3.015  0.5148  0.8593 -0.4569
  417MOL0     C57476   4.474   2.097   3.039 -0.1777  0.5143  0.1353
  417MOL0     H57477   4.835   2.154   2.701 -0.5173 -0.4881 -0.4857
  417MOL0     H57478   5.032   2.293   2.654  2.0856  2.5406  1.0687
  417MOL0     H57479   5.148   2.498   2.671  0.6921 -0.5498 -2.0303
  417MOL0     H57480   5.256   2.353   2.656 -0.0863 -0.9564  1.3204
  417MOL0     H57481   5.331   2.619   2.776  3.9910  1.6846  0.4047
  417MOL0     H57482   5.435   2.475   2.740 -3.1460 -2.9241  1.9618
  417MOL0     H57483   5.354   2.524   2.498  2.4568  0.6715 -0.0877
  417MOL0     H57484   5.291   2.679   2.558 -0.0453  0.6282 -0.5599
  417MOL0     H57485   5.501   2.784   2.623  0.3454  0.2408 -1.7244
  417MOL0     H57486   5.578   2.625   2.635  0.4603  1.2703  1.2073
  417MOL0     H57487   5.541   2.615   2.382 -2.1770  1.6724 -3.0063
  417MOL0     H57488   5.669   2.710   2.437  0.9553  1.2310 -0.0397
  417MOL0     H57489   5.395   2.785   2.336  0.3795  0.1168  0.9181
  417MOL0     H57490   5.491   2.903   2.438 -0.5694 -1.4690  2.1348
  417MOL0     H57491   5.677   2.912   2.275  1.3260  0.1233 -2.5069
  417MOL0     H57492   5.527   2.966   2.208  2.2208  2.0247  1.2566
  417MOL0     H57493   5.643   2.682   2.162  3.2478  1.5174 -1.1971
  417MOL0     H57494   5.500   2.744   2.082  0.5188 -1.0690 -0.1880
  417MOL0     H57495   5.693   2.626   1.914 -1.3262  0.2186 -0.1979
  417MOL0     H57496   5.830   2.867   1.613 -0.1428  1.3454  2.5697
  417MOL0     H57497   5.721   2.732   1.599  1.8915 -1.3200 -1.4576
  417MOL0     H57498   5.984   2.705   1.748 -0.9510  2.6557  0.2343
  417MOL0     H57499   5.849   2.591   1.761  1.2235 -2.7271 -2.4461
  417MOL0     H57500   5.992   2.498   1.600  0.2279  0.8706 -0.2558
  417MOL0     H57501   5.843   2.562   1.526 -1.5943  1.2438  1.6515
  417MOL0     H57502   6.055   2.611   1.384 -1.0710 -3.0078  1.8023
  417MOL0     H57503   5.955   2.746   1.436 -0.4271  0.4852  0.6335
  417MOL0     H57504   6.219   2.485   1.432 -0.6029 -0.3628 -0.0790
  417MOL0     H57505   6.340   2.335   1.397 -0.6767  0.7939  2.6731
  417MOL0     H57506   6.490   2.323   1.483  1.8760  0.6674 -0.6525
  417MOL0     H57507   6.499   2.347   1.308  0.9479  1.7050  0.1863
  417MOL0     H57508   6.906   2.414   1.595  0.8245  3.2439  0.2826
  417MOL0     H57509   7.149   2.366   1.529 -1.5814  1.8687  0.7592
  417MOL0     H57510   7.318   2.472   1.312 -1.5864 -0.2057 -0.0801
  417MOL0     H57511   7.353   2.311   1.397  0.8327  0.7596 -0.1898
  417MOL0     H57512   7.465   2.214   1.211 -0.3951 -1.2332  4.2004
  417MOL0     H57513   7.414   2.365   1.120  0.0517 -1.9902 -0.0348
  417MOL0     H57514   7.622   2.323   1.348  1.0166 -3.0345 -2.1314
  417MOL0     H57515   7.575   2.485   1.291  1.6037 -0.9391  2.7218
  417MOL0     H57516   7.646   2.437   1.063  2.0463  0.2795  0.2481
  417MOL0     H57517   7.660   2.264   1.103  2.9000 -2.0140  4.5535
  417MOL0     H57518   7.807   2.496   1.202 -0.7509  0.0942 -1.8665
  417MOL0     H57519   7.845   2.335   1.249 -0.4605 -1.7226 -2.1291
  417MOL0     H57520   7.896   2.438   0.965  1.0176  1.6897  1.0925
  417MOL0     H57521   7.897   2.265   1.017  0.2998  1.0092 -3.1504
  417MOL0     H57522   8.073   2.347   1.203  1.7232  3.1883  2.3924
  417MOL0     H57523   8.057   2.504   1.122 -2.8522 -0.5150  0.9807
  417MOL0     H57524   8.166   2.415   0.928 -0.1915  1.2708  0.5504
  417MOL0     H57525   8.164   2.256   1.014 -0.6355  0.1198 -2.2343
  417MOL0     H57526   7.006   2.323   1.126  1.8484 -1.1165  0.8634
  417MOL0     H57527   6.790   2.383   1.180  0.1743 -2.3302 -0.0286
  417MOL0     H57528   6.585   2.785   1.564  0.7915  0.2943 -1.4650
  417MOL0     H57529   6.349   2.848   1.627  1.8068 -0.3073  1.4780
  417MOL0     H57530   5.088   2.341   3.079 -0.6452 -0.2008  0.2577
  417MOL0     H57531   4.890   2.239   3.119 -0.1413  1.2956  0.2493
  417MOL0     H57532   4.736   1.728   2.913  0.2393  1.1387 -1.8774
  417MOL0     H57533   4.544   1.578   2.909 -0.8607  1.7468 -3.1825
  417MOL0     H57534   4.302   1.431   3.008 -1.1275 -0.1822  0.8229
  417MOL0     H57535   4.439   1.490   3.101 -0.0258  1.7020  0.4497
  417MOL0     H57536   4.321   1.515   3.306  3.7668 -2.6723 -1.0965
  417MOL0     H57537   4.252   1.374   3.232  1.5057 -0.4113 -1.8632
  417MOL0     H57538   4.092   1.545   3.339 -0.1178  2.2204  0.1093
  417MOL0     H57539   4.153   1.665   3.217  1.4512 -0.3979  0.3335
  417MOL0     H57540   4.041   1.524   3.046 -2.4543 -0.8416 -1.2313
  417MOL0     H57541   3.932   1.568   3.165  1.7811  2.1879  0.3128
  417MOL0     H57542   3.974   1.138   3.142  1.1632 -0.9736  1.3603
  417MOL0     H57543   4.296   1.876   3.056 -0.2459 -2.2431  2.2970
  417MOL0     H57544   4.459   2.141   2.940  4.8162 -1.3668 -1.8272
  417MOL0     H57545   4.386   2.120   3.099 -0.5464  0.2782 -0.3029
  417MOL0     H57546   4.557   2.150   3.087  0.2562  0.4778 -0.5555
  418MOL0     O57547   4.802   1.144   6.209  0.4041  0.5044  0.4651
  418MOL0     C57548   4.869   1.037   6.211 -0.2522  0.5176 -1.4520
  418MOL0     O57549   4.990   1.024   6.266 -0.7396  0.1734 -0.6454
  418MOL0     C57550   5.078   1.133   6.264  0.4623  0.5080 -0.6955
  418MOL0     C57551   5.194   1.130   6.186  0.6630  0.8679 -0.2411
  418MOL0     C57552   5.285   1.233   6.192 -0.2233  0.3603 -0.2504
  418MOL0     C57553   5.266   1.346   6.276 -0.2091  0.6434  0.2870
  418MOL0     O57554   5.365   1.438   6.281 -0.5710  0.0121  0.8715
  418MOL0     C57555   5.324   1.572   6.299 -1.0853  0.4584 -0.0657
  418MOL0     C57556   5.411   1.678   6.235  0.6335  0.2752 -0.0617
  418MOL0     C57557   5.450   1.654   6.087  0.3170  0.8229  0.6449
  418MOL0     C57558   5.581   1.729   6.051 -0.0411  0.6011 -0.4283
  418MOL0     C57559   5.582   1.746   5.900  0.4333  0.3694  0.8318
  418MOL0     C57560   5.705   1.835   5.876  0.7381  0.2453  0.7536
  418MOL0     C57561   5.688   1.923   5.757  0.5538  0.6059  0.0608
  418MOL0     C57562   5.712   1.873   5.623 -0.6040 -0.8357  0.7695
  418MOL0     N57563   5.856   1.829   5.606  1.0840 -0.1444  0.6618
  418MOL0     C57564   5.953   1.896   5.528  0.2857 -0.8878 -0.6301
  418MOL0     C57565   6.051   1.811   5.509  1.2251  0.1525 -0.1334
  418MOL0     C57566   6.180   1.838   5.440  0.1270 -0.5117  0.7819
  418MOL0     C57567   6.296   1.769   5.502  0.4128 -0.7972 -0.9294
  418MOL0     C57568   6.414   1.787   5.422  0.3525 -0.1839 -0.3856
  418MOL0     C57569   6.526   1.693   5.471  0.9734  0.0854 -0.0101
  418MOL0     O57570   6.522   1.676   5.610 -0.9223  0.0042  0.1174
  418MOL0     C57571   6.578   1.780   5.691  0.3411  0.5374  0.7145
  418MOL0     C57572   6.656   1.882   5.634 -1.3242 -0.0300 -0.2081
  418MOL0     C57573   6.704   1.987   5.709 -0.5033 -0.9124 -0.7721
  418MOL0     C57574   6.802   2.083   5.641  0.1115  0.4834  0.3648
  418MOL0     C57575   6.690   1.981   5.856  0.0897 -0.2536 -0.4152
  418MOL0     C57576   6.743   2.076   5.952 -0.3867  0.0663  0.5942
  418MOL0     O57577   6.711   2.060   6.083  0.3178 -0.1783  0.2245
  418MOL0     C57578   6.740   2.146   6.182 -1.0006 -0.0249 -1.0119
  418MOL0     C57579   6.783   2.280   6.168 -0.0761  1.2191  0.4747
  418MOL0     C57580   6.824   2.362   6.276  0.5467 -0.4028  0.6106
  418MOL0     C57581   6.826   2.310   6.407  0.4190  0.1326 -0.0730
  418MOL0     O57582   6.877   2.374   6.516 -0.0959  0.2033 -0.2020
  418MOL0     C57583   6.914   2.510   6.521  0.6960 -0.4811 -0.0458
  418MOL0     C57584   6.959   2.558   6.661  0.0021 -0.3546 -0.1671
  418MOL0     C57585   7.112   2.525   6.675  0.1881  0.3159  0.1668
  418MOL0     C57586   7.178   2.564   6.809 -0.4167  0.3069 -0.0210
  418MOL0     C57587   7.183   2.721   6.829  0.3918 -0.3108  0.6910
  418MOL0     C57588   7.277   2.762   6.939  0.2302 -0.3173  0.6285
  418MOL0     C57589   7.318   2.912   6.909  0.0947  0.0213  0.0477
  418MOL0     C57590   7.401   2.967   7.024 -0.0830 -0.0570 -0.5392
  418MOL0    Cl57591   7.569   2.910   7.036 -0.0053 -0.1200  0.1322
  418MOL0     C57592   6.784   2.180   6.420  0.0248  0.5855  0.6012
  418MOL0     C57593   6.740   2.099   6.316  1.3197 -0.4801 -0.2392
  418MOL0     O57594   6.822   2.162   5.908  0.2664 -0.4748  0.2293
  418MOL0     C57595   6.622   1.872   5.915  0.0531  0.2434 -0.8459
  418MOL0     C57596   6.563   1.773   5.827  0.7447  0.3600 -0.3013
  418MOL0     N57597   6.021   1.684   5.577 -1.0790  0.5253  0.3369
  418MOL0     N57598   5.904   1.704   5.632 -0.4071 -0.9391  0.1959
  418MOL0     C57599   5.153   1.341   6.352  1.4827 -0.8325 -0.0241
  418MOL0     C57600   5.055   1.238   6.348  0.3993 -0.5544 -0.7976
  418MOL0     C57601   4.823   0.910   6.147 -0.0725 -0.1744  0.6430
  418MOL0     C57602   4.888   0.788   6.165 -0.2072  0.0220 -0.8950
  418MOL0     C57603   4.838   0.673   6.093 -1.0157 -0.1543  0.5149
  418MOL0     C57604   4.719   0.672   6.028  0.1306 -0.4247  1.4560
  418MOL0     O57605   4.661   0.571   5.960 -0.5111  0.0121  0.1154
  418MOL0     C57606   4.742   0.451   5.924 -0.2656 -0.2035 -0.7431
  418MOL0     C57607   4.727   0.348   6.039 -0.9341  0.2359  0.2585
  418MOL0     C57608   4.790   0.212   6.001  0.3308 -0.0850 -0.1480
  418MOL0     C57609   4.940   0.204   5.991  0.7980 -0.7884 -0.4629
  418MOL0     C57610   4.993   0.244   6.124 -0.7814  0.5866 -0.3481
  418MOL0     C57611   5.024   0.272   6.234 -0.3277 -0.6101 -1.1556
  418MOL0     C57612   4.641   0.787   6.026 -0.3453 -0.8199  0.0059
  418MOL0     C57613   4.693   0.905   6.076 -0.9342  0.7713  0.1918
  418MOL0     C57614   4.601   1.016   6.063 -0.6022 -0.0551  0.1137
  418MOL0     H57615   5.215   1.028   6.156  0.1432  0.8594 -0.5933
  418MOL0     H57616   5.378   1.230   6.137  0.1810  0.9994  0.3805
  418MOL0     H57617   5.313   1.601   6.403  1.0165  1.2637 -0.0200
  418MOL0     H57618   5.221   1.576   6.260 -0.9647 -4.1877 -1.5853
  418MOL0     H57619   5.369   1.778   6.250  1.5398  0.7321 -0.4639
  418MOL0     H57620   5.507   1.680   6.287  0.6824  0.3003 -0.1516
  418MOL0     H57621   5.464   1.548   6.063  3.6360  1.5804 -1.4538
  418MOL0     H57622   5.370   1.693   6.023 -1.0511 -0.4703  1.4874
  418MOL0     H57623   5.580   1.826   6.102 -2.1585 -0.4237  1.7129
  418MOL0     H57624   5.671   1.688   6.098 -0.1378  1.9032  0.9687
  418MOL0     H57625   5.495   1.800   5.863  0.7071  0.4117  0.2402
  418MOL0     H57626   5.595   1.653   5.845 -1.1237  0.2804  0.5853
  418MOL0     H57627   5.726   1.893   5.966  3.2094 -0.0908  0.4488
  418MOL0     H57628   5.797   1.777   5.867  0.2024 -0.3192 -2.0466
  418MOL0     H57629   5.762   2.002   5.775 -1.9605  3.0080  0.4927
  418MOL0     H57630   5.584   1.956   5.751 -0.7850 -2.7835  1.5630
  418MOL0     H57631   5.641   1.792   5.603 -1.1467 -0.3830  0.8304
  418MOL0     H57632   5.684   1.946   5.547  3.5188  0.0193 -0.1381
  418MOL0     H57633   5.945   1.996   5.485 -0.8405 -1.6743 -2.3465
  418MOL0     H57634   6.197   1.946   5.429  1.7551 -0.8571 -0.5961
  418MOL0     H57635   6.170   1.794   5.340  4.2614  0.6158 -0.3382
  418MOL0     H57636   6.300   1.797   5.607 -0.5027  4.1497 -1.9836
  418MOL0     H57637   6.277   1.661   5.496 -0.9503 -0.5141 -5.4134
  418MOL0     H57638   6.383   1.762   5.321  1.4830 -0.4816 -0.6696
  418MOL0     H57639   6.445   1.892   5.426  1.0042 -0.3883  2.1776
  418MOL0     H57640   6.503   1.591   5.439 -1.0297  0.4682  0.0759
  418MOL0     H57641   6.626   1.714   5.430  1.4795 -2.2372 -0.1371
  418MOL0     H57642   6.693   1.881   5.532  0.0291  2.9021  0.1387
  418MOL0     H57643   6.792   2.071   5.532 -0.1826  1.5041  0.2765
  418MOL0     H57644   6.900   2.051   5.677  0.6446  1.0507 -0.5449
  418MOL0     H57645   6.768   2.186   5.656 -1.7164  0.2568 -1.6622
  418MOL0     H57646   6.760   2.332   6.076  2.6774  1.1597 -0.3397
  418MOL0     H57647   6.866   2.462   6.277  5.6690 -2.2383  0.6008
  418MOL0     H57648   6.979   2.530   6.436 -1.6015  1.1736 -1.5484
  418MOL0     H57649   6.829   2.573   6.491  0.9565 -0.4162 -0.6581
  418MOL0     H57650   6.927   2.661   6.678 -2.4697 -1.0769  0.0220
  418MOL0     H57651   6.904   2.504   6.739  3.2591 -3.6722  0.0910
  418MOL0     H57652   7.160   2.570   6.587 -1.4830  2.8098  0.4365
  418MOL0     H57653   7.128   2.417   6.667  1.7036  0.6061 -1.4311
  418MOL0     H57654   7.283   2.532   6.803 -1.1125 -1.9943 -0.9448
  418MOL0     H57655   7.138   2.528   6.904  0.9932  2.6640  1.5793
  418MOL0     H57656   7.211   2.771   6.736  2.5311 -2.0431  0.3220
  418MOL0     H57657   7.081   2.747   6.860 -0.4787 -3.7642  1.1921
  418MOL0     H57658   7.365   2.697   6.939  2.7838  2.8779  1.8264
  418MOL0     H57659   7.228   2.761   7.037 -0.6292  0.4808  0.2236
  418MOL0     H57660   7.236   2.984   6.910 -0.9649 -1.1220 -1.0572
  418MOL0     H57661   7.370   2.922   6.813  1.5353  4.8028  1.0490
  418MOL0     H57662   7.349   2.935   7.116  1.6839 -0.3297  0.4055
  418MOL0     H57663   7.397   3.076   7.015 -0.2149  0.1872  1.8187
  418MOL0     H57664   6.795   2.131   6.516  2.9536  2.1554  1.1965
  418MOL0     H57665   6.708   1.996   6.329 -0.8593  0.1289 -0.4008
  418MOL0     H57666   6.617   1.852   6.021  1.1948 -1.8167 -1.1130
  418MOL0     H57667   6.514   1.684   5.866 -0.4853  0.8445 -0.6773
  418MOL0     H57668   5.136   1.436   6.401  0.9627 -0.9523  0.0315
  418MOL0     H57669   4.960   1.241   6.402 -0.9085 -1.6541 -2.9247
  418MOL0     H57670   4.969   0.771   6.235 -1.5923  1.0463  1.0767
  418MOL0     H57671   4.897   0.583   6.102 -0.0230  0.5193  0.9442
  418MOL0     H57672   4.705   0.402   5.833  1.0719  0.0133 -1.4194
  418MOL0     H57673   4.848   0.471   5.908 -0.0666  1.1078  1.6729
  418MOL0     H57674   4.620   0.336   6.053 -0.6538 -0.4477  2.1411
  418MOL0     H57675   4.767   0.385   6.134 -0.5495  1.5850 -0.3951
  418MOL0     H57676   4.762   0.148   6.086 -0.7692  1.6304  0.8478
  418MOL0     H57677   4.739   0.167   5.915 -0.3241 -0.5464  0.4646
  418MOL0     H57678   4.988   0.261   5.911  0.5161 -0.3913 -0.3465
  418MOL0     H57679   4.967   0.099   5.977 -1.4479 -0.9657 -5.1065
  418MOL0     H57680   5.052   0.304   6.333 -5.6506 -0.0882  0.5243
  418MOL0     H57681   4.543   0.783   5.979 -0.7445  0.4730  0.6791
  418MOL0     H57682   4.561   1.042   6.162 -2.5788 -1.9674 -0.0938
  418MOL0     H57683   4.655   1.103   6.023  3.6346 -2.9144 -1.0080
  418MOL0     H57684   4.520   0.999   5.992  0.3770  0.4307 -1.1532
  419MOL0     O57685   8.856  11.413   6.829  0.3009 -1.0529  0.0058
  419MOL0     C57686   8.842  11.292   6.843 -0.0247  0.0505 -0.6681
  419MOL0     O57687   8.926  11.191   6.807  0.3029 -0.1050 -0.2195
  419MOL0     C57688   9.025  11.233   6.720 -0.6216  0.4243  0.3063
  419MOL0     C57689   9.003  11.228   6.580 -0.5548 -0.2542 -0.5751
  419MOL0     C57690   9.110  11.236   6.490 -0.1524 -0.7489  0.6366
  419MOL0     C57691   9.247  11.236   6.543 -0.1553  0.2177  0.5787
  419MOL0     O57692   9.359  11.211   6.461 -0.6182 -0.1168  0.8328
  419MOL0     C57693   9.352  11.152   6.330 -0.6649  0.3466 -0.0712
  419MOL0     C57694   9.485  11.083   6.306 -0.3297  0.1550 -0.0030
  419MOL0     C57695   9.524  10.972   6.403 -0.0454  0.2163 -0.2373
  419MOL0     C57696   9.649  10.908   6.337  0.2055  0.4023 -0.0886
  419MOL0     C57697   9.684  10.768   6.403  0.1460 -0.7160 -0.4330
  419MOL0     C57698   9.715  10.774   6.559  0.6616 -0.6991 -0.0969
  419MOL0     C57699   9.743  10.633   6.608  0.2234 -0.2198  0.1611
  419MOL0     C57700   9.819  10.646   6.742  0.1240 -0.4053  0.3794
  419MOL0     N57701   9.821  10.515   6.815 -0.3368  0.6277 -0.3468
  419MOL0     C57702   9.801  10.493   6.949  1.5252  0.4562 -0.4138
  419MOL0     C57703   9.798  10.361   6.980 -0.0452 -0.0212  1.5580
  419MOL0     C57704   9.805  10.296   7.117 -0.1080  0.7444 -1.2115
  419MOL0     C57705   9.670  10.300   7.191  0.9653  0.4324 -0.3716
  419MOL0     C57706   9.564  10.227   7.109  0.2714  0.4226 -0.2838
  419MOL0     C57707   9.413  10.221   7.156 -0.1492  0.0312 -0.0231
  419MOL0     O57708   9.346  10.327   7.093 -0.2123  0.5822  0.1606
  419MOL0     C57709   9.207  10.339   7.114 -0.4826  0.7732  0.2237
  419MOL0     C57710   9.132  10.252   7.192 -0.6751  0.6189  1.3412
  419MOL0     C57711   8.995  10.264   7.206 -0.5068  0.0995 -0.0196
  419MOL0     C57712   8.932  10.156   7.291  0.3752 -0.1746 -0.0237
  419MOL0     C57713   8.919  10.367   7.147 -0.2298  0.2042 -0.7488
  419MOL0     C57714   8.772  10.372   7.160 -0.5460 -0.0294 -0.1695
  419MOL0     O57715   8.715  10.494   7.167  0.5515 -0.0391 -0.1690
  419MOL0     C57716   8.579  10.499   7.205  0.3007 -0.0372  0.3080
  419MOL0     C57717   8.528  10.623   7.180  0.3559 -0.1616  0.2712
  419MOL0     C57718   8.396  10.649   7.217  0.5461  0.9224 -0.1075
  419MOL0     C57719   8.323  10.554   7.298 -0.0107 -0.1847  0.0262
  419MOL0     O57720   8.205  10.590   7.349 -0.2006  0.2293 -0.4564
  419MOL0     C57721   8.206  10.700   7.446  0.7297  0.4853 -0.0187
  419MOL0     C57722   8.077  10.708   7.524  0.4633  0.1380  0.0447
  419MOL0     C57723   8.063  10.598   7.629  0.4776  0.6247 -0.3704
  419MOL0     C57724   8.160  10.608   7.748 -0.3273  0.3581  0.4591
  419MOL0     C57725   8.139  10.492   7.846  0.1014 -0.4980 -0.2494
  419MOL0     C57726   7.999  10.484   7.911 -0.5553  0.4384  0.1733
  419MOL0     C57727   7.987  10.364   8.000 -1.1346 -0.0783 -0.6964
  419MOL0     C57728   7.865  10.361   8.104 -0.3206  0.0111  0.4574
  419MOL0    Cl57729   7.858  10.512   8.203  0.2141  0.3213  0.3174
  419MOL0     C57730   8.380  10.431   7.331 -0.0292 -0.8606 -0.5218
  419MOL0     C57731   8.508  10.407   7.283 -0.4951 -0.0060 -0.6052
  419MOL0     O57732   8.709  10.269   7.140  0.5066 -0.3474 -0.3312
  419MOL0     C57733   8.990  10.461   7.078 -0.1315  0.8366  0.9260
  419MOL0     C57734   9.130  10.443   7.059  0.3149 -0.4379  0.4078
  419MOL0     N57735   9.817  10.299   6.856  0.2080 -0.0677 -0.4481
  419MOL0     N57736   9.833  10.389   6.763 -0.0061 -0.3240 -0.5533
  419MOL0     C57737   9.273  11.260   6.675  0.3800 -0.7818 -0.8427
  419MOL0     C57738   9.158  11.259   6.769 -0.4484 -0.8156  0.3052
  419MOL0     C57739   8.723  11.249   6.921  0.2684  0.1999 -0.3095
  419MOL0     C57740   8.695  11.277   7.055 -0.0431 -0.4547 -0.7629
  419MOL0     C57741   8.572  11.248   7.117  0.3118 -0.1334 -0.1006
  419MOL0     C57742   8.484  11.159   7.053  0.9138 -0.5139  1.2109
  419MOL0     O57743   8.369  11.114   7.110  0.1259  0.3587  0.0751
  419MOL0     C57744   8.338  11.151   7.242 -0.8919  0.8796 -0.0434
  419MOL0     C57745   8.237  11.053   7.284 -0.4080  0.9432 -0.6073
  419MOL0     C57746   8.189  11.058   7.438  0.5880 -0.8135  0.0451
  419MOL0     C57747   8.302  11.022   7.528  0.9759  0.3201 -0.0165
  419MOL0     C57748   8.261  11.026   7.671 -0.5623 -0.0922  0.6138
  419MOL0     C57749   8.243  11.009   7.779  0.1115 -0.1649 -0.8055
  419MOL0     C57750   8.511  11.121   6.919  0.5484 -0.6825 -0.2668
  419MOL0     C57751   8.635  11.160   6.861  0.2045 -0.3932 -0.2236
  419MOL0     C57752   8.659  11.107   6.725  0.3818  0.3835 -0.5384
  419MOL0     H57753   8.906  11.197   6.544  0.4692 -2.6842 -1.4721
  419MOL0     H57754   9.094  11.216   6.385  0.0900 -1.8782  0.8047
  419MOL0     H57755   9.332  11.231   6.258 -0.1895  1.9145  1.4346
  419MOL0     H57756   9.275  11.075   6.319  0.5306 -0.9844  0.4872
  419MOL0     H57757   9.487  11.042   6.204  0.1609  0.3710 -0.0817
  419MOL0     H57758   9.566  11.156   6.302 -2.3636  2.5457 -3.6788
  419MOL0     H57759   9.537  11.024   6.498  1.6006  1.4531 -1.0787
  419MOL0     H57760   9.444  10.899   6.416  0.6801 -0.3462  1.1415
  419MOL0     H57761   9.638  10.894   6.229 -0.2267  0.8410 -0.1029
  419MOL0     H57762   9.739  10.971   6.343  0.1375  1.3895 -5.0434
  419MOL0     H57763   9.773  10.724   6.357 -1.0501 -2.1930 -1.4172
  419MOL0     H57764   9.605  10.694   6.387  1.4776 -2.6961  1.4637
  419MOL0     H57765   9.799  10.843   6.573  1.8404 -2.3844  1.7202
  419MOL0     H57766   9.626  10.806   6.614  0.6436  0.1669 -0.6153
  419MOL0     H57767   9.795  10.569   6.535 -1.0750 -1.9657  0.6850
  419MOL0     H57768   9.645  10.585   6.618  0.2845 -0.8396 -1.6686
  419MOL0     H57769   9.921  10.668   6.708  0.4641  1.6424  2.4912
  419MOL0     H57770   9.792  10.730   6.807 -0.1919 -0.1344 -0.0944
  419MOL0     H57771   9.781  10.568   7.025  1.9098  2.8748 -2.5742
  419MOL0     H57772   9.880  10.342   7.182  3.6003 -4.3447 -1.3628
  419MOL0     H57773   9.845  10.197   7.096 -0.0368  0.4080  0.3491
  419MOL0     H57774   9.680  10.250   7.288 -0.2656  0.0973 -0.4008
  419MOL0     H57775   9.630  10.400   7.212 -1.3372 -0.4815 -0.1908
  419MOL0     H57776   9.552  10.267   7.007  0.5087  2.5561  0.4870
  419MOL0     H57777   9.603  10.126   7.094  0.5217  0.4176  0.4036
  419MOL0     H57778   9.374  10.132   7.105 -0.2125  0.7550 -1.2742
  419MOL0     H57779   9.412  10.217   7.266 -2.0303 -1.9804 -0.0339
  419MOL0     H57780   9.178  10.167   7.242  0.7050 -1.8492 -3.4581
  419MOL0     H57781   8.841  10.193   7.339  1.7015  1.3347  1.4683
  419MOL0     H57782   8.999  10.142   7.376  1.0768  1.2748 -0.2976
  419MOL0     H57783   8.920  10.060   7.240  0.0829 -0.4019  0.4743
  419MOL0     H57784   8.588  10.693   7.122  0.9601 -2.5657 -2.2049
  419MOL0     H57785   8.338  10.736   7.190 -2.4513 -0.7664  0.4646
  419MOL0     H57786   8.289  10.692   7.517 -0.5492 -1.5160  1.3491
  419MOL0     H57787   8.208  10.784   7.376  0.3128  0.2122 -0.3655
  419MOL0     H57788   8.060  10.807   7.566 -1.2158  0.4063 -1.1735
  419MOL0     H57789   7.996  10.696   7.452 -0.8578  2.8963  0.9663
  419MOL0     H57790   8.081  10.507   7.571 -0.6050  1.2463 -1.7238
  419MOL0     H57791   7.958  10.593   7.662  0.7517 -0.7980  0.3613
  419MOL0     H57792   8.141  10.707   7.790 -2.1823 -0.4356  1.6568
  419MOL0     H57793   8.264  10.613   7.717 -1.0918  2.1174 -2.1202
  419MOL0     H57794   8.162  10.394   7.804 -2.0490 -1.4133  0.5808
  419MOL0     H57795   8.212  10.506   7.927 -0.4276 -1.5430  0.4241
  419MOL0     H57796   7.919  10.483   7.836  1.6831 -1.2229 -2.3888
  419MOL0     H57797   7.983  10.581   7.959 -1.9201  1.6309 -2.4375
  419MOL0     H57798   8.077  10.364   8.062 -1.3450  0.6897 -0.3755
  419MOL0     H57799   7.988  10.276   7.935 -1.5100 -0.4789 -0.1746
  419MOL0     H57800   7.877  10.275   8.171  0.8209  0.3290  0.6801
  419MOL0     H57801   7.771  10.348   8.050 -0.5713 -1.0715  1.1222
  419MOL0     H57802   8.314  10.365   7.387  0.3996 -0.9633 -0.1263
  419MOL0     H57803   8.546  10.311   7.313  0.3638  1.2196  2.6817
  419MOL0     H57804   8.946  10.547   7.029  0.3514  0.4873 -0.1536
  419MOL0     H57805   9.178  10.513   6.992  0.9131 -1.4512 -0.2447
  419MOL0     H57806   9.373  11.271   6.717  0.0860  1.7583 -0.6844
  419MOL0     H57807   9.186  11.263   6.874 -0.6904 -3.5807  0.5615
  419MOL0     H57808   8.762  11.338   7.114 -0.4718  1.1108 -1.8130
  419MOL0     H57809   8.555  11.282   7.218 -2.0166  1.3073 -0.8876
  419MOL0     H57810   8.426  11.135   7.306 -2.0977 -1.0807  1.2217
  419MOL0     H57811   8.309  11.254   7.262 -0.6577  0.4791  2.8362
  419MOL0     H57812   8.273  10.951   7.272 -1.9967  0.4948 -2.0962
  419MOL0     H57813   8.148  11.051   7.220 -0.9879 -1.6549  0.1695
  419MOL0     H57814   8.159  11.160   7.465 -1.2506 -0.3556 -3.1342
  419MOL0     H57815   8.108  10.985   7.446  0.4847 -0.7551 -0.4330
  419MOL0     H57816   8.388  11.087   7.514  0.9889  0.0279 -1.4485
  419MOL0     H57817   8.330  10.919   7.503  0.1859  0.0872  0.0273
  419MOL0     H57818   8.222  10.987   7.882 -2.3685 -0.6001 -1.3314
  419MOL0     H57819   8.434  11.055   6.878 -0.7610  1.6224 -1.7632
  419MOL0     H57820   8.573  11.044   6.702 -0.9658 -0.3619  5.0888
  419MOL0     H57821   8.676  11.186   6.651 -0.0957  0.5054 -0.5202
  419MOL0     H57822   8.756  11.057   6.724  0.0975 -0.3207 -3.5537
  420MOL0     O57823   5.089   0.487   2.098  0.4824 -0.3978 -0.3555
  420MOL0     C57824   5.109   0.537   1.985 -0.0366 -0.6937 -0.9813
  420MOL0     O57825   5.214   0.511   1.898  0.2498  0.0010  0.1260
  420MOL0     C57826   5.292   0.401   1.919  0.6712 -0.8900  0.2112
  420MOL0     C57827   5.235   0.277   1.969 -0.2413 -0.1934  0.0620
  420MOL0     C57828   5.326   0.178   2.010  0.5196 -0.3433  0.6927
  420MOL0     C57829   5.456   0.189   1.971  0.0510 -0.0853 -0.4221
  420MOL0     O57830   5.542   0.084   2.008 -0.0782 -0.0811 -0.3384
  420MOL0     C57831   5.653   0.077   1.917 -0.8058  0.8250  0.0111
  420MOL0     C57832   5.735  -0.055   1.944  0.7015 -0.5629  0.3622
  420MOL0     C57833   5.693  -0.174   1.861 -0.2433 -0.5403  0.2224
  420MOL0     C57834   5.810  -0.270   1.843  0.8863  0.1025 -0.1556
  420MOL0     C57835   5.777  -0.384   1.744  0.1058  0.7943  0.6869
  420MOL0     C57836   5.748  -0.340   1.600  0.2860  0.5656 -0.3777
  420MOL0     C57837   5.824  -0.411   1.481  0.0695  1.0698 -0.0036
  420MOL0     C57838   5.771  -0.372   1.338  0.3022  1.7875 -0.3294
  420MOL0     N57839   5.713  -0.243   1.321 -0.2076 -0.0821  0.1104
  420MOL0     C57840   5.582  -0.202   1.344  0.1961 -0.1239  0.4411
  420MOL0     C57841   5.581  -0.073   1.315  0.7202 -0.1133  0.3692
  420MOL0     C57842   5.456   0.017   1.317  0.0319  0.7559 -0.3815
  420MOL0     C57843   5.345  -0.059   1.254  0.6829  0.9757  0.0157
  420MOL0     C57844   5.227   0.032   1.233  0.0684  0.1769  0.6911
  420MOL0     C57845   5.093  -0.049   1.204  0.5399  0.4302 -1.1651
  420MOL0     O57846   5.090  -0.099   1.067 -0.5126  0.5182 -0.5953
  420MOL0     C57847   4.970  -0.160   1.037 -0.5401  0.1060 -0.6176
  420MOL0     C57848   4.984  -0.297   1.017 -0.4229  0.2011 -0.1637
  420MOL0     C57849   4.868  -0.373   0.981 -0.7832 -1.2865  0.2371
  420MOL0     C57850   4.875  -0.523   0.963  0.1812 -0.5189 -0.1468
  420MOL0     C57851   4.734  -0.304   0.970 -0.9031 -0.3677 -0.0412
  420MOL0     C57852   4.605  -0.369   0.932  0.4615 -0.7864  0.1659
  420MOL0     O57853   4.515  -0.281   0.884  0.5810 -0.4541 -0.1448
  420MOL0     C57854   4.382  -0.316   0.854 -0.4974 -0.8887  0.4144
  420MOL0     C57855   4.336  -0.228   0.760  0.6691 -0.2447 -0.1642
  420MOL0     C57856   4.203  -0.234   0.698 -0.6201 -0.1293 -0.1237
  420MOL0     C57857   4.111  -0.330   0.744 -0.6241  0.5520 -0.0824
  420MOL0     O57858   3.981  -0.354   0.693 -0.0830  0.3665 -0.1752
  420MOL0     C57859   3.957  -0.357   0.549 -0.0403 -0.2033  0.3246
  420MOL0     C57860   3.808  -0.361   0.524  1.5703  0.2116 -0.1762
  420MOL0     C57861   3.778  -0.372   0.373  0.2522  0.2821  0.0295
  420MOL0     C57862   3.635  -0.432   0.341  0.5581 -0.0996  0.5625
  420MOL0     C57863   3.600  -0.447   0.189  0.1475  0.6243 -0.4133
  420MOL0     C57864   3.464  -0.514   0.158 -0.6082  0.0151 -0.1257
  420MOL0     C57865   3.461  -0.559   0.013  0.1456 -0.0149  0.4566
  420MOL0     C57866   3.335  -0.624  -0.025  0.3060  0.9441 -0.0690
  420MOL0    Cl57867   3.312  -0.773   0.086 -0.3620 -0.0584  0.0018
  420MOL0     C57868   4.156  -0.420   0.834  0.3980 -0.3715  0.8450
  420MOL0     C57869   4.287  -0.416   0.890  0.6007  1.0920 -0.2722
  420MOL0     O57870   4.584  -0.490   0.959 -0.3884  0.3340  0.4072
  420MOL0     C57871   4.733  -0.163   0.991 -1.0494  0.1626 -0.7832
  420MOL0     C57872   4.848  -0.090   1.024  0.4650  0.3408 -1.0789
  420MOL0     N57873   5.704  -0.027   1.272 -0.7966  0.3480 -0.3282
  420MOL0     N57874   5.774  -0.132   1.278 -0.5156  0.0609  0.8204
  420MOL0     C57875   5.505   0.301   1.898 -0.4124  0.8479  0.1050
  420MOL0     C57876   5.421   0.410   1.877 -0.1834 -0.5626  0.5435
  420MOL0     C57877   5.007   0.638   1.942  0.2824  0.2319  0.9018
  420MOL0     C57878   4.875   0.599   1.959  0.4692  0.3946 -0.0506
  420MOL0     C57879   4.781   0.693   1.920  0.4763 -0.9272 -0.8518
  420MOL0     C57880   4.814   0.829   1.867  0.1922 -0.5931 -0.7115
  420MOL0     O57881   4.714   0.922   1.831 -0.2745 -0.5671  0.0784
  420MOL0     C57882   4.728   1.027   1.735  0.2683 -0.2888 -0.5274
  420MOL0     C57883   4.660   0.984   1.602 -0.9756 -0.4489  0.1068
  420MOL0     C57884   4.715   0.845   1.554  0.1305  0.2072 -0.9947
  420MOL0     C57885   4.619   0.812   1.446  0.1711  0.1447  0.2086
  420MOL0     C57886   4.632   0.884   1.313  0.6768  0.3042 -1.2542
  420MOL0     C57887   4.647   0.939   1.210 -0.7359 -0.1154 -0.6511
  420MOL0     C57888   4.940   0.865   1.874 -0.4128 -0.7316  0.7119
  420MOL0     C57889   5.042   0.772   1.904  0.1153 -0.3307 -0.2805
  420MOL0     C57890   5.191   0.828   1.911  0.2088  0.4016  0.1372
  420MOL0     H57891   5.130   0.269   1.996 -0.0566 -1.3487  0.5269
  420MOL0     H57892   5.292   0.097   2.073  1.9896 -0.3039  1.5840
  420MOL0     H57893   5.719   0.163   1.933 -1.5910  1.2392  1.1853
  420MOL0     H57894   5.605   0.073   1.819 -2.0610 -1.6239  0.6455
  420MOL0     H57895   5.836  -0.037   1.908  0.0421 -1.7604 -2.3520
  420MOL0     H57896   5.728  -0.081   2.050 -1.3456 -4.0458 -0.4797
  420MOL0     H57897   5.605  -0.217   1.909 -1.0947 -1.2885 -1.9328
  420MOL0     H57898   5.656  -0.143   1.764  3.1503 -1.9764 -1.7028
  420MOL0     H57899   5.889  -0.205   1.805 -1.6230  3.2148 -0.4362
  420MOL0     H57900   5.841  -0.299   1.943  2.3602 -0.7069 -0.8079
  420MOL0     H57901   5.699  -0.454   1.778 -0.0416 -1.9035 -4.1606
  420MOL0     H57902   5.862  -0.453   1.740  0.3497  1.0567  1.3212
  420MOL0     H57903   5.645  -0.372   1.580  0.5867 -0.0820 -0.9128
  420MOL0     H57904   5.748  -0.231   1.594 -1.8741  0.6528  0.0896
  420MOL0     H57905   5.802  -0.518   1.491 -1.8287  1.2830 -1.5108
  420MOL0     H57906   5.933  -0.401   1.491  0.7785 -4.7556  1.8741
  420MOL0     H57907   5.846  -0.388   1.260 -1.4970 -2.3570 -1.4389
  420MOL0     H57908   5.688  -0.440   1.318  1.3870  0.1133  0.5885
  420MOL0     H57909   5.506  -0.261   1.395  0.0018  0.5878  0.9938
  420MOL0     H57910   5.468   0.110   1.260 -0.8615  1.2884  0.2622
  420MOL0     H57911   5.427   0.050   1.418  0.3084  1.2775 -0.4668
  420MOL0     H57912   5.376  -0.113   1.164 -0.6805 -1.3137  0.8349
  420MOL0     H57913   5.303  -0.129   1.326  0.2897  1.2021  0.0128
  420MOL0     H57914   5.216   0.086   1.327 -1.6499  2.2215 -0.5696
  420MOL0     H57915   5.242   0.108   1.155 -0.0528  0.9438  1.3968
  420MOL0     H57916   5.073  -0.132   1.273 -2.1817  1.4831 -0.5567
  420MOL0     H57917   5.009   0.021   1.215  1.3793  1.2357  0.5264
  420MOL0     H57918   5.088  -0.328   1.022  0.3112  2.3931 -0.7199
  420MOL0     H57919   4.976  -0.563   0.950  1.0662  1.6522 -0.3245
  420MOL0     H57920   4.814  -0.545   0.875 -0.9690 -1.1156  0.7784
  420MOL0     H57921   4.833  -0.566   1.055 -2.0645  0.8832 -0.4344
  420MOL0     H57922   4.398  -0.140   0.740 -1.0751  0.9152 -0.6819
  420MOL0     H57923   4.176  -0.159   0.624 -0.6059  0.3437  0.3460
  420MOL0     H57924   4.011  -0.268   0.515 -0.5301  1.6156  3.7888
  420MOL0     H57925   4.014  -0.442   0.510  0.3956 -0.3057  1.1546
  420MOL0     H57926   3.763  -0.450   0.570 -1.7955 -1.5236 -5.8782
  420MOL0     H57927   3.768  -0.268   0.566  1.8930  0.9898 -1.5274
  420MOL0     H57928   3.855  -0.435   0.328 -0.5139 -2.2864  2.1050
  420MOL0     H57929   3.776  -0.272   0.327  0.7792 -0.5627 -1.9092
  420MOL0     H57930   3.555  -0.379   0.394  1.5522 -0.3227  2.3567
  420MOL0     H57931   3.629  -0.529   0.390 -1.5063 -0.2952  0.0410
  420MOL0     H57932   3.604  -0.357   0.128  1.1988  0.3398 -0.7825
  420MOL0     H57933   3.671  -0.515   0.141  0.6752  1.5631 -0.9696
  420MOL0     H57934   3.397  -0.429   0.179  1.0238  1.4541 -0.4749
  420MOL0     H57935   3.448  -0.585   0.239  3.3267  1.4547  2.1956
  420MOL0     H57936   3.541  -0.633  -0.006 -0.5082  0.0380 -3.3248
  420MOL0     H57937   3.467  -0.478  -0.060 -1.8357 -1.9646 -2.0568
  420MOL0     H57938   3.332  -0.658  -0.129 -3.1873 -0.1245  0.2492
  420MOL0     H57939   3.253  -0.555  -0.001  0.5344  1.0095  0.5383
  420MOL0     H57940   4.090  -0.499   0.868  1.6240 -2.0652 -0.5726
  420MOL0     H57941   4.325  -0.483   0.965  0.8707  1.4214 -0.1097
  420MOL0     H57942   4.647  -0.096   0.991  0.2846  1.9490 -0.9434
  420MOL0     H57943   4.844   0.016   1.048  0.3585 -0.3156  2.3622
  420MOL0     H57944   5.601   0.320   1.852 -1.9052  3.4039 -2.2912
  420MOL0     H57945   5.447   0.494   1.814 -1.4949  0.3037  1.1000
  420MOL0     H57946   4.849   0.497   1.986  0.4545  0.3060 -0.3953
  420MOL0     H57947   4.677   0.663   1.919  1.2903 -4.0756 -0.1672
  420MOL0     H57948   4.667   1.110   1.772  0.7256  0.8352 -2.1525
  420MOL0     H57949   4.829   1.058   1.704 -0.1581 -0.1051 -1.8004
  420MOL0     H57950   4.668   1.068   1.532  1.3852  0.6285  1.5705
  420MOL0     H57951   4.552   0.970   1.620 -0.6045 -2.1420  1.2963
  420MOL0     H57952   4.818   0.854   1.520  0.6971 -1.6770  0.0965
  420MOL0     H57953   4.708   0.767   1.630  1.8591  0.1041 -0.9028
  420MOL0     H57954   4.513   0.803   1.470 -0.2326 -1.3282 -1.8452
  420MOL0     H57955   4.654   0.710   1.428  0.4903  0.0533  1.2648
  420MOL0     H57956   4.657   0.981   1.112 -1.5164  1.5450 -0.0503
  420MOL0     H57957   4.972   0.959   1.831 -0.6934 -1.4015 -1.0663
  420MOL0     H57958   5.205   0.931   1.878  2.0471  0.7078  1.7348
  420MOL0     H57959   5.228   0.816   2.013 -0.8365 -1.3101  0.3564
  420MOL0     H57960   5.253   0.770   1.842 -1.8522  0.7044 -2.1252
  421MOL0     O57961  11.154   2.370   7.158  0.8885 -0.1216 -0.2496
  421MOL0     C57962  11.045   2.391   7.216  0.6473 -0.1978  0.1123
  421MOL0     O57963  10.916   2.391   7.157  0.3212  0.5128 -0.8462
  421MOL0     C57964  10.911   2.356   7.027  0.0968 -0.2878  0.5013
  421MOL0     C57965  10.861   2.454   6.940 -0.7136 -0.6778  0.5691
  421MOL0     C57966  10.846   2.427   6.800  0.3469 -0.2861  0.6780
  421MOL0     C57967  10.877   2.300   6.754  0.3046 -0.0162 -0.3632
  421MOL0     O57968  10.867   2.260   6.628 -0.3822  0.9656 -1.0791
  421MOL0     C57969  10.803   2.343   6.532 -0.6119  0.2245  0.6444
  421MOL0     C57970  10.759   2.285   6.392 -0.3660  0.3111  0.3460
  421MOL0     C57971  10.875   2.265   6.293  0.0029 -0.6242 -0.7622
  421MOL0     C57972  10.829   2.251   6.153 -0.6954  0.2878 -0.6750
  421MOL0     C57973  10.758   2.113   6.129  0.2329 -0.1232  0.5069
  421MOL0     C57974  10.732   2.097   5.977  0.4275 -0.9775  0.4347
  421MOL0     C57975  10.641   1.981   5.942 -0.0422 -0.4289 -0.1197
  421MOL0     C57976  10.615   1.970   5.796 -0.1531 -0.7652  0.3130
  421MOL0     N57977  10.737   1.949   5.715  0.2452 -0.1644  0.6351
  421MOL0     C57978  10.804   1.829   5.722 -0.4695 -0.3479  0.5471
  421MOL0     C57979  10.920   1.846   5.647  0.4712 -0.2009 -0.0629
  421MOL0     C57980  11.022   1.741   5.617 -0.7801 -0.0189 -0.6286
  421MOL0     C57981  11.152   1.803   5.568  0.5464 -0.7206  0.6014
  421MOL0     C57982  11.263   1.697   5.588 -0.1585  0.9121 -0.0490
  421MOL0     C57983  11.389   1.715   5.502 -0.6500 -0.1988 -0.4129
  421MOL0     O57984  11.500   1.663   5.575  0.1079 -0.1128 -0.3746
  421MOL0     C57985  11.554   1.551   5.519 -0.4292 -0.0749  1.0828
  421MOL0     C57986  11.593   1.558   5.385 -0.6573 -0.4005 -0.4058
  421MOL0     C57987  11.658   1.446   5.326  0.5263 -0.5831  0.0172
  421MOL0     C57988  11.704   1.461   5.180  0.6045 -0.3011 -0.2622
  421MOL0     C57989  11.677   1.331   5.400 -0.7811  0.0280 -0.1957
  421MOL0     C57990  11.760   1.212   5.370  0.2370 -0.1032 -0.0757
  421MOL0     O57991  11.837   1.152   5.470 -0.1200  0.9751  0.2572
  421MOL0     C57992  11.906   1.031   5.436  1.1856 -0.0404 -0.2655
  421MOL0     C57993  11.866   0.904   5.473  0.9254 -0.1822 -0.2526
  421MOL0     C57994  11.942   0.792   5.449 -0.8607  0.7920 -0.0167
  421MOL0     C57995  12.073   0.802   5.398 -1.0143 -0.1653  0.0804
  421MOL0     O57996  12.152   0.693   5.368  0.4918  0.1012 -0.6642
  421MOL0     C57997  12.249   0.693   5.266  0.6829 -0.3871 -0.4818
  421MOL0     C57998  12.276   0.552   5.209 -0.0073 -0.2087  0.6756
  421MOL0     C57999  12.157   0.473   5.142  1.1377  0.0262  0.0980
  421MOL0     C58000  12.207   0.333   5.103  0.1458 -0.0147 -0.5073
  421MOL0     C58001  12.090   0.251   5.025 -0.5196  0.1003 -0.0521
  421MOL0     C58002  12.136   0.104   4.994 -0.0318  0.9254 -0.4071
  421MOL0     C58003  12.016   0.021   4.932 -0.6284 -0.9765  0.2235
  421MOL0     C58004  11.985   0.055   4.785  0.2140 -0.2926  0.0523
  421MOL0    Cl58005  11.868  -0.067   4.719  0.1054 -0.3284  0.5176
  421MOL0     C58006  12.107   0.928   5.352 -0.9679 -0.2233  1.0633
  421MOL0     C58007  12.033   1.040   5.382  0.0898 -0.0731  0.4227
  421MOL0     O58008  11.749   1.171   5.258 -0.1990 -0.0807  0.1087
  421MOL0     C58009  11.644   1.332   5.540  0.0093  0.5891 -0.5373
  421MOL0     C58010  11.583   1.448   5.598 -0.5934  0.0921  0.8631
  421MOL0     N58011  10.917   1.984   5.608  0.1249 -0.7497 -0.1557
  421MOL0     N58012  10.804   2.044   5.643 -0.4931  0.3519 -0.5109
  421MOL0     C58013  10.928   2.202   6.841 -0.1172 -0.2466  0.0485
  421MOL0     C58014  10.946   2.234   6.976 -0.2445  0.3811 -0.0590
  421MOL0     C58015  11.033   2.437   7.359 -0.2548  1.9259 -0.2032
  421MOL0     C58016  10.922   2.388   7.427  0.2071  0.5260  0.3968
  421MOL0     C58017  10.892   2.428   7.558 -0.7305  0.0314  0.1243
  421MOL0     C58018  10.982   2.518   7.618 -0.4672  0.4788 -0.1191
  421MOL0     O58019  10.970   2.571   7.741  0.5191 -1.0941  0.9590
  421MOL0     C58020  10.852   2.578   7.824  0.7023  0.3904  1.4999
  421MOL0     C58021  10.840   2.466   7.922 -0.4947 -0.5751 -0.3395
  421MOL0     C58022  10.975   2.462   8.012 -0.4268 -0.1425  0.7180
  421MOL0     C58023  11.051   2.333   7.972  0.4657 -0.7472 -0.8897
  421MOL0     C58024  11.192   2.344   8.016 -0.3329  0.5607 -0.4796
  421MOL0     C58025  11.307   2.347   8.065  0.2439  0.8992 -0.3428
  421MOL0     C58026  11.098   2.553   7.553 -0.0678 -0.2644 -0.0352
  421MOL0     C58027  11.124   2.523   7.421  0.8449  0.4719  0.2617
  421MOL0     C58028  11.252   2.572   7.354 -0.3484  0.5554  1.0043
  421MOL0     H58029  10.828   2.555   6.962 -0.9858  0.0492 -2.5896
  421MOL0     H58030  10.824   2.503   6.726  0.5906  0.0575  0.9593
  421MOL0     H58031  10.852   2.440   6.519 -0.5662  0.2330  0.8590
  421MOL0     H58032  10.709   2.366   6.583 -0.4102  1.2179  0.5815
  421MOL0     H58033  10.720   2.189   6.427  0.9830  0.4951  2.5543
  421MOL0     H58034  10.687   2.353   6.345  0.0249 -0.2197 -1.0892
  421MOL0     H58035  10.924   2.363   6.292  1.3095 -1.2611 -1.3707
  421MOL0     H58036  10.941   2.186   6.332  0.0932 -0.4569 -0.5728
  421MOL0     H58037  10.778   2.344   6.126 -0.4027  0.1428 -1.7840
  421MOL0     H58038  10.917   2.261   6.089 -0.6046  4.6203 -0.1581
  421MOL0     H58039  10.664   2.123   6.183 -1.5961 -0.2340 -2.4737
  421MOL0     H58040  10.829   2.036   6.163  0.9574 -0.5801 -1.8572
  421MOL0     H58041  10.699   2.195   5.944 -0.9460  0.0628  4.3177
  421MOL0     H58042  10.834   2.080   5.940  0.2555 -2.0769  0.4111
  421MOL0     H58043  10.548   2.004   5.995  0.4510  0.2005  0.4971
  421MOL0     H58044  10.676   1.893   5.997 -1.3703  0.1826  1.8244
  421MOL0     H58045  10.553   1.881   5.783  1.2209 -2.2991  3.3682
  421MOL0     H58046  10.567   2.064   5.767  0.5920  0.1475  1.9134
  421MOL0     H58047  10.776   1.743   5.782  3.8111  0.9406  5.0697
  421MOL0     H58048  10.981   1.667   5.548 -0.6246 -1.0321  0.3467
  421MOL0     H58049  11.042   1.690   5.712  0.7317 -0.3435 -1.0870
  421MOL0     H58050  11.134   1.835   5.465  0.8707 -0.8441  0.5038
  421MOL0     H58051  11.168   1.891   5.630 -3.1902  0.0694  0.7152
  421MOL0     H58052  11.308   1.717   5.685  3.5090 -0.8111 -1.1870
  421MOL0     H58053  11.218   1.597   5.584  1.3586  0.2323 -2.0986
  421MOL0     H58054  11.365   1.656   5.413 -0.9582 -0.8295  0.0826
  421MOL0     H58055  11.414   1.817   5.472 -2.3708  0.4949  0.4032
  421MOL0     H58056  11.587   1.652   5.330 -0.3746 -1.4436 -2.3038
  421MOL0     H58057  11.689   1.564   5.145  2.4398  0.3065  0.5879
  421MOL0     H58058  11.643   1.395   5.118  1.1360  0.0348 -1.1571
  421MOL0     H58059  11.806   1.428   5.162  0.2335 -1.6399 -0.0273
  421MOL0     H58060  11.767   0.881   5.510  1.2964 -1.1225  0.1677
  421MOL0     H58061  11.908   0.690   5.466  2.0230 -0.0696  1.2687
  421MOL0     H58062  12.210   0.755   5.185  0.9299 -1.0522 -1.1279
  421MOL0     H58063  12.342   0.737   5.302  1.9267 -3.5999  0.6605
  421MOL0     H58064  12.353   0.569   5.133  1.7533  2.4607  2.8370
  421MOL0     H58065  12.313   0.504   5.300 -0.1848 -3.2608 -0.7644
  421MOL0     H58066  12.118   0.527   5.056 -1.8693 -0.7051  0.8894
  421MOL0     H58067  12.075   0.466   5.214  0.5719 -0.3085 -0.5710
  421MOL0     H58068  12.244   0.282   5.192  1.2628  0.4205 -0.7124
  421MOL0     H58069  12.290   0.351   5.035  1.6309 -2.1245  0.6412
  421MOL0     H58070  12.009   0.254   5.099  0.2752  3.1949  0.8108
  421MOL0     H58071  12.059   0.308   4.938  0.6664  3.8870  1.8029
  421MOL0     H58072  12.177   0.046   5.077 -1.4170 -0.6835 -0.7682
  421MOL0     H58073  12.209   0.114   4.913  1.4417 -0.6147  0.6783
  421MOL0     H58074  11.931   0.020   5.000  0.2139  0.3299  1.3387
  421MOL0     H58075  12.049  -0.083   4.923  0.0953 -0.7598  0.3111
  421MOL0     H58076  12.074   0.038   4.724 -0.4263 -2.0554 -0.4460
  421MOL0     H58077  11.948   0.158   4.775  0.8550  0.1110  1.5911
  421MOL0     H58078  12.197   0.953   5.295 -0.1622 -0.7714  2.0695
  421MOL0     H58079  12.066   1.141   5.361  1.0742 -0.0097  2.1033
  421MOL0     H58080  11.659   1.249   5.609 -1.5003 -0.6032 -1.5789
  421MOL0     H58081  11.560   1.452   5.704 -0.4155 -2.1690  1.0410
  421MOL0     H58082  10.948   2.101   6.808 -3.5666 -2.2924  3.4507
  421MOL0     H58083  10.983   2.154   7.038 -1.1198 -0.0138 -0.0248
  421MOL0     H58084  10.838   2.327   7.394 -0.7838  1.3396  1.3506
  421MOL0     H58085  10.800   2.399   7.609 -2.0598 -1.9309 -3.0824
  421MOL0     H58086  10.863   2.674   7.876 -0.9353  1.1293  0.5878
  421MOL0     H58087  10.764   2.568   7.760  3.0830 -2.0147 -1.7625
  421MOL0     H58088  10.825   2.367   7.879  1.9572 -1.7956  1.3900
  421MOL0     H58089  10.755   2.483   7.988  1.0953  0.9098  1.4727
  421MOL0     H58090  11.036   2.547   7.981  0.2442 -0.6595  0.6068
  421MOL0     H58091  10.950   2.470   8.118 -0.7494  1.1217  0.5596
  421MOL0     H58092  11.052   2.319   7.864  1.2550 -1.3821 -0.8104
  421MOL0     H58093  11.000   2.243   8.008  0.2105 -0.0774  0.4727
  421MOL0     H58094  11.407   2.345   8.105  1.3487  0.2254 -2.9135
  421MOL0     H58095  11.172   2.617   7.600  0.2280 -0.5063 -0.1710
  421MOL0     H58096  11.244   2.586   7.246  0.5944 -3.2875  0.2917
  421MOL0     H58097  11.281   2.674   7.381  1.0572  0.1345  1.1719
  421MOL0     H58098  11.332   2.497   7.364 -2.3825 -1.5612  2.5301
  422MOL0     O58099   3.773   2.248   6.044 -0.6481  0.1884  0.5868
  422MOL0     C58100   3.704   2.152   6.045 -0.2962  0.4971 -0.7778
  422MOL0     O58101   3.606   2.130   5.951 -1.0320  0.3968 -0.5086
  422MOL0     C58102   3.594   2.221   5.852 -0.5985 -0.2834  0.0203
  422MOL0     C58103   3.655   2.182   5.737  0.0367 -1.7444 -0.5798
  422MOL0     C58104   3.629   2.263   5.622  0.5979  0.4623  0.0830
  422MOL0     C58105   3.532   2.363   5.621 -0.1948 -0.0395 -0.3912
  422MOL0     O58106   3.508   2.438   5.507  0.6041  0.0876 -0.2840
  422MOL0     C58107   3.427   2.557   5.520 -0.3525  0.2119 -0.2897
  422MOL0     C58108   3.445   2.626   5.384 -0.6967 -0.3189 -1.1680
  422MOL0     C58109   3.592   2.676   5.393 -0.7623 -0.6848  0.2103
  422MOL0     C58110   3.623   2.752   5.263 -0.6513  0.6756 -0.0088
  422MOL0     C58111   3.762   2.826   5.280  0.7020  0.9219  0.4000
  422MOL0     C58112   3.745   2.953   5.359 -0.5085  0.3433 -0.7640
  422MOL0     C58113   3.875   3.026   5.338  0.7715  0.1957  0.0225
  422MOL0     C58114   3.890   3.149   5.432  0.3930  0.4597 -0.8506
  422MOL0     N58115   4.008   3.215   5.382 -0.4022  0.4142  0.3071
  422MOL0     C58116   4.000   3.322   5.298 -0.2805 -0.8467 -0.3505
  422MOL0     C58117   4.127   3.342   5.247 -0.4456 -0.5582 -1.0525
  422MOL0     C58118   4.170   3.449   5.143  0.3314  0.8894  0.4411
  422MOL0     C58119   4.211   3.377   5.014 -0.0924  0.0038  0.8681
  422MOL0     C58120   4.097   3.283   4.954  0.0978  0.3192 -0.2117
  422MOL0     C58121   4.007   3.362   4.867 -0.0607  0.7419 -0.0228
  422MOL0     O58122   4.067   3.409   4.739  0.1826 -0.5470 -0.1901
  422MOL0     C58123   4.111   3.314   4.653  0.1651 -0.1836  0.4865
  422MOL0     C58124   4.211   3.354   4.565 -0.2912 -0.0942 -0.0372
  422MOL0     C58125   4.278   3.268   4.473  0.3617 -0.2220  0.3517
  422MOL0     C58126   4.402   3.322   4.409  0.6686 -0.3680 -0.0081
  422MOL0     C58127   4.225   3.139   4.458  0.0514 -0.2421  0.4483
  422MOL0     C58128   4.268   3.043   4.350  0.1260 -0.4712 -0.1560
  422MOL0     O58129   4.301   3.103   4.235  1.2397  0.4168 -0.2992
  422MOL0     C58130   4.345   3.037   4.124  0.5025 -0.2232  0.1043
  422MOL0     C58131   4.480   3.002   4.111  0.1615  0.2061  0.2649
  422MOL0     C58132   4.520   2.930   3.999  0.3831 -0.8252  0.6105
  422MOL0     C58133   4.434   2.882   3.898 -0.6831 -0.3126 -0.9562
  422MOL0     O58134   4.497   2.805   3.806  0.1520 -0.7392  0.4083
  422MOL0     C58135   4.433   2.677   3.772  0.0027  0.1233  0.1153
  422MOL0     C58136   4.441   2.658   3.622  0.4503 -0.8004 -0.0057
  422MOL0     C58137   4.312   2.700   3.561 -0.0759 -0.2451 -0.9062
  422MOL0     C58138   4.328   2.739   3.412  0.3964  0.7839 -0.3514
  422MOL0     C58139   4.193   2.773   3.342  0.0258 -1.0049 -0.1612
  422MOL0     C58140   4.212   2.828   3.203  0.1958 -0.1368  0.2367
  422MOL0     C58141   4.082   2.868   3.135  0.0970 -0.3506  0.8384
  422MOL0     C58142   4.097   2.948   3.009 -0.8532 -0.0715  0.4656
  422MOL0    Cl58143   4.102   2.820   2.873  0.1081  0.0466  0.2913
  422MOL0     C58144   4.298   2.909   3.922  0.0007 -0.0011  0.4781
  422MOL0     C58145   4.255   2.989   4.030 -0.0913  0.2624 -0.2220
  422MOL0     O58146   4.273   2.922   4.375  0.2982 -0.5414 -0.0658
  422MOL0     C58147   4.105   3.106   4.533 -0.8341 -0.3032  0.0340
  422MOL0     C58148   4.058   3.182   4.640 -0.6377 -0.0695  0.4689
  422MOL0     N58149   4.204   3.241   5.289  0.0441  0.6323 -0.7673
  422MOL0     N58150   4.137   3.169   5.365  0.3420  0.0081  0.5264
  422MOL0     C58151   3.472   2.402   5.746 -1.0500 -0.5876 -0.4618
  422MOL0     C58152   3.503   2.324   5.865 -0.1004 -1.1567  0.4462
  422MOL0     C58153   3.724   2.042   6.137  0.7742  0.5571 -0.5700
  422MOL0     C58154   3.610   1.960   6.170  0.1100 -0.0250 -0.6999
  422MOL0     C58155   3.629   1.856   6.264 -0.3761  0.1316 -0.4690
  422MOL0     C58156   3.762   1.829   6.322  0.4981  0.3316 -1.0146
  422MOL0     O58157   3.778   1.737   6.425 -0.4538  0.0494 -0.4212
  422MOL0     C58158   3.710   1.771   6.547 -0.0937  0.4555  0.6267
  422MOL0     C58159   3.789   1.716   6.662 -0.5790 -0.1253 -0.8214
  422MOL0     C58160   3.776   1.566   6.686  0.5046  0.2721 -0.1826
  422MOL0     C58161   3.874   1.513   6.791 -0.2836 -0.4975  0.0770
  422MOL0     C58162   3.866   1.591   6.917 -1.0842  0.3479 -0.5784
  422MOL0     C58163   3.856   1.659   7.020 -0.5421 -0.0829  0.6199
  422MOL0     C58164   3.865   1.895   6.264  0.2083 -0.0742  0.0219
  422MOL0     C58165   3.853   1.998   6.176 -0.3022  0.3387  0.1843
  422MOL0     C58166   3.973   2.083   6.140 -0.7757  0.8174  0.2502
  422MOL0     H58167   3.721   2.096   5.749 -1.9727 -2.9305  4.5724
  422MOL0     H58168   3.679   2.252   5.527 -3.0935  4.4648 -2.7179
  422MOL0     H58169   3.461   2.621   5.602  1.2578 -1.0334  0.0503
  422MOL0     H58170   3.323   2.527   5.533 -0.0314 -1.1241 -0.7084
  422MOL0     H58171   3.422   2.564   5.298 -1.2296  1.3330 -2.2699
  422MOL0     H58172   3.379   2.713   5.390  0.4877  0.5081  2.2657
  422MOL0     H58173   3.607   2.748   5.474 -1.1823 -0.5950  0.2095
  422MOL0     H58174   3.664   2.598   5.421 -0.9921 -0.8379  0.3766
  422MOL0     H58175   3.618   2.682   5.180 -2.6429  1.6246 -0.7344
  422MOL0     H58176   3.543   2.826   5.255 -1.9712 -0.6763  0.3658
  422MOL0     H58177   3.799   2.829   5.178  0.2818 -3.1171 -0.0613
  422MOL0     H58178   3.822   2.753   5.336 -0.0278 -1.3686 -1.6385
  422MOL0     H58179   3.672   3.021   5.315 -0.3214  1.7376  0.9881
  422MOL0     H58180   3.730   2.933   5.465 -0.4408  2.1811 -0.3881
  422MOL0     H58181   3.875   3.054   5.232 -2.7568  0.7514  0.0592
  422MOL0     H58182   3.967   2.969   5.350  1.6662  1.4348 -0.6564
  422MOL0     H58183   3.806   3.219   5.423  2.6969  3.1812 -3.0411
  422MOL0     H58184   3.910   3.130   5.538  0.7799  0.2750 -0.9564
  422MOL0     H58185   3.913   3.386   5.285  1.5962  2.1718  0.8264
  422MOL0     H58186   4.258   3.506   5.174 -0.8109  2.0968  1.5820
  422MOL0     H58187   4.093   3.526   5.139  0.9447  1.4779 -0.1976
  422MOL0     H58188   4.243   3.447   4.936 -2.3411  2.0832  1.6803
  422MOL0     H58189   4.294   3.309   5.033 -0.3112 -1.1714 -1.8653
  422MOL0     H58190   4.142   3.200   4.899 -2.6709 -0.9779 -0.7413
  422MOL0     H58191   4.039   3.237   5.035 -1.1446  0.0226 -1.2456
  422MOL0     H58192   3.921   3.298   4.847 -1.3386  2.1113  0.8492
  422MOL0     H58193   3.965   3.448   4.921 -0.3020 -0.9560  2.6917
  422MOL0     H58194   4.240   3.458   4.568 -2.6536  0.5839  1.3641
  422MOL0     H58195   4.478   3.244   4.403  1.5608  0.5438 -1.0242
  422MOL0     H58196   4.437   3.408   4.467  0.4737 -0.8352  0.8267
  422MOL0     H58197   4.383   3.360   4.308 -0.0948 -3.0078 -0.9523
  422MOL0     H58198   4.548   3.051   4.180 -1.3165  2.8000  0.0195
  422MOL0     H58199   4.625   2.905   3.986  0.0343 -1.8869 -0.2596
  422MOL0     H58200   4.494   2.597   3.815 -2.5931 -1.9988  0.0301
  422MOL0     H58201   4.327   2.669   3.795 -0.5383 -1.3706 -2.5071
  422MOL0     H58202   4.518   2.729   3.592  1.5140 -1.5769  0.8462
  422MOL0     H58203   4.453   2.551   3.600 -0.0882 -1.3006  1.9121
  422MOL0     H58204   4.274   2.791   3.607  0.8614 -0.7501  0.9644
  422MOL0     H58205   4.240   2.618   3.563 -0.0423 -0.2621  0.1618
  422MOL0     H58206   4.371   2.652   3.360  0.5320 -0.0971  1.1623
  422MOL0     H58207   4.404   2.817   3.401  0.6409  0.3740 -1.7294
  422MOL0     H58208   4.142   2.676   3.335  0.2988 -1.1692  0.1098
  422MOL0     H58209   4.134   2.845   3.400  0.0376  0.6004 -2.0543
  422MOL0     H58210   4.243   2.747   3.137  0.9579 -0.3078  0.7953
  422MOL0     H58211   4.282   2.911   3.209  0.3059 -0.3375  3.7392
  422MOL0     H58212   4.017   2.917   3.208 -0.5222 -1.5479  1.1270
  422MOL0     H58213   4.036   2.778   3.093  1.5566  0.5363 -3.1612
  422MOL0     H58214   4.185   3.014   3.009  0.0569 -1.1110 -2.7012
  422MOL0     H58215   4.002   2.999   2.992 -0.7959  0.0553  0.5213
  422MOL0     H58216   4.227   2.861   3.855  1.6569 -1.7831 -0.1433
  422MOL0     H58217   4.148   3.008   4.024  0.1093  1.1298 -1.6401
  422MOL0     H58218   4.066   3.005   4.523 -0.4652 -0.4911  0.4780
  422MOL0     H58219   3.983   3.157   4.715 -0.9013  2.0188  0.9664
  422MOL0     H58220   3.394   2.477   5.757 -2.2824 -1.8567 -0.2683
  422MOL0     H58221   3.441   2.354   5.948 -2.8247  0.8426 -2.0607
  422MOL0     H58222   3.514   1.983   6.125 -0.8493 -2.0821  0.1669
  422MOL0     H58223   3.537   1.808   6.297  0.5136  0.4981  2.9661
  422MOL0     H58224   3.713   1.880   6.554  2.2874  0.5274 -0.5435
  422MOL0     H58225   3.609   1.731   6.539  0.8031 -1.6247 -1.8512
  422MOL0     H58226   3.746   1.764   6.750  0.0080  1.1245 -1.2034
  422MOL0     H58227   3.893   1.747   6.655 -0.6568  0.4351  0.3245
  422MOL0     H58228   3.670   1.553   6.707  0.9158 -2.2165  0.7766
  422MOL0     H58229   3.797   1.512   6.593  1.2570  2.2857 -1.2324
  422MOL0     H58230   3.977   1.522   6.756 -0.8513  1.7842 -1.2269
  422MOL0     H58231   3.835   1.419   6.832  0.2850 -0.3759  0.9160
  422MOL0     H58232   3.851   1.697   7.121 -0.9332  1.5085  0.0440
  422MOL0     H58233   3.966   1.867   6.292  0.1845  0.7856  1.0680
  422MOL0     H58234   3.976   2.173   6.203  1.7579 -0.8650  2.8256
  422MOL0     H58235   4.065   2.036   6.175 -1.3506 -0.4810  0.0795
  422MOL0     H58236   3.983   2.092   6.032  1.2006  1.1304  0.4300
  423MOL0     O58237   9.907   0.257   8.743  0.3754  0.7741  0.1726
  423MOL0     C58238   9.805   0.314   8.782 -0.4507 -0.5342 -0.3362
  423MOL0     O58239   9.690   0.336   8.700 -0.1900 -0.1825 -0.3005
  423MOL0     C58240   9.695   0.305   8.563 -0.2730  0.4378  0.1854
  423MOL0     C58241   9.704   0.403   8.466 -0.1718  0.6884  0.0368
  423MOL0     C58242   9.704   0.376   8.328  0.0015 -0.6881 -0.3254
  423MOL0     C58243   9.692   0.244   8.287 -0.0356 -0.2831 -0.1588
  423MOL0     O58244   9.705   0.213   8.153  0.1612  0.4488  0.6631
  423MOL0     C58245   9.783   0.097   8.108  0.4059  0.1750  0.0964
  423MOL0     C58246   9.923   0.094   8.148 -0.4085 -0.2610  0.2033
  423MOL0     C58247  10.015   0.213   8.100  0.7360  0.7160  0.4104
  423MOL0     C58248  10.114   0.240   8.217  0.5349  0.0252 -0.0639
  423MOL0     C58249  10.233   0.330   8.197 -0.3363  0.2208  0.0492
  423MOL0     C58250  10.212   0.479   8.180  0.5522 -0.8729 -0.6155
  423MOL0     C58251  10.125   0.541   8.290  0.1990  0.7834 -0.6384
  423MOL0     C58252  10.203   0.610   8.402 -0.0996 -0.0694  0.1209
  423MOL0     N58253  10.285   0.511   8.474  0.1755  0.1657  0.2881
  423MOL0     C58254  10.243   0.413   8.562  0.8623 -0.5745  0.3979
  423MOL0     C58255  10.351   0.361   8.618 -0.3311 -0.1822  0.8385
  423MOL0     C58256  10.373   0.242   8.709 -0.4869  0.3232  0.2972
  423MOL0     C58257  10.458   0.130   8.649  0.0661 -0.9660 -0.8211
  423MOL0     C58258  10.447   0.005   8.744  1.1945 -0.7895 -0.5017
  423MOL0     C58259  10.567  -0.097   8.757  0.1929  0.1581  0.9813
  423MOL0     O58260  10.574  -0.166   8.628 -0.0688 -0.0171 -0.2455
  423MOL0     C58261  10.696  -0.217   8.576 -0.0876  0.3366 -0.2450
  423MOL0     C58262  10.702  -0.337   8.507 -0.3213  1.5767 -0.4295
  423MOL0     C58263  10.823  -0.396   8.458  0.1661  0.6215 -0.3405
  423MOL0     C58264  10.802  -0.519   8.366  0.0951 -0.7068  0.7597
  423MOL0     C58265  10.942  -0.320   8.461  0.4420 -0.8872 -0.3239
  423MOL0     C58266  11.067  -0.353   8.388 -0.0395  0.6048  0.4912
  423MOL0     O58267  11.078  -0.473   8.340  0.5555  0.0425  0.1636
  423MOL0     C58268  11.201  -0.536   8.323 -1.4080  0.6395  0.3679
  423MOL0     C58269  11.238  -0.632   8.417 -1.0284  0.2464 -0.4793
  423MOL0     C58270  11.362  -0.698   8.406 -0.0250 -0.8440 -0.0242
  423MOL0     C58271  11.454  -0.661   8.309  0.5280  0.0549 -0.5988
  423MOL0     O58272  11.575  -0.737   8.311  0.4338 -0.0526  0.1227
  423MOL0     C58273  11.650  -0.727   8.183 -0.0358  0.0102  0.0854
  423MOL0     C58274  11.784  -0.800   8.187 -0.5888  0.1807 -1.1641
  423MOL0     C58275  11.897  -0.728   8.270  0.2958 -0.0061 -0.5600
  423MOL0     C58276  12.037  -0.752   8.223 -0.5298 -0.0505  0.3594
  423MOL0     C58277  12.098  -0.888   8.253  0.5215 -0.7113  0.8001
  423MOL0     C58278  12.090  -0.932   8.396 -0.4056  0.1105  0.2679
  423MOL0     C58279  12.125  -1.084   8.417 -0.1036 -1.0648  0.0084
  423MOL0     C58280  12.114  -1.125   8.566  0.5852 -0.1340  0.0560
  423MOL0    Cl58281  12.175  -1.295   8.568  0.3658  0.3214  0.4595
  423MOL0     C58282  11.415  -0.578   8.205 -0.3182  0.0431  0.6340
  423MOL0     C58283  11.290  -0.514   8.215  0.4797 -0.3877 -1.0922
  423MOL0     O58284  11.163  -0.275   8.400 -0.0233 -0.4747  0.3919
  423MOL0     C58285  10.937  -0.195   8.535  0.3501 -0.3170 -0.6827
  423MOL0     C58286  10.817  -0.140   8.588 -0.2148 -0.3481  0.0717
  423MOL0     N58287  10.466   0.414   8.552  0.5725 -0.0520 -0.1138
  423MOL0     N58288  10.426   0.501   8.469  0.1543  0.1276 -0.1385
  423MOL0     C58289   9.702   0.139   8.380 -0.7303  0.2068 -0.4212
  423MOL0     C58290   9.700   0.170   8.512  0.2661 -0.3238  0.0316
  423MOL0     C58291   9.808   0.379   8.916  0.3681  0.3269  0.8560
  423MOL0     C58292   9.699   0.457   8.963  0.9303 -0.3203  0.0212
  423MOL0     C58293   9.691   0.509   9.088 -0.0256 -0.3860  0.1488
  423MOL0     C58294   9.793   0.479   9.175  0.5377 -1.6889  0.0727
  423MOL0     O58295   9.783   0.531   9.303 -0.1730  0.3510  0.8961
  423MOL0     C58296   9.824   0.445   9.406 -0.1696  0.3209 -0.6566
  423MOL0     C58297   9.730   0.486   9.522  0.4997 -0.4076 -0.1213
  423MOL0     C58298   9.731   0.402   9.652  0.1756 -0.1780  0.5197
  423MOL0     C58299   9.802   0.475   9.768 -0.4003  0.5003 -0.3506
  423MOL0     C58300   9.947   0.492   9.734  0.3865 -0.6935  0.1663
  423MOL0     C58301  10.065   0.520   9.720 -0.9905  0.6851  0.0161
  423MOL0     C58302   9.900   0.405   9.134  0.0719  0.6616  0.7784
  423MOL0     C58303   9.920   0.362   9.000 -0.0141 -0.6425  0.8030
  423MOL0     C58304  10.051   0.297   8.971  0.1501  0.2315  0.0167
  423MOL0     H58305   9.701   0.507   8.499  1.5548  0.4961  0.8702
  423MOL0     H58306   9.702   0.459   8.258 -1.1150 -1.1784 -0.8942
  423MOL0     H58307   9.765   0.099   8.000 -0.1522  4.2719  0.1182
  423MOL0     H58308   9.740   0.004   8.146 -0.0506  1.1755  2.1878
  423MOL0     H58309   9.933   0.091   8.257 -2.3238 -0.0613  0.4104
  423MOL0     H58310   9.955  -0.005   8.114  1.1081 -0.0442  0.9131
  423MOL0     H58311  10.075   0.190   8.012 -0.0663  1.0270 -0.2293
  423MOL0     H58312   9.957   0.304   8.081 -0.5330  0.2342  1.8011
  423MOL0     H58313  10.064   0.279   8.306 -1.0916 -2.3482  0.1564
  423MOL0     H58314  10.167   0.148   8.243  1.4631  1.0286  1.7786
  423MOL0     H58315  10.284   0.289   8.110  3.2740 -2.4954  3.0870
  423MOL0     H58316  10.298   0.314   8.284 -0.5205  0.3693  0.2186
  423MOL0     H58317  10.304   0.538   8.167  1.0876 -1.3977  0.6738
  423MOL0     H58318  10.163   0.495   8.083  2.6670 -1.4166 -1.8345
  423MOL0     H58319  10.059   0.468   8.338  1.7416 -0.1745  0.0827
  423MOL0     H58320  10.060   0.615   8.242 -0.3219  1.2669  0.7666
  423MOL0     H58321  10.264   0.693   8.366  0.1871  0.2562  1.3150
  423MOL0     H58322  10.136   0.661   8.472  0.3040 -1.4961  1.5815
  423MOL0     H58323  10.139   0.387   8.579  0.5404 -0.0759 -0.7305
  423MOL0     H58324  10.272   0.204   8.725 -1.2171  2.3122  0.7027
  423MOL0     H58325  10.419   0.280   8.801  1.8852  0.5603 -0.9002
  423MOL0     H58326  10.433   0.104   8.546  0.6872 -1.9413 -0.7408
  423MOL0     H58327  10.561   0.163   8.631 -0.7694  1.2045 -1.9569
  423MOL0     H58328  10.441   0.046   8.845  4.7357  2.8896 -1.5116
  423MOL0     H58329  10.352  -0.041   8.717  0.6857  1.0245 -2.0995
  423MOL0     H58330  10.658  -0.040   8.777  1.1962 -0.4595 -1.4233
  423MOL0     H58331  10.541  -0.164   8.839 -1.9091  1.2729  1.2935
  423MOL0     H58332  10.605  -0.383   8.491 -1.3504  0.6202  5.8347
  423MOL0     H58333  10.838  -0.491   8.267 -2.1632  0.6894  0.2563
  423MOL0     H58334  10.697  -0.550   8.356  0.4789 -2.6390  2.0936
  423MOL0     H58335  10.855  -0.607   8.406  0.1884 -0.6997  0.6474
  423MOL0     H58336  11.164  -0.651   8.493 -0.8688  2.0463  0.1562
  423MOL0     H58337  11.392  -0.780   8.471  1.9389  1.1020  1.6825
  423MOL0     H58338  11.588  -0.762   8.100  0.5040 -3.8831  1.1051
  423MOL0     H58339  11.675  -0.621   8.170  0.8918 -0.4130 -2.1024
  423MOL0     H58340  11.771  -0.905   8.215 -3.7474  0.7078 -0.2289
  423MOL0     H58341  11.827  -0.786   8.088  1.8287  0.3885 -0.1712
  423MOL0     H58342  11.899  -0.738   8.379  0.8863 -1.2136 -0.6669
  423MOL0     H58343  11.887  -0.622   8.248 -0.3751  0.4664  1.8287
  423MOL0     H58344  12.093  -0.679   8.282  3.2395 -1.5922 -0.9827
  423MOL0     H58345  12.049  -0.733   8.116  2.3749  1.4646  0.8387
  423MOL0     H58346  12.059  -0.971   8.194 -0.4876 -0.9726  1.7915
  423MOL0     H58347  12.205  -0.883   8.235  0.4164  0.1019  0.3505
  423MOL0     H58348  11.987  -0.919   8.430 -0.9455 -2.5779 -0.1295
  423MOL0     H58349  12.148  -0.860   8.454 -2.3248  2.1182 -0.1363
  423MOL0     H58350  12.228  -1.096   8.385  0.5621  1.2853  1.0096
  423MOL0     H58351  12.068  -1.144   8.345  0.6734 -2.1483  0.2816
  423MOL0     H58352  12.016  -1.108   8.610 -0.3484 -2.6862 -0.8243
  423MOL0     H58353  12.185  -1.066   8.624 -0.9493  0.4212  1.4223
  423MOL0     H58354  11.483  -0.559   8.122  1.4832  0.7733  2.2134
  423MOL0     H58355  11.254  -0.434   8.150 -2.8539  0.9814  2.0891
  423MOL0     H58356  11.014  -0.120   8.547  0.2469  0.0920 -2.3451
  423MOL0     H58357  10.806  -0.041   8.630  1.0399  0.4374 -1.3825
  423MOL0     H58358   9.707   0.031   8.367  0.5312 -0.0320  1.7285
  423MOL0     H58359   9.705   0.094   8.590 -1.6506 -0.9629 -0.4037
  423MOL0     H58360   9.611   0.476   8.902  1.7782 -2.2526 -1.9343
  423MOL0     H58361   9.612   0.572   9.125  0.2823  0.5408 -0.7371
  423MOL0     H58362   9.828   0.338   9.388  0.5128  0.3945 -0.9847
  423MOL0     H58363   9.928   0.467   9.434 -0.1286 -0.8271  0.1323
  423MOL0     H58364   9.627   0.495   9.485  0.1292  1.1616  1.1754
  423MOL0     H58365   9.744   0.591   9.548  0.0025  0.1581 -1.9754
  423MOL0     H58366   9.626   0.398   9.683  0.1441 -2.5903  0.3114
  423MOL0     H58367   9.766   0.299   9.634  0.0805  0.1013 -1.4666
  423MOL0     H58368   9.794   0.423   9.864 -0.0437 -0.5013 -0.8475
  423MOL0     H58369   9.753   0.571   9.790 -0.1614  0.6031 -0.2558
  423MOL0     H58370  10.172   0.527   9.724 -1.0317  1.4837 -0.1515
  423MOL0     H58371   9.975   0.386   9.210 -1.6618 -1.9631  1.9983
  423MOL0     H58372  10.103   0.323   8.878  1.7679  0.8789  1.0648
  423MOL0     H58373  10.117   0.318   9.055 -1.7132 -0.7275  1.8261
  423MOL0     H58374  10.029   0.190   8.970  1.3710 -0.0817 -2.3265
  424MOL0     O58375   3.509   3.552   4.201 -0.2231 -0.1028  1.0231
  424MOL0     C58376   3.423   3.530   4.112 -0.6971  0.0739 -0.7342
  424MOL0     O58377   3.433   3.593   3.991  0.0483  0.6484  0.4319
  424MOL0     C58378   3.482   3.719   3.990  0.4544 -0.5287 -0.0697
  424MOL0     C58379   3.568   3.749   3.889  0.4775  0.0985 -0.4517
  424MOL0     C58380   3.632   3.875   3.886 -0.3282 -0.1077  0.4138
  424MOL0     C58381   3.610   3.973   3.985  0.0050 -0.3102 -0.4204
  424MOL0     O58382   3.679   4.086   3.976 -0.6226 -0.1354  0.7023
  424MOL0     C58383   3.714   4.171   4.089  0.0650  0.0262  0.1277
  424MOL0     C58384   3.832   4.275   4.061  0.6852  0.2382 -0.7737
  424MOL0     C58385   3.965   4.213   4.027  0.8020  0.9746 -0.8919
  424MOL0     C58386   4.078   4.312   3.999 -0.2758  0.0108  0.2407
  424MOL0     C58387   4.189   4.241   3.922  0.1767  0.2754  0.1035
  424MOL0     C58388   4.263   4.138   4.016 -0.1697  1.4739  1.1963
  424MOL0     C58389   4.393   4.096   3.952  0.0169  0.4651 -0.3487
  424MOL0     C58390   4.463   3.993   4.043 -0.7935  1.3433 -0.3038
  424MOL0     N58391   4.583   3.925   3.980  0.1550  0.0118  0.0256
  424MOL0     C58392   4.661   3.833   4.038 -0.3395 -0.2326 -0.3029
  424MOL0     C58393   4.764   3.817   3.949  0.5627 -0.4713  0.5838
  424MOL0     C58394   4.881   3.727   3.957 -0.1270 -0.4577 -0.2151
  424MOL0     C58395   5.017   3.796   3.980  0.5196 -0.0152 -0.5515
  424MOL0     C58396   5.124   3.690   3.992 -0.3797 -0.5973 -0.2000
  424MOL0     C58397   5.258   3.754   3.971 -0.6224 -0.1008 -0.4748
  424MOL0     O58398   5.349   3.647   3.994 -0.3789  0.2848  0.6780
  424MOL0     C58399   5.477   3.678   3.957 -0.6024 -0.0123 -0.0611
  424MOL0     C58400   5.555   3.565   3.934 -0.1097  0.9162  0.0163
  424MOL0     C58401   5.689   3.573   3.901 -0.8907 -0.5372  0.3512
  424MOL0     C58402   5.761   3.440   3.887 -1.0052 -0.1156 -0.1778
  424MOL0     C58403   5.747   3.706   3.879  0.2982  0.8922 -0.3147
  424MOL0     C58404   5.888   3.737   3.819  0.5130  0.2348  0.3027
  424MOL0     O58405   5.890   3.868   3.766  0.2445 -0.1539 -0.3040
  424MOL0     C58406   5.983   3.901   3.675  0.0773  0.2633  0.0247
  424MOL0     C58407   5.942   3.954   3.551 -0.1398  0.4579  0.5578
  424MOL0     C58408   6.022   3.976   3.438  0.1266 -0.1463 -1.1888
  424MOL0     C58409   6.154   3.941   3.448  0.6128 -0.4187  0.2626
  424MOL0     O58410   6.231   3.975   3.336  0.2005 -0.1035  0.1824
  424MOL0     C58411   6.347   3.904   3.314 -0.3533 -0.4259  0.0738
  424MOL0     C58412   6.325   3.777   3.221 -0.3295 -0.1263  0.5258
  424MOL0     C58413   6.299   3.809   3.073 -0.3720 -0.1300  0.2865
  424MOL0     C58414   6.155   3.774   3.027 -0.3648  0.0606 -0.2244
  424MOL0     C58415   6.133   3.816   2.872  0.3627  1.1160 -0.2652
  424MOL0     C58416   5.989   3.762   2.834 -0.5904 -0.6087  0.2794
  424MOL0     C58417   5.962   3.826   2.695  0.0238 -1.1776 -0.7020
  424MOL0     C58418   5.817   3.780   2.644  0.3682  0.0620  0.0131
  424MOL0    Cl58419   5.813   3.614   2.570 -0.0462 -0.3225 -0.2857
  424MOL0     C58420   6.192   3.881   3.569 -0.2870 -0.5184  0.7606
  424MOL0     C58421   6.116   3.868   3.676 -0.9641 -0.2185 -0.9777
  424MOL0     O58422   5.968   3.645   3.798  0.7407 -1.0114  1.0769
  424MOL0     C58423   5.663   3.819   3.895 -0.2099  0.2599 -0.4644
  424MOL0     C58424   5.534   3.800   3.942 -0.4928 -0.0622  0.0961
  424MOL0     N58425   4.750   3.911   3.844 -0.1643  0.5507 -0.3090
  424MOL0     N58426   4.640   3.958   3.869  0.4378  0.4481  0.6764
  424MOL0     C58427   3.519   3.947   4.090  0.0809  0.0677 -0.1126
  424MOL0     C58428   3.456   3.818   4.087  0.5419 -0.3336  0.4233
  424MOL0     C58429   3.331   3.417   4.125 -0.6686 -0.4543 -0.0730
  424MOL0     C58430   3.209   3.438   4.062  0.7167  0.1948  0.2964
  424MOL0     C58431   3.109   3.343   4.072  0.5093 -0.1152 -0.4376
  424MOL0     C58432   3.118   3.227   4.152  0.7935  0.4018  0.2130
  424MOL0     O58433   2.999   3.152   4.158  0.1355 -0.6717 -0.1000
  424MOL0     C58434   3.002   3.025   4.221  0.1480  0.6844 -0.7683
  424MOL0     C58435   3.069   2.914   4.148  1.0345 -0.1078  0.0127
  424MOL0     C58436   3.041   2.779   4.207 -0.2808  0.5256 -0.3105
  424MOL0     C58437   3.088   2.673   4.109  1.1002  0.1849 -0.1193
  424MOL0     C58438   3.058   2.543   4.166  0.5849  0.6003  0.1177
  424MOL0     C58439   3.024   2.433   4.216  0.0409  0.5748  0.3707
  424MOL0     C58440   3.241   3.205   4.206  0.6497  0.7442  0.2612
  424MOL0     C58441   3.353   3.298   4.198  0.3495  0.3917  0.1932
  424MOL0     C58442   3.491   3.252   4.249 -0.5619  0.1958  0.6555
  424MOL0     H58443   3.580   3.677   3.809 -0.0738  0.5714 -0.9674
  424MOL0     H58444   3.705   3.909   3.814  0.8978 -2.2328  0.5707
  424MOL0     H58445   3.747   4.101   4.166 -2.6732 -1.4146  0.1251
  424MOL0     H58446   3.625   4.222   4.126 -0.6533 -0.4544 -0.8680
  424MOL0     H58447   3.810   4.347   3.982  1.9074  1.8472  0.2748
  424MOL0     H58448   3.855   4.325   4.156  1.1139 -2.4406  0.6109
  424MOL0     H58449   3.988   4.141   4.105 -1.6062  0.0835 -0.9137
  424MOL0     H58450   3.953   4.155   3.935 -2.9544  0.8046 -0.4545
  424MOL0     H58451   4.048   4.403   3.946  0.6460 -0.4181 -1.0388
  424MOL0     H58452   4.109   4.344   4.100  0.3070  0.0508  0.0534
  424MOL0     H58453   4.256   4.317   3.882 -1.1779  1.7051  0.4791
  424MOL0     H58454   4.142   4.194   3.835 -0.4909 -0.6544  0.9339
  424MOL0     H58455   4.288   4.171   4.117  0.6631  1.8459  0.8840
  424MOL0     H58456   4.198   4.052   4.036  1.0566  0.6717  1.8620
  424MOL0     H58457   4.452   4.185   3.927  0.5917  0.0978 -0.3179
  424MOL0     H58458   4.372   4.054   3.853  0.1001  1.6232 -0.8797
  424MOL0     H58459   4.498   4.052   4.128 -0.5436  1.1312 -0.2562
  424MOL0     H58460   4.394   3.918   4.082 -3.4264  3.6891 -0.1925
  424MOL0     H58461   4.641   3.786   4.134 -0.7299  0.9802  0.2285
  424MOL0     H58462   4.878   3.672   3.862  2.2360 -1.0384 -0.0327
  424MOL0     H58463   4.852   3.650   4.029 -3.3873 -0.5653 -1.5049
  424MOL0     H58464   5.038   3.860   3.893 -1.3524  2.1224  0.4625
  424MOL0     H58465   5.018   3.853   4.073  2.5970 -1.5983  0.4683
  424MOL0     H58466   5.111   3.654   4.094  2.1144  0.2685  0.5089
  424MOL0     H58467   5.109   3.610   3.919 -3.0924 -1.0423  0.7278
  424MOL0     H58468   5.271   3.802   3.874 -0.8738 -0.1588 -0.5370
  424MOL0     H58469   5.269   3.826   4.052 -1.2091 -1.5916  0.9840
  424MOL0     H58470   5.526   3.461   3.938  0.3453  0.7107 -1.6342
  424MOL0     H58471   5.692   3.357   3.866 -2.1143  1.3791 -2.9324
  424MOL0     H58472   5.822   3.416   3.975 -0.7275 -3.9185 -1.2123
  424MOL0     H58473   5.838   3.441   3.809  0.0477  4.8112  0.6032
  424MOL0     H58474   5.837   3.977   3.537  0.0098  0.8253 -0.0411
  424MOL0     H58475   5.983   4.012   3.343  1.5422 -0.9603 -2.1121
  424MOL0     H58476   6.418   3.966   3.259 -1.2465  1.3367  0.8451
  424MOL0     H58477   6.403   3.880   3.406  2.6693 -0.3275 -1.6057
  424MOL0     H58478   6.414   3.716   3.239  0.1867  1.1168  2.4055
  424MOL0     H58479   6.245   3.717   3.265  0.1410 -0.7914  0.4902
  424MOL0     H58480   6.362   3.748   3.008 -0.9164 -1.3862  0.8976
  424MOL0     H58481   6.315   3.913   3.042 -1.6860 -0.0555 -0.2059
  424MOL0     H58482   6.090   3.835   3.089 -3.0599  0.2126 -2.9656
  424MOL0     H58483   6.125   3.669   3.040 -1.1694  0.2591 -0.4579
  424MOL0     H58484   6.139   3.926   2.873  0.7429  1.1008 -0.9680
  424MOL0     H58485   6.209   3.773   2.807  1.9397  2.2472  0.7629
  424MOL0     H58486   5.920   3.803   2.909  1.4919  0.8026  1.5012
  424MOL0     H58487   5.978   3.653   2.831  1.4189 -0.8320 -1.7175
  424MOL0     H58488   6.026   3.810   2.608 -1.6183 -0.6611 -2.0545
  424MOL0     H58489   5.963   3.933   2.717  3.0964 -1.2394 -0.1376
  424MOL0     H58490   5.790   3.859   2.573  0.1699  0.4020  0.4648
  424MOL0     H58491   5.742   3.783   2.724  1.3197 -2.2151  1.0925
  424MOL0     H58492   6.293   3.844   3.583  0.1756  0.2418 -0.3837
  424MOL0     H58493   6.160   3.820   3.763 -1.2136 -2.9480 -2.2610
  424MOL0     H58494   5.691   3.919   3.864  2.0804 -0.4426 -0.8490
  424MOL0     H58495   5.476   3.892   3.948  0.7941  0.8482 -1.0041
  424MOL0     H58496   3.486   4.023   4.161  3.5957  0.8365  0.8762
  424MOL0     H58497   3.384   3.804   4.166  1.9889 -1.8572  1.5343
  424MOL0     H58498   3.191   3.534   4.013 -1.3258 -0.7529 -0.8939
  424MOL0     H58499   3.018   3.380   4.027  0.7607  1.6121  0.3628
  424MOL0     H58500   3.057   3.031   4.315 -0.8348  0.3236 -0.1550
  424MOL0     H58501   2.900   2.989   4.239  0.6161 -1.9190 -2.7372
  424MOL0     H58502   3.174   2.939   4.136  0.3261  3.9183  0.8903
  424MOL0     H58503   3.021   2.905   4.051  0.5534 -1.3340  0.3427
  424MOL0     H58504   3.093   2.771   4.303 -1.8314  1.3666  0.6487
  424MOL0     H58505   2.934   2.765   4.228 -0.3936 -0.3121 -1.4050
  424MOL0     H58506   3.195   2.679   4.084  1.0486 -1.5127 -0.9082
  424MOL0     H58507   3.026   2.682   4.019 -0.1910 -2.6219  0.3606
  424MOL0     H58508   2.995   2.352   4.279 -0.0437  0.6795  0.4686
  424MOL0     H58509   3.244   3.115   4.266  0.3907  0.5410 -0.0290
  424MOL0     H58510   3.505   3.300   4.347 -3.7317  1.3497  0.6616
  424MOL0     H58511   3.504   3.146   4.271  2.2537  0.3107 -0.0601
  424MOL0     H58512   3.562   3.294   4.178 -2.5512  3.6027  0.4367
  425MOL0     O58513  10.706   9.985  11.246 -0.1956  0.2620  0.2452
  425MOL0     C58514  10.764  10.088  11.231 -0.3507 -0.0867 -0.1804
  425MOL0     O58515  10.739  10.183  11.134 -0.3734 -0.3356  0.2308
  425MOL0     C58516  10.637  10.168  11.041 -0.7532  0.5312  0.5893
  425MOL0     C58517  10.590  10.287  10.991 -0.1070 -0.6879  0.4829
  425MOL0     C58518  10.464  10.286  10.917  0.2037  0.7115 -0.3935
  425MOL0     C58519  10.405  10.166  10.878 -0.4071 -0.7369 -0.0214
  425MOL0     O58520  10.294  10.156  10.799  0.6031 -0.0996 -0.8842
  425MOL0     C58521  10.289  10.257  10.701  0.2971 -0.4194 -0.5091
  425MOL0     C58522  10.187  10.217  10.587 -0.1412 -0.2560  0.8035
  425MOL0     C58523  10.113  10.339  10.532  0.4875 -0.7907  0.3875
  425MOL0     C58524   9.995  10.303  10.432 -0.5093 -0.1682 -1.1545
  425MOL0     C58525  10.051  10.240  10.294 -0.0259 -0.6241 -0.0310
  425MOL0     C58526   9.943  10.240  10.183 -0.0275 -0.7108 -0.6644
  425MOL0     C58527   9.872  10.371  10.148  0.7639  0.4820  0.4680
  425MOL0     C58528   9.781  10.363  10.030 -0.1914  0.0109  0.9421
  425MOL0     N58529   9.658  10.287  10.069 -0.1819  0.3204 -0.3312
  425MOL0     C58530   9.573  10.322  10.172  1.0882 -0.1498 -0.2281
  425MOL0     C58531   9.470  10.233  10.161  0.0669  0.8403 -0.0970
  425MOL0     C58532   9.359  10.215  10.257  0.9394 -0.4943 -0.2143
  425MOL0     C58533   9.341  10.328  10.353  0.1036  1.1587 -0.3503
  425MOL0     C58534   9.210  10.304  10.434 -0.0035 -0.1927 -0.0524
  425MOL0     C58535   9.203  10.418  10.539  0.0767  1.0952 -0.1247
  425MOL0     O58536   9.168  10.520  10.459 -0.1136  0.4924  0.1284
  425MOL0     C58537   9.192  10.647  10.503 -0.3071  0.1309 -0.3325
  425MOL0     C58538   9.144  10.691  10.627  0.3969  0.4554  0.2380
  425MOL0     C58539   9.159  10.819  10.676 -0.1132 -0.1166  0.5321
  425MOL0     C58540   9.105  10.841  10.821  0.1897  0.3537 -0.1160
  425MOL0     C58541   9.217  10.913  10.586 -0.3947  0.7124  0.4857
  425MOL0     C58542   9.229  11.060  10.608 -0.1552 -0.3228 -0.6084
  425MOL0     O58543   9.299  11.133  10.525 -0.2427 -0.3134  0.0156
  425MOL0     C58544   9.261  11.259  10.485 -0.2788  0.2603 -0.0374
  425MOL0     C58545   9.142  11.331  10.510 -0.7283 -0.4424  0.3421
  425MOL0     C58546   9.137  11.470  10.472 -0.1590  0.1294 -0.2251
  425MOL0     C58547   9.241  11.535  10.415 -0.2257 -0.0453  0.1910
  425MOL0     O58548   9.226  11.667  10.378 -0.6259  0.5012  0.9488
  425MOL0     C58549   9.238  11.694  10.242 -0.8228  1.0463  0.9059
  425MOL0     C58550   9.141  11.808  10.209  0.6767  0.1947 -0.7491
  425MOL0     C58551   9.001  11.807  10.263  0.5328 -0.6564 -0.4165
  425MOL0     C58552   8.912  11.684  10.236  0.5592 -0.2763  0.0565
  425MOL0     C58553   8.897  11.633  10.101  0.2893 -0.0949 -0.5592
  425MOL0     C58554   8.810  11.730  10.007 -0.4948  0.3330  0.3832
  425MOL0     C58555   8.677  11.776  10.066 -1.2741  0.7360 -0.1177
  425MOL0     C58556   8.574  11.827   9.961  0.8610 -0.6587 -0.8678
  425MOL0    Cl58557   8.628  11.999   9.902 -0.4221  0.1283 -0.1848
  425MOL0     C58558   9.352  11.451  10.376 -0.0765  0.1080  0.5361
  425MOL0     C58559   9.371  11.318  10.422  1.0970 -0.6154  0.7691
  425MOL0     O58560   9.158  11.105  10.701  0.2130  0.4706  0.9273
  425MOL0     C58561   9.259  10.869  10.458  0.0678 -0.3299  0.1479
  425MOL0     C58562   9.246  10.737  10.420  0.1594 -0.8346  0.1998
  425MOL0     N58563   9.487  10.155  10.048  0.3865  1.0423 -0.2306
  425MOL0     N58564   9.592  10.195   9.996  0.4183 -0.0754 -0.3933
  425MOL0     C58565  10.463  10.049  10.919 -0.1771  0.2318 -0.2309
  425MOL0     C58566  10.575  10.050  10.991 -0.9733  0.6003  1.2001
  425MOL0     C58567  10.862  10.130  11.341 -0.2445 -1.6617  0.6938
  425MOL0     C58568  10.914  10.267  11.343  0.0974 -0.5907 -0.3092
  425MOL0     C58569  11.013  10.311  11.432  0.7234 -0.7124 -0.1930
  425MOL0     C58570  11.058  10.225  11.537  0.3637 -0.2702  0.0341
  425MOL0     O58571  11.157  10.256  11.619  0.6227  0.0430  0.1793
  425MOL0     C58572  11.146  10.385  11.674  0.1070  0.1559 -0.0923
  425MOL0     C58573  11.214  10.400  11.802 -1.4989 -0.2152  0.2077
  425MOL0     C58574  11.199  10.541  11.855 -0.1469 -0.7168 -0.0351
  425MOL0     C58575  11.051  10.573  11.889  0.1492  0.5249 -0.3355
  425MOL0     C58576  10.986  10.479  11.981 -0.7562  0.9137  0.2772
  425MOL0     C58577  10.957  10.396  12.060 -0.0046  0.8009 -0.4895
  425MOL0     C58578  11.007  10.098  11.546 -0.2257  0.2588  0.4259
  425MOL0     C58579  10.920  10.048  11.443 -0.0751 -0.1055  0.1701
  425MOL0     C58580  10.900   9.894  11.444  0.3909 -0.4703 -0.5379
  425MOL0     H58581  10.644  10.368  11.038 -4.8597  2.3127  1.4211
  425MOL0     H58582  10.409  10.374  10.884 -1.5933 -0.4824 -0.7237
  425MOL0     H58583  10.386  10.270  10.652  1.6886 -1.0852  1.8907
  425MOL0     H58584  10.268  10.350  10.753  0.3412 -0.0750 -1.0999
  425MOL0     H58585  10.257  10.169  10.518 -1.6242 -1.3104 -0.0224
  425MOL0     H58586  10.120  10.136  10.615 -1.1004 -0.1190 -0.9121
  425MOL0     H58587  10.066  10.397  10.612  0.5008  0.0304 -0.1881
  425MOL0     H58588  10.183  10.401  10.475  2.3397 -2.1615  1.0740
  425MOL0     H58589   9.943  10.219  10.479 -0.2486 -0.4870 -1.4411
  425MOL0     H58590   9.924  10.387  10.425 -2.9674 -2.1374 -1.4784
  425MOL0     H58591  10.085  10.137  10.312  0.6518 -1.0213 -3.0754
  425MOL0     H58592  10.133  10.303  10.258 -0.5727 -0.6511 -1.3608
  425MOL0     H58593   9.998  10.218  10.091  1.5349 -0.0130  0.0758
  425MOL0     H58594   9.872  10.161  10.211 -2.6901  2.4227  2.1963
  425MOL0     H58595   9.948  10.446  10.127  0.8071  0.1616 -0.5356
  425MOL0     H58596   9.813  10.412  10.231 -0.3621  2.1024 -1.0790
  425MOL0     H58597   9.761  10.462   9.988 -3.4662 -1.3181 -1.0367
  425MOL0     H58598   9.819  10.309   9.942  0.4805 -0.2711  1.3999
  425MOL0     H58599   9.593  10.386  10.258 -1.9955  1.7190 -0.7700
  425MOL0     H58600   9.391  10.127  10.315  1.0178 -0.8182 -0.7391
  425MOL0     H58601   9.267  10.199  10.201 -0.0442  0.7972  0.9864
  425MOL0     H58602   9.423  10.349  10.422 -1.1542 -1.0202  1.9808
  425MOL0     H58603   9.326  10.420  10.296  0.3505  3.3005  2.8605
  425MOL0     H58604   9.120  10.320  10.373 -0.1319  0.3269  0.2628
  425MOL0     H58605   9.196  10.205  10.478  0.2015  0.0800  0.6424
  425MOL0     H58606   9.119  10.402  10.608  1.0534  1.7242  1.2618
  425MOL0     H58607   9.287  10.432  10.608  0.3287 -1.1970  0.0895
  425MOL0     H58608   9.097  10.613  10.687  0.1623 -4.3742 -5.3359
  425MOL0     H58609   9.074  10.745  10.865  2.1024  0.4522  1.6026
  425MOL0     H58610   9.006  10.887  10.818  0.2273  0.6084  1.4576
  425MOL0     H58611   9.165  10.899  10.892 -1.0487  1.6410 -0.0668
  425MOL0     H58612   9.059  11.295  10.570 -2.5643  1.2055 -1.0581
  425MOL0     H58613   9.045  11.513  10.510 -2.7352 -2.5079 -2.9444
  425MOL0     H58614   9.341  11.701  10.205 -1.8691  1.4151 -2.1984
  425MOL0     H58615   9.204  11.605  10.188  1.0641  0.5884  0.3935
  425MOL0     H58616   9.198  11.894  10.245  2.5334 -0.4343 -2.0864
  425MOL0     H58617   9.134  11.814  10.100 -0.1175 -0.7515 -0.7648
  425MOL0     H58618   8.954  11.898  10.226  0.3123 -0.5025  0.2206
  425MOL0     H58619   9.009  11.825  10.371 -1.5833  1.6085 -0.5600
  425MOL0     H58620   8.815  11.711  10.277  1.5143  0.7446  1.7779
  425MOL0     H58621   8.930  11.597  10.299 -2.6221  0.7428  2.6080
  425MOL0     H58622   8.999  11.626  10.060  1.2833 -0.1650  1.8010
  425MOL0     H58623   8.848  11.535  10.106  1.1516 -0.4536  2.2782
  425MOL0     H58624   8.791  11.658   9.927  2.8942 -0.0028 -0.2527
  425MOL0     H58625   8.863  11.817   9.968 -1.0737 -0.3078 -1.9666
  425MOL0     H58626   8.694  11.853  10.142 -1.4599 -0.0959  0.7792
  425MOL0     H58627   8.632  11.689  10.114  2.4874 -1.4191 -0.1552
  425MOL0     H58628   8.487  11.846  10.025  2.1333  1.1738  0.4476
  425MOL0     H58629   8.561  11.768   9.870  3.7947 -0.7900 -1.3003
  425MOL0     H58630   9.427  11.503  10.318 -1.5468  2.4607  0.5776
  425MOL0     H58631   9.468  11.271  10.412  1.8631  0.7026  1.6988
  425MOL0     H58632   9.298  10.931  10.378 -0.7510 -0.9746 -0.7709
  425MOL0     H58633   9.273  10.708  10.319 -3.3658  1.1888 -1.4956
  425MOL0     H58634  10.426   9.953  10.882 -0.9137 -1.1724  3.6785
  425MOL0     H58635  10.622   9.954  11.009 -2.7740 -0.1483  2.2053
  425MOL0     H58636  10.885  10.330  11.260  0.0094 -1.2633 -0.8036
  425MOL0     H58637  11.042  10.415  11.421 -0.7371  0.0020  2.0871
  425MOL0     H58638  11.204  10.451  11.609  1.4397 -0.6403  0.2634
  425MOL0     H58639  11.041  10.415  11.679 -0.1928 -1.0355  2.0702
  425MOL0     H58640  11.316  10.397  11.762 -2.4990 -1.9725 -2.5214
  425MOL0     H58641  11.196  10.313  11.866 -1.5324  0.6803  1.4352
  425MOL0     H58642  11.256  10.552  11.947 -0.2858 -1.4005  0.1414
  425MOL0     H58643  11.240  10.611  11.782  0.5636 -1.5993 -0.4910
  425MOL0     H58644  10.984  10.568  11.802 -0.3198 -1.0240  0.0714
  425MOL0     H58645  11.039  10.673  11.931 -4.7552 -0.4475  1.2440
  425MOL0     H58646  10.922  10.316  12.122  0.7971  0.9824  0.2151
  425MOL0     H58647  11.046  10.037  11.626  0.7812 -0.7328 -0.7782
  425MOL0     H58648  10.944   9.846  11.356  3.2465 -0.1055  0.5741
  425MOL0     H58649  10.946   9.856  11.536  0.5949  0.4458 -0.2467
  425MOL0     H58650  10.792   9.877  11.445 -0.0238  1.8176  0.6167
  426MOL0     O58651   0.973   8.217   5.441 -0.1888  0.0105  0.1523
  426MOL0     C58652   1.086   8.258   5.401  0.3276 -0.8997 -0.6326
  426MOL0     O58653   1.203   8.237   5.469 -0.1416  0.2401 -0.8457
  426MOL0     C58654   1.190   8.212   5.601 -0.1099  0.4312 -0.0224
  426MOL0     C58655   1.242   8.095   5.661 -0.4013 -0.2009  0.1661
  426MOL0     C58656   1.261   8.086   5.802  0.7989  0.1003 -0.6695
  426MOL0     C58657   1.210   8.192   5.884 -0.1244  0.8763  0.1567
  426MOL0     O58658   1.228   8.202   6.022 -0.0651  0.1411 -0.4117
  426MOL0     C58659   1.217   8.080   6.104  0.5622  0.3971  0.6583
  426MOL0     C58660   1.185   8.125   6.250  0.5913  0.4327  0.4202
  426MOL0     C58661   1.130   8.003   6.328 -0.5044 -0.3707 -0.2626
  426MOL0     C58662   1.256   7.919   6.344  0.5407  0.2218  1.0419
  426MOL0     C58663   1.213   7.798   6.430  0.1016  0.0809 -0.2654
  426MOL0     C58664   1.325   7.692   6.451  0.4687  0.2777  0.6152
  426MOL0     C58665   1.442   7.746   6.535  0.5848  0.8609  0.4542
  426MOL0     C58666   1.532   7.622   6.573  0.2069 -0.8346 -0.3447
  426MOL0     N58667   1.626   7.579   6.467  0.7288 -0.7417  0.4030
  426MOL0     C58668   1.759   7.550   6.499 -0.1733  0.2987  0.7886
  426MOL0     C58669   1.810   7.500   6.379 -0.4130 -0.4168 -0.0445
  426MOL0     C58670   1.942   7.439   6.351  0.4590 -0.9848 -0.2558
  426MOL0     C58671   2.060   7.507   6.417 -1.2570  0.3126  0.4945
  426MOL0     C58672   2.183   7.430   6.357 -0.7071 -0.7761 -0.1906
  426MOL0     C58673   2.315   7.494   6.411 -0.8932  0.5111 -0.0587
  426MOL0     O58674   2.426   7.412   6.358  0.4986 -0.3729 -0.0672
  426MOL0     C58675   2.472   7.443   6.233 -0.4983  0.9091 -0.2404
  426MOL0     C58676   2.580   7.362   6.183  0.7923 -0.3438 -0.5858
  426MOL0     C58677   2.634   7.385   6.055  0.2975  0.0459 -0.3028
  426MOL0     C58678   2.755   7.293   6.017 -0.4204  0.3662  0.7454
  426MOL0     C58679   2.600   7.505   5.981  0.2406 -0.8488  0.9901
  426MOL0     C58680   2.656   7.552   5.855  0.3589  0.6434 -0.5842
  426MOL0     O58681   2.600   7.649   5.790  0.4253  0.4380 -0.2718
  426MOL0     C58682   2.654   7.707   5.681 -0.9189  0.6686  0.5868
  426MOL0     C58683   2.564   7.784   5.601 -0.4034  0.4530 -0.2866
  426MOL0     C58684   2.610   7.860   5.494  0.2684  0.0946  1.3722
  426MOL0     C58685   2.746   7.866   5.465  0.8924  0.7631 -0.5875
  426MOL0     O58686   2.794   7.953   5.372 -0.3927  0.3289 -0.2162
  426MOL0     C58687   2.707   7.976   5.253  0.1583 -0.9527 -0.7134
  426MOL0     C58688   2.796   7.984   5.127  0.8940  0.5612 -0.3108
  426MOL0     C58689   2.709   7.942   4.998 -0.4390  0.4385 -0.0747
  426MOL0     C58690   2.587   8.033   4.974  0.0657  1.0088 -0.3627
  426MOL0     C58691   2.520   7.994   4.839  0.5086 -0.3460 -0.0980
  426MOL0     C58692   2.426   7.873   4.876 -0.2401 -0.1736  0.7852
  426MOL0     C58693   2.349   7.811   4.750  0.3286 -0.0610  0.0593
  426MOL0     C58694   2.446   7.743   4.655 -0.5620 -0.3750  0.2879
  426MOL0    Cl58695   2.509   7.587   4.710 -0.0065 -0.3943  0.7177
  426MOL0     C58696   2.835   7.791   5.536  0.9142 -0.5591  0.2568
  426MOL0     C58697   2.793   7.709   5.631 -0.0823  0.0250  0.4604
  426MOL0     O58698   2.746   7.474   5.810 -0.7651 -0.0815 -0.4484
  426MOL0     C58699   2.507   7.591   6.046 -0.6477  0.2296 -0.8254
  426MOL0     C58700   2.440   7.564   6.161  0.6882  0.8774 -0.6261
  426MOL0     N58701   1.710   7.489   6.287 -0.1775 -0.8572  0.1338
  426MOL0     N58702   1.602   7.542   6.341 -0.2738  1.2433  0.0528
  426MOL0     C58703   1.151   8.305   5.816  0.1887  0.5506 -0.8256
  426MOL0     C58704   1.136   8.314   5.678 -0.2208 -0.9222 -0.9337
  426MOL0     C58705   1.100   8.329   5.277 -0.5592  0.1745  0.5737
  426MOL0     C58706   1.196   8.428   5.262 -0.5469 -0.1913  0.1775
  426MOL0     C58707   1.205   8.511   5.148 -1.2161  0.4220  0.3345
  426MOL0     C58708   1.114   8.500   5.043 -0.5303  0.1480  0.4017
  426MOL0     O58709   1.140   8.587   4.937  0.2290 -0.1255  0.4405
  426MOL0     C58710   1.096   8.573   4.802 -0.6973  0.7053  0.0723
  426MOL0     C58711   0.947   8.588   4.757  0.3166 -0.3182 -0.1647
  426MOL0     C58712   0.874   8.701   4.832  0.3574  0.4958  0.6732
  426MOL0     C58713   0.933   8.840   4.838  0.3367  0.2683 -0.3463
  426MOL0     C58714   0.972   8.884   4.704 -0.5590  0.1338  0.1190
  426MOL0     C58715   1.002   8.927   4.597 -0.2005 -0.0011  0.0162
  426MOL0     C58716   1.020   8.394   5.053 -0.0189  0.4807 -0.1369
  426MOL0     C58717   1.016   8.303   5.165 -0.7171 -0.5743 -0.7971
  426MOL0     C58718   0.920   8.188   5.149  0.1482 -0.2458  0.9024
  426MOL0     H58719   1.275   8.014   5.596 -2.3871 -1.0387  0.1494
  426MOL0     H58720   1.313   8.010   5.859  4.0547  2.4113 -0.2830
  426MOL0     H58721   1.311   8.024   6.102 -0.3247 -1.2621  2.2438
  426MOL0     H58722   1.149   8.003   6.067 -1.0039  0.6049  2.9547
  426MOL0     H58723   1.273   8.179   6.284  1.9231 -0.7089 -1.0858
  426MOL0     H58724   1.108   8.203   6.253  0.1459  0.0852 -1.0051
  426MOL0     H58725   1.099   8.032   6.429  0.6631  0.6765 -0.1736
  426MOL0     H58726   1.052   7.944   6.281 -0.8296 -0.2984  0.1789
  426MOL0     H58727   1.278   7.861   6.254  0.4195 -2.7205  2.7737
  426MOL0     H58728   1.344   7.975   6.379  0.1031  1.3582  0.3902
  426MOL0     H58729   1.127   7.751   6.380  1.1189 -1.4686 -0.6388
  426MOL0     H58730   1.176   7.832   6.527 -2.0660 -0.5587 -0.8240
  426MOL0     H58731   1.291   7.598   6.497 -0.0633  0.5650  0.8277
  426MOL0     H58732   1.359   7.650   6.356 -1.5527  3.4441 -1.6684
  426MOL0     H58733   1.403   7.776   6.632 -2.4001  0.9329 -0.6698
  426MOL0     H58734   1.507   7.818   6.485  2.4203 -0.1615  1.2820
  426MOL0     H58735   1.589   7.644   6.663 -0.6917  1.2414 -0.2147
  426MOL0     H58736   1.467   7.540   6.605 -0.4055 -0.1880  0.1142
  426MOL0     H58737   1.818   7.573   6.587  1.8553  2.1742 -0.9277
  426MOL0     H58738   1.955   7.441   6.242  0.0539 -1.0268 -0.3055
  426MOL0     H58739   1.944   7.336   6.388  1.2434 -1.3806 -1.3450
  426MOL0     H58740   2.061   7.612   6.385 -1.1526 -0.2562 -1.4778
  426MOL0     H58741   2.065   7.501   6.526 -3.8691  0.9657  0.7274
  426MOL0     H58742   2.197   7.333   6.406  4.7390  0.9945  2.6027
  426MOL0     H58743   2.180   7.419   6.248  1.1318  2.3950 -0.6797
  426MOL0     H58744   2.325   7.598   6.378  3.2465 -1.1339 -5.3502
  426MOL0     H58745   2.306   7.477   6.519 -1.6325 -0.8312 -0.3183
  426MOL0     H58746   2.607   7.266   6.226 -1.2584 -0.3354  0.8431
  426MOL0     H58747   2.843   7.357   6.009 -0.0352 -0.0825  1.3322
  426MOL0     H58748   2.750   7.250   5.916 -0.1918  1.6282  0.1680
  426MOL0     H58749   2.778   7.210   6.084  0.0418  1.0059  1.3940
  426MOL0     H58750   2.460   7.784   5.630  0.0073  1.9189  1.4104
  426MOL0     H58751   2.539   7.913   5.432  0.5029 -0.7892  0.3195
  426MOL0     H58752   2.638   7.892   5.235  0.5907 -1.4279 -0.2059
  426MOL0     H58753   2.655   8.071   5.262 -1.1852 -1.8499  3.5839
  426MOL0     H58754   2.844   8.082   5.126 -0.3287  1.3745  3.4480
  426MOL0     H58755   2.880   7.916   5.143  0.6612  0.2785 -0.2926
  426MOL0     H58756   2.681   7.837   5.005  2.5788 -0.9282 -4.4132
  426MOL0     H58757   2.774   7.955   4.911 -1.1372  0.3645 -0.6084
  426MOL0     H58758   2.608   8.140   4.979  4.1065  0.2936  2.1348
  426MOL0     H58759   2.520   8.011   5.058  0.4171  0.7289 -0.1563
  426MOL0     H58760   2.459   8.080   4.807  1.3253  0.4264  0.3891
  426MOL0     H58761   2.589   7.970   4.758  2.5120  2.8105  0.5304
  426MOL0     H58762   2.348   7.917   4.940 -1.9352 -4.8135  2.4082
  426MOL0     H58763   2.483   7.799   4.933  0.4171  1.0752  1.7950
  426MOL0     H58764   2.299   7.894   4.701 -0.6004 -1.7754 -2.0920
  426MOL0     H58765   2.265   7.743   4.770 -0.2660  0.0813 -1.7894
  426MOL0     H58766   2.531   7.800   4.614 -0.4377 -1.6792 -1.4041
  426MOL0     H58767   2.390   7.721   4.563  1.8577 -0.8824 -1.1810
  426MOL0     H58768   2.937   7.802   5.500  1.0128 -2.3298 -0.1058
  426MOL0     H58769   2.862   7.649   5.689  0.2422 -0.7203 -0.6699
  426MOL0     H58770   2.478   7.684   5.996 -0.2205 -0.1202 -1.7484
  426MOL0     H58771   2.373   7.643   6.194  1.8375  1.0283  1.4919
  426MOL0     H58772   1.113   8.383   5.882 -0.1475  1.5546 -2.1639
  426MOL0     H58773   1.087   8.405   5.644  0.9596  0.4507  0.8404
  426MOL0     H58774   1.272   8.447   5.337  1.9180 -0.5911 -2.0461
  426MOL0     H58775   1.289   8.579   5.140 -3.4592  3.2576 -1.6926
  426MOL0     H58776   1.161   8.632   4.738  1.3371 -3.4015 -2.0535
  426MOL0     H58777   1.135   8.476   4.769  1.3813  1.3778  0.4331
  426MOL0     H58778   0.899   8.494   4.785  0.3462 -0.0875  0.6869
  426MOL0     H58779   0.947   8.614   4.651  3.0467 -0.4638 -0.2813
  426MOL0     H58780   0.783   8.705   4.772  0.1047  1.8682  1.1102
  426MOL0     H58781   0.869   8.662   4.934  2.3199  0.1000  0.6568
  426MOL0     H58782   1.009   8.847   4.916  0.5922 -0.8656 -0.4732
  426MOL0     H58783   0.845   8.895   4.872 -0.4080 -1.6893  1.0817
  426MOL0     H58784   1.029   8.958   4.498  0.7029 -2.3289 -0.5441
  426MOL0     H58785   0.954   8.381   4.968 -1.0547 -1.1692  0.8598
  426MOL0     H58786   0.967   8.091   5.170 -2.2788 -1.4042  1.3145
  426MOL0     H58787   0.842   8.206   5.224 -1.8759  1.0543 -1.4020
  426MOL0     H58788   0.871   8.189   5.051  0.7538  2.1653  0.5782
  427MOL0     O58789   2.481   6.609   0.333 -0.1883  0.6533  0.2785
  427MOL0     C58790   2.376   6.563   0.374  0.6662 -0.9044 -0.2718
  427MOL0     O58791   2.330   6.569   0.506 -0.3876  0.2683 -0.3411
  427MOL0     C58792   2.409   6.639   0.599  0.2231 -0.0500 -0.0909
  427MOL0     C58793   2.424   6.778   0.580  0.9646 -0.2499 -0.5005
  427MOL0     C58794   2.504   6.851   0.676  0.2866  0.4906 -0.3684
  427MOL0     C58795   2.549   6.787   0.793 -0.0054 -0.1335 -0.0192
  427MOL0     O58796   2.608   6.858   0.896 -0.7397  0.3121 -0.0437
  427MOL0     C58797   2.563   6.992   0.928  1.3201  0.4573 -0.0899
  427MOL0     C58798   2.659   7.064   1.028  0.6442  0.3794  0.0039
  427MOL0     C58799   2.604   7.211   1.045  0.4749  0.5395 -0.9759
  427MOL0     C58800   2.642   7.285   1.174  0.6398 -0.7077 -0.9494
  427MOL0     C58801   2.792   7.283   1.222  0.4182  0.1611 -0.4351
  427MOL0     C58802   2.886   7.364   1.121 -0.1343 -0.4184 -0.2585
  427MOL0     C58803   3.041   7.347   1.116  0.1291  0.7921  0.3650
  427MOL0     C58804   3.105   7.410   1.242 -1.2880 -0.1676 -0.2075
  427MOL0     N58805   3.249   7.414   1.233 -0.4092 -0.4889 -0.6640
  427MOL0     C58806   3.328   7.306   1.258 -0.0256  0.5166  0.0671
  427MOL0     C58807   3.454   7.345   1.253  0.1060 -0.4123 -0.6068
  427MOL0     C58808   3.571   7.263   1.292  0.0183  0.5097  0.2502
  427MOL0     C58809   3.585   7.135   1.206  0.3929  0.2992 -0.9018
  427MOL0     C58810   3.649   7.164   1.070 -0.2317  0.8926 -0.1805
  427MOL0     C58811   3.658   7.041   0.983 -0.0861  1.4433 -1.2159
  427MOL0     O58812   3.706   7.073   0.852 -0.2118 -0.1572  0.1024
  427MOL0     C58813   3.843   7.074   0.818 -0.6425  1.5933  0.4286
  427MOL0     C58814   3.950   7.084   0.907  0.3078  0.2147 -0.3147
  427MOL0     C58815   4.084   7.073   0.869  0.3911 -0.0490  0.1207
  427MOL0     C58816   4.186   7.072   0.977 -0.5281 -0.0171 -0.0176
  427MOL0     C58817   4.116   7.048   0.732  0.5473  0.3071 -0.3881
  427MOL0     C58818   4.251   7.031   0.672 -0.2555  0.0189 -0.3194
  427MOL0     O58819   4.263   6.962   0.557  0.6138 -0.0718  0.1532
  427MOL0     C58820   4.390   6.947   0.510 -0.3872  0.1783  0.0391
  427MOL0     C58821   4.457   6.832   0.547  0.2888 -0.1891 -0.1997
  427MOL0     C58822   4.595   6.804   0.511  0.8102 -0.0682  0.1465
  427MOL0     C58823   4.664   6.900   0.430 -0.0580 -0.7081 -1.2834
  427MOL0     O58824   4.804   6.894   0.419 -0.1908 -0.1846  0.0583
  427MOL0     C58825   4.869   6.770   0.428 -0.3807  0.6212 -0.0525
  427MOL0     C58826   5.004   6.765   0.373 -0.0218 -0.1121 -0.2725
  427MOL0     C58827   5.006   6.817   0.230  0.4969 -0.2109 -0.1804
  427MOL0     C58828   5.149   6.832   0.176  0.2469 -0.1478 -0.1894
  427MOL0     C58829   5.156   6.897   0.041  0.1455 -0.4908 -0.2843
  427MOL0     C58830   5.299   6.917  -0.002 -0.1714 -0.5216 -0.1803
  427MOL0     C58831   5.303   6.995  -0.131  0.1754  0.2302  1.0720
  427MOL0     C58832   5.266   6.912  -0.258 -0.2396 -0.6966  0.2485
  427MOL0    Cl58833   5.185   7.026  -0.382 -0.0142 -0.3511 -0.4846
  427MOL0     C58834   4.595   7.016   0.392  0.1031 -0.2478  0.5162
  427MOL0     C58835   4.458   7.039   0.431  0.0047 -0.2008 -0.3185
  427MOL0     O58836   4.345   7.072   0.739 -0.4008 -0.2845 -0.4009
  427MOL0     C58837   4.005   7.039   0.647 -0.3231  0.0638 -0.1175
  427MOL0     C58838   3.877   7.042   0.688  0.2908 -0.4994  0.6963
  427MOL0     N58839   3.453   7.478   1.198 -0.5855 -0.6474 -1.3986
  427MOL0     N58840   3.333   7.522   1.201  0.7060 -0.5322 -0.2352
  427MOL0     C58841   2.543   6.653   0.799  0.0548 -0.0960  0.2921
  427MOL0     C58842   2.469   6.575   0.704 -0.0013 -0.5395  0.0742
  427MOL0     C58843   2.299   6.491   0.273 -0.1063 -0.2424  0.2906
  427MOL0     C58844   2.352   6.461   0.139  0.4591 -0.0404  0.2739
  427MOL0     C58845   2.280   6.381   0.047 -0.0601  0.6837  1.0342
  427MOL0     C58846   2.150   6.330   0.072 -0.7569  0.1943  0.3270
  427MOL0     O58847   2.089   6.247  -0.009  0.0257 -0.0918  0.6511
  427MOL0     C58848   1.951   6.283  -0.030  0.1853 -0.5031  0.1951
  427MOL0     C58849   1.900   6.241  -0.164  0.0771  0.2547  0.4710
  427MOL0     C58850   1.877   6.086  -0.167  0.5854  0.2370 -0.7819
  427MOL0     C58851   1.779   6.048  -0.278  0.3985  0.6898 -0.0373
  427MOL0     C58852   1.726   5.916  -0.242  0.4972  0.4473 -0.4470
  427MOL0     C58853   1.694   5.811  -0.198  0.5123 -0.1577  1.1671
  427MOL0     C58854   2.100   6.353   0.198 -0.4493  0.2723  0.0716
  427MOL0     C58855   2.167   6.437   0.298  0.1377 -0.2991  0.4620
  427MOL0     C58856   2.079   6.467   0.414  1.0756 -0.8589 -0.2930
  427MOL0     H58857   2.380   6.834   0.498  0.6413 -1.3947 -1.1212
  427MOL0     H58858   2.509   6.958   0.655 -0.9095  0.5462 -0.4036
  427MOL0     H58859   2.464   6.987   0.974  1.5494  0.0458  0.3637
  427MOL0     H58860   2.549   7.049   0.835  0.7522  0.1416 -0.1994
  427MOL0     H58861   2.664   7.024   1.129  2.0452 -0.2785 -0.3035
  427MOL0     H58862   2.759   7.072   0.983 -0.5417 -1.6788 -3.3559
  427MOL0     H58863   2.623   7.266   0.952 -0.6839  0.6806 -1.1346
  427MOL0     H58864   2.496   7.194   1.044  0.4930  0.0354  1.3242
  427MOL0     H58865   2.603   7.387   1.171 -0.6985 -1.2197 -3.8936
  427MOL0     H58866   2.589   7.244   1.261  1.4622 -0.8325 -0.4971
  427MOL0     H58867   2.812   7.175   1.217 -2.3437 -0.4478  0.0460
  427MOL0     H58868   2.796   7.317   1.326 -3.6555  4.9082 -1.4516
  427MOL0     H58869   2.863   7.324   1.022  0.4628  0.7411 -0.8841
  427MOL0     H58870   2.854   7.468   1.109 -0.9981 -0.2119  2.9949
  427MOL0     H58871   3.082   7.394   1.026  2.3390 -1.4475  0.1184
  427MOL0     H58872   3.065   7.241   1.116  1.1756  1.0121  0.8288
  427MOL0     H58873   3.064   7.511   1.243  1.2232  0.9170  0.5935
  427MOL0     H58874   3.075   7.359   1.334 -3.2612 -0.3849 -0.9186
  427MOL0     H58875   3.280   7.211   1.282 -0.3323  0.6026 -0.1844
  427MOL0     H58876   3.552   7.221   1.392  2.1382 -1.2451  0.0059
  427MOL0     H58877   3.659   7.327   1.301  0.0593  0.4412  0.3485
  427MOL0     H58878   3.662   7.074   1.254  1.6230  1.5654 -1.2046
  427MOL0     H58879   3.492   7.081   1.186  0.0938  0.8455 -0.9980
  427MOL0     H58880   3.596   7.242   1.014  1.7347  1.0265 -1.9694
  427MOL0     H58881   3.751   7.203   1.080  0.7583 -1.6394  0.1851
  427MOL0     H58882   3.722   6.967   1.031 -1.4071  2.7598  2.9317
  427MOL0     H58883   3.554   7.005   0.986  0.5236 -0.3233  0.3654
  427MOL0     H58884   3.921   7.101   1.011 -1.7737  1.0326 -0.9739
  427MOL0     H58885   4.235   6.975   0.992 -0.7129  0.3728  4.7802
  427MOL0     H58886   4.132   7.076   1.073  0.4111 -0.8588  0.5735
  427MOL0     H58887   4.261   7.149   0.958 -1.7428  1.8671  2.3411
  427MOL0     H58888   4.410   6.749   0.600  1.8094 -1.7334 -1.1498
  427MOL0     H58889   4.623   6.706   0.548 -2.4687 -1.0500  0.3632
  427MOL0     H58890   4.868   6.724   0.527 -1.0254  2.3825  0.7956
  427MOL0     H58891   4.812   6.695   0.372  1.3191 -0.2959 -0.6369
  427MOL0     H58892   5.071   6.816   0.443 -1.6987 -2.1144  3.0302
  427MOL0     H58893   5.025   6.658   0.377 -0.1698 -0.1050  2.0464
  427MOL0     H58894   4.948   6.910   0.229 -0.3590 -0.6934  1.5549
  427MOL0     H58895   4.964   6.744   0.160  0.9919 -0.0914 -0.6103
  427MOL0     H58896   5.196   6.734   0.169  1.5051  0.5469 -2.3965
  427MOL0     H58897   5.202   6.892   0.250  0.8077  2.4224 -2.5306
  427MOL0     H58898   5.086   6.859  -0.033  0.1101 -0.9025 -0.0411
  427MOL0     H58899   5.114   6.996   0.064  1.2876 -0.4028  1.5909
  427MOL0     H58900   5.353   6.822  -0.004  0.0662 -0.4188  0.6136
  427MOL0     H58901   5.345   6.973   0.081 -0.1436 -0.4202 -0.2643
  427MOL0     H58902   5.404   7.033  -0.148 -0.7855  1.2861 -3.6210
  427MOL0     H58903   5.248   7.088  -0.114 -0.2110 -0.1423  1.9455
  427MOL0     H58904   5.204   6.824  -0.242 -1.9775  0.2283 -1.0379
  427MOL0     H58905   5.359   6.872  -0.301  0.0647  1.7056 -1.6102
  427MOL0     H58906   4.644   7.086   0.326  0.7508 -0.5531  0.6721
  427MOL0     H58907   4.405   7.132   0.410 -1.1213 -1.5537 -4.1760
  427MOL0     H58908   4.016   7.020   0.540  4.4884  1.5768 -0.1344
  427MOL0     H58909   3.790   7.018   0.628  2.2095 -3.1426 -1.2939
  427MOL0     H58910   2.571   6.607   0.893 -0.9226  0.7407  1.0151
  427MOL0     H58911   2.453   6.473   0.737  4.5464 -1.9659 -1.3809
  427MOL0     H58912   2.445   6.500   0.100 -0.1420  0.8197 -0.3522
  427MOL0     H58913   2.318   6.347  -0.049 -0.7684  2.8550 -0.0827
  427MOL0     H58914   1.895   6.235   0.051 -0.8216  0.2286 -0.0383
  427MOL0     H58915   1.925   6.389  -0.025 -1.5433 -0.8249 -1.0135
  427MOL0     H58916   1.968   6.259  -0.247  0.9556 -2.0446  0.6092
  427MOL0     H58917   1.802   6.287  -0.183  0.5644  0.7871 -0.7984
  427MOL0     H58918   1.971   6.031  -0.156 -0.7737 -1.7259  2.5835
  427MOL0     H58919   1.828   6.064  -0.072  1.8277  0.8998  0.0460
  427MOL0     H58920   1.816   6.059  -0.381  1.2375  2.0684  0.3786
  427MOL0     H58921   1.695   6.118  -0.288 -2.8179 -2.8726 -0.2122
  427MOL0     H58922   1.655   5.716  -0.170  1.4514 -0.5764  1.0992
  427MOL0     H58923   2.002   6.317   0.227  0.9243 -1.2493  3.4947
  427MOL0     H58924   2.124   6.486   0.512  3.4769  0.3724 -1.5548
  427MOL0     H58925   2.040   6.567   0.392  2.2322 -0.4289 -0.4628
  427MOL0     H58926   2.004   6.389   0.430 -0.9618  0.5754 -2.2186
  428MOL0     O58927   4.637   7.023   5.851 -0.3153 -0.1062  0.0671
  428MOL0     C58928   4.573   6.950   5.930 -0.0871 -0.4601  0.1846
  428MOL0     O58929   4.590   6.814   5.945  0.1941 -0.2698  0.6520
  428MOL0     C58930   4.700   6.746   5.888 -0.4065 -0.6963 -0.3479
  428MOL0     C58931   4.829   6.802   5.889 -0.7198  0.2310  0.4497
  428MOL0     C58932   4.937   6.728   5.839  0.3224  0.7471  0.6802
  428MOL0     C58933   4.923   6.592   5.805  0.4431 -0.7103  0.4319
  428MOL0     O58934   5.017   6.518   5.737 -0.5337 -0.1436  0.1289
  428MOL0     C58935   5.091   6.601   5.648 -0.8298  0.0405  0.4412
  428MOL0     C58936   5.133   6.506   5.534  0.8741  0.1660  0.1806
  428MOL0     C58937   5.227   6.578   5.439  0.2271 -0.1283  0.1884
  428MOL0     C58938   5.310   6.465   5.381  0.0507 -0.2010 -0.1694
  428MOL0     C58939   5.401   6.525   5.266  0.0185 -0.3545 -0.0988
  428MOL0     C58940   5.463   6.416   5.175 -0.0609  0.0401 -0.6287
  428MOL0     C58941   5.553   6.469   5.064 -0.7921 -0.2394  0.7034
  428MOL0     C58942   5.682   6.521   5.117 -0.5558  0.0794  0.0026
  428MOL0     N58943   5.751   6.440   5.209 -0.8069  0.6795 -0.1114
  428MOL0     C58944   5.866   6.367   5.169 -0.1890  0.6596  0.1032
  428MOL0     C58945   5.907   6.307   5.281 -0.1778  0.0751 -0.0861
  428MOL0     C58946   6.022   6.208   5.285 -0.0053  0.1443  0.0879
  428MOL0     C58947   5.976   6.062   5.289  1.0652 -0.2268  0.2142
  428MOL0     C58948   5.851   6.022   5.378  0.6413  0.3811  0.4561
  428MOL0     C58949   5.710   6.039   5.314  0.3724 -0.3973 -0.1000
  428MOL0     O58950   5.668   5.918   5.252  0.1574  0.1824  0.2879
  428MOL0     C58951   5.682   5.900   5.116 -0.4710 -0.0437 -0.5252
  428MOL0     C58952   5.704   5.994   5.016 -0.0638  1.0441  0.3624
  428MOL0     C58953   5.726   5.960   4.884  0.3981 -0.7681 -0.2718
  428MOL0     C58954   5.749   6.068   4.780 -1.0909 -0.0152  0.0945
  428MOL0     C58955   5.712   5.826   4.833  0.2415 -0.2344 -0.0717
  428MOL0     C58956   5.708   5.776   4.695 -0.6415 -1.1396 -0.2241
  428MOL0     O58957   5.749   5.649   4.673 -0.3808  0.0907  0.3076
  428MOL0     C58958   5.771   5.611   4.542 -0.7061  0.7015  0.6817
  428MOL0     C58959   5.667   5.538   4.484  0.1752 -0.8077  0.6771
  428MOL0     C58960   5.667   5.502   4.347  0.3657 -0.4917 -0.4239
  428MOL0     C58961   5.779   5.539   4.266 -0.1035  0.3457  0.0962
  428MOL0     O58962   5.777   5.506   4.132  0.5648 -0.6658  0.0162
  428MOL0     C58963   5.788   5.625   4.041 -0.6062 -0.2116  0.1976
  428MOL0     C58964   5.698   5.599   3.920  0.0730  0.7714  0.2142
  428MOL0     C58965   5.548   5.586   3.966  0.4496 -0.7912 -0.1458
  428MOL0     C58966   5.456   5.545   3.849  0.0785 -0.1996 -0.4177
  428MOL0     C58967   5.416   5.662   3.757 -0.1700  0.4607  0.4298
  428MOL0     C58968   5.316   5.633   3.651  0.8396  0.4939  0.3752
  428MOL0     C58969   5.273   5.758   3.569  0.4732  0.0906 -0.2448
  428MOL0     C58970   5.351   5.785   3.440  0.3496  0.4913 -0.7098
  428MOL0    Cl58971   5.323   5.670   3.316 -0.3166  0.4803  0.0875
  428MOL0     C58972   5.880   5.622   4.328 -0.8471 -0.0009  0.1563
  428MOL0     C58973   5.885   5.639   4.463 -0.6321 -1.1552 -0.0508
  428MOL0     O58974   5.679   5.856   4.604 -0.1343  0.0194  0.5884
  428MOL0     C58975   5.692   5.726   4.938 -0.5158  0.0074  0.3811
  428MOL0     C58976   5.678   5.769   5.072 -0.3995 -0.5628  0.1578
  428MOL0     N58977   5.834   6.353   5.385  0.2851 -0.4331  0.0480
  428MOL0     N58978   5.739   6.430   5.341  0.5304  0.3826 -0.4862
  428MOL0     C58979   4.788   6.537   5.809 -1.3031 -0.8059  0.1062
  428MOL0     C58980   4.683   6.610   5.857  0.0773 -0.4049  0.5800
  428MOL0     C58981   4.454   7.012   5.980 -0.5123 -0.7764  0.2709
  428MOL0     C58982   4.468   7.140   6.019  0.0929 -1.3672  0.2657
  428MOL0     C58983   4.370   7.220   6.084  0.1206  0.5350 -0.2721
  428MOL0     C58984   4.241   7.162   6.098 -0.0938 -0.6499  0.6232
  428MOL0     O58985   4.130   7.233   6.147 -0.0519  0.8963 -0.0034
  428MOL0     C58986   4.019   7.158   6.197 -0.5299  1.0421  1.2604
  428MOL0     C58987   3.975   7.216   6.330  0.0223  0.2788 -0.2393
  428MOL0     C58988   3.923   7.355   6.309  0.8751 -0.2923  0.4451
  428MOL0     C58989   3.820   7.399   6.419  0.4467 -0.5749  1.2666
  428MOL0     C58990   3.876   7.441   6.552 -0.0116  1.3478  0.7378
  428MOL0     C58991   3.930   7.507   6.633 -0.4773 -1.2920  0.2774
  428MOL0     C58992   4.229   7.032   6.041  0.0504  0.7840 -1.3488
  428MOL0     C58993   4.333   6.952   6.001 -0.1435 -0.5018  0.2035
  428MOL0     C58994   4.303   6.821   5.946  0.0949  0.4812 -0.0333
  428MOL0     H58995   4.832   6.902   5.929 -1.5152  0.2466  0.4965
  428MOL0     H58996   5.033   6.778   5.834  1.6091 -1.6873 -2.8108
  428MOL0     H58997   5.179   6.654   5.688 -2.3466  1.5909  1.9448
  428MOL0     H58998   5.026   6.680   5.609 -1.2475 -1.4909 -2.1795
  428MOL0     H58999   5.185   6.426   5.587  1.1824  0.5862  0.5162
  428MOL0     H59000   5.043   6.472   5.483  1.4923 -0.5511 -0.4634
  428MOL0     H59001   5.172   6.620   5.355  0.3436 -3.0073 -1.4532
  428MOL0     H59002   5.305   6.638   5.486  2.0487 -1.9882 -0.3083
  428MOL0     H59003   5.367   6.422   5.464  0.1159 -0.9403 -0.5940
  428MOL0     H59004   5.247   6.380   5.356 -2.4127  0.6255  2.6656
  428MOL0     H59005   5.489   6.570   5.314 -1.1008  1.7108  0.1549
  428MOL0     H59006   5.358   6.591   5.190  1.1773 -2.8135 -3.0991
  428MOL0     H59007   5.508   6.341   5.240 -2.1126 -0.9706 -0.3064
  428MOL0     H59008   5.387   6.365   5.116 -1.1092  3.8979 -2.9959
  428MOL0     H59009   5.503   6.547   5.006  1.4614  0.9066  0.1689
  428MOL0     H59010   5.583   6.387   4.998  1.4194  1.0703 -0.0182
  428MOL0     H59011   5.750   6.532   5.033 -0.4620 -0.5530 -0.0108
  428MOL0     H59012   5.653   6.613   5.168  0.8947 -0.6780  2.3783
  428MOL0     H59013   5.902   6.361   5.067  1.9877 -1.2546  0.8953
  428MOL0     H59014   6.099   6.219   5.362  0.3858 -0.9891 -0.1154
  428MOL0     H59015   6.075   6.223   5.191  1.1325 -1.5556  0.4072
  428MOL0     H59016   5.959   6.021   5.189 -0.3134  1.3962 -0.2550
  428MOL0     H59017   6.061   6.002   5.322  0.3889 -2.2438 -1.4909
  428MOL0     H59018   5.866   5.924   5.424 -3.8228 -0.0148  1.4571
  428MOL0     H59019   5.861   6.099   5.455  0.2731  2.3746 -1.3662
  428MOL0     H59020   5.636   6.062   5.391  1.5406 -0.2363  1.0099
  428MOL0     H59021   5.712   6.130   5.254  0.5564 -1.1886 -1.3279
  428MOL0     H59022   5.713   6.097   5.050  1.3573  0.5416  1.6802
  428MOL0     H59023   5.849   6.049   4.739 -0.7154 -0.1696  1.0737
  428MOL0     H59024   5.747   6.171   4.818  2.3268  0.2111 -0.0016
  428MOL0     H59025   5.671   6.067   4.703 -1.6376  0.7543  0.6279
  428MOL0     H59026   5.582   5.513   4.547 -0.6499 -0.0085 -0.0990
  428MOL0     H59027   5.594   5.440   4.297 -1.4810  1.6998 -0.6412
  428MOL0     H59028   5.764   5.718   4.094  0.8182  0.1717  0.2135
  428MOL0     H59029   5.892   5.636   4.009 -0.0518  1.2456  2.2527
  428MOL0     H59030   5.703   5.685   3.852 -1.2637  2.6397  2.3434
  428MOL0     H59031   5.731   5.508   3.869 -1.6571 -0.8728  1.8905
  428MOL0     H59032   5.516   5.686   3.994  2.2199 -0.8090  2.3061
  428MOL0     H59033   5.537   5.514   4.048  1.0675  0.5913  1.2076
  428MOL0     H59034   5.366   5.502   3.893  0.4302 -1.7805 -1.1776
  428MOL0     H59035   5.503   5.461   3.798 -1.0520 -1.7800  1.0537
  428MOL0     H59036   5.369   5.739   3.818  0.8139  1.1820  0.2999
  428MOL0     H59037   5.504   5.699   3.704  1.2237 -3.0686 -0.0236
  428MOL0     H59038   5.229   5.613   3.713 -0.8705  1.4370 -1.5815
  428MOL0     H59039   5.343   5.544   3.593  3.5786  2.3016 -1.3345
  428MOL0     H59040   5.271   5.844   3.637 -2.7393  0.1204 -0.1991
  428MOL0     H59041   5.170   5.738   3.536  1.4520  0.5092 -3.9729
  428MOL0     H59042   5.455   5.799   3.471 -0.1342  1.6558  0.5102
  428MOL0     H59043   5.316   5.881   3.400 -1.0405  0.6387  0.7600
  428MOL0     H59044   5.965   5.651   4.267 -0.4526 -1.3407  0.0491
  428MOL0     H59045   5.973   5.683   4.510 -0.4312 -1.6578  0.0503
  428MOL0     H59046   5.711   5.620   4.924 -2.5272 -0.2421 -0.8479
  428MOL0     H59047   5.665   5.693   5.149  0.0757  2.3025  3.2949
  428MOL0     H59048   4.783   6.435   5.772  2.0844 -1.1711  0.3390
  428MOL0     H59049   4.582   6.573   5.866 -0.6762  1.1817 -0.8384
  428MOL0     H59050   4.564   7.190   6.012 -1.4098  2.0270  1.5476
  428MOL0     H59051   4.380   7.321   6.121 -0.7430  0.9318 -1.0609
  428MOL0     H59052   3.940   7.178   6.124  0.6837  0.5981 -0.2253
  428MOL0     H59053   4.029   7.051   6.218  2.6702  1.0265  0.1589
  428MOL0     H59054   4.047   7.210   6.413  0.5395  3.0116 -0.3882
  428MOL0     H59055   3.896   7.147   6.362  1.0963 -0.0789  1.8134
  428MOL0     H59056   4.004   7.428   6.303  0.2294  0.5786  1.8353
  428MOL0     H59057   3.872   7.353   6.213  1.1216  1.7129  0.2322
  428MOL0     H59058   3.754   7.311   6.421 -1.6504  0.9218  2.1539
  428MOL0     H59059   3.764   7.487   6.387 -1.6661 -2.2936 -0.0256
  428MOL0     H59060   3.952   7.565   6.721 -0.9647  0.0869 -0.4779
  428MOL0     H59061   4.132   6.983   6.045 -0.4549  1.7729 -1.2605
  428MOL0     H59062   4.338   6.828   5.843  2.0230 -1.3249  0.4383
  428MOL0     H59063   4.359   6.739   5.992  0.1724 -0.9921 -2.5929
  428MOL0     H59064   4.195   6.803   5.952  0.0602  1.0547  2.1547
  429MOL0     O59065   4.197   6.359   1.994  0.2468  0.2672 -0.2782
  429MOL0     C59066   4.294   6.283   1.989 -0.1629 -0.5103  0.8689
  429MOL0     O59067   4.298   6.149   1.966  0.2349 -0.2759  0.2118
  429MOL0     C59068   4.182   6.093   1.924  0.2434  0.3993 -0.6269
  429MOL0     C59069   4.119   6.128   1.807  0.7385  0.3896 -0.2265
  429MOL0     C59070   3.987   6.070   1.782  1.4225  0.3816  0.0736
  429MOL0     C59071   3.935   5.978   1.868  0.0947 -0.5014 -1.1119
  429MOL0     O59072   3.805   5.946   1.844 -0.1204 -0.0700  0.4315
  429MOL0     C59073   3.739   5.832   1.898 -0.1240  0.0164  0.4663
  429MOL0     C59074   3.750   5.699   1.821  0.3853 -0.8548 -0.2261
  429MOL0     C59075   3.690   5.576   1.884 -0.2358  0.1782 -0.4276
  429MOL0     C59076   3.543   5.542   1.837 -0.3912 -0.5848 -0.2662
  429MOL0     C59077   3.460   5.455   1.942 -1.0924 -1.3143  0.1703
  429MOL0     C59078   3.324   5.425   1.873 -0.3241 -0.1061 -0.0119
  429MOL0     C59079   3.223   5.386   1.984  0.1854 -0.2747  0.2911
  429MOL0     C59080   3.085   5.332   1.935 -0.3404 -0.1934  0.5686
  429MOL0     N59081   2.990   5.304   2.035 -0.0636  0.4551 -0.5343
  429MOL0     C59082   2.900   5.198   2.039  0.1076 -0.2469  0.0447
  429MOL0     C59083   2.812   5.234   2.137 -0.5373 -0.3182  0.2139
  429MOL0     C59084   2.696   5.156   2.187  0.3280 -0.6651  0.3060
  429MOL0     C59085   2.580   5.249   2.166  0.3355  0.0844  0.2146
  429MOL0     C59086   2.478   5.220   2.276  0.3730 -0.0004 -1.2207
  429MOL0     C59087   2.366   5.329   2.276 -0.2439 -0.2029  0.2923
  429MOL0     O59088   2.278   5.280   2.376  0.1750  0.8598  0.3531
  429MOL0     C59089   2.173   5.195   2.328  0.1347 -0.1502 -0.3733
  429MOL0     C59090   2.166   5.149   2.195 -0.0167  1.2582  0.1879
  429MOL0     C59091   2.070   5.052   2.169  0.3806 -0.9451 -0.4566
  429MOL0     C59092   2.053   5.020   2.015 -0.4346  0.1595 -0.0382
  429MOL0     C59093   1.994   4.996   2.280  0.2672  0.1606 -0.6701
  429MOL0     C59094   1.917   4.867   2.266  0.3227 -0.3137 -0.6723
  429MOL0     O59095   1.829   4.836   2.367  0.3120 -1.0165  0.2172
  429MOL0     C59096   1.720   4.760   2.336  0.2043  0.2657 -0.1270
  429MOL0     C59097   1.715   4.620   2.305  0.4564 -0.6534 -0.3731
  429MOL0     C59098   1.596   4.560   2.269 -0.4567  0.6798 -1.1436
  429MOL0     C59099   1.483   4.627   2.255 -0.1958 -0.1777 -1.2477
  429MOL0     O59100   1.371   4.555   2.239 -0.3963 -0.3776 -0.1178
  429MOL0     C59101   1.270   4.618   2.157  0.5664  0.2126  0.1192
  429MOL0     C59102   1.168   4.495   2.148 -0.4214  0.3308 -0.8278
  429MOL0     C59103   1.057   4.521   2.046  0.0259 -0.4245 -0.2171
  429MOL0     C59104   0.941   4.423   2.069 -0.3777  0.3439 -0.0780
  429MOL0     C59105   0.834   4.418   1.962  0.0202  0.3000 -0.0563
  429MOL0     C59106   0.704   4.357   2.015 -0.8123 -0.6286  0.1942
  429MOL0     C59107   0.620   4.457   2.099  0.5833 -0.2061  0.0916
  429MOL0     C59108   0.510   4.398   2.191 -0.1333 -0.4807  0.3084
  429MOL0    Cl59109   0.393   4.284   2.112  0.4969 -0.3821 -0.2025
  429MOL0     C59110   1.478   4.768   2.288 -0.4963  0.1352 -0.1554
  429MOL0     C59111   1.601   4.840   2.325 -0.1550  0.2023  0.8044
  429MOL0     O59112   1.938   4.801   2.176  0.5238  0.7246  0.1648
  429MOL0     C59113   2.009   5.047   2.409 -0.6390 -0.5435 -0.4500
  429MOL0     C59114   2.085   5.158   2.424 -0.1360  0.9180  0.3306
  429MOL0     N59115   2.848   5.364   2.181  0.4493  0.5935 -0.0315
  429MOL0     N59116   2.952   5.401   2.121  0.4278  1.1823  0.1951
  429MOL0     C59117   4.012   5.940   1.982  0.5852  0.8557  0.6196
  429MOL0     C59118   4.126   6.000   2.013  0.2282  0.8112 -0.2212
  429MOL0     C59119   4.419   6.344   2.040 -0.7011 -0.2118 -0.0733
  429MOL0     C59120   4.519   6.255   2.074 -0.0525  0.9389 -0.4582
  429MOL0     C59121   4.643   6.301   2.122  0.7621  0.8369 -0.2386
  429MOL0     C59122   4.665   6.434   2.148  0.5696  0.5227 -0.7662
  429MOL0     O59123   4.772   6.478   2.215  0.1894 -0.2546  0.5301
  429MOL0     C59124   4.828   6.606   2.183  0.1294  0.6543  0.3447
  429MOL0     C59125   4.970   6.607   2.238  0.0833  0.2936 -0.1977
  429MOL0     C59126   5.037   6.720   2.180  0.5923 -0.3077  0.0695
  429MOL0     C59127   5.191   6.734   2.205 -0.0607 -0.9422  0.1634
  429MOL0     C59128   5.215   6.834   2.308 -0.0901 -1.2081 -0.5207
  429MOL0     C59129   5.213   6.924   2.389  0.0930  0.1067  0.1787
  429MOL0     C59130   4.561   6.521   2.108 -0.6453 -0.4509 -1.0304
  429MOL0     C59131   4.443   6.484   2.057  0.8868 -0.3576 -0.3011
  429MOL0     C59132   4.347   6.597   2.016  0.1092  0.3156 -0.2026
  429MOL0     H59133   4.174   6.191   1.739 -0.4917  0.4605 -1.1995
  429MOL0     H59134   3.937   6.103   1.691  1.0605  1.3562  0.6147
  429MOL0     H59135   3.632   5.855   1.894  0.2959  2.1232  0.3197
  429MOL0     H59136   3.758   5.814   2.005  0.0413  0.1835  0.4640
  429MOL0     H59137   3.708   5.708   1.720 -1.3562  0.3528  0.5502
  429MOL0     H59138   3.858   5.684   1.813  0.2878 -1.0683 -1.3089
  429MOL0     H59139   3.757   5.494   1.855  1.6302  2.1608 -2.0740
  429MOL0     H59140   3.698   5.571   1.993  1.5729  0.6394 -0.5051
  429MOL0     H59141   3.489   5.637   1.832  0.1221 -0.2189  0.7350
  429MOL0     H59142   3.537   5.502   1.736 -1.6846  0.5519 -0.6664
  429MOL0     H59143   3.446   5.518   2.031 -2.0135  0.2724 -1.0662
  429MOL0     H59144   3.504   5.360   1.974  4.1420  0.5338 -0.4486
  429MOL0     H59145   3.273   5.512   1.830 -0.5689  0.5409  1.5042
  429MOL0     H59146   3.332   5.341   1.803  2.7643 -0.8010  1.0260
  429MOL0     H59147   3.214   5.472   2.051  2.9553 -0.0996  0.5300
  429MOL0     H59148   3.265   5.306   2.045  1.6666 -0.3438 -0.7572
  429MOL0     H59149   3.044   5.398   1.858  0.7691  2.8433  2.3945
  429MOL0     H59150   3.114   5.243   1.878  0.4569 -0.5484  1.4892
  429MOL0     H59151   2.898   5.097   1.999 -1.5072 -0.7787  1.3346
  429MOL0     H59152   2.703   5.139   2.295 -0.4118 -0.4782  0.3887
  429MOL0     H59153   2.691   5.064   2.129  4.1425 -0.4905 -0.5227
  429MOL0     H59154   2.599   5.357   2.162 -4.8042  1.1778 -0.7685
  429MOL0     H59155   2.536   5.215   2.073 -1.4470 -0.7535  1.3068
  429MOL0     H59156   2.431   5.121   2.267 -2.9203  1.5240 -2.0095
  429MOL0     H59157   2.521   5.214   2.377  2.6148 -0.5873 -2.1503
  429MOL0     H59158   2.411   5.425   2.305 -1.9798 -0.4242  4.3415
  429MOL0     H59159   2.319   5.334   2.178 -0.4391 -1.4360  0.3107
  429MOL0     H59160   2.237   5.173   2.116  0.6087 -2.2698 -0.4547
  429MOL0     H59161   1.953   5.050   1.982 -0.1645  0.3967 -0.6569
  429MOL0     H59162   2.079   4.915   1.999  1.6937  0.8539 -1.6395
  429MOL0     H59163   2.118   5.082   1.953  2.6021 -2.8568 -0.1923
  429MOL0     H59164   1.806   4.566   2.330  0.8932  0.9526  1.8523
  429MOL0     H59165   1.588   4.452   2.261  1.7733  0.5636 -2.8213
  429MOL0     H59166   1.227   4.708   2.202  0.2399 -0.0652  0.3737
  429MOL0     H59167   1.308   4.648   2.058  1.5452  1.9275  0.9585
  429MOL0     H59168   1.214   4.402   2.113 -1.8361  0.6444 -3.7434
  429MOL0     H59169   1.118   4.482   2.244  0.1085  0.2638 -0.5545
  429MOL0     H59170   1.095   4.501   1.945  0.4068  2.9375 -0.8865
  429MOL0     H59171   1.015   4.621   2.061 -2.9688 -1.0140 -3.2489
  429MOL0     H59172   0.896   4.444   2.167 -1.4941 -1.7131 -0.0954
  429MOL0     H59173   0.989   4.325   2.071  1.5033  1.2139 -0.2776
  429MOL0     H59174   0.807   4.517   1.923 -0.2959 -0.7337 -2.6453
  429MOL0     H59175   0.882   4.370   1.876  1.8152  4.2729 -1.5311
  429MOL0     H59176   0.720   4.269   2.077  1.4767 -0.6334 -0.3361
  429MOL0     H59177   0.642   4.322   1.931 -1.6159 -1.4228  1.0923
  429MOL0     H59178   0.576   4.535   2.036  1.1368  0.4546  0.5070
  429MOL0     H59179   0.691   4.506   2.167  0.8733  1.4801 -1.3572
  429MOL0     H59180   0.458   4.488   2.227 -0.3256 -0.2938 -0.4124
  429MOL0     H59181   0.564   4.348   2.272  0.2089 -2.1769 -0.9106
  429MOL0     H59182   1.382   4.819   2.287 -0.0911  0.9077 -0.6411
  429MOL0     H59183   1.601   4.948   2.337 -1.1288  0.4177 -0.8587
  429MOL0     H59184   1.953   5.005   2.492  0.3383 -1.5582 -0.2675
  429MOL0     H59185   2.096   5.198   2.524  2.8630 -0.2576  0.5642
  429MOL0     H59186   3.961   5.877   2.054  0.9927 -1.2050 -0.7886
  429MOL0     H59187   4.168   5.977   2.111 -0.8897 -3.7505 -0.6105
  429MOL0     H59188   4.508   6.147   2.070  3.0447  0.5009  0.0093
  429MOL0     H59189   4.717   6.228   2.150  0.2129  0.1981 -0.4390
  429MOL0     H59190   4.826   6.618   2.074 -0.9566  0.1370  0.2977
  429MOL0     H59191   4.763   6.681   2.229 -2.1262 -1.4991  0.8989
  429MOL0     H59192   5.029   6.518   2.214 -2.7583 -0.9686 -3.3490
  429MOL0     H59193   4.976   6.621   2.346 -2.2400  4.6310 -0.3824
  429MOL0     H59194   5.027   6.720   2.071 -0.4251 -0.0545  0.1487
  429MOL0     H59195   4.975   6.802   2.217 -2.2755 -2.1920 -0.2212
  429MOL0     H59196   5.233   6.777   2.113  2.8249 -3.5973  0.0927
  429MOL0     H59197   5.241   6.638   2.219  0.7576 -0.7017 -0.9406
  429MOL0     H59198   5.199   7.003   2.459 -4.9221  0.4204 -0.7873
  429MOL0     H59199   4.571   6.628   2.123 -0.2147 -0.8079  1.7738
  429MOL0     H59200   4.390   6.694   2.044  0.4876 -0.5704  2.5397
  429MOL0     H59201   4.320   6.589   1.910  2.3972 -0.8270 -0.7542
  429MOL0     H59202   4.256   6.592   2.077 -0.3576  1.3720 -0.7700
  430MOL0     O59203   3.490   7.210   3.351  0.0228  0.0693  0.5226
  430MOL0     C59204   3.396   7.249   3.285 -0.7468 -0.6297  0.4918
  430MOL0     O59205   3.273   7.301   3.340 -0.2031 -0.5611  0.6585
  430MOL0     C59206   3.232   7.273   3.475  0.0933 -0.1700  1.3406
  430MOL0     C59207   3.113   7.338   3.515  0.0607 -1.2871 -0.5988
  430MOL0     C59208   3.048   7.311   3.639 -0.7294 -0.3701  1.2711
  430MOL0     C59209   3.104   7.225   3.728  0.0620 -0.1342  0.4523
  430MOL0     O59210   3.043   7.175   3.839  0.4584 -0.6166 -0.0733
  430MOL0     C59211   2.913   7.225   3.873 -0.1592  0.1426 -0.1410
  430MOL0     C59212   2.906   7.365   3.939 -0.5183 -0.3254  0.5332
  430MOL0     C59213   2.993   7.377   4.071  0.4212 -0.0114  0.1379
  430MOL0     C59214   2.971   7.501   4.161 -0.3487  0.2771  0.4006
  430MOL0     C59215   3.046   7.517   4.296  0.6526  1.1240  0.8534
  430MOL0     C59216   2.999   7.405   4.398 -0.6386 -0.4782 -0.1066
  430MOL0     C59217   3.057   7.427   4.541  0.0265 -0.2845 -0.7212
  430MOL0     C59218   2.997   7.562   4.592  0.3022 -0.3609 -0.3572
  430MOL0     N59219   3.020   7.583   4.738  0.0364 -0.0079  0.1110
  430MOL0     C59220   3.138   7.561   4.803 -0.7357  0.9328 -0.0644
  430MOL0     C59221   3.099   7.578   4.932  0.0567  0.5095  0.2145
  430MOL0     C59222   3.185   7.598   5.051 -0.6430 -0.7634  0.1599
  430MOL0     C59223   3.173   7.744   5.106  0.3618  0.6055  0.2345
  430MOL0     C59224   3.172   7.742   5.257  0.0856 -0.7842 -1.0080
  430MOL0     C59225   3.297   7.697   5.322  0.7261  0.3355  0.0288
  430MOL0     O59226   3.398   7.787   5.303 -0.2550  0.3318  0.0356
  430MOL0     C59227   3.528   7.753   5.336  0.6497 -0.4054  0.1312
  430MOL0     C59228   3.624   7.849   5.296 -0.0144  0.1003  0.2356
  430MOL0     C59229   3.758   7.827   5.320 -0.0147 -0.1319  1.3035
  430MOL0     C59230   3.848   7.939   5.256 -0.1345  0.5031  0.8989
  430MOL0     C59231   3.798   7.716   5.407 -0.8542  0.4566  0.4944
  430MOL0     C59232   3.942   7.690   5.450  0.0411  0.2240  0.2499
  430MOL0     O59233   3.962   7.599   5.555 -0.0471 -0.1970 -0.2332
  430MOL0     C59234   4.083   7.574   5.603 -0.0229  0.1911 -0.2327
  430MOL0     C59235   4.125   7.594   5.739  0.0187  0.0188  0.3113
  430MOL0     C59236   4.253   7.571   5.782 -0.1878 -0.9383 -0.5166
  430MOL0     C59237   4.354   7.526   5.694 -0.1814 -0.5891  0.1075
  430MOL0     O59238   4.481   7.509   5.751 -0.4324  0.0501 -0.0169
  430MOL0     C59239   4.593   7.481   5.662 -1.3329  0.8706 -0.6160
  430MOL0     C59240   4.724   7.492   5.745  0.0917 -1.0444  0.3877
  430MOL0     C59241   4.748   7.380   5.846  0.6921  0.0820 -1.0002
  430MOL0     C59242   4.895   7.367   5.891  0.0030 -0.7319  0.5284
  430MOL0     C59243   4.910   7.250   5.995  0.0009 -0.7284 -0.0855
  430MOL0     C59244   5.043   7.202   6.042  0.4230  0.8845 -0.1830
  430MOL0     C59245   5.027   7.064   6.112  0.4040 -0.0161  0.3240
  430MOL0     C59246   5.145   7.041   6.199  0.2269 -0.0395  0.0045
  430MOL0    Cl59247   5.291   7.035   6.090  0.1658  0.5838  0.2752
  430MOL0     C59248   4.316   7.502   5.560 -0.3018  0.3195  0.3504
  430MOL0     C59249   4.189   7.527   5.514 -0.5171  0.5967 -0.2643
  430MOL0     O59250   4.030   7.756   5.394 -0.3145  0.1151 -0.1374
  430MOL0     C59251   3.699   7.627   5.452 -0.5426  0.2783  0.9527
  430MOL0     C59252   3.567   7.650   5.410  0.0514  0.1712 -0.2213
  430MOL0     N59253   2.963   7.592   4.939 -0.5079  0.4650  0.0205
  430MOL0     N59254   2.917   7.597   4.822  0.1274  0.5006 -0.2001
  430MOL0     C59255   3.226   7.172   3.695  0.4817 -0.1899 -0.0774
  430MOL0     C59256   3.293   7.195   3.575 -0.5657  0.9365 -0.2064
  430MOL0     C59257   3.403   7.260   3.138  0.4533  0.0869 -0.7101
  430MOL0     C59258   3.289   7.245   3.060  0.7764 -0.1491 -0.6609
  430MOL0     C59259   3.284   7.250   2.927  0.8865  0.0518 -0.3677
  430MOL0     C59260   3.400   7.281   2.858  0.2974 -0.0173 -0.3772
  430MOL0     O59261   3.413   7.281   2.717  0.0581  0.2439 -0.0779
  430MOL0     C59262   3.409   7.151   2.650  0.0810  0.2370  0.3311
  430MOL0     C59263   3.550   7.098   2.634  0.6803  0.8608 -0.6464
  430MOL0     C59264   3.555   6.983   2.536 -0.2918 -0.5300 -0.0688
  430MOL0     C59265   3.701   6.953   2.500  1.7704 -0.5081  0.3360
  430MOL0     C59266   3.707   6.844   2.396 -1.0336  0.3109 -1.0236
  430MOL0     C59267   3.717   6.740   2.328 -0.4599 -0.7964 -0.4189
  430MOL0     C59268   3.515   7.316   2.933 -0.3113  0.9732 -0.2479
  430MOL0     C59269   3.521   7.297   3.071 -0.0679  0.0861 -0.2571
  430MOL0     C59270   3.651   7.322   3.141 -0.2594  0.6728 -0.7570
  430MOL0     H59271   3.071   7.414   3.450 -0.7901  0.2483  1.6605
  430MOL0     H59272   2.948   7.349   3.653 -0.1884  0.7291  2.3372
  430MOL0     H59273   2.881   7.151   3.947  0.5509 -2.6086 -2.4349
  430MOL0     H59274   2.843   7.204   3.792  1.1132 -1.6161 -0.8352
  430MOL0     H59275   2.931   7.445   3.868  1.9274 -1.5840 -0.1591
  430MOL0     H59276   2.804   7.384   3.973 -0.9274 -1.4211 -0.0407
  430MOL0     H59277   2.971   7.281   4.119 -1.6501 -0.2405 -1.1315
  430MOL0     H59278   3.101   7.378   4.053  0.3041 -0.4762 -0.6301
  430MOL0     H59279   3.002   7.590   4.105  0.4759 -0.5501 -0.5067
  430MOL0     H59280   2.864   7.503   4.183 -0.5419  0.1376 -0.4964
  430MOL0     H59281   3.030   7.616   4.340 -0.9358  0.2176  2.4506
  430MOL0     H59282   3.153   7.492   4.292  0.0811 -1.5388  0.1184
  430MOL0     H59283   2.889   7.401   4.400 -0.7022  0.1507  3.2237
  430MOL0     H59284   3.036   7.309   4.359 -2.3389 -0.6040 -1.5539
  430MOL0     H59285   3.166   7.435   4.541  0.3580 -3.4634 -1.8644
  430MOL0     H59286   3.019   7.353   4.612  0.0329  2.1699  2.0439
  430MOL0     H59287   3.032   7.649   4.536 -0.7007  1.2604  1.4427
  430MOL0     H59288   2.889   7.560   4.579 -0.1174  0.0161  2.4937
  430MOL0     H59289   3.239   7.543   4.766  0.4125 -0.5503  3.3653
  430MOL0     H59290   3.286   7.586   5.011 -0.8737 -0.9459 -0.3882
  430MOL0     H59291   3.177   7.525   5.132 -0.7353 -0.7987  0.1190
  430MOL0     H59292   3.261   7.799   5.071 -0.0629 -0.5531 -3.0600
  430MOL0     H59293   3.085   7.797   5.067  0.9800  2.1503  0.9213
  430MOL0     H59294   3.153   7.843   5.295  3.6703 -0.4875  0.4013
  430MOL0     H59295   3.084   7.685   5.287 -1.5173  1.7482 -0.6120
  430MOL0     H59296   3.281   7.700   5.430  0.0958  0.0226 -0.0538
  430MOL0     H59297   3.322   7.602   5.274  0.1488 -0.1447  0.6729
  430MOL0     H59298   3.589   7.937   5.242  3.2875  2.1379  1.1358
  430MOL0     H59299   3.911   7.897   5.176 -0.5680  2.3381 -0.4789
  430MOL0     H59300   3.914   7.992   5.325 -0.7546  0.8593  1.2214
  430MOL0     H59301   3.784   8.019   5.220 -0.4877  1.6147  3.8024
  430MOL0     H59302   4.046   7.636   5.800 -0.3163  0.5573 -0.4806
  430MOL0     H59303   4.287   7.610   5.877  0.7015  1.4296 -1.6957
  430MOL0     H59304   4.592   7.380   5.619  1.6222 -0.0423  1.1221
  430MOL0     H59305   4.590   7.552   5.579  1.7400  2.2712  0.3135
  430MOL0     H59306   4.808   7.494   5.676 -1.3887 -0.4423 -1.4823
  430MOL0     H59307   4.716   7.588   5.797  1.4979 -1.9933  2.4965
  430MOL0     H59308   4.705   7.287   5.809 -1.4158  0.2760  0.7225
  430MOL0     H59309   4.690   7.413   5.933  3.8196  2.0887  0.4808
  430MOL0     H59310   4.940   7.465   5.911 -0.3493 -0.0064 -1.8876
  430MOL0     H59311   4.949   7.343   5.799  0.7042  1.6046  0.2616
  430MOL0     H59312   4.840   7.264   6.078 -1.7079  0.8459 -1.6832
  430MOL0     H59313   4.854   7.176   5.937 -1.9157  0.6842 -0.1482
  430MOL0     H59314   5.091   7.272   6.112  0.4820 -1.8098  2.7248
  430MOL0     H59315   5.102   7.201   5.950 -0.0062  0.9714 -0.4586
  430MOL0     H59316   5.020   6.981   6.040 -1.6752 -0.0431  0.5034
  430MOL0     H59317   4.931   7.059   6.163  0.2477  1.2650  0.1928
  430MOL0     H59318   5.127   6.948   6.253  0.6771 -1.9376 -2.9378
  430MOL0     H59319   5.146   7.122   6.273 -0.6009 -0.0628  0.0546
  430MOL0     H59320   4.389   7.460   5.491  0.7238  0.3128  1.3914
  430MOL0     H59321   4.153   7.498   5.416 -1.1671 -1.2709  0.4809
  430MOL0     H59322   3.720   7.545   5.519 -0.6875  0.9127  1.7907
  430MOL0     H59323   3.494   7.572   5.434  1.9109 -0.8140  2.8585
  430MOL0     H59324   3.277   7.115   3.772  1.6850 -1.9391 -2.0362
  430MOL0     H59325   3.393   7.157   3.553 -1.2259 -0.2636 -1.2552
  430MOL0     H59326   3.201   7.223   3.120  1.2150  1.3353  0.6045
  430MOL0     H59327   3.198   7.229   2.864  2.2318 -1.5876 -1.7596
  430MOL0     H59328   3.354   7.086   2.719  2.4465 -1.6874  0.5409
  430MOL0     H59329   3.358   7.157   2.554  1.9156  0.5382 -0.6745
  430MOL0     H59330   3.584   7.067   2.734 -0.1414  1.2615 -0.2398
  430MOL0     H59331   3.620   7.177   2.605  2.1179  0.5228  1.6191
  430MOL0     H59332   3.508   6.893   2.578 -1.1996  1.3301  3.2588
  430MOL0     H59333   3.500   7.022   2.450  1.1770  1.4620 -0.1649
  430MOL0     H59334   3.751   6.920   2.591  0.6362  0.3728  1.3120
  430MOL0     H59335   3.739   7.046   2.455  0.0456  0.6729  1.1972
  430MOL0     H59336   3.728   6.656   2.262  1.1108 -3.5894  3.0859
  430MOL0     H59337   3.608   7.335   2.880 -0.2083 -0.5633 -0.6809
  430MOL0     H59338   3.695   7.227   3.173  1.3394  0.5961 -2.9320
  430MOL0     H59339   3.717   7.376   3.073 -0.7311 -1.4559 -3.0432
  430MOL0     H59340   3.631   7.383   3.229 -1.6651 -1.1976  0.3013
  431MOL0     O59341  10.417  10.254   4.055 -0.3788 -0.0645  0.1648
  431MOL0     C59342  10.421  10.156   4.132  0.3228  0.0553 -0.0453
  431MOL0     O59343  10.470  10.030   4.106 -0.0440 -0.2323 -0.2853
  431MOL0     C59344  10.574  10.017   4.013  0.4181  0.1925 -0.2459
  431MOL0     C59345  10.695  10.068   4.038 -1.1165 -0.7554 -0.1391
  431MOL0     C59346  10.799  10.050   3.933 -1.0407 -0.8033 -0.0965
  431MOL0     C59347  10.766   9.981   3.813  0.1669  0.2692 -0.1387
  431MOL0     O59348  10.855   9.956   3.712 -0.4189 -0.0765 -0.0636
  431MOL0     C59349  10.929  10.075   3.663 -0.2511 -0.1177  0.1852
  431MOL0     C59350  11.029  10.015   3.560 -0.2086 -0.3805  0.4172
  431MOL0     C59351  11.117  10.117   3.487  0.6488 -0.4259 -0.0236
  431MOL0     C59352  11.053  10.177   3.355 -0.4175 -0.0174 -0.4792
  431MOL0     C59353  11.150  10.259   3.271 -0.0564  0.0529  0.5240
  431MOL0     C59354  11.110  10.276   3.119  0.2489  0.5874 -0.6419
  431MOL0     C59355  11.189  10.380   3.040 -0.0585  0.1852  0.2602
  431MOL0     C59356  11.317  10.330   2.968 -0.6171 -0.3806 -0.4980
  431MOL0     N59357  11.412  10.284   3.071 -0.8114 -1.0600  0.0660
  431MOL0     C59358  11.478  10.164   3.066  0.5605 -0.5793  0.4420
  431MOL0     C59359  11.571  10.184   3.155 -1.0134 -0.7151 -0.7544
  431MOL0     C59360  11.642  10.076   3.227 -0.0735 -0.6164  0.7236
  431MOL0     C59361  11.567  10.043   3.348  0.6186 -0.3157  0.4663
  431MOL0     C59362  11.596  10.139   3.468 -0.3246  0.9251 -0.5089
  431MOL0     C59363  11.538  10.072   3.603  0.0553  0.5050  0.3077
  431MOL0     O59364  11.601   9.947   3.631 -0.5107 -0.8943 -0.1431
  431MOL0     C59365  11.732   9.945   3.687 -0.1605  0.7387  0.3190
  431MOL0     C59366  11.792   9.813   3.686 -0.0608  0.8665 -0.0352
  431MOL0     C59367  11.918   9.782   3.726  0.1414  0.2488  0.2899
  431MOL0     C59368  11.957   9.638   3.691  0.0877  0.1076  0.2130
  431MOL0     C59369  12.001   9.890   3.777  0.0329 -0.0439 -0.3420
  431MOL0     C59370  12.141   9.870   3.813 -0.0658 -0.1025 -0.8685
  431MOL0     O59371  12.225   9.975   3.845  0.2534  0.0736  0.6986
  431MOL0     C59372  12.355   9.947   3.878 -0.5089  0.2758  1.0363
  431MOL0     C59373  12.391   9.902   4.004  0.4877 -0.1255 -0.5221
  431MOL0     C59374  12.519   9.861   4.029  0.6146 -1.3498  0.7709
  431MOL0     C59375  12.618   9.880   3.935  0.3014  0.0691  0.7786
  431MOL0     O59376  12.750   9.855   3.957 -0.1060 -0.4308 -0.5797
  431MOL0     C59377  12.801   9.831   4.087 -0.2432  0.3125 -0.4031
  431MOL0     C59378  12.954   9.815   4.064  0.4088  0.6352  0.1420
  431MOL0     C59379  13.037   9.813   4.190  0.7066 -0.4265 -0.8294
  431MOL0     C59380  13.183   9.780   4.161  0.0409 -0.8239 -0.0563
  431MOL0     C59381  13.291   9.828   4.251 -0.3103 -0.0077  0.2941
  431MOL0     C59382  13.420   9.831   4.175 -0.5017  0.0122 -0.2240
  431MOL0     C59383  13.530   9.859   4.274 -0.3186 -0.2616  1.1127
  431MOL0     C59384  13.669   9.870   4.198 -0.9776 -0.8629 -0.3894
  431MOL0    Cl59385  13.791   9.923   4.319 -0.6569 -0.0995  0.1860
  431MOL0     C59386  12.579   9.925   3.807 -0.6645  0.2971  0.6883
  431MOL0     C59387  12.448   9.947   3.776  0.7944 -0.4879  0.1081
  431MOL0     O59388  12.168   9.751   3.835  0.5434 -0.7269 -0.2002
  431MOL0     C59389  11.945  10.018   3.784  0.2264  0.1122 -0.4651
  431MOL0     C59390  11.811  10.044   3.744 -0.4153 -0.0081 -0.1752
  431MOL0     N59391  11.562  10.309   3.215  0.0407 -0.4886  0.1881
  431MOL0     N59392  11.484  10.375   3.140  0.3171 -1.1086 -0.4043
  431MOL0     C59393  10.639   9.932   3.798 -0.2396  0.8390  0.1843
  431MOL0     C59394  10.542   9.951   3.893  0.4211 -0.6354  0.6625
  431MOL0     C59395  10.385  10.174   4.271 -0.1594 -0.1572  0.2523
  431MOL0     C59396  10.477  10.179   4.381 -1.1406 -0.8458 -0.2729
  431MOL0     C59397  10.429  10.180   4.515  0.9108 -0.2421 -0.2213
  431MOL0     C59398  10.287  10.156   4.547 -0.1860 -0.3322 -1.1336
  431MOL0     O59399  10.236  10.122   4.676  0.4583  0.7344  0.8807
  431MOL0     C59400  10.317  10.163   4.789 -0.1595 -0.7839 -0.3441
  431MOL0     C59401  10.410  10.039   4.822  0.6652  0.0284  0.3074
  431MOL0     C59402  10.506  10.069   4.927  0.4096  0.5772 -0.2997
  431MOL0     C59403  10.602   9.953   4.965 -0.7139  0.7064  0.1103
  431MOL0     C59404  10.669   9.887   4.845 -0.2302 -0.2383 -0.0750
  431MOL0     C59405  10.707   9.824   4.750  0.4286  0.1723  0.1957
  431MOL0     C59406  10.210  10.142   4.437  0.3087 -0.5357  0.0472
  431MOL0     C59407  10.254  10.157   4.304  0.0259  0.1066  0.6247
  431MOL0     C59408  10.148  10.123   4.204  0.5116 -0.2647  0.2852
  431MOL0     H59409  10.720  10.113   4.134 -0.9115  3.8728 -2.0795
  431MOL0     H59410  10.902  10.082   3.947 -1.6618  0.2414  2.7823
  431MOL0     H59411  10.979  10.128   3.744 -4.5014  1.2593  2.2089
  431MOL0     H59412  10.870  10.151   3.612  4.4316  3.3952 -0.6874
  431MOL0     H59413  11.094   9.950   3.620 -0.2902 -1.8781 -1.0534
  431MOL0     H59414  10.975   9.947   3.493 -1.2447 -1.0503  1.8687
  431MOL0     H59415  11.150  10.201   3.548  3.4283  0.6303 -2.7237
  431MOL0     H59416  11.209  10.064   3.459  0.9034  0.8383 -1.6911
  431MOL0     H59417  11.020  10.091   3.295 -1.4324 -0.8078  1.1511
  431MOL0     H59418  10.960  10.232   3.375  0.0322  0.7172 -0.3887
  431MOL0     H59419  11.248  10.211   3.285  0.7923  1.1020 -1.4937
  431MOL0     H59420  11.156  10.362   3.305 -4.2933  1.0949 -1.2306
  431MOL0     H59421  11.121  10.181   3.066 -1.2649  0.7763 -1.3256
  431MOL0     H59422  11.005  10.306   3.117 -1.0327 -3.2638 -3.7989
  431MOL0     H59423  11.221  10.465   3.099  1.3839  0.3015 -0.6440
  431MOL0     H59424  11.111  10.413   2.970 -0.8880  0.0697  1.1009
  431MOL0     H59425  11.296  10.250   2.897  2.3161  0.1305 -2.0969
  431MOL0     H59426  11.371  10.413   2.921  0.1005 -0.3800  0.2814
  431MOL0     H59427  11.458  10.074   3.008  0.2477  0.7977 -1.7174
  431MOL0     H59428  11.738  10.122   3.253 -0.1684  0.3722 -0.5355
  431MOL0     H59429  11.657   9.982   3.174 -1.4005  0.0641 -0.9597
  431MOL0     H59430  11.459  10.028   3.339  0.5206  0.8885 -0.7394
  431MOL0     H59431  11.606   9.946   3.380  0.6532 -0.2583  0.5989
  431MOL0     H59432  11.703  10.161   3.471 -0.2562  0.6411 -0.8419
  431MOL0     H59433  11.533  10.226   3.444 -0.6729  0.7757 -0.1378
  431MOL0     H59434  11.542  10.137   3.690 -3.6689 -0.7274  1.6040
  431MOL0     H59435  11.430  10.061   3.597 -0.3205  2.4896  2.3056
  431MOL0     H59436  11.732   9.735   3.640  1.3897 -0.8086  0.7806
  431MOL0     H59437  12.042   9.650   3.623 -1.6469 -1.7897 -2.4827
  431MOL0     H59438  11.877   9.586   3.638 -2.8362  1.7641  2.6463
  431MOL0     H59439  11.982   9.583   3.782 -1.8489 -1.0683  0.0849
  431MOL0     H59440  12.319   9.906   4.085  0.5395  1.4494 -0.5200
  431MOL0     H59441  12.544   9.827   4.129 -1.3785  0.8565  2.1136
  431MOL0     H59442  12.794   9.919   4.152  1.0185 -0.7135  1.2149
  431MOL0     H59443  12.757   9.739   4.128 -1.4439  0.3610 -1.5166
  431MOL0     H59444  12.969   9.732   3.995 -0.3247  1.2873 -0.8209
  431MOL0     H59445  12.975   9.900   3.999 -1.4805  0.0940 -1.2481
  431MOL0     H59446  13.006   9.743   4.269 -2.1343  2.1731  0.5623
  431MOL0     H59447  13.033   9.914   4.232 -1.0371 -0.6651 -0.3422
  431MOL0     H59448  13.206   9.822   4.063  0.6204  0.2857  0.5350
  431MOL0     H59449  13.185   9.670   4.158  2.4695 -0.9276  2.0920
  431MOL0     H59450  13.274   9.930   4.288 -0.9488 -0.7297  2.1231
  431MOL0     H59451  13.285   9.780   4.349 -3.3641  3.2015  1.9104
  431MOL0     H59452  13.420   9.910   4.099 -0.8793  0.4735  0.2486
  431MOL0     H59453  13.439   9.737   4.123 -1.5910  0.1468 -0.9240
  431MOL0     H59454  13.546   9.788   4.356  2.3992 -1.9741 -0.7261
  431MOL0     H59455  13.516   9.954   4.326 -0.4277 -1.0047  2.4663
  431MOL0     H59456  13.657   9.937   4.112 -2.2434 -0.8748 -0.2343
  431MOL0     H59457  13.693   9.770   4.162 -0.1719 -0.8478  0.0831
  431MOL0     H59458  12.658   9.935   3.733 -0.9899  2.4546  0.5476
  431MOL0     H59459  12.419   9.978   3.677  1.2446  1.9926  0.6977
  431MOL0     H59460  11.999  10.096   3.836 -2.8974  1.4732  1.0117
  431MOL0     H59461  11.769  10.144   3.748 -1.5439 -0.3148 -2.4418
  431MOL0     H59462  10.623   9.882   3.703 -0.1197  2.3913 -0.6790
  431MOL0     H59463  10.440   9.925   3.867 -0.4285  1.9138  1.1195
  431MOL0     H59464  10.580  10.202   4.358 -1.5938  0.7472 -0.7920
  431MOL0     H59465  10.493  10.186   4.602 -1.1648 -0.0110  1.3866
  431MOL0     H59466  10.376  10.253   4.771  0.3341 -1.0969 -0.3059
  431MOL0     H59467  10.259  10.192   4.878 -1.8540  0.3939 -1.7560
  431MOL0     H59468  10.461  10.000   4.733  1.5716 -0.4720  1.0239
  431MOL0     H59469  10.332   9.970   4.854  0.7147  0.3036  1.0469
  431MOL0     H59470  10.558  10.159   4.892 -1.2068  1.9261  0.5764
  431MOL0     H59471  10.462  10.105   5.021  0.7595 -1.4893  0.7094
  431MOL0     H59472  10.543   9.880   5.022 -0.9240 -1.1056 -2.2457
  431MOL0     H59473  10.681   9.997   5.025 -1.9299 -1.8138  3.9422
  431MOL0     H59474  10.735   9.767   4.664  1.3246  0.2372  0.4359
  431MOL0     H59475  10.104  10.131   4.460  0.6351  1.8453  3.2147
  431MOL0     H59476  10.111  10.021   4.220 -0.8732  0.1417 -0.1361
  431MOL0     H59477  10.061  10.187   4.221  0.2869  0.6173 -3.4048
  431MOL0     H59478  10.174  10.145   4.101 -1.8007  2.4660  0.1506
  432MOL0     O59479   6.293   1.554   1.816  0.1769  0.3159 -0.0001
  432MOL0     C59480   6.305   1.519   1.698  0.6514 -0.2452 -0.1080
  432MOL0     O59481   6.383   1.585   1.599  0.0012 -0.3787 -0.0913
  432MOL0     C59482   6.486   1.678   1.629 -0.3106  0.2948 -0.0868
  432MOL0     C59483   6.609   1.622   1.645  0.1275  0.8539  0.6899
  432MOL0     C59484   6.720   1.704   1.669 -0.2449  0.3972  0.1048
  432MOL0     C59485   6.703   1.840   1.663 -0.3724  0.2048 -0.1498
  432MOL0     O59486   6.819   1.909   1.682 -0.4834  0.4467  0.1601
  432MOL0     C59487   6.803   2.046   1.723 -0.2982 -0.0571 -0.3723
  432MOL0     C59488   6.937   2.104   1.760 -0.1256 -0.5813  2.3953
  432MOL0     C59489   7.019   2.022   1.862 -0.0264 -0.6969 -0.6288
  432MOL0     C59490   7.040   2.099   1.988  0.8513 -0.0949 -0.5195
  432MOL0     C59491   7.117   2.016   2.089  0.0662  0.3324  0.4439
  432MOL0     C59492   7.146   2.085   2.226 -0.1000 -0.9894 -0.0135
  432MOL0     C59493   7.276   2.179   2.231 -0.4115 -0.0432  0.4268
  432MOL0     C59494   7.388   2.108   2.316 -0.5162  0.3070 -0.1162
  432MOL0     N59495   7.513   2.181   2.312 -0.5100 -0.0234  0.6420
  432MOL0     C59496   7.592   2.190   2.200 -0.1783  0.3621 -0.3033
  432MOL0     C59497   7.679   2.290   2.225 -0.2645 -0.2159  0.5306
  432MOL0     C59498   7.785   2.343   2.127 -0.3247  0.1443  0.5344
  432MOL0     C59499   7.917   2.356   2.205 -0.7929  0.3116  0.1062
  432MOL0     C59500   7.966   2.225   2.270  0.2930  0.3024 -0.0487
  432MOL0     C59501   8.084   2.254   2.358  0.2908 -0.1061  0.3292
  432MOL0     O59502   8.195   2.294   2.277  0.4873  0.1446 -0.6315
  432MOL0     C59503   8.295   2.368   2.333 -0.0472 -0.2668 -1.3282
  432MOL0     C59504   8.297   2.397   2.471  0.1336  0.2843  0.0553
  432MOL0     C59505   8.389   2.471   2.526 -0.1936 -0.6784  0.0113
  432MOL0     C59506   8.370   2.519   2.672  0.0777 -0.1503 -0.0574
  432MOL0     C59507   8.491   2.525   2.447 -0.1227  1.4413  0.1382
  432MOL0     C59508   8.608   2.614   2.487  1.1484 -0.0042 -0.2626
  432MOL0     O59509   8.664   2.687   2.387  0.1450  0.3883  0.6562
  432MOL0     C59510   8.789   2.730   2.410  0.0551 -1.2002  0.4762
  432MOL0     C59511   8.901   2.661   2.453  0.3168  0.0989 -0.1715
  432MOL0     C59512   9.026   2.718   2.478  0.4732 -0.7586  0.4595
  432MOL0     C59513   9.035   2.864   2.470  0.5869  0.9161 -0.8162
  432MOL0     O59514   9.151   2.930   2.475 -0.2873  0.3355 -0.3101
  432MOL0     C59515   9.239   2.909   2.591 -0.8188 -0.5944  1.0092
  432MOL0     C59516   9.306   3.041   2.616 -0.5930  0.2200 -0.5738
  432MOL0     C59517   9.394   3.031   2.745 -0.2532  0.3737 -0.2782
  432MOL0     C59518   9.317   3.084   2.869 -0.2439 -0.8803 -0.0722
  432MOL0     C59519   9.384   3.073   3.000 -0.2042  0.0691  0.5587
  432MOL0     C59520   9.510   3.154   3.011 -0.0093  0.3589  0.1383
  432MOL0     C59521   9.557   3.158   3.164  0.3587 -0.4226  0.7225
  432MOL0     C59522   9.685   3.243   3.179 -0.9199 -0.1512  0.2601
  432MOL0    Cl59523   9.731   3.271   3.342  0.0919  0.2638 -0.5588
  432MOL0     C59524   8.925   2.931   2.432  0.5934 -1.3047 -0.0674
  432MOL0     C59525   8.802   2.870   2.395 -0.1244  1.0306  0.2570
  432MOL0     O59526   8.649   2.610   2.606 -0.5963 -0.3299 -0.4003
  432MOL0     C59527   8.498   2.498   2.310  0.5836  0.4565  0.6888
  432MOL0     C59528   8.394   2.423   2.255 -0.3687 -0.4059 -0.8356
  432MOL0     N59529   7.653   2.332   2.359 -0.1053  0.5723 -0.0656
  432MOL0     N59530   7.554   2.269   2.407  0.2450 -0.7462 -0.3117
  432MOL0     C59531   6.577   1.894   1.626 -0.8514  0.1812 -0.1498
  432MOL0     C59532   6.465   1.819   1.625 -1.3696  0.4475 -0.3876
  432MOL0     C59533   6.199   1.421   1.656 -0.8559 -0.2494 -0.7653
  432MOL0     C59534   6.201   1.394   1.519  0.7382  1.0093  0.3740
  432MOL0     C59535   6.115   1.297   1.465  0.4705  0.5158 -0.0834
  432MOL0     C59536   6.026   1.227   1.555 -0.7958  0.3249  0.2813
  432MOL0     O59537   5.931   1.129   1.508 -0.3433 -0.0106  0.3509
  432MOL0     C59538   5.954   1.057   1.389  0.6806  0.0759  0.3228
  432MOL0     C59539   5.868   0.930   1.382  0.4144  0.2006 -0.2840
  432MOL0     C59540   5.723   0.948   1.430 -0.2601 -0.9371  0.7601
  432MOL0     C59541   5.628   0.820   1.405  0.7188 -0.7701  0.0999
  432MOL0     C59542   5.583   0.816   1.267  0.4958  0.4024  0.1416
  432MOL0     C59543   5.533   0.802   1.159  0.5808  0.6016  0.4151
  432MOL0     C59544   6.023   1.247   1.689 -0.5625  0.4462 -0.4742
  432MOL0     C59545   6.117   1.343   1.750  0.2130  0.4732 -0.8529
  432MOL0     C59546   6.104   1.351   1.906 -0.3087 -0.9027 -0.9365
  432MOL0     H59547   6.622   1.514   1.651 -3.1810  0.0577 -2.7015
  432MOL0     H59548   6.815   1.658   1.695 -0.5969 -0.0564  0.6021
  432MOL0     H59549   6.729   2.055   1.803  0.5345  3.4021  0.1760
  432MOL0     H59550   6.761   2.105   1.641 -0.0586  2.5546  1.2669
  432MOL0     H59551   6.997   2.100   1.668  0.0011  2.2681  2.2603
  432MOL0     H59552   6.921   2.209   1.788  2.2924  0.4764  0.2702
  432MOL0     H59553   6.968   1.929   1.886 -1.5872  0.3519  0.3154
  432MOL0     H59554   7.116   1.992   1.822  0.4206 -1.9161  1.2450
  432MOL0     H59555   7.088   2.196   1.968  0.1757  0.4179  0.2811
  432MOL0     H59556   6.940   2.102   2.032 -0.2923  0.3493 -2.9626
  432MOL0     H59557   7.209   1.995   2.033 -0.6974  2.5428 -1.8392
  432MOL0     H59558   7.071   1.921   2.115  1.2827 -0.2443  0.5729
  432MOL0     H59559   7.063   2.153   2.249  0.5431 -0.1735 -0.0893
  432MOL0     H59560   7.160   2.008   2.302 -1.4535  1.7904  3.3423
  432MOL0     H59561   7.259   2.278   2.274  1.6008 -1.4100  4.9213
  432MOL0     H59562   7.297   2.194   2.125 -0.9620  2.1815  0.5981
  432MOL0     H59563   7.347   2.101   2.417  1.1594 -0.1188  0.5759
  432MOL0     H59564   7.411   2.008   2.276  0.9574  0.8724 -0.7606
  432MOL0     H59565   7.571   2.125   2.116 -0.8777  2.0354 -1.4679
  432MOL0     H59566   7.751   2.436   2.080  2.3247  0.5938 -0.6690
  432MOL0     H59567   7.798   2.265   2.051  2.2502 -0.3409  1.3611
  432MOL0     H59568   7.980   2.385   2.120 -0.8798  1.0116  0.2788
  432MOL0     H59569   7.901   2.437   2.276 -0.0895  0.1726  0.4410
  432MOL0     H59570   7.892   2.174   2.333  3.5509 -0.9745  3.0720
  432MOL0     H59571   8.010   2.151   2.203  1.1721 -1.9766  2.8590
  432MOL0     H59572   8.063   2.320   2.442  0.6904 -0.9990  1.1579
  432MOL0     H59573   8.112   2.154   2.394  0.4614  0.0642  0.6779
  432MOL0     H59574   8.220   2.363   2.541 -0.7351  1.1793 -0.4361
  432MOL0     H59575   8.452   2.490   2.738  0.1639  1.4756  0.5980
  432MOL0     H59576   8.273   2.489   2.713  0.4071  0.0496  0.8801
  432MOL0     H59577   8.381   2.627   2.676  4.6066 -0.4547  2.1077
  432MOL0     H59578   8.880   2.557   2.477 -1.7151 -0.0234 -2.2234
  432MOL0     H59579   9.111   2.664   2.519  1.7731  1.7435  1.2913
  432MOL0     H59580   9.190   2.874   2.682  1.4336  1.2130  3.0635
  432MOL0     H59581   9.321   2.841   2.563 -0.2898 -0.4297  2.1014
  432MOL0     H59582   9.364   3.075   2.530 -3.2451  4.8032 -0.8769
  432MOL0     H59583   9.227   3.117   2.617 -0.4049  0.4195 -0.7557
  432MOL0     H59584   9.494   3.069   2.722  1.8965 -3.1420  2.3288
  432MOL0     H59585   9.408   2.925   2.765 -3.6221  0.0526  0.9645
  432MOL0     H59586   9.223   3.029   2.874 -1.7836  1.5486 -0.5394
  432MOL0     H59587   9.300   3.190   2.849  2.0832 -0.5023 -0.3390
  432MOL0     H59588   9.319   3.115   3.077  2.7488  2.4078  1.9817
  432MOL0     H59589   9.396   2.968   3.031  0.5520  0.1929  0.7003
  432MOL0     H59590   9.484   3.253   2.972  1.1798 -1.4428 -6.4897
  432MOL0     H59591   9.594   3.118   2.951 -0.2697  1.4582 -0.9185
  432MOL0     H59592   9.573   3.054   3.192 -0.2487 -0.1186  2.2612
  432MOL0     H59593   9.473   3.199   3.221 -2.5209 -1.1021 -2.6195
  432MOL0     H59594   9.665   3.336   3.126  0.1061 -0.0640  0.0004
  432MOL0     H59595   9.774   3.196   3.136 -1.7080 -2.9433  1.4744
  432MOL0     H59596   8.928   3.039   2.422  2.0296 -1.4753 -1.9282
  432MOL0     H59597   8.718   2.917   2.345  0.6237  1.0858 -0.9914
  432MOL0     H59598   8.579   2.534   2.248  0.3305  2.4133  1.4240
  432MOL0     H59599   8.383   2.410   2.148  1.3236 -0.7638 -0.9942
  432MOL0     H59600   6.543   1.997   1.627 -1.7088 -0.0976  1.0877
  432MOL0     H59601   6.373   1.859   1.585  1.0899  3.6070 -3.4303
  432MOL0     H59602   6.274   1.427   1.446 -0.0268 -0.5600 -1.1444
  432MOL0     H59603   6.114   1.279   1.358 -0.4529 -3.8195  0.4766
  432MOL0     H59604   5.924   1.115   1.301  0.6679 -1.0577 -0.4440
  432MOL0     H59605   6.059   1.031   1.375  0.5847  0.7653 -2.2756
  432MOL0     H59606   5.904   0.854   1.453 -0.1849  1.8232  1.8547
  432MOL0     H59607   5.870   0.900   1.277 -1.0527  2.4363 -1.0017
  432MOL0     H59608   5.731   0.972   1.536  2.9549 -0.3035  0.4724
  432MOL0     H59609   5.674   1.034   1.384  0.7336 -0.2762  0.9140
  432MOL0     H59610   5.538   0.819   1.467  1.6675 -0.2873  1.5278
  432MOL0     H59611   5.681   0.727   1.429 -1.8006 -2.7518 -1.5527
  432MOL0     H59612   5.494   0.784   1.061  2.4591  0.8387 -0.4254
  432MOL0     H59613   5.945   1.192   1.742 -1.0590 -1.7251 -3.1861
  432MOL0     H59614   6.181   1.297   1.962 -0.4235 -0.4066 -0.2854
  432MOL0     H59615   6.094   1.452   1.946 -1.8780 -1.2956 -0.2179
  432MOL0     H59616   6.006   1.310   1.934 -0.8853  0.7574 -0.4427
  433MOL0     O59617   1.904   3.385  10.340  0.5870  1.1643 -0.8638
  433MOL0     C59618   1.864   3.299  10.260 -0.7084  1.2751  0.2469
  433MOL0     O59619   1.881   3.299  10.127 -0.0031  0.3264  0.2337
  433MOL0     C59620   2.000   3.348  10.089 -1.2102 -0.0252  0.1643
  433MOL0     C59621   2.120   3.277  10.096 -0.4690  0.7703  0.3055
  433MOL0     C59622   2.241   3.346  10.062  0.0489  0.1031 -0.9816
  433MOL0     C59623   2.245   3.480  10.014  0.2248 -0.1507  0.0438
  433MOL0     O59624   2.376   3.535   9.988  0.4892  0.6567 -0.6952
  433MOL0     C59625   2.396   3.668  10.026 -0.4589  1.1319  0.2946
  433MOL0     C59626   2.543   3.723   9.992  0.3467 -0.5020 -0.6696
  433MOL0     C59627   2.590   3.857  10.050  0.1212  0.3500  0.5540
  433MOL0     C59628   2.728   3.892   9.998  0.5944  0.3440 -0.5403
  433MOL0     C59629   2.766   4.015  10.077 -0.1470  0.3277 -0.2355
  433MOL0     C59630   2.912   4.056  10.055  0.3048  0.1739  0.0129
  433MOL0     C59631   3.012   3.981  10.130  0.2452  0.0738  0.0583
  433MOL0     C59632   3.153   4.026  10.101  0.9065 -0.5718 -0.2387
  433MOL0     N59633   3.260   3.957  10.176 -0.8155  1.0327 -0.0416
  433MOL0     C59634   3.307   3.977  10.302 -0.0561 -0.0183  0.6247
  433MOL0     C59635   3.418   3.901  10.306  0.1605  0.6755  0.3241
  433MOL0     C59636   3.518   3.888  10.415 -0.1227  0.5157 -0.4258
  433MOL0     C59637   3.619   4.014  10.433  0.2783  0.2334  0.2638
  433MOL0     C59638   3.682   4.053  10.298  0.0388  0.5268  1.1431
  433MOL0     C59639   3.800   3.961  10.264  0.4474 -0.0237  0.5897
  433MOL0     O59640   3.884   3.933  10.371 -0.6759  0.1366  0.1096
  433MOL0     C59641   4.003   3.861  10.343 -0.0246 -0.3303  0.0584
  433MOL0     C59642   4.020   3.796  10.223 -0.1223 -0.4468  0.9667
  433MOL0     C59643   4.127   3.710  10.201  0.1180  0.1594  0.0301
  433MOL0     C59644   4.125   3.648  10.068  0.2264  0.6269 -0.6296
  433MOL0     C59645   4.227   3.682  10.303  0.6084  0.1609 -0.0867
  433MOL0     C59646   4.336   3.579  10.295  0.7304 -0.0223  0.1426
  433MOL0     O59647   4.387   3.554  10.171 -0.4483 -0.2793 -0.7556
  433MOL0     C59648   4.457   3.442  10.147 -0.3996 -0.2635 -0.1131
  433MOL0     C59649   4.575   3.468  10.069 -0.3776  0.9915  0.9530
  433MOL0     C59650   4.657   3.366  10.029  0.0527  0.8873  0.0250
  433MOL0     C59651   4.635   3.238  10.076  0.3500  0.7142 -0.6355
  433MOL0     O59652   4.718   3.132  10.045  0.3629 -0.2533  0.1606
  433MOL0     C59653   4.704   2.997  10.091  0.7537  0.3270 -0.2825
  433MOL0     C59654   4.824   2.917  10.033  0.9067  0.2806 -0.4352
  433MOL0     C59655   4.828   2.920   9.877 -0.1373  0.1294  0.0880
  433MOL0     C59656   4.906   2.797   9.824 -0.4757  0.3709  0.7731
  433MOL0     C59657   4.929   2.825   9.672  0.6252  1.4767  0.8629
  433MOL0     C59658   5.003   2.709   9.599  0.7957  1.1779 -0.5627
  433MOL0     C59659   4.917   2.586   9.577 -0.1738 -0.7777 -0.2279
  433MOL0     C59660   4.985   2.479   9.487  0.1033  0.2595  0.4770
  433MOL0    Cl59661   5.122   2.412   9.577 -0.0246 -0.1041 -0.1948
  433MOL0     C59662   4.515   3.214  10.141 -0.4474  0.1990  0.4034
  433MOL0     C59663   4.430   3.312  10.190 -0.2819 -0.0122 -0.1406
  433MOL0     O59664   4.388   3.541  10.399 -0.1317 -0.7197 -0.4026
  433MOL0     C59665   4.202   3.748  10.429  0.1686  0.5992 -0.2646
  433MOL0     C59666   4.097   3.829  10.444  0.0948 -1.0961  0.4701
  433MOL0     N59667   3.418   3.820  10.192 -0.4645  0.3956  0.0804
  433MOL0     N59668   3.326   3.855  10.114 -0.7998  0.2672  0.0814
  433MOL0     C59669   2.123   3.548   9.993  0.9411  0.0687  0.1086
  433MOL0     C59670   2.002   3.477  10.024 -0.3880  0.6419 -0.7116
  433MOL0     C59671   1.764   3.210  10.313  0.4219 -0.8361  0.6808
  433MOL0     C59672   1.632   3.250  10.295 -0.2387 -0.2440  0.1071
  433MOL0     C59673   1.520   3.165  10.312 -1.6769 -1.2308  0.9462
  433MOL0     C59674   1.549   3.039  10.363 -0.9867  0.5401 -0.0071
  433MOL0     O59675   1.445   2.953  10.387 -0.6138  0.5443 -0.0938
  433MOL0     C59676   1.460   2.870  10.498 -0.3424  0.5514 -0.1021
  433MOL0     C59677   1.315   2.833  10.541 -0.3050 -1.3526  0.2846
  433MOL0     C59678   1.242   2.773  10.421 -0.4557 -0.4271  0.0863
  433MOL0     C59679   1.113   2.717  10.475 -0.6907  0.7569  0.6065
  433MOL0     C59680   1.054   2.645  10.360  0.6950 -0.3303  0.5966
  433MOL0     C59681   1.011   2.564  10.284 -0.1209  0.0844 -0.1147
  433MOL0     C59682   1.680   3.007  10.396  0.0340 -0.0930  1.0692
  433MOL0     C59683   1.790   3.085  10.360 -0.4720 -0.0420  0.5905
  433MOL0     C59684   1.926   3.021  10.376 -1.1004 -0.7649 -1.4247
  433MOL0     H59685   2.138   3.177  10.132  1.0477  0.7534 -0.4137
  433MOL0     H59686   2.331   3.289  10.086 -1.1056 -1.6269 -0.5489
  433MOL0     H59687   2.383   3.675  10.134  0.1734  0.8960  0.3860
  433MOL0     H59688   2.327   3.738   9.977 -0.5110  0.8276 -0.0713
  433MOL0     H59689   2.612   3.643  10.021 -0.2294 -0.7398  0.0960
  433MOL0     H59690   2.542   3.724   9.882  0.6152 -0.5099 -0.6715
  433MOL0     H59691   2.522   3.933  10.009 -2.0889 -1.0669  1.4195
  433MOL0     H59692   2.593   3.850  10.159  2.6993  2.2652  0.6977
  433MOL0     H59693   2.797   3.812  10.026 -2.5900 -2.0574  1.1485
  433MOL0     H59694   2.736   3.921   9.893  0.8463 -0.3497 -0.7149
  433MOL0     H59695   2.754   4.007  10.186  1.6891  3.2714  0.2660
  433MOL0     H59696   2.702   4.093  10.035 -4.8134 -0.9283  3.5553
  433MOL0     H59697   2.932   4.062   9.947 -2.4906 -0.2082 -0.6033
  433MOL0     H59698   2.923   4.161  10.082  2.3024  0.1774 -0.6541
  433MOL0     H59699   3.004   3.878  10.093 -2.7842  0.5291 -0.7895
  433MOL0     H59700   2.994   3.973  10.237  0.3441  0.6267  0.1177
  433MOL0     H59701   3.181   4.030   9.995  3.0226  3.7159  0.2779
  433MOL0     H59702   3.162   4.132  10.125  0.0755 -0.8190  1.2662
  433MOL0     H59703   3.278   4.053  10.374  0.1903  0.0839  0.6190
  433MOL0     H59704   3.579   3.797  10.415  1.6459  1.6213  1.3347
  433MOL0     H59705   3.465   3.871  10.509  1.9876  0.1732  0.7529
  433MOL0     H59706   3.564   4.102  10.467  1.7589  0.4425  2.3094
  433MOL0     H59707   3.693   4.002  10.513 -1.0154  0.8385  1.6038
  433MOL0     H59708   3.609   4.067  10.218  3.3373  1.2507 -1.9986
  433MOL0     H59709   3.738   4.143  10.321  1.6245 -1.0275  3.9142
  433MOL0     H59710   3.748   3.871  10.230 -0.2755  0.4340  0.4567
  433MOL0     H59711   3.849   4.015  10.183 -1.8436  1.8764  0.3481
  433MOL0     H59712   3.945   3.801  10.145  2.3382  0.9048 -1.4666
  433MOL0     H59713   4.120   3.538  10.073 -2.1255  0.7244  0.4641
  433MOL0     H59714   4.219   3.672  10.017  1.0080 -1.5715 -0.3844
  433MOL0     H59715   4.042   3.669  10.001 -0.2773 -0.3838 -0.3410
  433MOL0     H59716   4.582   3.569  10.028 -1.1426  2.1942  3.5455
  433MOL0     H59717   4.746   3.380   9.967  1.0286 -2.5841  0.4321
  433MOL0     H59718   4.698   2.997  10.200  0.9128  0.5722 -0.2736
  433MOL0     H59719   4.607   2.952  10.067  0.3026 -0.6000  2.8249
  433MOL0     H59720   4.919   2.957  10.068 -0.0127  2.4513 -0.2995
  433MOL0     H59721   4.811   2.814  10.068 -2.3559  0.8578  0.3912
  433MOL0     H59722   4.878   3.013   9.849 -0.4525  0.7593  1.5382
  433MOL0     H59723   4.731   2.918   9.826 -0.6631 -0.1554  1.0872
  433MOL0     H59724   4.848   2.706   9.844 -1.8158  0.6043 -1.6500
  433MOL0     H59725   4.997   2.806   9.884 -0.8117  1.9358  1.0803
  433MOL0     H59726   4.828   2.829   9.630  1.1081 -0.2101 -0.5429
  433MOL0     H59727   4.979   2.920   9.653  1.0647  1.0037 -0.4908
  433MOL0     H59728   5.093   2.678   9.653  0.9173 -0.6741 -1.7621
  433MOL0     H59729   5.022   2.750   9.499  2.2853  2.9726  0.3777
  433MOL0     H59730   4.821   2.606   9.528  1.6036  0.0030 -3.7267
  433MOL0     H59731   4.903   2.538   9.674  2.4955 -3.7215 -1.1099
  433MOL0     H59732   5.018   2.522   9.392  0.7868 -0.1453  0.5252
  433MOL0     H59733   4.915   2.402   9.453  0.3645  0.0648  0.3763
  433MOL0     H59734   4.469   3.119  10.166 -1.1999 -0.1662 -2.0999
  433MOL0     H59735   4.343   3.276  10.244 -0.7561  1.1169 -0.1222
  433MOL0     H59736   4.270   3.738  10.513  0.6256  2.5734 -0.3674
  433MOL0     H59737   4.077   3.891  10.531 -0.2816  1.8087 -1.5290
  433MOL0     H59738   2.115   3.648   9.954  1.2947  0.6256  1.4138
  433MOL0     H59739   1.903   3.520  10.011 -1.4109 -0.9573  1.1401
  433MOL0     H59740   1.607   3.351  10.264  0.8651  1.4449  4.0865
  433MOL0     H59741   1.416   3.197  10.312 -0.5573  3.2241  2.7412
  433MOL0     H59742   1.527   2.785  10.478  0.2901 -0.1918  4.3327
  433MOL0     H59743   1.506   2.925  10.580 -0.2260  2.3271 -1.3011
  433MOL0     H59744   1.274   2.925  10.586  1.3467 -1.1069  1.4007
  433MOL0     H59745   1.324   2.770  10.630  4.7411 -1.4985 -0.0546
  433MOL0     H59746   1.223   2.850  10.346  0.4947 -1.7176 -1.5661
  433MOL0     H59747   1.296   2.688  10.377 -0.2926 -0.3825  0.1997
  433MOL0     H59748   1.050   2.799  10.509  1.2901  1.8182  1.9362
  433MOL0     H59749   1.135   2.645  10.554  2.9683  1.4768  0.4244
  433MOL0     H59750   0.987   2.499  10.203  1.6674 -0.8020  0.0188
  433MOL0     H59751   1.702   2.911  10.441 -0.2577 -0.9950 -0.6227
  433MOL0     H59752   2.002   3.096  10.397  2.0587 -3.7550 -1.2481
  433MOL0     H59753   1.929   2.968  10.472  1.6103  3.9367  1.4983
  433MOL0     H59754   1.954   2.960  10.290 -0.0249  0.9193 -2.3124
  434MOL0     O59755   9.251   3.313  11.298  0.1336  0.2274 -0.0685
  434MOL0     C59756   9.311   3.245  11.227 -0.5156  0.4034 -0.1422
  434MOL0     O59757   9.372   3.127  11.261 -0.1363  0.1044 -0.2863
  434MOL0     C59758   9.344   3.058  11.376  0.2673  0.0858  0.7414
  434MOL0     C59759   9.434   2.963  11.425  0.5649 -0.0739  0.1775
  434MOL0     C59760   9.403   2.868  11.526 -0.0382  0.7490  0.2924
  434MOL0     C59761   9.279   2.875  11.591  0.4275 -0.3495  0.6681
  434MOL0     O59762   9.236   2.791  11.681 -0.0733  0.6941 -0.4031
  434MOL0     C59763   9.335   2.725  11.764  0.0145 -0.0423 -0.3949
  434MOL0     C59764   9.345   2.575  11.730 -0.3311 -0.8476  0.7538
  434MOL0     C59765   9.215   2.503  11.769  0.0902  0.4270  0.6004
  434MOL0     C59766   9.219   2.355  11.740  0.0381 -0.0457  0.5753
  434MOL0     C59767   9.348   2.278  11.785  0.3957 -0.1199 -0.5334
  434MOL0     C59768   9.337   2.139  11.741 -0.4157 -0.0044  0.7050
  434MOL0     C59769   9.434   2.032  11.793  0.1323  0.3730  0.8900
  434MOL0     C59770   9.426   2.018  11.947  0.2470  0.0116  0.2507
  434MOL0     N59771   9.521   1.916  11.995 -1.0185  0.2718  0.0785
  434MOL0     C59772   9.502   1.775  12.005 -0.5979  0.1253  0.3945
  434MOL0     C59773   9.624   1.721  12.019  0.1418 -0.6073  0.1052
  434MOL0     C59774   9.659   1.577  12.031 -0.4094 -0.2925  0.4032
  434MOL0     C59775   9.591   1.507  12.140  0.7625 -0.1843  0.4328
  434MOL0     C59776   9.512   1.387  12.095  0.8617 -0.3057 -0.0457
  434MOL0     C59777   9.378   1.416  12.043  0.5544 -0.4794 -0.4780
  434MOL0     O59778   9.400   1.475  11.914  0.3670  0.6096 -0.2761
  434MOL0     C59779   9.307   1.550  11.845 -0.4588 -0.6247  0.3171
  434MOL0     C59780   9.358   1.613  11.731 -0.8175  0.3112 -0.1316
  434MOL0     C59781   9.283   1.666  11.633 -0.2350 -0.1192  0.0176
  434MOL0     C59782   9.353   1.716  11.512  0.9027 -0.1733 -0.3490
  434MOL0     C59783   9.140   1.672  11.649 -0.0741 -1.1661 -0.2810
  434MOL0     C59784   9.045   1.736  11.555  0.0813  0.1190 -0.1724
  434MOL0     O59785   9.089   1.842  11.468 -0.1509 -0.7330  0.1859
  434MOL0     C59786   9.003   1.913  11.388  0.5081  0.2367  0.6724
  434MOL0     C59787   8.897   1.857  11.313  0.2107  1.4148 -0.8923
  434MOL0     C59788   8.832   1.924  11.208  0.6979  0.0429  0.0965
  434MOL0     C59789   8.884   2.053  11.172  0.3239 -0.2392  0.3875
  434MOL0     O59790   8.827   2.125  11.069 -0.0833 -0.2590 -0.1724
  434MOL0     C59791   8.687   2.143  11.093 -0.2087 -0.0775 -0.0008
  434MOL0     C59792   8.668   2.236  11.211 -0.5992 -0.0726  0.5572
  434MOL0     C59793   8.525   2.241  11.249  0.0325 -0.3028  0.1002
  434MOL0     C59794   8.489   2.371  11.321  0.2964  0.0615  0.2281
  434MOL0     C59795   8.448   2.482  11.207  0.0708 -0.7346 -0.0953
  434MOL0     C59796   8.393   2.611  11.278 -0.3346  0.5581 -0.0980
  434MOL0     C59797   8.343   2.717  11.170  0.3011  0.2333  1.0190
  434MOL0     C59798   8.268   2.826  11.246 -0.9966 -0.1584  0.0115
  434MOL0    Cl59799   8.115   2.761  11.296  0.3495 -0.0632  0.2021
  434MOL0     C59800   9.011   2.091  11.227 -0.0912  0.3163 -1.0241
  434MOL0     C59801   9.063   2.025  11.345  0.1810 -0.4595  0.4341
  434MOL0     O59802   8.937   1.682  11.553 -0.3012 -0.9300  0.0908
  434MOL0     C59803   9.089   1.613  11.765 -0.7481  0.2548 -0.8514
  434MOL0     C59804   9.173   1.559  11.863 -0.1846  0.0352 -0.8055
  434MOL0     N59805   9.715   1.823  12.018 -0.7819  0.6626 -0.2292
  434MOL0     N59806   9.654   1.933  11.995  1.8719  0.1957 -0.1081
  434MOL0     C59807   9.188   2.986  11.556 -0.9425 -0.4770 -1.0793
  434MOL0     C59808   9.221   3.070  11.444  0.0273  0.4583 -0.6914
  434MOL0     C59809   9.347   3.305  11.101 -0.3219  0.2992  0.2876
  434MOL0     C59810   9.257   3.401  11.041 -0.0834  0.5104 -0.3522
  434MOL0     C59811   9.289   3.473  10.931 -0.3256 -0.0838  1.2409
  434MOL0     C59812   9.410   3.456  10.864  1.1083  0.4854 -0.6689
  434MOL0     O59813   9.414   3.532  10.752  0.3872 -0.5313  0.0878
  434MOL0     C59814   9.538   3.560  10.689 -0.2825 -0.0827 -0.1443
  434MOL0     C59815   9.577   3.460  10.582 -0.1491 -0.7269  0.3108
  434MOL0     C59816   9.728   3.478  10.532 -0.2185 -0.4289 -0.3606
  434MOL0     C59817   9.780   3.341  10.471 -0.9444 -0.4268  1.0263
  434MOL0     C59818   9.919   3.369  10.433 -0.4239  0.1751 -0.7778
  434MOL0     C59819  10.037   3.382  10.404  1.0701  0.4745 -0.9064
  434MOL0     C59820   9.503   3.368  10.922  0.2179  0.5364 -0.3511
  434MOL0     C59821   9.472   3.291  11.037 -0.2501 -0.0832  0.7366
  434MOL0     C59822   9.594   3.218  11.086 -0.0350  0.2535  1.1429
  434MOL0     H59823   9.526   2.977  11.369 -0.9445 -1.6282 -2.8985
  434MOL0     H59824   9.480   2.798  11.556 -1.3484  0.1624  2.4730
  434MOL0     H59825   9.308   2.732  11.870 -0.7093  1.7494 -0.6578
  434MOL0     H59826   9.430   2.780  11.767  0.6349 -1.0612 -1.0594
  434MOL0     H59827   9.361   2.570  11.622  3.4704  2.1436  0.9862
  434MOL0     H59828   9.422   2.525  11.790  1.9728 -1.7716 -2.6480
  434MOL0     H59829   9.188   2.512  11.875  2.1532 -1.0951  1.3267
  434MOL0     H59830   9.129   2.539  11.712  1.0045  1.0998 -0.3927
  434MOL0     H59831   9.128   2.307  11.778  0.7490 -3.2171 -1.3547
  434MOL0     H59832   9.218   2.340  11.632  2.9072 -0.0802  0.4670
  434MOL0     H59833   9.362   2.291  11.893 -0.0432  1.9478 -0.6752
  434MOL0     H59834   9.440   2.322  11.746  0.5796 -0.3436 -0.3513
  434MOL0     H59835   9.236   2.104  11.766 -1.7938 -0.2257 -4.2149
  434MOL0     H59836   9.342   2.138  11.632 -1.7886  0.4402  0.6181
  434MOL0     H59837   9.533   2.057  11.754 -0.7684  1.2089 -1.0249
  434MOL0     H59838   9.405   1.941  11.739 -0.8059  0.8891  0.5034
  434MOL0     H59839   9.459   2.113  11.990  1.6122 -0.1237 -0.4379
  434MOL0     H59840   9.329   1.992  11.990  0.7545 -1.7344  0.4246
  434MOL0     H59841   9.404   1.728  12.001 -0.8089  0.6166 -1.0174
  434MOL0     H59842   9.763   1.573  12.064 -1.3383  0.5210  3.7910
  434MOL0     H59843   9.652   1.537  11.929  0.6436 -2.2956  1.0754
  434MOL0     H59844   9.655   1.470  12.220  2.6789  0.9669 -0.4774
  434MOL0     H59845   9.533   1.581  12.195  1.6299 -0.0377  1.1639
  434MOL0     H59846   9.568   1.329  12.021  0.1404 -1.1128  0.0205
  434MOL0     H59847   9.504   1.325  12.184 -3.7076  0.9144  0.6544
  434MOL0     H59848   9.312   1.328  12.047  1.2227 -0.9606  2.4276
  434MOL0     H59849   9.333   1.494  12.106 -0.9956 -2.0718  0.5016
  434MOL0     H59850   9.467   1.614  11.726 -0.6227 -1.7394  1.9970
  434MOL0     H59851   9.279   1.709  11.432 -1.2960 -1.9399  1.6760
  434MOL0     H59852   9.445   1.663  11.486  0.7914  0.0107 -1.1366
  434MOL0     H59853   9.387   1.818  11.531 -0.6240  0.0583  1.4648
  434MOL0     H59854   8.868   1.754  11.331  4.3445  0.2577  0.0579
  434MOL0     H59855   8.745   1.869  11.176 -0.4985  1.1916  1.2478
  434MOL0     H59856   8.644   2.190  11.003 -1.7508  1.0604  1.2747
  434MOL0     H59857   8.631   2.049  11.100  0.0235 -0.1302  1.4352
  434MOL0     H59858   8.729   2.199  11.294  2.1995  0.0982 -1.3076
  434MOL0     H59859   8.704   2.339  11.204 -2.6422  0.6592  0.0595
  434MOL0     H59860   8.503   2.151  11.308  0.5859 -0.0463  0.7114
  434MOL0     H59861   8.464   2.232  11.159  1.8032  0.0686 -1.1723
  434MOL0     H59862   8.566   2.390  11.397 -0.0890 -1.2995  1.0017
  434MOL0     H59863   8.399   2.353  11.382 -0.2235  0.1637 -0.4979
  434MOL0     H59864   8.537   2.523  11.158 -0.2204 -0.1457 -0.1372
  434MOL0     H59865   8.374   2.453  11.132 -2.1693  2.4536  0.6745
  434MOL0     H59866   8.457   2.667  11.347  0.2774 -0.2568  0.0167
  434MOL0     H59867   8.301   2.582  11.329  1.4065 -0.8147  2.4400
  434MOL0     H59868   8.286   2.668  11.091  2.1386  0.1234 -0.2980
  434MOL0     H59869   8.421   2.753  11.102 -2.5456  1.1173 -2.0288
  434MOL0     H59870   8.258   2.922  11.196 -1.5453  0.1937  0.7786
  434MOL0     H59871   8.317   2.839  11.343 -1.3452 -0.7119  0.2713
  434MOL0     H59872   9.061   2.179  11.187  0.5731  0.6530  0.4351
  434MOL0     H59873   9.152   2.065  11.391  0.2480 -2.1819  1.9289
  434MOL0     H59874   8.981   1.604  11.777 -0.7411 -2.0838 -2.0044
  434MOL0     H59875   9.135   1.507  11.950  2.5226 -2.4483 -0.9262
  434MOL0     H59876   9.085   2.982  11.591 -0.4275 -0.9294  0.4568
  434MOL0     H59877   9.140   3.116  11.388 -1.2889 -1.1955 -0.2122
  434MOL0     H59878   9.162   3.423  11.090  0.0643 -0.2524  0.2964
  434MOL0     H59879   9.213   3.539  10.890  2.3791  2.7679  0.5102
  434MOL0     H59880   9.543   3.660  10.645 -1.4091 -1.0926 -2.7433
  434MOL0     H59881   9.610   3.549  10.771 -1.8058 -1.0408  1.1178
  434MOL0     H59882   9.513   3.464  10.494 -0.8052  0.0590  0.8177
  434MOL0     H59883   9.562   3.358  10.620 -0.7702 -1.1567 -1.0040
  434MOL0     H59884   9.740   3.558  10.458  0.5788 -0.0404  0.1718
  434MOL0     H59885   9.793   3.514  10.612 -0.9051 -0.8265  0.3881
  434MOL0     H59886   9.723   3.308  10.383 -0.0845  1.1273 -0.1755
  434MOL0     H59887   9.789   3.262  10.546  0.0279 -2.7770 -1.4060
  434MOL0     H59888  10.135   3.408  10.369  1.2588  2.0330  0.6305
  434MOL0     H59889   9.599   3.364  10.872  0.2135 -0.7791 -0.2876
  434MOL0     H59890   9.588   3.114  11.054  1.6382 -0.0098  1.5416
  434MOL0     H59891   9.690   3.257  11.049 -0.9151  2.5344  1.0998
  434MOL0     H59892   9.604   3.216  11.195 -1.8057 -1.7842  1.3244
  435MOL0     O59893   0.963  11.156  11.410  0.0674 -0.1623  0.8886
  435MOL0     C59894   1.084  11.182  11.415 -0.3224 -0.2435  0.2792
  435MOL0     O59895   1.149  11.255  11.316 -0.0818  0.0960  0.1395
  435MOL0     C59896   1.078  11.273  11.193 -1.0959 -0.1956 -0.0611
  435MOL0     C59897   1.003  11.162  11.139 -0.4471  0.0449 -0.2586
  435MOL0     C59898   0.952  11.176  11.011  0.3829  1.0821  0.3119
  435MOL0     C59899   0.946  11.304  10.953 -0.2724 -0.2821 -0.1925
  435MOL0     O59900   0.880  11.345  10.841  0.2596  0.5335  1.3048
  435MOL0     C59901   0.762  11.274  10.808  0.5786 -0.0746 -1.3554
  435MOL0     C59902   0.725  11.298  10.666 -0.0472  0.4423  0.4910
  435MOL0     C59903   0.573  11.254  10.636  1.7086 -0.2089  0.2515
  435MOL0     C59904   0.558  11.257  10.483  0.0831 -0.4551 -0.5626
  435MOL0     C59905   0.416  11.297  10.443 -0.0294 -0.4907 -0.0054
  435MOL0     C59906   0.396  11.257  10.297  0.1475  0.8869  0.2000
  435MOL0     C59907   0.246  11.249  10.253  0.2207  0.1065 -0.2036
  435MOL0     C59908   0.229  11.212  10.104  0.4511  0.2209  0.1208
  435MOL0     N59909   0.098  11.257  10.054  0.7452  0.0904  0.9261
  435MOL0     C59910   0.001  11.166  10.011 -0.1516  0.3986  0.0601
  435MOL0     C59911  -0.089  11.234   9.939 -0.0765  0.1474  0.5555
  435MOL0     C59912  -0.207  11.162   9.874  0.3146  0.0997  0.7159
  435MOL0     C59913  -0.175  11.152   9.726  0.1458 -0.2257  0.5625
  435MOL0     C59914  -0.235  11.028   9.661  0.5451  0.1393 -0.7338
  435MOL0     C59915  -0.161  10.905   9.699 -0.0352  0.6769 -0.1438
  435MOL0     O59916  -0.216  10.781   9.645 -0.6144  0.1045  0.8232
  435MOL0     C59917  -0.128  10.681   9.628 -0.2229  0.4530 -0.6622
  435MOL0     C59918  -0.129  10.589   9.732  0.7801 -0.9851  0.3567
  435MOL0     C59919  -0.041  10.479   9.737  0.3449 -0.2284  0.3493
  435MOL0     C59920  -0.046  10.381   9.852  0.0407  0.4092 -0.0898
  435MOL0     C59921   0.055  10.469   9.627 -0.5611 -0.0385  0.5874
  435MOL0     C59922   0.170  10.374   9.639  0.7402 -0.3245 -0.7115
  435MOL0     O59923   0.209  10.301   9.535  0.2975  0.5351  0.3478
  435MOL0     C59924   0.307  10.214   9.548 -0.8532  0.7731 -0.0913
  435MOL0     C59925   0.273  10.075   9.570 -1.1990 -0.5951 -0.5319
  435MOL0     C59926   0.378   9.988   9.603  0.2578  0.2008  0.4994
  435MOL0     C59927   0.510  10.024   9.596 -0.6074 -0.2138 -1.2233
  435MOL0     O59928   0.602   9.921   9.627 -0.9284 -0.5146 -0.1617
  435MOL0     C59929   0.741   9.958   9.633  0.2060  0.2760 -0.3388
  435MOL0     C59930   0.806   9.816   9.657  0.6193 -0.5500 -1.1455
  435MOL0     C59931   0.956   9.838   9.687 -0.4046 -0.4523 -0.0319
  435MOL0     C59932   1.042   9.853   9.564 -0.0269  0.5716  0.6614
  435MOL0     C59933   1.188   9.897   9.589  0.6535  0.0361 -0.7145
  435MOL0     C59934   1.210  10.046   9.566  0.1848 -0.9617  0.7954
  435MOL0     C59935   1.356  10.090   9.564 -0.3299 -0.1312 -0.5057
  435MOL0     C59936   1.363  10.242   9.554  0.0324 -0.4552  0.2080
  435MOL0    Cl59937   1.310  10.320   9.709 -0.3503  0.0513 -0.0598
  435MOL0     C59938   0.535  10.152   9.557 -1.2317  0.3602  0.6759
  435MOL0     C59939   0.437  10.242   9.530 -0.6224  0.4988 -0.9803
  435MOL0     O59940   0.231  10.375   9.748 -0.2982 -0.1170  0.1508
  435MOL0     C59941   0.039  10.557   9.515  0.8881  0.4942 -0.1230
  435MOL0     C59942  -0.046  10.671   9.520  0.4253  0.1678 -0.0632
  435MOL0     N59943  -0.054  11.366   9.938  0.7469  0.1227  0.8469
  435MOL0     N59944   0.063  11.375   9.998  0.2470  0.0931 -0.0759
  435MOL0     C59945   1.020  11.416  11.010 -0.1002  0.5043 -0.8957
  435MOL0     C59946   1.091  11.394  11.125 -1.0186  0.4878 -1.1720
  435MOL0     C59947   1.155  11.145  11.540  0.1905 -0.3942 -0.6733
  435MOL0     C59948   1.290  11.161  11.537 -0.0937 -0.2007 -0.5719
  435MOL0     C59949   1.379  11.120  11.629 -0.5471  1.0748  0.0173
  435MOL0     C59950   1.330  11.040  11.727  0.4547 -0.1794 -0.4992
  435MOL0     O59951   1.416  10.983  11.822 -0.5664 -0.0974 -0.0696
  435MOL0     C59952   1.367  10.926  11.947 -0.1740 -0.6659  0.3440
  435MOL0     C59953   1.342  10.777  11.917  0.4931 -0.4032  0.1514
  435MOL0     C59954   1.464  10.701  11.876 -0.2546 -0.6330  0.1016
  435MOL0     C59955   1.430  10.548  11.859 -0.1050  0.5300 -0.3959
  435MOL0     C59956   1.421  10.473  11.985  0.7626  0.2923 -0.4326
  435MOL0     C59957   1.417  10.413  12.093 -0.4930 -0.0081  0.1447
  435MOL0     C59958   1.192  11.025  11.741 -0.6201 -0.2184 -0.0833
  435MOL0     C59959   1.102  11.082  11.654  1.0170  0.6732  0.0996
  435MOL0     C59960   0.952  11.030  11.670 -0.5741 -0.3148  0.1281
  435MOL0     H59961   0.998  11.064  11.186 -1.4393  0.1720 -0.0689
  435MOL0     H59962   0.888  11.097  10.974  0.5623  0.3738  1.4670
  435MOL0     H59963   0.685  11.305  10.879  1.6451  2.7353 -1.3056
  435MOL0     H59964   0.771  11.165  10.813 -5.0154 -0.7467  0.8146
  435MOL0     H59965   0.733  11.406  10.658 -2.8500  0.9143  2.5027
  435MOL0     H59966   0.789  11.240  10.599  0.9837  0.8166  1.1271
  435MOL0     H59967   0.538  11.162  10.683 -0.3152  0.9845  1.2594
  435MOL0     H59968   0.499  11.315  10.690  0.4427 -0.1831 -1.4076
  435MOL0     H59969   0.626  11.334  10.445  0.1231  0.0229  0.4427
  435MOL0     H59970   0.592  11.164  10.437  1.6773  0.2839 -0.9475
  435MOL0     H59971   0.398  11.404  10.456 -1.2789 -0.3812 -2.0787
  435MOL0     H59972   0.344  11.243  10.506 -0.6928 -1.3605 -1.4712
  435MOL0     H59973   0.426  11.343  10.236 -0.7422  1.0976  0.0411
  435MOL0     H59974   0.449  11.166  10.268  3.5485  2.7903 -0.0941
  435MOL0     H59975   0.206  11.348  10.277 -0.5197  0.6552 -3.2823
  435MOL0     H59976   0.187  11.170  10.301  0.1462 -0.9863 -1.9723
  435MOL0     H59977   0.310  11.247  10.038 -0.0669 -1.8569 -1.7415
  435MOL0     H59978   0.235  11.105  10.085  2.0361  0.0900  1.1798
  435MOL0     H59979   0.010  11.061  10.039 -1.1242  0.8266  2.1275
  435MOL0     H59980  -0.300  11.219   9.884 -0.9955 -1.1020 -3.0466
  435MOL0     H59981  -0.214  11.059   9.910 -1.2084 -0.4334 -0.9583
  435MOL0     H59982  -0.198  11.246   9.674 -1.2840  0.1183  1.7557
  435MOL0     H59983  -0.068  11.131   9.719 -0.2217 -2.5075  1.0610
  435MOL0     H59984  -0.342  11.021   9.683  0.2441  1.4544 -1.6791
  435MOL0     H59985  -0.236  11.036   9.552  2.7571  1.2828 -0.7337
  435MOL0     H59986  -0.054  10.912   9.674  0.0052  0.0664 -0.1567
  435MOL0     H59987  -0.154  10.889   9.808  1.9662 -0.8585 -0.4341
  435MOL0     H59988  -0.206  10.612   9.806  2.6590 -2.9536  3.1565
  435MOL0     H59989  -0.151  10.374   9.882  0.1942  0.6500  0.5279
  435MOL0     H59990   0.018  10.411   9.936 -3.1752 -0.5877  2.9692
  435MOL0     H59991  -0.010  10.284   9.818 -1.5603  0.1542 -1.1215
  435MOL0     H59992   0.176  10.036   9.598 -0.7729 -0.4491  1.3047
  435MOL0     H59993   0.355   9.894   9.651  0.1492 -0.5359 -0.9682
  435MOL0     H59994   0.779   9.996   9.538 -0.8499  0.0614 -0.8657
  435MOL0     H59995   0.753  10.027   9.716 -3.7205  0.3796  0.3610
  435MOL0     H59996   0.756   9.772   9.744 -0.1092 -0.2444 -1.4013
  435MOL0     H59997   0.779   9.744   9.579 -2.4776 -1.3844  0.5209
  435MOL0     H59998   1.006   9.758   9.742 -2.3284  0.0043  2.5924
  435MOL0     H59999   0.969   9.928   9.748  5.1074  0.1088 -1.4206
  435MOL0     H60000   0.990   9.911   9.488  0.4204  0.4882  0.2884
  435MOL0     H60001   1.042   9.755   9.516  1.9922 -0.0167  1.7528
  435MOL0     H60002   1.212   9.875   9.693 -3.4903  2.1713  0.9378
  435MOL0     H60003   1.259   9.835   9.534  0.5650 -1.5415  0.8572
  435MOL0     H60004   1.156  10.107   9.640  0.7450  0.9709 -0.3221
  435MOL0     H60005   1.169  10.057   9.466  3.3140 -0.3885 -0.5237
  435MOL0     H60006   1.412  10.051   9.479  1.9116  2.6841 -0.4656
  435MOL0     H60007   1.397  10.041   9.654  0.6750  1.3192 -0.1389
  435MOL0     H60008   1.294  10.261   9.471 -0.5951 -0.8552  0.6262
  435MOL0     H60009   1.463  10.280   9.532 -0.7385  1.7295  0.2679
  435MOL0     H60010   0.639  10.179   9.545 -1.3605  1.2033  1.3131
  435MOL0     H60011   0.464  10.345   9.511 -2.7259  1.7124  1.9645
  435MOL0     H60012   0.111  10.535   9.436  3.4190  0.7589  2.0027
  435MOL0     H60013  -0.057  10.740   9.437 -3.4713 -0.0252  0.1062
  435MOL0     H60014   1.012  11.517  10.971 -1.7355  1.8933  2.6321
  435MOL0     H60015   1.148  11.471  11.176 -1.1080  0.4335 -0.9897
  435MOL0     H60016   1.327  11.210  11.447 -2.3867  1.8175 -0.5125
  435MOL0     H60017   1.487  11.133  11.620  0.1806 -2.2938  1.9557
  435MOL0     H60018   1.433  10.939  12.033 -3.7138 -0.4070  3.2464
  435MOL0     H60019   1.278  10.980  11.979  1.9353  1.4955  3.0136
  435MOL0     H60020   1.286  10.783  11.823  0.5788 -2.7598 -0.1025
  435MOL0     H60021   1.284  10.736  12.000  0.7946  3.5417  2.6025
  435MOL0     H60022   1.493  10.752  11.784 -1.3619 -1.7700 -0.9309
  435MOL0     H60023   1.545  10.705  11.950 -0.1451 -1.1522  0.0133
  435MOL0     H60024   1.515  10.509  11.802  2.1663  1.6403  2.0318
  435MOL0     H60025   1.340  10.537  11.798 -0.9748 -1.6522  1.1247
  435MOL0     H60026   1.428  10.369  12.190 -2.2520  0.3238  0.5255
  435MOL0     H60027   1.152  10.966  11.823 -1.2536  0.8452  0.3888
  435MOL0     H60028   0.869  11.097  11.644 -0.4712 -0.3182 -0.2242
  435MOL0     H60029   0.945  10.945  11.601  2.5074 -0.4241 -0.1711
  435MOL0     H60030   0.935  10.989  11.770 -0.0618 -0.0305  0.3371
  436MOL0     O60031   2.209  10.121  10.325 -0.2246  0.4584  0.4246
  436MOL0     C60032   2.152  10.107  10.429 -0.0936 -0.2628  0.1222
  436MOL0     O60033   2.214  10.092  10.551  0.6471  0.4887 -0.1922
  436MOL0     C60034   2.351  10.113  10.554  0.5015  1.0954 -1.6702
  436MOL0     C60035   2.400  10.201  10.655 -0.1753  1.0054 -0.0688
  436MOL0     C60036   2.544  10.214  10.668 -0.1652  0.4153  0.0844
  436MOL0     C60037   2.633  10.147  10.585 -0.2138  1.1238 -0.1023
  436MOL0     O60038   2.766  10.175  10.596 -0.1401 -0.1521  0.2392
  436MOL0     C60039   2.866  10.116  10.506 -0.8874  0.3842 -0.4876
  436MOL0     C60040   2.991  10.192  10.536 -0.1563 -0.7272 -0.2760
  436MOL0     C60041   3.112  10.131  10.464  0.4085 -0.4571  0.6346
  436MOL0     C60042   3.247  10.217  10.477 -0.5407  0.8528 -0.9440
  436MOL0     C60043   3.361  10.185  10.381  1.4156 -0.2488  0.4170
  436MOL0     C60044   3.485  10.265  10.410 -0.0964 -0.0021 -1.1787
  436MOL0     C60045   3.604  10.217  10.325  0.8281 -0.0793  0.7789
  436MOL0     C60046   3.575  10.188  10.180  0.8154 -0.1130 -1.0780
  436MOL0     N60047   3.535  10.309  10.110  0.6557 -0.0785 -0.0143
  436MOL0     C60048   3.606  10.424  10.097 -0.3082 -0.9279 -0.4796
  436MOL0     C60049   3.528  10.507  10.021  0.2660  0.9821  0.3784
  436MOL0     C60050   3.570  10.639   9.976 -0.5477 -0.5476 -0.5729
  436MOL0     C60051   3.504  10.738  10.063  0.3395 -0.3496 -0.3738
  436MOL0     C60052   3.575  10.883  10.044 -0.2069  0.5402  0.0698
  436MOL0     C60053   3.715  10.870  10.108 -0.0588  0.5461 -0.2836
  436MOL0     O60054   3.805  10.843  10.000  0.5469 -0.3150  0.6295
  436MOL0     C60055   3.941  10.847  10.027  0.3655 -0.5469  0.0343
  436MOL0     C60056   4.025  10.780   9.938  0.0145  0.5133 -0.7578
  436MOL0     C60057   4.168  10.778   9.949 -0.2110  0.0632 -0.4924
  436MOL0     C60058   4.245  10.701   9.847  0.3566  0.3689  0.0499
  436MOL0     C60059   4.222  10.830  10.062 -0.8014  0.1582 -1.4653
  436MOL0     C60060   4.363  10.813  10.097 -0.3536  0.3200  0.5309
  436MOL0     O60061   4.427  10.699  10.053 -0.3449 -0.1802  0.5277
  436MOL0     C60062   4.563  10.690  10.079 -0.4572 -0.0907 -0.7055
  436MOL0     C60063   4.655  10.787  10.046 -0.0938  0.4262  0.1134
  436MOL0     C60064   4.795  10.766  10.041  1.1839  0.4614 -0.3228
  436MOL0     C60065   4.848  10.643  10.088 -0.7148  0.4854 -0.3731
  436MOL0     O60066   4.982  10.622  10.099  0.0719 -0.0847 -0.0902
  436MOL0     C60067   5.057  10.728  10.159 -0.1867 -0.1726 -0.6252
  436MOL0     C60068   5.179  10.678  10.252  0.7157 -0.4235 -0.4329
  436MOL0     C60069   5.285  10.590  10.188 -0.1047  0.8934 -0.2044
  436MOL0     C60070   5.399  10.570  10.298  0.0728  0.9372  0.6372
  436MOL0     C60071   5.516  10.496  10.224  0.3382 -0.3817 -0.1233
  436MOL0     C60072   5.621  10.452  10.330  0.4138  0.2857  0.2383
  436MOL0     C60073   5.750  10.394  10.265 -0.2203  0.7113 -1.0562
  436MOL0     C60074   5.737  10.244  10.215  0.3411  0.6331  0.6752
  436MOL0    Cl60075   5.884  10.195  10.119  0.4643  0.1782  0.5469
  436MOL0     C60076   4.758  10.546  10.131  0.5607  0.4111  0.3338
  436MOL0     C60077   4.617  10.570  10.129 -0.3798  0.0943 -0.0492
  436MOL0     O60078   4.414  10.901  10.165  0.1781 -0.4595  0.1718
  436MOL0     C60079   4.147  10.896  10.163  0.1106 -0.6457 -0.0452
  436MOL0     C60080   4.007  10.915  10.139  1.0539 -0.1272 -0.0593
  436MOL0     N60081   3.411  10.432   9.992 -0.3020 -0.1471  0.0297
  436MOL0     N60082   3.418  10.313  10.040 -0.3047  0.0151 -0.1561
  436MOL0     C60083   2.577  10.067  10.482 -0.6624  0.3828 -0.1322
  436MOL0     C60084   2.435  10.043  10.471 -0.1782  0.6391 -0.5958
  436MOL0     C60085   2.004  10.095  10.427 -0.4100  0.4717 -0.0655
  436MOL0     C60086   1.945  10.062  10.552 -0.7011 -0.5895  0.5677
  436MOL0     C60087   1.809  10.073  10.562  0.7760 -0.9657  0.5480
  436MOL0     C60088   1.728  10.078  10.447 -0.7249  0.3881 -0.2523
  436MOL0     O60089   1.588  10.063  10.453 -0.4136 -0.7089 -0.3349
  436MOL0     C60090   1.541   9.937  10.383 -0.7240 -0.4916  0.4975
  436MOL0     C60091   1.389   9.914  10.385 -0.6135  0.9744 -0.2323
  436MOL0     C60092   1.345   9.763  10.347 -0.1185 -0.5804 -0.3782
  436MOL0     C60093   1.323   9.680  10.465 -0.0706 -0.4429 -0.2005
  436MOL0     C60094   1.286   9.546  10.423  0.3707 -0.0397 -0.0682
  436MOL0     C60095   1.259   9.444  10.368 -0.0156  0.4116  0.1348
  436MOL0     C60096   1.783  10.095  10.321 -0.3407 -0.1530 -0.1227
  436MOL0     C60097   1.921  10.107  10.309  0.1314 -0.1603 -0.0480
  436MOL0     C60098   1.980  10.157  10.177  0.7836 -0.1636  0.9043
  436MOL0     H60099   2.338  10.269  10.712  0.3067  1.5935 -0.2391
  436MOL0     H60100   2.593  10.291  10.727 -1.0777  1.8601 -0.9790
  436MOL0     H60101   2.841  10.139  10.402 -1.5850  3.1726  0.1950
  436MOL0     H60102   2.882  10.009  10.516  0.4166  0.7115  1.4023
  436MOL0     H60103   2.963  10.294  10.509 -1.0104 -0.9387 -0.2177
  436MOL0     H60104   3.009  10.181  10.643 -0.2305  0.0706 -0.1763
  436MOL0     H60105   3.138  10.027  10.487  2.5624 -1.1020 -3.6863
  436MOL0     H60106   3.089  10.123  10.357  5.6009 -1.3317 -0.7059
  436MOL0     H60107   3.217  10.322  10.470 -0.6570  0.8229 -0.8890
  436MOL0     H60108   3.282  10.193  10.578 -0.3800 -3.0395 -1.7629
  436MOL0     H60109   3.324  10.209  10.281 -1.2461 -2.1369  0.8351
  436MOL0     H60110   3.366  10.076  10.388 -3.8077 -0.7293  0.8309
  436MOL0     H60111   3.464  10.363  10.367 -1.2981  0.4983  0.4242
  436MOL0     H60112   3.520  10.276  10.514  0.1044 -0.5741 -1.1827
  436MOL0     H60113   3.625  10.116  10.362  0.5348 -0.6833 -0.6520
  436MOL0     H60114   3.684  10.290  10.340 -0.3925  1.6531 -0.7403
  436MOL0     H60115   3.662  10.135  10.139  0.8126 -1.5670  0.6546
  436MOL0     H60116   3.491  10.122  10.159 -0.3610  0.8634  0.3777
  436MOL0     H60117   3.705  10.445  10.138 -0.3359 -4.2369  1.6356
  436MOL0     H60118   3.531  10.651   9.875 -3.6945 -1.0928  0.4615
  436MOL0     H60119   3.679  10.639   9.979 -0.5358  0.1739 -0.8163
  436MOL0     H60120   3.398  10.746  10.038  0.6451 -0.2152 -1.7114
  436MOL0     H60121   3.518  10.701  10.165 -1.4754 -0.9561 -0.3108
  436MOL0     H60122   3.580  10.915   9.940 -0.8027  2.2112  0.5203
  436MOL0     H60123   3.520  10.963  10.094 -0.7988  1.1113 -1.4316
  436MOL0     H60124   3.742  10.968  10.148  0.3918  0.2888  0.0582
  436MOL0     H60125   3.725  10.787  10.180 -1.8115  2.6107  2.5332
  436MOL0     H60126   3.976  10.729   9.856 -0.4111 -1.4032  0.6086
  436MOL0     H60127   4.181  10.682   9.760 -0.7622 -1.3142  1.1792
  436MOL0     H60128   4.297  10.610   9.878  2.4880  0.8511 -1.8775
  436MOL0     H60129   4.310  10.773   9.797 -1.1291  0.9725 -1.0842
  436MOL0     H60130   4.610  10.880  10.011 -1.0450  0.1086  0.4722
  436MOL0     H60131   4.865  10.840  10.004  0.3151  1.6565  0.3511
  436MOL0     H60132   5.096  10.798  10.085 -0.5389  0.5260 -0.1588
  436MOL0     H60133   4.992  10.794  10.217  0.9839  1.0344 -0.6586
  436MOL0     H60134   5.223  10.771  10.289  0.4398 -0.2755 -0.4720
  436MOL0     H60135   5.135  10.622  10.335 -0.5856  1.5753  0.3146
  436MOL0     H60136   5.325  10.628  10.093 -1.8189 -0.8704 -1.7150
  436MOL0     H60137   5.230  10.500  10.161  0.2637  1.0046 -1.4291
  436MOL0     H60138   5.368  10.510  10.384 -0.7105  1.2806  0.5975
  436MOL0     H60139   5.432  10.670  10.325  2.0152  0.3328  0.6765
  436MOL0     H60140   5.489  10.401  10.178 -1.0634 -0.1815  0.2509
  436MOL0     H60141   5.557  10.566  10.150 -1.5897 -1.0821 -1.9254
  436MOL0     H60142   5.582  10.383  10.406 -3.9443  1.9317 -0.1780
  436MOL0     H60143   5.656  10.539  10.386  0.6763  0.7902 -0.6832
  436MOL0     H60144   5.827  10.390  10.343 -0.5109 -1.2495 -0.8174
  436MOL0     H60145   5.776  10.461  10.182  0.7706  0.8191 -0.6632
  436MOL0     H60146   5.648  10.232  10.152 -0.4159  0.3619  1.7459
  436MOL0     H60147   5.714  10.182  10.303  1.3747 -0.0351  0.4886
  436MOL0     H60148   4.799  10.457  10.177 -0.8205 -1.9026 -2.6533
  436MOL0     H60149   4.548  10.487  10.145  1.9156 -2.2408 -1.4303
  436MOL0     H60150   4.198  10.943  10.246  0.0785 -1.5065  0.4785
  436MOL0     H60151   3.965  10.979  10.216  0.0442  0.8911 -1.4183
  436MOL0     H60152   2.640  10.014  10.411  0.1134 -0.4294  1.1245
  436MOL0     H60153   2.414   9.980  10.386 -2.1062  0.8855 -0.3513
  436MOL0     H60154   1.998  10.050  10.646  1.0748 -0.6156 -0.4048
  436MOL0     H60155   1.752  10.069  10.654  1.2712  3.2270  1.2396
  436MOL0     H60156   1.588   9.916  10.286  0.7385 -2.4435  1.5683
  436MOL0     H60157   1.584   9.857  10.443 -2.4942 -0.1040  2.3929
  436MOL0     H60158   1.342   9.984  10.315  0.9688  1.4695 -0.8363
  436MOL0     H60159   1.344   9.936  10.483 -3.0225 -1.7575 -0.6012
  436MOL0     H60160   1.250   9.785  10.296  1.4515 -0.0722 -3.2864
  436MOL0     H60161   1.405   9.702  10.280  0.6140  0.2985 -0.5541
  436MOL0     H60162   1.236   9.712  10.522 -1.1556 -3.0693 -0.2214
  436MOL0     H60163   1.408   9.684  10.534 -0.5508 -2.0453  0.5324
  436MOL0     H60164   1.245   9.353  10.313  1.3811  0.5989 -0.5791
  436MOL0     H60165   1.714  10.108  10.238 -0.8824 -0.7057  0.2346
  436MOL0     H60166   2.028  10.072  10.129  0.0677 -0.3854  0.5561
  436MOL0     H60167   1.899  10.202  10.118  1.3166 -0.1376  0.1785
  436MOL0     H60168   2.052  10.239  10.182  1.2342 -0.2633 -2.1355
  437MOL0     O60169   0.498   9.559  10.480 -0.1318  0.1536 -0.7142
  437MOL0     C60170   0.518   9.447  10.542  0.2726 -0.0180 -0.0418
  437MOL0     O60171   0.423   9.351  10.553  0.5944  0.3356 -0.4254
  437MOL0     C60172   0.290   9.366  10.523 -0.9754 -0.0702 -0.5260
  437MOL0     C60173   0.226   9.263  10.454 -0.4955 -0.0884 -0.3772
  437MOL0     C60174   0.090   9.273  10.421  0.7450 -0.2533  0.2277
  437MOL0     C60175   0.014   9.370  10.474 -0.0439  0.1381 -0.5853
  437MOL0     O60176  -0.124   9.354  10.463  0.3899 -0.4220  0.1558
  437MOL0     C60177  -0.165   9.325  10.326 -0.3544 -0.9235  1.7053
  437MOL0     C60178  -0.313   9.374  10.288 -0.2684  0.1620  0.4223
  437MOL0     C60179  -0.317   9.528  10.256 -0.0687 -0.0150  0.2824
  437MOL0     C60180  -0.248   9.635  10.351  0.1544 -0.1972  0.2670
  437MOL0     C60181  -0.288   9.612  10.506  0.8301  0.0933 -0.2228
  437MOL0     C60182  -0.415   9.702  10.534  0.0298 -0.4134 -0.4573
  437MOL0     C60183  -0.459   9.704  10.682  0.3561 -0.3346 -0.0762
  437MOL0     C60184  -0.525   9.566  10.707  0.9138 -0.2032 -0.0912
  437MOL0     N60185  -0.570   9.552  10.844  0.2874 -0.2923  0.2765
  437MOL0     C60186  -0.647   9.637  10.918 -0.4024 -0.1945  0.4232
  437MOL0     C60187  -0.669   9.572  11.032 -0.0608 -0.3476 -1.0793
  437MOL0     C60188  -0.757   9.620  11.145 -0.0329  0.3105  0.4153
  437MOL0     C60189  -0.894   9.553  11.131  0.8407 -0.8091  0.1650
  437MOL0     C60190  -0.971   9.655  11.045  0.5387 -0.0850 -0.0195
  437MOL0     C60191  -1.113   9.604  11.027 -0.2110  0.1146  0.2866
  437MOL0     O60192  -1.184   9.683  10.929 -0.1505 -0.1559  0.4257
  437MOL0     C60193  -1.316   9.689  10.933 -0.1707 -0.0360  0.1386
  437MOL0     C60194  -1.394   9.582  10.982  1.0986  0.2201 -0.2308
  437MOL0     C60195  -1.529   9.607  11.016 -0.7369 -0.4822 -0.4988
  437MOL0     C60196  -1.597   9.480  11.071  0.8367 -0.7756  0.6410
  437MOL0     C60197  -1.586   9.730  10.994 -0.6537 -0.2116 -0.6670
  437MOL0     C60198  -1.722   9.758  11.033  1.1042 -0.7451  0.4118
  437MOL0     O60199  -1.790   9.685  11.123 -0.1394  0.4739  0.6035
  437MOL0     C60200  -1.907   9.727  11.167  0.3395  0.0728 -0.5126
  437MOL0     C60201  -2.024   9.708  11.098 -0.3482 -0.2403 -0.3069
  437MOL0     C60202  -2.143   9.757  11.143  0.0091  1.3554  1.3321
  437MOL0     C60203  -2.146   9.824  11.263 -0.6848 -0.5300  0.5749
  437MOL0     O60204  -2.278   9.865  11.304 -0.7467  1.0405  0.0084
  437MOL0     C60205  -2.310   9.855  11.439  1.2873  0.3110  0.7231
  437MOL0     C60206  -2.442   9.916  11.469  0.1831  0.3318 -0.4924
  437MOL0     C60207  -2.438  10.040  11.568 -0.0889  0.6341 -0.4046
  437MOL0     C60208  -2.378  10.015  11.713  0.3857 -0.4157  0.2135
  437MOL0     C60209  -2.399  10.110  11.826  0.3168 -0.1020 -1.0290
  437MOL0     C60210  -2.541  10.108  11.889  1.0257 -0.1280  0.3339
  437MOL0     C60211  -2.546  10.180  12.026 -0.1319 -0.4637  0.0523
  437MOL0     C60212  -2.693  10.193  12.079  0.3901  0.7062 -0.2772
  437MOL0    Cl60213  -2.770  10.034  12.086 -0.0885  0.5363 -0.4142
  437MOL0     C60214  -2.030   9.866  11.328 -0.0224  0.3434 -0.3877
  437MOL0     C60215  -1.912   9.805  11.285  0.0392 -0.1414  0.1919
  437MOL0     O60216  -1.762   9.870  10.987 -0.0233  0.3986  0.0163
  437MOL0     C60217  -1.502   9.832  10.944 -0.8005  0.0624 -1.2823
  437MOL0     C60218  -1.374   9.811  10.908  0.7492 -0.2140 -0.0998
  437MOL0     N60219  -0.617   9.449  11.020 -0.1610  0.6765  0.0168
  437MOL0     N60220  -0.558   9.437  10.910 -0.1827 -0.0288 -0.3041
  437MOL0     C60221   0.079   9.474  10.543 -0.3515  1.0904  0.6737
  437MOL0     C60222   0.214   9.483  10.564 -0.1397  0.5164 -0.1625
  437MOL0     C60223   0.646   9.404  10.584 -0.1377 -0.5791 -0.1924
  437MOL0     C60224   0.678   9.273  10.606  1.5999  0.3690  0.3199
  437MOL0     C60225   0.794   9.232  10.651 -0.6703  0.6610  0.7336
  437MOL0     C60226   0.898   9.322  10.681 -1.1032 -0.5501 -0.1036
  437MOL0     O60227   1.013   9.275  10.730 -0.2854 -0.5937 -0.9809
  437MOL0     C60228   1.136   9.343  10.706  0.0522  0.6897  0.7946
  437MOL0     C60229   1.254   9.249  10.709 -0.4933 -0.3887 -1.0909
  437MOL0     C60230   1.245   9.160  10.577 -0.5871 -0.3959 -0.4959
  437MOL0     C60231   1.372   9.091  10.538  0.6804  0.0633  0.0345
  437MOL0     C60232   1.349   8.991  10.435 -0.1100  0.7103  0.6142
  437MOL0     C60233   1.341   8.895  10.361 -0.2595  0.4841 -0.0499
  437MOL0     C60234   0.878   9.461  10.662 -0.6024 -0.7137  0.7746
  437MOL0     C60235   0.755   9.499  10.604 -0.1782  1.4946  0.1317
  437MOL0     C60236   0.739   9.649  10.577  0.0455 -0.3438  0.3764
  437MOL0     H60237   0.288   9.180  10.423  0.3199  1.8276 -4.5120
  437MOL0     H60238   0.045   9.180  10.387 -0.3167 -0.5943  2.4170
  437MOL0     H60239  -0.162   9.216  10.315  3.3271 -0.7366 -1.2684
  437MOL0     H60240  -0.089   9.364  10.258 -0.0268 -2.9613  0.8183
  437MOL0     H60241  -0.341   9.321  10.196  1.1422  2.5048 -1.4906
  437MOL0     H60242  -0.391   9.340  10.357 -0.7439  2.0896  0.8788
  437MOL0     H60243  -0.282   9.548  10.154 -1.2192  3.1171  0.3988
  437MOL0     H60244  -0.424   9.550  10.246 -0.5521 -1.1019  2.4852
  437MOL0     H60245  -0.139   9.619  10.349  0.0123 -1.6081  1.6017
  437MOL0     H60246  -0.271   9.740  10.331 -2.4283 -0.2726  2.3094
  437MOL0     H60247  -0.206   9.642  10.571 -2.3926 -1.1874  5.0314
  437MOL0     H60248  -0.298   9.506  10.531 -0.9339 -0.0641 -1.3943
  437MOL0     H60249  -0.377   9.803  10.516  1.6912 -1.0225 -0.5733
  437MOL0     H60250  -0.498   9.669  10.471  0.7858  0.4919 -2.0030
  437MOL0     H60251  -0.536   9.778  10.704  0.6848  0.2061 -0.7131
  437MOL0     H60252  -0.378   9.727  10.751 -1.1648  0.8952  1.3916
  437MOL0     H60253  -0.614   9.569  10.644  1.2868 -0.3617 -0.6354
  437MOL0     H60254  -0.471   9.477  10.673  3.8643  1.4174 -0.0132
  437MOL0     H60255  -0.677   9.738  10.893  0.2467 -0.0211  0.3121
  437MOL0     H60256  -0.762   9.729  11.153 -0.2183  0.1796  3.0927
  437MOL0     H60257  -0.709   9.595  11.240  1.1156  1.3903  0.1495
  437MOL0     H60258  -0.889   9.449  11.095  0.2791 -1.2365  1.2812
  437MOL0     H60259  -0.930   9.553  11.234  0.4680 -1.3612  0.0430
  437MOL0     H60260  -0.970   9.753  11.094  1.3854 -0.5738  0.9668
  437MOL0     H60261  -0.923   9.674  10.949  0.3365 -3.0075 -0.8047
  437MOL0     H60262  -1.102   9.500  10.998 -0.4952  0.4407 -1.0417
  437MOL0     H60263  -1.172   9.592  11.119 -1.6911 -3.9368 -0.9913
  437MOL0     H60264  -1.363   9.482  11.011  1.9571  0.2778 -0.9105
  437MOL0     H60265  -1.580   9.469  11.178  0.5561 -0.5553  0.7115
  437MOL0     H60266  -1.553   9.393  11.023  3.2860 -0.5084  2.2535
  437MOL0     H60267  -1.704   9.487  11.047  1.4251  0.2488 -1.9889
  437MOL0     H60268  -2.019   9.644  11.011 -0.6176 -0.0393 -0.4726
  437MOL0     H60269  -2.238   9.728  11.099  1.2379  0.3958 -0.8162
  437MOL0     H60270  -2.322   9.747  11.445 -2.0766  0.3073 -2.5492
  437MOL0     H60271  -2.229   9.895  11.501  2.0986 -0.7239  0.3791
  437MOL0     H60272  -2.479   9.947  11.371  1.5893 -1.1227 -1.5277
  437MOL0     H60273  -2.521   9.849  11.503  1.1114 -0.3010  0.5022
  437MOL0     H60274  -2.539  10.077  11.589  0.2475  0.3516  2.0456
  437MOL0     H60275  -2.385  10.123  11.522 -0.6554  1.5728  0.5714
  437MOL0     H60276  -2.270  10.002  11.705  0.4924  0.2991  0.5073
  437MOL0     H60277  -2.412   9.917  11.748 -2.3682 -0.6558 -2.6103
  437MOL0     H60278  -2.321  10.095  11.901  0.6745  1.8593 -0.9745
  437MOL0     H60279  -2.389  10.209  11.781 -1.1283  0.6797  0.2843
  437MOL0     H60280  -2.571  10.002  11.891  3.0172 -0.7173  2.1490
  437MOL0     H60281  -2.610  10.162  11.824  0.3601  0.2681  1.3527
  437MOL0     H60282  -2.511  10.281  11.999 -0.9137 -0.1268  0.2737
  437MOL0     H60283  -2.480  10.132  12.098  0.4831  0.7800  0.3533
  437MOL0     H60284  -2.753  10.271  12.031  0.2581 -0.1328 -1.5072
  437MOL0     H60285  -2.688  10.227  12.183  0.3595  1.1987 -0.4349
  437MOL0     H60286  -2.046   9.922  11.419  0.5454 -3.7148  2.4581
  437MOL0     H60287  -1.826   9.832  11.346  1.3749  0.9168 -2.0421
  437MOL0     H60288  -1.530   9.937  10.951  1.1780  0.6206 -1.1253
  437MOL0     H60289  -1.300   9.886  10.881  1.3472 -1.2700 -1.5150
  437MOL0     H60290   0.016   9.535  10.607 -0.4283  2.4893 -0.6885
  437MOL0     H60291   0.257   9.561  10.626  2.9209 -1.9586  1.0962
  437MOL0     H60292   0.609   9.190  10.593  1.6923  0.2845  0.3621
  437MOL0     H60293   0.820   9.130  10.677 -2.5309  0.3005  1.3773
  437MOL0     H60294   1.122   9.382  10.604 -0.5575  2.4937  1.5350
  437MOL0     H60295   1.148   9.432  10.769  0.7171  0.8686  0.4273
  437MOL0     H60296   1.259   9.186  10.798  0.1083  2.9044  1.4166
  437MOL0     H60297   1.338   9.319  10.703 -1.1170  0.4668 -0.0702
  437MOL0     H60298   1.167   9.087  10.600 -0.8640 -0.2867 -1.0686
  437MOL0     H60299   1.209   9.213  10.488 -1.6019 -1.5906 -0.8341
  437MOL0     H60300   1.411   9.042  10.627 -0.8967  3.4890  2.8524
  437MOL0     H60301   1.444   9.163  10.499  1.3234 -1.0084 -0.7876
  437MOL0     H60302   1.344   8.808  10.300 -0.8571  1.1041 -0.9905
  437MOL0     H60303   0.956   9.535  10.670 -0.4206 -0.6460 -1.2440
  437MOL0     H60304   0.819   9.707  10.625  0.5969 -0.3731 -0.4865
  437MOL0     H60305   0.749   9.664  10.469 -1.5347 -0.6517  0.1671
  437MOL0     H60306   0.643   9.685  10.614 -1.3457 -2.4553 -0.9909
  438MOL0     O60307   6.022   3.328   5.534  0.3784  0.2211  0.4230
  438MOL0     C60308   6.085   3.393   5.448  0.1450 -1.0925  0.1867
  438MOL0     O60309   6.162   3.505   5.470 -0.1379 -0.1801 -1.4982
  438MOL0     C60310   6.141   3.574   5.582 -0.4306 -0.2881 -1.0588
  438MOL0     C60311   6.257   3.633   5.638  0.2646 -0.3908 -1.2277
  438MOL0     C60312   6.262   3.713   5.747 -0.7644  1.0226  0.3477
  438MOL0     C60313   6.148   3.738   5.816  0.2740 -0.1483 -0.3462
  438MOL0     O60314   6.156   3.820   5.928  0.4412  0.1123  0.5315
  438MOL0     C60315   6.033   3.875   5.971 -0.4505 -1.1929 -0.4636
  438MOL0     C60316   6.061   3.990   6.057  0.1958 -0.4124 -0.3021
  438MOL0     C60317   5.923   4.047   6.112 -0.7538  0.1948  0.6502
  438MOL0     C60318   5.908   4.191   6.054  0.2772  0.5503  0.2583
  438MOL0     C60319   5.759   4.220   6.052  0.6419  0.1356  0.6920
  438MOL0     C60320   5.730   4.357   6.007  0.5129 -0.6435 -0.3062
  438MOL0     C60321   5.797   4.384   5.866  0.3051 -0.9761 -0.1972
  438MOL0     C60322   5.742   4.518   5.815  0.2487 -0.4848 -0.2666
  438MOL0     N60323   5.731   4.626   5.914  0.2723  0.4741  0.1665
  438MOL0     C60324   5.840   4.682   5.971 -0.2154  0.3100  0.5749
  438MOL0     C60325   5.787   4.765   6.064  0.1660 -1.1536  0.3050
  438MOL0     C60326   5.858   4.866   6.152  1.0228 -0.2975  0.5669
  438MOL0     C60327   5.802   5.007   6.141  0.2518 -0.1570  0.3178
  438MOL0     C60328   5.835   5.086   6.013 -0.9216  0.7426 -0.0984
  438MOL0     C60329   5.731   5.200   5.987  0.0614  0.3177  0.0375
  438MOL0     O60330   5.779   5.274   5.868 -0.3422  0.0213  0.0897
  438MOL0     C60331   5.732   5.403   5.843  0.4433 -0.0588  0.5486
  438MOL0     C60332   5.815   5.489   5.778 -0.5263 -0.3297 -0.5673
  438MOL0     C60333   5.789   5.629   5.757 -0.8167  0.3132  0.9390
  438MOL0     C60334   5.891   5.708   5.679  0.2247 -0.5140  0.1553
  438MOL0     C60335   5.664   5.681   5.807  0.3966 -0.3490 -0.6592
  438MOL0     C60336   5.611   5.826   5.804  0.4245 -0.0575  0.0643
  438MOL0     O60337   5.693   5.924   5.833 -0.0214 -0.0065 -0.0518
  438MOL0     C60338   5.645   6.055   5.818 -0.1808  0.8418 -0.2371
  438MOL0     C60339   5.685   6.130   5.699  0.0480 -0.2641 -0.1161
  438MOL0     C60340   5.627   6.255   5.660 -0.2019  0.7065  0.8695
  438MOL0     C60341   5.527   6.304   5.742  0.9752  0.0576  0.0348
  438MOL0     O60342   5.476   6.432   5.705 -0.2590 -0.0225 -0.5538
  438MOL0     C60343   5.444   6.531   5.803  0.2399 -0.0043  0.3608
  438MOL0     C60344   5.565   6.585   5.878 -0.6357 -0.4580 -0.9325
  438MOL0     C60345   5.529   6.734   5.919 -0.6814  0.1503 -0.5667
  438MOL0     C60346   5.652   6.781   6.011 -0.0090  0.7588 -0.3138
  438MOL0     C60347   5.682   6.932   6.021 -0.0896  0.3584  0.8786
  438MOL0     C60348   5.740   7.004   5.895  0.1501 -0.8757  0.5067
  438MOL0     C60349   5.804   7.133   5.935  0.9317  0.3040 -0.2286
  438MOL0     C60350   5.698   7.239   5.995 -0.4852  0.7867 -0.5442
  438MOL0    Cl60351   5.744   7.393   5.933 -0.1062  0.2401  0.3553
  438MOL0     C60352   5.494   6.233   5.855  0.5121 -0.6677  0.7483
  438MOL0     C60353   5.558   6.120   5.900 -0.5576 -0.2581 -0.6321
  438MOL0     O60354   5.493   5.842   5.783 -0.0568 -0.1974 -0.5367
  438MOL0     C60355   5.581   5.586   5.864  0.3567  0.1230  0.6073
  438MOL0     C60356   5.614   5.452   5.877 -0.0715 -0.5628  0.2787
  438MOL0     N60357   5.652   4.746   6.074 -0.6761  0.8639 -0.6155
  438MOL0     N60358   5.617   4.664   5.979  0.8199  0.1338 -0.2954
  438MOL0     C60359   6.026   3.689   5.768  0.0218 -0.0189  0.9586
  438MOL0     C60360   6.021   3.608   5.651 -0.5721  0.4777  0.1674
  438MOL0     C60361   6.079   3.351   5.311 -0.3748  1.1537 -0.2408
  438MOL0     C60362   5.962   3.297   5.266  0.2100  0.0570  0.7967
  438MOL0     C60363   5.936   3.253   5.139 -0.0568 -0.7400  0.0159
  438MOL0     C60364   6.035   3.264   5.038 -0.3240  0.1454 -0.5050
  438MOL0     O60365   5.998   3.212   4.916  0.3892  0.9520  0.3803
  438MOL0     C60366   6.086   3.252   4.811  0.1770  0.0077  1.0916
  438MOL0     C60367   6.032   3.194   4.680 -0.1816 -0.0280 -0.6182
  438MOL0     C60368   6.045   3.046   4.668 -0.6453  1.2121 -0.9749
  438MOL0     C60369   5.976   2.996   4.540  0.2088 -0.2032  0.5185
  438MOL0     C60370   6.051   2.881   4.488  0.2095  0.2553  0.2597
  438MOL0     C60371   6.116   2.787   4.430  0.5516  0.6328 -0.4685
  438MOL0     C60372   6.157   3.314   5.078 -1.1782 -0.7138 -0.3575
  438MOL0     C60373   6.188   3.357   5.216 -1.0386  0.5195 -0.5003
  438MOL0     C60374   6.326   3.398   5.262 -0.0114  0.7558  0.1323
  438MOL0     H60375   6.356   3.617   5.596  1.0679  0.3295  0.2707
  438MOL0     H60376   6.362   3.748   5.772  0.9945 -1.8809 -1.9858
  438MOL0     H60377   5.971   3.806   6.028  1.3294  0.2696  3.6289
  438MOL0     H60378   5.981   3.919   5.886 -0.1392  0.1511  0.0186
  438MOL0     H60379   6.111   3.951   6.146 -1.9198 -0.1502  1.0560
  438MOL0     H60380   6.123   4.066   6.008  0.8795 -0.9313 -0.2597
  438MOL0     H60381   5.841   3.981   6.080 -2.0242  1.4858  1.1530
  438MOL0     H60382   5.943   4.051   6.219  1.4134 -2.3125  0.4711
  438MOL0     H60383   5.969   4.259   6.115 -0.1778  1.3277 -0.1447
  438MOL0     H60384   5.945   4.198   5.952  0.8742 -0.7852  0.3542
  438MOL0     H60385   5.722   4.222   6.155  2.0670 -0.2878  1.2318
  438MOL0     H60386   5.700   4.147   5.995  1.0201  0.9831 -0.8578
  438MOL0     H60387   5.621   4.374   6.004  0.6223  0.3293  0.6374
  438MOL0     H60388   5.771   4.416   6.089  0.5885 -3.6199  1.9681
  438MOL0     H60389   5.773   4.300   5.801 -1.5401 -0.7066  0.0939
  438MOL0     H60390   5.905   4.397   5.879  0.5644 -2.7601 -0.3899
  438MOL0     H60391   5.803   4.557   5.733 -0.3725 -0.2776 -0.6411
  438MOL0     H60392   5.643   4.498   5.772 -0.9202  0.8725  1.6132
  438MOL0     H60393   5.945   4.669   5.946 -0.1759 -2.1096  1.7090
  438MOL0     H60394   5.962   4.857   6.121  0.5478  1.6088 -1.8861
  438MOL0     H60395   5.838   4.828   6.252 -1.0693 -2.5371 -0.6047
  438MOL0     H60396   5.693   5.005   6.143  0.2346  0.3399  2.3490
  438MOL0     H60397   5.837   5.082   6.213 -0.7543  2.7725 -2.0276
  438MOL0     H60398   5.934   5.133   6.010 -0.4327 -0.0671  1.7783
  438MOL0     H60399   5.831   5.017   5.929  1.9629  0.4303 -0.0782
  438MOL0     H60400   5.633   5.154   5.978  0.1095  0.5179 -2.1129
  438MOL0     H60401   5.729   5.256   6.081  1.6233 -3.1998  2.4090
  438MOL0     H60402   5.919   5.463   5.763  0.5128  1.4361  2.4992
  438MOL0     H60403   5.866   5.812   5.656  3.8966  0.2829 -0.8704
  438MOL0     H60404   5.923   5.659   5.586  1.4808  1.7161 -0.6516
  438MOL0     H60405   5.985   5.731   5.730 -0.3741  1.2780  0.5171
  438MOL0     H60406   5.752   6.085   5.626  0.1831  1.1170 -0.8743
  438MOL0     H60407   5.655   6.308   5.570 -1.2654  0.1155  0.1670
  438MOL0     H60408   5.413   6.623   5.751 -0.3247  1.1228  2.5627
  438MOL0     H60409   5.365   6.499   5.871  1.3524 -1.9283  0.8336
  438MOL0     H60410   5.598   6.516   5.956 -0.8918 -0.8231 -1.1450
  438MOL0     H60411   5.651   6.605   5.814  1.6441  0.7060  2.2479
  438MOL0     H60412   5.438   6.735   5.979 -2.2815  0.7140 -2.8333
  438MOL0     H60413   5.519   6.802   5.833  0.6620  0.7442 -0.2694
  438MOL0     H60414   5.739   6.724   5.977 -2.1303 -1.8566 -1.6875
  438MOL0     H60415   5.635   6.746   6.113  3.2585 -0.1380  0.0246
  438MOL0     H60416   5.588   6.981   6.045 -1.3880 -1.5948  0.0642
  438MOL0     H60417   5.743   6.944   6.111 -0.9250  0.8947  1.3855
  438MOL0     H60418   5.667   7.014   5.815 -0.4964  1.3585  1.3027
  438MOL0     H60419   5.824   6.941   5.865  0.4436  0.2305 -1.1271
  438MOL0     H60420   5.862   7.178   5.854  1.4812 -1.0421 -0.6121
  438MOL0     H60421   5.873   7.118   6.018 -0.7183  0.1922  1.1778
  438MOL0     H60422   5.706   7.250   6.103 -0.2712  1.8584 -0.6538
  438MOL0     H60423   5.599   7.204   5.967  0.1793 -0.8345 -0.9679
  438MOL0     H60424   5.411   6.266   5.918 -0.0695 -1.7970  0.6042
  438MOL0     H60425   5.525   6.072   5.992  1.1088  1.5065  0.9877
  438MOL0     H60426   5.477   5.605   5.885  0.8407  0.9062  2.4824
  438MOL0     H60427   5.538   5.389   5.922  0.5441 -0.7224  1.1059
  438MOL0     H60428   5.934   3.685   5.825 -0.5988 -0.3514 -0.0501
  438MOL0     H60429   5.925   3.593   5.603 -0.9807  3.6468 -0.2064
  438MOL0     H60430   5.876   3.283   5.331 -1.5743  2.9134 -0.7235
  438MOL0     H60431   5.842   3.206   5.113  0.7059 -3.4467  1.7296
  438MOL0     H60432   6.081   3.362   4.808 -1.3475 -0.0485  0.4038
  438MOL0     H60433   6.189   3.223   4.831  0.5284  1.0219  0.8274
  438MOL0     H60434   6.105   3.223   4.604  0.2097 -1.4765 -0.8442
  438MOL0     H60435   5.937   3.227   4.639  0.1929  0.4165 -1.1395
  438MOL0     H60436   6.146   3.007   4.676 -1.7575 -1.4985  2.3427
  438MOL0     H60437   6.002   3.000   4.758 -1.6157  2.9367 -0.4899
  438MOL0     H60438   5.968   3.078   4.468  1.2027 -0.9070 -0.4276
  438MOL0     H60439   5.872   2.970   4.563 -0.2398  1.0711  0.0042
  438MOL0     H60440   6.169   2.706   4.385  0.6818 -0.6894  1.9192
  438MOL0     H60441   6.242   3.332   5.013 -1.3594  2.8812  0.1869
  438MOL0     H60442   6.336   3.507   5.252  2.0325  0.4005 -3.2281
  438MOL0     H60443   6.345   3.355   5.361  0.5172  0.1333 -0.2302
  438MOL0     H60444   6.409   3.367   5.198 -1.1464  1.2450 -1.6235
  439MOL0     O60445   3.093  10.629   9.341  0.8138 -0.7163 -0.0651
  439MOL0     C60446   3.036  10.568   9.252 -0.1399 -0.0336 -0.9647
  439MOL0     O60447   3.080  10.568   9.130 -0.5741  0.1783 -0.3090
  439MOL0     C60448   3.217  10.571   9.089 -0.3417  0.7735  0.3894
  439MOL0     C60449   3.257  10.637   8.971 -0.0952  0.2714 -0.1011
  439MOL0     C60450   3.389  10.619   8.927  0.5670 -0.2870  0.2594
  439MOL0     C60451   3.481  10.558   9.011 -0.8995 -0.5911 -0.9042
  439MOL0     O60452   3.613  10.551   8.992  0.0972 -0.0220 -0.0997
  439MOL0     C60453   3.670  10.546   8.860  0.3666  0.3243  0.5527
  439MOL0     C60454   3.798  10.625   8.851  0.0666 -0.3535  0.3132
  439MOL0     C60455   3.894  10.602   8.957 -0.0395 -1.1012 -0.8265
  439MOL0     C60456   4.028  10.675   8.934  0.2058 -0.0263 -0.1137
  439MOL0     C60457   4.116  10.654   9.061 -0.1307 -0.5227 -0.9633
  439MOL0     C60458   4.207  10.775   9.083  0.1562 -0.0366 -0.5030
  439MOL0     C60459   4.126  10.859   9.186 -0.6091  0.3375 -0.1342
  439MOL0     C60460   4.189  10.983   9.249  0.4248 -0.3146  0.9908
  439MOL0     N60461   4.271  11.058   9.154 -0.1793  0.3321 -0.0891
  439MOL0     C60462   4.229  11.166   9.076  0.4263  0.2893 -0.1836
  439MOL0     C60463   4.340  11.240   9.055  0.4207  0.0797  0.4110
  439MOL0     C60464   4.341  11.370   8.988  0.3242 -0.2398  1.2115
  439MOL0     C60465   4.445  11.370   8.878 -0.3838  1.0064  0.3860
  439MOL0     C60466   4.452  11.510   8.804  0.7541  0.5742  0.1525
  439MOL0     C60467   4.587  11.584   8.844  0.3149 -1.4606 -0.3093
  439MOL0     O60468   4.611  11.585   8.986  0.3686  0.8398 -0.0052
  439MOL0     C60469   4.700  11.675   9.038 -0.4844 -0.3873  0.2026
  439MOL0     C60470   4.778  11.763   8.964 -1.4568 -0.0768 -0.3197
  439MOL0     C60471   4.872  11.855   9.024  0.1672  0.8224 -0.4888
  439MOL0     C60472   4.950  11.950   8.930  0.2467 -0.1139 -0.7608
  439MOL0     C60473   4.890  11.862   9.166  0.7744  0.0186 -0.5086
  439MOL0     C60474   4.981  11.944   9.237  0.6675  0.1955  0.1803
  439MOL0     O60475   5.008  11.908   9.364 -0.3918  0.1891 -0.1066
  439MOL0     C60476   5.092  11.990   9.435 -0.0053  0.0186 -0.0283
  439MOL0     C60477   5.063  12.005   9.568 -1.1432 -1.3519  0.0874
  439MOL0     C60478   5.143  12.080   9.654  0.4971  0.3632  0.3406
  439MOL0     C60479   5.260  12.140   9.604  0.6393 -0.0969 -0.0783
  439MOL0     O60480   5.348  12.205   9.682  0.1958  0.5424 -0.5127
  439MOL0     C60481   5.306  12.246   9.817 -0.2293 -0.1431  0.6587
  439MOL0     C60482   5.403  12.370   9.848  0.0013 -0.2572 -0.8228
  439MOL0     C60483   5.542  12.325   9.897  0.0867  0.0385  0.3798
  439MOL0     C60484   5.630  12.433   9.941  0.1112 -0.0888 -0.6395
  439MOL0     C60485   5.766  12.368   9.994  0.2146  1.4678  0.0730
  439MOL0     C60486   5.848  12.280   9.895 -0.3357  0.6539  0.0061
  439MOL0     C60487   5.966  12.214   9.965 -0.6902  0.3323 -0.0974
  439MOL0     C60488   6.053  12.136   9.871  0.7425  0.6856 -0.5736
  439MOL0    Cl60489   6.174  12.038   9.972  0.1772 -0.1932  0.2396
  439MOL0     C60490   5.277  12.136   9.464  0.4675 -0.1390 -0.2869
  439MOL0     C60491   5.208  12.051   9.384 -1.0416  1.3036 -0.1537
  439MOL0     O60492   5.004  12.054   9.183  0.1338  0.0499 -0.4509
  439MOL0     C60493   4.804  11.770   9.239  0.5020  0.0949 -0.8198
  439MOL0     C60494   4.713  11.684   9.178 -0.3639 -0.5801  0.3458
  439MOL0     N60495   4.447  11.181   9.104 -0.4278 -0.3201  0.8414
  439MOL0     N60496   4.403  11.076   9.172 -0.2673 -0.4088 -0.8261
  439MOL0     C60497   3.442  10.505   9.137  0.4872 -0.1927 -0.2584
  439MOL0     C60498   3.309  10.506   9.175 -0.0060 -0.6800 -0.7729
  439MOL0     C60499   2.914  10.493   9.291 -0.0071  0.0818  1.0048
  439MOL0     C60500   2.860  10.417   9.182  1.1308  0.1526 -0.3845
  439MOL0     C60501   2.752  10.326   9.200  0.2157  0.9878  0.5092
  439MOL0     C60502   2.692  10.317   9.323  0.9066  0.5031 -0.5195
  439MOL0     O60503   2.595  10.218   9.347  0.7281  0.2435  0.1944
  439MOL0     C60504   2.593  10.139   9.464 -0.5948  0.6749 -0.3045
  439MOL0     C60505   2.469  10.054   9.464 -0.2814 -0.8566 -0.9629
  439MOL0     C60506   2.348  10.155   9.487 -0.1895  0.1276 -0.2863
  439MOL0     C60507   2.219  10.124   9.416  0.6836 -0.3403 -0.5548
  439MOL0     C60508   2.147   9.998   9.451  0.8217 -1.4254  0.1622
  439MOL0     C60509   2.078   9.899   9.493 -0.4923 -0.7134 -0.5127
  439MOL0     C60510   2.729  10.412   9.422  0.1277  0.1424  0.9399
  439MOL0     C60511   2.846  10.484   9.419  0.4940  0.5143  0.3987
  439MOL0     C60512   2.885  10.562   9.538 -0.7354 -0.6932  0.0943
  439MOL0     H60513   3.182  10.682   8.906 -2.1820 -2.9184 -0.1444
  439MOL0     H60514   3.415  10.660   8.830  2.4045 -2.5902 -0.3164
  439MOL0     H60515   3.601  10.572   8.779  0.5219  0.6834  0.5362
  439MOL0     H60516   3.700  10.445   8.832  3.3226  0.3805  3.0285
  439MOL0     H60517   3.846  10.603   8.755  1.2644 -0.7045  0.9710
  439MOL0     H60518   3.765  10.728   8.864  3.6024  0.9988 -0.3997
  439MOL0     H60519   3.843  10.642   9.046 -0.6948  1.1340 -2.1323
  439MOL0     H60520   3.924  10.497   8.960 -0.0980 -1.1281 -1.1609
  439MOL0     H60521   4.078  10.634   8.846 -0.8121 -0.8800 -0.3132
  439MOL0     H60522   4.013  10.781   8.910 -0.5833 -0.3780 -1.2623
  439MOL0     H60523   4.180  10.569   9.033 -0.3311 -1.2380  0.6603
  439MOL0     H60524   4.061  10.625   9.151 -1.5004  2.1455 -0.8602
  439MOL0     H60525   4.300  10.749   9.136 -1.3449 -1.6565  1.4926
  439MOL0     H60526   4.236  10.824   8.990 -1.3906 -0.7931 -1.4270
  439MOL0     H60527   4.109  10.798   9.275 -1.4448 -1.8241 -1.6802
  439MOL0     H60528   4.024  10.876   9.149 -1.6074 -2.6650  0.8943
  439MOL0     H60529   4.112  11.046   9.293  1.1139  1.7855 -0.6292
  439MOL0     H60530   4.262  10.951   9.324 -0.2141 -4.4189  0.0963
  439MOL0     H60531   4.126  11.188   9.048  0.1497 -1.4607 -0.6554
  439MOL0     H60532   4.359  11.455   9.054  1.5845  0.3003  0.2010
  439MOL0     H60533   4.244  11.385   8.939  0.9970 -1.8190 -0.7286
  439MOL0     H60534   4.542  11.356   8.926 -0.1138 -0.7102 -0.6056
  439MOL0     H60535   4.429  11.293   8.802  0.6501  0.7719  0.3970
  439MOL0     H60536   4.436  11.496   8.696 -2.8075  1.1158  0.4761
  439MOL0     H60537   4.367  11.576   8.826 -0.0405 -0.0711 -0.8913
  439MOL0     H60538   4.665  11.532   8.788  1.4678 -0.2346  0.1098
  439MOL0     H60539   4.582  11.688   8.810  0.8422 -1.8708 -1.7151
  439MOL0     H60540   4.771  11.766   8.856 -0.1564 -0.4531 -0.4342
  439MOL0     H60541   4.968  11.914   8.829  2.3232  0.8248 -0.7837
  439MOL0     H60542   5.047  11.970   8.978 -0.2010  0.6902 -0.1565
  439MOL0     H60543   4.891  12.042   8.923 -0.8104 -0.7379 -0.3364
  439MOL0     H60544   4.982  11.939   9.598 -2.3866  1.2312  3.1400
  439MOL0     H60545   5.130  12.072   9.761 -0.9908  0.0873  0.1563
  439MOL0     H60546   5.202  12.281   9.823 -0.8444 -1.8420  0.4598
  439MOL0     H60547   5.325  12.158   9.879  1.8889  0.1943  0.5369
  439MOL0     H60548   5.414  12.423   9.753 -0.0245  2.5289  0.6282
  439MOL0     H60549   5.366  12.432   9.930 -0.5553 -0.2047 -1.1131
  439MOL0     H60550   5.583  12.263   9.816  2.5492  1.0536  0.7748
  439MOL0     H60551   5.532  12.262   9.985 -1.5725 -1.4613 -0.7875
  439MOL0     H60552   5.579  12.475  10.028  1.2586 -0.7016  0.3707
  439MOL0     H60553   5.645  12.506   9.861  2.2446 -0.6606 -0.8180
  439MOL0     H60554   5.825  12.452  10.032  3.4224 -2.1894  4.3614
  439MOL0     H60555   5.737  12.303  10.077  0.0920 -0.3003 -1.2944
  439MOL0     H60556   5.883  12.347   9.816 -0.9402 -0.1438 -0.9612
  439MOL0     H60557   5.785  12.205   9.846  0.9443 -0.1451 -0.4928
  439MOL0     H60558   5.936  12.139  10.038 -0.5516 -0.9586 -1.3229
  439MOL0     H60559   6.016  12.294  10.020 -2.5824  0.7436  1.1186
  439MOL0     H60560   6.096  12.202   9.796 -0.3389  1.1863 -0.7780
  439MOL0     H60561   5.987  12.074   9.810  2.4595 -0.7415 -1.0633
  439MOL0     H60562   5.367  12.186   9.431  2.7832 -3.0637  1.1171
  439MOL0     H60563   5.245  12.022   9.286  0.0373  4.3255 -0.7676
  439MOL0     H60564   4.827  11.750   9.343 -3.3415  2.6359  0.7021
  439MOL0     H60565   4.654  11.617   9.239 -2.5933 -0.5393 -1.6119
  439MOL0     H60566   3.514  10.459   9.204 -0.8231  0.1800  1.4741
  439MOL0     H60567   3.279  10.463   9.270  0.2151  2.4098  0.8189
  439MOL0     H60568   2.910  10.414   9.086 -0.4339 -1.5772 -1.2137
  439MOL0     H60569   2.715  10.263   9.120  2.2333 -0.2192  0.4534
  439MOL0     H60570   2.680  10.073   9.468 -1.6143 -0.6737  1.1423
  439MOL0     H60571   2.599  10.192   9.560 -2.8215 -0.3320  0.4747
  439MOL0     H60572   2.467   9.992   9.555  4.4217  1.5233  1.1260
  439MOL0     H60573   2.465   9.996   9.372  1.8700 -0.0304 -1.6419
  439MOL0     H60574   2.330  10.163   9.595 -1.1769 -3.2321 -0.0807
  439MOL0     H60575   2.371  10.260   9.467  3.4769 -0.1603  1.6373
  439MOL0     H60576   2.237  10.129   9.309  0.6870  2.0182 -0.5086
  439MOL0     H60577   2.150  10.205   9.443  2.2094  0.8760 -0.1264
  439MOL0     H60578   2.021   9.824   9.544 -1.8762  2.4477  3.1312
  439MOL0     H60579   2.675  10.404   9.516  1.2677  0.0337  1.6013
  439MOL0     H60580   2.817  10.534   9.618 -1.1935 -1.7584 -0.6342
  439MOL0     H60581   2.990  10.535   9.555 -1.2918 -5.1075 -1.9416
  439MOL0     H60582   2.867  10.670   9.538 -2.7261 -0.9755  1.4702
  440MOL0     O60583   5.183   7.161   3.348 -0.4567  0.0078 -0.5274
  440MOL0     C60584   5.123   7.239   3.420 -0.1219 -0.2905 -0.5393
  440MOL0     O60585   5.173   7.298   3.534 -0.0409 -0.0115  0.1188
  440MOL0     C60586   5.311   7.309   3.565  0.0764  0.1567 -0.2018
  440MOL0     C60587   5.390   7.192   3.594  0.1528 -0.3436  0.5032
  440MOL0     C60588   5.523   7.214   3.635 -0.5780  0.3300 -0.6118
  440MOL0     C60589   5.583   7.332   3.664  0.6550 -0.5788  0.2234
  440MOL0     O60590   5.711   7.355   3.713  0.3372  0.3008 -0.4595
  440MOL0     C60591   5.820   7.264   3.682 -0.3207 -0.3630  0.6938
  440MOL0     C60592   5.961   7.308   3.732  0.0098  0.1178  0.4300
  440MOL0     C60593   5.945   7.385   3.861  0.5474 -0.1494 -0.0635
  440MOL0     C60594   6.088   7.423   3.905  0.6628  0.8042 -1.2819
  440MOL0     C60595   6.093   7.470   4.051 -0.5143  0.8491  0.0411
  440MOL0     C60596   6.240   7.506   4.083 -0.3020  0.6455 -0.1966
  440MOL0     C60597   6.253   7.657   4.064 -0.5309 -0.3905  0.1986
  440MOL0     C60598   6.405   7.705   4.047 -0.1426 -0.2265 -0.1781
  440MOL0     N60599   6.482   7.679   4.172  0.5094 -0.6016  0.4924
  440MOL0     C60600   6.421   7.671   4.295 -0.0632 -0.2132  0.6357
  440MOL0     C60601   6.505   7.608   4.375  1.1374  0.2466 -0.0277
  440MOL0     C60602   6.513   7.577   4.516 -0.4089 -0.8740  0.3823
  440MOL0     C60603   6.391   7.568   4.597 -0.0921 -0.1209 -0.7929
  440MOL0     C60604   6.296   7.451   4.568  0.4419 -0.1220 -0.2868
  440MOL0     C60605   6.150   7.494   4.579  0.6353 -0.1907  0.5311
  440MOL0     O60606   6.114   7.597   4.492  0.9289 -0.4265 -0.2369
  440MOL0     C60607   5.989   7.582   4.435  0.1751  0.3205 -0.0963
  440MOL0     C60608   5.893   7.674   4.454 -0.0072 -0.2331 -0.4903
  440MOL0     C60609   5.760   7.663   4.394  0.6873  0.6472  0.5743
  440MOL0     C60610   5.671   7.781   4.405  0.3379  0.5293 -0.5933
  440MOL0     C60611   5.721   7.541   4.327 -0.2250  0.0060 -0.6838
  440MOL0     C60612   5.593   7.519   4.252 -0.4723  0.5742 -0.0235
  440MOL0     O60613   5.589   7.410   4.170  0.5034 -0.2795 -0.1656
  440MOL0     C60614   5.466   7.364   4.125 -0.1772 -0.4425  0.3782
  440MOL0     C60615   5.376   7.321   4.223 -0.3503 -0.3263  1.2983
  440MOL0     C60616   5.256   7.261   4.177 -0.4363  0.2908  0.3698
  440MOL0     C60617   5.218   7.254   4.044  0.8414 -0.4133  0.3797
  440MOL0     O60618   5.098   7.188   4.021 -0.5070  0.0786  0.9104
  440MOL0     C60619   5.051   7.185   3.882 -0.1697  0.7801  0.6792
  440MOL0     C60620   4.930   7.089   3.874 -0.3657 -0.0262 -0.4575
  440MOL0     C60621   4.846   7.118   3.755  0.2459 -0.1244  0.6773
  440MOL0     C60622   4.719   7.041   3.754 -0.7504  0.1527 -0.0110
  440MOL0     C60623   4.625   7.097   3.652 -0.0516 -0.7843  0.0911
  440MOL0     C60624   4.487   7.033   3.659  0.2644 -0.5731 -0.0885
  440MOL0     C60625   4.406   7.087   3.545  0.8865 -0.2163 -0.0262
  440MOL0     C60626   4.273   7.015   3.545 -0.3151 -0.0005 -0.1317
  440MOL0    Cl60627   4.195   7.042   3.712 -0.6203  0.3882  0.2290
  440MOL0     C60628   5.311   7.309   3.953 -0.1131  1.0606 -0.1525
  440MOL0     C60629   5.435   7.358   3.992 -0.0508 -0.4076 -0.2341
  440MOL0     O60630   5.495   7.588   4.280  0.2604 -0.1975  0.0615
  440MOL0     C60631   5.828   7.450   4.314 -0.8213  0.2714  0.4421
  440MOL0     C60632   5.957   7.467   4.361 -0.0367  0.4026 -0.7205
  440MOL0     N60633   6.617   7.589   4.295  0.5379  0.1663  0.3253
  440MOL0     N60634   6.599   7.623   4.177 -0.2339 -0.7258  0.5449
  440MOL0     C60635   5.509   7.442   3.632 -0.4969  0.2505  0.4296
  440MOL0     C60636   5.374   7.436   3.583  0.1377 -0.1155  0.4156
  440MOL0     C60637   4.978   7.250   3.388  0.5287 -0.2219 -0.0329
  440MOL0     C60638   4.927   7.183   3.275  0.3214  0.4121 -0.6921
  440MOL0     C60639   4.789   7.208   3.234 -0.2769  0.4474 -0.0673
  440MOL0     C60640   4.700   7.275   3.322  0.4207 -0.8913  0.6095
  440MOL0     O60641   4.558   7.287   3.296  0.3395  0.0261 -0.9294
  440MOL0     C60642   4.503   7.254   3.163 -0.6940  0.1972 -0.5349
  440MOL0     C60643   4.541   7.365   3.062 -0.2451 -0.1281 -0.0054
  440MOL0     C60644   4.531   7.321   2.920 -0.2125  0.3882  0.1226
  440MOL0     C60645   4.389   7.268   2.887  0.2004  0.1843 -0.0584
  440MOL0     C60646   4.399   7.227   2.749  0.7423  0.3830 -0.1380
  440MOL0     C60647   4.409   7.188   2.639 -0.0383  0.0592  0.5581
  440MOL0     C60648   4.753   7.341   3.428 -0.0117  0.5261 -0.2472
  440MOL0     C60649   4.889   7.338   3.461  0.0044 -0.0556 -0.1847
  440MOL0     C60650   4.933   7.433   3.574  0.6425 -0.2865 -0.1459
  440MOL0     H60651   5.353   7.092   3.573  0.1345 -0.3449  0.5411
  440MOL0     H60652   5.584   7.125   3.647  3.9359  3.2717  0.8750
  440MOL0     H60653   5.829   7.236   3.577 -0.7456 -1.8198  1.0262
  440MOL0     H60654   5.794   7.176   3.740 -0.5239 -0.1782  0.8835
  440MOL0     H60655   6.027   7.223   3.753  0.3636 -0.2399 -1.9234
  440MOL0     H60656   6.013   7.367   3.656 -1.1111 -0.1261 -0.5460
  440MOL0     H60657   5.880   7.472   3.851  1.1779  0.9600  3.7570
  440MOL0     H60658   5.891   7.326   3.936 -2.9095  1.2066 -1.2964
  440MOL0     H60659   6.155   7.338   3.891 -0.8590 -1.4572  3.1121
  440MOL0     H60660   6.118   7.510   3.846 -1.7435  2.0123 -0.8647
  440MOL0     H60661   6.070   7.386   4.117  5.5887 -0.0167  1.6699
  440MOL0     H60662   6.020   7.548   4.075 -1.6834 -0.3683  0.5723
  440MOL0     H60663   6.264   7.485   4.188  1.0879  5.6385  0.7712
  440MOL0     H60664   6.317   7.459   4.021  0.2489 -1.8542  2.2135
  440MOL0     H60665   6.211   7.709   4.151  1.2109  3.2684 -0.9397
  440MOL0     H60666   6.194   7.673   3.973  0.8484 -6.7277 -2.3313
  440MOL0     H60667   6.453   7.653   3.964  0.0327  2.4080 -1.8331
  440MOL0     H60668   6.419   7.813   4.035  1.2870 -0.2799  0.7988
  440MOL0     H60669   6.326   7.711   4.331 -0.0933  0.2871  0.0057
  440MOL0     H60670   6.586   7.646   4.558 -0.1780 -0.3177 -0.9017
  440MOL0     H60671   6.568   7.483   4.530  0.7617  0.2341  5.9007
  440MOL0     H60672   6.412   7.572   4.705  3.6974  2.0713 -1.4220
  440MOL0     H60673   6.340   7.664   4.582  0.8341  0.6457  0.6337
  440MOL0     H60674   6.317   7.419   4.466 -0.9323  2.6831 -1.5568
  440MOL0     H60675   6.316   7.372   4.641 -2.2482 -0.6868 -0.0542
  440MOL0     H60676   6.092   7.404   4.557 -3.1488  2.3369 -0.8465
  440MOL0     H60677   6.109   7.524   4.676 -1.5880  0.1196 -0.4346
  440MOL0     H60678   5.913   7.768   4.505 -2.8066 -0.8351  1.9830
  440MOL0     H60679   5.716   7.877   4.432 -1.8971  1.5083 -0.1413
  440MOL0     H60680   5.593   7.771   4.482 -1.5887  0.6718 -2.4468
  440MOL0     H60681   5.629   7.795   4.305  0.7202  1.4760 -0.6302
  440MOL0     H60682   5.408   7.331   4.326  1.3504 -0.8254  0.8444
  440MOL0     H60683   5.181   7.227   4.247 -0.8294 -1.1793 -0.7074
  440MOL0     H60684   5.026   7.287   3.849 -3.3374  0.0387  0.4782
  440MOL0     H60685   5.123   7.136   3.816 -3.0937 -0.2213 -2.0140
  440MOL0     H60686   4.971   6.988   3.876 -1.1285 -0.3714 -1.4839
  440MOL0     H60687   4.866   7.106   3.961 -1.3555  2.2058 -1.5437
  440MOL0     H60688   4.896   7.096   3.660  0.5827 -1.6162  1.1697
  440MOL0     H60689   4.825   7.225   3.749 -2.3007 -0.6451 -1.0509
  440MOL0     H60690   4.670   7.051   3.851 -1.3769  1.5449 -0.4495
  440MOL0     H60691   4.743   6.936   3.733  0.8193  0.2944  0.8923
  440MOL0     H60692   4.620   7.207   3.648 -0.6857 -0.8247 -3.2159
  440MOL0     H60693   4.673   7.077   3.556  1.4593 -0.2975  0.7046
  440MOL0     H60694   4.439   7.063   3.752  0.7293 -0.8809  0.2529
  440MOL0     H60695   4.497   6.924   3.656 -2.3910 -0.9004  0.0633
  440MOL0     H60696   4.461   7.083   3.450  2.0260 -1.8024  0.6448
  440MOL0     H60697   4.380   7.192   3.561 -4.8789 -1.4577  0.8543
  440MOL0     H60698   4.290   6.907   3.536 -0.3402 -0.3151  2.7132
  440MOL0     H60699   4.203   7.042   3.466 -2.2347 -2.8483  0.4345
  440MOL0     H60700   5.293   7.308   3.845 -2.3142  2.5474  0.1274
  440MOL0     H60701   5.499   7.409   3.922  1.3950  0.2647  1.5044
  440MOL0     H60702   5.814   7.347   4.284 -2.0975  1.0324 -1.8153
  440MOL0     H60703   6.032   7.391   4.341  0.2596  0.7705 -1.0269
  440MOL0     H60704   5.564   7.535   3.649  2.8136 -1.5773  0.5323
  440MOL0     H60705   5.312   7.524   3.564  1.7965  0.4660 -3.1798
  440MOL0     H60706   4.978   7.105   3.220  2.5583 -0.4294  2.3277
  440MOL0     H60707   4.750   7.167   3.142 -0.9256 -1.9519  1.2075
  440MOL0     H60708   4.548   7.159   3.130  1.0593  0.8134 -0.0369
  440MOL0     H60709   4.395   7.237   3.168 -0.3917 -2.7767 -1.7832
  440MOL0     H60710   4.646   7.392   3.081  0.5889 -1.5325 -2.2650
  440MOL0     H60711   4.473   7.449   3.080 -1.2694 -1.6588  4.6343
  440MOL0     H60712   4.546   7.404   2.851 -0.1674  0.1487 -0.1582
  440MOL0     H60713   4.604   7.239   2.918 -3.1318 -2.4284  0.2743
  440MOL0     H60714   4.314   7.343   2.911 -2.6416 -2.6415  0.6627
  440MOL0     H60715   4.355   7.186   2.951  1.5694 -1.0892 -0.8908
  440MOL0     H60716   4.433   7.165   2.537 -1.5984  1.1587 -0.0937
  440MOL0     H60717   4.684   7.398   3.489 -0.6711  2.5921 -2.7425
  440MOL0     H60718   4.846   7.481   3.618 -0.0727 -1.1544 -0.5722
  440MOL0     H60719   4.978   7.367   3.649 -1.4678  0.5643  2.0034
  440MOL0     H60720   4.995   7.516   3.539  0.4817 -0.4062 -0.7271
  441MOL0     O60721   5.729   0.222   5.720  0.5511 -0.1276  0.2473
  441MOL0     C60722   5.813   0.303   5.733 -1.1417 -0.7071 -0.8065
  441MOL0     O60723   5.793   0.439   5.724  0.1466  0.0367 -0.4338
  441MOL0     C60724   5.669   0.476   5.670  0.3834  1.0493 -0.2255
  441MOL0     C60725   5.668   0.541   5.547  0.2268  0.1185 -0.0533
  441MOL0     C60726   5.550   0.588   5.491 -0.5030  0.1763 -0.7725
  441MOL0     C60727   5.428   0.563   5.549 -1.0529 -0.6826 -0.2082
  441MOL0     O60728   5.311   0.587   5.487  0.7024  0.3167 -0.0156
  441MOL0     C60729   5.240   0.706   5.511 -0.6226 -0.3940  0.5897
  441MOL0     C60730   5.100   0.688   5.438 -0.4709  0.3247  0.2990
  441MOL0     C60731   5.113   0.652   5.288  0.5113 -0.4925  0.3775
  441MOL0     C60732   5.239   0.708   5.224 -0.6980  1.2048  1.5624
  441MOL0     C60733   5.273   0.633   5.084  0.1040 -1.1092  0.1770
  441MOL0     C60734   5.369   0.737   5.013  0.0971  0.0116 -1.1231
  441MOL0     C60735   5.440   0.679   4.892 -0.3370 -0.0374  0.2406
  441MOL0     C60736   5.566   0.611   4.942  0.3513  0.2238  0.0717
  441MOL0     N60737   5.672   0.629   4.842 -0.2615 -0.1197 -0.2931
  441MOL0     C60738   5.775   0.730   4.852  0.1751  0.2817  0.3561
  441MOL0     C60739   5.847   0.714   4.732  0.5879 -0.1988 -0.1911
  441MOL0     C60740   5.981   0.786   4.694  0.0821  0.5750 -0.1622
  441MOL0     C60741   6.042   0.726   4.565  1.4558 -0.3626 -0.1665
  441MOL0     C60742   6.158   0.812   4.520 -0.1402  0.4425  0.7777
  441MOL0     C60743   6.190   0.787   4.366 -0.2130  0.9092  0.5379
  441MOL0     O60744   6.077   0.814   4.279 -0.2889 -0.1907 -0.0835
  441MOL0     C60745   6.087   0.927   4.205 -0.2143  0.5208 -0.6233
  441MOL0     C60746   6.101   1.053   4.258 -0.2767  0.0538 -0.1950
  441MOL0     C60747   6.083   1.168   4.181 -0.4529  0.0097 -0.3057
  441MOL0     C60748   6.097   1.306   4.246  0.2571 -0.0743  0.4284
  441MOL0     C60749   6.056   1.156   4.039 -0.1622 -0.6405  0.2611
  441MOL0     C60750   6.046   1.275   3.943  0.0591 -0.1995  0.3136
  441MOL0     O60751   6.048   1.235   3.810  0.0177 -0.0602 -0.6105
  441MOL0     C60752   6.055   1.342   3.724  0.2005 -1.1698  0.2242
  441MOL0     C60753   6.179   1.404   3.696  0.6210  0.1408 -0.2785
  441MOL0     C60754   6.182   1.503   3.597  0.1358 -0.4655 -0.3323
  441MOL0     C60755   6.065   1.547   3.529 -0.1797 -0.3544 -0.2921
  441MOL0     O60756   6.062   1.654   3.447 -0.9900  0.7610  0.1459
  441MOL0     C60757   6.095   1.779   3.512  0.0127 -0.0415  0.3385
  441MOL0     C60758   6.069   1.901   3.422  0.4234 -0.6246  1.3596
  441MOL0     C60759   5.935   1.896   3.357  0.8817  0.0287 -0.9378
  441MOL0     C60760   5.894   1.996   3.242 -0.1596  0.0024  0.1922
  441MOL0     C60761   5.755   1.974   3.198 -0.3547  0.8707 -1.0691
  441MOL0     C60762   5.703   2.097   3.117 -0.2462  0.4586 -0.2340
  441MOL0     C60763   5.681   2.217   3.215 -1.3557 -0.2128 -0.5109
  441MOL0     C60764   5.586   2.318   3.158  0.2771 -0.3264  0.0673
  441MOL0    Cl60765   5.619   2.374   2.993  0.0954  0.0553  0.3390
  441MOL0     C60766   5.945   1.488   3.571  0.5367 -0.0521  0.8956
  441MOL0     C60767   5.933   1.394   3.673 -0.3550  0.4119  0.3407
  441MOL0     O60768   6.054   1.396   3.978  0.6843 -0.1805 -0.3097
  441MOL0     C60769   6.035   1.029   3.991 -1.1310  1.0414  1.2720
  441MOL0     C60770   6.036   0.920   4.075  0.1225  0.4050  0.3104
  441MOL0     N60771   5.787   0.609   4.663 -0.4712 -1.1931 -0.4564
  441MOL0     N60772   5.689   0.564   4.729  0.1220  0.3277  0.0159
  441MOL0     C60773   5.425   0.496   5.677  0.3515 -0.5970  0.2507
  441MOL0     C60774   5.550   0.457   5.740 -0.9929  0.2729 -0.2253
  441MOL0     C60775   5.951   0.258   5.767  0.0643  0.7472  0.5847
  441MOL0     C60776   6.065   0.338   5.734 -0.4643 -0.3837  0.0545
  441MOL0     C60777   6.200   0.299   5.754 -0.4164  0.5887 -0.5928
  441MOL0     C60778   6.222   0.177   5.822 -0.3834  0.3908  1.5724
  441MOL0     O60779   6.351   0.136   5.849  0.5411  0.0472 -0.6325
  441MOL0     C60780   6.436   0.101   5.742 -0.0216 -0.4931 -0.6873
  441MOL0     C60781   6.397  -0.008   5.649 -0.9667 -0.2259  1.1880
  441MOL0     C60782   6.474  -0.002   5.512 -0.0536  0.5943 -0.6177
  441MOL0     C60783   6.627   0.000   5.532 -0.1733  0.3125 -0.5663
  441MOL0     C60784   6.665  -0.124   5.606 -0.8419 -0.7241  0.0147
  441MOL0     C60785   6.709  -0.216   5.673 -0.4883 -0.4443  0.0421
  441MOL0     C60786   6.111   0.117   5.871  0.1237  0.7996 -0.7217
  441MOL0     C60787   5.981   0.151   5.848  0.2849  0.5279 -0.6540
  441MOL0     C60788   5.867   0.080   5.925 -0.9175 -0.0250 -0.8408
  441MOL0     H60789   5.764   0.550   5.497  1.3648 -3.4085  1.2108
  441MOL0     H60790   5.536   0.633   5.393 -0.5203  2.3393  0.1764
  441MOL0     H60791   5.293   0.795   5.476  0.3419 -0.9123  0.7015
  441MOL0     H60792   5.218   0.716   5.617  1.2725  2.0440  0.8435
  441MOL0     H60793   5.036   0.616   5.491 -2.6007  0.3159 -2.0846
  441MOL0     H60794   5.041   0.781   5.444 -3.6149 -1.3496 -1.6688
  441MOL0     H60795   5.123   0.544   5.270 -1.2146 -0.7639  0.8634
  441MOL0     H60796   5.020   0.676   5.236  0.1055 -1.9257  0.3855
  441MOL0     H60797   5.231   0.816   5.207  0.2557  1.0454 -0.1571
  441MOL0     H60798   5.327   0.681   5.283  0.7248 -1.6634 -1.5226
  441MOL0     H60799   5.190   0.620   5.013  1.3198  0.4267 -1.6278
  441MOL0     H60800   5.310   0.531   5.103 -2.7541 -3.3540 -4.3086
  441MOL0     H60801   5.304   0.821   4.986 -0.9263  0.0933  1.3364
  441MOL0     H60802   5.440   0.780   5.083 -1.2996  0.5640  0.0065
  441MOL0     H60803   5.462   0.763   4.824 -2.0176 -0.2665 -0.6304
  441MOL0     H60804   5.373   0.622   4.827 -1.7479  2.4181 -0.5984
  441MOL0     H60805   5.605   0.629   5.043  2.0298 -6.0490  0.9612
  441MOL0     H60806   5.532   0.507   4.947 -1.2222  0.6945 -0.1403
  441MOL0     H60807   5.792   0.799   4.934  1.6503  0.3817 -0.0220
  441MOL0     H60808   6.052   0.793   4.776 -0.8362 -0.2404  0.7274
  441MOL0     H60809   5.944   0.887   4.674  0.8118  1.3091  1.9458
  441MOL0     H60810   6.069   0.623   4.589 -1.3059 -0.7632  1.5777
  441MOL0     H60811   5.967   0.738   4.487  1.2495  0.4102  0.1417
  441MOL0     H60812   6.129   0.917   4.529 -0.3598  0.4204  0.3761
  441MOL0     H60813   6.246   0.783   4.578  0.6651  1.6828  0.2194
  441MOL0     H60814   6.267   0.859   4.335  0.2078  0.7289  1.1239
  441MOL0     H60815   6.218   0.682   4.352  0.5641  1.1555  0.1706
  441MOL0     H60816   6.122   1.065   4.364  0.9942 -0.1059 -0.4186
  441MOL0     H60817   6.139   1.283   4.344  0.2527  1.8009  0.9091
  441MOL0     H60818   5.996   1.349   4.243  0.7404  1.0518 -0.8902
  441MOL0     H60819   6.158   1.382   4.197  0.5014 -0.4505  0.1375
  441MOL0     H60820   6.271   1.375   3.745 -0.1279 -0.3845  0.8457
  441MOL0     H60821   6.277   1.547   3.568  0.4423 -2.2401 -2.3584
  441MOL0     H60822   6.022   1.780   3.593 -2.8630 -1.4168 -2.0412
  441MOL0     H60823   6.198   1.792   3.547 -0.0430 -1.9588  1.3347
  441MOL0     H60824   6.074   1.985   3.492  1.0729  1.8476 -1.4217
  441MOL0     H60825   6.151   1.918   3.351 -0.3589  1.5589  0.9008
  441MOL0     H60826   5.866   1.916   3.440  1.0152 -1.2132 -0.5030
  441MOL0     H60827   5.917   1.793   3.327 -0.3147  0.5146 -1.9992
  441MOL0     H60828   5.970   1.974   3.167  0.6234 -0.4573  1.1003
  441MOL0     H60829   5.914   2.093   3.288  0.4728  0.1103 -0.3066
  441MOL0     H60830   5.750   1.896   3.122  2.5160  1.6200 -2.1433
  441MOL0     H60831   5.683   1.964   3.280  1.3780  1.2424  0.5624
  441MOL0     H60832   5.608   2.072   3.069 -3.4909  4.2058  3.5228
  441MOL0     H60833   5.778   2.128   3.043 -1.7719 -1.9704 -3.0187
  441MOL0     H60834   5.777   2.266   3.232 -0.8127 -0.8586 -1.5390
  441MOL0     H60835   5.650   2.181   3.313 -1.3745 -0.3052 -0.5504
  441MOL0     H60836   5.577   2.406   3.221 -0.2185 -1.5133  1.7290
  441MOL0     H60837   5.487   2.271   3.165 -0.4231  0.6843 -2.2538
  441MOL0     H60838   5.860   1.543   3.530  0.7416  0.5173  1.2291
  441MOL0     H60839   5.838   1.349   3.703  0.2101 -1.1033 -0.0295
  441MOL0     H60840   6.007   1.011   3.888  1.1005  3.8316  0.0417
  441MOL0     H60841   6.018   0.816   4.048  2.1403  0.4845 -1.5246
  441MOL0     H60842   5.330   0.469   5.722 -0.3630  0.9792 -0.2531
  441MOL0     H60843   5.555   0.393   5.828  0.9901  0.1822 -0.3743
  441MOL0     H60844   6.052   0.427   5.672 -0.7621 -1.1095 -0.9488
  441MOL0     H60845   6.295   0.341   5.722  0.6048 -2.6859 -2.3666
  441MOL0     H60846   6.433   0.190   5.678 -1.7669 -0.9075 -1.2369
  441MOL0     H60847   6.535   0.093   5.787 -0.9721  1.8544  2.2058
  441MOL0     H60848   6.292   0.005   5.622 -1.0963 -0.3841  1.6114
  441MOL0     H60849   6.408  -0.107   5.694 -0.8096 -1.0000 -0.4829
  441MOL0     H60850   6.440  -0.093   5.460 -2.3252  0.3591  1.1103
  441MOL0     H60851   6.431   0.083   5.459 -1.2510 -1.3000 -2.9087
  441MOL0     H60852   6.658   0.097   5.573  0.6091 -0.5893  1.0545
  441MOL0     H60853   6.672   0.003   5.432 -2.8502 -0.5152 -1.8722
  441MOL0     H60854   6.755  -0.290   5.736  0.7126  2.5516  2.9677
  441MOL0     H60855   6.123   0.026   5.930 -0.1512  1.1541 -0.1101
  441MOL0     H60856   5.911   0.043   6.018 -0.4402 -2.3160 -1.9041
  441MOL0     H60857   5.795   0.153   5.965  1.0235  1.5096 -0.0203
  441MOL0     H60858   5.819  -0.011   5.885 -1.7326  0.2209 -0.4535
  442MOL0     O60859   7.833   3.331   4.046 -0.5502 -0.9957  0.0796
  442MOL0     C60860   7.843   3.209   4.017 -0.0265  0.2959 -0.0232
  442MOL0     O60861   7.919   3.160   3.907  0.2794  0.1457 -0.4893
  442MOL0     C60862   8.018   3.219   3.837  0.2198  0.2345 -0.4139
  442MOL0     C60863   8.098   3.148   3.753 -0.2959 -0.6279  0.0245
  442MOL0     C60864   8.195   3.221   3.682  0.0823 -0.2621  0.0838
  442MOL0     C60865   8.229   3.352   3.698 -0.2050  0.5836 -0.1265
  442MOL0     O60866   8.334   3.412   3.632 -0.1280  0.5015 -0.4441
  442MOL0     C60867   8.380   3.533   3.682  0.7257 -0.1814 -0.4107
  442MOL0     C60868   8.488   3.554   3.585 -0.3357 -0.0327  0.7728
  442MOL0     C60869   8.577   3.675   3.618  0.3889 -0.2491  0.5830
  442MOL0     C60870   8.689   3.699   3.519  0.2548 -0.5754  0.3600
  442MOL0     C60871   8.773   3.828   3.556  0.3212 -0.1011  0.0189
  442MOL0     C60872   8.901   3.862   3.473  1.2997  0.1636 -1.1170
  442MOL0     C60873   8.973   3.987   3.526  0.7242  0.3177 -0.6556
  442MOL0     C60874   9.093   3.958   3.611 -0.0158  0.0567  0.2528
  442MOL0     N60875   9.154   4.079   3.661  0.4295 -0.0499 -0.3544
  442MOL0     C60876   9.199   4.178   3.583  0.4797  0.2691  0.4314
  442MOL0     C60877   9.264   4.260   3.661  0.6121 -0.7426 -0.1021
  442MOL0     C60878   9.324   4.392   3.620 -0.9679 -0.5470  0.2032
  442MOL0     C60879   9.440   4.380   3.513  0.8321  0.0790 -0.2665
  442MOL0     C60880   9.495   4.520   3.469  0.4600 -0.1524 -0.1029
  442MOL0     C60881   9.607   4.512   3.365  1.1078  0.0869  0.3192
  442MOL0     O60882   9.716   4.444   3.419  0.2464  0.1084 -0.1471
  442MOL0     C60883   9.826   4.405   3.347  0.3682  0.7021 -0.5685
  442MOL0     C60884   9.841   4.441   3.216  0.2419  0.3861 -0.0764
  442MOL0     C60885   9.941   4.384   3.132 -0.0552  0.3307  0.0169
  442MOL0     C60886   9.957   4.440   2.991 -0.5974  0.3926 -0.0924
  442MOL0     C60887  10.043   4.301   3.191 -0.6237  0.1250 -0.4446
  442MOL0     C60888  10.158   4.231   3.115  0.0284 -0.1933 -0.2752
  442MOL0     O60889  10.239   4.159   3.199  0.0608 -0.9192 -0.7512
  442MOL0     C60890  10.366   4.113   3.165  0.6685 -0.5375 -0.7242
  442MOL0     C60891  10.457   4.100   3.272 -0.0630 -0.7920 -0.3891
  442MOL0     C60892  10.585   4.049   3.250 -0.0210  0.6498  0.3054
  442MOL0     C60893  10.624   3.999   3.124  0.2822 -0.6950  0.6465
  442MOL0     O60894  10.747   3.947   3.094 -0.4317 -0.6549  0.4260
  442MOL0     C60895  10.837   4.037   3.022  0.1905  0.4991 -0.2207
  442MOL0     C60896  10.969   3.960   2.994  0.3722  0.6145  0.4715
  442MOL0     C60897  11.069   4.061   2.932  0.3020 -0.9353 -0.3065
  442MOL0     C60898  11.214   4.027   2.967 -0.2661  0.1215 -0.3388
  442MOL0     C60899  11.294   4.151   2.952 -0.1826  0.8708  0.0168
  442MOL0     C60900  11.307   4.183   2.806 -0.5398  0.0043  0.7230
  442MOL0     C60901  11.372   4.321   2.787 -1.6526 -0.0030 -0.0179
  442MOL0     C60902  11.510   4.341   2.852  0.4149  0.0910 -0.2166
  442MOL0    Cl60903  11.619   4.198   2.847 -0.1954  0.2458  0.2570
  442MOL0     C60904  10.536   4.019   3.018 -0.4141 -1.2988 -0.0236
  442MOL0     C60905  10.406   4.067   3.042 -0.0862  0.0629  0.1431
  442MOL0     O60906  10.163   4.228   2.990 -0.0878  0.2539  0.0685
  442MOL0     C60907  10.032   4.278   3.332  0.4831  0.3600  0.8760
  442MOL0     C60908   9.921   4.327   3.402  0.1394  0.2510  0.0527
  442MOL0     N60909   9.266   4.210   3.786 -0.5614 -0.9443  0.3658
  442MOL0     N60910   9.204   4.098   3.790  0.4573  0.0058 -0.5357
  442MOL0     C60911   8.153   3.415   3.798 -0.5252  0.3170  0.0517
  442MOL0     C60912   8.060   3.351   3.869  0.0560 -0.4721  0.2164
  442MOL0     C60913   7.782   3.101   4.101 -0.5508  0.1984 -1.0277
  442MOL0     C60914   7.734   2.982   4.050  0.7145  0.8904 -0.2483
  442MOL0     C60915   7.652   2.892   4.130 -0.5618 -1.1206 -0.1566
  442MOL0     C60916   7.626   2.924   4.263  0.4028 -0.6093 -0.0102
  442MOL0     O60917   7.534   2.845   4.319 -0.1066 -0.3725 -0.6311
  442MOL0     C60918   7.457   2.891   4.432 -0.3510  0.2017 -0.8601
  442MOL0     C60919   7.355   2.778   4.471  0.2942 -1.2743 -0.2120
  442MOL0     C60920   7.282   2.833   4.590 -0.1602 -0.2779 -0.1603
  442MOL0     C60921   7.174   2.728   4.622  0.0402 -0.2199 -0.6940
  442MOL0     C60922   7.088   2.796   4.721 -0.2103 -0.4384 -0.0694
  442MOL0     C60923   7.011   2.852   4.795  0.9259 -0.0605 -0.0223
  442MOL0     C60924   7.690   3.037   4.317  0.3894  0.3483  0.0006
  442MOL0     C60925   7.765   3.126   4.239  0.2855 -1.2777 -0.8215
  442MOL0     C60926   7.813   3.249   4.315 -0.3910  0.0379 -0.1890
  442MOL0     H60927   8.072   3.044   3.740 -1.6035 -0.2202 -0.8125
  442MOL0     H60928   8.242   3.159   3.606  1.7018 -1.4730  1.9820
  442MOL0     H60929   8.420   3.532   3.784  1.8905 -2.7851 -0.8114
  442MOL0     H60930   8.303   3.610   3.669 -0.1405 -1.1064 -0.9202
  442MOL0     H60931   8.550   3.464   3.579 -0.5847 -0.2898  1.7393
  442MOL0     H60932   8.441   3.578   3.489 -3.3538 -0.8342  1.9120
  442MOL0     H60933   8.517   3.767   3.612 -0.9457 -1.1874 -2.0019
  442MOL0     H60934   8.617   3.665   3.720  1.4443  0.9495  0.3076
  442MOL0     H60935   8.747   3.606   3.513  0.3526 -0.5287  0.5616
  442MOL0     H60936   8.657   3.725   3.418 -1.2666  2.6577  1.5431
  442MOL0     H60937   8.811   3.832   3.659 -0.0150  1.9430  0.1044
  442MOL0     H60938   8.707   3.913   3.537 -3.0220 -1.9341  2.3990
  442MOL0     H60939   8.978   3.785   3.463  2.8080  1.6691 -1.7855
  442MOL0     H60940   8.861   3.876   3.372  0.2405 -3.0447 -1.2500
  442MOL0     H60941   8.900   4.059   3.563  0.1123  0.2644 -1.7070
  442MOL0     H60942   9.019   4.034   3.439 -0.0817 -1.2574 -1.9978
  442MOL0     H60943   9.069   3.897   3.698 -0.1305 -1.0532 -0.5288
  442MOL0     H60944   9.159   3.892   3.554 -0.4564 -1.5382  1.5302
  442MOL0     H60945   9.187   4.178   3.475 -1.4821 -0.0747  0.6083
  442MOL0     H60946   9.364   4.446   3.707  0.9334 -0.5203 -0.6349
  442MOL0     H60947   9.242   4.456   3.587  0.1633  0.9193  0.1525
  442MOL0     H60948   9.527   4.326   3.553 -0.7508 -1.7794  0.8494
  442MOL0     H60949   9.384   4.333   3.432  0.6596  1.7015 -1.1236
  442MOL0     H60950   9.405   4.562   3.423  0.0649  0.7485  1.4325
  442MOL0     H60951   9.526   4.570   3.560  1.7411 -0.3482 -0.4099
  442MOL0     H60952   9.558   4.463   3.280 -0.8743 -0.2987  1.6173
  442MOL0     H60953   9.648   4.610   3.339  0.1892  0.7265  1.1986
  442MOL0     H60954   9.775   4.509   3.164  0.0817  0.1228 -0.2238
  442MOL0     H60955  10.058   4.480   2.981 -0.8351  0.9079 -0.4339
  442MOL0     H60956   9.893   4.517   2.948  0.9335  0.1690 -2.9943
  442MOL0     H60957   9.959   4.356   2.921  1.9235 -1.1150  1.6053
  442MOL0     H60958  10.429   4.114   3.375 -2.4577  0.1252 -1.1086
  442MOL0     H60959  10.642   4.040   3.342  0.8433  1.2191 -0.1598
  442MOL0     H60960  10.796   4.077   2.929 -0.5791 -2.3395 -1.1988
  442MOL0     H60961  10.876   4.116   3.087 -0.7700  0.2557  0.6823
  442MOL0     H60962  11.018   3.913   3.079 -0.2356  0.8000  0.9335
  442MOL0     H60963  10.947   3.876   2.928  1.9093 -1.3750  2.3518
  442MOL0     H60964  11.059   4.162   2.970  0.8959 -1.5834  1.6803
  442MOL0     H60965  11.053   4.074   2.824 -0.1077 -0.2529 -0.1638
  442MOL0     H60966  11.250   3.943   2.907  0.5487  1.2028 -1.4049
  442MOL0     H60967  11.216   3.985   3.068  1.4565 -1.9568 -1.1704
  442MOL0     H60968  11.256   4.231   3.016 -1.6555  0.2337 -0.0118
  442MOL0     H60969  11.393   4.120   2.987  0.7729  1.7947 -1.7469
  442MOL0     H60970  11.212   4.191   2.753 -1.2977  1.0861  2.1407
  442MOL0     H60971  11.356   4.105   2.748  0.1363  1.0058 -0.0856
  442MOL0     H60972  11.307   4.399   2.828 -1.0468  0.8143 -0.5630
  442MOL0     H60973  11.370   4.337   2.678  2.6462 -2.1648 -0.6339
  442MOL0     H60974  11.496   4.363   2.959  0.6181  2.6262 -0.6392
  442MOL0     H60975  11.561   4.432   2.819  3.0192 -0.4052  2.0481
  442MOL0     H60976  10.570   4.008   2.916  1.1228 -0.0822  0.3247
  442MOL0     H60977  10.338   4.058   2.958 -1.5642  3.4696  0.8307
  442MOL0     H60978  10.095   4.204   3.380  1.0546  0.4540  0.2934
  442MOL0     H60979   9.915   4.276   3.497  0.7533  1.2508  0.6348
  442MOL0     H60980   8.171   3.520   3.815  1.0877  0.3854 -1.7151
  442MOL0     H60981   8.019   3.409   3.950 -1.4896  0.1250 -0.9361
  442MOL0     H60982   7.757   2.943   3.951 -1.5862 -3.2866  0.6645
  442MOL0     H60983   7.616   2.807   4.073  1.7216 -0.4047 -2.8961
  442MOL0     H60984   7.526   2.905   4.516  3.1644  1.2576 -3.6930
  442MOL0     H60985   7.404   2.985   4.416  0.2634  0.4222 -1.6819
  442MOL0     H60986   7.413   2.688   4.495 -0.7616 -2.0830 -0.6345
  442MOL0     H60987   7.287   2.760   4.387  0.2106 -1.6008 -0.0740
  442MOL0     H60988   7.360   2.825   4.666  0.4346  1.1760 -0.5770
  442MOL0     H60989   7.245   2.936   4.580 -2.6708 -0.7110  2.7835
  442MOL0     H60990   7.217   2.633   4.654  1.7016  0.1014 -1.8620
  442MOL0     H60991   7.115   2.707   4.532  0.7469  0.0156 -1.2149
  442MOL0     H60992   6.946   2.904   4.862  0.1557 -0.7268 -0.2352
  442MOL0     H60993   7.678   3.060   4.423  0.1939 -2.3015  0.6321
  442MOL0     H60994   7.791   3.240   4.422 -1.9168 -0.2180 -0.4965
  442MOL0     H60995   7.922   3.246   4.308 -0.2690  1.4443  0.6716
  442MOL0     H60996   7.781   3.346   4.276 -0.2954 -0.8796 -2.7351
  443MOL0     O60997   6.302  10.493   1.290  0.0044  0.0334  0.1170
  443MOL0     C60998   6.185  10.517   1.306  0.4220  0.8332  0.0719
  443MOL0     O60999   6.099  10.446   1.385  0.7162 -0.9498 -0.2019
  443MOL0     C61000   6.147  10.341   1.448  0.1590  0.7768 -0.5637
  443MOL0     C61001   6.229  10.339   1.563 -1.0947 -0.3700 -0.4889
  443MOL0     C61002   6.286  10.222   1.620  0.5018 -0.3747  0.6623
  443MOL0     C61003   6.275  10.101   1.548  0.0019 -0.4291 -0.3147
  443MOL0     O61004   6.334   9.985   1.588 -0.5219 -0.2919 -0.7634
  443MOL0     C61005   6.470  10.001   1.639 -0.6546  0.1825  0.5831
  443MOL0     C61006   6.541   9.859   1.648  0.3462 -0.3449  1.2094
  443MOL0     C61007   6.678   9.843   1.572 -0.2924  0.0274 -0.5280
  443MOL0     C61008   6.770   9.753   1.649 -0.0142 -0.4658 -0.2655
  443MOL0     C61009   6.815   9.802   1.788  0.3570 -0.3869  0.8304
  443MOL0     C61010   6.869   9.945   1.773  0.4042  0.8264  0.1921
  443MOL0     C61011   6.940   9.977   1.900  0.0057 -0.8269 -0.9856
  443MOL0     C61012   6.836  10.050   1.992  0.3154 -0.2475 -0.7420
  443MOL0     N61013   6.770  10.162   1.930 -0.1021  0.5866  0.2587
  443MOL0     C61014   6.828  10.281   1.879 -0.4876 -0.7431  0.1667
  443MOL0     C61015   6.723  10.352   1.828 -0.3610  0.2912  0.0264
  443MOL0     C61016   6.722  10.492   1.771 -0.0382 -1.1216  0.0769
  443MOL0     C61017   6.671  10.597   1.876 -0.8613 -0.6879  0.8873
  443MOL0     C61018   6.516  10.584   1.902 -0.0580  0.1017 -0.6336
  443MOL0     C61019   6.442  10.644   1.780 -0.6910 -0.8262 -1.0840
  443MOL0     O61020   6.297  10.646   1.812  0.9651  0.4207  0.2975
  443MOL0     C61021   6.247  10.745   1.901  0.0549  0.1694 -0.3213
  443MOL0     C61022   6.205  10.718   2.027  0.2558  0.5546 -0.2843
  443MOL0     C61023   6.149  10.815   2.114 -0.1277 -0.4457 -0.0607
  443MOL0     C61024   6.123  10.765   2.255 -0.2316 -0.7573  0.3347
  443MOL0     C61025   6.140  10.953   2.074  0.6053  1.0645 -0.1480
  443MOL0     C61026   6.073  11.070   2.142  0.1274 -0.1671  0.0697
  443MOL0     O61027   6.138  11.187   2.136 -0.3928  0.6564  0.5510
  443MOL0     C61028   6.090  11.313   2.167 -0.3125  0.3014 -0.8106
  443MOL0     C61029   6.190  11.408   2.195 -0.4384  0.4166  0.4579
  443MOL0     C61030   6.163  11.528   2.255  0.4151 -0.1761 -0.4789
  443MOL0     C61031   6.028  11.567   2.282 -0.2495  0.0034 -0.3363
  443MOL0     O61032   6.007  11.680   2.354 -0.6394  0.4050  0.4151
  443MOL0     C61033   5.870  11.737   2.355 -0.7246  0.5358  0.3216
  443MOL0     C61034   5.879  11.865   2.428 -0.0989 -0.9107  0.4546
  443MOL0     C61035   5.956  11.866   2.554 -0.1233 -0.0609  0.3551
  443MOL0     C61036   5.921  11.751   2.650  0.2012 -1.2056 -0.2933
  443MOL0     C61037   5.773  11.753   2.681  0.1481  0.4667 -0.2440
  443MOL0     C61038   5.733  11.615   2.755 -0.7278  0.0379  0.3872
  443MOL0     C61039   5.596  11.632   2.820 -1.3024  0.1391 -0.1318
  443MOL0     C61040   5.566  11.532   2.930 -0.7363 -0.3991  0.5041
  443MOL0    Cl61041   5.416  11.577   3.026 -0.3598  0.1039  0.0224
  443MOL0     C61042   5.922  11.466   2.256 -0.0807  0.5563 -0.2247
  443MOL0     C61043   5.954  11.346   2.191 -0.4476 -0.2092  0.2986
  443MOL0     O61044   5.959  11.047   2.180  0.3055  0.1546 -0.1759
  443MOL0     C61045   6.196  10.978   1.947 -0.8681 -0.3169 -0.0073
  443MOL0     C61046   6.233  10.877   1.863  0.2462  0.1724  0.6579
  443MOL0     N61047   6.609  10.270   1.842 -0.0748  0.1254  0.0184
  443MOL0     N61048   6.638  10.164   1.912  0.3797  0.1749  0.1700
  443MOL0     C61049   6.189  10.099   1.436 -0.4402  0.2246 -0.1249
  443MOL0     C61050   6.132  10.211   1.384  0.1377 -0.2350  0.1354
  443MOL0     C61051   6.133  10.640   1.244 -0.8064 -0.2394  0.2045
  443MOL0     C61052   6.144  10.657   1.106 -0.5374 -0.0939 -0.6584
  443MOL0     C61053   6.078  10.769   1.045  0.1807  0.3866  1.5646
  443MOL0     C61054   6.025  10.872   1.118 -0.2620  0.2749  0.0380
  443MOL0     O61055   5.962  10.969   1.057  0.5939  0.6387 -0.4241
  443MOL0     C61056   6.044  11.079   1.031 -0.1945 -0.0196  0.1852
  443MOL0     C61057   5.998  11.147   0.895  0.2026  0.4333 -0.6897
  443MOL0     C61058   5.854  11.225   0.923 -0.3145 -0.9484  0.5797
  443MOL0     C61059   5.782  11.249   0.789 -0.2092  0.0606  0.1337
  443MOL0     C61060   5.732  11.129   0.716 -1.1250  0.3516 -0.0839
  443MOL0     C61061   5.701  11.047   0.643 -0.4123  0.2765  0.4786
  443MOL0     C61062   6.028  10.858   1.259 -0.0879 -0.8131 -0.7676
  443MOL0     C61063   6.072  10.743   1.319 -0.1347 -0.1696 -0.4000
  443MOL0     C61064   6.067  10.732   1.463  0.6069  0.0781 -0.1132
  443MOL0     H61065   6.249  10.432   1.615  1.1864 -1.3368  0.5167
  443MOL0     H61066   6.338  10.240   1.714 -0.2229 -3.5297  1.8179
  443MOL0     H61067   6.451  10.044   1.738 -1.1391  0.6329  0.2990
  443MOL0     H61068   6.531  10.066   1.576 -0.1489 -1.2144 -0.4345
  443MOL0     H61069   6.568   9.828   1.749  4.7759  4.3192  1.8364
  443MOL0     H61070   6.464   9.797   1.602  0.6900 -0.3922  0.6891
  443MOL0     H61071   6.655   9.790   1.479 -0.1188 -0.0274 -0.5402
  443MOL0     H61072   6.717   9.940   1.542 -1.2196  0.2799 -0.9680
  443MOL0     H61073   6.712   9.663   1.671  0.5395 -0.4099  1.6673
  443MOL0     H61074   6.853   9.719   1.586 -0.4816  1.3662 -1.9326
  443MOL0     H61075   6.889   9.743   1.843  1.9328  1.3668  0.7329
  443MOL0     H61076   6.738   9.801   1.865  0.7284 -1.0936  1.2069
  443MOL0     H61077   6.945   9.947   1.695  0.5961  0.7557  0.3764
  443MOL0     H61078   6.789  10.014   1.746  0.7738  0.2543 -2.6693
  443MOL0     H61079   7.017  10.052   1.880 -1.6485  1.2346  0.0084
  443MOL0     H61080   6.985   9.890   1.950  1.6796  0.6542  0.2067
  443MOL0     H61081   6.762   9.986   2.040  1.8609 -0.4222  1.5845
  443MOL0     H61082   6.888  10.079   2.084 -1.5318 -2.1645  1.0225
  443MOL0     H61083   6.932  10.310   1.894 -0.4779 -0.8788  0.3680
  443MOL0     H61084   6.656  10.491   1.683 -0.3634 -1.4471  0.3177
  443MOL0     H61085   6.823  10.517   1.739 -0.7266 -1.3125 -2.4862
  443MOL0     H61086   6.729  10.571   1.965 -0.0545 -1.1397  0.2428
  443MOL0     H61087   6.693  10.700   1.849 -0.0234 -0.8332  0.9787
  443MOL0     H61088   6.482  10.481   1.917 -0.0814  0.3666  1.4061
  443MOL0     H61089   6.481  10.643   1.987 -2.9706  0.8978 -2.2330
  443MOL0     H61090   6.480  10.744   1.756 -0.8782 -0.3417  0.5217
  443MOL0     H61091   6.447  10.576   1.694 -0.7978 -1.4067 -0.6302
  443MOL0     H61092   6.231  10.620   2.065 -0.8730  1.1707  2.2784
  443MOL0     H61093   6.025  10.798   2.290 -0.7029  0.7431 -2.1649
  443MOL0     H61094   6.209  10.788   2.319 -1.4420 -0.0273  1.7591
  443MOL0     H61095   6.112  10.657   2.246  1.4422 -0.7902 -2.2642
  443MOL0     H61096   6.285  11.377   2.152 -1.5343  0.0403 -1.8455
  443MOL0     H61097   6.234  11.604   2.284 -1.0870  0.1569  2.7580
  443MOL0     H61098   5.841  11.750   2.251  2.2746 -3.3144 -1.2578
  443MOL0     H61099   5.805  11.670   2.411 -1.5748  1.7352  0.8180
  443MOL0     H61100   5.931  11.931   2.359 -3.3530  3.9096  2.1384
  443MOL0     H61101   5.778  11.904   2.420  0.4475  0.3593 -0.4203
  443MOL0     H61102   5.954  11.960   2.610 -0.9232 -1.1437  2.2548
  443MOL0     H61103   6.059  11.856   2.521  0.1536 -0.9442  1.4358
  443MOL0     H61104   5.972  11.778   2.743 -1.1188 -1.0106  0.3950
  443MOL0     H61105   5.955  11.663   2.594 -0.7446  0.1931 -3.2849
  443MOL0     H61106   5.757  11.843   2.741  2.3905  0.7224  0.0418
  443MOL0     H61107   5.720  11.744   2.586  0.8967 -3.9534 -0.4143
  443MOL0     H61108   5.815  11.598   2.826  2.2879  0.1085 -2.7722
  443MOL0     H61109   5.743  11.523   2.697  2.0862 -0.9456  2.2287
  443MOL0     H61110   5.513  11.625   2.748 -0.9702 -1.5430 -0.3943
  443MOL0     H61111   5.586  11.730   2.867 -0.5065  0.6807 -1.0518
  443MOL0     H61112   5.657  11.532   2.990  1.9873  1.5486 -3.1914
  443MOL0     H61113   5.548  11.433   2.887 -2.7528  0.8026 -1.6739
  443MOL0     H61114   5.815  11.476   2.270  0.0465  0.0879  1.2748
  443MOL0     H61115   5.880  11.270   2.172  0.6752 -0.9726 -1.2059
  443MOL0     H61116   6.206  11.075   1.898  1.6794 -0.8914 -0.7830
  443MOL0     H61117   6.271  10.907   1.766 -1.1861 -1.8343 -0.5847
  443MOL0     H61118   6.185  10.000   1.393  3.1699 -0.3847  0.6505
  443MOL0     H61119   6.086  10.203   1.286 -0.2140 -0.3991  0.3120
  443MOL0     H61120   6.208  10.587   1.054 -1.6124 -2.6061  1.2160
  443MOL0     H61121   6.068  10.777   0.937  0.3747 -1.1646  1.4064
  443MOL0     H61122   6.045  11.156   1.108  4.3028 -1.8499  2.2590
  443MOL0     H61123   6.141  11.030   1.017  0.8076  1.4068  1.8252
  443MOL0     H61124   5.995  11.070   0.818 -1.1275 -0.5563  0.3032
  443MOL0     H61125   6.070  11.223   0.862  1.9032  0.5437  2.7656
  443MOL0     H61126   5.791  11.178   0.998 -0.9236 -0.4689  0.3706
  443MOL0     H61127   5.882  11.321   0.967 -1.1222  0.0552 -0.9969
  443MOL0     H61128   5.841  11.314   0.723 -1.1133  0.5177 -0.2371
  443MOL0     H61129   5.694  11.311   0.807 -1.6184 -0.9671 -2.6624
  443MOL0     H61130   5.660  10.973   0.577 -1.2683  1.2917 -0.1707
  443MOL0     H61131   5.992  10.944   1.315 -0.5007 -3.2835  3.2003
  443MOL0     H61132   6.088  10.828   1.511  2.0947 -1.1906  1.9288
  443MOL0     H61133   5.968  10.702   1.499  0.9688  1.2956  2.1140
  443MOL0     H61134   6.148  10.667   1.497  0.0723 -0.2477  0.5555
  444MOL0     O61135   5.905   8.031   5.880 -0.0826  1.1274 -0.4529
  444MOL0     C61136   5.886   7.933   5.806 -0.8732 -0.0533  0.0410
  444MOL0     O61137   5.762   7.883   5.764 -0.8317  0.1802 -0.3399
  444MOL0     C61138   5.646   7.920   5.827 -0.5227  0.0536 -0.0266
  444MOL0     C61139   5.523   7.946   5.755 -0.3270  1.4199 -0.5494
  444MOL0     C61140   5.398   7.963   5.821  0.4035  0.3676  0.0800
  444MOL0     C61141   5.391   7.962   5.961 -0.2887 -0.0035  0.1727
  444MOL0     O61142   5.275   7.954   6.026 -0.1458  0.4858 -0.3594
  444MOL0     C61143   5.195   8.074   6.033  0.8385  0.1235  0.6520
  444MOL0     C61144   5.076   8.046   6.120  0.2250 -0.0722  0.9510
  444MOL0     C61145   5.105   8.025   6.268  0.3117 -0.1373 -0.0425
  444MOL0     C61146   5.173   7.890   6.308 -0.0114 -0.0332 -0.0559
  444MOL0     C61147   5.232   7.902   6.443 -0.5381 -0.0737 -0.3860
  444MOL0     C61148   5.328   7.785   6.475  0.6360 -1.0057  0.4972
  444MOL0     C61149   5.391   7.808   6.616  0.5067 -1.0054  1.2676
  444MOL0     C61150   5.490   7.700   6.660 -0.7572  0.0630 -0.0335
  444MOL0     N61151   5.553   7.732   6.787 -0.9074 -0.1435  0.0801
  444MOL0     C61152   5.672   7.793   6.811 -0.2086  0.0798  0.4937
  444MOL0     C61153   5.701   7.790   6.938  0.2492 -0.1691 -0.9797
  444MOL0     C61154   5.831   7.835   7.018 -0.1808  0.8316 -0.1334
  444MOL0     C61155   5.955   7.799   6.930 -0.4701  0.2360  0.2029
  444MOL0     C61156   6.083   7.787   7.015  0.2829  0.1482 -0.2196
  444MOL0     C61157   6.122   7.924   7.072  0.1276  0.2462 -0.5008
  444MOL0     O61158   6.138   8.033   6.983 -0.5668  0.5256 -0.2863
  444MOL0     C61159   6.175   8.153   7.040  0.0835 -1.1838  0.2231
  444MOL0     C61160   6.179   8.177   7.179 -0.5817 -1.5375 -0.1284
  444MOL0     C61161   6.231   8.302   7.231  0.1394  0.8376  1.0977
  444MOL0     C61162   6.225   8.303   7.386 -0.2361 -0.3784  0.6874
  444MOL0     C61163   6.254   8.407   7.141  0.7075 -0.1788 -0.5780
  444MOL0     C61164   6.317   8.541   7.178  0.7781  0.0970 -0.4787
  444MOL0     O61165   6.311   8.632   7.074 -0.3982 -0.2603  0.0617
  444MOL0     C61166   6.366   8.763   7.096 -0.3285  0.3707  0.1784
  444MOL0     C61167   6.490   8.780   7.159 -0.0690  0.5722  0.3633
  444MOL0     C61168   6.524   8.913   7.191 -0.5342 -0.0419 -0.9416
  444MOL0     C61169   6.451   9.026   7.162  0.4089 -0.0666  0.2841
  444MOL0     O61170   6.515   9.144   7.183  0.6362 -0.3098 -0.0376
  444MOL0     C61171   6.434   9.254   7.226  0.1393  0.7509  0.8629
  444MOL0     C61172   6.518   9.377   7.203 -0.2177  0.0028 -0.4285
  444MOL0     C61173   6.453   9.520   7.215  1.6156 -0.4659  0.0027
  444MOL0     C61174   6.395   9.555   7.354  0.0133  0.1651 -0.2090
  444MOL0     C61175   6.360   9.705   7.341  0.2304  0.4775  0.1754
  444MOL0     C61176   6.265   9.742   7.461 -0.3143 -0.1776  0.0598
  444MOL0     C61177   6.255   9.889   7.494 -0.3949  0.2225 -0.6850
  444MOL0     C61178   6.178   9.899   7.626 -0.4355 -0.1475 -0.2088
  444MOL0    Cl61179   6.208  10.069   7.695 -0.0088 -0.2013 -0.7679
  444MOL0     C61180   6.324   9.003   7.090  0.1192 -0.1875 -0.2352
  444MOL0     C61181   6.290   8.874   7.055 -0.1926  0.2778 -0.0673
  444MOL0     O61182   6.376   8.561   7.288 -0.8157 -0.4069  0.9453
  444MOL0     C61183   6.231   8.384   7.002 -1.0161  0.4841  0.6302
  444MOL0     C61184   6.191   8.258   6.952  0.1682  0.0227 -0.4180
  444MOL0     N61185   5.598   7.727   6.996  0.8207 -0.5888  0.7115
  444MOL0     N61186   5.511   7.699   6.909 -0.3797  0.0953  0.5558
  444MOL0     C61187   5.505   7.950   6.036 -0.0844 -0.0061 -0.4458
  444MOL0     C61188   5.628   7.931   5.968 -0.2589  0.7242  0.4169
  444MOL0     C61189   6.020   7.892   5.734 -0.5300 -0.1727  0.5030
  444MOL0     C61190   6.132   7.973   5.742  0.2664 -0.1802 -0.0256
  444MOL0     C61191   6.252   7.943   5.677  0.5289  0.1229  0.4355
  444MOL0     C61192   6.264   7.831   5.594  0.2792 -0.1253 -0.4211
  444MOL0     O61193   6.371   7.826   5.515  0.2980  0.0076 -0.2778
  444MOL0     C61194   6.464   7.730   5.570 -0.4582  1.0510  0.2255
  444MOL0     C61195   6.594   7.735   5.497  0.4603  0.5649  0.0185
  444MOL0     C61196   6.647   7.885   5.486  0.4643  0.2267 -0.2616
  444MOL0     C61197   6.797   7.888   5.475  0.2667  0.3057  0.2937
  444MOL0     C61198   6.833   7.821   5.348  0.1315  0.0570  0.5724
  444MOL0     C61199   6.865   7.774   5.236  1.1813  0.0771  1.3487
  444MOL0     C61200   6.155   7.743   5.596 -0.2194  0.6047  0.5263
  444MOL0     C61201   6.040   7.761   5.676 -0.9846 -1.1387 -0.8379
  444MOL0     C61202   5.937   7.649   5.686  0.9673  0.0127  0.3985
  444MOL0     H61203   5.528   7.927   5.648 -0.2767 -0.1193 -0.3001
  444MOL0     H61204   5.307   7.960   5.762  0.2126  0.2176  0.3786
  444MOL0     H61205   5.155   8.109   5.938  1.9088 -0.1448  0.0807
  444MOL0     H61206   5.250   8.154   6.083 -0.3080  1.3661 -0.0002
  444MOL0     H61207   5.005   8.129   6.113 -0.1797 -0.5181 -0.7434
  444MOL0     H61208   5.018   7.961   6.083  1.0067 -0.9474  1.6553
  444MOL0     H61209   5.169   8.108   6.301 -1.0038  0.9926 -0.2683
  444MOL0     H61210   5.008   8.028   6.317  0.1791 -1.6927 -0.1341
  444MOL0     H61211   5.104   7.806   6.310 -1.7808  1.3784  1.5254
  444MOL0     H61212   5.260   7.873   6.244  0.4708  1.1747  0.2560
  444MOL0     H61213   5.149   7.908   6.514 -1.1167 -2.3876 -0.7677
  444MOL0     H61214   5.304   7.984   6.439 -0.8215  0.1338 -2.9013
  444MOL0     H61215   5.270   7.692   6.475  0.3067 -0.8034  0.0580
  444MOL0     H61216   5.406   7.778   6.399 -0.1030  1.5424 -0.5902
  444MOL0     H61217   5.315   7.817   6.694 -0.8541  0.9788 -0.2047
  444MOL0     H61218   5.434   7.909   6.614 -0.5735 -0.5393  1.3777
  444MOL0     H61219   5.433   7.608   6.677  0.8191 -1.0394 -0.5697
  444MOL0     H61220   5.552   7.666   6.577 -0.3828 -1.8733  0.9712
  444MOL0     H61221   5.732   7.837   6.733 -2.5672 -2.7916 -3.3089
  444MOL0     H61222   5.828   7.782   7.114 -0.8168  0.3387 -0.4107
  444MOL0     H61223   5.828   7.944   7.028  0.7046  0.6923  2.4876
  444MOL0     H61224   5.946   7.703   6.877 -2.1311  0.1008  0.6711
  444MOL0     H61225   5.963   7.880   6.857 -3.9557 -0.2500 -0.9240
  444MOL0     H61226   6.046   7.717   7.090 -0.9407  0.3824 -0.5937
  444MOL0     H61227   6.168   7.746   6.960  0.1976 -2.6427  1.5302
  444MOL0     H61228   6.039   7.952   7.138 -0.2690 -1.0414 -0.4302
  444MOL0     H61229   6.209   7.919   7.138  0.8212  1.8399 -1.2265
  444MOL0     H61230   6.148   8.101   7.251  0.8540 -1.0969  0.9997
  444MOL0     H61231   6.303   8.364   7.434 -0.0899 -1.7859  2.3711
  444MOL0     H61232   6.239   8.200   7.422 -0.1382 -0.3874  0.6209
  444MOL0     H61233   6.125   8.335   7.417 -0.9319 -0.4306 -1.3989
  444MOL0     H61234   6.557   8.698   7.183 -0.4635  0.6177  1.7465
  444MOL0     H61235   6.618   8.928   7.243 -1.4787  0.8961  0.5820
  444MOL0     H61236   6.340   9.251   7.169  0.7961 -2.1569 -0.2326
  444MOL0     H61237   6.402   9.237   7.329 -1.4662 -0.0586  0.2612
  444MOL0     H61238   6.612   9.379   7.259 -0.4174  1.5227 -0.0943
  444MOL0     H61239   6.546   9.364   7.098 -0.1406 -0.0180 -0.4058
  444MOL0     H61240   6.369   9.515   7.145  1.5068 -0.7147  0.1486
  444MOL0     H61241   6.522   9.600   7.191 -1.0372  2.0288  0.1757
  444MOL0     H61242   6.461   9.540   7.440 -1.7100 -0.0027  1.1459
  444MOL0     H61243   6.307   9.497   7.383  0.3332 -0.4059 -0.3532
  444MOL0     H61244   6.452   9.764   7.353  0.9107 -1.0261  3.2301
  444MOL0     H61245   6.308   9.724   7.246  0.9401  0.6479 -0.1854
  444MOL0     H61246   6.303   9.706   7.557  0.5998 -1.1735 -0.6654
  444MOL0     H61247   6.165   9.705   7.437 -1.0033  2.2684 -1.1417
  444MOL0     H61248   6.195   9.942   7.419 -0.4710 -0.8807 -1.4266
  444MOL0     H61249   6.352   9.938   7.501 -0.1606 -0.4636  2.5847
  444MOL0     H61250   6.211   9.829   7.703 -0.6817  0.4605  0.4672
  444MOL0     H61251   6.070   9.894   7.610 -0.3321  1.6906 -1.8566
  444MOL0     H61252   6.261   9.086   7.059 -0.5146 -0.1482  1.0675
  444MOL0     H61253   6.201   8.849   6.998  1.0147 -1.0493 -1.4430
  444MOL0     H61254   6.240   8.464   6.929  4.4984 -0.2584  0.0852
  444MOL0     H61255   6.169   8.242   6.847 -3.1428  0.9564  0.0151
  444MOL0     H61256   5.498   7.934   6.143 -0.7383 -1.4638 -0.6714
  444MOL0     H61257   5.727   7.924   6.012 -0.2433 -2.5708  0.1521
  444MOL0     H61258   6.139   8.068   5.794 -1.4455 -0.7580  1.3237
  444MOL0     H61259   6.331   8.015   5.696  0.1998  0.4728  0.4721
  444MOL0     H61260   6.488   7.757   5.673  3.5034  2.3709 -0.8719
  444MOL0     H61261   6.432   7.626   5.558 -0.2549  1.1103 -0.9345
  444MOL0     H61262   6.593   7.691   5.397 -3.0563  2.4316 -0.9632
  444MOL0     H61263   6.663   7.675   5.557 -0.3226  0.5751  0.9613
  444MOL0     H61264   6.608   7.940   5.400  0.5313 -0.5249 -0.7856
  444MOL0     H61265   6.611   7.939   5.574 -1.5610 -0.4114 -0.6475
  444MOL0     H61266   6.843   7.827   5.554  0.8584 -1.0469 -1.0394
  444MOL0     H61267   6.843   7.987   5.482  1.8085 -0.4168  1.0741
  444MOL0     H61268   6.863   7.734   5.137 -0.6295  1.2512  0.8713
  444MOL0     H61269   6.174   7.647   5.550 -2.0297  0.0089  0.9522
  444MOL0     H61270   5.866   7.675   5.607 -1.0877 -2.7236  1.2265
  444MOL0     H61271   5.983   7.556   5.651  1.7336  0.8609 -0.9639
  444MOL0     H61272   5.888   7.649   5.783  1.4447  1.3054  0.6589
  445MOL0     O61273   6.511   5.047   2.415  0.8170  0.5932  0.2927
  445MOL0     C61274   6.524   5.062   2.533  0.1322 -0.3995 -0.0995
  445MOL0     O61275   6.638   5.092   2.601  0.0875  0.3941 -0.7942
  445MOL0     C61276   6.761   5.048   2.563  0.6029  0.1809  0.0606
  445MOL0     C61277   6.868   5.114   2.618 -0.2887 -0.9901 -0.2635
  445MOL0     C61278   7.000   5.110   2.562  0.2789 -0.2030  0.5359
  445MOL0     C61279   7.024   5.003   2.483  1.0903 -0.5597  0.2797
  445MOL0     O61280   7.152   4.998   2.436  0.6126 -0.8830 -0.3961
  445MOL0     C61281   7.181   4.903   2.337  0.0364 -0.1595 -0.3091
  445MOL0     C61282   7.312   4.927   2.272 -0.9614 -0.4941  0.4655
  445MOL0     C61283   7.433   4.877   2.355 -0.5613  0.1096 -0.2482
  445MOL0     C61284   7.560   4.923   2.295 -1.1806 -0.4939 -0.7974
  445MOL0     C61285   7.674   4.878   2.391 -0.3554  0.2075  0.2409
  445MOL0     C61286   7.807   4.928   2.343 -0.4083  0.1605  0.6582
  445MOL0     C61287   7.837   5.067   2.398  0.1846 -0.5399 -0.3523
  445MOL0     C61288   7.980   5.115   2.348  0.2440 -0.1705  0.8177
  445MOL0     N61289   8.018   5.095   2.206  1.3476 -0.3399  0.4569
  445MOL0     C61290   8.088   4.988   2.160 -0.6758 -0.0543 -1.1986
  445MOL0     C61291   8.125   5.019   2.040 -0.1489 -0.1714  0.3864
  445MOL0     C61292   8.209   4.939   1.948  0.2959 -0.2613 -0.3372
  445MOL0     C61293   8.359   4.996   1.965  0.4943 -0.2928 -0.2977
  445MOL0     C61294   8.454   4.926   1.869 -0.2813  0.0195  0.5609
  445MOL0     C61295   8.587   5.012   1.883  0.2977 -0.1796 -0.6552
  445MOL0     O61296   8.704   4.967   1.809 -0.3070  0.0217  0.3718
  445MOL0     C61297   8.813   5.043   1.783  0.6597 -0.1088 -0.9585
  445MOL0     C61298   8.885   5.011   1.673  0.4500  0.6947 -0.4297
  445MOL0     C61299   8.991   5.092   1.643 -0.0725  0.3580  0.3435
  445MOL0     C61300   9.061   5.036   1.531 -1.1585 -0.2987  0.8869
  445MOL0     C61301   9.020   5.207   1.715  0.4803 -0.3034  0.7410
  445MOL0     C61302   9.146   5.285   1.696 -0.0805  0.3955 -0.0574
  445MOL0     O61303   9.238   5.218   1.624 -0.1918  0.0800 -0.7790
  445MOL0     C61304   9.368   5.264   1.632  0.0879  0.2907 -0.3569
  445MOL0     C61305   9.470   5.166   1.634 -0.7983 -1.0899  0.5019
  445MOL0     C61306   9.606   5.202   1.639 -0.2815  0.0052  0.3681
  445MOL0     C61307   9.637   5.334   1.616  0.8161 -0.4593 -0.8834
  445MOL0     O61308   9.766   5.353   1.606 -0.8163  0.2706  0.2467
  445MOL0     C61309   9.810   5.490   1.613  0.2012 -0.2889 -0.8453
  445MOL0     C61310   9.959   5.489   1.594  0.0487 -0.1023  0.1745
  445MOL0     C61311   9.989   5.478   1.440 -0.1022 -0.3720 -0.1337
  445MOL0     C61312  10.131   5.507   1.399 -0.7964  0.3910 -0.1649
  445MOL0     C61313  10.241   5.471   1.500 -0.3860  1.1170 -0.3185
  445MOL0     C61314  10.386   5.489   1.444  0.2380 -0.5232  0.7083
  445MOL0     C61315  10.493   5.485   1.556 -0.4356 -0.4523  0.6152
  445MOL0     C61316  10.618   5.542   1.496 -1.3566  1.5635 -0.1861
  445MOL0    Cl61317  10.755   5.548   1.617 -0.0812  0.6519 -0.2153
  445MOL0     C61318   9.538   5.435   1.604 -0.6310 -0.8300 -0.9699
  445MOL0     C61319   9.405   5.403   1.605 -0.2895  1.0748  1.0531
  445MOL0     O61320   9.157   5.392   1.750  0.5361 -0.5920 -0.1169
  445MOL0     C61321   8.938   5.235   1.831 -0.1601 -0.2254 -0.1822
  445MOL0     C61322   8.838   5.154   1.861  0.5269  0.1764  1.3457
  445MOL0     N61323   8.079   5.145   2.009 -0.6191  0.2219  0.6604
  445MOL0     N61324   8.013   5.188   2.110 -0.5616 -0.0379 -0.3446
  445MOL0     C61325   6.921   4.921   2.433 -0.2842 -0.7272 -0.2263
  445MOL0     C61326   6.791   4.947   2.475  0.4013 -0.3120 -0.9613
  445MOL0     C61327   6.398   5.044   2.609  1.0217 -0.2851  0.0925
  445MOL0     C61328   6.376   5.133   2.712 -0.1047 -0.3009 -0.1562
  445MOL0     C61329   6.255   5.137   2.778 -0.1693  0.5407 -0.3292
  445MOL0     C61330   6.148   5.063   2.742  0.0925  0.3472  0.6839
  445MOL0     O61331   6.033   5.083   2.816 -0.2509 -0.1242 -0.1781
  445MOL0     C61332   5.903   5.059   2.767 -0.5151 -0.2710 -0.4894
  445MOL0     C61333   5.797   5.148   2.845 -0.6621  0.1320  0.8425
  445MOL0     C61334   5.662   5.151   2.778 -0.0395  0.0242 -0.4956
  445MOL0     C61335   5.576   5.222   2.888  0.5790 -0.3408  0.2979
  445MOL0     C61336   5.434   5.234   2.838 -0.3070 -0.5167 -0.0061
  445MOL0     C61337   5.318   5.250   2.818  0.4876  0.4120 -0.1967
  445MOL0     C61338   6.164   4.983   2.633  0.2188 -0.0660  0.2206
  445MOL0     C61339   6.287   4.966   2.564 -0.4511  0.0352  0.7475
  445MOL0     C61340   6.293   4.872   2.441 -0.2107 -0.4336  1.0337
  445MOL0     H61341   6.852   5.206   2.674  3.2650  0.0027 -0.6335
  445MOL0     H61342   7.077   5.180   2.592  2.5999 -3.1052  1.7939
  445MOL0     H61343   7.102   4.908   2.262 -2.8842  2.4970  2.6222
  445MOL0     H61344   7.192   4.800   2.372  0.3336 -0.5502 -1.5026
  445MOL0     H61345   7.314   4.873   2.177 -1.6122 -1.7521  1.1300
  445MOL0     H61346   7.330   5.032   2.252  0.6982 -0.5237  1.5953
  445MOL0     H61347   7.432   4.931   2.450  0.8754  3.9099 -2.1415
  445MOL0     H61348   7.424   4.769   2.363 -0.8281  0.1056 -0.5624
  445MOL0     H61349   7.579   4.876   2.198  1.0551 -0.3248 -0.4923
  445MOL0     H61350   7.548   5.031   2.293 -1.6741 -0.4216  2.2189
  445MOL0     H61351   7.680   4.771   2.368  0.7359  0.0892  1.0050
  445MOL0     H61352   7.656   4.890   2.498 -4.3782 -0.2214 -0.2315
  445MOL0     H61353   7.883   4.864   2.389 -0.5260 -1.4073 -1.2118
  445MOL0     H61354   7.810   4.934   2.234 -1.5799 -1.6782  0.4775
  445MOL0     H61355   7.830   5.063   2.507 -2.1359 -0.5875 -0.4591
  445MOL0     H61356   7.765   5.146   2.378  0.9508  1.0525  2.6086
  445MOL0     H61357   7.993   5.222   2.368  3.1371 -0.3085  0.0264
  445MOL0     H61358   8.050   5.059   2.410  1.5150 -1.2425 -1.4434
  445MOL0     H61359   8.111   4.897   2.214  0.9661  0.9873 -0.0572
  445MOL0     H61360   8.165   4.960   1.850  0.7460 -2.5461 -1.0921
  445MOL0     H61361   8.201   4.830   1.953  1.0241 -0.3432 -0.8334
  445MOL0     H61362   8.351   5.104   1.945 -0.8739 -0.0958  1.1665
  445MOL0     H61363   8.385   4.984   2.070 -0.3157 -0.0837 -0.0649
  445MOL0     H61364   8.465   4.821   1.895  0.3218  0.4317  2.1046
  445MOL0     H61365   8.416   4.942   1.768  1.4582 -0.3540 -0.1881
  445MOL0     H61366   8.554   5.114   1.861 -1.3589 -0.0493  2.0423
  445MOL0     H61367   8.620   5.007   1.987  0.4545 -0.5616 -0.7225
  445MOL0     H61368   8.857   4.922   1.618  2.1056  1.3755 -2.4868
  445MOL0     H61369   9.114   5.107   1.466  0.7133 -2.9435 -0.6970
  445MOL0     H61370   8.996   4.977   1.465  0.1986  0.2463 -1.0371
  445MOL0     H61371   9.131   4.965   1.577  0.6820  1.1794  0.5221
  445MOL0     H61372   9.451   5.059   1.626  1.8670 -1.5491 -0.8038
  445MOL0     H61373   9.686   5.129   1.646 -0.6650 -0.8533 -2.5956
  445MOL0     H61374   9.760   5.551   1.537 -3.1874 -0.5860  0.9471
  445MOL0     H61375   9.782   5.523   1.714 -1.7487 -1.5623 -0.9116
  445MOL0     H61376  10.005   5.583   1.625 -2.1423  0.4271  2.1061
  445MOL0     H61377   9.999   5.403   1.649  2.3303  0.3186 -0.6993
  445MOL0     H61378   9.926   5.549   1.384 -0.3907  0.7362  1.5447
  445MOL0     H61379   9.958   5.380   1.402  1.0573 -0.0214 -2.1730
  445MOL0     H61380  10.127   5.613   1.372 -0.9327 -0.2862 -3.1365
  445MOL0     H61381  10.159   5.466   1.302  2.5707  4.3646 -1.1801
  445MOL0     H61382  10.223   5.526   1.593 -1.0476  0.5171 -0.0800
  445MOL0     H61383  10.246   5.365   1.527  2.5128  0.7499 -1.8968
  445MOL0     H61384  10.387   5.580   1.383 -2.4355 -1.5087 -0.9804
  445MOL0     H61385  10.405   5.409   1.372  0.2493  0.6893 -0.6837
  445MOL0     H61386  10.509   5.382   1.588 -2.2629 -1.3287 -1.0307
  445MOL0     H61387  10.460   5.542   1.643 -1.4201 -0.9416  0.5752
  445MOL0     H61388  10.616   5.643   1.454  1.8325  2.3170  1.1880
  445MOL0     H61389  10.650   5.467   1.423 -1.3578  0.8297  0.5447
  445MOL0     H61390   9.560   5.540   1.589  0.0362 -0.7211  0.6538
  445MOL0     H61391   9.343   5.492   1.603 -1.0361  0.6073 -1.7932
  445MOL0     H61392   8.965   5.324   1.887 -1.7100  1.0947 -1.4630
  445MOL0     H61393   8.777   5.198   1.939 -1.0798  3.3978 -1.4717
  445MOL0     H61394   6.941   4.834   2.372  0.9560  0.7805 -2.0852
  445MOL0     H61395   6.708   4.883   2.447 -2.0616  2.6389 -1.0167
  445MOL0     H61396   6.458   5.191   2.753  0.0446 -0.6102 -0.0098
  445MOL0     H61397   6.243   5.206   2.861  1.9721 -0.7733  1.1915
  445MOL0     H61398   5.896   5.088   2.662  1.5192 -1.0234 -0.8906
  445MOL0     H61399   5.888   4.952   2.787  0.4689 -0.0401  1.7863
  445MOL0     H61400   5.838   5.249   2.854 -0.1501  0.2864 -2.1521
  445MOL0     H61401   5.784   5.108   2.946  1.4696 -0.0358  1.0836
  445MOL0     H61402   5.671   5.204   2.682  0.5272 -1.1114 -1.0906
  445MOL0     H61403   5.622   5.050   2.766 -1.9109  0.6858 -0.2656
  445MOL0     H61404   5.620   5.320   2.906  0.6181 -0.4390  0.7583
  445MOL0     H61405   5.576   5.170   2.984 -2.9049 -2.6312 -0.7560
  445MOL0     H61406   5.211   5.256   2.816  0.5616  3.1888  0.3992
  445MOL0     H61407   6.083   4.927   2.586  0.1672 -0.5724  0.9015
  445MOL0     H61408   6.211   4.801   2.447 -1.3660  0.8253  0.6034
  445MOL0     H61409   6.291   4.923   2.344 -0.0520 -3.5676 -0.7532
  445MOL0     H61410   6.385   4.812   2.447  0.0313 -0.4979 -2.0577
  446MOL0     O61411   9.021   8.345   9.266 -0.7641 -0.1674  0.0696
  446MOL0     C61412   8.999   8.241   9.203  0.3067  0.1177  0.0472
  446MOL0     O61413   9.078   8.138   9.184 -0.1358  0.8217 -0.0831
  446MOL0     C61414   9.181   8.106   9.262  0.4273  0.1456  0.8197
  446MOL0     C61415   9.259   8.002   9.220  0.0351  0.6981 -0.4152
  446MOL0     C61416   9.368   7.959   9.304 -0.5338  0.7806  0.1637
  446MOL0     C61417   9.406   8.022   9.424  0.6100  0.2241 -0.0479
  446MOL0     O61418   9.512   7.981   9.502 -0.3346  0.5684 -0.2403
  446MOL0     C61419   9.642   7.947   9.446  1.2189  0.0005 -0.4496
  446MOL0     C61420   9.750   7.987   9.534  0.1625 -0.2185 -0.7089
  446MOL0     C61421   9.794   8.131   9.529  0.1067 -0.0729  0.4748
  446MOL0     C61422   9.849   8.169   9.390 -0.2670 -1.1650  0.1308
  446MOL0     C61423   9.920   8.306   9.382  0.0684  0.2186 -0.2172
  446MOL0     C61424   9.971   8.339   9.243 -0.0413 -0.7572  0.4391
  446MOL0     C61425   9.857   8.366   9.133  0.4816 -0.1484 -0.3910
  446MOL0     C61426   9.931   8.451   9.017 -0.0722  1.0522  0.5757
  446MOL0     N61427   9.926   8.380   8.886  0.6326 -0.1752 -0.0010
  446MOL0     C61428   9.824   8.401   8.797  0.9367 -0.4644 -0.1424
  446MOL0     C61429   9.837   8.303   8.708 -0.4146 -1.0493 -1.1160
  446MOL0     C61430   9.719   8.279   8.613  0.4693 -0.3479  0.3100
  446MOL0     C61431   9.699   8.397   8.510 -0.0070  0.4065 -0.0880
  446MOL0     C61432   9.644   8.349   8.369  0.4493  0.0568 -0.4386
  446MOL0     C61433   9.737   8.268   8.290 -1.0215  0.1065 -0.3637
  446MOL0     O61434   9.769   8.313   8.157 -0.2959  0.1102 -0.5361
  446MOL0     C61435   9.838   8.237   8.070 -0.5147  0.2143  0.1740
  446MOL0     C61436   9.890   8.317   7.972 -0.3815 -0.5112  0.6740
  446MOL0     C61437   9.982   8.258   7.878  1.0812 -1.0304  0.2157
  446MOL0     C61438  10.043   8.345   7.768  0.1132  0.5271  0.1282
  446MOL0     C61439  10.012   8.129   7.882  0.6592  0.3271 -0.7170
  446MOL0     C61440  10.096   8.051   7.796 -0.0520  0.7824  0.8463
  446MOL0     O61441  10.049   7.939   7.732  0.5022  0.0203 -0.0971
  446MOL0     C61442  10.132   7.898   7.622 -0.1997 -0.6118 -0.5601
  446MOL0     C61443  10.178   7.769   7.625  0.3764  0.6219 -0.0036
  446MOL0     C61444  10.231   7.705   7.514  0.5843  0.4949  0.2803
  446MOL0     C61445  10.258   7.786   7.402  0.8047  0.1934  0.6978
  446MOL0     O61446  10.328   7.739   7.301 -0.0717 -0.0229 -0.3805
  446MOL0     C61447  10.464   7.689   7.326  0.7721 -0.1770  0.3815
  446MOL0     C61448  10.554   7.762   7.211 -0.5221  0.7414 -0.2686
  446MOL0     C61449  10.533   7.706   7.069 -0.2959  0.1596  0.1023
  446MOL0     C61450  10.643   7.759   6.966 -0.2806 -0.0030  0.1214
  446MOL0     C61451  10.578   7.781   6.825  0.3541  0.6232  0.0008
  446MOL0     C61452  10.520   7.923   6.816  1.0716  0.3375  0.8057
  446MOL0     C61453  10.471   7.935   6.674 -0.0518 -0.0254 -0.0009
  446MOL0     C61454  10.421   8.083   6.647  0.0960  0.6653  0.8797
  446MOL0    Cl61455  10.571   8.192   6.624 -0.1191 -0.1960  0.0787
  446MOL0     C61456  10.230   7.928   7.402 -0.6990 -0.4656  0.6043
  446MOL0     C61457  10.164   7.978   7.511  0.4534 -0.3926  0.9399
  446MOL0     O61458  10.207   8.099   7.776  0.1124  0.4540 -0.0252
  446MOL0     C61459   9.947   8.048   7.975 -0.0091 -0.8360 -0.0539
  446MOL0     C61460   9.877   8.108   8.082 -0.0348  0.3831  0.4510
  446MOL0     N61461   9.948   8.228   8.743  1.1656  0.8120  0.2707
  446MOL0     N61462   9.996   8.271   8.852 -0.4261 -0.4882  0.1315
  446MOL0     C61463   9.321   8.117   9.470 -0.0723 -0.9361 -0.3934
  446MOL0     C61464   9.213   8.162   9.393  0.3754  0.2427 -0.6398
  446MOL0     C61465   8.861   8.234   9.155 -0.3864  0.4852  0.9608
  446MOL0     C61466   8.832   8.133   9.062  0.1005 -0.7026 -0.2966
  446MOL0     C61467   8.712   8.123   9.002 -0.3948  0.5469 -0.6925
  446MOL0     C61468   8.610   8.215   9.020 -0.0517  0.2159  0.9249
  446MOL0     O61469   8.493   8.186   8.959 -0.0887 -0.3159 -0.2699
  446MOL0     C61470   8.381   8.271   8.975 -0.3778  0.5168  0.3499
  446MOL0     C61471   8.308   8.247   9.116 -0.8383 -0.6845 -0.0974
  446MOL0     C61472   8.286   8.097   9.147  1.3233  0.4873 -0.0813
  446MOL0     C61473   8.237   8.023   9.019 -0.5889  0.5080  0.2829
  446MOL0     C61474   8.107   8.065   8.984  0.2655 -0.3132 -0.2474
  446MOL0     C61475   8.006   8.122   8.955 -0.2867  0.7509  0.1521
  446MOL0     C61476   8.633   8.313   9.117 -0.3135  0.1519 -0.8907
  446MOL0     C61477   8.752   8.322   9.188  0.3741 -1.0520  0.3546
  446MOL0     C61478   8.754   8.412   9.301  0.4041 -0.3840 -0.2022
  446MOL0     H61479   9.246   7.958   9.122  1.7081  2.0453 -1.2986
  446MOL0     H61480   9.421   7.871   9.270  1.0074  2.1392 -1.1359
  446MOL0     H61481   9.644   7.999   9.349 -1.2192  3.2437  1.0310
  446MOL0     H61482   9.646   7.839   9.433 -1.7705 -0.1451 -0.8925
  446MOL0     H61483   9.712   7.965   9.634  1.0445 -1.9447 -0.7136
  446MOL0     H61484   9.839   7.930   9.503 -0.7178 -0.6031 -2.6467
  446MOL0     H61485   9.705   8.193   9.541 -0.1737 -0.5295  0.7848
  446MOL0     H61486   9.855   8.171   9.611  1.2144  2.5563 -1.4808
  446MOL0     H61487   9.924   8.098   9.356 -0.1407 -1.5646  1.2130
  446MOL0     H61488   9.764   8.170   9.321  0.4303  1.3763 -0.8402
  446MOL0     H61489  10.005   8.298   9.450  2.7271  1.5971 -3.0966
  446MOL0     H61490   9.856   8.387   9.417 -0.2834 -0.1616  0.0232
  446MOL0     H61491  10.033   8.428   9.251 -3.2127  1.4732  2.6964
  446MOL0     H61492  10.037   8.258   9.211  0.9973 -0.6425  2.1995
  446MOL0     H61493   9.782   8.428   9.183 -0.8360 -2.0835  0.1234
  446MOL0     H61494   9.803   8.279   9.095 -0.5343  1.3543 -2.5815
  446MOL0     H61495   9.892   8.553   9.007  0.1073  0.8552 -5.1626
  446MOL0     H61496  10.037   8.467   9.040  0.5218 -1.8557  0.2788
  446MOL0     H61497   9.746   8.475   8.812  1.6690 -0.1445  2.5438
  446MOL0     H61498   9.625   8.265   8.666  0.9800  0.9386  1.6313
  446MOL0     H61499   9.729   8.186   8.557 -0.0750 -0.1223 -0.1786
  446MOL0     H61500   9.638   8.479   8.550  0.9784  2.6926 -2.9579
  446MOL0     H61501   9.803   8.428   8.497  1.1441 -1.2288  3.7509
  446MOL0     H61502   9.556   8.285   8.379  1.0749 -0.6255  1.0204
  446MOL0     H61503   9.619   8.437   8.309  3.2677  1.6187  0.4402
  446MOL0     H61504   9.829   8.248   8.346 -0.3864 -1.9751 -2.0254
  446MOL0     H61505   9.695   8.167   8.285  3.3238 -2.0466  0.9936
  446MOL0     H61506   9.867   8.423   7.977 -2.9603 -1.0713  2.4083
  446MOL0     H61507  10.151   8.358   7.781  0.3365  0.0693 -1.0934
  446MOL0     H61508   9.992   8.441   7.761  0.3742  0.6655  0.1288
  446MOL0     H61509  10.043   8.299   7.668  0.3488 -0.8412  0.7234
  446MOL0     H61510  10.158   7.709   7.713  1.2160 -0.7907 -0.7364
  446MOL0     H61511  10.257   7.600   7.508 -0.0943  0.3358  0.0838
  446MOL0     H61512  10.504   7.717   7.423 -1.8128 -2.1820  2.1737
  446MOL0     H61513  10.465   7.580   7.323  1.0367 -0.1700  0.1086
  446MOL0     H61514  10.531   7.867   7.229 -2.1213  0.3210  0.3134
  446MOL0     H61515  10.649   7.725   7.249 -0.5847  2.2768  1.5083
  446MOL0     H61516  10.437   7.735   7.027  0.8029  2.5861 -0.9296
  446MOL0     H61517  10.541   7.597   7.061  1.7803  0.2130  0.7809
  446MOL0     H61518  10.741   7.711   6.962  1.6233  3.2311  2.8041
  446MOL0     H61519  10.657   7.861   7.002  0.8656  0.2378 -0.9427
  446MOL0     H61520  10.665   7.771   6.759  1.6123  1.4510  1.4600
  446MOL0     H61521  10.500   7.708   6.802 -0.2608  0.8431  1.2937
  446MOL0     H61522  10.599   7.997   6.826  2.3611 -0.5868 -1.6952
  446MOL0     H61523  10.451   7.953   6.895  0.2732  0.4487  0.0792
  446MOL0     H61524  10.390   7.865   6.654  1.6676 -1.8615 -0.9547
  446MOL0     H61525  10.550   7.907   6.603  1.3264  4.5317 -0.6260
  446MOL0     H61526  10.369   8.127   6.732 -3.3780 -1.3843  0.0147
  446MOL0     H61527  10.351   8.077   6.563 -0.7901 -3.2113  1.6885
  446MOL0     H61528  10.254   7.975   7.307 -0.7097 -1.5521  0.0422
  446MOL0     H61529  10.128   8.081   7.506 -1.7417 -1.1134  1.0151
  446MOL0     H61530   9.970   7.942   7.985 -3.5452 -1.6565  0.9675
  446MOL0     H61531   9.846   8.041   8.162 -1.3230  3.5235  2.7851
  446MOL0     H61532   9.346   8.161   9.566  1.9685 -2.0484 -0.3653
  446MOL0     H61533   9.141   8.224   9.444 -1.2840 -1.9859 -0.1045
  446MOL0     H61534   8.914   8.069   9.030  1.0112  0.1530  0.2336
  446MOL0     H61535   8.685   8.031   8.950 -0.2482 -1.7987  3.0000
  446MOL0     H61536   8.415   8.375   8.966 -0.3567  0.6488  1.6679
  446MOL0     H61537   8.317   8.246   8.891  1.2194  1.1328 -1.1045
  446MOL0     H61538   8.211   8.297   9.119  0.1198  1.3507 -0.6197
  446MOL0     H61539   8.363   8.295   9.198 -0.5954 -1.4626  0.2025
  446MOL0     H61540   8.375   8.052   9.192  0.0691  0.9526  3.0741
  446MOL0     H61541   8.207   8.082   9.220  0.6858 -1.6014 -1.1028
  446MOL0     H61542   8.222   7.918   9.046 -0.1645 -0.1965 -1.9868
  446MOL0     H61543   8.308   8.035   8.936  0.8464 -0.8872  1.2271
  446MOL0     H61544   7.923   8.171   8.909 -1.4390  1.0506  2.4307
  446MOL0     H61545   8.551   8.378   9.147 -0.7220 -0.6388 -0.2463
  446MOL0     H61546   8.666   8.477   9.297  0.9146  0.2584 -3.8950
  446MOL0     H61547   8.762   8.355   9.395  3.2950 -0.0554 -0.1327
  446MOL0     H61548   8.838   8.483   9.300  0.0285  0.0618 -0.4354
  447MOL0     O61549   5.235   2.614   7.641  0.6577  0.3002 -0.3325
  447MOL0     C61550   5.237   2.491   7.616  0.2956 -0.1785 -0.0257
  447MOL0     O61551   5.137   2.422   7.555  0.1403 -0.1026 -0.2304
  447MOL0     C61552   5.016   2.473   7.507  0.1821  0.5294  0.0992
  447MOL0     C61553   4.905   2.391   7.521  0.1848  0.7126 -0.6881
  447MOL0     C61554   4.776   2.435   7.490  0.7277 -0.0588  0.2273
  447MOL0     C61555   4.753   2.551   7.412  0.0033 -0.0269  0.0719
  447MOL0     O61556   4.632   2.587   7.361 -0.5976  0.4960 -0.0914
  447MOL0     C61557   4.523   2.492   7.372 -0.1354  0.1640 -0.4453
  447MOL0     C61558   4.402   2.562   7.296 -0.2335  0.0637  0.0881
  447MOL0     C61559   4.356   2.690   7.363  0.2547 -0.2435  0.2305
  447MOL0     C61560   4.219   2.741   7.311  0.3291 -0.3697  0.7507
  447MOL0     C61561   4.196   2.893   7.335  1.1918 -0.3865 -0.0314
  447MOL0     C61562   4.062   2.932   7.281  0.2385  0.1619  0.1125
  447MOL0     C61563   4.037   3.088   7.314 -0.3726  0.4771 -0.2785
  447MOL0     C61564   3.957   3.090   7.456 -0.4493 -0.7775  0.7328
  447MOL0     N61565   3.816   3.087   7.440  0.7624  0.3286  0.0384
  447MOL0     C61566   3.747   3.181   7.366  0.6691 -0.2479  1.2582
  447MOL0     C61567   3.618   3.131   7.368 -0.8177  0.4011  1.3813
  447MOL0     C61568   3.500   3.190   7.296  0.5085  0.0717 -0.4709
  447MOL0     C61569   3.365   3.169   7.369  0.0902  0.7670 -0.6070
  447MOL0     C61570   3.254   3.233   7.277 -0.7180 -0.1357 -0.1878
  447MOL0     C61571   3.116   3.180   7.303  0.0364  0.0625 -0.6597
  447MOL0     O61572   3.095   3.213   7.440 -0.1476 -0.0096 -0.2507
  447MOL0     C61573   3.012   3.140   7.521  0.2465 -0.5358 -0.6700
  447MOL0     C61574   3.030   3.147   7.662  0.1180  0.3262  0.2978
  447MOL0     C61575   2.951   3.064   7.750  0.6040 -0.4499 -0.1552
  447MOL0     C61576   2.991   3.072   7.902 -0.3123 -0.1397  0.5014
  447MOL0     C61577   2.851   2.981   7.697 -0.1269 -0.6055  0.4158
  447MOL0     C61578   2.757   2.904   7.779 -1.3925 -0.3862 -0.4191
  447MOL0     O61579   2.682   2.814   7.704  0.2809  0.4122  0.6935
  447MOL0     C61580   2.645   2.702   7.773 -0.5492 -0.4217 -0.2925
  447MOL0     C61581   2.747   2.629   7.833 -0.6211 -0.2527 -0.0544
  447MOL0     C61582   2.711   2.514   7.906 -0.3148 -0.3122  0.6424
  447MOL0     C61583   2.589   2.469   7.929  0.6143 -0.6541  0.5348
  447MOL0     O61584   2.569   2.361   8.011 -0.5184  0.3523 -0.1055
  447MOL0     C61585   2.465   2.357   8.108  0.1353  0.1326 -0.6208
  447MOL0     C61586   2.498   2.263   8.225  0.3768  0.9256  0.2858
  447MOL0     C61587   2.383   2.254   8.326  0.7585  0.4514 -0.6925
  447MOL0     C61588   2.401   2.146   8.428  0.1037  0.1548  0.3934
  447MOL0     C61589   2.526   2.163   8.514  0.1145 -0.1040 -0.4580
  447MOL0     C61590   2.525   2.099   8.651 -0.0700 -0.5147 -0.7931
  447MOL0     C61591   2.481   1.951   8.663  1.3385 -0.7981  0.2368
  447MOL0     C61592   2.543   1.905   8.797 -0.6407  0.2794  0.5259
  447MOL0    Cl61593   2.451   1.958   8.933  0.1709  0.3037 -0.2136
  447MOL0     C61594   2.489   2.547   7.868 -0.0865  0.0138  0.6347
  447MOL0     C61595   2.517   2.668   7.800  0.1044 -0.2355  0.8878
  447MOL0     O61596   2.739   2.926   7.896  0.3049 -0.3313  0.4231
  447MOL0     C61597   2.823   2.996   7.561 -0.0841 -0.0656  0.0116
  447MOL0     C61598   2.909   3.064   7.471  0.7933 -0.4087 -0.1172
  447MOL0     N61599   3.622   3.012   7.442  0.6006 -0.4428 -0.3790
  447MOL0     N61600   3.738   2.988   7.483 -0.7709 -0.9935 -0.4077
  447MOL0     C61601   4.868   2.633   7.398 -0.3960  0.0081  0.6651
  447MOL0     C61602   4.990   2.598   7.454  0.5558 -0.2210  0.4979
  447MOL0     C61603   5.359   2.426   7.660  0.4211  0.4828 -0.7254
  447MOL0     C61604   5.455   2.497   7.728 -0.8615 -0.2824  0.8106
  447MOL0     C61605   5.579   2.442   7.768 -0.3140  0.4049 -0.7199
  447MOL0     C61606   5.600   2.305   7.765  0.4335  0.1204  0.4374
  447MOL0     O61607   5.721   2.240   7.804  0.2791 -0.4727 -0.4535
  447MOL0     C61608   5.824   2.313   7.879  0.1223  0.0295  0.1958
  447MOL0     C61609   5.933   2.226   7.956 -0.1427 -0.7969 -0.2439
  447MOL0     C61610   6.001   2.295   8.072 -0.2702 -0.0397 -0.5621
  447MOL0     C61611   6.091   2.207   8.160 -0.4387  0.0663  0.4398
  447MOL0     C61612   6.187   2.297   8.233 -0.1545  0.8497 -0.6838
  447MOL0     C61613   6.255   2.360   8.310  0.4335 -0.1323  0.5077
  447MOL0     C61614   5.507   2.233   7.689 -0.4663  0.3579 -0.7387
  447MOL0     C61615   5.393   2.292   7.640 -0.2543  0.4721  0.3618
  447MOL0     C61616   5.317   2.199   7.548 -0.2004  0.5922 -0.4000
  447MOL0     H61617   4.918   2.293   7.566 -0.0945  0.4016 -1.2670
  447MOL0     H61618   4.691   2.372   7.514 -0.8889  1.4371 -1.2749
  447MOL0     H61619   4.500   2.465   7.475  2.1702  0.5748  0.2261
  447MOL0     H61620   4.555   2.398   7.326 -0.4393 -1.7106  2.8681
  447MOL0     H61621   4.428   2.577   7.191 -0.6239  1.6620  0.2007
  447MOL0     H61622   4.313   2.499   7.304 -1.7568  1.9467 -1.3203
  447MOL0     H61623   4.353   2.669   7.470  1.4726  0.1077  0.3567
  447MOL0     H61624   4.433   2.767   7.352  0.5102 -0.7562 -2.1915
  447MOL0     H61625   4.215   2.719   7.204 -2.5053 -1.7171  1.0459
  447MOL0     H61626   4.139   2.675   7.347 -2.0925  1.7327 -0.4649
  447MOL0     H61627   4.276   2.952   7.289  0.7682 -0.0661 -0.3668
  447MOL0     H61628   4.184   2.923   7.439 -1.7738  4.4087 -1.4079
  447MOL0     H61629   4.062   2.921   7.172  0.7350 -6.3709  0.3831
  447MOL0     H61630   3.980   2.870   7.317 -1.6557  3.3405  1.6501
  447MOL0     H61631   3.977   3.134   7.235 -1.4386 -0.9025 -0.3138
  447MOL0     H61632   4.131   3.140   7.331 -1.6269  2.8367 -0.1807
  447MOL0     H61633   3.983   3.005   7.520 -1.6821 -1.5953  0.1903
  447MOL0     H61634   3.982   3.186   7.501  1.1543  1.5179 -4.3931
  447MOL0     H61635   3.784   3.274   7.321  0.1217  0.2418  1.8154
  447MOL0     H61636   3.494   3.130   7.205 -1.1553 -1.6647  0.6849
  447MOL0     H61637   3.516   3.295   7.274  1.1812  0.0681 -0.0337
  447MOL0     H61638   3.349   3.062   7.388 -0.8091  0.7189 -1.5229
  447MOL0     H61639   3.360   3.229   7.460 -2.0668  0.8514 -0.7220
  447MOL0     H61640   3.250   3.341   7.299 -1.8209  0.0630 -1.2932
  447MOL0     H61641   3.271   3.218   7.170 -1.4262  0.4988 -0.3969
  447MOL0     H61642   3.032   3.223   7.248  0.6766  1.1850 -0.7796
  447MOL0     H61643   3.116   3.072   7.281 -2.4143  0.2598 -1.9529
  447MOL0     H61644   3.108   3.212   7.704  2.8317 -0.3865 -3.1845
  447MOL0     H61645   2.898   3.097   7.954 -1.6721 -0.8386 -1.4751
  447MOL0     H61646   3.055   3.160   7.913 -0.9760  0.4855 -0.4196
  447MOL0     H61647   3.037   2.980   7.939 -0.3288 -0.4415 -0.2146
  447MOL0     H61648   2.852   2.635   7.803  1.3231 -2.6615  5.0657
  447MOL0     H61649   2.792   2.454   7.945  0.5329 -0.0369 -0.6558
  447MOL0     H61650   2.452   2.459   8.145  3.6119 -0.2867  2.2312
  447MOL0     H61651   2.376   2.324   8.052  0.2750 -0.4441 -0.5146
  447MOL0     H61652   2.524   2.162   8.192  2.5915  0.2502  3.6182
  447MOL0     H61653   2.595   2.289   8.268  2.6396 -2.2177 -2.3872
  447MOL0     H61654   2.299   2.215   8.267  0.9354  0.3983 -0.9088
  447MOL0     H61655   2.340   2.349   8.359  0.6295  1.2004 -2.8830
  447MOL0     H61656   2.416   2.049   8.378  0.9938  0.3175  0.3339
  447MOL0     H61657   2.306   2.144   8.482 -0.1816  1.0576 -0.0581
  447MOL0     H61658   2.613   2.124   8.460  0.0068 -0.2758 -0.5116
  447MOL0     H61659   2.552   2.267   8.533  1.1057 -0.7505  2.0877
  447MOL0     H61660   2.444   2.147   8.708 -0.4187 -1.0065 -0.8715
  447MOL0     H61661   2.618   2.125   8.703  0.2104 -0.5592 -1.2694
  447MOL0     H61662   2.518   1.894   8.577  4.1295 -3.2744  2.8209
  447MOL0     H61663   2.372   1.948   8.663  1.3128 -0.6967 -1.1845
  447MOL0     H61664   2.649   1.933   8.792 -0.9750  1.5248 -0.0386
  447MOL0     H61665   2.541   1.797   8.814 -2.6328  0.4619  1.7780
  447MOL0     H61666   2.385   2.529   7.893 -1.0515  1.3206 -2.0777
  447MOL0     H61667   2.429   2.724   7.771 -1.4575 -1.2768  3.2677
  447MOL0     H61668   2.740   2.953   7.506  1.0443 -0.7666 -1.2033
  447MOL0     H61669   2.893   3.048   7.365 -0.9894 -0.7655  0.1689
  447MOL0     H61670   4.860   2.730   7.349  0.3528 -0.1030  0.3021
  447MOL0     H61671   5.074   2.667   7.446 -0.4071  1.3060  2.6119
  447MOL0     H61672   5.449   2.601   7.759  1.2225 -0.3675  1.6418
  447MOL0     H61673   5.656   2.509   7.806  0.9302 -0.5645 -1.4615
  447MOL0     H61674   5.886   2.379   7.817 -0.2188  0.7224  0.5840
  447MOL0     H61675   5.785   2.379   7.956  3.7849  1.0313  1.3670
  447MOL0     H61676   6.000   2.190   7.877  3.3980  2.7660  0.8222
  447MOL0     H61677   5.877   2.145   8.003 -1.7700  0.5983  0.3457
  447MOL0     H61678   6.056   2.371   8.017 -0.6153  0.5574 -0.0861
  447MOL0     H61679   5.928   2.346   8.136 -0.6324  0.7700 -1.5953
  447MOL0     H61680   6.137   2.141   8.086  2.0317  0.0483  1.8641
  447MOL0     H61681   6.033   2.145   8.229 -2.6123  3.2888  1.7043
  447MOL0     H61682   6.295   2.435   8.375 -1.7682  2.5238 -1.0019
  447MOL0     H61683   5.534   2.129   7.669  1.8731  0.3183  1.9828
  447MOL0     H61684   5.209   2.199   7.564 -0.1457  0.6946 -0.0107
  447MOL0     H61685   5.338   2.229   7.445 -1.2630  0.0600 -0.7848
  447MOL0     H61686   5.349   2.095   7.559  0.7978  0.8276 -0.9705
  448MOL0     O61687   0.400   6.021   2.944  0.1933 -0.0351  0.9823
  448MOL0     C61688   0.447   6.125   2.914 -0.6356  0.0314 -0.0597
  448MOL0     O61689   0.384   6.232   2.849  0.2857 -1.0956  0.1725
  448MOL0     C61690   0.306   6.202   2.741 -0.1615 -0.0650 -0.9790
  448MOL0     C61691   0.184   6.270   2.731  0.3767  0.1988  0.6620
  448MOL0     C61692   0.099   6.246   2.624  0.6905  0.5688 -0.2183
  448MOL0     C61693   0.129   6.150   2.527  0.2248  0.2647 -0.1078
  448MOL0     O61694   0.035   6.129   2.430 -0.1248  0.5655 -0.2733
  448MOL0     C61695   0.025   6.242   2.344  0.6126  0.5350  0.9244
  448MOL0     C61696  -0.094   6.200   2.253 -0.4942 -0.3784  0.2118
  448MOL0     C61697  -0.217   6.213   2.328 -0.3090 -0.0419 -1.1724
  448MOL0     C61698  -0.338   6.157   2.251 -0.6826  0.1757 -0.0327
  448MOL0     C61699  -0.472   6.187   2.323 -0.1969  0.3722 -0.0855
  448MOL0     C61700  -0.589   6.118   2.250  0.3026  0.6984 -0.2558
  448MOL0     C61701  -0.587   6.130   2.094 -1.0823  0.1460 -0.0843
  448MOL0     C61702  -0.718   6.078   2.032  0.4893 -0.6374  0.2028
  448MOL0     N61703  -0.701   6.073   1.885 -0.5002  0.6868 -0.1500
  448MOL0     C61704  -0.797   6.124   1.798 -0.7846 -0.7568  0.2314
  448MOL0     C61705  -0.776   6.062   1.676 -0.6289 -1.0788  0.5175
  448MOL0     C61706  -0.868   6.086   1.564  0.5873 -0.5729  0.1544
  448MOL0     C61707  -1.014   6.034   1.594 -0.1812  0.4703 -0.6826
  448MOL0     C61708  -1.102   5.994   1.468 -0.5102  0.1760  0.1076
  448MOL0     C61709  -1.253   5.989   1.520 -0.2205  0.1188  0.8759
  448MOL0     O61710  -1.260   5.907   1.638  0.3318  0.2135 -0.1887
  448MOL0     C61711  -1.316   5.951   1.750 -0.6007  0.6673 -0.6022
  448MOL0     C61712  -1.436   6.019   1.756 -0.6064  0.1486  0.4502
  448MOL0     C61713  -1.496   6.052   1.883 -0.2707 -0.1919  0.2236
  448MOL0     C61714  -1.639   6.113   1.876  0.4984 -0.0942  0.2203
  448MOL0     C61715  -1.425   6.028   2.005  0.0475  0.5391 -0.1061
  448MOL0     C61716  -1.467   6.085   2.138 -0.6328 -0.4526  0.0458
  448MOL0     O61717  -1.362   6.119   2.225 -0.0828 -0.0771 -0.6033
  448MOL0     C61718  -1.399   6.148   2.356  0.3878 -0.5149  0.0688
  448MOL0     C61719  -1.321   6.088   2.451  0.6305  0.0694  0.8206
  448MOL0     C61720  -1.335   6.110   2.594 -0.2966  0.6704 -0.4277
  448MOL0     C61721  -1.447   6.179   2.628  0.5116  0.3115  1.0739
  448MOL0     O61722  -1.453   6.197   2.762 -0.0435  1.5562 -0.4382
  448MOL0     C61723  -1.569   6.249   2.821  0.5919 -0.0208  0.1428
  448MOL0     C61724  -1.678   6.141   2.834 -0.0318  0.4132 -0.0850
  448MOL0     C61725  -1.816   6.201   2.799 -0.0796 -0.0939 -1.4159
  448MOL0     C61726  -1.934   6.110   2.844  0.6063 -0.7617 -0.1656
  448MOL0     C61727  -2.066   6.199   2.835 -0.3291  0.3111 -0.0583
  448MOL0     C61728  -2.197   6.141   2.882  0.0050  0.4976  0.2112
  448MOL0     C61729  -2.219   6.150   3.028 -0.4719 -0.0420  0.1371
  448MOL0     C61730  -2.352   6.104   3.060  0.6969 -0.1300 -0.7894
  448MOL0    Cl61731  -2.486   6.206   3.033 -0.0546  0.2159 -0.4096
  448MOL0     C61732  -1.525   6.243   2.525  0.6345  0.1798 -0.5810
  448MOL0     C61733  -1.502   6.231   2.393  0.4667 -0.6759 -0.4736
  448MOL0     O61734  -1.585   6.106   2.154  0.3041 -0.5925 -0.0773
  448MOL0     C61735  -1.300   5.967   1.992  0.2502 -0.4641  0.4575
  448MOL0     C61736  -1.246   5.922   1.870  1.1551 -0.4670 -0.4461
  448MOL0     N61737  -0.657   5.987   1.685  0.4791 -0.6059 -0.1679
  448MOL0     N61738  -0.621   5.995   1.811 -0.1477  0.2391  0.1225
  448MOL0     C61739   0.246   6.083   2.537 -0.8312 -0.3085 -0.0461
  448MOL0     C61740   0.334   6.103   2.646  0.2463 -0.1871  0.7995
  448MOL0     C61741   0.595   6.157   2.932 -0.7637 -0.4178 -0.4952
  448MOL0     C61742   0.646   6.275   2.876  0.7157  0.0856 -0.6581
  448MOL0     C61743   0.778   6.306   2.899 -0.8275  1.1664  1.0912
  448MOL0     C61744   0.877   6.217   2.935  0.1624  0.4643 -0.9717
  448MOL0     O61745   1.005   6.264   2.933  0.4424  0.5104  0.0158
  448MOL0     C61746   1.106   6.177   2.993 -1.0118  0.4677 -0.5380
  448MOL0     C61747   1.250   6.228   2.959 -0.1803  0.0657 -0.1808
  448MOL0     C61748   1.267   6.238   2.802 -0.6931 -0.1033  0.0242
  448MOL0     C61749   1.393   6.310   2.767  0.1955  0.8133 -0.0870
  448MOL0     C61750   1.415   6.441   2.803 -0.3681 -0.7861 -0.1347
  448MOL0     C61751   1.418   6.547   2.860 -0.4412  0.9034  0.9318
  448MOL0     C61752   0.821   6.111   3.009  0.8624 -0.3238 -0.3308
  448MOL0     C61753   0.683   6.079   3.011 -0.3460  0.1363  0.5452
  448MOL0     C61754   0.642   5.945   3.080  0.1620  0.2866 -1.1463
  448MOL0     H61755   0.185   6.359   2.793  3.6041 -0.8758  2.3495
  448MOL0     H61756   0.015   6.313   2.634 -0.5457 -0.9637  0.1434
  448MOL0     H61757   0.124   6.254   2.298  0.3246 -0.4750  0.0111
  448MOL0     H61758  -0.004   6.339   2.385  0.5186  0.4589  1.0385
  448MOL0     H61759  -0.096   6.271   2.169  2.7261 -1.7927 -1.2269
  448MOL0     H61760  -0.086   6.104   2.201 -1.7869 -0.8685  0.8822
  448MOL0     H61761  -0.207   6.156   2.420 -2.8691 -0.9484 -1.3574
  448MOL0     H61762  -0.234   6.317   2.358 -0.3162 -0.0857 -1.0212
  448MOL0     H61763  -0.329   6.208   2.155  1.6400 -0.6313 -0.3121
  448MOL0     H61764  -0.330   6.048   2.250  0.8822  0.2655 -0.2792
  448MOL0     H61765  -0.494   6.294   2.316 -2.9692  0.0853  2.2813
  448MOL0     H61766  -0.466   6.154   2.427 -0.2763  1.2294  0.1955
  448MOL0     H61767  -0.590   6.012   2.277 -0.7607  1.1498  1.6936
  448MOL0     H61768  -0.683   6.166   2.281  0.6554  1.4086 -0.2653
  448MOL0     H61769  -0.512   6.063   2.051  0.4685  0.6981  1.6596
  448MOL0     H61770  -0.557   6.233   2.071 -0.0870  0.2091  1.4039
  448MOL0     H61771  -0.738   5.975   2.064 -0.4504 -0.5457 -0.0496
  448MOL0     H61772  -0.800   6.141   2.066 -0.1679 -1.4369  0.1361
  448MOL0     H61773  -0.880   6.189   1.822 -0.3892  0.0223 -0.4906
  448MOL0     H61774  -0.838   6.028   1.477 -0.8410 -1.6050  0.3163
  448MOL0     H61775  -0.868   6.191   1.534  0.4199 -1.5414 -3.6750
  448MOL0     H61776  -1.025   5.947   1.659  0.1966  1.7999  1.2539
  448MOL0     H61777  -1.068   6.111   1.652 -2.6763 -2.1605  0.7493
  448MOL0     H61778  -1.076   6.048   1.376  0.5498 -0.9986 -0.3014
  448MOL0     H61779  -1.076   5.890   1.446 -1.9798 -0.8922  2.9730
  448MOL0     H61780  -1.294   6.089   1.538  0.6468  0.8401 -0.8848
  448MOL0     H61781  -1.320   5.957   1.440  1.0287  2.9665 -1.5015
  448MOL0     H61782  -1.491   6.043   1.665  1.5974 -0.7260 -1.1888
  448MOL0     H61783  -1.717   6.052   1.923  1.2534  0.1356  1.8416
  448MOL0     H61784  -1.669   6.155   1.780  0.1802 -0.4809  0.1507
  448MOL0     H61785  -1.647   6.205   1.935  1.4959  1.3680 -1.8175
  448MOL0     H61786  -1.242   6.029   2.406 -0.4860 -0.1354 -0.9733
  448MOL0     H61787  -1.282   6.053   2.670 -1.9020 -0.5032 -0.1226
  448MOL0     H61788  -1.550   6.287   2.921 -0.3965  0.4859  0.1477
  448MOL0     H61789  -1.602   6.340   2.769 -2.0717 -0.9620  0.0272
  448MOL0     H61790  -1.657   6.052   2.773 -0.7280 -0.0988  0.4172
  448MOL0     H61791  -1.675   6.109   2.938 -0.1224  1.3847  0.2245
  448MOL0     H61792  -1.828   6.214   2.692 -2.8369  2.4176 -0.9087
  448MOL0     H61793  -1.821   6.297   2.850  0.3436 -1.0426  0.5371
  448MOL0     H61794  -1.916   6.071   2.944  0.5256  0.3932  0.3140
  448MOL0     H61795  -1.930   6.025   2.775  3.2474 -0.5216 -0.3890
  448MOL0     H61796  -2.059   6.296   2.885  0.0272  0.3421 -0.1622
  448MOL0     H61797  -2.086   6.216   2.729  1.3930 -1.2942 -0.6967
  448MOL0     H61798  -2.208   6.035   2.855 -0.2974  0.1082  1.7568
  448MOL0     H61799  -2.278   6.193   2.830 -0.4175 -1.1876 -0.8988
  448MOL0     H61800  -2.203   6.251   3.068 -2.3937 -0.3845  1.9203
  448MOL0     H61801  -2.161   6.082   3.090  0.3384 -0.3424 -0.9107
  448MOL0     H61802  -2.359   6.077   3.165  0.8499  3.1805  0.1752
  448MOL0     H61803  -2.382   6.016   3.002  0.3600 -0.2698 -0.4061
  448MOL0     H61804  -1.614   6.300   2.549  0.0336 -1.0121  0.0529
  448MOL0     H61805  -1.558   6.279   2.313  3.0237  2.7331 -0.4488
  448MOL0     H61806  -1.241   5.948   2.082 -0.4674  2.9374  1.8034
  448MOL0     H61807  -1.158   5.858   1.871  0.1870 -1.9289  2.0775
  448MOL0     H61808   0.263   6.008   2.460 -0.8916  0.4993 -0.8617
  448MOL0     H61809   0.417   6.033   2.654 -0.9533 -1.5954  1.4017
  448MOL0     H61810   0.590   6.358   2.832  0.3142  1.6597  2.5180
  448MOL0     H61811   0.821   6.388   2.842 -1.4763  0.0053 -1.1881
  448MOL0     H61812   1.088   6.165   3.100  1.0079  2.5972  0.1417
  448MOL0     H61813   1.087   6.083   2.939 -0.8055  0.7095 -1.0399
  448MOL0     H61814   1.305   6.153   3.016 -0.6883 -0.6105 -0.5618
  448MOL0     H61815   1.261   6.329   2.999 -0.9590  0.1886 -0.2587
  448MOL0     H61816   1.273   6.139   2.756 -0.7261 -0.2854  0.4065
  448MOL0     H61817   1.188   6.298   2.757 -0.3259  1.5725  1.5107
  448MOL0     H61818   1.415   6.305   2.660 -1.1775  0.1757 -0.3506
  448MOL0     H61819   1.473   6.247   2.809 -0.0002  1.5005  1.3911
  448MOL0     H61820   1.408   6.646   2.899  1.4161  1.8275 -0.7478
  448MOL0     H61821   0.880   6.044   3.072  0.1836 -1.0832 -0.4839
  448MOL0     H61822   0.563   5.964   3.154 -0.0279 -0.8078 -1.0525
  448MOL0     H61823   0.594   5.885   3.002  1.1302 -0.6670 -1.0315
  448MOL0     H61824   0.722   5.895   3.135 -0.4466 -0.2362 -0.7162
  449MOL0     O61825   7.522   0.384   6.207  0.5830  0.0545  0.4458
  449MOL0     C61826   7.415   0.343   6.231 -0.3856  0.3046 -0.5090
  449MOL0     O61827   7.366   0.229   6.171  0.1186  0.0968  0.4679
  449MOL0     C61828   7.440   0.160   6.073  0.8018  0.6322  0.2323
  449MOL0     C61829   7.409   0.022   6.062 -0.4993 -0.1880 -0.3604
  449MOL0     C61830   7.463  -0.057   5.965 -0.2706  0.6497 -1.1855
  449MOL0     C61831   7.561  -0.004   5.868 -0.6025  0.9634 -0.0561
  449MOL0     O61832   7.624  -0.075   5.766 -0.1749 -0.2382  0.5504
  449MOL0     C61833   7.578  -0.212   5.742  0.2847  0.2851  0.4874
  449MOL0     C61834   7.667  -0.282   5.634 -0.2967 -0.2158  0.6642
  449MOL0     C61835   7.697  -0.195   5.512 -0.1488  0.0206 -0.4931
  449MOL0     C61836   7.785  -0.270   5.412  1.2562  0.1163 -0.5155
  449MOL0     C61837   7.691  -0.343   5.307  0.5759 -0.0482  0.5479
  449MOL0     C61838   7.781  -0.440   5.229 -0.3766 -0.0548  0.2602
  449MOL0     C61839   7.711  -0.524   5.114 -0.6385  1.1160 -1.0844
  449MOL0     C61840   7.695  -0.442   4.996  0.5398 -0.2011 -0.4135
  449MOL0     N61841   7.814  -0.403   4.930 -0.0231  0.0214  0.5478
  449MOL0     C61842   7.938  -0.466   4.925 -0.3115 -0.5103  0.2404
  449MOL0     C61843   8.029  -0.379   4.869 -0.0561  0.2409 -0.3189
  449MOL0     C61844   8.177  -0.405   4.842 -0.1949  0.0122  0.4711
  449MOL0     C61845   8.266  -0.448   4.956  0.6615 -0.0898  0.1935
  449MOL0     C61846   8.279  -0.359   5.070  0.6137  0.0498 -0.5345
  449MOL0     C61847   8.350  -0.226   5.036  1.2183  0.5852  0.0950
  449MOL0     O61848   8.398  -0.165   5.151  0.1000  0.4137 -0.0211
  449MOL0     C61849   8.320  -0.087   5.229 -0.8246  0.3396  1.0695
  449MOL0     C61850   8.386  -0.006   5.319 -0.0756 -0.1432 -0.9483
  449MOL0     C61851   8.314   0.079   5.402 -0.3849  0.7469  0.0951
  449MOL0     C61852   8.391   0.155   5.504 -0.0033 -0.7577 -0.1117
  449MOL0     C61853   8.173   0.089   5.381  0.6451  0.5631 -0.4008
  449MOL0     C61854   8.094   0.192   5.450 -0.6273  0.5722  0.4353
  449MOL0     O61855   7.968   0.157   5.502  1.1529 -0.2358  0.4889
  449MOL0     C61856   7.897   0.249   5.580  0.2544  0.0154 -0.1853
  449MOL0     C61857   7.770   0.271   5.532 -0.1295 -0.1920  0.6828
  449MOL0     C61858   7.695   0.371   5.599  0.0193  0.1673  0.3900
  449MOL0     C61859   7.740   0.434   5.718 -0.8603  0.9380  0.8409
  449MOL0     O61860   7.667   0.513   5.802 -0.3392  0.4760 -0.0528
  449MOL0     C61861   7.550   0.576   5.743  0.1875 -0.2496 -1.4534
  449MOL0     C61862   7.512   0.695   5.822 -0.6605  0.4879 -0.3004
  449MOL0     C61863   7.499   0.681   5.975  0.0663  0.5288  0.2719
  449MOL0     C61864   7.445   0.820   6.024  0.2409 -0.7394 -0.7148
  449MOL0     C61865   7.415   0.819   6.175  0.9099  0.1538  0.4354
  449MOL0     C61866   7.380   0.959   6.222  0.0721  0.5047 -0.1127
  449MOL0     C61867   7.291   0.991   6.350 -0.5829  0.2447  0.1432
  449MOL0     C61868   7.374   0.998   6.479 -0.0306 -0.0712  0.7968
  449MOL0    Cl61869   7.266   0.995   6.625  0.2841 -0.3834  0.1693
  449MOL0     C61870   7.873   0.412   5.754 -0.0549  0.4244  0.0651
  449MOL0     C61871   7.946   0.313   5.687 -0.4552 -0.3686  0.7267
  449MOL0     O61872   8.139   0.298   5.447 -0.1864 -0.7330  0.0508
  449MOL0     C61873   8.106   0.011   5.282 -0.3459  0.5067  0.4684
  449MOL0     C61874   8.175  -0.087   5.216  0.2403  0.6343 -0.1518
  449MOL0     N61875   7.961  -0.260   4.859 -0.3264  0.0131 -0.6264
  449MOL0     N61876   7.834  -0.275   4.893  0.3650 -0.4719  0.5936
  449MOL0     C61877   7.587   0.132   5.887 -0.8171 -0.1024 -0.1476
  449MOL0     C61878   7.527   0.215   5.987  0.7018 -0.4952  0.0610
  449MOL0     C61879   7.316   0.431   6.302  0.6602 -1.0792 -0.6597
  449MOL0     C61880   7.187   0.438   6.252 -0.1695  0.0156 -0.0489
  449MOL0     C61881   7.087   0.524   6.301  0.7252  1.4912 -0.0248
  449MOL0     C61882   7.117   0.619   6.402  0.2147  0.1711 -0.3988
  449MOL0     O61883   7.034   0.715   6.450  0.6852 -0.0091 -0.1975
  449MOL0     C61884   6.978   0.707   6.585 -0.2421 -0.3181  0.0801
  449MOL0     C61885   6.911   0.839   6.604  0.0125 -0.7813 -0.1463
  449MOL0     C61886   6.806   0.864   6.499  0.0607 -1.0001  0.2754
  449MOL0     C61887   6.717   0.980   6.538 -0.4059 -0.5218  0.4932
  449MOL0     C61888   6.606   0.921   6.619  0.3692 -0.3914 -0.2164
  449MOL0     C61889   6.511   0.859   6.661 -0.8529 -0.0701  0.3943
  449MOL0     C61890   7.248   0.618   6.451  0.3116  0.2000 -0.1736
  449MOL0     C61891   7.348   0.518   6.409 -0.5505 -0.4278 -0.2555
  449MOL0     C61892   7.490   0.524   6.455  0.7550 -0.7083  0.7563
  449MOL0     H61893   7.324  -0.018   6.117 -1.0356  0.1178 -0.9512
  449MOL0     H61894   7.427  -0.160   5.961  5.9284 -2.2748  2.6321
  449MOL0     H61895   7.475  -0.197   5.710  1.6741  3.3526 -3.2476
  449MOL0     H61896   7.567  -0.271   5.834  1.7500 -1.3214 -0.3053
  449MOL0     H61897   7.767  -0.312   5.667  0.3757 -0.7509 -1.6548
  449MOL0     H61898   7.613  -0.363   5.584  1.4672  0.5556 -2.8597
  449MOL0     H61899   7.607  -0.147   5.472 -0.3748  2.0608  2.2260
  449MOL0     H61900   7.759  -0.115   5.552 -0.0482  0.0785 -0.7587
  449MOL0     H61901   7.838  -0.188   5.362  1.9021  0.0733  0.0793
  449MOL0     H61902   7.856  -0.338   5.460  1.4526 -0.7094 -1.9298
  449MOL0     H61903   7.650  -0.272   5.234 -0.5556 -0.5409  0.6835
  449MOL0     H61904   7.611  -0.402   5.352  0.9697 -1.1565 -0.1656
  449MOL0     H61905   7.860  -0.374   5.194 -2.0644  1.4925 -0.7905
  449MOL0     H61906   7.833  -0.504   5.301 -1.2499 -1.2827 -0.1630
  449MOL0     H61907   7.618  -0.570   5.149  1.1432  0.0161  2.5819
  449MOL0     H61908   7.767  -0.615   5.091  1.7587  2.2885 -0.2644
  449MOL0     H61909   7.645  -0.512   4.928 -1.5882  0.8000  0.0316
  449MOL0     H61910   7.627  -0.358   5.012  0.1548 -0.9791  2.6287
  449MOL0     H61911   7.957  -0.569   4.956 -1.4463  0.4828  5.1391
  449MOL0     H61912   8.212  -0.317   4.787 -0.4027 -0.1694  0.0405
  449MOL0     H61913   8.175  -0.482   4.764  0.5458 -1.2782  1.6772
  449MOL0     H61914   8.226  -0.542   4.996 -1.8532 -0.1004 -2.0446
  449MOL0     H61915   8.371  -0.466   4.931  0.7064 -2.8614  1.8505
  449MOL0     H61916   8.180  -0.344   5.116 -0.7600 -2.7027 -2.3239
  449MOL0     H61917   8.337  -0.415   5.144  1.1063  0.6934 -0.4302
  449MOL0     H61918   8.437  -0.259   4.978 -0.1920 -1.9321 -0.7499
  449MOL0     H61919   8.289  -0.155   4.981  0.4567  1.1656  1.6450
  449MOL0     H61920   8.493  -0.007   5.338  0.5233  1.0686 -3.7930
  449MOL0     H61921   8.330   0.169   5.594  1.8504  0.4063  1.0353
  449MOL0     H61922   8.422   0.253   5.466 -0.7916 -0.7926 -0.8874
  449MOL0     H61923   8.485   0.108   5.533  2.0686  2.0538 -1.8717
  449MOL0     H61924   7.739   0.214   5.445 -0.0329 -2.9545  2.3496
  449MOL0     H61925   7.591   0.384   5.568  0.0171 -0.0484  0.3036
  449MOL0     H61926   7.551   0.607   5.639 -4.8049  1.4144 -1.2704
  449MOL0     H61927   7.468   0.504   5.749  2.0684 -2.4425  1.3641
  449MOL0     H61928   7.576   0.780   5.798 -2.9235  2.2550 -0.4111
  449MOL0     H61929   7.418   0.727   5.775  0.9824  1.9506 -2.8102
  449MOL0     H61930   7.593   0.654   6.024 -0.0629 -2.1240 -0.7629
  449MOL0     H61931   7.420   0.608   5.995  0.3806  0.0163 -0.3195
  449MOL0     H61932   7.357   0.840   5.963  0.1429 -0.6986 -0.5593
  449MOL0     H61933   7.522   0.895   6.004 -1.3672  0.6469 -1.9646
  449MOL0     H61934   7.325   0.759   6.193  1.8729 -1.0966  1.2517
  449MOL0     H61935   7.502   0.775   6.224 -0.0661 -1.8772  0.4281
  449MOL0     H61936   7.324   1.001   6.138 -1.4622 -1.5842 -0.2421
  449MOL0     H61937   7.470   1.017   6.241  0.3293  1.0183 -2.6058
  449MOL0     H61938   7.208   0.921   6.352 -0.6754  0.3061 -0.9270
  449MOL0     H61939   7.252   1.094   6.352 -1.1140  0.1128  4.1394
  449MOL0     H61940   7.431   1.092   6.480 -0.7700  0.3964  0.0046
  449MOL0     H61941   7.440   0.912   6.491  0.0484  0.0949  1.6240
  449MOL0     H61942   7.911   0.460   5.844 -1.1480 -2.8792  2.4791
  449MOL0     H61943   8.046   0.284   5.721 -0.5241  0.1922  1.4443
  449MOL0     H61944   8.001   0.037   5.271 -1.0179 -1.9161  0.6609
  449MOL0     H61945   8.126  -0.147   5.141  1.0427  0.0334 -0.2017
  449MOL0     H61946   7.660   0.179   5.821 -1.3719  2.5124  0.9739
  449MOL0     H61947   7.558   0.319   5.987  1.7041 -0.7292  2.1930
  449MOL0     H61948   7.166   0.364   6.175 -0.0593 -0.8805  0.7670
  449MOL0     H61949   6.981   0.525   6.279  0.3679  1.0951  1.5364
  449MOL0     H61950   6.913   0.620   6.594 -1.0066 -0.3944 -4.1820
  449MOL0     H61951   7.061   0.705   6.656 -2.1445  2.8172  2.7137
  449MOL0     H61952   6.985   0.916   6.583  1.5934 -1.4256  2.6369
  449MOL0     H61953   6.888   0.864   6.708  0.4498 -0.6172 -0.0867
  449MOL0     H61954   6.860   0.895   6.408 -2.5505  0.2102 -0.9743
  449MOL0     H61955   6.745   0.779   6.468 -3.8146  1.4966  0.3174
  449MOL0     H61956   6.686   1.019   6.440  2.9724  1.3282  0.0120
  449MOL0     H61957   6.773   1.060   6.588 -0.0692 -0.1472 -0.4555
  449MOL0     H61958   6.421   0.817   6.703 -0.2410 -2.4046 -0.4607
  449MOL0     H61959   7.260   0.692   6.529 -1.3523 -0.7062  0.9848
  449MOL0     H61960   7.550   0.591   6.393 -0.6466 -1.1095 -1.1026
  449MOL0     H61961   7.498   0.566   6.556 -0.5910  0.1693  0.5198
  449MOL0     H61962   7.541   0.427   6.455  0.8057 -0.7307  2.9340
  450MOL0     O61963   2.626   3.185   0.406 -0.1330  0.1279 -0.0417
  450MOL0     C61964   2.567   3.203   0.302  0.0616  0.3161  0.0233
  450MOL0     O61965   2.532   3.103   0.203  0.7682  0.5546 -0.2848
  450MOL0     C61966   2.608   2.995   0.181  0.3077  0.4590 -0.7232
  450MOL0     C61967   2.731   2.964   0.254  0.5436 -0.3840  0.5250
  450MOL0     C61968   2.793   2.843   0.230  1.0233 -0.8240  0.2920
  450MOL0     C61969   2.749   2.755   0.131 -0.2059  0.4852 -0.3805
  450MOL0     O61970   2.826   2.642   0.122 -0.6651  0.1581 -0.5681
  450MOL0     C61971   2.771   2.525   0.051  0.2387  0.0759  0.4774
  450MOL0     C61972   2.640   2.469   0.097  0.5054  0.6172 -1.1468
  450MOL0     C61973   2.616   2.469   0.245  0.3586  0.0937 -0.5650
  450MOL0     C61974   2.681   2.349   0.312  0.1813 -0.5384  0.2683
  450MOL0     C61975   2.675   2.364   0.467 -0.4411 -0.3549  0.3086
  450MOL0     C61976   2.567   2.292   0.537  0.1369 -0.4215  0.6568
  450MOL0     C61977   2.567   2.326   0.683  0.0094  0.0148  0.2735
  450MOL0     C61978   2.494   2.453   0.695 -0.0128 -0.4536 -0.3755
  450MOL0     N61979   2.497   2.496   0.830  0.2916 -0.0774  0.1390
  450MOL0     C61980   2.610   2.543   0.893 -0.6783  0.6123  0.3204
  450MOL0     C61981   2.559   2.554   1.017  0.0784  0.6550  0.1995
  450MOL0     C61982   2.642   2.604   1.123 -0.0524  0.6996  0.3282
  450MOL0     C61983   2.592   2.725   1.188  0.0032  0.0264  0.2379
  450MOL0     C61984   2.681   2.757   1.301 -0.0601  0.3254 -0.3590
  450MOL0     C61985   2.653   2.893   1.343 -0.6735  0.1352  0.3916
  450MOL0     O61986   2.733   2.932   1.460 -0.3896  0.0077 -0.5842
  450MOL0     C61987   2.866   2.967   1.456  0.8279 -0.1172 -0.1754
  450MOL0     C61988   2.939   2.984   1.337  0.1951 -0.0186 -0.2880
  450MOL0     C61989   3.073   3.022   1.338 -0.5952 -0.0873 -0.0372
  450MOL0     C61990   3.137   3.049   1.206  0.2762  0.2063 -0.0581
  450MOL0     C61991   3.139   3.046   1.458 -0.7596  0.2437  1.1751
  450MOL0     C61992   3.279   3.108   1.474 -0.1565  0.7488  0.1318
  450MOL0     O61993   3.328   3.086   1.597  0.6093 -0.9216 -0.5110
  450MOL0     C61994   3.456   3.121   1.621  0.6381  0.0244  0.0699
  450MOL0     C61995   3.555   3.027   1.595  0.1870  0.5094 -0.0162
  450MOL0     C61996   3.684   3.057   1.632 -0.1780 -0.3612 -0.1120
  450MOL0     C61997   3.717   3.179   1.695 -0.4862 -0.1441 -0.1301
  450MOL0     O61998   3.851   3.197   1.717 -0.2832  0.2303 -0.2356
  450MOL0     C61999   3.891   3.322   1.779  0.3338  0.4571  0.0925
  450MOL0     C62000   4.034   3.335   1.798  0.2810  0.1868 -1.0658
  450MOL0     C62001   4.107   3.414   1.696  0.1017  0.1659 -0.6114
  450MOL0     C62002   4.259   3.407   1.709  0.1949  0.2240  0.8606
  450MOL0     C62003   4.325   3.513   1.615  0.3082  0.3833 -0.5688
  450MOL0     C62004   4.471   3.495   1.588 -1.3654  0.7208  1.1103
  450MOL0     C62005   4.536   3.613   1.510  0.8258  1.0214 -0.1795
  450MOL0     C62006   4.685   3.608   1.495  0.3899 -0.4616 -0.3199
  450MOL0    Cl62007   4.752   3.756   1.405 -0.0390 -0.3591  0.2185
  450MOL0     C62008   3.619   3.279   1.702 -0.0266 -0.8285  0.1535
  450MOL0     C62009   3.485   3.255   1.675 -0.1136  0.2659 -0.4425
  450MOL0     O62010   3.345   3.144   1.377  0.6901  0.2079  0.3121
  450MOL0     C62011   3.068   3.020   1.577  0.8672  0.7994 -0.0463
  450MOL0     C62012   2.930   2.985   1.578  0.1354  0.4565  0.7514
  450MOL0     N62013   2.431   2.506   1.023 -0.2723 -0.0349 -0.0011
  450MOL0     N62014   2.388   2.480   0.904 -0.0186  0.2849 -0.1139
  450MOL0     C62015   2.638   2.792   0.058 -0.2762  0.7563  1.2148
  450MOL0     C62016   2.567   2.904   0.084 -0.1894 -0.9153  0.7062
  450MOL0     C62017   2.517   3.342   0.283  0.0506  0.2395 -0.5278
  450MOL0     C62018   2.383   3.363   0.231 -0.4138 -0.3215  0.1983
  450MOL0     C62019   2.332   3.486   0.196  0.7458  0.0212  0.2472
  450MOL0     C62020   2.411   3.603   0.213  0.9699  0.2130 -0.3808
  450MOL0     O62021   2.358   3.729   0.182 -0.5809  0.4292 -0.7603
  450MOL0     C62022   2.217   3.750   0.154  0.2045 -0.1893 -0.0032
  450MOL0     C62023   2.171   3.892   0.189 -0.4207  0.6847  0.7213
  450MOL0     C62024   2.177   3.903   0.341  0.7954  0.3008  0.8889
  450MOL0     C62025   2.063   3.819   0.411 -0.7025 -0.2849 -0.1773
  450MOL0     C62026   1.931   3.873   0.386  0.4569 -0.8406  0.3716
  450MOL0     C62027   1.824   3.915   0.351  0.2164 -0.4263  0.6221
  450MOL0     C62028   2.538   3.586   0.270 -1.0776  0.1364 -0.0151
  450MOL0     C62029   2.599   3.461   0.304 -0.4577  0.7756  0.1561
  450MOL0     C62030   2.741   3.468   0.344 -0.6057  0.2326 -0.1136
  450MOL0     H62031   2.783   3.030   0.321  1.7334 -0.4969 -0.2579
  450MOL0     H62032   2.883   2.827   0.289  3.7216  1.3663 -2.8305
  450MOL0     H62033   2.842   2.442   0.050  0.9885  0.6822  1.2729
  450MOL0     H62034   2.764   2.553  -0.054 -0.0061 -0.9111  0.2236
  450MOL0     H62035   2.556   2.527   0.056  1.2777  0.6689 -2.7201
  450MOL0     H62036   2.631   2.375   0.043 -0.7087 -0.6816  1.1559
  450MOL0     H62037   2.649   2.563   0.290  0.8012 -0.0944 -0.4875
  450MOL0     H62038   2.507   2.469   0.252  0.2123  1.4294 -2.1246
  450MOL0     H62039   2.626   2.262   0.277  1.3604 -0.4920 -1.8996
  450MOL0     H62040   2.785   2.342   0.280  0.0210  2.4858 -1.2725
  450MOL0     H62041   2.687   2.469   0.497  0.7409 -0.5369  0.5448
  450MOL0     H62042   2.772   2.329   0.503  1.4561  2.5854 -1.4403
  450MOL0     H62043   2.471   2.316   0.491  0.6072 -0.8490 -0.5737
  450MOL0     H62044   2.586   2.185   0.523  2.3478  0.1339 -1.0482
  450MOL0     H62045   2.668   2.337   0.722 -0.4108  0.9765  1.1327
  450MOL0     H62046   2.513   2.249   0.738  0.6090  0.6538  1.8034
  450MOL0     H62047   2.537   2.529   0.630  0.2186  0.6375  1.0168
  450MOL0     H62048   2.390   2.446   0.663 -0.1415 -0.5386  0.0565
  450MOL0     H62049   2.707   2.562   0.848 -1.8005  0.4953 -2.3800
  450MOL0     H62050   2.741   2.619   1.078 -0.5443 -0.9345 -1.4050
  450MOL0     H62051   2.649   2.515   1.186  2.4600 -0.4865 -1.4620
  450MOL0     H62052   2.573   2.812   1.124  0.3047  1.0889  1.5513
  450MOL0     H62053   2.495   2.701   1.233  0.5196 -1.7601  0.4682
  450MOL0     H62054   2.668   2.683   1.381  2.0991  1.0464  0.7416
  450MOL0     H62055   2.784   2.750   1.265  0.2511  1.9311  0.1643
  450MOL0     H62056   2.670   2.961   1.259 -2.7375  2.2327  1.5490
  450MOL0     H62057   2.550   2.917   1.371 -0.2587  1.4879  0.8042
  450MOL0     H62058   2.890   2.958   1.243 -1.0972  1.6563 -0.1237
  450MOL0     H62059   3.228   2.993   1.181  0.1487  0.5928 -1.4254
  450MOL0     H62060   3.153   3.156   1.193  2.4313  0.0824  1.0378
  450MOL0     H62061   3.067   3.025   1.126  0.6262 -0.5311 -0.1556
  450MOL0     H62062   3.548   2.922   1.567  0.9704  0.8801 -1.6817
  450MOL0     H62063   3.768   2.988   1.632 -1.8915 -2.5849 -1.0491
  450MOL0     H62064   3.865   3.413   1.724 -0.9765  1.5726  2.4294
  450MOL0     H62065   3.850   3.323   1.880 -2.0185 -2.6251 -0.6910
  450MOL0     H62066   4.039   3.398   1.887  2.6643 -0.3497 -0.7663
  450MOL0     H62067   4.086   3.240   1.815 -0.1437  0.3647  1.7435
  450MOL0     H62068   4.083   3.519   1.708  1.9668  0.7172 -1.3218
  450MOL0     H62069   4.068   3.377   1.600 -0.9692 -0.8385  0.1912
  450MOL0     H62070   4.294   3.305   1.689  2.2945  0.6202  2.2224
  450MOL0     H62071   4.291   3.428   1.812  2.6778  2.3558 -0.2400
  450MOL0     H62072   4.262   3.524   1.526  1.8811 -1.0613 -1.9216
  450MOL0     H62073   4.311   3.601   1.679 -1.7842  0.7054 -1.3939
  450MOL0     H62074   4.492   3.412   1.520  1.7327 -0.9938  3.8563
  450MOL0     H62075   4.541   3.487   1.673  2.9499 -1.1772 -2.2228
  450MOL0     H62076   4.510   3.699   1.572 -0.2211 -0.2036  1.1562
  450MOL0     H62077   4.486   3.630   1.414  1.4886  0.3812 -0.6465
  450MOL0     H62078   4.707   3.515   1.443 -0.4479 -0.9494  0.1881
  450MOL0     H62079   4.726   3.606   1.596  1.7884 -2.2822 -0.8620
  450MOL0     H62080   3.651   3.380   1.726 -2.3983 -0.3841  1.8165
  450MOL0     H62081   3.397   3.318   1.678 -2.0374 -2.2276 -0.9234
  450MOL0     H62082   3.109   3.037   1.676 -1.0490 -2.3140  1.4067
  450MOL0     H62083   2.881   2.976   1.674  1.1376 -0.1359  1.2221
  450MOL0     H62084   2.596   2.731  -0.022  0.2855 -0.0874  1.5511
  450MOL0     H62085   2.478   2.933   0.029  1.0399  1.4934 -0.1829
  450MOL0     H62086   2.326   3.274   0.209 -0.0107 -0.0265 -2.2318
  450MOL0     H62087   2.233   3.480   0.152  1.0476  2.0770 -0.8364
  450MOL0     H62088   2.202   3.750   0.046  1.6391 -1.0685 -0.2171
  450MOL0     H62089   2.158   3.673   0.205 -1.0291  1.2695  0.8485
  450MOL0     H62090   2.072   3.913   0.148 -0.8681 -0.5565  1.1111
  450MOL0     H62091   2.239   3.967   0.148 -0.3659  0.5410  0.5461
  450MOL0     H62092   2.273   3.872   0.384  0.1680 -1.6131  0.9804
  450MOL0     H62093   2.160   4.007   0.371 -0.1940  0.2019  0.7099
  450MOL0     H62094   2.072   3.824   0.520  0.5678  0.8360 -0.3213
  450MOL0     H62095   2.067   3.718   0.368  0.1594 -0.8822  1.2277
  450MOL0     H62096   1.734   3.964   0.321  1.3324  0.8182 -0.8644
  450MOL0     H62097   2.603   3.671   0.289 -1.9086  1.2247 -1.8086
  450MOL0     H62098   2.763   3.391   0.419  1.4258  1.1392  0.2831
  450MOL0     H62099   2.802   3.452   0.255 -1.1274  0.1185 -0.4562
  450MOL0     H62100   2.774   3.560   0.393  4.8712 -2.2383  1.6483
  451MOL0     O62101   4.960   1.667   0.680  0.6245 -0.6233 -1.0336
  451MOL0     C62102   4.985   1.710   0.796  0.4471  0.0964 -0.4137
  451MOL0     O62103   4.888   1.756   0.887  0.4738 -0.2754 -0.2503
  451MOL0     C62104   4.761   1.758   0.831 -0.0826  0.6690  0.4366
  451MOL0     C62105   4.706   1.855   0.751  0.3377  0.7460  0.3416
  451MOL0     C62106   4.579   1.858   0.708 -0.1131  0.1254  0.9832
  451MOL0     C62107   4.493   1.766   0.764  0.1939 -0.1469 -0.5663
  451MOL0     O62108   4.359   1.773   0.735 -0.0320  0.8528 -0.3063
  451MOL0     C62109   4.318   1.780   0.597 -0.4576  0.3598  0.4102
  451MOL0     C62110   4.188   1.701   0.567  0.0282  0.2931  1.0035
  451MOL0     C62111   4.077   1.776   0.650 -0.7266  0.1409  0.1487
  451MOL0     C62112   3.959   1.688   0.645  0.9955  0.3880 -0.5541
  451MOL0     C62113   3.847   1.750   0.724 -0.2329 -0.4234  0.7261
  451MOL0     C62114   3.726   1.659   0.719  1.1236 -0.3230 -0.4890
  451MOL0     C62115   3.596   1.715   0.640  0.0190  0.3476  0.1112
  451MOL0     C62116   3.541   1.842   0.695  0.2313 -0.1150 -0.2587
  451MOL0     N62117   3.421   1.894   0.619 -0.8114  0.0736  0.3224
  451MOL0     C62118   3.293   1.867   0.654 -0.1078  0.5008  1.1540
  451MOL0     C62119   3.220   1.918   0.560  0.5341 -0.1356  0.7268
  451MOL0     C62120   3.074   1.906   0.542 -0.2471 -0.8662 -0.1128
  451MOL0     C62121   3.004   2.023   0.608 -0.1640  0.9662 -0.0476
  451MOL0     C62122   2.857   2.024   0.555 -0.1132 -0.0779 -0.0038
  451MOL0     C62123   2.765   1.899   0.589 -0.9268 -0.5991 -0.1601
  451MOL0     O62124   2.627   1.915   0.543  0.4986 -0.4641 -0.0182
  451MOL0     C62125   2.538   1.808   0.569 -0.3052  0.3971 -0.7822
  451MOL0     C62126   2.440   1.795   0.479  0.4377 -1.0061 -0.2544
  451MOL0     C62127   2.342   1.690   0.491 -0.8477  0.1174 -0.6714
  451MOL0     C62128   2.262   1.661   0.366  0.3679  0.8993 -0.6212
  451MOL0     C62129   2.344   1.618   0.618 -0.6487  1.3638 -0.2242
  451MOL0     C62130   2.251   1.510   0.653 -0.1501  0.2000  0.9942
  451MOL0     O62131   2.291   1.428   0.754  0.1993 -0.0107  0.8214
  451MOL0     C62132   2.208   1.324   0.790  0.5083 -0.2600 -1.0539
  451MOL0     C62133   2.132   1.337   0.904 -0.0310  0.0093 -0.0893
  451MOL0     C62134   2.042   1.233   0.937 -0.1370 -0.8284 -0.3362
  451MOL0     C62135   2.018   1.119   0.855  0.9005 -0.9717  0.3732
  451MOL0     O62136   1.905   1.044   0.884 -0.7418  0.8063 -0.3131
  451MOL0     C62137   1.875   0.952   0.783  0.2366  0.0405  0.4556
  451MOL0     C62138   1.793   0.830   0.822  0.5293 -0.4792 -0.3736
  451MOL0     C62139   1.650   0.864   0.846 -0.1477 -0.6346 -0.2900
  451MOL0     C62140   1.559   0.746   0.874  0.3058 -0.0732  0.3754
  451MOL0     C62141   1.409   0.749   0.836 -0.7578  0.1759 -0.0221
  451MOL0     C62142   1.331   0.644   0.922 -0.2593 -0.7176  0.5285
  451MOL0     C62143   1.380   0.497   0.895  0.0804 -0.2768 -0.1176
  451MOL0     C62144   1.306   0.406   0.991  0.6883  0.0568  0.5665
  451MOL0    Cl62145   1.343   0.459   1.159  0.1536 -0.0500  0.2193
  451MOL0     C62146   2.105   1.115   0.734  0.5891  0.2611 -0.0382
  451MOL0     C62147   2.195   1.213   0.708 -0.9826 -0.4020  0.5499
  451MOL0     O62148   2.147   1.502   0.592 -0.4487  0.1250 -0.4130
  451MOL0     C62149   2.441   1.643   0.711  0.1784 -0.0313 -0.3126
  451MOL0     C62150   2.542   1.735   0.691  0.1399  0.3915  0.7473
  451MOL0     N62151   3.305   1.979   0.467 -0.2930 -0.4850 -0.2706
  451MOL0     N62152   3.425   1.967   0.509  0.3109  0.1194  0.3899
  451MOL0     C62153   4.540   1.672   0.851  0.4763 -0.6822 -0.1241
  451MOL0     C62154   4.674   1.662   0.877 -0.5082 -0.1019 -0.4760
  451MOL0     C62155   5.119   1.693   0.856 -0.1223  0.1319  0.9918
  451MOL0     C62156   5.131   1.671   0.996 -0.0625  1.0642 -0.0029
  451MOL0     C62157   5.255   1.650   1.058 -0.7725  0.2944 -0.2043
  451MOL0     C62158   5.367   1.658   0.974 -0.2213 -0.6543 -0.2422
  451MOL0     O62159   5.495   1.640   1.024  0.3647 -0.1277  0.6754
  451MOL0     C62160   5.531   1.629   1.163  0.3205 -0.1976 -0.1257
  451MOL0     C62161   5.528   1.480   1.210  0.3001 -0.0553 -1.0608
  451MOL0     C62162   5.615   1.386   1.121 -1.0650  0.5692  0.3233
  451MOL0     C62163   5.583   1.238   1.162 -0.1391  0.5218  0.9988
  451MOL0     C62164   5.666   1.145   1.083  0.5436 -0.9871  0.4730
  451MOL0     C62165   5.740   1.070   1.025 -0.1349  0.4315 -0.9904
  451MOL0     C62166   5.354   1.681   0.839 -0.2438 -0.3365  0.7938
  451MOL0     C62167   5.229   1.696   0.776  0.3175  0.0619 -0.8621
  451MOL0     C62168   5.231   1.720   0.629 -0.2234  0.4099  0.0042
  451MOL0     H62169   4.772   1.937   0.726  0.2066  1.3259  1.7902
  451MOL0     H62170   4.547   1.930   0.633 -2.9662 -1.0491  0.9138
  451MOL0     H62171   4.397   1.748   0.528 -1.5476  1.0142 -1.1731
  451MOL0     H62172   4.316   1.887   0.577 -1.1081  0.1143 -0.9012
  451MOL0     H62173   4.170   1.705   0.459  0.4212 -2.1469  0.7913
  451MOL0     H62174   4.189   1.600   0.609 -0.0838 -0.0282  0.2492
  451MOL0     H62175   4.110   1.799   0.752 -0.2573  1.1759 -0.2239
  451MOL0     H62176   4.070   1.873   0.600  0.8162 -0.4391 -1.3164
  451MOL0     H62177   3.925   1.676   0.542  0.7174 -1.9626 -0.2395
  451MOL0     H62178   3.982   1.587   0.681  0.5145  1.5220  3.4450
  451MOL0     H62179   3.822   1.855   0.705  0.7453  0.0468  1.9327
  451MOL0     H62180   3.889   1.761   0.825  1.5682  1.1655 -0.1395
  451MOL0     H62181   3.736   1.556   0.682  0.7005 -0.9490  1.0401
  451MOL0     H62182   3.698   1.644   0.824  2.6311 -1.0346 -0.1570
  451MOL0     H62183   3.525   1.632   0.644  1.0638 -0.5167  1.7082
  451MOL0     H62184   3.610   1.730   0.532 -2.6732  0.8918 -0.2148
  451MOL0     H62185   3.515   1.829   0.800 -2.4887  2.3812 -0.4740
  451MOL0     H62186   3.609   1.928   0.690 -0.0280  0.0403 -1.5230
  451MOL0     H62187   3.263   1.790   0.725  0.1884  1.1689  2.0269
  451MOL0     H62188   3.031   1.811   0.573  1.2486 -1.2616  0.9059
  451MOL0     H62189   3.060   1.907   0.434  1.4448  2.5748 -0.4323
  451MOL0     H62190   3.004   2.012   0.717  0.9520  1.0877 -0.0245
  451MOL0     H62191   3.052   2.117   0.580  0.2745  0.4018 -1.2467
  451MOL0     H62192   2.805   2.113   0.591 -1.7191 -0.6989 -0.7081
  451MOL0     H62193   2.874   2.029   0.447 -2.7023  1.8675 -0.4276
  451MOL0     H62194   2.803   1.802   0.555 -1.1601 -0.0833 -1.9973
  451MOL0     H62195   2.763   1.908   0.698  2.0525  2.0136 -0.1666
  451MOL0     H62196   2.448   1.865   0.396 -0.5764  0.8265  1.1046
  451MOL0     H62197   2.244   1.553   0.364  0.1994  0.9384 -1.1545
  451MOL0     H62198   2.323   1.689   0.280  0.3981  1.4244 -0.4356
  451MOL0     H62199   2.163   1.708   0.358 -0.2342 -0.3511 -0.7109
  451MOL0     H62200   2.140   1.427   0.964  3.5301 -0.9554  1.1030
  451MOL0     H62201   1.978   1.236   1.025 -1.7286 -1.9710 -1.4014
  451MOL0     H62202   1.822   1.007   0.705 -0.0651  1.6657  1.7578
  451MOL0     H62203   1.961   0.902   0.739 -1.8481 -2.1927 -1.4308
  451MOL0     H62204   1.801   0.765   0.735  0.6982 -0.3346 -0.4681
  451MOL0     H62205   1.830   0.787   0.916 -1.3005  0.7244  0.9706
  451MOL0     H62206   1.609   0.904   0.753 -0.8714  0.6987  0.5723
  451MOL0     H62207   1.634   0.946   0.917 -1.5687 -0.6228 -0.5906
  451MOL0     H62208   1.559   0.731   0.982  4.3672 -0.0742  0.5543
  451MOL0     H62209   1.606   0.664   0.819  0.1962  1.1190 -1.6007
  451MOL0     H62210   1.371   0.850   0.850  0.8947  1.3811 -3.1089
  451MOL0     H62211   1.395   0.732   0.728  1.4502  1.1634 -0.5122
  451MOL0     H62212   1.225   0.646   0.896  0.3475 -2.6832 -2.6385
  451MOL0     H62213   1.354   0.680   1.023  0.6020 -0.3642  0.2214
  451MOL0     H62214   1.487   0.486   0.914 -0.2363 -0.7490  1.5524
  451MOL0     H62215   1.356   0.465   0.793 -0.3404  0.4340 -0.2482
  451MOL0     H62216   1.338   0.302   0.991  0.5224 -0.1340  4.3937
  451MOL0     H62217   1.200   0.404   0.962  0.7924 -0.9227  0.2418
  451MOL0     H62218   2.084   1.035   0.665 -2.6172 -2.0301  3.2145
  451MOL0     H62219   2.264   1.213   0.624 -1.2053 -0.8521  0.3678
  451MOL0     H62220   2.442   1.590   0.806 -4.6172  1.9553  1.1650
  451MOL0     H62221   2.604   1.746   0.779 -1.3637 -4.0949  2.6633
  451MOL0     H62222   4.470   1.600   0.893 -1.3185  2.6870  3.2179
  451MOL0     H62223   4.715   1.585   0.941 -2.5475  0.7576  2.0338
  451MOL0     H62224   5.040   1.657   1.054  0.1498 -0.0549  0.0809
  451MOL0     H62225   5.261   1.614   1.160  3.7364  1.1861  0.0301
  451MOL0     H62226   5.628   1.669   1.195  0.5522 -0.2971 -0.6852
  451MOL0     H62227   5.459   1.692   1.216  1.3264  1.0717 -0.2130
  451MOL0     H62228   5.423   1.449   1.216  0.1737  0.6254  1.2943
  451MOL0     H62229   5.556   1.467   1.315 -0.5017 -0.5080 -0.8917
  451MOL0     H62230   5.590   1.409   1.017  0.2946  1.4778  0.1607
  451MOL0     H62231   5.722   1.408   1.132 -1.0656  0.5681  0.3313
  451MOL0     H62232   5.479   1.218   1.137  0.6436  0.6514 -3.1636
  451MOL0     H62233   5.612   1.227   1.267  2.3251 -2.3888  0.1607
  451MOL0     H62234   5.802   0.992   0.987  1.6593  1.8719 -1.1300
  451MOL0     H62235   5.449   1.672   0.788  0.5885 -1.5123  2.4519
  451MOL0     H62236   5.204   1.624   0.585 -0.9846 -0.7004  2.6926
  451MOL0     H62237   5.162   1.790   0.582 -1.2194 -0.1691  0.5761
  451MOL0     H62238   5.338   1.739   0.612  0.6400 -2.7174  1.2548
  452MOL0     O62239   2.223   2.066  10.587  0.6141 -0.5109 -0.6766
  452MOL0     C62240   2.139   1.979  10.588  0.5479 -0.1723  0.5068
  452MOL0     O62241   2.163   1.850  10.573 -0.6038 -0.7298  0.3954
  452MOL0     C62242   2.293   1.823  10.560 -0.1141  0.2794 -0.0247
  452MOL0     C62243   2.361   1.821  10.440 -0.8243 -0.3391  0.2598
  452MOL0     C62244   2.492   1.777  10.437 -0.6562 -0.0906 -0.8180
  452MOL0     C62245   2.559   1.749  10.559  1.0261  0.0707  0.0322
  452MOL0     O62246   2.689   1.715  10.539 -0.2318  0.6957 -0.4820
  452MOL0     C62247   2.757   1.683  10.652 -0.2384  0.1580  0.4288
  452MOL0     C62248   2.893   1.628  10.611 -0.6619  0.1021 -0.1683
  452MOL0     C62249   2.968   1.577  10.732  0.0154 -0.6151 -1.5775
  452MOL0     C62250   3.036   1.444  10.703 -0.2109  0.8057  0.8736
  452MOL0     C62251   3.127   1.381  10.805 -0.0116  0.0771 -0.1314
  452MOL0     C62252   3.199   1.258  10.748  0.8467 -0.0205  0.4934
  452MOL0     C62253   3.291   1.189  10.851 -1.0050 -0.3588 -0.1405
  452MOL0     C62254   3.385   1.292  10.918  0.2096  0.7054 -0.2379
  452MOL0     N62255   3.489   1.349  10.831  0.0990  0.0698 -0.6583
  452MOL0     C62256   3.601   1.280  10.785 -0.9586 -0.1467 -1.0802
  452MOL0     C62257   3.678   1.380  10.721  0.0684 -0.2834 -0.4403
  452MOL0     C62258   3.817   1.368  10.651 -0.1544  0.1822 -0.7881
  452MOL0     C62259   3.836   1.473  10.541 -0.4484 -0.0270  0.5915
  452MOL0     C62260   3.978   1.492  10.490 -0.5371  0.4546  0.7015
  452MOL0     C62261   4.065   1.577  10.580  0.1950 -0.4993  0.0829
  452MOL0     O62262   4.199   1.555  10.540 -0.4675  0.4475 -0.7724
  452MOL0     C62263   4.276   1.497  10.639  0.0172  0.1560  0.2181
  452MOL0     C62264   4.273   1.366  10.678  0.5083  0.2432 -1.1546
  452MOL0     C62265   4.356   1.316  10.783 -1.0968  0.0607  1.4800
  452MOL0     C62266   4.337   1.168  10.822 -0.0867  0.9292  0.2490
  452MOL0     C62267   4.449   1.402  10.841 -0.5806 -0.1759 -0.3147
  452MOL0     C62268   4.534   1.361  10.959  0.0337 -0.0562  0.0639
  452MOL0     O62269   4.659   1.417  10.959  0.3686 -0.0420 -0.0851
  452MOL0     C62270   4.762   1.362  11.031  1.0574 -0.2581 -0.3106
  452MOL0     C62271   4.880   1.420  11.001 -0.4933 -0.1824 -0.7119
  452MOL0     C62272   4.997   1.388  11.067 -0.9906  0.7297 -0.2575
  452MOL0     C62273   5.002   1.281  11.161  0.4437 -0.3204  0.1254
  452MOL0     O62274   5.119   1.251  11.224 -0.3920  0.4825  0.3994
  452MOL0     C62275   5.119   1.223  11.368  0.5753 -0.1837 -0.1444
  452MOL0     C62276   5.204   1.315  11.460 -0.4182 -1.0694  0.6823
  452MOL0     C62277   5.343   1.348  11.401  0.0492 -0.1571 -0.7095
  452MOL0     C62278   5.440   1.226  11.408  0.4498 -0.3646 -0.3490
  452MOL0     C62279   5.579   1.255  11.348 -0.1249 -0.4694 -0.8331
  452MOL0     C62280   5.676   1.135  11.348  0.1599 -0.1150 -0.1021
  452MOL0     C62281   5.810   1.175  11.286  0.1733  0.0374 -0.2475
  452MOL0     C62282   5.888   1.056  11.242  0.2977 -0.3190  0.2166
  452MOL0    Cl62283   5.951   0.970  11.379  0.3569  0.9088  0.0418
  452MOL0     C62284   4.880   1.214  11.181 -0.3059  0.1112 -0.9957
  452MOL0     C62285   4.761   1.246  11.112 -0.2902 -0.1267  0.5886
  452MOL0     O62286   4.492   1.287  11.040  0.4044 -0.0252 -0.6295
  452MOL0     C62287   4.451   1.540  10.802  0.7106 -0.7194  0.8009
  452MOL0     C62288   4.367   1.575  10.696  0.1244 -0.0205  0.4687
  452MOL0     N62289   3.611   1.492  10.724 -0.3606 -0.2078 -0.4673
  452MOL0     N62290   3.499   1.474  10.782  0.1244 -0.5842  0.2640
  452MOL0     C62291   2.486   1.750  10.682 -1.4148  0.7313 -0.4318
  452MOL0     C62292   2.359   1.791  10.680  0.2168  0.4435  0.3902
  452MOL0     C62293   1.999   2.023  10.594  0.5043  0.3211  0.2746
  452MOL0     C62294   1.976   2.143  10.656 -0.0751 -0.0399  0.0637
  452MOL0     C62295   1.841   2.180  10.669 -0.1898 -1.0352 -0.4996
  452MOL0     C62296   1.735   2.105  10.636  0.0633  0.0598 -0.3343
  452MOL0     O62297   1.604   2.127  10.662  0.2134 -0.0289  0.1073
  452MOL0     C62298   1.557   2.081  10.788 -0.9135 -0.1190  0.0886
  452MOL0     C62299   1.514   1.934  10.805  0.3125  0.4832 -0.8580
  452MOL0     C62300   1.388   1.911  10.727  0.4859 -0.8888  0.4210
  452MOL0     C62301   1.363   1.763  10.689  0.8905 -0.9277  0.2488
  452MOL0     C62302   1.464   1.703  10.601  0.5357  0.3171 -0.0353
  452MOL0     C62303   1.552   1.637  10.545 -0.5467 -0.5335 -0.4606
  452MOL0     C62304   1.766   1.991  10.561  0.0981 -0.3511 -0.1966
  452MOL0     C62305   1.894   1.944  10.542 -0.8299  0.8690  0.3485
  452MOL0     C62306   1.920   1.822  10.455  0.4779 -0.3939  0.2975
  452MOL0     H62307   2.318   1.854  10.345  0.3047  4.1169  1.0728
  452MOL0     H62308   2.536   1.757  10.340  0.3509 -1.5094 -0.0991
  452MOL0     H62309   2.694   1.608  10.701  0.5230 -1.2368 -0.6499
  452MOL0     H62310   2.775   1.774  10.710  0.7264 -0.0013  0.4082
  452MOL0     H62311   2.891   1.551  10.533  0.6120  2.2891 -2.4932
  452MOL0     H62312   2.958   1.704  10.569  1.3235 -1.9371 -0.9536
  452MOL0     H62313   3.039   1.653  10.765 -0.9012  0.1130 -1.2383
  452MOL0     H62314   2.900   1.580  10.818 -0.6890  2.1065 -2.1398
  452MOL0     H62315   2.952   1.376  10.684 -0.0183 -0.0544  2.8972
  452MOL0     H62316   3.099   1.464  10.616  1.0037  1.7039  1.9335
  452MOL0     H62317   3.072   1.361  10.898  0.4843 -0.5987  0.0268
  452MOL0     H62318   3.200   1.459  10.828 -0.4325  0.7894 -1.1355
  452MOL0     H62319   3.138   1.173  10.715  1.3272 -0.7003  1.2960
  452MOL0     H62320   3.267   1.264  10.663  1.7892 -4.4794  0.6709
  452MOL0     H62321   3.353   1.119  10.795  0.3150 -0.5225  1.4465
  452MOL0     H62322   3.224   1.144  10.925  0.8378  0.9203  2.4626
  452MOL0     H62323   3.333   1.379  10.959  0.3597  1.8293 -2.3022
  452MOL0     H62324   3.429   1.237  11.002  0.2790 -0.6147 -1.1104
  452MOL0     H62325   3.639   1.179  10.797  3.3867  1.5366  1.6903
  452MOL0     H62326   3.832   1.265  10.618  0.2472 -0.1729  0.4581
  452MOL0     H62327   3.897   1.377  10.725 -1.4100 -1.0525  0.7719
  452MOL0     H62328   3.776   1.456  10.452  0.8798  2.8203 -0.9807
  452MOL0     H62329   3.813   1.571  10.585  0.7666  0.9452 -0.8311
  452MOL0     H62330   4.024   1.397  10.461 -1.6359 -0.3638  1.5512
  452MOL0     H62331   3.971   1.542  10.394  0.8783 -3.0249 -1.4179
  452MOL0     H62332   4.039   1.683  10.568  1.1333 -0.2338  0.2867
  452MOL0     H62333   4.046   1.551  10.684 -0.4778  2.1401  0.7041
  452MOL0     H62334   4.197   1.303  10.632 -0.9754  1.9126 -1.1170
  452MOL0     H62335   4.252   1.125  10.768 -0.9698  0.3256  2.0190
  452MOL0     H62336   4.295   1.161  10.923 -4.7843 -2.5200 -1.5722
  452MOL0     H62337   4.424   1.102  10.815 -0.8354 -0.0856  0.2833
  452MOL0     H62338   4.887   1.504  10.934  1.1430  1.8325  1.7824
  452MOL0     H62339   5.091   1.431  11.035  0.8706 -2.2070  0.8750
  452MOL0     H62340   5.016   1.222  11.404  1.1471  0.7852  1.6300
  452MOL0     H62341   5.159   1.122  11.383  2.0585  0.3819 -0.1637
  452MOL0     H62342   5.156   1.414  11.458  1.7745  0.0731 -1.7021
  452MOL0     H62343   5.195   1.280  11.563 -2.9508 -2.4765  0.0517
  452MOL0     H62344   5.393   1.435  11.445 -2.1765  1.4979 -1.2895
  452MOL0     H62345   5.319   1.382  11.300 -0.8827  2.7569  0.3718
  452MOL0     H62346   5.405   1.138  11.353 -1.1894  0.0396 -0.0072
  452MOL0     H62347   5.455   1.208  11.515  1.6337  0.1298 -0.4141
  452MOL0     H62348   5.575   1.296  11.247 -0.7515 -0.4638 -0.8062
  452MOL0     H62349   5.623   1.331  11.414  0.9092 -2.1617  0.5235
  452MOL0     H62350   5.637   1.051  11.290  3.5641 -1.8601 -0.1750
  452MOL0     H62351   5.697   1.112  11.453  1.4651  2.2309  0.2259
  452MOL0     H62352   5.866   1.229  11.363 -1.2789 -0.1885  1.0166
  452MOL0     H62353   5.806   1.243  11.201  0.3601  3.4994  2.2895
  452MOL0     H62354   5.977   1.083  11.185  1.9569  0.5875  3.0440
  452MOL0     H62355   5.829   0.993  11.174  0.6601  1.0138 -1.4175
  452MOL0     H62356   4.877   1.135  11.255  0.7365  4.7539  4.7762
  452MOL0     H62357   4.677   1.191  11.153  1.6503 -2.5104  1.6019
  452MOL0     H62358   4.531   1.606  10.834  0.4817  0.5713 -1.1261
  452MOL0     H62359   4.385   1.676  10.662 -3.3357  0.6183  0.1711
  452MOL0     H62360   2.533   1.731  10.778  0.7156  1.2494 -1.3317
  452MOL0     H62361   2.305   1.796  10.774  2.7440 -2.5347  2.1699
  452MOL0     H62362   2.052   2.210  10.695 -0.4519  0.3829  0.0907
  452MOL0     H62363   1.812   2.273  10.718  0.9896 -0.2850 -1.1709
  452MOL0     H62364   1.647   2.092  10.849  0.4368  2.2536 -2.1621
  452MOL0     H62365   1.474   2.137  10.832  0.4877  1.7494  0.4638
  452MOL0     H62366   1.495   1.923  10.912 -3.5288 -2.6381 -1.5921
  452MOL0     H62367   1.597   1.863  10.792  0.8643 -0.0148  3.7230
  452MOL0     H62368   1.308   1.958  10.784  2.5939  0.6972  2.2466
  452MOL0     H62369   1.389   1.967  10.633 -5.0143 -1.8927 -0.5298
  452MOL0     H62370   1.263   1.760  10.644  0.8976  0.4560  0.0937
  452MOL0     H62371   1.352   1.703  10.779 -1.2767 -2.6008 -1.0260
  452MOL0     H62372   1.620   1.587  10.480 -0.3476 -1.9547  0.7956
  452MOL0     H62373   1.682   1.932  10.524  0.1692  0.2697 -1.3888
  452MOL0     H62374   1.985   1.857  10.374  3.1030 -3.0645  1.0598
  452MOL0     H62375   1.972   1.738  10.503  1.2713 -1.8949 -2.9071
  452MOL0     H62376   1.823   1.788  10.418  0.5055  1.5843 -1.8038
  453MOL0     O62377  10.339   6.342   8.282  0.5819 -0.5062 -0.2677
  453MOL0     C62378  10.322   6.425   8.368 -0.3228  0.3470 -0.6797
  453MOL0     O62379  10.410   6.444   8.469 -0.4869  0.9570  0.0374
  453MOL0     C62380  10.522   6.357   8.484  0.0546 -0.7074 -0.4243
  453MOL0     C62381  10.605   6.324   8.372  0.4457  0.8038 -0.5045
  453MOL0     C62382  10.717   6.237   8.397 -0.4214 -0.5785  1.1642
  453MOL0     C62383  10.751   6.197   8.521 -1.0133 -0.0759  0.3370
  453MOL0     O62384  10.875   6.131   8.523 -0.0072  0.3014 -0.3468
  453MOL0     C62385  10.906   6.047   8.635 -0.7985  0.0264 -0.8017
  453MOL0     C62386  10.992   5.924   8.611 -1.2273 -0.5874  0.7246
  453MOL0     C62387  11.136   5.933   8.547 -0.6249 -0.0368 -0.4502
  453MOL0     C62388  11.139   5.966   8.396 -0.2247  0.3840  0.8669
  453MOL0     C62389  11.266   5.917   8.327  0.7868 -0.5807  0.1322
  453MOL0     C62390  11.394   5.995   8.370 -0.0916  1.2587  0.8146
  453MOL0     C62391  11.515   5.918   8.310 -0.2966  0.4546 -1.0289
  453MOL0     C62392  11.634   6.016   8.321  0.3041  0.0209 -1.1398
  453MOL0     N62393  11.758   5.944   8.277  0.2075  0.9183  0.4657
  453MOL0     C62394  11.761   5.817   8.224  0.4215  0.1866 -0.1521
  453MOL0     C62395  11.895   5.796   8.197 -0.7247  0.0564 -0.1786
  453MOL0     C62396  11.943   5.675   8.121  0.4957 -0.3549 -0.6317
  453MOL0     C62397  11.968   5.707   7.977  0.5885 -0.6632 -0.0490
  453MOL0     C62398  11.978   5.581   7.888  0.1034 -0.1773 -0.1624
  453MOL0     C62399  12.026   5.612   7.745  0.5258  0.0267 -0.6567
  453MOL0     O62400  12.115   5.501   7.702  0.5597 -0.4346 -0.0335
  453MOL0     C62401  12.247   5.529   7.674  0.3564  0.2490 -0.0935
  453MOL0     C62402  12.280   5.644   7.607  0.4766  0.3197 -0.3163
  453MOL0     C62403  12.395   5.658   7.532 -0.3027 -0.5771 -0.9638
  453MOL0     C62404  12.403   5.784   7.435 -0.4438  0.3284 -0.0487
  453MOL0     C62405  12.492   5.561   7.538  0.4827  0.2699  0.5096
  453MOL0     C62406  12.629   5.587   7.482 -0.3354  0.0294  0.5511
  453MOL0     O62407  12.673   5.713   7.502  0.3522 -0.1084  0.6695
  453MOL0     C62408  12.801   5.739   7.537 -0.1783 -1.0299 -0.8337
  453MOL0     C62409  12.830   5.878   7.525 -0.7134  0.3891 -0.2117
  453MOL0     C62410  12.968   5.912   7.547  0.4508  0.0962  0.6653
  453MOL0     C62411  13.069   5.827   7.570  1.2678 -0.5297  0.8719
  453MOL0     O62412  13.196   5.882   7.575  0.1001 -0.5831  0.2714
  453MOL0     C62413  13.300   5.826   7.503 -0.1777  0.1587  0.1655
  453MOL0     C62414  13.407   5.934   7.476 -0.6304 -0.4148  0.5435
  453MOL0     C62415  13.502   5.977   7.592 -0.4058 -0.3502 -0.3367
  453MOL0     C62416  13.426   6.037   7.707  0.1685 -0.4613  0.0716
  453MOL0     C62417  13.541   6.101   7.799  0.7590  0.3328  0.6600
  453MOL0     C62418  13.483   6.164   7.924 -0.8225 -0.3235 -0.3299
  453MOL0     C62419  13.585   6.258   8.001  0.4664 -0.9501  0.0449
  453MOL0     C62420  13.706   6.193   8.049  0.3859  0.4195 -0.3134
  453MOL0    Cl62421  13.824   6.311   8.114 -0.0343  0.0811 -0.0517
  453MOL0     C62422  13.032   5.695   7.580 -0.5758 -0.1972 -0.6727
  453MOL0     C62423  12.901   5.650   7.566  0.8092 -0.3573  0.4478
  453MOL0     O62424  12.691   5.490   7.443 -0.1879 -0.3955 -0.0566
  453MOL0     C62425  12.463   5.448   7.612 -0.0001  0.2555 -0.5933
  453MOL0     C62426  12.342   5.431   7.685  0.4017  0.2113  0.2894
  453MOL0     N62427  11.972   5.902   8.241  0.8013  1.2318  0.5534
  453MOL0     N62428  11.886   5.983   8.283 -0.6899 -0.3604 -0.0254
  453MOL0     C62429  10.680   6.241   8.636 -0.2360 -0.1686  0.2646
  453MOL0     C62430  10.569   6.320   8.609  0.2675 -0.2655 -1.1229
  453MOL0     C62431  10.188   6.503   8.373 -0.5912 -0.4301 -0.5429
  453MOL0     C62432  10.177   6.607   8.466  0.7019  0.2759 -0.3458
  453MOL0     C62433  10.056   6.684   8.487  0.9429  0.1246 -0.0338
  453MOL0     C62434   9.947   6.655   8.404  0.5228 -0.4641  0.6935
  453MOL0     O62435   9.819   6.711   8.414 -0.1331 -0.0432 -0.1110
  453MOL0     C62436   9.719   6.690   8.311 -0.9530  0.3422  1.0859
  453MOL0     C62437   9.627   6.805   8.304  0.0613 -0.8771 -0.4349
  453MOL0     C62438   9.509   6.787   8.210  0.6154 -0.5874 -0.0343
  453MOL0     C62439   9.456   6.914   8.170 -0.9802  0.8511 -0.6745
  453MOL0     C62440   9.390   6.971   8.291 -0.1723  0.9880 -0.0962
  453MOL0     C62441   9.334   7.012   8.390 -0.1488  0.5873 -0.3099
  453MOL0     C62442   9.958   6.540   8.317 -1.0458 -0.7133 -0.9841
  453MOL0     C62443  10.068   6.462   8.313 -0.6407  0.5653 -0.1120
  453MOL0     C62444  10.061   6.350   8.214 -0.1875  0.1106  0.3769
  453MOL0     H62445  10.583   6.362   8.273 -0.9561  2.9458  0.5332
  453MOL0     H62446  10.778   6.212   8.311 -2.2532 -1.7869  0.1359
  453MOL0     H62447  10.818   6.016   8.692 -1.0036 -2.6180 -2.4269
  453MOL0     H62448  10.965   6.109   8.704 -1.2762 -1.5225  1.0668
  453MOL0     H62449  10.994   5.867   8.705  0.1913 -0.8282  0.5724
  453MOL0     H62450  10.948   5.866   8.530  0.6548  2.1230 -2.4927
  453MOL0     H62451  11.203   5.994   8.607 -0.7065  0.6987 -1.0811
  453MOL0     H62452  11.181   5.834   8.559 -0.6752 -0.1495 -1.1308
  453MOL0     H62453  11.053   5.918   8.348 -0.6001 -0.4253  2.2770
  453MOL0     H62454  11.125   6.074   8.388  1.6871  0.5296 -1.3633
  453MOL0     H62455  11.262   5.934   8.219 -0.7144  0.7163  0.3482
  453MOL0     H62456  11.282   5.814   8.358  0.3557 -0.5394  0.4979
  453MOL0     H62457  11.387   6.095   8.327  0.7131 -0.1251 -2.9661
  453MOL0     H62458  11.407   6.010   8.478  3.5852  0.1597  0.6456
  453MOL0     H62459  11.495   5.890   8.206  0.2586 -2.0682 -0.5263
  453MOL0     H62460  11.531   5.827   8.368 -3.3764  0.3917 -0.0927
  453MOL0     H62461  11.628   6.101   8.253  1.9977  0.6035 -0.6199
  453MOL0     H62462  11.656   6.051   8.422 -4.4740  0.9946 -0.2106
  453MOL0     H62463  11.678   5.754   8.194 -0.8316  1.7072 -0.0226
  453MOL0     H62464  11.870   5.594   8.136 -0.1268  0.1721 -0.7677
  453MOL0     H62465  12.038   5.643   8.165  0.1223  0.7833  1.1502
  453MOL0     H62466  11.882   5.764   7.940  1.4649 -0.1293 -1.3040
  453MOL0     H62467  12.062   5.763   7.979  0.5260 -0.5060 -0.9757
  453MOL0     H62468  12.055   5.513   7.926  1.5608  1.0599 -0.7776
  453MOL0     H62469  11.876   5.542   7.882  0.2721 -0.6884  0.2309
  453MOL0     H62470  11.938   5.627   7.681  2.3478  2.9031 -2.7426
  453MOL0     H62471  12.083   5.705   7.746  1.2845 -0.4266 -0.8509
  453MOL0     H62472  12.205   5.719   7.584 -1.0337 -1.8007 -2.8520
  453MOL0     H62473  12.465   5.870   7.462  3.5584 -2.8741  1.9352
  453MOL0     H62474  12.300   5.816   7.414 -1.0939 -1.2919  0.4666
  453MOL0     H62475  12.447   5.754   7.339 -1.1470  1.7377 -0.8371
  453MOL0     H62476  12.731   5.923   7.519 -2.2416 -2.7718 -1.0643
  453MOL0     H62477  12.980   6.020   7.556 -1.6230  0.6279 -1.8015
  453MOL0     H62478  13.337   5.742   7.563 -0.4008 -0.9863 -1.2499
  453MOL0     H62479  13.260   5.787   7.409 -1.4044  0.9614  0.3166
  453MOL0     H62480  13.478   5.899   7.401 -0.0556  1.1782  0.2948
  453MOL0     H62481  13.360   6.022   7.431 -0.5829 -1.7595 -2.3182
  453MOL0     H62482  13.577   6.050   7.559 -0.3805 -0.1496  0.1625
  453MOL0     H62483  13.548   5.881   7.620  1.2438 -1.0378 -4.5130
  453MOL0     H62484  13.366   5.971   7.769 -1.0987 -2.5472 -3.0880
  453MOL0     H62485  13.365   6.118   7.666  1.3969  0.0084 -0.8982
  453MOL0     H62486  13.605   6.018   7.831 -0.5217 -2.4069 -3.2283
  453MOL0     H62487  13.585   6.184   7.744 -2.6260  1.1554 -1.0400
  453MOL0     H62488  13.436   6.096   7.997 -2.2518  1.7457  0.7620
  453MOL0     H62489  13.403   6.229   7.888 -0.8966 -0.4387 -0.3768
  453MOL0     H62490  13.536   6.292   8.093 -0.4124 -1.9696 -0.0312
  453MOL0     H62491  13.613   6.344   7.939 -1.1046 -0.3518  0.1162
  453MOL0     H62492  13.750   6.132   7.970  0.4155  1.5701 -1.2249
  453MOL0     H62493  13.672   6.124   8.127  1.0877 -1.8202 -1.8990
  453MOL0     H62494  13.100   5.618   7.613 -1.4047 -0.5929  0.1390
  453MOL0     H62495  12.896   5.542   7.552  0.4452 -0.3199  0.2878
  453MOL0     H62496  12.543   5.375   7.619 -1.0720 -1.0410 -1.3773
  453MOL0     H62497  12.317   5.345   7.746  0.0876 -0.1850 -0.3945
  453MOL0     H62498  10.723   6.226   8.734  0.7243 -0.9362 -0.2631
  453MOL0     H62499  10.524   6.361   8.699  2.7293 -2.6926  1.3964
  453MOL0     H62500  10.258   6.628   8.535  1.6362 -1.1222 -0.9703
  453MOL0     H62501  10.038   6.754   8.568  0.9510  1.6606 -1.3120
  453MOL0     H62502   9.771   6.675   8.216 -0.8954  0.2766  1.1261
  453MOL0     H62503   9.659   6.599   8.314 -1.0199 -0.1862 -4.6167
  453MOL0     H62504   9.681   6.896   8.277 -0.3945 -0.1930  0.8491
  453MOL0     H62505   9.593   6.825   8.406  0.0372  1.9922 -0.9163
  453MOL0     H62506   9.537   6.737   8.118 -2.2389 -0.2710 -1.1894
  453MOL0     H62507   9.426   6.731   8.254  0.1219 -0.7231 -1.1237
  453MOL0     H62508   9.379   6.884   8.098 -1.6013  2.3497 -0.6775
  453MOL0     H62509   9.531   6.978   8.123 -2.1132  3.6108  1.0176
  453MOL0     H62510   9.279   7.050   8.473  0.1877  0.9210 -0.2390
  453MOL0     H62511   9.877   6.500   8.257 -0.1968  0.2998 -2.9103
  453MOL0     H62512  10.086   6.251   8.253 -0.9245 -0.9475 -1.7078
  453MOL0     H62513   9.958   6.345   8.176 -0.9005  3.5269  1.4764
  453MOL0     H62514  10.131   6.371   8.133 -1.0114 -1.1435 -0.6954
  454MOL0     O62515   4.046   7.639  10.275  0.3366 -1.0515  0.0092
  454MOL0     C62516   4.031   7.667  10.154  0.5711  0.3381  1.3633
  454MOL0     O62517   3.953   7.601  10.068  0.0101 -0.0388  0.0509
  454MOL0     C62518   3.874   7.497  10.112 -0.7623  0.2333  0.4838
  454MOL0     C62519   3.903   7.363  10.072  0.1699  0.0484 -1.4419
  454MOL0     C62520   3.817   7.252  10.104  0.7209 -0.2163  0.9319
  454MOL0     C62521   3.710   7.275  10.185 -0.3637  0.4259  0.2900
  454MOL0     O62522   3.639   7.161  10.209  0.0102 -1.2276  0.7287
  454MOL0     C62523   3.546   7.164  10.318  0.3703 -0.5034 -0.2974
  454MOL0     C62524   3.474   7.029  10.315 -0.5726  0.0526  1.6765
  454MOL0     C62525   3.378   7.006  10.421 -0.3624 -0.1010  0.6567
  454MOL0     C62526   3.441   6.989  10.562  0.0721 -0.1988 -0.7148
  454MOL0     C62527   3.508   6.854  10.593  0.1178 -0.6214 -1.1177
  454MOL0     C62528   3.567   6.848  10.738 -0.0359  0.0241 -1.1434
  454MOL0     C62529   3.632   6.714  10.761 -0.7123  0.3885  0.1399
  454MOL0     C62530   3.691   6.699  10.900 -0.4898 -0.3993  0.3069
  454MOL0     N62531   3.806   6.791  10.921  0.1068 -0.2739  0.7782
  454MOL0     C62532   3.790   6.926  10.962  0.6261  1.1260  0.5856
  454MOL0     C62533   3.913   6.960  11.011  0.1291 -0.0088  0.9128
  454MOL0     C62534   3.947   7.093  11.069 -0.9450 -0.1763 -0.3360
  454MOL0     C62535   4.092   7.138  11.067  1.0243  0.8030 -0.1594
  454MOL0     C62536   4.180   7.074  11.174 -0.3794 -0.8573 -0.5727
  454MOL0     C62537   4.325   7.119  11.142 -0.0853  0.6984 -0.5866
  454MOL0     O62538   4.350   7.249  11.191 -0.4867  0.3828 -0.0991
  454MOL0     C62539   4.408   7.330  11.100  0.0101 -0.7297  0.1625
  454MOL0     C62540   4.319   7.422  11.039 -0.1801 -0.4381 -0.0037
  454MOL0     C62541   4.374   7.511  10.943 -0.1439  0.5622  0.2644
  454MOL0     C62542   4.285   7.604  10.866 -0.3584  0.0095  1.2536
  454MOL0     C62543   4.518   7.501  10.910  0.1486 -0.7996  0.1401
  454MOL0     C62544   4.584   7.582  10.814  0.2226  1.3087  0.9209
  454MOL0     O62545   4.684   7.520  10.742 -0.0664  0.2285 -0.6166
  454MOL0     C62546   4.700   7.540  10.605 -0.4210 -0.0993 -1.0287
  454MOL0     C62547   4.708   7.660  10.544 -0.1028 -0.3166  0.6329
  454MOL0     C62548   4.760   7.682  10.415 -0.5667  0.1389  0.6526
  454MOL0     C62549   4.788   7.576  10.335  0.7989 -0.3962 -0.2892
  454MOL0     O62550   4.806   7.593  10.201 -0.1106  0.2066 -0.6912
  454MOL0     C62551   4.846   7.481  10.125 -0.0263  0.2333 -0.4949
  454MOL0     C62552   4.877   7.541   9.994  0.3075  0.4599  0.8579
  454MOL0     C62553   4.970   7.449   9.914  0.1490 -0.2777  0.2396
  454MOL0     C62554   4.981   7.497   9.766 -0.1464  0.5312 -0.8123
  454MOL0     C62555   5.070   7.625   9.748  0.5474  0.5653  0.6868
  454MOL0     C62556   5.108   7.668   9.602  0.1470 -0.9357  0.6649
  454MOL0     C62557   4.997   7.758   9.537  0.1132  0.2720  0.3307
  454MOL0     C62558   5.012   7.776   9.382  0.4673 -0.4166 -1.2873
  454MOL0    Cl62559   5.182   7.786   9.328  0.1397 -0.1219  0.2132
  454MOL0     C62560   4.775   7.447  10.398 -0.3190 -0.2588 -0.3913
  454MOL0     C62561   4.733   7.430  10.531 -0.8115  0.0312 -0.1120
  454MOL0     O62562   4.550   7.700  10.793  0.3310 -0.5345 -0.0731
  454MOL0     C62563   4.598   7.412  10.984 -0.8066  0.7226  0.3844
  454MOL0     C62564   4.545   7.335  11.086  0.3213  0.5723 -0.3908
  454MOL0     N62565   3.993   6.848  11.009 -1.0295  0.1399 -0.2589
  454MOL0     N62566   3.929   6.751  10.961 -0.5472  0.4923  0.0617
  454MOL0     C62567   3.678   7.415  10.220  0.4650  0.3897  0.9172
  454MOL0     C62568   3.760   7.518  10.187 -1.0595  0.3373  0.4144
  454MOL0     C62569   4.101   7.780  10.103 -1.0085 -0.5328 -0.6536
  454MOL0     C62570   4.180   7.773   9.988  0.0368  0.4740  0.3661
  454MOL0     C62571   4.254   7.881   9.943 -0.0482 -0.7429  0.1306
  454MOL0     C62572   4.274   8.001  10.020  0.5339  0.0672  0.6361
  454MOL0     O62573   4.350   8.105   9.972  0.9642 -0.7328 -0.0933
  454MOL0     C62574   4.268   8.215   9.911  0.1664  0.4260 -0.4019
  454MOL0     C62575   4.357   8.329   9.880  0.6916 -0.5761  0.2865
  454MOL0     C62576   4.484   8.290   9.823  0.0768 -0.2861 -0.1329
  454MOL0     C62577   4.550   8.422   9.773 -0.4541 -0.8167  0.0846
  454MOL0     C62578   4.680   8.392   9.704  0.3152 -0.0546  0.0251
  454MOL0     C62579   4.781   8.352   9.651  0.3295  0.1557  0.2478
  454MOL0     C62580   4.203   8.013  10.136  0.5901  0.4126 -0.7088
  454MOL0     C62581   4.115   7.912  10.176  0.7396  1.0065  0.1065
  454MOL0     C62582   4.031   7.939  10.288 -0.1499  0.1483 -0.5060
  454MOL0     H62583   3.995   7.330  10.026  0.2906  0.7509 -1.7011
  454MOL0     H62584   3.852   7.150  10.093  2.5285  0.1612  2.5477
  454MOL0     H62585   3.464   7.235  10.307  0.4557 -0.5589 -1.3653
  454MOL0     H62586   3.610   7.170  10.407  3.7619  2.0802 -2.6724
  454MOL0     H62587   3.434   7.011  10.215  1.1475 -0.5995  1.0656
  454MOL0     H62588   3.551   6.952  10.326  0.5041  0.9573  0.7055
  454MOL0     H62589   3.308   7.089  10.426  1.3388  1.3251  2.4961
  454MOL0     H62590   3.323   6.918  10.387 -1.3488 -0.1990  2.3723
  454MOL0     H62591   3.506   7.072  10.590  0.4934 -1.8792  4.3638
  454MOL0     H62592   3.364   7.002  10.639  1.3826 -2.0268  1.0107
  454MOL0     H62593   3.586   6.844  10.516  1.4813 -2.6040  0.4178
  454MOL0     H62594   3.430   6.783  10.564 -2.0950  2.7055 -4.2735
  454MOL0     H62595   3.643   6.926  10.751  1.0511 -0.7811 -2.3142
  454MOL0     H62596   3.493   6.856  10.818  1.4187 -2.6543  0.6062
  454MOL0     H62597   3.717   6.710  10.692 -0.7402 -1.6722  0.1672
  454MOL0     H62598   3.562   6.633  10.739  0.5149 -0.7173  0.1379
  454MOL0     H62599   3.615   6.721  10.976 -0.3090  1.7168 -0.0649
  454MOL0     H62600   3.726   6.595  10.906  5.6191  0.9215 -3.6554
  454MOL0     H62601   3.712   7.001  10.955  0.3798  0.7606 -1.1641
  454MOL0     H62602   3.902   7.103  11.168  0.3227  1.1675  0.1623
  454MOL0     H62603   3.899   7.175  11.014 -1.1344 -0.6048 -0.8206
  454MOL0     H62604   4.132   7.123  10.966  0.4486  3.2962 -0.8220
  454MOL0     H62605   4.087   7.246  11.082  1.3537  0.9979 -1.3049
  454MOL0     H62606   4.153   7.103  11.276 -3.1323 -1.3577 -1.0820
  454MOL0     H62607   4.167   6.966  11.166 -1.5569 -0.7402 -0.3823
  454MOL0     H62608   4.397   7.048  11.185 -2.3368 -0.4357  1.5723
  454MOL0     H62609   4.337   7.121  11.033  0.5507  1.7282 -0.5186
  454MOL0     H62610   4.214   7.421  11.066 -0.4065  0.5567 -0.7705
  454MOL0     H62611   4.257   7.692  10.924  2.2949  0.9403  1.2660
  454MOL0     H62612   4.195   7.560  10.822  0.0482  1.1908 -0.8876
  454MOL0     H62613   4.337   7.631  10.774 -0.6918 -1.3907  0.6301
  454MOL0     H62614   4.679   7.745  10.605  0.2672  0.5100 -0.3219
  454MOL0     H62615   4.776   7.784  10.381  1.6123 -0.1507  0.6297
  454MOL0     H62616   4.940   7.443  10.166 -0.0425  2.7434  2.2521
  454MOL0     H62617   4.769   7.404  10.115  2.3070 -2.8984  3.0484
  454MOL0     H62618   4.785   7.558   9.936  0.1385  0.0244  0.9891
  454MOL0     H62619   4.927   7.637  10.010 -1.3409  1.6007 -0.3985
  454MOL0     H62620   4.925   7.349   9.909 -2.3140  0.7989 -0.9366
  454MOL0     H62621   5.066   7.454   9.967 -0.6567  2.4348  1.6077
  454MOL0     H62622   4.882   7.519   9.725 -0.5499 -1.1406 -0.8095
  454MOL0     H62623   5.013   7.409   9.708 -0.2451  0.7241 -1.1652
  454MOL0     H62624   5.034   7.709   9.808  0.8816  1.7920 -0.7683
  454MOL0     H62625   5.164   7.595   9.794 -0.1684  0.7736  2.3826
  454MOL0     H62626   5.121   7.576   9.543  4.3102  0.1458 -0.3997
  454MOL0     H62627   5.209   7.709   9.607 -0.1013 -0.4617  3.6265
  454MOL0     H62628   5.001   7.857   9.584 -1.6674  0.4693  0.1124
  454MOL0     H62629   4.902   7.709   9.560 -0.5154  1.8335  1.1701
  454MOL0     H62630   4.960   7.871   9.367  1.2543  0.3550  0.5570
  454MOL0     H62631   4.960   7.694   9.333 -0.5803 -1.2648  1.1097
  454MOL0     H62632   4.780   7.348  10.354 -4.1922 -0.9618  0.3868
  454MOL0     H62633   4.731   7.331  10.574 -1.2774 -0.9296 -2.1915
  454MOL0     H62634   4.704   7.423  10.960 -1.3572  0.7162 -2.4202
  454MOL0     H62635   4.608   7.260  11.131  0.6516  1.6958  1.1088
  454MOL0     H62636   3.594   7.437  10.285  0.5098  2.0450  0.4694
  454MOL0     H62637   3.748   7.624  10.208 -1.5983  0.4725 -0.4793
  454MOL0     H62638   4.176   7.682   9.929 -1.4718 -0.8511  2.3527
  454MOL0     H62639   4.300   7.872   9.844  1.9086  5.1074  0.1359
  454MOL0     H62640   4.229   8.167   9.821 -1.9704  0.4039  0.4740
  454MOL0     H62641   4.179   8.240   9.969  0.9046  0.1624  0.8958
  454MOL0     H62642   4.381   8.375   9.977  1.6776  1.3661 -0.8086
  454MOL0     H62643   4.305   8.411   9.829  3.9099 -0.2809 -2.8728
  454MOL0     H62644   4.532   8.242   9.908 -2.0560 -1.7875  0.2863
  454MOL0     H62645   4.470   8.225   9.736 -0.1243 -1.4980  0.7794
  454MOL0     H62646   4.577   8.478   9.863 -1.2047 -1.6771  0.8787
  454MOL0     H62647   4.494   8.482   9.701  1.4691 -1.0541 -1.6878
  454MOL0     H62648   4.864   8.311   9.596  1.9385  0.9814  1.9747
  454MOL0     H62649   4.211   8.110  10.184  0.7970 -1.3376  3.1523
  454MOL0     H62650   4.045   7.856  10.358  2.3722  0.3960 -0.5994
  454MOL0     H62651   4.066   8.025  10.345  0.0681 -0.9530  1.0955
  454MOL0     H62652   3.930   7.968  10.260 -0.2339  0.7573  0.4062
  455MOL0     O62653   7.355   3.063  10.051 -0.3500 -0.0538 -0.4703
  455MOL0     C62654   7.386   3.115  10.161  0.4992  0.2900 -0.1647
  455MOL0     O62655   7.317   3.222  10.218 -1.1175 -0.1510 -0.0211
  455MOL0     C62656   7.226   3.281  10.130  0.3661 -0.7498 -0.2517
  455MOL0     C62657   7.093   3.269  10.159 -0.1852 -0.3328  0.0714
  455MOL0     C62658   6.990   3.324  10.083  0.3318 -1.1091 -0.7697
  455MOL0     C62659   7.029   3.398   9.974  0.2886 -1.3496 -0.1947
  455MOL0     O62660   6.924   3.452   9.906  0.1342 -1.1423 -0.5430
  455MOL0     C62661   6.956   3.549   9.804 -0.3057  0.4065  0.4101
  455MOL0     C62662   6.831   3.571   9.722  0.1128 -0.1993  0.0560
  455MOL0     C62663   6.801   3.451   9.624  0.3659 -0.2888  0.3267
  455MOL0     C62664   6.680   3.476   9.535  0.1465  0.1326  0.2394
  455MOL0     C62665   6.550   3.463   9.624 -0.6927 -0.6735  0.1806
  455MOL0     C62666   6.424   3.438   9.540  0.9088  0.4381  0.2524
  455MOL0     C62667   6.305   3.422   9.642  0.4467 -0.1502  0.1387
  455MOL0     C62668   6.247   3.550   9.695  0.4510 -0.1364 -0.3009
  455MOL0     N62669   6.193   3.635   9.586  0.6825  0.3269 -0.3588
  455MOL0     C62670   6.062   3.667   9.571 -0.4744  0.5232  0.3677
  455MOL0     C62671   6.066   3.771   9.491 -0.3728 -0.4773  0.0509
  455MOL0     C62672   5.955   3.856   9.434  0.4346 -1.1246 -0.0572
  455MOL0     C62673   5.831   3.788   9.393  0.7135  0.2413  0.5429
  455MOL0     C62674   5.834   3.689   9.274 -0.5671 -0.4468  0.4952
  455MOL0     C62675   5.914   3.721   9.147 -0.9909 -0.9258  0.1251
  455MOL0     O62676   6.052   3.729   9.177 -0.5920 -0.2476  0.8398
  455MOL0     C62677   6.146   3.750   9.077  0.5147 -0.0035 -0.2379
  455MOL0     C62678   6.120   3.788   8.948 -0.0590  0.4510  0.9828
  455MOL0     C62679   6.229   3.817   8.858 -0.8612  0.0754 -0.0797
  455MOL0     C62680   6.208   3.862   8.723  0.1709 -0.8912  0.1241
  455MOL0     C62681   6.368   3.791   8.902  0.6259 -0.1090  0.1670
  455MOL0     C62682   6.491   3.772   8.821 -0.0207 -0.3403  0.5711
  455MOL0     O62683   6.596   3.693   8.866  1.0664  0.1831  0.5675
  455MOL0     C62684   6.705   3.681   8.789 -0.6731 -0.8162 -0.8553
  455MOL0     C62685   6.819   3.768   8.814 -0.0714 -0.1676  0.5390
  455MOL0     C62686   6.945   3.733   8.751  0.2419 -0.4235 -0.2000
  455MOL0     C62687   6.954   3.624   8.665 -0.3493 -0.1409  0.8337
  455MOL0     O62688   7.072   3.604   8.601  1.2188 -0.4012 -0.0332
  455MOL0     C62689   7.063   3.527   8.478  0.3653 -0.4169  0.1265
  455MOL0     C62690   7.198   3.506   8.422 -0.0233  0.9226  0.1413
  455MOL0     C62691   7.254   3.642   8.376 -0.1329 -0.2306 -0.4747
  455MOL0     C62692   7.192   3.706   8.254  0.4716  1.5394  0.1117
  455MOL0     C62693   7.187   3.617   8.127  0.2136  0.7240 -0.6783
  455MOL0     C62694   7.131   3.694   8.013  0.2307 -1.2687 -0.3390
  455MOL0     C62695   7.225   3.795   7.960 -0.5898  0.3196  0.2906
  455MOL0     C62696   7.144   3.908   7.897 -0.6310  0.0956 -0.2760
  455MOL0    Cl62697   7.092   3.891   7.725 -0.1276  0.2345  0.3533
  455MOL0     C62698   6.838   3.548   8.638  0.4473  0.3116 -0.0099
  455MOL0     C62699   6.721   3.565   8.713 -0.4213  0.0141  1.5587
  455MOL0     O62700   6.489   3.831   8.714 -0.2792 -0.4129  0.5186
  455MOL0     C62701   6.378   3.745   9.028 -0.3168 -0.2697 -0.1370
  455MOL0     C62702   6.270   3.725   9.117 -0.2519 -1.3925  0.8066
  455MOL0     N62703   6.199   3.805   9.453 -0.5257  0.1253  0.6783
  455MOL0     N62704   6.268   3.721   9.516  0.1632 -0.0587 -0.7960
  455MOL0     C62705   7.163   3.398   9.929 -0.6126  0.7236 -0.1803
  455MOL0     C62706   7.260   3.348  10.011  0.3061 -0.1639 -0.1705
  455MOL0     C62707   7.497   3.049  10.237  0.5283 -0.8566 -0.9599
  455MOL0     C62708   7.534   3.124  10.352  0.7708  0.1183 -0.9854
  455MOL0     C62709   7.639   3.079  10.432  0.0864 -0.4074  0.6812
  455MOL0     C62710   7.699   2.958  10.403  0.0677 -0.2088 -0.0005
  455MOL0     O62711   7.815   2.913  10.461  0.0459  0.1170 -0.1543
  455MOL0     C62712   7.887   3.000  10.554 -0.2463  0.0262  1.0017
  455MOL0     C62713   7.995   3.090  10.478  0.2678  0.3535  1.2383
  455MOL0     C62714   8.104   3.017  10.408 -0.6181  0.1033 -0.0937
  455MOL0     C62715   8.061   2.949  10.275 -0.1456  0.0386  0.4302
  455MOL0     C62716   8.175   2.913  10.188 -0.1683 -0.4444 -0.6956
  455MOL0     C62717   8.273   2.896  10.113  0.0748  0.7046  0.2458
  455MOL0     C62718   7.645   2.865  10.310 -0.5221 -0.5495 -0.1529
  455MOL0     C62719   7.541   2.914  10.225 -0.6151 -0.1133  0.5896
  455MOL0     C62720   7.483   2.806  10.135 -0.6410 -1.0169 -0.4293
  455MOL0     H62721   7.062   3.206  10.241 -2.9332  1.5730  0.6589
  455MOL0     H62722   6.888   3.296  10.106  0.1384 -0.6464 -1.0630
  455MOL0     H62723   7.030   3.514   9.732  2.2151 -0.5025  3.2502
  455MOL0     H62724   6.986   3.645   9.847 -2.1032  2.5539 -2.6790
  455MOL0     H62725   6.741   3.586   9.783 -0.5277 -0.5655 -0.7722
  455MOL0     H62726   6.837   3.669   9.673 -0.5004  0.4944  1.2940
  455MOL0     H62727   6.886   3.451   9.555 -0.5934  1.2248 -0.9018
  455MOL0     H62728   6.798   3.354   9.674  0.4667 -1.3929 -1.6951
  455MOL0     H62729   6.680   3.577   9.493 -2.7394  0.8586  1.7364
  455MOL0     H62730   6.669   3.404   9.453 -2.7618  2.2616 -1.4298
  455MOL0     H62731   6.553   3.549   9.692 -1.9804  1.0488 -1.8260
  455MOL0     H62732   6.554   3.392   9.707 -0.8613 -1.0558 -0.1379
  455MOL0     H62733   6.409   3.510   9.458  0.4725 -1.4965 -1.4490
  455MOL0     H62734   6.429   3.346   9.482 -0.9619  0.0253  0.6863
  455MOL0     H62735   6.346   3.358   9.721 -0.2383 -1.1974 -0.3281
  455MOL0     H62736   6.227   3.370   9.584 -0.3874  0.4049  0.7365
  455MOL0     H62737   6.164   3.533   9.764  0.1839 -0.7575 -0.7626
  455MOL0     H62738   6.330   3.606   9.739  0.4564 -0.4386  0.0776
  455MOL0     H62739   5.976   3.629   9.625  1.5068  0.7085  4.0201
  455MOL0     H62740   6.001   3.915   9.353  0.9768 -1.6191 -0.1166
  455MOL0     H62741   5.925   3.934   9.505  2.2996 -0.4025  0.0207
  455MOL0     H62742   5.782   3.748   9.482 -0.8231  4.1066  1.6381
  455MOL0     H62743   5.763   3.867   9.359 -2.4876 -1.9734  1.3272
  455MOL0     H62744   5.874   3.596   9.317 -1.2979 -1.0323 -0.0592
  455MOL0     H62745   5.737   3.668   9.228 -0.7430  0.5647  0.3912
  455MOL0     H62746   5.893   3.654   9.063  0.0386  0.9726 -1.7470
  455MOL0     H62747   5.873   3.817   9.117  0.1517  0.0553  1.5859
  455MOL0     H62748   6.020   3.811   8.914 -0.4067 -2.2855 -0.0725
  455MOL0     H62749   6.123   3.930   8.712  1.3092  0.4291 -0.8031
  455MOL0     H62750   6.187   3.777   8.658  1.1033 -1.4944  0.5856
  455MOL0     H62751   6.297   3.911   8.684  0.3711 -2.9663 -2.2441
  455MOL0     H62752   6.808   3.857   8.875  0.0422  0.4063 -0.2605
  455MOL0     H62753   7.038   3.789   8.757 -0.0679  0.0004  0.9057
  455MOL0     H62754   7.016   3.430   8.492 -2.5870  1.0807  1.4453
  455MOL0     H62755   6.998   3.583   8.410  2.1198  2.9632  1.0215
  455MOL0     H62756   7.250   3.459   8.506  3.3748  0.1001 -2.1755
  455MOL0     H62757   7.190   3.439   8.336  0.9510  2.2254 -1.0277
  455MOL0     H62758   7.356   3.632   8.338 -0.0046  0.4015 -0.3041
  455MOL0     H62759   7.256   3.704   8.466 -2.8007 -2.9030  1.6674
  455MOL0     H62760   7.245   3.798   8.231  0.9859  1.1561 -0.2444
  455MOL0     H62761   7.092   3.742   8.284  0.4063  0.9853  0.5813
  455MOL0     H62762   7.283   3.571   8.103 -0.6491 -1.8973  0.4923
  455MOL0     H62763   7.120   3.532   8.144  1.4328  0.1292  1.4681
  455MOL0     H62764   7.039   3.746   8.040 -0.0980 -1.9052 -0.2183
  455MOL0     H62765   7.105   3.613   7.945 -2.3268 -0.2973 -0.6435
  455MOL0     H62766   7.292   3.751   7.886 -0.4062  2.6765 -1.0369
  455MOL0     H62767   7.287   3.843   8.036 -1.4951  1.7926  0.1366
  455MOL0     H62768   7.205   3.999   7.901 -0.1457 -0.1485 -1.6443
  455MOL0     H62769   7.054   3.926   7.956 -1.3812  2.2635 -1.9285
  455MOL0     H62770   6.835   3.461   8.574 -2.6529 -1.2902  2.0789
  455MOL0     H62771   6.632   3.507   8.691  0.2754 -0.9984  1.3305
  455MOL0     H62772   6.472   3.729   9.078  0.7452  1.5115 -1.4579
  455MOL0     H62773   6.289   3.685   9.217 -2.7659 -1.1465  1.4582
  455MOL0     H62774   7.197   3.429   9.831 -1.5176 -1.3174 -1.2259
  455MOL0     H62775   7.365   3.356   9.985  0.4748 -0.2426  0.4692
  455MOL0     H62776   7.469   3.202  10.390  1.9665  0.5226  0.3287
  455MOL0     H62777   7.668   3.146  10.513  3.2715 -1.1692  0.3358
  455MOL0     H62778   7.815   3.057  10.614 -0.5765  1.3217 -0.5400
  455MOL0     H62779   7.941   2.941  10.629  1.9195 -0.0196 -0.5051
  455MOL0     H62780   8.039   3.167  10.542 -0.5454  3.7355 -1.9000
  455MOL0     H62781   7.935   3.141  10.402 -1.1623  0.4760  2.3939
  455MOL0     H62782   8.185   3.085  10.380  0.3919 -1.8967 -2.3381
  455MOL0     H62783   8.156   2.938  10.462  4.8387  1.3428 -2.8101
  455MOL0     H62784   8.009   3.028  10.221  2.2181  0.3229 -1.6137
  455MOL0     H62785   7.995   2.862  10.281  1.6704 -1.3888  0.4717
  455MOL0     H62786   8.357   2.868  10.054 -0.5321 -0.2010 -0.2217
  455MOL0     H62787   7.690   2.766  10.313  1.7210  0.4330  0.6890
  455MOL0     H62788   7.478   2.708  10.183  2.0232 -0.6941  0.6716
  455MOL0     H62789   7.377   2.826  10.118 -1.0708 -1.0690  1.8618
  455MOL0     H62790   7.544   2.797  10.045  0.9558 -0.2663  0.5427
  456MOL0     O62791   7.988  10.211   3.628 -0.4151  0.5647  0.2795
  456MOL0     C62792   8.007  10.297   3.714  0.3398 -0.1499 -0.5734
  456MOL0     O62793   8.132  10.344   3.753  1.2341 -0.0755 -0.4456
  456MOL0     C62794   8.243  10.332   3.684 -0.4165 -0.7561 -0.5767
  456MOL0     C62795   8.248  10.313   3.544  0.7158  0.1013 -0.3064
  456MOL0     C62796   8.372  10.283   3.482  0.8115  0.2648 -0.1273
  456MOL0     C62797   8.486  10.266   3.566 -0.4559 -0.1013  0.0304
  456MOL0     O62798   8.608  10.223   3.513 -0.3447 -0.2898 -0.0411
  456MOL0     C62799   8.650  10.258   3.378  0.2873  0.0657 -0.2436
  456MOL0     C62800   8.798  10.253   3.387 -0.4292  0.6059 -0.1464
  456MOL0     C62801   8.855  10.111   3.408  1.1199  1.0391  0.3204
  456MOL0     C62802   8.809  10.005   3.302  0.1264  0.2358 -0.2379
  456MOL0     C62803   8.859   9.867   3.334  0.2444 -0.8392  0.1520
  456MOL0     C62804   8.834   9.825   3.485  0.3140 -0.6594 -0.0181
  456MOL0     C62805   8.827   9.674   3.496  0.1745 -0.4315 -0.5659
  456MOL0     C62806   8.815   9.609   3.637 -0.3987 -0.0881 -1.1958
  456MOL0     N62807   8.748   9.696   3.733 -0.0923 -0.1291 -0.2574
  456MOL0     C62808   8.607   9.719   3.731 -0.4826 -0.0126  0.3416
  456MOL0     C62809   8.594   9.827   3.812  0.7490 -0.1440  0.4516
  456MOL0     C62810   8.472   9.919   3.834 -0.1173  0.9288  0.4042
  456MOL0     C62811   8.391   9.856   3.952 -0.3668  0.3763 -0.8122
  456MOL0     C62812   8.242   9.896   3.964 -0.0785  0.0684  0.4101
  456MOL0     C62813   8.199   9.887   4.110  0.1082 -0.3687  0.2339
  456MOL0     O62814   8.069   9.953   4.129  1.1902 -0.0134  0.3308
  456MOL0     C62815   7.953   9.877   4.107  0.6216  0.6384 -0.3259
  456MOL0     C62816   7.842   9.931   4.168 -0.6185 -0.4004 -0.7214
  456MOL0     C62817   7.716   9.868   4.159  1.1557  0.3089 -0.1276
  456MOL0     C62818   7.605   9.957   4.204 -0.1513  0.3735 -0.3787
  456MOL0     C62819   7.704   9.738   4.106 -0.4162  0.1234 -0.7609
  456MOL0     C62820   7.581   9.651   4.111  0.1500 -0.4848  0.1409
  456MOL0     O62821   7.605   9.516   4.102 -0.0479 -0.2764  0.5833
  456MOL0     C62822   7.506   9.428   4.082  0.1749  0.4834  0.6513
  456MOL0     C62823   7.462   9.375   3.959  0.6357 -0.9072  0.3517
  456MOL0     C62824   7.356   9.276   3.937 -0.2445 -0.4492 -0.6754
  456MOL0     C62825   7.296   9.239   4.052  0.6036  0.6692  0.7002
  456MOL0     O62826   7.188   9.153   4.063 -0.4961 -0.2526 -0.1068
  456MOL0     C62827   7.156   9.083   3.943 -0.9912 -0.3912  0.1581
  456MOL0     C62828   7.050   8.991   3.984 -0.3049 -0.1511  0.6321
  456MOL0     C62829   7.104   8.850   3.995 -0.1712 -1.6431  0.0823
  456MOL0     C62830   6.994   8.771   4.057 -0.1535 -0.0861  0.1094
  456MOL0     C62831   7.030   8.624   4.060 -0.0939 -0.4243 -0.3705
  456MOL0     C62832   6.910   8.551   4.121 -0.1485 -0.1793  0.5918
  456MOL0     C62833   6.936   8.406   4.102 -0.3879  0.3528 -0.3142
  456MOL0     C62834   6.812   8.319   4.097  0.7699 -0.4734  0.2990
  456MOL0    Cl62835   6.724   8.350   4.240 -0.5754 -0.3579 -0.2254
  456MOL0     C62836   7.332   9.302   4.175 -0.1568  0.4001  0.4697
  456MOL0     C62837   7.444   9.382   4.192  0.1942  0.3239  0.0113
  456MOL0     O62838   7.471   9.703   4.140 -0.1181 -0.4223 -0.0326
  456MOL0     C62839   7.815   9.676   4.048  0.6606 -0.3590  0.0426
  456MOL0     C62840   7.938   9.750   4.053  0.9523  0.2283 -0.1849
  456MOL0     N62841   8.714   9.870   3.856 -0.2096  0.3389 -0.3375
  456MOL0     N62842   8.808   9.790   3.813 -0.1720  0.7480 -0.3231
  456MOL0     C62843   8.475  10.284   3.703 -0.8809 -0.2862 -0.4128
  456MOL0     C62844   8.355  10.323   3.766 -0.2487  0.0702  0.5154
  456MOL0     C62845   7.885  10.348   3.779 -0.1751 -0.8616  0.3150
  456MOL0     C62846   7.793  10.398   3.687 -0.3801  0.2147  0.4558
  456MOL0     C62847   7.675  10.446   3.739  0.3014 -0.7240  0.8735
  456MOL0     C62848   7.646  10.455   3.873 -0.4458  0.1083 -0.0699
  456MOL0     O62849   7.530  10.504   3.928  0.8030  0.2233 -0.2137
  456MOL0     C62850   7.412  10.519   3.845  0.3559  0.1023 -0.4452
  456MOL0     C62851   7.283  10.508   3.935 -0.6324 -0.1242  0.2733
  456MOL0     C62852   7.163  10.559   3.861  0.9344  0.2429 -0.2394
  456MOL0     C62853   7.027  10.555   3.939  1.6058 -0.9493  0.0302
  456MOL0     C62854   6.966  10.428   3.961 -0.3934  0.5687  0.2622
  456MOL0     C62855   6.942  10.311   3.970 -0.5743  0.2488 -0.7477
  456MOL0     C62856   7.739  10.406   3.964  0.4380  1.0208  0.7437
  456MOL0     C62857   7.857  10.345   3.916 -0.5161 -0.5123 -0.5562
  456MOL0     C62858   7.963  10.290   4.003 -1.1255 -0.9320 -0.0585
  456MOL0     H62859   8.156  10.301   3.487  0.8227  0.6165 -0.6036
  456MOL0     H62860   8.369  10.276   3.374 -1.4587 -2.0289  0.0067
  456MOL0     H62861   8.623  10.362   3.357 -2.1635 -0.5283 -0.3254
  456MOL0     H62862   8.617  10.188   3.301  3.3107 -2.9941  0.9436
  456MOL0     H62863   8.839  10.286   3.291  1.1866 -3.0810 -0.9040
  456MOL0     H62864   8.830  10.319   3.468 -0.5872 -1.8111  2.0386
  456MOL0     H62865   8.964  10.123   3.408  1.2270  0.3961 -1.4525
  456MOL0     H62866   8.821  10.082   3.508 -2.0661  0.5050 -0.7998
  456MOL0     H62867   8.700   9.992   3.302  0.2212 -0.9484  1.5553
  456MOL0     H62868   8.836  10.046   3.204  0.3368  0.4335 -0.0975
  456MOL0     H62869   8.968   9.872   3.324  0.3628  2.9780  1.6005
  456MOL0     H62870   8.803   9.791   3.278 -1.5336 -1.2886  2.3688
  456MOL0     H62871   8.921   9.861   3.541  0.1002  1.3543 -0.9031
  456MOL0     H62872   8.742   9.874   3.521  2.2657  0.8241  3.5189
  456MOL0     H62873   8.913   9.630   3.446 -0.3253 -0.6186 -1.2844
  456MOL0     H62874   8.745   9.639   3.433 -0.1854  0.7424 -0.7788
  456MOL0     H62875   8.769   9.510   3.640  2.5772 -1.6214  2.7611
  456MOL0     H62876   8.922   9.599   3.659 -0.3314  1.4303 -0.6918
  456MOL0     H62877   8.532   9.669   3.670 -1.1272  2.0370 -0.6538
  456MOL0     H62878   8.414   9.916   3.742 -3.1771 -0.3124  2.2129
  456MOL0     H62879   8.507  10.019   3.864  1.9722  0.1196  0.8435
  456MOL0     H62880   8.390   9.748   3.932 -0.7599  0.1266  0.4356
  456MOL0     H62881   8.444   9.878   4.045 -0.0827 -0.0085 -0.8783
  456MOL0     H62882   8.225   9.998   3.930  3.1868 -0.4739 -3.6736
  456MOL0     H62883   8.181   9.833   3.899 -0.8225 -1.1977  2.2342
  456MOL0     H62884   8.203   9.780   4.128 -1.0029 -1.2321 -3.6982
  456MOL0     H62885   8.267   9.932   4.183  1.5942 -1.2183 -0.5889
  456MOL0     H62886   7.851  10.031   4.209  0.3267 -0.1684 -1.4730
  456MOL0     H62887   7.513   9.934   4.150 -1.2643  1.4249  0.9746
  456MOL0     H62888   7.635  10.057   4.174  2.1345  0.0719  0.6595
  456MOL0     H62889   7.574   9.952   4.309  0.9276  1.2770  0.0048
  456MOL0     H62890   7.509   9.404   3.866 -1.4180 -0.4650 -0.6053
  456MOL0     H62891   7.324   9.256   3.836 -2.0502  1.6047 -0.6023
  456MOL0     H62892   7.147   9.160   3.865  3.0284  0.8700  0.7015
  456MOL0     H62893   7.240   9.028   3.899  0.8290  2.7008 -0.5185
  456MOL0     H62894   7.009   9.029   4.078  1.1759 -0.7310  1.5408
  456MOL0     H62895   6.973   8.981   3.908  0.7178 -2.8806 -0.1574
  456MOL0     H62896   7.190   8.848   4.063 -1.1081 -2.4582  1.2783
  456MOL0     H62897   7.127   8.816   3.894  0.0598  0.4131 -0.5916
  456MOL0     H62898   6.897   8.782   4.007 -1.8841 -4.7573  1.8323
  456MOL0     H62899   6.976   8.825   4.150  1.9784 -0.3349  0.7190
  456MOL0     H62900   7.049   8.585   3.959  0.0662  0.1606 -0.5666
  456MOL0     H62901   7.112   8.609   4.130  0.5076  2.7972 -0.2555
  456MOL0     H62902   6.817   8.580   4.072 -2.2454 -0.4075  4.1521
  456MOL0     H62903   6.904   8.579   4.226 -0.5092  0.6130  0.3662
  456MOL0     H62904   6.973   8.377   4.201  0.6164 -0.2181 -0.8342
  456MOL0     H62905   7.009   8.371   4.028  1.0803 -2.7948  2.3183
  456MOL0     H62906   6.837   8.212   4.097 -0.3219 -0.7734 -1.7510
  456MOL0     H62907   6.763   8.351   4.004  0.8596 -0.9937  0.0709
  456MOL0     H62908   7.297   9.253   4.265  2.2089 -0.9033  0.7697
  456MOL0     H62909   7.472   9.428   4.286  0.1084  0.6026 -0.0993
  456MOL0     H62910   7.797   9.587   3.990 -4.3290 -0.5789  1.4562
  456MOL0     H62911   8.027   9.702   4.013  0.1477 -1.3341 -0.1568
  456MOL0     H62912   8.567  10.271   3.760 -1.1689  2.3807  0.8169
  456MOL0     H62913   8.350  10.326   3.874  0.4354  1.7370  0.5257
  456MOL0     H62914   7.796  10.396   3.579  0.9356  0.0182  0.4723
  456MOL0     H62915   7.605  10.480   3.664  0.6632  0.3744  1.0136
  456MOL0     H62916   7.403  10.617   3.798  1.0546  1.5341  2.1560
  456MOL0     H62917   7.408  10.438   3.773  1.4490  2.9638 -3.9966
  456MOL0     H62918   7.294  10.571   4.024 -1.1848 -1.7517  1.5242
  456MOL0     H62919   7.268  10.408   3.976 -3.4726 -1.5007 -3.5566
  456MOL0     H62920   7.185  10.662   3.831  0.8513  0.6104  0.9089
  456MOL0     H62921   7.162  10.485   3.780 -2.1558 -2.5002  2.0339
  456MOL0     H62922   6.963  10.620   3.880  1.5099 -1.2005 -0.1464
  456MOL0     H62923   7.037  10.611   4.032  3.2878  2.2203 -1.9175
  456MOL0     H62924   6.933  10.204   3.971  1.5560  0.0407 -0.1759
  456MOL0     H62925   7.723  10.411   4.071 -2.8981  3.3764  0.2842
  456MOL0     H62926   8.045  10.358   4.025 -3.2877  1.1986  2.1563
  456MOL0     H62927   7.923  10.269   4.102 -1.2504 -0.2185  0.0523
  456MOL0     H62928   8.003  10.196   3.965  2.6765 -1.0611  3.5916
  457MOL0     O62929   1.150   1.792   5.956 -0.3945  0.6818  1.0465
  457MOL0     C62930   1.155   1.841   6.064 -0.5997  0.3568  0.2998
  457MOL0     O62931   1.231   1.791   6.163  0.4331  0.3258 -1.2378
  457MOL0     C62932   1.279   1.666   6.142  0.1152  0.2514  0.2453
  457MOL0     C62933   1.217   1.568   6.232  0.1060 -0.2088 -0.3508
  457MOL0     C62934   1.271   1.436   6.223  1.5361 -0.2725  0.4483
  457MOL0     C62935   1.378   1.389   6.147 -0.9389 -1.0943  0.2168
  457MOL0     O62936   1.407   1.257   6.149 -0.8857 -0.2946  0.3588
  457MOL0     C62937   1.543   1.213   6.122 -0.2570 -0.1296  0.2960
  457MOL0     C62938   1.619   1.202   6.265 -0.1933  0.0218  0.2359
  457MOL0     C62939   1.776   1.203   6.267 -0.4400 -0.1629 -0.0174
  457MOL0     C62940   1.819   1.221   6.419  0.5291  0.8486  0.5864
  457MOL0     C62941   1.779   1.103   6.514 -0.0933  0.2978 -0.9148
  457MOL0     C62942   1.857   1.126   6.648 -0.2082 -0.6711 -0.3446
  457MOL0     C62943   1.912   0.996   6.711 -0.9102 -0.5110 -0.5138
  457MOL0     C62944   1.797   0.905   6.764  0.4414 -0.6445 -0.2045
  457MOL0     N62945   1.835   0.773   6.808  0.1443  0.3520 -0.6795
  457MOL0     C62946   1.938   0.742   6.892 -0.4081  0.2561 -0.7266
  457MOL0     C62947   1.925   0.606   6.907  1.0434 -0.6538  0.3560
  457MOL0     C62948   2.016   0.542   6.997  0.0089  0.9250 -0.5314
  457MOL0     C62949   1.940   0.478   7.119 -0.3029  0.5826 -0.0816
  457MOL0     C62950   1.892   0.580   7.223 -0.7393  0.3083  0.5566
  457MOL0     C62951   1.779   0.525   7.303  0.7365 -0.9667  0.5250
  457MOL0     O62952   1.680   0.445   7.240  0.5479  0.2216  0.3778
  457MOL0     C62953   1.564   0.505   7.208  0.7012  0.9180 -0.2942
  457MOL0     C62954   1.442   0.431   7.213 -0.3113  0.0343 -0.5386
  457MOL0     C62955   1.317   0.499   7.186 -1.1338  0.7817  0.1310
  457MOL0     C62956   1.192   0.426   7.217 -0.7401 -0.1996 -0.9163
  457MOL0     C62957   1.313   0.632   7.133 -0.0939  0.5259  0.2131
  457MOL0     C62958   1.192   0.715   7.100 -0.5788 -0.0013  0.4228
  457MOL0     O62959   1.075   0.693   7.164 -0.0743  0.0567 -0.1134
  457MOL0     C62960   0.951   0.761   7.137 -0.2144 -0.0968 -0.8706
  457MOL0     C62961   0.930   0.861   7.044  0.0446 -0.4543 -0.6565
  457MOL0     C62962   0.807   0.918   7.011  0.6779 -0.4076 -0.2212
  457MOL0     C62963   0.694   0.872   7.076  0.0029  0.0937 -0.1535
  457MOL0     O62964   0.566   0.925   7.046 -0.3522 -0.6092 -0.0039
  457MOL0     C62965   0.463   0.903   7.140 -0.3692  0.3577  0.0237
  457MOL0     C62966   0.336   0.976   7.098 -0.0246  0.2995  0.2660
  457MOL0     C62967   0.292   0.955   6.959  0.7709  0.5531  0.1490
  457MOL0     C62968   0.166   1.024   6.926  0.8527  0.0382  0.1072
  457MOL0     C62969   0.126   1.032   6.775  0.3379  0.1519  0.3631
  457MOL0     C62970   0.042   0.915   6.728 -0.5195  0.4229 -0.1081
  457MOL0     C62971  -0.096   0.922   6.768 -0.2305 -0.1147 -0.4868
  457MOL0     C62972  -0.185   0.817   6.706  1.0077  0.8302 -0.8154
  457MOL0    Cl62973  -0.347   0.820   6.753  0.3087 -0.0050 -0.0195
  457MOL0     C62974   0.709   0.770   7.174  0.5493  1.0271  0.6329
  457MOL0     C62975   0.835   0.716   7.203 -0.3410 -0.5290  0.9526
  457MOL0     O62976   1.216   0.809   7.027 -0.7002 -0.0339 -0.0094
  457MOL0     C62977   1.441   0.690   7.109  0.0055  0.6926 -0.4743
  457MOL0     C62978   1.557   0.629   7.149  0.5841  0.4224  0.4439
  457MOL0     N62979   1.821   0.561   6.831  0.1990 -0.4642 -0.5219
  457MOL0     N62980   1.772   0.660   6.772  0.8000 -0.3062  0.6428
  457MOL0     C62981   1.439   1.488   6.063 -0.1364  1.0273  0.8968
  457MOL0     C62982   1.394   1.625   6.067  0.4317  0.0431 -0.2100
  457MOL0     C62983   1.085   1.977   6.081 -0.8081 -0.4155 -0.4173
  457MOL0     C62984   1.072   2.011   6.216  0.0588 -0.1848 -0.6828
  457MOL0     C62985   1.007   2.136   6.242  0.2197 -0.0411  0.2901
  457MOL0     C62986   0.956   2.220   6.146  0.4279 -0.4782  0.2443
  457MOL0     O62987   0.907   2.338   6.195 -0.6868  0.1126  0.0363
  457MOL0     C62988   0.794   2.394   6.122 -0.6243 -0.1310 -1.1259
  457MOL0     C62989   0.790   2.542   6.137  0.0020 -0.0690 -0.3770
  457MOL0     C62990   0.797   2.588   6.281  0.0473 -0.2686 -0.6662
  457MOL0     C62991   0.675   2.546   6.372 -0.1566 -0.2858  0.8547
  457MOL0     C62992   0.711   2.582   6.510 -0.0702  0.0026  0.3128
  457MOL0     C62993   0.749   2.617   6.621 -0.1602  0.3112 -0.2395
  457MOL0     C62994   0.974   2.181   6.008 -0.4779  0.3649  0.4899
  457MOL0     C62995   1.030   2.062   5.981 -0.4591  0.0080  1.0678
  457MOL0     C62996   1.058   2.038   5.827 -0.0179  0.4754  0.5568
  457MOL0     H62997   1.144   1.603   6.304  1.7079 -1.1335  1.8618
  457MOL0     H62998   1.232   1.362   6.292  0.5800 -0.4278 -0.2289
  457MOL0     H62999   1.605   1.273   6.054  2.6432 -3.0499  0.1310
  457MOL0     H63000   1.545   1.114   6.076  0.3331 -0.0305  0.1013
  457MOL0     H63001   1.585   1.289   6.322  1.5426  0.7694  0.1914
  457MOL0     H63002   1.584   1.110   6.312  1.9307 -0.6505  0.6058
  457MOL0     H63003   1.824   1.115   6.224  0.0850  0.8845 -1.6291
  457MOL0     H63004   1.815   1.285   6.207  1.1364 -1.6566 -1.1127
  457MOL0     H63005   1.926   1.239   6.429  0.7087  0.5868 -0.6789
  457MOL0     H63006   1.768   1.309   6.459  0.2729  0.4025  1.2470
  457MOL0     H63007   1.816   1.009   6.472  1.4883 -0.3558  1.7369
  457MOL0     H63008   1.672   1.089   6.531  0.5195 -0.8914  2.8188
  457MOL0     H63009   1.943   1.193   6.634 -1.6583  1.0216 -1.5546
  457MOL0     H63010   1.800   1.196   6.711 -0.5245 -1.3051  0.0804
  457MOL0     H63011   1.971   1.024   6.798 -1.6144  1.5040 -0.6073
  457MOL0     H63012   1.975   0.937   6.645  1.3511 -1.8166  2.5982
  457MOL0     H63013   1.756   0.971   6.841  3.3934  2.0791 -0.7410
  457MOL0     H63014   1.719   0.895   6.689 -0.4968  0.9663  0.5020
  457MOL0     H63015   2.009   0.808   6.941  4.3195 -2.8328 -2.7645
  457MOL0     H63016   2.090   0.608   7.042  0.4785  0.5937 -0.8075
  457MOL0     H63017   2.062   0.462   6.938 -0.9264 -1.0180  1.2431
  457MOL0     H63018   1.862   0.417   7.073  0.0635  0.7804 -0.9882
  457MOL0     H63019   2.016   0.424   7.177 -1.3812  0.8285  1.6328
  457MOL0     H63020   1.965   0.609   7.299  2.1336  1.8906 -2.5470
  457MOL0     H63021   1.857   0.670   7.171 -0.2584 -0.3715 -1.0048
  457MOL0     H63022   1.826   0.459   7.377 -0.8509 -2.3640  0.3402
  457MOL0     H63023   1.729   0.609   7.353  0.2691 -0.8136 -0.1891
  457MOL0     H63024   1.445   0.330   7.254  3.2109  0.7769  1.4288
  457MOL0     H63025   1.115   0.447   7.142  0.3831 -0.8692 -2.3123
  457MOL0     H63026   1.154   0.465   7.312  2.2498  2.4675 -0.6668
  457MOL0     H63027   1.211   0.319   7.230 -2.6572 -0.4825 -0.1641
  457MOL0     H63028   1.017   0.903   6.996  2.8231 -3.2388  1.5690
  457MOL0     H63029   0.800   0.987   6.928  2.2184 -0.6241 -0.5645
  457MOL0     H63030   0.450   0.795   7.143  1.4967  0.0320 -1.3529
  457MOL0     H63031   0.492   0.942   7.238 -1.9408  1.2788  0.1590
  457MOL0     H63032   0.270   0.934   7.174 -0.1862  0.8433  0.4272
  457MOL0     H63033   0.341   1.083   7.119  1.5053  0.0578  1.3900
  457MOL0     H63034   0.275   0.848   6.944 -3.0024  1.3845 -3.2488
  457MOL0     H63035   0.360   0.989   6.880  1.7195  2.7962  1.8391
  457MOL0     H63036   0.166   1.126   6.965  0.4920  0.2313 -0.3819
  457MOL0     H63037   0.077   0.976   6.968 -0.5706  0.2627 -2.4841
  457MOL0     H63038   0.069   1.124   6.761 -2.1416 -1.5433 -1.6382
  457MOL0     H63039   0.221   1.032   6.720  0.1480  2.3374 -0.0216
  457MOL0     H63040   0.089   0.825   6.767 -0.6018  0.0088 -0.9316
  457MOL0     H63041   0.041   0.922   6.618  3.1223 -3.0964 -0.5952
  457MOL0     H63042  -0.132   1.021   6.739 -1.9610 -0.2339  1.0529
  457MOL0     H63043  -0.108   0.930   6.877 -2.4616 -0.4211 -0.6519
  457MOL0     H63044  -0.139   0.725   6.743  3.2165  2.3864  0.5384
  457MOL0     H63045  -0.176   0.820   6.597 -0.5277  1.3950 -0.9430
  457MOL0     H63046   0.628   0.734   7.236  0.9506 -0.4309  0.3304
  457MOL0     H63047   0.841   0.655   7.292 -4.8965 -0.5502  1.4332
  457MOL0     H63048   1.449   0.786   7.060 -2.3097 -0.1579 -2.7200
  457MOL0     H63049   1.643   0.694   7.133  0.7295  0.2546  0.5474
  457MOL0     H63050   1.529   1.458   6.011 -1.0518 -0.5028  0.1052
  457MOL0     H63051   1.448   1.710   6.028 -0.0231 -0.8104 -2.9203
  457MOL0     H63052   1.113   1.948   6.294  2.4024  1.5719 -0.3994
  457MOL0     H63053   0.972   2.177   6.336  0.3653 -0.2017  0.4154
  457MOL0     H63054   0.811   2.384   6.015  0.1824 -2.2831 -0.8507
  457MOL0     H63055   0.695   2.358   6.150 -0.3841 -1.7361 -2.2052
  457MOL0     H63056   0.699   2.589   6.101 -1.0216  1.2074  3.4325
  457MOL0     H63057   0.870   2.578   6.071 -0.0018 -1.3731 -1.1462
  457MOL0     H63058   0.886   2.546   6.330 -0.4295  0.4535  0.8830
  457MOL0     H63059   0.800   2.697   6.289  1.3168 -0.4121  1.7978
  457MOL0     H63060   0.639   2.443   6.361 -0.5862 -0.3393  2.4564
  457MOL0     H63061   0.581   2.599   6.354 -1.5387 -3.1611 -1.2350
  457MOL0     H63062   0.788   2.647   6.716 -0.5598 -1.7986  0.6660
  457MOL0     H63063   0.940   2.246   5.928 -1.5925 -2.0267 -1.0696
  457MOL0     H63064   1.163   2.010   5.814  0.3970  0.6815  2.9900
  457MOL0     H63065   0.994   1.952   5.803 -0.9746  0.9078  1.4760
  457MOL0     H63066   1.031   2.125   5.766  0.1867 -0.2545 -0.6012
  458MOL0     O63067   2.520   2.682   6.042 -0.1786 -0.0531 -0.1264
  458MOL0     C63068   2.551   2.793   6.073 -0.3489 -0.2921  0.4934
  458MOL0     O63069   2.514   2.900   6.003  0.4111  0.3046  0.1886
  458MOL0     C63070   2.394   2.898   5.936  0.1834  0.4579 -0.2795
  458MOL0     C63071   2.284   2.972   5.962  0.1290  0.1708 -0.4533
  458MOL0     C63072   2.165   2.968   5.891  0.0742  0.1651 -0.8316
  458MOL0     C63073   2.164   2.899   5.771 -0.4821  0.5432  0.1594
  458MOL0     O63074   2.047   2.899   5.691  0.1685  0.2654 -0.1129
  458MOL0     C63075   2.050   2.869   5.547  0.4709  0.2924  0.0513
  458MOL0     C63076   1.905   2.895   5.492 -0.9000  0.2700 -0.0542
  458MOL0     C63077   1.890   2.866   5.342  0.6227 -0.2693  0.1527
  458MOL0     C63078   1.917   2.987   5.257 -0.1495 -0.3208  0.6991
  458MOL0     C63079   1.923   2.943   5.113 -0.4567  0.2645 -1.1016
  458MOL0     C63080   1.932   3.059   5.016 -0.2037  0.4236  0.1133
  458MOL0     C63081   1.938   3.003   4.877  0.1654 -0.6449 -0.2431
  458MOL0     C63082   1.955   3.122   4.780 -0.4517  0.6683 -0.2861
  458MOL0     N63083   2.098   3.160   4.768 -0.3644 -0.0633  0.8919
  458MOL0     C63084   2.152   3.273   4.823 -0.2631 -0.6626  0.0958
  458MOL0     C63085   2.281   3.277   4.770  0.4334 -0.7532 -0.0179
  458MOL0     C63086   2.381   3.391   4.797  0.3614 -0.0792  0.4478
  458MOL0     C63087   2.458   3.356   4.923  0.7542  0.1538  0.5239
  458MOL0     C63088   2.557   3.251   4.884 -0.2226  0.0850  0.5075
  458MOL0     C63089   2.657   3.209   4.996  0.8692 -0.4580  0.9825
  458MOL0     O63090   2.762   3.117   4.951 -0.0246  0.6188  0.0846
  458MOL0     C63091   2.842   3.074   5.052  0.0807  0.1699 -0.3883
  458MOL0     C63092   2.856   3.131   5.179 -0.1946  0.8588 -0.3039
  458MOL0     C63093   2.949   3.085   5.282 -0.1971 -0.9778 -0.1767
  458MOL0     C63094   2.962   3.161   5.410 -0.3035  0.3149  0.3425
  458MOL0     C63095   3.041   2.985   5.238 -0.1897  0.2137 -0.3769
  458MOL0     C63096   3.145   2.933   5.324 -0.1081 -0.4048 -0.2956
  458MOL0     O63097   3.224   3.017   5.386  0.7287  0.0406 -0.1852
  458MOL0     C63098   3.292   2.980   5.498 -0.2624  0.5164  0.2269
  458MOL0     C63099   3.427   3.023   5.502  0.0479  0.0485 -0.3211
  458MOL0     C63100   3.503   2.995   5.617 -0.2023 -0.8536 -0.1453
  458MOL0     C63101   3.447   2.921   5.722  0.6362  0.5061 -0.9998
  458MOL0     O63102   3.528   2.887   5.819  0.0258  0.5316  0.3045
  458MOL0     C63103   3.498   2.775   5.906 -0.1338  0.7661  0.0062
  458MOL0     C63104   3.629   2.719   5.961 -0.5961 -0.5937 -0.1029
  458MOL0     C63105   3.609   2.644   6.079 -0.0477  0.6893 -0.3012
  458MOL0     C63106   3.753   2.588   6.118 -0.1002  0.1066  0.6827
  458MOL0     C63107   3.746   2.506   6.245 -0.3870 -0.5289  0.2206
  458MOL0     C63108   3.885   2.464   6.295  0.3204  0.1371  0.8538
  458MOL0     C63109   3.868   2.359   6.410  0.1492 -0.4043 -0.4583
  458MOL0     C63110   4.001   2.304   6.470 -0.2252 -0.0272  0.3729
  458MOL0    Cl63111   4.067   2.435   6.580  0.0112  0.0242 -0.4959
  458MOL0     C63112   3.307   2.888   5.718 -0.1217 -0.3965 -0.1545
  458MOL0     C63113   3.232   2.910   5.604  0.3335  0.1572 -0.2708
  458MOL0     O63114   3.153   2.814   5.337 -0.0423  0.9284  0.4484
  458MOL0     C63115   3.023   2.928   5.109 -0.4406 -0.6924 -0.1907
  458MOL0     C63116   2.933   2.964   5.021 -0.1492 -0.0080  0.2018
  458MOL0     N63117   2.298   3.171   4.684  0.4643 -0.4346  0.1762
  458MOL0     N63118   2.189   3.097   4.681  0.0373 -0.4951 -0.1546
  458MOL0     C63119   2.276   2.814   5.735  0.0964 -0.3153  0.0741
  458MOL0     C63120   2.384   2.822   5.821  0.0205  0.5566  0.4717
  458MOL0     C63121   2.622   2.818   6.198  0.2208 -0.1876 -0.0209
  458MOL0     C63122   2.635   2.710   6.290 -0.7984 -0.1366 -0.4023
  458MOL0     C63123   2.688   2.720   6.424  0.2276  0.4104  0.8647
  458MOL0     C63124   2.724   2.846   6.476  0.9436  0.0287  0.4706
  458MOL0     O63125   2.774   2.861   6.605 -0.1273  0.0863  0.2942
  458MOL0     C63126   2.824   2.985   6.647 -0.4475 -0.3657  0.8507
  458MOL0     C63127   2.877   2.983   6.796 -0.5930 -0.0812 -0.7515
  458MOL0     C63128   3.004   2.891   6.796 -0.1775  0.3285  0.0097
  458MOL0     C63129   3.101   2.927   6.912  0.3154 -0.2069 -0.3156
  458MOL0     C63130   3.207   3.025   6.863  0.8454 -0.4065  0.1348
  458MOL0     C63131   3.276   3.104   6.807 -0.5365 -0.7841 -0.6629
  458MOL0     C63132   2.709   2.955   6.377 -1.1069  0.6153 -0.7423
  458MOL0     C63133   2.665   2.946   6.251  0.3671  1.1892  0.2744
  458MOL0     C63134   2.670   3.075   6.180 -0.4981 -0.6300  1.1209
  458MOL0     H63135   2.291   3.036   6.049 -1.9949 -0.0036 -0.0997
  458MOL0     H63136   2.092   3.041   5.926  3.4384  2.5504  1.8486
  458MOL0     H63137   2.079   2.764   5.546  5.6753  1.2948  3.6635
  458MOL0     H63138   2.120   2.925   5.484  2.0410 -0.5911  0.9526
  458MOL0     H63139   1.836   2.842   5.559 -0.7100 -0.7087 -0.6206
  458MOL0     H63140   1.896   3.004   5.493  2.0630  0.6072 -1.3281
  458MOL0     H63141   1.963   2.789   5.316  1.4832 -0.0791  1.8616
  458MOL0     H63142   1.793   2.822   5.316  1.6126 -2.8243  0.4658
  458MOL0     H63143   1.828   3.050   5.268 -0.5150 -0.6259 -0.3893
  458MOL0     H63144   2.010   3.033   5.290  0.6382  2.3073 -4.2925
  458MOL0     H63145   1.833   2.888   5.085 -0.3051 -0.5598 -0.0233
  458MOL0     H63146   2.009   2.877   5.103  0.0461  0.9622 -1.5591
  458MOL0     H63147   1.846   3.126   5.026 -0.2940  0.1898  1.0241
  458MOL0     H63148   2.027   3.113   5.024  0.9425 -1.5097  0.2066
  458MOL0     H63149   1.847   2.946   4.856  0.4253  0.0208 -3.8230
  458MOL0     H63150   2.022   2.935   4.862  1.5848  1.4309 -2.4363
  458MOL0     H63151   1.912   3.091   4.685 -0.3316  1.7947 -0.7274
  458MOL0     H63152   1.892   3.209   4.802  0.7916  1.3042  0.9381
  458MOL0     H63153   2.097   3.344   4.885  1.7196 -0.7681  2.0973
  458MOL0     H63154   2.325   3.484   4.810  0.6729  0.3609 -1.1788
  458MOL0     H63155   2.440   3.419   4.709  0.2300  0.3196  0.4838
  458MOL0     H63156   2.518   3.437   4.965  1.0950 -1.2951  2.9773
  458MOL0     H63157   2.393   3.326   5.006  1.2787 -0.4907  0.7082
  458MOL0     H63158   2.509   3.163   4.842 -2.4199  1.3376  0.2147
  458MOL0     H63159   2.618   3.296   4.805 -1.7857  1.4201 -0.0014
  458MOL0     H63160   2.693   3.307   5.027  0.6037  0.1192 -0.4336
  458MOL0     H63161   2.592   3.164   5.071 -0.4358  1.7071  1.2313
  458MOL0     H63162   2.810   3.225   5.206 -1.3561 -0.6762  3.7418
  458MOL0     H63163   2.865   3.206   5.433 -0.2741 -1.0384  3.6184
  458MOL0     H63164   3.040   3.237   5.400  0.3055 -0.5198 -1.9842
  458MOL0     H63165   2.997   3.100   5.493  1.0502  2.7202  1.6656
  458MOL0     H63166   3.464   3.089   5.424 -2.3601  0.1624 -1.4711
  458MOL0     H63167   3.601   3.041   5.612 -2.1256  3.5543 -1.3892
  458MOL0     H63168   3.439   2.810   5.991 -0.5788 -1.2335  0.5918
  458MOL0     H63169   3.452   2.694   5.848  1.7161  0.7344 -1.4869
  458MOL0     H63170   3.686   2.657   5.892  0.9214  1.0901 -0.4373
  458MOL0     H63171   3.698   2.802   5.982 -0.5569 -0.8832  0.9672
  458MOL0     H63172   3.541   2.558   6.076  1.3226 -0.4235 -0.2812
  458MOL0     H63173   3.586   2.718   6.157  1.7486  0.9867 -0.0166
  458MOL0     H63174   3.841   2.653   6.117  1.0714 -1.3722 -1.7114
  458MOL0     H63175   3.775   2.518   6.037  0.5542 -0.7999  1.6211
  458MOL0     H63176   3.697   2.555   6.329  0.8365 -0.7739  1.1019
  458MOL0     H63177   3.698   2.411   6.219  0.8687 -1.3113  0.6764
  458MOL0     H63178   3.935   2.556   6.328 -2.8069  1.8044  1.3198
  458MOL0     H63179   3.942   2.414   6.216  0.8617  1.2588  0.5148
  458MOL0     H63180   3.807   2.271   6.390 -1.2348  0.2095  0.8632
  458MOL0     H63181   3.814   2.421   6.482 -2.4231 -1.1149 -1.6630
  458MOL0     H63182   4.064   2.279   6.385 -0.3291 -0.5776  0.4543
  458MOL0     H63183   3.987   2.214   6.530  1.7231 -0.1760  0.6542
  458MOL0     H63184   3.251   2.837   5.796 -0.9639  0.4342 -0.1945
  458MOL0     H63185   3.129   2.881   5.588  0.6055 -0.7009 -0.5486
  458MOL0     H63186   3.101   2.855   5.089  0.3163 -0.7452  2.6283
  458MOL0     H63187   2.929   2.907   4.929  1.5336 -1.0057  0.7046
  458MOL0     H63188   2.281   2.737   5.659 -0.4136 -0.7505  0.4713
  458MOL0     H63189   2.472   2.761   5.800 -1.1727 -1.5829  1.3603
  458MOL0     H63190   2.600   2.609   6.268 -4.2968  0.9516 -0.4077
  458MOL0     H63191   2.707   2.629   6.480 -0.7402  1.0377  2.2779
  458MOL0     H63192   2.898   3.026   6.577  2.2920 -2.7860  2.1317
  458MOL0     H63193   2.746   3.061   6.634  0.9729  0.7163 -3.2091
  458MOL0     H63194   2.805   2.936   6.864 -0.2643  0.3697 -0.0853
  458MOL0     H63195   2.901   3.083   6.831 -0.1485  0.0741 -1.4725
  458MOL0     H63196   2.976   2.785   6.804  0.4124 -0.0280 -2.0090
  458MOL0     H63197   3.045   2.899   6.695  1.2959  0.6434  0.6181
  458MOL0     H63198   3.147   2.836   6.952 -0.4366 -0.5646 -0.2364
  458MOL0     H63199   3.038   2.967   6.993 -1.8444  0.2013 -2.0938
  458MOL0     H63200   3.330   3.170   6.742 -0.9860 -1.0543 -1.3257
  458MOL0     H63201   2.736   3.054   6.413  1.9730  0.0447 -1.1441
  458MOL0     H63202   2.701   3.060   6.076  2.0640  0.8970  1.5868
  458MOL0     H63203   2.572   3.122   6.188  1.9129  5.2270  0.9273
  458MOL0     H63204   2.739   3.153   6.214  0.9260 -0.2556 -2.2148
  459MOL0     O63205   1.901   6.203   1.909 -0.8486 -0.0873  0.1561
  459MOL0     C63206   1.988   6.268   1.852 -0.3123 -0.0996  0.0179
  459MOL0     O63207   1.955   6.348   1.737 -0.0033  0.2371  0.1469
  459MOL0     C63208   1.823   6.393   1.711 -0.3544 -0.0721 -0.1471
  459MOL0     C63209   1.799   6.422   1.580 -0.3260 -0.4166 -0.2034
  459MOL0     C63210   1.685   6.483   1.541  0.8986  0.3911  0.1978
  459MOL0     C63211   1.571   6.474   1.630 -0.3420 -0.2302 -0.2227
  459MOL0     O63212   1.451   6.513   1.575  0.1122 -0.2053  0.5319
  459MOL0     C63213   1.336   6.427   1.592  0.2292 -0.3008 -0.4572
  459MOL0     C63214   1.235   6.503   1.682 -1.0594  0.4650  0.8145
  459MOL0     C63215   1.174   6.621   1.609 -0.2098 -0.1096  0.4993
  459MOL0     C63216   1.050   6.589   1.526  1.3515  0.3465  0.5512
  459MOL0     C63217   0.987   6.722   1.475  0.1705  0.7889  0.3817
  459MOL0     C63218   0.866   6.689   1.391  0.3173 -0.3128 -0.0876
  459MOL0     C63219   0.785   6.802   1.355  0.2777 -1.0736 -0.1523
  459MOL0     C63220   0.692   6.786   1.227 -0.6944 -0.6081  1.1396
  459MOL0     N63221   0.590   6.889   1.221 -0.4234  0.2006 -0.4628
  459MOL0     C63222   0.472   6.870   1.292  0.7126 -0.2997 -0.0338
  459MOL0     C63223   0.412   6.993   1.272 -0.3650 -0.0395 -0.7243
  459MOL0     C63224   0.285   7.044   1.332 -0.5089  0.4878  0.4217
  459MOL0     C63225   0.299   7.028   1.481 -0.4920 -0.4010 -0.3076
  459MOL0     C63226   0.418   7.105   1.542  0.3918 -0.6050  0.0231
  459MOL0     C63227   0.393   7.143   1.690  0.0120 -0.5578 -0.5895
  459MOL0     O63228   0.509   7.210   1.749  0.0382 -0.0135 -0.7448
  459MOL0     C63229   0.621   7.132   1.770 -0.4612  0.2771  0.0254
  459MOL0     C63230   0.734   7.164   1.704 -0.7285  1.1343 -0.7721
  459MOL0     C63231   0.854   7.086   1.730 -0.0934 -0.0511 -0.5644
  459MOL0     C63232   0.986   7.123   1.645  0.5772 -0.1439  0.4433
  459MOL0     C63233   0.851   6.992   1.839 -0.0160  0.3702 -0.9240
  459MOL0     C63234   0.971   6.905   1.873 -0.8769 -0.3230 -0.1496
  459MOL0     O63235   0.956   6.816   1.969 -0.0273  0.5658 -0.3715
  459MOL0     C63236   1.067   6.740   2.012 -0.6612 -0.3096  0.3087
  459MOL0     C63237   1.054   6.605   2.052 -0.0671 -0.0105  1.1871
  459MOL0     C63238   1.157   6.537   2.111 -0.4403 -0.1982 -0.5623
  459MOL0     C63239   1.279   6.597   2.133  0.2780 -0.4308 -0.0764
  459MOL0     O63240   1.380   6.515   2.181  0.1454  0.3541 -0.0900
  459MOL0     C63241   1.514   6.559   2.181  0.3406 -0.1949  0.1430
  459MOL0     C63242   1.610   6.451   2.202 -0.4569  0.7384  0.4970
  459MOL0     C63243   1.640   6.401   2.346 -0.5430 -0.9131 -0.6357
  459MOL0     C63244   1.738   6.285   2.355  0.1571 -0.1307 -0.2940
  459MOL0     C63245   1.788   6.257   2.498 -0.2271  0.2355  0.5052
  459MOL0     C63246   1.869   6.124   2.516  0.7526  0.2988 -0.9220
  459MOL0     C63247   1.780   5.998   2.523 -0.1524 -0.6589 -1.0337
  459MOL0     C63248   1.877   5.885   2.547  0.3176 -0.3161 -0.0095
  459MOL0    Cl63249   1.980   5.839   2.414  0.1379 -0.0217  0.1669
  459MOL0     C63250   1.293   6.739   2.112 -0.8155  0.1149  0.1908
  459MOL0     C63251   1.185   6.806   2.042 -0.6712  0.1369 -0.5695
  459MOL0     O63252   1.072   6.914   1.796  0.4007  0.5296 -0.5376
  459MOL0     C63253   0.739   6.972   1.911 -0.2965 -0.7056 -0.2986
  459MOL0     C63254   0.626   7.035   1.873  0.7115 -0.2206 -0.3330
  459MOL0     N63255   0.494   7.076   1.200 -0.5097 -0.1739  0.3059
  459MOL0     N63256   0.602   7.012   1.180  0.2464 -0.6496 -0.6592
  459MOL0     C63257   1.585   6.440   1.763  0.0077  0.8311  0.1444
  459MOL0     C63258   1.716   6.402   1.800  0.7251  0.2554  0.7064
  459MOL0     C63259   2.134   6.238   1.867  0.5984  0.2342 -0.5935
  459MOL0     C63260   2.219   6.295   1.776  0.7067  0.8846  1.0047
  459MOL0     C63261   2.357   6.278   1.783 -0.1223  0.1929 -0.2009
  459MOL0     C63262   2.413   6.222   1.895  1.8610  0.4675  0.1667
  459MOL0     O63263   2.547   6.223   1.910  0.8474  0.2624  0.7718
  459MOL0     C63264   2.598   6.351   1.953 -0.1120  0.2280  0.2106
  459MOL0     C63265   2.625   6.316   2.100  0.1114 -0.1329 -1.1638
  459MOL0     C63266   2.709   6.426   2.168  0.6170 -0.1180 -0.8079
  459MOL0     C63267   2.847   6.442   2.111 -0.4421  0.3746 -0.9186
  459MOL0     C63268   2.928   6.540   2.192  0.0394  0.0455  0.5937
  459MOL0     C63269   3.003   6.608   2.256  0.2243 -0.7210  0.2886
  459MOL0     C63270   2.329   6.170   1.994  0.1709  0.3266  0.5380
  459MOL0     C63271   2.192   6.173   1.979 -0.5352  0.5304 -0.0441
  459MOL0     C63272   2.108   6.111   2.091 -0.8473  0.2737 -0.6630
  459MOL0     H63273   1.875   6.411   1.503 -0.7998  0.8225 -0.8663
  459MOL0     H63274   1.671   6.509   1.437  0.1226  3.6120  0.9944
  459MOL0     H63275   1.370   6.333   1.637  0.6391  0.4004  0.7592
  459MOL0     H63276   1.285   6.407   1.498 -1.3909  0.3811  0.2315
  459MOL0     H63277   1.148   6.443   1.709 -2.2483  1.1200 -1.3324
  459MOL0     H63278   1.287   6.536   1.773  2.5975 -0.1205 -0.8915
  459MOL0     H63279   1.149   6.686   1.694  1.8786 -0.3092  1.3249
  459MOL0     H63280   1.245   6.676   1.546 -1.0139 -0.1909 -0.5171
  459MOL0     H63281   1.063   6.517   1.444  2.0675 -2.1614  2.7417
  459MOL0     H63282   0.978   6.534   1.588  2.9167 -1.4702  0.8184
  459MOL0     H63283   1.072   6.772   1.426  1.8100 -3.6189 -1.8543
  459MOL0     H63284   0.949   6.781   1.559  0.6456  4.1933 -1.6171
  459MOL0     H63285   0.907   6.643   1.301  0.5262 -1.8266  0.7369
  459MOL0     H63286   0.802   6.609   1.432  0.2814 -0.2512 -0.0224
  459MOL0     H63287   0.856   6.883   1.338  0.0321 -1.3222 -2.9016
  459MOL0     H63288   0.709   6.823   1.431  0.1871 -1.4384 -0.1388
  459MOL0     H63289   0.759   6.810   1.145 -1.1383 -0.4965  0.8067
  459MOL0     H63290   0.652   6.684   1.221 -1.5720 -0.4250  3.0607
  459MOL0     H63291   0.435   6.790   1.355  0.1158  0.5504  0.7103
  459MOL0     H63292   0.194   6.992   1.300 -1.0904  0.5638  1.8755
  459MOL0     H63293   0.272   7.149   1.303  0.8451 -0.2779 -3.5994
  459MOL0     H63294   0.213   7.073   1.531  0.7716 -0.1656  1.7868
  459MOL0     H63295   0.319   6.923   1.507 -2.9559 -1.6080 -2.8659
  459MOL0     H63296   0.505   7.040   1.533  1.8503  0.9747  1.7370
  459MOL0     H63297   0.446   7.196   1.488  0.3214 -1.5058 -1.5988
  459MOL0     H63298   0.300   7.199   1.698 -0.5821 -1.2973 -1.9509
  459MOL0     H63299   0.371   7.054   1.749  0.5969 -0.8130 -0.7488
  459MOL0     H63300   0.739   7.229   1.617  1.0133  0.5578 -1.1392
  459MOL0     H63301   0.977   7.222   1.601 -0.0353 -1.0233 -1.5063
  459MOL0     H63302   1.004   7.049   1.566 -0.8715  1.8312 -1.8881
  459MOL0     H63303   1.071   7.138   1.712 -0.0414  2.9367  0.6655
  459MOL0     H63304   0.970   6.545   2.017 -0.4319  0.5656  1.0546
  459MOL0     H63305   1.138   6.438   2.151 -1.2207  1.4879  3.8225
  459MOL0     H63306   1.537   6.600   2.082 -1.5712  1.7598  0.4390
  459MOL0     H63307   1.522   6.633   2.262 -4.4905  2.2880 -1.2506
  459MOL0     H63308   1.582   6.375   2.129  3.0934  1.7455 -2.1970
  459MOL0     H63309   1.704   6.496   2.167 -1.0104  0.9032 -0.7977
  459MOL0     H63310   1.541   6.376   2.384 -0.8284 -0.2567 -0.9230
  459MOL0     H63311   1.690   6.484   2.397  2.7981 -2.3171 -1.3601
  459MOL0     H63312   1.829   6.300   2.297  0.5445  0.4207  0.4487
  459MOL0     H63313   1.699   6.189   2.319  0.1738 -0.9867  1.8531
  459MOL0     H63314   1.852   6.341   2.525  1.1697 -0.4948 -0.4202
  459MOL0     H63315   1.699   6.257   2.562 -1.2951 -2.9331 -0.8106
  459MOL0     H63316   1.925   6.138   2.610  0.2714  1.4023 -0.7918
  459MOL0     H63317   1.937   6.104   2.432  1.5941 -1.0646  0.0266
  459MOL0     H63318   1.730   5.978   2.428  0.7023  0.7041 -1.8075
  459MOL0     H63319   1.705   5.994   2.603 -1.1018 -0.3029 -1.8954
  459MOL0     H63320   1.818   5.799   2.580  0.2245 -0.5362 -0.7358
  459MOL0     H63321   1.937   5.913   2.634 -1.6424 -1.0385  1.6411
  459MOL0     H63322   1.383   6.799   2.126  0.3845 -1.6167  0.2048
  459MOL0     H63323   1.196   6.912   2.026 -1.7688  0.0873 -1.8371
  459MOL0     H63324   0.739   6.910   2.000  0.7141 -1.0432 -0.5233
  459MOL0     H63325   0.533   7.025   1.928  0.9798 -1.4594 -0.0636
  459MOL0     H63326   1.503   6.427   1.834 -0.0766  1.2568  0.1302
  459MOL0     H63327   1.736   6.384   1.906 -1.1282 -1.3419  0.8333
  459MOL0     H63328   2.192   6.334   1.678  0.2311 -2.9536 -0.5731
  459MOL0     H63329   2.421   6.321   1.707  1.3405 -1.5338  0.0007
  459MOL0     H63330   2.687   6.373   1.893 -0.3187  1.8581  0.4699
  459MOL0     H63331   2.533   6.439   1.948  1.7004  1.6900  1.1449
  459MOL0     H63332   2.696   6.233   2.094  0.7024  0.3330 -0.6980
  459MOL0     H63333   2.532   6.303   2.156 -0.7171  1.7019 -2.0370
  459MOL0     H63334   2.652   6.518   2.161 -0.9455 -1.0869 -1.2797
  459MOL0     H63335   2.720   6.389   2.271  0.3972 -0.1598 -0.8001
  459MOL0     H63336   2.845   6.482   2.009  2.4571  3.1077 -0.0850
  459MOL0     H63337   2.911   6.353   2.112  0.2747  0.8752  0.5565
  459MOL0     H63338   3.068   6.667   2.317  1.6572 -0.5427 -1.3380
  459MOL0     H63339   2.384   6.130   2.078  1.9478  0.0076 -0.7154
  459MOL0     H63340   2.176   6.060   2.160  1.0037 -0.2548 -2.7690
  459MOL0     H63341   2.057   6.187   2.152 -0.1884  0.6378 -0.5552
  459MOL0     H63342   2.036   6.043   2.046  1.2573 -1.2267 -1.9402
  460MOL0     O63343   4.331   1.045   5.301 -0.3008  0.6321 -0.7304
  460MOL0     C63344   4.291   1.090   5.192  0.2870  0.4961 -0.4353
  460MOL0     O63345   4.355   1.187   5.122 -0.0474  0.4860 -0.1623
  460MOL0     C63346   4.461   1.249   5.186  0.0666  0.1892  0.8887
  460MOL0     C63347   4.429   1.384   5.227 -0.3953  0.5891  0.2337
  460MOL0     C63348   4.532   1.467   5.272  0.5302 -0.1241  0.4105
  460MOL0     C63349   4.666   1.416   5.289  0.4811  0.8116  0.0651
  460MOL0     O63350   4.767   1.490   5.353 -0.1378  0.0524 -0.5797
  460MOL0     C63351   4.902   1.473   5.293  0.7471 -0.8801 -0.9949
  460MOL0     C63352   5.025   1.511   5.381 -0.3623 -0.1078 -0.4770
  460MOL0     C63353   4.998   1.631   5.478  0.1943 -0.0117  0.5376
  460MOL0     C63354   4.922   1.746   5.418 -0.2755 -0.0954 -0.2032
  460MOL0     C63355   4.949   1.876   5.494 -0.5380  0.0709 -1.0404
  460MOL0     C63356   4.889   1.993   5.430  0.3161  0.2597  0.8305
  460MOL0     C63357   4.740   1.985   5.410 -0.6679  0.9403  0.3559
  460MOL0     C63358   4.679   2.120   5.364 -0.4741  0.2002 -0.2199
  460MOL0     N63359   4.534   2.099   5.350 -1.1539 -1.0097 -0.6547
  460MOL0     C63360   4.474   2.004   5.267 -0.2088  0.6350 -0.6648
  460MOL0     C63361   4.345   2.024   5.287  0.1090 -0.4102 -0.2943
  460MOL0     C63362   4.236   1.940   5.235  0.1377 -0.3384  0.2146
  460MOL0     C63363   4.177   1.863   5.359 -0.0813  0.4523 -0.0413
  460MOL0     C63364   4.273   1.762   5.430 -1.1342 -0.6740  0.4068
  460MOL0     C63365   4.200   1.639   5.478 -0.7457  0.4075 -0.6355
  460MOL0     O63366   4.156   1.571   5.355  0.6929 -0.2910 -0.7804
  460MOL0     C63367   4.062   1.474   5.371  0.3523  0.8480 -0.6127
  460MOL0     C63368   3.998   1.435   5.492  0.2526  0.1511 -0.5027
  460MOL0     C63369   3.911   1.324   5.496 -0.1256 -0.4061  0.2622
  460MOL0     C63370   3.854   1.279   5.631 -0.2030  0.0267 -1.1267
  460MOL0     C63371   3.881   1.254   5.380  0.3426 -0.3875  0.4210
  460MOL0     C63372   3.801   1.139   5.381 -0.0632 -0.6032 -0.0956
  460MOL0     O63373   3.685   1.145   5.306 -0.9700 -1.0283  0.0613
  460MOL0     C63374   3.609   1.033   5.307  0.5794  0.2808  0.4023
  460MOL0     C63375   3.538   0.996   5.421  0.7003 -0.1173 -0.1087
  460MOL0     C63376   3.447   0.889   5.411  0.2519  0.5727  0.1544
  460MOL0     C63377   3.416   0.828   5.292 -1.5967 -0.2094 -0.5468
  460MOL0     O63378   3.317   0.733   5.278 -0.6101 -0.5004  0.3791
  460MOL0     C63379   3.340   0.616   5.354  0.2970 -0.4632 -0.0248
  460MOL0     C63380   3.236   0.501   5.338 -0.6928  0.0025  0.5930
  460MOL0     C63381   3.093   0.550   5.367 -1.4320 -0.2088 -0.6561
  460MOL0     C63382   2.983   0.486   5.279 -0.4144  0.1260  0.2072
  460MOL0     C63383   2.838   0.508   5.330 -0.2791 -0.5993  0.1480
  460MOL0     C63384   2.765   0.624   5.256 -0.2290  0.2860  0.0576
  460MOL0     C63385   2.651   0.667   5.338  0.6296 -0.8307 -0.0243
  460MOL0     C63386   2.559   0.761   5.265  0.7113 -0.4334  0.4262
  460MOL0    Cl63387   2.426   0.663   5.181  0.1365  0.4599 -0.2580
  460MOL0     C63388   3.479   0.869   5.171 -0.1492 -0.3623 -0.5185
  460MOL0     C63389   3.576   0.972   5.183  0.4460  0.5565 -0.4100
  460MOL0     O63390   3.842   1.049   5.448  0.1453 -0.1688 -0.4687
  460MOL0     C63391   3.930   1.306   5.262 -0.0467  0.8893 -0.1048
  460MOL0     C63392   4.022   1.405   5.255 -0.3571 -0.2355  1.1354
  460MOL0     N63393   4.333   2.120   5.391 -0.8075 -0.3522 -0.0433
  460MOL0     N63394   4.443   2.183   5.411  0.0152 -0.7174 -0.7121
  460MOL0     C63395   4.685   1.279   5.260 -0.5269  0.3776 -0.2708
  460MOL0     C63396   4.588   1.195   5.204 -0.1601 -0.2105  0.1566
  460MOL0     C63397   4.160   1.027   5.143  0.4256 -0.7448 -0.2235
  460MOL0     C63398   4.073   0.980   5.242  0.3323 -0.1990  1.0619
  460MOL0     C63399   3.963   0.901   5.204 -0.8138  0.3463  0.1223
  460MOL0     C63400   3.945   0.873   5.068 -0.7725  0.0690 -0.4234
  460MOL0     O63401   3.845   0.786   5.031 -0.0706 -0.0888  0.9291
  460MOL0     C63402   3.874   0.664   4.965  0.5408 -0.3620 -0.0589
  460MOL0     C63403   3.747   0.614   4.899  0.4045 -0.2117  1.2979
  460MOL0     C63404   3.658   0.530   5.001  0.0761  0.8320  0.6768
  460MOL0     C63405   3.518   0.509   4.952  0.3986  0.0936 -0.7731
  460MOL0     C63406   3.525   0.400   4.860 -0.4631  0.4730  0.4357
  460MOL0     C63407   3.550   0.300   4.792  0.2952  0.3833  0.6193
  460MOL0     C63408   4.029   0.929   4.970  0.1611 -0.3822  0.4466
  460MOL0     C63409   4.133   1.011   5.005 -0.7664 -0.1831 -0.7821
  460MOL0     C63410   4.228   1.036   4.892  0.0512 -0.1569 -0.2508
  460MOL0     H63411   4.329   1.426   5.218 -0.6117 -0.1747 -1.3219
  460MOL0     H63412   4.505   1.572   5.282  3.3691  0.8646 -1.1080
  460MOL0     H63413   4.915   1.525   5.197  0.3762 -1.9852 -1.6520
  460MOL0     H63414   4.929   1.371   5.264  1.6096 -0.3703 -2.1212
  460MOL0     H63415   5.048   1.415   5.428  1.3014  0.1679 -0.6793
  460MOL0     H63416   5.109   1.542   5.318  0.3131 -0.6200  0.1615
  460MOL0     H63417   4.934   1.572   5.545  1.0047 -0.6466  0.7726
  460MOL0     H63418   5.083   1.662   5.540  0.2813 -3.4282  2.3535
  460MOL0     H63419   4.941   1.754   5.310 -2.0177 -0.9035 -0.6162
  460MOL0     H63420   4.815   1.726   5.430 -0.7602  2.4485  0.3573
  460MOL0     H63421   5.056   1.898   5.499 -0.9942  2.9519 -2.0064
  460MOL0     H63422   4.900   1.871   5.591 -0.6372 -2.2743 -1.1694
  460MOL0     H63423   4.915   2.079   5.491 -0.9816 -0.4589  2.4590
  460MOL0     H63424   4.932   2.002   5.329 -3.0135 -1.4787 -0.9278
  460MOL0     H63425   4.686   1.943   5.496  0.9397 -0.1882  0.8645
  460MOL0     H63426   4.729   1.919   5.324 -0.8017 -0.2123  1.2244
  460MOL0     H63427   4.696   2.199   5.437 -1.4492 -1.4306  1.8764
  460MOL0     H63428   4.726   2.130   5.265  3.8663 -1.1833  1.4577
  460MOL0     H63429   4.523   1.930   5.203 -0.8417  0.5779 -1.0865
  460MOL0     H63430   4.283   1.868   5.168  1.8978 -0.1434  1.1899
  460MOL0     H63431   4.165   2.006   5.185  0.1477 -1.0952 -0.8468
  460MOL0     H63432   4.134   1.932   5.432 -0.4326  0.8544 -0.6142
  460MOL0     H63433   4.089   1.806   5.328 -0.3027  0.3811  0.6911
  460MOL0     H63434   4.347   1.722   5.361 -2.3151 -1.2588 -0.5698
  460MOL0     H63435   4.324   1.810   5.514 -0.0425 -1.7659  0.3955
  460MOL0     H63436   4.270   1.573   5.530  0.4963  1.0173 -1.4771
  460MOL0     H63437   4.125   1.681   5.545 -1.2521  2.3716 -2.3523
  460MOL0     H63438   4.019   1.486   5.585 -2.1602  1.8262 -0.7942
  460MOL0     H63439   3.749   1.306   5.615 -0.2395  0.6041 -0.0191
  460MOL0     H63440   3.893   1.324   5.723 -2.6491 -1.4800  0.7730
  460MOL0     H63441   3.860   1.172   5.655  0.0312 -0.2716 -2.4534
  460MOL0     H63442   3.545   1.042   5.519  0.6511 -0.8253  0.2371
  460MOL0     H63443   3.390   0.857   5.497 -0.0184  1.2940  0.2541
  460MOL0     H63444   3.438   0.576   5.327 -0.5349 -1.3467 -1.9105
  460MOL0     H63445   3.335   0.641   5.460 -2.7807  0.6415 -0.3309
  460MOL0     H63446   3.255   0.464   5.237  0.5325  0.6012  0.5881
  460MOL0     H63447   3.258   0.412   5.398 -1.6839 -0.1599  0.7446
  460MOL0     H63448   3.075   0.657   5.359  0.6645  0.1011 -1.8087
  460MOL0     H63449   3.081   0.524   5.473  0.2330  0.5620 -0.2529
  460MOL0     H63450   3.002   0.378   5.284 -2.9865 -0.3280  2.3631
  460MOL0     H63451   3.011   0.516   5.178 -1.4297  3.1752  0.7210
  460MOL0     H63452   2.790   0.412   5.308 -0.2538 -0.5190 -0.2605
  460MOL0     H63453   2.837   0.527   5.438  3.1728  1.5725 -0.0561
  460MOL0     H63454   2.727   0.593   5.158  0.8019  1.2669 -0.6714
  460MOL0     H63455   2.828   0.712   5.244 -0.0215  0.0795 -0.3888
  460MOL0     H63456   2.691   0.713   5.429 -2.5772 -0.4282  1.3028
  460MOL0     H63457   2.593   0.585   5.382  0.3854 -1.8150 -2.0596
  460MOL0     H63458   2.613   0.825   5.195  0.1634  0.4084  0.7525
  460MOL0     H63459   2.507   0.823   5.338  0.9695  1.3065 -0.8047
  460MOL0     H63460   3.440   0.826   5.080  3.3502 -0.0486 -2.3568
  460MOL0     H63461   3.626   0.993   5.089  0.8504 -3.7389 -1.3684
  460MOL0     H63462   3.903   1.253   5.171 -0.3875 -0.5596  0.8029
  460MOL0     H63463   4.069   1.434   5.162  3.8536  1.2106  3.4518
  460MOL0     H63464   4.776   1.224   5.281 -0.8256  0.2642  0.7956
  460MOL0     H63465   4.606   1.090   5.184  0.8046  0.0089 -0.2177
  460MOL0     H63466   4.086   0.996   5.349  1.3829  2.1139  0.6311
  460MOL0     H63467   3.898   0.859   5.280  0.5075 -0.8956  0.6255
  460MOL0     H63468   3.951   0.688   4.892  0.1382  1.9354  0.1996
  460MOL0     H63469   3.912   0.583   5.029  0.2008 -2.2017 -2.0575
  460MOL0     H63470   3.777   0.546   4.819  1.1116  1.3736  0.1850
  460MOL0     H63471   3.694   0.695   4.847 -0.3411 -0.0560  2.2640
  460MOL0     H63472   3.708   0.436   5.025 -1.2626 -0.9181 -2.7594
  460MOL0     H63473   3.647   0.575   5.100  4.0258  0.1349  1.5877
  460MOL0     H63474   3.486   0.603   4.907  0.8712 -0.2388 -1.8312
  460MOL0     H63475   3.446   0.501   5.034  0.5740 -2.0033 -0.7625
  460MOL0     H63476   3.578   0.215   4.732 -0.9911  0.2657  0.1428
  460MOL0     H63477   4.026   0.890   4.869  3.3532 -1.3126  0.6016
  460MOL0     H63478   4.224   1.145   4.876 -0.4996 -0.3740 -1.8197
  460MOL0     H63479   4.327   1.005   4.926 -0.8303  0.3245  3.0513
  460MOL0     H63480   4.217   0.984   4.796 -1.5285 -2.1675  0.9444
  461MOL0     O63481  10.725  11.480   5.523 -0.2453  0.0936  0.7730
  461MOL0     C63482  10.678  11.368   5.506 -0.3823 -0.5442 -0.5387
  461MOL0     O63483  10.670  11.299   5.379 -0.1721  0.3556 -0.6103
  461MOL0     C63484  10.721  11.358   5.269  0.0553 -0.2749 -0.0456
  461MOL0     C63485  10.690  11.489   5.228  0.4585  0.1521  0.2806
  461MOL0     C63486  10.748  11.550   5.115 -0.6141 -0.0835 -0.3707
  461MOL0     C63487  10.844  11.481   5.042  0.7885  0.8258 -0.3641
  461MOL0     O63488  10.898  11.553   4.936 -0.4701  0.4929  0.5269
  461MOL0     C63489  10.998  11.488   4.860 -0.5292  0.7223 -0.4373
  461MOL0     C63490  11.044  11.584   4.743 -0.7051  0.0859  0.0096
  461MOL0     C63491  10.941  11.588   4.629 -0.4155  0.9308  0.3773
  461MOL0     C63492  10.966  11.696   4.529  0.0944 -0.2575  0.1197
  461MOL0     C63493  11.104  11.707   4.467 -0.1031 -0.1216  0.2587
  461MOL0     C63494  11.110  11.602   4.351  1.0564  0.6465 -0.4948
  461MOL0     C63495  11.241  11.610   4.270  0.4050 -0.7880 -0.3259
  461MOL0     C63496  11.368  11.604   4.359 -0.3839  0.7096  0.0366
  461MOL0     N63497  11.480  11.572   4.281  0.3433 -0.3726 -0.0294
  461MOL0     C63498  11.531  11.650   4.183 -0.7748 -0.1489  0.1060
  461MOL0     C63499  11.644  11.587   4.141  0.3587  0.2320 -0.0510
  461MOL0     C63500  11.714  11.638   4.012  0.2897  0.0382 -0.0581
  461MOL0     C63501  11.866  11.626   4.000 -0.2091  0.0367 -0.5217
  461MOL0     C63502  11.922  11.479   3.984  0.1563 -0.2398 -0.7011
  461MOL0     C63503  12.076  11.477   3.994  0.2252 -0.4351  0.1375
  461MOL0     O63504  12.140  11.564   3.899 -0.3436  0.0655 -0.4094
  461MOL0     C63505  12.264  11.608   3.934 -0.5769 -0.7354 -0.9022
  461MOL0     C63506  12.315  11.720   3.869 -0.4352 -0.3271  0.1664
  461MOL0     C63507  12.440  11.776   3.893 -0.8633  0.1199  0.0673
  461MOL0     C63508  12.477  11.897   3.819 -0.7283  0.8171  0.2215
  461MOL0     C63509  12.515  11.714   4.001  1.1660 -0.4608  0.2057
  461MOL0     C63510  12.635  11.771   4.056 -0.8893  0.0293 -0.7698
  461MOL0     O63511  12.649  11.777   4.192 -0.5400 -0.5960 -0.4389
  461MOL0     C63512  12.758  11.838   4.246  1.0593 -0.0977  0.1133
  461MOL0     C63513  12.884  11.791   4.202 -0.3238 -0.0001 -0.9260
  461MOL0     C63514  12.994  11.844   4.282 -0.1593  0.9217  0.0125
  461MOL0     C63515  12.977  11.928   4.394  0.1976 -0.1775 -0.4060
  461MOL0     O63516  13.085  11.972   4.467  0.8616  0.2236  0.9978
  461MOL0     C63517  13.168  11.873   4.519 -0.3588 -0.0544  0.0385
  461MOL0     C63518  13.190  11.888   4.669 -0.7280  0.1699 -0.6282
  461MOL0     C63519  13.287  12.002   4.697 -0.8037  0.7697 -0.3182
  461MOL0     C63520  13.306  12.039   4.846 -0.6180  0.1958  0.0494
  461MOL0     C63521  13.406  12.147   4.866  0.2321 -0.4936  0.1512
  461MOL0     C63522  13.554  12.107   4.829  0.7446 -0.8588 -0.2820
  461MOL0     C63523  13.668  12.189   4.891  0.3388  0.3390 -0.5691
  461MOL0     C63524  13.804  12.181   4.809 -0.3724  0.1755  0.0622
  461MOL0    Cl63525  13.858  12.010   4.772  0.0429  0.4114  0.0723
  461MOL0     C63526  12.850  11.972   4.427  0.0106  0.4596  1.0462
  461MOL0     C63527  12.740  11.929   4.351  0.1666  0.2123  0.1602
  461MOL0     O63528  12.724  11.810   3.978 -0.5711  0.4885  0.0389
  461MOL0     C63529  12.471  11.599   4.064 -0.3707  0.2783  0.0557
  461MOL0     C63530  12.348  11.546   4.030 -0.8358 -1.2123 -0.1742
  461MOL0     N63531  11.646  11.466   4.203 -0.5520  0.0780 -0.0250
  461MOL0     N63532  11.546  11.455   4.280 -0.1381  0.5777  0.2614
  461MOL0     C63533  10.876  11.347   5.082  0.2156 -0.3366 -1.5679
  461MOL0     C63534  10.814  11.284   5.198 -0.5810 -0.4319 -0.5263
  461MOL0     C63535  10.616  11.315   5.626  0.7870 -0.1175 -0.6850
  461MOL0     C63536  10.586  11.405   5.738  0.8089  0.0687 -0.0656
  461MOL0     C63537  10.530  11.364   5.864 -0.6051 -0.2392  0.2834
  461MOL0     C63538  10.499  11.225   5.879 -0.0856  1.1738 -1.1237
  461MOL0     O63539  10.463  11.172   6.006 -0.4422 -0.2153  0.3140
  461MOL0     C63540  10.491  11.255   6.123 -0.0645 -0.5270  0.2040
  461MOL0     C63541  10.485  11.170   6.249 -0.1190 -0.5740 -0.9493
  461MOL0     C63542  10.550  11.245   6.374  0.1062 -0.3559  0.5849
  461MOL0     C63543  10.476  11.191   6.500  0.2040  0.5978  0.0392
  461MOL0     C63544  10.526  11.071   6.574  0.4544  0.1760  0.3627
  461MOL0     C63545  10.541  10.968   6.641 -0.1293 -0.9737 -0.2167
  461MOL0     C63546  10.511  11.143   5.776 -1.0236  0.2156  0.8361
  461MOL0     C63547  10.562  11.182   5.650  0.5989  0.5672  0.1921
  461MOL0     C63548  10.546  11.093   5.537  0.4429 -0.5779  0.0267
  461MOL0     H63549  10.618  11.538   5.293  0.9443 -0.7346  1.5239
  461MOL0     H63550  10.720  11.653   5.091  2.5008  0.7771 -0.7888
  461MOL0     H63551  10.961  11.392   4.824  0.8106 -0.7279  1.8187
  461MOL0     H63552  11.077  11.448   4.924 -1.2255 -2.0279 -1.1896
  461MOL0     H63553  11.072  11.684   4.776  1.2833 -0.6498  0.6435
  461MOL0     H63554  11.130  11.531   4.700  0.3648 -0.5544  2.7143
  461MOL0     H63555  10.934  11.491   4.577  1.2808  0.5623  0.7482
  461MOL0     H63556  10.843  11.609   4.671 -1.8244 -0.3437 -2.0743
  461MOL0     H63557  10.889  11.683   4.453 -0.6704 -1.1532  1.0171
  461MOL0     H63558  10.955  11.785   4.592  1.4261  0.3589 -0.4701
  461MOL0     H63559  11.174  11.702   4.551  0.6398  1.3460 -0.2311
  461MOL0     H63560  11.109  11.808   4.427 -0.8421 -0.7553 -1.5409
  461MOL0     H63561  11.103  11.498   4.384  2.5112  0.2403 -1.3710
  461MOL0     H63562  11.033  11.620   4.276 -0.9689  0.1190  1.3495
  461MOL0     H63563  11.250  11.705   4.216 -0.6022 -0.2039  0.4928
  461MOL0     H63564  11.227  11.538   4.188 -4.4276  0.7141 -1.1699
  461MOL0     H63565  11.396  11.693   4.416 -0.2248  0.0395  1.0301
  461MOL0     H63566  11.348  11.519   4.424  0.0894 -0.1343 -0.8856
  461MOL0     H63567  11.488  11.743   4.147  0.1017 -0.1723 -1.0710
  461MOL0     H63568  11.701  11.747   4.016  0.4539  0.0975 -1.0111
  461MOL0     H63569  11.655  11.590   3.934 -2.6590  0.5532  1.6832
  461MOL0     H63570  11.891  11.681   3.909 -0.1232  2.4405  0.8880
  461MOL0     H63571  11.908  11.666   4.093  3.2660 -2.6003 -0.7412
  461MOL0     H63572  11.889  11.416   4.066 -4.0170  1.7973 -0.5794
  461MOL0     H63573  11.877  11.439   3.892 -0.7526  0.1707 -0.4472
  461MOL0     H63574  12.100  11.499   4.098 -2.0211  1.6829  0.3139
  461MOL0     H63575  12.115  11.376   3.981 -2.3398 -1.5018  0.2126
  461MOL0     H63576  12.245  11.750   3.792 -1.0183 -1.1689  0.3540
  461MOL0     H63577  12.507  11.889   3.714 -1.1000  1.4822  0.0526
  461MOL0     H63578  12.558  11.951   3.870 -0.9728  2.7850 -1.3259
  461MOL0     H63579  12.401  11.975   3.827  0.5851  1.9461  3.0589
  461MOL0     H63580  12.897  11.723   4.118 -0.7676  2.3106 -3.0030
  461MOL0     H63581  13.096  11.809   4.267  1.4480  4.7042  1.1110
  461MOL0     H63582  13.131  11.771   4.506 -0.4575  0.1135 -1.1002
  461MOL0     H63583  13.262  11.882   4.463  0.3053  0.8240  1.2660
  461MOL0     H63584  13.092  11.920   4.706 -0.9743  2.1567 -2.7260
  461MOL0     H63585  13.214  11.802   4.731  1.3369  1.0742 -0.0980
  461MOL0     H63586  13.259  12.085   4.631 -2.2845 -0.1730 -0.9437
  461MOL0     H63587  13.376  11.966   4.646 -1.2812  1.0640 -1.3883
  461MOL0     H63588  13.332  11.949   4.901 -1.2960 -1.3279 -1.9971
  461MOL0     H63589  13.206  12.067   4.882 -0.7376  0.5810 -0.5599
  461MOL0     H63590  13.373  12.235   4.810  0.8225  1.2547  2.3711
  461MOL0     H63591  13.396  12.179   4.970 -0.8888  0.0624 -0.1130
  461MOL0     H63592  13.566  12.108   4.720 -0.3815  0.9203 -0.4275
  461MOL0     H63593  13.567  12.003   4.858  0.7085 -0.4154  1.4117
  461MOL0     H63594  13.695  12.164   4.994  1.7706  1.0118 -0.7578
  461MOL0     H63595  13.647  12.296   4.893  2.0850  0.7972 -2.5309
  461MOL0     H63596  13.889  12.228   4.859  0.9939 -2.7767  0.7026
  461MOL0     H63597  13.785  12.222   4.710  0.4424 -2.7491 -1.4140
  461MOL0     H63598  12.837  12.048   4.503  3.2075  2.7955 -0.4842
  461MOL0     H63599  12.640  11.966   4.371  0.0883  1.1920 -1.7927
  461MOL0     H63600  12.529  11.559   4.147 -2.3945  0.3960  1.6121
  461MOL0     H63601  12.334  11.455   4.088  0.8178 -1.9144 -0.7979
  461MOL0     H63602  10.963  11.299   5.039  1.4326 -0.1715  0.5604
  461MOL0     H63603  10.836  11.180   5.221  4.0026  0.0942 -1.5419
  461MOL0     H63604  10.618  11.509   5.739  0.7023  0.1655 -2.2508
  461MOL0     H63605  10.518  11.447   5.933 -1.7153 -0.3592  0.2587
  461MOL0     H63606  10.596  11.284   6.122 -0.3631  0.8864  2.3610
  461MOL0     H63607  10.438  11.351   6.130 -1.0131 -0.9589 -0.7454
  461MOL0     H63608  10.533  11.073   6.233  2.1461  0.2575  0.3352
  461MOL0     H63609  10.378  11.148   6.262  0.2331 -1.5008  0.7422
  461MOL0     H63610  10.656  11.218   6.378  0.3829  0.8296  1.7532
  461MOL0     H63611  10.535  11.353   6.365 -1.6821 -0.4822  1.6016
  461MOL0     H63612  10.370  11.174   6.479  0.4629 -5.4248  1.8195
  461MOL0     H63613  10.492  11.266   6.578  1.2055  0.6546 -0.1966
  461MOL0     H63614  10.563  10.876   6.690  1.5323 -0.7509 -0.4960
  461MOL0     H63615  10.474  11.041   5.781  1.3866 -0.8740 -1.4398
  461MOL0     H63616  10.514  10.998   5.580 -2.2024 -0.5866 -1.7436
  461MOL0     H63617  10.466  11.133   5.474  1.6138  0.3196 -0.9643
  461MOL0     H63618  10.641  11.084   5.483 -1.3515  2.0186 -3.9831
  462MOL0     O63619   5.616  11.195   6.675 -1.0367 -0.0924  0.3524
  462MOL0     C63620   5.609  11.099   6.754 -0.0137  0.6523  0.8773
  462MOL0     O63621   5.702  11.082   6.846 -0.0582  0.3805 -0.4828
  462MOL0     C63622   5.826  11.141   6.853  0.1777  1.2302  0.0783
  462MOL0     C63623   5.886  11.154   6.977 -0.4964  0.6013 -0.4781
  462MOL0     C63624   6.020  11.209   6.985  0.3824 -0.2991  0.6660
  462MOL0     C63625   6.092  11.244   6.868 -0.1707 -0.2922  0.1222
  462MOL0     O63626   6.223  11.289   6.864  0.5032  0.1352  0.9139
  462MOL0     C63627   6.275  11.321   6.986 -0.4568 -1.0540 -1.0416
  462MOL0     C63628   6.406  11.395   6.962 -0.2201  0.6337 -1.0622
  462MOL0     C63629   6.392  11.536   6.909 -0.3801  0.1375  0.6145
  462MOL0     C63630   6.367  11.559   6.762  0.4408 -0.0474 -0.6043
  462MOL0     C63631   6.337  11.706   6.739 -0.1039  0.5170  0.6986
  462MOL0     C63632   6.341  11.734   6.583  0.7982  0.7057 -0.0461
  462MOL0     C63633   6.303  11.874   6.557  0.5258 -1.0744 -0.3510
  462MOL0     C63634   6.149  11.906   6.563  1.0899  0.5622  0.9314
  462MOL0     N63635   6.130  12.056   6.554  0.4362 -0.7363  0.0973
  462MOL0     C63636   6.138  12.138   6.439 -0.6578 -0.3357  0.1129
  462MOL0     C63637   6.180  12.264   6.485  0.5206  0.3213  0.2322
  462MOL0     C63638   6.224  12.381   6.404  0.3726 -0.1926 -0.6912
  462MOL0     C63639   6.307  12.335   6.289 -0.5737 -0.4937  0.7638
  462MOL0     C63640   6.439  12.274   6.336  0.0114 -0.0285  0.2397
  462MOL0     C63641   6.513  12.196   6.234  0.0027 -0.1829 -0.4750
  462MOL0     O63642   6.637  12.145   6.277  0.5280  0.4236  0.2762
  462MOL0     C63643   6.733  12.152   6.177 -0.1603 -0.7326  0.6126
  462MOL0     C63644   6.815  12.264   6.152  1.0380  0.8627 -0.3081
  462MOL0     C63645   6.928  12.252   6.071  0.8060  0.5424 -0.0009
  462MOL0     C63646   7.022  12.373   6.084  0.2633  0.0245  0.5495
  462MOL0     C63647   6.958  12.130   6.007  0.5034  0.0487  0.0654
  462MOL0     C63648   7.070  12.112   5.913 -0.2099 -0.2536  0.3021
  462MOL0     O63649   7.083  11.976   5.876 -0.8728 -0.4930  0.2094
  462MOL0     C63650   7.162  11.934   5.771 -0.1075 -0.3491  0.3260
  462MOL0     C63651   7.167  11.997   5.649 -0.0726  0.4871 -0.7338
  462MOL0     C63652   7.251  11.945   5.548  0.6297 -0.0981  0.3405
  462MOL0     C63653   7.324  11.824   5.562 -1.0951 -0.1415 -0.2957
  462MOL0     O63654   7.394  11.783   5.453  0.6184  0.4650 -0.3219
  462MOL0     C63655   7.421  11.645   5.446 -0.2299  0.4427  1.1937
  462MOL0     C63656   7.508  11.609   5.318  1.1586  0.2382 -0.7708
  462MOL0     C63657   7.437  11.519   5.217 -0.4042  0.2055 -0.1943
  462MOL0     C63658   7.508  11.503   5.083  0.0535 -0.4820 -0.7746
  462MOL0     C63659   7.406  11.452   4.978 -0.8709  0.1540 -0.1774
  462MOL0     C63660   7.487  11.405   4.856 -0.6719  0.3109 -0.3723
  462MOL0     C63661   7.414  11.307   4.768  0.2078 -0.7225 -0.5139
  462MOL0     C63662   7.490  11.267   4.645 -0.5024 -0.1128 -0.1663
  462MOL0    Cl63663   7.397  11.157   4.539  0.4172  0.5728 -0.2886
  462MOL0     C63664   7.317  11.757   5.685 -0.5327  0.5336 -0.4396
  462MOL0     C63665   7.244  11.816   5.788  0.0720 -0.3171 -0.7820
  462MOL0     O63666   7.138  12.206   5.860  0.2609 -0.1611 -0.0982
  462MOL0     C63667   6.868  12.020   6.029 -0.7339 -0.0031 -1.4681
  462MOL0     C63668   6.758  12.038   6.112 -0.3655  0.3245  0.5938
  462MOL0     N63669   6.179  12.254   6.626  0.0334  0.5397 -0.7904
  462MOL0     N63670   6.169  12.132   6.663  0.7402 -0.1530 -0.3330
  462MOL0     C63671   6.028  11.227   6.741 -0.3613 -0.3318 -0.4149
  462MOL0     C63672   5.899  11.179   6.738  0.4379  0.1087  0.4343
  462MOL0     C63673   5.498  10.994   6.748 -0.2272  0.7821  0.6490
  462MOL0     C63674   5.492  10.901   6.852  0.1497  0.6967 -0.5301
  462MOL0     C63675   5.389  10.800   6.847 -0.2788 -0.5241 -0.1635
  462MOL0     C63676   5.293  10.800   6.747  0.0750 -0.3294 -1.3184
  462MOL0     O63677   5.189  10.709   6.739 -0.1039  0.1632  0.3030
  462MOL0     C63678   5.133  10.644   6.851 -0.0099  0.5322 -0.0034
  462MOL0     C63679   4.976  10.624   6.845  0.2683  0.4963 -0.4764
  462MOL0     C63680   4.934  10.547   6.965  0.6902  0.6956 -0.8035
  462MOL0     C63681   4.797  10.483   6.943  0.6945  0.0056 -0.4205
  462MOL0     C63682   4.750  10.399   7.059  0.3535  1.1292  0.4176
  462MOL0     C63683   4.705  10.337   7.153 -0.1370 -0.1814  0.3180
  462MOL0     C63684   5.305  10.884   6.644 -0.2728 -0.0398 -0.1298
  462MOL0     C63685   5.405  10.980   6.642  0.1056 -0.1066 -0.1001
  462MOL0     C63686   5.408  11.064   6.522  0.1643  0.1151 -0.2188
  462MOL0     H63687   5.823  11.118   7.057 -0.5892 -1.1586 -1.2722
  462MOL0     H63688   6.068  11.210   7.082  2.3957 -1.3252 -0.2681
  462MOL0     H63689   6.294  11.231   7.046 -1.5542 -0.6586 -0.0706
  462MOL0     H63690   6.215  11.388   7.049  2.3478 -1.4732  2.4230
  462MOL0     H63691   6.456  11.398   7.059 -1.0738  0.5696 -0.6123
  462MOL0     H63692   6.473  11.336   6.898  1.1959  0.3395  0.6210
  462MOL0     H63693   6.312  11.589   6.960 -1.6933 -3.8553  3.1503
  462MOL0     H63694   6.489  11.576   6.940  0.3465 -1.7803  0.9649
  462MOL0     H63695   6.446  11.511   6.703 -0.0858 -0.6550 -0.8321
  462MOL0     H63696   6.284  11.497   6.728  1.6450 -0.8509 -2.2494
  462MOL0     H63697   6.412  11.762   6.797  3.3738 -0.6027 -2.3597
  462MOL0     H63698   6.236  11.717   6.781 -0.9725 -1.7367 -0.6440
  462MOL0     H63699   6.438  11.715   6.536  0.2557 -0.2497 -0.8037
  462MOL0     H63700   6.263  11.669   6.542 -0.0199  0.0794  2.3265
  462MOL0     H63701   6.333  11.907   6.457  2.2317  0.1916  0.5205
  462MOL0     H63702   6.366  11.933   6.624 -1.0742  0.4535 -0.1380
  462MOL0     H63703   6.087  11.857   6.486 -0.6367  0.8953  2.0535
  462MOL0     H63704   6.095  11.873   6.652 -2.2141  2.2943 -0.2296
  462MOL0     H63705   6.121  12.120   6.334 -1.0840  2.5174 -0.3794
  462MOL0     H63706   6.274  12.461   6.460 -0.3656 -0.2288  0.0350
  462MOL0     H63707   6.132  12.431   6.370 -0.7366  0.4536  2.8569
  462MOL0     H63708   6.255  12.262   6.227 -0.0918  0.1432 -0.4326
  462MOL0     H63709   6.341  12.414   6.222  3.0972  0.6045  3.5565
  462MOL0     H63710   6.507  12.359   6.343  0.0102  0.1102 -1.2358
  462MOL0     H63711   6.431  12.213   6.427  2.4357 -0.9645 -0.0953
  462MOL0     H63712   6.448  12.119   6.191 -2.4402  2.1693 -1.3066
  462MOL0     H63713   6.529  12.272   6.157 -1.7663  1.1896  0.4305
  462MOL0     H63714   6.787  12.350   6.213 -0.7919  1.6764 -2.1718
  462MOL0     H63715   7.038  12.407   5.981 -0.2143 -3.1190 -0.6604
  462MOL0     H63716   7.112  12.338   6.134  0.4935  2.1230  1.7469
  462MOL0     H63717   6.988  12.455   6.149  2.2299  1.0856  0.2929
  462MOL0     H63718   7.132  12.099   5.635 -0.7613  0.0912 -2.0520
  462MOL0     H63719   7.238  11.981   5.447  3.2637 -0.1082 -0.0593
  462MOL0     H63720   7.479  11.617   5.534  1.3968 -0.2121 -0.0288
  462MOL0     H63721   7.330  11.585   5.454 -0.3313  0.4822  0.3929
  462MOL0     H63722   7.550  11.696   5.267 -0.8480  0.9649 -1.2867
  462MOL0     H63723   7.589  11.546   5.356 -1.4230 -1.6999  2.0184
  462MOL0     H63724   7.338  11.563   5.200  0.1977  1.0546 -1.5959
  462MOL0     H63725   7.415  11.420   5.260 -1.9012 -0.6832 -2.7361
  462MOL0     H63726   7.592  11.434   5.096 -0.0391 -0.6826 -1.2178
  462MOL0     H63727   7.537  11.605   5.054 -2.4096  0.4669 -0.1732
  462MOL0     H63728   7.355  11.365   5.021 -0.7047  0.7763  1.3285
  462MOL0     H63729   7.335  11.529   4.946 -0.9389 -0.0535 -0.5356
  462MOL0     H63730   7.576  11.348   4.887 -2.3578 -2.3094 -0.0925
  462MOL0     H63731   7.517  11.487   4.791 -0.2299 -1.1735 -2.1146
  462MOL0     H63732   7.323  11.360   4.735 -0.3083 -0.2015  1.6100
  462MOL0     H63733   7.387  11.214   4.819 -4.1262  0.3466 -0.4298
  462MOL0     H63734   7.581  11.217   4.679 -3.0798 -2.3990  4.2420
  462MOL0     H63735   7.515  11.360   4.592 -0.1500 -0.4129 -0.5348
  462MOL0     H63736   7.373  11.667   5.709 -2.9362 -0.5061  1.5982
  462MOL0     H63737   7.228  11.771   5.886  0.9742  0.9569 -0.0155
  462MOL0     H63738   6.882  11.923   5.982  0.5871 -1.9206  2.4910
  462MOL0     H63739   6.692  11.954   6.134  0.4658  0.0813  2.4047
  462MOL0     H63740   6.079  11.284   6.663  0.2136  2.7397  1.9833
  462MOL0     H63741   5.861  11.155   6.639 -0.2688 -0.0678  0.7402
  462MOL0     H63742   5.555  10.897   6.940  0.2181  0.6175 -0.5821
  462MOL0     H63743   5.382  10.727   6.927 -3.3089 -0.8424 -0.6134
  462MOL0     H63744   5.181  10.546   6.857 -0.4783  0.0537 -2.7580
  462MOL0     H63745   5.161  10.707   6.935  0.0323 -0.4835  0.7705
  462MOL0     H63746   4.953  10.580   6.748  0.0624 -0.4896  0.0083
  462MOL0     H63747   4.918  10.717   6.838  1.3935  1.1824 -1.0399
  462MOL0     H63748   5.000  10.464   6.990  0.6860  0.3085 -2.0563
  462MOL0     H63749   4.932  10.603   7.060  1.4123 -1.6159  0.6473
  462MOL0     H63750   4.783  10.422   6.853  0.1496 -1.1695  0.4356
  462MOL0     H63751   4.731  10.570   6.938  1.7756  0.9884  1.3051
  462MOL0     H63752   4.679  10.290   7.246  2.7362 -0.4810  1.0810
  462MOL0     H63753   5.228  10.878   6.568 -0.0575 -0.4403 -0.3198
  462MOL0     H63754   5.503  11.066   6.469  1.3523 -2.0175  1.6335
  462MOL0     H63755   5.345  11.018   6.445 -0.1036 -3.9894  2.1475
  462MOL0     H63756   5.377  11.164   6.556 -0.8248 -1.2898  3.5948
  463MOL0     O63757   9.065   6.731   9.711 -0.7688  0.5909  0.5169
  463MOL0     C63758   9.037   6.628   9.655  0.0178  0.6232 -0.6168
  463MOL0     O63759   9.123   6.524   9.615  0.2410 -0.0905  0.8328
  463MOL0     C63760   9.260   6.523   9.624  0.4153 -0.0305 -0.5433
  463MOL0     C63761   9.351   6.625   9.642  0.1588  0.1842 -0.8444
  463MOL0     C63762   9.487   6.602   9.629  0.1980 -0.6028 -0.2235
  463MOL0     C63763   9.539   6.478   9.583 -0.3263 -0.0512  0.4293
  463MOL0     O63764   9.674   6.442   9.576  0.6602 -0.3127 -0.5460
  463MOL0     C63765   9.772   6.518   9.631 -0.1741 -0.2060  0.1156
  463MOL0     C63766   9.905   6.441   9.645  1.2968  0.2824 -0.4938
  463MOL0     C63767  10.021   6.499   9.726  0.7188 -1.1671 -0.4933
  463MOL0     C63768  10.132   6.396   9.744  1.1239  0.5319  0.0680
  463MOL0     C63769  10.248   6.440   9.832 -0.2305 -0.6892  0.1220
  463MOL0     C63770  10.347   6.329   9.832 -0.3825  0.0271  0.3886
  463MOL0     C63771  10.417   6.327   9.690 -0.7723 -0.3066 -0.1175
  463MOL0     C63772  10.571   6.348   9.696  0.3482 -0.4015 -0.5335
  463MOL0     N63773  10.613   6.460   9.777 -0.8160  0.1743 -0.5379
  463MOL0     C63774  10.615   6.590   9.746  0.2882 -0.2083 -0.3536
  463MOL0     C63775  10.688   6.650   9.841  0.3701  0.3565  0.0051
  463MOL0     C63776  10.704   6.798   9.867 -0.1244  0.0976 -0.2084
  463MOL0     C63777  10.756   6.876   9.743  0.4192  0.8336  0.7625
  463MOL0     C63778  10.756   7.029   9.791 -0.1738  0.4636  0.3307
  463MOL0     C63779  10.855   7.057   9.904  0.0836  0.4449 -0.1464
  463MOL0     O63780  10.845   7.186   9.967  0.7518  0.9307  0.7752
  463MOL0     C63781  10.899   7.293   9.906  0.1737  0.5414 -0.0778
  463MOL0     C63782  10.905   7.406   9.984 -1.3051  0.2236 -0.0168
  463MOL0     C63783  10.963   7.526   9.932  0.1013 -0.3195  0.3484
  463MOL0     C63784  10.973   7.646  10.027 -0.2081 -0.8609  0.8278
  463MOL0     C63785  11.025   7.526   9.804  0.1692 -0.2588  0.5014
  463MOL0     C63786  11.067   7.646   9.722  0.7128  0.0875  0.4134
  463MOL0     O63787  11.126   7.615   9.602 -0.3007  0.2040  0.3608
  463MOL0     C63788  11.154   7.719   9.521  0.3319  0.3847  0.3415
  463MOL0     C63789  11.277   7.751   9.464  0.0472 -0.0837 -0.3386
  463MOL0     C63790  11.287   7.846   9.361 -0.0409 -0.4550 -1.0124
  463MOL0     C63791  11.176   7.907   9.305  0.2928 -0.6366  0.5286
  463MOL0     O63792  11.199   8.003   9.209 -0.1392 -0.2242  0.2028
  463MOL0     C63793  11.103   8.082   9.147  0.0070 -0.4689 -1.0213
  463MOL0     C63794  11.040   8.002   9.036  0.3954 -0.2376  0.7847
  463MOL0     C63795  10.914   8.083   8.992  0.0564 -0.8205 -1.1015
  463MOL0     C63796  10.829   7.997   8.894  0.2382  0.0050 -0.3322
  463MOL0     C63797  10.698   8.073   8.859 -0.4407 -0.2948 -0.3672
  463MOL0     C63798  10.616   7.996   8.756  0.3672  0.1790  0.8227
  463MOL0     C63799  10.581   8.088   8.634  0.5473  0.0781 -0.6135
  463MOL0     C63800  10.489   8.021   8.534  1.0543 -0.3597 -0.5505
  463MOL0    Cl63801  10.559   7.880   8.459  0.2861  0.2199  0.3840
  463MOL0     C63802  11.052   7.878   9.363 -0.3329 -0.3449  0.2847
  463MOL0     C63803  11.047   7.783   9.465 -0.3435 -1.4357 -0.2054
  463MOL0     O63804  11.051   7.762   9.761  0.4333 -0.0725  0.5004
  463MOL0     C63805  11.031   7.405   9.736  0.1852 -0.6185 -0.1024
  463MOL0     C63806  10.966   7.296   9.780 -0.8230  0.4351  0.3349
  463MOL0     N63807  10.727   6.546   9.929 -0.6210 -0.9667  0.7792
  463MOL0     N63808  10.682   6.435   9.890  0.3825 -0.1435 -0.0695
  463MOL0     C63809   9.447   6.376   9.550 -0.0259 -0.0544  0.0271
  463MOL0     C63810   9.308   6.400   9.572  0.2247  0.1156 -0.2625
  463MOL0     C63811   8.888   6.607   9.633 -0.6652  0.7573 -0.1329
  463MOL0     C63812   8.856   6.488   9.576 -0.6521  0.9887 -0.3536
  463MOL0     C63813   8.730   6.458   9.533  0.3388 -0.2806  0.2910
  463MOL0     C63814   8.626   6.535   9.558 -0.1733 -0.5513  0.3442
  463MOL0     O63815   8.503   6.488   9.513  0.3434 -0.2265 -0.0674
  463MOL0     C63816   8.381   6.570   9.530 -0.1709  0.5333  0.0171
  463MOL0     C63817   8.333   6.587   9.676 -0.3310  0.3571  0.9510
  463MOL0     C63818   8.307   6.445   9.741 -0.8193 -1.1237  0.0333
  463MOL0     C63819   8.204   6.348   9.667 -0.3481  0.2713 -0.9848
  463MOL0     C63820   8.078   6.410   9.648 -0.5244  0.2760  1.1027
  463MOL0     C63821   7.984   6.473   9.604  0.1793  0.8276 -0.0907
  463MOL0     C63822   8.656   6.665   9.616  0.2943  0.1159  0.1913
  463MOL0     C63823   8.786   6.701   9.660 -0.4940 -0.4025  0.0880
  463MOL0     C63824   8.795   6.838   9.720  1.1936 -0.7390 -0.4676
  463MOL0     H63825   9.316   6.726   9.664  3.3044  2.2081 -4.0058
  463MOL0     H63826   9.551   6.685   9.656 -0.9322  0.4815 -0.8086
  463MOL0     H63827   9.743   6.554   9.731 -0.2367  1.9860 -0.6349
  463MOL0     H63828   9.785   6.606   9.567 -1.0079  1.3739  1.9754
  463MOL0     H63829   9.885   6.341   9.685 -0.1124 -0.2398 -2.3439
  463MOL0     H63830   9.947   6.420   9.545 -0.0939  0.0644 -1.0516
  463MOL0     H63831  10.065   6.583   9.673 -2.0265  1.1678  0.6541
  463MOL0     H63832   9.975   6.546   9.813  2.0451  1.8563 -1.3011
  463MOL0     H63833  10.090   6.312   9.801  1.4869 -2.1648 -3.3258
  463MOL0     H63834  10.156   6.359   9.644 -0.3765 -0.5772  0.0892
  463MOL0     H63835  10.219   6.469   9.933 -0.2794 -0.5786  0.0763
  463MOL0     H63836  10.288   6.529   9.783 -3.7227  0.6075 -0.6645
  463MOL0     H63837  10.416   6.341   9.916  1.2452 -1.5356 -0.6484
  463MOL0     H63838  10.306   6.230   9.853 -2.4080 -0.4741 -4.6559
  463MOL0     H63839  10.377   6.401   9.621  3.4537  0.9158 -1.6049
  463MOL0     H63840  10.402   6.230   9.641 -2.0188  0.1731 -0.6998
  463MOL0     H63841  10.614   6.255   9.733  0.4545 -0.8974 -1.8442
  463MOL0     H63842  10.601   6.365   9.592 -0.7873  0.8212 -0.6841
  463MOL0     H63843  10.559   6.634   9.664  0.1342 -2.6633 -1.6693
  463MOL0     H63844  10.761   6.806   9.960 -1.0754 -0.8755  0.4798
  463MOL0     H63845  10.607   6.838   9.896 -1.5173 -1.7563 -2.0718
  463MOL0     H63846  10.851   6.838   9.704 -0.6515 -0.5505 -0.6227
  463MOL0     H63847  10.686   6.869   9.659  0.2708 -0.8545  0.9968
  463MOL0     H63848  10.785   7.084   9.701 -0.6182  3.1271  1.7132
  463MOL0     H63849  10.661   7.062   9.833  0.4226  0.9274  1.3655
  463MOL0     H63850  10.843   6.986   9.986 -1.6717  0.2048 -0.5797
  463MOL0     H63851  10.959   7.035   9.877 -0.2762 -0.3638 -0.9394
  463MOL0     H63852  10.848   7.397  10.075 -1.2619 -2.8242 -0.1704
  463MOL0     H63853  10.959   7.609  10.129 -3.5302  0.4193  0.9384
  463MOL0     H63854  10.903   7.727  10.007  0.3748 -1.2653 -3.9628
  463MOL0     H63855  11.075   7.684  10.025  0.3752 -2.3780 -0.2635
  463MOL0     H63856  11.370   7.703   9.491  0.2551  0.7529  0.5132
  463MOL0     H63857  11.384   7.864   9.314  0.5226  1.3521  0.6971
  463MOL0     H63858  11.027   8.117   9.218 -1.4399 -2.0850 -1.6809
  463MOL0     H63859  11.157   8.164   9.100  2.9671 -0.2478  2.3806
  463MOL0     H63860  11.108   7.980   8.954 -2.5165 -2.1280 -1.3550
  463MOL0     H63861  11.008   7.904   9.073 -2.5400 -0.4409 -1.8140
  463MOL0     H63862  10.935   8.178   8.942 -5.0099  1.2486  0.0903
  463MOL0     H63863  10.860   8.106   9.084  0.0022 -3.1989 -0.4674
  463MOL0     H63864  10.801   7.900   8.935  0.3619 -0.3084 -0.9725
  463MOL0     H63865  10.884   7.978   8.802 -0.9213 -0.0019 -1.0483
  463MOL0     H63866  10.635   8.092   8.947  0.3861  3.3939 -0.4039
  463MOL0     H63867  10.728   8.170   8.818  1.8130 -1.8249 -2.6259
  463MOL0     H63868  10.524   7.951   8.795 -0.6090  1.6151  0.2948
  463MOL0     H63869  10.678   7.910   8.731  0.8662  0.9766 -0.7912
  463MOL0     H63870  10.678   8.105   8.587 -0.4074  1.3166 -2.2453
  463MOL0     H63871  10.540   8.182   8.671  2.3779 -0.5198  3.5015
  463MOL0     H63872  10.468   8.087   8.449  2.6002  0.7638 -0.1021
  463MOL0     H63873  10.391   7.990   8.572 -0.1144  0.8659 -2.3629
  463MOL0     H63874  10.960   7.926   9.333  0.9692  1.9574 -0.2577
  463MOL0     H63875  10.949   7.758   9.505 -0.8481  0.9526  0.2065
  463MOL0     H63876  11.089   7.395   9.645 -1.5997  0.7514 -1.4653
  463MOL0     H63877  10.959   7.210   9.715 -0.7811  0.9138 -0.3235
  463MOL0     H63878   9.495   6.286   9.514  0.5456  1.0923 -2.2895
  463MOL0     H63879   9.244   6.315   9.551  0.1773  0.2326 -0.5970
  463MOL0     H63880   8.932   6.418   9.543  1.2806  3.1733 -0.7966
  463MOL0     H63881   8.712   6.361   9.487  0.9933 -0.6587  0.8150
  463MOL0     H63882   8.401   6.671   9.493  2.5530  0.0670  0.0293
  463MOL0     H63883   8.295   6.518   9.485  0.1644 -2.8606  2.8471
  463MOL0     H63884   8.242   6.647   9.679 -0.6181 -0.0439  0.3817
  463MOL0     H63885   8.417   6.643   9.720  0.0044 -0.0083  0.7786
  463MOL0     H63886   8.405   6.398   9.725  1.0036  2.5467 -0.6578
  463MOL0     H63887   8.277   6.461   9.845  1.3219 -0.2827  0.5762
  463MOL0     H63888   8.188   6.261   9.731  0.2799  1.7612  1.3093
  463MOL0     H63889   8.227   6.325   9.563 -0.7504  3.2146 -1.8264
  463MOL0     H63890   7.911   6.544   9.572 -1.1453 -0.1298  0.6909
  463MOL0     H63891   8.568   6.728   9.614 -1.5627 -2.3044  0.9985
  463MOL0     H63892   8.725   6.850   9.804  0.7812 -0.5694 -0.8344
  463MOL0     H63893   8.897   6.860   9.751  0.8474  0.2619  0.0222
  463MOL0     H63894   8.786   6.919   9.647 -0.5501 -1.5914 -1.2619
  464MOL0     O63895   1.241  10.806   2.364  0.5748 -1.0656  0.6983
  464MOL0     C63896   1.352  10.853   2.345 -1.1043 -0.3457  0.5085
  464MOL0     O63897   1.406  10.896   2.222 -0.9763 -0.1522  0.2316
  464MOL0     C63898   1.335  10.913   2.105  0.5860  0.6276 -0.0171
  464MOL0     C63899   1.210  10.984   2.106  0.1162 -0.9262  0.4857
  464MOL0     C63900   1.136  10.995   1.985 -0.1395 -0.8964  0.5101
  464MOL0     C63901   1.192  10.953   1.867  0.9266 -0.3066 -0.0899
  464MOL0     O63902   1.125  10.962   1.742 -0.2103  0.0830  0.0261
  464MOL0     C63903   0.981  10.967   1.743 -0.0740 -0.0513 -0.1881
  464MOL0     C63904   0.945  11.119   1.705 -0.5897 -0.9870  0.1542
  464MOL0     C63905   0.974  11.155   1.556  0.4834  0.1039  0.0748
  464MOL0     C63906   0.918  11.295   1.537  0.4080 -0.3837 -0.0628
  464MOL0     C63907   1.006  11.405   1.598 -0.2647  0.5587  0.7761
  464MOL0     C63908   1.110  11.462   1.495  0.0858  0.5649 -0.1345
  464MOL0     C63909   1.215  11.556   1.562  0.7207 -1.2369  0.7200
  464MOL0     C63910   1.276  11.637   1.446 -0.5237 -0.6470  0.0913
  464MOL0     N63911   1.379  11.732   1.491 -0.4272  0.4722 -0.0266
  464MOL0     C63912   1.363  11.847   1.569 -0.3104 -0.2588 -0.2768
  464MOL0     C63913   1.484  11.898   1.581  1.1792  0.1355  0.4994
  464MOL0     C63914   1.523  12.021   1.669 -0.8088 -0.4195  0.4760
  464MOL0     C63915   1.456  12.151   1.608  0.6122  0.8611 -0.1920
  464MOL0     C63916   1.512  12.179   1.476  0.1352 -0.7241  0.3387
  464MOL0     C63917   1.431  12.292   1.415  0.9628  0.3944  0.1660
  464MOL0     O63918   1.439  12.415   1.489  0.4987 -0.0258 -0.4613
  464MOL0     C63919   1.541  12.506   1.458 -0.2953  0.2121  0.5816
  464MOL0     C63920   1.647  12.478   1.369  0.4483 -0.2548  0.6100
  464MOL0     C63921   1.734  12.583   1.325 -1.4003  0.5036 -1.1354
  464MOL0     C63922   1.843  12.556   1.224  0.3483 -0.8925 -0.1574
  464MOL0     C63923   1.719  12.711   1.380  0.3824  0.2603  0.3295
  464MOL0     C63924   1.798  12.822   1.342  0.9604 -0.1057 -0.8653
  464MOL0     O63925   1.935  12.822   1.359  0.3435  1.2141 -0.3417
  464MOL0     C63926   2.024  12.919   1.320 -0.5622  0.1154 -0.5579
  464MOL0     C63927   1.998  13.054   1.293 -0.0649  0.1686 -0.3073
  464MOL0     C63928   2.095  13.144   1.253 -0.3585  0.1660 -0.4086
  464MOL0     C63929   2.221  13.090   1.220  0.1757  0.0968 -0.1637
  464MOL0     O63930   2.312  13.161   1.144 -0.3456  0.0179 -0.4019
  464MOL0     C63931   2.300  13.303   1.145 -0.2758  0.0256  0.0137
  464MOL0     C63932   2.419  13.359   1.061 -0.7639 -0.2081  1.0058
  464MOL0     C63933   2.543  13.351   1.152 -0.3241 -0.1844  0.0894
  464MOL0     C63934   2.673  13.407   1.094 -0.8357 -0.7865 -0.0942
  464MOL0     C63935   2.662  13.561   1.057 -0.2140  1.0494  0.4619
  464MOL0     C63936   2.805  13.613   1.047  0.1626  0.1073 -0.8204
  464MOL0     C63937   2.798  13.724   0.941 -0.2965  0.0026 -0.3726
  464MOL0     C63938   2.923  13.821   0.933  0.2068  0.5185  0.1790
  464MOL0    Cl63939   2.924  13.936   1.073 -0.1600 -0.4890  0.5213
  464MOL0     C63940   2.251  12.950   1.247 -0.8359 -0.0657  1.0041
  464MOL0     C63941   2.150  12.864   1.300  0.1179  0.5740  0.3387
  464MOL0     O63942   1.729  12.922   1.315  0.2647  0.2421 -0.1939
  464MOL0     C63943   1.615  12.735   1.470 -0.4039 -0.6861  0.0251
  464MOL0     C63944   1.529  12.636   1.513  0.1775  0.0435  1.2928
  464MOL0     N63945   1.577  11.812   1.534 -0.3902 -0.2398  0.0326
  464MOL0     N63946   1.513  11.715   1.484 -0.6441  0.0874  0.1890
  464MOL0     C63947   1.306  10.874   1.866  0.0390 -1.2565  0.0497
  464MOL0     C63948   1.373  10.860   1.984 -0.3447 -0.5280 -0.2534
  464MOL0     C63949   1.451  10.850   2.454  1.0649 -0.1956 -0.4419
  464MOL0     C63950   1.584  10.848   2.406  0.5982 -0.5661 -0.3735
  464MOL0     C63951   1.691  10.844   2.491  0.0297 -0.2165 -0.6777
  464MOL0     C63952   1.669  10.826   2.629  0.8563  0.0009 -0.3095
  464MOL0     O63953   1.773  10.798   2.706 -0.3170 -0.0121 -0.2595
  464MOL0     C63954   1.810  10.909   2.793  0.2551  1.0335 -0.8168
  464MOL0     C63955   1.862  11.022   2.718  0.7139  0.1335  1.1006
  464MOL0     C63956   1.900  11.138   2.808  0.2394 -0.2621 -0.5810
  464MOL0     C63957   2.042  11.161   2.814  0.0194  0.3023 -0.0145
  464MOL0     C63958   2.132  11.051   2.841  0.4556  0.4992  0.5587
  464MOL0     C63959   2.184  10.943   2.881 -0.1496 -1.3101 -0.3362
  464MOL0     C63960   1.538  10.815   2.677  0.3609 -0.8290  0.0399
  464MOL0     C63961   1.426  10.832   2.595  0.5172  0.1020 -0.4962
  464MOL0     C63962   1.298  10.815   2.663  0.6705  0.3234 -0.0876
  464MOL0     H63963   1.166  11.013   2.201  1.2008  0.0922  0.7014
  464MOL0     H63964   1.036  11.037   1.994  1.2575  2.5812  1.6706
  464MOL0     H63965   0.945  10.927   1.838  1.6482 -0.6109  0.2603
  464MOL0     H63966   0.931  10.907   1.665  0.8682  3.2851 -3.6761
  464MOL0     H63967   0.842  11.134   1.739 -0.6448 -0.2521 -0.2971
  464MOL0     H63968   1.007  11.188   1.763  0.6557 -1.8375 -0.1264
  464MOL0     H63969   1.078  11.146   1.523  0.6293  0.8954  0.3081
  464MOL0     H63970   0.917  11.092   1.487 -0.6640  1.8160 -0.5952
  464MOL0     H63971   0.906  11.319   1.431 -3.0396  1.8383  0.6608
  464MOL0     H63972   0.818  11.298   1.582 -0.9676 -1.1461 -2.8553
  464MOL0     H63973   1.065  11.381   1.687 -0.1022 -1.5337  0.1622
  464MOL0     H63974   0.943  11.491   1.622  0.0835  1.3383 -0.9439
  464MOL0     H63975   1.156  11.385   1.432  2.6454  2.0244 -0.2351
  464MOL0     H63976   1.056  11.516   1.416  0.5208 -0.8778 -1.4644
  464MOL0     H63977   1.290  11.493   1.611  2.2672 -0.9489 -1.1701
  464MOL0     H63978   1.163  11.629   1.625  1.6984  1.1708 -1.0898
  464MOL0     H63979   1.308  11.567   1.368  2.1669 -2.0637  2.3014
  464MOL0     H63980   1.189  11.689   1.405 -1.0853 -1.2391  0.5094
  464MOL0     H63981   1.273  11.898   1.603  1.2225  1.8882  0.7849
  464MOL0     H63982   1.631  12.040   1.669 -1.2202  2.3729  1.3731
  464MOL0     H63983   1.480  12.007   1.768  0.3939  0.8075  1.2031
  464MOL0     H63984   1.347  12.146   1.601  0.5978  0.7244  0.0951
  464MOL0     H63985   1.473  12.231   1.681 -1.8858  0.9789  0.3604
  464MOL0     H63986   1.617  12.209   1.484 -0.2204  0.0898  2.9177
  464MOL0     H63987   1.515  12.087   1.417  4.4111 -0.9203  0.5883
  464MOL0     H63988   1.452  12.321   1.312 -1.7449  2.4328  0.0426
  464MOL0     H63989   1.328  12.255   1.408  1.2237 -0.5803  1.2593
  464MOL0     H63990   1.665  12.380   1.326 -0.6993 -0.6220  0.9270
  464MOL0     H63991   1.936  12.605   1.255 -0.6484  0.8137  0.2550
  464MOL0     H63992   1.810  12.575   1.122  0.1478 -0.9299 -0.1003
  464MOL0     H63993   1.854  12.447   1.218 -1.4392 -1.1153  0.0028
  464MOL0     H63994   1.902  13.092   1.327  0.2518 -0.9484  2.0739
  464MOL0     H63995   2.082  13.251   1.237 -2.1267  0.2129  1.0137
  464MOL0     H63996   2.213  13.341   1.090 -1.5166 -1.8407  0.5808
  464MOL0     H63997   2.296  13.346   1.245 -0.8588 -2.5822  1.1989
  464MOL0     H63998   2.434  13.297   0.972  2.4072  3.9903 -1.8312
  464MOL0     H63999   2.409  13.463   1.028  1.3430 -0.1534  0.3931
  464MOL0     H64000   2.562  13.249   1.186  1.1368 -0.2981 -0.9766
  464MOL0     H64001   2.530  13.416   1.239 -1.4000  2.6754 -2.0425
  464MOL0     H64002   2.704  13.356   1.002  0.7157  0.9811 -0.6245
  464MOL0     H64003   2.744  13.394   1.177 -0.7667 -1.4445 -0.2512
  464MOL0     H64004   2.616  13.574   0.958 -0.3562 -2.9437 -0.1807
  464MOL0     H64005   2.606  13.614   1.134  0.8146 -1.0084  2.7371
  464MOL0     H64006   2.867  13.534   1.005  1.5104  1.0602 -0.6970
  464MOL0     H64007   2.850  13.634   1.144  0.5335 -2.5252 -0.3524
  464MOL0     H64008   2.711  13.787   0.960  0.8617  1.2826  1.0379
  464MOL0     H64009   2.795  13.671   0.845 -1.2593 -0.8104  0.0984
  464MOL0     H64010   2.922  13.876   0.838  1.4338 -1.2036 -0.8984
  464MOL0     H64011   3.014  13.761   0.937 -1.3668 -1.9181  1.7574
  464MOL0     H64012   2.349  12.904   1.237 -0.6023 -0.2424  3.4760
  464MOL0     H64013   2.148  12.757   1.316 -2.3454  0.2044 -1.7739
  464MOL0     H64014   1.612  12.827   1.527 -0.6176  0.0066 -1.0861
  464MOL0     H64015   1.452  12.668   1.582 -1.0462 -0.3273  0.1391
  464MOL0     H64016   1.351  10.850   1.769 -1.5333  2.2797 -1.7525
  464MOL0     H64017   1.468  10.807   1.982  0.5016  0.3922  4.0446
  464MOL0     H64018   1.617  10.847   2.302  1.8051 -1.8673 -0.0121
  464MOL0     H64019   1.797  10.841   2.465  1.4013 -0.3653  3.9701
  464MOL0     H64020   1.728  10.947   2.854  0.4889 -0.9510  0.8266
  464MOL0     H64021   1.885  10.859   2.854  0.8907 -0.1313 -2.4749
  464MOL0     H64022   1.789  11.048   2.642  0.3184 -0.6062  1.2149
  464MOL0     H64023   1.945  10.983   2.659  0.2977  0.7657  0.0855
  464MOL0     H64024   1.863  11.233   2.768 -0.2363 -0.0147  0.4252
  464MOL0     H64025   1.859  11.129   2.908  1.7397  2.5307  0.3900
  464MOL0     H64026   2.064  11.240   2.887 -1.2916 -0.3010  1.0920
  464MOL0     H64027   2.076  11.213   2.724  0.9567 -0.9660 -0.4111
  464MOL0     H64028   2.233  10.851   2.904  1.4756 -0.9458 -2.1132
  464MOL0     H64029   1.532  10.803   2.784 -1.0562  1.2691  0.2342
  464MOL0     H64030   1.251  10.734   2.606  1.5920 -1.4242  1.5208
  464MOL0     H64031   1.308  10.765   2.759 -0.8657 -1.7663 -0.9279
  464MOL0     H64032   1.229  10.900   2.655  2.3760  1.9754  1.7721
  465MOL0     O64033  10.909   3.004   3.848  0.9944  0.8151 -0.7301
  465MOL0     C64034  10.832   2.937   3.914  0.1548  0.8820 -0.9396
  465MOL0     O64035  10.851   2.911   4.047  0.6836  0.0016  0.1068
  465MOL0     C64036  10.939   2.979   4.127 -0.2752 -0.2953  0.2849
  465MOL0     C64037  11.065   3.026   4.094 -0.3424  0.2954  0.0476
  465MOL0     C64038  11.144   3.102   4.185  0.8103 -0.1647  0.0343
  465MOL0     C64039  11.098   3.127   4.312 -0.0866 -0.5753  0.6960
  465MOL0     O64040  11.194   3.187   4.400  0.1737  0.4080 -0.1773
  465MOL0     C64041  11.148   3.234   4.529 -0.0527  0.4822 -0.1887
  465MOL0     C64042  11.258   3.299   4.594 -0.4848 -0.2258 -0.1108
  465MOL0     C64043  11.194   3.377   4.714  0.5524  0.1882 -0.1592
  465MOL0     C64044  11.288   3.386   4.833 -0.0708 -1.0969  0.2664
  465MOL0     C64045  11.222   3.462   4.953 -0.3221 -0.5689 -0.1003
  465MOL0     C64046  11.108   3.387   5.028 -0.5530 -0.0566  0.1799
  465MOL0     C64047  11.172   3.319   5.157  0.6486  0.7241  0.2939
  465MOL0     C64048  11.085   3.208   5.211  0.4886 -0.0779 -1.2505
  465MOL0     N64049  11.133   3.155   5.333 -0.8993  0.2981 -0.2573
  465MOL0     C64050  11.173   3.214   5.451  0.0411 -0.2082  0.0048
  465MOL0     C64051  11.228   3.119   5.517  1.0662  0.1021 -0.6408
  465MOL0     C64052  11.300   3.138   5.645 -1.2093  0.2966  0.2512
  465MOL0     C64053  11.329   3.013   5.727  0.1763 -0.7776 -0.5290
  465MOL0     C64054  11.450   3.038   5.821 -0.9445  1.1016  0.5947
  465MOL0     C64055  11.487   2.925   5.921 -0.3261 -0.0862 -0.5345
  465MOL0     O64056  11.594   2.856   5.860  1.2514  0.0834 -0.2052
  465MOL0     C64057  11.616   2.732   5.913 -0.2975  0.4142  0.1281
  465MOL0     C64058  11.706   2.698   6.014  0.4212 -0.0041  0.2558
  465MOL0     C64059  11.726   2.571   6.052 -0.4086  1.0787 -0.0465
  465MOL0     C64060  11.825   2.551   6.167 -0.3959 -0.6335 -0.6026
  465MOL0     C64061  11.666   2.462   5.981 -0.4368  0.4229  0.8092
  465MOL0     C64062  11.705   2.321   6.007  0.3225  0.1585  0.4307
  465MOL0     O64063  11.634   2.230   5.918  0.2568 -0.1354 -0.0626
  465MOL0     C64064  11.665   2.097   5.918 -0.1687  0.1383 -0.0971
  465MOL0     C64065  11.664   2.016   6.028  0.2205 -0.6012  0.2224
  465MOL0     C64066  11.705   1.872   6.012  0.4190  0.2329 -0.3884
  465MOL0     C64067  11.738   1.823   5.886 -1.0766 -0.0103  0.3135
  465MOL0     O64068  11.795   1.702   5.899  0.0341  0.0290 -0.3143
  465MOL0     C64069  11.845   1.627   5.783 -0.4336  0.1525  0.1679
  465MOL0     C64070  11.867   1.472   5.821  0.4328  0.8972  1.1260
  465MOL0     C64071  11.980   1.413   5.739 -0.3345  0.3085  0.1729
  465MOL0     C64072  12.025   1.276   5.783 -0.5180  0.4639  0.3957
  465MOL0     C64073  11.913   1.175   5.808  0.2393 -0.8059 -0.2638
  465MOL0     C64074  11.970   1.050   5.888 -0.3304  0.0750  0.5202
  465MOL0     C64075  11.854   0.956   5.910 -0.0442 -0.2739  0.8940
  465MOL0     C64076  11.899   0.826   5.982 -0.9883 -0.2109  0.4838
  465MOL0    Cl64077  11.976   0.713   5.863 -0.0527 -0.0669  0.4389
  465MOL0     C64078  11.741   1.906   5.766  0.5147  0.6790 -0.4502
  465MOL0     C64079  11.699   2.045   5.787  0.5700 -0.2800  0.1129
  465MOL0     O64080  11.809   2.300   6.069 -0.2698  0.3765 -0.1644
  465MOL0     C64081  11.593   2.503   5.867  0.6445  0.6400 -0.1117
  465MOL0     C64082  11.564   2.632   5.839  0.5791  0.0087  0.2128
  465MOL0     N64083  11.204   2.996   5.458 -0.3452 -0.2075  0.1126
  465MOL0     N64084  11.136   3.023   5.352 -0.5193  0.3494  0.4170
  465MOL0     C64085  10.969   3.081   4.342 -0.6046  0.2665 -0.1064
  465MOL0     C64086  10.898   3.015   4.251 -0.8294 -0.4038  0.5603
  465MOL0     C64087  10.719   2.866   3.858  0.1846 -0.1091  0.6036
  465MOL0     C64088  10.604   2.843   3.931  0.9943 -0.0025  0.2151
  465MOL0     C64089  10.490   2.770   3.884  0.4166 -0.6519  0.2269
  465MOL0     C64090  10.495   2.714   3.754 -0.5975 -0.4856  0.2394
  465MOL0     O64091  10.399   2.638   3.699 -0.1932  0.6483  0.0292
  465MOL0     C64092  10.270   2.648   3.755  0.5942 -1.0478  0.4497
  465MOL0     C64093  10.172   2.564   3.656 -0.2000 -0.5521 -0.6355
  465MOL0     C64094  10.028   2.618   3.675 -0.2255  0.4055 -0.5747
  465MOL0     C64095   9.972   2.618   3.815 -0.0693  0.1956  0.2440
  465MOL0     C64096  10.001   2.742   3.892 -0.0287  0.8099 -0.6790
  465MOL0     C64097  10.034   2.849   3.937  0.0260 -0.3688  0.5763
  465MOL0     C64098  10.611   2.725   3.678 -0.6232  0.3136  0.1986
  465MOL0     C64099  10.719   2.810   3.717  1.0714  0.4387 -1.2502
  465MOL0     C64100  10.824   2.845   3.617 -0.0799  0.0069  0.2209
  465MOL0     H64101  11.099   3.000   3.994 -0.4800 -0.6780  0.2395
  465MOL0     H64102  11.236   3.149   4.152  1.9754 -0.6048  2.4611
  465MOL0     H64103  11.123   3.146   4.588  0.7752  0.6886  0.4904
  465MOL0     H64104  11.060   3.298   4.515  0.4026  1.2608  0.3766
  465MOL0     H64105  11.335   3.224   4.617  0.5906  1.2802  1.4616
  465MOL0     H64106  11.312   3.365   4.525  1.2881  0.5967  1.9553
  465MOL0     H64107  11.169   3.477   4.677 -0.1306 -0.7691 -2.4717
  465MOL0     H64108  11.104   3.324   4.748  0.5633 -0.8029 -1.5615
  465MOL0     H64109  11.317   3.283   4.850  1.1607 -1.0061 -1.1255
  465MOL0     H64110  11.379   3.441   4.806  2.4121 -2.9916  3.9509
  465MOL0     H64111  11.177   3.557   4.923  2.5479  0.6904 -0.7616
  465MOL0     H64112  11.305   3.497   5.013 -1.4235  0.7955  0.6817
  465MOL0     H64113  11.029   3.457   5.058 -2.2644 -2.2959  1.2055
  465MOL0     H64114  11.076   3.302   4.967  0.7389  0.4629 -1.2783
  465MOL0     H64115  11.178   3.397   5.234 -2.5037  3.0871 -1.5779
  465MOL0     H64116  11.272   3.280   5.138 -0.0316 -0.2882 -1.5085
  465MOL0     H64117  10.981   3.237   5.224  0.2939 -0.8508 -1.0454
  465MOL0     H64118  11.084   3.131   5.133  1.1099  0.3179 -1.6630
  465MOL0     H64119  11.179   3.319   5.480  0.4006 -0.5224  1.0894
  465MOL0     H64120  11.254   3.209   5.714  0.2805 -0.0290  1.6675
  465MOL0     H64121  11.397   3.183   5.623 -1.3292  0.2319 -0.4172
  465MOL0     H64122  11.238   2.992   5.784 -0.1359 -0.6336 -0.9693
  465MOL0     H64123  11.339   2.931   5.655 -3.2825 -1.1814 -0.6952
  465MOL0     H64124  11.541   3.056   5.764  1.5125 -3.2584  2.5664
  465MOL0     H64125  11.438   3.121   5.891  0.5540  0.7034  1.3850
  465MOL0     H64126  11.524   2.960   6.018  3.7900  0.6205 -2.1610
  465MOL0     H64127  11.404   2.858   5.945  1.5210 -1.6020  2.0612
  465MOL0     H64128  11.749   2.785   6.063 -3.2298  2.6769 -0.8644
  465MOL0     H64129  11.797   2.493   6.256 -1.5663  1.0359  0.1696
  465MOL0     H64130  11.867   2.641   6.213  2.0134 -1.3074 -1.2959
  465MOL0     H64131  11.913   2.513   6.114 -0.7494 -0.0682 -1.6142
  465MOL0     H64132  11.639   2.059   6.124  0.3076 -3.7609  1.7727
  465MOL0     H64133  11.718   1.824   6.108  0.9978 -0.5600 -0.8511
  465MOL0     H64134  11.776   1.643   5.699 -0.4094  1.7281  0.4048
  465MOL0     H64135  11.944   1.654   5.746  0.6762 -2.1366  1.2947
  465MOL0     H64136  11.897   1.468   5.926 -1.4402 -1.8208  1.6662
  465MOL0     H64137  11.775   1.415   5.807  0.8856  0.5291 -0.6516
  465MOL0     H64138  12.068   1.478   5.749  0.4069 -0.7756  0.8631
  465MOL0     H64139  11.957   1.398   5.633  1.6875  1.1004 -0.4290
  465MOL0     H64140  12.095   1.278   5.866  0.8829  0.3561 -0.7381
  465MOL0     H64141  12.096   1.235   5.711  0.3835 -1.9429  2.5029
  465MOL0     H64142  11.833   1.214   5.872  0.7257  1.2102 -0.8008
  465MOL0     H64143  11.878   1.140   5.710 -1.4227  1.3339 -0.5179
  465MOL0     H64144  12.015   1.075   5.984  1.1574 -3.1946  0.8056
  465MOL0     H64145  12.034   0.989   5.823  0.0154 -0.7742  1.6329
  465MOL0     H64146  11.814   0.920   5.815  1.9015 -2.9048  0.9559
  465MOL0     H64147  11.778   1.015   5.963  1.1566 -0.2210  2.6562
  465MOL0     H64148  11.810   0.778   6.025 -0.4564 -1.3073  0.3984
  465MOL0     H64149  11.963   0.837   6.070  0.5280 -0.8231 -0.4972
  465MOL0     H64150  11.777   1.872   5.669  0.2694  3.4886 -1.6028
  465MOL0     H64151  11.685   2.111   5.702  0.8016  0.5909  0.7424
  465MOL0     H64152  11.542   2.424   5.813  2.1112 -0.7921  0.5324
  465MOL0     H64153  11.492   2.642   5.758 -1.4735 -2.0564  1.6487
  465MOL0     H64154  10.926   3.095   4.440 -2.0983 -4.1152  0.0727
  465MOL0     H64155  10.797   3.003   4.290 -0.8963 -0.0484  0.4948
  465MOL0     H64156  10.599   2.892   4.027  0.8171  1.6495 -0.6054
  465MOL0     H64157  10.413   2.758   3.960 -0.5537 -0.1266 -0.6381
  465MOL0     H64158  10.261   2.586   3.845 -5.3824 -1.2277  0.1133
  465MOL0     H64159  10.235   2.751   3.767  1.2530 -0.5871 -1.3386
  465MOL0     H64160  10.186   2.458   3.681  1.3634 -0.1213  0.4859
  465MOL0     H64161  10.211   2.579   3.555  0.0777 -2.9085 -0.9303
  465MOL0     H64162  10.024   2.718   3.630 -2.3920  0.6479  0.0847
  465MOL0     H64163   9.959   2.553   3.621  0.6845  0.2815 -1.6280
  465MOL0     H64164  10.000   2.536   3.882 -0.2746 -0.3951 -0.3868
  465MOL0     H64165   9.864   2.602   3.807 -0.0540  0.8676 -2.1315
  465MOL0     H64166  10.056   2.946   3.977  1.9565 -1.4748  2.3769
  465MOL0     H64167  10.604   2.683   3.578  1.4952  1.5352 -0.5338
  465MOL0     H64168  10.847   2.952   3.623 -0.7981  0.1520  0.4584
  465MOL0     H64169  10.919   2.794   3.635  0.2073  1.1625  2.4241
  465MOL0     H64170  10.805   2.809   3.516  2.3687 -1.4445  0.1808
  466MOL0     O64171   7.943  11.359   9.262 -0.1270 -0.0978 -0.8707
  466MOL0     C64172   7.905  11.392   9.375  0.1538  0.5161 -0.2882
  466MOL0     O64173   7.788  11.341   9.438 -0.0760 -0.2974 -0.0104
  466MOL0     C64174   7.717  11.258   9.365 -0.4169  0.1249  0.2517
  466MOL0     C64175   7.742  11.121   9.385 -0.3663 -0.7713 -0.0176
  466MOL0     C64176   7.694  11.029   9.296 -0.2448 -0.7638 -0.3764
  466MOL0     C64177   7.632  11.070   9.175  1.0225  0.2874 -0.4753
  466MOL0     O64178   7.597  10.976   9.084  0.3432  0.0526 -0.2448
  466MOL0     C64179   7.464  10.988   9.035  0.4422 -0.3063 -0.2712
  466MOL0     C64180   7.418  10.870   8.942  0.2497 -0.4640  0.2888
  466MOL0     C64181   7.381  10.743   9.018 -0.1302 -0.4601  1.0309
  466MOL0     C64182   7.256  10.752   9.110 -0.0638  0.2889 -0.0827
  466MOL0     C64183   7.244  10.624   9.191  0.6880 -0.5643  0.5363
  466MOL0     C64184   7.167  10.524   9.109  0.1295 -0.4782  0.5273
  466MOL0     C64185   7.210  10.385   9.162  1.1033  0.4379  0.0945
  466MOL0     C64186   7.112  10.280   9.113  0.5639  0.0863  1.1491
  466MOL0     N64187   6.999  10.251   9.209 -0.0106  0.3067  0.5457
  466MOL0     C64188   6.926  10.140   9.199 -0.3942 -0.6085 -0.0403
  466MOL0     C64189   6.829  10.155   9.291 -0.1319 -0.2641 -0.2248
  466MOL0     C64190   6.728  10.056   9.328 -0.1411 -0.1591  0.3799
  466MOL0     C64191   6.663  10.088   9.464  0.4749  1.2113 -0.5072
  466MOL0     C64192   6.584   9.956   9.507  0.9155 -0.6314  1.0667
  466MOL0     C64193   6.523   9.992   9.651  0.0971  0.2551  0.2620
  466MOL0     O64194   6.636  10.027   9.735 -0.1153  0.2195  0.0082
  466MOL0     C64195   6.617  10.088   9.862  0.4731  0.4635  0.9028
  466MOL0     C64196   6.725  10.136   9.939 -0.1641 -0.2282  0.6611
  466MOL0     C64197   6.720  10.202  10.068 -0.7109  1.2496 -0.7655
  466MOL0     C64198   6.853  10.267  10.121  1.4747 -0.6321 -0.5653
  466MOL0     C64199   6.592  10.204  10.134 -0.3776  0.8936 -0.4964
  466MOL0     C64200   6.570  10.264  10.273 -0.0861 -0.4058 -0.3516
  466MOL0     O64201   6.439  10.302  10.297  0.4783  0.5396 -0.2880
  466MOL0     C64202   6.428  10.389  10.402  0.1348  0.8181 -0.5114
  466MOL0     C64203   6.449  10.529  10.392 -0.8184  0.6633 -0.5120
  466MOL0     C64204   6.429  10.621  10.502  0.6902 -0.6067  0.9734
  466MOL0     C64205   6.374  10.574  10.617 -0.1949  0.5407 -0.1035
  466MOL0     O64206   6.343  10.671  10.719 -0.1232  0.3394 -0.4356
  466MOL0     C64207   6.409  10.642  10.854 -0.5107 -0.4475 -1.0955
  466MOL0     C64208   6.302  10.684  10.956  0.1607  0.3115 -0.0273
  466MOL0     C64209   6.329  10.675  11.105 -0.2002 -0.1312  0.2489
  466MOL0     C64210   6.438  10.767  11.153 -0.5578 -0.5836 -0.1317
  466MOL0     C64211   6.445  10.770  11.309 -0.2381  0.1634 -0.0904
  466MOL0     C64212   6.310  10.795  11.385 -0.7991 -0.0678  0.2243
  466MOL0     C64213   6.240  10.933  11.355 -0.0997 -1.1694 -0.0452
  466MOL0     C64214   6.313  11.052  11.418  0.7489  1.0720  0.5372
  466MOL0    Cl64215   6.228  11.200  11.377  0.2058  0.7200  0.1719
  466MOL0     C64216   6.351  10.442  10.634 -0.2789  0.4581  0.3509
  466MOL0     C64217   6.376  10.349  10.531 -0.4859 -0.1026  1.0026
  466MOL0     O64218   6.669  10.276  10.353  0.5590 -0.4700 -0.1665
  466MOL0     C64219   6.477  10.145  10.061  0.1094  0.2017 -0.8634
  466MOL0     C64220   6.488  10.084   9.930  0.0605  0.8443  0.6833
  466MOL0     N64221   6.838  10.279   9.349 -1.1582 -0.6705  0.0303
  466MOL0     N64222   6.933  10.341   9.284 -0.4202  0.2916 -0.5665
  466MOL0     C64223   7.607  11.207   9.160  0.0277  0.1294  0.9507
  466MOL0     C64224   7.647  11.302   9.249  0.3264  0.2113  0.3623
  466MOL0     C64225   7.994  11.479   9.450  0.2487 -0.3882  0.2639
  466MOL0     C64226   7.932  11.559   9.544  0.2758 -1.1531  0.8275
  466MOL0     C64227   8.001  11.645   9.622 -0.1895 -0.0510  0.2627
  466MOL0     C64228   8.136  11.663   9.612  1.3323  0.3403  1.0504
  466MOL0     O64229   8.211  11.758   9.667 -0.7182  0.1625 -0.1962
  466MOL0     C64230   8.146  11.878   9.699  0.3670 -0.1967  0.1501
  466MOL0     C64231   8.137  11.863   9.856 -0.2587 -0.1507 -0.0817
  466MOL0     C64232   8.133  12.002   9.922  0.2942  0.3176 -0.5527
  466MOL0     C64233   8.228  12.009  10.051 -0.7866 -0.4127 -0.9116
  466MOL0     C64234   8.180  12.109  10.153  0.3112 -0.3782  0.0034
  466MOL0     C64235   8.155  12.208  10.221 -0.0979 -0.2612 -0.0270
  466MOL0     C64236   8.200  11.587   9.507 -0.2245  0.6699  0.7553
  466MOL0     C64237   8.137  11.482   9.433  0.8626 -0.5010  0.0169
  466MOL0     C64238   8.216  11.408   9.321 -0.2748 -0.2972  0.1750
  466MOL0     H64239   7.791  11.074   9.469 -1.2010 -0.1769  0.8250
  466MOL0     H64240   7.710  10.928   9.333  0.1943 -0.6064 -0.1215
  466MOL0     H64241   7.462  11.081   8.977  0.1308  1.0330  1.7658
  466MOL0     H64242   7.388  10.998   9.113  1.8788  2.2350  0.9508
  466MOL0     H64243   7.339  10.909   8.876  0.0834  3.8506  2.6643
  466MOL0     H64244   7.503  10.830   8.886  1.3922  2.5737 -0.3601
  466MOL0     H64245   7.358  10.662   8.948 -0.3800  0.5480 -0.0906
  466MOL0     H64246   7.469  10.719   9.078 -0.5040 -1.8207  1.0911
  466MOL0     H64247   7.266  10.839   9.176  0.2300  0.4292 -0.3077
  466MOL0     H64248   7.174  10.770   9.041  0.4757  2.0036 -0.3127
  466MOL0     H64249   7.194  10.655   9.283  1.8958  1.9578  0.4165
  466MOL0     H64250   7.337  10.580   9.227  1.7532  0.7930 -0.4584
  466MOL0     H64251   7.059  10.527   9.128 -0.2851 -2.1766 -1.2038
  466MOL0     H64252   7.193  10.528   9.003  2.8685  2.7943  1.1961
  466MOL0     H64253   7.218  10.381   9.271 -0.4847  0.7728  0.2386
  466MOL0     H64254   7.311  10.356   9.131  2.1489  2.2157  1.6511
  466MOL0     H64255   7.076  10.321   9.018  0.4171  0.6698  1.4507
  466MOL0     H64256   7.155  10.184   9.086  1.1245  0.6778 -0.1469
  466MOL0     H64257   6.932  10.049   9.140  1.0219 -1.1059  0.7996
  466MOL0     H64258   6.775   9.957   9.331 -1.9051 -1.0253  1.1625
  466MOL0     H64259   6.649  10.056   9.251 -0.9191  2.0261  1.1002
  466MOL0     H64260   6.757  10.091   9.520  1.4057 -3.2327 -1.4878
  466MOL0     H64261   6.604  10.180   9.470 -1.2058  0.1003  1.5963
  466MOL0     H64262   6.504   9.926   9.438  0.0418 -1.6753  2.4805
  466MOL0     H64263   6.650   9.868   9.503 -1.2768 -2.3171 -0.6147
  466MOL0     H64264   6.456  10.078   9.654 -3.2909 -2.1378  4.4789
  466MOL0     H64265   6.470   9.903   9.687 -1.2933  0.6341 -0.7655
  466MOL0     H64266   6.822  10.138   9.890 -0.9605 -2.5702 -1.2258
  466MOL0     H64267   6.892  10.213  10.208  0.5541  1.5121  1.2775
  466MOL0     H64268   6.820  10.364  10.159  1.1635  0.7484 -4.0004
  466MOL0     H64269   6.931  10.284  10.046  0.0847 -0.2299 -1.9622
  466MOL0     H64270   6.481  10.574  10.298 -1.1321 -0.4413 -1.1566
  466MOL0     H64271   6.449  10.726  10.484  0.6980 -0.7867 -0.2059
  466MOL0     H64272   6.443  10.540  10.871  2.4602  0.4270 -1.1533
  466MOL0     H64273   6.500  10.704  10.858  0.2224 -1.5694  0.5956
  466MOL0     H64274   6.268  10.787  10.942  2.5777  1.2627  0.5636
  466MOL0     H64275   6.211  10.625  10.941  0.6792 -0.7248  0.7535
  466MOL0     H64276   6.344  10.569  11.127  0.0323 -0.3451 -0.9055
  466MOL0     H64277   6.232  10.713  11.140 -0.2578  2.5069 -2.4039
  466MOL0     H64278   6.415  10.865  11.109  1.6741  0.0091 -0.0873
  466MOL0     H64279   6.524  10.720  11.105  1.2294  1.3089  1.0639
  466MOL0     H64280   6.489  10.676  11.343  4.1433  2.6775  2.0675
  466MOL0     H64281   6.519  10.849  11.324 -1.3374  1.9088 -2.8816
  466MOL0     H64282   6.325  10.786  11.493 -1.4694  3.0479  0.6745
  466MOL0     H64283   6.246  10.714  11.347  0.9224 -0.0389 -3.1244
  466MOL0     H64284   6.140  10.919  11.398 -0.7566  2.5326 -0.0538
  466MOL0     H64285   6.234  10.953  11.248  2.2098  3.1185  0.4288
  466MOL0     H64286   6.415  11.039  11.381  0.2522 -5.0428  0.2515
  466MOL0     H64287   6.296  11.046  11.526  1.3272  2.9609  0.7643
  466MOL0     H64288   6.290  10.410  10.717 -0.4603  0.8713  0.3794
  466MOL0     H64289   6.352  10.244  10.540 -1.4251 -0.2165 -1.7531
  466MOL0     H64290   6.384  10.157  10.115  0.8728 -0.0924  0.5617
  466MOL0     H64291   6.404  10.034   9.884  0.9699  0.5637 -0.7336
  466MOL0     H64292   7.576  11.238   9.061 -0.4513 -1.4683  0.5802
  466MOL0     H64293   7.645  11.405   9.212  0.5258 -0.6665 -2.3577
  466MOL0     H64294   7.824  11.553   9.548  0.2994 -0.8620  2.2071
  466MOL0     H64295   7.950  11.709   9.693 -2.2406 -1.4659  0.1750
  466MOL0     H64296   8.217  11.959   9.678  1.4471 -0.4202  2.5915
  466MOL0     H64297   8.050  11.899   9.652  0.1211 -0.1956  0.6421
  466MOL0     H64298   8.220  11.799   9.890  0.8974  0.7410 -1.1224
  466MOL0     H64299   8.039  11.821   9.877 -1.5140  2.5988 -0.0748
  466MOL0     H64300   8.175  12.075   9.852  0.3712 -2.2394 -3.4095
  466MOL0     H64301   8.028  12.015   9.951  0.1285  0.7824 -1.3340
  466MOL0     H64302   8.335  12.019  10.031 -0.4892 -0.0367  0.7403
  466MOL0     H64303   8.211  11.912  10.100  1.6713 -2.0512 -3.0239
  466MOL0     H64304   8.123  12.297  10.271 -0.4987  0.5822 -1.6786
  466MOL0     H64305   8.307  11.600   9.496 -0.3307  1.9173  1.1027
  466MOL0     H64306   8.181  11.429   9.220  1.4558  1.2983 -0.1361
  466MOL0     H64307   8.322  11.434   9.320 -0.5884  1.3388 -3.0546
  466MOL0     H64308   8.204  11.300   9.336  0.9762 -0.7303 -1.6770
  467MOL0     O64309   9.573   0.753   2.076  0.5568 -0.5385 -0.4283
  467MOL0     C64310   9.557   0.656   2.152  0.7618  0.5305 -0.1984
  467MOL0     O64311   9.660   0.600   2.223 -0.0615 -0.2847 -0.6252
  467MOL0     C64312   9.788   0.626   2.189 -0.6337 -0.4515 -0.2423
  467MOL0     C64313   9.865   0.735   2.244 -0.2227 -0.0970 -0.5275
  467MOL0     C64314   9.996   0.763   2.202 -0.5452  0.0054 -0.2820
  467MOL0     C64315  10.046   0.690   2.092  1.0879  0.1030 -0.0594
  467MOL0     O64316  10.171   0.720   2.050  0.2779 -0.5898  0.0912
  467MOL0     C64317  10.276   0.635   2.085  0.5492 -0.5634  0.3207
  467MOL0     C64318  10.325   0.686   2.222  0.1881  0.2384  0.5019
  467MOL0     C64319  10.455   0.611   2.264 -0.6653  0.5380 -0.0660
  467MOL0     C64320  10.512   0.676   2.387 -0.0449  0.6252 -0.3686
  467MOL0     C64321  10.631   0.594   2.422 -0.2105 -0.1010 -0.2780
  467MOL0     C64322  10.715   0.663   2.532 -0.4637  0.3769  0.1302
  467MOL0     C64323  10.845   0.600   2.576 -0.1694 -0.0374  0.9222
  467MOL0     C64324  10.867   0.613   2.725  0.3402  1.0358  0.0909
  467MOL0     N64325  10.891   0.755   2.758 -0.4475  0.2651 -0.4993
  467MOL0     C64326  11.008   0.828   2.726 -0.8589  0.2522  0.1239
  467MOL0     C64327  11.007   0.940   2.794 -0.2906  0.1501  0.6277
  467MOL0     C64328  11.118   1.038   2.800 -0.1637 -0.3810  0.4297
  467MOL0     C64329  11.224   1.014   2.905  0.1639  0.6627 -0.8791
  467MOL0     C64330  11.322   1.134   2.913 -0.5714  0.6020 -0.5816
  467MOL0     C64331  11.423   1.128   3.029  0.1611 -0.2609 -0.0532
  467MOL0     O64332  11.470   0.995   3.016 -0.2971  0.5914  0.5025
  467MOL0     C64333  11.608   0.979   3.005  0.7834 -1.0127 -0.1739
  467MOL0     C64334  11.657   0.892   2.910  0.1933  0.3361 -0.0299
  467MOL0     C64335  11.792   0.879   2.882 -0.6932  0.0434 -0.3868
  467MOL0     C64336  11.848   0.779   2.786  0.0171  0.2109 -0.3124
  467MOL0     C64337  11.886   0.956   2.947 -0.4244  0.3393  0.0917
  467MOL0     C64338  12.032   0.962   2.898  0.3480 -0.2012 -0.0936
  467MOL0     O64339  12.058   1.058   2.810 -0.3203  0.5944  0.1451
  467MOL0     C64340  12.183   1.111   2.796  0.2855  0.0334  0.5584
  467MOL0     C64341  12.270   1.151   2.893 -0.0732 -0.7270  0.4328
  467MOL0     C64342  12.396   1.205   2.863 -0.2771  0.4143 -0.7997
  467MOL0     C64343  12.444   1.206   2.728 -0.6289 -0.0942  0.0621
  467MOL0     O64344  12.573   1.243   2.692  0.3777  0.9842 -0.1440
  467MOL0     C64345  12.593   1.384   2.726  0.5714  0.7402 -0.5351
  467MOL0     C64346  12.745   1.423   2.721  0.1812 -0.4602 -0.0875
  467MOL0     C64347  12.817   1.349   2.608  0.3242  0.9709 -0.4238
  467MOL0     C64348  12.964   1.391   2.583 -0.2672  0.7194 -0.6178
  467MOL0     C64349  13.001   1.325   2.447 -0.2535 -0.5070 -0.0977
  467MOL0     C64350  13.143   1.370   2.425  0.0888 -0.0937 -0.4745
  467MOL0     C64351  13.207   1.337   2.282  0.2630  0.1791 -0.2772
  467MOL0     C64352  13.345   1.277   2.304 -0.3400 -0.1905  0.5701
  467MOL0    Cl64353  13.331   1.099   2.357 -0.3800  0.1887 -0.1299
  467MOL0     C64354  12.357   1.162   2.624 -0.3823  0.5626 -0.0336
  467MOL0     C64355  12.228   1.114   2.663  0.1081  0.3374  0.7989
  467MOL0     O64356  12.116   0.903   2.963  0.2449  0.7524  0.0420
  467MOL0     C64357  11.838   1.032   3.059 -0.5212  0.3727  0.1260
  467MOL0     C64358  11.703   1.051   3.086  0.2474  0.0046 -0.1631
  467MOL0     N64359  10.890   0.939   2.867 -1.1408  0.1076 -0.0971
  467MOL0     N64360  10.821   0.829   2.842 -0.3865 -0.3744  0.3047
  467MOL0     C64361   9.959   0.594   2.023  0.0137 -0.1093 -0.4944
  467MOL0     C64362   9.840   0.557   2.081 -0.2581  0.1615 -1.0597
  467MOL0     C64363   9.427   0.579   2.153  0.0960  0.3881  0.0332
  467MOL0     C64364   9.430   0.440   2.176  0.4852 -0.1786 -0.1312
  467MOL0     C64365   9.309   0.371   2.183  0.2383 -0.2243  1.1870
  467MOL0     C64366   9.188   0.431   2.170  0.9264  0.9799 -0.2329
  467MOL0     O64367   9.086   0.350   2.187 -0.0673 -0.1747  0.9554
  467MOL0     C64368   8.952   0.397   2.203 -0.7814 -0.5728 -0.2070
  467MOL0     C64369   8.894   0.411   2.062 -0.2263  0.0367 -0.2229
  467MOL0     C64370   8.834   0.275   2.029 -0.5018  0.4417  0.5264
  467MOL0     C64371   8.814   0.264   1.883  0.1834 -1.1950 -0.0613
  467MOL0     C64372   8.748   0.138   1.848 -0.3495 -0.0693 -0.5189
  467MOL0     C64373   8.690   0.034   1.816  0.3021  0.0980  0.3094
  467MOL0     C64374   9.183   0.573   2.154  0.1799 -0.4492  0.3241
  467MOL0     C64375   9.301   0.641   2.151  1.0785  0.6379  0.7776
  467MOL0     C64376   9.291   0.787   2.148  0.0598  0.5807  0.0804
  467MOL0     H64377   9.829   0.800   2.323  0.4059  1.2226 -1.2854
  467MOL0     H64378  10.061   0.840   2.242 -1.5352 -0.1893  1.8298
  467MOL0     H64379  10.357   0.649   2.013 -1.8530 -1.4129 -2.7815
  467MOL0     H64380  10.252   0.528   2.091  0.1389 -0.4811  0.1909
  467MOL0     H64381  10.346   0.794   2.220 -0.2407  0.3386 -1.5252
  467MOL0     H64382  10.251   0.673   2.302  0.7857  2.0797  1.4258
  467MOL0     H64383  10.428   0.509   2.289  1.9702 -0.0242  0.7818
  467MOL0     H64384  10.533   0.604   2.188  0.4299 -1.8290  1.1610
  467MOL0     H64385  10.540   0.780   2.366  0.1592  0.6402 -0.0288
  467MOL0     H64386  10.439   0.665   2.467  1.5729  0.6345  1.1711
  467MOL0     H64387  10.691   0.560   2.337 -2.8271 -2.8137 -1.2235
  467MOL0     H64388  10.589   0.501   2.460 -0.3998  1.3884  3.5753
  467MOL0     H64389  10.740   0.766   2.503 -1.5074  0.9025  1.0051
  467MOL0     H64390  10.652   0.682   2.619  0.5354  1.6256  0.6203
  467MOL0     H64391  10.924   0.648   2.519 -0.2732 -0.5392  0.3500
  467MOL0     H64392  10.847   0.494   2.551 -0.3367  0.0457  0.5487
  467MOL0     H64393  10.782   0.580   2.785 -0.7067 -0.6103 -2.1568
  467MOL0     H64394  10.950   0.552   2.761 -0.2378 -0.6003 -1.2603
  467MOL0     H64395  11.091   0.787   2.670  0.5370  0.2614  2.0779
  467MOL0     H64396  11.065   1.133   2.810 -1.7528 -1.0934 -0.7223
  467MOL0     H64397  11.167   1.035   2.702  1.1696 -1.5800  1.0982
  467MOL0     H64398  11.171   1.022   3.000 -0.7281  1.6127 -1.4392
  467MOL0     H64399  11.269   0.917   2.880  1.3761  1.2604 -1.0982
  467MOL0     H64400  11.359   1.159   2.813 -1.8193  0.4286 -1.1185
  467MOL0     H64401  11.263   1.223   2.936 -2.7503 -1.0245  0.5191
  467MOL0     H64402  11.511   1.194   3.030  0.8841 -1.1617  2.5282
  467MOL0     H64403  11.380   1.152   3.126  0.8111  0.4736  0.0686
  467MOL0     H64404  11.589   0.836   2.847 -1.3543  0.5173  1.3783
  467MOL0     H64405  11.932   0.730   2.837  1.1717  2.5721  0.1653
  467MOL0     H64406  11.885   0.832   2.697 -2.8507  0.1622 -1.6515
  467MOL0     H64407  11.776   0.700   2.762  1.5810 -1.5184  0.4014
  467MOL0     H64408  12.233   1.168   2.994 -1.8691 -0.7939 -0.1803
  467MOL0     H64409  12.455   1.250   2.942  3.1770 -3.0140 -1.1369
  467MOL0     H64410  12.535   1.450   2.661  2.5588  3.4275  0.2465
  467MOL0     H64411  12.553   1.407   2.825  0.1493 -0.5824 -0.3690
  467MOL0     H64412  12.746   1.532   2.711  0.5239 -0.3919  0.6088
  467MOL0     H64413  12.790   1.403   2.819 -2.7090  3.7148  2.4120
  467MOL0     H64414  12.759   1.371   2.518 -0.0458  0.0550 -0.4206
  467MOL0     H64415  12.824   1.242   2.629  1.3141  1.4744  2.3255
  467MOL0     H64416  13.029   1.373   2.669 -2.5107 -2.2654  0.6448
  467MOL0     H64417  12.955   1.499   2.566 -4.8312  0.1255 -3.7610
  467MOL0     H64418  13.000   1.215   2.446 -2.4758 -0.5484  0.6090
  467MOL0     H64419  12.945   1.359   2.360  3.2093  2.1733 -1.5325
  467MOL0     H64420  13.204   1.325   2.504 -0.5911  0.4113  0.3604
  467MOL0     H64421  13.141   1.478   2.438 -0.1720 -0.3789  2.6988
  467MOL0     H64422  13.216   1.432   2.228  5.0064 -0.6840 -1.4744
  467MOL0     H64423  13.149   1.260   2.231 -1.7086 -0.2078  2.3281
  467MOL0     H64424  13.408   1.332   2.375  0.5650  2.0176 -1.7987
  467MOL0     H64425  13.387   1.264   2.205 -1.9155 -2.6069  0.1280
  467MOL0     H64426  12.403   1.154   2.526 -1.1141  0.4503 -0.3757
  467MOL0     H64427  12.165   1.068   2.587  1.5401 -0.2248 -0.1011
  467MOL0     H64428  11.899   1.091   3.126 -0.3327  1.8001 -1.2391
  467MOL0     H64429  11.662   1.118   3.161 -2.5193 -0.1215 -1.4309
  467MOL0     H64430   9.990   0.552   1.928  0.6672  0.0913 -0.3800
  467MOL0     H64431   9.784   0.474   2.038 -0.1367 -1.3229  1.4309
  467MOL0     H64432   9.516   0.374   2.168  0.2339 -0.3882 -1.1227
  467MOL0     H64433   9.319   0.264   2.201  1.0455 -1.0009 -2.8245
  467MOL0     H64434   8.895   0.337   2.275  0.8438  0.3425  1.9587
  467MOL0     H64435   8.944   0.497   2.247  2.3900 -0.1512 -0.3560
  467MOL0     H64436   8.965   0.456   1.993 -0.3920  2.4018  1.0364
  467MOL0     H64437   8.817   0.489   2.070  0.1601  0.3634  0.5246
  467MOL0     H64438   8.905   0.198   2.060  0.6140  0.7849 -1.0576
  467MOL0     H64439   8.740   0.260   2.084  0.2759 -0.0941  1.7373
  467MOL0     H64440   8.910   0.267   1.830 -0.2831 -2.4260 -1.0205
  467MOL0     H64441   8.766   0.351   1.838 -1.9283 -1.7481  1.0230
  467MOL0     H64442   8.644  -0.059   1.789 -1.7128  1.6342 -1.9785
  467MOL0     H64443   9.086   0.623   2.160 -0.1292 -1.0114  0.0486
  467MOL0     H64444   9.322   0.824   2.050 -2.4118 -1.1058 -1.4572
  467MOL0     H64445   9.193   0.834   2.161  0.1787  0.6072  0.9811
  467MOL0     H64446   9.354   0.842   2.219  1.7811  2.5425 -2.7786
  468MOL0     O64447  11.311   6.108   0.246  0.5682  0.1538 -0.6742
  468MOL0     C64448  11.233   6.205   0.229  0.1587  0.8119 -0.2486
  468MOL0     O64449  11.264   6.314   0.151  1.2527 -0.1494  0.1069
  468MOL0     C64450  11.377   6.310   0.081  0.1641 -0.7833  0.6028
  468MOL0     C64451  11.459   6.424   0.101  0.0379  0.5836  0.9621
  468MOL0     C64452  11.582   6.426   0.036  0.4192 -0.0584 -0.3605
  468MOL0     C64453  11.620   6.327  -0.061 -0.9656  0.6818 -0.2481
  468MOL0     O64454  11.750   6.328  -0.108 -0.0875  0.8120 -0.8345
  468MOL0     C64455  11.753   6.322  -0.251  0.0520 -0.3562  1.0468
  468MOL0     C64456  11.894   6.327  -0.310 -0.2017 -1.0733  0.4819
  468MOL0     C64457  11.899   6.368  -0.459 -0.1132  0.0017  0.3204
  468MOL0     C64458  11.836   6.261  -0.547  0.3427  0.5989  0.0171
  468MOL0     C64459  11.890   6.245  -0.695  1.6496 -0.3631 -1.4473
  468MOL0     C64460  12.020   6.175  -0.700 -0.2709  0.5106  0.9307
  468MOL0     C64461  12.067   6.153  -0.841 -0.6001  0.5334 -0.7462
  468MOL0     C64462  12.203   6.084  -0.860 -0.2932 -0.0970 -0.6686
  468MOL0     N64463  12.226   6.051  -0.999 -0.0665  0.4256 -0.2950
  468MOL0     C64464  12.266   6.129  -1.104  0.9197 -0.0652  0.0639
  468MOL0     C64465  12.245   6.059  -1.214 -0.0498  0.9840  0.6068
  468MOL0     C64466  12.290   6.108  -1.345 -0.2314  0.1711 -0.4172
  468MOL0     C64467  12.172   6.096  -1.446  0.5959 -0.4272 -0.5284
  468MOL0     C64468  12.056   6.195  -1.412  0.3469  0.1655 -0.3518
  468MOL0     C64469  12.085   6.344  -1.443 -0.2548  0.2069  1.6131
  468MOL0     O64470  12.097   6.368  -1.587  0.1614 -0.1353  0.0349
  468MOL0     C64471  12.130   6.497  -1.610 -0.4675  0.2283 -0.3354
  468MOL0     C64472  12.266   6.530  -1.628  0.5826  0.3306 -0.0338
  468MOL0     C64473  12.315   6.656  -1.662  0.2623 -1.2392 -0.2855
  468MOL0     C64474  12.462   6.680  -1.674  0.5774 -0.2625  0.7088
  468MOL0     C64475  12.213   6.758  -1.658  0.4838 -0.1228 -1.0336
  468MOL0     C64476  12.254   6.901  -1.680  0.4276 -0.5164  0.3885
  468MOL0     O64477  12.181   6.998  -1.618  1.0179  0.8352  0.7270
  468MOL0     C64478  12.218   7.129  -1.638 -0.0342  0.3148  0.4208
  468MOL0     C64479  12.136   7.221  -1.702 -0.2340  0.1020  0.9864
  468MOL0     C64480  12.162   7.359  -1.696 -0.6979 -0.2637  0.6224
  468MOL0     C64481  12.275   7.405  -1.634 -0.2725 -0.8557 -0.6854
  468MOL0     O64482  12.306   7.543  -1.631  0.5882  0.9578 -0.5122
  468MOL0     C64483  12.264   7.620  -1.753  0.2440  0.4051 -0.4243
  468MOL0     C64484  12.345   7.745  -1.746 -0.1466  0.2353  0.2068
  468MOL0     C64485  12.316   7.832  -1.868  0.3666  0.0130  0.0760
  468MOL0     C64486  12.205   7.940  -1.842 -0.0512 -1.2466  0.1084
  468MOL0     C64487  12.232   8.050  -1.737  0.7246 -0.0207  0.9097
  468MOL0     C64488  12.113   8.145  -1.719  0.2158 -0.2381  0.7397
  468MOL0     C64489  11.979   8.085  -1.680  1.3337 -0.8819 -0.2012
  468MOL0     C64490  11.880   8.196  -1.649  0.1427 -0.0559 -0.0252
  468MOL0    Cl64491  11.826   8.288  -1.796  0.1281 -0.1763  0.2063
  468MOL0     C64492  12.351   7.319  -1.561  0.4828  0.2413  0.2894
  468MOL0     C64493  12.325   7.179  -1.561  0.7603 -0.4411  0.4456
  468MOL0     O64494  12.350   6.925  -1.753 -0.2704  0.6668  0.0388
  468MOL0     C64495  12.075   6.729  -1.625 -0.2001  0.3880  0.2572
  468MOL0     C64496  12.036   6.596  -1.615 -0.4542 -0.4595  0.5707
  468MOL0     N64497  12.167   5.953  -1.186 -0.5787  0.0533 -0.4856
  468MOL0     N64498  12.158   5.942  -1.056  0.1085  0.0027 -0.5146
  468MOL0     C64499  11.525   6.226  -0.085  0.4992  0.0148  0.9633
  468MOL0     C64500  11.408   6.211  -0.014 -0.0440 -0.2214 -0.4724
  468MOL0     C64501  11.093   6.197   0.283 -0.2006  0.2231 -0.1729
  468MOL0     C64502  11.024   6.314   0.320 -1.0835 -1.6233  0.8277
  468MOL0     C64503  10.898   6.313   0.369  0.0904 -0.2524  0.4317
  468MOL0     C64504  10.833   6.197   0.400  1.1137  0.3495  0.6886
  468MOL0     O64505  10.722   6.209   0.479  0.2575  0.6208  0.3342
  468MOL0     C64506  10.649   6.093   0.521 -0.0727  0.6895  0.1852
  468MOL0     C64507  10.700   6.047   0.662 -1.1038 -0.4500 -0.1641
  468MOL0     C64508  10.596   5.950   0.721  0.0315 -0.5945 -0.4201
  468MOL0     C64509  10.545   5.982   0.866 -0.4293 -0.2442  0.3555
  468MOL0     C64510  10.544   5.863   0.948  0.0820  0.0060  1.5032
  468MOL0     C64511  10.542   5.762   1.012  0.1484 -0.4726  0.3104
  468MOL0     C64512  10.897   6.079   0.354  0.0803 -0.0485  0.0880
  468MOL0     C64513  11.023   6.075   0.294  0.0329 -0.2495  0.3289
  468MOL0     C64514  11.080   5.937   0.259  0.6854  0.1516  0.1464
  468MOL0     H64515  11.425   6.500   0.170 -1.9413 -1.7183  2.7175
  468MOL0     H64516  11.657   6.504   0.042 -2.1309  2.7492 -2.2700
  468MOL0     H64517  11.687   6.399  -0.293 -2.4049 -2.0191  1.6011
  468MOL0     H64518  11.703   6.230  -0.285 -1.6533  0.4796  1.1702
  468MOL0     H64519  11.957   6.403  -0.261  1.6944 -1.5553 -1.0746
  468MOL0     H64520  11.942   6.231  -0.288 -0.1321 -0.9234  1.0017
  468MOL0     H64521  11.839   6.457  -0.482 -0.7653 -0.6049 -0.3510
  468MOL0     H64522  12.002   6.391  -0.487  0.4900 -0.4239  2.0618
  468MOL0     H64523  11.838   6.163  -0.498 -1.7937  1.1752  1.3775
  468MOL0     H64524  11.730   6.286  -0.560  0.6144  2.7375  1.4161
  468MOL0     H64525  11.907   6.342  -0.742 -0.2863 -0.2876 -2.0853
  468MOL0     H64526  11.818   6.183  -0.750  1.4147 -0.6874 -0.7991
  468MOL0     H64527  12.091   6.246  -0.655  0.4900  0.0106  0.5533
  468MOL0     H64528  12.045   6.084  -0.643  5.9138 -1.5007 -3.8641
  468MOL0     H64529  12.072   6.250  -0.890 -0.1104  1.6628  1.4137
  468MOL0     H64530  11.988   6.100  -0.895  1.0552 -3.9147  0.7523
  468MOL0     H64531  12.283   6.150  -0.825  2.0990 -2.2111 -1.8753
  468MOL0     H64532  12.216   5.999  -0.793  0.8839  0.2871 -0.3966
  468MOL0     H64533  12.301   6.231  -1.096  1.5201 -0.4431  3.1311
  468MOL0     H64534  12.378   6.055  -1.381  0.8195  1.6919 -0.1813
  468MOL0     H64535  12.314   6.214  -1.329  0.0319 -0.0012  0.4172
  468MOL0     H64536  12.208   6.117  -1.547 -0.6084 -0.0655 -0.9057
  468MOL0     H64537  12.146   5.990  -1.449  0.5574 -0.3991 -2.0596
  468MOL0     H64538  11.962   6.169  -1.461 -1.3743  3.5103  0.8635
  468MOL0     H64539  12.041   6.184  -1.305  1.7287 -0.9959 -0.2476
  468MOL0     H64540  11.996   6.401  -1.416  0.0548  3.7114 -3.4015
  468MOL0     H64541  12.170   6.390  -1.392 -0.5786  1.2222  1.2538
  468MOL0     H64542  12.333   6.445  -1.627 -0.2059 -0.3374  2.1506
  468MOL0     H64543  12.490   6.726  -1.770 -0.7426 -3.2114 -1.2510
  468MOL0     H64544  12.509   6.581  -1.670 -0.8788 -1.0287 -0.1799
  468MOL0     H64545  12.514   6.732  -1.593  5.2740 -1.1996 -1.3645
  468MOL0     H64546  12.050   7.182  -1.756 -0.1903  0.1942  0.8480
  468MOL0     H64547  12.097   7.422  -1.756 -1.8098 -1.3422  0.6708
  468MOL0     H64548  12.266   7.565  -1.848 -2.6801  0.7722 -0.7971
  468MOL0     H64549  12.156   7.635  -1.749  0.1949  0.0510 -0.3690
  468MOL0     H64550  12.310   7.785  -1.651  1.0311 -1.0354  1.2132
  468MOL0     H64551  12.452   7.722  -1.753 -0.5229 -1.2894 -3.9255
  468MOL0     H64552  12.285   7.766  -1.950  1.0108 -1.7433  1.1861
  468MOL0     H64553  12.408   7.884  -1.897  0.5828  0.6542  1.7844
  468MOL0     H64554  12.109   7.893  -1.819 -1.9929  2.3541  0.1735
  468MOL0     H64555  12.177   8.003  -1.928 -2.0081  0.2439  1.7358
  468MOL0     H64556  12.250   8.002  -1.641 -0.0657 -1.3976  0.3953
  468MOL0     H64557  12.319   8.105  -1.774  1.6062 -2.5969 -1.2215
  468MOL0     H64558  12.105   8.201  -1.813 -0.4615  0.3674  1.1411
  468MOL0     H64559  12.156   8.205  -1.637  2.1353 -0.9091  0.2863
  468MOL0     H64560  11.982   8.020  -1.592  1.9611 -1.9070 -0.9557
  468MOL0     H64561  11.933   8.028  -1.762  1.9012 -4.1611  1.5850
  468MOL0     H64562  11.932   8.269  -1.587  3.2395 -2.3589  0.3727
  468MOL0     H64563  11.789   8.159  -1.600 -0.4159 -0.5245 -1.3468
  468MOL0     H64564  12.434   7.354  -1.501  2.2100  0.2048 -1.9615
  468MOL0     H64565  12.372   7.108  -1.493  1.0537 -1.2690 -0.5895
  468MOL0     H64566  12.009   6.815  -1.631  1.2364  1.5493  0.4920
  468MOL0     H64567  11.930   6.573  -1.610 -0.4699 -1.4084 -2.4822
  468MOL0     H64568  11.549   6.147  -0.156  1.8229  0.2574  1.1232
  468MOL0     H64569  11.338   6.128  -0.023  1.4668 -1.4185 -1.8549
  468MOL0     H64570  11.083   6.405   0.313 -3.5238  0.1002  1.1738
  468MOL0     H64571  10.848   6.401   0.407 -0.8655 -0.5296 -0.1465
  468MOL0     H64572  10.550   6.138   0.535  1.7349  4.8238  1.3643
  468MOL0     H64573  10.655   6.014   0.446  2.5927  0.9760 -0.0090
  468MOL0     H64574  10.708   6.132   0.731 -1.9204 -1.6926  1.5192
  468MOL0     H64575  10.803   6.011   0.664 -0.8158  0.3036  2.6058
  468MOL0     H64576  10.518   5.932   0.647  1.5872 -0.1728 -2.2517
  468MOL0     H64577  10.646   5.853   0.727  1.5392  0.1356 -0.7240
  468MOL0     H64578  10.453   6.042   0.866  0.7531  1.6517 -0.1721
  468MOL0     H64579  10.620   6.049   0.908 -0.5631 -0.1048  0.3767
  468MOL0     H64580  10.560   5.666   1.056 -0.5679 -1.3137 -1.1232
  468MOL0     H64581  10.850   5.984   0.374 -0.1168  0.1685  0.6740
  468MOL0     H64582  11.120   5.943   0.158 -0.7627  0.0896 -0.4491
  468MOL0     H64583  11.162   5.895   0.318 -2.0000 -2.1650  2.5377
  468MOL0     H64584  11.001   5.862   0.266 -0.5966  1.5077  0.7857
  469MOL0     O64585   7.119   1.172  11.479  0.2257  0.0435 -0.2911
  469MOL0     C64586   7.059   1.104  11.397  0.4198 -0.4860 -0.9145
  469MOL0     O64587   7.067   1.106  11.257 -0.2767  0.0614 -0.9991
  469MOL0     C64588   7.161   1.174  11.175  0.7386  0.2552 -0.1627
  469MOL0     C64589   7.275   1.233  11.212 -0.2415  0.3875 -0.0999
  469MOL0     C64590   7.366   1.269  11.111  0.8047 -0.0320 -0.4274
  469MOL0     C64591   7.327   1.276  10.978 -1.1010 -0.0616 -0.0103
  469MOL0     O64592   7.419   1.334  10.891  0.1321 -0.5826 -0.7906
  469MOL0     C64593   7.381   1.359  10.755 -0.0337 -0.0603 -0.1845
  469MOL0     C64594   7.510   1.393  10.686 -0.3237  0.7902  0.6489
  469MOL0     C64595   7.599   1.271  10.678 -0.3097 -0.1217 -0.6701
  469MOL0     C64596   7.733   1.294  10.606 -0.6691  0.4444 -0.4808
  469MOL0     C64597   7.846   1.356  10.695  0.9477  0.1314  0.1495
  469MOL0     C64598   7.976   1.356  10.615 -0.0507 -0.5205  0.7943
  469MOL0     C64599   8.079   1.463  10.649 -0.1311 -0.1077  0.2632
  469MOL0     C64600   8.199   1.444  10.555 -0.8520  0.0883  0.4326
  469MOL0     N64601   8.275   1.571  10.541 -0.1817  0.1824  0.2366
  469MOL0     C64602   8.388   1.610  10.610  0.0730 -0.5048  0.3378
  469MOL0     C64603   8.448   1.713  10.542 -0.5623 -0.8180 -0.2171
  469MOL0     C64604   8.587   1.769  10.570 -0.0799 -0.3607 -0.0470
  469MOL0     C64605   8.591   1.916  10.608 -0.0511  1.0960  0.5307
  469MOL0     C64606   8.740   1.967  10.608 -0.2316 -0.5627 -0.2877
  469MOL0     C64607   8.807   1.940  10.739 -0.2679  0.1159  0.1374
  469MOL0     O64608   8.839   1.799  10.751 -0.5751  0.5137  0.5858
  469MOL0     C64609   8.920   1.747  10.851 -0.0059  0.4177  0.5635
  469MOL0     C64610   8.911   1.606  10.869  0.0119  0.5175  0.1133
  469MOL0     C64611   8.988   1.532  10.960  0.2728  0.2363 -0.4744
  469MOL0     C64612   8.985   1.375  10.951 -0.3739  0.2145  0.3326
  469MOL0     C64613   9.084   1.609  11.043  0.4393  0.3450 -0.1980
  469MOL0     C64614   9.179   1.551  11.150 -0.6056 -0.5612  0.4123
  469MOL0     O64615   9.142   1.431  11.195 -0.1874  0.4437  0.5840
  469MOL0     C64616   9.225   1.357  11.269  0.5834 -0.2507  0.0964
  469MOL0     C64617   9.309   1.260  11.216 -0.3581  0.3462 -0.3642
  469MOL0     C64618   9.393   1.184  11.300  0.1262 -0.8687  0.7026
  469MOL0     C64619   9.396   1.209  11.435 -0.3095 -0.3143 -0.0408
  469MOL0     O64620   9.504   1.164  11.506 -0.0342  0.3052 -0.0080
  469MOL0     C64621   9.567   1.266  11.593 -0.3371 -0.5446 -0.3543
  469MOL0     C64622   9.720   1.251  11.584 -0.1281  0.0315  0.5072
  469MOL0     C64623   9.794   1.352  11.667 -0.1483 -0.5960 -0.2823
  469MOL0     C64624   9.948   1.345  11.641 -0.6675 -0.3817  0.1794
  469MOL0     C64625  10.015   1.475  11.690  0.2467 -0.5335  0.2773
  469MOL0     C64626  10.054   1.496  11.836 -0.7102 -0.4944 -0.0372
  469MOL0     C64627  10.152   1.392  11.886  0.4115  0.1127 -0.8935
  469MOL0     C64628  10.075   1.267  11.948 -0.1838 -0.0869 -0.4781
  469MOL0    Cl64629  10.214   1.171  12.011  0.0532 -0.2010  0.6061
  469MOL0     C64630   9.298   1.290  11.487  0.1798  0.5369 -0.4283
  469MOL0     C64631   9.220   1.367  11.407  0.2205 -0.5881 -0.1155
  469MOL0     O64632   9.291   1.600  11.170  0.3661  0.6917  0.6360
  469MOL0     C64633   9.090   1.746  11.018 -0.8679  0.5616  1.2704
  469MOL0     C64634   9.014   1.822  10.925 -0.6689  0.0967  0.0075
  469MOL0     N64635   8.366   1.752  10.435 -0.5246  0.7895 -0.6231
  469MOL0     N64636   8.265   1.668  10.435 -0.3265  0.2407 -1.0214
  469MOL0     C64637   7.203   1.232  10.944  0.2266  1.5294  1.0274
  469MOL0     C64638   7.117   1.179  11.043 -0.0498  0.0945 -0.5447
  469MOL0     C64639   6.947   1.013  11.447  0.0732 -0.1715 -0.0625
  469MOL0     C64640   6.938   0.982  11.585  0.5581 -0.0253 -0.3043
  469MOL0     C64641   6.832   0.911  11.637 -0.2131  0.0177 -0.0806
  469MOL0     C64642   6.735   0.856  11.554  0.9592  0.1356  0.0100
  469MOL0     O64643   6.632   0.786  11.620 -0.3459  0.1586 -0.1800
  469MOL0     C64644   6.499   0.792  11.560  0.2357  0.0601 -0.6776
  469MOL0     C64645   6.435   0.929  11.535 -0.0399  0.0763  0.8069
  469MOL0     C64646   6.318   0.916  11.436  0.0573  0.2349 -0.4463
  469MOL0     C64647   6.269   1.050  11.373 -0.6770  0.1393  0.2373
  469MOL0     C64648   6.205   1.150  11.451  0.7076  0.1725 -0.3940
  469MOL0     C64649   6.138   1.222  11.518  0.2272  0.3256 -0.6521
  469MOL0     C64650   6.741   0.891  11.418 -0.7184  0.0109 -0.3233
  469MOL0     C64651   6.840   0.967  11.359  0.4150  0.6711 -0.2521
  469MOL0     C64652   6.802   1.009  11.219  0.0376 -0.7576 -0.7462
  469MOL0     H64653   7.301   1.227  11.317 -2.0765  0.2674  0.3823
  469MOL0     H64654   7.467   1.297  11.137  0.7664  1.0915 -1.4005
  469MOL0     H64655   7.318   1.447  10.739  1.7569  0.9169 -2.2485
  469MOL0     H64656   7.335   1.271  10.709  2.0492  0.0896 -2.8313
  469MOL0     H64657   7.492   1.414  10.580  0.3616 -0.5120  0.2531
  469MOL0     H64658   7.557   1.479  10.735  0.0056  1.2911 -0.5148
  469MOL0     H64659   7.628   1.234  10.776  2.7556 -3.4120 -2.5853
  469MOL0     H64660   7.536   1.195  10.631 -3.1831  1.6336  0.0538
  469MOL0     H64661   7.766   1.195  10.573  0.0310  0.3707  0.4024
  469MOL0     H64662   7.719   1.358  10.518 -0.4645  1.4122  0.1689
  469MOL0     H64663   7.863   1.318  10.796  2.5112  0.4581  0.0446
  469MOL0     H64664   7.815   1.460  10.705 -0.3957 -0.2695  0.2612
  469MOL0     H64665   8.012   1.253  10.628 -1.6080 -1.1152  0.7162
  469MOL0     H64666   7.951   1.383  10.512  1.4079  1.4177  0.9031
  469MOL0     H64667   8.108   1.469  10.754 -2.9765  0.4156  1.1117
  469MOL0     H64668   8.030   1.560  10.638  0.5482  0.5567  2.5460
  469MOL0     H64669   8.257   1.361  10.594 -0.9641  0.2353  0.9215
  469MOL0     H64670   8.163   1.409  10.458 -1.4692 -0.6147  0.9105
  469MOL0     H64671   8.430   1.560  10.697 -0.5999 -0.0483  0.9426
  469MOL0     H64672   8.659   1.737  10.494  1.0714  0.3427  0.6949
  469MOL0     H64673   8.616   1.717  10.662  0.4494 -0.0163 -0.0101
  469MOL0     H64674   8.540   1.974  10.530 -1.9791 -3.4758 -1.9978
  469MOL0     H64675   8.541   1.926  10.705  3.1646 -1.2963  2.6359
  469MOL0     H64676   8.793   1.914  10.529 -0.7773 -0.6893 -0.5743
  469MOL0     H64677   8.757   2.073  10.588  0.3833 -0.3646  1.1456
  469MOL0     H64678   8.900   1.997  10.740 -0.2141  0.2514 -3.1187
  469MOL0     H64679   8.746   1.974  10.824 -1.6642 -3.2434  0.6466
  469MOL0     H64680   8.859   1.551  10.791  3.1399  0.5395 -2.1863
  469MOL0     H64681   9.086   1.341  10.927 -0.9860 -1.4932  0.0699
  469MOL0     H64682   8.917   1.346  10.870  2.7492  2.2147 -3.3499
  469MOL0     H64683   8.953   1.323  11.042 -0.0911 -2.2977 -0.9177
  469MOL0     H64684   9.318   1.237  11.110 -1.1213  3.0795 -1.1087
  469MOL0     H64685   9.467   1.116  11.259 -1.5355 -2.9190  0.8879
  469MOL0     H64686   9.536   1.369  11.573 -0.2794  0.4662  3.8972
  469MOL0     H64687   9.545   1.239  11.696 -0.9667  1.3060  0.0286
  469MOL0     H64688   9.759   1.152  11.608  2.3645  1.3178  2.2342
  469MOL0     H64689   9.739   1.263  11.477  1.0359 -1.4652  0.5132
  469MOL0     H64690   9.767   1.349  11.773  1.6816  0.5012  0.2654
  469MOL0     H64691   9.751   1.444  11.625  1.8643  0.7206  0.3740
  469MOL0     H64692   9.983   1.344  11.538  0.9927 -1.2378  0.7157
  469MOL0     H64693   9.998   1.263  11.693 -1.0151 -1.7996 -1.6237
  469MOL0     H64694  10.108   1.487  11.634 -0.2306 -1.2623 -0.7063
  469MOL0     H64695   9.940   1.549  11.662 -1.3892 -1.7363  1.2596
  469MOL0     H64696   9.975   1.499  11.911 -0.5899  0.7348  0.0636
  469MOL0     H64697  10.101   1.595  11.833  0.9478 -1.2714 -1.5274
  469MOL0     H64698  10.212   1.441  11.963 -1.1335  0.0651  0.3844
  469MOL0     H64699  10.220   1.356  11.807  0.7102 -3.0562  0.6324
  469MOL0     H64700  10.008   1.210  11.883 -1.0160 -0.8807  1.0400
  469MOL0     H64701  10.005   1.295  12.026 -0.1921  0.4035 -0.6606
  469MOL0     H64702   9.285   1.301  11.594 -2.1326  0.0482 -0.6035
  469MOL0     H64703   9.155   1.447  11.442 -0.1456 -0.7872 -0.3382
  469MOL0     H64704   9.156   1.802  11.083  0.1647  0.5485  0.2674
  469MOL0     H64705   9.025   1.929  10.917  0.0850  0.3014  2.7638
  469MOL0     H64706   7.165   1.236  10.842 -2.4113  2.7648  1.9725
  469MOL0     H64707   7.017   1.144  11.021  0.7232 -0.3712 -4.0183
  469MOL0     H64708   7.019   1.018  11.648 -1.8913  0.8329  2.6049
  469MOL0     H64709   6.839   0.883  11.741  1.8727 -0.3105 -0.2594
  469MOL0     H64710   6.513   0.725  11.475  2.3644 -0.5095  0.0616
  469MOL0     H64711   6.433   0.733  11.624  1.1172 -1.2500 -0.9297
  469MOL0     H64712   6.504   1.010  11.511  3.1008 -2.2375  1.3434
  469MOL0     H64713   6.398   0.963  11.633 -2.6822 -1.2873  0.3953
  469MOL0     H64714   6.353   0.848  11.358  0.8877  3.4349 -3.0765
  469MOL0     H64715   6.226   0.888  11.487  0.5903  2.0496  1.7009
  469MOL0     H64716   6.208   1.029  11.285  2.6023 -1.8098 -1.7907
  469MOL0     H64717   6.354   1.102  11.327  0.1445  0.5522  2.1325
  469MOL0     H64718   6.082   1.294  11.574 -0.7793 -0.8568 -0.0891
  469MOL0     H64719   6.654   0.857  11.362 -0.8568 -2.2207  1.0992
  469MOL0     H64720   6.843   0.932  11.152  1.5087 -1.5210  0.9515
  469MOL0     H64721   6.695   1.015  11.196 -0.2263 -0.9795  0.3815
  469MOL0     H64722   6.838   1.112  11.209 -0.0492 -0.6825 -0.3018
  470MOL0     O64723   3.024  11.031   1.424  0.9352 -0.9712 -0.0672
  470MOL0     C64724   3.104  11.056   1.328  0.6740  0.2548 -0.7529
  470MOL0     O64725   3.226  11.109   1.343  1.0968  0.7006  0.2807
  470MOL0     C64726   3.271  11.105   1.474  1.4344 -1.1642  0.2276
  470MOL0     C64727   3.241  11.206   1.567  0.3055 -0.2444 -0.6836
  470MOL0     C64728   3.304  11.205   1.697  0.2834  0.6910  0.0151
  470MOL0     C64729   3.400  11.110   1.730  0.3319 -0.4416  0.0342
  470MOL0     O64730   3.469  11.123   1.845 -0.1614 -0.6641  0.5628
  470MOL0     C64731   3.531  11.013   1.910 -0.2429  0.0919 -0.2363
  470MOL0     C64732   3.652  11.056   1.993  0.0005 -0.3578  0.0560
  470MOL0     C64733   3.718  10.940   2.053 -0.7618  0.1104 -0.6731
  470MOL0     C64734   3.828  10.988   2.154  0.5194  0.0547 -0.3089
  470MOL0     C64735   3.935  10.883   2.181 -0.7415  0.2747  0.1323
  470MOL0     C64736   3.882  10.759   2.245 -0.0999  0.0086  0.3466
  470MOL0     C64737   4.004  10.664   2.280  1.2815  0.0431 -0.4016
  470MOL0     C64738   4.048  10.580   2.163 -0.7601 -0.5883  0.8092
  470MOL0     N64739   4.154  10.487   2.215 -0.0595  0.4175  0.3098
  470MOL0     C64740   4.289  10.506   2.203 -0.9562 -1.1027 -0.8192
  470MOL0     C64741   4.341  10.386   2.235  0.0864  0.4072  0.5310
  470MOL0     C64742   4.477  10.319   2.213  0.4796  0.1820 -1.1814
  470MOL0     C64743   4.589  10.420   2.215 -1.1702 -0.5340 -0.4231
  470MOL0     C64744   4.733  10.364   2.238  0.1883 -0.5671 -0.1779
  470MOL0     C64745   4.775  10.275   2.121  0.4992  0.1186 -0.0999
  470MOL0     O64746   4.890  10.204   2.173 -0.2431  0.2366  0.3426
  470MOL0     C64747   4.981  10.172   2.075  0.3613 -0.2383 -0.5056
  470MOL0     C64748   5.109  10.232   2.065 -0.2147 -0.3099 -0.0082
  470MOL0     C64749   5.190  10.190   1.964 -0.2712  0.0259 -0.2142
  470MOL0     C64750   5.326  10.251   1.976  0.2301 -0.0537  0.5919
  470MOL0     C64751   5.157  10.083   1.870  0.3630 -0.2845  0.6319
  470MOL0     C64752   5.252  10.030   1.762  1.1934  0.3473 -0.4819
  470MOL0     O64753   5.191   9.986   1.651 -0.2265 -0.1418  0.2133
  470MOL0     C64754   5.279   9.918   1.572 -0.0986 -0.0039 -0.4665
  470MOL0     C64755   5.345   9.975   1.464 -0.4905 -0.5236  0.5329
  470MOL0     C64756   5.432   9.900   1.380  0.3427  0.1317 -0.3944
  470MOL0     C64757   5.439   9.757   1.396  0.2481  0.1340  0.1942
  470MOL0     O64758   5.504   9.695   1.291  0.0713  0.4792 -0.2495
  470MOL0     C64759   5.561   9.566   1.316  0.3025 -0.6388 -0.7241
  470MOL0     C64760   5.618   9.519   1.180  0.5712  0.9754  0.5365
  470MOL0     C64761   5.519   9.530   1.056 -1.5111  0.4388  0.1482
  470MOL0     C64762   5.570   9.451   0.929  0.8078  0.2768 -0.3589
  470MOL0     C64763   5.627   9.307   0.952 -1.0920 -0.0199 -0.3745
  470MOL0     C64764   5.533   9.228   1.041  0.3547 -0.0384 -0.6518
  470MOL0     C64765   5.574   9.078   1.057 -0.3655  0.1990 -0.0002
  470MOL0     C64766   5.456   8.988   1.093  0.4553 -0.0052  0.1324
  470MOL0    Cl64767   5.338   8.984   0.962  0.0456  0.3275  0.0409
  470MOL0     C64768   5.378   9.701   1.510 -0.0126 -0.1093 -0.7101
  470MOL0     C64769   5.305   9.782   1.598  0.1340 -0.4813 -0.1951
  470MOL0     O64770   5.369  10.021   1.795 -0.3200  0.0916 -0.4268
  470MOL0     C64771   5.027  10.029   1.880  0.5047  0.0693  0.2831
  470MOL0     C64772   4.947  10.082   1.980  0.1444  0.1091 -0.5601
  470MOL0     N64773   4.238  10.303   2.280 -0.1989 -1.0368  0.4204
  470MOL0     N64774   4.125  10.364   2.259  0.8087 -0.4718 -0.5450
  470MOL0     C64775   3.426  11.009   1.635 -0.3244 -0.2518 -0.0890
  470MOL0     C64776   3.364  11.007   1.509  0.1935 -0.3813 -0.4720
  470MOL0     C64777   3.060  11.046   1.188  1.1274  0.7176  0.1912
  470MOL0     C64778   2.925  11.050   1.162 -0.1693  0.3607 -0.3684
  470MOL0     C64779   2.871  11.053   1.039  0.9390  0.4766  0.4080
  470MOL0     C64780   2.947  11.068   0.924 -0.4509 -0.5014  0.3397
  470MOL0     O64781   2.890  11.067   0.801 -0.5779  0.4789  0.0087
  470MOL0     C64782   2.761  11.131   0.781  0.4445 -0.0596 -0.3036
  470MOL0     C64783   2.732  11.163   0.631  0.1072 -0.3898  1.3296
  470MOL0     C64784   2.758  11.045   0.540 -0.6019 -0.1431 -0.2760
  470MOL0     C64785   2.754  11.082   0.386  0.2564 -0.8580 -0.7362
  470MOL0     C64786   2.813  10.984   0.290  0.8343  0.2891 -0.3225
  470MOL0     C64787   2.890  10.926   0.219  0.8130 -0.1783 -0.3428
  470MOL0     C64788   3.088  11.067   0.943 -0.1739  0.2606 -0.5332
  470MOL0     C64789   3.142  11.064   1.072  0.1450  0.5697 -1.2215
  470MOL0     C64790   3.289  11.066   1.077  0.1797 -0.4661 -0.0122
  470MOL0     H64791   3.159  11.271   1.539 -0.1859 -0.5056  0.1043
  470MOL0     H64792   3.290  11.288   1.765 -2.9450  0.7807 -0.5779
  470MOL0     H64793   3.567  10.941   1.836  0.2564 -0.0982  0.1807
  470MOL0     H64794   3.458  10.968   1.979  0.5651 -1.0148 -0.0829
  470MOL0     H64795   3.727  11.110   1.934 -0.4517  0.9721  0.6496
  470MOL0     H64796   3.613  11.122   2.071  0.5403  2.0895 -1.6219
  470MOL0     H64797   3.640  10.880   2.101  0.4277 -1.5289 -0.6981
  470MOL0     H64798   3.759  10.885   1.968  0.9419 -0.2528  0.3367
  470MOL0     H64799   3.876  11.076   2.110  0.8211  1.5280  2.6783
  470MOL0     H64800   3.777  11.009   2.249  0.5800 -0.9619 -0.0357
  470MOL0     H64801   4.006  10.938   2.243  1.8683  0.6794 -2.9283
  470MOL0     H64802   3.984  10.864   2.085 -0.8480  0.4255  0.0479
  470MOL0     H64803   3.833  10.785   2.339  0.5117 -1.3530  1.0657
  470MOL0     H64804   3.819  10.711   2.170 -1.4064 -0.6453  1.8296
  470MOL0     H64805   3.962  10.601   2.359  1.0867  0.5960 -0.0601
  470MOL0     H64806   4.090  10.723   2.314  2.9244 -2.8952  0.9931
  470MOL0     H64807   3.965  10.528   2.115 -0.2308  0.4068 -1.3071
  470MOL0     H64808   4.082  10.637   2.075 -1.4115 -2.7045 -0.9000
  470MOL0     H64809   4.365  10.577   2.171  0.3620 -2.1903 -0.1443
  470MOL0     H64810   4.483  10.241   2.136  0.1024 -1.8457  0.7730
  470MOL0     H64811   4.494  10.262   2.305 -0.2195 -0.3950 -1.4023
  470MOL0     H64812   4.582  10.490   2.131 -0.8178 -1.8361 -1.5767
  470MOL0     H64813   4.574  10.498   2.290 -2.5895 -2.1803  1.0997
  470MOL0     H64814   4.805  10.446   2.248  0.0306 -0.2461 -1.4284
  470MOL0     H64815   4.739  10.309   2.332  0.5827  0.4906  0.4308
  470MOL0     H64816   4.701  10.200   2.092  1.3906  0.0244 -2.3461
  470MOL0     H64817   4.794  10.337   2.033  0.1821  2.6943  1.5607
  470MOL0     H64818   5.139  10.300   2.144 -1.7935  1.1040 -0.5797
  470MOL0     H64819   5.386  10.190   2.044 -3.0164 -3.1402  0.9603
  470MOL0     H64820   5.326  10.357   2.001  0.5991  0.1988 -0.4271
  470MOL0     H64821   5.383  10.250   1.883  0.1158 -1.8931  0.4985
  470MOL0     H64822   5.311  10.077   1.450 -2.1317 -0.8970  1.5276
  470MOL0     H64823   5.477   9.946   1.293  0.5414 -0.6462 -0.7160
  470MOL0     H64824   5.640   9.579   1.390  1.2313  1.5782 -2.0042
  470MOL0     H64825   5.485   9.500   1.360  0.4211  0.0048  0.4834
  470MOL0     H64826   5.714   9.569   1.167  3.2524 -3.6284  0.3077
  470MOL0     H64827   5.646   9.415   1.200  1.7483  1.5929  2.4149
  470MOL0     H64828   5.518   9.637   1.036 -1.0732  0.6619  1.2436
  470MOL0     H64829   5.416   9.509   1.088 -0.8919  0.1125  2.0488
  470MOL0     H64830   5.641   9.514   0.874  1.8824 -0.8405 -0.2950
  470MOL0     H64831   5.479   9.434   0.871  0.4354 -0.7857  0.5172
  470MOL0     H64832   5.641   9.268   0.851  2.1864  3.0563 -1.3433
  470MOL0     H64833   5.721   9.322   1.007 -1.2743  1.3156 -0.3766
  470MOL0     H64834   5.434   9.224   0.996  0.1234  1.6592 -0.3406
  470MOL0     H64835   5.523   9.265   1.144 -0.8774 -1.5890 -0.1800
  470MOL0     H64836   5.644   9.063   1.141  1.2595 -0.4188 -1.4110
  470MOL0     H64837   5.629   9.046   0.968 -0.6245 -0.6320  0.1290
  470MOL0     H64838   5.399   9.023   1.179  1.4332 -0.1133  0.8523
  470MOL0     H64839   5.507   8.896   1.125 -0.0150  0.2532  1.7189
  470MOL0     H64840   5.385   9.595   1.535 -2.1978 -0.2424 -0.4449
  470MOL0     H64841   5.255   9.738   1.683  0.1484 -0.3463 -0.1166
  470MOL0     H64842   4.990   9.953   1.812 -0.6074  0.3739  0.5221
  470MOL0     H64843   4.844  10.050   1.993  0.7582 -1.2055  1.4922
  470MOL0     H64844   3.496  10.927   1.644 -1.7193 -1.7726 -2.2132
  470MOL0     H64845   3.397  10.921   1.451  0.0026 -0.4241 -0.5186
  470MOL0     H64846   2.858  11.042   1.247  2.0840 -0.4882  1.4147
  470MOL0     H64847   2.764  11.063   1.024  1.0070  0.3853 -0.1371
  470MOL0     H64848   2.680  11.062   0.809  0.8487  0.0635  1.2323
  470MOL0     H64849   2.750  11.223   0.839 -0.9632 -0.2122 -0.2856
  470MOL0     H64850   2.797  11.244   0.598 -1.9123  0.6321 -0.3438
  470MOL0     H64851   2.630  11.199   0.620  0.2884 -0.4709 -1.2669
  470MOL0     H64852   2.858  11.005   0.560 -0.1925  0.8630 -0.2704
  470MOL0     H64853   2.680  10.971   0.565 -1.4937  0.0483 -2.3004
  470MOL0     H64854   2.794  11.182   0.368  0.4393 -0.2424  2.4479
  470MOL0     H64855   2.650  11.086   0.355  0.1935 -0.7126 -0.5105
  470MOL0     H64856   2.962  10.874   0.160  1.4979  1.0865 -0.6540
  470MOL0     H64857   3.147  11.079   0.853 -0.3768 -0.1070 -0.7178
  470MOL0     H64858   3.329  11.039   0.979  1.6112 -0.5414  0.5708
  470MOL0     H64859   3.335  11.158   1.115 -4.9007  1.6643  1.8699
  470MOL0     H64860   3.317  10.986   1.146 -0.0899 -1.3190 -0.8683
  471MOL0     O64861   4.897   6.305   0.395  0.4383 -0.0543  0.0660
  471MOL0     C64862   4.843   6.322   0.280  0.0723  0.4570  0.3672
  471MOL0     O64863   4.707   6.316   0.255  0.5664 -0.3184  0.0521
  471MOL0     C64864   4.627   6.262   0.352 -0.6987  0.1596  0.8731
  471MOL0     C64865   4.519   6.322   0.419 -0.2247 -0.4916  0.1650
  471MOL0     C64866   4.441   6.246   0.510  0.0022  0.2174 -0.2007
  471MOL0     C64867   4.479   6.109   0.535  0.3293 -0.1730 -0.4163
  471MOL0     O64868   4.409   6.040   0.626  0.1700 -0.3022  0.3810
  471MOL0     C64869   4.462   5.907   0.673 -0.3823 -0.6823 -0.3675
  471MOL0     C64870   4.437   5.900   0.817  0.4994  0.0522  0.0976
  471MOL0     C64871   4.296   5.846   0.857 -0.2969  0.6175  0.4823
  471MOL0     C64872   4.187   5.945   0.839  0.4530  0.3729 -0.0120
  471MOL0     C64873   4.071   5.923   0.950  0.1568 -0.1038  0.1090
  471MOL0     C64874   3.984   5.820   0.899  0.1666 -0.1018  0.4200
  471MOL0     C64875   3.854   5.806   0.978  0.7480  0.0943 -0.3448
  471MOL0     C64876   3.871   5.789   1.126  0.0273  0.8902 -0.0959
  471MOL0     N64877   3.740   5.774   1.188 -1.0857 -0.3484 -0.1935
  471MOL0     C64878   3.704   5.672   1.276 -0.4417  0.3850  0.6443
  471MOL0     C64879   3.611   5.727   1.355  0.3526 -1.4354  0.0821
  471MOL0     C64880   3.548   5.651   1.465  0.3384 -0.1285  0.0429
  471MOL0     C64881   3.428   5.578   1.398 -0.5708  0.7935 -0.6001
  471MOL0     C64882   3.336   5.536   1.513  0.0478 -0.1269  0.5654
  471MOL0     C64883   3.209   5.475   1.447 -0.2926  1.4011 -0.2521
  471MOL0     O64884   3.227   5.329   1.453  0.6193  0.6631  0.7620
  471MOL0     C64885   3.104   5.252   1.480 -0.7168 -0.4411  0.7649
  471MOL0     C64886   3.115   5.111   1.467 -0.1152  0.6988 -0.2787
  471MOL0     C64887   3.009   5.019   1.501 -0.3533 -0.6734 -0.6185
  471MOL0     C64888   3.044   4.875   1.502 -0.2463 -0.2106  0.5179
  471MOL0     C64889   2.881   5.080   1.543 -0.4638 -0.2322 -0.2497
  471MOL0     C64890   2.753   5.002   1.575  0.5389 -0.9184 -1.3802
  471MOL0     O64891   2.652   5.080   1.616 -0.2557 -0.2314  0.0454
  471MOL0     C64892   2.533   5.023   1.658 -0.8004 -0.0756  0.7193
  471MOL0     C64893   2.526   4.915   1.741  0.0406  0.2503 -0.8120
  471MOL0     C64894   2.405   4.859   1.781  0.4514 -0.6160 -0.1523
  471MOL0     C64895   2.285   4.923   1.743  1.0818 -0.1734  1.7559
  471MOL0     O64896   2.165   4.864   1.778 -0.1537  0.3871  0.0192
  471MOL0     C64897   2.137   4.724   1.783 -1.2550 -0.3811  0.1725
  471MOL0     C64898   1.993   4.698   1.823  0.3567  0.1300  0.0988
  471MOL0     C64899   1.969   4.550   1.802 -0.4748 -0.7901  1.1155
  471MOL0     C64900   1.844   4.503   1.891 -0.7298  0.1646 -0.2950
  471MOL0     C64901   1.780   4.368   1.851  0.3687 -0.4630 -0.5151
  471MOL0     C64902   1.677   4.328   1.965 -1.7493 -0.7542 -0.2772
  471MOL0     C64903   1.619   4.196   1.926  0.4611  0.2069  0.8156
  471MOL0     C64904   1.497   4.163   2.019  0.7955  0.2699  0.4397
  471MOL0    Cl64905   1.560   4.153   2.195  0.7348  0.6549  0.1365
  471MOL0     C64906   2.291   5.037   1.657 -0.1123 -0.8705 -0.2245
  471MOL0     C64907   2.423   5.086   1.613  0.3729 -0.2764 -0.2749
  471MOL0     O64908   2.745   4.882   1.558  0.0978  0.1634  0.4836
  471MOL0     C64909   2.872   5.219   1.534 -0.1650 -1.3199 -0.3336
  471MOL0     C64910   2.980   5.301   1.516 -0.7978 -0.1606 -0.5831
  471MOL0     N64911   3.582   5.855   1.306 -0.1622  0.8894  0.3285
  471MOL0     N64912   3.657   5.878   1.209 -0.7936 -0.2501  1.3414
  471MOL0     C64913   4.567   6.047   0.451 -0.4898  0.3496  0.0876
  471MOL0     C64914   4.650   6.121   0.359 -0.0022  0.3723 -0.1798
  471MOL0     C64915   4.931   6.350   0.169  0.0504  0.4989  0.0843
  471MOL0     C64916   4.869   6.364   0.042  0.0625 -0.0073 -0.2045
  471MOL0     C64917   4.947   6.390  -0.075  0.3885  0.3074 -0.8808
  471MOL0     C64918   5.079   6.418  -0.061 -0.0509 -0.4284 -0.2405
  471MOL0     O64919   5.160   6.453  -0.167 -0.1910 -0.1413  0.0772
  471MOL0     C64920   5.119   6.426  -0.302 -1.1430 -0.3143  0.3695
  471MOL0     C64921   5.248   6.404  -0.384  0.3903 -0.1694  0.3876
  471MOL0     C64922   5.253   6.293  -0.489  0.3338 -0.1797 -0.0764
  471MOL0     C64923   5.179   6.354  -0.606  0.4036  0.2263 -0.0877
  471MOL0     C64924   5.151   6.247  -0.697 -0.0603  0.1738  0.6819
  471MOL0     C64925   5.120   6.150  -0.759  0.8377  0.0034  0.1441
  471MOL0     C64926   5.135   6.404   0.066 -0.7899 -0.3892  1.7236
  471MOL0     C64927   5.071   6.377   0.176 -0.4915  0.0916 -1.1314
  471MOL0     C64928   5.153   6.368   0.302 -0.2455 -0.2404  0.3563
  471MOL0     H64929   4.497   6.426   0.397 -0.3971 -1.1190 -3.1785
  471MOL0     H64930   4.359   6.299   0.557  2.8459  2.8830  2.2395
  471MOL0     H64931   4.566   5.883   0.650  0.0682  0.9594 -0.1628
  471MOL0     H64932   4.401   5.832   0.622 -2.6094 -0.8878  2.3470
  471MOL0     H64933   4.506   5.836   0.873 -1.2358 -0.7783  1.3922
  471MOL0     H64934   4.458   5.998   0.860  2.5011 -1.2604  2.3199
  471MOL0     H64935   4.273   5.757   0.798  0.5603 -0.8152  2.2028
  471MOL0     H64936   4.306   5.820   0.963 -3.1713 -0.1729  0.6311
  471MOL0     H64937   4.236   6.035   0.875  0.6912  1.2011 -2.2234
  471MOL0     H64938   4.144   5.961   0.739 -0.6641  3.7887  0.9108
  471MOL0     H64939   4.015   6.015   0.966  1.2275  0.4990  0.4566
  471MOL0     H64940   4.122   5.889   1.041  2.9783 -1.8148 -1.9209
  471MOL0     H64941   3.952   5.847   0.798 -0.7608 -0.0115  0.7208
  471MOL0     H64942   4.033   5.722   0.902 -2.0705 -1.2900  2.8172
  471MOL0     H64943   3.802   5.724   0.928 -0.2468  1.7669 -2.2261
  471MOL0     H64944   3.784   5.890   0.971  0.3108 -0.0925  1.3223
  471MOL0     H64945   3.927   5.699   1.149 -1.8282  0.8695  5.9708
  471MOL0     H64946   3.922   5.872   1.176 -0.2420 -1.6384  5.0258
  471MOL0     H64947   3.757   5.579   1.292 -0.0087  0.6410  0.7247
  471MOL0     H64948   3.523   5.722   1.545  1.2728 -2.3572  2.4370
  471MOL0     H64949   3.613   5.576   1.509  1.1822  0.9557  0.7011
  471MOL0     H64950   3.392   5.639   1.315  0.5189  2.8329  0.3367
  471MOL0     H64951   3.462   5.488   1.346 -0.5304  0.6925 -0.4014
  471MOL0     H64952   3.392   5.466   1.576 -2.2567 -1.1762  1.5389
  471MOL0     H64953   3.315   5.629   1.567 -1.4705  1.6334 -2.7660
  471MOL0     H64954   3.121   5.502   1.504 -1.0706 -1.1657 -0.1090
  471MOL0     H64955   3.196   5.508   1.343 -0.2816 -1.8199 -1.4056
  471MOL0     H64956   3.218   5.083   1.447 -0.3194 -0.4925  0.2429
  471MOL0     H64957   3.023   4.837   1.402  0.1582 -0.2451  0.4452
  471MOL0     H64958   2.987   4.817   1.576  0.3054 -3.5592 -1.4706
  471MOL0     H64959   3.151   4.854   1.513  0.1625  0.5882 -1.5895
  471MOL0     H64960   2.614   4.855   1.764  0.4810  1.4287  0.7252
  471MOL0     H64961   2.399   4.782   1.857 -0.0835 -1.0507 -0.6340
  471MOL0     H64962   2.165   4.678   1.688 -0.0850 -2.3488  1.4045
  471MOL0     H64963   2.208   4.680   1.853  2.2630 -0.2371 -3.0258
  471MOL0     H64964   1.972   4.722   1.927 -0.3971 -0.0170 -0.0141
  471MOL0     H64965   1.920   4.760   1.769 -1.2536 -2.1078 -0.4768
  471MOL0     H64966   2.057   4.492   1.831  1.5166  1.6204  0.3141
  471MOL0     H64967   1.949   4.537   1.695 -0.6275 -0.0583  1.0480
  471MOL0     H64968   1.771   4.581   1.868 -0.3084  1.0472  1.2254
  471MOL0     H64969   1.880   4.513   1.993 -0.4298  2.0178 -0.5509
  471MOL0     H64970   1.733   4.368   1.752 -1.5037 -0.0687  0.3455
  471MOL0     H64971   1.860   4.293   1.847  0.1630 -0.7800  0.7783
  471MOL0     H64972   1.604   4.409   1.978  0.1097  0.9004  0.3640
  471MOL0     H64973   1.734   4.316   2.058 -2.1709 -0.8510 -0.0288
  471MOL0     H64974   1.696   4.118   1.925 -1.9593 -2.3533 -1.4424
  471MOL0     H64975   1.576   4.203   1.826 -1.8885  1.4290  1.8227
  471MOL0     H64976   1.456   4.063   2.000 -0.7155  0.8310  0.6049
  471MOL0     H64977   1.408   4.225   2.004  1.2707  0.5732 -1.4737
  471MOL0     H64978   2.196   5.076   1.623  0.7424 -0.4699 -2.2580
  471MOL0     H64979   2.428   5.174   1.550 -0.0988 -2.0577 -2.9471
  471MOL0     H64980   2.773   5.258   1.552 -0.1807 -1.4123 -0.2202
  471MOL0     H64981   2.949   5.405   1.518 -1.4506 -0.3374 -1.1570
  471MOL0     H64982   4.611   5.949   0.461 -1.8315 -0.2522  0.3749
  471MOL0     H64983   4.738   6.066   0.328 -0.2866 -1.0371  1.3801
  471MOL0     H64984   4.763   6.344   0.028  0.1776  0.9436 -3.1182
  471MOL0     H64985   4.895   6.387  -0.170  0.6968 -2.5176 -1.0520
  471MOL0     H64986   5.053   6.340  -0.316  0.5548 -1.6393  0.0924
  471MOL0     H64987   5.059   6.510  -0.340  0.6005  0.7534 -0.1849
  471MOL0     H64988   5.332   6.372  -0.320  0.4313 -0.1569  0.3399
  471MOL0     H64989   5.272   6.497  -0.435  0.1203 -0.5959 -0.5397
  471MOL0     H64990   5.355   6.265  -0.515 -0.5801 -2.0086 -2.1021
  471MOL0     H64991   5.216   6.196  -0.454  3.9470 -2.2138 -1.3659
  471MOL0     H64992   5.244   6.427  -0.654 -1.4490  2.0212  0.0185
  471MOL0     H64993   5.086   6.407  -0.583  0.8248  1.5435 -1.3272
  471MOL0     H64994   5.090   6.059  -0.807  1.1613  0.1223 -0.2924
  471MOL0     H64995   5.242   6.421   0.066 -1.0170  1.1884  1.7569
  471MOL0     H64996   5.157   6.262   0.331 -0.7028 -0.6918 -1.1669
  471MOL0     H64997   5.257   6.398   0.288 -0.4331 -0.5886 -2.1442
  471MOL0     H64998   5.108   6.422   0.386 -2.4099 -1.1384 -0.1335
  472MOL0     O64999   4.882   0.362   5.615  0.6423  0.2161  0.7428
  472MOL0     C65000   4.881   0.359   5.489 -0.6439  0.0063 -0.1309
  472MOL0     O65001   4.969   0.296   5.418 -1.0391 -0.5689  0.0857
  472MOL0     C65002   5.064   0.222   5.482  0.1771  0.3216 -0.2168
  472MOL0     C65003   5.032   0.098   5.537  0.1602  0.0523 -0.6626
  472MOL0     C65004   5.127   0.004   5.579  0.0370 -0.3100  0.0001
  472MOL0     C65005   5.254   0.046   5.586 -0.3685  1.1571 -1.1244
  472MOL0     O65006   5.357  -0.044   5.615  0.2209 -0.0309 -0.0513
  472MOL0     C65007   5.457   0.011   5.708  0.3078 -0.1221  0.2963
  472MOL0     C65008   5.461  -0.078   5.829 -0.0200  0.0051 -0.3612
  472MOL0     C65009   5.489  -0.220   5.791 -0.0824  0.3187 -0.0719
  472MOL0     C65010   5.628  -0.277   5.832 -0.5917  0.5203  0.2639
  472MOL0     C65011   5.631  -0.300   5.987 -0.0828 -0.0319  0.9082
  472MOL0     C65012   5.774  -0.346   6.040  0.5599  0.6843 -0.1085
  472MOL0     C65013   5.759  -0.373   6.193  0.0256  0.6581  0.8310
  472MOL0     C65014   5.891  -0.373   6.269  0.2268  0.5850 -0.2699
  472MOL0     N65015   5.945  -0.510   6.268  0.2624  0.2548  1.0186
  472MOL0     C65016   6.027  -0.568   6.169 -0.1551  0.0042 -0.5281
  472MOL0     C65017   6.018  -0.703   6.204  0.5173 -0.1589  0.4680
  472MOL0     C65018   6.072  -0.815   6.120 -0.0919  0.5616  0.4003
  472MOL0     C65019   6.013  -0.803   5.979  0.7423 -1.4413  0.3396
  472MOL0     C65020   6.045  -0.927   5.905  0.1336 -0.2400  0.7739
  472MOL0     C65021   6.187  -0.934   5.858 -1.0348 -0.2406 -0.3281
  472MOL0     O65022   6.236  -0.818   5.792  0.2063 -0.2841 -0.2760
  472MOL0     C65023   6.353  -0.818   5.728 -0.2242  0.1712  0.7814
  472MOL0     C65024   6.393  -0.699   5.672 -0.1609 -0.3085  0.0348
  472MOL0     C65025   6.527  -0.671   5.634 -0.0271  0.3904  0.4574
  472MOL0     C65026   6.559  -0.532   5.601  0.0479  0.4085 -0.2759
  472MOL0     C65027   6.620  -0.780   5.636  0.0528  0.4515  0.5098
  472MOL0     C65028   6.758  -0.776   5.579  0.0446 -0.5395  0.1870
  472MOL0     O65029   6.818  -0.889   5.570  0.6622  0.5151  0.3204
  472MOL0     C65030   6.943  -0.897   5.512  0.0504 -0.2834 -0.6931
  472MOL0     C65031   6.950  -0.861   5.384  0.7024  0.7271  0.1625
  472MOL0     C65032   7.074  -0.868   5.319 -0.9673 -0.1256 -0.8344
  472MOL0     C65033   7.184  -0.915   5.393 -0.2840 -0.6393 -0.1497
  472MOL0     O65034   7.306  -0.927   5.330 -0.0843  0.5118  0.0205
  472MOL0     C65035   7.377  -1.046   5.355  0.5066  1.5066  0.8450
  472MOL0     C65036   7.506  -1.041   5.446  0.2853  0.2922 -0.3249
  472MOL0     C65037   7.606  -0.922   5.419 -1.0464 -0.4227 -0.4332
  472MOL0     C65038   7.729  -0.970   5.346  0.5196 -0.6673  0.8369
  472MOL0     C65039   7.821  -0.851   5.319 -0.0592 -0.2861 -1.1077
  472MOL0     C65040   7.954  -0.905   5.274  0.0292  0.4286  0.1671
  472MOL0     C65041   8.056  -0.790   5.244  0.9749  0.6845 -0.9464
  472MOL0     C65042   8.195  -0.835   5.191 -0.0029 -0.4980 -0.1362
  472MOL0    Cl65043   8.330  -0.717   5.158 -0.2104  0.2466  0.0828
  472MOL0     C65044   7.171  -0.942   5.527 -0.1212 -0.3241 -0.8185
  472MOL0     C65045   7.055  -0.936   5.585  0.4581  0.5071 -0.0558
  472MOL0     O65046   6.799  -0.669   5.530  0.4330 -0.6432  0.1454
  472MOL0     C65047   6.576  -0.907   5.685  0.0397  0.3569  0.1438
  472MOL0     C65048   6.447  -0.924   5.731  0.2748 -0.0378 -0.2584
  472MOL0     N65049   5.935  -0.711   6.318  0.4741 -0.9898  0.2254
  472MOL0     N65050   5.901  -0.594   6.355 -0.0190  0.4992  0.1597
  472MOL0     C65051   5.291   0.172   5.545  0.2702  0.8363  0.2891
  472MOL0     C65052   5.199   0.260   5.484 -0.4305 -0.4224  0.3266
  472MOL0     C65053   4.777   0.445   5.430 -0.0627 -0.2411 -0.2942
  472MOL0     C65054   4.684   0.530   5.511 -0.1776 -0.9178 -0.0689
  472MOL0     C65055   4.599   0.624   5.465  0.3317  0.1032 -0.0373
  472MOL0     C65056   4.599   0.648   5.325  0.2676  1.0195  0.5015
  472MOL0     O65057   4.513   0.748   5.281  0.1952  0.1734 -0.4052
  472MOL0     C65058   4.495   0.756   5.148  0.3508 -0.2103  0.8299
  472MOL0     C65059   4.388   0.657   5.088  0.0560 -0.2841 -0.2931
  472MOL0     C65060   4.244   0.697   5.131  0.6062 -0.9547  1.1166
  472MOL0     C65061   4.183   0.587   5.216  0.2383  0.4993 -0.2501
  472MOL0     C65062   4.137   0.471   5.139 -0.3818 -0.3121  0.9391
  472MOL0     C65063   4.100   0.371   5.081 -0.4085 -0.0300 -0.2390
  472MOL0     C65064   4.675   0.561   5.236  0.5396 -0.5347 -0.8597
  472MOL0     C65065   4.761   0.458   5.288  0.1449  0.8803 -0.4558
  472MOL0     C65066   4.831   0.367   5.189 -0.5361  0.7584  0.2293
  472MOL0     H65067   4.929   0.066   5.527 -0.2157  1.2298 -0.7237
  472MOL0     H65068   5.103  -0.098   5.606 -3.0968 -0.3566 -2.3397
  472MOL0     H65069   5.440   0.116   5.734 -2.9972 -0.4633 -0.0994
  472MOL0     H65070   5.554   0.006   5.657 -0.2725 -2.0407 -0.7281
  472MOL0     H65071   5.538  -0.036   5.893 -0.1401  0.7118 -0.6774
  472MOL0     H65072   5.361  -0.081   5.874  0.1778 -2.7914  0.1102
  472MOL0     H65073   5.412  -0.281   5.840 -2.1154 -0.2619 -3.6140
  472MOL0     H65074   5.484  -0.239   5.684  3.2653 -2.5217  0.0889
  472MOL0     H65075   5.636  -0.374   5.781 -1.2656  0.9533 -0.6915
  472MOL0     H65076   5.704  -0.205   5.800 -0.0998 -0.7510 -1.6430
  472MOL0     H65077   5.549  -0.364   6.020 -0.6742  1.7774  3.1839
  472MOL0     H65078   5.614  -0.202   6.031 -1.9901  1.2710 -2.3926
  472MOL0     H65079   5.806  -0.436   5.987  0.2623  0.0069  0.8245
  472MOL0     H65080   5.847  -0.266   6.027 -0.5199  1.8317  0.6450
  472MOL0     H65081   5.712  -0.470   6.208 -0.2483  0.5360 -0.6388
  472MOL0     H65082   5.691  -0.293   6.222  0.0193  0.9481  0.0595
  472MOL0     H65083   5.971  -0.312   6.225  1.5600  0.0717  1.3600
  472MOL0     H65084   5.880  -0.346   6.374 -0.5573  2.5494 -0.7938
  472MOL0     H65085   6.074  -0.510   6.090  0.5374 -0.4748 -0.4764
  472MOL0     H65086   6.045  -0.907   6.173  0.4810 -0.9907 -1.8808
  472MOL0     H65087   6.181  -0.816   6.112 -0.0048 -3.8358 -0.2208
  472MOL0     H65088   5.906  -0.784   5.986  0.6893 -1.1895 -0.8761
  472MOL0     H65089   6.054  -0.718   5.923 -5.1327  0.0616 -2.4485
  472MOL0     H65090   6.019  -1.013   5.967 -0.1343 -1.4828 -0.9988
  472MOL0     H65091   5.995  -0.931   5.808 -0.8055 -0.6738  1.2687
  472MOL0     H65092   6.256  -0.958   5.939 -2.0319  0.1950  0.6890
  472MOL0     H65093   6.192  -1.007   5.777  1.6020  1.5216 -1.8881
  472MOL0     H65094   6.326  -0.615   5.654  0.4498 -0.0304 -0.9658
  472MOL0     H65095   6.654  -0.503   5.646  0.9790  0.9743 -2.4920
  472MOL0     H65096   6.480  -0.463   5.633  0.6819  0.1782  1.9266
  472MOL0     H65097   6.559  -0.513   5.493 -0.1428  3.6178  0.1775
  472MOL0     H65098   6.863  -0.826   5.329  2.7364  2.2513 -2.2793
  472MOL0     H65099   7.067  -0.852   5.212  0.6413 -0.5728 -1.0424
  472MOL0     H65100   7.316  -1.128   5.393  1.6405 -1.2186 -2.5983
  472MOL0     H65101   7.404  -1.083   5.255 -0.1812  2.1514  0.4026
  472MOL0     H65102   7.473  -1.049   5.550 -2.5087 -3.7611 -1.2528
  472MOL0     H65103   7.546  -1.141   5.425 -2.7882 -1.7823  2.5711
  472MOL0     H65104   7.651  -0.887   5.513 -2.8225  0.2243  0.2288
  472MOL0     H65105   7.552  -0.838   5.375 -3.5670 -1.2767  0.8529
  472MOL0     H65106   7.699  -1.024   5.256 -0.7714 -0.6401  1.2419
  472MOL0     H65107   7.782  -1.047   5.403  0.9094  1.0229  2.8846
  472MOL0     H65108   7.785  -0.772   5.252  0.5885  0.7324 -0.2793
  472MOL0     H65109   7.834  -0.807   5.418  0.3198 -1.1138 -0.7798
  472MOL0     H65110   7.946  -0.956   5.178 -2.5833 -0.0579  0.5862
  472MOL0     H65111   7.999  -0.984   5.335  0.6960  1.2971  0.8259
  472MOL0     H65112   8.085  -0.753   5.343  1.6235 -0.6145 -0.6183
  472MOL0     H65113   8.010  -0.710   5.186 -0.3153  2.3222  2.0824
  472MOL0     H65114   8.183  -0.888   5.097  1.0428  1.5746 -1.5247
  472MOL0     H65115   8.223  -0.916   5.259 -0.6168  0.3657  1.2049
  472MOL0     H65116   7.259  -0.988   5.572  0.9427  1.5172 -0.8602
  472MOL0     H65117   7.039  -0.976   5.685 -3.2270  0.5298 -0.5038
  472MOL0     H65118   6.641  -0.992   5.705  0.1804  0.2089 -0.8707
  472MOL0     H65119   6.420  -1.012   5.789  2.6904 -0.2896  0.5879
  472MOL0     H65120   5.392   0.209   5.542 -0.0632  1.7066 -0.6215
  472MOL0     H65121   5.220   0.356   5.437 -1.6666 -0.6243 -0.6897
  472MOL0     H65122   4.695   0.529   5.619  1.6745  1.3775 -0.1819
  472MOL0     H65123   4.535   0.690   5.522  0.7220  4.6477 -4.2620
  472MOL0     H65124   4.468   0.861   5.132  0.8031 -0.1857  0.1710
  472MOL0     H65125   4.589   0.761   5.091  0.6193  0.2264  1.3083
  472MOL0     H65126   4.405   0.556   5.125 -1.1917 -0.7325 -0.8648
  472MOL0     H65127   4.390   0.655   4.978  1.7560 -2.8214 -0.2933
  472MOL0     H65128   4.246   0.796   5.179 -1.2388  1.7412 -3.6775
  472MOL0     H65129   4.174   0.715   5.048 -0.1890 -0.9373  1.7764
  472MOL0     H65130   4.096   0.629   5.266  0.9474  0.9467  0.6281
  472MOL0     H65131   4.255   0.555   5.292 -0.3951  2.6349  1.3485
  472MOL0     H65132   4.060   0.283   5.036  3.0065 -2.5357  1.1723
  472MOL0     H65133   4.677   0.575   5.129 -0.6784 -1.9725 -1.0916
  472MOL0     H65134   4.937   0.392   5.187 -1.1090  3.4545 -1.6836
  472MOL0     H65135   4.817   0.262   5.216  1.1741  0.5543  0.4338
  472MOL0     H65136   4.783   0.372   5.091 -2.4305 -3.8073  0.6988
  473MOL0     O65137   4.271   2.172   0.672  0.1454 -0.0557  0.4244
  473MOL0     C65138   4.312   2.208   0.780 -0.8170 -0.1839 -0.4056
  473MOL0     O65139   4.250   2.277   0.876 -0.4572 -0.4017 -0.4322
  473MOL0     C65140   4.118   2.266   0.867  0.3378  0.3134  0.7029
  473MOL0     C65141   4.056   2.136   0.866  0.4104 -0.7341  0.6611
  473MOL0     C65142   3.915   2.132   0.860 -0.5954 -0.9334  0.4234
  473MOL0     C65143   3.840   2.254   0.865 -0.7403  0.6538 -0.5300
  473MOL0     O65144   3.700   2.255   0.877  0.4676  0.1319  0.7672
  473MOL0     C65145   3.623   2.154   0.810 -0.3219 -0.1180  0.0275
  473MOL0     C65146   3.484   2.206   0.782  0.0055  0.7988  0.1316
  473MOL0     C65147   3.491   2.293   0.653 -0.1026 -0.2135 -0.5202
  473MOL0     C65148   3.379   2.401   0.635  0.6395 -0.3201 -0.8095
  473MOL0     C65149   3.241   2.321   0.637 -1.2880 -0.6568 -0.1594
  473MOL0     C65150   3.112   2.421   0.622  0.0425  0.7313 -0.5514
  473MOL0     C65151   3.120   2.464   0.483  0.4314 -0.3597  0.3866
  473MOL0     C65152   2.985   2.536   0.422  0.2474 -0.5558 -0.1156
  473MOL0     N65153   2.929   2.634   0.517 -0.3171 -0.3126 -0.6428
  473MOL0     C65154   2.996   2.753   0.547 -0.3021  0.6445  0.2619
  473MOL0     C65155   2.962   2.784   0.675 -1.0971  0.9981 -0.3363
  473MOL0     C65156   3.027   2.904   0.748  1.1768  0.5293  0.0342
  473MOL0     C65157   3.179   2.890   0.737 -0.5581 -0.5167 -0.2088
  473MOL0     C65158   3.242   3.020   0.809  0.0704  0.0202 -0.1839
  473MOL0     C65159   3.390   3.021   0.783  0.2851  0.3194 -0.1984
  473MOL0     O65160   3.413   3.072   0.651 -0.4120 -0.7786 -0.0924
  473MOL0     C65161   3.539   3.066   0.603  0.5652 -0.3474 -0.1774
  473MOL0     C65162   3.655   3.111   0.676  0.2665 -0.0373 -0.1484
  473MOL0     C65163   3.783   3.100   0.634  0.0822  0.3633  0.2577
  473MOL0     C65164   3.899   3.144   0.719 -1.2437 -0.1899  0.5621
  473MOL0     C65165   3.805   3.055   0.497  0.6231  0.1549 -0.4798
  473MOL0     C65166   3.938   3.046   0.438  0.4969  0.8630  0.3585
  473MOL0     O65167   4.056   3.047   0.515 -0.1198 -0.2149  0.7856
  473MOL0     C65168   4.185   3.060   0.453  0.3361 -0.1393  0.5350
  473MOL0     C65169   4.276   3.154   0.498  0.5768 -0.1367 -0.5377
  473MOL0     C65170   4.397   3.170   0.443  0.0391 -0.1223  0.1914
  473MOL0     C65171   4.443   3.081   0.342 -0.6412 -0.7018  0.9274
  473MOL0     O65172   4.570   3.111   0.301  0.5039  0.6818  0.9799
  473MOL0     C65173   4.644   3.004   0.231 -0.7079 -0.4141 -0.6391
  473MOL0     C65174   4.793   3.024   0.258 -1.1741 -0.6330  0.5062
  473MOL0     C65175   4.881   2.906   0.195  0.3623 -0.8204 -0.3760
  473MOL0     C65176   5.029   2.904   0.233  1.0843  0.5556 -0.5254
  473MOL0     C65177   5.106   3.019   0.182 -0.7896  0.9244  0.7171
  473MOL0     C65178   5.264   3.002   0.193  0.7841 -0.5300  0.7351
  473MOL0     C65179   5.304   2.972   0.337 -0.9972  0.2107  0.0809
  473MOL0     C65180   5.458   2.980   0.362 -0.1175  0.6530 -0.1931
  473MOL0    Cl65181   5.550   2.875   0.241 -0.0193 -0.0860  0.5207
  473MOL0     C65182   4.362   2.972   0.303  0.3904 -0.3970  0.7638
  473MOL0     C65183   4.223   2.973   0.347 -0.4130 -1.1302  0.2239
  473MOL0     O65184   3.926   3.041   0.318 -0.7575  0.2802  0.0126
  473MOL0     C65185   3.691   3.017   0.424 -0.8643 -0.1165  0.6392
  473MOL0     C65186   3.565   3.027   0.471  0.8514  0.6234 -0.1995
  473MOL0     N65187   2.869   2.690   0.723  0.4389  0.1931  0.3193
  473MOL0     N65188   2.845   2.606   0.621 -0.3766  0.6887  0.2879
  473MOL0     C65189   3.905   2.378   0.858  0.2275 -0.3808 -0.1617
  473MOL0     C65190   4.041   2.389   0.859 -0.0517 -0.0074  0.6197
  473MOL0     C65191   4.465   2.203   0.804 -0.2642 -1.1219 -0.7664
  473MOL0     C65192   4.498   2.171   0.937 -0.4609 -0.4699 -0.0478
  473MOL0     C65193   4.629   2.175   0.980 -1.4028 -0.3420  0.7251
  473MOL0     C65194   4.728   2.205   0.891 -0.1194  0.1270  0.0638
  473MOL0     O65195   4.851   2.233   0.930 -0.8424 -0.1717  0.1419
  473MOL0     C65196   4.901   2.202   1.062 -0.6012 -0.1275 -0.0210
  473MOL0     C65197   5.047   2.253   1.055 -0.6508  0.5787  0.3420
  473MOL0     C65198   5.143   2.173   0.954 -0.1332 -1.4030  0.5085
  473MOL0     C65199   5.141   2.026   0.984 -0.0119 -1.0684  0.6492
  473MOL0     C65200   5.157   1.990   1.129 -0.5579  0.3293 -0.9275
  473MOL0     C65201   5.165   1.928   1.232 -0.0078  0.0568  0.3271
  473MOL0     C65202   4.695   2.242   0.756  0.4279 -1.3804 -0.5236
  473MOL0     C65203   4.565   2.227   0.705  0.2826  0.0199 -0.1973
  473MOL0     C65204   4.543   2.252   0.556  0.3028  1.1245 -0.6124
  473MOL0     H65205   4.110   2.042   0.873  1.4648 -0.3778 -1.5713
  473MOL0     H65206   3.861   2.039   0.848 -3.0550  0.4300  0.2515
  473MOL0     H65207   3.616   2.069   0.878 -0.3528 -0.9173 -0.9657
  473MOL0     H65208   3.665   2.135   0.711 -1.0606  4.6349 -1.4522
  473MOL0     H65209   3.432   2.117   0.746  0.5354  0.3432  0.4968
  473MOL0     H65210   3.418   2.238   0.864 -2.8308 -1.8006 -0.9231
  473MOL0     H65211   3.593   2.331   0.644  1.3572 -3.3873  1.1108
  473MOL0     H65212   3.473   2.223   0.572 -0.9919 -2.9181  1.8424
  473MOL0     H65213   3.384   2.480   0.710 -1.4964  0.4095 -1.3635
  473MOL0     H65214   3.397   2.449   0.539  0.7078  1.4711  0.0609
  473MOL0     H65215   3.239   2.288   0.741 -1.5613  0.4788  0.2156
  473MOL0     H65216   3.244   2.230   0.576  1.1905  1.1430 -3.0200
  473MOL0     H65217   3.021   2.363   0.638 -0.8222  2.0335 -0.5417
  473MOL0     H65218   3.113   2.512   0.682  1.0623  0.9088 -0.8173
  473MOL0     H65219   3.139   2.370   0.429 -4.0479 -1.1166 -0.2855
  473MOL0     H65220   3.203   2.534   0.477  1.2116 -1.1229  1.7032
  473MOL0     H65221   3.011   2.569   0.321 -1.1962 -2.1992 -1.0904
  473MOL0     H65222   2.907   2.463   0.397  1.8085 -1.8299 -1.5885
  473MOL0     H65223   3.068   2.796   0.478 -1.7716  0.7982 -1.2205
  473MOL0     H65224   3.003   2.908   0.855 -0.0780  1.8087 -0.2708
  473MOL0     H65225   3.004   3.004   0.709 -1.0066 -0.2398 -0.8038
  473MOL0     H65226   3.218   2.801   0.787  0.0901  0.7904  1.7604
  473MOL0     H65227   3.213   2.887   0.633 -0.5420 -1.7620 -0.1748
  473MOL0     H65228   3.193   3.108   0.767 -1.6738 -0.5332  0.5916
  473MOL0     H65229   3.213   3.030   0.914 -2.2064  2.7124 -0.9418
  473MOL0     H65230   3.443   3.081   0.857  0.0048 -0.0864  0.3385
  473MOL0     H65231   3.432   2.921   0.792  0.5066  0.5709  2.2084
  473MOL0     H65232   3.645   3.182   0.757  0.7668 -0.2751  0.1224
  473MOL0     H65233   3.944   3.227   0.663 -2.1931  0.7877  1.2115
  473MOL0     H65234   3.966   3.059   0.734 -0.4155  0.2769 -0.3610
  473MOL0     H65235   3.861   3.171   0.818 -2.8827  0.2257 -0.1415
  473MOL0     H65236   4.234   3.217   0.576 -0.3361 -0.2021 -0.9694
  473MOL0     H65237   4.466   3.244   0.482  0.0042 -0.5972  1.1590
  473MOL0     H65238   4.622   2.899   0.253 -2.9714  0.2739  0.5975
  473MOL0     H65239   4.624   3.011   0.124  1.2309 -3.8948 -1.4048
  473MOL0     H65240   4.842   3.117   0.229 -1.6772 -0.3114  0.6870
  473MOL0     H65241   4.813   3.032   0.365  2.8260 -1.5227 -0.0252
  473MOL0     H65242   4.871   2.921   0.087 -0.0412  3.9616  0.1162
  473MOL0     H65243   4.828   2.815   0.227  0.5665 -0.5766  0.6835
  473MOL0     H65244   5.082   2.816   0.196  0.4966 -0.2378  0.4863
  473MOL0     H65245   5.033   2.900   0.342  0.7931 -1.5619 -0.5660
  473MOL0     H65246   5.077   3.043   0.080 -2.3122  0.4439  1.0136
  473MOL0     H65247   5.071   3.108   0.236 -0.0408  0.5252  1.9049
  473MOL0     H65248   5.301   3.102   0.168 -1.1197 -0.2975 -1.4812
  473MOL0     H65249   5.300   2.941   0.111 -0.7759  0.1582 -0.5208
  473MOL0     H65250   5.271   2.875   0.375  0.1453  0.1199  0.8831
  473MOL0     H65251   5.263   3.049   0.403  4.0882  2.6483  0.9011
  473MOL0     H65252   5.482   2.952   0.465  1.2859  3.9574  0.5048
  473MOL0     H65253   5.502   3.078   0.343  3.5543 -1.0070 -1.2910
  473MOL0     H65254   4.389   2.893   0.234  1.6428 -1.4515  2.4009
  473MOL0     H65255   4.148   2.905   0.307 -1.4805 -0.2448  0.6810
  473MOL0     H65256   3.689   2.965   0.329 -2.3330 -0.5414  0.8767
  473MOL0     H65257   3.491   2.963   0.423 -0.8832 -0.0374  3.0597
  473MOL0     H65258   3.861   2.476   0.845  2.6736  0.8674  0.2850
  473MOL0     H65259   4.086   2.486   0.879 -3.0384  1.2491  1.8115
  473MOL0     H65260   4.424   2.140   1.010  0.9626 -1.4396  1.0573
  473MOL0     H65261   4.650   2.144   1.082 -1.7130 -3.2205 -0.0068
  473MOL0     H65262   4.850   2.254   1.144  1.0243 -1.3989  1.9277
  473MOL0     H65263   4.888   2.098   1.093 -2.7519 -0.4620 -1.8076
  473MOL0     H65264   5.081   2.247   1.158 -1.5451  0.8121  0.6601
  473MOL0     H65265   5.056   2.358   1.025  3.5468  0.2027 -0.3433
  473MOL0     H65266   5.111   2.183   0.850 -2.5519  0.8384  1.3743
  473MOL0     H65267   5.245   2.210   0.964 -0.8676  0.3157  2.4038
  473MOL0     H65268   5.220   1.973   0.929  0.5290  0.0179  0.3560
  473MOL0     H65269   5.043   1.983   0.965 -0.1270  0.2636 -2.2251
  473MOL0     H65270   5.166   1.880   1.328  1.5239 -0.0042  0.3124
  473MOL0     H65271   4.779   2.253   0.688  0.2446 -4.6819 -1.4817
  473MOL0     H65272   4.463   2.325   0.540 -0.2875  0.6827  0.2296
  473MOL0     H65273   4.634   2.295   0.514 -0.4308  3.7943  0.3023
  473MOL0     H65274   4.513   2.158   0.510  3.6139  0.1827 -1.1143
  474MOL0     O65275   2.649   8.765   2.091  0.7271  0.2984  0.1618
  474MOL0     C65276   2.678   8.738   2.207 -0.4744 -0.5384 -0.1085
  474MOL0     O65277   2.783   8.659   2.242  0.1252  0.0347  0.1382
  474MOL0     C65278   2.891   8.653   2.156  0.8741 -0.8867  0.4744
  474MOL0     C65279   2.949   8.774   2.111 -0.3653  0.2322 -0.5723
  474MOL0     C65280   3.064   8.772   2.038 -0.6079  0.2820  0.4164
  474MOL0     C65281   3.106   8.651   1.976 -0.6282  0.5315 -0.4966
  474MOL0     O65282   3.214   8.649   1.894  0.0015  0.7226  0.3231
  474MOL0     C65283   3.297   8.529   1.874  0.0035 -0.4110  0.5069
  474MOL0     C65284   3.368   8.482   2.005 -0.0673  0.4099 -0.0207
  474MOL0     C65285   3.463   8.597   2.053 -0.0462  0.1184 -0.5889
  474MOL0     C65286   3.530   8.563   2.190 -0.4384  0.3417 -0.4907
  474MOL0     C65287   3.657   8.635   2.216  0.1626 -0.5402 -0.3296
  474MOL0     C65288   3.680   8.624   2.367  0.1483  0.4434  0.4121
  474MOL0     C65289   3.732   8.764   2.399 -0.6422  1.0838  0.9861
  474MOL0     C65290   3.804   8.759   2.529  0.3374 -0.2238 -0.6030
  474MOL0     N65291   3.715   8.718   2.636  0.4884  0.2825 -0.2477
  474MOL0     C65292   3.613   8.793   2.702  0.7445  0.5605  0.4737
  474MOL0     C65293   3.547   8.698   2.778 -0.6887 -0.5738 -0.0266
  474MOL0     C65294   3.426   8.730   2.870  0.0596 -1.2222 -0.2842
  474MOL0     C65295   3.475   8.841   2.974 -1.0234 -0.0481 -0.4932
  474MOL0     C65296   3.598   8.799   3.063  0.3704  0.2375 -0.6858
  474MOL0     C65297   3.596   8.651   3.114 -0.2469  0.3433 -0.6195
  474MOL0     O65298   3.680   8.614   3.224  0.1756 -0.5905  0.1522
  474MOL0     C65299   3.817   8.609   3.201 -0.3641  0.1540 -0.3244
  474MOL0     C65300   3.900   8.614   3.313  1.5447 -0.1731  0.1684
  474MOL0     C65301   4.033   8.626   3.302 -0.5331 -0.5325  0.3144
  474MOL0     C65302   4.114   8.636   3.434  0.6469  0.3905 -0.2049
  474MOL0     C65303   4.091   8.622   3.166 -0.0180 -0.3032 -0.4453
  474MOL0     C65304   4.242   8.624   3.140  0.4391 -0.1288  0.5218
  474MOL0     O65305   4.324   8.683   3.228  0.5898 -0.4913  0.6604
  474MOL0     C65306   4.453   8.656   3.234 -0.2788 -0.3373 -0.3388
  474MOL0     C65307   4.490   8.530   3.280 -0.0654 -0.3386 -0.9156
  474MOL0     C65308   4.621   8.487   3.283  0.5129  0.6793  0.0689
  474MOL0     C65309   4.720   8.576   3.239  0.3039  0.1088  0.2106
  474MOL0     O65310   4.848   8.523   3.224  0.2340 -0.7804 -0.7202
  474MOL0     C65311   4.952   8.621   3.251 -1.0648 -0.0153  0.5691
  474MOL0     C65312   5.090   8.552   3.263 -0.2081 -0.2152 -0.1908
  474MOL0     C65313   5.088   8.465   3.388  0.2087 -0.5820  0.8394
  474MOL0     C65314   5.228   8.417   3.391  0.0833  0.9001  0.0731
  474MOL0     C65315   5.277   8.385   3.534  0.0955  0.2284 -0.4192
  474MOL0     C65316   5.195   8.287   3.614  0.4982 -0.2618  0.3218
  474MOL0     C65317   5.206   8.149   3.547 -0.0033  0.2172  0.9843
  474MOL0     C65318   5.187   8.044   3.652 -0.1712 -0.5297 -0.3321
  474MOL0    Cl65319   5.183   7.878   3.596  0.1191 -0.3929 -0.3181
  474MOL0     C65320   4.683   8.706   3.198 -0.1829 -0.5518 -1.4415
  474MOL0     C65321   4.550   8.750   3.197  0.4797 -0.0596 -0.2578
  474MOL0     O65322   4.289   8.571   3.049  0.1605  0.2569  0.2429
  474MOL0     C65323   4.009   8.615   3.058  0.1872  0.0385  1.0302
  474MOL0     C65324   3.872   8.618   3.079  0.3777  0.1618  0.0892
  474MOL0     N65325   3.615   8.578   2.775 -0.4192 -0.0307  0.1196
  474MOL0     N65326   3.723   8.597   2.703  0.4476  0.7985 -0.2247
  474MOL0     C65327   3.053   8.528   2.024  0.2744 -0.0182 -0.1984
  474MOL0     C65328   2.945   8.531   2.109  0.2674  0.1650  0.6932
  474MOL0     C65329   2.585   8.776   2.316 -0.5814  0.3044 -0.6512
  474MOL0     C65330   2.607   8.717   2.440  0.3782  0.0601  0.1086
  474MOL0     C65331   2.548   8.770   2.554 -0.6698  0.0664 -0.2017
  474MOL0     C65332   2.459   8.882   2.547  0.7440  0.3289  0.2841
  474MOL0     O65333   2.380   8.931   2.655 -0.0304 -0.3734  0.6277
  474MOL0     C65334   2.429   8.899   2.791 -1.1421 -0.2984  0.0689
  474MOL0     C65335   2.334   8.932   2.905  0.8207  0.0245  1.0139
  474MOL0     C65336   2.192   8.869   2.882  0.0461  0.4466  0.0481
  474MOL0     C65337   2.191   8.716   2.855 -0.3951 -0.1478  0.3932
  474MOL0     C65338   2.265   8.637   2.958  0.7174 -0.9689  0.5740
  474MOL0     C65339   2.327   8.574   3.038  0.1155  0.9442 -0.5050
  474MOL0     C65340   2.419   8.934   2.419 -0.6396  0.0319 -0.1312
  474MOL0     C65341   2.493   8.881   2.306 -0.3388  0.7394  0.1596
  474MOL0     C65342   2.474   8.966   2.180  0.1790  0.3188  0.3534
  474MOL0     H65343   2.902   8.865   2.146 -1.7508  0.2069 -2.2316
  474MOL0     H65344   3.098   8.868   2.003 -0.4265 -0.2890 -1.0693
  474MOL0     H65345   3.367   8.559   1.796 -0.3507 -1.0076 -0.0553
  474MOL0     H65346   3.231   8.450   1.834 -0.2996  0.9481 -1.8496
  474MOL0     H65347   3.288   8.463   2.076 -0.9598 -3.4239 -1.7519
  474MOL0     H65348   3.419   8.387   1.983  1.8793  1.4613 -0.2767
  474MOL0     H65349   3.546   8.623   1.987 -0.2791  0.3919 -0.7789
  474MOL0     H65350   3.400   8.685   2.067 -1.3662 -0.7773 -0.6793
  474MOL0     H65351   3.448   8.576   2.261 -0.3271 -5.2704  1.1861
  474MOL0     H65352   3.544   8.455   2.199  0.3787  0.5837  1.5147
  474MOL0     H65353   3.652   8.740   2.187  2.3873  0.6155  2.8993
  474MOL0     H65354   3.739   8.588   2.159 -1.5224  0.4401 -3.8665
  474MOL0     H65355   3.594   8.605   2.431 -1.2091 -1.1475 -1.7876
  474MOL0     H65356   3.748   8.539   2.380 -0.5688 -0.0355  1.0933
  474MOL0     H65357   3.641   8.824   2.410 -1.1118  1.0736 -1.9518
  474MOL0     H65358   3.800   8.800   2.321 -1.6757 -0.6414 -0.7951
  474MOL0     H65359   3.890   8.690   2.523  0.3859 -0.0938 -1.5860
  474MOL0     H65360   3.850   8.857   2.547 -3.4092  1.4828  0.4923
  474MOL0     H65361   3.582   8.897   2.696 -2.7568 -0.3370  0.5653
  474MOL0     H65362   3.394   8.638   2.919 -1.4075 -0.4566  0.2573
  474MOL0     H65363   3.347   8.767   2.805 -0.6121 -1.9533  0.0984
  474MOL0     H65364   3.497   8.937   2.926 -3.3083  2.2333  2.6267
  474MOL0     H65365   3.397   8.863   3.047  0.0282  2.9894 -0.1532
  474MOL0     H65366   3.692   8.817   3.011  1.0366 -0.1238  0.3756
  474MOL0     H65367   3.587   8.864   3.150  0.3564 -1.3327  0.5466
  474MOL0     H65368   3.497   8.652   3.161 -0.9110 -3.3593 -1.5595
  474MOL0     H65369   3.596   8.574   3.036 -0.4101  0.4310 -0.7075
  474MOL0     H65370   3.855   8.591   3.409  0.0739 -2.3937 -0.9543
  474MOL0     H65371   4.196   8.708   3.444  0.5634  0.4612 -0.0256
  474MOL0     H65372   4.161   8.538   3.446 -1.5663 -1.3312 -3.6362
  474MOL0     H65373   4.048   8.645   3.521  1.0587 -0.6810  0.2290
  474MOL0     H65374   4.398   8.479   3.308 -2.0943  3.9510  1.1808
  474MOL0     H65375   4.651   8.389   3.321  2.7689  1.7237  1.1686
  474MOL0     H65376   4.974   8.688   3.167 -0.9051  2.1960  2.2779
  474MOL0     H65377   4.922   8.685   3.334 -1.8488 -0.5180  0.6759
  474MOL0     H65378   5.107   8.499   3.169 -2.6722  0.2691 -0.9937
  474MOL0     H65379   5.161   8.635   3.270  0.2186 -0.2827 -2.7490
  474MOL0     H65380   5.012   8.387   3.390 -0.7609  0.1710 -2.2503
  474MOL0     H65381   5.082   8.528   3.477  0.6199  1.0007 -0.2083
  474MOL0     H65382   5.283   8.498   3.343  0.7417 -0.3285 -1.3479
  474MOL0     H65383   5.239   8.327   3.329  1.9274  2.6875 -2.3700
  474MOL0     H65384   5.383   8.359   3.537  0.1196  0.3327  2.3310
  474MOL0     H65385   5.280   8.484   3.582  4.1195  0.9092 -1.6968
  474MOL0     H65386   5.091   8.317   3.628  0.7215 -0.1649  1.8982
  474MOL0     H65387   5.245   8.291   3.711 -1.3952 -0.8046  1.3557
  474MOL0     H65388   5.304   8.132   3.502 -0.7941  1.0321 -1.1807
  474MOL0     H65389   5.132   8.163   3.467  2.0075 -0.1040 -1.0430
  474MOL0     H65390   5.095   8.075   3.703  0.8547 -1.4942  2.2938
  474MOL0     H65391   5.265   8.047   3.729 -0.0497  2.8291 -0.4251
  474MOL0     H65392   4.762   8.773   3.166  1.2814 -1.2908  0.4392
  474MOL0     H65393   4.524   8.852   3.170 -1.1401  0.3014  2.3710
  474MOL0     H65394   4.051   8.603   2.959 -1.3572  4.0147 -0.2882
  474MOL0     H65395   3.805   8.627   2.994 -1.0146 -1.2217  0.9937
  474MOL0     H65396   3.090   8.428   2.000  1.6906  0.0699  1.4222
  474MOL0     H65397   2.922   8.437   2.157  0.0624  0.8001  1.8658
  474MOL0     H65398   2.673   8.632   2.451  0.1847 -0.2969 -1.2587
  474MOL0     H65399   2.558   8.713   2.646  0.1409  1.2827  0.4900
  474MOL0     H65400   2.448   8.791   2.798  3.4915  0.2135 -1.3030
  474MOL0     H65401   2.528   8.943   2.806 -1.3093  0.2085 -0.2884
  474MOL0     H65402   2.316   9.040   2.898 -1.0564 -0.3584 -1.8281
  474MOL0     H65403   2.384   8.899   2.996  1.1700 -0.8650  0.5193
  474MOL0     H65404   2.144   8.888   2.978  1.2213  1.7931  0.4121
  474MOL0     H65405   2.132   8.925   2.810  2.5518  1.1808 -1.5784
  474MOL0     H65406   2.241   8.700   2.759  0.2105  0.4847  0.5965
  474MOL0     H65407   2.090   8.674   2.854  0.3338 -1.9901 -0.4275
  474MOL0     H65408   2.381   8.510   3.104  0.2151  0.7266 -0.7973
  474MOL0     H65409   2.348   9.014   2.403 -2.1545 -1.4004 -0.9169
  474MOL0     H65410   2.572   8.983   2.133 -0.8889 -1.4549 -2.7440
  474MOL0     H65411   2.427   8.895   2.111  3.8806 -1.9430 -0.1393
  474MOL0     H65412   2.421   9.062   2.182 -0.1826  0.1536 -0.7151
  475MOL0     O65413   3.467  11.187   6.380  0.2139 -0.3350  0.0294
  475MOL0     C65414   3.443  11.121   6.476  0.5607  0.0699 -0.5534
  475MOL0     O65415   3.470  11.147   6.604  0.6232  0.1924  0.1825
  475MOL0     C65416   3.537  11.260   6.640  0.6212  0.4777  0.5320
  475MOL0     C65417   3.483  11.378   6.621 -0.8148 -0.2542 -0.2566
  475MOL0     C65418   3.544  11.491   6.677  0.2493  0.6855  0.0296
  475MOL0     C65419   3.677  11.483   6.733  0.4290 -0.0599 -0.0751
  475MOL0     O65420   3.727  11.599   6.799 -0.0846 -0.5191 -0.8483
  475MOL0     C65421   3.868  11.598   6.821  0.0838  0.1860 -0.2554
  475MOL0     C65422   3.921  11.747   6.847 -0.4166  0.6195 -0.7400
  475MOL0     C65423   3.898  11.833   6.731 -0.2295 -0.6154 -1.0245
  475MOL0     C65424   3.974  11.966   6.764  0.1816 -1.1405 -0.1238
  475MOL0     C65425   3.948  12.074   6.659  0.0919  0.4839  0.6279
  475MOL0     C65426   4.038  12.193   6.675  0.0317  0.1342 -0.0344
  475MOL0     C65427   3.962  12.332   6.682 -0.4358 -0.1986  0.1788
  475MOL0     C65428   4.049  12.446   6.738 -0.0294  0.3174  0.3077
  475MOL0     N65429   4.138  12.502   6.649 -0.0401 -0.5424  0.3294
  475MOL0     C65430   4.245  12.439   6.591  0.0531  0.0076  0.2961
  475MOL0     C65431   4.302  12.526   6.501  1.1571 -0.4220 -0.5466
  475MOL0     C65432   4.426  12.499   6.426 -0.6118  0.7745  0.6305
  475MOL0     C65433   4.556  12.457   6.498  0.5830  0.1162 -0.1686
  475MOL0     C65434   4.596  12.562   6.603  0.3347 -0.1640  0.1858
  475MOL0     C65435   4.729  12.530   6.670 -0.2048 -0.8812 -0.3286
  475MOL0     O65436   4.758  12.629   6.769  0.2947  0.5759 -0.3781
  475MOL0     C65437   4.828  12.741   6.730  0.8068 -0.3429 -1.0008
  475MOL0     C65438   4.769  12.866   6.712 -0.2665  0.4127  0.0417
  475MOL0     C65439   4.845  12.984   6.677 -1.0653  1.0079 -0.2287
  475MOL0     C65440   4.769  13.104   6.625 -0.5622 -0.5873 -0.3471
  475MOL0     C65441   4.986  12.974   6.682  0.3911 -0.3367 -0.3585
  475MOL0     C65442   5.070  13.097   6.667 -0.7596  0.6879 -0.2489
  475MOL0     O65443   5.024  13.215   6.633 -0.9836  0.2774 -0.6580
  475MOL0     C65444   5.110  13.308   6.580 -1.0096  0.1329 -0.1880
  475MOL0     C65445   5.178  13.395   6.666  0.4784  0.4825  0.6496
  475MOL0     C65446   5.253  13.489   6.611 -0.3054 -0.6774 -0.1149
  475MOL0     C65447   5.274  13.500   6.475  0.4257 -0.6931  0.1581
  475MOL0     O65448   5.349  13.607   6.440 -0.5503 -0.3542 -0.2049
  475MOL0     C65449   5.386  13.606   6.294  0.5361 -0.1266  0.6473
  475MOL0     C65450   5.481  13.715   6.270 -0.3941 -0.1970 -0.4523
  475MOL0     C65451   5.557  13.699   6.132  0.0448 -0.4991 -0.1344
  475MOL0     C65452   5.706  13.732   6.152  0.0735  0.3445  0.5648
  475MOL0     C65453   5.787  13.710   6.018 -0.8249 -0.0368 -1.0167
  475MOL0     C65454   5.757  13.819   5.921  0.2626  0.5574  0.3488
  475MOL0     C65455   5.853  13.803   5.797  0.9707 -0.5866 -0.5403
  475MOL0     C65456   5.822  13.925   5.710  0.3955 -0.3097  0.4245
  475MOL0    Cl65457   5.950  13.950   5.595 -0.0022 -0.2641  0.0665
  475MOL0     C65458   5.196  13.420   6.388 -0.0215  1.0234 -0.0329
  475MOL0     C65459   5.123  13.312   6.439 -0.1592 -0.6059  0.3024
  475MOL0     O65460   5.193  13.074   6.685 -0.0475 -0.0171  0.3464
  475MOL0     C65461   5.039  12.854   6.714 -0.7500 -0.8544 -0.3026
  475MOL0     C65462   4.965  12.738   6.735 -0.3728 -0.4965  0.8343
  475MOL0     N65463   4.213  12.633   6.498 -0.7381 -0.2792  0.4332
  475MOL0     N65464   4.117  12.607   6.574 -0.0736 -0.2514  0.8606
  475MOL0     C65465   3.741  11.364   6.728 -1.2837  1.2449  0.0779
  475MOL0     C65466   3.671  11.254   6.680  0.0284  0.2560  0.0929
  475MOL0     C65467   3.370  10.991   6.455  0.3784  0.2425  0.0293
  475MOL0     C65468   3.447  10.891   6.400  0.9408  0.7258  0.2039
  475MOL0     C65469   3.390  10.767   6.376 -0.0232  0.1844 -0.7548
  475MOL0     C65470   3.256  10.744   6.412  0.5247  0.3330  0.9211
  475MOL0     O65471   3.211  10.612   6.421  0.1425  0.2740  0.3918
  475MOL0     C65472   3.065  10.590   6.445 -0.1469  1.0205  0.1373
  475MOL0     C65473   3.041  10.443   6.468  0.0454 -0.9916 -0.1052
  475MOL0     C65474   3.063  10.366   6.336  0.3070  0.2788  0.0100
  475MOL0     C65475   3.002  10.223   6.324 -0.8639 -0.1874  0.0766
  475MOL0     C65476   3.070  10.118   6.405 -0.4190 -0.4611 -0.5861
  475MOL0     C65477   3.115  10.022   6.474  0.1195 -0.0689 -0.0997
  475MOL0     C65478   3.181  10.850   6.458 -0.2367  0.2242 -0.0339
  475MOL0     C65479   3.234  10.976   6.485  0.3340  0.5828  0.2079
  475MOL0     C65480   3.150  11.101   6.528 -0.3712  0.2365  1.3135
  475MOL0     H65481   3.390  11.387   6.567  1.7991  0.1752 -5.2512
  475MOL0     H65482   3.491  11.586   6.682 -3.1040 -0.7332 -3.3621
  475MOL0     H65483   3.919  11.561   6.731  0.3016 -0.4056  0.1049
  475MOL0     H65484   3.891  11.536   6.908  0.5095  1.9535  0.9360
  475MOL0     H65485   3.854  11.785   6.925 -0.5017  0.4476 -0.7298
  475MOL0     H65486   4.025  11.757   6.878  0.4178 -0.4466 -3.0582
  475MOL0     H65487   3.943  11.796   6.638  2.4867  0.1751 -0.1164
  475MOL0     H65488   3.794  11.857   6.707 -0.2262 -1.4255 -1.9124
  475MOL0     H65489   3.933  12.018   6.851  1.7183 -1.1078  0.6169
  475MOL0     H65490   4.083  11.954   6.764  0.6251  1.5447 -2.9850
  475MOL0     H65491   3.845  12.112   6.660  0.6641  2.1735 -0.5346
  475MOL0     H65492   3.972  12.026   6.564  1.2682  0.7618  0.7662
  475MOL0     H65493   4.091  12.183   6.771  3.2760 -2.6060 -1.9040
  475MOL0     H65494   4.114  12.194   6.597  1.7494  1.0045  1.5603
  475MOL0     H65495   3.874  12.330   6.747  0.6241  0.8148  1.7036
  475MOL0     H65496   3.938  12.378   6.585 -0.6682  0.6983  0.6535
  475MOL0     H65497   3.986  12.525   6.781 -0.2042  1.2780 -1.5843
  475MOL0     H65498   4.100  12.397   6.822  0.2455 -0.3930 -0.2689
  475MOL0     H65499   4.289  12.340   6.604 -0.6165 -0.2540  0.6386
  475MOL0     H65500   4.450  12.586   6.364 -0.9384 -0.5703 -1.5236
  475MOL0     H65501   4.399  12.423   6.352  0.1361 -1.8480  2.8927
  475MOL0     H65502   4.544  12.357   6.541  0.0213  1.6968  3.7092
  475MOL0     H65503   4.643  12.456   6.432  0.8289 -1.4251  0.1537
  475MOL0     H65504   4.594  12.658   6.550 -0.9782  0.1069  0.6879
  475MOL0     H65505   4.513  12.566   6.673 -1.3764  1.0414 -1.7810
  475MOL0     H65506   4.731  12.433   6.722 -0.4494  0.2140  1.8387
  475MOL0     H65507   4.805  12.532   6.591 -0.2879  1.2507 -0.4054
  475MOL0     H65508   4.662  12.858   6.726  0.0281 -0.9587  1.8229
  475MOL0     H65509   4.793  13.195   6.680 -4.6842  1.4669 -1.5505
  475MOL0     H65510   4.662  13.095   6.643 -0.5120  1.0878  1.1862
  475MOL0     H65511   4.798  13.129   6.523 -0.0848  0.4369  0.0208
  475MOL0     H65512   5.153  13.381   6.771 -0.0596  2.3841  0.8279
  475MOL0     H65513   5.298  13.565   6.675 -1.8555 -0.7205  1.0879
  475MOL0     H65514   5.428  13.509   6.264 -0.4923 -0.5968  0.6774
  475MOL0     H65515   5.302  13.629   6.228 -0.4232 -0.3399  1.7596
  475MOL0     H65516   5.431  13.812   6.271  0.0823  0.0610  0.6340
  475MOL0     H65517   5.558  13.726   6.348 -1.8890  2.7116  0.7896
  475MOL0     H65518   5.507  13.770   6.066  1.0525  0.4006  0.0347
  475MOL0     H65519   5.551  13.601   6.086  0.2128  0.0538 -1.3758
  475MOL0     H65520   5.747  13.659   6.223 -0.0170 -0.4839 -0.2155
  475MOL0     H65521   5.732  13.824   6.206 -0.6129  1.1182 -0.3785
  475MOL0     H65522   5.888  13.711   6.058 -1.3348 -1.4371  0.3765
  475MOL0     H65523   5.768  13.610   5.979  1.6033 -0.6393 -0.7972
  475MOL0     H65524   5.760  13.918   5.968  0.2199 -0.3297  2.2813
  475MOL0     H65525   5.656  13.812   5.879  1.9893 -1.6181 -4.1024
  475MOL0     H65526   5.845  13.710   5.739 -1.1988 -2.0846  1.9360
  475MOL0     H65527   5.954  13.815   5.836  1.6017  1.2506 -2.5367
  475MOL0     H65528   5.821  14.018   5.767 -1.1071 -0.8176  1.2756
  475MOL0     H65529   5.728  13.912   5.656  0.3057  2.0308 -0.0944
  475MOL0     H65530   5.204  13.423   6.280  0.3219 -2.1011 -0.1857
  475MOL0     H65531   5.064  13.245   6.378 -0.3837  1.4581 -1.8880
  475MOL0     H65532   5.144  12.839   6.735 -0.5103 -2.0230 -2.1443
  475MOL0     H65533   5.016  12.647   6.765  1.5732  0.8301  1.7569
  475MOL0     H65534   3.835  11.349   6.780 -2.3013 -3.2483  1.0918
  475MOL0     H65535   3.720  11.157   6.686 -1.1782 -0.3639  0.1700
  475MOL0     H65536   3.542  10.914   6.351 -0.4668 -2.2113 -4.6111
  475MOL0     H65537   3.455  10.689   6.337  2.3008  0.4894  2.1042
  475MOL0     H65538   3.044  10.645   6.536  2.5299  0.9050  0.9103
  475MOL0     H65539   3.000  10.622   6.364  0.3505 -2.2528 -1.7617
  475MOL0     H65540   2.932  10.447   6.479  0.2117  0.3457  1.6642
  475MOL0     H65541   3.100  10.412   6.555  0.6505  1.3238  0.3744
  475MOL0     H65542   3.017  10.426   6.257  1.8134  0.3742 -0.8253
  475MOL0     H65543   3.171  10.361   6.323  1.0116 -2.7883  4.5104
  475MOL0     H65544   2.996  10.187   6.221  0.1928 -0.0268 -0.0515
  475MOL0     H65545   2.901  10.230   6.366 -1.2702  1.1037 -1.0455
  475MOL0     H65546   3.141   9.946   6.545  2.4406  0.3316 -0.4405
  475MOL0     H65547   3.074  10.853   6.476 -0.7971 -0.8995 -2.7118
  475MOL0     H65548   3.179  11.144   6.624 -0.1474  0.4096  1.1698
  475MOL0     H65549   3.154  11.176   6.449  0.7056  1.2703  2.3107
  475MOL0     H65550   3.045  11.073   6.540 -1.5884  2.2799 -2.7453
  476MOL0     O65551   9.044   6.684   0.013  0.6036 -0.0872  0.0568
  476MOL0     C65552   9.078   6.571   0.057  1.5225 -0.4088  0.3820
  476MOL0     O65553   9.177   6.494   0.001 -0.9733 -0.7498  0.6753
  476MOL0     C65554   9.197   6.519  -0.132 -0.4992  0.3038 -0.1626
  476MOL0     C65555   9.321   6.569  -0.168  0.1344 -0.6280 -0.3664
  476MOL0     C65556   9.354   6.591  -0.299 -0.0879  0.9820  0.3148
  476MOL0     C65557   9.267   6.548  -0.399  0.0023 -0.5396  0.2756
  476MOL0     O65558   9.312   6.553  -0.525 -0.6468 -0.0210  0.8147
  476MOL0     C65559   9.211   6.557  -0.630  0.3853  0.1971  0.1581
  476MOL0     C65560   9.280   6.617  -0.754 -0.2116 -1.3065 -0.5041
  476MOL0     C65561   9.187   6.627  -0.870  0.4042 -1.0503  0.5165
  476MOL0     C65562   9.260   6.663  -0.995  0.3262 -0.1311 -0.5581
  476MOL0     C65563   9.238   6.819  -1.024  0.1426 -0.1494  0.8701
  476MOL0     C65564   9.350   6.914  -0.974 -0.5105 -0.3399 -0.0911
  476MOL0     C65565   9.475   6.899  -1.060  0.9329  0.2293  0.4899
  476MOL0     C65566   9.569   7.012  -1.021 -0.6238 -0.8731 -0.0002
  476MOL0     N65567   9.674   7.017  -1.127 -0.3970 -0.5889  0.1011
  476MOL0     C65568   9.809   7.006  -1.107  0.6791  0.7525 -0.6418
  476MOL0     C65569   9.869   7.062  -1.209 -0.9799 -0.2659  0.2427
  476MOL0     C65570  10.019   7.092  -1.213  0.0445  0.2445 -0.3367
  476MOL0     C65571  10.101   6.977  -1.283  0.2451 -0.7583  0.2075
  476MOL0     C65572  10.075   6.972  -1.428  0.2782  0.9244 -0.3229
  476MOL0     C65573  10.169   6.875  -1.499  1.0505 -0.1509  0.6001
  476MOL0     O65574  10.305   6.911  -1.485 -0.1518  0.2959  0.0577
  476MOL0     C65575  10.353   6.990  -1.580 -0.8169  0.1054 -0.2086
  476MOL0     C65576  10.401   7.116  -1.556  0.9464  0.1802  0.9568
  476MOL0     C65577  10.431   7.205  -1.659 -0.2116 -0.1145 -0.7204
  476MOL0     C65578  10.478   7.342  -1.625  0.1125 -1.0370  0.0307
  476MOL0     C65579  10.443   7.155  -1.790  0.7787  0.9838  0.2413
  476MOL0     C65580  10.478   7.239  -1.911  0.3277 -1.2025  0.4903
  476MOL0     O65581  10.385   7.228  -2.009 -0.2406 -1.3355  0.4117
  476MOL0     C65582  10.397   7.296  -2.125 -0.5016 -0.3412  0.2589
  476MOL0     C65583  10.394   7.230  -2.248  0.0540  0.7488  0.5065
  476MOL0     C65584  10.393   7.301  -2.367  0.4701 -0.2025 -0.3780
  476MOL0     C65585  10.412   7.444  -2.364  0.3210 -0.6333  0.0587
  476MOL0     O65586  10.422   7.514  -2.484  0.4038  0.3382 -0.2962
  476MOL0     C65587  10.435   7.439  -2.612  0.1557  0.1542  0.0670
  476MOL0     C65588  10.428   7.536  -2.728 -1.4871  0.9258 -0.1644
  476MOL0     C65589  10.289   7.583  -2.760  0.2553 -0.4015  1.1668
  476MOL0     C65590  10.258   7.709  -2.680  0.5935  1.5938  1.1529
  476MOL0     C65591  10.113   7.756  -2.713 -0.4202 -0.2418  0.7799
  476MOL0     C65592  10.116   7.818  -2.849 -0.2961 -0.0821  0.6712
  476MOL0     C65593   9.980   7.874  -2.887 -0.0386 -0.7343 -0.7018
  476MOL0     C65594   9.981   7.986  -2.993 -0.5031 -0.2085 -0.4128
  476MOL0    Cl65595  10.009   7.895  -3.143 -0.2550  0.0564 -0.3405
  476MOL0     C65596  10.422   7.510  -2.241 -0.7115  1.2679  0.1375
  476MOL0     C65597  10.417   7.441  -2.123 -0.8471  1.0126  0.6801
  476MOL0     O65598  10.562   7.327  -1.912 -0.2610 -0.5048 -0.6409
  476MOL0     C65599  10.399   7.020  -1.813  0.2725 -0.4320  0.5127
  476MOL0     C65600  10.354   6.936  -1.708 -0.4610 -0.4910  0.5223
  476MOL0     N65601   9.771   7.090  -1.306  0.1119 -0.4939 -0.3176
  476MOL0     N65602   9.654   7.071  -1.250  0.2960 -0.2250 -0.0169
  476MOL0     C65603   9.139   6.492  -0.363  0.2780 -0.6752 -1.2920
  476MOL0     C65604   9.104   6.481  -0.227  0.1284 -0.1613  0.5147
  476MOL0     C65605   9.040   6.553   0.200 -0.4315  1.0102 -0.7756
  476MOL0     C65606   9.106   6.450   0.270  1.1548  0.5010  0.7863
  476MOL0     C65607   9.091   6.421   0.398  0.3946  0.0066 -1.2238
  476MOL0     C65608   9.008   6.500   0.475  0.6045 -0.4450 -0.5288
  476MOL0     O65609   8.978   6.479   0.607 -0.7214 -0.3918 -0.5161
  476MOL0     C65610   9.028   6.364   0.673 -0.7285 -0.6245  0.0940
  476MOL0     C65611   8.930   6.328   0.783 -0.6301 -1.1978 -0.2803
  476MOL0     C65612   8.826   6.234   0.729  0.2620 -0.1894  0.2085
  476MOL0     C65613   8.710   6.221   0.820  0.3932 -0.6414  0.2332
  476MOL0     C65614   8.609   6.327   0.799  0.3864 -0.1159 -0.5008
  476MOL0     C65615   8.537   6.427   0.807 -0.6492  0.1319 -0.4753
  476MOL0     C65616   8.934   6.596   0.417 -0.5926  0.1510  0.1631
  476MOL0     C65617   8.950   6.625   0.284 -0.7483 -0.1677  1.1944
  476MOL0     C65618   8.891   6.757   0.236 -0.1526  0.2552  0.0654
  476MOL0     H65619   9.386   6.608  -0.091 -0.8618 -0.0234  0.1883
  476MOL0     H65620   9.452   6.623  -0.332 -0.8799 -0.1818 -3.6536
  476MOL0     H65621   9.125   6.618  -0.601  1.6208  1.5112  1.2393
  476MOL0     H65622   9.177   6.459  -0.663  0.9804 -0.5721  1.7191
  476MOL0     H65623   9.335   6.710  -0.740  1.5477 -2.5927  1.8842
  476MOL0     H65624   9.368   6.554  -0.775  0.7056  0.5450 -2.5788
  476MOL0     H65625   9.143   6.528  -0.889  0.9494 -1.0167 -1.1235
  476MOL0     H65626   9.109   6.700  -0.847  2.9265  1.4069  1.9237
  476MOL0     H65627   9.364   6.631  -0.985  0.2128 -0.3829 -0.1414
  476MOL0     H65628   9.215   6.613  -1.081  0.7448  0.1340 -0.9391
  476MOL0     H65629   9.134   6.845  -1.003 -0.2508 -1.1884  0.2599
  476MOL0     H65630   9.247   6.845  -1.130  1.1768 -3.3571  0.0608
  476MOL0     H65631   9.302   7.012  -0.978 -0.0920 -0.1330 -0.0314
  476MOL0     H65632   9.364   6.908  -0.866  1.7882  1.8297 -0.1829
  476MOL0     H65633   9.443   6.919  -1.163 -1.5759 -1.4120  0.8561
  476MOL0     H65634   9.519   6.800  -1.050 -0.1777 -0.5995 -2.0457
  476MOL0     H65635   9.521   7.109  -1.003  2.0419  0.2065  1.8207
  476MOL0     H65636   9.608   6.992  -0.921 -1.5798 -2.4429  0.0874
  476MOL0     H65637   9.860   6.976  -1.016 -0.3873  0.8535  0.0066
  476MOL0     H65638  10.062   7.098  -1.113 -0.3936  1.2526 -0.1982
  476MOL0     H65639  10.038   7.186  -1.266  0.9066 -0.3856 -1.1831
  476MOL0     H65640  10.208   6.999  -1.282 -0.1066  1.1296  1.4075
  476MOL0     H65641  10.070   6.883  -1.237  0.5404 -0.1459  1.7196
  476MOL0     H65642   9.973   6.935  -1.445 -0.1023  3.0192 -3.3241
  476MOL0     H65643  10.086   7.065  -1.485  3.4310 -0.1714 -1.7714
  476MOL0     H65644  10.165   6.772  -1.463 -1.1487 -0.2899  0.0501
  476MOL0     H65645  10.135   6.887  -1.602  4.3603 -0.7657 -0.6909
  476MOL0     H65646  10.412   7.146  -1.453  5.5113 -2.9781  1.6836
  476MOL0     H65647  10.453   7.368  -1.521  0.8260 -1.5954  0.3488
  476MOL0     H65648  10.425   7.412  -1.690 -3.1684  0.9104  4.2368
  476MOL0     H65649  10.586   7.349  -1.636  0.0090  1.5092 -0.0126
  476MOL0     H65650  10.368   7.125  -2.241 -2.1238  1.0083 -1.9791
  476MOL0     H65651  10.388   7.241  -2.457 -0.5757 -0.4147 -0.1892
  476MOL0     H65652  10.531   7.387  -2.615 -0.4538 -0.9762 -0.2289
  476MOL0     H65653  10.361   7.358  -2.616  1.1803 -0.8978  1.5215
  476MOL0     H65654  10.511   7.608  -2.725 -0.9072  0.3551  4.5715
  476MOL0     H65655  10.450   7.477  -2.818  2.8287  1.5783  0.2374
  476MOL0     H65656  10.223   7.497  -2.748  0.0827 -0.5366 -0.4698
  476MOL0     H65657  10.276   7.594  -2.869  0.2270  0.7351  1.2678
  476MOL0     H65658  10.330   7.788  -2.701  0.9713  1.4301  1.7938
  476MOL0     H65659  10.260   7.696  -2.571 -0.2949  1.4865  1.1672
  476MOL0     H65660  10.046   7.669  -2.705  1.5231 -1.8652  0.1275
  476MOL0     H65661  10.076   7.833  -2.644  0.5636 -0.6037  1.7393
  476MOL0     H65662  10.151   7.745  -2.923  1.4238 -1.3968  2.6649
  476MOL0     H65663  10.175   7.910  -2.844 -0.3006  0.0090 -0.6416
  476MOL0     H65664   9.939   7.906  -2.791  1.0262 -0.8191 -0.1993
  476MOL0     H65665   9.914   7.791  -2.915  0.0119 -0.4578 -1.6694
  476MOL0     H65666  10.066   8.055  -2.986 -0.1715 -0.5549 -0.9368
  476MOL0     H65667   9.893   8.051  -3.000 -1.7395 -1.8251 -0.3402
  476MOL0     H65668  10.437   7.617  -2.247 -2.4464  1.5996  1.1458
  476MOL0     H65669  10.437   7.500  -2.034  0.6502  0.3555  0.8052
  476MOL0     H65670  10.391   6.989  -1.916 -1.9920  0.0478  0.4982
  476MOL0     H65671  10.311   6.839  -1.727 -3.2245  0.8302 -0.5009
  476MOL0     H65672   9.071   6.449  -0.435  2.0411 -4.8923 -0.7337
  476MOL0     H65673   9.011   6.438  -0.192  0.6515 -1.9055 -0.1575
  476MOL0     H65674   9.171   6.388   0.208  0.3371  0.9521 -0.5708
  476MOL0     H65675   9.158   6.344   0.436 -0.0522 -0.3060 -1.0675
  476MOL0     H65676   9.038   6.273   0.614 -0.2277 -0.9761  0.7169
  476MOL0     H65677   9.126   6.388   0.714 -1.7350  0.5313  1.9749
  476MOL0     H65678   8.888   6.415   0.834 -0.7759 -2.1599  1.3007
  476MOL0     H65679   8.989   6.271   0.856 -0.3487 -0.7708 -0.1668
  476MOL0     H65680   8.781   6.258   0.632 -0.4815  0.6880  0.7561
  476MOL0     H65681   8.861   6.131   0.719  1.5444  0.1915  0.5195
  476MOL0     H65682   8.748   6.216   0.922  3.0261 -2.5764 -0.7448
  476MOL0     H65683   8.660   6.126   0.803 -0.9708  0.0275  0.3684
  476MOL0     H65684   8.463   6.504   0.810 -1.0506 -0.2721  0.1910
  476MOL0     H65685   8.863   6.649   0.480  1.3949  0.8541  1.9371
  476MOL0     H65686   8.960   6.837   0.210 -0.2166  0.3343  0.1369
  476MOL0     H65687   8.821   6.758   0.152 -0.9931  2.9438  0.7023
  476MOL0     H65688   8.838   6.791   0.325  0.4628 -1.1646  1.0283
  477MOL0     O65689   1.273   8.627   3.332  0.1664  0.1967  0.4152
  477MOL0     C65690   1.293   8.552   3.239  0.2571 -0.7870  1.2444
  477MOL0     O65691   1.231   8.555   3.117  0.0204 -0.3983 -0.1813
  477MOL0     C65692   1.111   8.614   3.092  1.1489  0.0765 -0.3384
  477MOL0     C65693   1.092   8.747   3.105  0.5167  0.2091 -0.0108
  477MOL0     C65694   0.962   8.804   3.091  0.8402  0.2851  0.0852
  477MOL0     C65695   0.847   8.721   3.080  0.6523 -0.7470  0.1093
  477MOL0     O65696   0.713   8.768   3.080  0.3657 -0.6004  0.7503
  477MOL0     C65697   0.676   8.865   3.174  0.5332 -1.0378 -0.1683
  477MOL0     C65698   0.524   8.898   3.178 -0.7565 -0.0195  0.4025
  477MOL0     C65699   0.482   8.943   3.042  0.6207 -0.7443 -0.0595
  477MOL0     C65700   0.335   8.993   3.041  0.8539  0.4029 -0.1485
  477MOL0     C65701   0.283   9.028   2.899 -0.1453  0.4996 -0.6761
  477MOL0     C65702   0.147   9.106   2.893  0.0659 -0.6669  0.4827
  477MOL0     C65703   0.135   9.199   2.765  0.1481 -0.2510 -0.9791
  477MOL0     C65704   0.123   9.119   2.636 -0.3065 -0.2157 -0.5958
  477MOL0     N65705   0.105   9.195   2.518 -0.1469 -0.1698  0.3131
  477MOL0     C65706   0.197   9.198   2.412  1.2009  1.8110 -0.0316
  477MOL0     C65707   0.151   9.295   2.332  0.0221 -0.7687  0.0218
  477MOL0     C65708   0.228   9.350   2.219  0.6913  0.0333  0.4931
  477MOL0     C65709   0.255   9.250   2.105  0.4203  0.5277 -0.2184
  477MOL0     C65710   0.130   9.189   2.040  0.6434 -1.3231 -0.0517
  477MOL0     C65711   0.161   9.045   1.983 -0.7115 -0.1322  0.3090
  477MOL0     O65712   0.222   8.963   2.081 -0.1276 -0.2978  0.6164
  477MOL0     C65713   0.156   8.919   2.194  0.4999  0.8389 -0.0362
  477MOL0     C65714   0.235   8.870   2.295  0.0149  0.6151 -0.6758
  477MOL0     C65715   0.187   8.805   2.413  0.3951 -0.2440 -0.4863
  477MOL0     C65716   0.287   8.749   2.506  0.2613 -0.3050  0.1175
  477MOL0     C65717   0.047   8.793   2.434 -0.1722 -0.0041  0.5842
  477MOL0     C65718  -0.024   8.734   2.556  0.2675 -0.0832  0.1163
  477MOL0     O65719  -0.160   8.732   2.550  0.4671  0.2950  0.3907
  477MOL0     C65720  -0.235   8.685   2.656  0.2479  0.3811  0.3113
  477MOL0     C65721  -0.369   8.731   2.671 -0.8715  0.0798  0.0621
  477MOL0     C65722  -0.464   8.684   2.761 -0.6229 -0.4063 -0.3064
  477MOL0     C65723  -0.412   8.588   2.857 -0.0931  1.6316  0.2093
  477MOL0     O65724  -0.491   8.528   2.957  0.0500 -0.3532  0.7821
  477MOL0     C65725  -0.634   8.559   2.962 -0.0191 -0.8642  0.7088
  477MOL0     C65726  -0.702   8.499   3.086  0.0102 -0.1822  0.7804
  477MOL0     C65727  -0.836   8.562   3.107  0.8258  0.0320 -0.6172
  477MOL0     C65728  -0.915   8.479   3.201 -0.4679  0.3892  1.0030
  477MOL0     C65729  -0.847   8.376   3.290  0.7821  0.8955  0.1978
  477MOL0     C65730  -0.935   8.315   3.394 -0.3366 -0.4952  0.2993
  477MOL0     C65731  -0.875   8.200   3.464  0.7819  0.2673 -0.8218
  477MOL0     C65732  -0.971   8.126   3.552  0.4047 -0.0699  0.1856
  477MOL0    Cl65733  -1.059   8.230   3.666  0.1262  0.5725  0.0542
  477MOL0     C65734  -0.282   8.538   2.849 -0.2626 -0.1421  0.9231
  477MOL0     C65735  -0.194   8.583   2.747 -0.4695 -0.3600  0.4053
  477MOL0     O65736   0.038   8.718   2.665 -0.0195  0.3934  0.6356
  477MOL0     C65737  -0.027   8.857   2.332  0.3703 -0.5785  0.2391
  477MOL0     C65738   0.020   8.915   2.209  0.4152  0.9821 -0.4066
  477MOL0     N65739   0.022   9.334   2.375  0.0769 -0.0964  0.4481
  477MOL0     N65740  -0.005   9.275   2.490 -0.9356  0.5903 -0.7844
  477MOL0     C65741   0.868   8.581   3.074 -0.1560  0.1163 -0.6525
  477MOL0     C65742   0.998   8.529   3.075  0.1412  0.1203 -0.8002
  477MOL0     C65743   1.405   8.459   3.237  0.0506  0.2747 -0.6996
  477MOL0     C65744   1.465   8.428   3.113 -0.3770  0.5041  0.6995
  477MOL0     C65745   1.575   8.346   3.098  0.7024 -1.0830  0.2458
  477MOL0     C65746   1.628   8.283   3.209 -0.3377  0.1439 -0.2205
  477MOL0     O65747   1.733   8.201   3.188  0.2514  0.2015  0.3543
  477MOL0     C65748   1.806   8.150   3.299 -0.6343  0.2139  0.4067
  477MOL0     C65749   1.958   8.132   3.271 -0.2367  0.2938  0.5251
  477MOL0     C65750   2.015   8.260   3.211 -0.2198  0.8138 -1.0389
  477MOL0     C65751   2.163   8.272   3.237 -0.3340 -1.3113 -0.6628
  477MOL0     C65752   2.236   8.202   3.131 -0.4259 -0.5342 -0.1918
  477MOL0     C65753   2.288   8.147   3.031  1.2631 -0.0295 -0.5868
  477MOL0     C65754   1.562   8.306   3.334 -0.2780  0.6002  0.3236
  477MOL0     C65755   1.452   8.387   3.350  0.9968  0.4983  0.5853
  477MOL0     C65756   1.374   8.385   3.477 -0.3696 -0.7572  0.1906
  477MOL0     H65757   1.170   8.821   3.118 -1.0527  1.8746  0.3247
  477MOL0     H65758   0.940   8.911   3.093  1.8948  0.5479 -1.0511
  477MOL0     H65759   0.737   8.953   3.154  1.0139 -1.5525 -1.0383
  477MOL0     H65760   0.724   8.831   3.266 -1.0203 -2.4567  0.1900
  477MOL0     H65761   0.471   8.806   3.203  0.3208 -0.4317  1.2763
  477MOL0     H65762   0.498   8.975   3.250 -1.7744 -0.0945  0.1196
  477MOL0     H65763   0.534   9.034   3.012  1.5803 -1.0224  0.7333
  477MOL0     H65764   0.495   8.860   2.972  0.4227  0.0334 -1.0300
  477MOL0     H65765   0.267   8.941   3.109  1.2939  2.1192  1.7372
  477MOL0     H65766   0.331   9.092   3.087  1.4537  0.1946  0.3670
  477MOL0     H65767   0.268   8.934   2.845  3.7205 -0.1921 -0.7970
  477MOL0     H65768   0.357   9.088   2.846  1.0584 -0.7166 -0.4085
  477MOL0     H65769   0.068   9.033   2.913  0.9986 -2.0316 -0.6112
  477MOL0     H65770   0.141   9.177   2.976 -1.1418  1.5638 -1.4313
  477MOL0     H65771   0.219   9.268   2.758  1.3759 -0.7240  4.4033
  477MOL0     H65772   0.045   9.257   2.786 -1.4616 -3.2845  1.3323
  477MOL0     H65773   0.212   9.055   2.629 -2.0641 -2.8250 -0.4511
  477MOL0     H65774   0.048   9.042   2.657 -0.0696 -0.5983 -1.0947
  477MOL0     H65775   0.283   9.134   2.397 -0.0333 -0.3482  1.5507
  477MOL0     H65776   0.318   9.391   2.266  2.4977 -0.2725 -2.4450
  477MOL0     H65777   0.173   9.438   2.183  1.1648  0.0879 -0.0967
  477MOL0     H65778   0.316   9.293   2.025  1.2637  1.6025  0.9628
  477MOL0     H65779   0.318   9.172   2.148 -2.6010 -0.1310  3.5302
  477MOL0     H65780   0.063   9.169   2.124  1.9341  1.0246  1.6667
  477MOL0     H65781   0.087   9.255   1.965  0.7231  0.5370  1.4660
  477MOL0     H65782   0.073   8.990   1.947 -1.0749  0.9453 -0.5215
  477MOL0     H65783   0.228   9.050   1.897 -1.5034 -1.0920 -0.3912
  477MOL0     H65784   0.342   8.883   2.280  0.1478 -0.3456 -0.6485
  477MOL0     H65785   0.263   8.649   2.543  0.8920 -0.9780 -1.1821
  477MOL0     H65786   0.302   8.812   2.594 -1.5689 -1.9229  1.6834
  477MOL0     H65787   0.379   8.735   2.448 -0.7191  0.6716 -1.7872
  477MOL0     H65788  -0.403   8.807   2.601 -1.5967  2.3422  2.7024
  477MOL0     H65789  -0.565   8.722   2.764 -0.3751  0.3505 -1.1260
  477MOL0     H65790  -0.650   8.667   2.955 -0.2396 -1.0064 -2.5499
  477MOL0     H65791  -0.669   8.518   2.867  0.3209 -0.2414  0.3056
  477MOL0     H65792  -0.703   8.391   3.068  2.5860  0.0337 -1.0616
  477MOL0     H65793  -0.642   8.524   3.174 -1.8359  0.4537  1.9211
  477MOL0     H65794  -0.894   8.571   3.014 -1.5943 -2.9455  0.4371
  477MOL0     H65795  -0.828   8.666   3.139 -0.9921 -0.0128  0.0933
  477MOL0     H65796  -0.991   8.427   3.142  1.1602 -0.2868 -0.6035
  477MOL0     H65797  -0.979   8.542   3.263 -0.4613 -2.7448  4.5186
  477MOL0     H65798  -0.804   8.302   3.222  3.6420  1.7308  0.9770
  477MOL0     H65799  -0.769   8.423   3.350  1.0043  0.8736 -0.0733
  477MOL0     H65800  -1.034   8.285   3.357 -0.0414 -1.8491  0.5580
  477MOL0     H65801  -0.955   8.393   3.468 -2.6751 -1.4355  0.7344
  477MOL0     H65802  -0.782   8.210   3.521 -0.2857 -0.4494  1.1466
  477MOL0     H65803  -0.852   8.123   3.390  1.0722  0.4705 -0.9436
  477MOL0     H65804  -0.915   8.055   3.614  1.8175  2.2203  1.6718
  477MOL0     H65805  -1.050   8.082   3.491  0.2712  1.5637 -0.8752
  477MOL0     H65806  -0.242   8.461   2.914  1.2154 -0.3996 -0.2245
  477MOL0     H65807  -0.098   8.533   2.749  0.9104  2.0297 -1.3095
  477MOL0     H65808  -0.134   8.859   2.348  0.0044 -1.4080 -1.7633
  477MOL0     H65809  -0.049   8.943   2.131 -0.4663  0.2668  0.1006
  477MOL0     H65810   0.782   8.516   3.059 -0.2393 -0.2789  1.3779
  477MOL0     H65811   1.007   8.420   3.076  0.6878  0.1150  2.0494
  477MOL0     H65812   1.433   8.479   3.023  0.8035 -1.0962 -0.6857
  477MOL0     H65813   1.622   8.345   3.000  0.5165 -2.4132  0.1560
  477MOL0     H65814   1.802   8.225   3.378 -1.6328 -0.0580  0.6332
  477MOL0     H65815   1.755   8.063   3.343  0.2696 -0.2122  0.6498
  477MOL0     H65816   1.977   8.042   3.211  2.4404  2.0555 -1.4741
  477MOL0     H65817   2.013   8.115   3.364 -1.1769 -1.8892  0.7642
  477MOL0     H65818   1.979   8.276   3.108 -1.2835  0.7204 -0.6968
  477MOL0     H65819   1.978   8.342   3.274  1.1243 -0.1390  1.0941
  477MOL0     H65820   2.189   8.233   3.336 -2.0952  1.4643  1.0050
  477MOL0     H65821   2.185   8.378   3.224 -2.1740 -1.0159 -1.6272
  477MOL0     H65822   2.335   8.099   2.948 -2.0163  0.5982 -2.9825
  477MOL0     H65823   1.596   8.253   3.422 -0.9968  1.0362  0.8781
  477MOL0     H65824   1.337   8.484   3.505  0.0996  0.4028 -2.8740
  477MOL0     H65825   1.284   8.324   3.469 -0.7296 -0.0436 -1.6565
  477MOL0     H65826   1.434   8.355   3.563  1.8985  1.8005 -0.3780
  478MOL0     O65827  10.760   4.495   3.781  0.3559  0.2429  0.3057
  478MOL0     C65828  10.736   4.371   3.787  0.3103 -0.5068  0.3519
  478MOL0     O65829  10.772   4.275   3.689  0.2679  0.4512 -0.1895
  478MOL0     C65830  10.879   4.294   3.608 -0.8407 -0.4852  0.3249
  478MOL0     C65831  10.873   4.201   3.501 -0.9160 -0.7428  0.8749
  478MOL0     C65832  10.983   4.206   3.406  1.0244  0.5834 -1.2040
  478MOL0     C65833  11.088   4.298   3.405 -0.8441 -0.6655 -0.3772
  478MOL0     O65834  11.167   4.304   3.297  0.1825 -0.0022 -0.5932
  478MOL0     C65835  11.305   4.333   3.310 -0.8265 -0.0469 -0.3720
  478MOL0     C65836  11.384   4.228   3.395 -0.4239 -0.3436 -0.2571
  478MOL0     C65837  11.527   4.258   3.392 -0.0657 -0.3019  0.4631
  478MOL0     C65838  11.607   4.150   3.459  0.8860 -0.0590  0.8841
  478MOL0     C65839  11.752   4.178   3.445 -0.0608  0.2355  0.6836
  478MOL0     C65840  11.823   4.045   3.490  0.2645 -0.7237  0.6908
  478MOL0     C65841  11.972   4.066   3.443  0.5243 -0.7499 -0.4835
  478MOL0     C65842  12.064   3.948   3.459  0.1666 -0.4306  0.3056
  478MOL0     N65843  12.204   3.978   3.404  0.4821  0.0515  0.7553
  478MOL0     C65844  12.260   3.887   3.307  0.4427 -0.3064  0.2134
  478MOL0     C65845  12.389   3.931   3.291 -0.6556 -0.5710  0.3505
  478MOL0     C65846  12.503   3.878   3.208 -0.2315 -0.8623 -1.1553
  478MOL0     C65847  12.638   3.841   3.297 -0.0864  0.4644 -0.6030
  478MOL0     C65848  12.616   3.712   3.385 -0.2972 -0.3746  0.0550
  478MOL0     C65849  12.701   3.698   3.509 -0.5195  0.0808  0.4481
  478MOL0     O65850  12.840   3.732   3.479  0.1283 -0.2037  0.2243
  478MOL0     C65851  12.938   3.689   3.557 -0.0553  0.7284  1.1017
  478MOL0     C65852  13.065   3.693   3.498  0.6928  0.4117 -0.0622
  478MOL0     C65853  13.176   3.639   3.561 -0.1611  0.1310  1.2546
  478MOL0     C65854  13.315   3.663   3.495  0.1419 -0.3416 -0.0497
  478MOL0     C65855  13.164   3.577   3.688  0.4118  0.7187 -0.9540
  478MOL0     C65856  13.292   3.542   3.761  0.2699  0.3760  0.7333
  478MOL0     O65857  13.283   3.558   3.899 -1.2622 -0.0053  0.0296
  478MOL0     C65858  13.389   3.523   3.979 -0.8114  0.5388  0.7115
  478MOL0     C65859  13.380   3.408   4.056  0.0703  0.8027  0.1632
  478MOL0     C65860  13.478   3.373   4.152 -0.6916  0.8753  0.3138
  478MOL0     C65861  13.582   3.457   4.180 -0.5148 -0.1452  0.4474
  478MOL0     O65862  13.671   3.443   4.284 -0.7789 -0.1358 -0.0472
  478MOL0     C65863  13.684   3.334   4.375  0.3220 -0.2625 -0.5686
  478MOL0     C65864  13.825   3.267   4.352 -0.1629 -0.2303 -0.8749
  478MOL0     C65865  13.852   3.216   4.216 -0.3994 -1.0783 -0.1297
  478MOL0     C65866  13.974   3.123   4.230  0.1240  0.1123 -0.1551
  478MOL0     C65867  13.980   3.027   4.107 -0.0640 -0.5068 -0.8065
  478MOL0     C65868  14.104   2.946   4.107 -0.9810 -0.4786 -0.4217
  478MOL0     C65869  14.072   2.825   4.014  0.1508 -0.1640 -0.4917
  478MOL0     C65870  14.210   2.760   3.982 -0.4029  0.7686  0.1448
  478MOL0    Cl65871  14.301   2.873   3.878  0.6759  0.0970  0.1017
  478MOL0     C65872  13.596   3.570   4.095 -0.7663 -0.2549 -0.2685
  478MOL0     C65873  13.497   3.603   3.999  0.2207 -0.3930 -0.2615
  478MOL0     O65874  13.391   3.502   3.699  0.0020  0.2979  0.5729
  478MOL0     C65875  13.032   3.558   3.742 -0.8772  0.8434 -0.5407
  478MOL0     C65876  12.924   3.623   3.678  0.1552  1.7182 -0.4819
  478MOL0     N65877  12.408   4.032   3.384  0.7283 -0.1306  0.6932
  478MOL0     N65878  12.296   4.069   3.440  0.1422  1.0320 -0.2371
  478MOL0     C65879  11.083   4.389   3.517 -1.0601  0.7246  0.2383
  478MOL0     C65880  10.983   4.388   3.618  0.1093 -0.1551  0.0480
  478MOL0     C65881  10.642   4.325   3.891  0.6036  0.6635 -0.7276
  478MOL0     C65882  10.572   4.207   3.868 -0.0589 -0.1502 -0.4164
  478MOL0     C65883  10.478   4.154   3.966 -0.7797  0.2393 -0.1654
  478MOL0     C65884  10.463   4.220   4.085  0.7853 -0.3276  0.1615
  478MOL0     O65885  10.386   4.154   4.175  0.0203  0.0812  0.2076
  478MOL0     C65886  10.279   4.225   4.245 -0.0262 -0.0009  1.8201
  478MOL0     C65887  10.167   4.132   4.291 -0.1171  0.4385 -0.6374
  478MOL0     C65888  10.062   4.083   4.177 -0.6132  1.0823  0.2237
  478MOL0     C65889   9.940   4.027   4.253 -0.3820 -0.6349 -0.1858
  478MOL0     C65890   9.970   3.900   4.323 -0.5978 -0.2665 -0.2619
  478MOL0     C65891   9.992   3.788   4.362  0.2929  0.3482 -0.5890
  478MOL0     C65892  10.526   4.337   4.107  0.2194  0.5862 -1.2456
  478MOL0     C65893  10.616   4.388   4.013 -0.6043 -0.5519 -0.2174
  478MOL0     C65894  10.685   4.515   4.062 -0.0857  0.1529 -0.0115
  478MOL0     H65895  10.805   4.121   3.479 -1.2086 -0.3421  0.2985
  478MOL0     H65896  10.976   4.156   3.310  3.3234  0.0730 -1.1562
  478MOL0     H65897  11.316   4.439   3.338 -2.3981  0.4138 -1.3791
  478MOL0     H65898  11.344   4.325   3.208  1.5868  1.4246  0.3289
  478MOL0     H65899  11.354   4.232   3.500  1.4970 -0.8947  0.3379
  478MOL0     H65900  11.357   4.134   3.346  1.0008 -1.1512  0.4701
  478MOL0     H65901  11.554   4.269   3.287 -0.9520 -1.5358  0.0873
  478MOL0     H65902  11.552   4.350   3.446  3.1670 -3.0253  4.2471
  478MOL0     H65903  11.588   4.157   3.566  0.2624 -1.4957  0.8934
  478MOL0     H65904  11.577   4.049   3.428  2.1108 -0.8275  2.0806
  478MOL0     H65905  11.772   4.266   3.507  0.0660 -0.2198  1.2842
  478MOL0     H65906  11.777   4.194   3.339  0.5391 -0.8577  0.6486
  478MOL0     H65907  11.807   4.034   3.597  2.3740  1.8601  1.3846
  478MOL0     H65908  11.787   3.960   3.431  1.1739 -0.1503 -0.7490
  478MOL0     H65909  12.022   4.139   3.508  0.8578  0.7457 -2.3274
  478MOL0     H65910  11.981   4.104   3.341 -1.0108 -0.1525 -0.4327
  478MOL0     H65911  12.065   3.928   3.567 -1.4201  2.8384  1.0290
  478MOL0     H65912  12.013   3.863   3.411  1.0558 -0.6599 -0.2614
  478MOL0     H65913  12.203   3.813   3.252 -1.1688  1.7265 -0.9968
  478MOL0     H65914  12.524   3.955   3.134  1.4050  1.8419  1.8494
  478MOL0     H65915  12.464   3.787   3.162 -1.8713 -2.7832  3.4370
  478MOL0     H65916  12.727   3.820   3.237 -0.0256 -2.6460  0.3499
  478MOL0     H65917  12.673   3.921   3.363  3.5702 -3.5286  3.0119
  478MOL0     H65918  12.511   3.708   3.415 -0.5927  0.1451 -0.8765
  478MOL0     H65919  12.638   3.630   3.317  3.1296  0.2050  0.3100
  478MOL0     H65920  12.668   3.766   3.588 -0.0554 -0.8397  1.4613
  478MOL0     H65921  12.692   3.592   3.533 -0.5309 -0.3430 -1.2936
  478MOL0     H65922  13.074   3.750   3.406 -1.2384  3.7614  1.6196
  478MOL0     H65923  13.378   3.708   3.572  0.8934 -1.6536  0.1407
  478MOL0     H65924  13.311   3.725   3.405  0.8321 -0.3969 -0.1172
  478MOL0     H65925  13.367   3.571   3.468 -1.5008 -1.2850 -0.1713
  478MOL0     H65926  13.294   3.342   4.049  1.9243 -1.5802 -1.3756
  478MOL0     H65927  13.461   3.278   4.201 -0.3739  0.4413 -0.3903
  478MOL0     H65928  13.669   3.371   4.477 -3.7557 -1.1203 -0.6843
  478MOL0     H65929  13.608   3.258   4.355  1.7510 -1.5648 -1.2203
  478MOL0     H65930  13.896   3.349   4.366 -1.8150  0.8686  2.0208
  478MOL0     H65931  13.836   3.190   4.428  0.4503  0.5957 -0.1085
  478MOL0     H65932  13.874   3.295   4.144 -3.0951 -0.4617 -0.3444
  478MOL0     H65933  13.766   3.163   4.175  1.1793 -2.1743 -2.1769
  478MOL0     H65934  13.963   3.065   4.322  1.1291  0.8442  0.4497
  478MOL0     H65935  14.069   3.176   4.238  0.4232 -0.3101 -0.8422
  478MOL0     H65936  13.887   2.969   4.108 -0.2258 -0.2452 -0.4549
  478MOL0     H65937  13.970   3.089   4.018 -2.4781  0.1018 -0.1937
  478MOL0     H65938  14.140   2.911   4.204 -2.4145  0.5521  0.5148
  478MOL0     H65939  14.187   3.007   4.070  1.0342 -4.0749 -2.4083
  478MOL0     H65940  14.020   2.858   3.923  0.3830  0.2814 -0.4652
  478MOL0     H65941  14.011   2.753   4.068  0.7090 -0.8901 -0.8190
  478MOL0     H65942  14.201   2.664   3.929  1.2576  0.5263  0.2354
  478MOL0     H65943  14.268   2.740   4.073 -0.5978 -1.5078 -0.1758
  478MOL0     H65944  13.686   3.629   4.111 -0.2045 -0.6512 -1.8529
  478MOL0     H65945  13.510   3.686   3.930  1.0817 -0.0836  0.2484
  478MOL0     H65946  13.022   3.508   3.838  3.1003  2.5944  1.0255
  478MOL0     H65947  12.827   3.631   3.728  0.1328  2.2684 -0.6037
  478MOL0     H65948  11.157   4.467   3.534  1.0973 -1.0703 -0.3224
  478MOL0     H65949  10.982   4.470   3.688 -1.5838 -0.3094  0.2614
  478MOL0     H65950  10.569   4.154   3.773  2.2595  2.2187 -1.9569
  478MOL0     H65951  10.427   4.060   3.946  0.0871 -0.0254 -1.2135
  478MOL0     H65952  10.331   4.274   4.327 -0.6098  0.5890  1.8410
  478MOL0     H65953  10.242   4.301   4.176 -0.2042 -0.6673  1.1598
  478MOL0     H65954  10.112   4.191   4.366 -2.1384 -2.3054  0.1768
  478MOL0     H65955  10.212   4.053   4.351 -0.6032  0.9342  0.4082
  478MOL0     H65956  10.027   4.163   4.113  0.7054 -1.1280 -3.5600
  478MOL0     H65957  10.113   4.005   4.120 -1.6117 -1.6757  2.8561
  478MOL0     H65958   9.853   4.009   4.190 -3.4308 -0.4976  3.6011
  478MOL0     H65959   9.912   4.102   4.328 -0.6994 -1.8914  1.0037
  478MOL0     H65960  10.025   3.698   4.410  2.2052  0.6724 -1.2131
  478MOL0     H65961  10.506   4.382   4.203  1.1672 -1.9816  0.2618
  478MOL0     H65962  10.790   4.486   4.079 -0.4418  0.1065  2.6274
  478MOL0     H65963  10.683   4.596   3.988 -0.4104 -0.5998 -0.8329
  478MOL0     H65964  10.650   4.543   4.162 -0.9162 -1.6973  0.2455
  479MOL0     O65965  10.623  10.421   4.631  0.3230 -0.3700 -1.0353
  479MOL0     C65966  10.655  10.538   4.612  0.1585 -0.5616 -0.5318
  479MOL0     O65967  10.578  10.644   4.661  0.3715  0.5071 -0.4322
  479MOL0     C65968  10.482  10.628   4.749 -0.5223  0.9387 -0.2519
  479MOL0     C65969  10.361  10.687   4.735 -0.0419  0.4449 -0.2540
  479MOL0     C65970  10.262  10.671   4.822  1.3714  0.1969 -1.0335
  479MOL0     C65971  10.284  10.592   4.937 -0.8323  0.4420  0.7805
  479MOL0     O65972  10.189  10.586   5.034  0.4625  0.2707 -0.7755
  479MOL0     C65973  10.053  10.546   4.988  0.0409 -0.5499  0.4742
  479MOL0     C65974  10.038  10.391   4.955 -0.3053 -0.4685  0.0496
  479MOL0     C65975   9.903  10.355   4.889  1.1963  0.3508 -0.6698
  479MOL0     C65976   9.917  10.219   4.819  0.3303  0.1226  0.1096
  479MOL0     C65977   9.789  10.143   4.778  0.2418 -0.5717 -0.3662
  479MOL0     C65978   9.746  10.171   4.636  0.1665 -1.1776 -0.6079
  479MOL0     C65979   9.613  10.098   4.595 -0.8751  0.6943  0.6704
  479MOL0     C65980   9.642   9.945   4.566 -0.6576  1.0413 -0.5883
  479MOL0     N65981   9.691   9.914   4.438 -0.7413 -0.0972 -0.2813
  479MOL0     C65982   9.811   9.844   4.417  0.0917 -0.1163 -0.7229
  479MOL0     C65983   9.810   9.814   4.283 -0.1631 -0.7712 -0.2666
  479MOL0     C65984   9.933   9.778   4.213 -0.4895 -0.1441 -0.0391
  479MOL0     C65985   9.938   9.631   4.175  0.0690 -0.0249  0.6717
  479MOL0     C65986   9.974   9.533   4.294  0.6666  0.4409  0.4367
  479MOL0     C65987   9.992   9.388   4.238 -0.2994 -0.4032 -0.3787
  479MOL0     O65988   9.881   9.358   4.166 -0.0578  0.2404 -0.2991
  479MOL0     C65989   9.871   9.239   4.100  0.5751  0.3592  0.3434
  479MOL0     C65990   9.750   9.220   4.031 -1.3824 -0.0925 -0.8613
  479MOL0     C65991   9.730   9.097   3.959 -0.3982 -0.8573  0.0861
  479MOL0     C65992   9.606   9.097   3.867  0.2321 -0.2625 -0.2345
  479MOL0     C65993   9.835   9.002   3.956  0.5975 -1.0043 -0.7179
  479MOL0     C65994   9.808   8.871   3.911 -0.4418  0.3671  0.4645
  479MOL0     O65995   9.678   8.824   3.924 -0.8698 -0.4563 -0.5963
  479MOL0     C65996   9.650   8.698   3.875 -0.2073  0.3457 -0.6080
  479MOL0     C65997   9.723   8.585   3.930  0.2799  0.6196  0.3892
  479MOL0     C65998   9.698   8.453   3.897 -0.4655 -0.0848 -0.2499
  479MOL0     C65999   9.606   8.428   3.790 -0.5873 -0.9825  0.0694
  479MOL0     O66000   9.563   8.308   3.750  0.1072  0.0868  0.1185
  479MOL0     C66001   9.598   8.192   3.827  0.3609  0.7043  0.2807
  479MOL0     C66002   9.506   8.082   3.782  0.2707  0.6919 -0.0298
  479MOL0     C66003   9.455   8.081   3.641 -0.1525  0.9335  0.9917
  479MOL0     C66004   9.371   7.962   3.599  0.1149 -0.2463 -0.2504
  479MOL0     C66005   9.326   7.940   3.450  0.0649 -0.1165 -0.0891
  479MOL0     C66006   9.237   7.818   3.446  0.2520  0.1472  0.5123
  479MOL0     C66007   9.169   7.798   3.303  0.5199  0.0004 -0.5903
  479MOL0     C66008   9.256   7.755   3.191 -0.1710 -0.2624 -1.1152
  479MOL0    Cl66009   9.326   7.594   3.233  0.1693 -0.2258 -0.4364
  479MOL0     C66010   9.560   8.543   3.724  1.0774  0.1060 -0.2194
  479MOL0     C66011   9.564   8.675   3.774 -0.7815 -0.4287  0.2665
  479MOL0     O66012   9.898   8.811   3.854 -0.5515 -0.1030 -0.0987
  479MOL0     C66013   9.953   9.020   4.018 -0.4579  0.1844 -0.4798
  479MOL0     C66014   9.974   9.143   4.082  0.2859  0.4049  0.1545
  479MOL0     N66015   9.692   9.866   4.230  0.2981 -0.1472 -0.3696
  479MOL0     N66016   9.620   9.914   4.322 -0.5040  0.1356 -0.3838
  479MOL0     C66017  10.399  10.524   4.951 -0.5336  1.1830 -1.0020
  479MOL0     C66018  10.503  10.542   4.860  0.7607 -0.1502  0.4630
  479MOL0     C66019  10.764  10.573   4.516 -0.3545  0.7588 -0.3639
  479MOL0     C66020  10.846  10.467   4.476  0.1971  0.6148  0.9125
  479MOL0     C66021  10.960  10.484   4.391 -0.1122  0.6407  0.3067
  479MOL0     C66022  10.992  10.604   4.326  0.1636  0.1333  0.2573
  479MOL0     O66023  11.098  10.621   4.239  0.3526  0.0982 -0.8688
  479MOL0     C66024  11.199  10.520   4.225  0.0374  0.5462 -0.5932
  479MOL0     C66025  11.330  10.578   4.181 -0.2820 -0.1839 -0.1037
  479MOL0     C66026  11.389  10.681   4.273 -0.5271 -0.1871 -0.5518
  479MOL0     C66027  11.514  10.738   4.217 -0.6745 -0.6905  0.8549
  479MOL0     C66028  11.628  10.648   4.228 -0.6840  0.5572 -0.4893
  479MOL0     C66029  11.717  10.568   4.258 -0.4248 -0.1619  0.1964
  479MOL0     C66030  10.921  10.715   4.374  0.2227  0.7905  0.2808
  479MOL0     C66031  10.807  10.704   4.468  1.2766  0.5145 -0.1376
  479MOL0     C66032  10.730  10.824   4.513 -0.2872  0.8393 -0.2393
  479MOL0     H66033  10.336  10.755   4.654 -2.1402 -0.2938 -0.2939
  479MOL0     H66034  10.169  10.724   4.812 -0.2630 -1.7051  2.2649
  479MOL0     H66035  10.017  10.602   4.902 -0.9047  3.8201  3.4061
  479MOL0     H66036   9.982  10.566   5.068  0.4449  1.9213  0.2784
  479MOL0     H66037  10.119  10.382   4.882 -1.8433  1.2009 -1.9852
  479MOL0     H66038  10.062  10.337   5.047  0.6096 -0.3931 -0.1347
  479MOL0     H66039   9.833  10.348   4.973  0.1368  1.0283 -1.4641
  479MOL0     H66040   9.864  10.423   4.813 -1.6261 -1.2072 -0.7618
  479MOL0     H66041   9.983  10.216   4.732 -2.2052 -1.6588 -1.8665
  479MOL0     H66042   9.963  10.162   4.901  2.0953  2.0786  0.5672
  479MOL0     H66043   9.716  10.155   4.859  0.7598  1.6628 -0.1773
  479MOL0     H66044   9.820  10.038   4.774  2.0149 -0.1149  0.6388
  479MOL0     H66045   9.751  10.280   4.637  2.6409 -1.2217 -0.8100
  479MOL0     H66046   9.823  10.143   4.563 -2.3451 -1.7731 -3.2026
  479MOL0     H66047   9.574  10.138   4.501 -1.1592 -1.7357 -0.3217
  479MOL0     H66048   9.546  10.109   4.680  0.9513  0.0817  2.2535
  479MOL0     H66049   9.707   9.913   4.648  3.3822  4.5814 -2.0540
  479MOL0     H66050   9.549   9.887   4.573  0.0472 -0.6087 -3.4357
  479MOL0     H66051   9.880   9.828   4.499 -1.5975 -0.2351  0.7257
  479MOL0     H66052  10.019   9.804   4.275  0.2484 -0.2935 -0.9754
  479MOL0     H66053   9.936   9.848   4.129 -1.5654  1.1881  0.9906
  479MOL0     H66054   9.844   9.620   4.119  1.9278 -1.4183 -2.4343
  479MOL0     H66055  10.016   9.619   4.100 -0.6605  0.9697 -0.2709
  479MOL0     H66056  10.068   9.566   4.339  0.3108 -0.6121  2.0597
  479MOL0     H66057   9.897   9.544   4.372  0.6632  2.5858  0.1675
  479MOL0     H66058  10.078   9.394   4.171 -0.3403  5.3691 -0.3691
  479MOL0     H66059  10.012   9.324   4.325 -1.3854  0.5966  0.6425
  479MOL0     H66060   9.680   9.302   4.019 -1.8604 -0.6786 -2.2809
  479MOL0     H66061   9.575   9.201   3.860 -0.9925 -0.4572  1.4613
  479MOL0     H66062   9.521   9.047   3.917  0.0461  0.8143  0.5592
  479MOL0     H66063   9.624   9.039   3.776  1.1359 -2.0940  1.0519
  479MOL0     H66064   9.796   8.607   4.007 -0.5378  3.6419  0.4530
  479MOL0     H66065   9.760   8.374   3.938  3.3462  2.5974 -0.2320
  479MOL0     H66066   9.703   8.168   3.813  0.4367  0.3332  1.3916
  479MOL0     H66067   9.576   8.194   3.934 -1.8216 -2.0431 -0.0096
  479MOL0     H66068   9.573   7.998   3.802  0.8008  0.9828 -0.5670
  479MOL0     H66069   9.421   8.069   3.850 -0.8482  0.5979 -1.4005
  479MOL0     H66070   9.544   8.091   3.579  0.6085 -0.9229  1.7143
  479MOL0     H66071   9.391   8.169   3.629 -1.1222  0.3068  1.3558
  479MOL0     H66072   9.282   7.950   3.661  0.0086 -0.4157 -0.4343
  479MOL0     H66073   9.424   7.870   3.625 -1.0918 -0.6606  0.8262
  479MOL0     H66074   9.267   8.024   3.412  0.5120  0.2989  0.1161
  479MOL0     H66075   9.412   7.932   3.383 -0.7300  1.2842 -1.3260
  479MOL0     H66076   9.157   7.843   3.517  0.3726  2.0845  0.0084
  479MOL0     H66077   9.294   7.726   3.463 -2.5045 -1.4077  2.1468
  479MOL0     H66078   9.120   7.893   3.283 -4.0797 -1.5602  1.8667
  479MOL0     H66079   9.085   7.729   3.308  0.6217 -0.0501  1.0042
  479MOL0     H66080   9.335   7.821   3.152  1.1723 -1.1495  0.0115
  479MOL0     H66081   9.197   7.737   3.100 -1.7479 -0.7408 -0.0230
  479MOL0     H66082   9.487   8.545   3.643 -0.9646  2.8066  1.5264
  479MOL0     H66083   9.509   8.753   3.721 -1.1151  0.5379  1.9471
  479MOL0     H66084  10.022   8.937   4.003  0.8080  0.8557  1.3182
  479MOL0     H66085  10.074   9.169   4.114  0.3566  2.9625 -1.7965
  479MOL0     H66086  10.413  10.455   5.033 -1.4255  0.3051 -1.5568
  479MOL0     H66087  10.593  10.482   4.869 -0.2174 -1.4851  1.7498
  479MOL0     H66088  10.825  10.370   4.520 -2.6578  0.7874  0.1205
  479MOL0     H66089  11.023  10.398   4.370  1.3936  1.7315  0.2381
  479MOL0     H66090  11.218  10.467   4.319 -1.5680  1.7477  0.4783
  479MOL0     H66091  11.173  10.436   4.161 -0.5028  0.7888 -0.7029
  479MOL0     H66092  11.315  10.624   4.083 -0.6230  1.6733  0.7567
  479MOL0     H66093  11.402  10.498   4.165 -0.4930 -1.4056  3.9463
  479MOL0     H66094  11.318  10.763   4.286 -0.3395  0.3899 -2.7132
  479MOL0     H66095  11.401  10.637   4.372  1.0063 -0.8802 -1.0130
  479MOL0     H66096  11.536  10.825   4.280 -0.1743  1.2564 -1.8492
  479MOL0     H66097  11.518  10.771   4.113  0.6814 -3.4035 -0.0677
  479MOL0     H66098  11.790  10.491   4.273 -1.8359 -1.6079 -0.1019
  479MOL0     H66099  10.953  10.811   4.335  0.0605  0.9239  0.4782
  479MOL0     H66100  10.739  10.836   4.621 -0.5140 -3.2173  0.4010
  479MOL0     H66101  10.753  10.912   4.452  2.2261  3.4594  3.9974
  479MOL0     H66102  10.629  10.791   4.486  0.5954 -2.1620 -0.2438
  480MOL0     O66103   2.095   2.691   1.354  0.0753  0.3882  0.1291
  480MOL0     C66104   1.975   2.703   1.367  0.8388 -0.2276  0.2694
  480MOL0     O66105   1.914   2.784   1.454  0.1366  0.0493  0.6158
  480MOL0     C66106   1.998   2.865   1.530 -0.8325  0.3963 -0.8736
  480MOL0     C66107   1.979   3.003   1.517  0.6475 -0.3206  0.1013
  480MOL0     C66108   2.068   3.097   1.592 -0.0957  0.4657  0.1251
  480MOL0     C66109   2.162   3.046   1.680  0.9584  0.3680 -0.7763
  480MOL0     O66110   2.227   3.136   1.759  0.2003  1.4450 -0.5524
  480MOL0     C66111   2.136   3.195   1.852 -0.2290  0.3340  0.3317
  480MOL0     C66112   2.195   3.244   1.983  0.7225  0.2349  0.8248
  480MOL0     C66113   2.321   3.337   1.961  0.0893 -1.0049 -0.4196
  480MOL0     C66114   2.395   3.352   2.099 -0.0270  0.6295  0.4451
  480MOL0     C66115   2.545   3.386   2.074  0.1628  1.1422  0.0406
  480MOL0     C66116   2.622   3.376   2.217 -0.2332  0.0233  1.0213
  480MOL0     C66117   2.766   3.429   2.218  0.0470  0.8301 -0.0082
  480MOL0     C66118   2.769   3.572   2.185  0.3932  0.3649  1.0561
  480MOL0     N66119   2.912   3.617   2.169  0.1401 -0.4340  0.9640
  480MOL0     C66120   2.988   3.577   2.064 -0.1826  0.8486  0.0405
  480MOL0     C66121   3.106   3.639   2.081  0.0153  0.1900  0.6526
  480MOL0     C66122   3.219   3.643   1.985  0.3554 -0.6376  0.4363
  480MOL0     C66123   3.287   3.518   1.941 -1.1585 -0.3189 -0.1148
  480MOL0     C66124   3.398   3.463   2.037  0.4004  0.3275  0.0949
  480MOL0     C66125   3.521   3.548   2.036  0.0053  0.2959  0.6383
  480MOL0     O66126   3.586   3.551   1.901  0.0065  0.5130  0.4160
  480MOL0     C66127   3.707   3.607   1.880  0.2341  0.5453  0.5880
  480MOL0     C66128   3.814   3.591   1.970  0.0015  0.3190 -0.2925
  480MOL0     C66129   3.945   3.653   1.952 -0.2260 -0.7551 -0.8953
  480MOL0     C66130   4.047   3.636   2.064  0.1719  0.5044 -0.0820
  480MOL0     C66131   3.968   3.728   1.840 -0.2737 -1.0528  0.0634
  480MOL0     C66132   4.088   3.809   1.807 -0.8345  0.4386  0.6910
  480MOL0     O66133   4.071   3.902   1.708 -0.5756 -0.3410  0.2801
  480MOL0     C66134   4.183   3.949   1.647  0.3656  0.0448  0.9323
  480MOL0     C66135   4.259   4.054   1.700 -0.0675 -0.4612 -0.3601
  480MOL0     C66136   4.382   4.087   1.644 -0.5395 -0.8822 -0.1861
  480MOL0     C66137   4.437   4.020   1.537 -0.5269 -0.1811 -0.4682
  480MOL0     O66138   4.565   4.039   1.490 -0.1549  0.0782 -0.2624
  480MOL0     C66139   4.628   4.153   1.536  0.1970  0.2611 -0.9729
  480MOL0     C66140   4.771   4.151   1.490 -0.2427 -0.2752 -0.9310
  480MOL0     C66141   4.774   4.209   1.350  1.0860  0.4535  0.1042
  480MOL0     C66142   4.911   4.194   1.277  0.1192 -0.2880  0.6385
  480MOL0     C66143   4.894   4.247   1.135 -0.7215  0.1447 -0.3306
  480MOL0     C66144   5.027   4.260   1.064  0.2746  0.3241  0.0972
  480MOL0     C66145   5.118   4.375   1.120 -0.0743  0.6963  0.4915
  480MOL0     C66146   5.241   4.405   1.031 -0.0742  0.2073 -0.8171
  480MOL0    Cl66147   5.309   4.265   0.957  0.2317 -0.3443 -0.1550
  480MOL0     C66148   4.359   3.920   1.482  0.6404 -0.1312 -0.4137
  480MOL0     C66149   4.237   3.874   1.537  1.0635 -0.6051 -0.1409
  480MOL0     O66150   4.196   3.774   1.850  0.1295  0.0102 -0.1990
  480MOL0     C66151   3.855   3.742   1.749 -0.6185 -0.5753 -0.0369
  480MOL0     C66152   3.734   3.677   1.764  0.1878 -0.0990  1.0930
  480MOL0     N66153   3.098   3.718   2.191 -1.0760  0.2010  0.0454
  480MOL0     N66154   2.986   3.704   2.238  0.4276 -0.1587  0.0079
  480MOL0     C66155   2.177   2.908   1.686  0.2983  0.7377 -0.7286
  480MOL0     C66156   2.098   2.818   1.614  0.0558  0.6570 -0.6631
  480MOL0     C66157   1.871   2.631   1.280 -0.0088  0.4407 -0.0871
  480MOL0     C66158   1.732   2.644   1.302 -0.3120  0.8374  0.2032
  480MOL0     C66159   1.636   2.569   1.230  0.4289 -0.0710 -0.6263
  480MOL0     C66160   1.683   2.462   1.149 -0.0424  0.7115 -0.5820
  480MOL0     O66161   1.603   2.377   1.077 -0.4682  0.8283 -0.5664
  480MOL0     C66162   1.465   2.406   1.058 -0.1730  0.1270  0.2923
  480MOL0     C66163   1.395   2.303   0.961 -0.8883 -0.0442  1.0852
  480MOL0     C66164   1.465   2.296   0.828 -0.0952 -0.6067 -0.2495
  480MOL0     C66165   1.468   2.427   0.748  0.0653  0.9682  1.1622
  480MOL0     C66166   1.338   2.480   0.723 -0.0803  0.8972 -0.0700
  480MOL0     C66167   1.224   2.528   0.698 -0.7132 -0.0394 -0.0650
  480MOL0     C66168   1.820   2.446   1.122  0.2832  0.2298 -0.7318
  480MOL0     C66169   1.916   2.530   1.188 -0.6143 -0.1914 -0.7387
  480MOL0     C66170   2.056   2.465   1.182  0.0541 -0.1662  0.6527
  480MOL0     H66171   1.904   3.041   1.448 -2.8908 -0.9013  3.2702
  480MOL0     H66172   2.071   3.205   1.584 -0.9296  0.6000  1.3367
  480MOL0     H66173   2.054   3.124   1.869 -0.9180  0.8794 -0.6573
  480MOL0     H66174   2.096   3.285   1.804  0.3862  0.6289  0.3695
  480MOL0     H66175   2.117   3.302   2.032 -1.1932  0.3985 -2.1850
  480MOL0     H66176   2.219   3.149   2.032  1.1855 -0.4974 -0.7549
  480MOL0     H66177   2.394   3.284   1.900  2.1087  1.2035 -0.0319
  480MOL0     H66178   2.302   3.438   1.925  0.4785 -1.2141 -1.2356
  480MOL0     H66179   2.340   3.422   2.162 -0.3326 -1.1136  2.2171
  480MOL0     H66180   2.389   3.254   2.148  2.5166 -0.2964 -0.9075
  480MOL0     H66181   2.550   3.489   2.040 -1.5825  1.2319 -0.0206
  480MOL0     H66182   2.583   3.321   1.995  0.1572 -0.5764  1.3876
  480MOL0     H66183   2.573   3.446   2.286  0.3334  0.0815  1.3771
  480MOL0     H66184   2.614   3.277   2.263 -0.4670 -0.2998  0.2884
  480MOL0     H66185   2.822   3.369   2.145 -2.1086 -2.9456  1.1691
  480MOL0     H66186   2.810   3.411   2.317 -2.7929 -2.7688  0.7985
  480MOL0     H66187   2.709   3.596   2.097 -0.3909 -1.3734  1.0681
  480MOL0     H66188   2.739   3.638   2.267  2.0974  3.8134 -0.8918
  480MOL0     H66189   2.962   3.513   1.981  1.6270  1.2392 -0.8964
  480MOL0     H66190   3.286   3.723   2.019  2.2811 -1.0012 -2.1299
  480MOL0     H66191   3.177   3.680   1.891  1.3896 -1.4224 -0.3711
  480MOL0     H66192   3.202   3.449   1.937 -1.8700  0.5788 -0.7891
  480MOL0     H66193   3.341   3.539   1.849  0.6328  0.1898  0.9883
  480MOL0     H66194   3.361   3.452   2.139 -0.5591  2.6845  0.0732
  480MOL0     H66195   3.420   3.369   1.986 -0.0550 -0.2475  0.9497
  480MOL0     H66196   3.499   3.654   2.054 -1.8661  0.2237 -0.8804
  480MOL0     H66197   3.598   3.519   2.108 -0.5950  0.5251  1.3911
  480MOL0     H66198   3.804   3.525   2.056 -2.9817 -2.2969 -2.3974
  480MOL0     H66199   4.121   3.564   2.026  0.0812 -0.6245  1.7782
  480MOL0     H66200   3.991   3.586   2.143  0.2759 -2.7596 -1.8516
  480MOL0     H66201   4.078   3.731   2.107 -2.0372  0.3790  1.9609
  480MOL0     H66202   4.221   4.102   1.790  0.8420  1.2995 -0.8478
  480MOL0     H66203   4.442   4.150   1.709  1.1565 -1.4985 -1.0970
  480MOL0     H66204   4.578   4.247   1.512 -2.3640 -1.4847 -3.0738
  480MOL0     H66205   4.636   4.154   1.645 -2.6408  1.5891 -0.7026
  480MOL0     H66206   4.829   4.218   1.555 -2.4866  0.4987  0.3747
  480MOL0     H66207   4.810   4.049   1.486  0.8969  0.0634  0.6655
  480MOL0     H66208   4.751   4.315   1.365 -0.6633 -0.1765  2.3993
  480MOL0     H66209   4.695   4.169   1.286  1.0849  2.3131 -1.1255
  480MOL0     H66210   4.928   4.086   1.263  1.1638 -0.0708  0.0995
  480MOL0     H66211   4.998   4.228   1.333  1.8801  0.6279 -2.3992
  480MOL0     H66212   4.835   4.178   1.073  0.0462 -0.0296 -0.8865
  480MOL0     H66213   4.828   4.334   1.135 -4.7904 -2.6535  0.7263
  480MOL0     H66214   5.013   4.262   0.956 -0.7572 -1.9246  0.1364
  480MOL0     H66215   5.085   4.170   1.088 -0.7196  0.0071  1.4262
  480MOL0     H66216   5.140   4.367   1.227 -4.0913 -0.9475  1.3726
  480MOL0     H66217   5.056   4.463   1.104  2.8219  2.5256 -1.6297
  480MOL0     H66218   5.320   4.463   1.080 -0.5400  2.5274 -2.6341
  480MOL0     H66219   5.217   4.473   0.948 -0.0863 -0.7368 -1.6079
  480MOL0     H66220   4.403   3.854   1.408  0.3274 -3.5945  2.2248
  480MOL0     H66221   4.197   3.782   1.497  1.6360 -1.9406  2.1624
  480MOL0     H66222   3.869   3.798   1.657 -0.6628 -2.6526 -1.3862
  480MOL0     H66223   3.659   3.709   1.692  1.6680  2.1631  0.4381
  480MOL0     H66224   2.261   2.865   1.740  0.1311 -1.4015 -2.0747
  480MOL0     H66225   2.090   2.711   1.628 -0.8343  0.7999  0.0630
  480MOL0     H66226   1.698   2.712   1.379  0.3876  1.2777  0.1412
  480MOL0     H66227   1.529   2.585   1.236  0.0941 -2.4753  2.3827
  480MOL0     H66228   1.425   2.407   1.160  0.8666  2.6483  0.7424
  480MOL0     H66229   1.470   2.507   1.016  1.3322 -0.6916 -1.6374
  480MOL0     H66230   1.293   2.325   0.927  0.3154 -0.7362 -3.7656
  480MOL0     H66231   1.399   2.202   1.001  3.2596 -1.6057 -2.5760
  480MOL0     H66232   1.569   2.267   0.843  0.9471  2.7180 -0.1587
  480MOL0     H66233   1.408   2.232   0.760 -0.8760 -1.2055  0.9262
  480MOL0     H66234   1.499   2.400   0.647 -2.1006  0.2121  0.6405
  480MOL0     H66235   1.544   2.495   0.789  3.1081 -1.6560  0.2972
  480MOL0     H66236   1.131   2.578   0.687 -1.3795 -1.3501 -0.6506
  480MOL0     H66237   1.855   2.365   1.058  1.5255  1.4740 -1.6838
  480MOL0     H66238   2.089   2.436   1.282 -0.5530 -2.0341  0.3423
  480MOL0     H66239   2.067   2.385   1.109  0.8428  2.1668 -1.9647
  480MOL0     H66240   2.114   2.549   1.141 -0.5390 -0.6938 -1.3917
  481MOL0     O66241   2.890  10.353   2.625  0.5443 -0.1063 -1.1400
  481MOL0     C66242   2.897  10.475   2.616 -0.2317 -0.2170  0.9649
  481MOL0     O66243   3.013  10.538   2.602 -0.6149  0.4691 -0.0613
  481MOL0     C66244   3.128  10.506   2.668 -0.6380  0.1856  0.7587
  481MOL0     C66245   3.158  10.384   2.727  0.5641  0.6281  0.1096
  481MOL0     C66246   3.285  10.356   2.794  1.4759 -0.6379  0.6384
  481MOL0     C66247   3.377  10.471   2.801  0.1904  0.8211  0.2582
  481MOL0     O66248   3.496  10.452   2.865  0.2493  0.5345  0.7006
  481MOL0     C66249   3.486  10.482   3.002 -0.7325 -0.1210 -1.1206
  481MOL0     C66250   3.509  10.631   3.034  0.2382  0.8290  0.6640
  481MOL0     C66251   3.641  10.685   2.991 -0.6065 -0.2441 -0.6880
  481MOL0     C66252   3.683  10.825   3.038 -0.3561  0.0058  0.0204
  481MOL0     C66253   3.825  10.852   3.008 -0.6644 -0.1287  0.2597
  481MOL0     C66254   3.833  10.881   2.857  0.2506  0.0653 -0.2511
  481MOL0     C66255   3.978  10.932   2.808  0.7515  0.2217  0.2353
  481MOL0     C66256   3.966  10.978   2.658  0.7032  0.4096 -0.1162
  481MOL0     N66257   4.103  10.999   2.613  0.4136 -0.2908 -0.2249
  481MOL0     C66258   4.172  10.897   2.559 -0.4224 -0.8821  0.2564
  481MOL0     C66259   4.281  10.963   2.506 -0.3544  0.1184 -0.0195
  481MOL0     C66260   4.401  10.897   2.440  0.0923  0.6162  0.1445
  481MOL0     C66261   4.396  10.913   2.288 -0.4994  0.1314  0.5018
  481MOL0     C66262   4.512  10.832   2.232  0.2759  0.4240 -0.1664
  481MOL0     C66263   4.647  10.890   2.260 -0.2968  0.4162  0.6818
  481MOL0     O66264   4.752  10.805   2.208  0.4635 -0.2005  0.4442
  481MOL0     C66265   4.879  10.809   2.251 -0.0352  0.4611  0.6811
  481MOL0     C66266   4.954  10.693   2.236  0.1447 -0.0351 -0.5208
  481MOL0     C66267   5.073  10.680   2.311  0.5430  0.0849  0.0189
  481MOL0     C66268   5.159  10.558   2.271 -0.4201 -0.3929 -0.0257
  481MOL0     C66269   5.113  10.794   2.401  0.3656  0.3554  0.0233
  481MOL0     C66270   5.229  10.781   2.500  0.4493  0.2359  0.6775
  481MOL0     O66271   5.234  10.874   2.599 -0.4594 -0.6349  0.2660
  481MOL0     C66272   5.338  10.886   2.683 -0.2611  0.5151  0.5232
  481MOL0     C66273   5.383  10.779   2.766 -0.1977 -0.1510  0.1731
  481MOL0     C66274   5.479  10.797   2.866  0.8543 -0.6319 -0.4142
  481MOL0     C66275   5.541  10.922   2.885 -0.7363 -0.4627  0.0257
  481MOL0     O66276   5.643  10.933   2.974 -0.0813 -0.6107 -0.3073
  481MOL0     C66277   5.642  10.880   3.115 -0.9018 -0.3669  0.6619
  481MOL0     C66278   5.766  10.933   3.186  1.0246  0.5097 -0.6640
  481MOL0     C66279   5.794  11.086   3.186 -0.3937 -0.4802  0.1480
  481MOL0     C66280   5.666  11.177   3.188 -0.2137  0.3360  0.1487
  481MOL0     C66281   5.597  11.155   3.324  0.4074  0.2659 -0.9167
  481MOL0     C66282   5.478  11.255   3.318 -0.2339 -0.2237  0.1416
  481MOL0     C66283   5.392  11.228   3.435  0.3479 -0.6968  0.8979
  481MOL0     C66284   5.263  11.306   3.446 -0.5150 -0.5335  0.9016
  481MOL0    Cl66285   5.161  11.266   3.307  0.4487 -0.0333  0.1618
  481MOL0     C66286   5.512  11.016   2.784 -0.5667 -0.3325  0.0292
  481MOL0     C66287   5.413  11.000   2.684  0.0193 -1.4847 -0.3935
  481MOL0     O66288   5.316  10.702   2.483 -0.1432  0.6798 -0.2539
  481MOL0     C66289   5.051  10.912   2.391  0.8244 -0.6501  0.0009
  481MOL0     C66290   4.931  10.918   2.321  1.0943 -0.1004 -0.6444
  481MOL0     N66291   4.271  11.101   2.543  0.2780 -0.2486  0.2468
  481MOL0     N66292   4.169  11.119   2.614  0.2472 -0.6622 -0.1374
  481MOL0     C66293   3.341  10.589   2.740 -0.4006  0.5329  0.5196
  481MOL0     C66294   3.220  10.607   2.692 -0.0875  0.1974  0.1318
  481MOL0     C66295   2.769  10.546   2.599 -0.5268  0.0765  0.0277
  481MOL0     C66296   2.650  10.471   2.600 -0.6380 -0.2398  0.5362
  481MOL0     C66297   2.525  10.530   2.593 -0.4893 -0.3706 -0.0808
  481MOL0     C66298   2.506  10.667   2.576 -0.4312  0.0421  0.5611
  481MOL0     O66299   2.386  10.716   2.539  0.7774  0.0052  0.3000
  481MOL0     C66300   2.392  10.814   2.439 -0.0229 -0.1692 -0.1242
  481MOL0     C66301   2.248  10.857   2.404 -0.4848 -0.2272  0.9103
  481MOL0     C66302   2.210  10.991   2.472  0.6655 -0.1383  1.0444
  481MOL0     C66303   2.295  11.110   2.429 -0.1656  0.1785 -0.6303
  481MOL0     C66304   2.220  11.233   2.455  0.2743  0.7672  0.5956
  481MOL0     C66305   2.171  11.334   2.483 -0.5818  0.3854  0.0672
  481MOL0     C66306   2.623  10.744   2.592  0.5517 -0.0084 -0.0867
  481MOL0     C66307   2.751  10.689   2.604  0.5776  0.2932  0.4569
  481MOL0     C66308   2.846  10.789   2.660  0.0915  0.0242 -0.7980
  481MOL0     H66309   3.098  10.293   2.725  1.2756  0.1295  0.7767
  481MOL0     H66310   3.300  10.259   2.838 -1.1353 -1.3260  0.2050
  481MOL0     H66311   3.566  10.428   3.054 -0.0385  2.6890  0.9963
  481MOL0     H66312   3.392  10.459   3.053  0.5754 -1.6286  0.7722
  481MOL0     H66313   3.423  10.682   2.989 -0.9979 -2.3542 -0.8724
  481MOL0     H66314   3.504  10.642   3.143  1.4327 -1.8037  1.0635
  481MOL0     H66315   3.712  10.607   3.020 -0.2614 -0.6880 -2.6417
  481MOL0     H66316   3.629  10.684   2.883 -2.3843  1.0286 -0.5522
  481MOL0     H66317   3.620  10.902   2.993  0.1100 -0.3922 -1.3777
  481MOL0     H66318   3.676  10.828   3.147 -1.3479 -1.4251  0.0342
  481MOL0     H66319   3.901  10.779   3.037 -0.3326 -0.1144 -0.5487
  481MOL0     H66320   3.846  10.944   3.063 -0.5682 -0.6523  1.1205
  481MOL0     H66321   3.793  10.804   2.791  0.1680 -2.0516  2.0949
  481MOL0     H66322   3.770  10.970   2.857  0.4964  0.2444  0.3869
  481MOL0     H66323   4.049  10.849   2.805 -0.8800 -1.2799  1.1739
  481MOL0     H66324   4.007  11.013   2.875 -0.1237  0.9811 -0.2833
  481MOL0     H66325   3.908  10.910   2.594 -0.6290  0.8391  0.5873
  481MOL0     H66326   3.918  11.076   2.648 -0.2046 -0.0478 -0.4717
  481MOL0     H66327   4.158  10.790   2.561 -0.9270 -0.9333 -2.4523
  481MOL0     H66328   4.410  10.790   2.463  0.5796  0.7176  0.4528
  481MOL0     H66329   4.493  10.941   2.479  1.5789 -2.3077  0.2600
  481MOL0     H66330   4.300  10.887   2.244 -0.0021  0.8215 -1.0771
  481MOL0     H66331   4.424  11.014   2.257 -0.0745 -0.6802 -2.0081
  481MOL0     H66332   4.520  10.733   2.279 -0.9478  1.3675  2.2458
  481MOL0     H66333   4.492  10.814   2.126 -0.2725  2.0356 -0.3621
  481MOL0     H66334   4.655  10.992   2.220 -0.7671  1.1885  2.4660
  481MOL0     H66335   4.661  10.902   2.367 -1.6582 -1.7055  1.1354
  481MOL0     H66336   4.905  10.621   2.172 -1.0310  1.3985 -1.2826
  481MOL0     H66337   5.129  10.516   2.174 -0.3892  0.5065 -0.4379
  481MOL0     H66338   5.152  10.477   2.344 -0.2527 -2.7698 -2.4692
  481MOL0     H66339   5.265  10.587   2.272 -0.9889  1.8660  1.6247
  481MOL0     H66340   5.342  10.678   2.755 -2.5762  0.7543  0.1152
  481MOL0     H66341   5.501  10.706   2.920 -2.2653 -0.5802  1.1340
  481MOL0     H66342   5.554  10.910   3.173 -0.8730 -3.9229  2.8097
  481MOL0     H66343   5.648  10.772   3.099  1.2843  0.1135 -2.9554
  481MOL0     H66344   5.740  10.901   3.288  0.2669 -2.2292 -1.6284
  481MOL0     H66345   5.845  10.871   3.144  1.5611 -0.0106  1.0214
  481MOL0     H66346   5.839  11.105   3.088 -2.0592 -4.5286 -1.6357
  481MOL0     H66347   5.871  11.115   3.258 -1.1645  0.0644  0.7738
  481MOL0     H66348   5.606  11.160   3.098 -0.9671 -2.7819  1.0991
  481MOL0     H66349   5.697  11.282   3.183 -1.4201  0.7041  0.0878
  481MOL0     H66350   5.549  11.057   3.333  0.5306  0.2106 -0.8521
  481MOL0     H66351   5.666  11.172   3.407  2.3755  2.0210 -2.8020
  481MOL0     H66352   5.424  11.241   3.224 -0.9050  3.4681 -0.2062
  481MOL0     H66353   5.504  11.362   3.321 -2.0834  0.2271  2.5009
  481MOL0     H66354   5.457  11.236   3.522 -0.3301 -0.2749  1.3750
  481MOL0     H66355   5.367  11.122   3.432  2.8563 -1.3731  1.7435
  481MOL0     H66356   5.275  11.415   3.439  0.1355 -0.5854  1.1451
  481MOL0     H66357   5.213  11.274   3.538 -0.0419 -2.0146  0.6753
  481MOL0     H66358   5.550  11.117   2.794  3.6574 -1.9360  3.4731
  481MOL0     H66359   5.390  11.074   2.608  4.1214 -1.0488 -1.4375
  481MOL0     H66360   5.085  11.001   2.443 -2.6608  1.7795 -1.5162
  481MOL0     H66361   4.875  11.011   2.330  1.0099 -0.1635 -0.5093
  481MOL0     H66362   3.411  10.672   2.740  5.1712 -3.5267  2.9758
  481MOL0     H66363   3.193  10.704   2.652 -0.6769  0.2815  0.7135
  481MOL0     H66364   2.650  10.363   2.609 -3.6555 -0.1500  4.1372
  481MOL0     H66365   2.436  10.470   2.577 -1.8119  1.6256 -0.6421
  481MOL0     H66366   2.440  10.908   2.467  0.3493  0.3221 -2.2688
  481MOL0     H66367   2.459  10.780   2.360 -0.1512 -2.4696  0.6886
  481MOL0     H66368   2.183  10.770   2.413  1.2079 -1.5700  0.8217
  481MOL0     H66369   2.248  10.880   2.297 -2.2121 -1.7510  0.5412
  481MOL0     H66370   2.106  11.013   2.446 -0.0474 -0.9219  3.0598
  481MOL0     H66371   2.221  10.971   2.579  2.0849  2.6891  1.5258
  481MOL0     H66372   2.312  11.107   2.321 -0.6527  2.5028 -0.8268
  481MOL0     H66373   2.391  11.101   2.480 -0.1320 -3.6918 -1.1232
  481MOL0     H66374   2.115  11.421   2.510 -1.5250  1.0220 -3.3437
  481MOL0     H66375   2.610  10.852   2.594 -0.3483  0.1697 -4.6652
  481MOL0     H66376   2.864  10.757   2.763 -0.2167  0.5222 -0.5865
  481MOL0     H66377   2.943  10.799   2.610 -1.4645  4.7738 -3.4585
  481MOL0     H66378   2.808  10.891   2.666 -0.3092 -0.2155  2.4465
  482MOL0     O66379   1.610   9.284   1.132  0.3184  0.3785  0.7072
  482MOL0     C66380   1.568   9.268   1.247  0.5099  0.4165  0.8866
  482MOL0     O66381   1.641   9.260   1.357 -0.0451  0.1266 -0.1301
  482MOL0     C66382   1.777   9.257   1.370  0.3255  0.1469  1.1609
  482MOL0     C66383   1.853   9.200   1.270 -0.0060 -0.1647 -0.3740
  482MOL0     C66384   1.986   9.188   1.285  0.0381  0.0751 -0.9727
  482MOL0     C66385   2.060   9.246   1.392  0.1921  0.1814 -0.3633
  482MOL0     O66386   2.195   9.233   1.386  0.1883 -1.0647 -0.8936
  482MOL0     C66387   2.276   9.326   1.458 -0.3512 -0.7079  0.2710
  482MOL0     C66388   2.420   9.278   1.444  0.1377 -0.4995 -0.2166
  482MOL0     C66389   2.520   9.396   1.479  0.3400 -0.2464  0.7727
  482MOL0     C66390   2.672   9.349   1.483 -0.2903 -0.2080  0.4668
  482MOL0     C66391   2.770   9.460   1.504 -0.5706  0.1184 -0.2242
  482MOL0     C66392   2.914   9.413   1.545 -0.0702 -0.5817 -0.2488
  482MOL0     C66393   2.980   9.335   1.429 -0.3454 -0.2996  0.7621
  482MOL0     C66394   3.117   9.280   1.469 -0.2001  0.4094  0.2394
  482MOL0     N66395   3.218   9.391   1.486 -0.4416 -0.0440 -0.0554
  482MOL0     C66396   3.216   9.508   1.405 -0.1551 -0.9782  0.4357
  482MOL0     C66397   3.324   9.577   1.454 -0.0315  0.1423 -0.3196
  482MOL0     C66398   3.370   9.708   1.412  0.0119  0.0671 -0.6053
  482MOL0     C66399   3.422   9.727   1.269 -0.3721 -0.1082 -0.4712
  482MOL0     C66400   3.557   9.639   1.234 -0.0046  0.3554 -0.4613
  482MOL0     C66401   3.684   9.696   1.297  0.3748 -0.6357 -0.7837
  482MOL0     O66402   3.722   9.824   1.265  0.2573 -0.3222  0.2614
  482MOL0     C66403   3.814   9.839   1.166  0.3035  0.7000  0.7797
  482MOL0     C66404   3.946   9.815   1.195 -1.2280  0.1255  0.2674
  482MOL0     C66405   4.053   9.836   1.096 -0.4202  0.4048  0.3323
  482MOL0     C66406   4.185   9.764   1.120  0.0860  0.4821 -0.3979
  482MOL0     C66407   4.019   9.884   0.961 -0.1993 -0.2547  0.4202
  482MOL0     C66408   4.122   9.897   0.858  0.2844 -0.5674 -0.3759
  482MOL0     O66409   4.083   9.894   0.730  0.2162 -0.8879 -0.5006
  482MOL0     C66410   4.187   9.864   0.639 -0.2617 -1.0735  0.3861
  482MOL0     C66411   4.184   9.741   0.571  0.0946  0.3791  0.2046
  482MOL0     C66412   4.274   9.714   0.472  0.6758 -0.4495 -0.1263
  482MOL0     C66413   4.378   9.803   0.435 -0.2202 -0.4556  0.1404
  482MOL0     O66414   4.470   9.787   0.330  0.2863 -0.3671  0.3426
  482MOL0     C66415   4.515   9.654   0.297 -0.2186 -0.2145 -0.4427
  482MOL0     C66416   4.667   9.618   0.303 -0.5369 -0.3593 -1.0890
  482MOL0     C66417   4.737   9.661   0.434 -0.2952  0.1587  0.1152
  482MOL0     C66418   4.683   9.564   0.550 -0.4144  0.1817 -0.2484
  482MOL0     C66419   4.739   9.608   0.687  0.8416 -0.0036 -0.2896
  482MOL0     C66420   4.667   9.733   0.733 -0.1148 -1.2829 -0.0734
  482MOL0     C66421   4.693   9.765   0.880  0.1348  0.6368 -1.2591
  482MOL0     C66422   4.566   9.815   0.954 -0.9487  0.0963 -0.7132
  482MOL0    Cl66423   4.592   9.848   1.135 -0.0352 -0.0498 -0.0747
  482MOL0     C66424   4.384   9.924   0.503  0.0951 -0.1783  0.1616
  482MOL0     C66425   4.286   9.950   0.608 -0.6697  0.6980  0.3980
  482MOL0     O66426   4.234   9.907   0.893 -0.5158 -0.2314 -0.2722
  482MOL0     C66427   3.884   9.912   0.945 -0.3449 -0.6827  0.3655
  482MOL0     C66428   3.786   9.897   1.038  0.3614  0.2488 -1.1213
  482MOL0     N66429   3.388   9.500   1.554 -0.0746  0.1118  0.3275
  482MOL0     N66430   3.321   9.395   1.565 -0.3642  0.7882 -0.1200
  482MOL0     C66431   1.981   9.307   1.493 -0.1098  0.2184  0.5596
  482MOL0     C66432   1.839   9.306   1.486  0.2541  0.0391 -0.0929
  482MOL0     C66433   1.423   9.253   1.275  0.2511 -1.3978  0.3293
  482MOL0     C66434   1.390   9.205   1.407  1.0148 -0.7291 -0.1322
  482MOL0     C66435   1.258   9.162   1.431 -0.0695 -0.3382  0.0203
  482MOL0     C66436   1.159   9.174   1.333  0.4118  0.4740 -0.2518
  482MOL0     O66437   1.037   9.116   1.363  0.6488  0.3244 -0.0749
  482MOL0     C66438   0.938   9.112   1.261  0.4630  0.3077 -0.3496
  482MOL0     C66439   0.809   9.032   1.307  0.6056 -0.4958  0.8302
  482MOL0     C66440   0.689   9.035   1.209 -0.7121  0.0071  0.8109
  482MOL0     C66441   0.589   8.919   1.228  0.4121  0.4371  0.3943
  482MOL0     C66442   0.496   8.940   1.343 -0.1797  1.2538  0.0710
  482MOL0     C66443   0.423   8.930   1.439  0.3255 -0.8488 -0.6748
  482MOL0     C66444   1.193   9.230   1.209 -1.0015 -0.3523  0.7954
  482MOL0     C66445   1.321   9.275   1.180 -0.9622 -0.1778 -0.1893
  482MOL0     C66446   1.355   9.338   1.043 -0.0382  0.0715  0.1658
  482MOL0     H66447   1.805   9.152   1.184  0.6642 -0.7419 -0.4362
  482MOL0     H66448   2.050   9.142   1.210 -1.1141  0.3151 -2.1390
  482MOL0     H66449   2.245   9.329   1.562  1.7671  0.5114  0.9397
  482MOL0     H66450   2.260   9.423   1.409  1.9661  0.2792  1.3168
  482MOL0     H66451   2.442   9.196   1.512  1.7127  1.0280  1.1859
  482MOL0     H66452   2.441   9.245   1.341 -0.7199 -1.7712 -0.0065
  482MOL0     H66453   2.515   9.473   1.401  0.2759 -0.4353  0.5872
  482MOL0     H66454   2.496   9.441   1.575 -0.3215  0.0245  0.4872
  482MOL0     H66455   2.683   9.268   1.556 -3.3132 -1.4569 -0.2979
  482MOL0     H66456   2.695   9.299   1.389  0.2730  2.0297 -0.6462
  482MOL0     H66457   2.728   9.535   1.572  0.0044 -2.3821  3.2003
  482MOL0     H66458   2.781   9.504   1.405  3.2661 -3.4613 -1.6965
  482MOL0     H66459   2.978   9.499   1.564  0.6777 -1.2037  0.1099
  482MOL0     H66460   2.906   9.349   1.634  0.8116 -2.0027 -1.1516
  482MOL0     H66461   2.988   9.400   1.341  0.5380  2.8637  2.9673
  482MOL0     H66462   2.915   9.249   1.414  1.0658 -1.2695  0.0562
  482MOL0     H66463   3.108   9.227   1.564 -1.1475  0.8222  0.3888
  482MOL0     H66464   3.156   9.217   1.388 -0.2973 -1.4483  1.5936
  482MOL0     H66465   3.157   9.538   1.318  3.5171  1.8759 -1.3268
  482MOL0     H66466   3.440   9.747   1.487  1.1327  0.2050 -1.7007
  482MOL0     H66467   3.279   9.768   1.423 -0.5479 -1.1084  1.9965
  482MOL0     H66468   3.346   9.700   1.195 -0.7996  1.3391 -0.5937
  482MOL0     H66469   3.441   9.834   1.251 -0.3653 -0.2465 -1.2972
  482MOL0     H66470   3.541   9.539   1.274  1.3146  0.5910  0.7775
  482MOL0     H66471   3.577   9.639   1.127 -0.9476  0.2178 -0.6464
  482MOL0     H66472   3.672   9.703   1.406  0.9911 -2.0172 -0.5954
  482MOL0     H66473   3.773   9.633   1.283  0.6665 -0.7138  1.0881
  482MOL0     H66474   3.973   9.764   1.287  0.2513  0.1453 -0.1328
  482MOL0     H66475   4.255   9.846   1.139  1.0778 -0.0833 -1.5023
  482MOL0     H66476   4.220   9.720   1.027  3.0830  1.9939 -0.1237
  482MOL0     H66477   4.183   9.688   1.198 -4.2002  2.3979  1.7366
  482MOL0     H66478   4.101   9.675   0.593 -0.2596  0.6857 -0.1981
  482MOL0     H66479   4.269   9.625   0.410 -0.2131 -0.0057 -0.7199
  482MOL0     H66480   4.465   9.576   0.356  0.0958  1.1445  1.7685
  482MOL0     H66481   4.488   9.627   0.195  0.1092  0.8491 -0.8272
  482MOL0     H66482   4.689   9.512   0.291 -0.9503 -0.2430 -3.3616
  482MOL0     H66483   4.723   9.672   0.226  0.7734  0.5974  0.4661
  482MOL0     H66484   4.720   9.769   0.430  3.0873  0.8380  0.5911
  482MOL0     H66485   4.845   9.645   0.433 -0.4138 -0.7290 -0.5049
  482MOL0     H66486   4.718   9.461   0.536  1.5232  1.1270 -3.3426
  482MOL0     H66487   4.574   9.565   0.554 -0.5087 -0.7713 -1.8121
  482MOL0     H66488   4.728   9.535   0.769 -2.2414  1.6647  0.9628
  482MOL0     H66489   4.843   9.641   0.683  1.2194 -0.8910  1.3164
  482MOL0     H66490   4.559   9.722   0.723 -0.3462 -1.1076  1.8681
  482MOL0     H66491   4.697   9.809   0.660  2.3010 -0.2652  1.8433
  482MOL0     H66492   4.776   9.836   0.881 -0.8911  1.9860  2.5868
  482MOL0     H66493   4.726   9.674   0.931 -2.5719 -0.1344 -0.7223
  482MOL0     H66494   4.483   9.746   0.942 -1.3031  0.5469 -0.8847
  482MOL0     H66495   4.541   9.917   0.923  2.4329  1.4265  0.4086
  482MOL0     H66496   4.464   9.987   0.466 -1.7547  2.5048  0.4714
  482MOL0     H66497   4.288  10.039   0.671  1.1272 -0.0566  1.4617
  482MOL0     H66498   3.847   9.946   0.849  2.8139 -0.4169 -0.8489
  482MOL0     H66499   3.684   9.918   1.009  0.6463  0.5317 -1.9629
  482MOL0     H66500   2.027   9.359   1.577 -2.4266  0.3597  1.8216
  482MOL0     H66501   1.773   9.344   1.563  0.9189 -2.0544  1.6178
  482MOL0     H66502   1.462   9.190   1.486  0.2476 -2.0514  0.3499
  482MOL0     H66503   1.232   9.111   1.523 -1.0138 -0.5541 -0.3527
  482MOL0     H66504   0.896   9.211   1.241 -0.3360 -0.0215 -0.3643
  482MOL0     H66505   0.973   9.058   1.173  2.4055  0.2185  0.4301
  482MOL0     H66506   0.776   9.076   1.401 -2.0819  0.3787 -0.4308
  482MOL0     H66507   0.836   8.927   1.324  0.4666 -1.1076 -2.0519
  482MOL0     H66508   0.644   9.134   1.211  0.4196  0.6087 -0.7925
  482MOL0     H66509   0.745   9.029   1.115 -1.4738 -1.1392  0.4102
  482MOL0     H66510   0.648   8.828   1.240  3.2291  1.8801 -1.2830
  482MOL0     H66511   0.526   8.913   1.139  1.6684  1.9441 -0.6527
  482MOL0     H66512   0.350   8.927   1.517  0.9590  1.4039  0.0993
  482MOL0     H66513   1.103   9.241   1.149 -0.8325  0.4004  0.6666
  482MOL0     H66514   1.257   9.361   1.000 -0.5932 -0.9220  0.8494
  482MOL0     H66515   1.414   9.429   1.052 -1.7063  1.7065 -3.6594
  482MOL0     H66516   1.407   9.261   0.985  1.3219 -0.0851  1.5273
  483MOL0     O66517   6.768   7.671   0.586 -0.3864 -0.9041  0.3258
  483MOL0     C66518   6.716   7.639   0.484  0.4260  0.3099 -0.4075
  483MOL0     O66519   6.726   7.515   0.420  0.0750  0.8077 -0.1313
  483MOL0     C66520   6.798   7.412   0.482 -0.6971  0.3669 -0.4539
  483MOL0     C66521   6.884   7.339   0.391 -0.4547 -0.4906  0.0705
  483MOL0     C66522   6.950   7.222   0.442  0.6405 -0.1813 -0.4955
  483MOL0     C66523   6.938   7.190   0.574 -0.2632  0.5678 -0.3400
  483MOL0     O66524   6.992   7.078   0.639  0.0004 -0.0760  0.2337
  483MOL0     C66525   7.086   6.997   0.569  0.9160 -0.4041 -0.4994
  483MOL0     C66526   7.202   6.962   0.661  0.2548 -0.6449  0.1329
  483MOL0     C66527   7.166   6.878   0.787 -0.2556  0.6572 -0.0436
  483MOL0     C66528   7.116   6.741   0.751  0.2307  0.1525  0.4460
  483MOL0     C66529   7.076   6.674   0.882 -0.2848  0.1882  0.2015
  483MOL0     C66530   6.971   6.563   0.859 -0.3173  0.6983 -0.6441
  483MOL0     C66531   6.948   6.469   0.978 -0.1350  0.5194  0.4737
  483MOL0     C66532   7.058   6.365   1.005 -0.5065 -0.9888 -0.5660
  483MOL0     N66533   7.065   6.265   0.904  0.0627  0.4329  0.5906
  483MOL0     C66534   6.981   6.159   0.893 -1.0089  0.1719 -0.4676
  483MOL0     C66535   7.042   6.092   0.791 -0.4147  0.3482  0.9195
  483MOL0     C66536   6.991   5.964   0.728  0.4456  0.7423 -0.3622
  483MOL0     C66537   6.839   5.941   0.746 -0.2012 -0.2077  0.2269
  483MOL0     C66538   6.790   5.834   0.642 -0.1162 -0.5670  0.1036
  483MOL0     C66539   6.648   5.783   0.676 -0.8121 -0.3994  0.3730
  483MOL0     O66540   6.564   5.891   0.643  0.4196  1.3704  0.2415
  483MOL0     C66541   6.438   5.856   0.593  0.8581  0.5527  1.2596
  483MOL0     C66542   6.366   5.947   0.514 -1.3810  0.4351  0.8021
  483MOL0     C66543   6.262   5.908   0.431 -0.0980 -0.0083  0.2398
  483MOL0     C66544   6.210   6.012   0.339  0.2239  0.5832  0.2229
  483MOL0     C66545   6.204   5.783   0.450  0.4941  0.2693 -0.0100
  483MOL0     C66546   6.068   5.748   0.397  0.3506  0.0716 -0.4728
  483MOL0     O66547   6.013   5.644   0.458 -0.0869 -0.4152  0.5217
  483MOL0     C66548   5.893   5.605   0.398 -0.3439  0.0572 -0.3749
  483MOL0     C66549   5.781   5.633   0.480  0.6137  0.3652 -0.1238
  483MOL0     C66550   5.664   5.579   0.427 -0.0204 -0.8056 -0.6553
  483MOL0     C66551   5.658   5.505   0.306 -0.3550  0.1477  0.6627
  483MOL0     O66552   5.529   5.452   0.274 -0.0639 -0.4980  0.0519
  483MOL0     C66553   5.425   5.551   0.285 -0.1497  0.4430 -0.4996
  483MOL0     C66554   5.337   5.564   0.160 -0.1447 -0.2679 -0.4087
  483MOL0     C66555   5.209   5.647   0.187 -0.4896 -0.4220 -0.1381
  483MOL0     C66556   5.243   5.793   0.224  0.1274 -0.0786  0.0307
  483MOL0     C66557   5.116   5.875   0.190  0.5762  0.1703 -0.1305
  483MOL0     C66558   5.090   5.914   0.042  0.8277  1.3169 -0.7323
  483MOL0     C66559   5.180   6.029  -0.000 -0.1067  0.3388  0.6596
  483MOL0     C66560   5.142   6.079  -0.142 -0.2556  1.0688 -0.6647
  483MOL0    Cl66561   5.130   5.940  -0.265 -0.2730  0.3331 -0.0010
  483MOL0     C66562   5.772   5.484   0.231 -0.8040 -0.3013  0.3877
  483MOL0     C66563   5.894   5.536   0.273  0.9945 -0.4667  0.9647
  483MOL0     O66564   6.027   5.807   0.291 -0.0804  1.2360 -0.1231
  483MOL0     C66565   6.266   5.697   0.540 -0.0283  0.0784  0.3126
  483MOL0     C66566   6.377   5.736   0.619  0.5487  1.1762  0.2473
  483MOL0     N66567   7.163   6.154   0.751 -0.3394  0.6846  0.2235
  483MOL0     N66568   7.181   6.257   0.825  0.1426 -0.1846  0.1434
  483MOL0     C66569   6.857   7.261   0.658 -0.2251 -0.8254 -1.0353
  483MOL0     C66570   6.792   7.376   0.618  0.1238  0.4959 -0.3905
  483MOL0     C66571   6.639   7.742   0.413 -0.7067  1.2334  0.5829
  483MOL0     C66572   6.686   7.817   0.311  0.1556  0.3738 -0.4798
  483MOL0     C66573   6.610   7.922   0.258  0.3902 -0.1103 -0.1347
  483MOL0     C66574   6.476   7.941   0.295 -1.1461  0.1280  0.2173
  483MOL0     O66575   6.394   8.041   0.250  0.0513  1.0551 -0.4970
  483MOL0     C66576   6.429   8.161   0.313 -0.0565  0.9938 -0.4897
  483MOL0     C66577   6.325   8.271   0.313 -0.6388  0.6733 -0.6690
  483MOL0     C66578   6.380   8.404   0.369 -0.0650 -0.0337  0.4461
  483MOL0     C66579   6.270   8.508   0.380 -0.3345 -0.0951  0.7140
  483MOL0     C66580   6.309   8.624   0.458  0.2649 -0.9924 -0.4728
  483MOL0     C66581   6.321   8.704   0.544  0.9753 -0.4879 -0.6464
  483MOL0     C66582   6.431   7.864   0.404  0.4883  1.2538  0.2766
  483MOL0     C66583   6.506   7.770   0.469 -0.5577  0.6151  0.6042
  483MOL0     C66584   6.463   7.711   0.592 -0.3531 -0.0069 -0.2523
  483MOL0     H66585   6.875   7.381   0.291 -0.5567  0.4364  0.4616
  483MOL0     H66586   6.994   7.164   0.362 -0.9255 -1.3330 -0.5706
  483MOL0     H66587   7.119   7.039   0.474 -1.2912  2.8901  0.0297
  483MOL0     H66588   7.039   6.902   0.544  0.4778 -0.3207 -0.0225
  483MOL0     H66589   7.283   6.903   0.617  0.1097  0.0548 -1.1143
  483MOL0     H66590   7.254   7.056   0.682  1.8570 -1.3261 -0.6752
  483MOL0     H66591   7.259   6.866   0.845 -0.5575 -0.4570  0.2351
  483MOL0     H66592   7.098   6.937   0.849 -0.2424  1.9610 -1.2235
  483MOL0     H66593   7.026   6.752   0.690  0.5732  0.6005  0.0141
  483MOL0     H66594   7.189   6.676   0.703 -3.5539 -3.3176 -1.1855
  483MOL0     H66595   7.042   6.754   0.948 -1.5230  1.0285 -1.3789
  483MOL0     H66596   7.165   6.627   0.925 -1.9881 -3.0506  0.5245
  483MOL0     H66597   6.872   6.604   0.837 -0.3270  0.9624 -0.1096
  483MOL0     H66598   7.014   6.500   0.780 -1.9589 -2.4540  0.7925
  483MOL0     H66599   6.855   6.412   0.969  1.3771 -1.6745 -3.4536
  483MOL0     H66600   6.932   6.538   1.062 -1.4273 -0.6124  1.1934
  483MOL0     H66601   7.155   6.413   1.015 -1.7440  1.4172  0.8146
  483MOL0     H66602   7.043   6.308   1.097  2.9575  1.0844  1.4839
  483MOL0     H66603   6.893   6.128   0.948 -2.5621  1.1035 -2.3079
  483MOL0     H66604   7.047   5.878   0.766 -0.1878  0.2904 -0.4318
  483MOL0     H66605   7.007   5.960   0.619 -0.5644  1.1852 -0.5469
  483MOL0     H66606   6.826   5.899   0.846 -4.0592  0.4597  0.1888
  483MOL0     H66607   6.779   6.033   0.739 -0.2522 -0.3033 -0.8207
  483MOL0     H66608   6.794   5.881   0.543  3.6186 -2.6182 -0.9001
  483MOL0     H66609   6.864   5.754   0.638 -0.5075 -1.1305  2.5262
  483MOL0     H66610   6.633   5.693   0.616 -0.5166  0.5331 -1.1484
  483MOL0     H66611   6.638   5.767   0.784  1.1720 -0.5661  0.5698
  483MOL0     H66612   6.413   6.044   0.500 -0.3676  0.0333  1.2943
  483MOL0     H66613   6.111   6.052   0.365 -1.1872 -1.4250 -1.6854
  483MOL0     H66614   6.205   5.978   0.235  4.6167 -0.2859  0.0882
  483MOL0     H66615   6.268   6.104   0.349 -0.2766  1.1040 -1.3400
  483MOL0     H66616   5.787   5.688   0.573  1.9810 -2.2199  1.4077
  483MOL0     H66617   5.577   5.590   0.491  2.1327 -0.6440  2.4599
  483MOL0     H66618   5.355   5.520   0.362 -1.0116  3.8975  0.3035
  483MOL0     H66619   5.457   5.653   0.308  2.3394 -0.6846  1.4609
  483MOL0     H66620   5.404   5.618   0.093  2.9930 -0.4592  2.3095
  483MOL0     H66621   5.315   5.463   0.125 -0.5099  0.2826 -1.8403
  483MOL0     H66622   5.155   5.589   0.262 -1.9809  0.0442 -0.8186
  483MOL0     H66623   5.148   5.644   0.096 -0.5473  3.0666 -0.3488
  483MOL0     H66624   5.322   5.828   0.157  1.3943  0.1691  1.5839
  483MOL0     H66625   5.271   5.798   0.330 -1.6890 -2.7019  0.7194
  483MOL0     H66626   5.021   5.829   0.220  0.3382  0.1303 -0.9268
  483MOL0     H66627   5.135   5.970   0.242  2.7733 -0.0107 -0.5197
  483MOL0     H66628   4.981   5.925   0.044  0.1744 -3.2094 -0.6908
  483MOL0     H66629   5.115   5.820  -0.007  2.1095  0.3087  1.6595
  483MOL0     H66630   5.282   5.991  -0.008  0.2341  1.0342  1.5527
  483MOL0     H66631   5.178   6.116   0.067 -3.2208 -1.0428  2.5608
  483MOL0     H66632   5.219   6.148  -0.177  1.5600 -0.9018 -0.8410
  483MOL0     H66633   5.046   6.131  -0.144  1.3383  4.3423  0.8812
  483MOL0     H66634   5.788   5.424   0.143 -0.9419 -2.3337  1.6724
  483MOL0     H66635   5.983   5.516   0.214 -0.1048  0.5151 -1.1163
  483MOL0     H66636   6.226   5.598   0.559  1.3681 -0.7596 -0.9279
  483MOL0     H66637   6.409   5.661   0.690 -2.0108  0.4577  0.7347
  483MOL0     H66638   6.838   7.222   0.757 -1.5326 -1.2710 -1.4395
  483MOL0     H66639   6.737   7.423   0.699  0.9131 -0.9909  1.0563
  483MOL0     H66640   6.785   7.795   0.272  0.7525 -0.4860  1.3999
  483MOL0     H66641   6.654   7.991   0.187  3.8204 -1.3166  0.5859
  483MOL0     H66642   6.454   8.139   0.417  3.6600 -0.0152 -1.4519
  483MOL0     H66643   6.524   8.200   0.275 -0.1302  2.2063  0.4866
  483MOL0     H66644   6.247   8.245   0.385  0.9146  2.1072  1.6645
  483MOL0     H66645   6.282   8.286   0.213 -0.3384  0.5126 -0.8230
  483MOL0     H66646   6.421   8.393   0.469  0.9984 -0.0808  0.0196
  483MOL0     H66647   6.453   8.446   0.299 -0.0292 -0.4501  0.2304
  483MOL0     H66648   6.184   8.459   0.428 -0.1874  0.1634  1.2545
  483MOL0     H66649   6.245   8.543   0.280 -1.9189 -0.5419  0.9225
  483MOL0     H66650   6.326   8.785   0.615 -0.4864  1.5684 -2.7491
  483MOL0     H66651   6.324   7.879   0.415  0.3173 -0.9198  2.5544
  483MOL0     H66652   6.370   7.764   0.619 -0.7804 -0.2795 -1.1541
  483MOL0     H66653   6.435   7.608   0.570  1.2790  0.0663 -3.2334
  483MOL0     H66654   6.534   7.720   0.675  3.2729 -0.9085 -3.0209
  484MOL0     O66655   7.381   4.714   7.431 -0.1476 -0.0513 -0.1971
  484MOL0     C66656   7.451   4.746   7.337  0.9834  0.3526  0.0685
  484MOL0     O66657   7.398   4.803   7.220 -0.5139  0.7140 -0.0002
  484MOL0     C66658   7.488   4.845   7.118 -0.6717  0.3061 -0.1560
  484MOL0     C66659   7.609   4.779   7.080 -0.4298 -0.7192  0.0409
  484MOL0     C66660   7.693   4.842   6.982  0.0338 -0.3672 -0.7234
  484MOL0     C66661   7.655   4.964   6.918  0.2348 -0.7404 -0.2434
  484MOL0     O66662   7.745   5.021   6.847  0.1331 -0.3657 -0.5195
  484MOL0     C66663   7.692   5.123   6.761  0.1857 -0.2684  0.1057
  484MOL0     C66664   7.803   5.162   6.671 -0.1450  0.0021  0.1150
  484MOL0     C66665   7.918   5.243   6.739 -1.2468  0.8242  0.1874
  484MOL0     C66666   7.980   5.339   6.632 -0.7439 -0.0191  0.0932
  484MOL0     C66667   8.109   5.405   6.683 -0.0482 -0.3877  0.0806
  484MOL0     C66668   8.179   5.491   6.573 -0.0282 -0.1035 -0.2835
  484MOL0     C66669   8.270   5.406   6.481 -0.2996  0.9833 -0.6419
  484MOL0     C66670   8.376   5.494   6.409  0.6671  0.9838  0.6920
  484MOL0     N66671   8.310   5.584   6.318 -0.5870  0.2422  0.6669
  484MOL0     C66672   8.320   5.720   6.323 -0.1365 -0.4620  0.2118
  484MOL0     C66673   8.250   5.763   6.210  0.1585  0.4621 -0.0742
  484MOL0     C66674   8.227   5.910   6.169 -0.2362  0.6790 -0.1489
  484MOL0     C66675   8.121   5.980   6.260 -0.3865  0.2108  0.0253
  484MOL0     C66676   7.990   5.907   6.272 -0.3386  0.9501  0.0155
  484MOL0     C66677   7.950   5.878   6.420 -0.5214  0.7513  0.4235
  484MOL0     O66678   7.813   5.844   6.417 -0.6140  0.1910 -0.2029
  484MOL0     C66679   7.766   5.713   6.411 -0.6080 -0.1834  0.2734
  484MOL0     C66680   7.834   5.620   6.348 -0.7875 -0.1456 -0.1749
  484MOL0     C66681   7.780   5.488   6.321  0.3238  0.4104  0.2846
  484MOL0     C66682   7.859   5.382   6.261  0.0873 -0.1551  0.3492
  484MOL0     C66683   7.648   5.470   6.359  0.3769 -0.1758 -0.7208
  484MOL0     C66684   7.576   5.334   6.351 -0.2551 -0.2198  0.4662
  484MOL0     O66685   7.467   5.303   6.435 -0.1906  0.1098  0.0283
  484MOL0     C66686   7.412   5.179   6.417  0.4416  0.7398  0.6242
  484MOL0     C66687   7.498   5.069   6.442  0.1907 -0.3929 -0.1333
  484MOL0     C66688   7.436   4.947   6.427 -0.1781  0.9937  0.1293
  484MOL0     C66689   7.301   4.925   6.422  0.2109 -0.3141 -0.2834
  484MOL0     O66690   7.254   4.799   6.423  0.0187 -0.4292  0.3422
  484MOL0     C66691   7.246   4.739   6.291 -0.4144 -0.0305  0.7816
  484MOL0     C66692   7.252   4.592   6.303  0.4200 -0.3682 -0.1890
  484MOL0     C66693   7.110   4.539   6.329 -0.3028  0.4417  0.3347
  484MOL0     C66694   7.040   4.566   6.468  0.1161 -0.3300 -0.1846
  484MOL0     C66695   6.882   4.530   6.477 -1.0899 -0.1272  0.5858
  484MOL0     C66696   6.815   4.503   6.611 -0.0451 -0.4106 -0.5578
  484MOL0     C66697   6.654   4.491   6.602  0.0880  0.6768 -0.6687
  484MOL0     C66698   6.581   4.563   6.715 -0.1841  0.4344  0.2258
  484MOL0    Cl66699   6.611   4.740   6.743  0.0237 -0.4006  0.7275
  484MOL0     C66700   7.219   5.034   6.403 -0.2406 -0.5753 -0.5797
  484MOL0     C66701   7.276   5.161   6.384  0.8509  0.0403 -0.6068
  484MOL0     O66702   7.600   5.264   6.252  0.1533 -0.1057 -0.0626
  484MOL0     C66703   7.578   5.564   6.432 -0.2211  0.6085 -0.5323
  484MOL0     C66704   7.635   5.687   6.451 -0.2295 -0.0477  0.2370
  484MOL0     N66705   8.189   5.644   6.159  0.1292 -0.3167 -0.0525
  484MOL0     N66706   8.226   5.542   6.224 -0.3349 -0.5091 -0.0652
  484MOL0     C66707   7.531   5.021   6.951 -0.0700  0.6174 -0.3024
  484MOL0     C66708   7.451   4.960   7.043 -0.3957  0.7545 -0.0972
  484MOL0     C66709   7.598   4.757   7.380  0.5871  0.3303  0.0755
  484MOL0     C66710   7.650   4.637   7.433  0.7319  0.7732  0.1340
  484MOL0     C66711   7.785   4.629   7.478  0.0658 -0.8855 -0.4452
  484MOL0     C66712   7.871   4.744   7.473  0.7913 -0.7662  0.0264
  484MOL0     O66713   8.007   4.721   7.492  0.0432  0.2178 -0.0195
  484MOL0     C66714   8.090   4.828   7.540 -0.6879  0.1618  0.8527
  484MOL0     C66715   8.238   4.789   7.567 -0.2366 -0.1133 -0.2618
  484MOL0     C66716   8.327   4.906   7.617 -0.0392 -0.8243 -0.8104
  484MOL0     C66717   8.465   4.869   7.663 -0.6216  0.5201  0.1577
  484MOL0     C66718   8.472   4.812   7.796  0.1640 -0.4854 -0.3327
  484MOL0     C66719   8.472   4.772   7.914 -0.9503  0.9938 -0.2952
  484MOL0     C66720   7.806   4.864   7.424 -0.4731  0.1103 -0.1428
  484MOL0     C66721   7.674   4.875   7.378 -0.2311  0.2494  0.6541
  484MOL0     C66722   7.609   5.007   7.351  0.1004  0.8662 -0.5186
  484MOL0     H66723   7.658   4.702   7.139  0.9819  0.3890  0.3798
  484MOL0     H66724   7.785   4.797   6.947  1.9910  3.5482 -1.1740
  484MOL0     H66725   7.652   5.212   6.811 -1.7198 -1.1904  0.3190
  484MOL0     H66726   7.609   5.084   6.701 -0.2330 -1.3623  1.3566
  484MOL0     H66727   7.848   5.068   6.637  0.3445  0.0608  0.5913
  484MOL0     H66728   7.778   5.215   6.578 -2.2490 -2.2133 -0.6845
  484MOL0     H66729   7.893   5.301   6.828 -0.4478 -2.6703  2.9164
  484MOL0     H66730   7.991   5.167   6.767 -1.6546 -0.8977 -2.9519
  484MOL0     H66731   8.013   5.277   6.548 -2.4966 -0.1716 -0.5254
  484MOL0     H66732   7.910   5.408   6.585 -0.8735 -0.8425 -0.9588
  484MOL0     H66733   8.179   5.330   6.720  1.3547  0.8929  0.1244
  484MOL0     H66734   8.078   5.472   6.764 -0.0822  0.1803 -0.3969
  484MOL0     H66735   8.098   5.538   6.517 -1.2385 -2.9108 -1.1101
  484MOL0     H66736   8.246   5.560   6.624  1.1314 -1.6985  0.4624
  484MOL0     H66737   8.216   5.342   6.411 -2.3783  0.8697  0.9627
  484MOL0     H66738   8.330   5.336   6.540 -3.1522 -1.6368 -0.5915
  484MOL0     H66739   8.430   5.553   6.483 -1.0324  1.7897  1.3486
  484MOL0     H66740   8.446   5.422   6.366 -1.2100 -1.6233  1.7379
  484MOL0     H66741   8.383   5.775   6.391 -0.6854  0.2216  0.1836
  484MOL0     H66742   8.193   5.931   6.067  0.6071  1.4170 -0.2929
  484MOL0     H66743   8.320   5.968   6.167 -1.3272  2.6005  1.3382
  484MOL0     H66744   8.174   6.001   6.353  0.4138  2.1634 -0.8295
  484MOL0     H66745   8.117   6.079   6.214  1.0761 -0.1430 -0.9515
  484MOL0     H66746   7.903   5.956   6.228 -0.8310  0.1982  0.1408
  484MOL0     H66747   8.007   5.812   6.220  1.2547  0.9017  0.5558
  484MOL0     H66748   8.016   5.800   6.460 -0.7512  0.3046 -0.0641
  484MOL0     H66749   7.970   5.969   6.477 -0.7696  2.0017 -1.4191
  484MOL0     H66750   7.935   5.628   6.310 -1.3062 -2.5024 -2.3108
  484MOL0     H66751   7.960   5.422   6.252 -0.4768  0.8865 -1.9572
  484MOL0     H66752   7.830   5.385   6.156 -2.0317  2.5479  0.9074
  484MOL0     H66753   7.851   5.278   6.294  1.0811 -1.1632 -2.2919
  484MOL0     H66754   7.606   5.073   6.458  0.0987 -0.5308  0.5681
  484MOL0     H66755   7.503   4.862   6.423 -1.6418 -0.1747 -2.3473
  484MOL0     H66756   7.157   4.773   6.237 -0.0229 -2.0543 -1.2954
  484MOL0     H66757   7.336   4.761   6.232  0.5144 -1.6585  1.5360
  484MOL0     H66758   7.289   4.555   6.206 -1.1252 -2.1525 -0.1705
  484MOL0     H66759   7.333   4.560   6.368  1.7328 -0.1847 -1.6686
  484MOL0     H66760   7.125   4.433   6.306  2.8051  1.2101 -1.7206
  484MOL0     H66761   7.047   4.566   6.244  3.8087 -0.0770 -3.1577
  484MOL0     H66762   7.045   4.668   6.508  0.5896 -1.3309  2.5335
  484MOL0     H66763   7.092   4.507   6.545  0.6570  0.0141 -0.2820
  484MOL0     H66764   6.832   4.615   6.428 -0.0988 -0.2617 -0.7274
  484MOL0     H66765   6.865   4.437   6.422  0.0431 -0.2510  0.4140
  484MOL0     H66766   6.836   4.585   6.681  1.0843  0.5332 -1.9589
  484MOL0     H66767   6.848   4.405   6.647  0.3748 -0.0938 -0.0670
  484MOL0     H66768   6.623   4.386   6.600 -0.2955  0.7864 -0.3468
  484MOL0     H66769   6.625   4.543   6.511 -0.9919  1.7627  0.2777
  484MOL0     H66770   6.616   4.524   6.811  1.7171  0.2625 -0.4875
  484MOL0     H66771   6.474   4.545   6.697  0.0752 -1.3761  0.2375
  484MOL0     H66772   7.114   5.009   6.391  0.3779 -3.3612 -1.0629
  484MOL0     H66773   7.223   5.251   6.357  2.6432  2.0354  2.0309
  484MOL0     H66774   7.476   5.545   6.465  0.8220 -0.1780  2.5929
  484MOL0     H66775   7.566   5.764   6.485 -0.7709 -0.1745 -0.5566
  484MOL0     H66776   7.496   5.119   6.919  3.3818  1.8098 -0.8457
  484MOL0     H66777   7.359   5.007   7.077  0.2289  0.5383  2.0621
  484MOL0     H66778   7.581   4.558   7.462  0.6158  0.1137 -1.8403
  484MOL0     H66779   7.819   4.540   7.529  0.9289  0.4679  1.4799
  484MOL0     H66780   8.095   4.908   7.466  0.8737 -0.6900 -0.0253
  484MOL0     H66781   8.045   4.867   7.632 -2.7604 -0.1582  0.0350
  484MOL0     H66782   8.283   4.771   7.469  3.7222  2.1049  0.9277
  484MOL0     H66783   8.240   4.705   7.638  1.7998  1.3741  1.5640
  484MOL0     H66784   8.332   4.978   7.534  1.7988 -0.7164 -0.6461
  484MOL0     H66785   8.271   4.953   7.698 -2.2191 -2.0161 -1.5364
  484MOL0     H66786   8.532   4.955   7.675  2.5375 -1.8962  1.2663
  484MOL0     H66787   8.529   4.811   7.595 -0.3414 -2.5581  2.8387
  484MOL0     H66788   8.475   4.725   8.011  2.2094  0.6939 -0.4223
  484MOL0     H66789   7.868   4.952   7.416 -0.1434 -0.0228  0.7881
  484MOL0     H66790   7.654   5.081   7.419 -1.8416  1.5146  0.1354
  484MOL0     H66791   7.640   5.030   7.248  2.6809 -1.0490 -0.2683
  484MOL0     H66792   7.501   5.012   7.365 -0.1764  0.6437 -2.3473
  485MOL0     O66793   4.223  11.200   6.581  0.2297 -0.3108 -0.1409
  485MOL0     C66794   4.135  11.203   6.666 -0.2485 -0.3041  0.9369
  485MOL0     O66795   4.016  11.138   6.653  0.2571  0.1682 -0.6933
  485MOL0     C66796   3.966  11.105   6.533  0.0745  0.1528  0.7653
  485MOL0     C66797   3.950  10.974   6.493 -0.7908  0.5636 -0.2442
  485MOL0     C66798   3.877  10.939   6.378  0.0418  0.2018 -0.9108
  485MOL0     C66799   3.817  11.033   6.295 -0.4244 -0.0967 -0.8509
  485MOL0     O66800   3.743  10.989   6.187 -0.4932 -0.6418  0.0008
  485MOL0     C66801   3.684  11.084   6.087 -0.1683  0.8536 -0.9448
  485MOL0     C66802   3.638  11.000   5.959 -0.1729  0.0558  0.1089
  485MOL0     C66803   3.656  10.845   5.980 -0.6505 -0.6920  0.2173
  485MOL0     C66804   3.566  10.776   5.876  0.4055  0.2427  0.1273
  485MOL0     C66805   3.532  10.634   5.922 -0.3385 -0.3958 -0.1839
  485MOL0     C66806   3.660  10.548   5.912 -0.2880 -0.5254 -0.6659
  485MOL0     C66807   3.632  10.408   5.938 -0.1774 -0.1715  0.3372
  485MOL0     C66808   3.613  10.382   6.087  0.4988  0.0274 -0.2376
  485MOL0     N66809   3.723  10.410   6.183  0.1989 -0.1745 -0.4646
  485MOL0     C66810   3.842  10.346   6.175 -0.0309 -0.4076  0.5715
  485MOL0     C66811   3.914  10.401   6.268 -0.6429 -0.7183  0.5662
  485MOL0     C66812   4.058  10.357   6.292 -0.0970 -0.2665 -0.2725
  485MOL0     C66813   4.170  10.459   6.285 -0.1429 -0.2639 -0.1161
  485MOL0     C66814   4.156  10.546   6.412 -1.0283  0.6355  0.0719
  485MOL0     C66815   4.237  10.673   6.402  0.4844 -0.0745  0.7152
  485MOL0     O66816   4.377  10.655   6.402  0.3466  0.1125  0.2828
  485MOL0     C66817   4.469  10.757   6.413  0.2248  0.7117  0.5311
  485MOL0     C66818   4.602  10.725   6.404  0.2519  0.0815 -0.1934
  485MOL0     C66819   4.703  10.820   6.431 -0.1485  0.8146 -1.3334
  485MOL0     C66820   4.841  10.749   6.447  0.1540  0.7297  0.6666
  485MOL0     C66821   4.672  10.955   6.474 -0.2411  0.4770 -0.1510
  485MOL0     C66822   4.770  11.052   6.520 -0.1963 -0.8406  0.6597
  485MOL0     O66823   4.905  11.030   6.540 -0.2074 -0.9408 -0.2900
  485MOL0     C66824   4.964  11.108   6.634  0.5298 -0.2657  0.9851
  485MOL0     C66825   5.006  11.240   6.598  0.9209  0.1041  0.3917
  485MOL0     C66826   5.080  11.308   6.698  0.4081 -0.0191  0.1858
  485MOL0     C66827   5.106  11.250   6.825  0.0774 -0.0855 -0.7568
  485MOL0     O66828   5.182  11.314   6.918  0.1859  0.0767  0.2324
  485MOL0     C66829   5.306  11.378   6.865  0.4560 -0.5269 -0.1234
  485MOL0     C66830   5.285  11.524   6.892  0.3121  0.2834  0.1972
  485MOL0     C66831   5.398  11.606   6.822 -0.5304  0.4031 -0.0879
  485MOL0     C66832   5.388  11.754   6.830  0.8215 -1.0589  0.4891
  485MOL0     C66833   5.368  11.820   6.967 -0.3867 -0.7833 -0.0970
  485MOL0     C66834   5.459  11.767   7.080  0.1581  0.3905 -0.0756
  485MOL0     C66835   5.467  11.846   7.208 -0.5228 -0.0467  0.8274
  485MOL0     C66836   5.575  11.960   7.186 -0.7483  0.0653  0.1480
  485MOL0    Cl66837   5.744  11.902   7.204 -0.4897  0.0498 -0.0922
  485MOL0     C66838   5.062  11.123   6.850  0.5072 -0.2562  0.1276
  485MOL0     C66839   4.993  11.046   6.757  0.1495 -0.4873 -0.2235
  485MOL0     O66840   4.721  11.157   6.539  1.0552 -0.5711  0.0465
  485MOL0     C66841   4.530  10.981   6.479  0.6426 -0.3116 -0.8435
  485MOL0     C66842   4.430  10.883   6.448  0.7070  0.8066  0.3788
  485MOL0     N66843   3.847  10.500   6.333  0.8375 -0.2162 -0.4395
  485MOL0     N66844   3.721  10.498   6.286 -0.4882  0.2379  0.0510
  485MOL0     C66845   3.834  11.169   6.338 -1.1967  0.3216  0.2838
  485MOL0     C66846   3.905  11.203   6.450  0.5638 -0.4617 -0.3615
  485MOL0     C66847   4.157  11.264   6.798  0.2674 -0.1608  0.3084
  485MOL0     C66848   4.068  11.236   6.897 -0.7108 -0.2042 -0.6237
  485MOL0     C66849   4.095  11.284   7.028  0.3726 -0.2469  0.3925
  485MOL0     C66850   4.209  11.358   7.062  0.3717  0.3514  0.2329
  485MOL0     O66851   4.224  11.407   7.188  0.1167 -0.3842 -0.2180
  485MOL0     C66852   4.319  11.513   7.220  0.0664  0.4959  0.2959
  485MOL0     C66853   4.273  11.650   7.170  0.0231 -0.0177  0.1993
  485MOL0     C66854   4.340  11.771   7.239 -0.2827 -0.8291 -0.3837
  485MOL0     C66855   4.459  11.810   7.150 -0.1475  0.1991  1.3783
  485MOL0     C66856   4.524  11.935   7.202  0.1348  0.5910  0.6563
  485MOL0     C66857   4.551  12.039   7.258 -0.0515 -0.9558  0.3783
  485MOL0     C66858   4.302  11.380   6.957  0.7204 -0.6246 -0.2101
  485MOL0     C66859   4.274  11.347   6.828  0.3568  0.2629  0.8899
  485MOL0     C66860   4.367  11.401   6.723 -0.4476 -0.3960 -0.0623
  485MOL0     H66861   3.992  10.901   6.561  1.1550  0.8973 -1.0243
  485MOL0     H66862   3.851  10.835   6.360 -1.0240  0.5292 -1.3659
  485MOL0     H66863   3.764  11.156   6.070  0.7438  0.2558  0.5845
  485MOL0     H66864   3.598  11.142   6.121 -0.8281 -0.0863 -0.9747
  485MOL0     H66865   3.531  11.018   5.946  0.2458  1.8736 -1.1856
  485MOL0     H66866   3.700  11.037   5.877 -0.5232  1.0012  0.2654
  485MOL0     H66867   3.758  10.815   5.955 -0.1330  0.5392  0.7461
  485MOL0     H66868   3.627  10.814   6.081  0.2996  0.0679  0.7367
  485MOL0     H66869   3.469  10.825   5.866 -0.7897 -1.3390  2.8651
  485MOL0     H66870   3.613  10.781   5.778  0.7816  0.7475  0.3290
  485MOL0     H66871   3.456  10.598   5.852  1.0029 -2.1745 -0.8269
  485MOL0     H66872   3.493  10.640   6.023 -0.4974 -0.7226 -0.2241
  485MOL0     H66873   3.709  10.554   5.814  3.1910  0.2809  0.9650
  485MOL0     H66874   3.753  10.573   5.963 -0.1484 -3.1007  0.5076
  485MOL0     H66875   3.707  10.342   5.892 -0.1224 -2.2263  3.1421
  485MOL0     H66876   3.536  10.393   5.889 -0.1453  2.6663 -0.7499
  485MOL0     H66877   3.523  10.439   6.112  0.8800  1.3556 -1.7328
  485MOL0     H66878   3.592  10.275   6.090 -1.8346  0.3806 -1.6232
  485MOL0     H66879   3.865  10.254   6.123 -1.1445  1.0370 -2.7447
  485MOL0     H66880   4.070  10.273   6.224 -2.0394 -1.4836  0.8053
  485MOL0     H66881   4.069  10.309   6.389  2.8493 -0.7900 -0.7561
  485MOL0     H66882   4.265  10.405   6.277  1.1414  2.1452 -3.1634
  485MOL0     H66883   4.163  10.514   6.191 -1.3092  0.5506  0.4301
  485MOL0     H66884   4.053  10.564   6.442 -1.3613 -1.3704  0.2714
  485MOL0     H66885   4.196  10.488   6.495  2.6144  1.6761 -0.7824
  485MOL0     H66886   4.210  10.720   6.306  3.5869  2.9573  1.1335
  485MOL0     H66887   4.209  10.738   6.485 -0.7989 -1.6518  1.5621
  485MOL0     H66888   4.630  10.622   6.385  1.1550  0.7517 -2.8622
  485MOL0     H66889   4.915  10.818   6.406 -1.3520  1.2729 -1.3000
  485MOL0     H66890   4.832  10.653   6.395 -2.9838  1.2346  0.0432
  485MOL0     H66891   4.843  10.725   6.553 -3.5489  0.2389  0.7629
  485MOL0     H66892   4.989  11.295   6.506 -1.6612 -0.4955  0.4452
  485MOL0     H66893   5.116  11.409   6.683 -0.3882  0.6951  2.6414
  485MOL0     H66894   5.397  11.340   6.913  1.2013 -0.5794 -1.5446
  485MOL0     H66895   5.309  11.356   6.758 -2.7760 -0.5216 -0.3187
  485MOL0     H66896   5.183  11.535   6.854  0.2458 -2.2565 -0.5799
  485MOL0     H66897   5.289  11.543   6.999 -1.0007  2.6769 -0.1184
  485MOL0     H66898   5.396  11.578   6.716  2.5291  0.7014 -0.3078
  485MOL0     H66899   5.492  11.564   6.858  0.6424 -0.4231 -3.6822
  485MOL0     H66900   5.311  11.789   6.760  0.9009  1.4167  1.5203
  485MOL0     H66901   5.487  11.788   6.801  1.0380 -2.8047 -0.9988
  485MOL0     H66902   5.396  11.923   6.941 -0.6508 -1.3202 -2.8016
  485MOL0     H66903   5.265  11.819   7.003 -1.2506  1.8570 -2.1627
  485MOL0     H66904   5.559  11.753   7.039  0.1557 -2.2960  0.6791
  485MOL0     H66905   5.436  11.661   7.092 -1.3675  0.7676  0.5778
  485MOL0     H66906   5.501  11.779   7.287 -0.2505  2.1534  2.6877
  485MOL0     H66907   5.370  11.888   7.235 -0.7697 -0.5275  0.6909
  485MOL0     H66908   5.558  12.045   7.253 -0.0779 -1.9165  2.9857
  485MOL0     H66909   5.556  11.995   7.084  1.3094 -1.0617 -0.6817
  485MOL0     H66910   5.076  11.076   6.947  0.3793  0.9150  0.7298
  485MOL0     H66911   4.970  10.942   6.773  2.6761 -0.7438  2.6746
  485MOL0     H66912   4.494  11.079   6.510  1.0788  0.5975 -3.0066
  485MOL0     H66913   4.322  10.898   6.454  0.1931 -1.9679 -0.5541
  485MOL0     H66914   3.796  11.239   6.264 -3.9200 -1.4394 -0.1439
  485MOL0     H66915   3.909  11.306   6.483 -1.1266 -0.1388 -1.0617
  485MOL0     H66916   3.974  11.181   6.891 -0.8802  0.1862 -1.6026
  485MOL0     H66917   4.013  11.255   7.093  0.1529 -2.1621 -0.6800
  485MOL0     H66918   4.334  11.524   7.328 -1.5525 -0.0523  0.6149
  485MOL0     H66919   4.416  11.506   7.171 -1.0514  1.1500 -2.1989
  485MOL0     H66920   4.166  11.651   7.190 -0.8588  0.7358 -3.7736
  485MOL0     H66921   4.283  11.651   7.061 -1.7010 -2.3267 -0.0478
  485MOL0     H66922   4.270  11.855   7.242  1.4236  0.6427 -0.1407
  485MOL0     H66923   4.371  11.744   7.341  1.4406 -0.6976 -0.8482
  485MOL0     H66924   4.423  11.822   7.048  2.9020 -0.2232  0.1747
  485MOL0     H66925   4.527  11.725   7.153 -0.3746 -0.1450 -1.3003
  485MOL0     H66926   4.558  12.137   7.302 -0.8876 -0.8656  0.3209
  485MOL0     H66927   4.391  11.435   6.985  0.8235 -1.2519  0.7684
  485MOL0     H66928   4.304  11.450   6.648  0.0768  1.7455  0.8121
  485MOL0     H66929   4.436  11.476   6.762  1.7727 -2.3958  0.0436
  485MOL0     H66930   4.423  11.328   6.663 -2.3337  1.0832 -3.9964
  486MOL0     O66931   9.450   0.647   8.761  0.6191 -0.9237 -0.0595
  486MOL0     C66932   9.332   0.663   8.789  0.7986  0.1896  0.5632
  486MOL0     O66933   9.261   0.602   8.888  0.5672  0.4752 -0.2730
  486MOL0     C66934   9.307   0.497   8.958 -1.2637  0.1372 -1.0225
  486MOL0     C66935   9.345   0.511   9.091 -0.6819  0.2643 -0.0571
  486MOL0     C66936   9.407   0.407   9.161  0.2136 -0.1103 -0.4708
  486MOL0     C66937   9.440   0.286   9.094 -0.0824 -0.7924  0.0980
  486MOL0     O66938   9.500   0.182   9.149 -0.3065  0.9598  0.0405
  486MOL0     C66939   9.597   0.214   9.252 -1.0792 -0.5461 -0.6098
  486MOL0     C66940   9.555   0.142   9.380  0.9459 -0.3117  0.7431
  486MOL0     C66941   9.592  -0.005   9.363  0.1726  0.9872 -0.1527
  486MOL0     C66942   9.571  -0.093   9.482 -0.3519  0.7331  0.6375
  486MOL0     C66943   9.682  -0.201   9.482  0.3855 -0.1488  0.3642
  486MOL0     C66944   9.654  -0.290   9.600 -0.6564  0.4989 -0.2980
  486MOL0     C66945   9.760  -0.406   9.620  0.5898 -0.6209  0.7530
  486MOL0     C66946   9.787  -0.447   9.768 -0.1053  0.2374  0.3514
  486MOL0     N66947   9.900  -0.537   9.782  0.6284 -0.0414  0.1371
  486MOL0     C66948   9.941  -0.631   9.691 -0.0158 -0.0063  0.4178
  486MOL0     C66949  10.019  -0.720   9.758  0.5908  0.3982 -0.5969
  486MOL0     C66950  10.093  -0.845   9.709 -0.9929 -0.4229 -0.9129
  486MOL0     C66951  10.177  -0.824   9.579  0.1109 -0.6874 -0.0538
  486MOL0     C66952  10.295  -0.742   9.597  0.2296 -0.4934  0.6319
  486MOL0     C66953  10.271  -0.588   9.623  0.3773 -0.4041  0.3828
  486MOL0     O66954  10.211  -0.531   9.500 -0.0367  0.1438 -0.3964
  486MOL0     C66955  10.168  -0.403   9.502 -0.7383 -0.8694 -0.4614
  486MOL0     C66956  10.112  -0.351   9.386  0.1400 -0.3602  0.3807
  486MOL0     C66957  10.070  -0.212   9.374  0.5015  0.6330 -0.4756
  486MOL0     C66958  10.023  -0.167   9.233 -0.8798 -0.8272  0.4577
  486MOL0     C66959  10.081  -0.123   9.493 -0.2525 -0.2606  0.9880
  486MOL0     C66960  10.046   0.027   9.482  0.1085 -0.2122 -0.7642
  486MOL0     O66961  10.091   0.110   9.582  0.1735 -0.4151  0.7389
  486MOL0     C66962  10.227   0.145   9.562  0.5259  0.0869  0.4813
  486MOL0     C66963  10.285   0.216   9.668 -0.4217 -0.5849  0.4133
  486MOL0     C66964  10.413   0.271   9.655 -0.1058  0.2809  0.7770
  486MOL0     C66965  10.494   0.235   9.547 -0.3752  0.4376  0.3164
  486MOL0     O66966  10.626   0.274   9.557  0.0818 -0.2955  0.4290
  486MOL0     C66967  10.713   0.256   9.440  1.1316 -0.2036 -0.7201
  486MOL0     C66968  10.848   0.312   9.470  0.6476  0.2784 -0.1493
  486MOL0     C66969  10.958   0.227   9.398 -0.7475  0.2018  0.4989
  486MOL0     C66970  11.102   0.260   9.425 -0.7336 -0.0890  0.1319
  486MOL0     C66971  11.193   0.142   9.395 -0.6478 -0.2844 -0.3544
  486MOL0     C66972  11.326   0.159   9.484  0.0615  0.4630  0.4147
  486MOL0     C66973  11.422   0.041   9.442  0.6482  0.1328  0.1123
  486MOL0     C66974  11.477  -0.037   9.559  0.4259  0.9167 -0.3421
  486MOL0    Cl66975  11.558   0.078   9.677  0.0658 -0.2145 -0.3368
  486MOL0     C66976  10.441   0.150   9.448  0.2618 -0.8956 -0.4168
  486MOL0     C66977  10.312   0.108   9.454 -0.2918  0.1593 -0.0817
  486MOL0     O66978   9.978   0.063   9.381 -0.2400 -0.0596 -0.1710
  486MOL0     C66979  10.140  -0.176   9.604  0.5587  0.7956  0.2368
  486MOL0     C66980  10.181  -0.312   9.612 -0.2808  0.1337 -0.5004
  486MOL0     N66981  10.012  -0.687   9.890 -0.3195  0.1762 -0.3540
  486MOL0     N66982   9.934  -0.581   9.906 -0.0750 -0.7555 -0.6541
  486MOL0     C66983   9.416   0.274   8.957  0.4801 -0.4717  0.5035
  486MOL0     C66984   9.337   0.373   8.894 -0.9236 -0.4744 -0.5752
  486MOL0     C66985   9.243   0.762   8.715 -0.7135  0.0587  0.4747
  486MOL0     C66986   9.127   0.814   8.781  0.6298  0.4908  0.5226
  486MOL0     C66987   9.045   0.900   8.705  0.9497  0.5166 -0.0125
  486MOL0     C66988   9.056   0.934   8.569 -0.0561 -0.0654 -0.4595
  486MOL0     O66989   8.971   1.018   8.507  0.2056 -1.0203  0.4441
  486MOL0     C66990   8.974   1.042   8.369  0.1762  1.1380 -0.4390
  486MOL0     C66991   8.849   1.116   8.328 -0.4441 -0.9269 -0.1939
  486MOL0     C66992   8.835   1.256   8.405 -0.1826  0.4165  0.2861
  486MOL0     C66993   8.747   1.357   8.319  0.2177  0.3363 -0.3293
  486MOL0     C66994   8.796   1.363   8.186 -0.4785  0.1050  0.7847
  486MOL0     C66995   8.832   1.374   8.068  0.3133 -0.6019 -0.3663
  486MOL0     C66996   9.166   0.875   8.504 -1.0365  0.0219 -1.0127
  486MOL0     C66997   9.261   0.801   8.577 -0.5255 -0.3947 -0.3032
  486MOL0     C66998   9.386   0.755   8.507  0.8148 -0.4488  0.2499
  486MOL0     H66999   9.324   0.605   9.140  1.4877  0.6136  0.3031
  486MOL0     H67000   9.405   0.421   9.269 -3.4638  1.7819 -0.6305
  486MOL0     H67001   9.623   0.320   9.258  1.6080 -0.8728 -3.5479
  486MOL0     H67002   9.698   0.178   9.230 -0.6490 -1.2739  2.0874
  486MOL0     H67003   9.601   0.184   9.470 -1.0711  0.6751  1.3692
  486MOL0     H67004   9.447   0.155   9.391  0.8278  0.7148 -1.2496
  486MOL0     H67005   9.532  -0.048   9.282 -1.2447 -0.3165  1.4998
  486MOL0     H67006   9.698  -0.011   9.339 -0.3087  2.1322 -2.8692
  486MOL0     H67007   9.569  -0.041   9.578 -0.3569  3.2220 -0.6192
  486MOL0     H67008   9.481  -0.152   9.465  0.9980 -1.4456  0.5915
  486MOL0     H67009   9.788  -0.172   9.486  0.9869 -2.2076  0.5072
  486MOL0     H67010   9.679  -0.264   9.393  3.2955 -0.1893  0.1805
  486MOL0     H67011   9.668  -0.225   9.688  1.5431 -1.2171  0.7172
  486MOL0     H67012   9.557  -0.340   9.608 -1.0628  1.3418  0.1905
  486MOL0     H67013   9.859  -0.374   9.587  0.7221  1.1196  2.6481
  486MOL0     H67014   9.730  -0.487   9.553 -1.4081  2.5994 -2.6518
  486MOL0     H67015   9.816  -0.363   9.832  1.4850  0.6387 -0.8392
  486MOL0     H67016   9.707  -0.511   9.807  2.0140 -2.7999  0.1235
  486MOL0     H67017   9.931  -0.624   9.584  0.1796 -0.0856  0.3943
  486MOL0     H67018  10.017  -0.923   9.709 -0.5133 -1.0144  2.1190
  486MOL0     H67019  10.159  -0.884   9.788 -0.9643  1.8894  0.2937
  486MOL0     H67020  10.210  -0.924   9.546 -0.7640 -2.0385  2.8422
  486MOL0     H67021  10.111  -0.777   9.506  0.2866 -0.7911 -0.2821
  486MOL0     H67022  10.355  -0.779   9.681  0.0933 -0.7031  0.6385
  486MOL0     H67023  10.367  -0.744   9.515  1.0506 -0.8935  1.3434
  486MOL0     H67024  10.212  -0.567   9.713 -0.8175  1.3609 -0.7601
  486MOL0     H67025  10.364  -0.532   9.641  0.4635 -1.2261  2.8310
  486MOL0     H67026  10.106  -0.417   9.300 -0.1865  0.5347 -0.2992
  486MOL0     H67027  10.039  -0.248   9.162  1.5917 -1.7555  1.9465
  486MOL0     H67028  10.077  -0.074   9.212 -2.2182  0.2765  1.7056
  486MOL0     H67029   9.915  -0.154   9.239 -0.6846  2.2512 -0.6281
  486MOL0     H67030  10.222   0.234   9.754 -0.1991  1.2881  0.2283
  486MOL0     H67031  10.454   0.326   9.739  1.2079 -0.4722  0.6519
  486MOL0     H67032  10.717   0.159   9.390 -1.4472  0.3727 -2.1806
  486MOL0     H67033  10.674   0.320   9.360 -1.8803 -0.4757  0.3951
  486MOL0     H67034  10.874   0.414   9.441  3.5160 -0.2929  0.1665
  486MOL0     H67035  10.859   0.302   9.578  3.0595 -1.4509 -0.4759
  486MOL0     H67036  10.937   0.234   9.291  1.7672  0.2488 -0.0581
  486MOL0     H67037  10.943   0.121   9.420  0.5708  0.1093  1.0796
  486MOL0     H67038  11.116   0.276   9.533  0.2112  3.0675 -0.3686
  486MOL0     H67039  11.140   0.351   9.379 -1.9931  1.0949  1.3431
  486MOL0     H67040  11.142   0.047   9.415  0.0931 -0.9197 -1.3636
  486MOL0     H67041  11.220   0.140   9.289  1.2575  0.5597  0.0635
  486MOL0     H67042  11.293   0.156   9.588 -0.4873  3.1777  0.3846
  486MOL0     H67043  11.391   0.245   9.466  0.4910 -0.3983 -2.7698
  486MOL0     H67044  11.498   0.079   9.374  0.4195 -2.5787 -1.8335
  486MOL0     H67045  11.358  -0.023   9.381 -2.2823  0.2151  2.7811
  486MOL0     H67046  11.544  -0.118   9.530 -2.7267 -1.9141 -0.2469
  486MOL0     H67047  11.395  -0.086   9.611  1.7642  0.6117  1.5680
  486MOL0     H67048  10.505   0.116   9.367 -0.8696  2.1860 -2.8155
  486MOL0     H67049  10.268   0.056   9.369 -0.3600 -0.7055  0.4614
  486MOL0     H67050  10.139  -0.116   9.695 -2.2335 -0.0616  0.8803
  486MOL0     H67051  10.211  -0.357   9.706 -1.3669 -2.4490 -1.2995
  486MOL0     H67052   9.451   0.191   8.896  0.6605  1.8704 -2.8157
  486MOL0     H67053   9.310   0.360   8.790 -0.7178 -1.1489 -0.5521
  486MOL0     H67054   9.100   0.787   8.882  1.0047 -1.3855  0.1652
  486MOL0     H67055   8.951   0.931   8.749  1.6476 -0.0767  2.0067
  486MOL0     H67056   9.062   1.099   8.338  0.9219 -0.6903 -1.8994
  486MOL0     H67057   8.980   0.947   8.314  1.9242  2.2782 -2.3551
  486MOL0     H67058   8.765   1.047   8.336 -0.2595 -1.3004 -1.2582
  486MOL0     H67059   8.856   1.130   8.219 -1.7298  1.7156 -0.0105
  486MOL0     H67060   8.795   1.243   8.505  1.1537 -1.7318  0.6032
  486MOL0     H67061   8.936   1.296   8.417  0.2245 -0.7380  0.8741
  486MOL0     H67062   8.730   1.453   8.370 -3.1231 -1.7426  2.9336
  486MOL0     H67063   8.646   1.321   8.297  0.6863 -1.1213 -0.1866
  486MOL0     H67064   8.873   1.375   7.969 -2.3720  0.2187 -1.5746
  486MOL0     H67065   9.172   0.907   8.400 -0.7088 -0.7189 -1.2294
  486MOL0     H67066   9.398   0.647   8.518 -0.1616 -0.3471  3.1298
  486MOL0     H67067   9.378   0.786   8.403 -3.3579  1.6749  0.9936
  486MOL0     H67068   9.475   0.806   8.547  0.2421  0.1239  0.8082
  487MOL0     O67069   0.047   4.696   0.327  0.4775 -0.2775 -0.4356
  487MOL0     C67070   0.106   4.684   0.224 -0.1529  0.3596  0.1295
  487MOL0     O67071   0.052   4.635   0.098 -0.1449 -0.0854  0.7400
  487MOL0     C67072  -0.076   4.587   0.083  0.1435  0.1432  0.5998
  487MOL0     C67073  -0.098   4.471   0.007  0.2269 -0.7481 -0.1724
  487MOL0     C67074  -0.227   4.433  -0.025 -0.9237 -0.6284 -0.7433
  487MOL0     C67075  -0.341   4.504   0.027 -0.0192 -0.2243 -0.0850
  487MOL0     O67076  -0.475   4.470   0.005 -0.1064 -0.7460  1.0608
  487MOL0     C67077  -0.522   4.357  -0.069  0.2247 -0.2050  0.2941
  487MOL0     C67078  -0.678   4.338  -0.054  1.2499 -0.5234 -0.3445
  487MOL0     C67079  -0.729   4.233  -0.159 -0.5163 -0.3109 -0.8720
  487MOL0     C67080  -0.867   4.190  -0.153 -0.1003 -0.1539  0.3970
  487MOL0     C67081  -0.892   4.103  -0.278  0.9989  0.0083  0.2075
  487MOL0     C67082  -1.034   4.047  -0.300 -0.9146  0.2278 -0.8210
  487MOL0     C67083  -1.139   4.163  -0.297 -0.0308  0.6060 -1.6877
  487MOL0     C67084  -1.269   4.125  -0.374 -0.3528 -0.5521  0.4707
  487MOL0     N67085  -1.237   4.122  -0.522  1.0091  0.6995 -0.2033
  487MOL0     C67086  -1.218   4.230  -0.601  0.3396 -0.8173  0.3871
  487MOL0     C67087  -1.173   4.178  -0.716 -0.4660 -0.3177 -1.1266
  487MOL0     C67088  -1.129   4.253  -0.833  0.9345  0.2485  0.4325
  487MOL0     C67089  -0.997   4.327  -0.804 -0.5252  0.6388 -0.5579
  487MOL0     C67090  -0.885   4.229  -0.752  0.1387 -0.1691  0.5224
  487MOL0     C67091  -0.744   4.275  -0.776 -0.5197 -0.4298  0.3677
  487MOL0     O67092  -0.743   4.408  -0.741  0.0582  0.1566  0.3611
  487MOL0     C67093  -0.617   4.459  -0.744 -0.1971  0.4906 -0.0274
  487MOL0     C67094  -0.553   4.481  -0.626 -0.1554  0.8286  0.8138
  487MOL0     C67095  -0.424   4.539  -0.634 -0.0894  0.2843 -0.0521
  487MOL0     C67096  -0.352   4.548  -0.506 -0.3090 -0.4124  0.2615
  487MOL0     C67097  -0.360   4.569  -0.753 -0.0279 -0.2456  0.4194
  487MOL0     C67098  -0.224   4.624  -0.767 -0.0107 -0.4042 -0.2542
  487MOL0     O67099  -0.122   4.577  -0.692 -0.0964 -0.6079  0.0237
  487MOL0     C67100   0.003   4.632  -0.713  0.1985  0.7900 -0.2481
  487MOL0     C67101   0.069   4.696  -0.604  0.5221  0.0874  0.8414
  487MOL0     C67102   0.199   4.753  -0.629 -0.2705 -0.0212 -0.1752
  487MOL0     C67103   0.249   4.760  -0.758 -0.2793 -0.3620 -0.1354
  487MOL0     O67104   0.351   4.846  -0.804  0.3427  0.5299  0.3545
  487MOL0     C67105   0.420   4.929  -0.715  0.6247  0.2081 -0.4450
  487MOL0     C67106   0.344   5.063  -0.708  0.1267  0.0538 -0.1500
  487MOL0     C67107   0.428   5.160  -0.619  0.2946  0.4489 -0.1616
  487MOL0     C67108   0.401   5.145  -0.467  0.0587  0.3290  0.0090
  487MOL0     C67109   0.417   5.282  -0.399  0.6921  0.1181 -0.7744
  487MOL0     C67110   0.405   5.261  -0.243 -0.3669  0.2439  0.6524
  487MOL0     C67111   0.528   5.196  -0.187 -0.2572  0.0897 -0.9110
  487MOL0     C67112   0.536   5.219  -0.034  0.1387  1.3209  0.3330
  487MOL0    Cl67113   0.392   5.134   0.029  0.2016  0.2256  0.1919
  487MOL0     C67114   0.182   4.689  -0.864 -0.4175  0.6722  0.1075
  487MOL0     C67115   0.056   4.631  -0.839  0.0328 -0.4125 -0.4533
  487MOL0     O67116  -0.208   4.712  -0.849 -0.4822  0.4225  0.6226
  487MOL0     C67117  -0.439   4.572  -0.867  0.2278 -0.3452 -0.2469
  487MOL0     C67118  -0.562   4.509  -0.860  0.5097 -0.3338  1.2819
  487MOL0     N67119  -1.185   4.040  -0.719  0.5732  0.8348 -0.7632
  487MOL0     N67120  -1.231   4.012  -0.601  0.1190 -0.2820  0.3044
  487MOL0     C67121  -0.310   4.615   0.106 -0.1385  0.0405  1.0352
  487MOL0     C67122  -0.184   4.654   0.133  0.0339  0.0645 -0.2088
  487MOL0     C67123   0.248   4.724   0.205  0.7459  0.0714  0.0901
  487MOL0     C67124   0.341   4.630   0.150 -0.1626 -0.0984  0.1276
  487MOL0     C67125   0.479   4.654   0.158 -0.2925 -0.2550  0.0073
  487MOL0     C67126   0.528   4.779   0.192  0.0150  0.3980  0.2998
  487MOL0     O67127   0.660   4.814   0.191  0.0431  0.1922 -0.3857
  487MOL0     C67128   0.718   4.838   0.061 -1.0903  0.1468  0.1500
  487MOL0     C67129   0.867   4.878   0.061  0.4469  0.1895 -0.7082
  487MOL0     C67130   0.881   5.032   0.087  0.1848 -0.2823 -0.3003
  487MOL0     C67131   0.891   5.104  -0.048  0.4513  0.2616  0.2386
  487MOL0     C67132   0.897   5.251  -0.019 -0.5277 -0.3898 -0.4159
  487MOL0     C67133   0.900   5.369   0.011 -0.0317 -0.4707 -0.4595
  487MOL0     C67134   0.436   4.870   0.235  0.5641 -0.1048 -1.1597
  487MOL0     C67135   0.298   4.846   0.240  0.6195  1.0284  0.9674
  487MOL0     C67136   0.212   4.948   0.294  0.1724  0.0832  0.4542
  487MOL0     H67137  -0.026   4.393  -0.014 -0.2583 -2.6629  4.3006
  487MOL0     H67138  -0.229   4.346  -0.090  3.5602  0.0140 -2.0510
  487MOL0     H67139  -0.476   4.264  -0.035 -4.2730 -2.5923  0.5474
  487MOL0     H67140  -0.512   4.366  -0.178  0.2543 -1.8213  0.1452
  487MOL0     H67141  -0.696   4.299   0.047  1.7010  0.4856  0.1416
  487MOL0     H67142  -0.745   4.424  -0.054  0.3947 -1.1518  1.6068
  487MOL0     H67143  -0.692   4.274  -0.254  0.4525  2.7465  0.7115
  487MOL0     H67144  -0.671   4.143  -0.136 -1.1095 -0.0448  2.0709
  487MOL0     H67145  -0.883   4.127  -0.065  3.4223 -2.1223 -0.1888
  487MOL0     H67146  -0.934   4.276  -0.142  0.4071  0.1234  1.4911
  487MOL0     H67147  -0.827   4.018  -0.254  2.6687  1.4779  1.1032
  487MOL0     H67148  -0.857   4.155  -0.368 -1.8486  1.8614  0.0508
  487MOL0     H67149  -1.035   3.985  -0.391 -0.9827 -0.3615 -0.4260
  487MOL0     H67150  -1.039   3.978  -0.215  0.7354 -0.8915 -1.5704
  487MOL0     H67151  -1.105   4.256  -0.343 -3.3765  2.6929 -0.3482
  487MOL0     H67152  -1.172   4.182  -0.194  2.0309  0.3348 -0.9318
  487MOL0     H67153  -1.309   4.026  -0.346 -2.6096 -0.0308 -0.6521
  487MOL0     H67154  -1.339   4.204  -0.346  2.5479  1.5395  2.3824
  487MOL0     H67155  -1.207   4.335  -0.576  0.2332 -1.0393  1.3931
  487MOL0     H67156  -1.192   4.341  -0.851  0.3547 -0.3909 -0.7553
  487MOL0     H67157  -1.126   4.194  -0.925  1.6521  1.3886 -0.3109
  487MOL0     H67158  -0.967   4.379  -0.895 -3.0381  4.7382  0.7176
  487MOL0     H67159  -1.001   4.405  -0.728  3.7180  1.0605 -0.5498
  487MOL0     H67160  -0.895   4.214  -0.644  1.9962  3.6730  1.3967
  487MOL0     H67161  -0.902   4.133  -0.803 -0.5416  0.3622 -0.2756
  487MOL0     H67162  -0.673   4.216  -0.717  0.5905  2.1937  1.8115
  487MOL0     H67163  -0.727   4.256  -0.883 -1.9648  1.5341 -0.2600
  487MOL0     H67164  -0.601   4.456  -0.532 -0.4025  0.6981  0.6539
  487MOL0     H67165  -0.261   4.487  -0.511  0.3486  0.4941  0.7397
  487MOL0     H67166  -0.414   4.509  -0.425 -1.4241  1.6913  0.4735
  487MOL0     H67167  -0.323   4.652  -0.492 -0.4553 -0.6186  2.6458
  487MOL0     H67168   0.019   4.674  -0.510 -2.1836  1.9830 -0.0172
  487MOL0     H67169   0.251   4.805  -0.549 -1.2155 -1.3398  1.3560
  487MOL0     H67170   0.425   4.890  -0.613  0.9499  2.1562  0.3427
  487MOL0     H67171   0.523   4.941  -0.750  1.3685 -1.6035  0.9893
  487MOL0     H67172   0.338   5.097  -0.812  1.9896 -1.9171 -0.9598
  487MOL0     H67173   0.245   5.054  -0.663  0.1568 -0.9693 -0.2743
  487MOL0     H67174   0.402   5.261  -0.650  1.0995  2.3606  4.5408
  487MOL0     H67175   0.535   5.148  -0.634 -0.0113 -2.4118 -0.7961
  487MOL0     H67176   0.459   5.061  -0.428  0.1038  0.4587  0.2250
  487MOL0     H67177   0.301   5.106  -0.446  0.1735 -0.2975 -0.5783
  487MOL0     H67178   0.511   5.335  -0.416  0.4079  0.8390 -0.1480
  487MOL0     H67179   0.331   5.342  -0.429 -1.2489 -1.0876  1.9327
  487MOL0     H67180   0.319   5.195  -0.226 -0.9424  0.8941  0.3525
  487MOL0     H67181   0.373   5.355  -0.197  3.4750  0.3042  3.7401
  487MOL0     H67182   0.615   5.238  -0.238  0.4215  0.8785  0.8288
  487MOL0     H67183   0.511   5.089  -0.201 -2.7079  0.1906  0.5731
  487MOL0     H67184   0.542   5.326  -0.013  0.8710  1.2477  0.5296
  487MOL0     H67185   0.623   5.167   0.006 -1.6719 -2.6155 -0.3837
  487MOL0     H67186   0.221   4.681  -0.965  0.2156  0.7927  0.3384
  487MOL0     H67187   0.015   4.578  -0.925  0.0080 -1.7974  0.3789
  487MOL0     H67188  -0.420   4.625  -0.959 -2.5439  1.9895  0.3650
  487MOL0     H67189  -0.632   4.517  -0.943  2.8815  4.0063 -0.6612
  487MOL0     H67190  -0.387   4.677   0.151  1.9255  1.2740  3.0788
  487MOL0     H67191  -0.178   4.740   0.198 -1.8247 -1.0652  1.5693
  487MOL0     H67192   0.302   4.531   0.124  1.9646 -1.9943  3.5132
  487MOL0     H67193   0.540   4.579   0.108 -1.2838 -0.6016 -0.7096
  487MOL0     H67194   0.708   4.749  -0.001  2.3309 -0.2410 -0.0236
  487MOL0     H67195   0.655   4.919   0.021 -0.0977  0.9770  0.2289
  487MOL0     H67196   0.919   4.848  -0.030  1.2970 -1.1026  0.1698
  487MOL0     H67197   0.914   4.826   0.145  0.6136  1.7983  0.2207
  487MOL0     H67198   0.808   5.066   0.161  1.6229 -1.1162  1.5595
  487MOL0     H67199   0.980   5.045   0.132  0.1111  0.6215 -0.3807
  487MOL0     H67200   0.813   5.087  -0.122  0.2909 -2.6190  0.9503
  487MOL0     H67201   0.985   5.082  -0.100 -0.6983  0.2724 -1.9514
  487MOL0     H67202   0.910   5.471   0.041  2.1087 -0.2738 -1.6754
  487MOL0     H67203   0.472   4.956   0.291 -0.2130 -1.0374  0.8745
  487MOL0     H67204   0.167   4.908   0.385 -1.4093  3.5919  1.3917
  487MOL0     H67205   0.269   5.038   0.318 -0.8113  0.4486  1.5331
  487MOL0     H67206   0.130   4.970   0.226 -0.6422 -0.6818  1.1624
  488MOL0     O67207   8.539   0.436   3.208 -0.4238  0.2478  0.4233
  488MOL0     C67208   8.482   0.502   3.122  0.3104  1.2559  0.6786
  488MOL0     O67209   8.520   0.619   3.070 -0.2541  0.1542  0.3822
  488MOL0     C67210   8.649   0.660   3.082 -0.1858 -0.4025  0.4378
  488MOL0     C67211   8.722   0.667   3.205 -0.1768  0.1533 -0.1094
  488MOL0     C67212   8.851   0.727   3.217 -0.7586  1.3262  0.6022
  488MOL0     C67213   8.917   0.760   3.100  0.8313 -0.2657  0.3042
  488MOL0     O67214   9.048   0.782   3.089  0.0274 -0.6105 -0.4642
  488MOL0     C67215   9.146   0.699   3.152  0.3499  0.4043  0.1729
  488MOL0     C67216   9.217   0.777   3.258  0.3742 -0.3273  1.0106
  488MOL0     C67217   9.283   0.902   3.211 -1.3078 -0.8369 -0.3160
  488MOL0     C67218   9.430   0.889   3.168  0.1062 -0.2199  0.4203
  488MOL0     C67219   9.489   1.024   3.142  0.0907  0.1605 -0.0070
  488MOL0     C67220   9.636   1.016   3.116 -0.0318  0.8081 -0.5972
  488MOL0     C67221   9.687   1.146   3.058 -0.0944 -0.0780  0.4773
  488MOL0     C67222   9.840   1.143   3.025  0.2809 -0.0047  0.3109
  488MOL0     N67223   9.875   1.267   2.954  0.1537 -0.3513  1.0346
  488MOL0     C67224   9.903   1.390   3.007 -0.7911  0.2750 -0.1467
  488MOL0     C67225   9.940   1.473   2.905 -0.9009 -0.2223  0.1173
  488MOL0     C67226   9.972   1.623   2.920  0.7350  0.0365  0.6961
  488MOL0     C67227  10.122   1.656   2.919 -1.2996  0.3285 -0.4410
  488MOL0     C67228  10.158   1.803   2.936  1.6290  0.3632  0.4036
  488MOL0     C67229  10.312   1.809   2.917 -0.1263  0.2111  0.5881
  488MOL0     O67230  10.338   1.946   2.939 -0.6479 -0.2375  0.2026
  488MOL0     C67231  10.463   1.994   2.939 -1.0570  1.6260 -0.2722
  488MOL0     C67232  10.471   2.131   2.944  1.1487 -0.3414 -0.0245
  488MOL0     C67233  10.589   2.195   2.946 -0.7457 -0.0713  0.4400
  488MOL0     C67234  10.571   2.349   2.958  0.8958 -0.6433  0.2935
  488MOL0     C67235  10.709   2.121   2.918  0.0697  0.0733 -0.3350
  488MOL0     C67236  10.844   2.183   2.913  0.8155 -0.4772  1.4249
  488MOL0     O67237  10.937   2.108   2.845 -0.1798 -0.1413  0.1009
  488MOL0     C67238  11.040   2.172   2.779  0.9403  0.1495 -0.6702
  488MOL0     C67239  11.163   2.178   2.843  0.4420 -1.6726  0.0601
  488MOL0     C67240  11.278   2.211   2.772 -0.9527  0.5565 -0.2548
  488MOL0     C67241  11.271   2.228   2.633 -0.4784  0.7214  0.0158
  488MOL0     O67242  11.387   2.234   2.557 -0.7833  0.9121  0.3890
  488MOL0     C67243  11.473   2.346   2.574  0.2010  0.0842  0.0675
  488MOL0     C67244  11.425   2.442   2.463 -0.5397 -0.3131 -0.8526
  488MOL0     C67245  11.388   2.400   2.321 -0.0635  1.3115 -1.0340
  488MOL0     C67246  11.317   2.505   2.249  0.1574 -0.5559  0.1892
  488MOL0     C67247  11.408   2.617   2.181  1.4132 -0.8820  0.1155
  488MOL0     C67248  11.312   2.730   2.132 -0.5614 -0.4327  0.4434
  488MOL0     C67249  11.376   2.818   2.024 -0.2890  0.4674  0.1346
  488MOL0     C67250  11.266   2.891   1.938 -0.1144 -0.1820 -0.8114
  488MOL0    Cl67251  11.322   3.023   1.833  0.6205 -0.2316  0.4645
  488MOL0     C67252  11.150   2.217   2.562 -0.4678  0.3555 -0.2246
  488MOL0     C67253  11.029   2.187   2.636 -0.0268  0.1739 -0.6913
  488MOL0     O67254  10.863   2.295   2.957  0.0694  0.0413  0.3011
  488MOL0     C67255  10.702   1.986   2.915 -0.4733 -0.4237  0.6138
  488MOL0     C67256  10.581   1.918   2.936 -1.2845  0.7325  0.2196
  488MOL0     N67257   9.934   1.399   2.791 -0.6432 -0.3871 -0.3354
  488MOL0     N67258   9.894   1.283   2.818 -0.3677 -0.1363 -0.5002
  488MOL0     C67259   8.849   0.739   2.977  0.1458 -0.2561  0.2494
  488MOL0     C67260   8.719   0.693   2.966 -0.3124  0.1037 -0.8398
  488MOL0     C67261   8.348   0.442   3.072  0.0902 -0.4384 -1.0223
  488MOL0     C67262   8.260   0.528   2.997 -0.2506  1.0577 -0.0430
  488MOL0     C67263   8.129   0.489   2.967 -0.4388  0.2969 -0.9989
  488MOL0     C67264   8.090   0.364   2.999  0.8221 -0.4313 -0.3127
  488MOL0     O67265   7.965   0.328   2.965 -0.0659 -0.6913 -0.4467
  488MOL0     C67266   7.910   0.203   2.997  0.5467  0.2492 -0.0330
  488MOL0     C67267   7.765   0.216   2.986 -0.2869 -0.3916  0.6251
  488MOL0     C67268   7.688   0.087   2.983  0.2120  0.1918  0.4220
  488MOL0     C67269   7.538   0.114   2.959 -0.3824  0.1753  0.4423
  488MOL0     C67270   7.470  -0.013   2.933 -0.7495  0.4517  0.2826
  488MOL0     C67271   7.419  -0.122   2.911  0.7482 -0.2227  0.7504
  488MOL0     C67272   8.187   0.278   3.069  0.3378 -0.8554 -0.5296
  488MOL0     C67273   8.314   0.308   3.109 -0.7057  0.1447  0.7513
  488MOL0     C67274   8.405   0.207   3.171 -0.1380 -0.1260  0.7832
  488MOL0     H67275   8.683   0.630   3.299  0.5758 -0.8138 -0.1653
  488MOL0     H67276   8.894   0.724   3.317 -1.0019 -3.0970  0.7784
  488MOL0     H67277   9.209   0.664   3.070  2.1835 -0.2248  1.7637
  488MOL0     H67278   9.107   0.606   3.193  3.1750 -1.3464 -0.7591
  488MOL0     H67279   9.134   0.809   3.322 -1.2480  0.2944 -1.2327
  488MOL0     H67280   9.286   0.718   3.318  1.9574 -3.3177 -3.2589
  488MOL0     H67281   9.233   0.946   3.124  1.0017 -0.2176 -1.4167
  488MOL0     H67282   9.277   0.959   3.304  2.2257 -1.9326  0.7490
  488MOL0     H67283   9.490   0.839   3.245  1.6404  2.6795  1.2576
  488MOL0     H67284   9.440   0.834   3.074  1.5939 -1.8293  1.4569
  488MOL0     H67285   9.474   1.099   3.219  0.0967  0.2640 -0.1069
  488MOL0     H67286   9.439   1.069   3.056 -0.9318 -0.9406 -0.0144
  488MOL0     H67287   9.677   0.999   3.216 -0.5864  0.4959 -0.4204
  488MOL0     H67288   9.669   0.932   3.056  1.2859 -0.4974  1.7904
  488MOL0     H67289   9.670   1.226   3.130  1.8900 -0.9214  1.9779
  488MOL0     H67290   9.638   1.169   2.963 -0.8086 -0.8840  0.6402
  488MOL0     H67291   9.890   1.145   3.123  1.9457  1.9141 -0.5257
  488MOL0     H67292   9.869   1.058   2.962  1.1667 -1.0905  2.0778
  488MOL0     H67293   9.897   1.429   3.108 -2.1700  2.3615 -0.9714
  488MOL0     H67294   9.917   1.663   3.006 -1.7946 -0.8457 -0.4131
  488MOL0     H67295   9.933   1.666   2.828 -0.2185 -1.3828  0.4080
  488MOL0     H67296  10.167   1.602   3.004 -0.2828 -0.3654 -1.3836
  488MOL0     H67297  10.170   1.600   2.839 -1.1352 -0.5641  0.2619
  488MOL0     H67298  10.109   1.862   2.858  0.2717 -0.0032  0.9529
  488MOL0     H67299  10.119   1.846   3.028 -2.6271 -2.3626  0.1425
  488MOL0     H67300  10.364   1.744   2.987  1.3503 -0.1977 -0.8373
  488MOL0     H67301  10.346   1.784   2.816  0.6793 -2.6856  1.5073
  488MOL0     H67302  10.378   2.186   2.937  1.2882  0.2365  1.8388
  488MOL0     H67303  10.576   2.366   3.066  2.7982 -0.0444  0.1568
  488MOL0     H67304  10.477   2.390   2.922  1.8460  0.7945 -0.6398
  488MOL0     H67305  10.648   2.417   2.921  1.6098 -0.8868  1.2601
  488MOL0     H67306  11.176   2.158   2.949  2.5543  1.3986  0.5160
  488MOL0     H67307  11.372   2.220   2.824 -0.9418  0.9049 -0.3372
  488MOL0     H67308  11.482   2.397   2.671  1.2622  2.4902 -1.2250
  488MOL0     H67309  11.571   2.309   2.543 -0.5416 -1.2265 -0.8319
  488MOL0     H67310  11.341   2.501   2.502  1.6054  0.8445  2.4866
  488MOL0     H67311  11.511   2.508   2.463 -0.0699 -0.9031 -0.3064
  488MOL0     H67312  11.335   2.304   2.326  0.5230  1.0342  0.4992
  488MOL0     H67313  11.485   2.386   2.273 -0.3142  3.1829 -2.2010
  488MOL0     H67314  11.248   2.553   2.318  0.0427 -0.8129  0.2513
  488MOL0     H67315  11.256   2.455   2.173 -2.3012 -0.2475  1.8675
  488MOL0     H67316  11.482   2.659   2.250  0.4452  0.6680  0.2702
  488MOL0     H67317  11.455   2.560   2.100 -1.6977 -0.4514 -2.1748
  488MOL0     H67318  11.275   2.788   2.217  0.7777 -0.3290  0.9787
  488MOL0     H67319  11.224   2.682   2.088 -1.5992  0.0240  1.9656
  488MOL0     H67320  11.427   2.763   1.944  0.0515  1.0691 -0.0717
  488MOL0     H67321  11.443   2.895   2.062 -2.3882  1.2544  2.5122
  488MOL0     H67322  11.198   2.945   2.004 -0.2526  0.3811 -1.4028
  488MOL0     H67323  11.212   2.812   1.886  0.7182  0.0601 -2.0959
  488MOL0     H67324  11.156   2.244   2.457 -1.4392  0.6597 -0.2092
  488MOL0     H67325  10.936   2.170   2.584 -0.4326 -2.7229  0.7945
  488MOL0     H67326  10.795   1.929   2.908 -0.3569 -0.3516  1.4350
  488MOL0     H67327  10.587   1.810   2.948  2.4369  1.0566  3.2375
  488MOL0     H67328   8.903   0.756   2.885  0.1969 -0.9011  0.1589
  488MOL0     H67329   8.681   0.681   2.865 -1.3083  1.1185 -0.6066
  488MOL0     H67330   8.309   0.616   2.957  3.5725 -1.1481 -0.6555
  488MOL0     H67331   8.050   0.540   2.912 -1.1791  1.0975  0.7414
  488MOL0     H67332   7.941   0.123   2.929  0.8901  1.5012 -1.3891
  488MOL0     H67333   7.935   0.179   3.101 -3.4254  0.6370  1.1510
  488MOL0     H67334   7.743   0.270   2.893 -1.9138  1.0652  1.7946
  488MOL0     H67335   7.732   0.285   3.063  0.0868  2.2337 -1.4289
  488MOL0     H67336   7.724   0.021   2.904  0.8138 -4.0195  3.8739
  488MOL0     H67337   7.682   0.045   3.084 -2.8740  2.1670  1.2093
  488MOL0     H67338   7.523   0.192   2.884 -1.6856  0.5327  1.0574
  488MOL0     H67339   7.496   0.165   3.047  0.5578  0.7039  0.6021
  488MOL0     H67340   7.369  -0.213   2.885  3.0390 -1.9515  2.0656
  488MOL0     H67341   8.149   0.188   3.115  0.1950 -1.5989 -2.0430
  488MOL0     H67342   8.509   0.209   3.134 -0.5291 -0.4621 -0.3895
  488MOL0     H67343   8.403   0.239   3.275 -1.4611 -0.3090  0.8207
  488MOL0     H67344   8.370   0.105   3.153 -0.6865  0.2268 -0.2388
  489MOL0     O67345   1.742   9.231   4.600  0.5367 -0.0144  0.1715
  489MOL0     C67346   1.786   9.123   4.558 -0.3442  0.6919 -0.0230
  489MOL0     O67347   1.913   9.092   4.544 -0.6985 -0.2307 -0.1909
  489MOL0     C67348   2.017   9.142   4.625  0.3411  0.4347 -1.0753
  489MOL0     C67349   2.000   9.169   4.762  0.4909 -1.2714  0.1349
  489MOL0     C67350   2.116   9.181   4.848  0.7054  0.2641  0.2420
  489MOL0     C67351   2.245   9.181   4.786  0.2422 -0.2948  0.3489
  489MOL0     O67352   2.356   9.199   4.866  0.0315 -0.0687  0.7236
  489MOL0     C67353   2.431   9.313   4.822  0.3562 -0.5246  0.4354
  489MOL0     C67354   2.388   9.430   4.913 -0.0861  0.0737  0.5634
  489MOL0     C67355   2.406   9.575   4.857 -0.2115  0.4385 -0.3076
  489MOL0     C67356   2.314   9.595   4.740  0.4928 -0.6533  0.5946
  489MOL0     C67357   2.289   9.739   4.686  0.1533 -0.0592  0.8456
  489MOL0     C67358   2.216   9.819   4.784 -0.2618  1.0694 -1.0557
  489MOL0     C67359   2.159   9.953   4.740 -0.6715  0.3120 -0.1249
  489MOL0     C67360   2.264  10.044   4.669  0.2451 -0.6198 -0.1890
  489MOL0     N67361   2.234  10.184   4.647 -0.3139 -0.1295 -0.4661
  489MOL0     C67362   2.170  10.244   4.537  0.7218 -0.2614  0.7911
  489MOL0     C67363   2.171  10.377   4.550  0.0490  0.7195  0.5884
  489MOL0     C67364   2.116  10.477   4.448 -0.4371  0.4627  0.6041
  489MOL0     C67365   2.138  10.620   4.472  0.6103 -1.1788  0.5139
  489MOL0     C67366   2.036  10.683   4.564 -0.1594 -0.2545  0.0764
  489MOL0     C67367   2.051  10.644   4.713  0.3942 -0.8304  0.1265
  489MOL0     O67368   1.969  10.714   4.811  0.4490 -0.3645  0.3233
  489MOL0     C67369   2.045  10.804   4.890  0.6703  0.3387  0.2344
  489MOL0     C67370   2.030  10.796   5.030 -0.9682  0.2422 -0.2464
  489MOL0     C67371   2.101  10.875   5.123 -0.6361  1.0417  0.3937
  489MOL0     C67372   2.080  10.860   5.276 -0.1466 -0.2323 -0.0279
  489MOL0     C67373   2.187  10.975   5.070 -0.0541 -0.7087 -0.6107
  489MOL0     C67374   2.260  11.078   5.146 -0.1242 -0.5566  0.9314
  489MOL0     O67375   2.258  11.217   5.107 -0.1310  0.4018  0.6774
  489MOL0     C67376   2.317  11.320   5.178  0.1876 -0.4329  0.2841
  489MOL0     C67377   2.345  11.319   5.318  0.4802  0.5781  1.2597
  489MOL0     C67378   2.398  11.433   5.385  0.5814  0.1401 -0.2383
  489MOL0     C67379   2.424  11.551   5.319 -0.4194 -0.3705 -0.3867
  489MOL0     O67380   2.484  11.661   5.371 -0.7802  0.4789 -0.3160
  489MOL0     C67381   2.522  11.677   5.509 -0.5142  0.7655 -0.6306
  489MOL0     C67382   2.677  11.669   5.512 -0.3203  0.0493 -0.0406
  489MOL0     C67383   2.738  11.726   5.642 -0.7808 -0.3629  1.1524
  489MOL0     C67384   2.893  11.732   5.634  0.2460  0.1533  0.0245
  489MOL0     C67385   2.960  11.740   5.774 -0.5366  0.3582  0.7333
  489MOL0     C67386   2.946  11.880   5.842 -0.5380 -0.0289 -0.1783
  489MOL0     C67387   3.009  11.891   5.978  0.4159  0.0197  0.8749
  489MOL0     C67388   2.913  11.878   6.100  1.1481  0.4554  0.1229
  489MOL0    Cl67389   2.880  11.713   6.145  0.0973  0.4065 -0.6406
  489MOL0     C67390   2.390  11.551   5.183  0.0819 -0.2041 -0.3142
  489MOL0     C67391   2.343  11.439   5.116 -0.5290  0.0979 -0.3181
  489MOL0     O67392   2.324  11.029   5.239  0.2824  0.7214  0.5472
  489MOL0     C67393   2.204  10.985   4.932  0.1746 -0.6854  0.5977
  489MOL0     C67394   2.135  10.904   4.840  0.5603 -0.4538 -0.1835
  489MOL0     N67395   2.252  10.400   4.657 -0.3615 -0.5816  0.1904
  489MOL0     N67396   2.300  10.291   4.706 -0.7931  0.2132 -0.0640
  489MOL0     C67397   2.259   9.154   4.651 -0.0205  0.1994 -0.7414
  489MOL0     C67398   2.148   9.132   4.576  0.4697 -0.3529 -0.0562
  489MOL0     C67399   1.691   9.032   4.483  0.4352 -0.6003 -1.1954
  489MOL0     C67400   1.701   9.014   4.351 -0.6385 -0.0639 -0.3701
  489MOL0     C67401   1.608   8.943   4.280 -0.6883 -0.8334 -0.0998
  489MOL0     C67402   1.493   8.893   4.334  1.2277  0.7143 -0.0231
  489MOL0     O67403   1.397   8.830   4.256 -0.0580 -0.4851  0.1211
  489MOL0     C67404   1.377   8.856   4.117  0.5474 -1.5229 -0.9577
  489MOL0     C67405   1.322   9.009   4.093 -0.5771  0.6800 -1.0817
  489MOL0     C67406   1.203   9.039   4.183  0.1025 -0.2207 -0.6530
  489MOL0     C67407   1.193   9.198   4.198 -0.4288  0.2922 -0.2861
  489MOL0     C67408   1.087   9.218   4.295  0.0700  0.0182 -0.0426
  489MOL0     C67409   1.006   9.255   4.381  0.0899  0.8669 -0.2245
  489MOL0     C67410   1.479   8.915   4.471  0.0862 -0.0386 -0.1596
  489MOL0     C67411   1.575   8.979   4.552 -0.9861 -0.4237 -0.2779
  489MOL0     C67412   1.558   8.980   4.704 -0.3144 -0.0338 -0.2440
  489MOL0     H67413   1.900   9.178   4.804 -0.3021  0.5978 -1.9552
  489MOL0     H67414   2.115   9.206   4.954 -0.2342 -1.8040  0.7835
  489MOL0     H67415   2.422   9.345   4.718 -0.8713  1.9115  1.2141
  489MOL0     H67416   2.538   9.291   4.827  0.1366 -2.7842 -2.4022
  489MOL0     H67417   2.281   9.417   4.933 -0.0787 -1.4189 -0.1847
  489MOL0     H67418   2.447   9.418   5.004  0.0168 -2.4314  0.2490
  489MOL0     H67419   2.376   9.640   4.940 -1.8207 -1.0042  0.2826
  489MOL0     H67420   2.510   9.599   4.833 -0.2279 -1.3645 -2.4441
  489MOL0     H67421   2.356   9.544   4.653 -1.6656 -1.4666 -0.0384
  489MOL0     H67422   2.214   9.552   4.749  0.2401 -0.2658 -0.3118
  489MOL0     H67423   2.251   9.741   4.584  1.5920 -2.1265  0.2095
  489MOL0     H67424   2.387   9.788   4.684  0.5973 -0.8824 -2.3184
  489MOL0     H67425   2.154   9.749   4.840  1.6997 -1.1893 -1.5638
  489MOL0     H67426   2.279   9.849   4.868  0.0407 -1.7675 -0.1822
  489MOL0     H67427   2.124   9.992   4.836  0.1102  1.8631 -0.4335
  489MOL0     H67428   2.086   9.937   4.660 -1.1683 -2.9229  0.8484
  489MOL0     H67429   2.350  10.024   4.734 -1.3527 -1.8675  1.6656
  489MOL0     H67430   2.292  10.017   4.567  1.4897  2.0488 -0.6483
  489MOL0     H67431   2.110  10.198   4.460  3.1737 -0.7568 -0.9373
  489MOL0     H67432   2.009  10.456   4.444 -0.0771 -1.4677 -0.8604
  489MOL0     H67433   2.146  10.445   4.348  1.1709  0.0142  1.1935
  489MOL0     H67434   2.237  10.632   4.517 -0.0289  0.8842  1.4757
  489MOL0     H67435   2.147  10.691   4.390  4.1611  0.6470  2.2614
  489MOL0     H67436   2.056  10.791   4.569 -0.5828 -0.0358 -1.9785
  489MOL0     H67437   1.939  10.651   4.526  0.6671 -3.1342  0.1700
  489MOL0     H67438   2.038  10.536   4.724  2.4343 -1.3440 -1.6718
  489MOL0     H67439   2.158  10.661   4.728  0.6003 -0.2091 -1.8010
  489MOL0     H67440   1.974  10.707   5.058 -0.6333  0.3922  0.9836
  489MOL0     H67441   2.171  10.814   5.316 -0.3596  0.3086  1.0949
  489MOL0     H67442   2.009  10.779   5.295  2.5426 -2.3800  1.5767
  489MOL0     H67443   2.051  10.952   5.326 -0.5668 -0.9262  1.0461
  489MOL0     H67444   2.325  11.232   5.381  0.3044 -0.9113 -0.7339
  489MOL0     H67445   2.420  11.433   5.491 -0.0285 -2.2320 -0.0595
  489MOL0     H67446   2.499  11.780   5.538  0.5934  0.5197  1.2399
  489MOL0     H67447   2.464  11.619   5.581  0.5189  0.7207  0.1897
  489MOL0     H67448   2.697  11.562   5.522 -3.0500 -0.5426 -0.1254
  489MOL0     H67449   2.728  11.711   5.425  1.6208 -1.8287  0.1144
  489MOL0     H67450   2.712  11.666   5.729 -0.7864  0.3394  1.6446
  489MOL0     H67451   2.704  11.829   5.657  3.3096  1.2043  1.0348
  489MOL0     H67452   2.921  11.818   5.573 -1.4244  0.2260 -0.6997
  489MOL0     H67453   2.926  11.637   5.591 -0.5762  0.0783 -0.4588
  489MOL0     H67454   2.917  11.666   5.841 -3.4153  0.9664 -0.2966
  489MOL0     H67455   3.068  11.725   5.764 -0.4442  1.9465 -1.2821
  489MOL0     H67456   2.840  11.906   5.837 -0.4673  0.1707 -0.7759
  489MOL0     H67457   2.985  11.962   5.781 -0.5792  0.5701  0.5801
  489MOL0     H67458   3.053  11.991   5.986  3.3242 -1.1478  0.7246
  489MOL0     H67459   3.091  11.819   5.989  2.0497  0.8042 -3.8527
  489MOL0     H67460   2.820  11.930   6.075 -0.5331 -1.2111  2.4654
  489MOL0     H67461   2.953  11.928   6.189 -3.4142  1.1566  2.0860
  489MOL0     H67462   2.416  11.638   5.124  4.2606 -1.9993 -1.5131
  489MOL0     H67463   2.329  11.433   5.009 -1.2264  0.5379 -0.2577
  489MOL0     H67464   2.266  11.064   4.890 -1.5971  1.2480  1.3990
  489MOL0     H67465   2.153  10.904   4.733  0.4900 -3.3569 -0.2754
  489MOL0     H67466   2.356   9.130   4.609 -0.6025 -0.4018 -1.7891
  489MOL0     H67467   2.171   9.094   4.477 -0.6012  0.8759 -0.8027
  489MOL0     H67468   1.785   9.065   4.304 -0.2506 -0.4527 -0.1095
  489MOL0     H67469   1.621   8.946   4.172  3.4476  1.7095  0.2665
  489MOL0     H67470   1.462   8.835   4.052  0.0072 -1.3579 -1.7200
  489MOL0     H67471   1.291   8.794   4.091 -0.6290 -0.7779  0.9342
  489MOL0     H67472   1.283   9.027   3.993 -3.4600  0.0748 -0.1540
  489MOL0     H67473   1.399   9.085   4.108 -0.1044  0.0040  0.1368
  489MOL0     H67474   1.115   9.006   4.128 -1.4208  3.1414 -0.4733
  489MOL0     H67475   1.208   8.984   4.277  1.7300  1.8668  0.5717
  489MOL0     H67476   1.177   9.256   4.106  2.1907 -0.5384 -1.3663
  489MOL0     H67477   1.281   9.241   4.247 -0.4045 -0.8994  0.7799
  489MOL0     H67478   0.936   9.264   4.462 -0.2036 -1.9950 -0.0460
  489MOL0     H67479   1.388   8.885   4.523  0.1630  3.1084  2.0568
  489MOL0     H67480   1.467   8.931   4.738 -2.9208  3.3928 -1.7017
  489MOL0     H67481   1.645   8.937   4.755  1.5013  1.5259 -1.8650
  489MOL0     H67482   1.543   9.084   4.733  0.4835 -0.6353  2.7650
  490MOL0     O67483   5.110   4.708   4.075 -0.1483 -0.2336 -0.7032
  490MOL0     C67484   5.169   4.657   3.978  0.1500 -0.1413  0.3079
  490MOL0     O67485   5.295   4.607   3.972  0.6365 -0.7870 -0.4822
  490MOL0     C67486   5.372   4.668   4.068 -0.1818  0.9970 -0.5024
  490MOL0     C67487   5.440   4.780   4.047 -0.2030 -0.1267  0.3929
  490MOL0     C67488   5.518   4.841   4.154 -0.1399  0.1924 -0.0463
  490MOL0     C67489   5.535   4.774   4.270 -0.2930  0.1629 -0.8171
  490MOL0     O67490   5.614   4.807   4.384 -0.1423  0.7651  0.4766
  490MOL0     C67491   5.569   4.908   4.471 -0.3128  0.4151  0.2439
  490MOL0     C67492   5.622   5.042   4.432 -0.0247 -0.2156 -0.3756
  490MOL0     C67493   5.779   5.044   4.448  0.6783  0.2862 -0.2262
  490MOL0     C67494   5.841   5.185   4.427 -1.0297  0.5595  0.3200
  490MOL0     C67495   5.990   5.209   4.468  0.7227 -0.3298 -0.0084
  490MOL0     C67496   6.061   5.323   4.382  0.6817 -0.0084 -0.6973
  490MOL0     C67497   6.186   5.368   4.453 -0.6905 -0.3001  0.0814
  490MOL0     C67498   6.242   5.483   4.362 -0.3521  0.1917  0.5630
  490MOL0     N67499   6.268   5.611   4.436  0.6245  1.1409 -0.1553
  490MOL0     C67500   6.329   5.633   4.555 -0.2665  0.2708 -0.5124
  490MOL0     C67501   6.340   5.764   4.566  0.7679  0.2866 -0.7354
  490MOL0     C67502   6.414   5.838   4.681 -0.1578 -0.6733 -0.1260
  490MOL0     C67503   6.313   5.890   4.781  0.1580  0.4864  0.0442
  490MOL0     C67504   6.375   5.936   4.915  0.6916  0.2736 -0.4913
  490MOL0     C67505   6.278   6.024   4.995  0.0226  0.2451  0.5514
  490MOL0     O67506   6.318   6.048   5.127  0.2422  0.1023 -0.3508
  490MOL0     C67507   6.327   5.947   5.224 -0.0075 -0.2227 -0.0910
  490MOL0     C67508   6.260   5.820   5.213 -0.1864 -0.9492  0.9031
  490MOL0     C67509   6.270   5.724   5.313 -0.1539 -0.5574 -0.5839
  490MOL0     C67510   6.189   5.590   5.294 -0.8333 -0.2138  0.0496
  490MOL0     C67511   6.355   5.761   5.424  0.0016 -0.8600  0.0508
  490MOL0     C67512   6.363   5.670   5.546  0.0284  0.2005  0.3845
  490MOL0     O67513   6.382   5.533   5.529  0.1110 -0.3802 -0.5783
  490MOL0     C67514   6.360   5.453   5.645 -0.3813 -0.1253  0.6949
  490MOL0     C67515   6.232   5.423   5.682  0.4860 -0.5006  0.1806
  490MOL0     C67516   6.211   5.357   5.806 -0.7608 -0.1848 -0.0919
  490MOL0     C67517   6.322   5.324   5.890 -0.5994  0.2498 -0.2531
  490MOL0     O67518   6.311   5.264   6.013  1.6725  0.1171  1.0935
  490MOL0     C67519   6.176   5.273   6.074  0.6739 -0.2857 -0.6541
  490MOL0     C67520   6.165   5.169   6.190  0.7005 -0.1940  0.9303
  490MOL0     C67521   6.217   5.222   6.321 -0.7307 -0.1004 -0.3294
  490MOL0     C67522   6.372   5.206   6.332 -0.0045 -0.0213  0.5436
  490MOL0     C67523   6.432   5.272   6.457 -0.5250 -0.1708 -0.7626
  490MOL0     C67524   6.582   5.248   6.476 -0.0039  0.1104  0.0415
  490MOL0     C67525   6.667   5.325   6.372 -0.4348  0.4413  1.1928
  490MOL0     C67526   6.816   5.297   6.401 -0.3754  0.1375 -0.8102
  490MOL0    Cl67527   6.913   5.331   6.249  0.3425  0.0445 -0.0810
  490MOL0     C67528   6.452   5.345   5.837 -0.1041  0.1212 -0.3651
  490MOL0     C67529   6.462   5.416   5.718 -0.6731 -0.9653  0.2637
  490MOL0     O67530   6.346   5.717   5.657 -0.2292  0.0506 -0.3237
  490MOL0     C67531   6.413   5.886   5.442  1.1871  0.2239  0.0098
  490MOL0     C67532   6.403   5.974   5.334  0.1563  0.1194 -0.2509
  490MOL0     N67533   6.273   5.823   4.460 -0.7372 -0.2317  0.1535
  490MOL0     N67534   6.226   5.733   4.378 -0.5944 -0.7456 -0.4623
  490MOL0     C67535   5.476   4.650   4.288 -0.2145  0.7641 -0.4596
  490MOL0     C67536   5.391   4.599   4.194  0.3537 -1.2879  1.4407
  490MOL0     C67537   5.103   4.631   3.847  0.9908  0.1033 -0.7566
  490MOL0     C67538   5.170   4.550   3.753  0.5001  0.9784 -0.8350
  490MOL0     C67539   5.129   4.545   3.621 -0.2724  0.2782  0.3048
  490MOL0     C67540   5.007   4.594   3.585 -0.5687  0.0507  0.0659
  490MOL0     O67541   4.964   4.574   3.456  0.5406  0.0907  0.4789
  490MOL0     C67542   4.847   4.641   3.421 -0.2492  0.0533  0.8707
  490MOL0     C67543   4.793   4.606   3.283 -0.0637 -0.7990 -0.3853
  490MOL0     C67544   4.892   4.630   3.174  0.4677 -0.4406 -0.0965
  490MOL0     C67545   4.856   4.743   3.072 -0.1276 -0.3936  0.3729
  490MOL0     C67546   4.827   4.870   3.138 -0.4655  0.1559 -1.0062
  490MOL0     C67547   4.820   4.978   3.198 -0.6512 -0.1405  0.7259
  490MOL0     C67548   4.929   4.664   3.681  0.4650 -0.1479 -0.3657
  490MOL0     C67549   4.974   4.688   3.813  0.4072  0.3749  0.7574
  490MOL0     C67550   4.884   4.768   3.908  0.0535  0.8103  0.3663
  490MOL0     H67551   5.446   4.828   3.950  0.4520 -0.4301  0.2813
  490MOL0     H67552   5.571   4.933   4.131 -1.3831  1.0713  0.4965
  490MOL0     H67553   5.597   4.888   4.575  0.1498 -0.6289 -0.0670
  490MOL0     H67554   5.460   4.901   4.469 -0.2052 -2.1097 -0.9707
  490MOL0     H67555   5.592   5.061   4.328  2.0678 -0.5807 -1.1073
  490MOL0     H67556   5.600   5.122   4.503  1.3428 -2.8960  3.3947
  490MOL0     H67557   5.809   4.996   4.542 -3.1990 -1.9201  0.0997
  490MOL0     H67558   5.816   4.980   4.367  0.7857  0.0280  0.0234
  490MOL0     H67559   5.849   5.191   4.318  1.1145 -2.5264  0.1933
  490MOL0     H67560   5.777   5.265   4.465 -0.6413  1.0890 -0.1155
  490MOL0     H67561   6.048   5.119   4.447  0.6901  0.3521 -3.8777
  490MOL0     H67562   5.991   5.240   4.573  0.5477  2.1152 -0.6491
  490MOL0     H67563   6.062   5.292   4.277 -0.2176 -3.8415  0.2470
  490MOL0     H67564   5.991   5.407   4.385 -0.5145 -0.9317 -1.6918
  490MOL0     H67565   6.260   5.287   4.461  0.3023  0.7684  3.2663
  490MOL0     H67566   6.149   5.404   4.549 -0.7784  2.4030 -0.8803
  490MOL0     H67567   6.335   5.440   4.324 -0.2225  3.1797 -3.0393
  490MOL0     H67568   6.184   5.503   4.272  3.1410  2.4932 -1.3934
  490MOL0     H67569   6.366   5.574   4.637 -0.7375  2.9661  1.7886
  490MOL0     H67570   6.486   5.911   4.643 -1.3367  0.4476 -0.2488
  490MOL0     H67571   6.475   5.758   4.726 -0.3491  0.4164  2.1853
  490MOL0     H67572   6.264   5.977   4.738 -2.2112  0.0115  1.5788
  490MOL0     H67573   6.243   5.810   4.804  0.2915 -0.1115 -1.5672
  490MOL0     H67574   6.383   5.839   4.963 -0.6945  0.6184  0.5063
  490MOL0     H67575   6.475   5.977   4.899  0.1905  0.8386 -2.5473
  490MOL0     H67576   6.261   6.118   4.941  1.4686 -0.0824 -0.5069
  490MOL0     H67577   6.186   5.964   5.000 -0.9704  1.2639 -2.7546
  490MOL0     H67578   6.201   5.797   5.124 -1.8238 -0.1874  1.7587
  490MOL0     H67579   6.089   5.606   5.335 -0.6686 -1.1435  0.8311
  490MOL0     H67580   6.230   5.503   5.344  0.3919  0.9418  1.1470
  490MOL0     H67581   6.194   5.566   5.187  0.4088  1.0665 -0.2214
  490MOL0     H67582   6.145   5.450   5.624 -0.0667  0.3350  1.3693
  490MOL0     H67583   6.107   5.343   5.836 -1.1845  1.7623 -0.5116
  490MOL0     H67584   6.159   5.374   6.112 -1.0607 -1.1347  0.9651
  490MOL0     H67585   6.088   5.273   6.010 -1.6162  4.1430  2.0601
  490MOL0     H67586   6.056   5.158   6.197  0.8109 -1.3340  1.1848
  490MOL0     H67587   6.212   5.076   6.157 -0.4715 -0.0812 -1.2627
  490MOL0     H67588   6.159   5.164   6.394 -0.0999 -0.2034  0.0992
  490MOL0     H67589   6.189   5.326   6.340 -0.6064 -0.2341  0.6367
  490MOL0     H67590   6.413   5.259   6.245 -0.4407  0.8630  0.8670
  490MOL0     H67591   6.398   5.100   6.331 -0.9733 -0.2674 -1.0253
  490MOL0     H67592   6.420   5.380   6.453 -3.2576 -0.3730  0.2950
  490MOL0     H67593   6.380   5.245   6.549  3.6151  2.7503  2.8629
  490MOL0     H67594   6.619   5.146   6.470 -1.4009 -0.4142 -0.0903
  490MOL0     H67595   6.613   5.281   6.575  0.6514  2.7755 -0.9617
  490MOL0     H67596   6.644   5.432   6.370 -0.9366  0.3990  3.2979
  490MOL0     H67597   6.649   5.281   6.273  0.9497  4.3508 -1.0501
  490MOL0     H67598   6.822   5.192   6.429 -2.4460 -0.2494 -1.5870
  490MOL0     H67599   6.862   5.363   6.474  3.0229 -1.5954 -1.2088
  490MOL0     H67600   6.542   5.324   5.895 -0.9789  2.1345  1.8843
  490MOL0     H67601   6.554   5.454   5.675 -2.5570 -0.2781 -3.6135
  490MOL0     H67602   6.478   5.902   5.528 -0.7423 -1.6414  1.9736
  490MOL0     H67603   6.433   6.078   5.338  0.2240  0.2117 -2.0840
  490MOL0     H67604   5.499   4.588   4.374  0.8979  0.1800 -1.1443
  490MOL0     H67605   5.335   4.510   4.221 -3.9369  0.4070 -0.9511
  490MOL0     H67606   5.272   4.518   3.770  1.2841  3.3314 -0.7538
  490MOL0     H67607   5.197   4.494   3.553  3.4279  1.6786  2.6533
  490MOL0     H67608   4.762   4.615   3.484 -2.0061 -0.9206 -1.7131
  490MOL0     H67609   4.864   4.749   3.427  2.1968 -0.0173 -1.9882
  490MOL0     H67610   4.710   4.677   3.269  1.8378  1.8785  0.8815
  490MOL0     H67611   4.755   4.504   3.285  1.5087 -1.4347 -1.3406
  490MOL0     H67612   4.992   4.665   3.202 -0.5024  2.1895  0.3788
  490MOL0     H67613   4.903   4.534   3.122  1.5834 -1.5640  2.0712
  490MOL0     H67614   4.763   4.713   3.024 -1.5016 -1.1915  3.2799
  490MOL0     H67615   4.940   4.768   3.006 -0.3847 -1.4892 -0.3953
  490MOL0     H67616   4.793   5.057   3.266 -1.2485 -1.2492  1.8297
  490MOL0     H67617   4.826   4.689   3.658 -0.5690 -2.9877  0.6288
  490MOL0     H67618   4.937   4.848   3.960  1.5674  1.7867 -2.4445
  490MOL0     H67619   4.798   4.812   3.856 -0.9553  1.5153  2.5005
  490MOL0     H67620   4.834   4.707   3.984  1.1281  0.8611  1.1302
  491MOL0     O67621   8.841   6.365   3.491 -0.8564 -0.1330 -1.0210
  491MOL0     C67622   8.839   6.260   3.562  0.2154 -0.0678 -0.9395
  491MOL0     O67623   8.725   6.180   3.573 -0.4265 -0.3748  0.2018
  491MOL0     C67624   8.619   6.184   3.485 -0.1491  0.0172  0.2804
  491MOL0     C67625   8.623   6.246   3.360 -0.6642  0.0532  0.0692
  491MOL0     C67626   8.503   6.239   3.277 -0.1363 -0.3518 -0.0265
  491MOL0     C67627   8.391   6.164   3.316  0.1362  0.0945 -0.9403
  491MOL0     O67628   8.283   6.174   3.243 -0.3328 -0.7643 -0.7391
  491MOL0     C67629   8.184   6.077   3.257  0.0518  0.0473  0.3740
  491MOL0     C67630   8.090   6.081   3.132 -0.4062 -0.4277  0.0271
  491MOL0     C67631   7.985   6.196   3.136  0.3082 -0.0515  0.0462
  491MOL0     C67632   7.923   6.224   3.004 -0.2219 -0.6588  0.0095
  491MOL0     C67633   8.001   6.318   2.910  0.9703  0.9577 -0.0050
  491MOL0     C67634   7.921   6.361   2.791 -0.2941 -0.0261  0.4701
  491MOL0     C67635   7.992   6.415   2.660 -0.0977 -0.8265 -1.2515
  491MOL0     C67636   8.070   6.545   2.683 -0.0348  0.1369 -0.4402
  491MOL0     N67637   8.139   6.591   2.557 -0.0140  0.2639 -0.2977
  491MOL0     C67638   8.064   6.649   2.457  0.1642 -0.9221  0.0206
  491MOL0     C67639   8.167   6.681   2.368 -0.1499 -0.0261 -0.4550
  491MOL0     C67640   8.149   6.760   2.247 -0.3295  0.0905  0.9933
  491MOL0     C67641   8.139   6.909   2.287 -0.4532  0.1669  0.4288
  491MOL0     C67642   8.270   6.986   2.300  0.3017 -0.2948  0.1131
  491MOL0     C67643   8.239   7.138   2.309  0.2505  0.4886  0.7131
  491MOL0     O67644   8.186   7.169   2.439  0.3071  0.1395  0.2512
  491MOL0     C67645   8.269   7.172   2.544  0.4682  0.4896 -0.8026
  491MOL0     C67646   8.409   7.168   2.550 -0.2867  0.6708  0.1618
  491MOL0     C67647   8.485   7.165   2.663 -0.2710 -0.5415  0.7693
  491MOL0     C67648   8.634   7.155   2.661  0.2038  0.8138 -0.2429
  491MOL0     C67649   8.416   7.170   2.786 -0.2761 -0.6157 -0.6091
  491MOL0     C67650   8.472   7.167   2.917  0.8406  0.4965  0.5112
  491MOL0     O67651   8.418   7.247   3.012  0.4081 -0.0942  0.3318
  491MOL0     C67652   8.445   7.229   3.146 -0.3760  0.3226  0.1764
  491MOL0     C67653   8.413   7.102   3.207 -0.5424 -0.5560  0.1117
  491MOL0     C67654   8.420   7.096   3.347 -0.4036  0.4721  0.2750
  491MOL0     C67655   8.477   7.199   3.424 -0.4207 -0.1526 -0.0933
  491MOL0     O67656   8.497   7.187   3.558 -0.0272 -0.1484 -0.1728
  491MOL0     C67657   8.478   7.066   3.630 -0.0071  0.1678 -0.8327
  491MOL0     C67658   8.412   7.105   3.759 -0.0179  0.6003  0.7584
  491MOL0     C67659   8.428   6.990   3.867  0.1439  0.4947 -0.6153
  491MOL0     C67660   8.335   6.869   3.847  0.2991  0.2733 -0.0736
  491MOL0     C67661   8.398   6.747   3.777  0.1737  1.3939 -0.4038
  491MOL0     C67662   8.359   6.605   3.843  0.1059 -0.8001 -0.6698
  491MOL0     C67663   8.377   6.494   3.743  0.1036  0.3405  0.2279
  491MOL0     C67664   8.345   6.357   3.793  0.5011  0.4436  0.0878
  491MOL0    Cl67665   8.469   6.320   3.925  0.0383  0.4101 -0.0733
  491MOL0     C67666   8.522   7.321   3.369  0.6782  0.0267  0.1051
  491MOL0     C67667   8.500   7.333   3.225 -0.2240 -0.6230 -0.6267
  491MOL0     O67668   8.558   7.085   2.942  0.2319  0.6294 -0.3936
  491MOL0     C67669   8.278   7.182   2.787  0.3463  0.7065  0.5024
  491MOL0     C67670   8.207   7.183   2.668  0.3042 -0.8836 -0.2626
  491MOL0     N67671   8.287   6.645   2.427 -1.2624  0.8239  0.0401
  491MOL0     N67672   8.272   6.598   2.537  0.1393  0.4671 -0.0405
  491MOL0     C67673   8.400   6.103   3.441  1.2334  0.2081 -0.0111
  491MOL0     C67674   8.508   6.119   3.530 -0.3747  0.0349  0.0361
  491MOL0     C67675   8.953   6.221   3.643 -0.2494 -0.1114 -0.0171
  491MOL0     C67676   8.946   6.225   3.792  0.6795 -0.5974  0.2787
  491MOL0     C67677   9.060   6.214   3.866  0.1619 -0.3701  0.0340
  491MOL0     C67678   9.190   6.193   3.806 -0.5624 -0.0351 -0.1954
  491MOL0     O67679   9.300   6.177   3.885  0.1437 -0.3901 -0.0381
  491MOL0     C67680   9.304   6.262   4.004  0.2308 -0.4194 -0.3580
  491MOL0     C67681   9.450   6.270   4.037  0.0273  0.1038 -0.2143
  491MOL0     C67682   9.469   6.340   4.171  0.4818 -0.1118  1.0508
  491MOL0     C67683   9.618   6.324   4.207 -0.0065  0.1129  0.3459
  491MOL0     C67684   9.645   6.380   4.344 -1.0693 -0.8808 -0.8942
  491MOL0     C67685   9.659   6.408   4.463  0.7097  0.4038 -0.7701
  491MOL0     C67686   9.198   6.194   3.668 -0.1852 -0.4985  0.0629
  491MOL0     C67687   9.089   6.219   3.590  0.3569 -0.3861  0.6926
  491MOL0     C67688   9.116   6.219   3.446 -0.5357 -0.1263 -0.4886
  491MOL0     H67689   8.712   6.293   3.320  1.4565 -2.2144  1.7652
  491MOL0     H67690   8.492   6.288   3.180 -4.2840  1.1278  0.9606
  491MOL0     H67691   8.123   6.084   3.347 -3.0176  1.0167 -1.6292
  491MOL0     H67692   8.230   5.979   3.239  0.0291 -0.1176  1.2066
  491MOL0     H67693   8.157   6.103   3.048  1.5501  0.0833  1.6281
  491MOL0     H67694   8.046   5.981   3.138 -1.8984  0.1551 -0.7419
  491MOL0     H67695   7.908   6.160   3.205 -0.2278 -3.2716 -2.0207
  491MOL0     H67696   8.030   6.290   3.168 -1.3193  0.8882 -0.3061
  491MOL0     H67697   7.904   6.131   2.949 -1.5452  1.8632 -4.3785
  491MOL0     H67698   7.827   6.276   3.013  1.4935  2.7370  0.3316
  491MOL0     H67699   8.098   6.275   2.881  1.3456  1.3690  0.6310
  491MOL0     H67700   8.028   6.413   2.956  0.1261  1.8148 -1.2060
  491MOL0     H67701   7.879   6.263   2.766 -0.6325 -0.1216  1.3851
  491MOL0     H67702   7.839   6.428   2.818  0.9290  1.5226  0.4787
  491MOL0     H67703   7.915   6.436   2.585 -1.6905 -0.2701  0.4658
  491MOL0     H67704   8.068   6.345   2.624  1.6312  0.7822 -0.8867
  491MOL0     H67705   8.001   6.620   2.722 -0.8691 -1.2080  0.7879
  491MOL0     H67706   8.150   6.546   2.758 -0.3854 -0.7382 -0.0431
  491MOL0     H67707   7.963   6.689   2.461  0.2920 -0.5783 -0.1215
  491MOL0     H67708   8.071   6.720   2.183  2.0325  0.0619 -2.1266
  491MOL0     H67709   8.246   6.752   2.196 -1.1800  1.7524 -1.0142
  491MOL0     H67710   8.088   6.963   2.206 -1.8897 -0.5442  0.8417
  491MOL0     H67711   8.071   6.917   2.372 -1.2203  2.4812 -0.3150
  491MOL0     H67712   8.328   6.943   2.382 -0.2720 -0.2998  0.5211
  491MOL0     H67713   8.333   6.972   2.212  1.3766  2.4629  0.3293
  491MOL0     H67714   8.334   7.189   2.292  1.7739 -3.2110 -4.2374
  491MOL0     H67715   8.166   7.169   2.234  1.6755  2.4835  0.0643
  491MOL0     H67716   8.465   7.164   2.458 -1.0158 -1.5000 -0.2429
  491MOL0     H67717   8.657   7.050   2.644 -2.8593 -0.3610  2.0629
  491MOL0     H67718   8.677   7.193   2.754  0.8626 -0.2673 -0.0971
  491MOL0     H67719   8.677   7.205   2.573  0.8497 -1.3860 -1.2370
  491MOL0     H67720   8.360   7.035   3.140 -1.1216 -0.2625  0.2638
  491MOL0     H67721   8.392   7.001   3.393 -0.8572  1.0601  1.2530
  491MOL0     H67722   8.415   6.989   3.584  1.6226 -1.5731 -0.2816
  491MOL0     H67723   8.579   7.028   3.649 -0.0393 -0.3481 -1.6475
  491MOL0     H67724   8.459   7.196   3.794  1.3273 -0.1108  0.8669
  491MOL0     H67725   8.305   7.105   3.733  0.5529 -0.1858 -1.9617
  491MOL0     H67726   8.424   7.031   3.968 -2.2975  0.1637 -0.5143
  491MOL0     H67727   8.532   6.955   3.871  0.6197  1.9409  0.7979
  491MOL0     H67728   8.260   6.895   3.772  1.0256 -0.1503 -0.9581
  491MOL0     H67729   8.276   6.846   3.936  0.0169 -2.0334 -0.7934
  491MOL0     H67730   8.363   6.743   3.673 -1.4913  0.4202  0.1567
  491MOL0     H67731   8.507   6.741   3.775  0.1777  1.2548 -2.8002
  491MOL0     H67732   8.256   6.613   3.878  1.0709 -0.4333  2.3707
  491MOL0     H67733   8.424   6.583   3.929  0.9305 -1.4885 -1.4489
  491MOL0     H67734   8.478   6.502   3.703  0.7958 -1.6626  1.4671
  491MOL0     H67735   8.301   6.509   3.665 -0.7838  2.5482  1.4365
  491MOL0     H67736   8.335   6.284   3.712 -0.3354 -2.7231  2.8167
  491MOL0     H67737   8.249   6.361   3.845  0.1683  1.1761 -0.5641
  491MOL0     H67738   8.574   7.399   3.424 -1.8274  3.5716 -2.1479
  491MOL0     H67739   8.533   7.425   3.178  2.2292 -1.4434 -0.6381
  491MOL0     H67740   8.217   7.188   2.876  0.1433 -3.6782  0.8554
  491MOL0     H67741   8.099   7.198   2.675  0.3320  0.3167 -1.7278
  491MOL0     H67742   8.312   6.075   3.497  1.7529 -0.1527  0.6337
  491MOL0     H67743   8.502   6.081   3.632 -0.6913  3.0286  1.2329
  491MOL0     H67744   8.854   6.252   3.842  1.4547  2.3387  0.3440
  491MOL0     H67745   9.046   6.228   3.973 -1.9457  1.7677 -0.4394
  491MOL0     H67746   9.258   6.361   3.999  0.0702 -0.4438  0.5567
  491MOL0     H67747   9.252   6.202   4.080 -0.1719 -0.2275 -0.4781
  491MOL0     H67748   9.512   6.302   3.953 -1.8711  2.2580 -0.8818
  491MOL0     H67749   9.475   6.164   4.047  0.7562  0.0928 -1.8933
  491MOL0     H67750   9.435   6.444   4.166  2.5134  0.5940  0.8858
  491MOL0     H67751   9.414   6.279   4.244 -2.6123 -0.2387 -1.1860
  491MOL0     H67752   9.688   6.366   4.134 -0.8321  1.7058  0.4266
  491MOL0     H67753   9.637   6.216   4.212  0.3832  0.0379 -1.8121
  491MOL0     H67754   9.673   6.416   4.569  1.7425  0.0785 -0.8699
  491MOL0     H67755   9.298   6.187   3.626  0.4449 -0.3953  1.4648
  491MOL0     H67756   9.118   6.323   3.411 -1.8940 -0.0020 -0.2786
  491MOL0     H67757   9.210   6.171   3.420 -0.5629 -0.0097 -0.8127
  491MOL0     H67758   9.044   6.163   3.386 -0.7557 -0.0170 -0.3294
  492MOL0     O67759   1.347  11.298  10.014 -0.5239  0.3568  0.2672
  492MOL0     C67760   1.336  11.313   9.891  0.0862 -0.0391  0.2702
  492MOL0     O67761   1.392  11.413   9.817  0.2928  0.2910 -0.7425
  492MOL0     C67762   1.480  11.498   9.872 -0.8696  0.2556  0.1155
  492MOL0     C67763   1.585  11.457   9.956 -0.6763 -0.7883 -0.2332
  492MOL0     C67764   1.682  11.551   9.991 -0.5278  0.4469  0.5386
  492MOL0     C67765   1.695  11.677   9.936 -0.4830  0.5534 -0.8257
  492MOL0     O67766   1.800  11.773   9.965 -0.8029  0.3858  0.0580
  492MOL0     C67767   1.881  11.757  10.078  1.1655  0.3508  1.6283
  492MOL0     C67768   1.976  11.882  10.083 -0.5992  0.3546  0.4262
  492MOL0     C67769   2.008  11.916  10.236 -0.4727 -0.4963  0.3236
  492MOL0     C67770   2.114  12.030  10.255  0.6585 -1.0842 -0.0568
  492MOL0     C67771   2.212  12.001  10.362  0.2726 -0.2980 -0.3278
  492MOL0     C67772   2.163  12.004  10.509  0.7507 -0.4077  0.2678
  492MOL0     C67773   2.245  11.918  10.597 -0.1745 -0.0628  0.0004
  492MOL0     C67774   2.231  11.943  10.747 -0.2099 -0.4469  0.6623
  492MOL0     N67775   2.303  11.856  10.836 -1.0734  0.3510  0.5686
  492MOL0     C67776   2.440  11.816  10.816  0.3969 -0.9734  1.0011
  492MOL0     C67777   2.460  11.714  10.897  0.4887 -0.5329  0.7169
  492MOL0     C67778   2.599  11.665  10.944 -0.7720 -0.2505  0.2137
  492MOL0     C67779   2.595  11.511  10.975  0.5206  0.0668 -0.1087
  492MOL0     C67780   2.731  11.447  10.997  0.8291  0.0852 -0.9233
  492MOL0     C67781   2.797  11.484  11.141 -0.1081  0.4838 -0.0975
  492MOL0     O67782   2.929  11.456  11.173 -0.3193 -0.6825  0.6138
  492MOL0     C67783   3.026  11.483  11.075  0.1969 -0.2458 -0.9375
  492MOL0     C67784   3.016  11.575  10.970 -0.1870  0.2857  0.6873
  492MOL0     C67785   3.129  11.602  10.886 -0.7706 -0.1023  0.6707
  492MOL0     C67786   3.107  11.709  10.785  0.0804 -0.6150  0.9528
  492MOL0     C67787   3.254  11.534  10.906 -0.1455  0.3440 -0.2728
  492MOL0     C67788   3.377  11.555  10.822  0.4778  0.4677  0.3128
  492MOL0     O67789   3.486  11.503  10.874 -0.6307 -0.0999  0.1735
  492MOL0     C67790   3.598  11.481  10.796  0.0025  0.0924 -0.1661
  492MOL0     C67791   3.658  11.572  10.701 -0.6559  0.9825 -0.4857
  492MOL0     C67792   3.779  11.530  10.653  0.1670 -0.3824  0.4020
  492MOL0     C67793   3.850  11.417  10.695 -0.1463  0.2529 -0.0305
  492MOL0     O67794   3.966  11.384  10.633 -0.3394 -0.5534  0.5714
  492MOL0     C67795   4.079  11.476  10.644 -0.1928  0.2043  0.1292
  492MOL0     C67796   4.203  11.391  10.632 -0.2105 -0.1644  0.0156
  492MOL0     C67797   4.237  11.320  10.769 -0.4376 -0.4392 -0.5875
  492MOL0     C67798   4.302  11.396  10.887  0.7440 -0.0190  0.0497
  492MOL0     C67799   4.310  11.303  11.002 -0.3047 -0.1067  0.3222
  492MOL0     C67800   4.331  11.382  11.137 -1.2247 -0.9407 -1.3074
  492MOL0     C67801   4.358  11.299  11.272 -0.2390 -0.0707  0.2536
  492MOL0     C67802   4.226  11.249  11.322  0.5130 -0.6274 -0.0600
  492MOL0    Cl67803   4.128  11.372  11.395  0.1661 -0.3737  0.1502
  492MOL0     C67804   3.795  11.338  10.789 -0.6704 -0.1438  0.2566
  492MOL0     C67805   3.668  11.370  10.839  0.6463  0.5464  0.7262
  492MOL0     O67806   3.359  11.589  10.705  0.1921 -0.0428  0.0574
  492MOL0     C67807   3.255  11.445  11.013 -0.3312 -0.4443 -0.0261
  492MOL0     C67808   3.148  11.432  11.099 -0.5041  0.0309 -0.9685
  492MOL0     N67809   2.334  11.689  10.960  0.0496 -0.1586  0.1895
  492MOL0     N67810   2.245  11.763  10.907 -0.1686  0.2470  0.4351
  492MOL0     C67811   1.593  11.724   9.850 -0.0108 -0.3873 -0.1658
  492MOL0     C67812   1.490  11.626   9.814 -0.5544 -0.1471 -0.2448
  492MOL0     C67813   1.260  11.203   9.815  0.4466  0.6048 -0.3194
  492MOL0     C67814   1.215  11.239   9.691 -0.3012 -0.2909  0.0787
  492MOL0     C67815   1.149  11.149   9.607 -0.3812  0.4779  0.8744
  492MOL0     C67816   1.124  11.018   9.651  0.3967 -0.5933  0.3639
  492MOL0     O67817   1.046  10.920   9.579 -0.1693  0.3026  0.1074
  492MOL0     C67818   0.933  10.981   9.518  0.4737  0.0775  0.0432
  492MOL0     C67819   0.832  10.873   9.489  0.1145 -0.1567 -0.2556
  492MOL0     C67820   0.712  10.920   9.394 -0.8603 -0.6828  0.9977
  492MOL0     C67821   0.644  10.804   9.319 -0.6456  0.3841 -0.0458
  492MOL0     C67822   0.584  10.712   9.415  0.3864  0.0668 -0.3422
  492MOL0     C67823   0.531  10.616   9.477 -0.4312 -0.6206 -0.2731
  492MOL0     C67824   1.175  10.979   9.771  0.3121 -0.1525  0.2133
  492MOL0     C67825   1.242  11.072   9.860  1.0569 -0.0868  0.8652
  492MOL0     C67826   1.288  11.016   9.987  0.0295  0.3626 -0.1335
  492MOL0     H67827   1.603  11.359   9.999  3.0087 -0.1174  0.1136
  492MOL0     H67828   1.758  11.511  10.057  0.6619  1.0932 -0.4060
  492MOL0     H67829   1.940  11.664  10.082  0.2748 -0.2165  1.7759
  492MOL0     H67830   1.813  11.744  10.163 -0.1177  1.4356  0.8066
  492MOL0     H67831   2.070  11.848  10.039 -0.0788  2.0973  0.1162
  492MOL0     H67832   1.927  11.967  10.036 -2.4344 -1.7306 -1.7494
  492MOL0     H67833   1.913  11.944  10.281  0.5658  1.6406  1.2849
  492MOL0     H67834   2.039  11.825  10.288 -0.0880  0.2626  1.4538
  492MOL0     H67835   2.169  12.040  10.161 -0.7268  0.0956 -0.7690
  492MOL0     H67836   2.065  12.125  10.279  3.0999  1.1392 -3.0148
  492MOL0     H67837   2.295  12.072  10.355 -0.0189 -0.0230 -1.2482
  492MOL0     H67838   2.248  11.902  10.332 -1.0548 -1.3177  1.3063
  492MOL0     H67839   2.170  12.107  10.545 -3.5179 -0.0510  0.5428
  492MOL0     H67840   2.055  11.990  10.504  0.9160 -1.4201 -2.4901
  492MOL0     H67841   2.351  11.936  10.577 -0.5927  1.5983 -0.9057
  492MOL0     H67842   2.220  11.812  10.580 -1.9424  0.4119 -0.5445
  492MOL0     H67843   2.263  12.047  10.762 -0.5487 -0.2983  0.3657
  492MOL0     H67844   2.125  11.947  10.775 -0.5518 -0.8034 -0.5356
  492MOL0     H67845   2.509  11.884  10.767 -1.2809  1.1955  1.5404
  492MOL0     H67846   2.626  11.717  11.036 -1.6007  0.5057  0.0499
  492MOL0     H67847   2.672  11.706  10.874  0.4175  0.9800  2.0898
  492MOL0     H67848   2.517  11.489  11.049 -0.6834 -1.7655 -1.8277
  492MOL0     H67849   2.554  11.476  10.881 -1.2461  1.5383  0.0603
  492MOL0     H67850   2.721  11.341  10.970 -0.3748  0.3437 -1.5600
  492MOL0     H67851   2.793  11.493  10.920 -0.9412  0.2843 -2.2920
  492MOL0     H67852   2.789  11.589  11.168 -0.4396 -0.2190  2.9523
  492MOL0     H67853   2.748  11.426  11.220 -2.1674  4.2899  1.6771
  492MOL0     H67854   2.928  11.638  10.964  0.6072  1.6301  2.3278
  492MOL0     H67855   3.132  11.678  10.683 -0.4982 -0.6071  0.8069
  492MOL0     H67856   3.160  11.802  10.808 -0.5617  0.6038 -2.0116
  492MOL0     H67857   3.000  11.726  10.776  0.4219  0.6486 -1.7575
  492MOL0     H67858   3.617  11.665  10.663 -1.6919  1.0781  0.7876
  492MOL0     H67859   3.832  11.587  10.577 -0.1091 -1.4512 -0.6255
  492MOL0     H67860   4.075  11.531  10.550 -2.4990 -4.2581 -2.7160
  492MOL0     H67861   4.079  11.539  10.734  0.2173 -0.4641  0.6055
  492MOL0     H67862   4.186  11.330  10.544  0.5041  0.6100 -0.6778
  492MOL0     H67863   4.298  11.440  10.608 -0.4681 -0.4377 -1.6402
  492MOL0     H67864   4.309  11.242  10.743 -0.8602 -0.8492 -0.5463
  492MOL0     H67865   4.148  11.268  10.807  0.9660 -1.7349  1.0913
  492MOL0     H67866   4.249  11.488  10.911  1.4670  0.0231  1.5551
  492MOL0     H67867   4.399  11.434  10.853  0.7273  0.4439  0.5026
  492MOL0     H67868   4.214  11.252  11.017  0.8346 -2.2334  0.8733
  492MOL0     H67869   4.390  11.229  10.992 -1.9793 -1.9321 -0.2657
  492MOL0     H67870   4.248  11.451  11.154 -1.1523 -1.6071  2.6381
  492MOL0     H67871   4.429  11.431  11.128  0.2091 -3.2225  0.6730
  492MOL0     H67872   4.414  11.356  11.347  0.9411  1.8184 -1.9166
  492MOL0     H67873   4.433  11.223  11.250  0.3617  1.0773 -2.0366
  492MOL0     H67874   4.254  11.181  11.403 -1.3218 -0.0948  1.0711
  492MOL0     H67875   4.168  11.206  11.240  0.5714  1.5515 -1.3119
  492MOL0     H67876   3.849  11.245  10.809  2.8363  1.3593 -1.3903
  492MOL0     H67877   3.617  11.302  10.907  2.3620 -0.7158  0.8176
  492MOL0     H67878   3.344  11.394  11.048 -1.4169 -2.6018 -0.2351
  492MOL0     H67879   3.173  11.363  11.179 -0.9061 -0.0991 -0.9547
  492MOL0     H67880   1.597  11.824   9.809  0.5797 -0.7782 -1.1125
  492MOL0     H67881   1.421  11.658   9.737 -3.4471 -0.8174  1.9086
  492MOL0     H67882   1.235  11.340   9.659 -1.6308 -0.0939 -0.1934
  492MOL0     H67883   1.109  11.183   9.512 -2.0118 -3.4163 -0.0491
  492MOL0     H67884   0.891  11.065   9.575 -0.0710  0.3738 -0.7887
  492MOL0     H67885   0.976  11.029   9.430  0.1681 -3.1941 -2.0224
  492MOL0     H67886   0.790  10.851   9.588  1.4292 -1.4594  0.0332
  492MOL0     H67887   0.887  10.781   9.472  0.3714 -0.6255  2.6249
  492MOL0     H67888   0.638  10.972   9.456  0.8746 -1.4076  3.8600
  492MOL0     H67889   0.747  10.988   9.315 -2.7004  1.3228  1.7961
  492MOL0     H67890   0.717  10.750   9.257  1.1844  0.4413  1.9489
  492MOL0     H67891   0.560  10.827   9.253 -3.0841 -1.1147  2.3432
  492MOL0     H67892   0.488  10.536   9.533  0.4456 -2.4268 -2.0645
  492MOL0     H67893   1.154  10.876   9.796 -1.4757 -0.7183 -2.9910
  492MOL0     H67894   1.220  11.056  10.063 -2.2088 -2.8205 -0.2337
  492MOL0     H67895   1.269  10.909   9.976 -0.2451 -0.1326  3.7676
  492MOL0     H67896   1.393  11.028  10.014  0.4108 -1.1534 -0.8324
  493MOL0     O67897   7.402   8.374   2.878  0.7572  0.2729 -0.1132
  493MOL0     C67898   7.306   8.347   2.805 -0.0201  0.3202  0.3483
  493MOL0     O67899   7.274   8.414   2.687 -0.1231  0.0172  0.0459
  493MOL0     C67900   7.372   8.465   2.609 -0.7751 -0.3976  0.9230
  493MOL0     C67901   7.335   8.577   2.546  0.8541 -0.7082  0.2608
  493MOL0     C67902   7.426   8.639   2.461  0.1156 -0.1640 -0.0238
  493MOL0     C67903   7.554   8.584   2.437 -0.9280 -0.6481 -0.0461
  493MOL0     O67904   7.648   8.652   2.355  0.1198 -0.0366  0.0029
  493MOL0     C67905   7.638   8.800   2.358 -0.1158  0.0855 -0.3556
  493MOL0     C67906   7.773   8.859   2.327  0.6456  0.3565  1.5062
  493MOL0     C67907   7.814   8.828   2.173  0.1102 -0.4449 -0.4408
  493MOL0     C67908   7.876   8.948   2.096 -0.1545  0.6121  1.0014
  493MOL0     C67909   7.941   8.903   1.963 -0.0772  0.2599  0.7734
  493MOL0     C67910   7.992   9.025   1.880  0.4742  0.1259  0.4601
  493MOL0     C67911   8.044   8.985   1.737 -0.0003  0.4085 -0.1232
  493MOL0     C67912   8.183   8.909   1.751  0.3781  0.2189  0.3198
  493MOL0     N67913   8.218   8.807   1.651  0.6144 -0.1610 -0.1992
  493MOL0     C67914   8.187   8.811   1.517  0.7738 -0.1000  1.2710
  493MOL0     C67915   8.225   8.692   1.465 -0.6506 -1.2495 -0.2182
  493MOL0     C67916   8.234   8.637   1.325 -0.8085 -0.3017  1.0726
  493MOL0     C67917   8.123   8.544   1.301  0.3533  0.5028 -0.0102
  493MOL0     C67918   8.138   8.475   1.165 -1.0934  0.5710  0.4911
  493MOL0     C67919   8.245   8.363   1.172  0.0892 -0.0961  0.3481
  493MOL0     O67920   8.253   8.293   1.046 -0.5690  0.1104  0.5047
  493MOL0     C67921   8.335   8.183   1.048  0.4044 -0.9051 -0.3177
  493MOL0     C67922   8.440   8.160   1.143 -0.5648  0.2581 -0.3750
  493MOL0     C67923   8.537   8.054   1.132  0.1015  0.1671  0.7311
  493MOL0     C67924   8.639   8.038   1.251  0.4535 -0.5848 -0.1270
  493MOL0     C67925   8.520   7.976   1.019 -0.8975  1.1379 -0.0872
  493MOL0     C67926   8.611   7.847   0.991  0.3407 -0.1774  0.0275
  493MOL0     O67927   8.588   7.784   0.870 -0.0346 -0.0575 -0.3002
  493MOL0     C67928   8.673   7.692   0.810  0.2649  0.3560  0.9444
  493MOL0     C67929   8.652   7.672   0.671 -0.6213  0.6282 -0.2488
  493MOL0     C67930   8.731   7.585   0.599  0.9229  0.7007  0.7416
  493MOL0     C67931   8.847   7.533   0.649  1.1308 -0.2852 -0.2398
  493MOL0     O67932   8.921   7.450   0.575 -0.5620  0.1860  0.0661
  493MOL0     C67933   9.063   7.429   0.607  0.1919  0.2406  1.0716
  493MOL0     C67934   9.125   7.334   0.505 -0.8523 -0.1844  0.3577
  493MOL0     C67935   9.169   7.400   0.374  0.6552 -0.6203 -0.0595
  493MOL0     C67936   9.253   7.299   0.290  0.5488 -0.9144 -1.0125
  493MOL0     C67937   9.306   7.357   0.163  0.1609  0.3963  0.1355
  493MOL0     C67938   9.418   7.462   0.186  0.1986 -0.6361 -0.5239
  493MOL0     C67939   9.454   7.536   0.054  0.6131 -0.9359 -0.1413
  493MOL0     C67940   9.599   7.594   0.060  0.9104 -0.1761 -0.6743
  493MOL0    Cl67941   9.590   7.735   0.173  0.6538 -0.1878  0.2059
  493MOL0     C67942   8.874   7.543   0.782  0.0048 -0.2416 -0.0819
  493MOL0     C67943   8.787   7.625   0.855  0.9237 -0.0006  0.1593
  493MOL0     O67944   8.697   7.810   1.070  0.0540 -0.0923 -0.3977
  493MOL0     C67945   8.418   8.001   0.915 -0.1828 -1.0040 -0.5344
  493MOL0     C67946   8.331   8.112   0.932 -0.0737 -1.0243  0.2521
  493MOL0     N67947   8.276   8.609   1.569 -0.4247 -0.8348  0.6766
  493MOL0     N67948   8.265   8.682   1.678  0.1459  0.4437  0.3801
  493MOL0     C67949   7.596   8.469   2.516 -0.1969 -0.5525  0.3420
  493MOL0     C67950   7.500   8.408   2.599 -0.5118  0.4480  0.3605
  493MOL0     C67951   7.201   8.255   2.862  0.0947  0.4740 -0.3981
  493MOL0     C67952   7.237   8.165   2.967 -0.5434 -0.4436 -0.6636
  493MOL0     C67953   7.143   8.079   3.027 -0.2025  0.2748 -0.5437
  493MOL0     C67954   7.007   8.077   2.984  0.8365 -0.1907 -0.0147
  493MOL0     O67955   6.916   7.992   3.044 -0.2748 -1.0568 -0.3891
  493MOL0     C67956   6.946   7.922   3.162 -0.1998 -0.6474  0.0730
  493MOL0     C67957   6.814   7.888   3.235 -0.4749 -0.9754 -0.1231
  493MOL0     C67958   6.746   7.765   3.168 -0.5356  0.6149  0.1579
  493MOL0     C67959   6.612   7.716   3.229 -0.8572  0.9509 -0.2273
  493MOL0     C67960   6.578   7.583   3.191  0.1354 -0.1694  0.6040
  493MOL0     C67961   6.556   7.466   3.160  0.5109 -0.3041 -0.4395
  493MOL0     C67962   6.977   8.157   2.875  0.1110 -0.0658  0.0805
  493MOL0     C67963   7.067   8.241   2.813 -0.3164  0.2248  1.0693
  493MOL0     C67964   7.016   8.321   2.685  0.4727 -0.5322 -0.5146
  493MOL0     H67965   7.253   8.646   2.566  2.7253  2.5943 -2.3011
  493MOL0     H67966   7.397   8.735   2.419  2.4287 -1.0969 -4.5168
  493MOL0     H67967   7.600   8.847   2.449 -3.7381 -1.7391 -0.7444
  493MOL0     H67968   7.570   8.832   2.279  0.1352  0.4771 -0.4125
  493MOL0     H67969   7.774   8.966   2.348 -2.2283  1.3545 -2.3106
  493MOL0     H67970   7.842   8.809   2.396  0.5256 -4.2981 -1.2888
  493MOL0     H67971   7.895   8.754   2.170 -0.0708 -0.6005 -2.3110
  493MOL0     H67972   7.729   8.784   2.120  0.4905  0.4509 -1.8630
  493MOL0     H67973   7.798   9.022   2.077  0.2767  0.9062  0.3474
  493MOL0     H67974   7.955   8.984   2.163  1.8975 -1.7080  0.0050
  493MOL0     H67975   7.865   8.845   1.910 -1.8209  1.7791  1.4600
  493MOL0     H67976   8.020   8.834   1.992 -2.3441 -2.2829  1.3004
  493MOL0     H67977   7.905   9.090   1.874 -0.9436 -1.7139  0.2222
  493MOL0     H67978   8.068   9.081   1.936 -0.3799  1.6028  0.1899
  493MOL0     H67979   8.048   9.084   1.690  1.2148  0.0744 -0.7527
  493MOL0     H67980   7.965   8.926   1.690 -3.3421  0.3772  4.7622
  493MOL0     H67981   8.262   8.984   1.749  0.5591  0.0220 -0.2523
  493MOL0     H67982   8.178   8.852   1.845 -0.1499  2.2378  1.5738
  493MOL0     H67983   8.153   8.891   1.452 -0.1209 -1.8081 -0.4739
  493MOL0     H67984   8.329   8.588   1.300  0.1628  1.6853  0.6583
  493MOL0     H67985   8.231   8.727   1.263 -1.1400 -0.4995  0.7985
  493MOL0     H67986   8.114   8.468   1.380  2.9472  1.1554  1.0273
  493MOL0     H67987   8.025   8.592   1.310 -0.4515 -1.4160  2.7905
  493MOL0     H67988   8.041   8.439   1.130  0.2499 -1.5458 -1.3024
  493MOL0     H67989   8.172   8.551   1.094  1.3013 -0.9216 -0.0834
  493MOL0     H67990   8.337   8.419   1.189 -1.9504  4.1199 -1.2526
  493MOL0     H67991   8.224   8.294   1.254  2.9066 -1.3019  0.1989
  493MOL0     H67992   8.446   8.224   1.230  0.1643 -4.7099  3.6592
  493MOL0     H67993   8.615   7.951   1.313 -2.3331 -0.4353 -0.8772
  493MOL0     H67994   8.626   8.117   1.327 -2.1752 -1.1536  0.0811
  493MOL0     H67995   8.740   8.017   1.215 -0.2814 -3.9614 -0.4658
  493MOL0     H67996   8.568   7.727   0.628  1.4671  4.1566 -0.2560
  493MOL0     H67997   8.708   7.569   0.494  0.5301 -0.7988  1.0421
  493MOL0     H67998   9.124   7.519   0.599  1.1741 -0.5118 -0.4270
  493MOL0     H67999   9.074   7.389   0.708 -3.9849 -0.1645  1.5437
  493MOL0     H68000   9.218   7.297   0.549 -1.8824 -0.5613  2.3114
  493MOL0     H68001   9.053   7.253   0.488 -0.4373 -0.2064 -1.5902
  493MOL0     H68002   9.216   7.492   0.409  1.0759 -1.7271  2.5693
  493MOL0     H68003   9.080   7.423   0.315  1.1378 -1.2352 -1.0583
  493MOL0     H68004   9.173   7.228   0.263 -0.1355  0.3378 -2.4117
  493MOL0     H68005   9.337   7.249   0.339 -0.9765 -0.3216  2.5321
  493MOL0     H68006   9.359   7.281   0.105  2.4072  1.0467  1.1965
  493MOL0     H68007   9.219   7.413   0.128  1.0346  1.9067  0.2812
  493MOL0     H68008   9.502   7.409   0.232 -0.2167 -0.5411  0.3593
  493MOL0     H68009   9.384   7.532   0.263  0.5815 -0.8081 -0.1942
  493MOL0     H68010   9.379   7.612   0.032  1.2255  0.0378  1.0497
  493MOL0     H68011   9.466   7.466  -0.030  1.9248  1.8917 -2.4996
  493MOL0     H68012   9.618   7.615  -0.046 -0.5124 -0.2776 -0.9735
  493MOL0     H68013   9.671   7.517   0.090 -1.5097 -2.1791  0.4095
  493MOL0     H68014   8.956   7.504   0.841 -0.5392 -0.3434  0.6160
  493MOL0     H68015   8.817   7.632   0.959 -1.9577  2.1295  0.9626
  493MOL0     H68016   8.402   7.943   0.825  0.5758 -0.0998 -1.2785
  493MOL0     H68017   8.262   8.138   0.852  1.9301  2.1513 -0.6555
  493MOL0     H68018   7.694   8.423   2.506  0.6352  0.9204  1.2554
  493MOL0     H68019   7.517   8.315   2.652 -3.4421 -0.8004 -0.6835
  493MOL0     H68020   7.339   8.165   3.005 -0.7282 -1.1654 -0.1463
  493MOL0     H68021   7.182   8.017   3.106 -0.6572 -0.0822 -0.5920
  493MOL0     H68022   7.003   7.833   3.134  0.2154  0.7447 -4.1171
  493MOL0     H68023   6.999   7.994   3.226  0.0640 -0.6186 -0.1752
  493MOL0     H68024   6.744   7.972   3.242  0.5104 -0.1749  0.3672
  493MOL0     H68025   6.847   7.869   3.338  2.2148  1.6873 -0.3628
  493MOL0     H68026   6.729   7.782   3.061  1.8389  0.4789 -0.2943
  493MOL0     H68027   6.821   7.686   3.176  0.2159  0.8018 -3.2292
  493MOL0     H68028   6.537   7.778   3.179  0.3306  2.0282 -0.7439
  493MOL0     H68029   6.609   7.730   3.338 -0.1560  0.2487 -0.1066
  493MOL0     H68030   6.549   7.360   3.141  1.0069 -0.9847  2.6484
  493MOL0     H68031   6.876   8.156   2.836  1.2790 -1.7884 -3.2661
  493MOL0     H68032   6.909   8.300   2.670  0.4205  0.1007 -1.0761
  493MOL0     H68033   7.041   8.428   2.692  3.9923 -1.2401 -0.5613
  493MOL0     H68034   7.062   8.278   2.596  1.8594  0.2933 -0.2235
  494MOL0     O68035   6.760   4.437   5.997  0.1762  0.3448  0.1005
  494MOL0     C68036   6.644   4.429   5.946  0.2775 -0.0741 -1.3908
  494MOL0     O68037   6.612   4.416   5.817  0.2926 -0.1128  0.1503
  494MOL0     C68038   6.712   4.363   5.736  0.1637 -0.6796 -1.0905
  494MOL0     C68039   6.696   4.244   5.679  0.0976  0.7673 -0.6967
  494MOL0     C68040   6.776   4.195   5.584 -0.6079 -1.2501 -0.9002
  494MOL0     C68041   6.893   4.267   5.557 -0.6507 -0.5469  0.1570
  494MOL0     O68042   6.982   4.215   5.470 -0.7153 -0.2194 -0.5140
  494MOL0     C68043   7.102   4.284   5.421  0.3450  0.3676 -0.3687
  494MOL0     C68044   7.169   4.195   5.314 -0.8013  0.2734 -0.1861
  494MOL0     C68045   7.082   4.157   5.199  0.0394 -0.5801  0.7200
  494MOL0     C68046   7.171   4.086   5.094 -0.9575  0.1082 -0.0188
  494MOL0     C68047   7.102   4.047   4.962 -0.4642  0.6701  0.1868
  494MOL0     C68048   7.154   3.915   4.924 -0.1341  0.0146 -0.0670
  494MOL0     C68049   7.073   3.859   4.811  0.0096 -0.4699  0.7958
  494MOL0     C68050   7.110   3.916   4.678 -0.2473 -0.1651  0.5339
  494MOL0     N68051   7.247   3.880   4.637 -0.0202 -0.4623  0.3053
  494MOL0     C68052   7.366   3.943   4.669  0.6034 -0.3164  0.3261
  494MOL0     C68053   7.455   3.861   4.614  0.1071 -0.1779  0.9488
  494MOL0     C68054   7.591   3.912   4.589 -0.8012  1.3743  0.0633
  494MOL0     C68055   7.694   3.786   4.580  0.0967  0.6254 -0.6951
  494MOL0     C68056   7.840   3.816   4.602 -0.4890 -0.2068  0.1791
  494MOL0     C68057   7.924   3.693   4.622  0.0767 -0.1118 -0.7414
  494MOL0     O68058   8.065   3.723   4.613 -0.3295 -0.2305  0.0044
  494MOL0     C68059   8.161   3.630   4.621  0.6765 -0.0860 -0.0474
  494MOL0     C68060   8.141   3.500   4.657 -0.2575  0.0686  0.0755
  494MOL0     C68061   8.250   3.411   4.655 -0.1673 -0.0655  0.1243
  494MOL0     C68062   8.221   3.259   4.669  0.4857  0.6343  0.2653
  494MOL0     C68063   8.380   3.464   4.624  0.1828  0.3812 -0.1393
  494MOL0     C68064   8.508   3.392   4.616  0.6789 -0.7724  0.6952
  494MOL0     O68065   8.502   3.256   4.652 -0.2364  0.1183 -0.0431
  494MOL0     C68066   8.606   3.187   4.579  0.2786  0.1849 -0.5395
  494MOL0     C68067   8.573   3.122   4.457 -0.4119 -0.2206 -0.5064
  494MOL0     C68068   8.671   3.059   4.383 -0.3696  0.3489 -0.0474
  494MOL0     C68069   8.806   3.058   4.422 -0.2599  0.7417 -0.3466
  494MOL0     O68070   8.899   2.999   4.335 -0.0628 -0.6736 -0.7123
  494MOL0     C68071   9.009   3.081   4.291 -0.6296  0.5810 -0.8913
  494MOL0     C68072   9.080   3.022   4.168  0.4772  0.1718  0.3493
  494MOL0     C68073   9.191   3.114   4.131  0.3651  0.5829  1.1552
  494MOL0     C68074   9.293   3.046   4.040  0.7724  0.6299 -0.1640
  494MOL0     C68075   9.390   3.149   3.981  0.4836 -0.8816 -0.4823
  494MOL0     C68076   9.480   3.077   3.885  0.4961  0.7718 -0.9279
  494MOL0     C68077   9.565   3.171   3.820  0.6089 -0.2101 -0.1084
  494MOL0     C68078   9.656   3.079   3.732 -1.3672 -0.2806  0.4994
  494MOL0    Cl68079   9.767   3.205   3.659 -0.1062  0.3748  0.0828
  494MOL0     C68080   8.835   3.132   4.544 -0.3318 -0.8562  1.4014
  494MOL0     C68081   8.736   3.189   4.619 -0.5975  0.1568  0.1697
  494MOL0     O68082   8.606   3.456   4.607 -0.5208  0.5251  0.0611
  494MOL0     C68083   8.390   3.600   4.591  0.4584  0.3134  0.5013
  494MOL0     C68084   8.285   3.685   4.595 -0.3187 -0.6521 -1.1347
  494MOL0     N68085   7.391   3.758   4.557  0.7200  0.5984  0.4671
  494MOL0     N68086   7.261   3.761   4.573 -0.3181 -0.6610 -0.6151
  494MOL0     C68087   6.919   4.391   5.615 -0.1021 -0.2112 -0.0280
  494MOL0     C68088   6.819   4.443   5.698 -0.0152 -0.5846 -0.3990
  494MOL0     C68089   6.529   4.435   6.043 -0.8617  0.1220 -0.0090
  494MOL0     C68090   6.408   4.490   5.994  0.3493  0.4460  1.0632
  494MOL0     C68091   6.287   4.500   6.069 -0.0385  0.4328 -0.3233
  494MOL0     C68092   6.290   4.460   6.199 -0.0080  0.1011 -0.2544
  494MOL0     O68093   6.168   4.475   6.260  0.0385  0.1574  0.1073
  494MOL0     C68094   6.152   4.416   6.385  0.6850  0.5216  0.7561
  494MOL0     C68095   6.016   4.457   6.449 -0.2973  0.0752 -0.6884
  494MOL0     C68096   5.905   4.427   6.357  0.1400 -0.4757 -0.2758
  494MOL0     C68097   5.768   4.465   6.424  0.5324 -0.7839  1.3421
  494MOL0     C68098   5.653   4.421   6.352  0.0658 -0.5733  0.4530
  494MOL0     C68099   5.543   4.389   6.300  0.4587  0.0999 -0.6539
  494MOL0     C68100   6.414   4.406   6.258  0.8896 -0.2661  0.2276
  494MOL0     C68101   6.534   4.390   6.178  1.2356 -0.6979  1.0771
  494MOL0     C68102   6.659   4.343   6.233 -0.3998  0.1775  0.6789
  494MOL0     H68103   6.614   4.185   5.717 -0.2910  2.4185  1.2249
  494MOL0     H68104   6.763   4.095   5.543  0.0474 -3.2505  3.2371
  494MOL0     H68105   7.175   4.307   5.499  1.6804 -0.9861 -1.1741
  494MOL0     H68106   7.063   4.376   5.377  1.9674  0.7893 -0.9643
  494MOL0     H68107   7.254   4.255   5.279 -2.3244  1.6966 -1.6655
  494MOL0     H68108   7.199   4.111   5.376 -0.9352  0.7585  0.5404
  494MOL0     H68109   6.996   4.096   5.228 -1.0805 -0.7080 -2.4472
  494MOL0     H68110   7.042   4.246   5.149  2.7761 -0.1969 -1.0185
  494MOL0     H68111   7.243   4.164   5.064 -0.0558 -0.3317  0.9427
  494MOL0     H68112   7.240   4.018   5.144  0.7101  1.1445 -0.7976
  494MOL0     H68113   7.113   4.128   4.889 -1.4927  1.4899  0.8998
  494MOL0     H68114   6.995   4.038   4.984 -0.4036  0.2215  0.2999
  494MOL0     H68115   7.260   3.904   4.897 -0.3713 -1.7704 -0.3773
  494MOL0     H68116   7.134   3.854   5.012 -1.2869  2.1801  1.2413
  494MOL0     H68117   6.964   3.852   4.825 -0.6621 -4.4307 -3.9662
  494MOL0     H68118   7.101   3.754   4.806  1.4791 -0.0431 -1.1248
  494MOL0     H68119   7.044   3.876   4.600 -2.8945  0.3650  2.3713
  494MOL0     H68120   7.101   4.025   4.673  0.4831 -0.0420  1.5968
  494MOL0     H68121   7.374   4.033   4.729  0.4795 -0.3305  0.3628
  494MOL0     H68122   7.627   3.981   4.665 -0.2601  0.6106  0.5186
  494MOL0     H68123   7.594   3.966   4.494  0.7000 -0.5448 -1.0785
  494MOL0     H68124   7.660   3.711   4.653  0.4452  0.9409 -0.2021
  494MOL0     H68125   7.696   3.753   4.476 -0.1763  3.4688 -1.6913
  494MOL0     H68126   7.881   3.874   4.519 -0.3589  0.6137  0.7953
  494MOL0     H68127   7.847   3.892   4.681 -1.2075  1.0165 -0.8874
  494MOL0     H68128   7.907   3.641   4.717  2.4328 -2.6187 -1.5718
  494MOL0     H68129   7.891   3.629   4.539 -0.3975  0.4529 -0.9930
  494MOL0     H68130   8.045   3.460   4.687 -0.1361 -0.3611 -0.1048
  494MOL0     H68131   8.286   3.225   4.751  0.2535  0.8953  0.5585
  494MOL0     H68132   8.230   3.205   4.574  0.9727  2.2366 -0.6439
  494MOL0     H68133   8.123   3.227   4.703  1.8074 -2.0368  1.8871
  494MOL0     H68134   8.467   3.129   4.438 -0.2068  0.1929 -1.5348
  494MOL0     H68135   8.648   3.009   4.289 -2.6459 -0.2820  0.7824
  494MOL0     H68136   8.961   3.177   4.270 -1.6026  1.1473  3.0982
  494MOL0     H68137   9.086   3.096   4.367 -0.6108  3.4379 -1.3458
  494MOL0     H68138   9.119   2.922   4.189  1.8581  0.2859 -1.4352
  494MOL0     H68139   9.001   3.010   4.093 -0.0684  3.1972  0.2856
  494MOL0     H68140   9.231   3.151   4.226  2.6557 -0.0480  0.5027
  494MOL0     H68141   9.157   3.202   4.077  3.3585  0.5953 -0.9500
  494MOL0     H68142   9.228   3.000   3.965  0.8116 -1.5830  1.0841
  494MOL0     H68143   9.343   2.966   4.095 -1.1694 -1.0777 -0.7262
  494MOL0     H68144   9.318   3.210   3.925 -2.0751 -3.4184 -0.1400
  494MOL0     H68145   9.442   3.199   4.063 -1.8544 -1.3595  1.3817
  494MOL0     H68146   9.416   3.025   3.813  0.1347  0.1320 -0.1620
  494MOL0     H68147   9.542   3.006   3.942 -2.8963  0.5018  2.8849
  494MOL0     H68148   9.634   3.225   3.885  1.0567  1.8331 -2.1780
  494MOL0     H68149   9.523   3.248   3.755  1.6687 -0.3829 -1.0145
  494MOL0     H68150   9.599   3.030   3.653 -1.1937 -0.0781  0.2481
  494MOL0     H68151   9.709   3.004   3.792  2.5675 -0.9421 -3.2931
  494MOL0     H68152   8.941   3.141   4.567  0.0787 -0.3834 -0.4937
  494MOL0     H68153   8.769   3.251   4.702  0.5676  1.4154 -1.1685
  494MOL0     H68154   8.487   3.641   4.565 -0.2754  0.9328 -1.4413
  494MOL0     H68155   8.298   3.791   4.577  0.8495 -0.2659  1.5346
  494MOL0     H68156   6.999   4.462   5.599 -0.8080  0.6261  0.0903
  494MOL0     H68157   6.834   4.538   5.747  0.7313 -0.5439 -0.6909
  494MOL0     H68158   6.400   4.496   5.886  0.1813 -0.7124  1.0016
  494MOL0     H68159   6.193   4.519   6.018 -0.5929 -1.4890 -0.0842
  494MOL0     H68160   6.155   4.308   6.367  0.6524  0.4088  1.4060
  494MOL0     H68161   6.226   4.450   6.458  0.9487  1.3289  0.1262
  494MOL0     H68162   6.011   4.565   6.463  1.8304  0.1208 -0.0220
  494MOL0     H68163   6.004   4.407   6.546  0.5910  3.6685  1.4481
  494MOL0     H68164   5.917   4.489   6.268  0.0356  1.7782  1.1993
  494MOL0     H68165   5.907   4.320   6.332 -0.3141 -0.3726 -0.7736
  494MOL0     H68166   5.758   4.573   6.441  0.7208 -0.8496  1.8814
  494MOL0     H68167   5.768   4.421   6.524  1.7370 -2.3376  0.7050
  494MOL0     H68168   5.451   4.353   6.259 -1.0973  3.1821 -0.2185
  494MOL0     H68169   6.420   4.381   6.364 -2.2209 -3.1298 -0.1133
  494MOL0     H68170   6.699   4.268   6.164 -0.2449 -0.5098  1.5025
  494MOL0     H68171   6.727   4.425   6.257 -1.4181  0.5525  2.4649
  494MOL0     H68172   6.648   4.287   6.326 -1.8609 -0.1287  0.3466
  495MOL0     O68173   4.416   0.607   6.642 -0.7095  0.8874  0.2910
  495MOL0     C68174   4.446   0.525   6.559  0.6408  0.6182  0.2514
  495MOL0     O68175   4.550   0.532   6.475 -0.5657  0.8230 -1.7016
  495MOL0     C68176   4.677   0.567   6.522 -0.2595 -0.7729  1.2052
  495MOL0     C68177   4.707   0.623   6.645 -0.1008  0.5917  0.6742
  495MOL0     C68178   4.840   0.656   6.689 -0.2378  0.3386  0.9013
  495MOL0     C68179   4.946   0.636   6.597 -0.1054 -0.4387 -0.0899
  495MOL0     O68180   5.075   0.690   6.624  0.2492  0.3978 -0.4114
  495MOL0     C68181   5.081   0.830   6.637 -0.2019  0.2311 -0.0655
  495MOL0     C68182   5.215   0.878   6.596 -0.4734 -0.0258  0.7062
  495MOL0     C68183   5.250   1.030   6.621  1.3729  0.1958 -0.1757
  495MOL0     C68184   5.402   1.050   6.604  0.5110  0.5794 -0.3070
  495MOL0     C68185   5.423   1.196   6.582  0.2471 -0.5990  0.4375
  495MOL0     C68186   5.571   1.213   6.572 -0.1354 -0.9014 -0.4208
  495MOL0     C68187   5.623   1.347   6.523 -0.5818 -0.1895  0.0699
  495MOL0     C68188   5.589   1.459   6.629  0.9355  0.3504 -0.3583
  495MOL0     N68189   5.639   1.589   6.607 -0.0068 -0.2831 -0.0253
  495MOL0     C68190   5.575   1.707   6.592 -0.6071  0.1579 -0.5628
  495MOL0     C68191   5.677   1.800   6.574  0.4591  0.5192 -0.2105
  495MOL0     C68192   5.664   1.952   6.554 -0.1039  0.6490  0.7379
  495MOL0     C68193   5.610   2.013   6.678 -0.0691  0.1706  0.9088
  495MOL0     C68194   5.706   2.008   6.789 -0.5059 -0.3312  0.8091
  495MOL0     C68195   5.837   2.069   6.753  0.0320  0.3750  0.0617
  495MOL0     O68196   5.810   2.196   6.708  0.2304 -0.3847 -0.5769
  495MOL0     C68197   5.855   2.233   6.584  0.6351 -1.0903 -0.5074
  495MOL0     C68198   5.803   2.345   6.522  0.1673  0.0978 -0.5954
  495MOL0     C68199   5.857   2.401   6.408  0.5317 -0.4658 -0.1753
  495MOL0     C68200   5.789   2.531   6.366 -0.0857 -0.7734  0.0434
  495MOL0     C68201   5.970   2.345   6.352 -0.4589  0.2718  0.3355
  495MOL0     C68202   6.048   2.396   6.242 -0.4680 -0.4669  0.0396
  495MOL0     O68203   6.127   2.310   6.171 -0.1527  0.0500  0.3724
  495MOL0     C68204   6.195   2.354   6.057 -0.6715  0.9670  0.0729
  495MOL0     C68205   6.324   2.298   6.055 -0.7711  1.1289  0.8581
  495MOL0     C68206   6.417   2.325   5.950  0.3695 -0.3300 -0.6116
  495MOL0     C68207   6.377   2.415   5.851  0.9780 -0.4414  0.0337
  495MOL0     O68208   6.469   2.448   5.751  0.1014  0.1704  0.5453
  495MOL0     C68209   6.610   2.428   5.753 -0.9649 -0.1255  0.4036
  495MOL0     C68210   6.678   2.512   5.639  0.2407  0.2146  0.1121
  495MOL0     C68211   6.829   2.510   5.637  0.4508  0.1875 -0.5290
  495MOL0     C68212   6.880   2.638   5.566 -1.1408  0.5009 -0.6536
  495MOL0     C68213   6.861   2.643   5.419  0.1731 -0.0088  0.1507
  495MOL0     C68214   6.957   2.748   5.367  0.8362  0.1292  0.2174
  495MOL0     C68215   6.972   2.756   5.218  0.3494  0.7993  0.0962
  495MOL0     C68216   7.070   2.660   5.144  0.7560  0.0351 -1.1602
  495MOL0    Cl68217   7.229   2.735   5.113  0.3135 -0.6656  0.1701
  495MOL0     C68218   6.251   2.467   5.846 -0.3112 -1.0457  0.1152
  495MOL0     C68219   6.160   2.445   5.953  0.6539  0.7919 -0.3382
  495MOL0     O68220   6.044   2.516   6.223  0.2265  0.0571 -0.2649
  495MOL0     C68221   6.020   2.225   6.406 -0.0264  0.3001 -0.0004
  495MOL0     C68222   5.961   2.174   6.521  0.1070  0.4433 -1.1438
  495MOL0     N68223   5.802   1.738   6.564 -0.3783  0.1323  0.2991
  495MOL0     N68224   5.775   1.609   6.592 -0.0042 -0.1382  0.7415
  495MOL0     C68225   4.918   0.596   6.466 -1.1571 -0.2005 -0.8886
  495MOL0     C68226   4.790   0.566   6.426  0.1067  0.3191 -0.1801
  495MOL0     C68227   4.353   0.398   6.550  0.1775 -0.1474  0.6869
  495MOL0     C68228   4.319   0.353   6.416 -0.3056 -0.4807  0.9315
  495MOL0     C68229   4.222   0.264   6.386 -1.0504  0.0350 -0.1926
  495MOL0     C68230   4.174   0.182   6.486 -0.2616 -0.4037 -0.2767
  495MOL0     O68231   4.087   0.080   6.470 -0.0765  0.4317  0.0292
  495MOL0     C68232   4.039   0.053   6.338 -0.0810 -0.5345 -0.4874
  495MOL0     C68233   3.919   0.141   6.293  0.2239 -0.8674 -0.4434
  495MOL0     C68234   3.802   0.096   6.374 -0.1542 -0.8129 -0.5364
  495MOL0     C68235   3.674   0.180   6.343 -0.6348 -0.1518 -0.3020
  495MOL0     C68236   3.707   0.331   6.347  0.8438  0.0419  0.6597
  495MOL0     C68237   3.727   0.450   6.351 -1.2503  0.4669  0.6894
  495MOL0     C68238   4.207   0.210   6.617 -0.0774 -0.4659  0.4944
  495MOL0     C68239   4.300   0.314   6.648  0.0431 -0.1634 -0.3399
  495MOL0     C68240   4.347   0.320   6.790 -1.0303  0.1742 -0.6870
  495MOL0     H68241   4.626   0.640   6.716 -0.6860  2.5636 -0.3955
  495MOL0     H68242   4.870   0.696   6.786  0.6928  1.2391  0.2557
  495MOL0     H68243   5.056   0.870   6.736  2.3987  3.3838 -0.5015
  495MOL0     H68244   5.011   0.886   6.575  1.0554  1.8543 -0.0927
  495MOL0     H68245   5.287   0.823   6.658 -1.0046  0.5332  1.8422
  495MOL0     H68246   5.238   0.847   6.494 -0.0332  1.0428  0.4705
  495MOL0     H68247   5.189   1.095   6.559 -0.5679 -1.0357  0.3397
  495MOL0     H68248   5.222   1.056   6.724 -0.7514  1.8382 -1.0988
  495MOL0     H68249   5.442   1.001   6.693 -1.2058 -0.7340 -0.1910
  495MOL0     H68250   5.433   0.992   6.518 -2.8513 -1.0648 -0.5724
  495MOL0     H68251   5.394   1.248   6.674  1.4928  3.4118 -1.2014
  495MOL0     H68252   5.368   1.238   6.497 -2.3988 -0.6130  2.0543
  495MOL0     H68253   5.620   1.195   6.669  2.1822 -1.2046 -1.5751
  495MOL0     H68254   5.608   1.131   6.510 -1.3139 -1.0270 -0.9828
  495MOL0     H68255   5.574   1.372   6.429  1.4891  1.3200 -0.6942
  495MOL0     H68256   5.731   1.351   6.502 -0.9049 -1.2906 -2.0739
  495MOL0     H68257   5.481   1.475   6.623  0.6603 -1.6865 -1.9185
  495MOL0     H68258   5.613   1.428   6.730 -2.2725  1.9603  1.0588
  495MOL0     H68259   5.470   1.735   6.589  0.0551  2.8336 -1.8548
  495MOL0     H68260   5.591   1.964   6.474  0.7719 -3.1911 -0.8734
  495MOL0     H68261   5.755   1.994   6.510 -0.9026 -1.5423 -3.5399
  495MOL0     H68262   5.568   2.112   6.661  3.5300  1.7483  0.4312
  495MOL0     H68263   5.523   1.960   6.719  1.5558 -2.2935  1.3816
  495MOL0     H68264   5.666   2.062   6.875  0.1386  4.4635 -1.5937
  495MOL0     H68265   5.714   1.903   6.818  0.4236 -0.3457  0.5303
  495MOL0     H68266   5.904   2.080   6.839  0.1545 -2.5060  0.4250
  495MOL0     H68267   5.888   1.998   6.687 -0.3124  0.2494 -0.0684
  495MOL0     H68268   5.718   2.389   6.574  0.8105  0.4362  0.1880
  495MOL0     H68269   5.801   2.541   6.258  3.8802  0.2262  0.4317
  495MOL0     H68270   5.841   2.616   6.413 -0.5504 -0.2417 -0.3859
  495MOL0     H68271   5.685   2.538   6.399  0.3973  1.2655  1.3772
  495MOL0     H68272   6.349   2.228   6.135  0.2557  2.8409  2.1074
  495MOL0     H68273   6.520   2.292   5.958 -0.6920 -3.5732  1.9683
  495MOL0     H68274   6.654   2.450   5.850 -1.8522  2.3650  0.2966
  495MOL0     H68275   6.638   2.324   5.730  1.0892  0.7580 -1.4323
  495MOL0     H68276   6.652   2.474   5.540 -1.2046  3.7603 -1.0189
  495MOL0     H68277   6.639   2.613   5.657 -0.0627  0.4344 -1.6005
  495MOL0     H68278   6.872   2.419   5.595  1.0481 -0.1419  0.7572
  495MOL0     H68279   6.871   2.512   5.738  1.8689  2.1645 -1.0848
  495MOL0     H68280   6.987   2.654   5.584 -1.5177  3.2792 -0.4456
  495MOL0     H68281   6.822   2.721   5.608 -2.4298 -1.3614  1.4776
  495MOL0     H68282   6.885   2.543   5.381 -0.2714 -0.4536  1.0139
  495MOL0     H68283   6.763   2.680   5.388  1.3149 -0.6796 -5.1782
  495MOL0     H68284   7.057   2.726   5.405  0.1487 -0.1927  1.9220
  495MOL0     H68285   6.926   2.846   5.405 -1.2356 -0.1880 -0.5414
  495MOL0     H68286   6.971   2.859   5.180 -1.7230  2.1581  3.4156
  495MOL0     H68287   6.879   2.717   5.176 -0.0438 -1.1054  2.5349
  495MOL0     H68288   7.033   2.630   5.045 -0.3402  3.0850 -1.7793
  495MOL0     H68289   7.083   2.576   5.212  3.7783  2.2155  1.2411
  495MOL0     H68290   6.231   2.538   5.766  1.1112  0.6191  1.1735
  495MOL0     H68291   6.061   2.489   5.950  0.9616  1.4374 -1.8179
  495MOL0     H68292   6.099   2.163   6.365 -0.7695 -1.1602  0.6902
  495MOL0     H68293   6.008   2.093   6.576 -0.5806  0.5167 -0.4321
  495MOL0     H68294   4.994   0.579   6.391 -2.5816  0.1205 -2.4723
  495MOL0     H68295   4.776   0.515   6.331  2.7555  0.5213 -0.7715
  495MOL0     H68296   4.371   0.402   6.334 -2.0815  3.0424  1.7196
  495MOL0     H68297   4.193   0.259   6.282  0.3948 -0.7980 -0.5731
  495MOL0     H68298   4.124   0.065   6.271  0.3385  0.2690  0.1705
  495MOL0     H68299   4.017  -0.054   6.335  1.7944 -1.1739  3.1334
  495MOL0     H68300   3.889   0.126   6.189  3.3340 -0.3431 -1.5304
  495MOL0     H68301   3.944   0.246   6.314  0.1096 -1.0855  0.8453
  495MOL0     H68302   3.781  -0.008   6.348  1.6720 -1.1811 -0.6549
  495MOL0     H68303   3.822   0.100   6.482  2.3639  1.3924 -0.9745
  495MOL0     H68304   3.608   0.150   6.425  2.1459  1.7583  2.9000
  495MOL0     H68305   3.638   0.134   6.250 -2.2946  1.7045 -0.6553
  495MOL0     H68306   3.753   0.554   6.357 -0.0856  0.2009  0.4507
  495MOL0     H68307   4.157   0.156   6.697 -1.0900  1.6969  1.3914
  495MOL0     H68308   4.451   0.351   6.807 -1.5780  0.3672  3.4012
  495MOL0     H68309   4.281   0.400   6.825 -1.9462  0.3729 -2.7435
  495MOL0     H68310   4.321   0.234   6.852  2.4429 -0.4354  0.1918
  496MOL0     O68311   9.378   1.442   3.431  0.2624  0.3607  0.3564
  496MOL0     C68312   9.331   1.432   3.541  0.8653  0.1614 -0.4307
  496MOL0     O68313   9.350   1.525   3.647 -0.7599  0.3515  0.0724
  496MOL0     C68314   9.442   1.627   3.644 -0.4048  0.4462 -1.0201
  496MOL0     C68315   9.555   1.622   3.733  0.0079 -0.9662 -0.3565
  496MOL0     C68316   9.631   1.746   3.742  0.1758  1.0061 -0.6666
  496MOL0     C68317   9.601   1.847   3.665 -0.1702  0.5956  0.2072
  496MOL0     O68318   9.659   1.970   3.674  0.2672  0.8752  0.2216
  496MOL0     C68319   9.796   1.977   3.701  0.1019  0.0427  0.3467
  496MOL0     C68320   9.834   2.117   3.671  0.3448  0.6772 -0.4308
  496MOL0     C68321   9.986   2.137   3.697 -0.6888  0.7322 -0.5711
  496MOL0     C68322  10.075   2.096   3.574 -1.4141 -0.2641  0.1128
  496MOL0     C68323  10.219   2.142   3.612  0.4401 -0.5849  0.0657
  496MOL0     C68324  10.319   2.044   3.543  0.4827  0.1691 -0.2332
  496MOL0     C68325  10.460   2.098   3.550 -0.8837 -0.7394  0.3905
  496MOL0     C68326  10.489   2.212   3.450 -0.1286 -0.3775  0.3226
  496MOL0     N68327  10.627   2.248   3.461  0.1287  0.1831  0.0007
  496MOL0     C68328  10.704   2.282   3.349 -0.9061 -0.3264 -0.2045
  496MOL0     C68329  10.810   2.346   3.407  0.7857  0.0416  0.2471
  496MOL0     C68330  10.923   2.418   3.335  0.0942 -0.4623  0.5773
  496MOL0     C68331  10.911   2.563   3.355  0.2186  0.4121 -0.3864
  496MOL0     C68332  11.017   2.638   3.287  0.6602 -0.8251  0.7462
  496MOL0     C68333  11.011   2.791   3.316  0.7571  0.3721 -0.3555
  496MOL0     O68334  11.117   2.857   3.251  0.1136  0.5103  0.0654
  496MOL0     C68335  11.089   2.909   3.128 -0.2731  0.3756 -0.0883
  496MOL0     C68336  10.978   2.985   3.103 -0.8377  0.0285 -0.3304
  496MOL0     C68337  10.952   3.056   2.978 -0.1858  0.2933 -0.1310
  496MOL0     C68338  10.839   3.154   2.965  1.3475 -0.6713  0.5698
  496MOL0     C68339  11.051   3.045   2.876  0.5151  0.3163  0.3729
  496MOL0     C68340  11.038   3.112   2.738  0.4665  0.0196 -0.6203
  496MOL0     O68341  11.131   3.075   2.649 -0.4116  0.2948  0.5046
  496MOL0     C68342  11.101   3.104   2.521 -0.4626 -0.5249 -0.2140
  496MOL0     C68343  11.157   3.213   2.453  0.9463  0.1533 -0.3819
  496MOL0     C68344  11.127   3.235   2.319  0.1184 -0.9430  0.0024
  496MOL0     C68345  11.045   3.149   2.253  0.5959 -0.1825 -0.4852
  496MOL0     O68346  10.989   3.174   2.128 -0.3161 -0.2082  0.1657
  496MOL0     C68347  11.070   3.251   2.036  0.1095  0.6344  0.7271
  496MOL0     C68348  11.004   3.380   2.032  0.3312 -0.3344  0.6521
  496MOL0     C68349  11.063   3.477   1.924 -0.4221  0.3767 -0.4643
  496MOL0     C68350  11.053   3.424   1.778  0.2223 -0.1759  1.2401
  496MOL0     C68351  11.138   3.522   1.689  0.0055  0.3104  0.3113
  496MOL0     C68352  11.145   3.480   1.550  0.2608 -1.0816  0.4069
  496MOL0     C68353  11.171   3.586   1.442 -0.3780  0.5164 -0.8930
  496MOL0     C68354  11.319   3.587   1.399  0.4105  0.1861  0.1621
  496MOL0    Cl68355  11.374   3.440   1.299 -0.3072 -0.0074 -0.1207
  496MOL0     C68356  10.981   3.038   2.319  0.2880 -0.5678 -1.0639
  496MOL0     C68357  11.023   3.013   2.449  0.0118 -0.7532 -0.8555
  496MOL0     O68358  10.955   3.193   2.717  0.8162 -0.1177  0.1945
  496MOL0     C68359  11.167   2.968   2.903  0.4676 -0.0391 -0.8263
  496MOL0     C68360  11.189   2.909   3.027  0.0095 -0.1407  0.0152
  496MOL0     N68361  10.788   2.348   3.539 -0.5275  0.0690 -0.5441
  496MOL0     N68362  10.682   2.285   3.576 -1.1322 -0.1754  0.6557
  496MOL0     C68363   9.493   1.847   3.576 -1.5364 -0.7940  0.1001
  496MOL0     C68364   9.415   1.739   3.572 -0.0861  0.1661  0.1844
  496MOL0     C68365   9.244   1.312   3.577 -0.1670  0.1619  0.2100
  496MOL0     C68366   9.229   1.293   3.718  1.0535  0.0703 -0.4597
  496MOL0     C68367   9.161   1.181   3.778  0.2592  0.5898  0.1147
  496MOL0     C68368   9.101   1.088   3.692  0.0744  1.1151  0.4922
  496MOL0     O68369   9.050   0.978   3.753 -0.1887  0.7758  0.5161
  496MOL0     C68370   9.075   0.843   3.702  1.1653  0.2517  0.0415
  496MOL0     C68371   9.222   0.811   3.685 -0.1167 -0.4246  0.0151
  496MOL0     C68372   9.236   0.661   3.650  1.0531  0.6684 -0.8388
  496MOL0     C68373   9.370   0.607   3.658  0.2339 -0.1885 -0.2286
  496MOL0     C68374   9.465   0.672   3.573 -0.0786 -0.5479 -0.0407
  496MOL0     C68375   9.546   0.699   3.487 -0.0555 -0.7343  0.4310
  496MOL0     C68376   9.100   1.114   3.552  0.0865  0.4204  0.1006
  496MOL0     C68377   9.166   1.223   3.495 -0.2296 -0.5886  0.6554
  496MOL0     C68378   9.152   1.247   3.355 -0.3749 -0.0079 -0.1298
  496MOL0     H68379   9.568   1.534   3.795 -1.1497 -1.5263 -0.8885
  496MOL0     H68380   9.705   1.744   3.821 -0.6634  0.6700  0.1193
  496MOL0     H68381   9.860   1.911   3.641  1.0448  2.2203 -1.1569
  496MOL0     H68382   9.822   1.948   3.804  4.6947  1.5739 -0.1539
  496MOL0     H68383   9.806   2.138   3.568 -0.6582 -0.4714 -0.4104
  496MOL0     H68384   9.781   2.186   3.737  2.2756  2.6388 -0.8291
  496MOL0     H68385   9.994   2.242   3.726 -2.2392  1.2884 -1.9857
  496MOL0     H68386  10.013   2.083   3.788 -0.0478  0.1080 -1.1197
  496MOL0     H68387  10.074   1.988   3.558 -2.3342 -0.2831  0.2226
  496MOL0     H68388  10.031   2.150   3.489  0.5880  2.3989  0.6300
  496MOL0     H68389  10.241   2.147   3.720 -0.2059 -0.2869  0.1865
  496MOL0     H68390  10.236   2.246   3.582 -1.1227 -0.3267  0.0202
  496MOL0     H68391  10.316   1.947   3.595 -1.9980 -0.0889 -0.7559
  496MOL0     H68392  10.295   2.015   3.441 -1.9798 -0.6553  0.5278
  496MOL0     H68393  10.537   2.022   3.529 -0.2551  0.1296 -0.6181
  496MOL0     H68394  10.492   2.123   3.651 -0.3065 -4.3746  1.2437
  496MOL0     H68395  10.477   2.168   3.351  0.3434 -0.7939  0.4433
  496MOL0     H68396  10.421   2.296   3.468  0.8331  0.1543  1.6304
  496MOL0     H68397  10.676   2.271   3.245  0.3340  1.0248 -0.7185
  496MOL0     H68398  10.914   2.396   3.228 -0.5667  0.3740  0.4503
  496MOL0     H68399  11.019   2.391   3.380  0.0295  0.3278  1.2062
  496MOL0     H68400  10.810   2.588   3.322 -2.4576 -7.7462 -0.7982
  496MOL0     H68401  10.910   2.583   3.462 -0.0199  0.9100 -0.4817
  496MOL0     H68402  11.118   2.602   3.310  0.6310 -0.5747  1.2771
  496MOL0     H68403  11.012   2.626   3.178 -0.3211 -0.2640  0.7139
  496MOL0     H68404  10.912   2.826   3.284  1.4969 -0.1284 -3.5265
  496MOL0     H68405  11.035   2.800   3.422  1.0575  0.0985 -0.3987
  496MOL0     H68406  10.900   3.008   3.175 -1.5959  0.7894 -1.3818
  496MOL0     H68407  10.779   3.157   3.057 -3.3814  1.1859 -2.2433
  496MOL0     H68408  10.773   3.128   2.882  1.7468 -2.9642  0.9034
  496MOL0     H68409  10.868   3.258   2.952 -0.4810 -0.5111 -3.6390
  496MOL0     H68410  11.226   3.275   2.508  0.8211 -0.1477  0.1201
  496MOL0     H68411  11.162   3.329   2.277 -3.2045 -0.0037 -0.9726
  496MOL0     H68412  11.178   3.256   2.055  0.7612  0.8921 -2.5702
  496MOL0     H68413  11.058   3.199   1.941  2.1815  0.0804  0.7298
  496MOL0     H68414  10.896   3.366   2.024  0.1069  1.0112  0.9854
  496MOL0     H68415  11.021   3.435   2.125 -1.6414 -1.8233  1.9966
  496MOL0     H68416  11.170   3.492   1.941  0.2400 -1.5182 -2.5399
  496MOL0     H68417  11.003   3.568   1.934 -1.9229 -0.6599  0.4100
  496MOL0     H68418  10.947   3.421   1.749  1.2543 -1.9585 -3.3225
  496MOL0     H68419  11.091   3.322   1.767  0.2865  0.0871 -2.4898
  496MOL0     H68420  11.086   3.619   1.688 -0.4271  0.1241  1.9315
  496MOL0     H68421  11.236   3.544   1.731  0.6391 -1.3403 -0.2220
  496MOL0     H68422  11.043   3.443   1.535 -0.8205  2.4454 -2.1919
  496MOL0     H68423  11.206   3.392   1.527 -0.6433 -1.2269 -1.7071
  496MOL0     H68424  11.145   3.688   1.471  1.9456  0.9449 -0.1132
  496MOL0     H68425  11.110   3.559   1.355 -6.5402 -1.0397  3.2008
  496MOL0     H68426  11.387   3.595   1.484  1.1249  2.8809 -0.5550
  496MOL0     H68427  11.333   3.686   1.355 -0.1844 -0.7504 -2.3548
  496MOL0     H68428  10.902   2.979   2.274  0.6219 -1.5042 -0.4677
  496MOL0     H68429  10.977   2.926   2.495 -2.9027 -0.6756 -3.3277
  496MOL0     H68430  11.239   2.962   2.822  0.5378 -0.4659 -0.7395
  496MOL0     H68431  11.268   2.835   3.028 -1.2220 -1.5443 -1.2020
  496MOL0     H68432   9.465   1.936   3.521  0.9835 -0.1920 -0.3209
  496MOL0     H68433   9.337   1.718   3.500  1.3304 -1.9234 -0.8232
  496MOL0     H68434   9.264   1.362   3.793  1.8928 -0.6480 -0.1707
  496MOL0     H68435   9.147   1.163   3.884 -1.3471 -0.6694 -0.2620
  496MOL0     H68436   9.039   0.775   3.781 -1.1064 -2.0512 -2.7611
  496MOL0     H68437   9.008   0.818   3.620  0.3660 -2.4853  1.3965
  496MOL0     H68438   9.274   0.839   3.778 -0.8808  2.2418 -0.2558
  496MOL0     H68439   9.254   0.887   3.612 -4.9835  1.7035 -0.2831
  496MOL0     H68440   9.182   0.598   3.722  0.3046  0.9862 -1.1093
  496MOL0     H68441   9.199   0.636   3.550  0.4653  0.2865 -0.5361
  496MOL0     H68442   9.371   0.502   3.629  1.3620  0.2328 -1.8677
  496MOL0     H68443   9.406   0.604   3.761  1.2766 -0.1083 -0.5728
  496MOL0     H68444   9.604   0.737   3.405 -2.2747  1.1781 -0.3584
  496MOL0     H68445   9.058   1.050   3.476  1.3767  2.1069 -2.1722
  496MOL0     H68446   9.052   1.220   3.320 -1.1052  0.3015  1.5829
  496MOL0     H68447   9.171   1.351   3.327 -0.8528  0.5333  1.4641
  496MOL0     H68448   9.225   1.178   3.311 -1.4095 -2.0682  1.2430
  497MOL0     O68449   4.984   0.376   8.042 -0.4975  0.2033 -0.1405
  497MOL0     C68450   5.047   0.425   7.948  0.4546 -0.9101 -0.3196
  497MOL0     O68451   5.008   0.414   7.814 -0.2190 -0.0343 -0.3117
  497MOL0     C68452   4.890   0.334   7.795 -0.5549  0.5488  0.2412
  497MOL0     C68453   4.770   0.383   7.836 -0.6515  0.0733  0.1440
  497MOL0     C68454   4.651   0.317   7.812  0.2724  0.4578  0.2559
  497MOL0     C68455   4.651   0.191   7.748  0.1810 -0.3767 -0.3253
  497MOL0     O68456   4.535   0.125   7.731 -0.2876  0.2376 -0.0516
  497MOL0     C68457   4.532  -0.017   7.720  0.7265  0.4829 -0.3626
  497MOL0     C68458   4.385  -0.069   7.762  0.0590  0.1860 -1.0869
  497MOL0     C68459   4.280  -0.030   7.660 -0.3022  0.2246  0.2222
  497MOL0     C68460   4.148  -0.030   7.735 -0.4120  0.1224 -0.8066
  497MOL0     C68461   4.095  -0.169   7.778  0.2347  1.0896  0.3344
  497MOL0     C68462   4.047  -0.252   7.660  1.0006  0.3620  0.1539
  497MOL0     C68463   3.929  -0.344   7.682 -0.4342 -0.2368  0.3438
  497MOL0     C68464   3.962  -0.470   7.763 -0.6082 -0.1465  0.2988
  497MOL0     N68465   3.955  -0.590   7.681  0.3111 -1.0616 -0.0849
  497MOL0     C68466   4.040  -0.622   7.575 -0.6833  0.1038  0.0396
  497MOL0     C68467   3.971  -0.716   7.507  0.0235  0.7708  0.0021
  497MOL0     C68468   3.999  -0.808   7.391 -0.3851 -0.6591  0.3440
  497MOL0     C68469   3.933  -0.946   7.405  0.7705  0.8870  0.4729
  497MOL0     C68470   4.027  -1.038   7.482 -0.2502  0.2975  0.3371
  497MOL0     C68471   3.968  -1.168   7.523  0.4194 -1.0981 -0.3225
  497MOL0     O68472   4.061  -1.257   7.605 -0.2306  0.4791  0.8393
  497MOL0     C68473   4.138  -1.332   7.515  0.6344 -0.3915 -1.2013
  497MOL0     C68474   4.077  -1.418   7.426  0.3773  0.4592 -0.4620
  497MOL0     C68475   4.147  -1.471   7.321 -0.5993  0.3051 -0.4153
  497MOL0     C68476   4.071  -1.539   7.217 -0.0298  0.2122  0.3637
  497MOL0     C68477   4.286  -1.436   7.303 -0.1838 -0.2319 -0.3182
  497MOL0     C68478   4.370  -1.489   7.192  0.4466  0.4132 -0.5767
  497MOL0     O68479   4.444  -1.391   7.122 -0.0196 -0.3972  0.1853
  497MOL0     C68480   4.532  -1.422   7.017  0.1430  0.5348  0.4217
  497MOL0     C68481   4.625  -1.526   7.026  0.7775 -0.4944 -0.4360
  497MOL0     C68482   4.727  -1.542   6.937  0.1074  0.4181  0.4314
  497MOL0     C68483   4.728  -1.478   6.810  0.3407 -0.2809  0.3511
  497MOL0     O68484   4.824  -1.521   6.716 -0.5534  0.7953 -0.1386
  497MOL0     C68485   4.839  -1.452   6.595 -0.1133  0.2425  0.2698
  497MOL0     C68486   4.931  -1.538   6.505 -0.4056  0.0733 -0.3530
  497MOL0     C68487   4.933  -1.490   6.363  0.4544 -0.2826 -0.4055
  497MOL0     C68488   4.977  -1.602   6.281 -1.2253  0.2863  0.0689
  497MOL0     C68489   5.128  -1.644   6.271  0.2837 -0.1819  0.3761
  497MOL0     C68490   5.170  -1.689   6.130 -0.8598  0.5007 -0.1059
  497MOL0     C68491   5.317  -1.729   6.149 -1.3833  0.3142 -0.1420
  497MOL0     C68492   5.395  -1.742   6.020 -0.8491  0.2857 -0.3037
  497MOL0    Cl68493   5.563  -1.772   6.073  0.2165  0.2920 -0.3369
  497MOL0     C68494   4.636  -1.374   6.796 -0.6077  0.5675 -0.2176
  497MOL0     C68495   4.544  -1.347   6.898  0.5634 -1.2123  0.3440
  497MOL0     O68496   4.372  -1.606   7.163 -0.7413  0.2258 -0.0073
  497MOL0     C68497   4.349  -1.353   7.401  0.6022  0.4207  0.4715
  497MOL0     C68498   4.274  -1.304   7.508 -0.9722 -0.1939 -1.0874
  497MOL0     N68499   3.844  -0.724   7.557 -0.2016 -0.4754 -0.5250
  497MOL0     N68500   3.845  -0.651   7.656  0.6273  0.1531  0.2735
  497MOL0     C68501   4.775   0.140   7.703  0.5016  0.3667  0.6247
  497MOL0     C68502   4.897   0.212   7.729  0.3539  0.6029  1.1091
  497MOL0     C68503   5.168   0.512   7.974 -0.2968 -0.6536 -0.6326
  497MOL0     C68504   5.228   0.581   7.872 -0.1156 -0.0695 -0.3512
  497MOL0     C68505   5.336   0.670   7.885 -0.0926  0.0952 -0.3077
  497MOL0     C68506   5.393   0.698   8.011 -0.7739  0.6894 -0.3810
  497MOL0     O68507   5.491   0.789   8.045 -0.7998  0.5028  0.0457
  497MOL0     C68508   5.450   0.928   8.043  0.8892  0.2712 -0.2276
  497MOL0     C68509   5.431   0.966   8.192  0.1168 -0.3858 -0.0610
  497MOL0     C68510   5.346   1.093   8.196  0.1687  1.0720 -0.2770
  497MOL0     C68511   5.351   1.180   8.317 -0.9379 -0.5071 -0.0097
  497MOL0     C68512   5.366   1.107   8.443 -0.0476 -0.0798 -0.8961
  497MOL0     C68513   5.374   1.037   8.542 -0.4209  0.7388 -0.0625
  497MOL0     C68514   5.335   0.623   8.116  0.5004 -0.8462 -0.2613
  497MOL0     C68515   5.225   0.537   8.106 -0.2188  0.5276  0.5786
  497MOL0     C68516   5.183   0.468   8.228 -0.2406 -1.0925  0.0534
  497MOL0     H68517   4.763   0.479   7.887  0.7693  2.6462 -3.9613
  497MOL0     H68518   4.552   0.353   7.839  0.2562  0.2957  0.4230
  497MOL0     H68519   4.602  -0.051   7.797  1.8130  2.5601 -0.3533
  497MOL0     H68520   4.565  -0.058   7.624  2.1716  0.8962 -0.0716
  497MOL0     H68521   4.386  -0.179   7.763  3.2313  0.1142 -1.0845
  497MOL0     H68522   4.349  -0.035   7.859 -3.4692 -0.2829 -2.1210
  497MOL0     H68523   4.295   0.074   7.632  1.0223  0.5481  1.9284
  497MOL0     H68524   4.285  -0.097   7.574 -0.0005  0.4083  0.0961
  497MOL0     H68525   4.160   0.019   7.833  1.0106 -2.0273  0.1614
  497MOL0     H68526   4.065   0.020   7.685 -2.1855 -0.0762  1.7251
  497MOL0     H68527   4.014  -0.147   7.848 -1.3320  0.4013 -1.1863
  497MOL0     H68528   4.165  -0.230   7.835  0.6783 -0.1885 -1.5043
  497MOL0     H68529   4.015  -0.178   7.586 -1.3739 -1.0740 -0.3442
  497MOL0     H68530   4.123  -0.301   7.600 -0.1433  1.9054 -2.7697
  497MOL0     H68531   3.878  -0.371   7.589 -1.3165 -1.1261  1.0636
  497MOL0     H68532   3.845  -0.298   7.735  0.9770 -0.4932  2.9530
  497MOL0     H68533   4.061  -0.459   7.808 -0.1859  0.0870 -0.6457
  497MOL0     H68534   3.892  -0.480   7.846  0.5382 -4.0296  0.9748
  497MOL0     H68535   4.130  -0.573   7.540  0.6338 -1.4221  1.1447
  497MOL0     H68536   4.107  -0.814   7.375 -0.4686 -0.9199 -0.1604
  497MOL0     H68537   3.946  -0.768   7.303 -0.8429 -1.9129  0.0280
  497MOL0     H68538   3.838  -0.955   7.458  0.4742 -2.3036 -0.3547
  497MOL0     H68539   3.905  -0.972   7.303 -2.8296  3.2853  0.6649
  497MOL0     H68540   4.113  -1.073   7.424 -0.0345 -1.6025  1.7009
  497MOL0     H68541   4.073  -0.989   7.569 -0.8742  1.6634 -0.0875
  497MOL0     H68542   3.877  -1.155   7.582  2.2922  1.4558  2.3093
  497MOL0     H68543   3.934  -1.213   7.430 -1.4406  2.0277 -1.2982
  497MOL0     H68544   3.969  -1.433   7.425  0.4495 -0.1194  0.1428
  497MOL0     H68545   4.028  -1.457   7.159 -0.0858 -0.9048 -1.2204
  497MOL0     H68546   3.979  -1.592   7.243 -1.7525  0.3510 -4.4970
  497MOL0     H68547   4.133  -1.606   7.157  1.2481  2.5410 -1.0828
  497MOL0     H68548   4.632  -1.588   7.115 -2.1702 -0.4250 -0.0454
  497MOL0     H68549   4.811  -1.608   6.957  0.6161  1.6515  2.6198
  497MOL0     H68550   4.736  -1.457   6.559 -0.0258 -1.7617  0.2093
  497MOL0     H68551   4.881  -1.351   6.593  1.0691 -0.1816  2.0036
  497MOL0     H68552   5.033  -1.531   6.546 -0.5834 -2.7375  0.8385
  497MOL0     H68553   4.895  -1.641   6.517 -2.1569  0.8636  1.9030
  497MOL0     H68554   4.992  -1.398   6.351  1.3018 -1.1282 -3.5373
  497MOL0     H68555   4.829  -1.481   6.331  0.0290  0.0632  0.9786
  497MOL0     H68556   4.945  -1.566   6.183  2.3390 -0.9916 -1.7280
  497MOL0     H68557   4.916  -1.691   6.302 -1.5218  0.3803 -0.3776
  497MOL0     H68558   5.183  -1.551   6.286  1.2059 -0.5370 -0.6234
  497MOL0     H68559   5.155  -1.716   6.349 -1.6116  1.2552  2.4975
  497MOL0     H68560   5.175  -1.615   6.050 -0.9650  2.6371  1.7819
  497MOL0     H68561   5.108  -1.774   6.098 -0.3330 -0.4949  1.4031
  497MOL0     H68562   5.329  -1.826   6.199  0.8783 -0.5117 -2.1028
  497MOL0     H68563   5.370  -1.652   6.205 -1.1912  3.7616 -4.5082
  497MOL0     H68564   5.395  -1.642   5.976  0.0386  1.1031  1.4797
  497MOL0     H68565   5.354  -1.819   5.953 -1.2083  2.2857 -2.5425
  497MOL0     H68566   4.650  -1.313   6.707 -3.2692  0.9268 -0.4577
  497MOL0     H68567   4.484  -1.258   6.882  1.4975 -0.7081 -0.4302
  497MOL0     H68568   4.455  -1.331   7.403  0.6097  0.8128 -1.7655
  497MOL0     H68569   4.315  -1.237   7.583 -1.8581 -1.7988  0.9313
  497MOL0     H68570   4.781   0.041   7.659  2.2410 -0.2773  2.1604
  497MOL0     H68571   4.993   0.181   7.690 -0.1390 -0.6099  0.8357
  497MOL0     H68572   5.178   0.575   7.777 -1.4708 -1.3522  0.4032
  497MOL0     H68573   5.372   0.719   7.795  0.9350 -2.8655 -1.6430
  497MOL0     H68574   5.536   0.990   8.015  1.1665 -0.8573 -2.0561
  497MOL0     H68575   5.368   0.946   7.974  1.3583 -1.8769 -1.4445
  497MOL0     H68576   5.534   0.987   8.223  0.8676 -1.6095 -1.5840
  497MOL0     H68577   5.388   0.891   8.259  1.9677 -1.3843  0.0857
  497MOL0     H68578   5.390   1.160   8.122 -0.5452  3.8570  1.6221
  497MOL0     H68579   5.245   1.068   8.163  0.6642  0.1949 -1.1640
  497MOL0     H68580   5.258   1.238   8.321 -1.2044 -0.9450  0.1033
  497MOL0     H68581   5.426   1.261   8.311 -3.7388  2.2044 -1.1512
  497MOL0     H68582   5.374   0.970   8.625 -1.1517  1.6533  0.7044
  497MOL0     H68583   5.379   0.653   8.211  1.5238  0.6270 -1.1608
  497MOL0     H68584   5.090   0.507   8.271 -0.6614 -0.5061 -1.3428
  497MOL0     H68585   5.170   0.362   8.201 -1.8924 -1.7947  3.1142
  497MOL0     H68586   5.262   0.473   8.303  2.2552 -1.5358 -2.4122
  498MOL0     O68587   5.426   7.656   3.882 -0.0235 -0.0639 -0.8370
  498MOL0     C68588   5.436   7.735   3.972 -0.5277 -0.6303 -0.4382
  498MOL0     O68589   5.344   7.761   4.067  0.3657  0.7405 -0.3649
  498MOL0     C68590   5.230   7.695   4.054  0.3280 -0.1969  0.1199
  498MOL0     C68591   5.194   7.615   4.154  0.2601 -0.3732  0.0245
  498MOL0     C68592   5.082   7.536   4.137  0.7298  0.4624  0.1361
  498MOL0     C68593   5.003   7.516   4.023 -0.5293  0.1872 -0.1661
  498MOL0     O68594   4.900   7.425   4.020  0.1840  0.7001  0.2261
  498MOL0     C68595   4.771   7.484   3.992  0.6839 -0.3669 -0.6352
  498MOL0     C68596   4.660   7.388   4.033  0.4220  0.1108  0.2937
  498MOL0     C68597   4.523   7.416   3.971  0.4995 -0.6523 -0.0336
  498MOL0     C68598   4.419   7.312   4.040 -0.0240  0.9445  0.9682
  498MOL0     C68599   4.273   7.329   4.003  0.1596 -0.2282  0.1483
  498MOL0     C68600   4.197   7.221   4.079 -0.0340 -0.0890 -0.3191
  498MOL0     C68601   4.047   7.247   4.071 -0.1197 -0.5147  0.4575
  498MOL0     C68602   3.964   7.170   4.161 -0.0466  0.2600 -0.2280
  498MOL0     N68603   3.970   7.021   4.165 -0.0174  0.2500 -0.2645
  498MOL0     C68604   3.913   6.947   4.070 -0.0610  0.4923  0.6937
  498MOL0     C68605   3.957   6.822   4.105 -0.3947  0.4027  0.4631
  498MOL0     C68606   3.918   6.694   4.024  0.1012 -0.5953 -0.8793
  498MOL0     C68607   4.033   6.600   4.024 -0.2386  0.1945 -1.2929
  498MOL0     C68608   4.018   6.479   3.930  0.2960  0.4628  0.4062
  498MOL0     C68609   4.146   6.388   3.940 -0.8777 -0.2471 -0.3800
  498MOL0     O68610   4.264   6.465   3.912 -0.4462 -0.1513  0.5507
  498MOL0     C68611   4.378   6.381   3.922 -1.2640  0.0030  0.0245
  498MOL0     C68612   4.466   6.398   4.031  0.4482 -0.8345 -0.2379
  498MOL0     C68613   4.591   6.333   4.042  0.0246 -0.3244 -0.5335
  498MOL0     C68614   4.679   6.370   4.156 -0.2261  0.2059  0.6943
  498MOL0     C68615   4.633   6.240   3.945 -0.1698  0.1665  0.2784
  498MOL0     C68616   4.766   6.181   3.922 -0.7177 -0.0941 -0.0140
  498MOL0     O68617   4.874   6.235   3.980 -0.4847 -0.2718 -0.8900
  498MOL0     C68618   4.994   6.178   3.972 -0.8751  0.7978 -0.8745
  498MOL0     C68619   5.075   6.156   4.080 -0.0044  0.4596  0.7012
  498MOL0     C68620   5.202   6.107   4.071 -0.3013 -0.3885 -0.3601
  498MOL0     C68621   5.265   6.081   3.951 -0.5020  0.1057  0.1928
  498MOL0     O68622   5.395   6.027   3.956  0.4629 -0.3211 -0.3493
  498MOL0     C68623   5.476   6.017   3.840  0.5986 -0.0718  0.2631
  498MOL0     C68624   5.612   5.972   3.873 -0.6504  0.0253  0.4657
  498MOL0     C68625   5.676   6.064   3.977  0.5967  0.8020 -0.4809
  498MOL0     C68626   5.818   6.026   4.004  0.2698 -0.7908  0.2632
  498MOL0     C68627   5.868   6.086   4.141 -0.2924 -0.3166  0.1376
  498MOL0     C68628   6.000   6.030   4.190 -0.1767 -0.5866  0.0726
  498MOL0     C68629   6.051   6.102   4.312  0.5318 -0.1542  0.6324
  498MOL0     C68630   5.976   6.067   4.445 -0.5623 -0.8786  0.3562
  498MOL0    Cl68631   6.058   6.157   4.573 -0.2686 -0.1007 -0.3467
  498MOL0     C68632   5.188   6.116   3.843  0.4556 -0.5624  0.0856
  498MOL0     C68633   5.058   6.163   3.845  0.5690  0.0734 -0.3212
  498MOL0     O68634   4.772   6.082   3.856 -0.2457  0.1923  0.0113
  498MOL0     C68635   4.544   6.230   3.835 -0.7726 -0.0326  0.1276
  498MOL0     C68636   4.421   6.302   3.820  0.1827 -0.0742  0.3015
  498MOL0     N68637   4.027   6.824   4.225 -0.6040 -0.9157  0.0855
  498MOL0     N68638   4.043   6.948   4.254 -0.2607 -0.1153 -0.4599
  498MOL0     C68639   5.035   7.608   3.922  0.1786 -0.0496  0.5398
  498MOL0     C68640   5.145   7.697   3.934  0.0335 -0.0107  0.7526
  498MOL0     C68641   5.563   7.810   3.983 -0.2734  0.2342  0.0810
  498MOL0     C68642   5.687   7.738   3.988  0.5426 -0.9290  0.3500
  498MOL0     C68643   5.803   7.805   4.009 -0.4736  0.3010 -0.5092
  498MOL0     C68644   5.813   7.943   4.026 -0.9830  0.3100 -0.2351
  498MOL0     O68645   5.941   7.996   4.017 -0.5855  0.1800  0.7538
  498MOL0     C68646   5.964   8.121   4.082 -0.6451  0.3392  0.2742
  498MOL0     C68647   6.112   8.159   4.121 -0.4917 -0.8165 -0.3759
  498MOL0     C68648   6.183   8.037   4.168 -0.3287  0.6568 -0.8230
  498MOL0     C68649   6.323   8.065   4.229  0.0930 -0.1749  0.0707
  498MOL0     C68650   6.415   8.106   4.119 -0.4325 -0.2229 -0.3075
  498MOL0     C68651   6.489   8.153   4.031  0.4468 -0.6218 -0.0950
  498MOL0     C68652   5.688   8.009   4.036  0.3775 -0.7753  0.4929
  498MOL0     C68653   5.563   7.946   4.008 -0.5134 -0.4892  0.3449
  498MOL0     C68654   5.442   8.032   4.003 -0.9746 -0.0715 -0.1816
  498MOL0     H68655   5.242   7.626   4.250 -0.6440  3.0457  0.2323
  498MOL0     H68656   5.067   7.487   4.233 -0.3218 -1.3347 -0.9034
  498MOL0     H68657   4.765   7.492   3.883 -2.9928  2.7283 -0.3980
  498MOL0     H68658   4.780   7.580   4.042 -1.0156  0.1499 -1.2646
  498MOL0     H68659   4.694   7.296   3.985  0.7097  0.0337  0.6379
  498MOL0     H68660   4.652   7.373   4.141 -0.6801  1.7974  0.4789
  498MOL0     H68661   4.498   7.515   4.008  1.8867 -0.5223  0.6468
  498MOL0     H68662   4.531   7.404   3.863 -0.2755  0.4788 -0.2281
  498MOL0     H68663   4.445   7.212   4.006 -4.0374  0.0438 -0.0498
  498MOL0     H68664   4.431   7.324   4.148 -0.0119  5.5803  0.6768
  498MOL0     H68665   4.268   7.311   3.895  0.2098  1.4953 -0.1672
  498MOL0     H68666   4.248   7.432   4.029  0.3597 -0.5497  1.6690
  498MOL0     H68667   4.229   7.125   4.037  0.1952  0.3592 -1.2068
  498MOL0     H68668   4.230   7.228   4.183 -0.9465  4.5905 -0.1617
  498MOL0     H68669   4.002   7.241   3.972 -1.1387 -3.0485  1.0057
  498MOL0     H68670   4.029   7.353   4.095  1.1007 -0.3410  0.6698
  498MOL0     H68671   3.984   7.211   4.261 -1.4085 -0.3850  0.3490
  498MOL0     H68672   3.860   7.201   4.142  0.0692 -0.0457 -1.4237
  498MOL0     H68673   3.849   6.966   3.984  1.2873 -1.5629 -0.8591
  498MOL0     H68674   3.904   6.711   3.917  3.8250 -1.9723 -1.7383
  498MOL0     H68675   3.821   6.656   4.058 -0.1375  0.4962 -0.3021
  498MOL0     H68676   4.120   6.664   4.009 -0.9560  1.5669  0.0853
  498MOL0     H68677   4.044   6.564   4.127 -1.6916  0.2900 -1.0848
  498MOL0     H68678   3.928   6.422   3.955  0.3202  1.4045  2.9627
  498MOL0     H68679   4.016   6.514   3.827  1.4765 -0.2007  0.1440
  498MOL0     H68680   4.141   6.344   4.040  2.5287  3.3400  1.6455
  498MOL0     H68681   4.140   6.314   3.860 -1.4391  0.6941 -1.2324
  498MOL0     H68682   4.451   6.470   4.110 -1.3533 -0.5473 -0.7976
  498MOL0     H68683   4.628   6.390   4.250 -1.4325 -2.6637  0.7181
  498MOL0     H68684   4.729   6.465   4.134 -1.3048  0.9615  1.4263
  498MOL0     H68685   4.753   6.293   4.179 -0.0618  0.2130  0.2167
  498MOL0     H68686   5.036   6.165   4.181 -0.2940 -2.9343  1.0136
  498MOL0     H68687   5.258   6.057   4.149 -1.9765 -3.5005 -1.0089
  498MOL0     H68688   5.423   5.947   3.775 -0.6038  2.1832 -1.3438
  498MOL0     H68689   5.478   6.115   3.791 -1.2250 -1.3817 -2.7004
  498MOL0     H68690   5.602   5.873   3.917  1.8771 -0.2023  0.6639
  498MOL0     H68691   5.666   5.974   3.778 -2.2252 -0.8578 -0.4968
  498MOL0     H68692   5.612   6.064   4.065  0.4433  1.1912 -0.5859
  498MOL0     H68693   5.677   6.169   3.946 -0.5770  0.4370 -1.8668
  498MOL0     H68694   5.880   6.063   3.922  1.2858  1.0487  1.7749
  498MOL0     H68695   5.830   5.917   4.009  0.6162 -0.7708 -0.0732
  498MOL0     H68696   5.879   6.194   4.126 -0.3092 -0.3338 -0.0026
  498MOL0     H68697   5.787   6.070   4.213 -1.1634  1.6859 -0.3199
  498MOL0     H68698   6.068   6.035   4.104 -0.9387  0.9659 -0.4862
  498MOL0     H68699   5.988   5.924   4.213 -0.4082 -0.4204  0.7259
  498MOL0     H68700   6.040   6.210   4.307  1.1552 -0.1037  0.1873
  498MOL0     H68701   6.156   6.077   4.332  1.4589  3.4028  0.9305
  498MOL0     H68702   5.984   5.959   4.463 -2.8686 -0.9447  1.2364
  498MOL0     H68703   5.868   6.084   4.446 -0.1789  1.9115  0.2218
  498MOL0     H68704   5.242   6.108   3.749  0.7891 -1.1692  0.3257
  498MOL0     H68705   5.012   6.191   3.750  2.1760  0.9618 -0.8719
  498MOL0     H68706   4.573   6.162   3.756  3.1396  0.1956  1.1816
  498MOL0     H68707   4.365   6.295   3.728  2.3802 -2.1155 -1.0043
  498MOL0     H68708   4.995   7.598   3.822 -0.0880 -0.8172  0.7139
  498MOL0     H68709   5.172   7.760   3.850  0.3291 -1.4471 -0.2659
  498MOL0     H68710   5.686   7.630   3.977  2.7912 -1.0748  1.1446
  498MOL0     H68711   5.890   7.741   4.002 -1.5256 -1.4972  1.7028
  498MOL0     H68712   5.935   8.203   4.016  1.8603  0.6664 -0.5479
  498MOL0     H68713   5.907   8.131   4.174  0.7876  1.6356  1.0849
  498MOL0     H68714   6.109   8.241   4.192 -0.3283 -1.0494 -0.0972
  498MOL0     H68715   6.166   8.196   4.034  3.8150 -1.2741  1.8608
  498MOL0     H68716   6.115   7.998   4.244 -2.0480  1.9351 -1.6339
  498MOL0     H68717   6.188   7.962   4.088  0.4739 -0.4721  0.2340
  498MOL0     H68718   6.377   7.982   4.277  1.0924 -1.0223 -2.3884
  498MOL0     H68719   6.305   8.146   4.300 -0.3827 -0.3442  0.1442
  498MOL0     H68720   6.549   8.205   3.960  0.7016 -0.2577  0.3806
  498MOL0     H68721   5.683   8.117   4.032  0.4577 -0.6905  2.1946
  498MOL0     H68722   5.416   8.049   3.899 -1.1614 -0.8337 -0.2673
  498MOL0     H68723   5.358   7.998   4.065 -0.8542  1.0084  0.6157
  498MOL0     H68724   5.469   8.130   4.044  2.9314 -1.2350  0.5152
  499MOL0     O68725   2.815   5.568   6.311 -0.1277  0.4065 -0.0145
  499MOL0     C68726   2.780   5.683   6.291  0.6113  1.2729 -1.2448
  499MOL0     O68727   2.848   5.770   6.218 -0.3980 -0.4946  0.0148
  499MOL0     C68728   2.988   5.756   6.236  0.2273  1.1062 -0.4076
  499MOL0     C68729   3.073   5.763   6.122 -0.3039  0.3864  0.7579
  499MOL0     C68730   3.212   5.778   6.131  0.2383 -0.1821  0.2067
  499MOL0     C68731   3.264   5.797   6.257 -0.5138  0.0493  0.0732
  499MOL0     O68732   3.400   5.805   6.248  0.5435  0.2157  0.2814
  499MOL0     C68733   3.488   5.785   6.355  0.5639  0.0079  0.3416
  499MOL0     C68734   3.496   5.630   6.388 -0.1387  0.1536  0.1698
  499MOL0     C68735   3.615   5.580   6.463  0.3043  0.1583  0.3076
  499MOL0     C68736   3.663   5.683   6.572 -0.1710 -1.1676 -0.9795
  499MOL0     C68737   3.756   5.616   6.675  0.1748 -0.3316  0.0905
  499MOL0     C68738   3.812   5.712   6.783 -0.1883  0.3484  0.5556
  499MOL0     C68739   3.705   5.793   6.853  0.5310  0.5494 -0.4034
  499MOL0     C68740   3.741   5.874   6.985 -0.6974  0.9178  0.8878
  499MOL0     N68741   3.858   5.960   6.950 -0.1841  0.0328  0.4381
  499MOL0     C68742   3.857   6.065   6.862  0.1245 -0.2953 -0.4131
  499MOL0     C68743   3.965   6.130   6.899  0.1322  0.0939 -0.1261
  499MOL0     C68744   4.026   6.256   6.841 -0.3034 -0.3509  0.2740
  499MOL0     C68745   4.179   6.242   6.820 -0.1012  0.8649  0.0844
  499MOL0     C68746   4.241   6.345   6.724 -0.3190  0.1351 -1.0452
  499MOL0     C68747   4.212   6.488   6.745  0.7435 -0.5383 -0.2944
  499MOL0     O68748   4.251   6.548   6.871  0.5726 -0.1336 -0.2793
  499MOL0     C68749   4.376   6.604   6.884  0.1728  0.0244  0.4810
  499MOL0     C68750   4.412   6.707   6.800 -0.2329  0.0545 -0.6011
  499MOL0     C68751   4.542   6.758   6.803  0.1163  0.5110  0.4927
  499MOL0     C68752   4.575   6.870   6.707  0.2143 -0.5850  0.1611
  499MOL0     C68753   4.630   6.711   6.901 -0.3990  0.9185 -0.5621
  499MOL0     C68754   4.761   6.777   6.925  0.5909  1.0003  0.3964
  499MOL0     O68755   4.795   6.761   7.059 -0.0515  0.1868 -0.1354
  499MOL0     C68756   4.917   6.800   7.103 -0.2364  0.1164  0.5511
  499MOL0     C68757   4.929   6.935   7.129 -0.7420 -0.4116 -0.2536
  499MOL0     C68758   5.051   6.973   7.188  0.2823  0.2068 -1.3458
  499MOL0     C68759   5.149   6.878   7.225 -1.2385 -0.3306  0.1623
  499MOL0     O68760   5.273   6.921   7.272  0.0411  0.4819  0.2669
  499MOL0     C68761   5.274   6.980   7.398  0.1644  0.9958  0.4701
  499MOL0     C68762   5.385   7.065   7.406  0.2576  0.8981 -0.3750
  499MOL0     C68763   5.371   7.143   7.530 -0.3971  0.0896 -0.0183
  499MOL0     C68764   5.492   7.237   7.565 -0.0035  0.1274  0.6333
  499MOL0     C68765   5.444   7.321   7.675  0.0626 -0.2067 -0.0088
  499MOL0     C68766   5.571   7.408   7.717 -0.3154  0.3032  0.1842
  499MOL0     C68767   5.555   7.479   7.850 -0.1611 -1.8081  0.5167
  499MOL0     C68768   5.690   7.539   7.893  0.1402  0.3379 -0.3935
  499MOL0    Cl68769   5.678   7.617   8.047 -0.0059  0.3670  0.0675
  499MOL0     C68770   5.130   6.741   7.190  0.1302  0.4589 -0.2631
  499MOL0     C68771   5.013   6.704   7.128 -0.0726  0.5293  0.1066
  499MOL0     O68772   4.817   6.846   6.843  0.3616 -0.0681 -0.4244
  499MOL0     C68773   4.593   6.598   6.981  0.0228 -0.0862 -0.0965
  499MOL0     C68774   4.463   6.547   6.970  0.2427 -0.5009 -0.3237
  499MOL0     N68775   4.000   6.094   7.021  0.3961  0.1465 -0.3839
  499MOL0     N68776   3.944   5.986   7.054  0.1945 -0.8410  0.0735
  499MOL0     C68777   3.186   5.788   6.371 -0.3145  0.0404 -0.1877
  499MOL0     C68778   3.048   5.757   6.357 -0.5070  0.8306 -0.2172
  499MOL0     C68779   2.645   5.720   6.342 -0.1143  0.0110 -0.3828
  499MOL0     C68780   2.602   5.851   6.339 -0.5922  0.4129 -0.6501
  499MOL0     C68781   2.477   5.883   6.384  0.4137 -0.9441  0.0110
  499MOL0     C68782   2.378   5.781   6.415  0.4520 -0.6245 -0.0549
  499MOL0     O68783   2.245   5.810   6.449  0.1108 -0.0634  0.0154
  499MOL0     C68784   2.193   5.935   6.414 -0.2170 -0.1920 -0.0947
  499MOL0     C68785   2.047   5.938   6.449  0.3100  0.1151  0.9347
  499MOL0     C68786   2.024   5.896   6.597 -0.6601 -0.0936  0.1598
  499MOL0     C68787   2.116   5.963   6.709 -0.0405 -0.5495  0.1191
  499MOL0     C68788   2.109   6.105   6.718  0.2172 -0.3504  0.4073
  499MOL0     C68789   2.116   6.224   6.719 -0.1484 -0.2690  0.2525
  499MOL0     C68790   2.419   5.653   6.419  0.9155  0.0738  0.1469
  499MOL0     C68791   2.550   5.617   6.382  0.2640  0.0285 -0.1221
  499MOL0     C68792   2.593   5.469   6.414  1.4698  0.1383 -0.3954
  499MOL0     H68793   3.028   5.778   6.024 -1.2275 -2.1721  0.7257
  499MOL0     H68794   3.285   5.786   6.050  0.6557 -0.8634  0.5084
  499MOL0     H68795   3.456   5.844   6.442  0.8196 -1.6293  1.6062
  499MOL0     H68796   3.589   5.812   6.321 -0.0836  0.0166 -1.6715
  499MOL0     H68797   3.406   5.610   6.447  2.4013 -3.1445  3.4391
  499MOL0     H68798   3.482   5.577   6.294 -1.9246  2.9668 -1.2982
  499MOL0     H68799   3.583   5.485   6.506  3.8552 -1.4935 -0.2405
  499MOL0     H68800   3.699   5.563   6.394  0.9965 -1.7488  1.5417
  499MOL0     H68801   3.716   5.771   6.535  1.0648 -0.0282  2.9296
  499MOL0     H68802   3.577   5.713   6.633 -1.2818 -3.7131 -1.1400
  499MOL0     H68803   3.841   5.574   6.621  0.8856 -0.7519  1.4934
  499MOL0     H68804   3.705   5.531   6.721 -1.3760  2.3717  3.9182
  499MOL0     H68805   3.862   5.648   6.856  2.7247  1.9428  0.1001
  499MOL0     H68806   3.884   5.773   6.729 -0.8672 -1.1453 -2.1942
  499MOL0     H68807   3.637   5.711   6.874  0.6152  1.1015  2.3947
  499MOL0     H68808   3.664   5.866   6.782  0.5652  0.8757 -0.0915
  499MOL0     H68809   3.658   5.930   7.029 -2.0812 -0.2609 -0.1278
  499MOL0     H68810   3.775   5.798   7.056  0.1227  1.3429  0.9750
  499MOL0     H68811   3.782   6.089   6.787  0.4558  0.6972 -0.4502
  499MOL0     H68812   4.008   6.342   6.906  1.7438 -0.0348  0.4836
  499MOL0     H68813   3.989   6.279   6.740  0.8204 -0.5344 -0.2001
  499MOL0     H68814   4.228   6.238   6.918 -0.4507  0.0379  0.2368
  499MOL0     H68815   4.212   6.143   6.787  0.6099  1.6633 -1.6965
  499MOL0     H68816   4.349   6.328   6.728  0.0521  2.4389  0.1434
  499MOL0     H68817   4.201   6.312   6.627  0.1482 -2.2106 -0.5099
  499MOL0     H68818   4.244   6.546   6.658  0.0859 -2.7538 -2.0914
  499MOL0     H68819   4.103   6.495   6.744  0.6908 -0.4121  1.4712
  499MOL0     H68820   4.335   6.743   6.733 -0.7666 -0.0404 -0.0445
  499MOL0     H68821   4.488   6.893   6.644 -0.1648 -0.8389  0.5944
  499MOL0     H68822   4.654   6.841   6.637  0.5386  0.3932  0.1053
  499MOL0     H68823   4.616   6.960   6.753  2.8940 -1.7825  0.3032
  499MOL0     H68824   4.843   6.999   7.113  1.3582  2.8383  0.4226
  499MOL0     H68825   5.085   7.073   7.210  0.4258 -0.5328  2.6057
  499MOL0     H68826   5.185   7.041   7.416  0.4764  1.0855  1.7860
  499MOL0     H68827   5.285   6.903   7.474 -0.0853  1.6603  1.1984
  499MOL0     H68828   5.481   7.011   7.403 -0.7979 -1.1340  0.2346
  499MOL0     H68829   5.385   7.131   7.319 -1.1926  1.1603 -0.2066
  499MOL0     H68830   5.354   7.078   7.616  1.3439  0.7490  0.8747
  499MOL0     H68831   5.287   7.212   7.522  0.0167  0.7097  0.8531
  499MOL0     H68832   5.507   7.295   7.473  0.5160 -1.0565 -0.0560
  499MOL0     H68833   5.583   7.184   7.595 -0.1375  0.1157  1.0238
  499MOL0     H68834   5.353   7.369   7.641  0.5956  0.4432 -0.5510
  499MOL0     H68835   5.411   7.264   7.762 -3.2504  1.0022 -0.3492
  499MOL0     H68836   5.594   7.477   7.635  1.7793 -0.6073 -0.0601
  499MOL0     H68837   5.657   7.341   7.728  1.4664  2.6364  1.5360
  499MOL0     H68838   5.529   7.406   7.927  1.5727 -3.2996 -0.2499
  499MOL0     H68839   5.491   7.568   7.846  3.0191  0.6265 -2.6835
  499MOL0     H68840   5.713   7.610   7.812 -2.0060 -0.9689 -2.2846
  499MOL0     H68841   5.764   7.459   7.895 -1.6874 -1.4222 -0.3588
  499MOL0     H68842   5.221   6.685   7.209 -0.2395  0.1910  0.7877
  499MOL0     H68843   4.984   6.604   7.098 -1.3006  0.3648  1.7377
  499MOL0     H68844   4.657   6.548   7.052  1.0912  0.7558 -0.4447
  499MOL0     H68845   4.427   6.456   7.018  1.2531 -0.7403  0.0154
  499MOL0     H68846   3.242   5.800   6.463 -0.9909  0.5153  0.1727
  499MOL0     H68847   2.993   5.737   6.449  1.2523 -3.6654  0.0764
  499MOL0     H68848   2.655   5.943   6.318 -2.1242  0.3987 -6.2287
  499MOL0     H68849   2.454   5.989   6.379 -0.5016 -1.0755  1.0408
  499MOL0     H68850   2.236   6.013   6.477  1.0392  2.9431 -4.3677
  499MOL0     H68851   2.207   5.955   6.307 -0.6098 -0.2764 -0.1614
  499MOL0     H68852   1.995   5.868   6.381  0.4797  1.0803 -0.2121
  499MOL0     H68853   2.017   6.041   6.429 -0.9226  0.3881  3.6880
  499MOL0     H68854   1.920   5.921   6.619 -1.4142 -0.1638 -2.8605
  499MOL0     H68855   2.028   5.787   6.603 -1.0394 -0.1037  0.2721
  499MOL0     H68856   2.221   5.940   6.690  0.3135  1.4725 -0.6159
  499MOL0     H68857   2.101   5.918   6.807  0.3131  0.3981  0.6116
  499MOL0     H68858   2.124   6.330   6.711 -1.0682 -0.3343 -2.9008
  499MOL0     H68859   2.347   5.583   6.460  1.0207 -0.5566 -0.7186
  499MOL0     H68860   2.636   5.411   6.332  1.4896  1.9263 -1.7030
  499MOL0     H68861   2.662   5.454   6.498  0.3809  1.3985  0.7833
  499MOL0     H68862   2.500   5.418   6.439  0.7603  2.4522  2.2795
  500MOL0     O68863   4.148   3.865   1.104  0.1045  0.0664 -0.4968
  500MOL0     C68864   4.115   3.791   1.197 -0.2412 -0.2866  0.2031
  500MOL0     O68865   4.196   3.693   1.258 -0.1414  0.4941  1.0898
  500MOL0     C68866   4.315   3.658   1.199  0.6203  0.8121 -0.3207
  500MOL0     C68867   4.403   3.768   1.164  0.6734  0.6516 -0.6508
  500MOL0     C68868   4.532   3.739   1.122  0.1973  0.2314  1.0790
  500MOL0     C68869   4.575   3.609   1.103  0.7053  0.7365  0.4326
  500MOL0     O68870   4.694   3.593   1.050  0.0210 -0.0750  0.7290
  500MOL0     C68871   4.764   3.476   1.094 -0.5579  0.3883 -0.4872
  500MOL0     C68872   4.917   3.482   1.047 -0.1988  0.4721  0.2981
  500MOL0     C68873   4.998   3.594   1.117 -0.8960  0.0780  0.6412
  500MOL0     C68874   5.129   3.617   1.029  0.9369  0.1411  0.4199
  500MOL0     C68875   5.229   3.705   1.106  0.2963  0.2967 -0.7392
  500MOL0     C68876   5.369   3.662   1.084  0.3511  0.5789 -0.2270
  500MOL0     C68877   5.474   3.735   1.174  1.2937  0.0924  0.0937
  500MOL0     C68878   5.614   3.687   1.149  0.2871  0.8988  0.1973
  500MOL0     N68879   5.614   3.554   1.212  0.1174  0.0855  0.4069
  500MOL0     C68880   5.597   3.529   1.349 -0.2045  0.0298  0.0007
  500MOL0     C68881   5.582   3.394   1.358  0.7283  0.5592 -0.8838
  500MOL0     C68882   5.579   3.314   1.491  0.3479  0.0376 -0.2126
  500MOL0     C68883   5.442   3.287   1.550  0.8243 -0.1568  0.4593
  500MOL0     C68884   5.392   3.421   1.613  0.4153  0.1383  0.3763
  500MOL0     C68885   5.268   3.418   1.705  0.1636  0.6672  0.2618
  500MOL0     O68886   5.208   3.550   1.709 -0.0332 -0.3091  0.0050
  500MOL0     C68887   5.121   3.574   1.815 -0.7586  0.1188  0.4645
  500MOL0     C68888   5.003   3.512   1.809 -0.3128  1.1501 -0.6922
  500MOL0     C68889   4.912   3.529   1.911 -0.5948 -0.4947 -0.7666
  500MOL0     C68890   4.771   3.487   1.883  0.7859  0.5678  0.7842
  500MOL0     C68891   4.947   3.594   2.032 -0.3217 -0.4613 -0.1661
  500MOL0     C68892   4.863   3.613   2.150  1.4752  0.0133  0.5566
  500MOL0     O68893   4.909   3.722   2.224  0.1495 -0.0710 -0.0542
  500MOL0     C68894   4.857   3.739   2.352 -1.0546  0.2470 -0.5425
  500MOL0     C68895   4.725   3.764   2.372 -0.4017  0.3447 -0.3765
  500MOL0     C68896   4.683   3.808   2.501  0.1816  1.3104 -0.0213
  500MOL0     C68897   4.776   3.823   2.609  0.2917  0.0664  1.1106
  500MOL0     O68898   4.738   3.852   2.738  0.2609  0.1425  0.2947
  500MOL0     C68899   4.610   3.821   2.788 -0.7504 -0.2464  0.0023
  500MOL0     C68900   4.617   3.788   2.935 -0.0756  0.1502  0.2641
  500MOL0     C68901   4.481   3.824   3.009 -0.1089  0.3015  0.0777
  500MOL0     C68902   4.461   3.748   3.145  0.3263 -0.1154  0.6261
  500MOL0     C68903   4.359   3.830   3.233 -0.4260 -0.0815  0.8243
  500MOL0     C68904   4.222   3.810   3.164  0.6752  0.3609 -0.1562
  500MOL0     C68905   4.112   3.875   3.259 -0.0212  0.0695 -0.5912
  500MOL0     C68906   4.119   4.030   3.245 -0.0300 -1.6329 -0.2046
  500MOL0    Cl68907   3.989   4.109   3.348  0.2170 -0.1350  0.0211
  500MOL0     C68908   4.912   3.786   2.584  0.4648 -0.9291 -1.2735
  500MOL0     C68909   4.954   3.749   2.452 -0.6603 -0.4191 -0.2420
  500MOL0     O68910   4.765   3.538   2.173 -0.5026  0.3195 -0.6793
  500MOL0     C68911   5.081   3.645   2.032  0.4663 -0.2466 -0.4395
  500MOL0     C68912   5.169   3.636   1.927 -0.2895  0.1499 -0.5988
  500MOL0     N68913   5.583   3.336   1.232 -0.4257  0.5127  0.6612
  500MOL0     N68914   5.614   3.431   1.147  0.0609 -0.5297  0.3956
  500MOL0     C68915   4.487   3.505   1.132  0.7728  0.7104  0.2700
  500MOL0     C68916   4.357   3.526   1.184  0.2564 -0.3833  0.0703
  500MOL0     C68917   3.981   3.824   1.246 -0.5112 -1.0276 -0.2899
  500MOL0     C68918   3.915   3.935   1.180  0.1743  0.7395 -0.2715
  500MOL0     C68919   3.779   3.967   1.211 -0.2155 -0.1163 -0.7476
  500MOL0     C68920   3.720   3.904   1.313  0.6074 -1.1774 -0.5105
  500MOL0     O68921   3.605   3.937   1.375 -0.7709 -0.2551 -0.4464
  500MOL0     C68922   3.543   4.060   1.345  0.4004 -0.8642  0.6821
  500MOL0     C68923   3.430   4.045   1.232 -0.1561  0.3039 -0.0120
  500MOL0     C68924   3.337   4.163   1.240  0.4620  0.6346 -0.0201
  500MOL0     C68925   3.188   4.125   1.238  0.2918  0.6097  0.7542
  500MOL0     C68926   3.157   4.048   1.365 -0.5329 -0.9702  0.6914
  500MOL0     C68927   3.130   3.986   1.466 -0.1127  0.0982 -0.2675
  500MOL0     C68928   3.776   3.791   1.361 -0.3440 -0.1262  0.6857
  500MOL0     C68929   3.904   3.750   1.331 -0.0093 -0.2695  0.2867
  500MOL0     C68930   3.960   3.629   1.408  0.4300  0.8657 -0.4265
  500MOL0     H68931   4.367   3.869   1.174  0.7031  0.5249  0.9583
  500MOL0     H68932   4.611   3.808   1.095  1.4308 -1.6733 -0.5389
  500MOL0     H68933   4.726   3.380   1.057 -3.0022  0.4809  1.5364
  500MOL0     H68934   4.760   3.464   1.203  0.4934 -0.2113 -0.5026
  500MOL0     H68935   4.964   3.386   1.070  0.7678  1.5255  3.1204
  500MOL0     H68936   4.924   3.505   0.940  1.1802  0.4672  0.3759
  500MOL0     H68937   4.935   3.680   1.142 -3.8089 -1.0239 -2.3177
  500MOL0     H68938   5.034   3.547   1.209 -3.1531 -1.5328  0.7639
  500MOL0     H68939   5.174   3.521   1.005  1.0198  0.6646 -1.7198
  500MOL0     H68940   5.104   3.666   0.934  2.1473 -1.7898 -0.9801
  500MOL0     H68941   5.205   3.692   1.212  2.1638 -0.6181 -0.3815
  500MOL0     H68942   5.206   3.807   1.076 -0.3173  0.8608  1.5025
  500MOL0     H68943   5.378   3.556   1.109  1.6952  0.7489  0.0679
  500MOL0     H68944   5.407   3.676   0.982  2.1089  2.0688  0.5758
  500MOL0     H68945   5.441   3.719   1.277  0.6220 -1.4032 -0.3237
  500MOL0     H68946   5.466   3.841   1.145 -0.4493  0.9551  3.2111
  500MOL0     H68947   5.627   3.660   1.043  3.4051  0.5506  0.5641
  500MOL0     H68948   5.694   3.755   1.181  2.3582 -0.7926 -1.0762
  500MOL0     H68949   5.610   3.603   1.427 -0.9851 -2.0678  2.2401
  500MOL0     H68950   5.641   3.374   1.559 -1.6578 -0.4170  2.1179
  500MOL0     H68951   5.634   3.221   1.477  3.0546  1.5861 -0.7483
  500MOL0     H68952   5.375   3.253   1.470 -1.2257  1.8722  1.2105
  500MOL0     H68953   5.441   3.203   1.620  0.2344 -1.4801 -1.0636
  500MOL0     H68954   5.477   3.469   1.662  1.3358  0.9209 -1.8464
  500MOL0     H68955   5.381   3.488   1.527  1.0538  0.2325  0.3639
  500MOL0     H68956   5.193   3.348   1.667  1.1174  0.5244 -1.4833
  500MOL0     H68957   5.303   3.406   1.808  2.4492 -0.0157 -0.5375
  500MOL0     H68958   4.974   3.467   1.715 -1.7135  0.7306 -0.0915
  500MOL0     H68959   4.700   3.567   1.904 -1.0848 -1.2170  1.6709
  500MOL0     H68960   4.739   3.400   1.942  1.2255 -0.2274 -0.1149
  500MOL0     H68961   4.752   3.458   1.779 -0.5564  1.4771  0.7513
  500MOL0     H68962   4.649   3.767   2.294  0.0919  1.9619 -0.8232
  500MOL0     H68963   4.577   3.824   2.517 -0.0039  0.8666 -0.7334
  500MOL0     H68964   4.553   3.914   2.780 -0.3027 -0.1057 -2.2567
  500MOL0     H68965   4.568   3.744   2.723 -0.0552 -0.1927 -0.5205
  500MOL0     H68966   4.637   3.681   2.944 -0.5328  0.0956  0.7084
  500MOL0     H68967   4.693   3.847   2.986 -0.8201 -0.2270  1.8795
  500MOL0     H68968   4.398   3.815   2.939 -0.1478  1.6281 -0.0834
  500MOL0     H68969   4.485   3.933   3.022  2.3591  0.4127 -0.9955
  500MOL0     H68970   4.558   3.747   3.196  1.6256 -2.8508 -1.6721
  500MOL0     H68971   4.428   3.646   3.126 -3.3009  1.4068 -2.9149
  500MOL0     H68972   4.357   3.792   3.335 -2.5554 -1.7498  0.2269
  500MOL0     H68973   4.399   3.932   3.231  1.8065 -0.9199 -0.2175
  500MOL0     H68974   4.207   3.702   3.160  3.7541 -0.1529 -0.7482
  500MOL0     H68975   4.215   3.846   3.061 -2.4352  1.4879  0.3397
  500MOL0     H68976   4.115   3.837   3.362  2.6287  0.9945 -0.2315
  500MOL0     H68977   4.015   3.855   3.215 -0.8413  0.8377  0.7722
  500MOL0     H68978   4.109   4.064   3.142  0.6260  2.1405  0.8245
  500MOL0     H68979   4.217   4.064   3.278  0.5581  0.3946 -3.5991
  500MOL0     H68980   4.982   3.782   2.666 -0.4183  0.4434 -0.4211
  500MOL0     H68981   5.055   3.722   2.422 -1.3042  0.7283 -3.8345
  500MOL0     H68982   5.115   3.699   2.120 -0.5450  2.5252 -1.6152
  500MOL0     H68983   5.272   3.669   1.933 -0.8697  1.8247  3.1319
  500MOL0     H68984   4.517   3.402   1.119  1.7017  1.0716 -0.5259
  500MOL0     H68985   4.294   3.442   1.212 -1.4587  0.1981 -1.7746
  500MOL0     H68986   3.965   4.003   1.110 -0.8990  0.8776 -0.9253
  500MOL0     H68987   3.718   4.046   1.168 -0.6552  0.4505  0.8407
  500MOL0     H68988   3.499   4.102   1.436 -2.6267  0.2298 -1.1363
  500MOL0     H68989   3.616   4.139   1.325 -1.6254  1.5790  2.2323
  500MOL0     H68990   3.368   3.955   1.237  1.0543 -0.8170 -2.8736
  500MOL0     H68991   3.469   4.043   1.130 -0.7393 -1.6593 -0.2356
  500MOL0     H68992   3.368   4.232   1.319 -2.2073  0.9611  0.8448
  500MOL0     H68993   3.354   4.217   1.146  1.6092 -1.1131 -0.8826
  500MOL0     H68994   3.169   4.062   1.151 -0.1457  0.7911  0.7126
  500MOL0     H68995   3.119   4.210   1.234  1.4049  1.6406  2.5271
  500MOL0     H68996   3.094   3.918   1.541 -0.3247 -0.2597 -0.6924
  500MOL0     H68997   3.723   3.738   1.440 -1.2485  0.5016  0.5263
  500MOL0     H68998   3.883   3.562   1.449  0.5453  0.9900 -0.0007
  500MOL0     H68999   4.029   3.558   1.363 -0.1797 -2.0598  2.8354
  500MOL0     H69000   4.012   3.677   1.492  1.3741  0.5275 -0.8085
  501MOL0     O69001   1.349   1.757   5.357 -0.0732  0.9796 -0.5054
  501MOL0     C69002   1.318   1.839   5.448 -0.8567  0.7371  0.3491
  501MOL0     O69003   1.260   1.811   5.571  0.3888  0.3987  0.1788
  501MOL0     C69004   1.238   1.679   5.600  0.9675  1.1595  0.0795
  501MOL0     C69005   1.167   1.584   5.520  0.0129  0.1822 -1.1853
  501MOL0     C69006   1.179   1.452   5.547 -0.1818  0.2357 -0.1777
  501MOL0     C69007   1.249   1.397   5.660 -0.2173  0.3227  0.1841
  501MOL0     O69008   1.236   1.256   5.677  0.6130  0.1900 -0.2129
  501MOL0     C69009   1.309   1.203   5.789  0.2321  0.1277 -0.0810
  501MOL0     C69010   1.257   1.059   5.798 -0.7418  0.9735 -0.0323
  501MOL0     C69011   1.333   0.987   5.910  0.7685  1.0752 -0.1145
  501MOL0     C69012   1.266   0.842   5.925  0.4474  0.3106 -0.1430
  501MOL0     C69013   1.346   0.746   6.023 -0.0979  0.0765  0.0375
  501MOL0     C69014   1.339   0.797   6.161 -0.3589 -0.2688 -0.3708
  501MOL0     C69015   1.447   0.748   6.255 -0.4971  0.0897  0.2063
  501MOL0     C69016   1.585   0.807   6.218 -0.2874 -0.4353 -0.2636
  501MOL0     N69017   1.690   0.712   6.244 -0.0843  0.5769 -0.0198
  501MOL0     C69018   1.758   0.696   6.359  0.1086 -0.5597  1.6105
  501MOL0     C69019   1.829   0.588   6.335  0.2050  1.1333 -1.0213
  501MOL0     C69020   1.916   0.546   6.444 -0.1395 -0.4614  0.6808
  501MOL0     C69021   1.903   0.398   6.483  1.1022 -0.4364 -0.4905
  501MOL0     C69022   2.002   0.364   6.592  0.7375  0.3260  0.1936
  501MOL0     C69023   1.950   0.281   6.702  0.3899  0.1628 -0.8805
  501MOL0     O69024   2.060   0.245   6.796 -0.7964  0.6361 -0.0280
  501MOL0     C69025   2.033   0.167   6.906 -0.1187 -0.8941  0.5485
  501MOL0     C69026   1.910   0.167   6.965 -0.1512 -0.1880  0.1920
  501MOL0     C69027   1.890   0.095   7.082  0.2626 -0.3703 -0.5969
  501MOL0     C69028   1.751   0.117   7.147 -0.2316 -0.5410  0.1681
  501MOL0     C69029   1.990   0.010   7.135  0.0454 -0.0745  0.3965
  501MOL0     C69030   1.963  -0.082   7.255  0.1511 -0.1848 -0.7196
  501MOL0     O69031   2.068  -0.154   7.292  0.2604  0.1398 -0.0788
  501MOL0     C69032   2.054  -0.216   7.421 -0.4800 -0.5995 -0.4131
  501MOL0     C69033   2.045  -0.354   7.421  1.2343  0.2344 -0.1265
  501MOL0     C69034   2.075  -0.427   7.541  0.1047 -0.0595 -0.0592
  501MOL0     C69035   2.103  -0.357   7.664 -0.8340 -1.0424 -0.5272
  501MOL0     O69036   2.120  -0.413   7.784 -0.2793 -0.1545  0.0730
  501MOL0     C69037   2.141  -0.555   7.794 -0.2694 -0.8256  0.6958
  501MOL0     C69038   2.008  -0.647   7.794 -1.1867  0.0290  0.1725
  501MOL0     C69039   2.059  -0.795   7.778  0.1435 -0.4745  0.2770
  501MOL0     C69040   1.955  -0.904   7.744 -0.0262  0.3977  0.2511
  501MOL0     C69041   1.863  -0.927   7.859 -0.1954  0.8201  0.0184
  501MOL0     C69042   1.773  -1.047   7.844 -0.2987  0.0182 -0.8589
  501MOL0     C69043   1.704  -1.076   7.983  0.0143  0.5013  0.9893
  501MOL0     C69044   1.620  -1.206   7.984  0.5069 -0.3285 -0.0810
  501MOL0    Cl69045   1.734  -1.338   7.954 -0.5365  0.2678 -0.6036
  501MOL0     C69046   2.113  -0.215   7.664 -0.4894  1.1951  0.7752
  501MOL0     C69047   2.077  -0.145   7.542 -0.0343  0.1421 -0.2007
  501MOL0     O69048   1.853  -0.091   7.313  0.4680  0.5490  0.2672
  501MOL0     C69049   2.118   0.012   7.068  0.9775 -0.5437  0.6299
  501MOL0     C69050   2.138   0.091   6.956  0.3723  0.1361  0.0044
  501MOL0     N69051   1.807   0.540   6.205  0.3549 -0.9711  0.1271
  501MOL0     N69052   1.718   0.615   6.152 -0.0128  0.2316 -0.3859
  501MOL0     C69053   1.327   1.486   5.735  0.1923 -0.4108  0.0922
  501MOL0     C69054   1.318   1.623   5.706 -0.1678 -1.0924  0.0090
  501MOL0     C69055   1.333   1.981   5.421  0.1670  0.3283 -0.1621
  501MOL0     C69056   1.230   2.069   5.459 -0.5648  0.2258 -0.2603
  501MOL0     C69057   1.241   2.202   5.431  0.6532 -1.0278  0.5489
  501MOL0     C69058   1.353   2.253   5.358 -0.4714 -0.1131  0.5388
  501MOL0     O69059   1.360   2.385   5.321  0.4421  0.1039  0.3987
  501MOL0     C69060   1.240   2.451   5.266  1.2001 -0.4902 -0.3498
  501MOL0     C69061   1.235   2.397   5.126 -0.2278  0.3468 -0.0154
  501MOL0     C69062   1.130   2.472   5.042 -0.8212 -0.2090  1.0209
  501MOL0     C69063   1.096   2.418   4.903 -0.1602 -0.6881  0.2281
  501MOL0     C69064   1.210   2.438   4.812 -0.3524 -0.4379 -0.0860
  501MOL0     C69065   1.305   2.464   4.742 -0.5430 -0.1506 -0.4059
  501MOL0     C69066   1.450   2.164   5.319  0.7994 -0.0752 -0.6353
  501MOL0     C69067   1.446   2.028   5.346  0.0346 -0.0858  0.3752
  501MOL0     C69068   1.554   1.941   5.288 -0.8207  0.3313  1.0424
  501MOL0     H69069   1.114   1.605   5.428 -1.7244  1.5375  0.0564
  501MOL0     H69070   1.132   1.377   5.483 -0.9381  1.8072 -1.5347
  501MOL0     H69071   1.286   1.242   5.889 -2.6504 -2.0117  0.2426
  501MOL0     H69072   1.414   1.188   5.762  1.3280  4.0761  1.3668
  501MOL0     H69073   1.149   1.047   5.812 -1.4730  0.6929 -4.4524
  501MOL0     H69074   1.280   1.000   5.709 -0.1052 -0.6090  1.1349
  501MOL0     H69075   1.438   0.974   5.882  1.1120  0.9860  1.1486
  501MOL0     H69076   1.321   1.046   6.001 -4.0041 -0.3661  0.4745
  501MOL0     H69077   1.164   0.844   5.963  0.1319 -3.9605 -0.2408
  501MOL0     H69078   1.273   0.801   5.824 -0.0633  2.3813 -1.0750
  501MOL0     H69079   1.447   0.724   5.988  0.3776  1.4048  0.5000
  501MOL0     H69080   1.306   0.645   6.033 -0.2438  0.1420  0.1308
  501MOL0     H69081   1.345   0.905   6.173 -0.3701 -0.5232  3.2472
  501MOL0     H69082   1.237   0.775   6.196 -0.5959  0.7110 -0.4337
  501MOL0     H69083   1.454   0.639   6.269  0.1583  0.4088  3.1783
  501MOL0     H69084   1.432   0.786   6.357  1.6811  1.0154  0.2555
  501MOL0     H69085   1.576   0.827   6.111 -1.5125 -0.5441 -0.1925
  501MOL0     H69086   1.613   0.901   6.268 -4.5706 -0.0201  1.8317
  501MOL0     H69087   1.768   0.760   6.446  1.0701 -0.2702  1.2995
  501MOL0     H69088   1.901   0.615   6.528 -1.7063 -0.0148  0.0784
  501MOL0     H69089   2.016   0.565   6.404 -0.5798 -1.5332 -1.0592
  501MOL0     H69090   1.802   0.389   6.523  0.1740 -0.0278 -2.6410
  501MOL0     H69091   1.899   0.323   6.404 -1.2038 -1.9371  0.9225
  501MOL0     H69092   2.082   0.302   6.551  0.3509 -0.4331  0.5667
  501MOL0     H69093   2.045   0.461   6.620  0.3227  0.4836  0.3029
  501MOL0     H69094   1.882   0.338   6.766 -1.1311 -0.3747 -1.9829
  501MOL0     H69095   1.886   0.201   6.665 -1.5850  0.6951  1.1426
  501MOL0     H69096   1.825   0.215   6.919 -0.8112 -4.4936 -3.8059
  501MOL0     H69097   1.693   0.195   7.097  1.5463  0.5985 -0.2331
  501MOL0     H69098   1.768   0.144   7.251  3.0263  1.5951 -0.7521
  501MOL0     H69099   1.692   0.025   7.153 -1.1819  0.1877  3.7251
  501MOL0     H69100   2.015  -0.403   7.329 -0.6126  2.8065 -1.0032
  501MOL0     H69101   2.090  -0.535   7.536 -3.4829 -0.6026 -2.2904
  501MOL0     H69102   2.209  -0.596   7.719 -0.1456 -1.0949  0.9523
  501MOL0     H69103   2.193  -0.574   7.888 -1.5165  2.2152  2.1297
  501MOL0     H69104   1.940  -0.630   7.878 -0.3696 -0.3165  0.9273
  501MOL0     H69105   1.959  -0.622   7.700  0.0271 -0.4302 -0.6038
  501MOL0     H69106   2.097  -0.811   7.879  1.9747  2.7659  0.2567
  501MOL0     H69107   2.133  -0.792   7.697  1.0148  1.0656  1.0790
  501MOL0     H69108   1.999  -1.004   7.735 -2.1176 -0.6636  1.1456
  501MOL0     H69109   1.898  -0.876   7.654  0.6253  2.6159  0.4680
  501MOL0     H69110   1.923  -0.952   7.948 -0.0959  1.3829  0.1131
  501MOL0     H69111   1.804  -0.838   7.879  0.9566  2.0014 -1.6348
  501MOL0     H69112   1.840  -1.129   7.819  0.8783  0.5209  0.4948
  501MOL0     H69113   1.701  -1.020   7.766 -2.2662  1.1620  1.2388
  501MOL0     H69114   1.645  -0.987   8.005 -0.0849  0.5408  0.5764
  501MOL0     H69115   1.777  -1.085   8.065  0.5098 -2.1978  0.3608
  501MOL0     H69116   1.554  -1.221   7.898  2.2495 -0.1712 -1.5225
  501MOL0     H69117   1.570  -1.203   8.081  0.7743  2.9844  0.0615
  501MOL0     H69118   2.158  -0.165   7.749 -1.2612 -1.6760  3.0106
  501MOL0     H69119   2.098  -0.039   7.544  1.0227 -0.0667  0.4305
  501MOL0     H69120   2.198  -0.049   7.109  1.6120  1.7953  3.1130
  501MOL0     H69121   2.237   0.099   6.912  0.9621  0.4553  1.3231
  501MOL0     H69122   1.394   1.458   5.816  1.7977 -0.3991 -1.1804
  501MOL0     H69123   1.374   1.695   5.763 -1.8842  0.2236  0.1165
  501MOL0     H69124   1.149   2.024   5.515  0.5488 -2.6241 -0.7584
  501MOL0     H69125   1.165   2.266   5.474  0.3036  0.2460 -1.8281
  501MOL0     H69126   1.147   2.435   5.321  1.0326 -1.0487 -0.7777
  501MOL0     H69127   1.267   2.557   5.269  3.6798 -1.0946  2.0019
  501MOL0     H69128   1.216   2.290   5.120  1.7347  0.0037 -1.4172
  501MOL0     H69129   1.333   2.401   5.078  0.4010 -4.8326  0.2412
  501MOL0     H69130   1.037   2.474   5.099 -0.2583 -1.0641  1.9985
  501MOL0     H69131   1.161   2.576   5.027 -0.9053 -0.1145  1.4945
  501MOL0     H69132   1.007   2.468   4.864  0.0246  0.2496  0.9726
  501MOL0     H69133   1.069   2.313   4.892 -0.4132 -0.4919 -1.3224
  501MOL0     H69134   1.395   2.469   4.684 -1.7473  0.8073 -2.2951
  501MOL0     H69135   1.534   2.211   5.268 -0.6805  0.8548 -2.3104
  501MOL0     H69136   1.521   1.890   5.197 -3.5923 -0.5294  2.4263
  501MOL0     H69137   1.646   1.993   5.259 -0.3280 -0.3537  1.3678
  501MOL0     H69138   1.592   1.871   5.363 -0.6982 -0.0506  0.6285
  502MOL0     O69139   0.445   3.871   9.909  0.1458  0.2505  0.0931
  502MOL0     C69140   0.349   3.793   9.916 -0.0530  0.2313 -0.2361
  502MOL0     O69141   0.323   3.684   9.832 -0.9546 -0.4311 -0.2097
  502MOL0     C69142   0.405   3.647   9.732 -0.2326  0.3176  0.5703
  502MOL0     C69143   0.486   3.532   9.749  0.0753 -0.0995  0.1108
  502MOL0     C69144   0.560   3.479   9.642  0.2670 -0.5052 -0.4439
  502MOL0     C69145   0.574   3.553   9.525 -0.3250  0.4515  0.2225
  502MOL0     O69146   0.659   3.493   9.429 -0.2235 -0.2638  0.5880
  502MOL0     C69147   0.781   3.569   9.398  0.1484  0.3447 -0.0834
  502MOL0     C69148   0.908   3.493   9.434  0.1236 -0.1287 -0.1692
  502MOL0     C69149   0.927   3.468   9.583  0.1992 -0.8022 -0.0397
  502MOL0     C69150   1.058   3.409   9.614 -0.8261 -0.0943 -0.7840
  502MOL0     C69151   1.089   3.418   9.758 -0.4371 -0.5272 -0.5599
  502MOL0     C69152   1.239   3.394   9.785 -0.6342 -0.0736 -0.4679
  502MOL0     C69153   1.265   3.313   9.914  0.2450 -0.7744 -0.9347
  502MOL0     C69154   1.402   3.324   9.969 -0.0994 -0.4089  0.4384
  502MOL0     N69155   1.474   3.195   9.964 -0.1456  0.2214  0.1921
  502MOL0     C69156   1.614   3.205   9.956  0.1725  0.3449  0.1770
  502MOL0     C69157   1.650   3.071   9.943 -0.3754 -0.2377 -0.0638
  502MOL0     C69158   1.795   3.013   9.951  0.5175  0.1426  0.8220
  502MOL0     C69159   1.829   2.948   9.817  0.3536  0.5490  0.0703
  502MOL0     C69160   1.972   2.903   9.810 -0.5122 -0.1979  0.2428
  502MOL0     C69161   2.077   3.022   9.787  0.2710  0.5910 -0.2160
  502MOL0     O69162   2.037   3.101   9.673 -0.1279  0.0794  0.5496
  502MOL0     C69163   2.138   3.161   9.605 -0.2433 -0.9701  0.0350
  502MOL0     C69164   2.152   3.151   9.468  0.0259 -0.3596 -0.0896
  502MOL0     C69165   2.265   3.194   9.396 -0.3328  0.8147 -1.2239
  502MOL0     C69166   2.265   3.176   9.247 -1.4324  0.3312 -0.1499
  502MOL0     C69167   2.367   3.249   9.471 -0.6836  0.9047 -0.2686
  502MOL0     C69168   2.507   3.281   9.427 -0.9246  0.0009  0.1729
  502MOL0     O69169   2.605   3.291   9.527  0.3024  0.0591  0.4313
  502MOL0     C69170   2.723   3.338   9.490 -0.2533  0.5298  0.6897
  502MOL0     C69171   2.739   3.449   9.404 -0.6402 -0.2636 -0.8238
  502MOL0     C69172   2.866   3.488   9.357 -0.4459  0.5474  0.4565
  502MOL0     C69173   2.985   3.425   9.403  0.7653 -0.6848 -0.1711
  502MOL0     O69174   3.106   3.472   9.363  0.1646  0.3173 -0.5402
  502MOL0     C69175   3.230   3.394   9.381 -0.5602  0.8121  0.2810
  502MOL0     C69176   3.330   3.498   9.367 -0.5833  0.3609  0.0918
  502MOL0     C69177   3.463   3.431   9.351 -0.3420 -0.1914  0.4679
  502MOL0     C69178   3.582   3.525   9.369  0.0759 -1.1442  0.5129
  502MOL0     C69179   3.715   3.453   9.358 -0.6443  0.0287 -1.1322
  502MOL0     C69180   3.835   3.539   9.382 -0.7405 -0.7787 -0.2180
  502MOL0     C69181   3.959   3.469   9.341 -0.1820 -0.1126 -0.2129
  502MOL0     C69182   4.075   3.542   9.407  0.2038 -0.3682  0.2776
  502MOL0    Cl69183   4.226   3.481   9.331 -0.1852 -0.3242  0.3303
  502MOL0     C69184   2.964   3.328   9.494 -0.0442  0.5895  0.1683
  502MOL0     C69185   2.840   3.277   9.532  0.3761  0.3208 -0.0120
  502MOL0     O69186   2.536   3.277   9.305 -0.0138  0.0182  0.5257
  502MOL0     C69187   2.347   3.282   9.608 -0.3327 -1.3004  0.3433
  502MOL0     C69188   2.231   3.242   9.674 -0.3461 -0.0906  0.0270
  502MOL0     N69189   1.537   2.985   9.963  0.3750 -0.9180 -0.4580
  502MOL0     N69190   1.431   3.065   9.975 -0.3176  0.0532  0.6878
  502MOL0     C69191   0.504   3.674   9.505 -0.3555 -0.1551  0.3862
  502MOL0     C69192   0.410   3.719   9.605 -1.0607  1.4845  0.3986
  502MOL0     C69193   0.245   3.819  10.019 -0.9336  0.1621  0.5175
  502MOL0     C69194   0.114   3.830   9.972 -0.3159  0.3914  0.1883
  502MOL0     C69195   0.012   3.841  10.070  0.5216 -0.2705  0.1642
  502MOL0     C69196   0.039   3.843  10.208 -0.3241 -0.2097  0.3765
  502MOL0     O69197  -0.063   3.868  10.296  0.0414 -0.3080 -0.1322
  502MOL0     C69198  -0.161   3.763  10.309  0.0977  0.2601 -0.1652
  502MOL0     C69199  -0.126   3.667  10.433  0.4603 -0.5180 -0.4764
  502MOL0     C69200  -0.242   3.591  10.485  0.1033 -0.6917  1.2645
  502MOL0     C69201  -0.356   3.683  10.525 -0.7110  0.1399 -0.6867
  502MOL0     C69202  -0.469   3.676  10.428 -0.2041 -0.1084 -0.0643
  502MOL0     C69203  -0.563   3.683  10.349 -0.0973  0.6934  0.9555
  502MOL0     C69204   0.172   3.843  10.240  0.4941  0.5484 -0.2584
  502MOL0     C69205   0.276   3.836  10.155 -0.0381 -0.4303 -0.1675
  502MOL0     C69206   0.417   3.822  10.214 -0.5134 -0.6669  0.8540
  502MOL0     H69207   0.476   3.488   9.847 -3.7381  1.1430  0.4383
  502MOL0     H69208   0.631   3.399   9.658  1.3301  0.7163  1.3376
  502MOL0     H69209   0.788   3.657   9.462 -1.3307 -1.2694  2.4924
  502MOL0     H69210   0.783   3.592   9.291 -0.6742  0.1832 -0.1436
  502MOL0     H69211   0.920   3.395   9.387  3.0755  0.1758 -0.2542
  502MOL0     H69212   0.990   3.560   9.409 -1.2448  1.3480 -0.8184
  502MOL0     H69213   0.914   3.561   9.638 -1.8946 -3.8086  5.2780
  502MOL0     H69214   0.845   3.413   9.630 -1.4238  1.2489 -0.3449
  502MOL0     H69215   1.057   3.304   9.582  0.7559 -0.8436  1.3957
  502MOL0     H69216   1.129   3.458   9.546 -0.3142 -2.9764 -2.4944
  502MOL0     H69217   1.043   3.329   9.800  2.0726 -2.5252 -1.7641
  502MOL0     H69218   1.067   3.511   9.812  0.8382 -0.5068 -0.0347
  502MOL0     H69219   1.275   3.327   9.706 -1.2956 -0.9193 -0.0678
  502MOL0     H69220   1.295   3.486   9.804  1.8365 -1.6659  0.5128
  502MOL0     H69221   1.225   3.213   9.893  0.9034 -1.5315  1.2021
  502MOL0     H69222   1.205   3.363   9.991  2.2239  0.1901  0.0597
  502MOL0     H69223   1.458   3.410   9.932  1.6974 -0.6162  2.5024
  502MOL0     H69224   1.386   3.351  10.073 -0.8786 -0.8071  0.4296
  502MOL0     H69225   1.670   3.295   9.935  0.0088 -0.1644 -2.9231
  502MOL0     H69226   1.794   2.925  10.016 -1.5360 -3.6959 -3.8282
  502MOL0     H69227   1.871   3.085   9.984  0.7759 -0.6756  2.0762
  502MOL0     H69228   1.765   2.861   9.809 -0.2255  1.1129 -2.0690
  502MOL0     H69229   1.815   3.018   9.734 -2.2167 -0.8032 -0.7220
  502MOL0     H69230   2.016   2.862   9.902  2.4859  1.7356 -0.1753
  502MOL0     H69231   1.978   2.823   9.735 -1.0184  0.8738 -0.9741
  502MOL0     H69232   2.073   3.082   9.879  0.5085 -1.2719  1.0624
  502MOL0     H69233   2.173   2.969   9.776  0.9148  1.1422  2.1573
  502MOL0     H69234   2.070   3.105   9.414 -0.6733 -0.6128  1.1461
  502MOL0     H69235   2.333   3.094   9.226 -0.1372  1.5140 -0.7133
  502MOL0     H69236   2.299   3.267   9.197  2.0668  0.1381  1.5701
  502MOL0     H69237   2.164   3.146   9.217 -0.7879 -2.8544  0.5562
  502MOL0     H69238   2.653   3.510   9.374 -1.1280 -0.5560 -0.0321
  502MOL0     H69239   2.875   3.565   9.280 -1.3711 -1.6135 -1.9448
  502MOL0     H69240   3.234   3.351   9.482 -0.0916 -1.5722 -0.6906
  502MOL0     H69241   3.245   3.310   9.313 -4.6291 -0.9345  1.2746
  502MOL0     H69242   3.308   3.565   9.284 -1.8717 -0.1339 -0.0037
  502MOL0     H69243   3.326   3.553   9.462 -0.7689 -0.3840  0.5322
  502MOL0     H69244   3.464   3.396   9.247  0.3245 -1.4019  0.8616
  502MOL0     H69245   3.470   3.345   9.417  0.6851 -0.2721  0.2648
  502MOL0     H69246   3.577   3.582   9.462 -0.1666 -0.2287 -0.0454
  502MOL0     H69247   3.593   3.607   9.296 -0.1254 -1.2399  0.3743
  502MOL0     H69248   3.722   3.360   9.416 -3.2989  0.3754 -0.0824
  502MOL0     H69249   3.720   3.419   9.254 -3.9270 -2.0452 -0.7642
  502MOL0     H69250   3.825   3.576   9.484 -3.2197  0.9697 -1.0099
  502MOL0     H69251   3.838   3.635   9.331 -1.2744 -1.2055 -1.0686
  502MOL0     H69252   3.983   3.485   9.235  4.6874 -1.0186  0.5390
  502MOL0     H69253   3.965   3.363   9.368  3.5320  0.1848  0.5697
  502MOL0     H69254   4.074   3.523   9.515  1.0646 -0.9401  0.2040
  502MOL0     H69255   4.062   3.650   9.397 -0.1091 -0.5550 -1.5322
  502MOL0     H69256   3.053   3.298   9.549 -1.0921 -1.7416  0.7117
  502MOL0     H69257   2.845   3.217   9.622  1.3712 -0.2579 -0.4446
  502MOL0     H69258   2.417   3.345   9.662 -1.3666 -0.0046  0.2264
  502MOL0     H69259   2.221   3.250   9.781  0.7351  2.4326  0.0127
  502MOL0     H69260   0.506   3.724   9.409 -2.6441 -0.5033  0.0933
  502MOL0     H69261   0.345   3.804   9.587 -0.8771  1.2700 -1.3845
  502MOL0     H69262   0.096   3.806   9.868  1.9071 -2.2742  0.2920
  502MOL0     H69263  -0.091   3.857  10.040  0.5671  0.1796  0.2316
  502MOL0     H69264  -0.258   3.810  10.325 -0.4415 -0.3958 -1.3398
  502MOL0     H69265  -0.166   3.711  10.213 -2.2611  1.6355 -0.8853
  502MOL0     H69266  -0.085   3.742  10.501 -1.9829  0.1422  0.3859
  502MOL0     H69267  -0.044   3.603  10.399  2.7349  1.8642  0.1366
  502MOL0     H69268  -0.278   3.523  10.408  1.1378  0.2667 -0.1152
  502MOL0     H69269  -0.207   3.533  10.570  0.4142 -0.3064  1.4043
  502MOL0     H69270  -0.334   3.789  10.527 -1.0295  0.1925  0.1571
  502MOL0     H69271  -0.402   3.659  10.621 -0.0418  4.9712  1.0776
  502MOL0     H69272  -0.646   3.691  10.282  1.4764  2.1586 -0.9512
  502MOL0     H69273   0.196   3.843  10.346 -2.1533 -1.2446  0.4269
  502MOL0     H69274   0.483   3.903  10.183 -0.3800 -2.0433 -2.8952
  502MOL0     H69275   0.418   3.828  10.324  1.1442  0.3435  0.8143
  502MOL0     H69276   0.475   3.736  10.179 -2.2165 -0.1967 -3.6993
  503MOL0     O69277   8.079   1.804   0.970 -0.4340 -0.4503  0.4219
  503MOL0     C69278   7.986   1.733   0.945  0.6395  0.9553  0.5683
  503MOL0     O69279   7.994   1.611   0.878 -0.8119  0.0006 -1.2718
  503MOL0     C69280   8.124   1.563   0.863 -0.3778  0.1750 -0.5422
  503MOL0     C69281   8.212   1.528   0.971 -0.1733 -0.4783 -0.5978
  503MOL0     C69282   8.339   1.471   0.945  0.1449  0.4086  0.0517
  503MOL0     C69283   8.383   1.458   0.810 -0.7958  0.7685 -0.6475
  503MOL0     O69284   8.511   1.402   0.773  0.0947 -0.9036 -0.2460
  503MOL0     C69285   8.606   1.351   0.862 -0.4401 -0.5047 -0.1768
  503MOL0     C69286   8.595   1.196   0.886 -0.0396  0.7245 -0.0893
  503MOL0     C69287   8.596   1.126   0.743 -0.4234  0.0322  0.4445
  503MOL0     C69288   8.670   0.990   0.749 -0.4758 -0.6310 -0.3661
  503MOL0     C69289   8.603   0.915   0.861 -0.4675  1.1074 -0.0616
  503MOL0     C69290   8.645   0.766   0.845  0.1137  0.3129 -0.3306
  503MOL0     C69291   8.574   0.682   0.953  0.7269 -0.4963 -0.1214
  503MOL0     C69292   8.591   0.535   0.933 -0.2917 -0.7030  0.2386
  503MOL0     N69293   8.731   0.497   0.940 -0.2505 -0.3302  0.5197
  503MOL0     C69294   8.803   0.485   1.059 -0.3402  0.1441 -0.0087
  503MOL0     C69295   8.935   0.468   1.016 -0.1933  1.3985 -0.2012
  503MOL0     C69296   9.056   0.422   1.100  0.8060  1.0664 -0.1636
  503MOL0     C69297   9.062   0.268   1.123  0.4849 -0.2286  0.5920
  503MOL0     C69298   9.037   0.171   1.008  0.2070 -0.6460  0.0456
  503MOL0     C69299   9.168   0.170   0.928  0.1699 -0.3667  0.2849
  503MOL0     O69300   9.158   0.079   0.808  0.0578  0.0564 -0.3950
  503MOL0     C69301   9.081   0.109   0.703  0.0731 -0.7104 -0.3487
  503MOL0     C69302   9.065   0.007   0.609  0.7765  0.1520  0.5754
  503MOL0     C69303   8.982   0.016   0.496  0.0418  0.8509 -0.0037
  503MOL0     C69304   8.992  -0.089   0.392  0.5966  0.6536 -0.7926
  503MOL0     C69305   8.910   0.139   0.478  0.4457  0.5426  0.7324
  503MOL0     C69306   8.827   0.174   0.356  1.1620 -0.9925  1.1667
  503MOL0     O69307   8.740   0.279   0.374 -0.3455 -0.5248  0.3192
  503MOL0     C69308   8.685   0.335   0.266  0.1369  0.6424  0.2165
  503MOL0     C69309   8.556   0.301   0.253 -0.4519  0.2995  0.1169
  503MOL0     C69310   8.471   0.368   0.156  0.3278 -0.3971  0.0903
  503MOL0     C69311   8.523   0.468   0.082 -0.5280  0.1517  1.2017
  503MOL0     O69312   8.449   0.537  -0.009 -0.5190  0.0532 -0.5177
  503MOL0     C69313   8.310   0.532  -0.014 -0.2728  1.0312  0.2060
  503MOL0     C69314   8.239   0.601   0.100 -0.5696  0.7739  0.4704
  503MOL0     C69315   8.097   0.650   0.079 -0.1902  0.2290 -0.2877
  503MOL0     C69316   8.032   0.735   0.192  0.2857 -0.8407 -0.1263
  503MOL0     C69317   8.069   0.881   0.210 -0.3887 -1.4675  0.0855
  503MOL0     C69318   7.975   0.949   0.308  0.6488  0.3169 -0.1662
  503MOL0     C69319   7.835   0.978   0.244 -0.4456 -0.7215  0.4363
  503MOL0     C69320   7.741   1.031   0.344 -0.4840  0.0678 -0.3613
  503MOL0    Cl69321   7.722   0.898   0.450  0.0276  0.8370  0.2013
  503MOL0     C69322   8.660   0.491   0.090 -0.7574 -0.7491 -0.4273
  503MOL0     C69323   8.744   0.425   0.181  0.3512  0.4737 -0.0534
  503MOL0     O69324   8.831   0.115   0.251 -0.0449 -0.8688 -0.0281
  503MOL0     C69325   8.938   0.250   0.564  0.1584  0.6367 -0.0978
  503MOL0     C69326   9.023   0.230   0.678 -0.1652 -0.0706 -0.6946
  503MOL0     N69327   8.938   0.487   0.881  0.4143  0.0888  0.1454
  503MOL0     N69328   8.823   0.487   0.839  1.1386  0.1784  0.3770
  503MOL0     C69329   8.294   1.484   0.702 -0.8769 -0.3009 -0.3379
  503MOL0     C69330   8.170   1.543   0.726  0.1819  0.5458 -0.0276
  503MOL0     C69331   7.848   1.789   0.972 -0.2607  1.1972  1.0452
  503MOL0     C69332   7.741   1.714   0.918 -0.6522  0.6912  0.6392
  503MOL0     C69333   7.610   1.736   0.953  0.9231 -0.9195 -0.4424
  503MOL0     C69334   7.570   1.845   1.037  0.1944  0.7045  0.5453
  503MOL0     O69335   7.439   1.871   1.078 -0.5224 -0.6272  0.7100
  503MOL0     C69336   7.334   1.808   1.008 -0.2758 -0.4928 -0.8955
  503MOL0     C69337   7.202   1.844   1.064 -0.0005  0.0485 -0.3229
  503MOL0     C69338   7.162   1.988   1.028 -0.5795  0.2384 -0.1273
  503MOL0     C69339   7.076   2.003   0.900 -0.1997 -0.6428  1.3193
  503MOL0     C69340   7.166   1.982   0.779  0.4540 -0.3440 -0.0212
  503MOL0     C69341   7.247   1.959   0.690 -0.7110 -0.1036 -0.0338
  503MOL0     C69342   7.678   1.928   1.082  0.3741  0.3627  0.2670
  503MOL0     C69343   7.815   1.894   1.060 -0.8824 -0.7785  0.1820
  503MOL0     C69344   7.912   1.986   1.121  0.2626  0.0594  0.1944
  503MOL0     H69345   8.202   1.554   1.075 -0.2582 -0.4155 -0.6219
  503MOL0     H69346   8.399   1.449   1.032 -1.4513 -0.1860  1.0572
  503MOL0     H69347   8.618   1.403   0.958  0.8132 -0.9265 -0.0848
  503MOL0     H69348   8.705   1.362   0.817 -0.9975 -0.8245 -1.5014
  503MOL0     H69349   8.683   1.167   0.943 -2.5915  1.3368  4.7189
  503MOL0     H69350   8.505   1.169   0.942  0.4084  1.6408  1.1113
  503MOL0     H69351   8.499   1.122   0.693  0.3971 -0.1372 -1.1703
  503MOL0     H69352   8.659   1.185   0.676  0.0120  0.3734  1.1393
  503MOL0     H69353   8.655   0.923   0.664 -0.9622 -0.0568 -0.7365
  503MOL0     H69354   8.777   0.999   0.766 -0.8707  0.6933  1.8000
  503MOL0     H69355   8.494   0.915   0.854 -0.4464  3.0630 -1.2560
  503MOL0     H69356   8.629   0.946   0.963  0.2293 -1.9208  0.7849
  503MOL0     H69357   8.611   0.730   0.748  1.1507  2.0010 -1.3602
  503MOL0     H69358   8.752   0.745   0.850  0.5881  2.6148  0.4977
  503MOL0     H69359   8.472   0.716   0.967  1.1482  0.5706  0.4347
  503MOL0     H69360   8.618   0.704   1.051  2.1162 -1.1689 -0.5595
  503MOL0     H69361   8.531   0.479   1.005 -1.5054 -0.5125 -0.6133
  503MOL0     H69362   8.553   0.511   0.834 -1.7368 -0.8473  0.8153
  503MOL0     H69363   8.759   0.465   1.157  0.3122 -0.1297  0.2319
  503MOL0     H69364   9.052   0.481   1.192  2.0069  0.9201 -0.0029
  503MOL0     H69365   9.148   0.460   1.053  1.3468  1.9597  1.5232
  503MOL0     H69366   9.157   0.235   1.166  0.2924  0.0589  1.2466
  503MOL0     H69367   8.992   0.252   1.205  0.3020  1.9442  0.9189
  503MOL0     H69368   9.028   0.071   1.051  2.3316 -0.9623 -0.1297
  503MOL0     H69369   8.945   0.199   0.956  0.3344  0.2724  0.2975
  503MOL0     H69370   9.195   0.272   0.900 -0.4182 -0.2074  0.2879
  503MOL0     H69371   9.256   0.133   0.980  2.8337  2.0442 -2.1623
  503MOL0     H69372   9.110  -0.090   0.626 -0.5637 -0.4298  0.9535
  503MOL0     H69373   9.013  -0.189   0.431 -0.7890  0.7785  0.3526
  503MOL0     H69374   9.082  -0.076   0.330 -0.0678  1.2002 -1.6617
  503MOL0     H69375   8.901  -0.117   0.339  1.0865 -0.9410 -0.8582
  503MOL0     H69376   8.500   0.225   0.305 -0.6411  0.1403 -0.3199
  503MOL0     H69377   8.363   0.357   0.155  0.1390  1.2371 -0.6425
  503MOL0     H69378   8.279   0.587  -0.103  0.7491 -0.0718 -0.8677
  503MOL0     H69379   8.291   0.424  -0.022  4.9555 -0.1355 -0.0778
  503MOL0     H69380   8.237   0.542   0.193  0.3892  1.6679  1.0749
  503MOL0     H69381   8.293   0.693   0.121  2.3206 -1.1667  2.3613
  503MOL0     H69382   8.028   0.567   0.058  0.3960 -0.4263  0.3340
  503MOL0     H69383   8.093   0.711  -0.012 -0.3329 -0.3267 -0.6651
  503MOL0     H69384   8.061   0.694   0.289  0.9524  1.9333  0.9575
  503MOL0     H69385   7.925   0.717   0.176 -0.6612  3.8747 -0.5805
  503MOL0     H69386   8.171   0.875   0.250 -0.5819 -0.2030  0.8001
  503MOL0     H69387   8.070   0.928   0.112  2.4289 -3.2436 -0.8659
  503MOL0     H69388   8.018   1.038   0.355  1.5734 -0.4184  0.3964
  503MOL0     H69389   7.977   0.883   0.395 -1.7986  1.1404  0.6007
  503MOL0     H69390   7.779   0.896   0.199 -3.6901  1.4875  0.1226
  503MOL0     H69391   7.838   1.058   0.169  0.0979 -1.0510  0.0990
  503MOL0     H69392   7.646   1.058   0.297 -0.3273  0.0689 -0.6796
  503MOL0     H69393   7.781   1.122   0.390 -1.7112  0.4394  0.0052
  503MOL0     H69394   8.695   0.572   0.025  2.3352 -2.8965 -1.6717
  503MOL0     H69395   8.847   0.459   0.187  0.7771 -0.6939 -0.5468
  503MOL0     H69396   8.898   0.350   0.548  0.8551  1.4295  2.5831
  503MOL0     H69397   9.053   0.314   0.741 -1.7417  0.1768 -0.2463
  503MOL0     H69398   8.319   1.456   0.600 -2.1211  0.9991 -1.0388
  503MOL0     H69399   8.104   1.577   0.647 -0.0030  2.2354  0.7988
  503MOL0     H69400   7.762   1.625   0.859 -0.6754  0.1753  1.3831
  503MOL0     H69401   7.533   1.671   0.912  0.5890 -2.8406  2.8741
  503MOL0     H69402   7.347   1.830   0.901 -0.5435  1.6681 -0.5384
  503MOL0     H69403   7.334   1.701   1.028 -4.2039 -0.3717  0.5636
  503MOL0     H69404   7.197   1.825   1.172 -2.1100 -0.0071 -0.3977
  503MOL0     H69405   7.145   1.766   1.013  1.2965 -0.6572 -0.7555
  503MOL0     H69406   7.102   2.027   1.111  2.1562  4.6164  0.1243
  503MOL0     H69407   7.252   2.050   1.025 -1.6018  2.2287  3.6706
  503MOL0     H69408   7.036   2.104   0.890  1.5322  0.0702  1.2464
  503MOL0     H69409   6.991   1.933   0.902  0.0253 -1.1505 -1.9669
  503MOL0     H69410   7.334   1.941   0.630 -0.1478 -0.6035  0.9086
  503MOL0     H69411   7.660   2.010   1.151 -1.1451  1.5008 -1.3768
  503MOL0     H69412   7.964   1.935   1.203  1.3010  0.8521  0.0598
  503MOL0     H69413   7.987   2.024   1.052  1.1350  1.1090  1.6664
  503MOL0     H69414   7.865   2.078   1.159  1.9428  2.0262 -2.1760
  504MOL0     O69415   5.110   8.083   4.754 -0.5388 -0.4574 -0.0108
  504MOL0     C69416   4.988   8.086   4.719 -0.8090  0.2142  0.5933
  504MOL0     O69417   4.903   7.986   4.705 -0.1861  0.0171 -0.1290
  504MOL0     C69418   4.938   7.858   4.741 -0.1732 -0.1842 -0.4167
  504MOL0     C69419   5.064   7.791   4.724 -0.1854 -0.0132  0.4557
  504MOL0     C69420   5.077   7.656   4.757  0.7447  0.2194  0.4145
  504MOL0     C69421   4.966   7.588   4.818 -0.3000 -0.0677  0.4279
  504MOL0     O69422   4.972   7.471   4.877 -0.1975  0.3176  0.1945
  504MOL0     C69423   5.092   7.403   4.913 -0.3531 -0.2960 -0.6365
  504MOL0     C69424   5.133   7.423   5.063 -0.1633  0.6707 -0.3042
  504MOL0     C69425   5.280   7.398   5.080 -0.4033 -0.2554 -0.0938
  504MOL0     C69426   5.315   7.246   5.070  0.8146  0.1219  0.6437
  504MOL0     C69427   5.460   7.229   5.107  0.6249 -0.6157  0.0543
  504MOL0     C69428   5.562   7.312   5.026  0.5651  0.4634 -0.0667
  504MOL0     C69429   5.688   7.341   5.113 -0.9443  0.4016  0.0597
  504MOL0     C69430   5.782   7.417   5.028  0.3896 -0.4868  0.2110
  504MOL0     N69431   5.921   7.395   5.062  1.3066 -0.5077  0.4298
  504MOL0     C69432   5.976   7.401   5.187 -0.4400  1.6800  0.1196
  504MOL0     C69433   6.109   7.377   5.170 -1.2502  0.1766 -0.3488
  504MOL0     C69434   6.211   7.396   5.287  0.3103  0.6816 -0.0034
  504MOL0     C69435   6.209   7.283   5.386  0.2044 -0.6181  0.1712
  504MOL0     C69436   6.320   7.304   5.479 -0.0242  1.4105 -0.2219
  504MOL0     C69437   6.324   7.178   5.571  0.8862 -1.4924  0.6094
  504MOL0     O69438   6.201   7.170   5.644  0.0004  0.0598  0.8979
  504MOL0     C69439   6.214   7.096   5.761  0.7360 -0.5972  1.0240
  504MOL0     C69440   6.275   6.967   5.754  0.2807  0.4172 -0.3137
  504MOL0     C69441   6.301   6.892   5.868  0.9297  0.8793  0.5545
  504MOL0     C69442   6.389   6.768   5.853  1.1972  0.2597  0.4223
  504MOL0     C69443   6.251   6.932   5.990  0.5385  0.1548  0.2985
  504MOL0     C69444   6.247   6.852   6.126  0.2099 -0.1751  0.1362
  504MOL0     O69445   6.237   6.716   6.122 -0.0205  0.3800 -0.7895
  504MOL0     C69446   6.208   6.661   6.245  0.1672  0.7409  0.5007
  504MOL0     C69447   6.081   6.665   6.309  0.2280  0.8936  0.5568
  504MOL0     C69448   6.057   6.599   6.431  1.0712 -0.3660  0.1428
  504MOL0     C69449   6.158   6.546   6.503  0.3040  0.1466  0.2409
  504MOL0     O69450   6.133   6.491   6.623  0.5114  0.5738  0.2919
  504MOL0     C69451   6.222   6.524   6.728 -0.4984 -0.2952  0.1342
  504MOL0     C69452   6.154   6.472   6.857 -0.3085 -0.3820 -0.6474
  504MOL0     C69453   6.218   6.536   6.984 -0.0166  0.2344 -0.0351
  504MOL0     C69454   6.141   6.527   7.122  0.2561 -0.5959  0.4840
  504MOL0     C69455   6.234   6.574   7.230  0.0792 -0.2176 -0.7510
  504MOL0     C69456   6.173   6.585   7.371 -0.7608 -0.0637 -1.1127
  504MOL0     C69457   6.099   6.707   7.400  0.4763 -0.5336  0.3539
  504MOL0     C69458   5.999   6.693   7.508 -0.5082  0.4611  0.4574
  504MOL0    Cl69459   5.921   6.849   7.562  0.4185 -0.0579  0.2070
  504MOL0     C69460   6.281   6.539   6.442 -0.4082  0.6504  0.2379
  504MOL0     C69461   6.310   6.597   6.315  0.4240  0.9945 -0.6055
  504MOL0     O69462   6.250   6.926   6.228 -0.1126 -0.3713  0.4740
  504MOL0     C69463   6.191   7.065   5.988  0.6693  0.4090 -0.3791
  504MOL0     C69464   6.158   7.144   5.878  0.3213 -0.5676 -1.2347
  504MOL0     N69465   6.136   7.354   5.037 -0.2501  0.7041 -0.1593
  504MOL0     N69466   6.023   7.359   4.979 -0.6489 -0.1590  0.7092
  504MOL0     C69467   4.844   7.650   4.829 -0.2421  0.3234  0.1658
  504MOL0     C69468   4.828   7.777   4.789 -0.5475  0.1726 -0.0012
  504MOL0     C69469   4.944   8.224   4.681 -0.6845 -0.5755  0.8321
  504MOL0     C69470   5.037   8.303   4.617  0.1392 -1.1708 -0.3889
  504MOL0     C69471   5.016   8.442   4.590 -0.1558 -0.0705 -0.0256
  504MOL0     C69472   4.886   8.495   4.610 -0.1603  0.1321 -0.7566
  504MOL0     O69473   4.865   8.629   4.589 -0.3785 -0.2419 -0.7789
  504MOL0     C69474   4.748   8.677   4.526 -0.5451 -0.8220  0.1341
  504MOL0     C69475   4.695   8.797   4.604  0.0605  0.6298 -0.7561
  504MOL0     C69476   4.787   8.917   4.592  0.1373  0.5113  0.1530
  504MOL0     C69477   4.751   9.028   4.691  0.2278  0.5985  0.4744
  504MOL0     C69478   4.661   9.127   4.637  0.6996  0.6056 -0.2444
  504MOL0     C69479   4.599   9.217   4.594  0.3511  0.0960  0.7318
  504MOL0     C69480   4.792   8.403   4.662 -0.4795  0.3188 -0.0301
  504MOL0     C69481   4.810   8.269   4.698  0.6894 -0.0446  0.7384
  504MOL0     C69482   4.701   8.178   4.758  0.5549  0.3019  0.0639
  504MOL0     H69483   5.150   7.839   4.678  2.1254 -4.8706 -0.9163
  504MOL0     H69484   5.175   7.610   4.753  1.6515  1.6142  3.3817
  504MOL0     H69485   5.173   7.440   4.849  0.1076  0.7227  0.5062
  504MOL0     H69486   5.083   7.294   4.904  0.2033 -0.5133  1.0903
  504MOL0     H69487   5.104   7.520   5.102  0.5924 -0.0307  2.2542
  504MOL0     H69488   5.070   7.354   5.120  0.1404 -0.0321 -0.8040
  504MOL0     H69489   5.337   7.451   5.003  1.3810 -0.8818  0.7280
  504MOL0     H69490   5.320   7.431   5.176  2.7352  0.6102 -1.5617
  504MOL0     H69491   5.248   7.187   5.133  0.3729  0.8926  0.9196
  504MOL0     H69492   5.288   7.219   4.967 -0.5971  0.3694  0.9307
  504MOL0     H69493   5.475   7.121   5.091  1.3822 -0.2469 -2.1084
  504MOL0     H69494   5.466   7.256   5.213  0.0592  2.7643 -0.6693
  504MOL0     H69495   5.595   7.256   4.938  3.4438  3.3134 -1.0137
  504MOL0     H69496   5.530   7.410   4.990  0.3192  0.2305 -0.4873
  504MOL0     H69497   5.729   7.245   5.146  0.1103  0.2988 -1.4377
  504MOL0     H69498   5.688   7.408   5.199  4.0016  1.6012 -0.5567
  504MOL0     H69499   5.770   7.387   4.923 -0.8746  0.5907  0.0256
  504MOL0     H69500   5.765   7.524   5.023 -0.3553 -0.6115 -0.1098
  504MOL0     H69501   5.932   7.431   5.282  1.7219  1.6501  1.1870
  504MOL0     H69502   6.196   7.493   5.335  0.0184 -0.1051  1.5362
  504MOL0     H69503   6.306   7.404   5.233 -1.2870  2.8822 -2.7848
  504MOL0     H69504   6.113   7.276   5.439  0.8979  2.0847  2.0400
  504MOL0     H69505   6.221   7.194   5.324 -0.3922 -0.1221 -0.6745
  504MOL0     H69506   6.415   7.309   5.425  0.8443  0.9919  1.2024
  504MOL0     H69507   6.297   7.398   5.530 -4.2808  1.6276 -2.1614
  504MOL0     H69508   6.340   7.100   5.496  2.4364  0.9312 -1.7636
  504MOL0     H69509   6.417   7.177   5.630  0.8908  0.5756  0.6959
  504MOL0     H69510   6.306   6.934   5.655 -1.4639  0.8832 -1.0663
  504MOL0     H69511   6.411   6.732   5.954 -1.8726  0.4723  1.2531
  504MOL0     H69512   6.485   6.790   5.806  0.4429  2.1386 -0.3258
  504MOL0     H69513   6.341   6.692   5.791  0.8184 -0.0303  1.0518
  504MOL0     H69514   6.001   6.707   6.249  2.3585  2.8252 -1.1116
  504MOL0     H69515   5.954   6.602   6.463  0.5205  1.0777 -1.6012
  504MOL0     H69516   6.313   6.463   6.730 -0.8683 -0.9070 -1.1123
  504MOL0     H69517   6.228   6.633   6.732  0.5273 -0.3492  0.2202
  504MOL0     H69518   6.048   6.497   6.865  0.3888  2.8973 -0.3306
  504MOL0     H69519   6.166   6.364   6.862 -3.5592 -0.8373 -0.8385
  504MOL0     H69520   6.228   6.643   6.960  0.2241  0.8993  2.7594
  504MOL0     H69521   6.325   6.518   6.998  0.6780  2.8903 -1.2940
  504MOL0     H69522   6.102   6.425   7.131 -2.0329 -0.0040 -1.6510
  504MOL0     H69523   6.046   6.581   7.123 -0.8148 -2.3338 -1.2332
  504MOL0     H69524   6.322   6.509   7.237  0.0956 -0.1280 -0.0555
  504MOL0     H69525   6.275   6.673   7.206  0.7254 -0.2129  0.2839
  504MOL0     H69526   6.251   6.570   7.447 -2.8778 -1.6485  0.9143
  504MOL0     H69527   6.111   6.497   7.389 -0.6515 -0.9156 -4.3360
  504MOL0     H69528   6.044   6.734   7.309  0.9623  1.7181  0.6780
  504MOL0     H69529   6.170   6.787   7.423  0.0076  0.2423 -0.7620
  504MOL0     H69530   6.063   6.658   7.590 -0.1274 -1.5822 -0.6342
  504MOL0     H69531   5.924   6.619   7.477  0.9691 -1.2318  0.7362
  504MOL0     H69532   6.360   6.472   6.476  0.4246  1.3535 -0.2567
  504MOL0     H69533   6.399   6.576   6.257 -0.9080 -0.3995 -2.2783
  504MOL0     H69534   6.163   7.105   6.085 -0.5120 -1.1817 -0.0096
  504MOL0     H69535   6.117   7.244   5.888  0.7925 -0.5259  0.5761
  504MOL0     H69536   4.767   7.599   4.886  0.0347  1.9319  2.0873
  504MOL0     H69537   4.730   7.822   4.799  0.5521  2.9938 -0.7605
  504MOL0     H69538   5.125   8.252   4.579  1.9248  0.8926  0.8341
  504MOL0     H69539   5.085   8.506   4.535  0.5142 -0.9671 -0.2470
  504MOL0     H69540   4.773   8.704   4.423  0.9886 -1.2854  0.3720
  504MOL0     H69541   4.672   8.599   4.527 -0.9346 -0.4698 -0.9814
  504MOL0     H69542   4.690   8.764   4.708  1.6705  1.2723 -0.4388
  504MOL0     H69543   4.595   8.833   4.578  0.3355  2.9744  1.0969
  504MOL0     H69544   4.887   8.885   4.622  0.1518  0.0445 -0.3731
  504MOL0     H69545   4.809   8.954   4.491 -0.3457  1.6900  0.4583
  504MOL0     H69546   4.842   9.078   4.725  1.8822 -1.0555 -1.2812
  504MOL0     H69547   4.711   8.980   4.781 -0.0260  0.3782  0.2416
  504MOL0     H69548   4.526   9.291   4.567 -0.5534 -0.1446  2.3637
  504MOL0     H69549   4.690   8.435   4.683 -1.3459 -1.4457 -1.2706
  504MOL0     H69550   4.609   8.232   4.784 -0.0973  0.7592 -2.9255
  504MOL0     H69551   4.664   8.112   4.680 -1.8260  1.8426 -0.2122
  504MOL0     H69552   4.742   8.119   4.840 -1.0575 -0.3709  0.4152
  505MOL0     O69553   9.290   1.388   7.541 -0.1661  0.4629 -0.6120
  505MOL0     C69554   9.371   1.471   7.510 -0.1104 -0.7969  0.1345
  505MOL0     O69555   9.498   1.492   7.560  0.0632 -0.2767  0.1574
  505MOL0     C69556   9.561   1.394   7.637  0.0567  0.1435 -0.7138
  505MOL0     C69557   9.498   1.338   7.744 -0.0549  0.4162  0.9442
  505MOL0     C69558   9.554   1.229   7.812 -0.0655 -0.6838  0.2831
  505MOL0     C69559   9.683   1.184   7.788  0.2735 -0.0075  0.4901
  505MOL0     O69560   9.738   1.084   7.873  1.0483 -0.1405 -0.0700
  505MOL0     C69561   9.837   1.005   7.823  0.6750 -0.1272  0.4495
  505MOL0     C69562   9.837   0.880   7.910  0.9608  0.2065 -0.1636
  505MOL0     C69563   9.716   0.796   7.897  0.1377  1.5995 -0.2183
  505MOL0     C69564   9.757   0.648   7.937 -0.0013 -0.3703  0.6490
  505MOL0     C69565   9.641   0.556   7.925  0.7632  0.0532 -1.1588
  505MOL0     C69566   9.533   0.586   8.040  0.0884  0.0067 -0.0012
  505MOL0     C69567   9.453   0.455   8.070 -0.6050 -0.9498 -0.7768
  505MOL0     C69568   9.322   0.479   7.998  0.3372  0.4501 -0.1552
  505MOL0     N69569   9.229   0.590   8.037  0.2665 -0.2915 -1.4480
  505MOL0     C69570   9.123   0.651   7.956  0.7546 -0.1679 -0.4927
  505MOL0     C69571   9.039   0.708   8.043 -0.1406 -0.4776 -0.5023
  505MOL0     C69572   8.897   0.752   8.013 -1.0322 -0.0221  0.4597
  505MOL0     C69573   8.810   0.635   8.051  0.3326 -0.6911  0.2411
  505MOL0     C69574   8.668   0.654   7.995 -0.3062  0.0069 -0.0618
  505MOL0     C69575   8.665   0.633   7.844  0.4867 -0.2323 -0.0370
  505MOL0     O69576   8.742   0.528   7.798  0.0203 -0.2110  0.0898
  505MOL0     C69577   8.679   0.407   7.816 -0.0821  0.1165 -0.1891
  505MOL0     C69578   8.762   0.308   7.868  0.3184 -0.5481  0.3309
  505MOL0     C69579   8.706   0.187   7.888  0.0059  0.7764 -0.3132
  505MOL0     C69580   8.807   0.103   7.955  1.1681 -1.0261  1.1834
  505MOL0     C69581   8.574   0.154   7.870 -0.1484  0.1911  0.6269
  505MOL0     C69582   8.519   0.023   7.896  0.0164  0.0246  0.3380
  505MOL0     O69583   8.385   0.022   7.905  0.9100 -0.6409 -0.1622
  505MOL0     C69584   8.307  -0.067   7.972 -1.2277  0.1832  0.1452
  505MOL0     C69585   8.173  -0.042   7.958 -1.2216  0.3506 -0.7839
  505MOL0     C69586   8.072  -0.129   8.022 -0.4961 -0.1811  0.9347
  505MOL0     C69587   8.120  -0.243   8.095 -1.1550 -0.0595  0.4046
  505MOL0     O69588   8.030  -0.332   8.150 -0.3175  0.4586 -0.2465
  505MOL0     C69589   7.908  -0.361   8.082 -0.0090 -0.5181  0.0678
  505MOL0     C69590   7.858  -0.493   8.112  0.3504  1.4173  0.9514
  505MOL0     C69591   7.736  -0.550   8.030 -0.7787 -0.1805 -0.1000
  505MOL0     C69592   7.708  -0.701   8.042  0.5348 -1.0315 -1.1110
  505MOL0     C69593   7.592  -0.739   7.937 -0.4285  0.1836  0.2286
  505MOL0     C69594   7.546  -0.878   7.963 -0.2042  0.9634  1.0089
  505MOL0     C69595   7.476  -0.915   8.104  0.4583 -1.1932 -0.0184
  505MOL0     C69596   7.345  -0.831   8.103 -0.0396 -0.5496 -0.2685
  505MOL0    Cl69597   7.229  -0.926   8.204 -0.0563  0.0191  0.2936
  505MOL0     C69598   8.259  -0.280   8.104  0.7411 -0.4705 -0.8651
  505MOL0     C69599   8.349  -0.184   8.044 -0.7236  0.0960  0.4751
  505MOL0     O69600   8.593  -0.078   7.899  0.0365  0.0619  0.6728
  505MOL0     C69601   8.489   0.255   7.833  0.3055  0.1052  0.7050
  505MOL0     C69602   8.546   0.371   7.792  0.7355 -0.7943 -0.1471
  505MOL0     N69603   9.100   0.703   8.171 -0.0923  0.1508  0.4555
  505MOL0     N69604   9.211   0.633   8.169  0.6368 -0.2419 -0.2626
  505MOL0     C69605   9.746   1.242   7.677  0.5994  0.2304 -0.6661
  505MOL0     C69606   9.689   1.351   7.606  0.2772 -0.0543  0.5520
  505MOL0     C69607   9.334   1.570   7.412 -0.1013 -0.6966  0.8057
  505MOL0     C69608   9.431   1.620   7.328  0.0499  0.1019  0.0281
  505MOL0     C69609   9.404   1.684   7.209 -0.4966  0.2084  0.2904
  505MOL0     C69610   9.275   1.722   7.173  0.2658 -0.3407 -0.0874
  505MOL0     O69611   9.248   1.802   7.067 -0.0007  0.7168  0.9471
  505MOL0     C69612   9.345   1.839   6.967 -0.1664  0.2453  0.0246
  505MOL0     C69613   9.425   1.962   7.004 -0.1423 -0.7181 -0.0308
  505MOL0     C69614   9.350   2.075   7.062 -0.0279 -0.8258 -0.6536
  505MOL0     C69615   9.232   2.093   6.966  0.3069  0.8752 -0.0663
  505MOL0     C69616   9.168   2.222   6.994  0.6881 -0.0415  0.6241
  505MOL0     C69617   9.131   2.335   7.025  0.6829  0.5534  0.5673
  505MOL0     C69618   9.173   1.684   7.268 -0.0428 -0.0248  0.7182
  505MOL0     C69619   9.205   1.614   7.382  0.0563 -0.0202  0.0273
  505MOL0     C69620   9.096   1.579   7.476 -0.0923 -0.7358  0.0885
  505MOL0     H69621   9.396   1.363   7.771  0.0522 -0.8229  2.7213
  505MOL0     H69622   9.494   1.199   7.897 -1.2387  0.2277 -0.1891
  505MOL0     H69623   9.932   1.058   7.838  2.0200 -2.6605  1.4965
  505MOL0     H69624   9.814   0.974   7.721  2.9600  1.5940 -0.6978
  505MOL0     H69625   9.925   0.820   7.886  0.6702 -0.3075  0.0394
  505MOL0     H69626   9.851   0.919   8.011  1.5031  1.2906 -0.6409
  505MOL0     H69627   9.635   0.823   7.965 -0.2299 -0.9553  0.4681
  505MOL0     H69628   9.678   0.799   7.794 -0.2429  2.1867 -0.0665
  505MOL0     H69629   9.836   0.619   7.867 -1.4774 -0.0850 -1.2111
  505MOL0     H69630   9.799   0.636   8.037  0.0476 -0.2271  0.6472
  505MOL0     H69631   9.679   0.454   7.928 -0.3706 -0.4040  2.0161
  505MOL0     H69632   9.590   0.576   7.830 -0.9458 -3.1728 -1.0720
  505MOL0     H69633   9.588   0.606   8.133 -0.5467  2.0735 -0.0108
  505MOL0     H69634   9.468   0.674   8.038  1.4933  1.0883 -0.0983
  505MOL0     H69635   9.438   0.452   8.178  1.1289  2.9465 -0.2642
  505MOL0     H69636   9.507   0.362   8.050 -0.5735 -1.6634  2.1855
  505MOL0     H69637   9.354   0.488   7.894 -1.2289  0.7123 -0.6545
  505MOL0     H69638   9.259   0.390   8.008  2.9516 -1.2850  2.5490
  505MOL0     H69639   9.105   0.642   7.850  0.0317 -1.0368 -0.3093
  505MOL0     H69640   8.892   0.785   7.908  0.2683  3.0355  1.2526
  505MOL0     H69641   8.871   0.835   8.080 -0.9440  0.0674  0.3845
  505MOL0     H69642   8.852   0.538   8.021 -0.1073 -1.7513  2.8184
  505MOL0     H69643   8.797   0.629   8.159 -2.8090 -4.4378 -0.1212
  505MOL0     H69644   8.616   0.572   8.044 -2.7941  0.8691 -1.1294
  505MOL0     H69645   8.621   0.748   8.025  3.5127  1.1993  3.1408
  505MOL0     H69646   8.561   0.633   7.812  0.1357 -1.0441  1.0143
  505MOL0     H69647   8.702   0.722   7.793  1.9038 -0.8681 -0.1730
  505MOL0     H69648   8.864   0.342   7.882  0.5580  1.0214 -3.7424
  505MOL0     H69649   8.830   0.031   7.876 -2.8785  1.2199 -2.4664
  505MOL0     H69650   8.768   0.058   8.047  2.4646  0.2851  2.4459
  505MOL0     H69651   8.900   0.158   7.970 -0.0551  1.9415 -1.2130
  505MOL0     H69652   8.133   0.037   7.895 -1.1045 -0.4006 -1.8116
  505MOL0     H69653   7.968  -0.102   8.011 -0.1782  0.2589 -1.5644
  505MOL0     H69654   7.841  -0.279   8.110 -0.1023 -0.7411  0.5174
  505MOL0     H69655   7.931  -0.352   7.976  0.2518 -1.0520  0.0758
  505MOL0     H69656   7.939  -0.564   8.098 -2.7645 -2.3363  0.3556
  505MOL0     H69657   7.830  -0.500   8.217  1.4660 -1.0565  1.1405
  505MOL0     H69658   7.752  -0.523   7.926  3.2083  2.2826  0.9428
  505MOL0     H69659   7.653  -0.496   8.077 -0.8318 -1.0512  0.8355
  505MOL0     H69660   7.697  -0.735   8.145 -0.6071 -1.3582 -1.3297
  505MOL0     H69661   7.804  -0.750   8.025  1.4704 -0.1114  1.1584
  505MOL0     H69662   7.506  -0.673   7.952  0.3124  0.7872  2.1386
  505MOL0     H69663   7.622  -0.720   7.833 -0.3184 -3.0056 -0.4289
  505MOL0     H69664   7.632  -0.944   7.945 -0.1866  1.2497 -0.0191
  505MOL0     H69665   7.480  -0.882   7.876  5.2488  1.3927 -3.7554
  505MOL0     H69666   7.541  -0.887   8.187 -0.5743 -1.0426  0.7628
  505MOL0     H69667   7.452  -1.021   8.094 -3.4736 -0.2597 -5.6941
  505MOL0     H69668   7.308  -0.821   8.000  2.4524  1.8901 -1.0436
  505MOL0     H69669   7.368  -0.735   8.148 -1.7702  0.0499 -0.5745
  505MOL0     H69670   8.282  -0.378   8.143  1.9381 -0.4373 -1.4385
  505MOL0     H69671   8.451  -0.221   8.051  0.4279  3.1849  1.6554
  505MOL0     H69672   8.386   0.235   7.809  0.8299 -3.7456  1.0861
  505MOL0     H69673   8.480   0.451   7.761  2.0243  0.3548 -0.0004
  505MOL0     H69674   9.834   1.190   7.639  0.7231  0.9404 -1.3943
  505MOL0     H69675   9.714   1.382   7.506 -1.1521  2.5253  0.9120
  505MOL0     H69676   9.532   1.592   7.356  0.1224  1.1308  0.8743
  505MOL0     H69677   9.491   1.703   7.147  0.0050  1.0957  1.2397
  505MOL0     H69678   9.425   1.766   6.948 -0.5868 -0.8117  2.0007
  505MOL0     H69679   9.284   1.852   6.877 -0.6446  3.6383  0.7158
  505MOL0     H69680   9.472   1.988   6.908 -1.9501  1.4810 -0.4067
  505MOL0     H69681   9.508   1.935   7.070  0.1362  1.3950  0.5602
  505MOL0     H69682   9.325   2.064   7.168  1.5644 -0.2864 -0.1859
  505MOL0     H69683   9.409   2.166   7.050  0.6817 -1.3154 -0.9629
  505MOL0     H69684   9.159   2.017   6.994  1.4633  0.7761  3.0484
  505MOL0     H69685   9.257   2.091   6.860 -2.5201  0.9085 -0.8153
  505MOL0     H69686   9.091   2.427   7.063 -0.1064  0.3227  0.3120
  505MOL0     H69687   9.072   1.714   7.242  0.3298 -0.0606 -0.9213
  505MOL0     H69688   9.008   1.639   7.452 -0.1580 -1.6135 -2.0841
  505MOL0     H69689   9.072   1.476   7.449 -0.8674  0.0429 -2.4765
  505MOL0     H69690   9.121   1.588   7.582 -3.4144  1.9733  0.7838
  506MOL0     O69691   7.368  11.328   6.394 -0.2331  0.0654  0.6305
  506MOL0     C69692   7.434  11.391   6.477 -0.1970 -0.7831  1.4576
  506MOL0     O69693   7.558  11.348   6.534  0.4498 -0.0887 -0.2693
  506MOL0     C69694   7.622  11.230   6.504  0.4531 -0.0250  0.7467
  506MOL0     C69695   7.569  11.116   6.442 -0.1657 -0.0158 -0.0632
  506MOL0     C69696   7.648  10.997   6.425 -0.1800 -1.1347 -0.0941
  506MOL0     C69697   7.785  10.998   6.462  0.2104  0.1850  0.2251
  506MOL0     O69698   7.851  10.881   6.449  0.0014 -0.0625 -0.7728
  506MOL0     C69699   7.930  10.839   6.564 -0.1414  0.1488 -1.0566
  506MOL0     C69700   7.975  10.692   6.548  0.1240  0.1768 -0.8564
  506MOL0     C69701   8.099  10.655   6.621  0.0526  0.1163 -0.0279
  506MOL0     C69702   8.227  10.708   6.564  0.2773 -0.2393  0.4146
  506MOL0     C69703   8.353  10.640   6.623  0.4897  0.3850 -0.1545
  506MOL0     C69704   8.482  10.702   6.564 -0.3830 -0.3593  0.0469
  506MOL0     C69705   8.617  10.647   6.632  0.2089 -0.7129  0.7163
  506MOL0     C69706   8.742  10.714   6.565  0.6115  1.2425 -0.0532
  506MOL0     N69707   8.854  10.695   6.658  0.7128  0.1316 -0.1614
  506MOL0     C69708   8.911  10.797   6.728  0.7000  0.2925  0.4312
  506MOL0     C69709   8.986  10.737   6.818  1.0178  0.0712  1.5540
  506MOL0     C69710   9.049  10.817   6.933 -0.3814  1.2077  0.4711
  506MOL0     C69711   8.944  10.889   7.028  0.1845 -0.9159 -0.2327
  506MOL0     C69712   8.992  10.988   7.132 -0.6758  0.3693  0.0182
  506MOL0     C69713   9.102  10.935   7.215 -0.8568  0.2581  0.1971
  506MOL0     O69714   9.045  10.827   7.298 -0.3088  0.4003  0.6901
  506MOL0     C69715   9.122  10.716   7.322 -0.0866 -0.5254 -0.2163
  506MOL0     C69716   9.055  10.623   7.399  0.6213  0.2204  0.1335
  506MOL0     C69717   9.124  10.515   7.471  0.1433  1.0272  0.5788
  506MOL0     C69718   9.046  10.417   7.558  0.0961  0.7088 -0.3409
  506MOL0     C69719   9.262  10.485   7.445 -0.1286  0.1976 -0.7000
  506MOL0     C69720   9.330  10.360   7.495  0.3543 -0.5281  0.7797
  506MOL0     O69721   9.256  10.244   7.526  0.6080 -1.0021  0.0277
  506MOL0     C69722   9.303  10.160   7.623  0.3192 -0.0744 -0.2244
  506MOL0     C69723   9.390  10.191   7.727 -0.0709 -0.0973  0.8925
  506MOL0     C69724   9.435  10.091   7.811  0.6555 -0.0083  0.4966
  506MOL0     C69725   9.388   9.959   7.806  0.2137 -0.4510 -0.5096
  506MOL0     O69726   9.433   9.852   7.878 -0.0775 -0.2999 -0.4413
  506MOL0     C69727   9.547   9.874   7.962 -0.4066  0.3640 -0.4299
  506MOL0     C69728   9.596   9.743   8.027 -0.2195 -0.3712 -0.1540
  506MOL0     C69729   9.578   9.623   7.929  0.2271 -0.5753  0.0285
  506MOL0     C69730   9.633   9.505   7.990 -0.3676  1.5332 -0.3805
  506MOL0     C69731   9.610   9.383   7.903  0.5936  0.5154 -0.1196
  506MOL0     C69732   9.461   9.373   7.852 -0.9505  0.7747  0.0385
  506MOL0     C69733   9.450   9.253   7.758 -0.0503  0.4203  0.0124
  506MOL0     C69734   9.318   9.238   7.689  0.0824  0.0272  0.7986
  506MOL0    Cl69735   9.192   9.181   7.802  0.1279  0.1758  0.1886
  506MOL0     C69736   9.293   9.929   7.707  0.3361 -0.8322 -0.5103
  506MOL0     C69737   9.252  10.027   7.612 -0.1446 -0.0924  0.2674
  506MOL0     O69738   9.448  10.367   7.511 -0.9528 -0.0372  0.9219
  506MOL0     C69739   9.326  10.568   7.352  0.7224  0.7761 -0.4563
  506MOL0     C69740   9.264  10.686   7.303  0.4522 -0.8869  0.0898
  506MOL0     N69741   8.994  10.604   6.791  0.0021 -0.0196 -0.2448
  506MOL0     N69742   8.917  10.583   6.693  0.5245  0.2255 -0.2811
  506MOL0     C69743   7.840  11.112   6.519 -0.1946  0.3862  0.4653
  506MOL0     C69744   7.758  11.226   6.545  0.1019  0.7777 -0.2740
  506MOL0     C69745   7.368  11.514   6.534 -0.1518  0.2394  0.5166
  506MOL0     C69746   7.221  11.517   6.536  0.2553 -0.1857  0.2752
  506MOL0     C69747   7.148  11.620   6.608 -0.6225  0.9769 -0.5895
  506MOL0     C69748   7.221  11.712   6.673  0.5482  0.8348 -0.6386
  506MOL0     O69749   7.165  11.809   6.747 -1.1699 -0.4195 -0.3417
  506MOL0     C69750   7.032  11.857   6.737  0.6382  0.0011 -0.8472
  506MOL0     C69751   6.993  11.960   6.845  0.1746 -0.1055 -0.2151
  506MOL0     C69752   6.955  11.912   6.989  0.1694  0.3925 -0.7756
  506MOL0     C69753   7.074  11.853   7.062  0.8819  0.8702 -0.0314
  506MOL0     C69754   7.184  11.950   7.078 -0.1705  0.5935 -0.2770
  506MOL0     C69755   7.268  12.035   7.084  0.0234 -0.0370 -0.4095
  506MOL0     C69756   7.359  11.712   6.671  0.3110  0.0835 -0.4925
  506MOL0     C69757   7.434  11.619   6.596 -0.5526 -0.1842 -0.1694
  506MOL0     C69758   7.582  11.647   6.595 -0.7219  0.0546  0.3378
  506MOL0     H69759   7.468  11.110   6.404  0.1191 -1.8907 -0.5959
  506MOL0     H69760   7.604  10.912   6.374  0.4913  0.6535 -3.9612
  506MOL0     H69761   7.876  10.851   6.658  0.5730 -0.0094 -0.6163
  506MOL0     H69762   8.017  10.904   6.577 -1.0645  1.4411 -1.2069
  506MOL0     H69763   7.897  10.634   6.598  1.6893 -0.5711  0.8558
  506MOL0     H69764   7.983  10.665   6.442 -0.6546 -1.5745 -0.5020
  506MOL0     H69765   8.090  10.691   6.724  0.2010  0.8392 -0.2687
  506MOL0     H69766   8.110  10.546   6.630  1.6653 -0.0679 -3.0990
  506MOL0     H69767   8.228  10.695   6.455 -1.1234  0.4389  0.2932
  506MOL0     H69768   8.214  10.816   6.575 -0.3692 -0.3845  1.1552
  506MOL0     H69769   8.352  10.531   6.613 -2.8268  0.3639 -0.8432
  506MOL0     H69770   8.355  10.667   6.729  0.0463 -3.3465  0.9216
  506MOL0     H69771   8.486  10.692   6.455 -0.2208  0.1255  0.0051
  506MOL0     H69772   8.486  10.811   6.577 -1.3683 -0.4143  0.9705
  506MOL0     H69773   8.635  10.540   6.617  2.6932 -0.2273 -0.2412
  506MOL0     H69774   8.611  10.665   6.739  1.1864  1.6510  0.4371
  506MOL0     H69775   8.767  10.672   6.467 -0.9887 -3.0592  1.1382
  506MOL0     H69776   8.723  10.821   6.554  1.9721  1.3793 -1.2689
  506MOL0     H69777   8.887  10.903   6.720  0.2129  0.1076 -0.7936
  506MOL0     H69778   9.128  10.884   6.898 -3.0779  3.4539 -1.7700
  506MOL0     H69779   9.100  10.745   6.999 -0.4747  0.1076 -0.6368
  506MOL0     H69780   8.861  10.932   6.972  0.1774  0.0949  0.5318
  506MOL0     H69781   8.892  10.817   7.091 -1.3217  0.3183 -0.0046
  506MOL0     H69782   9.019  11.078   7.077 -3.0253  0.1925 -1.5942
  506MOL0     H69783   8.902  11.013   7.189 -2.0349  2.6997 -2.8496
  506MOL0     H69784   9.192  10.908   7.158  0.0602  0.8427  1.3317
  506MOL0     H69785   9.125  11.017   7.283  1.1071  1.1171 -1.3861
  506MOL0     H69786   8.953  10.640   7.432  0.5031 -1.6342  0.8313
  506MOL0     H69787   9.052  10.323   7.503  1.8384 -1.2006  2.8922
  506MOL0     H69788   8.939  10.442   7.552 -0.1482 -0.5766 -3.6614
  506MOL0     H69789   9.075  10.401   7.662  1.6169 -2.2071 -1.1116
  506MOL0     H69790   9.419  10.294   7.742 -1.1723  0.0214  2.3504
  506MOL0     H69791   9.520  10.117   7.874  0.0725  2.8140  0.2326
  506MOL0     H69792   9.623   9.924   7.902  0.1252 -1.4884 -1.3490
  506MOL0     H69793   9.513   9.935   8.046  0.7956 -0.4707  0.6929
  506MOL0     H69794   9.701   9.761   8.052 -0.5281  0.2795  0.7341
  506MOL0     H69795   9.537   9.735   8.119 -2.5199  0.3617 -1.4900
  506MOL0     H69796   9.633   9.646   7.838 -0.2769  0.2073 -0.0883
  506MOL0     H69797   9.470   9.617   7.912  0.3689 -1.9657 -0.4255
  506MOL0     H69798   9.582   9.484   8.085 -1.2558 -0.0420 -1.1661
  506MOL0     H69799   9.741   9.513   8.003 -0.3764  0.8485  0.2115
  506MOL0     H69800   9.667   9.396   7.810  0.6025  3.0039  0.1564
  506MOL0     H69801   9.635   9.284   7.942 -1.2247  0.2908  0.5794
  506MOL0     H69802   9.444   9.461   7.791 -0.1015  1.4523  0.7415
  506MOL0     H69803   9.389   9.365   7.934  0.9513  1.5717  1.8975
  506MOL0     H69804   9.460   9.154   7.805  1.0743  0.7978  0.5963
  506MOL0     H69805   9.527   9.268   7.682  0.5804  0.3249  0.6238
  506MOL0     H69806   9.311   9.156   7.617  2.1713  0.1621  0.3739
  506MOL0     H69807   9.273   9.333   7.659 -3.5313 -1.6520  0.2444
  506MOL0     H69808   9.255   9.827   7.701 -0.8761 -0.5877  1.8141
  506MOL0     H69809   9.198  10.000   7.521  2.7285 -1.2698 -1.1898
  506MOL0     H69810   9.426  10.544   7.316 -0.3186  1.1051 -3.9328
  506MOL0     H69811   9.333  10.746   7.245 -0.6560 -0.9406 -1.3229
  506MOL0     H69812   7.944  11.122   6.546 -0.2778  1.0660  0.5779
  506MOL0     H69813   7.806  11.308   6.597 -0.1722  2.0800 -1.9930
  506MOL0     H69814   7.160  11.439   6.491 -0.4717 -0.0149  0.9454
  506MOL0     H69815   7.040  11.623   6.605 -0.7533  2.2225  2.1033
  506MOL0     H69816   7.010  11.902   6.639  0.6949  0.3942 -0.6825
  506MOL0     H69817   6.961  11.776   6.755  1.8445 -0.6333  1.4127
  506MOL0     H69818   6.898  12.000   6.807  0.6326  2.0059  0.7332
  506MOL0     H69819   7.073  12.033   6.858  0.3294 -0.7425  3.3823
  506MOL0     H69820   6.915  12.000   7.040 -0.5504 -0.8563  0.8839
  506MOL0     H69821   6.878  11.834   6.986  0.2644  0.0782  2.1245
  506MOL0     H69822   7.121  11.773   7.004  1.3202  1.4634 -0.5058
  506MOL0     H69823   7.051  11.822   7.164  2.2320  0.0972  0.0680
  506MOL0     H69824   7.337  12.117   7.089  1.0968 -0.7949 -2.0771
  506MOL0     H69825   7.425  11.779   6.725  0.8848 -2.4078  2.1010
  506MOL0     H69826   7.621  11.596   6.683  0.4382  1.6885  0.8124
  506MOL0     H69827   7.624  11.616   6.499 -0.3544 -0.1638  0.5666
  506MOL0     H69828   7.609  11.752   6.608 -0.5556  0.0955 -0.2931
  507MOL0     O69829  10.221  10.399   2.586  0.1638 -0.4720 -0.3064
  507MOL0     C69830  10.185  10.284   2.554 -0.0139 -1.1967 -0.3347
  507MOL0     O69831  10.196  10.230   2.433 -0.5745  0.6180 -0.4102
  507MOL0     C69832  10.241  10.304   2.329  0.3266 -0.6708 -0.6471
  507MOL0     C69833  10.151  10.363   2.235  0.3118  0.1597  0.1698
  507MOL0     C69834  10.208  10.430   2.124 -0.6024 -0.2198  0.1279
  507MOL0     C69835  10.344  10.433   2.095  1.0957 -0.3922  0.4837
  507MOL0     O69836  10.374  10.489   1.979  0.6750  0.2339  0.2472
  507MOL0     C69837  10.427  10.617   1.992  0.4883 -0.3963 -0.2027
  507MOL0     C69838  10.493  10.665   1.865 -0.7239 -0.0180  0.7393
  507MOL0     C69839  10.622  10.579   1.824  0.2665 -0.5133 -0.0299
  507MOL0     C69840  10.743  10.654   1.864 -0.8141  0.0121  0.4280
  507MOL0     C69841  10.861  10.562   1.849  0.7165 -0.0528  0.0773
  507MOL0     C69842  10.999  10.629   1.874 -0.6244 -0.8394  0.1263
  507MOL0     C69843  11.105  10.527   1.912 -0.1503 -0.5116 -0.3885
  507MOL0     C69844  11.187  10.494   1.782  0.4236  0.1075 -0.5995
  507MOL0     N69845  11.296  10.399   1.805  0.3757  0.2682 -0.3408
  507MOL0     C69846  11.386  10.403   1.907  1.0582 -0.6683 -0.3836
  507MOL0     C69847  11.458  10.294   1.882 -1.0923  0.1216  0.2633
  507MOL0     C69848  11.578  10.234   1.958  0.2765  0.4874  1.4089
  507MOL0     C69849  11.667  10.163   1.866  0.0510 -0.1499  0.3835
  507MOL0     C69850  11.811  10.138   1.922 -0.2618 -0.1439  0.1674
  507MOL0     C69851  11.816  10.015   2.023 -0.2660 -0.5303 -0.2847
  507MOL0     O69852  11.784   9.889   1.962 -0.4688  0.3919 -1.0728
  507MOL0     C69853  11.882   9.796   1.937 -0.9637  0.0300 -0.0531
  507MOL0     C69854  11.921   9.711   2.043  0.6165 -0.5707  0.2545
  507MOL0     C69855  12.003   9.593   2.032  0.1513 -0.1418  0.1265
  507MOL0     C69856  12.036   9.513   2.154 -0.5207 -0.8316 -0.1201
  507MOL0     C69857  12.045   9.561   1.899 -0.1145  0.3795  1.0324
  507MOL0     C69858  12.122   9.431   1.867  0.1235  0.0287 -0.5250
  507MOL0     O69859  12.109   9.369   1.740 -0.5485 -0.3778 -0.3844
  507MOL0     C69860  12.176   9.253   1.718 -0.2458  0.1556  0.2460
  507MOL0     C69861  12.308   9.267   1.668  0.6837 -0.1678 -0.1268
  507MOL0     C69862  12.393   9.155   1.668 -0.5031  0.2498  0.7546
  507MOL0     C69863  12.346   9.029   1.702 -0.2485  0.6464 -0.0901
  507MOL0     O69864  12.443   8.930   1.689  0.4994 -0.2369  0.4787
  507MOL0     C69865  12.384   8.804   1.657  0.3530  0.7635 -0.6893
  507MOL0     C69866  12.491   8.704   1.614 -0.2309 -0.1811  0.8045
  507MOL0     C69867  12.573   8.756   1.500 -0.0904  0.4836 -0.0211
  507MOL0     C69868  12.642   8.629   1.442  0.2870 -0.5991 -0.2641
  507MOL0     C69869  12.748   8.652   1.337  0.5863  0.7171  0.6690
  507MOL0     C69870  12.853   8.756   1.389 -0.3601  0.5354  1.3114
  507MOL0     C69871  12.983   8.759   1.315  0.5551  0.1391  1.0628
  507MOL0     C69872  13.071   8.874   1.370  0.7578 -0.1021  0.8410
  507MOL0    Cl69873  13.241   8.860   1.301  0.0903  0.5947  0.2371
  507MOL0     C69874  12.213   9.010   1.741  0.1607 -1.0418 -0.4399
  507MOL0     C69875  12.131   9.125   1.753  0.1515  0.0767  0.2594
  507MOL0     O69876  12.187   9.374   1.954  0.5727 -0.3965  0.6269
  507MOL0     C69877  12.005   9.632   1.790  0.7542  0.0077  0.1710
  507MOL0     C69878  11.937   9.756   1.808  0.8784 -0.7806  0.4481
  507MOL0     N69879  11.428  10.231   1.765  0.1024 -0.9867  0.3367
  507MOL0     N69880  11.328  10.296   1.714 -0.3721 -0.0166 -0.4730
  507MOL0     C69881  10.431  10.378   2.184 -0.0947 -0.1684 -0.9195
  507MOL0     C69882  10.381  10.318   2.300 -1.2854 -0.5625  0.0896
  507MOL0     C69883  10.137  10.197   2.664 -0.7983  0.6750 -0.6238
  507MOL0     C69884  10.227  10.147   2.762  0.0512  0.1481  0.1952
  507MOL0     C69885  10.182  10.063   2.866  0.2255  0.5619  0.4852
  507MOL0     C69886  10.042  10.032   2.876 -1.0003 -0.5379  1.2487
  507MOL0     O69887  10.001   9.960   2.987  0.6965  0.3544  0.5540
  507MOL0     C69888   9.906   9.851   2.976  0.3130 -0.3566  0.4487
  507MOL0     C69889   9.996   9.730   2.973 -0.2303 -0.0996 -0.5389
  507MOL0     C69890   9.913   9.606   2.986 -0.2260 -0.1781 -0.6040
  507MOL0     C69891   9.985   9.474   2.987 -0.0648  0.7064  0.1094
  507MOL0     C69892  10.062   9.440   3.113  0.2762 -0.3024 -0.9301
  507MOL0     C69893  10.100   9.415   3.228  0.3346  0.3944  0.1657
  507MOL0     C69894   9.950  10.085   2.775 -0.0517  0.2310 -0.0491
  507MOL0     C69895  10.000  10.165   2.670 -0.0714  0.3065  0.2836
  507MOL0     C69896   9.914  10.222   2.561  0.0584 -0.2619 -0.1898
  507MOL0     H69897  10.044  10.362   2.253  0.4575 -0.1440  1.0872
  507MOL0     H69898  10.147  10.479   2.048 -1.2436 -2.1653 -0.6628
  507MOL0     H69899  10.498  10.626   2.075  1.0641 -0.8193 -0.6398
  507MOL0     H69900  10.342  10.682   2.015  0.7665  0.3507 -1.1836
  507MOL0     H69901  10.412  10.667   1.791  0.7408 -0.8706 -0.9879
  507MOL0     H69902  10.530  10.768   1.866 -0.5365 -0.0873  1.0287
  507MOL0     H69903  10.606  10.484   1.876  0.5097 -0.0884  0.8241
  507MOL0     H69904  10.624  10.554   1.717 -0.1316 -0.2133 -0.1092
  507MOL0     H69905  10.772  10.741   1.805  2.1843 -0.8068  0.5084
  507MOL0     H69906  10.732  10.673   1.971 -3.3938 -3.1630  0.8946
  507MOL0     H69907  10.869  10.515   1.750  2.7854 -2.1788  1.1335
  507MOL0     H69908  10.846  10.477   1.917 -2.1661  1.0621  0.9904
  507MOL0     H69909  11.027  10.674   1.778 -3.2977 -2.4429 -1.5138
  507MOL0     H69910  10.990  10.711   1.946  0.6825  0.4291 -1.0905
  507MOL0     H69911  11.058  10.443   1.964  1.0909 -0.9853  0.0037
  507MOL0     H69912  11.168  10.588   1.976 -2.2241 -1.7498  3.1395
  507MOL0     H69913  11.122  10.447   1.708  0.1108 -0.0419 -0.2335
  507MOL0     H69914  11.225  10.586   1.735  0.7830  2.0175  3.0825
  507MOL0     H69915  11.392  10.465   1.996 -1.2879 -1.3392  0.3102
  507MOL0     H69916  11.547  10.155   2.027  1.1398  0.7291  2.0976
  507MOL0     H69917  11.619  10.318   2.015  1.8621  1.4993 -1.0732
  507MOL0     H69918  11.631  10.061   1.856 -0.2400 -0.2386  2.0206
  507MOL0     H69919  11.664  10.206   1.765 -2.5739 -1.4220 -0.1768
  507MOL0     H69920  11.881  10.101   1.847 -0.6613 -3.4375  1.2164
  507MOL0     H69921  11.849  10.229   1.970  4.4785 -1.2504 -0.9828
  507MOL0     H69922  11.918  10.008   2.063 -0.0603 -1.4079 -0.9517
  507MOL0     H69923  11.745  10.028   2.106 -1.4182 -1.7934 -1.0276
  507MOL0     H69924  11.882   9.739   2.141 -0.9049 -1.7668  0.0335
  507MOL0     H69925  11.991   9.566   2.239 -0.0298 -0.2268 -0.2329
  507MOL0     H69926  12.144   9.504   2.168 -0.4091 -0.6773 -0.8252
  507MOL0     H69927  11.995   9.412   2.151 -1.6958 -0.3416 -1.2295
  507MOL0     H69928  12.340   9.364   1.632 -0.2265 -0.2199 -1.1466
  507MOL0     H69929  12.486   9.153   1.612  0.5430 -0.1101  2.4300
  507MOL0     H69930  12.321   8.762   1.736  2.7626 -1.4323  0.2147
  507MOL0     H69931  12.325   8.812   1.564  0.0720 -3.5708 -1.0799
  507MOL0     H69932  12.563   8.696   1.696  2.3453  4.2289 -0.7158
  507MOL0     H69933  12.443   8.607   1.599  0.2340 -0.4249  0.8978
  507MOL0     H69934  12.643   8.830   1.541  3.1392 -2.4517  0.1919
  507MOL0     H69935  12.516   8.809   1.423  0.3542  0.6651 -0.2315
  507MOL0     H69936  12.557   8.577   1.397 -1.2905  2.1056 -0.6163
  507MOL0     H69937  12.688   8.578   1.527 -0.0068 -1.9972 -0.9078
  507MOL0     H69938  12.792   8.558   1.302 -1.1389 -0.0535  0.4596
  507MOL0     H69939  12.698   8.690   1.247  0.1000  1.9147  1.4212
  507MOL0     H69940  12.878   8.735   1.494  3.4643  1.8380  0.8461
  507MOL0     H69941  12.820   8.861   1.388  5.2863  2.7799 -2.5140
  507MOL0     H69942  12.979   8.786   1.209 -0.4421  3.0252  1.7376
  507MOL0     H69943  13.034   8.662   1.318 -1.7922 -1.2035 -0.2433
  507MOL0     H69944  13.073   8.876   1.479  1.7784 -0.1247  0.8249
  507MOL0     H69945  13.022   8.966   1.338  0.9680  0.0633  0.9983
  507MOL0     H69946  12.184   8.909   1.770  2.6358 -1.2275  1.7851
  507MOL0     H69947  12.025   9.117   1.778 -0.0475 -0.4877 -0.7066
  507MOL0     H69948  12.035   9.607   1.689 -0.2780 -0.7168  0.0288
  507MOL0     H69949  11.902   9.810   1.720 -1.3260 -0.3369  1.5171
  507MOL0     H69950  10.536  10.383   2.159  0.7141  2.9475  2.1420
  507MOL0     H69951  10.450  10.282   2.376 -0.6551  0.7957  0.1785
  507MOL0     H69952  10.335  10.160   2.754  0.2013 -0.4790  1.0485
  507MOL0     H69953  10.251  10.028   2.942 -1.1410 -2.1324  0.6115
  507MOL0     H69954   9.826   9.836   3.050  0.3007 -0.8948  0.3291
  507MOL0     H69955   9.854   9.873   2.883 -2.4380  0.6301  2.0793
  507MOL0     H69956  10.052   9.733   3.067 -1.8812  0.6124  0.4896
  507MOL0     H69957  10.066   9.737   2.890  0.2654  2.8503  0.0130
  507MOL0     H69958   9.846   9.613   3.073 -1.1392 -3.8703 -0.8311
  507MOL0     H69959   9.857   9.590   2.893  1.4737 -2.5066 -1.3306
  507MOL0     H69960  10.053   9.471   2.901  1.8874 -0.7800  1.6055
  507MOL0     H69961   9.907   9.400   2.966  1.1121 -1.0915  1.6634
  507MOL0     H69962  10.131   9.391   3.328  0.4077 -0.9037 -0.1629
  507MOL0     H69963   9.846  10.058   2.770  0.1444 -0.9423  1.4979
  507MOL0     H69964   9.922  10.327   2.592  0.6434 -0.9069  2.0839
  507MOL0     H69965   9.935  10.193   2.458  0.5063  1.7453 -0.6958
  507MOL0     H69966   9.807  10.207   2.577 -0.2272  2.5309  1.0427
  508MOL0     O69967   5.946   8.066  10.688 -0.1877 -0.5294  0.5953
  508MOL0     C69968   5.967   7.963  10.628  0.7150  1.2391 -0.1947
  508MOL0     O69969   6.062   7.943  10.536 -0.9382 -0.3453  0.4166
  508MOL0     C69970   6.136   8.054  10.490  0.3168  0.1611  0.1317
  508MOL0     C69971   6.277   8.043  10.484  0.3239 -0.2227 -0.2138
  508MOL0     C69972   6.357   8.153  10.444 -0.2254  0.2039 -1.5161
  508MOL0     C69973   6.289   8.263  10.387 -0.3768 -0.6696  0.2669
  508MOL0     O69974   6.351   8.365  10.323  0.3645  0.7633 -0.1260
  508MOL0     C69975   6.483   8.396  10.360  0.3939 -0.6614  0.6902
  508MOL0     C69976   6.544   8.513  10.280  0.3645  0.1465  1.0171
  508MOL0     C69977   6.620   8.488  10.150 -0.4320 -0.7871 -1.2347
  508MOL0     C69978   6.524   8.450  10.043 -0.1521 -0.0007  1.0036
  508MOL0     C69979   6.591   8.416   9.906  0.2985  0.2612  1.0358
  508MOL0     C69980   6.512   8.321   9.827  0.4381 -0.3075 -0.3501
  508MOL0     C69981   6.557   8.310   9.681  0.2572  0.1301  0.1512
  508MOL0     C69982   6.533   8.443   9.608  0.2377 -0.7499  0.9468
  508MOL0     N69983   6.548   8.427   9.464  0.3528 -0.4705  0.3245
  508MOL0     C69984   6.645   8.364   9.393 -0.4299  0.8904 -0.2169
  508MOL0     C69985   6.627   8.396   9.261 -0.2323  0.1659 -0.4046
  508MOL0     C69986   6.714   8.334   9.153  0.2079 -0.3504 -0.3402
  508MOL0     C69987   6.860   8.389   9.161 -0.1064 -0.3788  0.4858
  508MOL0     C69988   6.945   8.332   9.043 -0.7297 -0.6681  0.2166
  508MOL0     C69989   7.080   8.402   9.026  0.4460 -1.2900 -0.0121
  508MOL0     O69990   7.083   8.551   9.039 -0.7424  0.2634 -0.5601
  508MOL0     C69991   7.194   8.616   8.998 -0.8390 -0.4994 -1.5850
  508MOL0     C69992   7.188   8.745   9.034  0.3223 -0.0209  0.7424
  508MOL0     C69993   7.287   8.836   8.994 -0.3124 -0.0221  0.4047
  508MOL0     C69994   7.268   8.969   9.046 -0.4083 -1.4552 -0.4898
  508MOL0     C69995   7.390   8.793   8.916 -0.3424  0.2606  0.6516
  508MOL0     C69996   7.513   8.877   8.893  0.7636  0.1143  0.4425
  508MOL0     O69997   7.545   8.984   8.978  0.6241  0.3145  0.2537
  508MOL0     C69998   7.667   9.037   8.962  0.5370 -0.9483 -0.2710
  508MOL0     C69999   7.700   9.102   8.839  0.4670  0.9392 -0.6061
  508MOL0     C70000   7.832   9.150   8.812  0.1219  0.5982  0.1081
  508MOL0     C70001   7.931   9.132   8.912 -0.1009  0.5568  0.1713
  508MOL0     O70002   8.064   9.173   8.891  1.3321  0.1373 -0.4977
  508MOL0     C70003   8.136   9.127   8.784 -0.3490  0.6875  0.4310
  508MOL0     C70004   8.148   9.243   8.691  0.6756 -0.5304  0.5171
  508MOL0     C70005   8.172   9.207   8.539  0.6804 -0.1659 -0.4136
  508MOL0     C70006   8.207   9.322   8.442  0.8544 -0.6699  0.4284
  508MOL0     C70007   8.105   9.437   8.443  0.3572 -0.0730  0.4626
  508MOL0     C70008   8.141   9.554   8.358  0.2506 -0.4963  0.3393
  508MOL0     C70009   8.267   9.625   8.401 -0.1740  0.1302 -0.1338
  508MOL0     C70010   8.248   9.783   8.397  0.7159  0.7811 -0.5398
  508MOL0    Cl70011   8.243   9.837   8.227  0.1075 -0.0715  0.1321
  508MOL0     C70012   7.901   9.067   9.032  0.6764  1.0990 -0.3795
  508MOL0     C70013   7.767   9.023   9.054 -1.1303 -0.0314  0.3517
  508MOL0     O70014   7.573   8.840   8.792 -0.0110  0.1583 -0.1814
  508MOL0     C70015   7.389   8.664   8.865 -0.0008 -0.2017  0.3000
  508MOL0     C70016   7.298   8.566   8.921 -0.8272  0.1417  0.2822
  508MOL0     N70017   6.532   8.494   9.255 -0.0980  0.5211  0.4898
  508MOL0     N70018   6.479   8.499   9.371 -0.1535  0.3486  0.8187
  508MOL0     C70019   6.150   8.269  10.377  1.0280  0.1418 -0.3160
  508MOL0     C70020   6.074   8.165  10.441  0.2893 -0.0405 -0.8573
  508MOL0     C70021   5.881   7.840  10.658 -0.8732 -0.4781  0.4933
  508MOL0     C70022   5.893   7.733  10.574  0.3577 -0.2486 -0.4338
  508MOL0     C70023   5.837   7.605  10.607 -0.5931 -0.4355  0.5038
  508MOL0     C70024   5.756   7.589  10.716 -0.2221 -0.2768 -0.0777
  508MOL0     O70025   5.687   7.477  10.761 -0.0101  0.5872  0.1689
  508MOL0     C70026   5.705   7.358  10.678 -0.7779 -0.0304 -0.1765
  508MOL0     C70027   5.604   7.245  10.709 -0.4366 -0.2534 -0.0964
  508MOL0     C70028   5.617   7.191  10.851 -0.6047  0.6416 -0.5952
  508MOL0     C70029   5.546   7.064  10.878  0.9637  1.1739 -1.0876
  508MOL0     C70030   5.587   6.994  10.997 -0.5492 -0.0835 -0.1546
  508MOL0     C70031   5.614   6.933  11.101  0.0295 -2.0796  0.0447
  508MOL0     C70032   5.716   7.705  10.781 -0.6971 -0.5895  0.0932
  508MOL0     C70033   5.781   7.827  10.761  0.0940 -0.5536  0.4734
  508MOL0     C70034   5.749   7.938  10.859  0.2091  0.6180 -0.1469
  508MOL0     H70035   6.328   7.953  10.519 -0.9558 -0.2459  1.7606
  508MOL0     H70036   6.465   8.147  10.435 -0.1666 -1.4567 -0.2221
  508MOL0     H70037   6.560   8.320  10.346  1.7891  0.4597  1.8815
  508MOL0     H70038   6.481   8.420  10.467 -0.3916 -1.6249  0.9149
  508MOL0     H70039   6.460   8.583  10.272 -0.2396 -0.6080  0.6487
  508MOL0     H70040   6.620   8.555  10.346  0.2162  1.9822  0.1048
  508MOL0     H70041   6.681   8.578  10.132 -0.1468 -0.7257 -0.0656
  508MOL0     H70042   6.706   8.420  10.152  2.2458  2.2754  2.0236
  508MOL0     H70043   6.463   8.367  10.080 -2.9036  3.1188  4.2090
  508MOL0     H70044   6.448   8.527  10.025 -0.0919 -0.1646 -0.0061
  508MOL0     H70045   6.678   8.357   9.935 -0.8803 -1.1118  1.9318
  508MOL0     H70046   6.620   8.505   9.849  1.1402 -1.5318 -1.5596
  508MOL0     H70047   6.521   8.225   9.877 -0.4010 -0.2356 -0.0425
  508MOL0     H70048   6.407   8.354   9.825 -0.1875 -2.1952 -0.4683
  508MOL0     H70049   6.506   8.223   9.640 -0.7534  0.3948  0.8284
  508MOL0     H70050   6.664   8.289   9.671  0.5751  2.0214 -0.9831
  508MOL0     H70051   6.433   8.484   9.629 -1.4313 -2.6558 -2.4499
  508MOL0     H70052   6.601   8.525   9.630  0.9469 -0.8547 -0.7495
  508MOL0     H70053   6.712   8.288   9.433 -2.8422 -2.1788 -1.5634
  508MOL0     H70054   6.670   8.346   9.053  1.1212 -0.8073 -0.8039
  508MOL0     H70055   6.715   8.226   9.171 -0.3663 -0.4603 -0.9196
  508MOL0     H70056   6.842   8.497   9.160 -1.0603 -0.5421 -0.3039
  508MOL0     H70057   6.895   8.359   9.260 -0.7003 -0.3753  0.6987
  508MOL0     H70058   6.967   8.225   9.058  1.4359 -0.7185 -2.5432
  508MOL0     H70059   6.903   8.339   8.943  0.5237 -0.6757 -0.3342
  508MOL0     H70060   7.145   8.365   9.106 -0.2923 -1.0547  0.7135
  508MOL0     H70061   7.118   8.364   8.931  0.3930 -0.9375 -0.1789
  508MOL0     H70062   7.106   8.784   9.094  1.4783 -0.1325  2.4715
  508MOL0     H70063   7.325   8.984   9.139  0.5935 -0.6358 -1.2188
  508MOL0     H70064   7.163   8.994   9.065 -0.5300 -0.6902 -1.9970
  508MOL0     H70065   7.303   9.051   8.983 -0.7473 -0.9947 -0.0965
  508MOL0     H70066   7.625   9.111   8.762 -2.3228  2.1029  2.0796
  508MOL0     H70067   7.861   9.203   8.722 -1.6592  0.5411 -0.5402
  508MOL0     H70068   8.225   9.074   8.818 -2.0544 -1.7938  1.3473
  508MOL0     H70069   8.074   9.052   8.735 -1.3190  1.5702  0.2602
  508MOL0     H70070   8.061   9.308   8.696  1.4187  0.4270  1.7409
  508MOL0     H70071   8.224   9.313   8.726 -1.6506  2.0031  0.8082
  508MOL0     H70072   8.072   9.169   8.515  0.9793 -1.1645 -0.1363
  508MOL0     H70073   8.246   9.128   8.527 -0.3166 -1.7868  2.8837
  508MOL0     H70074   8.208   9.277   8.343 -1.8248 -0.4051  0.1950
  508MOL0     H70075   8.306   9.354   8.477 -0.1408  2.3314  0.8205
  508MOL0     H70076   8.003   9.405   8.419  0.9464 -0.7884 -1.2822
  508MOL0     H70077   8.088   9.479   8.543 -1.3007  0.6103 -0.0691
  508MOL0     H70078   8.064   9.630   8.374  0.2608 -0.1822 -0.9330
  508MOL0     H70079   8.137   9.536   8.250  0.4776 -2.5050  0.6320
  508MOL0     H70080   8.354   9.587   8.346 -0.2636  0.3750 -0.4499
  508MOL0     H70081   8.277   9.590   8.504 -1.1975 -0.6881 -0.2978
  508MOL0     H70082   8.344   9.819   8.436  0.3889 -0.5094  1.6162
  508MOL0     H70083   8.167   9.827   8.456  1.1843 -0.6336  1.2687
  508MOL0     H70084   7.969   9.030   9.108 -1.5769 -0.0314  1.1925
  508MOL0     H70085   7.731   8.988   9.150 -1.2632 -2.3612 -0.4712
  508MOL0     H70086   7.459   8.625   8.791 -1.6800 -0.9556 -0.9505
  508MOL0     H70087   7.302   8.459   8.907  0.6173 -0.0723  1.9811
  508MOL0     H70088   6.109   8.360  10.335  0.2395  0.6823  1.5184
  508MOL0     H70089   5.965   8.170  10.436 -0.0574 -2.2193  1.9979
  508MOL0     H70090   5.968   7.736  10.496  0.7659  0.8959 -0.0098
  508MOL0     H70091   5.852   7.522  10.539 -1.7468  2.4568 -3.7408
  508MOL0     H70092   5.697   7.381  10.571 -0.5326  0.9821  0.0059
  508MOL0     H70093   5.808   7.324  10.690 -0.8358 -0.7443 -1.5257
  508MOL0     H70094   5.619   7.163  10.638  0.2946 -0.4462  0.2644
  508MOL0     H70095   5.507   7.294  10.700 -0.3561 -0.2185 -0.9115
  508MOL0     H70096   5.723   7.170  10.866  0.0917  2.6130 -2.3175
  508MOL0     H70097   5.588   7.273  10.919  2.0984 -1.3038  3.2986
  508MOL0     H70098   5.547   7.000  10.790  4.1762  1.4520 -1.3566
  508MOL0     H70099   5.438   7.084  10.882  0.6917  0.5195 -3.6122
  508MOL0     H70100   5.650   6.880  11.187  4.1861 -1.9973 -1.3869
  508MOL0     H70101   5.642   7.698  10.859  0.3314 -2.0076  0.9901
  508MOL0     H70102   5.675   7.896  10.928 -0.5306 -2.3730 -2.5188
  508MOL0     H70103   5.839   7.969  10.913  0.1953 -2.1001  1.6993
  508MOL0     H70104   5.699   8.021  10.810 -2.2033 -0.4551  0.3494
  509MOL0     O70105   6.754   8.830   8.378 -0.2123  0.1616 -0.0218
  509MOL0     C70106   6.769   8.828   8.502  0.0218  1.1405  1.2102
  509MOL0     O70107   6.883   8.806   8.573  0.1396  0.1266  0.8107
  509MOL0     C70108   7.002   8.773   8.511 -1.0473 -0.3993  0.2685
  509MOL0     C70109   7.114   8.780   8.589  0.2169 -0.0252 -0.6870
  509MOL0     C70110   7.245   8.760   8.542 -0.4493 -0.2320 -0.2062
  509MOL0     C70111   7.259   8.721   8.405 -0.5271  0.4600 -0.2808
  509MOL0     O70112   7.384   8.689   8.348 -0.6044  0.0443 -0.4709
  509MOL0     C70113   7.511   8.732   8.414  0.7102  0.0115  0.0206
  509MOL0     C70114   7.615   8.620   8.422  0.4958  0.5614 -0.2838
  509MOL0     C70115   7.556   8.496   8.504  0.5212 -0.2018 -0.3412
  509MOL0     C70116   7.648   8.373   8.529  0.2112  0.0687 -0.6975
  509MOL0     C70117   7.564   8.268   8.605 -0.2656 -0.4635  1.1559
  509MOL0     C70118   7.667   8.159   8.635  0.0780  0.0831  0.0296
  509MOL0     C70119   7.588   8.039   8.698  0.1702 -0.4059  1.0527
  509MOL0     C70120   7.547   7.947   8.579 -0.4973 -0.0396 -0.2044
  509MOL0     N70121   7.651   7.846   8.549  0.1760  0.1624  0.4604
  509MOL0     C70122   7.670   7.736   8.619  0.5677  0.5173  0.1379
  509MOL0     C70123   7.781   7.669   8.571 -0.0905  0.1506  0.0399
  509MOL0     C70124   7.831   7.540   8.626  0.0145  0.0842  0.4994
  509MOL0     C70125   7.939   7.555   8.737  0.0441 -0.3135 -0.1088
  509MOL0     C70126   8.088   7.528   8.681  0.0213 -0.4666 -0.4371
  509MOL0     C70127   8.145   7.632   8.580  0.6216  0.1622 -0.7031
  509MOL0     O70128   8.279   7.606   8.555 -0.0450 -0.2199  0.2266
  509MOL0     C70129   8.375   7.606   8.653  0.7211 -0.7431  1.5194
  509MOL0     C70130   8.498   7.549   8.616 -0.3680  0.0603 -0.5769
  509MOL0     C70131   8.614   7.533   8.693 -0.4829  0.2067  0.7711
  509MOL0     C70132   8.726   7.443   8.642  0.4810 -0.4741 -1.1801
  509MOL0     C70133   8.604   7.595   8.821 -0.4682 -0.0362  0.4845
  509MOL0     C70134   8.716   7.603   8.918 -0.1212 -0.9880 -0.1582
  509MOL0     O70135   8.698   7.674   9.037  0.0683 -0.1105 -0.3195
  509MOL0     C70136   8.788   7.664   9.140 -0.2236 -0.5088 -0.5676
  509MOL0     C70137   8.881   7.765   9.156  0.0287  0.3234  0.0256
  509MOL0     C70138   8.984   7.761   9.248 -1.5807  0.4455  1.4433
  509MOL0     C70139   8.992   7.655   9.335  1.1317 -0.1547 -0.2511
  509MOL0     O70140   9.089   7.657   9.432 -0.0262  0.0362 -0.2244
  509MOL0     C70141   9.056   7.585   9.546  0.5844  0.5191 -0.5750
  509MOL0     C70142   9.160   7.624   9.654  0.0865 -0.0929  0.2434
  509MOL0     C70143   9.135   7.542   9.792 -1.0297  0.3244  0.3517
  509MOL0     C70144   9.205   7.619   9.907  0.4462  1.1073 -0.1598
  509MOL0     C70145   9.245   7.516  10.014  0.3591  0.2646  0.3072
  509MOL0     C70146   9.122   7.457  10.091  0.3922 -0.1134  0.3838
  509MOL0     C70147   9.169   7.335  10.182  0.0407  0.2567  0.7556
  509MOL0     C70148   9.054   7.303  10.276  0.2321 -0.0882 -0.3904
  509MOL0    Cl70149   9.100   7.159  10.364 -0.2048  0.1032 -0.1551
  509MOL0     C70150   8.892   7.546   9.318 -0.6487 -0.4403  0.4811
  509MOL0     C70151   8.790   7.553   9.219 -0.1435 -0.3227 -0.5109
  509MOL0     O70152   8.821   7.537   8.898  0.5588  0.1214 -0.1742
  509MOL0     C70153   8.481   7.656   8.858  0.7284 -1.5622 -0.7214
  509MOL0     C70154   8.370   7.665   8.778  0.9840 -0.2481 -0.2076
  509MOL0     N70155   7.840   7.754   8.488  0.3928 -0.6062 -0.4790
  509MOL0     N70156   7.764   7.864   8.475 -0.1077 -0.2669  0.1607
  509MOL0     C70157   7.146   8.698   8.325 -0.9012  0.1202 -0.1137
  509MOL0     C70158   7.022   8.727   8.375  0.2722  0.1107  0.2187
  509MOL0     C70159   6.653   8.859   8.587 -1.2380  0.7246 -0.1526
  509MOL0     C70160   6.540   8.917   8.528  0.1139 -0.2788 -0.6310
  509MOL0     C70161   6.424   8.959   8.588  0.8458  0.5912 -0.1062
  509MOL0     C70162   6.404   8.926   8.715 -0.5988 -1.3147 -0.9059
  509MOL0     O70163   6.291   8.961   8.785 -0.1822 -0.2201  0.4688
  509MOL0     C70164   6.235   9.092   8.768  0.4008 -0.9715  0.0293
  509MOL0     C70165   6.326   9.201   8.820 -0.7821 -0.0937 -0.6551
  509MOL0     C70166   6.259   9.332   8.819 -0.2598  0.2067 -0.3555
  509MOL0     C70167   6.250   9.403   8.678  0.5286  0.0276 -1.2653
  509MOL0     C70168   6.121   9.384   8.608  0.1157 -0.4181 -0.5211
  509MOL0     C70169   6.009   9.370   8.564 -0.0404 -0.1011 -0.4917
  509MOL0     C70170   6.514   8.880   8.790  0.1115 -0.3982 -0.7337
  509MOL0     C70171   6.638   8.838   8.724  0.2132 -0.3801  0.4660
  509MOL0     C70172   6.747   8.786   8.811  0.4193 -0.5505  0.5842
  509MOL0     H70173   7.105   8.819   8.690  1.4000 -0.6713 -0.3023
  509MOL0     H70174   7.323   8.779   8.614 -0.2710  2.6708 -1.0096
  509MOL0     H70175   7.489   8.773   8.513 -3.5591  0.9685 -1.0981
  509MOL0     H70176   7.562   8.809   8.356  2.7687  0.2601  2.0135
  509MOL0     H70177   7.630   8.583   8.320 -0.1063  1.1918 -0.6118
  509MOL0     H70178   7.708   8.656   8.467  1.0304 -2.4717  1.2687
  509MOL0     H70179   7.536   8.525   8.607 -2.5474 -0.4824 -0.7730
  509MOL0     H70180   7.467   8.461   8.451 -0.8233  0.6511  1.2692
  509MOL0     H70181   7.675   8.318   8.438 -0.8248 -2.0191  0.1824
  509MOL0     H70182   7.733   8.415   8.583 -0.9617 -0.2242  1.4997
  509MOL0     H70183   7.488   8.225   8.539 -1.7743  0.7668  2.0266
  509MOL0     H70184   7.513   8.318   8.688  0.4117 -1.0986  1.9822
  509MOL0     H70185   7.710   8.123   8.542  1.4940  1.7344 -0.0048
  509MOL0     H70186   7.747   8.203   8.696 -0.3985 -0.0109  0.7380
  509MOL0     H70187   7.499   8.074   8.752  0.5016  1.0736  0.7117
  509MOL0     H70188   7.659   7.980   8.755  0.6815 -0.2846  0.5495
  509MOL0     H70189   7.449   7.902   8.596 -0.0077 -1.6437 -1.4262
  509MOL0     H70190   7.538   8.014   8.492  2.5550  0.6108 -0.1368
  509MOL0     H70191   7.597   7.690   8.685  2.0198 -1.2738  0.5780
  509MOL0     H70192   7.866   7.474   8.546 -2.3540 -2.0811  1.1375
  509MOL0     H70193   7.753   7.476   8.669 -0.1902  0.2110  0.3139
  509MOL0     H70194   7.922   7.656   8.774  3.8230  0.5290 -0.2368
  509MOL0     H70195   7.925   7.480   8.816  0.0376 -1.3172 -1.0285
  509MOL0     H70196   8.151   7.543   8.770 -0.5304  3.2265 -0.5181
  509MOL0     H70197   8.090   7.423   8.648 -1.0634 -1.1061  1.3966
  509MOL0     H70198   8.087   7.618   8.489  0.2387 -0.3355 -0.3845
  509MOL0     H70199   8.126   7.730   8.627 -0.8801 -0.7848  0.7532
  509MOL0     H70200   8.488   7.498   8.521 -2.7064 -2.3977  0.8405
  509MOL0     H70201   8.822   7.496   8.640  0.2238  0.1400  0.6605
  509MOL0     H70202   8.698   7.418   8.540 -4.0211 -0.2653 -0.2023
  509MOL0     H70203   8.745   7.349   8.695  3.8734  1.0251  0.6186
  509MOL0     H70204   8.880   7.854   9.093  1.1959  1.2938  1.2988
  509MOL0     H70205   9.048   7.847   9.263 -0.3038  0.7832 -3.8501
  509MOL0     H70206   8.954   7.603   9.579  0.1584 -1.8305 -0.4912
  509MOL0     H70207   9.054   7.478   9.526  1.6761 -0.0216  1.7681
  509MOL0     H70208   9.262   7.600   9.624  0.1186  0.5201 -0.1562
  509MOL0     H70209   9.152   7.731   9.677  2.2417 -0.5586  3.9629
  509MOL0     H70210   9.176   7.442   9.778 -1.8776  0.0322 -0.0944
  509MOL0     H70211   9.029   7.525   9.813 -1.3921 -2.2679 -2.7922
  509MOL0     H70212   9.127   7.690   9.937  0.7510  1.3702  0.0254
  509MOL0     H70213   9.298   7.672   9.884  2.2447 -1.6415  0.3009
  509MOL0     H70214   9.310   7.436   9.977  0.1419  0.0434  0.4025
  509MOL0     H70215   9.308   7.567  10.087 -0.2347  0.3211  0.7855
  509MOL0     H70216   9.050   7.427  10.015  0.8812  0.4161 -0.2949
  509MOL0     H70217   9.080   7.540  10.148  1.0465 -0.0663  0.8047
  509MOL0     H70218   9.266   7.367  10.222  3.0189 -2.8307 -3.1851
  509MOL0     H70219   9.191   7.242  10.129 -2.4802 -1.3779  2.3239
  509MOL0     H70220   8.960   7.290  10.222  0.9168  2.7762 -2.4784
  509MOL0     H70221   9.033   7.384  10.347 -0.0105 -0.1698 -0.3652
  509MOL0     H70222   8.899   7.449   9.366 -0.5709 -1.2441 -1.0846
  509MOL0     H70223   8.731   7.467   9.188  0.6727 -0.8692 -0.6058
  509MOL0     H70224   8.466   7.694   8.958  0.8607 -0.5232 -1.0885
  509MOL0     H70225   8.280   7.702   8.827  0.1399 -0.8032 -1.2882
  509MOL0     H70226   7.157   8.666   8.221 -1.2046  2.6570 -1.0041
  509MOL0     H70227   6.941   8.703   8.307 -0.2229 -0.7199  1.0851
  509MOL0     H70228   6.534   8.945   8.423  2.8569  1.8416 -0.3130
  509MOL0     H70229   6.350   9.019   8.536  0.5468  1.3929  1.1845
  509MOL0     H70230   6.217   9.115   8.663 -1.6311 -2.8075 -0.0814
  509MOL0     H70231   6.137   9.111   8.813  0.4773  2.8331 -1.0841
  509MOL0     H70232   6.417   9.207   8.759  0.3797  0.4583  1.0854
  509MOL0     H70233   6.346   9.177   8.925 -1.5821  0.1710 -0.4402
  509MOL0     H70234   6.166   9.317   8.875  1.7425 -1.6370  2.7888
  509MOL0     H70235   6.314   9.403   8.882 -1.3266 -0.1134  0.9790
  509MOL0     H70236   6.334   9.382   8.612  1.5300  1.8219 -0.6439
  509MOL0     H70237   6.251   9.510   8.700  3.1378 -0.2675  0.4569
  509MOL0     H70238   5.911   9.337   8.535 -0.1776 -0.7200  0.6033
  509MOL0     H70239   6.502   8.878   8.898 -3.1437  0.7010 -0.9610
  509MOL0     H70240   6.827   8.860   8.810 -1.0436  1.1005  1.0649
  509MOL0     H70241   6.716   8.769   8.914 -2.8965 -2.0367 -0.4916
  509MOL0     H70242   6.777   8.690   8.767 -1.2462 -0.1613 -1.5704
  510MOL0     O70243   2.454   7.093   1.550  0.2336  0.3129  0.5755
  510MOL0     C70244   2.463   7.039   1.439 -0.3695  0.1416 -0.4749
  510MOL0     O70245   2.549   6.935   1.411 -0.8453  0.0383 -0.6511
  510MOL0     C70246   2.634   6.890   1.518  0.2920 -1.1542  0.6554
  510MOL0     C70247   2.608   6.771   1.590  0.1131  0.0415  0.8043
  510MOL0     C70248   2.694   6.720   1.684  0.4598  0.7761  0.5944
  510MOL0     C70249   2.821   6.793   1.708  0.4100 -0.0058  0.1721
  510MOL0     O70250   2.923   6.740   1.783 -0.3552 -0.1773 -0.2267
  510MOL0     C70251   2.986   6.836   1.870  0.3403 -0.2027 -0.7434
  510MOL0     C70252   3.085   6.768   1.969  0.1958 -0.1109  0.2568
  510MOL0     C70253   3.226   6.786   1.918 -0.4339 -0.3245 -0.5458
  510MOL0     C70254   3.323   6.678   1.966  0.7671 -0.0606 -0.6391
  510MOL0     C70255   3.467   6.711   1.917 -0.7327  0.3250  0.2533
  510MOL0     C70256   3.570   6.615   1.964 -0.3614 -0.0585  1.0140
  510MOL0     C70257   3.701   6.641   1.888 -0.3242 -0.2789  1.0930
  510MOL0     C70258   3.769   6.502   1.835 -0.2393 -1.0448 -0.5900
  510MOL0     N70259   3.872   6.535   1.735  0.1973  0.1675  0.0626
  510MOL0     C70260   3.998   6.589   1.751 -0.5778 -0.6141  0.1884
  510MOL0     C70261   4.078   6.567   1.651 -0.0094 -0.4183  0.5652
  510MOL0     C70262   4.215   6.614   1.642 -0.1424  1.8362 -0.0907
  510MOL0     C70263   4.327   6.505   1.648 -0.4685 -0.1886 -0.0373
  510MOL0     C70264   4.318   6.403   1.532  0.6884 -1.3382 -0.2846
  510MOL0     C70265   4.398   6.443   1.416  0.2321 -0.2858  0.4232
  510MOL0     O70266   4.542   6.419   1.445 -0.3914  0.2781  0.2722
  510MOL0     C70267   4.628   6.458   1.350 -0.5627 -0.4017 -0.7563
  510MOL0     C70268   4.751   6.442   1.397  0.9357 -0.1885  0.3359
  510MOL0     C70269   4.868   6.493   1.335  0.0784 -0.1566  0.3450
  510MOL0     C70270   5.005   6.459   1.400  0.1761  0.6260 -0.3057
  510MOL0     C70271   4.854   6.564   1.212 -0.3356 -0.5196 -0.7531
  510MOL0     C70272   4.965   6.612   1.141  0.1129  0.3129  0.3902
  510MOL0     O70273   5.013   6.520   1.046 -0.2186  0.5977  0.2762
  510MOL0     C70274   5.132   6.556   0.974 -1.0110 -0.6044 -0.7373
  510MOL0     C70275   5.149   6.509   0.847 -0.8341  0.3828  0.7115
  510MOL0     C70276   5.273   6.515   0.779  0.5123  0.7158  0.0902
  510MOL0     C70277   5.392   6.565   0.835  0.5899 -0.0966  0.1582
  510MOL0     O70278   5.523   6.565   0.778 -0.1939  0.8500  0.4255
  510MOL0     C70279   5.544   6.642   0.662  0.0307 -0.6902 -0.4012
  510MOL0     C70280   5.548   6.555   0.531  0.0772 -0.7843 -0.4802
  510MOL0     C70281   5.625   6.627   0.418 -0.9685 -0.1268 -0.5852
  510MOL0     C70282   5.526   6.713   0.338  0.9583 -0.4802 -0.6353
  510MOL0     C70283   5.595   6.809   0.246 -0.9694  0.8379  0.1493
  510MOL0     C70284   5.677   6.726   0.149 -0.1149 -0.1209  0.2950
  510MOL0     C70285   5.723   6.805   0.026 -0.6275 -0.0445 -0.9396
  510MOL0     C70286   5.823   6.906   0.075 -0.0247 -0.1934 -0.1378
  510MOL0    Cl70287   5.901   6.980  -0.072 -0.0534 -0.1981  0.1840
  510MOL0     C70288   5.372   6.624   0.966  0.2488  0.4069  0.3686
  510MOL0     C70289   5.245   6.616   1.035 -0.1188 -0.9343  0.0474
  510MOL0     O70290   5.017   6.722   1.165 -0.2951  0.1264  0.6431
  510MOL0     C70291   4.723   6.584   1.172  0.6571 -0.1847 -0.0623
  510MOL0     C70292   4.604   6.532   1.233  0.1735  0.7764  0.1002
  510MOL0     N70293   4.001   6.490   1.564  0.8143 -0.2617 -0.1239
  510MOL0     N70294   3.888   6.452   1.623 -0.4172 -0.2301 -0.1190
  510MOL0     C70295   2.839   6.914   1.635 -0.7269  0.3551  0.8807
  510MOL0     C70296   2.747   6.967   1.547 -0.0250  1.3353 -0.0519
  510MOL0     C70297   2.366   7.082   1.328  0.0216  1.2669 -0.0451
  510MOL0     C70298   2.333   6.974   1.239  0.8617  0.8264 -0.4133
  510MOL0     C70299   2.234   6.985   1.140  0.4420  0.4740 -0.0014
  510MOL0     C70300   2.157   7.096   1.125 -0.6962 -0.0966 -0.5753
  510MOL0     O70301   2.045   7.091   1.040 -0.1135 -0.0881 -0.2783
  510MOL0     C70302   1.963   7.205   1.029  0.2948 -0.1460  0.9376
  510MOL0     C70303   1.848   7.166   0.931 -0.2892 -0.4865 -0.1951
  510MOL0     C70304   1.761   7.040   0.965 -0.2695 -0.0211  0.4105
  510MOL0     C70305   1.643   7.063   1.058 -0.8407 -1.1101  0.0213
  510MOL0     C70306   1.683   7.100   1.192  0.4355 -0.0432 -0.4066
  510MOL0     C70307   1.703   7.138   1.311  0.3690  0.4159 -0.1020
  510MOL0     C70308   2.200   7.207   1.205  0.0861 -0.5200  0.3941
  510MOL0     C70309   2.306   7.201   1.299  1.0112  0.0869  0.9333
  510MOL0     C70310   2.346   7.327   1.378  0.6062 -0.4137 -0.5676
  510MOL0     H70311   2.513   6.723   1.571 -0.8583  2.0700  0.2550
  510MOL0     H70312   2.685   6.621   1.726 -1.4299  2.4218  4.7067
  510MOL0     H70313   2.911   6.889   1.929 -1.4513 -0.8598 -2.3224
  510MOL0     H70314   3.046   6.906   1.812  1.8368  0.6093  1.6541
  510MOL0     H70315   3.091   6.820   2.065  0.4376  1.5581 -0.6303
  510MOL0     H70316   3.055   6.664   1.983 -3.1072  0.9458  2.2892
  510MOL0     H70317   3.235   6.793   1.809 -0.0401  5.1170 -0.4274
  510MOL0     H70318   3.266   6.882   1.951  0.1347 -0.8366  0.2839
  510MOL0     H70319   3.317   6.678   2.075 -3.5065 -1.2153 -0.6941
  510MOL0     H70320   3.286   6.578   1.944  0.0183  0.2021 -0.6038
  510MOL0     H70321   3.493   6.810   1.956 -1.3415  1.1570 -1.3390
  510MOL0     H70322   3.461   6.714   1.807 -2.5834 -2.4229  0.2001
  510MOL0     H70323   3.581   6.617   2.073 -1.7319 -0.6249  1.1906
  510MOL0     H70324   3.520   6.520   1.942 -1.0162  0.8803 -2.0264
  510MOL0     H70325   3.770   6.694   1.953 -1.8930  0.8880  1.8871
  510MOL0     H70326   3.688   6.713   1.806  0.3462  0.4961  1.6559
  510MOL0     H70327   3.815   6.446   1.917  1.6027 -0.2677 -1.0229
  510MOL0     H70328   3.684   6.452   1.788 -0.8622 -0.4596 -0.0988
  510MOL0     H70329   4.038   6.634   1.842  1.5965  0.8097 -1.3627
  510MOL0     H70330   4.243   6.691   1.714  3.8887 -0.4046  1.0912
  510MOL0     H70331   4.226   6.666   1.547 -2.3658  2.5503 -0.0081
  510MOL0     H70332   4.412   6.573   1.639 -2.9329  3.3338  0.9898
  510MOL0     H70333   4.324   6.459   1.747 -0.4327 -0.7802 -0.3052
  510MOL0     H70334   4.336   6.305   1.577  0.5895 -1.3873 -0.3505
  510MOL0     H70335   4.213   6.406   1.498  1.4832  2.3321 -3.0843
  510MOL0     H70336   4.375   6.374   1.334 -1.5490 -2.4174  2.5335
  510MOL0     H70337   4.376   6.548   1.395 -0.3674  0.1654  2.8972
  510MOL0     H70338   4.752   6.379   1.485 -2.8804 -1.5379 -0.4051
  510MOL0     H70339   4.990   6.377   1.472  0.2853  4.1788  4.2234
  510MOL0     H70340   5.054   6.542   1.453  0.9332  3.2389 -4.6351
  510MOL0     H70341   5.075   6.426   1.323 -0.0528 -0.5085 -0.0538
  510MOL0     H70342   5.066   6.456   0.803 -2.0492  0.2387  3.0333
  510MOL0     H70343   5.286   6.466   0.683  1.3940 -0.3087  0.7203
  510MOL0     H70344   5.477   6.727   0.650  2.2492  1.3820  0.8739
  510MOL0     H70345   5.643   6.687   0.674  0.7166 -1.8098 -1.6080
  510MOL0     H70346   5.590   6.459   0.560  0.3406  0.1772  2.6837
  510MOL0     H70347   5.447   6.531   0.497 -0.7379  0.0573  1.2146
  510MOL0     H70348   5.664   6.546   0.356 -0.0528 -0.6664  0.6502
  510MOL0     H70349   5.703   6.691   0.460 -0.5474 -1.0707  0.1106
  510MOL0     H70350   5.461   6.772   0.403  1.1266 -1.2339  0.2436
  510MOL0     H70351   5.451   6.645   0.295  0.4192  0.0516 -0.5625
  510MOL0     H70352   5.536   6.886   0.195  0.4866  0.7182 -1.8043
  510MOL0     H70353   5.652   6.878   0.309 -2.2334  2.6321 -0.5841
  510MOL0     H70354   5.616   6.644   0.110  0.5836 -0.3727 -0.2986
  510MOL0     H70355   5.763   6.676   0.194  0.8807  1.5227  0.3090
  510MOL0     H70356   5.636   6.854  -0.019 -0.9535 -0.4917 -0.8038
  510MOL0     H70357   5.779   6.738  -0.040  1.0766 -1.3037  1.6004
  510MOL0     H70358   5.908   6.869   0.133  1.8343  3.2465 -0.3730
  510MOL0     H70359   5.784   6.993   0.129 -0.0525  2.0757 -3.5052
  510MOL0     H70360   5.462   6.663   1.012  1.9027  0.3662 -2.5756
  510MOL0     H70361   5.225   6.643   1.138 -1.2130 -0.4470 -0.2840
  510MOL0     H70362   4.715   6.619   1.069  2.8954 -2.2774 -1.0496
  510MOL0     H70363   4.499   6.541   1.207  0.2802  0.8418 -0.3165
  510MOL0     H70364   2.938   6.959   1.629 -0.2290 -0.5471  1.9224
  510MOL0     H70365   2.773   7.061   1.500  2.0690  3.3096  4.4959
  510MOL0     H70366   2.365   6.870   1.249  1.3840  1.1727  2.4692
  510MOL0     H70367   2.218   6.907   1.066 -2.3030  3.1099 -2.4522
  510MOL0     H70368   1.921   7.247   1.121 -2.8478  2.1551 -1.2816
  510MOL0     H70369   2.017   7.288   0.981 -1.2307 -1.0272 -2.6730
  510MOL0     H70370   1.885   7.168   0.828 -1.2706  2.6716 -0.6252
  510MOL0     H70371   1.777   7.249   0.939 -1.6399 -1.7265  1.3721
  510MOL0     H70372   1.703   7.003   0.880 -0.5790 -1.9409  1.4078
  510MOL0     H70373   1.837   6.965   0.991  2.0031  2.2487  0.6870
  510MOL0     H70374   1.582   6.973   1.050 -0.9923 -1.2219  1.8523
  510MOL0     H70375   1.590   7.149   1.017 -1.2890 -0.1843  2.3647
  510MOL0     H70376   1.714   7.163   1.414 -1.2304 -2.3016  0.8423
  510MOL0     H70377   2.147   7.298   1.177  0.5857 -1.0566 -2.6221
  510MOL0     H70378   2.256   7.389   1.376  1.2346  0.5429 -2.9329
  510MOL0     H70379   2.373   7.310   1.482 -1.2353 -6.0021 -0.6660
  510MOL0     H70380   2.415   7.388   1.318 -0.6032  1.0619 -0.5308
  511MOL0     O70381   8.351   0.193   6.411 -0.5429 -0.8378  0.2547
  511MOL0     C70382   8.253   0.229   6.347 -0.6358 -0.8197  0.4502
  511MOL0     O70383   8.230   0.217   6.213 -0.4157  0.0973  0.4107
  511MOL0     C70384   8.322   0.159   6.129 -0.2505 -0.0483  0.7436
  511MOL0     C70385   8.368   0.029   6.146  0.0691  0.7080 -0.4342
  511MOL0     C70386   8.445  -0.044   6.058  0.4162  0.3946  0.6246
  511MOL0     C70387   8.473   0.007   5.932 -0.7890  0.3921 -0.0491
  511MOL0     O70388   8.533  -0.054   5.825 -0.3150  0.5001 -0.1682
  511MOL0     C70389   8.570  -0.199   5.836  0.1432 -0.4858  0.8142
  511MOL0     C70390   8.646  -0.251   5.717 -0.0356 -0.7451 -0.0703
  511MOL0     C70391   8.566  -0.255   5.584  0.0931  0.3559 -0.5897
  511MOL0     C70392   8.650  -0.325   5.475  0.5491 -0.0475 -0.5012
  511MOL0     C70393   8.569  -0.362   5.354 -0.0796  0.0622 -0.1139
  511MOL0     C70394   8.627  -0.445   5.238  0.5067  0.2908 -0.0890
  511MOL0     C70395   8.748  -0.368   5.194  0.0684  0.6543  0.2340
  511MOL0     C70396   8.808  -0.429   5.061  0.3560  0.5758 -0.3196
  511MOL0     N70397   8.740  -0.371   4.950  0.0282  0.4630 -0.1815
  511MOL0     C70398   8.771  -0.255   4.888  0.3119  0.2100 -0.7097
  511MOL0     C70399   8.685  -0.252   4.778 -1.0516 -0.0696 -0.1001
  511MOL0     C70400   8.667  -0.145   4.679 -0.2021 -0.5847  0.5332
  511MOL0     C70401   8.778  -0.159   4.570  0.4492  0.1495  0.4161
  511MOL0     C70402   8.766  -0.037   4.480 -0.3161  0.5609  0.2865
  511MOL0     C70403   8.677  -0.077   4.357 -0.4736 -0.4801  0.8199
  511MOL0     O70404   8.699   0.030   4.253  0.5697  0.0030  0.2789
  511MOL0     C70405   8.628   0.022   4.133 -0.5486 -0.1659  0.6176
  511MOL0     C70406   8.637   0.130   4.054 -0.3981  0.1042 -0.0776
  511MOL0     C70407   8.596   0.127   3.918 -0.6609  0.1459  0.0352
  511MOL0     C70408   8.643   0.238   3.834  0.0945 -0.7273  0.1160
  511MOL0     C70409   8.520   0.019   3.861 -0.4089  0.4793 -0.4508
  511MOL0     C70410   8.442   0.025   3.737 -0.6896  0.4130 -0.5666
  511MOL0     O70411   8.408   0.141   3.699  1.2544 -0.2206  0.2288
  511MOL0     C70412   8.301   0.162   3.608 -0.5295  0.5277  0.5517
  511MOL0     C70413   8.202   0.062   3.568 -0.6545  0.0825  0.0667
  511MOL0     C70414   8.095   0.100   3.479  0.5655  0.5855 -0.0027
  511MOL0     C70415   8.094   0.222   3.408  0.2751  0.8075 -0.1052
  511MOL0     O70416   7.996   0.242   3.317  0.4650 -0.0878  0.1995
  511MOL0     C70417   7.942   0.384   3.314  0.2805  0.5589 -0.0448
  511MOL0     C70418   7.825   0.395   3.421  0.5266  1.2051 -0.8196
  511MOL0     C70419   7.724   0.269   3.422 -0.0177 -0.3045  0.3201
  511MOL0     C70420   7.595   0.302   3.504  0.0237 -0.4190 -0.6267
  511MOL0     C70421   7.614   0.296   3.657  0.4140  0.3067 -0.2284
  511MOL0     C70422   7.500   0.367   3.732 -0.0156  0.3946  0.2287
  511MOL0     C70423   7.503   0.335   3.881  0.5187 -0.3248 -0.1587
  511MOL0     C70424   7.610   0.427   3.937 -1.0107 -0.1834  0.3185
  511MOL0    Cl70425   7.640   0.382   4.111  0.0105 -0.0786  0.1934
  511MOL0     C70426   8.201   0.308   3.441  0.8481 -0.1259 -0.0592
  511MOL0     C70427   8.296   0.283   3.549 -0.6030  0.3950  0.4944
  511MOL0     O70428   8.433  -0.073   3.672  0.7755 -0.5305 -0.3986
  511MOL0     C70429   8.500  -0.082   3.953 -0.3674 -0.2103  0.3894
  511MOL0     C70430   8.560  -0.089   4.076  0.0966 -0.3862 -0.6693
  511MOL0     N70431   8.602  -0.362   4.786 -0.0814 -0.0360 -0.4442
  511MOL0     N70432   8.643  -0.442   4.883 -0.1954 -1.4493 -0.5990
  511MOL0     C70433   8.430   0.135   5.906 -0.2815 -0.8065  0.8324
  511MOL0     C70434   8.363   0.206   5.995  0.0594 -0.1531 -1.1728
  511MOL0     C70435   8.137   0.300   6.409  0.3829  0.9171  0.4512
  511MOL0     C70436   8.149   0.338   6.543 -0.8752  0.3775  0.9798
  511MOL0     C70437   8.057   0.414   6.614 -0.9326 -0.4444  0.1148
  511MOL0     C70438   7.925   0.428   6.574  0.1148 -0.1485 -0.9204
  511MOL0     O70439   7.822   0.492   6.644 -0.1755 -0.8089 -0.3235
  511MOL0     C70440   7.865   0.572   6.760 -0.0073 -0.3410  0.3094
  511MOL0     C70441   7.749   0.663   6.791  0.6050 -0.0521  0.7318
  511MOL0     C70442   7.620   0.593   6.818 -0.7525 -0.4205 -0.6264
  511MOL0     C70443   7.500   0.694   6.804 -0.5294  0.6345  0.2112
  511MOL0     C70444   7.517   0.800   6.905 -0.4770 -0.3948  0.2528
  511MOL0     C70445   7.533   0.871   6.999 -0.6592 -0.1994  0.2134
  511MOL0     C70446   7.907   0.383   6.438  0.7765 -0.3488 -0.0145
  511MOL0     C70447   8.003   0.324   6.359 -0.3548  0.1273  0.6026
  511MOL0     C70448   7.965   0.303   6.209  0.6645 -0.3651  0.0484
  511MOL0     H70449   8.352  -0.021   6.241  0.8247 -1.3969 -1.3579
  511MOL0     H70450   8.467  -0.150   6.059 -2.9903 -0.4511 -1.0099
  511MOL0     H70451   8.472  -0.247   5.837  0.1119 -0.4217  1.0767
  511MOL0     H70452   8.635  -0.225   5.921  1.1695  0.1429  0.2411
  511MOL0     H70453   8.742  -0.201   5.704  0.7074 -0.8084  3.8520
  511MOL0     H70454   8.689  -0.346   5.750  1.6804  0.7900  2.5630
  511MOL0     H70455   8.482  -0.319   5.612  0.3112  0.5302  0.5265
  511MOL0     H70456   8.539  -0.155   5.549  0.5045  0.2089 -1.3447
  511MOL0     H70457   8.736  -0.264   5.446 -1.0208  1.6704 -1.7851
  511MOL0     H70458   8.702  -0.406   5.526  0.8030  1.8911  2.6241
  511MOL0     H70459   8.513  -0.275   5.319  2.3259  2.4841  1.6308
  511MOL0     H70460   8.498  -0.436   5.392 -0.2478  0.8663  1.1984
  511MOL0     H70461   8.663  -0.544   5.267 -2.1377 -0.0728  2.4725
  511MOL0     H70462   8.545  -0.461   5.167  0.9645  1.5475 -0.9370
  511MOL0     H70463   8.819  -0.386   5.275  0.2626 -0.4764 -0.1718
  511MOL0     H70464   8.730  -0.261   5.180  1.1608  0.5677 -2.4513
  511MOL0     H70465   8.917  -0.431   5.051  0.4266 -0.2732  0.4842
  511MOL0     H70466   8.791  -0.537   5.061 -0.2379  0.6529  1.2658
  511MOL0     H70467   8.837  -0.177   4.923  2.6397 -1.7440 -0.4796
  511MOL0     H70468   8.680  -0.045   4.720  0.6876 -0.2096 -0.6185
  511MOL0     H70469   8.567  -0.154   4.638  0.4647  2.0851 -1.9503
  511MOL0     H70470   8.871  -0.143   4.626  0.3146  3.8844 -0.1613
  511MOL0     H70471   8.779  -0.261   4.531  0.2885  0.5487 -0.6729
  511MOL0     H70472   8.718   0.045   4.534 -2.7781  0.9800 -2.2951
  511MOL0     H70473   8.859   0.012   4.450 -1.1638  1.7723 -0.5092
  511MOL0     H70474   8.700  -0.178   4.321 -3.5451 -0.9316 -0.1835
  511MOL0     H70475   8.571  -0.094   4.378 -1.3615  0.3757 -2.3808
  511MOL0     H70476   8.699   0.211   4.090  1.7050 -1.0169 -0.9649
  511MOL0     H70477   8.573   0.322   3.835  1.3240  0.3690  2.6008
  511MOL0     H70478   8.657   0.217   3.728 -2.5650  0.9069 -0.6678
  511MOL0     H70479   8.739   0.272   3.873 -0.3159  0.3746  0.1891
  511MOL0     H70480   8.197  -0.035   3.617  2.8282  0.4352  1.4472
  511MOL0     H70481   8.007   0.038   3.462 -0.0641  1.8161 -1.5172
  511MOL0     H70482   8.026   0.450   3.338  0.9734 -0.1255 -0.5302
  511MOL0     H70483   7.904   0.397   3.213 -0.9472 -1.9951  0.0051
  511MOL0     H70484   7.871   0.411   3.519 -0.7388  0.9095 -0.1544
  511MOL0     H70485   7.766   0.485   3.401  1.0399  1.1926 -2.5194
  511MOL0     H70486   7.768   0.183   3.473  0.7326 -0.0072  0.1820
  511MOL0     H70487   7.697   0.264   3.316  0.6680  3.8402 -0.2268
  511MOL0     H70488   7.519   0.229   3.477  2.3724 -2.5984 -1.7520
  511MOL0     H70489   7.562   0.404   3.478  0.7142 -0.6605 -2.6148
  511MOL0     H70490   7.623   0.192   3.691 -0.2920 -0.1209 -1.2938
  511MOL0     H70491   7.707   0.350   3.675  0.2801  0.8043 -0.9768
  511MOL0     H70492   7.406   0.329   3.693  0.4802  0.7231 -1.3385
  511MOL0     H70493   7.495   0.472   3.706 -1.6433  0.3244  0.1791
  511MOL0     H70494   7.522   0.229   3.899 -2.6410 -1.5426 -2.8676
  511MOL0     H70495   7.406   0.373   3.915 -0.1647  0.1217 -2.4223
  511MOL0     H70496   7.574   0.529   3.920 -0.3111 -0.1968 -1.4417
  511MOL0     H70497   7.704   0.415   3.882  0.5150 -0.9660  2.9381
  511MOL0     H70498   8.203   0.407   3.397  2.3095 -0.0849  0.0439
  511MOL0     H70499   8.374   0.352   3.580 -2.1113  3.2627 -1.6857
  511MOL0     H70500   8.436  -0.162   3.914 -0.1928 -0.6435  0.9793
  511MOL0     H70501   8.555  -0.180   4.136  0.1372  1.4286  2.2627
  511MOL0     H70502   8.457   0.183   5.812  0.1591  2.2033  2.3497
  511MOL0     H70503   8.327   0.303   5.961 -0.7738  0.4995  1.3390
  511MOL0     H70504   8.237   0.319   6.604 -0.4593 -1.8873 -0.2341
  511MOL0     H70505   8.092   0.452   6.709 -0.8714  0.4463 -0.2486
  511MOL0     H70506   7.878   0.524   6.858  0.5146 -0.5103  0.1612
  511MOL0     H70507   7.954   0.627   6.728  0.8714 -0.9352  1.6557
  511MOL0     H70508   7.727   0.727   6.705 -0.9604 -0.9970  0.3994
  511MOL0     H70509   7.772   0.729   6.875 -1.6445  2.9019 -0.7937
  511MOL0     H70510   7.604   0.515   6.743 -2.4485 -2.7610  1.9787
  511MOL0     H70511   7.621   0.548   6.917 -4.1286 -0.8740 -0.6984
  511MOL0     H70512   7.411   0.632   6.815  1.2724 -2.4046 -1.2986
  511MOL0     H70513   7.480   0.736   6.705 -2.2857 -0.2974  0.1343
  511MOL0     H70514   7.533   0.949   7.073 -0.9385  1.6802 -1.6786
  511MOL0     H70515   7.803   0.395   6.410  0.5791 -0.0248  0.8425
  511MOL0     H70516   8.000   0.209   6.166  0.5641  0.4249 -1.8478
  511MOL0     H70517   7.856   0.287   6.209  0.3652  1.4294 -1.0679
  511MOL0     H70518   7.979   0.386   6.139 -3.0982  1.5469  1.2685
  512MOL0     O70519   8.219   5.809   1.433 -0.2183 -0.1825  0.4372
  512MOL0     C70520   8.149   5.864   1.517 -0.3883 -0.5519  0.1911
  512MOL0     O70521   8.174   5.992   1.564  0.8578 -0.1852 -1.0682
  512MOL0     C70522   8.295   6.047   1.575 -0.3903  0.4181  0.3731
  512MOL0     C70523   8.421   5.981   1.560  0.1495 -0.0523 -0.5771
  512MOL0     C70524   8.542   6.046   1.585  0.0730  0.4065 -0.0323
  512MOL0     C70525   8.547   6.184   1.615 -0.4596 -0.5940  0.0525
  512MOL0     O70526   8.678   6.237   1.634 -0.6539  0.5189  0.2176
  512MOL0     C70527   8.698   6.377   1.619  0.4092  0.4661  0.3709
  512MOL0     C70528   8.711   6.458   1.752 -0.9476 -0.4115  0.7652
  512MOL0     C70529   8.818   6.578   1.736  0.6901  0.0087  0.2119
  512MOL0     C70530   8.769   6.698   1.662  1.1238 -0.3515  0.0832
  512MOL0     C70531   8.896   6.793   1.628  0.2446 -0.2001  0.8091
  512MOL0     C70532   8.833   6.929   1.582  0.3168 -0.7134 -0.0543
  512MOL0     C70533   8.950   7.016   1.539  0.3037  0.1579 -0.1085
  512MOL0     C70534   8.907   7.146   1.481 -0.5494 -0.4596 -1.1325
  512MOL0     N70535   8.865   7.232   1.592 -0.2839  0.6405  0.0881
  512MOL0     C70536   8.739   7.240   1.629 -0.0152  0.0648 -0.5075
  512MOL0     C70537   8.746   7.326   1.730  0.0953  0.6026 -0.4746
  512MOL0     C70538   8.624   7.363   1.808  0.3941  0.4678  0.5461
  512MOL0     C70539   8.614   7.312   1.956 -0.6192  0.0145  0.3297
  512MOL0     C70540   8.499   7.370   2.033  0.3149 -0.2191  1.0385
  512MOL0     C70541   8.363   7.314   1.977 -0.1341 -0.7318 -0.3373
  512MOL0     O70542   8.259   7.395   2.022  0.5383 -0.6148 -0.0141
  512MOL0     C70543   8.127   7.347   2.013  0.5298  0.2139 -0.5905
  512MOL0     C70544   8.086   7.229   1.961  0.3010 -0.5689  0.0538
  512MOL0     C70545   7.956   7.187   1.966  0.2839 -0.2137  0.7096
  512MOL0     C70546   7.940   7.040   1.925 -0.3341  0.2246  0.6802
  512MOL0     C70547   7.860   7.276   2.001 -0.5523 -0.1736  0.2114
  512MOL0     C70548   7.716   7.254   1.973 -0.0542 -0.1451  0.6266
  512MOL0     O70549   7.630   7.340   2.034 -0.9388  0.0123 -1.1629
  512MOL0     C70550   7.495   7.335   2.002 -0.9155 -0.1529  0.7190
  512MOL0     C70551   7.418   7.230   2.049  0.3087 -0.1430 -0.0724
  512MOL0     C70552   7.283   7.227   2.007 -1.0473  0.1225  0.3200
  512MOL0     C70553   7.230   7.329   1.916 -0.0445  0.2492  0.1354
  512MOL0     O70554   7.089   7.326   1.883  0.4041  0.0181 -0.7501
  512MOL0     C70555   7.020   7.449   1.882 -0.3490  0.2972 -0.5425
  512MOL0     C70556   7.006   7.524   2.015  0.4962 -0.4251 -0.8304
  512MOL0     C70557   6.953   7.436   2.131  0.4006 -0.9068  0.2419
  512MOL0     C70558   6.970   7.497   2.275 -0.0225 -0.0984  1.2281
  512MOL0     C70559   7.116   7.502   2.338 -0.2823  0.7021 -0.3424
  512MOL0     C70560   7.170   7.363   2.350 -0.4146 -1.1699 -0.1701
  512MOL0     C70561   7.294   7.378   2.445 -0.7259 -0.4787 -0.1631
  512MOL0     C70562   7.336   7.233   2.487  0.3979  0.0649 -0.0022
  512MOL0    Cl70563   7.406   7.130   2.356 -0.2559 -0.2396 -0.5069
  512MOL0     C70564   7.316   7.420   1.866 -0.9896  0.3040  0.8436
  512MOL0     C70565   7.452   7.427   1.909  0.5378  0.3107 -0.8961
  512MOL0     O70566   7.676   7.166   1.898  0.2433  0.1272  0.2237
  512MOL0     C70567   7.891   7.409   2.045 -0.0634  0.7413  0.1786
  512MOL0     C70568   8.027   7.437   2.065 -0.5772  0.5294  0.9704
  512MOL0     N70569   8.873   7.379   1.743  0.8106 -0.3187  0.1489
  512MOL0     N70570   8.950   7.312   1.666 -0.3736  0.2090 -0.5783
  512MOL0     C70571   8.426   6.251   1.613  0.4769  0.3260 -0.4411
  512MOL0     C70572   8.306   6.179   1.592  0.0934  0.2055  0.2535
  512MOL0     C70573   8.028   5.791   1.539 -0.0972  0.6797 -1.4122
  512MOL0     C70574   7.930   5.768   1.444 -0.2146  0.9608 -0.1328
  512MOL0     C70575   7.804   5.715   1.473 -0.6345  1.0720  0.0243
  512MOL0     C70576   7.782   5.667   1.603  0.6158 -0.0040  0.9188
  512MOL0     O70577   7.665   5.604   1.642  0.3427  0.2514  0.4430
  512MOL0     C70578   7.628   5.621   1.787 -0.7743  1.0294 -0.1422
  512MOL0     C70579   7.477   5.675   1.799 -0.4768  0.6049 -0.4652
  512MOL0     C70580   7.476   5.816   1.756  0.0612 -0.4667 -0.2577
  512MOL0     C70581   7.338   5.888   1.750 -0.3578  0.4507  0.2413
  512MOL0     C70582   7.258   5.880   1.875  0.0419  0.1815  0.3435
  512MOL0     C70583   7.183   5.880   1.969 -0.5572 -0.6149 -0.8946
  512MOL0     C70584   7.884   5.672   1.696  0.0828 -0.5857 -0.1978
  512MOL0     C70585   8.009   5.738   1.672 -0.9308  0.1623  0.0255
  512MOL0     C70586   8.112   5.742   1.777 -0.2108  0.3809 -0.5184
  512MOL0     H70587   8.435   5.876   1.537 -2.7437 -0.6952  0.1006
  512MOL0     H70588   8.640   5.999   1.580  0.2019  0.4763  1.3979
  512MOL0     H70589   8.619   6.424   1.559  0.0461 -1.1817 -0.4903
  512MOL0     H70590   8.788   6.375   1.556  0.7073 -0.8160  0.8024
  512MOL0     H70591   8.614   6.505   1.770 -0.1449  0.8854  1.9151
  512MOL0     H70592   8.736   6.405   1.844  0.1742  0.3339  0.9156
  512MOL0     H70593   8.838   6.619   1.835 -2.8502  0.3910  0.9248
  512MOL0     H70594   8.913   6.538   1.699 -0.3926 -0.3380 -2.4159
  512MOL0     H70595   8.716   6.666   1.572  0.6553  0.6354 -0.0059
  512MOL0     H70596   8.691   6.747   1.722 -1.1486 -0.4484 -2.5712
  512MOL0     H70597   8.958   6.762   1.544  2.1825  2.6979  1.0139
  512MOL0     H70598   8.963   6.805   1.714  0.2040  2.7256  0.5495
  512MOL0     H70599   8.770   6.908   1.495  0.7243 -1.3626 -0.2068
  512MOL0     H70600   8.771   6.976   1.658  2.4937  2.4314 -0.0494
  512MOL0     H70601   8.997   6.965   1.454  1.9231  4.5345 -2.1251
  512MOL0     H70602   9.028   7.030   1.614 -1.0011  0.4507  1.2571
  512MOL0     H70603   8.994   7.182   1.425 -0.2971 -0.0288 -0.4782
  512MOL0     H70604   8.831   7.128   1.405  1.2551 -0.5790 -3.0121
  512MOL0     H70605   8.647   7.186   1.607  0.2240 -0.3539 -0.4846
  512MOL0     H70606   8.535   7.336   1.752 -1.1759  0.7971  2.7326
  512MOL0     H70607   8.622   7.472   1.817 -1.3713  0.7224 -1.9494
  512MOL0     H70608   8.608   7.203   1.955 -0.1792 -0.0072 -0.0394
  512MOL0     H70609   8.709   7.334   2.007 -1.3181 -0.2465  1.8176
  512MOL0     H70610   8.503   7.333   2.136 -2.6176 -0.5143  1.1123
  512MOL0     H70611   8.502   7.480   2.031 -1.8218 -0.1026  1.9120
  512MOL0     H70612   8.370   7.307   1.868  4.6827 -0.8802 -0.2237
  512MOL0     H70613   8.342   7.213   2.015 -1.3376 -0.1160  0.7418
  512MOL0     H70614   8.158   7.164   1.912  2.1796  0.7450  0.9894
  512MOL0     H70615   8.016   6.971   1.963 -0.1312 -0.3521 -0.7188
  512MOL0     H70616   7.931   7.024   1.818  3.1013  1.5718  0.0707
  512MOL0     H70617   7.850   6.998   1.970 -0.1418  1.4477  2.3187
  512MOL0     H70618   7.473   7.159   2.110  2.9663  0.9170 -1.0466
  512MOL0     H70619   7.217   7.153   2.051  0.5366  1.1309  4.8460
  512MOL0     H70620   7.057   7.517   1.805  0.6455 -1.0709 -1.3270
  512MOL0     H70621   6.920   7.414   1.854  0.4645 -3.2661  0.4212
  512MOL0     H70622   7.100   7.569   2.046 -0.3997  1.5619 -0.8607
  512MOL0     H70623   6.934   7.603   1.993 -1.8209 -1.8227  1.1925
  512MOL0     H70624   6.993   7.334   2.133  3.4513  0.1339 -1.0272
  512MOL0     H70625   6.846   7.425   2.114 -0.2169  2.6121  0.9919
  512MOL0     H70626   6.921   7.426   2.342  0.4330 -0.5304  1.1090
  512MOL0     H70627   6.919   7.593   2.288 -1.3697 -0.9608  2.6214
  512MOL0     H70628   7.183   7.553   2.269  1.6849 -1.7317 -0.3627
  512MOL0     H70629   7.108   7.548   2.437 -0.6677 -1.0831  0.4793
  512MOL0     H70630   7.190   7.319   2.252 -3.9627 -1.9957 -0.6400
  512MOL0     H70631   7.098   7.293   2.393 -0.8174 -0.3842  0.4570
  512MOL0     H70632   7.284   7.441   2.533  2.0553 -1.2541  0.8387
  512MOL0     H70633   7.378   7.424   2.391 -0.2876 -1.5746 -0.4559
  512MOL0     H70634   7.257   7.191   2.550  1.8908 -1.3653  0.9689
  512MOL0     H70635   7.420   7.245   2.556  0.6275 -0.3315 -0.2109
  512MOL0     H70636   7.276   7.484   1.788 -1.6843  0.7790  1.5743
  512MOL0     H70637   7.526   7.500   1.878  3.4741 -0.6747  2.9610
  512MOL0     H70638   7.820   7.485   2.076 -1.1271 -0.8199  1.8532
  512MOL0     H70639   8.060   7.539   2.080  2.9870  0.5612 -4.2262
  512MOL0     H70640   8.408   6.355   1.636 -0.2047  0.1531 -0.1375
  512MOL0     H70641   8.205   6.220   1.596 -1.7024 -3.8056  3.0242
  512MOL0     H70642   7.952   5.785   1.339 -2.2326 -1.0687 -0.9785
  512MOL0     H70643   7.727   5.702   1.399  0.3069 -2.3269 -0.5121
  512MOL0     H70644   7.622   5.518   1.823 -2.7403  0.8353 -0.8809
  512MOL0     H70645   7.697   5.683   1.845  1.0563 -2.8343  2.2630
  512MOL0     H70646   7.441   5.654   1.901  0.6420 -1.2163 -0.3903
  512MOL0     H70647   7.422   5.615   1.727  0.4876 -3.3433  1.7835
  512MOL0     H70648   7.537   5.870   1.829 -0.1069 -0.2669 -0.2619
  512MOL0     H70649   7.523   5.832   1.659  1.0653 -1.2720  0.0829
  512MOL0     H70650   7.276   5.847   1.670  0.3408 -0.4092  0.1246
  512MOL0     H70651   7.338   5.997   1.737 -0.2647  0.2648 -1.5863
  512MOL0     H70652   7.133   5.891   2.063  1.8493  1.2183  0.2766
  512MOL0     H70653   7.871   5.625   1.793 -3.1721 -0.2726 -0.3978
  512MOL0     H70654   8.117   5.652   1.839 -0.8043  0.9500  0.3733
  512MOL0     H70655   8.215   5.749   1.742 -0.0394  0.2486 -0.0405
  512MOL0     H70656   8.082   5.825   1.841 -1.9940 -1.4904  1.2063
  513MOL0     O70657   1.911   7.695   6.834  0.2644  1.0394 -0.5071
  513MOL0     C70658   1.837   7.607   6.880 -0.6569 -0.2912  0.5270
  513MOL0     O70659   1.817   7.491   6.812  0.3739  0.3090 -1.0667
  513MOL0     C70660   1.929   7.418   6.793 -1.0754  0.0697 -0.1534
  513MOL0     C70661   2.045   7.422   6.867 -1.0829  1.0365 -1.2333
  513MOL0     C70662   2.148   7.339   6.849  0.5014  0.0543 -0.0382
  513MOL0     C70663   2.145   7.253   6.736 -1.0733  0.2194 -0.2905
  513MOL0     O70664   2.233   7.148   6.724  0.1236 -0.6001  0.0341
  513MOL0     C70665   2.330   7.129   6.829 -0.5623 -0.7299  0.8052
  513MOL0     C70666   2.407   7.000   6.805 -0.0499  0.1329  0.4924
  513MOL0     C70667   2.552   7.021   6.802  0.9020 -0.4291  0.0098
  513MOL0     C70668   2.603   7.084   6.672  0.1102  0.4337  0.0163
  513MOL0     C70669   2.540   7.044   6.537  0.0970  0.2776 -0.5576
  513MOL0     C70670   2.632   7.085   6.424 -0.2631 -0.1784  0.5066
  513MOL0     C70671   2.759   7.002   6.415 -0.0957  0.4576 -0.3201
  513MOL0     C70672   2.838   7.032   6.293  0.3746 -0.1987  0.8734
  513MOL0     N70673   2.979   6.989   6.305  0.2099  0.0391 -0.2976
  513MOL0     C70674   3.037   6.906   6.214  1.1388 -0.7023 -0.1567
  513MOL0     C70675   3.166   6.908   6.245 -0.0587  0.4911 -0.3303
  513MOL0     C70676   3.282   6.836   6.182 -0.2501 -0.9964 -0.8280
  513MOL0     C70677   3.342   6.929   6.070 -0.1065  0.0299 -0.8681
  513MOL0     C70678   3.446   6.847   6.003 -0.0524 -0.3116 -0.0394
  513MOL0     C70679   3.583   6.863   6.060  0.4860  0.5895 -0.0987
  513MOL0     O70680   3.685   6.810   5.964  0.6747  0.5248  0.0466
  513MOL0     C70681   3.788   6.739   6.024  0.4007  0.0252 -0.7071
  513MOL0     C70682   3.774   6.599   6.049  0.2137  1.0139  0.3322
  513MOL0     C70683   3.871   6.525   6.117  0.7990 -0.4410  0.0797
  513MOL0     C70684   3.858   6.379   6.128 -0.0004  0.0199  0.1271
  513MOL0     C70685   3.990   6.592   6.152 -0.5975  0.0064  0.6882
  513MOL0     C70686   4.114   6.526   6.212  0.6568 -0.4673 -1.0471
  513MOL0     O70687   4.209   6.624   6.241 -0.6243 -0.1453  0.4483
  513MOL0     C70688   4.338   6.590   6.285 -0.3935 -0.5615  0.0626
  513MOL0     C70689   4.431   6.519   6.204 -1.0301 -0.7861 -0.0120
  513MOL0     C70690   4.567   6.511   6.244  0.5308  0.7838  0.8044
  513MOL0     C70691   4.602   6.571   6.366 -1.2870  0.3706 -0.9102
  513MOL0     O70692   4.731   6.547   6.415 -0.1937  0.2207 -0.5892
  513MOL0     C70693   4.830   6.653   6.376  0.7522 -0.6980 -0.2557
  513MOL0     C70694   4.862   6.678   6.222  0.1700 -0.1780 -0.0987
  513MOL0     C70695   4.957   6.573   6.167 -0.3875  0.8348 -0.0291
  513MOL0     C70696   5.094   6.548   6.234  0.5078 -0.3061  0.3349
  513MOL0     C70697   5.174   6.457   6.143 -0.9162  0.3700 -0.1432
  513MOL0     C70698   5.326   6.453   6.188  0.4118  0.1238  0.2676
  513MOL0     C70699   5.356   6.410   6.328  1.0823 -0.3017  0.0657
  513MOL0     C70700   5.495   6.440   6.373 -0.8254  0.8279  0.4994
  513MOL0    Cl70701   5.502   6.610   6.424 -0.3629  0.1275  0.0858
  513MOL0     C70702   4.513   6.633   6.453 -0.4161 -0.0799 -0.4085
  513MOL0     C70703   4.380   6.641   6.409  0.5989  0.2522  0.1256
  513MOL0     O70704   4.127   6.407   6.223 -0.0492 -0.3204 -0.8784
  513MOL0     C70705   4.002   6.731   6.132  0.4229  0.5054  0.5689
  513MOL0     C70706   3.892   6.803   6.074 -0.7676  0.4524 -0.4418
  513MOL0     N70707   3.191   6.984   6.356 -0.3707  0.0763  0.5745
  513MOL0     N70708   3.074   7.022   6.396 -0.2280 -0.0901 -0.2141
  513MOL0     C70709   2.037   7.256   6.647 -0.5002  0.6470 -0.2696
  513MOL0     C70710   1.926   7.333   6.680 -0.4165 -1.2888 -0.5585
  513MOL0     C70711   1.748   7.641   7.000 -0.8093 -0.1293  0.0288
  513MOL0     C70712   1.650   7.549   7.021 -0.1204  0.3415  0.0431
  513MOL0     C70713   1.554   7.574   7.115  0.4058  0.4290  0.7273
  513MOL0     C70714   1.555   7.687   7.199 -0.0792 -0.6628  0.8684
  513MOL0     O70715   1.454   7.708   7.289 -0.2064  0.2141  1.4340
  513MOL0     C70716   1.448   7.843   7.330  0.3368 -0.6593  0.6503
  513MOL0     C70717   1.326   7.860   7.411  0.0344 -0.0216 -0.0878
  513MOL0     C70718   1.268   7.999   7.417  0.4173 -0.0762  0.1359
  513MOL0     C70719   1.175   8.014   7.530  0.4986  0.3779 -0.0685
  513MOL0     C70720   1.241   8.031   7.657  0.7395 -0.1162 -0.1567
  513MOL0     C70721   1.308   8.068   7.759  0.2566 -0.9325  0.7888
  513MOL0     C70722   1.671   7.772   7.180 -0.4296  0.1638 -0.1426
  513MOL0     C70723   1.775   7.749   7.090  0.1736  0.7811  0.2768
  513MOL0     C70724   1.895   7.840   7.088  0.6890  0.1582 -0.3462
  513MOL0     H70725   2.047   7.474   6.962  2.1596 -1.1509  0.0835
  513MOL0     H70726   2.225   7.348   6.925  1.1736 -0.0286 -0.6923
  513MOL0     H70727   2.268   7.122   6.919 -1.0841  3.7570  1.0222
  513MOL0     H70728   2.402   7.210   6.837 -0.4750 -0.3932 -2.2070
  513MOL0     H70729   2.376   6.923   6.877  0.7660  0.0955  0.8179
  513MOL0     H70730   2.382   6.958   6.708  1.4167 -4.6384  1.8756
  513MOL0     H70731   2.575   7.093   6.882 -1.9580  3.5344 -2.3412
  513MOL0     H70732   2.603   6.927   6.825 -2.1867 -2.3072 -0.3425
  513MOL0     H70733   2.583   7.191   6.686 -1.4514  0.2534 -0.6035
  513MOL0     H70734   2.711   7.069   6.680 -0.2255 -1.3049  2.1474
  513MOL0     H70735   2.446   7.100   6.531 -0.7933 -1.2031 -1.0580
  513MOL0     H70736   2.527   6.938   6.515  2.3034  0.5085 -3.6633
  513MOL0     H70737   2.583   7.057   6.330 -0.0122  1.5333 -0.1827
  513MOL0     H70738   2.652   7.193   6.424 -0.6252 -0.0826 -0.9315
  513MOL0     H70739   2.738   6.895   6.420  3.5374 -0.3759  0.2151
  513MOL0     H70740   2.824   7.019   6.501  1.7725 -1.5670 -1.2092
  513MOL0     H70741   2.789   6.990   6.204  1.6154  1.3353 -0.5834
  513MOL0     H70742   2.822   7.137   6.268 -1.3546 -1.0724 -2.4085
  513MOL0     H70743   2.972   6.849   6.148 -1.3223 -3.2903  3.9753
  513MOL0     H70744   3.245   6.740   6.146 -2.0058 -1.7096  2.4192
  513MOL0     H70745   3.366   6.825   6.252 -0.6232  1.1288  0.0330
  513MOL0     H70746   3.262   6.942   5.995  1.3634 -1.5417 -2.8231
  513MOL0     H70747   3.375   7.026   6.109 -1.2169  0.6334 -1.3652
  513MOL0     H70748   3.409   6.744   5.998  2.2368 -1.1776 -0.6178
  513MOL0     H70749   3.462   6.869   5.897  1.3650 -0.2223  0.1763
  513MOL0     H70750   3.593   6.971   6.056  0.9847  0.4947 -2.3662
  513MOL0     H70751   3.592   6.812   6.157 -1.0261 -2.1428 -1.2682
  513MOL0     H70752   3.686   6.552   6.006 -0.0464  0.6902  1.2057
  513MOL0     H70753   3.753   6.356   6.114  0.1423  0.5397 -2.3386
  513MOL0     H70754   3.884   6.337   6.225  1.0580 -3.7951 -1.5993
  513MOL0     H70755   3.912   6.327   6.048 -0.3410 -2.3764  1.3782
  513MOL0     H70756   4.414   6.478   6.105  0.8334 -1.0448 -0.2557
  513MOL0     H70757   4.638   6.463   6.178 -0.9065 -0.9004  0.4033
  513MOL0     H70758   4.792   6.743   6.425  1.9709 -1.6095  2.5158
  513MOL0     H70759   4.921   6.638   6.434  0.8100  3.6027  1.1502
  513MOL0     H70760   4.777   6.680   6.154  1.0731 -3.1782 -1.4770
  513MOL0     H70761   4.917   6.773   6.217  0.1902  0.1101  3.2758
  513MOL0     H70762   4.973   6.585   6.060 -1.5465 -0.0804 -0.3303
  513MOL0     H70763   4.916   6.472   6.183 -2.2741  1.4156 -0.9786
  513MOL0     H70764   5.076   6.502   6.332  0.5786 -0.3410  0.3318
  513MOL0     H70765   5.151   6.641   6.235 -0.2417  0.2606 -2.1852
  513MOL0     H70766   5.135   6.355   6.133 -1.9838  0.7612 -0.0872
  513MOL0     H70767   5.168   6.506   6.045  0.1734  1.4698  0.3057
  513MOL0     H70768   5.372   6.552   6.186  0.6515  0.0108  0.1832
  513MOL0     H70769   5.379   6.390   6.116  0.4458  1.1976 -0.6724
  513MOL0     H70770   5.328   6.306   6.349  0.5697 -0.5283 -1.6019
  513MOL0     H70771   5.295   6.476   6.391  2.1210  2.0092 -1.2188
  513MOL0     H70772   5.568   6.416   6.295 -2.1820  1.2846 -0.9484
  513MOL0     H70773   5.517   6.381   6.462 -1.4927 -0.2735 -0.0424
  513MOL0     H70774   4.545   6.669   6.550 -3.3215  1.4175  0.1194
  513MOL0     H70775   4.319   6.701   6.477 -0.0364  1.0668 -1.1323
  513MOL0     H70776   4.089   6.792   6.152 -0.0501  1.4023 -0.0248
  513MOL0     H70777   3.892   6.909   6.050 -1.0276  0.4724 -0.3583
  513MOL0     H70778   2.055   7.194   6.560  0.3540  1.5921 -0.7898
  513MOL0     H70779   1.841   7.342   6.613 -0.2977 -0.4744 -0.6080
  513MOL0     H70780   1.645   7.452   6.973 -0.4627 -0.1619  1.0885
  513MOL0     H70781   1.489   7.492   7.144  2.5343 -1.4365  0.4591
  513MOL0     H70782   1.528   7.871   7.399 -0.8772 -4.2039  3.9055
  513MOL0     H70783   1.440   7.913   7.247 -0.6206  1.8123  2.6929
  513MOL0     H70784   1.339   7.821   7.513  0.6993  3.9648  1.5223
  513MOL0     H70785   1.254   7.789   7.369 -1.3673 -0.0483  2.1991
  513MOL0     H70786   1.355   8.064   7.431  2.5900 -2.9539  1.0239
  513MOL0     H70787   1.215   8.030   7.326 -1.7212  0.9276  1.6548
  513MOL0     H70788   1.133   7.913   7.536  1.6440 -0.1077 -0.0274
  513MOL0     H70789   1.099   8.092   7.517 -0.5280 -0.5989 -0.1355
  513MOL0     H70790   1.343   8.107   7.852 -0.6600 -3.3050  2.2044
  513MOL0     H70791   1.677   7.847   7.259 -0.4558 -1.7791  1.8040
  513MOL0     H70792   1.904   7.903   7.000  1.2378 -1.7179 -1.6999
  513MOL0     H70793   1.902   7.899   7.180  1.3673 -1.9590  1.0529
  513MOL0     H70794   1.990   7.786   7.091  3.2105  4.0584 -2.5454
  514MOL0     O70795  10.450   6.132   4.843 -0.2395  0.2520  0.1782
  514MOL0     C70796  10.471   6.254   4.860  1.1020 -0.2263 -0.7553
  514MOL0     O70797  10.493   6.319   4.980 -0.2152 -0.5827 -0.2860
  514MOL0     C70798  10.493   6.262   5.100  0.1977  1.1939 -0.7510
  514MOL0     C70799  10.462   6.129   5.139 -0.2402 -0.7350  0.6672
  514MOL0     C70800  10.497   6.074   5.265  0.2043 -0.0953 -0.2053
  514MOL0     C70801  10.550   6.153   5.364  0.0590 -0.1459 -0.7812
  514MOL0     O70802  10.591   6.089   5.480 -0.1591 -1.0291 -0.1524
  514MOL0     C70803  10.628   6.168   5.590  0.3723  0.8912 -0.7877
  514MOL0     C70804  10.658   6.075   5.715 -0.0111 -0.0725  0.1984
  514MOL0     C70805  10.527   6.006   5.775 -0.7790 -0.2788 -0.1541
  514MOL0     C70806  10.554   5.864   5.832 -0.5917 -0.6313  0.3453
  514MOL0     C70807  10.429   5.765   5.813  0.3610 -0.8117  0.1397
  514MOL0     C70808  10.459   5.617   5.845  0.3917  0.1146  0.2311
  514MOL0     C70809  10.493   5.597   5.988 -0.0900  0.7937 -0.1859
  514MOL0     C70810  10.522   5.451   6.033  0.0585 -0.5668  0.3906
  514MOL0     N70811  10.640   5.398   5.972 -0.1084  0.4028 -0.8515
  514MOL0     C70812  10.769   5.402   6.027  0.3380 -0.3423 -0.6078
  514MOL0     C70813  10.844   5.319   5.953  0.7654 -0.1426 -0.3092
  514MOL0     C70814  10.992   5.292   5.962  0.6406  0.4905  1.1276
  514MOL0     C70815  11.018   5.210   6.086 -0.2804  1.1488  0.0812
  514MOL0     C70816  11.172   5.188   6.101  0.3853  0.2529  0.1265
  514MOL0     C70817  11.205   5.092   6.215  0.6337  0.0333  0.3634
  514MOL0     O70818  11.199   5.161   6.342 -0.0514  0.5903  0.8319
  514MOL0     C70819  11.217   5.088   6.459 -0.1106  0.2637  0.5587
  514MOL0     C70820  11.203   5.161   6.586  0.8006  0.5979  0.0520
  514MOL0     C70821  11.206   5.102   6.705  0.2176  0.1403 -0.0934
  514MOL0     C70822  11.174   5.189   6.824  0.2023  0.6546  0.0685
  514MOL0     C70823  11.248   4.963   6.714  0.4665 -0.8370  0.9848
  514MOL0     C70824  11.269   4.888   6.842 -0.4350 -0.5407 -0.4729
  514MOL0     O70825  11.224   4.948   6.962  0.0014  0.0805 -0.4360
  514MOL0     C70826  11.260   4.901   7.082  0.0847 -0.4867  0.1964
  514MOL0     C70827  11.370   4.949   7.133  0.4609 -0.2978 -0.5442
  514MOL0     C70828  11.421   4.906   7.264 -0.0498 -0.4251  0.4952
  514MOL0     C70829  11.355   4.809   7.332  0.4322 -0.8909 -0.3908
  514MOL0     O70830  11.392   4.763   7.457  1.2876 -0.0204 -0.5597
  514MOL0     C70831  11.511   4.816   7.524 -0.5499 -0.4325 -0.7914
  514MOL0     C70832  11.637   4.743   7.466  0.1731  0.8333 -0.3804
  514MOL0     C70833  11.753   4.740   7.549 -0.4388 -0.5017 -1.2129
  514MOL0     C70834  11.871   4.680   7.489 -1.4216  0.7247  0.2553
  514MOL0     C70835  11.865   4.535   7.450  0.5028 -0.2982  0.1582
  514MOL0     C70836  12.001   4.495   7.385  0.2395  0.6022  0.5993
  514MOL0     C70837  11.994   4.346   7.340 -0.4886 -0.2711 -0.4834
  514MOL0     C70838  11.933   4.289   7.214  0.1292 -0.6453  0.4811
  514MOL0    Cl70839  11.993   4.335   7.055 -0.2047  0.1205  0.2224
  514MOL0     C70840  11.252   4.744   7.271  0.9131 -0.0197  0.4693
  514MOL0     C70841  11.202   4.796   7.150  0.5910 -0.6451  0.7035
  514MOL0     O70842  11.317   4.775   6.830  0.3767  0.3134 -0.0471
  514MOL0     C70843  11.259   4.891   6.592  1.0377 -0.6883  0.1033
  514MOL0     C70844  11.244   4.951   6.464  0.3808  0.5147  0.4012
  514MOL0     N70845  10.764   5.266   5.857  0.4932 -0.3496  0.0501
  514MOL0     N70846  10.644   5.319   5.876  0.3045  0.0160  0.4121
  514MOL0     C70847  10.570   6.287   5.329 -1.3923 -0.5863  0.1014
  514MOL0     C70848  10.549   6.341   5.204 -0.0134 -0.1790 -0.8939
  514MOL0     C70849  10.455   6.349   4.743 -0.4417  0.1360  0.0766
  514MOL0     C70850  10.433   6.482   4.762 -0.2253  0.6334  0.4890
  514MOL0     C70851  10.421   6.567   4.649  0.9846  0.3017  1.0559
  514MOL0     C70852  10.421   6.519   4.516  0.2665  0.3818  0.1137
  514MOL0     O70853  10.394   6.598   4.410  0.0526  0.2199  0.4078
  514MOL0     C70854  10.316   6.542   4.301  0.1844  0.5971 -0.0121
  514MOL0     C70855  10.274   6.636   4.188  0.2098 -0.5411 -0.0216
  514MOL0     C70856  10.169   6.561   4.103 -0.4779  0.5318  0.7377
  514MOL0     C70857  10.128   6.633   3.970  0.3277 -0.5326 -0.2739
  514MOL0     C70858  10.241   6.684   3.896  0.1940 -1.1865 -0.3868
  514MOL0     C70859  10.330   6.742   3.825 -0.1866  0.1587 -0.8065
  514MOL0     C70860  10.438   6.381   4.504 -0.0343  0.4244 -0.2668
  514MOL0     C70861  10.448   6.297   4.611 -0.0552 -0.6412  1.1774
  514MOL0     C70862  10.466   6.149   4.568  0.1177  0.2716  0.6707
  514MOL0     H70863  10.433   6.054   5.066 -0.2589  2.1838 -2.6017
  514MOL0     H70864  10.462   5.972   5.277 -2.1728  0.6516 -0.2791
  514MOL0     H70865  10.550   6.239   5.621 -1.2553 -0.4274 -1.7174
  514MOL0     H70866  10.718   6.215   5.550  0.8048  0.0236 -0.8434
  514MOL0     H70867  10.734   6.002   5.685  0.0686  0.4303 -0.8997
  514MOL0     H70868  10.710   6.136   5.789  1.2791 -0.4588 -0.3745
  514MOL0     H70869  10.492   6.066   5.860 -0.0509 -0.1107  0.0285
  514MOL0     H70870  10.446   6.009   5.701 -1.4076  0.7148  0.5367
  514MOL0     H70871  10.644   5.821   5.786  0.7632  0.4366  1.8794
  514MOL0     H70872  10.569   5.868   5.940  1.3906 -0.5143  0.1009
  514MOL0     H70873  10.399   5.764   5.707 -0.4000 -2.8454  0.3317
  514MOL0     H70874  10.344   5.800   5.871  0.0532  2.1629 -1.8751
  514MOL0     H70875  10.369   5.559   5.821 -0.4169  1.2178  0.5110
  514MOL0     H70876  10.534   5.581   5.773 -0.2221 -1.1715  0.2030
  514MOL0     H70877  10.409   5.628   6.051 -2.2701 -1.7753 -1.6003
  514MOL0     H70878  10.576   5.663   6.017 -0.0583  0.1406  1.3153
  514MOL0     H70879  10.539   5.466   6.140 -0.4229  0.7443  0.3053
  514MOL0     H70880  10.436   5.387   6.011  0.4802 -0.8175 -0.5979
  514MOL0     H70881  10.805   5.451   6.117 -0.8250 -2.6191  1.2214
  514MOL0     H70882  11.049   5.385   5.975  1.0641  0.5430 -0.7840
  514MOL0     H70883  11.026   5.238   5.873  1.6632  1.7692  0.7013
  514MOL0     H70884  10.992   5.264   6.178 -1.4804 -1.1858  1.2067
  514MOL0     H70885  10.974   5.110   6.088  2.0353  0.0874  0.0789
  514MOL0     H70886  11.215   5.148   6.009  0.1048 -0.3737  0.2602
  514MOL0     H70887  11.221   5.285   6.117  0.4553  0.5086 -1.5091
  514MOL0     H70888  11.142   5.003   6.209 -0.2824  0.7487 -1.1291
  514MOL0     H70889  11.309   5.060   6.203  0.0279 -2.5377  1.2533
  514MOL0     H70890  11.170   5.264   6.590  0.8637  0.5878  0.8395
  514MOL0     H70891  11.070   5.172   6.853  0.4724 -0.9173  0.1983
  514MOL0     H70892  11.192   5.296   6.808  2.9518  0.7381  2.7740
  514MOL0     H70893  11.238   5.162   6.908 -0.4716 -1.2492  0.0164
  514MOL0     H70894  11.434   5.020   7.081 -2.5385  3.1151  0.0087
  514MOL0     H70895  11.513   4.952   7.298  0.2937 -0.5963 -0.1886
  514MOL0     H70896  11.520   4.925   7.517  0.5523 -0.4529  0.0036
  514MOL0     H70897  11.501   4.794   7.631 -2.3402 -2.5257 -1.3227
  514MOL0     H70898  11.602   4.640   7.458 -1.4981  1.3077  0.3449
  514MOL0     H70899  11.661   4.787   7.369 -1.4369  0.8795 -0.7729
  514MOL0     H70900  11.721   4.691   7.642  0.5628 -0.4441 -0.8253
  514MOL0     H70901  11.773   4.846   7.567  0.6362 -0.4843 -2.4158
  514MOL0     H70902  11.958   4.687   7.554 -0.7507 -0.1334 -0.5050
  514MOL0     H70903  11.898   4.744   7.405 -1.9795 -3.8490 -3.8917
  514MOL0     H70904  11.837   4.464   7.529  0.6836  1.7329  2.1537
  514MOL0     H70905  11.798   4.539   7.363  0.4152  2.4025  0.2701
  514MOL0     H70906  12.087   4.517   7.450  0.9883 -0.9621  0.1795
  514MOL0     H70907  12.017   4.555   7.295 -2.2956 -0.3050 -0.5443
  514MOL0     H70908  11.965   4.278   7.420 -2.1091  0.1817 -0.6488
  514MOL0     H70909  12.100   4.339   7.315 -0.4303  2.2811 -1.2063
  514MOL0     H70910  11.824   4.300   7.211 -0.0707 -2.5038 -0.9194
  514MOL0     H70911  11.941   4.181   7.226 -2.3872 -0.8802  0.6708
  514MOL0     H70912  11.214   4.653   7.316 -3.2316  1.7628  1.0594
  514MOL0     H70913  11.111   4.766   7.099  0.0115  2.1921 -0.1158
  514MOL0     H70914  11.267   4.783   6.594 -0.0396 -0.7659  2.2264
  514MOL0     H70915  11.261   4.901   6.369  1.1721 -1.2728  1.4445
  514MOL0     H70916  10.620   6.351   5.402  1.9984 -0.3381 -2.2373
  514MOL0     H70917  10.578   6.442   5.178  2.5158 -1.1456 -2.1900
  514MOL0     H70918  10.425   6.527   4.860  1.8149  1.2095  0.4258
  514MOL0     H70919  10.406   6.674   4.658  0.7264  0.1530  2.6843
  514MOL0     H70920  10.370   6.462   4.249 -0.7245  0.5132 -0.8467
  514MOL0     H70921  10.222   6.500   4.339  0.8299 -0.5493  0.3793
  514MOL0     H70922  10.365   6.656   4.131 -0.1577  1.3642 -0.0224
  514MOL0     H70923  10.239   6.735   4.221  1.5493  0.7304 -2.1779
  514MOL0     H70924  10.222   6.474   4.062 -2.3083 -0.4587  0.3548
  514MOL0     H70925  10.086   6.522   4.163 -2.0655 -0.5882 -2.0176
  514MOL0     H70926  10.067   6.717   4.004  2.2083  1.2490 -1.0636
  514MOL0     H70927  10.071   6.575   3.896  2.3365 -0.5475 -1.9307
  514MOL0     H70928  10.370   6.791   3.739 -1.2907  1.8909 -0.3938
  514MOL0     H70929  10.442   6.337   4.405  0.0351  0.2059 -0.1659
  514MOL0     H70930  10.408   6.085   4.636  3.4417  0.3162  3.8678
  514MOL0     H70931  10.435   6.121   4.467 -1.7136 -2.1251  1.7783
  514MOL0     H70932  10.570   6.121   4.587  0.0672 -0.0090  0.5351
  515MOL0     O70933   5.620   2.861   5.322 -0.1493  0.7911  0.6351
  515MOL0     C70934   5.619   2.982   5.323  0.9117  0.0350 -0.2184
  515MOL0     O70935   5.664   3.055   5.425 -0.3037 -0.1404 -0.5066
  515MOL0     C70936   5.743   3.000   5.529 -0.0475 -0.7770 -0.2178
  515MOL0     C70937   5.704   2.928   5.639  0.9147 -0.5125 -0.1055
  515MOL0     C70938   5.800   2.894   5.738  0.1146  0.4100  0.7953
  515MOL0     C70939   5.933   2.931   5.725 -0.8575  0.5679  1.0258
  515MOL0     O70940   6.031   2.907   5.814  0.1263  0.4122 -0.7234
  515MOL0     C70941   6.017   2.965   5.950 -0.0400  0.3519  0.1376
  515MOL0     C70942   5.954   2.858   6.037  0.4058  0.1200  0.5529
  515MOL0     C70943   6.002   2.869   6.180  0.3624 -0.6715  0.1541
  515MOL0     C70944   5.926   2.979   6.269 -0.6825 -0.1072  0.8526
  515MOL0     C70945   5.978   3.006   6.408 -0.1080 -0.4763  0.1834
  515MOL0     C70946   5.970   2.874   6.481  0.1933  0.3892 -0.6778
  515MOL0     C70947   6.010   2.905   6.619  0.0357 -0.5409 -0.2992
  515MOL0     C70948   6.016   2.775   6.706 -0.7164  0.2565  0.0008
  515MOL0     N70949   6.147   2.703   6.688  0.4899  0.5723 -0.6403
  515MOL0     C70950   6.170   2.600   6.598  0.0042  0.2557 -0.0655
  515MOL0     C70951   6.290   2.548   6.620 -0.6133  0.3750  0.2005
  515MOL0     C70952   6.345   2.421   6.565 -0.3002 -0.3214 -0.1728
  515MOL0     C70953   6.458   2.445   6.451  0.4529 -0.4045  0.2618
  515MOL0     C70954   6.405   2.500   6.326  0.6461  0.0540 -0.0560
  515MOL0     C70955   6.504   2.558   6.226 -0.7232  0.0280 -0.6425
  515MOL0     O70956   6.608   2.637   6.284  0.1560  0.0003  0.0015
  515MOL0     C70957   6.702   2.698   6.201  0.1627  0.7329  0.5965
  515MOL0     C70958   6.828   2.754   6.261  0.9535  0.7953 -0.2332
  515MOL0     C70959   6.936   2.793   6.175  0.7166  0.5179 -0.3797
  515MOL0     C70960   7.060   2.820   6.255  0.0986  0.0845  0.6759
  515MOL0     C70961   6.916   2.808   6.038  0.1641  0.1873 -1.0886
  515MOL0     C70962   7.016   2.879   5.949 -0.1349 -0.2594  0.2171
  515MOL0     O70963   7.002   2.842   5.817 -0.4634  0.3166 -0.0690
  515MOL0     C70964   7.109   2.874   5.737  0.9220  0.1911 -0.6049
  515MOL0     C70965   7.096   2.983   5.651 -0.4201 -0.3617  0.7762
  515MOL0     C70966   7.202   3.018   5.563  0.1917  0.6048  0.6954
  515MOL0     C70967   7.321   2.946   5.558  0.9894 -0.0868  0.0094
  515MOL0     O70968   7.427   2.970   5.476 -1.1369  0.2459 -0.1466
  515MOL0     C70969   7.416   3.053   5.368 -0.4711  0.6673  0.2767
  515MOL0     C70970   7.550   3.069   5.297 -0.0081 -0.3155 -0.1353
  515MOL0     C70971   7.662   3.137   5.373 -0.5402 -0.5179 -1.3479
  515MOL0     C70972   7.679   3.283   5.342  0.0206  0.0254 -0.1811
  515MOL0     C70973   7.813   3.314   5.272  0.1022  0.3449 -0.3668
  515MOL0     C70974   7.824   3.243   5.140 -0.2908 -1.1140  0.3064
  515MOL0     C70975   7.724   3.267   5.027 -0.3467  0.7230  0.0589
  515MOL0     C70976   7.793   3.279   4.892 -0.5032  0.2747  0.1535
  515MOL0    Cl70977   7.859   3.118   4.847  0.3537  0.1568  0.1473
  515MOL0     C70978   7.332   2.822   5.636 -0.7213 -1.1570 -0.0736
  515MOL0     C70979   7.228   2.792   5.720  0.8920 -0.2880 -1.0775
  515MOL0     O70980   7.102   2.963   5.990  0.4499  0.3433  0.0596
  515MOL0     C70981   6.797   2.759   5.988  0.3050 -0.3320 -0.2376
  515MOL0     C70982   6.695   2.699   6.060  0.2212  0.0618 -0.1052
  515MOL0     N70983   6.342   2.619   6.722  0.3330 -0.0657 -0.1177
  515MOL0     N70984   6.256   2.714   6.758 -0.4850  0.7665 -0.9353
  515MOL0     C70985   5.978   3.005   5.610  0.4834  0.6583 -0.5352
  515MOL0     C70986   5.884   3.036   5.522  0.6591 -0.7383 -0.8549
  515MOL0     C70987   5.571   3.055   5.193 -0.3687  0.3779 -0.6633
  515MOL0     C70988   5.546   3.192   5.194 -0.1727  0.5571  0.0055
  515MOL0     C70989   5.509   3.254   5.078  0.4357  0.3387 -0.5179
  515MOL0     C70990   5.488   3.188   4.955  0.2279  0.2343 -0.9045
  515MOL0     O70991   5.466   3.242   4.830 -0.6826  0.8659 -0.1848
  515MOL0     C70992   5.458   3.379   4.825 -0.3862 -0.2218  0.3801
  515MOL0     C70993   5.590   3.457   4.835  0.7717 -0.1303  0.2362
  515MOL0     C70994   5.695   3.420   4.726 -0.4365  0.8653  0.1589
  515MOL0     C70995   5.814   3.517   4.762 -0.1340 -0.4110 -0.9234
  515MOL0     C70996   5.898   3.551   4.658 -0.4445  0.7864 -0.3389
  515MOL0     C70997   5.979   3.569   4.560 -0.1189  0.0209  0.1029
  515MOL0     C70998   5.518   3.054   4.960  0.2643  0.4398  0.0151
  515MOL0     C70999   5.567   2.988   5.064 -0.2525  0.2845 -0.5575
  515MOL0     C71000   5.598   2.845   5.033 -0.0996 -0.0162  0.5860
  515MOL0     H71001   5.602   2.894   5.657  1.3960 -1.7481  0.4797
  515MOL0     H71002   5.766   2.847   5.830 -0.0806  1.3854  1.2411
  515MOL0     H71003   5.967   3.060   5.971 -0.1771  0.3011  0.0442
  515MOL0     H71004   6.117   2.978   5.991  0.3099 -0.9582 -0.2277
  515MOL0     H71005   5.845   2.855   6.029  0.3211 -2.5876  1.6901
  515MOL0     H71006   5.992   2.760   6.008  1.4005  0.1886  1.5783
  515MOL0     H71007   5.985   2.767   6.217 -0.5553 -0.3124  0.7457
  515MOL0     H71008   6.109   2.893   6.181  0.7373 -2.2209  1.7313
  515MOL0     H71009   5.921   3.073   6.213 -1.0285 -0.9451 -0.5815
  515MOL0     H71010   5.820   2.951   6.275 -0.6942 -0.5222 -0.7642
  515MOL0     H71011   5.920   3.087   6.453  0.0875  1.6398 -3.0729
  515MOL0     H71012   6.082   3.036   6.399  0.0588 -1.2116 -0.4514
  515MOL0     H71013   5.866   2.839   6.473  0.4279 -0.1535 -1.4680
  515MOL0     H71014   6.034   2.796   6.441 -0.8861 -0.0231 -1.6657
  515MOL0     H71015   5.935   2.973   6.661 -2.8979 -1.8899 -2.9074
  515MOL0     H71016   6.107   2.954   6.615 -0.7147  0.9260 -3.1530
  515MOL0     H71017   6.028   2.831   6.799  3.4450  2.8894 -1.8107
  515MOL0     H71018   5.923   2.724   6.683 -0.7293 -0.7126  1.9501
  515MOL0     H71019   6.093   2.570   6.527  0.7353  0.1775 -0.8385
  515MOL0     H71020   6.265   2.357   6.529 -1.0918  1.1439 -1.1499
  515MOL0     H71021   6.387   2.361   6.646 -1.0723 -0.3397  0.2200
  515MOL0     H71022   6.535   2.516   6.484  0.1092 -1.1758  2.9261
  515MOL0     H71023   6.499   2.345   6.435 -0.8414 -0.9344  0.1083
  515MOL0     H71024   6.335   2.424   6.290 -1.8672  1.2798  1.9271
  515MOL0     H71025   6.345   2.589   6.348  0.7289 -0.3320  1.8995
  515MOL0     H71026   6.554   2.470   6.184 -1.5943  0.9256 -3.7952
  515MOL0     H71027   6.460   2.615   6.144  0.5834  0.7541 -0.8618
  515MOL0     H71028   6.826   2.748   6.369 -0.9824  0.6355 -0.2313
  515MOL0     H71029   7.053   2.794   6.361  0.1500 -0.0723  0.6409
  515MOL0     H71030   7.083   2.927   6.256 -0.7730  0.3808 -2.0657
  515MOL0     H71031   7.143   2.762   6.214 -2.5108 -3.3304 -0.2714
  515MOL0     H71032   7.008   3.045   5.636 -0.0609 -0.1673 -0.6737
  515MOL0     H71033   7.186   3.104   5.498  3.8464  0.6183 -0.4584
  515MOL0     H71034   7.349   3.004   5.297  1.1766 -3.5328  1.3250
  515MOL0     H71035   7.382   3.148   5.410 -1.4428 -0.7186  2.8287
  515MOL0     H71036   7.593   2.973   5.266  2.9045  1.0049 -0.4552
  515MOL0     H71037   7.534   3.121   5.202  2.3770  1.5690  0.4085
  515MOL0     H71038   7.754   3.083   5.348  2.9527  4.8122 -1.6695
  515MOL0     H71039   7.646   3.112   5.479  4.5013 -0.1330 -0.2467
  515MOL0     H71040   7.670   3.344   5.432 -1.1830  2.5088 -1.8376
  515MOL0     H71041   7.590   3.310   5.283 -1.0940 -1.0108  0.9568
  515MOL0     H71042   7.833   3.422   5.266  3.0607 -0.1469 -0.9392
  515MOL0     H71043   7.889   3.277   5.342  1.5898 -0.0108 -2.0893
  515MOL0     H71044   7.845   3.137   5.154  1.5881 -0.7832  0.2856
  515MOL0     H71045   7.923   3.274   5.104 -1.1737  1.0520 -0.4705
  515MOL0     H71046   7.675   3.363   5.046 -1.3507  0.9954 -3.2476
  515MOL0     H71047   7.646   3.191   5.020  0.8951 -0.5632 -0.2764
  515MOL0     H71048   7.889   3.332   4.894  0.8547 -1.9093 -1.8556
  515MOL0     H71049   7.740   3.343   4.821  0.3636  1.7416  0.7671
  515MOL0     H71050   7.411   2.751   5.613  1.7164  1.1988  0.4986
  515MOL0     H71051   7.241   2.707   5.786 -0.0936 -1.1444 -1.9641
  515MOL0     H71052   6.768   2.786   5.887  1.2217  0.4455 -0.3058
  515MOL0     H71053   6.606   2.662   6.011 -1.0077  1.9197  0.6143
  515MOL0     H71054   6.079   3.042   5.610  1.8723 -2.7776  0.3378
  515MOL0     H71055   5.916   3.102   5.442  1.1375  0.9114  0.6358
  515MOL0     H71056   5.556   3.256   5.281 -0.1067  0.6392 -0.0614
  515MOL0     H71057   5.499   3.362   5.076  3.7559  0.7832 -0.2235
  515MOL0     H71058   5.424   3.418   4.728  2.0106  1.6345  0.1852
  515MOL0     H71059   5.385   3.415   4.897 -0.2772  0.4962  0.1407
  515MOL0     H71060   5.631   3.452   4.937 -1.0340  0.0650  1.0082
  515MOL0     H71061   5.564   3.562   4.822  3.8758  0.5437 -1.5479
  515MOL0     H71062   5.727   3.315   4.722 -3.0228  0.0465 -0.8974
  515MOL0     H71063   5.652   3.428   4.626 -0.6022 -2.3512 -0.1426
  515MOL0     H71064   5.862   3.475   4.850 -2.2134  0.8514  0.9159
  515MOL0     H71065   5.781   3.618   4.790  1.4189  0.4358 -2.0164
  515MOL0     H71066   6.041   3.586   4.475  0.0497  0.4060  0.2977
  515MOL0     H71067   5.508   3.009   4.861 -3.1076 -1.6304  1.1201
  515MOL0     H71068   5.678   2.814   5.101 -0.8500 -3.4141  0.0784
  515MOL0     H71069   5.505   2.794   5.062  0.1810 -0.7974  0.1397
  515MOL0     H71070   5.632   2.813   4.934  0.4542 -1.6210  1.2529
  516MOL0     O71071   3.291   1.958   4.449 -0.2106  0.8176 -0.0571
  516MOL0     C71072   3.320   1.959   4.570  0.0184  0.4454  0.8611
  516MOL0     O71073   3.373   2.067   4.642  0.7996  0.6406  0.5362
  516MOL0     C71074   3.395   2.193   4.588 -0.0594 -0.5317 -0.6884
  516MOL0     C71075   3.327   2.250   4.474 -0.3351 -0.1897  0.0374
  516MOL0     C71076   3.358   2.373   4.412  0.4434 -0.2357 -0.0189
  516MOL0     C71077   3.461   2.454   4.468 -0.0857  0.5567 -0.0332
  516MOL0     O71078   3.507   2.566   4.404  0.3146 -0.5825 -0.2099
  516MOL0     C71079   3.438   2.652   4.314  0.0223 -0.7559  0.1296
  516MOL0     C71080   3.352   2.749   4.403 -0.5680 -0.2198  0.7034
  516MOL0     C71081   3.433   2.834   4.494  0.3022  0.6007 -0.4367
  516MOL0     C71082   3.331   2.924   4.562 -1.0442 -0.0783 -0.4427
  516MOL0     C71083   3.421   3.029   4.633  1.0850  0.2045  1.0248
  516MOL0     C71084   3.352   3.086   4.748 -0.4424 -0.3555  0.2730
  516MOL0     C71085   3.326   2.981   4.859 -0.6094 -0.1804 -0.2224
  516MOL0     C71086   3.387   3.017   4.993 -0.4306 -1.5762  0.1388
  516MOL0     N71087   3.531   3.045   4.983 -0.5137  0.0455 -0.3966
  516MOL0     C71088   3.625   2.947   4.985 -0.1065 -0.4053  0.3913
  516MOL0     C71089   3.731   3.007   4.927 -0.0619  0.2940 -1.1601
  516MOL0     C71090   3.849   2.919   4.898  0.1642  0.5963  0.2429
  516MOL0     C71091   3.827   2.848   4.760 -0.2177  1.4508  0.2924
  516MOL0     C71092   3.962   2.793   4.692  0.3022  0.7388 -0.3104
  516MOL0     C71093   3.949   2.737   4.551  0.4028  0.3389 -0.1828
  516MOL0     O71094   3.875   2.615   4.563  0.3094 -0.3238 -0.6214
  516MOL0     C71095   3.933   2.499   4.535 -0.4593 -1.0552  0.0594
  516MOL0     C71096   3.853   2.401   4.481 -0.3897 -0.2170 -0.7056
  516MOL0     C71097   3.896   2.271   4.469 -1.3365 -0.0387  0.5125
  516MOL0     C71098   3.804   2.186   4.389  0.1061 -0.2954 -1.0683
  516MOL0     C71099   4.026   2.228   4.496  0.1277 -0.6531 -0.8707
  516MOL0     C71100   4.083   2.090   4.475  1.4533  0.1746 -0.2544
  516MOL0     O71101   4.206   2.070   4.534  0.3981  0.5942 -0.1254
  516MOL0     C71102   4.288   1.968   4.487  0.2691 -0.0193  0.6919
  516MOL0     C71103   4.354   1.980   4.369 -0.3594  0.4033  0.6225
  516MOL0     C71104   4.441   1.874   4.333  0.7026  0.4795 -0.6568
  516MOL0     C71105   4.462   1.768   4.415  0.0903 -0.4958 -0.2517
  516MOL0     O71106   4.549   1.676   4.364 -0.4859  0.2508 -0.5670
  516MOL0     C71107   4.568   1.556   4.437 -0.2983  0.3254  0.4272
  516MOL0     C71108   4.639   1.455   4.345  0.5995  0.8488 -0.0586
  516MOL0     C71109   4.651   1.314   4.398 -0.6103  1.1284  0.0585
  516MOL0     C71110   4.754   1.227   4.322 -0.2962  0.5351 -0.2655
  516MOL0     C71111   4.748   1.088   4.382 -0.0233 -0.3872  0.2823
  516MOL0     C71112   4.853   0.994   4.330  0.2000  0.8436 -0.0919
  516MOL0     C71113   4.869   0.862   4.398  0.1432  0.4715  0.1207
  516MOL0     C71114   4.970   0.774   4.344 -0.4225 -0.1243  0.1828
  516MOL0    Cl71115   4.914   0.610   4.378  0.0712 -0.0140  0.3519
  516MOL0     C71116   4.398   1.758   4.546  0.2593  0.3677  0.0273
  516MOL0     C71117   4.299   1.857   4.574 -0.1055 -1.0976 -0.1806
  516MOL0     O71118   4.042   2.008   4.391  0.7260  0.1832 -0.3572
  516MOL0     C71119   4.115   2.329   4.545  0.2387 -0.3367 -0.2787
  516MOL0     C71120   4.072   2.464   4.551  0.1402  0.0622 -0.0173
  516MOL0     N71121   3.707   3.147   4.905  0.2224 -0.2752 -0.5902
  516MOL0     N71122   3.588   3.166   4.957  0.2964  0.5460  1.8402
  516MOL0     C71123   3.524   2.397   4.581  0.0913 -0.3450  0.1009
  516MOL0     C71124   3.494   2.274   4.643 -0.0183 -0.9508  0.6269
  516MOL0     C71125   3.295   1.829   4.648 -0.6653 -0.6283  0.4084
  516MOL0     C71126   3.300   1.842   4.789 -0.0761 -0.0830  0.6178
  516MOL0     C71127   3.274   1.729   4.867  0.1124 -0.8631  0.2129
  516MOL0     C71128   3.246   1.602   4.815 -0.1262 -0.3159 -0.2291
  516MOL0     O71129   3.208   1.513   4.911  0.0348 -0.5029  0.6909
  516MOL0     C71130   3.180   1.376   4.871  0.1951 -0.3977 -0.8246
  516MOL0     C71131   3.314   1.302   4.853 -0.6690 -0.5778  0.9119
  516MOL0     C71132   3.299   1.153   4.822 -0.7311 -0.3561  0.6120
  516MOL0     C71133   3.196   1.109   4.720 -1.2267  0.3705 -0.1596
  516MOL0     C71134   3.220   1.168   4.589 -0.2394  0.6796 -0.0404
  516MOL0     C71135   3.245   1.219   4.477 -0.2180  0.3263 -0.0308
  516MOL0     C71136   3.243   1.591   4.679  0.7274  0.8027  0.7455
  516MOL0     C71137   3.268   1.696   4.591 -0.7907 -0.6816 -0.9911
  516MOL0     C71138   3.263   1.670   4.445 -0.5820 -1.0058  0.2279
  516MOL0     H71139   3.253   2.186   4.426 -0.7004 -1.1921  1.8489
  516MOL0     H71140   3.302   2.421   4.333 -2.6061 -0.6245  1.7342
  516MOL0     H71141   3.369   2.605   4.243  0.6034  1.7396 -2.2580
  516MOL0     H71142   3.504   2.713   4.251 -1.6628  1.4972  0.4340
  516MOL0     H71143   3.300   2.815   4.333 -1.1624 -1.1923  0.2052
  516MOL0     H71144   3.273   2.699   4.461 -0.8959 -0.8664 -0.2751
  516MOL0     H71145   3.479   2.764   4.565  1.6645 -1.3704 -3.0704
  516MOL0     H71146   3.500   2.900   4.439  2.0872 -0.2386  0.6229
  516MOL0     H71147   3.264   2.959   4.483 -0.9686 -3.2102 -2.0588
  516MOL0     H71148   3.276   2.867   4.639 -0.0719  0.1697  0.4548
  516MOL0     H71149   3.461   3.102   4.561  1.1868 -1.9158 -1.2117
  516MOL0     H71150   3.514   2.984   4.668  1.4606  0.6085  0.5670
  516MOL0     H71151   3.405   3.173   4.788 -1.3519  1.2132 -1.8006
  516MOL0     H71152   3.255   3.123   4.713  0.3760  1.4308 -0.2132
  516MOL0     H71153   3.374   2.892   4.817 -0.6709 -0.2865 -0.0717
  516MOL0     H71154   3.218   2.967   4.872 -0.9837  2.2790 -0.1962
  516MOL0     H71155   3.332   3.108   5.018  0.6780 -0.7001 -0.5070
  516MOL0     H71156   3.360   2.943   5.069 -0.0781 -0.4176  1.4449
  516MOL0     H71157   3.607   2.848   5.025  0.6542 -0.3704  0.8447
  516MOL0     H71158   3.872   2.850   4.979  1.1418  1.1528  0.4587
  516MOL0     H71159   3.936   2.985   4.899  2.4270 -2.0502  4.3091
  516MOL0     H71160   3.751   2.769   4.765  1.9062 -0.8076 -1.0469
  516MOL0     H71161   3.777   2.916   4.690  0.7978  0.7664 -1.1454
  516MOL0     H71162   4.040   2.869   4.695  0.2895  0.7399 -0.0077
  516MOL0     H71163   3.995   2.704   4.745  0.5407  0.1177 -1.4737
  516MOL0     H71164   3.896   2.807   4.485  1.8359  3.5425  1.8245
  516MOL0     H71165   4.045   2.721   4.500 -0.1346  0.5201 -1.2979
  516MOL0     H71166   3.754   2.435   4.452 -0.9472  1.2004  2.3552
  516MOL0     H71167   3.856   2.163   4.296 -0.5033 -1.4862 -1.1325
  516MOL0     H71168   3.706   2.232   4.379 -0.2460 -0.9254 -0.6078
  516MOL0     H71169   3.779   2.091   4.438 -2.1156  1.2270  0.9646
  516MOL0     H71170   4.337   2.071   4.313  2.4945  0.6390  0.0104
  516MOL0     H71171   4.484   1.878   4.233  2.3952  1.7511  0.0663
  516MOL0     H71172   4.631   1.590   4.520 -0.6561  3.6456 -0.5210
  516MOL0     H71173   4.479   1.508   4.478  0.1508  1.8971  3.5490
  516MOL0     H71174   4.572   1.461   4.259 -2.6634  2.5042  2.3650
  516MOL0     H71175   4.732   1.491   4.301  0.2059 -1.7996 -3.5202
  516MOL0     H71176   4.550   1.274   4.387 -0.7865  1.5424  0.1408
  516MOL0     H71177   4.676   1.309   4.504 -1.9694 -2.8952  0.3310
  516MOL0     H71178   4.847   1.279   4.345  0.4342 -1.0127  0.3375
  516MOL0     H71179   4.731   1.230   4.214  1.5961 -4.1574 -1.0121
  516MOL0     H71180   4.758   1.094   4.491 -1.3506 -0.0436  0.3963
  516MOL0     H71181   4.646   1.053   4.364 -1.1389  1.8994  1.6822
  516MOL0     H71182   4.945   1.052   4.344 -1.4503  3.9799 -1.2751
  516MOL0     H71183   4.844   0.973   4.223 -0.4758 -2.1687  0.4436
  516MOL0     H71184   4.773   0.810   4.404  0.6229 -0.6067 -1.3052
  516MOL0     H71185   4.898   0.884   4.502  2.5260 -0.2883 -0.3286
  516MOL0     H71186   5.066   0.800   4.388 -1.2314 -2.0505  3.3815
  516MOL0     H71187   4.976   0.794   4.236 -1.7863 -1.6474 -0.2291
  516MOL0     H71188   4.420   1.674   4.612  1.6897 -1.0124 -2.0489
  516MOL0     H71189   4.259   1.868   4.675  1.3326 -0.7947  0.3697
  516MOL0     H71190   4.220   2.300   4.551 -0.1239 -1.9057 -0.9599
  516MOL0     H71191   4.140   2.543   4.582  1.8209 -0.8876 -1.0787
  516MOL0     H71192   3.606   2.460   4.616  1.7831 -1.2118 -2.1083
  516MOL0     H71193   3.546   2.261   4.737  1.9598 -0.2620 -0.3172
  516MOL0     H71194   3.332   1.931   4.843  0.1054  0.1670  0.1055
  516MOL0     H71195   3.284   1.727   4.975 -1.3100 -3.7588  0.3926
  516MOL0     H71196   3.113   1.331   4.944 -0.5893  0.4714 -0.9910
  516MOL0     H71197   3.115   1.376   4.783  0.3574 -2.3522 -0.9849
  516MOL0     H71198   3.389   1.319   4.931  2.3667 -0.9922 -1.6913
  516MOL0     H71199   3.370   1.356   4.776 -1.1603  1.1580  1.7261
  516MOL0     H71200   3.385   1.114   4.767 -4.0036 -1.4477 -4.3830
  516MOL0     H71201   3.295   1.096   4.915 -2.8478 -0.2108  0.6599
  516MOL0     H71202   3.100   1.125   4.770 -0.5150  1.8779  0.8171
  516MOL0     H71203   3.212   1.002   4.712 -1.2224  0.3086  0.5932
  516MOL0     H71204   3.269   1.265   4.384 -1.2298 -0.1265 -0.5332
  516MOL0     H71205   3.220   1.490   4.646 -0.8195 -0.0702  4.0662
  516MOL0     H71206   3.173   1.715   4.403 -0.4955 -0.4355  0.6488
  516MOL0     H71207   3.356   1.694   4.393 -2.6988 -0.7428 -3.8434
  516MOL0     H71208   3.249   1.562   4.429 -3.9653 -1.0692  2.5034
  517MOL0     O71209   4.937   3.782   8.858  0.0085  0.2992 -0.4557
  517MOL0     C71210   5.033   3.844   8.802  0.5538 -0.5571  0.5882
  517MOL0     O71211   5.158   3.811   8.805  0.0748 -0.1697  0.0294
  517MOL0     C71212   5.212   3.734   8.907 -0.2774  0.1385 -0.1294
  517MOL0     C71213   5.355   3.726   8.895  0.4042  0.4282  1.4768
  517MOL0     C71214   5.425   3.654   8.988  0.3538  0.4777 -0.3286
  517MOL0     C71215   5.365   3.578   9.091 -0.9573  0.3866 -0.6138
  517MOL0     O71216   5.451   3.505   9.171 -0.5699 -0.1996 -0.4796
  517MOL0     C71217   5.429   3.366   9.153 -0.1413  0.0702  0.3785
  517MOL0     C71218   5.507   3.270   9.251 -1.0360 -0.4591  0.2582
  517MOL0     C71219   5.540   3.326   9.396  0.0631  1.1899 -0.0436
  517MOL0     C71220   5.420   3.387   9.461 -0.1349 -0.0508  0.3407
  517MOL0     C71221   5.452   3.420   9.606  0.2885  0.3123  0.5136
  517MOL0     C71222   5.574   3.498   9.651 -0.2620 -0.0123 -0.1624
  517MOL0     C71223   5.544   3.545   9.794 -0.3232 -0.2640 -0.4313
  517MOL0     C71224   5.620   3.677   9.815 -0.4345 -1.0276 -0.4360
  517MOL0     N71225   5.768   3.670   9.833  0.6913 -0.5762 -0.7855
  517MOL0     C71226   5.854   3.779   9.812  0.5161 -0.8123 -0.6017
  517MOL0     C71227   5.966   3.747   9.879 -0.7826  0.7700  0.7025
  517MOL0     C71228   6.094   3.821   9.877 -0.4607 -0.4149  0.6442
  517MOL0     C71229   6.114   3.877  10.024  1.6379 -0.4891  0.5446
  517MOL0     C71230   6.184   3.774  10.105 -0.2533 -0.2063 -0.3380
  517MOL0     C71231   6.237   3.834  10.238 -0.1315 -0.4704 -0.2823
  517MOL0     O71232   6.315   3.948  10.201 -0.5795 -0.4702 -0.3624
  517MOL0     C71233   6.438   3.965  10.265 -0.9666 -1.0392 -1.5723
  517MOL0     C71234   6.472   3.935  10.401  0.3915  0.2638  1.6064
  517MOL0     C71235   6.608   3.947  10.449 -0.3471 -0.0507 -0.0562
  517MOL0     C71236   6.630   3.896  10.590  0.1333 -0.2003  0.2269
  517MOL0     C71237   6.704   3.999  10.358  0.0495  0.2887 -0.5005
  517MOL0     C71238   6.836   4.047  10.400  1.0887  0.7765 -0.3360
  517MOL0     O71239   6.861   4.101  10.535 -0.4421  0.2291 -0.3538
  517MOL0     C71240   6.985   4.136  10.581  0.7374 -0.8528 -0.6194
  517MOL0     C71241   7.009   4.130  10.721 -0.4254 -0.0306  0.8644
  517MOL0     C71242   7.136   4.151  10.781 -0.2444 -0.3686  0.8707
  517MOL0     C71243   7.243   4.209  10.707 -0.4614  0.0697 -0.1700
  517MOL0     O71244   7.373   4.239  10.749 -0.5438  0.4919 -0.5505
  517MOL0     C71245   7.399   4.288  10.880 -0.1122  0.0763  0.2793
  517MOL0     C71246   7.552   4.274  10.913  0.2485  0.1398 -0.2908
  517MOL0     C71247   7.579   4.296  11.062 -0.4572  0.1225 -0.4153
  517MOL0     C71248   7.723   4.257  11.097 -0.3826 -0.9088  0.5925
  517MOL0     C71249   7.762   4.297  11.239 -0.4493 -0.7501  0.2139
  517MOL0     C71250   7.787   4.449  11.255  0.0165 -0.6257  0.3240
  517MOL0     C71251   7.852   4.476  11.385 -1.0480 -0.9725 -0.3158
  517MOL0     C71252   7.851   4.627  11.405 -1.2452  0.8862  0.3770
  517MOL0    Cl71253   7.970   4.659  11.533 -0.0994 -0.4114  0.2338
  517MOL0     C71254   7.211   4.228  10.570 -0.0170 -0.2963 -0.6196
  517MOL0     C71255   7.091   4.196  10.502 -0.4172 -0.3632 -0.0579
  517MOL0     O71256   6.923   4.043  10.315  0.0334  0.1257  0.0329
  517MOL0     C71257   6.668   4.022  10.226 -0.1824 -0.4366 -0.5596
  517MOL0     C71258   6.543   4.020  10.182  0.5329  0.0185  0.1765
  517MOL0     N71259   5.954   3.623   9.937 -0.0144  0.6510 -0.5519
  517MOL0     N71260   5.837   3.573   9.902  0.5317 -0.6342 -0.8178
  517MOL0     C71261   5.226   3.585   9.104 -0.2807  0.0844  0.2119
  517MOL0     C71262   5.155   3.660   9.013 -0.6319 -0.3485  0.5437
  517MOL0     C71263   4.993   3.957   8.710  0.4395 -0.0777 -0.3653
  517MOL0     C71264   4.857   3.962   8.671  0.3965 -1.5009  0.9840
  517MOL0     C71265   4.809   4.045   8.568 -0.1033 -0.2787  0.0660
  517MOL0     C71266   4.885   4.149   8.524  1.0758 -0.5923 -0.4623
  517MOL0     O71267   4.840   4.254   8.457 -0.3127  0.3078  0.4599
  517MOL0     C71268   4.702   4.287   8.484  0.0942 -0.2120  1.0509
  517MOL0     C71269   4.672   4.364   8.616 -0.1320 -0.0495 -0.6584
  517MOL0     C71270   4.771   4.476   8.655 -0.3161 -0.0007  0.6720
  517MOL0     C71271   4.712   4.583   8.742  0.6782 -0.4383  0.6519
  517MOL0     C71272   4.634   4.522   8.850  0.3480  0.4748 -0.6089
  517MOL0     C71273   4.574   4.460   8.941 -0.3549 -0.5262 -0.3164
  517MOL0     C71274   5.021   4.153   8.573  0.5985 -0.4361 -0.5970
  517MOL0     C71275   5.078   4.062   8.667 -0.2312 -0.7851 -0.6329
  517MOL0     C71276   5.218   4.080   8.710 -0.7948  0.4307  0.6302
  517MOL0     H71277   5.409   3.777   8.816  0.1712 -0.2059  0.8948
  517MOL0     H71278   5.533   3.639   8.983  0.1920 -0.6258 -0.7525
  517MOL0     H71279   5.453   3.335   9.051 -1.6326  2.2783 -0.7320
  517MOL0     H71280   5.321   3.350   9.165  0.0716 -0.4578  1.6682
  517MOL0     H71281   5.447   3.179   9.264  0.0672 -1.1296  0.8640
  517MOL0     H71282   5.605   3.246   9.209 -0.3880  1.6928  0.4511
  517MOL0     H71283   5.583   3.243   9.453 -1.4483 -1.5736 -2.6395
  517MOL0     H71284   5.616   3.405   9.387  0.1540  1.4375  2.3557
  517MOL0     H71285   5.397   3.480   9.408  0.8121 -0.5289 -0.9701
  517MOL0     H71286   5.330   3.325   9.452 -1.4736  1.9590 -0.9669
  517MOL0     H71287   5.447   3.331   9.670 -1.1853  0.9208  1.2897
  517MOL0     H71288   5.371   3.488   9.633  0.2287  0.3015  0.3630
  517MOL0     H71289   5.660   3.432   9.655 -0.2378  0.0862  1.4382
  517MOL0     H71290   5.578   3.572   9.570 -0.7056 -2.0132 -2.1011
  517MOL0     H71291   5.572   3.475   9.874  3.6090 -0.8365 -2.0801
  517MOL0     H71292   5.438   3.567   9.807 -0.5705  0.2105 -2.8219
  517MOL0     H71293   5.595   3.750   9.738 -0.9918  1.2911  1.8313
  517MOL0     H71294   5.573   3.726   9.900  1.0938  1.3167 -0.8507
  517MOL0     H71295   5.840   3.853   9.733 -0.7587 -2.3858 -1.9303
  517MOL0     H71296   6.078   3.906   9.809  2.2552  0.5950  1.1676
  517MOL0     H71297   6.180   3.767   9.836 -1.0631 -1.1292  0.2816
  517MOL0     H71298   6.183   3.962  10.011  0.5887  0.2401 -0.5228
  517MOL0     H71299   6.016   3.911  10.057  1.2791  1.1783 -1.8969
  517MOL0     H71300   6.104   3.700  10.116 -0.7896  0.7070  3.6374
  517MOL0     H71301   6.274   3.743  10.052 -0.5011 -1.2496 -0.1804
  517MOL0     H71302   6.160   3.851  10.313  1.5116  0.1327  1.3161
  517MOL0     H71303   6.303   3.758  10.280  1.8574  0.8955 -0.7727
  517MOL0     H71304   6.398   3.898  10.472  1.7653 -1.5696  2.1793
  517MOL0     H71305   6.550   3.944  10.646  1.2201  0.1134  1.5646
  517MOL0     H71306   6.725   3.932  10.632 -0.7223  3.5193 -0.6829
  517MOL0     H71307   6.618   3.788  10.583  0.6565 -0.1974 -1.0895
  517MOL0     H71308   6.933   4.085  10.784 -1.8823 -1.8311 -1.9749
  517MOL0     H71309   7.134   4.124  10.886 -1.4037 -2.1922  0.4336
  517MOL0     H71310   7.372   4.393  10.870  1.8324  0.4704 -1.3047
  517MOL0     H71311   7.336   4.236  10.953  0.9977  1.5660  2.4126
  517MOL0     H71312   7.582   4.173  10.882  0.7437  0.0863  0.3293
  517MOL0     H71313   7.617   4.337  10.851  3.3587 -1.0937  1.4535
  517MOL0     H71314   7.518   4.226  11.119  2.7321  0.0641  3.3372
  517MOL0     H71315   7.551   4.394  11.101 -2.2311 -1.3450  2.3218
  517MOL0     H71316   7.784   4.302  11.018 -2.8411  0.2620 -0.7624
  517MOL0     H71317   7.724   4.149  11.083 -4.5946 -1.6620  4.2012
  517MOL0     H71318   7.683   4.276  11.311  0.3735  0.5627  1.5587
  517MOL0     H71319   7.852   4.243  11.269  1.1537  2.8335  2.6656
  517MOL0     H71320   7.691   4.501  11.256  0.4608  0.2090  0.9482
  517MOL0     H71321   7.839   4.496  11.171 -0.1609  1.9008  1.5141
  517MOL0     H71322   7.955   4.440  11.393  0.0261  1.9605  0.4320
  517MOL0     H71323   7.790   4.439  11.466 -2.1165  1.9771  0.3424
  517MOL0     H71324   7.755   4.651  11.451 -1.9369 -1.0995  0.0718
  517MOL0     H71325   7.866   4.675  11.307  0.4643  2.5425  1.3956
  517MOL0     H71326   7.300   4.260  10.515 -0.3359  3.6300  0.8327
  517MOL0     H71327   7.087   4.212  10.395  2.0513  3.8564  0.2734
  517MOL0     H71328   6.747   4.051  10.158  0.0167  0.7296  0.1341
  517MOL0     H71329   6.515   4.056  10.083  0.5956  1.4626  0.6689
  517MOL0     H71330   5.171   3.527   9.177 -0.6114 -0.2879 -0.3285
  517MOL0     H71331   5.047   3.661   9.025 -0.7018 -1.5183  0.1091
  517MOL0     H71332   4.786   3.888   8.708 -3.5179  1.8872  0.9669
  517MOL0     H71333   4.701   4.045   8.552 -0.3955  2.7410  1.3901
  517MOL0     H71334   4.681   4.361   8.406  0.9600 -1.7320 -0.6958
  517MOL0     H71335   4.637   4.201   8.461 -1.3412  1.0247  0.3045
  517MOL0     H71336   4.665   4.290   8.696 -0.6613 -1.0593 -1.6098
  517MOL0     H71337   4.577   4.415   8.597 -1.7758 -3.5932 -3.1176
  517MOL0     H71338   4.862   4.440   8.706  2.0609  1.8368 -1.9563
  517MOL0     H71339   4.801   4.533   8.567  1.2482 -1.1238  0.4307
  517MOL0     H71340   4.640   4.647   8.690 -1.2664 -3.9057 -1.3051
  517MOL0     H71341   4.803   4.639   8.764  1.5645  0.2078 -3.7123
  517MOL0     H71342   4.528   4.398   9.016 -2.8067 -0.2480 -1.5082
  517MOL0     H71343   5.091   4.218   8.521  0.5050  1.9038  2.0053
  517MOL0     H71344   5.232   4.047   8.813  0.4906  1.4715  0.8143
  517MOL0     H71345   5.276   4.020   8.638 -2.2802  0.1612 -0.4017
  517MOL0     H71346   5.259   4.180   8.694  0.3960 -0.5082 -3.3923
  518MOL0     O71347   1.078   0.349   1.795 -0.0671 -0.1103 -0.3527
  518MOL0     C71348   1.091   0.381   1.915  0.3465  0.7782  0.6628
  518MOL0     O71349   1.054   0.496   1.974  0.7193 -0.0525  0.4653
  518MOL0     C71350   1.046   0.605   1.887 -0.3276  0.1813 -0.1540
  518MOL0     C71351   0.921   0.639   1.841  0.1739  0.3610  0.6922
  518MOL0     C71352   0.909   0.739   1.744 -0.1836  0.9894  0.6668
  518MOL0     C71353   1.021   0.821   1.717  1.1527 -0.2942  0.2114
  518MOL0     O71354   1.010   0.931   1.636  0.2782  0.6507 -0.4190
  518MOL0     C71355   1.118   0.949   1.543 -0.3141 -0.3980  0.2326
  518MOL0     C71356   1.113   1.086   1.476  0.1040 -0.2730  0.9539
  518MOL0     C71357   1.031   1.095   1.342  0.2745  0.0583  0.8475
  518MOL0     C71358   0.891   1.056   1.367 -0.1817  0.5833 -1.2325
  518MOL0     C71359   0.789   1.078   1.262  0.0472 -0.9512  0.4139
  518MOL0     C71360   0.744   1.222   1.230 -0.2607 -0.8475 -1.4815
  518MOL0     C71361   0.633   1.231   1.122 -0.0696  0.8694  0.0305
  518MOL0     C71362   0.601   1.378   1.101  0.3195 -0.4125 -0.5151
  518MOL0     N71363   0.516   1.440   1.200 -0.1303  0.2793  0.5467
  518MOL0     C71364   0.388   1.413   1.223 -0.4762 -0.5170 -0.7842
  518MOL0     C71365   0.348   1.485   1.327  0.8350  0.0109 -0.6738
  518MOL0     C71366   0.210   1.495   1.382  0.7512 -0.0407 -0.5343
  518MOL0     C71367   0.107   1.428   1.300 -0.7660 -0.4301 -0.5090
  518MOL0     C71368  -0.036   1.432   1.352  0.3248  0.1119  0.0812
  518MOL0     C71369  -0.066   1.342   1.467 -0.1426 -0.9993 -0.9797
  518MOL0     O71370  -0.022   1.205   1.437  0.2223 -0.6466 -0.7798
  518MOL0     C71371  -0.019   1.105   1.532  0.0066 -0.3604  0.4208
  518MOL0     C71372  -0.076   1.123   1.662 -1.0335  0.0893 -0.3989
  518MOL0     C71373  -0.053   1.030   1.767  0.2315 -0.7585 -0.3493
  518MOL0     C71374  -0.122   1.071   1.890  0.2192  0.3294 -0.3718
  518MOL0     C71375   0.024   0.911   1.741 -0.2026 -0.0332 -0.4417
  518MOL0     C71376   0.041   0.810   1.853 -0.6049 -0.0515  0.1974
  518MOL0     O71377  -0.014   0.830   1.979 -0.5206 -0.0579  0.0960
  518MOL0     C71378   0.013   0.749   2.088  0.1025  0.3844 -0.1775
  518MOL0     C71379   0.096   0.794   2.190  0.6300  0.4325 -1.2358
  518MOL0     C71380   0.135   0.709   2.299  0.1484 -0.6998  0.0437
  518MOL0     C71381   0.104   0.568   2.291 -0.2912  0.0147 -0.4842
  518MOL0     O71382   0.140   0.490   2.395  0.1247  0.9570 -0.2837
  518MOL0     C71383   0.159   0.347   2.382 -0.4241  0.3603  0.3482
  518MOL0     C71384   0.199   0.287   2.521  0.1159 -0.3694  0.7033
  518MOL0     C71385   0.218   0.140   2.508  0.1053  0.2694 -0.1446
  518MOL0     C71386   0.268   0.076   2.643 -0.2993 -0.0654  0.5812
  518MOL0     C71387   0.169   0.060   2.758  0.8045 -0.2223  0.4157
  518MOL0     C71388   0.211  -0.046   2.857  0.0379  0.6035 -0.4255
  518MOL0     C71389   0.354  -0.034   2.919 -0.3686 -0.0346  0.1996
  518MOL0     C71390   0.361   0.083   3.019 -0.6164  0.2058 -0.4570
  518MOL0    Cl71391   0.279   0.030   3.170 -0.2075  0.4191 -0.1343
  518MOL0     C71392   0.043   0.522   2.181 -0.9074 -0.2242  0.4811
  518MOL0     C71393  -0.007   0.608   2.081 -0.4741  0.2533 -0.6152
  518MOL0     O71394   0.109   0.715   1.825 -0.2480  0.2097  0.0948
  518MOL0     C71395   0.077   0.897   1.611  0.8145 -0.5210 -0.4958
  518MOL0     C71396   0.053   0.989   1.514  0.1748 -1.2116 -0.0557
  518MOL0     N71397   0.453   1.559   1.366 -0.3395  0.2826 -0.1005
  518MOL0     N71398   0.553   1.531   1.286 -0.1158 -0.3169 -0.9787
  518MOL0     C71399   1.146   0.790   1.776 -0.7410  0.1626 -1.3420
  518MOL0     C71400   1.158   0.684   1.865  0.3294 -0.4599 -0.1221
  518MOL0     C71401   1.146   0.278   2.003 -0.2442  0.2527 -0.3305
  518MOL0     C71402   1.111   0.140   1.978  0.1923 -0.2820  1.1483
  518MOL0     C71403   1.172   0.036   2.048 -0.5551 -0.3498  0.8178
  518MOL0     C71404   1.268   0.067   2.141 -0.5446 -0.1078  0.3037
  518MOL0     O71405   1.324  -0.034   2.218 -0.0822  0.0023 -0.2893
  518MOL0     C71406   1.283  -0.172   2.208  0.4922  0.4926  0.2614
  518MOL0     C71407   1.363  -0.253   2.307  0.3100  0.0392 -0.2839
  518MOL0     C71408   1.380  -0.188   2.443 -0.0756  0.6725 -0.8643
  518MOL0     C71409   1.481  -0.260   2.538 -0.0312  0.4177  0.1595
  518MOL0     C71410   1.628  -0.270   2.505  0.5707  0.4765 -0.2880
  518MOL0     C71411   1.727  -0.285   2.446  0.0199  0.6865 -0.4393
  518MOL0     C71412   1.311   0.196   2.164  0.1420  0.4570  0.5779
  518MOL0     C71413   1.251   0.300   2.100  0.6156 -0.8400  0.2215
  518MOL0     C71414   1.310   0.439   2.110  0.1481 -0.0217 -0.6095
  518MOL0     H71415   0.842   0.567   1.860  0.6233 -0.7364 -1.3095
  518MOL0     H71416   0.811   0.761   1.702  0.2436  1.4580 -0.1076
  518MOL0     H71417   1.112   0.872   1.466 -1.3943  0.8381 -0.9702
  518MOL0     H71418   1.215   0.939   1.592  0.4850 -3.0473 -1.6705
  518MOL0     H71419   1.081   1.167   1.542 -2.4200  1.4267 -2.0966
  518MOL0     H71420   1.217   1.097   1.443 -0.8647  0.2209 -2.3231
  518MOL0     H71421   1.034   1.195   1.298 -2.0426  0.7680  2.1450
  518MOL0     H71422   1.077   1.027   1.269 -0.1870  1.3670 -0.7218
  518MOL0     H71423   0.885   0.948   1.384  0.3730  0.4227 -2.0173
  518MOL0     H71424   0.857   1.118   1.451 -0.1608 -0.0469 -0.7589
  518MOL0     H71425   0.703   1.025   1.304  1.7373 -2.1436  2.5476
  518MOL0     H71426   0.829   1.030   1.172 -0.8260  1.3677 -1.3257
  518MOL0     H71427   0.712   1.264   1.326  1.5349 -0.3404 -1.0664
  518MOL0     H71428   0.829   1.281   1.195 -1.2333  1.0021 -0.8392
  518MOL0     H71429   0.537   1.191   1.155  0.2349 -0.5248 -0.7145
  518MOL0     H71430   0.667   1.185   1.029 -3.9508  0.2246 -1.2494
  518MOL0     H71431   0.692   1.438   1.090 -0.7324  1.0324 -1.6816
  518MOL0     H71432   0.543   1.373   1.009 -3.9822 -0.8172  1.9750
  518MOL0     H71433   0.319   1.347   1.171 -1.2799 -0.4483  0.1561
  518MOL0     H71434   0.171   1.597   1.386 -1.4225 -0.8438  1.2548
  518MOL0     H71435   0.203   1.459   1.485 -0.6356  0.4029 -0.4591
  518MOL0     H71436   0.114   1.482   1.206  1.7387 -1.3325 -0.9042
  518MOL0     H71437   0.134   1.324   1.280  0.9597 -0.6477  2.3820
  518MOL0     H71438  -0.052   1.529   1.399  1.3641  0.6148 -0.5640
  518MOL0     H71439  -0.098   1.410   1.264  1.6014 -2.4893 -0.2919
  518MOL0     H71440  -0.024   1.388   1.557  0.5546 -1.4655 -1.0645
  518MOL0     H71441  -0.175   1.348   1.479 -0.2451 -1.3112 -1.6861
  518MOL0     H71442  -0.139   1.210   1.678 -0.0829  1.2218 -2.4842
  518MOL0     H71443  -0.046   1.092   1.965  0.5203  1.2641 -0.9200
  518MOL0     H71444  -0.188   0.987   1.912  2.2534 -1.7140 -1.6715
  518MOL0     H71445  -0.189   1.158   1.886 -1.5464 -0.9987 -0.8561
  518MOL0     H71446   0.135   0.895   2.200  0.8351  0.1656  1.3158
  518MOL0     H71447   0.196   0.745   2.381 -1.7220 -1.9284  2.0668
  518MOL0     H71448   0.065   0.300   2.351 -1.6240  2.2504  0.9445
  518MOL0     H71449   0.234   0.323   2.306  0.8299 -0.4108  1.7781
  518MOL0     H71450   0.280   0.345   2.565 -2.0992  3.2462  0.4193
  518MOL0     H71451   0.119   0.316   2.590  1.2483 -0.4365  2.0785
  518MOL0     H71452   0.295   0.121   2.432 -1.3409  0.5195 -1.7142
  518MOL0     H71453   0.126   0.098   2.469 -1.0222  1.5281  1.0206
  518MOL0     H71454   0.353   0.135   2.679  1.3107 -2.8050  1.6173
  518MOL0     H71455   0.307  -0.024   2.623  2.3063  0.4792  2.3983
  518MOL0     H71456   0.140   0.151   2.812 -1.6003 -1.2223  0.9213
  518MOL0     H71457   0.074   0.033   2.711  1.5840 -0.5628 -1.0197
  518MOL0     H71458   0.205  -0.142   2.806 -0.6703 -0.0381  0.8128
  518MOL0     H71459   0.148  -0.041   2.946 -0.1288 -0.3900 -0.4828
  518MOL0     H71460   0.424  -0.012   2.838  1.7877 -4.5666  0.5289
  518MOL0     H71461   0.383  -0.127   2.970 -1.5079 -1.8954 -2.3600
  518MOL0     H71462   0.316   0.178   2.987 -1.4653 -0.3579 -0.9807
  518MOL0     H71463   0.464   0.099   3.052  0.1495 -2.3230 -1.4287
  518MOL0     H71464   0.033   0.415   2.168  0.6293 -0.2894 -0.3862
  518MOL0     H71465  -0.065   0.572   1.996 -1.1523  0.6236 -0.3190
  518MOL0     H71466   0.147   0.818   1.585  1.4738 -0.0914 -0.0410
  518MOL0     H71467   0.107   0.969   1.422 -2.5917 -2.7141 -1.4956
  518MOL0     H71468   1.235   0.852   1.771  0.4482 -1.3883 -0.3737
  518MOL0     H71469   1.249   0.656   1.916  1.3088  1.9600 -0.4154
  518MOL0     H71470   1.052   0.108   1.893  1.1498  0.1099  0.3157
  518MOL0     H71471   1.149  -0.066   2.018  0.8273  0.5269 -4.1221
  518MOL0     H71472   1.174  -0.181   2.208  0.4072  0.3894 -2.8156
  518MOL0     H71473   1.315  -0.213   2.112  0.1570  1.9670 -0.5059
  518MOL0     H71474   1.460  -0.266   2.258  0.0173 -0.9692 -0.6133
  518MOL0     H71475   1.314  -0.348   2.332  2.0724 -0.4827  1.5158
  518MOL0     H71476   1.422  -0.089   2.421 -2.2272  1.1903 -2.9775
  518MOL0     H71477   1.281  -0.182   2.489  1.3129 -1.9827  3.0272
  518MOL0     H71478   1.444  -0.362   2.550  3.0965 -1.2853 -2.8715
  518MOL0     H71479   1.479  -0.212   2.636  0.0605  0.0402  0.3444
  518MOL0     H71480   1.814  -0.281   2.384  1.1415  0.0992  1.0495
  518MOL0     H71481   1.401   0.216   2.221  0.4645 -1.2790  0.7152
  518MOL0     H71482   1.382   0.439   2.192 -0.2651  2.0371 -0.1697
  518MOL0     H71483   1.366   0.463   2.020  1.0386  2.7827  0.5757
  518MOL0     H71484   1.236   0.519   2.120 -0.5698 -0.3187 -3.0614
  519MOL0     O71485  11.207  10.925   6.658  0.2098  0.2403 -0.1490
  519MOL0     C71486  11.231  10.928   6.776 -0.1769 -0.0554  0.1207
  519MOL0     O71487  11.162  10.997   6.868 -0.0953 -0.4686  0.2045
  519MOL0     C71488  11.067  11.086   6.820 -0.1205  0.2143 -0.1920
  519MOL0     C71489  10.932  11.056   6.838 -0.4747  0.0172  0.0904
  519MOL0     C71490  10.839  11.138   6.770  0.2946 -0.3907 -0.2201
  519MOL0     C71491  10.877  11.255   6.694  0.1677  0.7216  0.3799
  519MOL0     O71492  10.764  11.318   6.637 -0.8073 -0.0091  0.2377
  519MOL0     C71493  10.803  11.424   6.546  0.2977 -0.4809 -0.6767
  519MOL0     C71494  10.813  11.550   6.636 -0.2301  0.5317 -0.3754
  519MOL0     C71495  10.876  11.666   6.563 -0.3803  0.3098  0.2608
  519MOL0     C71496  10.845  11.796   6.634 -0.5114 -0.0180  0.0872
  519MOL0     C71497  10.715  11.861   6.602 -0.4745 -1.1442  0.9280
  519MOL0     C71498  10.678  11.986   6.690  0.0481 -0.5075  0.6348
  519MOL0     C71499  10.786  12.096   6.675  0.1045 -0.0387 -0.6501
  519MOL0     C71500  10.781  12.174   6.545 -0.0400 -0.1184 -0.1707
  519MOL0     N71501  10.652  12.220   6.507 -0.0992 -0.4319 -0.3327
  519MOL0     C71502  10.569  12.185   6.401  0.2383 -0.1785 -0.4370
  519MOL0     C71503  10.463  12.268   6.410 -1.7259  0.2778  0.0451
  519MOL0     C71504  10.340  12.249   6.332 -1.1250 -0.7805 -0.3181
  519MOL0     C71505  10.327  12.364   6.233  0.4606 -0.1931 -0.2636
  519MOL0     C71506  10.189  12.373   6.169  0.9501  0.8424  0.2274
  519MOL0     C71507  10.178  12.470   6.053  0.5275  0.0313 -0.4615
  519MOL0     O71508  10.240  12.595   6.104  0.4101 -0.3260  0.3700
  519MOL0     C71509  10.270  12.705   6.023 -0.1542  0.1285 -0.5210
  519MOL0     C71510  10.220  12.718   5.897 -0.3012  0.4296  0.5454
  519MOL0     C71511  10.251  12.837   5.821 -0.7883  0.4653  0.1798
  519MOL0     C71512  10.197  12.829   5.678 -0.3289  0.2104 -0.3044
  519MOL0     C71513  10.336  12.940   5.872 -1.0089  0.7469  0.4214
  519MOL0     C71514  10.365  13.076   5.806 -0.1869  0.0899 -0.0357
  519MOL0     O71515  10.324  13.101   5.684  0.1114  0.0479 -0.1931
  519MOL0     C71516  10.344  13.220   5.633 -0.6052  0.4686 -0.2869
  519MOL0     C71517  10.252  13.323   5.645 -0.7991 -0.5248 -0.2070
  519MOL0     C71518  10.273  13.449   5.576 -1.1659  0.4685 -0.3119
  519MOL0     C71519  10.396  13.464   5.499 -0.1561  0.2654  0.3378
  519MOL0     O71520  10.406  13.590   5.442 -0.3687 -0.7209 -0.2413
  519MOL0     C71521  10.478  13.598   5.317 -0.4932  0.2972 -0.4254
  519MOL0     C71522  10.442  13.723   5.241  0.0411 -0.5062  0.0197
  519MOL0     C71523  10.502  13.730   5.097  0.1611 -0.5432 -0.8654
  519MOL0     C71524  10.654  13.746   5.105  0.0843 -0.3159 -0.3962
  519MOL0     C71525  10.702  13.817   4.984 -0.8522 -0.5749  0.6493
  519MOL0     C71526  10.863  13.822   4.987  0.6648 -0.2513 -1.0931
  519MOL0     C71527  10.917  13.689   4.938  0.4144  0.0124 -0.5140
  519MOL0     C71528  10.944  13.686   4.792  0.1728  0.0474 -0.1710
  519MOL0    Cl71529  11.118  13.736   4.769 -0.0191 -0.3120  0.0172
  519MOL0     C71530  10.488  13.357   5.480 -0.0312 -0.2807  0.7701
  519MOL0     C71531  10.461  13.237   5.549  0.8991 -0.4806  0.5558
  519MOL0     O71532  10.433  13.161   5.873  0.7164  0.0196 -0.5375
  519MOL0     C71533  10.392  12.911   5.996 -0.6397  0.1824 -0.2826
  519MOL0     C71534  10.357  12.805   6.074 -0.3129 -0.0234  0.6344
  519MOL0     N71535  10.485  12.358   6.512  0.5697  0.1786  0.7600
  519MOL0     N71536  10.588  12.322   6.572 -0.1377 -0.4502  0.0166
  519MOL0     C71537  11.013  11.281   6.686 -0.4740 -0.2353  0.5795
  519MOL0     C71538  11.104  11.202   6.749 -0.1437  1.1123  0.0501
  519MOL0     C71539  11.333  10.843   6.829  0.2326  0.7043 -1.1426
  519MOL0     C71540  11.325  10.705   6.808  0.0678 -0.4946  0.3598
  519MOL0     C71541  11.426  10.617   6.849  0.7887 -0.9209  0.5411
  519MOL0     C71542  11.549  10.667   6.890  0.5734  0.6558  0.5545
  519MOL0     O71543  11.653  10.574   6.916 -0.1795 -0.5706 -0.6424
  519MOL0     C71544  11.768  10.629   6.988  0.2195 -0.1150  0.2325
  519MOL0     C71545  11.871  10.523   7.013  0.4480  0.3927 -0.9390
  519MOL0     C71546  11.973  10.510   6.894  0.1842 -0.1289  0.2282
  519MOL0     C71547  11.916  10.499   6.753  0.2065  0.5891  0.9591
  519MOL0     C71548  12.020  10.519   6.647 -1.0852  0.4651 -0.6921
  519MOL0     C71549  12.115  10.553   6.590 -0.5297 -0.3881 -0.2562
  519MOL0     C71550  11.563  10.804   6.915 -0.3580  0.0734  0.1245
  519MOL0     C71551  11.452  10.886   6.890  0.4108  0.5153  0.1203
  519MOL0     C71552  11.480  11.027   6.927 -0.4283  0.1288 -0.5375
  519MOL0     H71553  10.902  10.967   6.893 -1.4517 -1.5775 -2.7977
  519MOL0     H71554  10.732  11.120   6.776  0.2297  0.0516 -0.0835
  519MOL0     H71555  10.717  11.448   6.484  0.3602  0.0441 -0.5645
  519MOL0     H71556  10.891  11.409   6.482  1.0786  0.4819  0.1418
  519MOL0     H71557  10.713  11.581   6.669 -2.2986 -2.6071 -3.0515
  519MOL0     H71558  10.864  11.529   6.731 -2.9341  1.0903  1.3278
  519MOL0     H71559  10.983  11.646   6.555 -0.6176 -2.1417  2.0990
  519MOL0     H71560  10.840  11.655   6.460  3.3303 -2.1777 -0.9544
  519MOL0     H71561  10.865  11.783   6.740 -0.4401 -1.7006 -0.1015
  519MOL0     H71562  10.927  11.863   6.608 -0.3593 -0.5611 -0.8660
  519MOL0     H71563  10.634  11.787   6.597 -1.7742  0.2668  0.5215
  519MOL0     H71564  10.728  11.901   6.501 -1.8418  0.9797  1.5241
  519MOL0     H71565  10.580  12.030   6.669  0.6137  1.0313  1.0809
  519MOL0     H71566  10.680  11.952   6.794 -0.3182 -2.3670  0.0759
  519MOL0     H71567  10.879  12.041   6.687 -1.0189 -2.1764 -1.1780
  519MOL0     H71568  10.777  12.169   6.756 -0.9470 -0.8907  0.0277
  519MOL0     H71569  10.840  12.265   6.555 -0.8650  0.2819  1.2384
  519MOL0     H71570  10.815  12.119   6.456  1.7525 -0.3533  0.6189
  519MOL0     H71571  10.583  12.106   6.327 -1.8218  1.4725 -2.7935
  519MOL0     H71572  10.257  12.241   6.402 -0.0075 -2.5750  0.8959
  519MOL0     H71573  10.345  12.152   6.281  0.7044 -0.6936 -0.3685
  519MOL0     H71574  10.338  12.455   6.293  1.8265 -1.2375  1.1392
  519MOL0     H71575  10.408  12.367   6.159 -0.3366 -1.0369 -1.1985
  519MOL0     H71576  10.148  12.277   6.137 -2.3835  1.8628  1.0039
  519MOL0     H71577  10.122  12.402   6.251 -0.0650  0.0152 -0.2871
  519MOL0     H71578  10.225  12.427   5.965  0.8457 -0.5128 -0.0301
  519MOL0     H71579  10.071  12.486   6.038  0.0602 -3.4576 -1.6736
  519MOL0     H71580  10.144  12.648   5.864 -0.4450  0.8868 -0.1170
  519MOL0     H71581  10.214  12.726   5.645  0.4530 -0.9460  3.3233
  519MOL0     H71582  10.251  12.889   5.604  0.6133 -0.7733 -0.4383
  519MOL0     H71583  10.091  12.851   5.666 -0.0788  0.7226 -1.7921
  519MOL0     H71584  10.173  13.330   5.719 -0.9329  2.4091 -0.5340
  519MOL0     H71585  10.208  13.530   5.606  1.0406  0.9892  3.8054
  519MOL0     H71586  10.585  13.608   5.338 -0.2631  1.0336 -1.8062
  519MOL0     H71587  10.468  13.511   5.251  1.7288  1.8395 -3.0338
  519MOL0     H71588  10.333  13.725   5.237  0.0416 -0.3821  0.0589
  519MOL0     H71589  10.472  13.807   5.305  0.7687 -1.6875  1.2677
  519MOL0     H71590  10.450  13.799   5.029 -1.0658 -3.7990 -3.5384
  519MOL0     H71591  10.482  13.633   5.052 -1.3666  0.6256 -2.9316
  519MOL0     H71592  10.712  13.657   5.130  0.6401  0.1002 -0.1729
  519MOL0     H71593  10.671  13.823   5.181 -2.6635  2.2183 -2.1016
  519MOL0     H71594  10.675  13.761   4.894 -0.7918  2.7804 -1.6557
  519MOL0     H71595  10.669  13.921   4.970  0.1889 -0.4348 -1.0260
  519MOL0     H71596  10.892  13.845   5.090 -0.5776  1.1022 -1.0201
  519MOL0     H71597  10.900  13.902   4.922 -1.2059  0.3089 -1.5223
  519MOL0     H71598  10.852  13.605   4.964  0.8514 -0.2024 -0.0854
  519MOL0     H71599  11.012  13.673   4.990  0.9442 -0.7054 -1.6588
  519MOL0     H71600  10.885  13.760   4.737  0.4699  0.2592 -0.2069
  519MOL0     H71601  10.927  13.585   4.754  1.4328 -0.5185  0.7187
  519MOL0     H71602  10.576  13.362   5.418 -1.6107 -0.8749 -1.6320
  519MOL0     H71603  10.530  13.154   5.553  1.1571 -0.2975  0.0540
  519MOL0     H71604  10.463  12.977   6.045  0.2111  0.0471 -1.2827
  519MOL0     H71605  10.407  12.773   6.165 -1.4006 -2.1697  0.5457
  519MOL0     H71606  11.054  11.350   6.613  1.8906  0.0093  2.0272
  519MOL0     H71607  11.210  11.218   6.730  0.5159  0.1113  2.5772
  519MOL0     H71608  11.239  10.663   6.757  1.1548 -1.0969 -1.0540
  519MOL0     H71609  11.417  10.511   6.825  1.1009 -0.7103 -0.5135
  519MOL0     H71610  11.816  10.712   6.935 -0.7557 -0.3012 -0.9778
  519MOL0     H71611  11.736  10.671   7.083 -0.2913 -1.0403  0.4819
  519MOL0     H71612  11.815  10.431   7.031 -0.4149  1.3354  1.7390
  519MOL0     H71613  11.920  10.557   7.105 -0.7725 -1.1199  0.3214
  519MOL0     H71614  12.045  10.592   6.899 -0.8637  0.7475  3.2388
  519MOL0     H71615  12.029  10.418   6.914  2.0573  0.8341 -0.3860
  519MOL0     H71616  11.829  10.565   6.742  0.0341  0.6255  2.2922
  519MOL0     H71617  11.891  10.393   6.748  2.4245 -0.0841  2.6928
  519MOL0     H71618  12.203  10.587   6.538  0.2483  1.0126  1.8409
  519MOL0     H71619  11.656  10.848   6.950  1.0898 -3.8410  1.6944
  519MOL0     H71620  11.479  11.033   7.036  0.5559 -2.0817 -0.3463
  519MOL0     H71621  11.578  11.063   6.894 -1.4806  1.3799 -2.4515
  519MOL0     H71622  11.400  11.086   6.882 -1.9760 -1.8226 -0.5171
  520MOL0     O71623   5.881   0.714   6.174  0.9217  0.2536 -0.6269
  520MOL0     C71624   5.821   0.664   6.083  0.4144  0.2817 -0.2289
  520MOL0     O71625   5.843   0.547   6.023  0.2532  0.4557  0.6831
  520MOL0     C71626   5.922   0.460   6.087 -0.5992 -0.3295 -0.2902
  520MOL0     C71627   5.884   0.391   6.199 -0.0214  0.6029  0.5128
  520MOL0     C71628   5.971   0.289   6.249  0.2386 -0.1249  0.4070
  520MOL0     C71629   6.104   0.277   6.207  0.2283  0.3321  0.4573
  520MOL0     O71630   6.186   0.178   6.260  0.7677 -0.2873  0.2562
  520MOL0     C71631   6.323   0.166   6.221 -0.1734  0.2804 -0.5670
  520MOL0     C71632   6.372   0.020   6.234  0.6675 -0.1937 -0.9025
  520MOL0     C71633   6.341  -0.047   6.373  0.6606 -0.4939 -0.3948
  520MOL0     C71634   6.371  -0.198   6.367 -0.5876 -0.4254 -0.4920
  520MOL0     C71635   6.356  -0.269   6.504 -0.2894  0.2512  0.3609
  520MOL0     C71636   6.393  -0.421   6.491 -0.3301 -0.4563  0.4490
  520MOL0     C71637   6.274  -0.505   6.480 -0.2039 -0.0057  0.3924
  520MOL0     C71638   6.303  -0.650   6.511  0.3544 -0.4514 -0.1601
  520MOL0     N71639   6.412  -0.710   6.427 -0.3994  0.2217  0.0906
  520MOL0     C71640   6.520  -0.773   6.478 -0.8981  0.3686  0.4065
  520MOL0     C71641   6.574  -0.858   6.383 -0.7083 -0.1137 -0.6875
  520MOL0     C71642   6.683  -0.959   6.399 -0.3340  0.0908  1.3075
  520MOL0     C71643   6.826  -0.909   6.384  0.0666 -1.1989  0.0079
  520MOL0     C71644   6.931  -1.012   6.420  0.1548 -0.7944  0.1764
  520MOL0     C71645   7.056  -0.944   6.373 -0.1035 -0.1287 -0.5320
  520MOL0     O71646   7.084  -0.812   6.422 -0.1852  0.1263  0.2140
  520MOL0     C71647   7.153  -0.737   6.333 -0.4062  0.1406 -0.1821
  520MOL0     C71648   7.266  -0.786   6.268 -0.9732 -0.1716 -0.5017
  520MOL0     C71649   7.351  -0.692   6.193 -0.1861  0.5703 -0.3000
  520MOL0     C71650   7.470  -0.751   6.128  0.1216 -0.2797 -0.1769
  520MOL0     C71651   7.323  -0.557   6.195 -0.2288 -0.7734  0.0873
  520MOL0     C71652   7.411  -0.461   6.126  0.4966  0.2533  0.0642
  520MOL0     O71653   7.548  -0.482   6.129  0.1923  0.2353  0.4118
  520MOL0     C71654   7.641  -0.390   6.094  0.4186 -0.3583  0.7340
  520MOL0     C71655   7.747  -0.433   6.018 -0.0920 -0.0934  0.7757
  520MOL0     C71656   7.852  -0.347   5.981 -0.0334 -0.5384  0.6660
  520MOL0     C71657   7.844  -0.213   6.018 -0.4302 -0.3967  0.2741
  520MOL0     O71658   7.954  -0.135   5.993  1.1269  0.2425 -0.8316
  520MOL0     C71659   7.941  -0.049   5.883  0.8693 -1.3507  0.1365
  520MOL0     C71660   8.082  -0.018   5.835 -0.2525  0.2409 -0.8712
  520MOL0     C71661   8.145  -0.138   5.763  0.4892  0.4889  0.5146
  520MOL0     C71662   8.058  -0.183   5.646  0.4264  0.4539  0.8737
  520MOL0     C71663   8.127  -0.279   5.549 -0.4945  0.1977 -0.8908
  520MOL0     C71664   8.182  -0.403   5.618 -0.2368  0.9652 -0.4373
  520MOL0     C71665   8.226  -0.501   5.517  0.4547 -0.5253 -0.2001
  520MOL0     C71666   8.307  -0.619   5.575 -1.0353  0.6718 -0.9141
  520MOL0    Cl71667   8.468  -0.574   5.649  0.3170  0.4980 -0.2971
  520MOL0     C71668   7.740  -0.168   6.096  0.5846 -0.1651 -0.0844
  520MOL0     C71669   7.644  -0.256   6.137  0.1988  0.0211  0.8582
  520MOL0     O71670   7.356  -0.360   6.066 -0.3538 -0.0905  0.0230
  520MOL0     C71671   7.196  -0.516   6.246 -0.8491  0.0325  0.2660
  520MOL0     C71672   7.114  -0.605   6.320  0.4248 -0.0430  0.2756
  520MOL0     N71673   6.492  -0.848   6.276  0.3241  0.0813  0.1740
  520MOL0     N71674   6.390  -0.780   6.307  0.8533 -0.2062  0.3719
  520MOL0     C71675   6.153   0.365   6.106 -0.3619 -0.8004  0.5674
  520MOL0     C71676   6.052   0.448   6.048  0.5855  0.0525  0.1397
  520MOL0     C71677   5.712   0.746   6.018  0.1672 -0.5340  0.4791
  520MOL0     C71678   5.700   0.725   5.872 -0.0977  0.5268 -1.4926
  520MOL0     C71679   5.603   0.798   5.801  0.3510  0.7358 -0.1598
  520MOL0     C71680   5.532   0.897   5.862 -0.4707  0.0458 -0.6142
  520MOL0     O71681   5.429   0.964   5.796  0.4121 -0.3401 -0.0541
  520MOL0     C71682   5.446   0.994   5.663  0.3033  0.7754 -0.3467
  520MOL0     C71683   5.326   1.055   5.597 -0.6384  0.1294 -0.1099
  520MOL0     C71684   5.371   1.095   5.454 -0.6386 -0.0456  0.5099
  520MOL0     C71685   5.262   1.185   5.375  0.3503  0.0066 -0.5812
  520MOL0     C71686   5.129   1.143   5.412  1.1449  0.3249 -0.0448
  520MOL0     C71687   5.012   1.109   5.449 -0.7537 -0.3036 -0.8614
  520MOL0     C71688   5.547   0.921   6.001  1.0538 -0.2831  0.6106
  520MOL0     C71689   5.641   0.852   6.075  0.1669  0.4102  0.1691
  520MOL0     C71690   5.648   0.883   6.216 -0.7884 -0.1787 -0.1630
  520MOL0     H71691   5.784   0.395   6.243 -0.5818 -2.2945 -0.2771
  520MOL0     H71692   5.923   0.225   6.322  1.1302  0.8629  1.8885
  520MOL0     H71693   6.389   0.234   6.277  2.7581 -3.1316  0.4915
  520MOL0     H71694   6.337   0.189   6.115 -0.6417 -1.1462 -0.9541
  520MOL0     H71695   6.329  -0.048   6.160 -1.2956 -0.7791  0.6826
  520MOL0     H71696   6.480   0.026   6.212 -0.0264  1.9132 -4.7459
  520MOL0     H71697   6.399  -0.002   6.455  0.1588  1.8792 -1.2383
  520MOL0     H71698   6.234  -0.030   6.385  0.7052 -1.4360  1.8186
  520MOL0     H71699   6.301  -0.235   6.292  0.0721  1.4874 -2.1619
  520MOL0     H71700   6.470  -0.206   6.321 -1.3782  0.5892 -2.5370
  520MOL0     H71701   6.258  -0.262   6.551 -1.5664 -0.2141 -2.0414
  520MOL0     H71702   6.433  -0.224   6.567 -0.2521 -1.7161  1.8256
  520MOL0     H71703   6.451  -0.437   6.401 -1.6451  1.9773 -0.9303
  520MOL0     H71704   6.466  -0.444   6.569  1.4329 -2.5568 -1.6821
  520MOL0     H71705   6.231  -0.511   6.380 -2.3459 -4.3108  1.3119
  520MOL0     H71706   6.191  -0.469   6.541 -1.1467 -0.0486 -0.8494
  520MOL0     H71707   6.338  -0.647   6.615 -1.3069  0.7243  0.4193
  520MOL0     H71708   6.221  -0.720   6.495  0.5010 -0.4019 -1.1535
  520MOL0     H71709   6.550  -0.761   6.581 -2.5590 -0.4241  1.0084
  520MOL0     H71710   6.660  -1.040   6.330 -0.2164  1.2188 -0.1218
  520MOL0     H71711   6.693  -0.998   6.500  1.9653  1.4971  1.7029
  520MOL0     H71712   6.835  -0.881   6.279 -3.3321 -1.0054 -0.3292
  520MOL0     H71713   6.831  -0.812   6.435 -0.3989  0.1114 -2.2724
  520MOL0     H71714   6.938  -1.036   6.526 -2.3304  0.2326  0.6339
  520MOL0     H71715   6.907  -1.097   6.355 -1.8079  0.6631 -1.1621
  520MOL0     H71716   7.141  -1.001   6.411 -0.2571 -0.0117 -0.0091
  520MOL0     H71717   7.060  -0.949   6.264  4.1280  4.7243 -0.9718
  520MOL0     H71718   7.297  -0.890   6.267 -2.1906 -0.5447 -1.2681
  520MOL0     H71719   7.471  -0.722   6.023  1.0397 -2.0232 -0.6921
  520MOL0     H71720   7.466  -0.860   6.144  3.2828 -0.1645  2.6202
  520MOL0     H71721   7.565  -0.706   6.157 -0.0574  2.9284 -3.8724
  520MOL0     H71722   7.747  -0.540   6.000 -4.9403 -0.4646  1.6456
  520MOL0     H71723   7.926  -0.405   5.927  0.4104  0.5836  0.0314
  520MOL0     H71724   7.876  -0.082   5.801 -0.9848 -1.7831  1.7307
  520MOL0     H71725   7.897   0.044   5.921  1.2301 -0.8756 -0.5721
  520MOL0     H71726   8.086   0.073   5.775  2.3039  0.5983 -0.2898
  520MOL0     H71727   8.141   0.008   5.923  4.4660 -2.1699 -2.9617
  520MOL0     H71728   8.165  -0.219   5.834 -0.1538 -1.0040 -0.9177
  520MOL0     H71729   8.243  -0.109   5.723 -0.8217  2.4564 -1.4756
  520MOL0     H71730   8.006  -0.099   5.598 -1.4668 -1.0916  0.0626
  520MOL0     H71731   7.971  -0.237   5.685 -1.8298  3.4466  0.3125
  520MOL0     H71732   8.047  -0.301   5.478 -2.8710  1.8576  1.1186
  520MOL0     H71733   8.206  -0.220   5.500 -0.8348  0.8264 -0.7003
  520MOL0     H71734   8.106  -0.441   5.687  2.8117  0.1477  2.7530
  520MOL0     H71735   8.264  -0.375   5.684  2.3574  0.4789 -3.2248
  520MOL0     H71736   8.293  -0.453   5.445  0.8885 -0.5456  0.1899
  520MOL0     H71737   8.136  -0.530   5.461  0.2279  1.3160 -0.8854
  520MOL0     H71738   8.326  -0.683   5.488 -0.4814 -1.2517  0.5250
  520MOL0     H71739   8.240  -0.676   5.640 -0.1804  1.7126  0.9755
  520MOL0     H71740   7.732  -0.062   6.121  0.3294  0.2406 -1.7829
  520MOL0     H71741   7.561  -0.230   6.202  1.2724  1.1189  1.8399
  520MOL0     H71742   7.161  -0.413   6.242  2.2289  1.2580  1.5022
  520MOL0     H71743   7.030  -0.551   6.362  0.7033 -0.1301  0.9740
  520MOL0     H71744   6.254   0.367   6.068 -0.7285  0.4127 -0.4171
  520MOL0     H71745   6.093   0.513   5.972  1.1805  1.4262  1.5868
  520MOL0     H71746   5.752   0.637   5.835 -1.7021 -2.2209  2.1226
  520MOL0     H71747   5.606   0.778   5.694  3.1733 -1.4696  0.1907
  520MOL0     H71748   5.525   1.069   5.654  0.8156  0.5684  1.9232
  520MOL0     H71749   5.481   0.907   5.606 -2.7456 -0.7960 -0.0495
  520MOL0     H71750   5.295   1.133   5.666  2.1420 -1.3034  3.1087
  520MOL0     H71751   5.243   0.985   5.579  0.4651 -1.6356  1.2296
  520MOL0     H71752   5.469   1.143   5.449 -0.4355 -0.4134  0.9212
  520MOL0     H71753   5.375   1.000   5.399  1.4124 -0.9145  2.0552
  520MOL0     H71754   5.281   1.171   5.268 -2.5498  2.2538 -1.5251
  520MOL0     H71755   5.284   1.291   5.395  0.9740 -0.4805  1.5082
  520MOL0     H71756   4.911   1.106   5.486 -0.3910  2.0586  0.5923
  520MOL0     H71757   5.494   1.003   6.049 -2.8221 -2.1143 -0.0820
  520MOL0     H71758   5.578   0.961   6.247 -3.1419 -1.7475 -1.2303
  520MOL0     H71759   5.616   0.794   6.270 -1.0465 -0.8013 -1.3043
  520MOL0     H71760   5.752   0.912   6.234 -0.4858 -0.5509 -1.2041
  521MOL0     O71761   8.389   1.013  10.376 -0.3102  0.0333  0.5104
  521MOL0     C71762   8.395   1.080  10.474 -0.6464 -0.2732  1.3147
  521MOL0     O71763   8.307   1.071  10.580 -0.6842  0.0868 -0.5058
  521MOL0     C71764   8.204   0.981  10.566 -0.1592 -1.1778 -0.0997
  521MOL0     C71765   8.098   1.024  10.485  0.5251  0.2859  0.7701
  521MOL0     C71766   7.984   0.933  10.482  0.0948 -1.1080  0.1906
  521MOL0     C71767   7.983   0.807  10.534 -0.7954  0.7186 -0.6339
  521MOL0     O71768   7.884   0.718  10.508 -0.3072 -0.4555  0.2250
  521MOL0     C71769   7.902   0.625  10.404  0.6363  0.0641 -0.1987
  521MOL0     C71770   7.826   0.500  10.441 -0.3020  0.3718 -0.1918
  521MOL0     C71771   7.787   0.419  10.315 -0.2604  0.3110  0.4240
  521MOL0     C71772   7.909   0.355  10.241  0.0061  0.6331  0.5781
  521MOL0     C71773   7.879   0.251  10.132  0.6007  0.2209  0.0802
  521MOL0     C71774   7.787   0.309  10.024 -0.4204  0.1770 -1.1529
  521MOL0     C71775   7.636   0.286  10.057 -0.8586  0.1106 -1.5011
  521MOL0     C71776   7.553   0.343   9.945 -1.1292  0.9019  0.7664
  521MOL0     N71777   7.557   0.265   9.818 -0.7387 -0.2792 -0.5525
  521MOL0     C71778   7.482   0.146   9.797 -0.8837 -0.1836 -0.5380
  521MOL0     C71779   7.509   0.111   9.667  0.2126  0.4094  0.2350
  521MOL0     C71780   7.453  -0.014   9.615 -0.2336 -0.3764  0.8293
  521MOL0     C71781   7.378   0.023   9.487  0.0239 -0.5641 -0.2887
  521MOL0     C71782   7.232   0.070   9.511 -0.4184 -0.1081  0.0469
  521MOL0     C71783   7.140  -0.043   9.541  0.5284 -0.0005 -0.3795
  521MOL0     O71784   7.076  -0.083   9.419  0.2551 -0.1702 -0.0519
  521MOL0     C71785   6.937  -0.071   9.427 -0.5620  0.2598  0.2866
  521MOL0     C71786   6.886   0.055   9.439 -0.4814 -0.4623 -0.1902
  521MOL0     C71787   6.750   0.069   9.457  0.2800  0.8864 -0.6999
  521MOL0     C71788   6.701   0.209   9.476  0.0381  0.5885 -0.3013
  521MOL0     C71789   6.660  -0.042   9.468 -1.1353  0.1857 -0.3334
  521MOL0     C71790   6.521  -0.038   9.514  0.5718 -0.2018 -0.4907
  521MOL0     O71791   6.442  -0.149   9.486 -0.2569  0.1889  0.0130
  521MOL0     C71792   6.306  -0.141   9.517  0.0897  1.0012  0.4491
  521MOL0     C71793   6.212  -0.115   9.422  0.5183 -0.4042  0.5105
  521MOL0     C71794   6.079  -0.112   9.448  0.7863 -0.6990 -0.8144
  521MOL0     C71795   6.044  -0.128   9.581  0.1158 -0.7657  0.2246
  521MOL0     O71796   5.908  -0.097   9.602  0.0679 -0.5007 -0.4592
  521MOL0     C71797   5.840  -0.180   9.691  0.5128  0.5511 -0.3697
  521MOL0     C71798   5.689  -0.158   9.677 -0.1735  0.9985  0.7214
  521MOL0     C71799   5.638  -0.023   9.735 -0.9849  0.1344 -0.7026
  521MOL0     C71800   5.484  -0.015   9.734 -0.5813  0.2644 -0.2801
  521MOL0     C71801   5.425   0.107   9.804  0.0524  0.0821  0.6331
  521MOL0     C71802   5.476   0.235   9.738  0.6108  0.5907 -0.0250
  521MOL0     C71803   5.390   0.356   9.769  0.6178  0.1983  0.3451
  521MOL0     C71804   5.406   0.412   9.911  0.0968  0.3582 -0.4807
  521MOL0    Cl71805   5.244   0.443   9.974  0.0015 -0.4367  0.0430
  521MOL0     C71806   6.135  -0.167   9.680 -0.3244 -1.1111  1.4903
  521MOL0     C71807   6.266  -0.166   9.650 -0.4225  1.1000 -0.1287
  521MOL0     O71808   6.484   0.058   9.581  0.3951 -0.3114 -0.0509
  521MOL0     C71809   6.723  -0.169   9.455  0.0762 -0.9665  0.2612
  521MOL0     C71810   6.851  -0.182   9.421 -0.6189 -0.2955 -0.4843
  521MOL0     N71811   7.597   0.206   9.609 -0.6076  0.3715 -0.1593
  521MOL0     N71812   7.616   0.296   9.700 -0.2038  0.2813 -1.0339
  521MOL0     C71813   8.095   0.775  10.613  0.6409  0.1218 -0.9333
  521MOL0     C71814   8.209   0.861  10.633  0.1522 -0.0537 -0.0814
  521MOL0     C71815   8.517   1.173  10.475 -0.3456 -0.6270  0.3243
  521MOL0     C71816   8.560   1.222  10.597 -0.4261  0.5272 -0.1791
  521MOL0     C71817   8.665   1.313  10.603  0.5875 -0.3616  0.8164
  521MOL0     C71818   8.729   1.363  10.489  0.5906  0.5574  0.5874
  521MOL0     O71819   8.822   1.459  10.519  0.2106 -0.9156 -0.2200
  521MOL0     C71820   8.913   1.505  10.427 -0.9475 -0.1235  0.3712
  521MOL0     C71821   9.009   1.389  10.406  0.6095 -0.6720 -0.5433
  521MOL0     C71822   9.125   1.432  10.309  0.3182  0.3697 -0.9435
  521MOL0     C71823   9.241   1.342  10.335 -0.4125  0.5158  0.4153
  521MOL0     C71824   9.356   1.382  10.258 -0.0219 -0.4641 -1.1433
  521MOL0     C71825   9.463   1.417  10.203  0.5188  1.0660 -0.0129
  521MOL0     C71826   8.683   1.323  10.366 -0.1078 -0.1811  0.1244
  521MOL0     C71827   8.579   1.230  10.354  0.7700  1.1600 -0.4598
  521MOL0     C71828   8.531   1.193  10.218  0.5414 -0.1089 -1.0140
  521MOL0     H71829   8.087   1.119  10.434 -1.9050  0.3697  1.2850
  521MOL0     H71830   7.904   0.957  10.413  2.6450 -0.1446 -2.6257
  521MOL0     H71831   8.002   0.582  10.396 -0.1987 -2.4253  1.4269
  521MOL0     H71832   7.879   0.667  10.306 -2.3875  0.4658  0.5619
  521MOL0     H71833   7.882   0.443  10.516 -0.9430  1.3367  1.0563
  521MOL0     H71834   7.733   0.523  10.494 -0.7430 -2.9975  0.7354
  521MOL0     H71835   7.718   0.340  10.346 -2.6667  1.9251 -0.5317
  521MOL0     H71836   7.730   0.486  10.250  1.6470  0.9670 -0.6487
  521MOL0     H71837   7.950   0.435  10.180 -2.6428 -0.3517 -2.7719
  521MOL0     H71838   7.986   0.325  10.313  0.0697  0.9603  0.6503
  521MOL0     H71839   7.826   0.165  10.174 -2.4766  1.3016 -1.3083
  521MOL0     H71840   7.974   0.226  10.083  1.5061  0.2794  1.7262
  521MOL0     H71841   7.793   0.416   9.999 -0.0457 -0.5720 -4.7694
  521MOL0     H71842   7.820   0.261   9.931  0.9254  0.6669 -0.9541
  521MOL0     H71843   7.607   0.332  10.151 -1.7671 -1.5873 -0.9089
  521MOL0     H71844   7.615   0.179  10.059 -0.3833  0.0089  1.4903
  521MOL0     H71845   7.452   0.335   9.985 -1.3968  0.2874 -0.0199
  521MOL0     H71846   7.575   0.447   9.918 -5.3253  1.5894 -0.7626
  521MOL0     H71847   7.415   0.095   9.866  1.3561 -3.7425 -0.7265
  521MOL0     H71848   7.388  -0.072   9.681  0.8050 -3.2630 -0.5032
  521MOL0     H71849   7.528  -0.083   9.575 -0.0679 -0.4902  1.3374
  521MOL0     H71850   7.424   0.107   9.434  1.2276 -1.6372 -1.0000
  521MOL0     H71851   7.376  -0.061   9.416  1.0322 -0.0033 -1.0054
  521MOL0     H71852   7.229   0.154   9.581 -0.0277  0.3996 -0.5328
  521MOL0     H71853   7.203   0.118   9.416  3.5642 -1.9196 -2.3413
  521MOL0     H71854   7.201  -0.131   9.563 -0.2581  0.2588  3.6578
  521MOL0     H71855   7.072  -0.033   9.626 -0.8083 -1.5866 -1.2120
  521MOL0     H71856   6.953   0.140   9.446 -0.7557  0.3126 -4.2802
  521MOL0     H71857   6.676   0.227   9.581 -1.8198  0.4681 -0.6830
  521MOL0     H71858   6.610   0.227   9.418  1.7944 -0.7887 -3.7770
  521MOL0     H71859   6.775   0.280   9.437 -1.2866  2.3347  0.2400
  521MOL0     H71860   6.244  -0.097   9.320 -2.2047 -0.6642 -0.4640
  521MOL0     H71861   6.011  -0.078   9.371  1.7933  1.4839 -0.7938
  521MOL0     H71862   5.870  -0.284   9.670  2.5595  1.1192 -0.4979
  521MOL0     H71863   5.867  -0.156   9.794  0.3604  2.6086 -0.7790
  521MOL0     H71864   5.655  -0.162   9.573  1.9675  2.3812 -0.1028
  521MOL0     H71865   5.637  -0.241   9.725 -4.4679  2.2838 -1.1788
  521MOL0     H71866   5.674   0.052   9.664 -0.8121  0.5524 -0.1813
  521MOL0     H71867   5.669  -0.006   9.838 -1.0743  0.0555 -0.6629
  521MOL0     H71868   5.446  -0.109   9.776  2.1890 -1.3356 -1.1024
  521MOL0     H71869   5.449  -0.039   9.633  0.2513 -0.8929 -0.3127
  521MOL0     H71870   5.315   0.109   9.804  0.0549  1.9364  0.3499
  521MOL0     H71871   5.459   0.101   9.908 -0.6529 -1.6488  0.7875
  521MOL0     H71872   5.479   0.236   9.629  1.5185 -0.4056 -0.0228
  521MOL0     H71873   5.582   0.253   9.755  1.4163  0.9078 -4.2561
  521MOL0     H71874   5.287   0.330   9.746  0.4670 -0.9549  2.1710
  521MOL0     H71875   5.406   0.442   9.703 -1.3899  0.9811  0.8190
  521MOL0     H71876   5.478   0.493   9.921  0.1127  0.2004  0.8723
  521MOL0     H71877   5.446   0.335   9.977 -1.1082 -1.6263 -1.9390
  521MOL0     H71878   6.108  -0.183   9.784 -2.4902  0.0523  1.1594
  521MOL0     H71879   6.340  -0.188   9.727  1.7645 -1.6284 -2.7530
  521MOL0     H71880   6.669  -0.260   9.478 -1.1308  0.0435  1.5549
  521MOL0     H71881   6.901  -0.276   9.403  0.4144  0.0671  0.3844
  521MOL0     H71882   8.088   0.679  10.662  4.1253  0.0848 -0.2158
  521MOL0     H71883   8.289   0.828  10.698  0.8601 -0.5669 -1.1761
  521MOL0     H71884   8.513   1.184  10.687 -1.5464  0.9679 -0.5684
  521MOL0     H71885   8.713   1.346  10.695  0.2716  0.5678  0.6508
  521MOL0     H71886   8.866   1.529  10.330 -0.4579 -0.9037 -0.0695
  521MOL0     H71887   8.967   1.594  10.461 -0.4313 -0.2052 -0.2065
  521MOL0     H71888   8.952   1.306  10.365  0.7104 -1.0406  0.0603
  521MOL0     H71889   9.045   1.351  10.502  0.2918  1.4761  0.4954
  521MOL0     H71890   9.095   1.426  10.204  0.2237 -0.7754 -0.8602
  521MOL0     H71891   9.156   1.537  10.316  1.1329  0.1181 -0.7533
  521MOL0     H71892   9.233   1.235  10.316  1.8767  0.3418  0.2041
  521MOL0     H71893   9.277   1.352  10.438  2.2544 -1.3595 -0.2422
  521MOL0     H71894   9.554   1.447  10.155 -0.8758  1.7861 -2.3538
  521MOL0     H71895   8.723   1.363  10.273 -2.5014 -0.4602 -1.0942
  521MOL0     H71896   8.423   1.199  10.208  0.4531 -0.3117 -0.2253
  521MOL0     H71897   8.560   1.266  10.142  1.3149  0.5720 -0.0882
  521MOL0     H71898   8.561   1.091  10.190 -0.4660 -1.1599  1.5201
  522MOL0     O71899   1.877   7.198   5.741  0.1814 -0.4882 -0.1887
  522MOL0     C71900   1.850   7.186   5.861  0.3680 -1.0549 -0.4089
  522MOL0     O71901   1.936   7.189   5.972  0.0284 -0.2920  0.3535
  522MOL0     C71902   2.064   7.150   5.945  0.8697 -1.2450 -0.5456
  522MOL0     C71903   2.096   7.042   5.863  1.0289 -0.1661  0.3102
  522MOL0     C71904   2.230   6.984   5.858  0.0278 -0.2238 -0.1041
  522MOL0     C71905   2.337   7.038   5.929  0.6494 -0.1152 -0.0860
  522MOL0     O71906   2.469   6.998   5.920  0.2508 -0.1612 -0.0316
  522MOL0     C71907   2.507   6.903   5.818  0.5616  0.0081 -0.6127
  522MOL0     C71908   2.667   6.892   5.831  0.2092  0.7266 -0.3292
  522MOL0     C71909   2.735   6.997   5.752 -0.5430 -0.3513  0.5789
  522MOL0     C71910   2.765   6.944   5.612 -0.7223  0.4965  0.2430
  522MOL0     C71911   2.842   7.052   5.540  0.0552  0.6214  1.0211
  522MOL0     C71912   2.872   7.006   5.397 -0.0979  0.1569 -0.7336
  522MOL0     C71913   2.962   6.887   5.395 -0.4514 -0.2962  0.6349
  522MOL0     C71914   3.034   6.891   5.261  0.4784  0.0090  0.6205
  522MOL0     N71915   3.168   6.823   5.251  0.9003 -0.1769 -0.3478
  522MOL0     C71916   3.188   6.700   5.203 -0.0593  0.3732  0.3950
  522MOL0     C71917   3.320   6.677   5.222  0.1011  0.4100  1.3663
  522MOL0     C71918   3.381   6.543   5.180  1.3987 -0.3528  0.2532
  522MOL0     C71919   3.472   6.548   5.067  0.2113 -0.7681 -0.7141
  522MOL0     C71920   3.608   6.617   5.087 -0.2892  0.8469 -0.4743
  522MOL0     C71921   3.699   6.532   5.179  0.1990  0.5116  0.1298
  522MOL0     O71922   3.710   6.387   5.162  0.3526  0.5754 -0.0644
  522MOL0     C71923   3.802   6.300   5.222  0.0898 -0.2638  0.4902
  522MOL0     C71924   3.782   6.163   5.193  0.2217 -1.0048  0.4036
  522MOL0     C71925   3.863   6.072   5.255  0.5990 -0.2905  1.0478
  522MOL0     C71926   3.831   5.926   5.216 -0.2342 -1.0987 -0.8958
  522MOL0     C71927   3.974   6.114   5.335 -0.0804  0.3395 -0.3950
  522MOL0     C71928   4.083   6.025   5.384  0.1968  0.0758  0.3995
  522MOL0     O71929   4.172   6.073   5.483  0.2918  0.8551  0.3847
  522MOL0     C71930   4.292   6.012   5.494  0.2830 -0.6128 -0.1142
  522MOL0     C71931   4.323   5.975   5.625 -0.2526  0.4703  0.0574
  522MOL0     C71932   4.452   5.924   5.647  0.6930 -1.0573 -0.1239
  522MOL0     C71933   4.547   5.925   5.546  0.1589 -0.1591  0.1148
  522MOL0     O71934   4.674   5.867   5.560  0.0623 -0.1921  0.5175
  522MOL0     C71935   4.738   5.815   5.690 -0.1703 -0.9666  1.2850
  522MOL0     C71936   4.704   5.674   5.739  0.7043  0.9966 -0.6283
  522MOL0     C71937   4.821   5.608   5.818  0.2579 -0.5535 -0.3308
  522MOL0     C71938   4.942   5.564   5.731 -0.1032 -0.2381  0.3512
  522MOL0     C71939   5.042   5.480   5.820 -0.2213  0.2588 -0.2563
  522MOL0     C71940   5.160   5.419   5.740 -0.1161  0.2909  0.3584
  522MOL0     C71941   5.195   5.281   5.800 -0.2288  0.5591  0.0629
  522MOL0     C71942   5.308   5.223   5.707  0.0338  0.8622  0.2435
  522MOL0    Cl71943   5.248   5.190   5.536  0.0555 -0.0724 -0.0796
  522MOL0     C71944   4.511   5.967   5.416  0.3280  1.0877 -0.5292
  522MOL0     C71945   4.383   6.002   5.395  0.2113 -0.6288  0.5214
  522MOL0     O71946   4.089   5.918   5.329 -0.3613 -0.1189 -0.6908
  522MOL0     C71947   3.988   6.249   5.364  0.8221 -0.3035  0.5916
  522MOL0     C71948   3.903   6.344   5.311  1.4651 -0.2857  0.3695
  522MOL0     N71949   3.382   6.783   5.283 -0.5032  0.0485 -0.5870
  522MOL0     N71950   3.295   6.872   5.286  0.3126 -0.6325 -0.0734
  522MOL0     C71951   2.302   7.159   5.997 -0.1593 -0.1308 -0.5350
  522MOL0     C71952   2.170   7.208   6.009 -0.7694 -0.1600  0.7667
  522MOL0     C71953   1.702   7.173   5.885  0.1638 -0.3632 -0.5099
  522MOL0     C71954   1.645   7.262   5.978  0.2542  0.1983 -0.2559
  522MOL0     C71955   1.508   7.260   6.007 -0.7065 -0.3604 -0.4613
  522MOL0     C71956   1.420   7.170   5.944 -0.1138 -0.7282  0.0323
  522MOL0     O71957   1.294   7.128   5.985 -0.0911 -0.0735  0.0184
  522MOL0     C71958   1.242   7.174   6.104  0.4423  0.7878  0.0429
  522MOL0     C71959   1.188   7.314   6.088  0.1132  0.2158  0.1559
  522MOL0     C71960   1.172   7.391   6.225 -1.0256 -0.2912  0.4623
  522MOL0     C71961   1.110   7.319   6.340 -0.0910  0.8441  0.6993
  522MOL0     C71962   0.977   7.282   6.301 -0.0871 -0.8285  0.2690
  522MOL0     C71963   0.861   7.277   6.258 -0.5505  0.0564  0.0627
  522MOL0     C71964   1.479   7.090   5.851  0.0477 -0.0266 -0.1805
  522MOL0     C71965   1.613   7.084   5.814 -0.6465  0.7234 -0.8365
  522MOL0     C71966   1.659   6.983   5.707 -0.2656 -0.5810  0.5549
  522MOL0     H71967   2.024   6.991   5.800 -0.7106 -1.3049  3.0318
  522MOL0     H71968   2.240   6.899   5.791  1.2588  0.1032 -0.3564
  522MOL0     H71969   2.483   6.933   5.716 -2.0379 -2.2397 -0.7654
  522MOL0     H71970   2.470   6.802   5.838  5.4185 -2.3860 -2.1088
  522MOL0     H71971   2.694   6.885   5.937  0.0502 -0.7636 -0.3628
  522MOL0     H71972   2.693   6.791   5.799 -0.5253  0.3893  0.0963
  522MOL0     H71973   2.678   7.091   5.751 -0.1721 -0.1190  1.0036
  522MOL0     H71974   2.827   7.022   5.806 -0.8655 -0.6212  1.2616
  522MOL0     H71975   2.820   6.850   5.611  2.3514  2.0687 -3.5171
  522MOL0     H71976   2.681   6.921   5.545  1.3029 -1.3710 -1.8008
  522MOL0     H71977   2.932   7.067   5.600  0.1917  0.3239  0.8889
  522MOL0     H71978   2.793   7.150   5.538  1.5146  1.3737  0.5804
  522MOL0     H71979   2.785   6.981   5.335  1.2904  0.7598 -3.0475
  522MOL0     H71980   2.921   7.089   5.346  0.1804  0.1306 -0.5084
  522MOL0     H71981   2.915   6.791   5.420 -0.7667 -0.3472 -0.1156
  522MOL0     H71982   3.041   6.916   5.464  1.1289 -1.6022 -0.5360
  522MOL0     H71983   2.959   6.852   5.191  2.3035 -0.0133 -1.4411
  522MOL0     H71984   3.059   6.993   5.234  3.5574 -1.0335 -0.9145
  522MOL0     H71985   3.115   6.642   5.147 -2.6520  0.1888  3.6765
  522MOL0     H71986   3.293   6.481   5.160  0.8745  0.4044  0.1910
  522MOL0     H71987   3.446   6.497   5.255  1.8620 -3.0496 -1.6425
  522MOL0     H71988   3.493   6.446   5.034  0.7988 -2.0368  3.1285
  522MOL0     H71989   3.407   6.602   4.997 -0.1372  0.2314  0.3473
  522MOL0     H71990   3.652   6.645   4.991  0.0971  1.6060 -0.0871
  522MOL0     H71991   3.604   6.708   5.146  3.9673 -0.0796  1.6230
  522MOL0     H71992   3.800   6.572   5.168  0.1726  0.9049  1.2197
  522MOL0     H71993   3.683   6.546   5.286 -1.4072  0.2308 -0.0446
  522MOL0     H71994   3.717   6.130   5.113  3.4194 -1.1567 -2.3382
  522MOL0     H71995   3.904   5.901   5.139  1.4766 -0.2022  0.3827
  522MOL0     H71996   3.726   5.925   5.185 -0.6240  5.6870 -1.2527
  522MOL0     H71997   3.855   5.855   5.296 -0.1348 -1.8752 -1.6051
  522MOL0     H71998   4.255   5.968   5.709 -1.3772  1.6486 -0.7107
  522MOL0     H71999   4.462   5.893   5.751  1.0200 -0.9034 -0.1094
  522MOL0     H72000   4.845   5.817   5.668 -0.2331  0.6742  0.9463
  522MOL0     H72001   4.704   5.884   5.768 -2.1194 -1.4430  0.9128
  522MOL0     H72002   4.612   5.666   5.798  1.6990 -1.6678  0.7339
  522MOL0     H72003   4.693   5.615   5.648  3.5408  0.7639 -0.8951
  522MOL0     H72004   4.766   5.525   5.863 -2.2997  2.5962  2.8658
  522MOL0     H72005   4.853   5.677   5.896 -0.8527  1.6013 -1.6827
  522MOL0     H72006   4.997   5.648   5.688  2.3275 -2.0534 -0.2701
  522MOL0     H72007   4.902   5.495   5.656 -2.1186 -0.1516  1.2950
  522MOL0     H72008   5.083   5.535   5.905 -1.6935 -1.7334  1.8293
  522MOL0     H72009   4.993   5.396   5.869 -0.1058  0.2736 -0.1160
  522MOL0     H72010   5.247   5.484   5.750  1.3051 -1.6419  1.2971
  522MOL0     H72011   5.127   5.410   5.636 -0.0686  0.3547  0.3381
  522MOL0     H72012   5.106   5.217   5.803 -0.5494  1.0346  0.9696
  522MOL0     H72013   5.232   5.299   5.901 -1.4451 -0.2984  0.6981
  522MOL0     H72014   5.321   5.125   5.755 -2.7283  0.7438  0.8839
  522MOL0     H72015   5.401   5.281   5.710  3.5208 -4.0072 -0.4873
  522MOL0     H72016   4.588   5.951   5.342 -1.0749  3.0241 -2.5730
  522MOL0     H72017   4.359   6.046   5.298  1.4786  0.8533  0.8490
  522MOL0     H72018   4.072   6.283   5.425 -0.1488  0.5956  1.4638
  522MOL0     H72019   3.922   6.450   5.329  1.9632 -0.4025  0.5593
  522MOL0     H72020   2.382   7.198   6.058 -0.2705 -1.4690  0.5238
  522MOL0     H72021   2.142   7.282   6.083 -1.4706 -1.3893  1.7689
  522MOL0     H72022   1.707   7.324   6.041 -1.1058  0.1312  1.2180
  522MOL0     H72023   1.479   7.328   6.086  0.9523 -0.7636  0.5231
  522MOL0     H72024   1.176   7.097   6.146  1.9225 -0.5995 -0.0954
  522MOL0     H72025   1.321   7.177   6.179 -1.0856 -2.3296  2.0226
  522MOL0     H72026   1.092   7.303   6.036 -2.1164 -1.7368  4.1567
  522MOL0     H72027   1.257   7.360   6.017  2.2917 -0.3243  1.8218
  522MOL0     H72028   1.275   7.417   6.251 -0.7492 -0.5040 -0.3969
  522MOL0     H72029   1.126   7.490   6.211  2.4760  1.2373 -1.5271
  522MOL0     H72030   1.116   7.377   6.432 -0.5401  0.8267  0.7393
  522MOL0     H72031   1.166   7.230   6.372 -1.1427  0.4133  1.4035
  522MOL0     H72032   0.765   7.273   6.210 -1.0010  0.0891  0.9410
  522MOL0     H72033   1.418   7.014   5.803 -0.5295  0.6429 -0.5154
  522MOL0     H72034   1.700   7.026   5.615 -0.5831  2.3803  1.6994
  522MOL0     H72035   1.742   6.925   5.748  0.0465 -1.1598 -0.8558
  522MOL0     H72036   1.581   6.908   5.690 -1.1990  0.4486  0.1786
  523MOL0     O72037   9.359   9.167   6.535 -0.1732  1.0387 -0.4477
  523MOL0     C72038   9.431   9.257   6.560  0.0363 -0.5436  0.6571
  523MOL0     O72039   9.418   9.348   6.659 -0.0213  0.0656 -0.1969
  523MOL0     C72040   9.296   9.337   6.728 -0.7833 -0.7350  0.4723
  523MOL0     C72041   9.271   9.221   6.795  0.5023 -0.5305  1.1004
  523MOL0     C72042   9.172   9.222   6.888  0.2511 -0.0197  0.5407
  523MOL0     C72043   9.093   9.341   6.916  0.3558 -0.4741  0.1972
  523MOL0     O72044   8.981   9.345   6.994 -0.0567  0.1123  0.1272
  523MOL0     C72045   8.856   9.373   6.926  0.2024 -0.4892 -0.1544
  523MOL0     C72046   8.743   9.307   7.013 -0.3352  0.0594  0.1739
  523MOL0     C72047   8.721   9.367   7.144 -0.1969  0.3086  0.9444
  523MOL0     C72048   8.633   9.286   7.225  0.1031  0.8820  0.1274
  523MOL0     C72049   8.608   9.334   7.370 -1.4983  0.2218  0.0849
  523MOL0     C72050   8.748   9.339   7.443 -0.6367 -1.1908  0.1823
  523MOL0     C72051   8.750   9.314   7.592 -0.9049  0.0624 -0.7503
  523MOL0     C72052   8.892   9.309   7.657 -0.3986 -0.2877  0.3031
  523MOL0     N72053   8.950   9.450   7.653 -0.2209  0.2347 -0.3083
  523MOL0     C72054   8.893   9.563   7.707 -0.2920 -0.0049 -0.0940
  523MOL0     C72055   8.966   9.666   7.658 -0.0814 -0.6917  0.0359
  523MOL0     C72056   8.935   9.812   7.685 -0.1471 -0.0699  0.6933
  523MOL0     C72057   8.823   9.872   7.600 -0.4111 -0.3984  0.5908
  523MOL0     C72058   8.738   9.978   7.680 -0.1965 -0.0048  0.5770
  523MOL0     C72059   8.783  10.126   7.649 -0.0904  0.2964 -0.1846
  523MOL0     O72060   8.722  10.206   7.759  0.1762 -0.3797 -0.6684
  523MOL0     C72061   8.711  10.341   7.724  0.3215  1.3728 -0.0710
  523MOL0     C72062   8.788  10.441   7.785 -0.4276 -0.4651 -0.5865
  523MOL0     C72063   8.764  10.581   7.758  0.1978 -0.1465  0.4641
  523MOL0     C72064   8.847  10.668   7.844  0.6848 -0.0817  1.3187
  523MOL0     C72065   8.671  10.620   7.660 -1.2885  0.9351 -0.5085
  523MOL0     C72066   8.642  10.764   7.636 -0.1683 -0.0531  0.2875
  523MOL0     O72067   8.723  10.860   7.676  0.5409 -0.1038 -0.1713
  523MOL0     C72068   8.705  10.984   7.622  0.3511 -0.0541  0.3896
  523MOL0     C72069   8.663  11.082   7.705 -1.0403  0.1277 -0.1503
  523MOL0     C72070   8.653  11.212   7.650 -0.6131  0.9334 -0.1825
  523MOL0     C72071   8.677  11.242   7.514  0.2713  0.5937  0.1426
  523MOL0     O72072   8.669  11.362   7.441  0.3871  0.0741 -0.4378
  523MOL0     C72073   8.708  11.488   7.513 -0.6183  0.8476  0.2690
  523MOL0     C72074   8.692  11.603   7.407  0.1224  0.2273  0.7741
  523MOL0     C72075   8.700  11.740   7.477 -0.2792 -0.4662 -0.0069
  523MOL0     C72076   8.706  11.853   7.374  1.7038 -0.1400 -0.0542
  523MOL0     C72077   8.786  11.976   7.416 -0.2045 -0.5206 -0.4708
  523MOL0     C72078   8.945  11.955   7.430 -0.9825  0.9247 -0.9032
  523MOL0     C72079   8.982  11.897   7.576 -0.1126  1.0854  0.8440
  523MOL0     C72080   9.052  11.757   7.554 -0.2021 -0.2048 -0.5318
  523MOL0    Cl72081   9.070  11.655   7.711  0.1556 -0.5097  0.0401
  523MOL0     C72082   8.715  11.130   7.436  0.3931 -0.4669 -0.2819
  523MOL0     C72083   8.737  11.004   7.489 -0.5238  0.8089 -0.3513
  523MOL0     O72084   8.544  10.782   7.567  0.3930  0.2428  0.1581
  523MOL0     C72085   8.595  10.514   7.604 -0.6375  0.0196  0.1096
  523MOL0     C72086   8.612  10.382   7.640  0.1439  0.3570  0.0059
  523MOL0     N72087   9.077   9.614   7.587 -0.3850 -0.1276 -0.1029
  523MOL0     N72088   9.071   9.490   7.589  0.8595  0.8477  0.0405
  523MOL0     C72089   9.139   9.459   6.860 -0.5087  0.5465 -0.6842
  523MOL0     C72090   9.243   9.462   6.764 -0.2396 -0.3404  0.0769
  523MOL0     C72091   9.533   9.311   6.467 -0.0733  0.8747 -0.2669
  523MOL0     C72092   9.577   9.443   6.469 -0.0055 -0.8126 -0.3848
  523MOL0     C72093   9.671   9.489   6.376 -0.2864  0.1768 -0.0435
  523MOL0     C72094   9.736   9.403   6.286 -0.1950 -0.1093 -1.2974
  523MOL0     O72095   9.827   9.460   6.205 -1.1153 -0.2515 -0.5275
  523MOL0     C72096   9.893   9.375   6.114 -0.4158 -0.3678 -0.1694
  523MOL0     C72097   9.978   9.458   6.020  0.4667  0.4507 -0.0375
  523MOL0     C72098  10.058   9.365   5.926 -0.7772 -0.4153  0.1072
  523MOL0     C72099  10.154   9.439   5.827 -0.5081 -0.4855 -0.3993
  523MOL0     C72100  10.267   9.352   5.798 -0.9203  0.3799 -0.1838
  523MOL0     C72101  10.365   9.280   5.783 -0.5681  0.6881 -0.6323
  523MOL0     C72102   9.681   9.277   6.274 -0.1451  0.2493  0.5497
  523MOL0     C72103   9.591   9.226   6.364 -0.4780 -0.8183  0.0117
  523MOL0     C72104   9.547   9.082   6.339  0.3273 -0.0181 -0.0191
  523MOL0     H72105   9.322   9.128   6.769  1.2359  0.3330 -0.6971
  523MOL0     H72106   9.145   9.123   6.926  0.2289  0.1773  1.0531
  523MOL0     H72107   8.851   9.323   6.829  2.0634 -1.5524  0.2429
  523MOL0     H72108   8.851   9.481   6.910 -0.0407 -0.8280 -2.7891
  523MOL0     H72109   8.651   9.303   6.954  1.3391  0.8748 -2.6822
  523MOL0     H72110   8.761   9.200   7.023 -0.5765 -0.1580 -1.4988
  523MOL0     H72111   8.818   9.382   7.192  0.3231 -2.1136  0.7808
  523MOL0     H72112   8.673   9.466   7.138  0.4374  0.5929  0.4558
  523MOL0     H72113   8.540   9.275   7.167 -0.5557  2.0200  0.9238
  523MOL0     H72114   8.673   9.186   7.243 -1.4045  0.5751  2.0635
  523MOL0     H72115   8.544   9.257   7.415  2.0996 -3.0876 -0.0251
  523MOL0     H72116   8.574   9.438   7.376  0.4888  0.8708  1.1129
  523MOL0     H72117   8.803   9.253   7.402 -0.9910 -1.7092  0.7702
  523MOL0     H72118   8.808   9.425   7.412 -1.9371 -0.8955 -1.6058
  523MOL0     H72119   8.685   9.230   7.618 -4.2591  3.4075  3.0035
  523MOL0     H72120   8.704   9.393   7.652  2.7560  2.1813 -0.4389
  523MOL0     H72121   8.888   9.262   7.756  0.6114 -1.6586 -0.2703
  523MOL0     H72122   8.957   9.265   7.581 -1.0050  3.9406 -3.0575
  523MOL0     H72123   8.802   9.587   7.760 -0.0247  0.3032  0.2335
  523MOL0     H72124   9.034   9.859   7.678  0.5354 -1.6565 -1.4693
  523MOL0     H72125   8.908   9.823   7.790 -1.8150 -1.8324  0.4890
  523MOL0     H72126   8.851   9.908   7.500  0.6402  1.6754  1.5888
  523MOL0     H72127   8.754   9.791   7.573 -0.8089  0.1619 -0.1058
  523MOL0     H72128   8.633   9.962   7.652  0.4814  1.6506 -3.4868
  523MOL0     H72129   8.755   9.948   7.784  1.8619 -3.6771 -0.6476
  523MOL0     H72130   8.889  10.148   7.641 -0.2002  2.5151  2.8133
  523MOL0     H72131   8.733  10.148   7.555  0.2039 -0.4652 -0.5291
  523MOL0     H72132   8.859  10.408   7.861 -3.9926 -2.6033  2.1065
  523MOL0     H72133   8.920  10.720   7.781  0.6649 -2.8162 -1.1241
  523MOL0     H72134   8.899  10.612   7.922 -1.5181 -0.5527  2.5588
  523MOL0     H72135   8.792  10.751   7.891  0.8541  2.9859 -3.2379
  523MOL0     H72136   8.624  11.049   7.801 -0.0853  0.7114  0.4512
  523MOL0     H72137   8.624  11.288   7.722 -1.0500  0.9253 -0.3467
  523MOL0     H72138   8.662  11.500   7.612  1.4478  0.8643  1.2706
  523MOL0     H72139   8.816  11.483   7.529 -0.9347 -1.8849  2.1852
  523MOL0     H72140   8.765  11.594   7.326 -1.2992 -3.2292 -0.3196
  523MOL0     H72141   8.597  11.585   7.356  0.3601 -0.9588  0.7259
  523MOL0     H72142   8.781  11.739   7.551  1.0795 -0.6117 -1.4602
  523MOL0     H72143   8.610  11.760   7.538  1.3134  0.8269  2.0546
  523MOL0     H72144   8.603  11.884   7.352  1.7955  0.0918 -0.1628
  523MOL0     H72145   8.755  11.811   7.286  2.2010 -2.1169  1.1171
  523MOL0     H72146   8.772  12.060   7.348 -3.2914  0.4852  1.2238
  523MOL0     H72147   8.737  12.007   7.509  1.1601 -1.1624  0.5095
  523MOL0     H72148   9.005  12.045   7.415  1.5932 -0.6822 -0.8785
  523MOL0     H72149   8.971  11.879   7.356 -1.0330  1.4155 -1.4364
  523MOL0     H72150   8.900  11.878   7.646  0.1608  1.8026  1.3736
  523MOL0     H72151   9.052  11.961   7.631  1.3589  0.1911  0.0728
  523MOL0     H72152   9.154  11.775   7.519 -0.5006 -1.4898 -2.2320
  523MOL0     H72153   8.998  11.692   7.483 -0.6781 -1.8977  1.2914
  523MOL0     H72154   8.739  11.136   7.330  0.4292 -0.2598 -0.2640
  523MOL0     H72155   8.783  10.920   7.439 -1.7534 -2.6158  3.6619
  523MOL0     H72156   8.523  10.552   7.532  0.7762  2.3346 -0.1617
  523MOL0     H72157   8.538  10.314   7.598 -0.0849  1.3498 -1.2650
  523MOL0     H72158   9.083   9.547   6.890 -1.5581 -1.2923  3.4091
  523MOL0     H72159   9.281   9.548   6.712  0.4481 -1.3653 -1.1692
  523MOL0     H72160   9.539   9.507   6.548 -1.2133 -2.6817  0.6275
  523MOL0     H72161   9.716   9.587   6.367 -0.8432  0.2844 -2.5569
  523MOL0     H72162   9.957   9.306   6.170 -1.2901 -0.0212  1.3242
  523MOL0     H72163   9.823   9.324   6.047 -2.9972  1.9981  0.5557
  523MOL0     H72164  10.051   9.521   6.072  2.8856 -2.0263 -0.1684
  523MOL0     H72165   9.911   9.521   5.961  0.1758 -0.2737 -0.4937
  523MOL0     H72166  10.107   9.287   5.985 -0.1082 -0.2933 -0.2720
  523MOL0     H72167   9.983   9.315   5.865 -1.6194 -1.0063  1.5876
  523MOL0     H72168  10.190   9.536   5.862  0.1612 -0.3128 -1.5275
  523MOL0     H72169  10.097   9.468   5.738  0.0754  2.1531 -0.0019
  523MOL0     H72170  10.452   9.218   5.782  0.7221  2.3148 -3.3903
  523MOL0     H72171   9.722   9.208   6.201 -0.5376  1.4820 -0.8789
  523MOL0     H72172   9.449   9.082   6.292 -0.5214  1.1949  1.6316
  523MOL0     H72173   9.622   9.026   6.283  0.8778  0.3973  0.2882
  523MOL0     H72174   9.541   9.041   6.440 -1.3317  1.4910  0.5495
  524MOL0     O72175   4.095  10.808   7.069  0.3297  0.4328 -0.6419
  524MOL0     C72176   4.137  10.853   6.965  0.8192  0.6966 -0.0152
  524MOL0     O72177   4.087  10.836   6.844  0.1794  0.3452  0.2188
  524MOL0     C72178   3.985  10.751   6.832  0.1974  0.4461  0.4251
  524MOL0     C72179   4.005  10.638   6.749  0.4763 -0.2054  0.0814
  524MOL0     C72180   3.899  10.556   6.730  0.9760  0.4012 -1.0684
  524MOL0     C72181   3.769  10.585   6.777 -0.4241  0.1682 -0.1449
  524MOL0     O72182   3.673  10.494   6.758 -0.0954 -0.6092  0.5285
  524MOL0     C72183   3.628  10.485   6.616 -0.1066 -0.4660 -0.4259
  524MOL0     C72184   3.480  10.463   6.587 -0.2066 -0.1475  1.3638
  524MOL0     C72185   3.417  10.318   6.603  0.0895 -0.5708  0.4284
  524MOL0     C72186   3.421  10.267   6.748 -0.2975 -0.5541  0.1685
  524MOL0     C72187   3.341  10.137   6.751  0.0310 -0.5554 -0.0796
  524MOL0     C72188   3.370  10.038   6.869  0.1891 -0.7845 -0.4337
  524MOL0     C72189   3.516   9.987   6.851  1.0819  0.1506 -1.0285
  524MOL0     C72190   3.535   9.866   6.955 -0.3712  0.2059  2.3729
  524MOL0     N72191   3.541   9.899   7.096 -0.5233  1.2270  1.1975
  524MOL0     C72192   3.648   9.955   7.167 -0.2870 -0.2859 -0.8560
  524MOL0     C72193   3.604   9.955   7.298 -0.3904 -0.5851 -0.9342
  524MOL0     C72194   3.687  10.007   7.418  0.0795 -0.1984 -0.0991
  524MOL0     C72195   3.597  10.054   7.537 -0.0336  0.5251 -0.0074
  524MOL0     C72196   3.553  10.207   7.526 -0.1808  0.0940 -0.6247
  524MOL0     C72197   3.462  10.242   7.640 -0.3809 -0.4686  0.0826
  524MOL0     O72198   3.511  10.185   7.765 -1.0000 -0.3079  0.4318
  524MOL0     C72199   3.570  10.268   7.852  0.3326 -1.1268 -0.6104
  524MOL0     C72200   3.666  10.371   7.823 -0.2185  0.1166  1.0728
  524MOL0     C72201   3.728  10.450   7.922  0.7229  1.2181  0.5321
  524MOL0     C72202   3.834  10.549   7.867 -0.1345  0.4289 -0.7500
  524MOL0     C72203   3.688  10.433   8.062  1.2478  0.6504 -0.3890
  524MOL0     C72204   3.766  10.495   8.174 -0.1769  0.6103  0.4636
  524MOL0     O72205   3.853  10.591   8.161  0.2464 -0.4569 -0.2861
  524MOL0     C72206   3.919  10.654   8.260  0.0427 -0.4534 -0.6030
  524MOL0     C72207   3.964  10.599   8.379 -0.4973  0.6735  0.3714
  524MOL0     C72208   4.029  10.676   8.478  0.8676  0.1713  0.2105
  524MOL0     C72209   4.050  10.814   8.470  0.0165  0.4033  0.0220
  524MOL0     O72210   4.100  10.890   8.579 -0.2403 -0.2715  0.5896
  524MOL0     C72211   4.116  11.026   8.560 -0.2489  0.0087 -0.0435
  524MOL0     C72212   4.173  11.086   8.687  0.2016 -0.5303 -0.8536
  524MOL0     C72213   4.315  11.044   8.724  0.4001 -1.2087 -0.0284
  524MOL0     C72214   4.421  11.076   8.611  0.3791 -0.7902 -0.1989
  524MOL0     C72215   4.560  11.063   8.636  0.7315 -0.0405  0.4950
  524MOL0     C72216   4.637  11.051   8.504  0.0169 -0.1273  0.3617
  524MOL0     C72217   4.787  11.067   8.529 -0.4039 -0.4624  0.0296
  524MOL0     C72218   4.852  11.050   8.389 -0.1482 -0.6309  0.4337
  524MOL0    Cl72219   5.025  11.071   8.417  0.0857 -0.2218  0.0117
  524MOL0     C72220   4.001  10.878   8.358  0.3431  0.6057  0.1896
  524MOL0     C72221   3.936  10.802   8.254 -0.5087  0.1975  0.2487
  524MOL0     O72222   3.728  10.455   8.284 -0.2208 -0.2753 -0.2506
  524MOL0     C72223   3.589  10.341   8.088 -0.2232 -0.4686 -0.1676
  524MOL0     C72224   3.535  10.261   7.989 -0.5330  0.6936 -0.4720
  524MOL0     N72225   3.472   9.915   7.301  0.1766  0.3525 -1.1336
  524MOL0     N72226   3.439   9.887   7.186  0.7408 -0.2992  0.2121
  524MOL0     C72227   3.749  10.704   6.838 -0.0658 -0.2642 -0.8483
  524MOL0     C72228   3.857  10.789   6.875  1.0679 -0.2845 -0.2467
  524MOL0     C72229   4.259  10.927   6.978 -0.9491 -0.6328  0.3573
  524MOL0     C72230   4.338  10.932   6.866 -0.5439  0.8587  0.3434
  524MOL0     C72231   4.458  11.000   6.860  0.9330 -0.2849  0.3521
  524MOL0     C72232   4.508  11.058   6.973  0.4764  1.0763  0.4651
  524MOL0     O72233   4.622  11.119   6.971 -0.4852 -0.3355 -0.2560
  524MOL0     C72234   4.661  11.205   6.859 -0.1486  0.8073  0.2095
  524MOL0     C72235   4.772  11.288   6.903  0.5115  0.0400 -0.4673
  524MOL0     C72236   4.748  11.402   7.001  0.1693  0.0087  0.5348
  524MOL0     C72237   4.689  11.377   7.141  0.4845 -0.5868 -0.5082
  524MOL0     C72238   4.714  11.481   7.244  0.3341 -0.0543  0.3173
  524MOL0     C72239   4.736  11.563   7.329 -0.5729  0.6248 -0.1978
  524MOL0     C72240   4.431  11.058   7.090  0.2250 -0.5844 -0.5407
  524MOL0     C72241   4.302  11.006   7.091  0.1473  0.6908 -0.3073
  524MOL0     C72242   4.224  11.023   7.221 -0.2857 -0.0192 -0.1093
  524MOL0     H72243   4.104  10.616   6.709  1.1349  0.1372  1.4376
  524MOL0     H72244   3.920  10.457   6.692  2.0466 -0.2161  1.0012
  524MOL0     H72245   3.686  10.405   6.570  0.7997  0.2303 -0.5074
  524MOL0     H72246   3.658  10.581   6.575 -0.4761  0.4963  1.4347
  524MOL0     H72247   3.426  10.543   6.638  1.1187  0.3218  2.0775
  524MOL0     H72248   3.459  10.483   6.481  1.1350 -3.1646  0.4183
  524MOL0     H72249   3.318  10.313   6.557  0.4552  0.7052 -0.5734
  524MOL0     H72250   3.482  10.252   6.545  0.4859 -1.6726  2.0736
  524MOL0     H72251   3.528  10.250   6.763  0.3359  1.8312 -1.1038
  524MOL0     H72252   3.378  10.344   6.812 -2.0536 -1.9198  0.7310
  524MOL0     H72253   3.357  10.091   6.654  3.4266  2.1160 -0.9954
  524MOL0     H72254   3.236  10.165   6.768  0.4549  0.1588  1.5687
  524MOL0     H72255   3.338  10.095   6.957  0.5547 -0.6132 -0.4105
  524MOL0     H72256   3.298   9.956   6.866 -1.2640  0.4367  0.0765
  524MOL0     H72257   3.580  10.071   6.879  3.3819 -1.9384  0.3058
  524MOL0     H72258   3.546   9.949   6.753  3.0746 -2.5308  0.4842
  524MOL0     H72259   3.462   9.788   6.931 -1.1283  1.9428 -1.8631
  524MOL0     H72260   3.631   9.820   6.932 -1.4816 -0.3809 -1.9668
  524MOL0     H72261   3.748   9.982   7.136 -0.2444  0.0243 -0.4659
  524MOL0     H72262   3.756  10.088   7.395  0.1308 -0.0266  0.6241
  524MOL0     H72263   3.752   9.927   7.454 -0.0677 -0.6216 -0.7608
  524MOL0     H72264   3.514   9.985   7.555  1.7041 -1.7157 -0.0739
  524MOL0     H72265   3.656  10.048   7.629  3.1697  1.8803 -1.8013
  524MOL0     H72266   3.642  10.267   7.545  1.0678 -1.2099 -2.1239
  524MOL0     H72267   3.513  10.225   7.426  0.7778  1.6997 -0.7569
  524MOL0     H72268   3.456  10.351   7.639  0.3569 -0.3392  2.6209
  524MOL0     H72269   3.361  10.202   7.624 -0.7660 -0.6091  2.4546
  524MOL0     H72270   3.686  10.382   7.717 -2.3780  2.8353  0.7997
  524MOL0     H72271   3.930  10.548   7.919 -0.4204  2.7964 -0.0549
  524MOL0     H72272   3.793  10.650   7.873 -3.7995 -0.9870  1.3900
  524MOL0     H72273   3.855  10.520   7.763 -1.9621 -4.6177  0.0274
  524MOL0     H72274   3.958  10.493   8.403 -0.1044  0.0876 -1.8628
  524MOL0     H72275   4.060  10.625   8.568 -4.8502 -1.3992  1.6818
  524MOL0     H72276   4.174  11.055   8.472 -1.7072  2.6683 -0.2222
  524MOL0     H72277   4.022  11.079   8.544 -0.8921 -1.2926 -0.7197
  524MOL0     H72278   4.186  11.194   8.670  5.2968 -0.4535  1.4444
  524MOL0     H72279   4.104  11.082   8.771 -1.6408 -1.1414 -2.3389
  524MOL0     H72280   4.318  10.937   8.750 -1.8619 -1.2987  0.0124
  524MOL0     H72281   4.350  11.102   8.810  1.4587  0.7657 -1.7211
  524MOL0     H72282   4.416  11.183   8.588  1.7499 -0.3799  1.1670
  524MOL0     H72283   4.385  11.029   8.519  2.8792 -3.1445 -0.0939
  524MOL0     H72284   4.586  11.157   8.686 -1.1044  0.0191  1.3772
  524MOL0     H72285   4.570  10.976   8.701 -1.3198 -0.5954  0.1111
  524MOL0     H72286   4.602  11.136   8.445  0.4353 -0.4259 -0.3267
  524MOL0     H72287   4.619  10.960   8.447  2.9756 -1.3681  1.2176
  524MOL0     H72288   4.823  10.986   8.593  0.3167  0.4435  0.7931
  524MOL0     H72289   4.794  11.165   8.577 -3.4406 -0.5615  0.8872
  524MOL0     H72290   4.821  11.136   8.330  0.2704 -0.2966  0.6986
  524MOL0     H72291   4.843  10.953   8.340  0.0378  0.6457 -2.2622
  524MOL0     H72292   4.011  10.986   8.350 -1.7688  0.9038  0.9197
  524MOL0     H72293   3.910  10.865   8.170  1.4871 -0.2455 -0.7636
  524MOL0     H72294   3.563  10.339   8.194  1.3270 -1.5819  0.2371
  524MOL0     H72295   3.453  10.201   8.025  1.3400 -1.8964 -0.1893
  524MOL0     H72296   3.645  10.718   6.863 -0.2835 -2.6780 -0.1665
  524MOL0     H72297   3.846  10.885   6.923  1.6512 -1.2527  1.9464
  524MOL0     H72298   4.311  10.878   6.777  1.2819  1.3946 -0.5927
  524MOL0     H72299   4.506  10.994   6.763  0.6372  0.7560  0.1269
  524MOL0     H72300   4.690  11.137   6.778 -1.5324  0.0883  0.2973
  524MOL0     H72301   4.583  11.273   6.822 -0.7789  0.6321  1.1839
  524MOL0     H72302   4.809  11.332   6.810 -0.1291 -0.7971 -1.1305
  524MOL0     H72303   4.845  11.221   6.948 -1.9836 -2.7251 -0.2091
  524MOL0     H72304   4.842  11.454   7.024  0.0991 -0.5571  2.3069
  524MOL0     H72305   4.683  11.473   6.949  0.6327 -0.4684 -0.7387
  524MOL0     H72306   4.738  11.292   7.191  1.5102  0.6871  0.7361
  524MOL0     H72307   4.581  11.359   7.143  0.5775 -1.1457  0.5857
  524MOL0     H72308   4.773  11.639   7.394  2.7926 -0.3114 -0.8283
  524MOL0     H72309   4.448  11.141   7.157 -1.5769  0.2327 -1.0335
  524MOL0     H72310   4.206  10.926   7.267  2.2700 -0.0177  1.0694
  524MOL0     H72311   4.260  11.098   7.293 -0.8985 -0.0400  0.2204
  524MOL0     H72312   4.126  11.060   7.188 -0.8218 -2.2446 -1.1726
  525MOL0     O72313  11.472   3.044   2.704  0.1077 -0.3993  1.1785
  525MOL0     C72314  11.443   2.994   2.599  0.4412 -1.2390  0.3361
  525MOL0     O72315  11.392   2.868   2.579  0.2213  0.2238  0.4330
  525MOL0     C72316  11.391   2.778   2.682 -0.5141  0.2473 -0.7533
  525MOL0     C72317  11.271   2.711   2.712 -0.0723  0.4553  0.2344
  525MOL0     C72318  11.260   2.605   2.798 -0.1888 -1.2557 -0.6681
  525MOL0     C72319  11.373   2.578   2.882  0.5116  0.8554 -0.3961
  525MOL0     O72320  11.368   2.473   2.963  0.0972 -0.0072 -0.0116
  525MOL0     C72321  11.269   2.485   3.069  0.2352 -0.0639  0.4613
  525MOL0     C72322  11.285   2.380   3.180  0.5534  0.1246  0.4726
  525MOL0     C72323  11.420   2.356   3.243 -0.5005 -0.2428 -0.3874
  525MOL0     C72324  11.416   2.242   3.359 -1.1037  0.5808 -0.6503
  525MOL0     C72325  11.558   2.224   3.430 -0.1494 -0.4674 -0.5533
  525MOL0     C72326  11.540   2.115   3.537  0.1325 -0.3717 -0.1859
  525MOL0     C72327  11.663   2.037   3.582 -0.6436 -1.0115 -0.4375
  525MOL0     C72328  11.762   2.141   3.645 -1.3853  0.6192  0.0568
  525MOL0     N72329  11.887   2.089   3.707  0.1516 -0.2256  0.4274
  525MOL0     C72330  11.990   2.172   3.726 -0.1436  0.2692 -0.4150
  525MOL0     C72331  12.108   2.097   3.714 -0.0489 -0.0957 -0.6041
  525MOL0     C72332  12.259   2.148   3.713  0.3991  0.0884 -0.1990
  525MOL0     C72333  12.270   2.294   3.763  0.9663  0.1504  0.7873
  525MOL0     C72334  12.264   2.328   3.914 -0.4897  0.6422  0.6433
  525MOL0     C72335  12.319   2.466   3.947 -0.1036  0.6266 -0.5846
  525MOL0     O72336  12.260   2.566   3.863 -0.7094  0.0986  0.1412
  525MOL0     C72337  12.345   2.658   3.802  0.8067  0.8167 -0.9272
  525MOL0     C72338  12.436   2.734   3.877  0.2524 -0.0805  1.0373
  525MOL0     C72339  12.515   2.837   3.821 -0.3672  0.2098 -0.5337
  525MOL0     C72340  12.608   2.919   3.914  0.3298  0.5466 -0.1206
  525MOL0     C72341  12.502   2.861   3.680  0.2609 -0.3095  0.2472
  525MOL0     C72342  12.581   2.962   3.609 -0.4666  0.2329  0.2188
  525MOL0     O72343  12.541   2.972   3.475 -0.2936 -0.7745 -0.4456
  525MOL0     C72344  12.618   3.058   3.400 -0.1872  0.2644 -0.4391
  525MOL0     C72345  12.604   3.193   3.384  0.3909  0.1941  0.1955
  525MOL0     C72346  12.684   3.275   3.304 -0.2455 -0.7368 -0.5591
  525MOL0     C72347  12.788   3.219   3.234 -0.4561 -0.3352 -0.4583
  525MOL0     O72348  12.881   3.287   3.163 -0.4552 -0.3707  0.4516
  525MOL0     C72349  12.919   3.414   3.215  0.4326 -0.0288  0.7299
  525MOL0     C72350  13.034   3.471   3.137  0.1023 -0.1548  0.2169
  525MOL0     C72351  13.171   3.409   3.164 -0.2761  0.3859  0.0211
  525MOL0     C72352  13.281   3.442   3.060 -0.7447 -0.0421 -0.3539
  525MOL0     C72353  13.333   3.582   3.058  0.5394 -0.0864  0.3021
  525MOL0     C72354  13.251   3.678   2.969 -0.1078 -0.1276 -0.7676
  525MOL0     C72355  13.301   3.820   2.983 -0.3299 -0.1337  0.2121
  525MOL0     C72356  13.445   3.839   2.922  0.2765 -0.1597  0.6617
  525MOL0    Cl72357  13.457   3.834   2.739  0.2046 -0.0147  0.1420
  525MOL0     C72358  12.806   3.078   3.248  0.0848 -0.9245  0.4931
  525MOL0     C72359  12.713   2.996   3.327  0.1821 -1.0135 -0.3843
  525MOL0     O72360  12.672   3.014   3.662 -0.5060  0.0119 -0.4104
  525MOL0     C72361  12.411   2.776   3.602 -0.2607  0.1131  0.3012
  525MOL0     C72362  12.342   2.673   3.667  0.6258 -0.6272  0.4516
  525MOL0     N72363  12.076   1.967   3.681  0.2476  0.0532  0.1444
  525MOL0     N72364  11.943   1.965   3.677  0.1273 -0.6057  0.4759
  525MOL0     C72365  11.493   2.641   2.867 -0.1787 -0.4991  0.2658
  525MOL0     C72366  11.500   2.744   2.768  0.4217 -0.3938  0.0454
  525MOL0     C72367  11.460   3.079   2.484 -0.3874 -1.0840  0.1948
  525MOL0     C72368  11.477   3.010   2.366 -0.1530  0.2889 -0.0296
  525MOL0     C72369  11.512   3.082   2.252  0.3427 -0.9884  0.1049
  525MOL0     C72370  11.528   3.222   2.248  0.2243 -0.2645  0.5816
  525MOL0     O72371  11.579   3.266   2.131 -0.1790  0.0710  0.1915
  525MOL0     C72372  11.589   3.407   2.118 -0.5952 -0.2024 -0.6252
  525MOL0     C72373  11.634   3.445   1.979  0.9464 -0.7416  0.9385
  525MOL0     C72374  11.524   3.413   1.872  0.0028 -0.3432  0.3494
  525MOL0     C72375  11.556   3.481   1.731 -0.2786  0.2988  0.0127
  525MOL0     C72376  11.517   3.623   1.741 -0.4852  0.0570 -0.0000
  525MOL0     C72377  11.464   3.732   1.743  0.1306  0.0542  0.2390
  525MOL0     C72378  11.504   3.294   2.359  0.4696 -0.5112  0.0428
  525MOL0     C72379  11.481   3.226   2.483 -1.0252  0.0289  0.6211
  525MOL0     C72380  11.488   3.306   2.617  0.4157 -0.3001 -0.1117
  525MOL0     H72381  11.191   2.733   2.642  3.0557 -0.0755 -3.8831
  525MOL0     H72382  11.165   2.555   2.800 -0.5688 -0.5310 -0.2108
  525MOL0     H72383  11.179   2.467   3.009  0.7600 -0.3696 -0.2528
  525MOL0     H72384  11.273   2.588   3.106  2.4030 -0.9782  3.0976
  525MOL0     H72385  11.206   2.399   3.253  0.7565 -0.1008  0.7543
  525MOL0     H72386  11.269   2.284   3.130 -1.1446  1.1078 -0.9776
  525MOL0     H72387  11.494   2.332   3.166  1.1905  3.2006 -0.0219
  525MOL0     H72388  11.456   2.444   3.296 -3.2066  0.2564  0.8184
  525MOL0     H72389  11.332   2.231   3.428  0.3263 -0.4968  1.0096
  525MOL0     H72390  11.415   2.149   3.301  2.5940 -1.6176  2.3498
  525MOL0     H72391  11.575   2.324   3.471 -1.2293 -0.0245 -1.1372
  525MOL0     H72392  11.630   2.188   3.356 -2.1443 -0.3446 -2.6722
  525MOL0     H72393  11.493   2.165   3.623  0.8934  0.3304 -0.1696
  525MOL0     H72394  11.471   2.040   3.496 -1.1325 -2.2884  4.7447
  525MOL0     H72395  11.710   2.001   3.490  0.2013  1.1430 -0.9223
  525MOL0     H72396  11.633   1.962   3.656 -0.0668  0.5703  1.5085
  525MOL0     H72397  11.792   2.231   3.589 -0.8113  0.7336  0.5340
  525MOL0     H72398  11.724   2.170   3.743 -1.0826 -2.4743  1.1850
  525MOL0     H72399  11.987   2.276   3.758 -0.0117 -0.8276  3.6681
  525MOL0     H72400  12.293   2.144   3.609  1.5036  1.2576  0.0869
  525MOL0     H72401  12.321   2.090   3.782  0.8195 -0.2156 -0.8264
  525MOL0     H72402  12.369   2.322   3.726 -0.2352  0.8041 -2.2206
  525MOL0     H72403  12.198   2.354   3.707  1.4096 -0.7992 -0.8591
  525MOL0     H72404  12.158   2.330   3.944 -1.3741 -3.0155 -1.6676
  525MOL0     H72405  12.323   2.251   3.964  0.8698  0.0046 -1.7993
  525MOL0     H72406  12.302   2.492   4.052 -0.0473  0.7136 -0.5974
  525MOL0     H72407  12.428   2.461   3.936 -0.0385 -0.6509  0.3022
  525MOL0     H72408  12.432   2.720   3.985 -0.2495 -1.1988  0.8806
  525MOL0     H72409  12.711   2.894   3.890 -0.7154 -3.9833 -0.7785
  525MOL0     H72410  12.603   2.892   4.020  0.5289  2.1328  0.3168
  525MOL0     H72411  12.588   3.026   3.909 -0.9792  0.5185  2.4905
  525MOL0     H72412  12.514   3.234   3.429  0.5448 -0.2249  0.9129
  525MOL0     H72413  12.659   3.380   3.292 -0.8084 -0.3239  3.1403
  525MOL0     H72414  12.839   3.488   3.206  2.5032  2.1395 -1.6592
  525MOL0     H72415  12.943   3.412   3.322  0.1508 -0.1623  0.7903
  525MOL0     H72416  13.012   3.460   3.031  1.6692  3.2629 -0.5959
  525MOL0     H72417  13.029   3.578   3.159 -2.3395 -0.1914  0.1016
  525MOL0     H72418  13.165   3.300   3.165  0.9382  0.2990 -0.6790
  525MOL0     H72419  13.204   3.435   3.265 -3.5842  2.9771  0.6310
  525MOL0     H72420  13.232   3.407   2.969 -2.3210 -1.2665  0.8948
  525MOL0     H72421  13.362   3.370   3.076  0.1137  1.0906  0.5944
  525MOL0     H72422  13.345   3.616   3.161 -1.6885  1.9516 -0.0221
  525MOL0     H72423  13.434   3.581   3.016  0.1380 -1.4874 -0.7285
  525MOL0     H72424  13.145   3.670   2.992 -0.1871 -1.3718 -1.4830
  525MOL0     H72425  13.255   3.642   2.866 -1.6477 -1.3773 -0.4145
  525MOL0     H72426  13.294   3.845   3.089 -2.8029 -0.1324  0.1074
  525MOL0     H72427  13.226   3.884   2.936 -0.4604 -1.1776 -1.0512
  525MOL0     H72428  13.510   3.763   2.966  1.2597  0.5308  0.4479
  525MOL0     H72429  13.484   3.939   2.944  0.1815  0.6821 -2.5222
  525MOL0     H72430  12.877   3.029   3.182  0.9491 -0.4775  1.0777
  525MOL0     H72431  12.726   2.888   3.327  0.9377 -0.9281  0.0672
  525MOL0     H72432  12.401   2.783   3.494 -0.9627  2.3701  0.4566
  525MOL0     H72433  12.273   2.610   3.611  1.1549  0.9793 -2.1911
  525MOL0     H72434  11.581   2.622   2.928 -0.0527 -1.1146 -0.1082
  525MOL0     H72435  11.591   2.801   2.755 -0.5472  1.2793  0.2817
  525MOL0     H72436  11.476   2.902   2.356 -3.3200  0.2061  0.3883
  525MOL0     H72437  11.543   3.037   2.158  0.2044 -0.8904  0.0126
  525MOL0     H72438  11.487   3.443   2.138  0.0194  0.1005  2.6317
  525MOL0     H72439  11.663   3.448   2.188  0.8480 -1.2290 -1.5030
  525MOL0     H72440  11.724   3.392   1.947  1.3875  2.5718 -4.6695
  525MOL0     H72441  11.659   3.552   1.975  0.3444 -0.6191 -0.3721
  525MOL0     H72442  11.536   3.308   1.845 -3.2006 -0.0985 -2.8889
  525MOL0     H72443  11.425   3.440   1.910  0.4086 -1.3314  2.2235
  525MOL0     H72444  11.507   3.435   1.645  0.5368 -0.4068 -0.0887
  525MOL0     H72445  11.665   3.468   1.722  0.3393 -0.7262  5.4606
  525MOL0     H72446  11.424   3.831   1.732  4.4985  2.1833  1.3807
  525MOL0     H72447  11.526   3.400   2.367  2.5999 -0.9096  0.1810
  525MOL0     H72448  11.583   3.293   2.669  1.4580  0.7042 -1.6624
  525MOL0     H72449  11.478   3.407   2.574  1.7867 -0.9883 -2.2079
  525MOL0     H72450  11.406   3.279   2.684  0.2401  1.2878  0.3652
  526MOL0     O72451  11.055   3.214   6.772 -0.0848 -0.5122 -0.0144
  526MOL0     C72452  11.078   3.149   6.667  0.5565  0.3997 -0.7566
  526MOL0     O72453  11.067   3.193   6.541 -0.3396 -0.1807 -0.3109
  526MOL0     C72454  11.025   3.320   6.523 -0.5673  0.0902 -0.0991
  526MOL0     C72455  11.124   3.412   6.484  0.5669 -0.0722  0.7747
  526MOL0     C72456  11.087   3.536   6.428 -0.2924  0.7814  0.8803
  526MOL0     C72457  10.956   3.567   6.417 -0.6324 -0.4056 -0.0589
  526MOL0     O72458  10.926   3.695   6.378  0.5615  0.4430  0.1811
  526MOL0     C72459  10.866   3.679   6.242 -0.7252  0.2143 -0.0180
  526MOL0     C72460  10.826   3.813   6.197  0.3954  0.1301 -0.7230
  526MOL0     C72461  10.783   3.810   6.045  0.4573 -0.0451 -0.2380
  526MOL0     C72462  10.690   3.936   6.014  0.0494  0.4239  0.1538
  526MOL0     C72463  10.784   4.052   5.966  0.8489  0.1303 -0.3806
  526MOL0     C72464  10.836   4.029   5.825 -0.1752 -0.8182  0.2701
  526MOL0     C72465  10.973   4.104   5.813  0.8631 -1.1997  0.2438
  526MOL0     C72466  11.024   4.090   5.667  0.1293  0.2268  0.0083
  526MOL0     N72467  10.938   4.141   5.564 -0.3264 -0.1616  0.7936
  526MOL0     C72468  10.902   4.070   5.450  0.1898 -0.0733  0.1229
  526MOL0     C72469  10.831   4.157   5.373 -0.7153 -0.5439  0.6129
  526MOL0     C72470  10.744   4.111   5.256  0.2123  0.0049 -0.0943
  526MOL0     C72471  10.772   4.216   5.154  0.3671 -0.8274 -0.1877
  526MOL0     C72472  10.910   4.222   5.093 -0.3043  0.0309  0.3624
  526MOL0     C72473  10.917   4.331   4.986 -0.3073 -0.3426 -0.5882
  526MOL0     O72474  11.041   4.342   4.913  0.3241  0.0752 -0.2833
  526MOL0     C72475  11.077   4.251   4.835 -0.8585  0.2259  0.5473
  526MOL0     C72476  10.991   4.154   4.787 -0.0633  0.0041 -0.1236
  526MOL0     C72477  11.025   4.068   4.678 -0.1342  0.5182 -0.3170
  526MOL0     C72478  10.915   3.983   4.627  0.8237 -0.9231  0.3308
  526MOL0     C72479  11.161   4.084   4.620  0.2453 -0.0014 -0.4269
  526MOL0     C72480  11.217   4.004   4.504 -0.3630 -0.0487 -0.3534
  526MOL0     O72481  11.345   3.974   4.512 -0.2617 -0.7222  0.3904
  526MOL0     C72482  11.404   3.900   4.420 -2.1919 -0.5505 -0.0735
  526MOL0     C72483  11.360   3.784   4.358 -0.3429  0.9911  0.4381
  526MOL0     C72484  11.446   3.725   4.260 -0.0086 -0.9098 -0.4432
  526MOL0     C72485  11.578   3.777   4.232  0.5924  0.6224 -0.5190
  526MOL0     O72486  11.663   3.719   4.142  0.0973  0.4007 -0.1014
  526MOL0     C72487  11.621   3.594   4.083 -0.2930 -0.9018  0.2382
  526MOL0     C72488  11.743   3.543   4.014 -0.3496 -0.0908 -0.2497
  526MOL0     C72489  11.857   3.516   4.116 -0.4825 -0.1099  0.3354
  526MOL0     C72490  11.975   3.462   4.041 -0.1474  0.6143  0.1350
  526MOL0     C72491  12.091   3.416   4.143  1.7726 -0.4120 -0.2022
  526MOL0     C72492  12.219   3.363   4.080  0.0190 -0.2516 -0.4180
  526MOL0     C72493  12.179   3.269   3.966  0.1799  0.4854  0.3838
  526MOL0     C72494  12.286   3.165   3.952 -0.1254 -0.2247  0.4253
  526MOL0    Cl72495  12.431   3.225   3.882  0.3899  0.1458 -0.4681
  526MOL0     C72496  11.613   3.901   4.291  0.1349 -0.2799  0.0758
  526MOL0     C72497  11.527   3.964   4.384 -0.0785  0.1446 -1.4395
  526MOL0     O72498  11.146   3.951   4.427  0.2661  0.1003  0.8727
  526MOL0     C72499  11.241   4.186   4.666 -0.2957  0.2734  0.2613
  526MOL0     C72500  11.204   4.275   4.767  0.0294 -0.0362  0.2820
  526MOL0     N72501  10.834   4.281   5.432 -0.3732  0.1466 -0.3535
  526MOL0     N72502  10.889   4.272   5.545  0.0074  0.2387  0.6875
  526MOL0     C72503  10.861   3.483   6.469 -0.6236  0.6658  0.4971
  526MOL0     C72504  10.886   3.356   6.522 -0.7388 -0.0334  0.1642
  526MOL0     C72505  11.136   3.012   6.673 -0.0188 -0.0342 -1.1439
  526MOL0     C72506  11.041   2.900   6.674 -0.9066 -0.3499 -0.4570
  526MOL0     C72507  11.088   2.777   6.711 -0.2697 -0.0336  0.1519
  526MOL0     C72508  11.225   2.762   6.746 -0.8357  0.5720  0.4772
  526MOL0     O72509  11.282   2.642   6.785 -0.5344 -0.5652  0.0727
  526MOL0     C72510  11.193   2.534   6.818  0.0453  1.7362 -0.6476
  526MOL0     C72511  11.168   2.437   6.691  0.9632 -0.3370 -0.6690
  526MOL0     C72512  11.281   2.422   6.598  0.0204  0.6332 -0.1381
  526MOL0     C72513  11.236   2.357   6.470  0.2860  0.5529  0.5385
  526MOL0     C72514  11.180   2.217   6.487 -0.6909 -0.5059 -1.3129
  526MOL0     C72515  11.141   2.108   6.518 -0.1473 -0.1975  0.9382
  526MOL0     C72516  11.313   2.869   6.741 -0.4371 -0.0033  0.7844
  526MOL0     C72517  11.273   2.991   6.690 -0.7564 -0.1587 -0.2710
  526MOL0     C72518  11.380   3.100   6.692 -0.5049  0.6796  0.5877
  526MOL0     H72519  11.223   3.370   6.468  0.0174 -1.1325  0.0723
  526MOL0     H72520  11.162   3.605   6.390  0.3712 -0.2549  0.2576
  526MOL0     H72521  10.789   3.602   6.248  3.0276 -3.9181  0.7969
  526MOL0     H72522  10.933   3.627   6.172 -1.1299  0.3007 -0.4781
  526MOL0     H72523  10.734   3.850   6.244 -0.1693  1.0757 -2.4739
  526MOL0     H72524  10.914   3.877   6.203  1.4991 -1.4379  0.8417
  526MOL0     H72525  10.877   3.799   5.990  1.6595 -1.4593  1.9879
  526MOL0     H72526  10.723   3.721   6.023 -1.1120  0.8280  0.3687
  526MOL0     H72527  10.623   3.907   5.932  3.2097  0.0508 -2.5149
  526MOL0     H72528  10.630   3.959   6.102 -0.1402  0.8248 -0.0770
  526MOL0     H72529  10.871   4.050   6.032  1.4952  1.6740 -1.1261
  526MOL0     H72530  10.737   4.150   5.980 -1.4255 -0.7463 -1.3390
  526MOL0     H72531  10.858   3.926   5.797 -1.7156 -1.2379  0.4893
  526MOL0     H72532  10.773   4.078   5.751 -0.1217 -0.1917  0.6312
  526MOL0     H72533  11.041   4.050   5.881 -0.0069 -3.4738 -0.5795
  526MOL0     H72534  10.960   4.210   5.833  0.4331 -1.6661  2.8269
  526MOL0     H72535  11.115   4.146   5.644 -0.2207  0.4843 -0.7809
  526MOL0     H72536  11.060   3.987   5.656  3.3022  1.0419  1.5754
  526MOL0     H72537  10.905   3.964   5.429 -0.0178  0.0522 -0.5701
  526MOL0     H72538  10.639   4.115   5.286  0.2363 -2.9085  0.7399
  526MOL0     H72539  10.778   4.011   5.228  2.6953  0.9174 -0.5126
  526MOL0     H72540  10.706   4.191   5.071  1.1729  3.0661 -2.2246
  526MOL0     H72541  10.740   4.311   5.198 -1.7658 -1.2561 -0.7175
  526MOL0     H72542  10.976   4.260   5.172  0.7577  0.2666 -0.6042
  526MOL0     H72543  10.945   4.127   5.053  2.9536  0.4998  1.7681
  526MOL0     H72544  10.830   4.325   4.919  0.6701 -1.0610 -1.8387
  526MOL0     H72545  10.898   4.431   5.025  0.2890 -0.6041  0.3914
  526MOL0     H72546  10.895   4.135   4.833 -0.7601  1.7471 -0.7793
  526MOL0     H72547  10.947   3.907   4.555 -0.9766 -1.2720 -0.1430
  526MOL0     H72548  10.849   4.046   4.567  1.5863 -1.1165 -0.7486
  526MOL0     H72549  10.858   3.925   4.700  0.5627 -0.1773  0.7257
  526MOL0     H72550  11.268   3.736   4.389  0.1200 -0.4707 -0.3959
  526MOL0     H72551  11.409   3.634   4.214 -0.3463 -0.6243 -0.7503
  526MOL0     H72552  11.589   3.527   4.163 -1.9918  1.3210  1.4910
  526MOL0     H72553  11.552   3.605   3.999  0.7586 -0.4947 -0.5963
  526MOL0     H72554  11.723   3.450   3.960  2.4493 -0.1732 -1.3221
  526MOL0     H72555  11.778   3.611   3.935  0.0704 -2.1101 -1.8962
  526MOL0     H72556  11.831   3.443   4.193  0.6841 -0.3517  0.5133
  526MOL0     H72557  11.886   3.610   4.165  2.5692 -0.7004 -0.1240
  526MOL0     H72558  12.013   3.540   3.974 -0.4601  1.8711  1.3660
  526MOL0     H72559  11.934   3.383   3.978  0.7422 -1.0210  1.5201
  526MOL0     H72560  12.099   3.503   4.209 -2.0805 -1.2514  1.6803
  526MOL0     H72561  12.054   3.336   4.208 -0.0007  0.6321  0.1610
  526MOL0     H72562  12.279   3.312   4.155 -1.3857 -4.4091 -1.8056
  526MOL0     H72563  12.273   3.445   4.033 -2.1561  1.2752 -0.3887
  526MOL0     H72564  12.187   3.323   3.871  0.8328  0.4478  0.4091
  526MOL0     H72565  12.086   3.215   3.982  0.1175  1.1251  2.3950
  526MOL0     H72566  12.244   3.091   3.883 -1.9907  1.3460 -0.2287
  526MOL0     H72567  12.302   3.127   4.053 -2.4272  0.6557  1.1744
  526MOL0     H72568  11.710   3.947   4.277 -0.6701  1.0931 -1.4357
  526MOL0     H72569  11.570   4.045   4.442 -2.7929  0.9921 -0.4630
  526MOL0     H72570  11.340   4.190   4.622 -0.6738 -0.8889 -0.7506
  526MOL0     H72571  11.260   4.365   4.788  2.3631 -0.9130 -1.7014
  526MOL0     H72572  10.755   3.506   6.479 -0.8159 -0.9547  2.7295
  526MOL0     H72573  10.808   3.284   6.541 -2.2065  1.4374 -0.1117
  526MOL0     H72574  10.935   2.918   6.660 -1.0141 -1.6650 -1.5628
  526MOL0     H72575  11.003   2.710   6.728 -1.2067  0.7943 -1.0347
  526MOL0     H72576  11.244   2.477   6.896 -0.0319  0.3094 -1.6130
  526MOL0     H72577  11.097   2.567   6.858 -0.2358 -0.2315  0.4099
  526MOL0     H72578  11.088   2.486   6.636 -0.5919 -0.7722  1.1218
  526MOL0     H72579  11.126   2.339   6.718 -0.5606 -0.4154 -3.0843
  526MOL0     H72580  11.321   2.519   6.568 -0.3938  0.8924  0.1374
  526MOL0     H72581  11.356   2.361   6.652 -1.2293  2.0627  3.5336
  526MOL0     H72582  11.322   2.350   6.404 -1.4039 -1.6337 -1.5964
  526MOL0     H72583  11.163   2.423   6.421  0.4686  0.0672 -0.4008
  526MOL0     H72584  11.094   2.014   6.541 -0.9697 -0.1568 -0.4353
  526MOL0     H72585  11.416   2.866   6.774 -0.8690 -1.6725  2.0792
  526MOL0     H72586  11.325   3.193   6.714  0.0019  0.8946  0.9682
  526MOL0     H72587  11.456   3.095   6.771 -1.0472  3.8778  1.4512
  526MOL0     H72588  11.428   3.106   6.594 -0.2466 -1.0271  0.5834
  527MOL0     O72589  11.342   1.971  10.440  0.0495  0.1938 -0.5077
  527MOL0     C72590  11.404   2.024  10.341  0.0438 -0.1075 -0.9717
  527MOL0     O72591  11.473   1.958  10.247 -0.4453  0.4723  0.2972
  527MOL0     C72592  11.531   1.839  10.283 -0.2752 -0.7298 -0.6268
  527MOL0     C72593  11.459   1.722  10.330  0.0899 -0.5124 -0.6388
  527MOL0     C72594  11.522   1.596  10.340  0.1399 -0.1710 -0.5778
  527MOL0     C72595  11.655   1.592  10.315  0.8210 -0.5344 -0.5477
  527MOL0     O72596  11.713   1.469  10.317  0.3782 -0.0196 -0.2032
  527MOL0     C72597  11.743   1.425  10.453 -0.0954 -0.2958 -0.2548
  527MOL0     C72598  11.754   1.271  10.465 -0.0265 -0.5478  0.0659
  527MOL0     C72599  11.867   1.219  10.373  0.9101 -0.2258  0.4001
  527MOL0     C72600  11.935   1.085  10.416  0.2901  0.6166 -0.4038
  527MOL0     C72601  11.988   1.012  10.287 -0.3444 -0.0415 -0.3595
  527MOL0     C72602  12.116   1.080  10.242 -0.5731  0.5552 -0.8737
  527MOL0     C72603  12.203   0.988  10.152  0.3289 -0.2794  0.1393
  527MOL0     C72604  12.338   1.047  10.128  0.5173 -0.3792  0.0706
  527MOL0     N72605  12.436   0.969  10.063  0.3007  1.5564  0.9468
  527MOL0     C72606  12.470   0.981   9.931 -0.9668 -0.1188 -0.2618
  527MOL0     C72607  12.575   0.899   9.907  0.2973  0.0161  0.7985
  527MOL0     C72608  12.640   0.894   9.773 -0.2320  0.1073  0.2083
  527MOL0     C72609  12.701   1.024   9.722  0.0186  0.5617  0.2752
  527MOL0     C72610  12.799   1.095   9.817  0.0462 -0.5961  0.3143
  527MOL0     C72611  12.926   1.019   9.855 -0.4213  0.3328 -0.3254
  527MOL0     O72612  13.021   1.108   9.897 -0.7597  0.0241  0.5201
  527MOL0     C72613  13.123   1.146   9.806  0.5727 -0.9963  0.0423
  527MOL0     C72614  13.242   1.197   9.853 -0.0783 -0.6033 -0.2191
  527MOL0     C72615  13.351   1.233   9.780  0.7257  1.3788  0.0077
  527MOL0     C72616  13.463   1.289   9.853 -0.8389  0.1881  0.0417
  527MOL0     C72617  13.340   1.215   9.637  1.1704  0.6533  0.0274
  527MOL0     C72618  13.444   1.268   9.544  0.4283  0.6592  0.3049
  527MOL0     O72619  13.572   1.277   9.575 -0.0151 -0.4485 -0.2785
  527MOL0     C72620  13.674   1.317   9.489  0.8290  0.3319  0.2153
  527MOL0     C72621  13.672   1.397   9.369  0.5140  0.3397  0.2223
  527MOL0     C72622  13.786   1.412   9.300  0.4353 -0.1663  1.0101
  527MOL0     C72623  13.906   1.356   9.332  0.8918  0.1553  0.2935
  527MOL0     O72624  14.020   1.392   9.282 -0.0821 -0.3662 -0.2854
  527MOL0     C72625  14.044   1.310   9.163  0.1844 -0.3465  0.3639
  527MOL0     C72626  14.183   1.355   9.118 -0.3569  0.2370 -0.3270
  527MOL0     C72627  14.289   1.316   9.220  0.1375 -0.4763 -0.6478
  527MOL0     C72628  14.405   1.427   9.211 -0.1023 -0.3472 -0.3040
  527MOL0     C72629  14.537   1.391   9.254 -0.9319 -0.4040  0.7511
  527MOL0     C72630  14.641   1.499   9.222  0.4264  0.1506  1.0579
  527MOL0     C72631  14.772   1.467   9.285 -0.4416 -0.4807 -0.7284
  527MOL0     C72632  14.845   1.596   9.320 -0.4749 -0.2853  0.3778
  527MOL0    Cl72633  14.896   1.694   9.168 -0.4380  0.5262 -0.2219
  527MOL0     C72634  13.914   1.272   9.444  0.0935  0.9080  0.1389
  527MOL0     C72635  13.796   1.261   9.519 -1.2303 -0.9913 -0.3340
  527MOL0     O72636  13.400   1.282   9.427  0.6366  0.0987  0.7882
  527MOL0     C72637  13.225   1.153   9.584 -0.1843  0.5786 -0.3378
  527MOL0     C72638  13.117   1.121   9.667 -0.5962  0.1415 -0.3502
  527MOL0     N72639  12.621   0.853  10.029 -0.3725 -0.8444 -0.2241
  527MOL0     N72640  12.533   0.891  10.121  0.1367  0.5655  0.3830
  527MOL0     C72641  11.729   1.699  10.271  0.4446  0.0100  0.3930
  527MOL0     C72642  11.671   1.823  10.253 -0.5025 -0.0341  0.4895
  527MOL0     C72643  11.381   2.169  10.333 -0.6204 -0.7770  0.4660
  527MOL0     C72644  11.395   2.235  10.458  0.0297  0.3988  0.2362
  527MOL0     C72645  11.392   2.377  10.473  0.0486 -0.6585 -0.1107
  527MOL0     C72646  11.379   2.466  10.359 -0.3926 -0.2525  0.8258
  527MOL0     O72647  11.390   2.599  10.351 -0.0840  0.4507 -0.3442
  527MOL0     C72648  11.330   2.670  10.459  0.5701 -0.3981  0.1170
  527MOL0     C72649  11.357   2.823  10.449  0.1341  0.7167  0.0449
  527MOL0     C72650  11.316   2.869  10.313  1.2938  0.6310  0.2855
  527MOL0     C72651  11.283   3.020  10.304 -0.0257 -0.2893  1.1644
  527MOL0     C72652  11.395   3.111  10.345  0.7204  0.9043 -0.1244
  527MOL0     C72653  11.487   3.169  10.401  0.6453  0.1819 -0.0476
  527MOL0     C72654  11.369   2.404  10.235 -0.6861 -0.2916 -0.8405
  527MOL0     C72655  11.373   2.265  10.224 -0.9718  0.2964  0.8246
  527MOL0     C72656  11.364   2.204  10.087  0.5926  0.3011  0.1927
  527MOL0     H72657  11.352   1.721  10.347  0.3981 -0.7394  1.6503
  527MOL0     H72658  11.458   1.514  10.370 -1.2929  0.9124 -0.5432
  527MOL0     H72659  11.662   1.453  10.522 -0.7252 -0.0574 -1.0751
  527MOL0     H72660  11.837   1.466  10.491 -0.6436  1.1097 -0.3561
  527MOL0     H72661  11.769   1.244  10.570 -2.6500 -1.5000  0.2882
  527MOL0     H72662  11.661   1.225  10.431 -2.7403  3.2416  1.6333
  527MOL0     H72663  11.827   1.198  10.274  0.3646  0.1005  0.5469
  527MOL0     H72664  11.938   1.299  10.352  0.7181  0.7970  3.2351
  527MOL0     H72665  12.010   1.105  10.493  1.6311 -0.2465 -1.4305
  527MOL0     H72666  11.856   1.028  10.466  0.4499  2.2520  1.8856
  527MOL0     H72667  11.914   0.990  10.209 -0.4343  0.9154 -0.5560
  527MOL0     H72668  12.021   0.917  10.330  0.5793  1.0097  1.4116
  527MOL0     H72669  12.083   1.174  10.195 -1.0700  1.3084  0.8940
  527MOL0     H72670  12.179   1.107  10.328  0.4910 -1.0608 -1.1130
  527MOL0     H72671  12.146   0.979  10.059  0.4678  0.2309  0.0016
  527MOL0     H72672  12.217   0.888  10.194 -1.0214  0.0188  1.3731
  527MOL0     H72673  12.338   1.146  10.081  3.1736  0.3451  1.4272
  527MOL0     H72674  12.384   1.057  10.227  2.1043 -0.1740 -0.6578
  527MOL0     H72675  12.423   1.036   9.850 -0.0465  0.4000 -0.4589
  527MOL0     H72676  12.578   0.845   9.697 -0.3588 -0.2365  0.5324
  527MOL0     H72677  12.716   0.818   9.788 -2.6173 -2.4145  0.3639
  527MOL0     H72678  12.736   1.012   9.619 -2.0001  1.9155 -0.6386
  527MOL0     H72679  12.616   1.090   9.701  0.4206  1.2932  0.9229
  527MOL0     H72680  12.826   1.195   9.782 -1.3284 -0.3332 -0.0378
  527MOL0     H72681  12.746   1.120   9.909  1.0225  2.1732  0.2138
  527MOL0     H72682  12.914   0.948   9.937  3.9149 -0.4132 -0.0973
  527MOL0     H72683  12.949   0.960   9.767  1.3792  0.0874  0.2759
  527MOL0     H72684  13.239   1.217   9.959  2.3261  2.6464 -0.5996
  527MOL0     H72685  13.508   1.369   9.794 -0.4492 -1.1506 -1.5429
  527MOL0     H72686  13.523   1.209   9.897 -1.7787 -2.3234 -2.8754
  527MOL0     H72687  13.419   1.353   9.930 -2.4073  4.3057 -3.8076
  527MOL0     H72688  13.579   1.446   9.344  0.9478  1.0632  0.0058
  527MOL0     H72689  13.793   1.469   9.208  0.0452 -0.4965  0.7758
  527MOL0     H72690  14.043   1.201   9.168  0.1921 -0.3467  0.3648
  527MOL0     H72691  13.972   1.339   9.086  2.4916  3.3207 -0.6611
  527MOL0     H72692  14.212   1.295   9.032 -2.2908 -2.6794  0.9129
  527MOL0     H72693  14.182   1.462   9.095  0.3671  0.2641 -0.2415
  527MOL0     H72694  14.318   1.216   9.189 -0.6917 -1.8513  2.6218
  527MOL0     H72695  14.254   1.312   9.324  3.6912 -2.2566  0.6525
  527MOL0     H72696  14.371   1.513   9.270 -1.7725  0.8033 -2.7400
  527MOL0     H72697  14.401   1.465   9.108  0.7046  1.0952  0.1725
  527MOL0     H72698  14.546   1.373   9.361  2.0881 -0.7656  0.5243
  527MOL0     H72699  14.566   1.303   9.195 -1.5217 -0.4716  0.5618
  527MOL0     H72700  14.611   1.602   9.245 -0.2762  0.7914 -2.2745
  527MOL0     H72701  14.643   1.503   9.113  1.9269 -1.3821  0.9923
  527MOL0     H72702  14.830   1.408   9.214 -2.9346 -0.1141 -3.2251
  527MOL0     H72703  14.752   1.407   9.375 -1.1951  0.2522 -0.3980
  527MOL0     H72704  14.930   1.565   9.381  0.7717 -1.7621 -1.9692
  527MOL0     H72705  14.774   1.658   9.376 -0.1606 -1.0413  1.6448
  527MOL0     H72706  14.006   1.217   9.465 -0.1957  1.0811  2.0158
  527MOL0     H72707  13.806   1.192   9.602  1.2089 -1.2505 -0.7549
  527MOL0     H72708  13.218   1.128   9.479 -0.5325 -0.2553 -0.1260
  527MOL0     H72709  13.033   1.067   9.624  1.1139 -2.8951 -0.1156
  527MOL0     H72710  11.828   1.679  10.232 -0.6967 -1.6899 -1.8658
  527MOL0     H72711  11.737   1.904  10.223  2.3622 -3.1691 -2.5755
  527MOL0     H72712  11.412   2.172  10.545 -0.3518 -0.4880 -0.3104
  527MOL0     H72713  11.399   2.416  10.574 -4.4413 -4.3100  1.9942
  527MOL0     H72714  11.225   2.644  10.479  0.5966 -1.0498 -0.5358
  527MOL0     H72715  11.396   2.634  10.539 -1.0992 -1.9063  0.9018
  527MOL0     H72716  11.461   2.846  10.475  0.5232 -2.1474  1.4489
  527MOL0     H72717  11.291   2.874  10.519 -1.3700 -1.0213 -0.0515
  527MOL0     H72718  11.393   2.843  10.239  3.0619  0.6659  2.0315
  527MOL0     H72719  11.220   2.824  10.288  0.8273  2.5454 -1.6806
  527MOL0     H72720  11.194   3.045  10.363  1.3995  0.6089  3.0638
  527MOL0     H72721  11.252   3.062  10.208  0.0045 -0.0486  1.2592
  527MOL0     H72722  11.554   3.224  10.463  0.1433  0.1718  0.5040
  527MOL0     H72723  11.364   2.466  10.146  0.6565 -2.3034 -2.4166
  527MOL0     H72724  11.286   2.127  10.088 -2.8101  3.4177  0.5276
  527MOL0     H72725  11.323   2.272  10.012  0.8389  0.8362  0.5341
  527MOL0     H72726  11.462   2.166  10.059  0.0260  0.8059 -2.7798
  528MOL0     O72727   7.436   9.164  11.337 -0.6205  1.5389 -0.2618
  528MOL0     C72728   7.387   9.065  11.400 -0.1318  0.0528 -0.1057
  528MOL0     O72729   7.466   8.981  11.473  1.0100  0.0996  0.4975
  528MOL0     C72730   7.589   9.042  11.495  0.4568  0.4267  1.3669
  528MOL0     C72731   7.601   9.123  11.605 -1.2987 -0.7758 -0.8039
  528MOL0     C72732   7.726   9.162  11.630 -0.9593 -0.4776 -0.6584
  528MOL0     C72733   7.843   9.138  11.542 -0.2357 -0.1935 -0.3007
  528MOL0     O72734   7.960   9.204  11.574  0.0346  1.4057 -0.5172
  528MOL0     C72735   8.060   9.136  11.646 -1.1008  0.4134  0.4073
  528MOL0     C72736   8.198   9.208  11.642 -0.1197  0.1464 -0.2728
  528MOL0     C72737   8.194   9.330  11.737  0.2426  0.3953 -0.4439
  528MOL0     C72738   8.344   9.380  11.733  0.0124 -0.3080  0.1873
  528MOL0     C72739   8.385   9.494  11.833 -0.3605 -0.0046  0.5081
  528MOL0     C72740   8.305   9.628  11.817  1.1037 -0.3245  0.7111
  528MOL0     C72741   8.309   9.712  11.952 -0.8008 -1.2119 -0.0679
  528MOL0     C72742   8.453   9.736  12.004  0.0036  0.7503  0.3744
  528MOL0     N72743   8.449   9.786  12.143 -0.6963  0.2035  0.0822
  528MOL0     C72744   8.486   9.707  12.253 -0.2130  0.8506 -0.3391
  528MOL0     C72745   8.496   9.794  12.351 -0.2083  0.3478 -0.2097
  528MOL0     C72746   8.530   9.774  12.495  0.3747  0.6306 -0.1746
  528MOL0     C72747   8.402   9.747  12.575  0.0758  0.0716  0.6118
  528MOL0     C72748   8.426   9.704  12.715  0.5011  0.2281  0.5431
  528MOL0     C72749   8.290   9.658  12.773  0.7626  1.1356  0.0622
  528MOL0     O72750   8.292   9.647  12.917  0.2581 -0.6543  0.4474
  528MOL0     C72751   8.210   9.567  12.984 -0.1331  0.4866 -0.0822
  528MOL0     C72752   8.254   9.506  13.105 -0.3601 -0.4621  0.2490
  528MOL0     C72753   8.171   9.440  13.185 -0.6073 -0.0421  0.5913
  528MOL0     C72754   8.215   9.377  13.307  0.4296  0.8115  0.0066
  528MOL0     C72755   8.035   9.429  13.141 -0.9509  0.2909 -0.5339
  528MOL0     C72756   7.932   9.378  13.235 -0.2008  0.4429  0.1086
  528MOL0     O72757   7.832   9.313  13.183 -0.5311  0.2534 -0.7078
  528MOL0     C72758   7.726   9.266  13.256  0.1400 -0.0552  1.1011
  528MOL0     C72759   7.681   9.136  13.235  0.3359 -0.2238  0.1880
  528MOL0     C72760   7.569   9.087  13.302  0.2125 -0.2529  0.6254
  528MOL0     C72761   7.511   9.159  13.393  0.0742  0.2323 -0.2224
  528MOL0     O72762   7.406   9.110  13.466 -0.2631 -0.2528  0.0048
  528MOL0     C72763   7.405   8.969  13.496 -0.8259  0.4079 -0.0904
  528MOL0     C72764   7.341   8.947  13.622 -0.3199  0.2730 -0.5284
  528MOL0     C72765   7.212   9.023  13.655 -0.0426 -0.5060 -0.0772
  528MOL0     C72766   7.158   8.996  13.799  0.0888 -0.1376  0.1485
  528MOL0     C72767   7.117   8.859  13.830 -0.1400  1.5278  0.3010
  528MOL0     C72768   6.975   8.859  13.894 -0.4043  0.7797 -0.0374
  528MOL0     C72769   6.968   8.919  14.039  0.3555 -0.7620  0.4536
  528MOL0     C72770   7.036   8.846  14.155 -0.2606  0.0821 -0.4752
  528MOL0    Cl72771   6.992   8.681  14.154 -0.5760  0.2559 -0.0877
  528MOL0     C72772   7.561   9.289  13.423  0.2003  0.2820 -0.1651
  528MOL0     C72773   7.667   9.349  13.353  0.2465  0.1059 -0.2057
  528MOL0     O72774   7.932   9.409  13.356 -1.0484 -0.5222  0.6637
  528MOL0     C72775   7.990   9.485  13.018  0.5052 -0.1511 -0.1701
  528MOL0     C72776   8.081   9.549  12.940 -0.2997  0.5615 -0.4496
  528MOL0     N72777   8.463   9.915  12.306 -0.7790 -0.5015  0.2569
  528MOL0     N72778   8.443   9.918  12.181  0.7250  0.8659 -0.3169
  528MOL0     C72779   7.818   9.054  11.429 -0.5650  0.2163 -0.7574
  528MOL0     C72780   7.692   9.000  11.412 -0.3318 -0.3783  0.4170
  528MOL0     C72781   7.239   9.052  11.422 -0.6679  0.7765  0.4686
  528MOL0     C72782   7.215   8.987  11.547 -0.3298  0.0503  0.4874
  528MOL0     C72783   7.080   8.973  11.583  0.3260 -0.5882 -0.2194
  528MOL0     C72784   6.979   9.036  11.510 -0.0873 -0.3333  1.0879
  528MOL0     O72785   6.853   9.010  11.563 -0.2009  0.2739 -0.4905
  528MOL0     C72786   6.741   9.053  11.490  0.4051  0.3647  0.3568
  528MOL0     C72787   6.621   9.035  11.575 -0.1347  0.2122  0.7641
  528MOL0     C72788   6.587   8.894  11.636 -0.0147  0.2444  0.9376
  528MOL0     C72789   6.459   8.918  11.721 -0.3446 -0.7024 -0.5691
  528MOL0     C72790   6.503   8.957  11.851 -0.2016 -0.1483  0.0574
  528MOL0     C72791   6.535   9.001  11.964  0.2646  0.2124  0.4999
  528MOL0     C72792   7.005   9.104  11.389  0.3128  0.1925 -0.3726
  528MOL0     C72793   7.136   9.101  11.338  0.0398 -0.9763  1.1096
  528MOL0     C72794   7.152   9.140  11.194  0.8479  1.3737  0.3553
  528MOL0     H72795   7.527   9.153  11.678  2.0753  0.4627  2.4784
  528MOL0     H72796   7.753   9.228  11.712  1.5611 -0.4834 -1.3862
  528MOL0     H72797   8.068   9.041  11.593  1.1880  1.2185 -0.8196
  528MOL0     H72798   8.036   9.119  11.752  0.7365 -1.0845  0.6465
  528MOL0     H72799   8.276   9.140  11.678 -2.4348 -2.1459  0.7398
  528MOL0     H72800   8.221   9.240  11.540  0.4022  3.4988  0.7667
  528MOL0     H72801   8.117   9.398  11.700 -2.1903 -1.2764  1.2124
  528MOL0     H72802   8.172   9.303  11.840 -0.8323 -0.8731 -0.9721
  528MOL0     H72803   8.412   9.300  11.762  0.5486 -0.8523 -2.3546
  528MOL0     H72804   8.371   9.401  11.629  0.8093 -0.5080  0.3453
  528MOL0     H72805   8.491   9.510  11.808 -0.9510 -1.4741 -3.7580
  528MOL0     H72806   8.376   9.445  11.931  2.5615 -2.4991 -0.2903
  528MOL0     H72807   8.342   9.698  11.741  1.2141 -1.0706  0.0620
  528MOL0     H72808   8.200   9.602  11.798  1.1028  0.5470 -0.5566
  528MOL0     H72809   8.237   9.681  12.029 -0.3047  2.6683  2.2317
  528MOL0     H72810   8.279   9.812  11.920 -1.1612 -1.0701  0.6894
  528MOL0     H72811   8.502   9.638  12.009 -3.4896 -1.5499 -3.6880
  528MOL0     H72812   8.502   9.811  11.941  0.4308 -0.0732 -0.2990
  528MOL0     H72813   8.510   9.601  12.252 -0.7155  0.5430  3.8685
  528MOL0     H72814   8.575   9.866  12.534  1.6679 -0.2223  0.4129
  528MOL0     H72815   8.604   9.695  12.506 -0.5736 -0.5240 -1.7435
  528MOL0     H72816   8.349   9.842  12.577 -1.2503 -0.6581  0.7831
  528MOL0     H72817   8.338   9.675  12.523  2.5087 -0.8102 -1.3484
  528MOL0     H72818   8.501   9.624  12.719  0.1266 -0.1760 -0.1346
  528MOL0     H72819   8.464   9.792  12.766  2.2919  0.7114 -1.4527
  528MOL0     H72820   8.209   9.725  12.744 -0.2791  0.5753  1.5834
  528MOL0     H72821   8.276   9.565  12.717  2.6422  0.3516  0.7899
  528MOL0     H72822   8.358   9.522  13.134  0.0475  0.7818 -1.6650
  528MOL0     H72823   8.161   9.429  13.387 -2.7382 -3.2078  0.8180
  528MOL0     H72824   8.321   9.397  13.329  1.2219 -1.3561 -1.5597
  528MOL0     H72825   8.194   9.271  13.294  0.9916  1.0007 -3.4670
  528MOL0     H72826   7.723   9.069  13.160 -0.4005  0.0308 -0.4657
  528MOL0     H72827   7.538   8.985  13.281  2.1819 -0.7621 -0.0310
  528MOL0     H72828   7.356   8.911  13.417  2.6408 -1.4387 -1.1266
  528MOL0     H72829   7.508   8.930  13.503 -0.8381  0.5798  5.1585
  528MOL0     H72830   7.310   8.842  13.622  0.7168 -0.0452 -0.4145
  528MOL0     H72831   7.411   8.961  13.704  0.6258  0.9534 -1.4300
  528MOL0     H72832   7.130   8.996  13.588  0.0989 -2.0643  0.3415
  528MOL0     H72833   7.235   9.130  13.646 -2.9252  0.1576 -0.8148
  528MOL0     H72834   7.078   9.066  13.825  1.2074  0.9289  0.8728
  528MOL0     H72835   7.231   9.029  13.874 -1.3427 -0.7348  1.8639
  528MOL0     H72836   7.124   8.793  13.743  2.8520  0.8931  0.9532
  528MOL0     H72837   7.187   8.821  13.904  2.2443  0.4830 -2.2960
  528MOL0     H72838   6.938   8.756  13.901 -1.2933  0.8932 -2.2802
  528MOL0     H72839   6.919   8.909  13.815 -3.2555  0.1638  1.4490
  528MOL0     H72840   6.861   8.921  14.057  0.8854  1.3135  4.9837
  528MOL0     H72841   6.999   9.024  14.045 -1.9084  0.2362 -2.6147
  528MOL0     H72842   7.008   8.892  14.250  1.4432 -0.6237  0.4173
  528MOL0     H72843   7.146   8.850  14.148  0.0067 -0.4154  2.2472
  528MOL0     H72844   7.520   9.340  13.510  1.4340 -2.1288  1.9511
  528MOL0     H72845   7.694   9.450  13.382 -0.6424  0.1060  0.7140
  528MOL0     H72846   7.882   9.484  13.006  0.2138  2.1624  1.5369
  528MOL0     H72847   8.040   9.588  12.848  0.8442 -0.8424 -1.6279
  528MOL0     H72848   7.898   9.024  11.362  0.2827  0.0560  0.2981
  528MOL0     H72849   7.682   8.920  11.340  0.2373 -2.6782  2.7154
  528MOL0     H72850   7.289   8.934  11.606 -0.1442  0.2288  0.4161
  528MOL0     H72851   7.052   8.923  11.675 -1.0741  3.2371  1.6383
  528MOL0     H72852   6.747   9.161  11.477  0.9361  0.4651  1.3363
  528MOL0     H72853   6.725   9.001  11.395  0.4852  2.7533 -1.0399
  528MOL0     H72854   6.533   9.053  11.513 -0.0661 -0.3639  0.4975
  528MOL0     H72855   6.629   9.109  11.655  1.6876 -1.0621  1.8296
  528MOL0     H72856   6.561   8.835  11.548 -0.2918  1.7321 -0.0105
  528MOL0     H72857   6.674   8.843  11.680  0.6012  0.2191 -0.2588
  528MOL0     H72858   6.400   8.826  11.723 -0.3706 -0.6694  0.6567
  528MOL0     H72859   6.400   8.999  11.676  2.2581 -0.5054 -4.0802
  528MOL0     H72860   6.564   9.030  12.063 -0.5776  0.9442  0.5429
  528MOL0     H72861   6.921   9.151  11.339  2.1097  4.0313 -0.0639
  528MOL0     H72862   7.236   9.080  11.158 -0.5578 -2.1398  2.4309
  528MOL0     H72863   7.064   9.094  11.148  1.0506 -0.3369  1.5463
  528MOL0     H72864   7.159   9.247  11.175 -1.7447  1.4069 -0.7647
  529MOL0     O72865   4.953   4.411  10.121  0.4350 -0.0670 -0.0218
  529MOL0     C72866   4.912   4.320  10.195 -0.2992 -0.0137  0.1918
  529MOL0     O72867   4.790   4.332  10.268 -0.0596  0.7292  0.2312
  529MOL0     C72868   4.699   4.426  10.220  0.2198 -0.4953 -0.7711
  529MOL0     C72869   4.714   4.560  10.194 -0.5509 -1.0593  0.5803
  529MOL0     C72870   4.622   4.653  10.140  0.6598 -0.0503  0.2311
  529MOL0     C72871   4.490   4.609  10.130  0.1577  0.0168  0.0731
  529MOL0     O72872   4.379   4.682  10.089 -0.4270 -0.7116  0.2434
  529MOL0     C72873   4.395   4.832  10.107 -0.0294 -0.2385 -0.3793
  529MOL0     C72874   4.265   4.905  10.056 -1.2340  1.1291 -0.3274
  529MOL0     C72875   4.143   4.858  10.129 -0.1395  0.1725 -0.4980
  529MOL0     C72876   4.008   4.890  10.070  0.2776  0.8950 -0.0469
  529MOL0     C72877   3.894   4.836  10.163 -0.6030 -0.2375  0.0673
  529MOL0     C72878   3.890   4.894  10.304  0.0826  0.0816 -0.7730
  529MOL0     C72879   3.784   4.813  10.390 -0.1463 -0.8576  0.5062
  529MOL0     C72880   3.645   4.812  10.331  0.5270 -0.8605  0.2668
  529MOL0     N72881   3.598   4.955  10.330  0.4972  0.2532  0.1875
  529MOL0     C72882   3.584   5.046  10.230 -0.2108  0.3165  0.3072
  529MOL0     C72883   3.529   5.150  10.292 -0.7668  0.4529 -0.1559
  529MOL0     C72884   3.474   5.271  10.232 -0.3851 -0.3653 -0.3902
  529MOL0     C72885   3.585   5.362  10.194  0.2038 -0.4604  0.3798
  529MOL0     C72886   3.528   5.503  10.175 -0.4357  0.3531 -1.0427
  529MOL0     C72887   3.643   5.599  10.154  0.5197 -0.6966  0.1441
  529MOL0     O72888   3.680   5.598  10.021  0.3008 -0.6200 -0.2103
  529MOL0     C72889   3.779   5.688   9.977 -0.5216  0.3161 -0.1225
  529MOL0     C72890   3.828   5.793  10.053  0.2131 -0.2515 -0.7066
  529MOL0     C72891   3.921   5.880   9.994  0.3356  0.0226 -0.1449
  529MOL0     C72892   3.957   5.999  10.090  0.5894  0.1840  0.0863
  529MOL0     C72893   3.976   5.857   9.862 -0.0806 -0.3051 -0.2110
  529MOL0     C72894   4.074   5.943   9.801 -0.9886 -0.2031  0.3295
  529MOL0     O72895   4.083   6.075   9.844  0.1122 -0.6728 -0.6590
  529MOL0     C72896   4.200   6.137   9.801  0.1636 -0.3463  0.0966
  529MOL0     C72897   4.314   6.158   9.887  0.5638 -0.1879 -0.2253
  529MOL0     C72898   4.432   6.198   9.838  0.3344  0.6161  0.2936
  529MOL0     C72899   4.452   6.236   9.702  0.6141 -0.4380  0.4881
  529MOL0     O72900   4.573   6.284   9.650  0.1799  0.1747 -0.4573
  529MOL0     C72901   4.682   6.271   9.736  0.5788  0.8144  0.7135
  529MOL0     C72902   4.820   6.253   9.656  0.3923  0.5386 -0.1936
  529MOL0     C72903   4.816   6.125   9.573 -1.1141  0.4138  0.4073
  529MOL0     C72904   4.941   6.129   9.471 -0.9259  0.0947 -0.2535
  529MOL0     C72905   4.932   6.017   9.375  0.0298 -0.6062  0.4986
  529MOL0     C72906   5.013   5.895   9.418 -0.4614 -0.1649 -0.4350
  529MOL0     C72907   5.038   5.783   9.316 -0.4578 -1.0969 -0.0784
  529MOL0     C72908   5.081   5.815   9.171 -0.6280 -0.3589  0.4281
  529MOL0    Cl72909   5.252   5.869   9.175 -0.4171  0.2284  0.1345
  529MOL0     C72910   4.338   6.229   9.623  0.1843  0.0632  0.0812
  529MOL0     C72911   4.214   6.188   9.674 -0.8466  0.2806  0.1649
  529MOL0     O72912   4.128   5.901   9.699  0.5275 -0.2498  0.1072
  529MOL0     C72913   3.933   5.735   9.795  0.8943 -0.9015  0.0224
  529MOL0     C72914   3.838   5.658   9.849  0.9960 -0.0784 -0.0759
  529MOL0     N72915   3.534   5.137  10.425  0.0757  0.1829 -0.0992
  529MOL0     N72916   3.565   5.023  10.447  0.4145  0.3914 -0.3074
  529MOL0     C72917   4.462   4.471  10.161 -0.1580 -0.0336 -0.4844
  529MOL0     C72918   4.562   4.383  10.198 -0.2438 -0.6841  0.0938
  529MOL0     C72919   4.998   4.200  10.226  0.8215  0.7887 -0.9160
  529MOL0     C72920   4.974   4.134  10.351  0.0077 -0.2253  0.4923
  529MOL0     C72921   5.049   4.026  10.389 -0.3210  0.5884 -0.8509
  529MOL0     C72922   5.152   3.979  10.305  0.1761 -0.7693  0.1821
  529MOL0     O72923   5.209   3.861  10.339 -0.2825 -0.0799 -0.3767
  529MOL0     C72924   5.282   3.786  10.241 -0.3051 -0.4795  0.4274
  529MOL0     C72925   5.428   3.830  10.228 -0.5203 -0.8973  0.6922
  529MOL0     C72926   5.484   3.891  10.353 -0.4813  0.1195 -0.6932
  529MOL0     C72927   5.625   3.950  10.334 -0.9501 -0.3134 -0.0638
  529MOL0     C72928   5.725   3.861  10.272  0.3392 -0.3373  0.1992
  529MOL0     C72929   5.797   3.780  10.219 -0.8799  0.1954  0.4443
  529MOL0     C72930   5.176   4.044  10.183  0.0385  0.1785  0.3613
  529MOL0     C72931   5.108   4.153  10.145  0.4692 -0.6410 -0.2842
  529MOL0     C72932   5.156   4.219  10.012  0.2905  0.7077 -0.0176
  529MOL0     H72933   4.808   4.608  10.218 -0.0661 -1.9455  0.5009
  529MOL0     H72934   4.654   4.757  10.132  1.5689  0.0336  3.3548
  529MOL0     H72935   4.479   4.879  10.056  0.8108  0.6991  1.7475
  529MOL0     H72936   4.420   4.847  10.213 -0.8898 -0.2867 -0.1607
  529MOL0     H72937   4.274   5.013  10.069 -0.5511  0.9256  1.0761
  529MOL0     H72938   4.256   4.871   9.952  3.3933  0.6513 -0.8056
  529MOL0     H72939   4.149   4.749  10.141  2.7137  0.2054 -0.8612
  529MOL0     H72940   4.150   4.896  10.231  3.7715  3.0180 -1.5724
  529MOL0     H72941   4.001   4.999  10.058  1.7130  0.9258 -0.8390
  529MOL0     H72942   3.996   4.844   9.972 -0.2380 -0.8859  0.8319
  529MOL0     H72943   3.914   4.729  10.167 -0.9943 -0.3155 -0.0700
  529MOL0     H72944   3.792   4.846  10.125 -0.5927  2.6766  0.5539
  529MOL0     H72945   3.979   4.894  10.367 -0.9643  2.1034  0.8367
  529MOL0     H72946   3.868   5.001  10.296 -0.0346 -0.0402 -2.4362
  529MOL0     H72947   3.776   4.861  10.488 -0.9239  0.1457 -0.0180
  529MOL0     H72948   3.826   4.713  10.402 -0.1644 -0.8161  0.9138
  529MOL0     H72949   3.637   4.769  10.231 -0.8233  1.5693 -0.7697
  529MOL0     H72950   3.587   4.753  10.402 -0.0630 -1.6432 -0.8255
  529MOL0     H72951   3.601   5.045  10.123  3.8706  2.6631  0.7541
  529MOL0     H72952   3.410   5.322  10.304 -2.0941 -1.9990 -0.6583
  529MOL0     H72953   3.411   5.252  10.144 -0.1841  2.5607 -1.2907
  529MOL0     H72954   3.665   5.355  10.268  3.5137 -0.1137 -2.8469
  529MOL0     H72955   3.619   5.313  10.102 -0.4249 -0.1764 -0.0095
  529MOL0     H72956   3.453   5.490  10.096 -0.5685 -0.7011 -0.7632
  529MOL0     H72957   3.468   5.537  10.260  1.7376 -2.9616  2.1168
  529MOL0     H72958   3.608   5.697  10.187  0.7646 -1.1081  1.6959
  529MOL0     H72959   3.729   5.570  10.215  0.0158 -0.8830  0.7887
  529MOL0     H72960   3.810   5.808  10.159  3.3004  0.1289 -0.1292
  529MOL0     H72961   3.951   5.964  10.193  2.9204 -0.7123 -0.0108
  529MOL0     H72962   3.899   6.090  10.079  2.3397  1.3769  0.2393
  529MOL0     H72963   4.064   6.010  10.070  0.6279 -1.2620 -0.6527
  529MOL0     H72964   4.310   6.122   9.990 -0.0779  0.4291 -0.0262
  529MOL0     H72965   4.515   6.192   9.907  0.3155 -0.3891  0.2406
  529MOL0     H72966   4.698   6.370   9.782  2.2340  0.0541  1.8812
  529MOL0     H72967   4.680   6.188   9.807 -0.6050 -0.1475 -0.3963
  529MOL0     H72968   4.839   6.338   9.589  0.7546  0.0525 -0.7148
  529MOL0     H72969   4.906   6.239   9.723 -1.9909 -3.1377  2.4503
  529MOL0     H72970   4.722   6.121   9.517 -0.0808  0.9143 -1.4352
  529MOL0     H72971   4.828   6.030   9.625  1.1626 -0.0596 -0.8567
  529MOL0     H72972   5.033   6.133   9.529 -0.7653  1.7941 -0.5768
  529MOL0     H72973   4.934   6.224   9.417 -0.1642  0.3425  0.0691
  529MOL0     H72974   4.826   5.996   9.357 -0.8722  1.5464  2.6288
  529MOL0     H72975   4.980   6.041   9.280 -1.7176  0.4845 -0.1497
  529MOL0     H72976   4.976   5.840   9.504 -0.9576 -2.1311 -1.8331
  529MOL0     H72977   5.117   5.925   9.439 -0.0890 -1.1005 -0.8864
  529MOL0     H72978   4.939   5.743   9.294 -0.9132 -0.4230  0.6932
  529MOL0     H72979   5.109   5.708   9.353 -0.5400 -0.8934  0.4997
  529MOL0     H72980   5.015   5.881   9.114  2.2018 -0.6751 -3.6338
  529MOL0     H72981   5.080   5.722   9.113 -3.8983 -0.2564  0.0927
  529MOL0     H72982   4.346   6.269   9.523  1.6556 -2.0616 -0.7438
  529MOL0     H72983   4.137   6.193   9.598  0.1577  0.5347 -0.8688
  529MOL0     H72984   3.974   5.715   9.697  1.4621 -1.3383  0.3447
  529MOL0     H72985   3.798   5.574   9.793 -1.8508  1.4794 -0.6021
  529MOL0     H72986   4.359   4.436  10.165 -0.6448  1.2789 -0.8305
  529MOL0     H72987   4.535   4.281  10.226 -1.1302 -0.0380  1.7036
  529MOL0     H72988   4.904   4.169  10.427  0.4238  0.9575  0.3639
  529MOL0     H72989   5.043   3.982  10.488  1.2365 -0.5865 -1.2396
  529MOL0     H72990   5.288   3.685  10.282  0.9521 -0.0486  1.3812
  529MOL0     H72991   5.242   3.782  10.140 -1.2571 -1.7199  0.8253
  529MOL0     H72992   5.444   3.904  10.149 -2.3184 -0.2661  0.8801
  529MOL0     H72993   5.493   3.745  10.205  0.3978  0.3471 -1.6053
  529MOL0     H72994   5.417   3.971  10.386 -1.5264 -0.9386 -0.1657
  529MOL0     H72995   5.480   3.819  10.436  1.5256  0.3217 -0.3904
  529MOL0     H72996   5.663   3.964  10.435  1.6520 -2.7994 -0.5788
  529MOL0     H72997   5.612   4.051  10.293 -2.5179  0.1378  1.4169
  529MOL0     H72998   5.845   3.702  10.163 -0.4494  1.0076 -0.3437
  529MOL0     H72999   5.247   4.001  10.114 -0.3101  2.0907 -1.3033
  529MOL0     H73000   5.075   4.232   9.940 -2.3742  0.9502  2.8127
  529MOL0     H73001   5.201   4.316  10.034 -1.5769  1.4319  0.7769
  529MOL0     H73002   5.233   4.153   9.971 -0.2154  0.4746 -0.6053
  530MOL0     O73003   4.495  10.376   3.412 -0.5981  0.3437  0.6841
  530MOL0     C73004   4.610  10.417   3.389  0.6543  0.0071 -0.7635
  530MOL0     O73005   4.682  10.379   3.283 -0.7130  0.1319 -0.2872
  530MOL0     C73006   4.660  10.261   3.215 -1.0228 -0.8798  0.1226
  530MOL0     C73007   4.585  10.154   3.266 -0.4990  0.0879 -0.0815
  530MOL0     C73008   4.540  10.054   3.180  0.3036 -0.4540  0.6227
  530MOL0     C73009   4.587  10.053   3.044  0.1044  0.1388  0.1094
  530MOL0     O73010   4.551   9.958   2.954  0.5805  0.4333 -0.0635
  530MOL0     C73011   4.506   9.834   3.007 -0.1732  0.0163  0.0155
  530MOL0     C73012   4.540   9.724   2.901  0.6427  0.8865  0.7317
  530MOL0     C73013   4.680   9.688   2.882 -0.1034  0.8563  0.0563
  530MOL0     C73014   4.723   9.748   2.748 -1.0181 -0.0408 -0.1103
  530MOL0     C73015   4.865   9.704   2.711 -0.6278 -0.7262 -0.4013
  530MOL0     C73016   4.968   9.716   2.819  0.4227  0.9522 -0.7767
  530MOL0     C73017   5.104   9.694   2.756  0.2948 -0.1054  0.1935
  530MOL0     C73018   5.206   9.682   2.865  0.8720  0.3333  0.1358
  530MOL0     N73019   5.313   9.583   2.835  0.1648 -0.2074 -0.0775
  530MOL0     C73020   5.409   9.598   2.732  0.6003  0.7958  0.5129
  530MOL0     C73021   5.517   9.516   2.764  0.5118 -0.0335 -0.3732
  530MOL0     C73022   5.641   9.508   2.687 -0.6593  0.7899 -0.4232
  530MOL0     C73023   5.729   9.639   2.710  0.6172 -0.3006  0.4585
  530MOL0     C73024   5.857   9.637   2.632 -0.1463 -0.0917  0.8321
  530MOL0     C73025   5.938   9.763   2.630  0.1991  0.4983 -0.0576
  530MOL0     O73026   5.861   9.861   2.562 -0.4784 -0.2356  0.2284
  530MOL0     C73027   5.904   9.987   2.560 -0.3656 -0.3829  0.1774
  530MOL0     C73028   5.995  10.038   2.652 -0.3327  0.0555  0.2059
  530MOL0     C73029   6.032  10.170   2.654 -0.3703  0.1763 -0.1688
  530MOL0     C73030   6.145  10.216   2.746 -0.8481 -0.5659  1.3118
  530MOL0     C73031   5.964  10.260   2.571  0.5556  0.1443  0.0868
  530MOL0     C73032   5.987  10.403   2.582  0.4511 -0.1889  0.9691
  530MOL0     O73033   6.013  10.450   2.708  0.5896 -0.6059 -0.1387
  530MOL0     C73034   6.031  10.587   2.711 -0.0500  0.3919  0.0571
  530MOL0     C73035   5.928  10.671   2.760  0.5498 -1.3119 -0.1084
  530MOL0     C73036   5.936  10.810   2.740  0.1972  0.1014  0.3028
  530MOL0     C73037   6.048  10.876   2.684  0.8245  0.8108  1.2114
  530MOL0     O73038   6.048  11.009   2.668 -0.2475 -0.1978 -0.0441
  530MOL0     C73039   6.088  11.053   2.543  0.4039  0.4038 -0.1017
  530MOL0     C73040   6.162  11.186   2.557  0.1238  0.0099 -0.3971
  530MOL0     C73041   6.079  11.296   2.635 -0.5940  0.3608 -0.0041
  530MOL0     C73042   6.116  11.290   2.784  0.0538 -0.2643 -0.7662
  530MOL0     C73043   5.985  11.340   2.865 -0.9300  0.7352 -0.6497
  530MOL0     C73044   6.032  11.359   3.005  0.3896  0.0731 -0.5888
  530MOL0     C73045   6.096  11.484   3.059 -0.2794 -0.2111  0.1726
  530MOL0     C73046   6.219  11.522   2.986 -0.5547 -0.3166 -0.2507
  530MOL0    Cl73047   6.353  11.393   3.001  0.5859 -0.0272  0.1362
  530MOL0     C73048   6.157  10.788   2.650  0.6547  0.3640 -0.1078
  530MOL0     C73049   6.141  10.644   2.657 -0.5444 -0.4756  0.5357
  530MOL0     O73050   5.976  10.469   2.482 -0.0111  0.7001 -0.0201
  530MOL0     C73051   5.879  10.205   2.467 -1.3029 -0.8296  0.6505
  530MOL0     C73052   5.856  10.075   2.464 -0.0729  0.7040 -0.5513
  530MOL0     N73053   5.486   9.456   2.882 -1.0617 -0.8035 -0.2338
  530MOL0     N73054   5.370   9.500   2.930 -0.9544  0.5348  0.4298
  530MOL0     C73055   4.682  10.153   2.998  0.2360 -0.0133  0.1436
  530MOL0     C73056   4.711  10.259   3.084  0.3275  0.3490  0.3205
  530MOL0     C73057   4.669  10.525   3.470  0.2202  0.7623 -0.2685
  530MOL0     C73058   4.763  10.611   3.400  1.1254 -0.6507 -0.4938
  530MOL0     C73059   4.835  10.713   3.467  0.3585  0.1862  0.0711
  530MOL0     C73060   4.807  10.744   3.604  1.2427  0.1694 -0.4759
  530MOL0     O73061   4.861  10.850   3.676  0.0943  0.0100 -0.3879
  530MOL0     C73062   4.922  10.960   3.600 -0.3883 -0.3848 -0.0679
  530MOL0     C73063   4.988  11.058   3.697 -0.7433  0.1018  0.6249
  530MOL0     C73064   5.113  11.000   3.773  0.7805 -0.0949 -0.0377
  530MOL0     C73065   5.175  11.090   3.887 -0.3620  0.8152  0.8952
  530MOL0     C73066   5.282  11.178   3.846 -0.8444 -0.3338 -0.4330
  530MOL0     C73067   5.349  11.277   3.814  0.0885 -0.8833  0.3876
  530MOL0     C73068   4.730  10.652   3.673 -0.9186 -0.2363  0.1285
  530MOL0     C73069   4.663  10.548   3.614 -0.3974  0.4294 -0.3806
  530MOL0     C73070   4.572  10.462   3.697  0.2848  0.4968 -0.0910
  530MOL0     H73071   4.539  10.143   3.363 -3.8731  1.0566 -1.4173
  530MOL0     H73072   4.471   9.982   3.225  0.0652  0.5992  2.0346
  530MOL0     H73073   4.399   9.838   3.031  0.3421  0.0809  2.5705
  530MOL0     H73074   4.550   9.804   3.102 -1.8226 -0.8011  0.5560
  530MOL0     H73075   4.490   9.635   2.939  0.0348 -0.0187 -1.9774
  530MOL0     H73076   4.490   9.757   2.810 -0.7115 -1.0965  0.7025
  530MOL0     H73077   4.743   9.729   2.962 -1.4583  0.1192  1.5534
  530MOL0     H73078   4.696   9.580   2.880 -4.1438  0.0455  2.2497
  530MOL0     H73079   4.651   9.709   2.676 -1.8383  0.0826  0.6366
  530MOL0     H73080   4.708   9.856   2.756 -3.5024 -0.1827 -1.7003
  530MOL0     H73081   4.896   9.767   2.628 -0.4843 -1.8986 -1.2739
  530MOL0     H73082   4.860   9.600   2.677 -0.2101 -0.6001 -0.8526
  530MOL0     H73083   4.969   9.819   2.858 -2.6556  2.2146 -3.5216
  530MOL0     H73084   4.950   9.644   2.900 -0.4745 -0.3492 -2.0887
  530MOL0     H73085   5.130   9.778   2.690  0.1662  0.0492  0.3380
  530MOL0     H73086   5.106   9.607   2.691  2.1806  0.2798 -0.3221
  530MOL0     H73087   5.258   9.775   2.891  2.2131 -0.5580  0.8049
  530MOL0     H73088   5.164   9.641   2.957  1.0094 -2.3908 -0.9486
  530MOL0     H73089   5.392   9.668   2.651 -2.4797 -3.0217 -2.5272
  530MOL0     H73090   5.612   9.493   2.583 -3.3918  0.9437  0.2220
  530MOL0     H73091   5.705   9.424   2.716  0.3807  2.2364  1.7569
  530MOL0     H73092   5.658   9.716   2.678  1.2465  1.0141  2.0729
  530MOL0     H73093   5.747   9.653   2.817 -2.8016  1.6836  0.9293
  530MOL0     H73094   5.920   9.557   2.672 -2.0525 -2.3862 -0.5108
  530MOL0     H73095   5.843   9.603   2.529  3.0269 -2.6609  1.0568
  530MOL0     H73096   5.961   9.796   2.732  0.0211 -0.0702  0.1701
  530MOL0     H73097   6.027   9.750   2.567  0.5087  0.2082  0.4223
  530MOL0     H73098   6.048   9.984   2.730 -0.4950 -0.8901 -0.3352
  530MOL0     H73099   6.109  10.258   2.841 -1.3240 -0.6772  1.1836
  530MOL0     H73100   6.207  10.298   2.706 -1.6283 -0.3236  0.5758
  530MOL0     H73101   6.218  10.139   2.771  0.2949 -0.3530 -1.1377
  530MOL0     H73102   5.842  10.625   2.807 -1.4051 -1.3256 -3.3880
  530MOL0     H73103   5.862  10.877   2.783  0.8697  0.8568  0.3122
  530MOL0     H73104   6.152  10.982   2.491  0.4116  0.4537 -0.1603
  530MOL0     H73105   5.999  11.061   2.480  0.7724  0.0970 -0.6632
  530MOL0     H73106   6.253  11.161   2.611 -1.8473 -2.0236  2.3053
  530MOL0     H73107   6.190  11.220   2.457 -0.4998 -3.1119 -1.7626
  530MOL0     H73108   5.972  11.277   2.629 -0.1377 -2.0190 -2.2806
  530MOL0     H73109   6.091  11.392   2.583 -3.9768  0.3395 -1.0374
  530MOL0     H73110   6.199  11.361   2.784 -0.8264  0.9582 -4.0007
  530MOL0     H73111   6.152  11.194   2.821  0.3802  0.3070  0.4545
  530MOL0     H73112   5.942  11.435   2.832 -3.6833  0.2209  1.1371
  530MOL0     H73113   5.914  11.257   2.860  0.0649 -0.0806 -2.2889
  530MOL0     H73114   6.089  11.270   3.031 -0.6590 -0.5490 -0.3651
  530MOL0     H73115   5.942  11.348   3.066  0.8080 -0.4509 -0.0559
  530MOL0     H73116   6.132  11.470   3.161 -0.9028  0.3956  0.4884
  530MOL0     H73117   6.019  11.562   3.053  2.9253  3.1729 -0.4939
  530MOL0     H73118   6.242  11.616   3.037 -1.8693  1.0930 -2.1138
  530MOL0     H73119   6.193  11.543   2.882  0.1353  2.6481  0.0728
  530MOL0     H73120   6.258  10.824   2.637  1.0052 -0.0944  1.1763
  530MOL0     H73121   6.229  10.586   2.629 -0.3201  0.5585 -1.0084
  530MOL0     H73122   5.846  10.281   2.396 -0.3552  1.9510  2.9725
  530MOL0     H73123   5.783  10.040   2.391  0.3514  0.2452 -0.7665
  530MOL0     H73124   4.714  10.162   2.895 -2.1696 -0.6474 -0.7215
  530MOL0     H73125   4.766  10.341   3.038 -3.0298  0.4361 -4.1915
  530MOL0     H73126   4.778  10.603   3.293 -1.9345 -1.0840 -0.9647
  530MOL0     H73127   4.899  10.781   3.412  0.6548  2.3510  2.8523
  530MOL0     H73128   4.995  10.922   3.529 -0.7754 -2.5875  0.6281
  530MOL0     H73129   4.846  11.026   3.556  0.2499  2.3089  2.5388
  530MOL0     H73130   4.915  11.091   3.771  0.4764 -0.8630  2.3489
  530MOL0     H73131   5.024  11.149   3.648  2.5455 -2.3760 -2.1630
  530MOL0     H73132   5.078  10.904   3.811 -4.3186  1.1789 -0.7586
  530MOL0     H73133   5.184  10.984   3.691  0.4709 -3.6648  0.2342
  530MOL0     H73134   5.202  11.030   3.974 -2.1500  1.4266  1.9348
  530MOL0     H73135   5.091  11.150   3.925 -3.6349 -3.1817  0.6483
  530MOL0     H73136   5.412  11.363   3.806 -1.3338  0.0903 -0.7210
  530MOL0     H73137   4.718  10.663   3.780  0.7017 -4.9378  1.0328
  530MOL0     H73138   4.471  10.484   3.662 -0.3826 -2.6382 -0.3948
  530MOL0     H73139   4.590  10.354   3.690 -1.2652  0.2895 -1.5634
  530MOL0     H73140   4.579  10.494   3.802 -1.2164 -0.3059  0.2788
  531MOL0     O73141   5.201   1.372   7.619 -0.4284  0.1053 -0.3533
  531MOL0     C73142   5.151   1.346   7.506 -0.7858 -0.1204  0.9842
  531MOL0     O73143   5.203   1.373   7.381 -0.0228  0.0800 -0.4995
  531MOL0     C73144   5.333   1.420   7.380 -1.2294  0.3952  0.3492
  531MOL0     C73145   5.369   1.539   7.441 -0.0309  1.4709  0.2773
  531MOL0     C73146   5.503   1.572   7.451 -0.8272 -0.2694 -0.3786
  531MOL0     C73147   5.606   1.501   7.388 -0.6101 -0.3560 -0.2621
  531MOL0     O73148   5.735   1.540   7.384 -0.0820  0.3648  0.1781
  531MOL0     C73149   5.790   1.569   7.510  0.0611  0.7138 -0.0039
  531MOL0     C73150   5.941   1.587   7.491 -0.6128 -0.0944 -0.1588
  531MOL0     C73151   6.004   1.489   7.405 -0.2533  0.1727  0.1871
  531MOL0     C73152   6.147   1.521   7.379 -0.5554 -0.2361 -0.3692
  531MOL0     C73153   6.215   1.417   7.278 -0.2159  0.0968  0.0984
  531MOL0     C73154   6.362   1.454   7.262 -0.0626  0.8383  0.0256
  531MOL0     C73155   6.422   1.339   7.180 -0.0930 -0.5874 -0.8238
  531MOL0     C73156   6.577   1.370   7.150 -0.0555  0.1905 -0.3871
  531MOL0     N73157   6.657   1.259   7.095  0.2658 -0.0957  0.6193
  531MOL0     C73158   6.677   1.127   7.145  0.3580 -0.1328  0.1567
  531MOL0     C73159   6.732   1.061   7.037  0.2665  0.4483 -0.3308
  531MOL0     C73160   6.759   0.918   7.036  0.7615  0.6202  0.5934
  531MOL0     C73161   6.632   0.842   7.075 -0.0477 -0.6433  0.2881
  531MOL0     C73162   6.658   0.687   7.055  0.6086 -0.6887  0.2841
  531MOL0     C73163   6.614   0.627   6.917  0.1626  0.1268 -0.0163
  531MOL0     O73164   6.640   0.489   6.920 -0.4831 -0.1750  0.0171
  531MOL0     C73165   6.641   0.421   6.799  0.6137  1.1431  0.4306
  531MOL0     C73166   6.667   0.285   6.813  0.1759 -0.5257  0.0545
  531MOL0     C73167   6.688   0.203   6.699 -0.3992 -0.0959 -0.2383
  531MOL0     C73168   6.723   0.059   6.739 -0.6769  0.4378  0.3794
  531MOL0     C73169   6.692   0.264   6.568 -0.1209 -1.1969 -0.2870
  531MOL0     C73170   6.734   0.192   6.445 -0.9593  0.1064  0.3566
  531MOL0     O73171   6.727   0.270   6.330 -0.5198 -0.3223  0.0998
  531MOL0     C73172   6.795   0.222   6.222 -0.2238 -0.6576 -0.2166
  531MOL0     C73173   6.937   0.216   6.219  1.0832  0.0498 -0.3016
  531MOL0     C73174   6.995   0.168   6.097  0.3131 -0.9014 -0.4057
  531MOL0     C73175   6.924   0.121   5.987  0.0798 -0.3194  0.2594
  531MOL0     O73176   6.986   0.056   5.881  0.2890 -0.3702  0.2175
  531MOL0     C73177   7.113  -0.015   5.906  0.1922  0.9128 -0.4637
  531MOL0     C73178   7.117  -0.139   5.816  0.1529 -0.9195 -0.1076
  531MOL0     C73179   7.106  -0.096   5.665 -1.0172  0.3136 -0.0130
  531MOL0     C73180   7.086  -0.215   5.568  0.4176 -0.5413 -0.2547
  531MOL0     C73181   7.205  -0.306   5.553 -0.7127  1.0621 -0.2608
  531MOL0     C73182   7.183  -0.411   5.441  0.7424  0.8266 -0.0811
  531MOL0     C73183   7.300  -0.515   5.436  0.1459 -0.2224  0.4190
  531MOL0     C73184   7.292  -0.589   5.303 -0.1828  0.1784 -0.0094
  531MOL0    Cl73185   7.348  -0.484   5.170 -0.1084 -0.4972 -0.4096
  531MOL0     C73186   6.786   0.116   5.996 -0.0462  1.9124  0.6983
  531MOL0     C73187   6.726   0.179   6.106  0.3928  0.4972 -0.5336
  531MOL0     O73188   6.786   0.078   6.453 -0.7033  0.7344  0.2290
  531MOL0     C73189   6.654   0.401   6.559  0.0437 -0.2760 -0.4836
  531MOL0     C73190   6.630   0.479   6.671 -0.3566 -0.9176  0.1099
  531MOL0     N73191   6.740   1.149   6.932  0.0522 -0.8439 -0.7438
  531MOL0     N73192   6.701   1.260   6.966 -0.3825 -0.4386  0.3077
  531MOL0     C73193   5.573   1.389   7.322 -0.4222 -0.7779  0.1383
  531MOL0     C73194   5.439   1.345   7.316 -0.4497  0.1152 -0.9542
  531MOL0     C73195   5.037   1.253   7.492  0.3208 -0.1210  0.8574
  531MOL0     C73196   5.047   1.141   7.404  0.0846  0.3908 -0.3648
  531MOL0     C73197   4.933   1.059   7.384 -0.3095  0.2000 -0.8033
  531MOL0     C73198   4.808   1.084   7.460 -0.0768 -0.7195  0.4800
  531MOL0     O73199   4.704   1.002   7.430 -0.4128  0.4918 -0.5605
  531MOL0     C73200   4.565   1.043   7.449 -0.3642 -0.7176  0.2239
  531MOL0     C73201   4.502   0.997   7.586  0.2315  0.3606 -0.0509
  531MOL0     C73202   4.515   0.847   7.609 -0.1323 -0.8462  0.0014
  531MOL0     C73203   4.406   0.769   7.541 -0.0846  0.1558  1.3220
  531MOL0     C73204   4.407   0.631   7.596  0.0408  0.0868  1.1198
  531MOL0     C73205   4.410   0.511   7.620  0.5534 -0.7182  0.4809
  531MOL0     C73206   4.805   1.190   7.550 -0.0239  0.5291 -0.2499
  531MOL0     C73207   4.919   1.274   7.563  0.2542  0.0641  0.2502
  531MOL0     C73208   4.904   1.387   7.654 -1.1228  0.7464  0.7350
  531MOL0     H73209   5.298   1.606   7.488 -1.3899  2.4625 -2.9355
  531MOL0     H73210   5.518   1.668   7.500 -1.9624 -0.5336  0.5499
  531MOL0     H73211   5.772   1.491   7.584 -0.2381  0.5333 -0.2612
  531MOL0     H73212   5.759   1.661   7.559  0.9340  0.9086  0.1936
  531MOL0     H73213   5.961   1.680   7.437 -0.5858  0.2776  0.4776
  531MOL0     H73214   5.996   1.597   7.586  1.6750 -1.3147 -1.2816
  531MOL0     H73215   5.992   1.389   7.449  0.3864 -0.8780 -1.8418
  531MOL0     H73216   5.981   1.504   7.299  1.3390  0.1583 -0.1794
  531MOL0     H73217   6.151   1.627   7.355 -2.8594  0.5813  2.3372
  531MOL0     H73218   6.203   1.517   7.473 -1.0715  1.0367  0.0074
  531MOL0     H73219   6.169   1.419   7.179  1.6376 -0.3277 -0.8078
  531MOL0     H73220   6.217   1.314   7.315  0.8940 -0.0890 -0.4275
  531MOL0     H73221   6.388   1.552   7.221 -0.0997  1.0591  0.5286
  531MOL0     H73222   6.404   1.444   7.362  1.1866 -2.4950 -0.7257
  531MOL0     H73223   6.372   1.335   7.083 -1.6240 -0.4190 -0.0617
  531MOL0     H73224   6.401   1.244   7.230 -5.1208  0.2532 -0.8306
  531MOL0     H73225   6.571   1.456   7.083  0.3082  0.0308 -0.6298
  531MOL0     H73226   6.638   1.400   7.236  1.5539 -0.3184 -1.3038
  531MOL0     H73227   6.625   1.104   7.238 -2.5000  1.1770 -0.9782
  531MOL0     H73228   6.831   0.890   7.114  2.6185  2.0634 -0.5233
  531MOL0     H73229   6.802   0.878   6.943  1.1539  1.1049  0.5634
  531MOL0     H73230   6.597   0.854   7.178 -0.6677 -0.2712  0.0336
  531MOL0     H73231   6.544   0.867   7.015  0.0367 -0.1278  0.3729
  531MOL0     H73232   6.762   0.662   7.078  0.1559 -0.3705  2.9530
  531MOL0     H73233   6.601   0.635   7.132  3.3957 -2.5660  1.2508
  531MOL0     H73234   6.507   0.643   6.900 -0.5756 -0.1624  3.6580
  531MOL0     H73235   6.667   0.679   6.836 -0.0159  0.4994  0.1058
  531MOL0     H73236   6.677   0.255   6.917  0.0448  2.8987  1.2005
  531MOL0     H73237   6.677  -0.017   6.675  0.6705 -0.6048  0.5896
  531MOL0     H73238   6.696   0.038   6.843 -1.2211  0.5124  0.2542
  531MOL0     H73239   6.831   0.042   6.747 -0.8923 -0.4149  1.8408
  531MOL0     H73240   6.987   0.251   6.309 -0.5376 -1.4930  1.2943
  531MOL0     H73241   7.101   0.187   6.083 -0.1760  2.2980 -0.6457
  531MOL0     H73242   7.198   0.050   5.886 -1.4755  3.3865 -0.0115
  531MOL0     H73243   7.117  -0.057   6.007 -1.0170 -2.3359 -1.6144
  531MOL0     H73244   7.208  -0.199   5.828  2.4547  2.6329  2.0252
  531MOL0     H73245   7.026  -0.196   5.835  0.2855 -0.6691  1.3527
  531MOL0     H73246   7.197  -0.042   5.641 -1.3145  0.6044 -0.5015
  531MOL0     H73247   7.023  -0.027   5.647 -0.3753  1.1896  0.3025
  531MOL0     H73248   7.068  -0.164   5.473  0.0075  0.5889  0.4243
  531MOL0     H73249   6.999  -0.277   5.591  0.0067  0.2673  0.3982
  531MOL0     H73250   7.296  -0.257   5.517 -0.1737  0.3759  0.1312
  531MOL0     H73251   7.234  -0.356   5.647 -2.7684 -1.3021 -0.7748
  531MOL0     H73252   7.157  -0.371   5.343 -0.0872  0.1220 -0.1721
  531MOL0     H73253   7.096  -0.471   5.471  0.2294  2.2975  1.5473
  531MOL0     H73254   7.293  -0.587   5.518  0.2757  1.9263  2.4091
  531MOL0     H73255   7.394  -0.462   5.457 -0.0728  0.0610  0.6909
  531MOL0     H73256   7.188  -0.620   5.292 -0.4724  0.8817  0.6472
  531MOL0     H73257   7.353  -0.679   5.307 -0.9287 -0.2942  1.3245
  531MOL0     H73258   6.736   0.082   5.906  0.8923  1.3025  0.3921
  531MOL0     H73259   6.619   0.199   6.103  0.3105  0.8965  2.2025
  531MOL0     H73260   6.648   0.455   6.466 -1.3859  0.0715 -0.2123
  531MOL0     H73261   6.600   0.582   6.651  0.3300 -0.4385  1.3870
  531MOL0     H73262   5.641   1.314   7.283 -1.4395 -2.3956  1.3552
  531MOL0     H73263   5.416   1.248   7.274  0.4742  0.2824 -1.8929
  531MOL0     H73264   5.141   1.132   7.350 -0.6516  2.0280 -2.0226
  531MOL0     H73265   4.945   0.963   7.335 -0.5543 -1.0841  1.4855
  531MOL0     H73266   4.551   1.150   7.433 -1.3855 -0.5774  1.7976
  531MOL0     H73267   4.502   1.007   7.367  1.9553  1.4407 -2.7163
  531MOL0     H73268   4.398   1.030   7.599  1.2752  3.5150  1.4061
  531MOL0     H73269   4.550   1.049   7.669 -1.0267  1.3677  0.0825
  531MOL0     H73270   4.615   0.806   7.596  0.5524  0.4155  1.0688
  531MOL0     H73271   4.491   0.846   7.716 -1.7445  1.0434 -0.2632
  531MOL0     H73272   4.437   0.776   7.436  2.1346  2.8378  2.0404
  531MOL0     H73273   4.305   0.810   7.546  0.0181  1.0119 -1.6643
  531MOL0     H73274   4.422   0.408   7.646  4.0208 -0.1353  1.7876
  531MOL0     H73275   4.720   1.223   7.610 -0.5852 -1.1527 -0.0569
  531MOL0     H73276   4.965   1.363   7.741  0.5621  0.5840 -0.4301
  531MOL0     H73277   4.931   1.480   7.601  1.8711 -0.0917  0.6216
  531MOL0     H73278   4.799   1.400   7.680 -1.5846  0.5891 -0.9327
  532MOL0     O73279   3.211  11.447   1.175  0.1032 -0.5294 -0.8177
  532MOL0     C73280   3.182  11.514   1.277  0.2982  0.3150 -0.0756
  532MOL0     O73281   3.058  11.515   1.338 -0.3379  0.1476 -0.4262
  532MOL0     C73282   2.949  11.502   1.259 -0.2846  0.4117 -0.3442
  532MOL0     C73283   2.888  11.377   1.249  0.1302  0.8057 -0.0715
  532MOL0     C73284   2.784  11.358   1.157  0.4596 -0.3809 -0.5185
  532MOL0     C73285   2.715  11.468   1.098 -0.0310  0.6354 -1.1585
  532MOL0     O73286   2.610  11.438   1.020  0.6430 -0.0753 -0.6081
  532MOL0     C73287   2.523  11.539   0.977  0.0410  0.2244 -0.3355
  532MOL0     C73288   2.394  11.458   0.934  0.3070  0.1035  0.6166
  532MOL0     C73289   2.424  11.327   0.850 -0.1975 -0.2101 -1.0525
  532MOL0     C73290   2.295  11.257   0.800 -1.0079 -0.4092 -0.5716
  532MOL0     C73291   2.321  11.134   0.713  0.1033  0.4238 -0.1592
  532MOL0     C73292   2.383  11.162   0.573  0.0342  0.5439 -0.0493
  532MOL0     C73293   2.273  11.153   0.464  0.7291 -0.3027 -0.4699
  532MOL0     C73294   2.319  11.109   0.328 -0.2016 -0.2022 -0.5195
  532MOL0     N73295   2.210  11.116   0.231 -0.3461  0.2110  0.0002
  532MOL0     C73296   2.172  11.223   0.163 -0.0894 -0.1317  0.2810
  532MOL0     C73297   2.060  11.193   0.104  0.9017 -0.1978  0.0564
  532MOL0     C73298   1.987  11.283   0.014  1.0974 -0.8157 -0.6757
  532MOL0     C73299   1.839  11.249  -0.001 -0.7107 -0.3832 -0.5678
  532MOL0     C73300   1.773  11.368  -0.070 -0.4566  0.2880 -1.1819
  532MOL0     C73301   1.636  11.333  -0.135  0.3461  0.7371  0.0150
  532MOL0     O73302   1.656  11.223  -0.221  0.2748  0.3306 -0.6033
  532MOL0     C73303   1.593  11.230  -0.349 -0.2170 -0.7514 -1.1133
  532MOL0     C73304   1.633  11.147  -0.453  0.1810 -0.3727  1.0059
  532MOL0     C73305   1.557  11.143  -0.582  0.4912  0.2832 -1.7293
  532MOL0     C73306   1.606  11.054  -0.694 -0.1878 -0.5208 -0.2516
  532MOL0     C73307   1.439  11.217  -0.597 -0.5852 -0.3402  0.2688
  532MOL0     C73308   1.372  11.227  -0.724  0.2240 -0.0907  0.7305
  532MOL0     O73309   1.304  11.123  -0.783 -0.3951  0.0063  0.3918
  532MOL0     C73310   1.235  11.149  -0.901  0.1269 -1.2348  0.1965
  532MOL0     C73311   1.220  11.041  -0.991 -0.2597 -0.0948 -0.5739
  532MOL0     C73312   1.145  11.055  -1.107 -0.1137  0.3208 -1.0219
  532MOL0     C73313   1.076  11.173  -1.136  0.4312  0.3938  0.3003
  532MOL0     O73314   1.000  11.178  -1.253 -0.8452  0.3353  0.4191
  532MOL0     C73315   1.008  11.307  -1.321  0.1729 -0.7372 -0.1245
  532MOL0     C73316   0.940  11.297  -1.464 -0.4793  0.0384  0.6620
  532MOL0     C73317   0.788  11.256  -1.450  0.2536  0.0562 -0.1637
  532MOL0     C73318   0.722  11.236  -1.583  0.3361  0.2194  1.2592
  532MOL0     C73319   0.571  11.220  -1.562  1.5386  0.4683 -0.1701
  532MOL0     C73320   0.495  11.156  -1.678  0.0618 -0.2490  0.0685
  532MOL0     C73321   0.502  10.999  -1.663 -0.4507 -0.3893 -0.4358
  532MOL0     C73322   0.445  10.922  -1.788 -1.4459 -0.0203 -0.1024
  532MOL0    Cl73323   0.266  10.945  -1.819  0.0127 -0.1962 -0.3066
  532MOL0     C73324   1.083  11.275  -1.044 -0.3052 -0.4419 -0.2156
  532MOL0     C73325   1.160  11.264  -0.928 -0.7167  0.5407 -0.4505
  532MOL0     O73326   1.394  11.334  -0.775  0.3869 -0.5140  0.2931
  532MOL0     C73327   1.398  11.298  -0.488 -0.0013  0.7242  0.2038
  532MOL0     C73328   1.480  11.306  -0.377  0.3940  0.3564 -1.1554
  532MOL0     N73329   2.033  11.062   0.118 -0.2359  0.4892  0.4070
  532MOL0     N73330   2.132  11.016   0.197  0.1390  0.6840  0.0194
  532MOL0     C73331   2.775  11.591   1.112  0.5650 -0.4533  0.3031
  532MOL0     C73332   2.889  11.613   1.189 -0.4915  0.7722 -0.3450
  532MOL0     C73333   3.294  11.554   1.357  0.5354  0.4822  0.2795
  532MOL0     C73334   3.421  11.542   1.297 -0.2076  0.1330  0.4444
  532MOL0     C73335   3.540  11.583   1.351  0.6683  0.6724 -0.2290
  532MOL0     C73336   3.533  11.655   1.473  0.4870 -0.1673  0.1195
  532MOL0     O73337   3.643  11.717   1.520 -0.1696 -0.1296  0.2245
  532MOL0     C73338   3.646  11.795   1.640  0.2752  0.8238  0.3462
  532MOL0     C73339   3.606  11.937   1.620  0.7910 -0.1415 -0.6344
  532MOL0     C73340   3.690  12.021   1.529  0.1811 -0.0083  0.6209
  532MOL0     C73341   3.821  12.085   1.601  0.1619  0.4389 -0.3892
  532MOL0     C73342   3.928  12.002   1.552 -1.3422  0.1402 -0.2663
  532MOL0     C73343   4.022  11.944   1.492  1.5258  0.7510 -0.0054
  532MOL0     C73344   3.400  11.674   1.532  0.0045 -0.3089  0.3765
  532MOL0     C73345   3.282  11.618   1.481  0.3828 -0.3930  0.2949
  532MOL0     C73346   3.154  11.660   1.559 -0.0541  0.1660 -0.1552
  532MOL0     H73347   2.949  11.295   1.286 -2.1202  0.2219  2.6691
  532MOL0     H73348   2.750  11.257   1.137  1.7946 -0.7796 -0.8652
  532MOL0     H73349   2.565  11.597   0.894 -1.3208 -0.2077 -1.3522
  532MOL0     H73350   2.509  11.602   1.065  2.4487  0.1620  0.1631
  532MOL0     H73351   2.339  11.430   1.024  0.0600  0.1787  0.4892
  532MOL0     H73352   2.331  11.518   0.867  0.4808 -0.5388 -0.1513
  532MOL0     H73353   2.473  11.349   0.754 -3.6751  1.2799 -2.6718
  532MOL0     H73354   2.494  11.261   0.903  2.4537  2.5185 -0.9232
  532MOL0     H73355   2.235  11.227   0.887 -0.6834  3.0544  1.0267
  532MOL0     H73356   2.236  11.329   0.743  0.1434  1.0872  0.0588
  532MOL0     H73357   2.220  11.093   0.702  0.2368  0.2856 -0.9810
  532MOL0     H73358   2.388  11.061   0.760 -1.0739 -1.3423 -1.0873
  532MOL0     H73359   2.424  11.262   0.561  0.1514  0.6584  1.1417
  532MOL0     H73360   2.458  11.085   0.552 -1.7925 -1.2126 -0.5151
  532MOL0     H73361   2.225  11.251   0.460 -0.3510 -0.8386 -3.4558
  532MOL0     H73362   2.197  11.081   0.497  2.5929 -1.5680  1.3174
  532MOL0     H73363   2.403  11.176   0.308  0.9129 -1.2491  0.4861
  532MOL0     H73364   2.356  11.006   0.330 -1.2671 -0.6360  2.6773
  532MOL0     H73365   2.221  11.320   0.153  0.8204 -0.8210 -4.2930
  532MOL0     H73366   2.042  11.273  -0.081  2.0191 -2.0388 -0.0371
  532MOL0     H73367   2.000  11.383   0.057  0.4498 -0.7869 -0.5357
  532MOL0     H73368   1.819  11.164  -0.066 -2.0642 -1.4178  1.1342
  532MOL0     H73369   1.791  11.225   0.094  0.8054  3.4979  1.4421
  532MOL0     H73370   1.760  11.443   0.009  1.7163  0.9197 -1.3484
  532MOL0     H73371   1.836  11.399  -0.154  1.7511 -1.5161 -0.2848
  532MOL0     H73372   1.555  11.306  -0.066  0.5411 -1.1937 -0.4634
  532MOL0     H73373   1.607  11.421  -0.193 -0.7164 -0.9028 -2.0483
  532MOL0     H73374   1.724  11.090  -0.435  2.9223  2.9706 -0.9910
  532MOL0     H73375   1.676  10.981  -0.653  0.7506  0.9089  0.7909
  532MOL0     H73376   1.644  11.107  -0.782 -3.9314  1.6790 -0.7770
  532MOL0     H73377   1.529  10.989  -0.736  1.6134 -0.8847 -3.2543
  532MOL0     H73378   1.260  10.947  -0.956 -1.9432 -0.7292 -0.2713
  532MOL0     H73379   1.134  10.972  -1.176 -1.2792  0.3915 -0.9472
  532MOL0     H73380   0.946  11.370  -1.257 -0.6603 -2.1513  0.5036
  532MOL0     H73381   1.107  11.346  -1.345  0.5110 -0.0943  2.0720
  532MOL0     H73382   0.953  11.390  -1.518 -0.0882 -1.7564 -2.5705
  532MOL0     H73383   1.005  11.224  -1.513 -1.1834  0.8702 -1.6050
  532MOL0     H73384   0.732  11.334  -1.399  0.6048  0.2023 -0.0050
  532MOL0     H73385   0.765  11.178  -1.377 -1.8337  2.4725  1.9400
  532MOL0     H73386   0.771  11.157  -1.641 -0.7777  1.6819 -1.8971
  532MOL0     H73387   0.739  11.322  -1.649 -0.3232 -2.5585 -2.9089
  532MOL0     H73388   0.556  11.167  -1.468 -1.3943  0.7727 -0.3505
  532MOL0     H73389   0.537  11.322  -1.543  3.4775  0.6963  2.6045
  532MOL0     H73390   0.544  11.193  -1.769  0.1460  3.5421  1.4969
  532MOL0     H73391   0.388  11.179  -1.677  0.1184  0.2443  2.7551
  532MOL0     H73392   0.447  10.982  -1.571 -0.9939 -1.0364 -0.8742
  532MOL0     H73393   0.607  10.968  -1.658 -0.4524 -0.3237  0.0618
  532MOL0     H73394   0.475  10.818  -1.776  1.9374  0.8834  0.3280
  532MOL0     H73395   0.501  10.963  -1.873 -0.6323  0.4197  0.6311
  532MOL0     H73396   1.042  11.374  -1.063 -0.0818 -0.7360 -2.5595
  532MOL0     H73397   1.154  11.345  -0.856 -0.1895 -0.8804  1.2846
  532MOL0     H73398   1.302  11.347  -0.504 -0.9790 -1.4654 -1.0824
  532MOL0     H73399   1.442  11.367  -0.295 -0.0558 -1.0333 -0.2994
  532MOL0     H73400   2.735  11.669   1.048 -3.2098 -3.3747 -1.3482
  532MOL0     H73401   2.934  11.712   1.182 -0.0721  0.4975 -2.1331
  532MOL0     H73402   3.426  11.491   1.201 -1.4340  0.9830 -0.0978
  532MOL0     H73403   3.628  11.575   1.288  0.2198  3.9928 -1.4621
  532MOL0     H73404   3.568  11.755   1.704 -0.4064  0.8113 -0.4686
  532MOL0     H73405   3.744  11.777   1.686  0.9535 -1.7764 -1.8306
  532MOL0     H73406   3.601  11.977   1.722  1.7535 -3.0098  0.6350
  532MOL0     H73407   3.505  11.937   1.578  0.7838 -1.9769 -0.6915
  532MOL0     H73408   3.727  11.974   1.437  1.6902 -0.1722  1.2832
  532MOL0     H73409   3.632  12.105   1.491 -0.2807 -0.9575 -0.8552
  532MOL0     H73410   3.805  12.082   1.709 -0.0687  4.0427 -0.1965
  532MOL0     H73411   3.839  12.191   1.578 -0.3258  0.9855  1.5963
  532MOL0     H73412   4.105  11.886   1.455  0.5722 -1.3158  0.9257
  532MOL0     H73413   3.391  11.745   1.614  2.6022 -1.2542  1.5824
  532MOL0     H73414   3.172  11.724   1.646 -0.9506 -0.8784  0.8313
  532MOL0     H73415   3.089  11.701   1.481  0.7971 -0.9272 -1.4760
  532MOL0     H73416   3.102  11.569   1.590  0.0735  0.5521  1.2621
  533MOL0     O73417   1.748   9.406   5.931 -0.3699 -0.2497  0.3198
  533MOL0     C73418   1.710   9.370   6.046 -0.1567 -0.7931  0.1899
  533MOL0     O73419   1.728   9.247   6.100  0.6581 -0.2190  0.4945
  533MOL0     C73420   1.812   9.164   6.029 -0.1561 -0.2110  0.4293
  533MOL0     C73421   1.776   9.040   5.980 -0.2173  0.5577 -0.5713
  533MOL0     C73422   1.868   8.947   5.934  0.6383 -0.0588  0.8749
  533MOL0     C73423   2.005   8.981   5.913 -0.1542 -0.1242 -0.2327
  533MOL0     O73424   2.087   8.907   5.833  0.6466 -0.0527 -0.6560
  533MOL0     C73425   2.224   8.907   5.871  0.3739 -0.5159 -0.9116
  533MOL0     C73426   2.297   8.800   5.794  0.7826  0.8748  1.0406
  533MOL0     C73427   2.448   8.801   5.801 -0.6585 -0.8030  0.9554
  533MOL0     C73428   2.511   8.684   5.714  0.8586 -0.2898 -0.6999
  533MOL0     C73429   2.660   8.659   5.724 -0.0742 -0.3423  0.4891
  533MOL0     C73430   2.737   8.783   5.664  1.4691  0.4119  0.3530
  533MOL0     C73431   2.880   8.753   5.647 -0.6215  0.8860 -0.0012
  533MOL0     C73432   2.956   8.785   5.770  0.6330 -0.6252  0.3634
  533MOL0     N73433   3.102   8.781   5.758  0.7860  0.2792  0.5374
  533MOL0     C73434   3.181   8.674   5.772  0.5997 -0.5261  0.5089
  533MOL0     C73435   3.307   8.722   5.756 -0.1505  0.0918  0.5478
  533MOL0     C73436   3.429   8.637   5.760  1.1880 -0.5048  0.3014
  533MOL0     C73437   3.529   8.699   5.662  0.2760 -0.7308  0.0729
  533MOL0     C73438   3.633   8.598   5.609 -0.0481  0.2598  0.9653
  533MOL0     C73439   3.707   8.524   5.720 -0.8939 -0.1728 -0.3796
  533MOL0     O73440   3.750   8.627   5.824  0.5335 -0.2550  0.1846
  533MOL0     C73441   3.879   8.677   5.818  0.0894 -0.8394  0.2744
  533MOL0     C73442   3.966   8.637   5.718 -0.5504 -0.3556  0.0050
  533MOL0     C73443   4.103   8.671   5.725  0.1081 -0.3332 -0.1684
  533MOL0     C73444   4.191   8.608   5.621  0.3954 -0.2517  1.3220
  533MOL0     C73445   4.151   8.763   5.821  0.1828  0.0619  0.7387
  533MOL0     C73446   4.294   8.807   5.832  0.8824  0.0627 -0.5483
  533MOL0     O73447   4.381   8.723   5.777  0.0594  0.0368 -0.4780
  533MOL0     C73448   4.512   8.768   5.781  0.0990  0.7240 -0.1846
  533MOL0     C73449   4.600   8.709   5.870 -0.0641 -0.0228  0.2274
  533MOL0     C73450   4.731   8.758   5.864 -0.6436  0.1082  0.3153
  533MOL0     C73451   4.777   8.858   5.773 -0.8412  0.8137 -0.6264
  533MOL0     O73452   4.914   8.871   5.766 -0.4812 -0.1347  0.6496
  533MOL0     C73453   4.971   8.911   5.639  0.2964  1.0507 -0.5597
  533MOL0     C73454   5.122   8.909   5.639  0.3418 -0.2886  0.2902
  533MOL0     C73455   5.175   8.967   5.513  0.2740 -0.2571  0.8752
  533MOL0     C73456   5.321   9.006   5.509  0.5650 -0.8459 -0.6500
  533MOL0     C73457   5.422   8.897   5.547  0.0307  0.2662 -0.4499
  533MOL0     C73458   5.556   8.967   5.559 -0.4352 -0.2870 -0.2409
  533MOL0     C73459   5.672   8.877   5.617 -0.6079 -0.3479 -0.1996
  533MOL0     C73460   5.797   8.950   5.626 -0.1171  0.0861 -0.1430
  533MOL0    Cl73461   5.936   8.845   5.674  0.1645  0.4122 -0.4386
  533MOL0     C73462   4.676   8.916   5.695  0.2403 -0.6108  0.0387
  533MOL0     C73463   4.547   8.873   5.696 -0.2886 -0.3371  1.3512
  533MOL0     O73464   4.320   8.916   5.889 -0.1844  1.1034  0.1081
  533MOL0     C73465   4.056   8.811   5.914 -0.1907  0.7333 -0.6306
  533MOL0     C73466   3.924   8.772   5.907 -0.5004  0.1526  0.4686
  533MOL0     N73467   3.302   8.860   5.733  0.2359  0.4050 -0.1196
  533MOL0     N73468   3.176   8.896   5.731  0.7179  0.4475  0.5871
  533MOL0     C73469   2.034   9.114   5.951 -0.1563  1.0328 -0.0240
  533MOL0     C73470   1.951   9.205   6.020 -0.2546  0.6395  0.3276
  533MOL0     C73471   1.648   9.467   6.141  0.2738 -0.8456  0.3519
  533MOL0     C73472   1.707   9.491   6.263 -0.4230 -0.4279 -0.5365
  533MOL0     C73473   1.653   9.582   6.352  0.0727 -0.3491  0.1999
  533MOL0     C73474   1.535   9.649   6.330 -0.5646  0.1262 -0.5850
  533MOL0     O73475   1.491   9.730   6.435 -0.9204  0.2318  0.2771
  533MOL0     C73476   1.370   9.807   6.431  0.4764 -0.4793 -0.1668
  533MOL0     C73477   1.249   9.741   6.486  1.0473 -0.4345 -0.4430
  533MOL0     C73478   1.132   9.843   6.518 -0.6945 -0.3048  0.1858
  533MOL0     C73479   1.007   9.768   6.549 -0.2812  0.5601 -0.0646
  533MOL0     C73480   0.893   9.850   6.573 -0.2419 -0.3818  0.5891
  533MOL0     C73481   0.798   9.929   6.571 -0.1257 -0.2884  0.2977
  533MOL0     C73482   1.485   9.647   6.195  0.2695  0.1306  0.5375
  533MOL0     C73483   1.538   9.550   6.108  0.7588 -0.4817 -0.1361
  533MOL0     C73484   1.478   9.552   5.972 -0.1902 -1.2276  0.5601
  533MOL0     H73485   1.672   9.010   5.992 -0.0309  0.3706  0.6257
  533MOL0     H73486   1.828   8.850   5.907  2.1372 -0.5606  0.3584
  533MOL0     H73487   2.231   8.904   5.980 -3.3144  0.7946 -0.4847
  533MOL0     H73488   2.266   9.003   5.840 -1.2453 -0.5831 -3.6837
  533MOL0     H73489   2.264   8.707   5.841 -0.4778  1.1838  0.7948
  533MOL0     H73490   2.270   8.803   5.688  1.4720  4.4938  0.8208
  533MOL0     H73491   2.481   8.895   5.758  2.2093 -2.1652 -0.0935
  533MOL0     H73492   2.484   8.794   5.904 -2.3695  3.2377  2.0090
  533MOL0     H73493   2.470   8.597   5.767 -0.4156  0.4675 -0.3832
  533MOL0     H73494   2.483   8.702   5.610 -0.7676 -1.5510 -0.5116
  533MOL0     H73495   2.679   8.564   5.674  1.1364  1.0091 -1.7929
  533MOL0     H73496   2.682   8.649   5.831  3.6033  1.7470  0.0950
  533MOL0     H73497   2.699   8.805   5.564  1.2032  0.9391  0.5635
  533MOL0     H73498   2.716   8.866   5.732  0.7012 -0.4159  1.1607
  533MOL0     H73499   2.924   8.818   5.571 -0.5938 -0.6651 -1.3418
  533MOL0     H73500   2.902   8.649   5.624 -0.1079  1.2261 -1.1142
  533MOL0     H73501   2.933   8.888   5.799 -1.9702 -0.6042 -1.3801
  533MOL0     H73502   2.918   8.720   5.850 -0.0004 -0.4993  0.1705
  533MOL0     H73503   3.161   8.568   5.790  0.2692 -0.7205 -0.8646
  533MOL0     H73504   3.406   8.535   5.730  1.1590 -0.8961  1.6249
  533MOL0     H73505   3.468   8.640   5.862 -1.9257  1.5022  1.5716
  533MOL0     H73506   3.466   8.723   5.577  1.0104 -0.6717 -0.4622
  533MOL0     H73507   3.578   8.790   5.697  2.4818 -2.1186  0.8235
  533MOL0     H73508   3.579   8.530   5.542  0.9126 -1.5904  2.0012
  533MOL0     H73509   3.709   8.651   5.551 -2.9064  3.0716 -0.5717
  533MOL0     H73510   3.655   8.442   5.772 -1.2390 -0.6104 -1.3986
  533MOL0     H73511   3.778   8.459   5.668  0.1116 -1.7443  2.6557
  533MOL0     H73512   3.942   8.577   5.631  1.9896  1.7793 -2.3477
  533MOL0     H73513   4.230   8.690   5.561 -2.5181 -1.7008 -3.0897
  533MOL0     H73514   4.134   8.546   5.550  1.7020 -1.1368  1.0196
  533MOL0     H73515   4.267   8.542   5.663 -1.0240 -1.9348  1.3675
  533MOL0     H73516   4.589   8.637   5.951 -0.2790 -0.0328  0.1916
  533MOL0     H73517   4.811   8.712   5.922  2.3711  3.2095 -0.9813
  533MOL0     H73518   4.927   8.848   5.561 -0.6888  2.8724 -1.5302
  533MOL0     H73519   4.927   9.007   5.613 -0.0065  1.0741  0.0332
  533MOL0     H73520   5.157   8.965   5.726  0.9443 -2.8577  1.7968
  533MOL0     H73521   5.158   8.808   5.658  5.7012  1.4477  1.1302
  533MOL0     H73522   5.118   9.056   5.485 -0.7467 -0.6299  1.7266
  533MOL0     H73523   5.146   8.897   5.434 -2.3048 -0.4854  1.9166
  533MOL0     H73524   5.324   9.077   5.592  4.0366 -1.0227 -0.4818
  533MOL0     H73525   5.346   9.053   5.413  1.8121  1.2731  0.6324
  533MOL0     H73526   5.400   8.866   5.649  0.1276  1.7441  0.0372
  533MOL0     H73527   5.430   8.813   5.477 -0.4599  0.2448 -0.4850
  533MOL0     H73528   5.542   9.045   5.634 -2.5346 -0.7550 -0.0798
  533MOL0     H73529   5.580   9.018   5.466  3.0035  1.2713  1.3104
  533MOL0     H73530   5.699   8.792   5.554 -0.4084  0.7358 -1.6405
  533MOL0     H73531   5.634   8.837   5.711  2.3192  0.0358  1.2488
  533MOL0     H73532   5.784   9.029   5.700  0.4368  0.4012 -0.3808
  533MOL0     H73533   5.822   8.995   5.530  0.4608 -0.2877 -0.1748
  533MOL0     H73534   4.703   8.986   5.617 -1.7576  1.1715  0.8290
  533MOL0     H73535   4.474   8.914   5.627  0.6255 -0.2126  0.4361
  533MOL0     H73536   4.073   8.894   5.982 -3.0634  1.4047 -0.5998
  533MOL0     H73537   3.855   8.799   5.987 -0.7644 -3.6625  1.7243
  533MOL0     H73538   2.137   9.147   5.953  0.8005 -1.4510 -2.4079
  533MOL0     H73539   1.983   9.305   6.049  2.0663 -0.5673  2.3517
  533MOL0     H73540   1.787   9.428   6.302 -1.4779 -0.4382  1.7425
  533MOL0     H73541   1.702   9.608   6.446 -0.6006  2.3022 -0.1182
  533MOL0     H73542   1.388   9.904   6.478  2.5841 -0.8226 -0.1623
  533MOL0     H73543   1.343   9.838   6.329 -0.6876 -1.6481 -0.2451
  533MOL0     H73544   1.287   9.680   6.568  3.2021 -2.2980 -2.6902
  533MOL0     H73545   1.207   9.663   6.422  2.1177 -2.5479  1.2861
  533MOL0     H73546   1.171   9.892   6.608  2.2405 -1.2434 -0.4683
  533MOL0     H73547   1.120   9.916   6.438  0.0095  3.4271  3.1708
  533MOL0     H73548   1.026   9.711   6.640  0.7675  0.5610 -0.2666
  533MOL0     H73549   0.976   9.701   6.468  0.1434 -1.1519  1.1268
  533MOL0     H73550   0.722  10.004   6.568 -0.8018 -0.9815 -1.2420
  533MOL0     H73551   1.404   9.714   6.171  0.4929  0.1533 -0.1669
  533MOL0     H73552   1.395   9.624   5.964 -1.6394 -3.0307 -2.7905
  533MOL0     H73553   1.553   9.564   5.894 -0.6017 -1.0304  0.1840
  533MOL0     H73554   1.427   9.456   5.956  1.8247 -2.8248  2.9216
  534MOL0     O73555   2.908   4.850   8.756  0.3876 -0.8494 -0.4107
  534MOL0     C73556   2.812   4.799   8.813  0.5318  0.2959 -0.5671
  534MOL0     O73557   2.777   4.820   8.945  0.2818  0.4350  0.2222
  534MOL0     C73558   2.796   4.942   9.007 -0.3512  0.6284 -0.9680
  534MOL0     C73559   2.755   4.934   9.142  0.1028 -0.0716  0.2635
  534MOL0     C73560   2.775   5.047   9.227  0.4230  0.4541 -0.2305
  534MOL0     C73561   2.829   5.168   9.183 -1.1616 -0.5901 -0.0334
  534MOL0     O73562   2.831   5.272   9.271 -0.3880 -0.1176 -0.0117
  534MOL0     C73563   2.926   5.370   9.250  0.1697  0.0150  0.5948
  534MOL0     C73564   2.963   5.444   9.382 -0.0966 -0.0122  0.3848
  534MOL0     C73565   3.049   5.566   9.346 -0.0044  0.4613 -0.2871
  534MOL0     C73566   2.964   5.681   9.307 -0.0832  0.3106 -0.8625
  534MOL0     C73567   3.056   5.807   9.293  0.4492  0.2450 -0.4901
  534MOL0     C73568   2.985   5.936   9.268  0.0418  0.4507 -0.6055
  534MOL0     C73569   3.075   6.064   9.276  0.2917 -0.4815  1.0328
  534MOL0     C73570   3.003   6.184   9.332 -0.1465  0.5386  0.3761
  534MOL0     N73571   2.921   6.146   9.449  0.4294 -1.1421 -1.0496
  534MOL0     C73572   2.963   6.097   9.571  0.4368  0.6859 -0.2151
  534MOL0     C73573   2.842   6.083   9.647 -0.5284  0.3164  0.7646
  534MOL0     C73574   2.820   6.019   9.786 -0.7974 -0.1394 -0.1754
  534MOL0     C73575   2.770   5.881   9.772  0.0933  0.8887  0.0585
  534MOL0     C73576   2.714   5.840   9.911  0.2606 -0.4373  0.5410
  534MOL0     C73577   2.644   5.701   9.899 -0.2720 -0.5951 -0.7588
  534MOL0     O73578   2.735   5.599   9.855  0.1959  0.3411  0.6498
  534MOL0     C73579   2.683   5.470   9.838 -0.0539 -0.7669 -1.1790
  534MOL0     C73580   2.554   5.425   9.858 -0.1427 -0.3800 -0.3981
  534MOL0     C73581   2.509   5.298   9.843 -0.4142 -0.4085  0.3010
  534MOL0     C73582   2.354   5.279   9.836 -0.7127 -0.1926  0.0092
  534MOL0     C73583   2.605   5.199   9.808 -0.3886 -0.1792 -0.2344
  534MOL0     C73584   2.567   5.059   9.764 -0.0095 -0.2067 -0.3517
  534MOL0     O73585   2.666   4.989   9.692  0.4514  0.2892  0.0670
  534MOL0     C73586   2.638   4.873   9.622  0.4791  0.2551 -0.5848
  534MOL0     C73587   2.749   4.790   9.596  0.4834 -1.1690  0.5940
  534MOL0     C73588   2.742   4.667   9.536  0.8571  0.6236 -0.2909
  534MOL0     C73589   2.616   4.623   9.487  0.0694 -0.2310 -1.3488
  534MOL0     O73590   2.605   4.490   9.437  0.6689  0.3920  0.1582
  534MOL0     C73591   2.703   4.394   9.473  0.2727  0.3249 -0.8223
  534MOL0     C73592   2.641   4.258   9.464 -0.2298 -0.1975  0.0846
  534MOL0     C73593   2.518   4.229   9.551 -0.4858 -0.3809  1.0074
  534MOL0     C73594   2.485   4.082   9.573  0.1026 -0.6928 -0.6487
  534MOL0     C73595   2.387   4.054   9.682  0.2400  0.7603 -0.2203
  534MOL0     C73596   2.351   3.906   9.709  0.7733 -0.1769 -0.0629
  534MOL0     C73597   2.268   3.856   9.582 -0.6721  0.4355 -0.0567
  534MOL0     C73598   2.217   3.718   9.605 -0.1934  0.5452  0.5965
  534MOL0    Cl73599   2.346   3.606   9.571  0.2900  0.3668  0.0052
  534MOL0     C73600   2.505   4.703   9.507  0.4760  0.8115 -0.0072
  534MOL0     C73601   2.508   4.823   9.576  0.4012 -0.7700  0.0745
  534MOL0     O73602   2.455   5.014   9.793 -0.6044 -0.3534  0.3204
  534MOL0     C73603   2.741   5.240   9.787  0.7942 -0.4574  0.1458
  534MOL0     C73604   2.782   5.374   9.810 -0.5241  0.3081  0.0910
  534MOL0     N73605   2.734   6.118   9.565  0.5786 -0.1031  0.9360
  534MOL0     N73606   2.785   6.155   9.460  0.6379  0.2361 -0.5673
  534MOL0     C73607   2.872   5.172   9.043 -0.3671 -0.0153  0.4389
  534MOL0     C73608   2.852   5.061   8.960 -0.0521  0.3563  0.4740
  534MOL0     C73609   2.733   4.702   8.743 -0.6057  0.5185 -0.1243
  534MOL0     C73610   2.605   4.682   8.793  0.6783 -0.3098  0.2120
  534MOL0     C73611   2.512   4.598   8.740  0.0705  0.4635 -0.0159
  534MOL0     C73612   2.543   4.538   8.623 -0.2035 -0.6079 -0.2713
  534MOL0     O73613   2.467   4.442   8.556  0.3978  0.0832  0.5918
  534MOL0     C73614   2.336   4.414   8.600 -0.3973 -0.0826  0.1853
  534MOL0     C73615   2.264   4.334   8.486 -0.4053 -0.1029  0.2374
  534MOL0     C73616   2.121   4.300   8.508 -0.5685  0.8343 -0.4789
  534MOL0     C73617   2.074   4.171   8.444 -0.2399 -1.0103 -0.1101
  534MOL0     C73618   2.061   4.185   8.301 -0.4040  0.8737  0.0738
  534MOL0     C73619   2.065   4.208   8.182  1.2404  0.3760  0.8529
  534MOL0     C73620   2.673   4.550   8.571 -0.3457 -0.5299  1.0068
  534MOL0     C73621   2.770   4.627   8.626 -0.2236  0.0546 -0.0417
  534MOL0     C73622   2.913   4.624   8.563  0.7287  0.0941 -0.2840
  534MOL0     H73623   2.708   4.841   9.172 -2.7510  1.0739 -0.4119
  534MOL0     H73624   2.754   5.025   9.331  1.0653 -1.7981 -0.5252
  534MOL0     H73625   2.896   5.444   9.176  0.7295 -2.1196 -1.9356
  534MOL0     H73626   3.021   5.333   9.209  1.4495  2.7695  0.8295
  534MOL0     H73627   2.871   5.476   9.432  0.6958  1.5502  0.8897
  534MOL0     H73628   3.016   5.374   9.447  2.1753  2.0071  0.8170
  534MOL0     H73629   3.111   5.587   9.433 -1.8394 -0.5887  1.3656
  534MOL0     H73630   3.116   5.549   9.261 -2.2932 -1.8711 -1.7789
  534MOL0     H73631   2.912   5.649   9.217  0.2419 -0.7235 -0.6986
  534MOL0     H73632   2.892   5.697   9.388 -0.8306 -2.7801 -0.7740
  534MOL0     H73633   3.125   5.793   9.209  1.9706  0.2132  0.7217
  534MOL0     H73634   3.113   5.820   9.385 -1.4435 -1.7944  1.0948
  534MOL0     H73635   2.951   5.935   9.164  2.8242 -0.0455 -1.6020
  534MOL0     H73636   2.901   5.944   9.339  0.2470 -0.8873 -0.1684
  534MOL0     H73637   3.104   6.093   9.175  0.4417 -2.5343  0.4433
  534MOL0     H73638   3.160   6.040   9.341  0.6741  0.6244  0.9633
  534MOL0     H73639   3.066   6.268   9.365  2.9490 -1.3865 -0.2513
  534MOL0     H73640   2.918   6.208   9.267 -2.3485 -1.8324  2.1926
  534MOL0     H73641   3.066   6.078   9.600  0.6207  0.6006 -0.9205
  534MOL0     H73642   2.749   6.087   9.833 -0.9088 -1.0141  0.9472
  534MOL0     H73643   2.911   6.025   9.846 -1.1491 -0.0799  0.3559
  534MOL0     H73644   2.693   5.873   9.695 -1.7022  1.5765  1.6833
  534MOL0     H73645   2.853   5.811   9.758  0.0822  0.0897  3.1711
  534MOL0     H73646   2.788   5.845   9.991 -2.1443  1.2131  2.8432
  534MOL0     H73647   2.640   5.915   9.939  0.5125  0.1856 -0.4149
  534MOL0     H73648   2.613   5.665   9.997 -1.9515  0.5673 -0.8253
  534MOL0     H73649   2.561   5.713   9.830 -0.0955 -1.2467 -1.0880
  534MOL0     H73650   2.479   5.494   9.896  0.9939 -0.0143  1.3145
  534MOL0     H73651   2.328   5.196   9.903  4.0128 -0.8437  1.4244
  534MOL0     H73652   2.319   5.250   9.737 -3.5669  1.0778  0.5343
  534MOL0     H73653   2.306   5.375   9.857  2.5011  1.4044  0.6139
  534MOL0     H73654   2.841   4.826   9.642  1.0292 -0.0231 -1.3061
  534MOL0     H73655   2.828   4.602   9.528 -0.0257 -0.4754 -1.2797
  534MOL0     H73656   2.799   4.398   9.420  0.3610  4.7438 -0.6800
  534MOL0     H73657   2.725   4.398   9.580  1.9158 -4.2615 -0.7745
  534MOL0     H73658   2.624   4.237   9.358 -1.4262  2.4516 -0.3336
  534MOL0     H73659   2.725   4.196   9.495  0.1712  0.5258  0.4685
  534MOL0     H73660   2.431   4.285   9.514  1.0644  1.7468  0.4150
  534MOL0     H73661   2.558   4.265   9.646  3.2488  2.4834 -1.3762
  534MOL0     H73662   2.580   4.037   9.605  1.5259  3.3550  1.5566
  534MOL0     H73663   2.451   4.037   9.479  0.7809 -1.9943 -0.2997
  534MOL0     H73664   2.431   4.095   9.773 -0.5530  1.6873 -0.2320
  534MOL0     H73665   2.301   4.117   9.657  2.0730  3.6689  0.3676
  534MOL0     H73666   2.291   3.888   9.799  1.8378  0.1073  0.7248
  534MOL0     H73667   2.439   3.847   9.736 -0.1298 -1.0816  1.0518
  534MOL0     H73668   2.329   3.868   9.492  2.0568  0.0546  1.6053
  534MOL0     H73669   2.180   3.921   9.576 -0.6712  0.7841  2.4910
  534MOL0     H73670   2.127   3.696   9.546 -0.8105 -0.5461  1.8819
  534MOL0     H73671   2.199   3.702   9.712  0.5754 -0.0465  0.6463
  534MOL0     H73672   2.408   4.677   9.466  0.6642  3.1144 -2.2293
  534MOL0     H73673   2.413   4.874   9.584 -1.4576 -3.5592 -2.2072
  534MOL0     H73674   2.825   5.175   9.768  0.9601 -0.1208 -0.2889
  534MOL0     H73675   2.883   5.409   9.792 -0.4174 -0.3841 -0.7348
  534MOL0     H73676   2.907   5.263   8.996 -0.3973  0.0800  0.5973
  534MOL0     H73677   2.891   5.068   8.859 -3.4894 -1.9251 -1.2107
  534MOL0     H73678   2.562   4.749   8.868 -2.0865 -0.4098 -1.1382
  534MOL0     H73679   2.411   4.584   8.777 -0.5634 -2.3050 -2.4356
  534MOL0     H73680   2.329   4.365   8.697 -3.3782 -1.5749 -0.6504
  534MOL0     H73681   2.280   4.508   8.598 -0.9109 -0.3733  0.5950
  534MOL0     H73682   2.307   4.233   8.485 -0.0151  0.0673 -0.1615
  534MOL0     H73683   2.263   4.387   8.390 -0.3927  1.9234  1.2981
  534MOL0     H73684   2.104   4.309   8.616 -2.4067  1.5224 -0.8020
  534MOL0     H73685   2.068   4.379   8.455 -1.4782  0.3081 -0.3822
  534MOL0     H73686   1.973   4.157   8.485 -0.9209 -0.8087 -1.6542
  534MOL0     H73687   2.137   4.086   8.469  1.6543 -0.2769 -2.0495
  534MOL0     H73688   2.066   4.233   8.078  0.4709 -1.4411  0.3821
  534MOL0     H73689   2.702   4.490   8.485  0.9048  0.4134  0.7401
  534MOL0     H73690   2.928   4.536   8.499 -1.4795 -2.0598  1.9340
  534MOL0     H73691   2.941   4.721   8.521 -1.8768  1.2855  0.5487
  534MOL0     H73692   2.974   4.619   8.654  1.3517  2.9848 -0.4516
  535MOL0     O73693   3.968   5.769   3.668  0.3578 -0.2918 -0.0606
  535MOL0     C73694   4.028   5.669   3.623  0.2859 -0.6866  0.0186
  535MOL0     O73695   4.163   5.645   3.639  0.0305  0.4007 -0.3270
  535MOL0     C73696   4.230   5.723   3.729 -0.7831 -0.1299 -0.2746
  535MOL0     C73697   4.346   5.792   3.687 -0.2276  0.3708  0.0175
  535MOL0     C73698   4.425   5.870   3.779  0.1575 -0.2202 -0.6075
  535MOL0     C73699   4.396   5.868   3.924 -0.8716  0.2979  0.7886
  535MOL0     O73700   4.477   5.930   4.018  0.1401  1.0059 -0.6341
  535MOL0     C73701   4.598   5.863   4.043 -0.1989 -0.5229 -0.2183
  535MOL0     C73702   4.634   5.900   4.185  0.3190  1.0618 -0.2367
  535MOL0     C73703   4.759   5.818   4.240  0.3479  0.8287 -0.1171
  535MOL0     C73704   4.760   5.849   4.395 -0.2803  0.0303 -0.3795
  535MOL0     C73705   4.849   5.751   4.467 -0.5770 -0.3899  0.2497
  535MOL0     C73706   4.855   5.767   4.619  0.2708  0.8215  0.1193
  535MOL0     C73707   4.880   5.633   4.682 -0.6384  0.1181  0.4277
  535MOL0     C73708   4.749   5.547   4.701 -0.6586  0.1698  1.2066
  535MOL0     N73709   4.789   5.427   4.771 -0.8134  0.1304  0.2951
  535MOL0     C73710   4.799   5.432   4.906  0.5691 -0.1409  0.2937
  535MOL0     C73711   4.801   5.302   4.935 -0.5986  0.0969  0.0380
  535MOL0     C73712   4.805   5.240   5.074 -0.0970  0.3336  0.0383
  535MOL0     C73713   4.938   5.170   5.118 -0.0966 -0.4846  0.2238
  535MOL0     C73714   5.041   5.284   5.139  0.1539 -0.2996  0.2115
  535MOL0     C73715   5.042   5.351   5.278  0.5645 -0.5704  0.3940
  535MOL0     O73716   4.925   5.431   5.302  0.0151 -0.2258  0.2894
  535MOL0     C73717   4.896   5.550   5.249 -0.9788  0.0060  0.3590
  535MOL0     C73718   4.982   5.607   5.149 -0.0101  0.5273  0.2250
  535MOL0     C73719   4.971   5.736   5.102  0.1691 -0.4169  0.4586
  535MOL0     C73720   5.092   5.809   5.046 -0.1022 -0.0877 -0.1620
  535MOL0     C73721   4.844   5.799   5.124 -0.1808 -0.0085  0.0009
  535MOL0     C73722   4.788   5.900   5.034  0.4072  0.1771  0.3130
  535MOL0     O73723   4.659   5.944   5.041  0.0047  0.3209  0.1431
  535MOL0     C73724   4.609   5.994   4.929  0.9274  0.4195 -0.3307
  535MOL0     C73725   4.522   5.910   4.855 -1.0308 -0.2591 -0.0893
  535MOL0     C73726   4.472   5.948   4.727  0.6801 -0.2294  0.3925
  535MOL0     C73727   4.514   6.074   4.665 -0.6090 -0.5323 -0.6891
  535MOL0     O73728   4.472   6.122   4.535 -0.3331 -1.1485 -0.3543
  535MOL0     C73729   4.373   6.040   4.462 -0.4511  0.5245  0.4697
  535MOL0     C73730   4.311   6.120   4.346 -0.1029 -0.2976 -0.7255
  535MOL0     C73731   4.223   6.032   4.254  1.2189  0.3802 -0.4222
  535MOL0     C73732   4.077   6.042   4.301  0.0968 -0.4932 -0.5676
  535MOL0     C73733   3.984   5.951   4.225 -0.2771  0.4616 -0.1178
  535MOL0     C73734   3.957   6.006   4.083 -0.0221 -0.6687 -0.3093
  535MOL0     C73735   3.851   5.932   4.005  0.8610 -0.5951 -0.3319
  535MOL0     C73736   3.789   6.038   3.910 -0.0747 -0.0909  0.1354
  535MOL0    Cl73737   3.691   6.164   3.990 -0.4467  0.0179 -0.0108
  535MOL0     C73738   4.593   6.158   4.747  0.1186  0.5778 -0.5329
  535MOL0     C73739   4.645   6.120   4.880 -0.0916 -0.2443 -0.5008
  535MOL0     O73740   4.866   5.933   4.944  0.2894  0.0058 -0.9165
  535MOL0     C73741   4.753   5.735   5.210  0.1937  0.1731  0.5211
  535MOL0     C73742   4.781   5.616   5.284 -0.8153  0.0190 -0.3877
  535MOL0     N73743   4.797   5.235   4.818 -0.0411 -0.5524 -0.1502
  535MOL0     N73744   4.794   5.304   4.719  0.2077 -0.4048 -0.3588
  535MOL0     C73745   4.300   5.784   3.966  0.0556  0.5920 -0.0989
  535MOL0     C73746   4.210   5.714   3.867 -0.0135 -1.2949 -0.5148
  535MOL0     C73747   3.952   5.557   3.566 -0.2560 -0.1134  0.2108
  535MOL0     C73748   4.028   5.463   3.495  0.4765 -0.1345  0.6552
  535MOL0     C73749   3.967   5.352   3.432  0.7802  0.6113  1.1945
  535MOL0     C73750   3.833   5.335   3.435  0.0601 -0.7264 -0.1307
  535MOL0     O73751   3.768   5.227   3.371 -0.8612  0.1038  0.1766
  535MOL0     C73752   3.841   5.124   3.300  0.2063 -0.3680  0.0543
  535MOL0     C73753   3.753   5.008   3.267  0.2527  0.6046  0.1307
  535MOL0     C73754   3.615   5.048   3.215  0.4302  0.3674  0.0565
  535MOL0     C73755   3.629   5.147   3.094  0.4151 -0.4390  0.3502
  535MOL0     C73756   3.718   5.107   2.989  0.2337  0.4303  0.7198
  535MOL0     C73757   3.786   5.079   2.892 -0.0645 -1.1856 -0.5831
  535MOL0     C73758   3.757   5.430   3.494 -0.2585  1.1757 -0.8388
  535MOL0     C73759   3.812   5.537   3.567  0.9518 -0.8603  0.4452
  535MOL0     C73760   3.708   5.620   3.637 -0.1034  0.5613 -0.2747
  535MOL0     H73761   4.369   5.790   3.581  1.0685  1.9850  0.2217
  535MOL0     H73762   4.516   5.914   3.741 -0.4542 -1.4070 -3.7668
  535MOL0     H73763   4.675   5.895   3.973 -0.7345 -3.2283 -2.1923
  535MOL0     H73764   4.587   5.756   4.027  0.2488 -0.6362  0.2052
  535MOL0     H73765   4.654   6.007   4.188  3.4054  0.6329 -1.5855
  535MOL0     H73766   4.546   5.879   4.247 -0.3763  1.8780 -0.9199
  535MOL0     H73767   4.742   5.713   4.213 -0.7502  0.8013  0.6058
  535MOL0     H73768   4.856   5.851   4.201  0.3022  0.7592 -0.2894
  535MOL0     H73769   4.808   5.946   4.408 -0.8847  0.9879 -4.0355
  535MOL0     H73770   4.661   5.851   4.441  0.0527 -0.6497  0.3923
  535MOL0     H73771   4.950   5.771   4.429  0.1518  3.8666  3.7079
  535MOL0     H73772   4.818   5.650   4.437 -1.7670 -0.8651  2.7645
  535MOL0     H73773   4.932   5.837   4.653  0.0131  0.3107  1.8797
  535MOL0     H73774   4.761   5.807   4.659  0.8918  1.7026  0.7378
  535MOL0     H73775   4.923   5.653   4.781  1.3497  0.8761 -0.5221
  535MOL0     H73776   4.965   5.588   4.629 -2.1039 -1.3880 -0.7318
  535MOL0     H73777   4.670   5.601   4.754 -1.4059 -2.8299  3.3690
  535MOL0     H73778   4.715   5.519   4.601  0.5549  1.3353  0.4456
  535MOL0     H73779   4.793   5.516   4.975 -0.1029  0.4773 -0.5028
  535MOL0     H73780   4.731   5.159   5.079 -0.0400  0.2772 -0.0203
  535MOL0     H73781   4.762   5.306   5.150 -0.6881 -0.8399  0.7620
  535MOL0     H73782   4.935   5.105   5.206 -0.1327  0.8857  1.2621
  535MOL0     H73783   4.978   5.105   5.039 -3.4226  0.9229 -2.9266
  535MOL0     H73784   5.142   5.242   5.134  0.8318  1.1328  1.1081
  535MOL0     H73785   5.041   5.354   5.055 -1.8925  0.2040  0.5962
  535MOL0     H73786   5.053   5.279   5.359 -0.7845  2.3210  3.4249
  535MOL0     H73787   5.132   5.413   5.281  1.2381 -1.5475  1.0023
  535MOL0     H73788   5.078   5.561   5.128 -0.8456 -1.2839  0.1876
  535MOL0     H73789   5.104   5.910   5.086  1.9389  0.5289 -2.0794
  535MOL0     H73790   5.084   5.816   4.937 -0.8130 -0.0592 -0.1115
  535MOL0     H73791   5.181   5.756   5.081 -1.9420 -0.4857  4.5861
  535MOL0     H73792   4.504   5.813   4.902 -0.1802  0.2223  1.2870
  535MOL0     H73793   4.400   5.878   4.687  0.1312 -0.3593  1.5892
  535MOL0     H73794   4.427   5.950   4.430 -0.1714  1.1100 -0.7629
  535MOL0     H73795   4.287   6.006   4.521 -0.9320  0.1126 -0.4440
  535MOL0     H73796   4.252   6.202   4.387 -1.8534 -1.7860 -0.1183
  535MOL0     H73797   4.396   6.168   4.296 -0.5807  1.7804  0.3582
  535MOL0     H73798   4.250   5.926   4.255  0.6209  0.1795  2.7071
  535MOL0     H73799   4.236   6.074   4.154 -1.2869  1.8343 -0.2371
  535MOL0     H73800   4.052   6.148   4.295  1.5359 -0.2020 -2.0816
  535MOL0     H73801   4.065   6.014   4.406 -1.0645 -1.0581 -0.8418
  535MOL0     H73802   4.020   5.848   4.229  0.2356  0.6165 -0.5707
  535MOL0     H73803   3.888   5.962   4.275 -1.8985  1.4909 -3.1765
  535MOL0     H73804   4.053   6.011   4.030  0.2913  1.1859  0.3652
  535MOL0     H73805   3.930   6.112   4.092  1.2168 -0.5200  2.4941
  535MOL0     H73806   3.777   5.890   4.073 -0.1881  1.4425 -0.1279
  535MOL0     H73807   3.897   5.844   3.959 -0.7586 -1.7899  0.2528
  535MOL0     H73808   3.733   5.988   3.831 -1.1455 -0.9223  1.3698
  535MOL0     H73809   3.880   6.071   3.860  1.4718 -2.3409  1.2485
  535MOL0     H73810   4.622   6.252   4.703  1.5054  0.4253 -0.0115
  535MOL0     H73811   4.707   6.186   4.939 -2.9298  1.8024  0.3843
  535MOL0     H73812   4.656   5.782   5.226 -0.0931  0.1228 -0.9041
  535MOL0     H73813   4.709   5.574   5.354  0.1017 -0.0132  0.5692
  535MOL0     H73814   4.280   5.776   4.072 -0.8580  2.2394 -0.1176
  535MOL0     H73815   4.141   5.642   3.911 -1.3414 -0.4456 -1.1638
  535MOL0     H73816   4.133   5.489   3.484 -0.3532  3.8974  0.4654
  535MOL0     H73817   4.028   5.283   3.375  3.0022  1.4025  2.4558
  535MOL0     H73818   3.872   5.178   3.210  0.3878 -0.4488  0.0691
  535MOL0     H73819   3.933   5.092   3.350  0.0123 -0.4855  0.3343
  535MOL0     H73820   3.735   4.941   3.352 -0.7445  0.8026  0.0902
  535MOL0     H73821   3.804   4.945   3.194  0.1976 -1.4802  1.7848
  535MOL0     H73822   3.563   4.955   3.193 -0.3314  0.5311  1.0744
  535MOL0     H73823   3.558   5.100   3.294  3.0901  2.3187  0.8273
  535MOL0     H73824   3.660   5.247   3.125  0.0328 -0.3121  0.3352
  535MOL0     H73825   3.529   5.164   3.052  0.3486 -0.8979  0.3214
  535MOL0     H73826   3.848   5.064   2.805  1.7401 -0.6540  0.5614
  535MOL0     H73827   3.650   5.430   3.477 -0.1719 -1.1068 -1.7469
  535MOL0     H73828   3.604   5.606   3.605 -1.6290  3.9308  2.5473
  535MOL0     H73829   3.722   5.599   3.744  0.9635  2.9591  0.1088
  535MOL0     H73830   3.732   5.724   3.618 -1.7246  1.0787  0.3274
  536MOL0     O73831   8.082   4.329   6.251 -0.4439 -0.8292 -0.0300
  536MOL0     C73832   8.180   4.257   6.220 -0.4486  0.1321 -0.7803
  536MOL0     O73833   8.209   4.136   6.276 -0.1342  1.1148  0.1227
  536MOL0     C73834   8.108   4.077   6.336  0.1923 -0.7593 -0.0649
  536MOL0     C73835   7.964   4.087   6.307 -0.7931  0.1599 -0.4256
  536MOL0     C73836   7.876   4.013   6.378  0.7489 -0.4385  0.0563
  536MOL0     C73837   7.917   3.917   6.483 -0.0621 -0.2032  0.2011
  536MOL0     O73838   7.815   3.865   6.556 -0.2622  0.7207 -0.0991
  536MOL0     C73839   7.837   3.744   6.633  0.4061  0.4602 -0.8976
  536MOL0     C73840   7.707   3.663   6.617  0.2509  0.4487  0.1539
  536MOL0     C73841   7.712   3.519   6.675 -0.4518 -0.0104 -0.1886
  536MOL0     C73842   7.598   3.444   6.609 -0.7771  0.5951  0.7179
  536MOL0     C73843   7.592   3.304   6.676 -0.1891  1.2932 -0.1316
  536MOL0     C73844   7.585   3.190   6.567 -0.3503 -0.7720  0.7807
  536MOL0     C73845   7.595   3.052   6.649  0.3359  0.2669  0.4931
  536MOL0     C73846   7.640   2.926   6.579  0.3445 -0.4738 -0.6885
  536MOL0     N73847   7.560   2.897   6.463 -0.1974  0.2594 -0.0289
  536MOL0     C73848   7.583   2.946   6.336 -0.0128  0.2414  0.0305
  536MOL0     C73849   7.465   2.918   6.266  0.2377 -0.5648 -0.3086
  536MOL0     C73850   7.429   2.947   6.122 -0.0784  0.4691  0.3712
  536MOL0     C73851   7.421   3.096   6.082 -0.1462 -1.0466  0.5934
  536MOL0     C73852   7.404   3.102   5.923  0.2301 -0.2260  0.6964
  536MOL0     C73853   7.535   3.116   5.844  0.1111  0.5448  0.6713
  536MOL0     O73854   7.587   2.983   5.842 -0.3668 -0.0950 -0.4084
  536MOL0     C73855   7.693   2.963   5.751 -0.5315  0.7553 -0.9275
  536MOL0     C73856   7.794   3.052   5.727 -0.4193  0.1037  0.6790
  536MOL0     C73857   7.911   3.025   5.659  0.5774  0.1889  0.3110
  536MOL0     C73858   8.017   3.134   5.650  0.8039 -0.2601  0.0524
  536MOL0     C73859   7.910   2.897   5.590 -0.7205 -1.1785 -0.1334
  536MOL0     C73860   8.003   2.882   5.473 -0.0938 -0.3930 -0.6246
  536MOL0     O73861   8.002   2.977   5.371 -0.1521 -0.2091 -0.4489
  536MOL0     C73862   8.091   2.966   5.271  0.0098  0.9257  0.0605
  536MOL0     C73863   8.053   2.940   5.136  0.3815 -0.1228  0.9331
  536MOL0     C73864   8.144   2.931   5.028 -1.0423 -0.2436 -0.1895
  536MOL0     C73865   8.281   2.937   5.055  0.4600 -0.0871  1.1381
  536MOL0     O73866   8.353   2.925   4.944 -0.4341  0.1985 -0.1005
  536MOL0     C73867   8.496   2.918   4.963 -0.0359 -0.2163  0.1979
  536MOL0     C73868   8.554   3.056   4.947  0.5034  0.2195  0.2962
  536MOL0     C73869   8.694   3.075   4.995 -0.0925 -0.3452 -0.3883
  536MOL0     C73870   8.729   3.058   5.143 -0.5225 -0.3117  0.1766
  536MOL0     C73871   8.884   3.069   5.170 -0.0270 -0.0627 -0.1148
  536MOL0     C73872   8.947   3.210   5.142  0.0360  0.3778 -0.5476
  536MOL0     C73873   9.090   3.201   5.095  0.2133  0.1520  0.7556
  536MOL0     C73874   9.107   3.153   4.950 -0.2486  0.1069 -0.6799
  536MOL0    Cl73875   9.280   3.178   4.914 -0.2579  0.1187 -0.2077
  536MOL0     C73876   8.324   2.951   5.189 -0.4008 -0.5994 -0.7256
  536MOL0     C73877   8.229   2.969   5.297 -0.3954 -0.7955  1.1472
  536MOL0     O73878   8.079   2.785   5.480 -0.4232 -0.2480 -0.2787
  536MOL0     C73879   7.805   2.803   5.603 -0.7681 -0.2967 -0.6700
  536MOL0     C73880   7.702   2.828   5.693 -0.2456 -0.2954  0.2949
  536MOL0     N73881   7.372   2.863   6.360 -0.0207  0.2484 -0.9164
  536MOL0     N73882   7.434   2.836   6.471 -0.3670  0.1782 -0.0181
  536MOL0     C73883   8.055   3.897   6.489 -0.1509  0.5428 -0.5197
  536MOL0     C73884   8.151   3.968   6.419  0.1784 -0.9587 -1.1114
  536MOL0     C73885   8.277   4.308   6.129 -0.0533 -0.8496  0.1726
  536MOL0     C73886   8.297   4.444   6.114 -0.1644 -1.1310 -0.4475
  536MOL0     C73887   8.392   4.502   6.026 -0.0864 -0.0026  0.5590
  536MOL0     C73888   8.470   4.417   5.951 -0.1030  0.0739  0.1734
  536MOL0     O73889   8.564   4.464   5.865 -0.1363 -0.4198 -0.3909
  536MOL0     C73890   8.526   4.459   5.725  0.0418 -0.2312  0.1872
  536MOL0     C73891   8.507   4.600   5.661  0.5579  0.2094 -0.0547
  536MOL0     C73892   8.542   4.596   5.513  0.3605 -0.2405 -0.2248
  536MOL0     C73893   8.529   4.720   5.436 -0.7123 -0.7716 -0.2887
  536MOL0     C73894   8.647   4.807   5.451  0.5182  0.3459 -0.0212
  536MOL0     C73895   8.754   4.870   5.446  0.8159  0.1631  0.8801
  536MOL0     C73896   8.457   4.278   5.963  0.0460 -0.3595 -0.4353
  536MOL0     C73897   8.358   4.223   6.049  0.1939 -0.3753 -0.4327
  536MOL0     C73898   8.341   4.076   6.041  0.6990 -0.0034  1.1820
  536MOL0     H73899   7.930   4.160   6.235 -0.0302  0.7767 -0.1781
  536MOL0     H73900   7.772   4.036   6.357  0.9522 -0.0608 -0.5839
  536MOL0     H73901   7.860   3.774   6.736  2.9684 -1.1707 -0.9034
  536MOL0     H73902   7.917   3.678   6.597  0.0184 -0.4209 -0.1884
  536MOL0     H73903   7.625   3.717   6.666 -0.3823 -0.3398 -0.0284
  536MOL0     H73904   7.696   3.661   6.508  1.8690  1.2049 -0.0567
  536MOL0     H73905   7.806   3.467   6.656 -0.9303 -1.0200  0.1905
  536MOL0     H73906   7.698   3.514   6.783 -1.8923  2.2660 -0.1914
  536MOL0     H73907   7.498   3.486   6.621 -1.3916 -1.1021  2.0814
  536MOL0     H73908   7.623   3.436   6.503  0.3150  0.1079  0.9900
  536MOL0     H73909   7.509   3.287   6.745  1.6101 -4.9509  1.1962
  536MOL0     H73910   7.680   3.287   6.738 -2.4499 -0.9307  2.7525
  536MOL0     H73911   7.496   3.191   6.504 -0.9128  1.8978  1.4727
  536MOL0     H73912   7.673   3.208   6.505  0.1016 -1.0874  1.3117
  536MOL0     H73913   7.502   3.032   6.703 -0.4515 -1.4575 -1.3787
  536MOL0     H73914   7.664   3.073   6.731  0.3367  1.2939  0.2411
  536MOL0     H73915   7.746   2.931   6.554  0.3829 -0.0441 -0.4351
  536MOL0     H73916   7.640   2.839   6.646  1.4155  1.1987  1.6111
  536MOL0     H73917   7.669   3.004   6.305  1.3133 -1.3888  0.5135
  536MOL0     H73918   7.329   2.906   6.108 -0.6305  1.0028  2.3878
  536MOL0     H73919   7.499   2.896   6.055 -1.2915 -1.8523  0.7550
  536MOL0     H73920   7.338   3.140   6.138 -0.5534 -2.2972  1.0018
  536MOL0     H73921   7.514   3.150   6.105 -0.6817 -0.6275  1.9104
  536MOL0     H73922   7.340   3.021   5.887  1.2947 -0.1284 -1.5892
  536MOL0     H73923   7.357   3.197   5.895  2.9274  0.4571 -1.9524
  536MOL0     H73924   7.529   3.154   5.742  3.9333  0.9868  0.4628
  536MOL0     H73925   7.607   3.184   5.890 -1.3493  1.4698  1.6895
  536MOL0     H73926   7.796   3.153   5.767  1.9105  0.1210  0.6425
  536MOL0     H73927   7.974   3.223   5.603  1.3860 -0.3030 -0.5745
  536MOL0     H73928   8.103   3.107   5.588  1.1965  0.1554  0.4076
  536MOL0     H73929   8.038   3.150   5.756 -1.4881 -0.9487  0.6847
  536MOL0     H73930   7.947   2.931   5.113 -0.0765  0.9863  2.4847
  536MOL0     H73931   8.105   2.922   4.927 -0.0525  0.5611 -0.6545
  536MOL0     H73932   8.525   2.869   5.056  0.1536  1.7276  1.2216
  536MOL0     H73933   8.530   2.851   4.883  2.7241  2.8962 -1.5157
  536MOL0     H73934   8.541   3.087   4.842 -3.6119 -0.9744  0.2654
  536MOL0     H73935   8.502   3.133   5.005  2.9224  2.1286  0.0974
  536MOL0     H73936   8.718   3.181   4.979  0.5456 -0.5712 -0.9613
  536MOL0     H73937   8.765   3.021   4.933  1.5871 -1.3650  2.2495
  536MOL0     H73938   8.698   2.962   5.183  0.9470 -1.8712 -2.1448
  536MOL0     H73939   8.668   3.128   5.201 -0.1007 -0.5855  0.9634
  536MOL0     H73940   8.910   3.041   5.272  1.1266  0.9818 -0.1024
  536MOL0     H73941   8.935   2.998   5.104 -2.8733 -1.9129 -0.4971
  536MOL0     H73942   8.939   3.273   5.231 -2.7165 -0.4118 -0.1600
  536MOL0     H73943   8.894   3.278   5.075  0.3580  2.2428  1.0066
  536MOL0     H73944   9.159   3.151   5.164  3.5001  1.1567 -1.5894
  536MOL0     H73945   9.145   3.296   5.097 -1.7517  1.3393  1.1427
  536MOL0     H73946   9.031   3.213   4.898 -2.3752 -0.0726  1.9844
  536MOL0     H73947   9.073   3.049   4.947 -2.4353  0.7660 -0.4496
  536MOL0     H73948   8.429   2.954   5.215 -0.9920  2.4368  2.0195
  536MOL0     H73949   8.269   2.979   5.398  0.3029 -1.4999  0.9550
  536MOL0     H73950   7.809   2.709   5.548  2.7470 -0.4927 -0.3022
  536MOL0     H73951   7.622   2.764   5.730 -2.1393  0.2184 -2.6047
  536MOL0     H73952   8.093   3.828   6.563 -0.2870 -0.1043 -1.0485
  536MOL0     H73953   8.258   3.953   6.433  1.3660  4.1027 -2.6458
  536MOL0     H73954   8.235   4.515   6.168 -1.1182 -0.0718 -2.7724
  536MOL0     H73955   8.404   4.609   6.021  0.5049 -0.1264 -1.1586
  536MOL0     H73956   8.610   4.414   5.672 -0.6451 -0.5319 -0.6759
  536MOL0     H73957   8.434   4.403   5.704 -0.8470  2.0844 -2.9028
  536MOL0     H73958   8.581   4.669   5.703  0.8039  1.7233 -2.7490
  536MOL0     H73959   8.406   4.643   5.667  0.6345  0.4405 -0.4096
  536MOL0     H73960   8.647   4.566   5.501  2.0512  4.3725  0.9369
  536MOL0     H73961   8.475   4.520   5.471 -1.8305  2.1787 -1.3631
  536MOL0     H73962   8.451   4.783   5.478  0.4501 -0.7613  2.0231
  536MOL0     H73963   8.510   4.698   5.331  0.2511  0.3150 -0.7145
  536MOL0     H73964   8.843   4.926   5.429  0.7632 -0.5150 -2.2173
  536MOL0     H73965   8.514   4.219   5.892 -1.3589  1.0256 -2.8407
  536MOL0     H73966   8.376   4.022   6.130 -2.6699 -2.2396  1.3420
  536MOL0     H73967   8.237   4.048   6.021  1.2458 -0.9596 -0.5978
  536MOL0     H73968   8.397   4.035   5.956 -0.0684 -2.2171  1.6752
  537MOL0     O73969   5.996   6.524   1.852 -0.1736  0.4585  0.1689
  537MOL0     C73970   5.953   6.632   1.889 -1.0125 -0.3661  0.5537
  537MOL0     O73971   5.852   6.652   1.980 -0.0458 -0.3045 -0.1036
  537MOL0     C73972   5.787   6.542   2.040 -0.0116  0.6535 -0.1276
  537MOL0     C73973   5.842   6.420   2.082 -0.2401 -0.0601  0.5162
  537MOL0     C73974   5.761   6.322   2.155  0.0646 -0.9814  0.0321
  537MOL0     C73975   5.636   6.359   2.192  0.0269 -0.5954  0.8420
  537MOL0     O73976   5.547   6.280   2.265 -0.2772 -0.7855 -0.4059
  537MOL0     C73977   5.593   6.188   2.368  0.2892 -0.8388  0.8019
  537MOL0     C73978   5.485   6.153   2.470  0.3356 -1.1105 -0.0397
  537MOL0     C73979   5.547   6.062   2.577 -0.4454 -0.2053  0.3775
  537MOL0     C73980   5.433   5.998   2.661 -0.3128 -0.0359 -0.0510
  537MOL0     C73981   5.494   5.891   2.759  0.2045 -0.0219 -0.6257
  537MOL0     C73982   5.395   5.842   2.855 -0.4089  0.2331 -0.1056
  537MOL0     C73983   5.428   5.744   2.972 -0.5043 -0.0690 -1.2891
  537MOL0     C73984   5.462   5.601   2.926 -0.5176 -0.2454  0.1134
  537MOL0     N73985   5.562   5.535   3.013 -0.1407 -0.4920  0.2216
  537MOL0     C73986   5.522   5.473   3.125  0.4496  0.5032 -1.1373
  537MOL0     C73987   5.637   5.435   3.194  0.5619 -0.6664  0.0069
  537MOL0     C73988   5.652   5.383   3.334 -0.2214 -0.5940  0.0242
  537MOL0     C73989   5.656   5.220   3.343  0.9030 -0.5450 -0.3202
  537MOL0     C73990   5.724   5.161   3.469 -0.5781  0.2077  0.8424
  537MOL0     C73991   5.751   5.008   3.448 -0.3402  0.1170  1.1286
  537MOL0     O73992   5.833   4.984   3.336 -0.3873  0.3389 -0.5928
  537MOL0     C73993   5.968   5.006   3.341  0.0037 -0.6462  1.4868
  537MOL0     C73994   6.045   4.979   3.449 -0.3752 -1.0168 -0.2032
  537MOL0     C73995   6.182   5.013   3.440  0.8788  0.7236 -0.6887
  537MOL0     C73996   6.268   4.979   3.565  0.0489 -0.1842 -0.2999
  537MOL0     C73997   6.234   5.076   3.321  0.2218 -0.1004  0.6233
  537MOL0     C73998   6.372   5.108   3.293  0.1847  0.5101 -0.0654
  537MOL0     O73999   6.420   5.111   3.166  0.4401 -0.2557 -0.2422
  537MOL0     C74000   6.545   5.165   3.134  0.1984 -0.3168  1.0540
  537MOL0     C74001   6.597   5.276   3.207  0.3329 -0.4237  0.2939
  537MOL0     C74002   6.724   5.326   3.172 -0.1454 -0.3602 -0.3616
  537MOL0     C74003   6.803   5.283   3.067  0.3022  0.1423 -0.7872
  537MOL0     O74004   6.928   5.338   3.053  0.6130  0.3086  0.2572
  537MOL0     C74005   7.011   5.317   2.934  0.6744  0.7265  0.5856
  537MOL0     C74006   7.140   5.409   2.938  0.1857 -0.5084 -0.5601
  537MOL0     C74007   7.245   5.348   2.848 -0.6850  0.3449  0.1826
  537MOL0     C74008   7.388   5.386   2.886  0.4978 -0.6750  0.4072
  537MOL0     C74009   7.420   5.531   2.859  0.8823  0.1378 -0.4101
  537MOL0     C74010   7.564   5.571   2.904 -0.2896  0.2789  0.0840
  537MOL0     C74011   7.563   5.630   3.044  0.8998 -0.8303 -0.6454
  537MOL0     C74012   7.703   5.668   3.105 -0.2857 -0.4376  0.3981
  537MOL0    Cl74013   7.768   5.820   3.045  0.2359 -0.0867  0.6396
  537MOL0     C74014   6.749   5.175   2.993  0.2042 -0.4980  0.7233
  537MOL0     C74015   6.622   5.118   3.024 -0.3641  0.0483 -0.7836
  537MOL0     O74016   6.445   5.116   3.389 -0.2498 -0.3790 -0.2196
  537MOL0     C74017   6.142   5.116   3.219 -0.4738  0.5589  0.0620
  537MOL0     C74018   6.008   5.074   3.234 -0.4177 -0.2545  0.3479
  537MOL0     N74019   5.742   5.480   3.120  0.2359 -0.2817 -0.2164
  537MOL0     N74020   5.700   5.539   3.015  0.8695  1.2414  1.3557
  537MOL0     C74021   5.582   6.477   2.152 -0.3112  0.8410  0.2634
  537MOL0     C74022   5.656   6.566   2.074  0.3039  0.5997 -0.4313
  537MOL0     C74023   6.011   6.757   1.835 -0.3539 -0.4299 -0.0295
  537MOL0     C74024   5.938   6.881   1.851  1.1922 -0.6720  0.4177
  537MOL0     C74025   5.981   7.003   1.787  0.3562 -0.1942  0.5044
  537MOL0     C74026   6.099   7.004   1.711  0.1147  0.7462  0.4935
  537MOL0     O74027   6.127   7.122   1.644  0.8016  0.4762  0.1255
  537MOL0     C74028   6.259   7.169   1.659 -0.9966  0.7941  0.2055
  537MOL0     C74029   6.301   7.283   1.565 -0.1255 -0.7963  0.6412
  537MOL0     C74030   6.270   7.416   1.627  0.2632 -0.0662 -0.7102
  537MOL0     C74031   6.269   7.518   1.515  0.9818 -0.2655  0.3951
  537MOL0     C74032   6.136   7.534   1.450 -0.0474  0.1026 -0.4031
  537MOL0     C74033   6.026   7.533   1.395 -0.1200  0.8219  0.7002
  537MOL0     C74034   6.180   6.887   1.705 -0.2757 -0.5364 -0.3304
  537MOL0     C74035   6.136   6.764   1.766  0.9473 -0.0167  1.0444
  537MOL0     C74036   6.232   6.659   1.764  0.2690 -0.1244  0.2154
  537MOL0     H74037   5.944   6.393   2.059  0.3509  3.6785 -1.9949
  537MOL0     H74038   5.796   6.230   2.200 -2.6176 -0.5951  3.2486
  537MOL0     H74039   5.669   6.249   2.418 -1.4377 -0.4354  3.1257
  537MOL0     H74040   5.625   6.091   2.329  1.6777 -0.1008  0.0150
  537MOL0     H74041   5.454   6.243   2.525 -1.0587 -0.2368 -2.1030
  537MOL0     H74042   5.409   6.114   2.403  1.1001 -1.8996 -0.4569
  537MOL0     H74043   5.607   5.988   2.525  0.9124 -0.7656  2.5866
  537MOL0     H74044   5.618   6.118   2.639 -0.0940 -0.8736  0.5908
  537MOL0     H74045   5.378   6.078   2.711  1.7041  0.8763  0.8245
  537MOL0     H74046   5.368   5.950   2.587 -0.3612 -0.0485 -0.0002
  537MOL0     H74047   5.576   5.928   2.820 -0.7238 -0.8814  1.2123
  537MOL0     H74048   5.548   5.811   2.706 -1.4766 -1.0232 -0.8924
  537MOL0     H74049   5.369   5.934   2.908 -0.0143 -0.0673  0.6272
  537MOL0     H74050   5.310   5.803   2.799  0.7038  0.0577 -1.7624
  537MOL0     H74051   5.348   5.737   3.046  1.2133  1.1661  0.8200
  537MOL0     H74052   5.514   5.793   3.019 -0.1914  0.5227 -2.4245
  537MOL0     H74053   5.372   5.540   2.915  0.0991 -0.8094 -2.7386
  537MOL0     H74054   5.498   5.604   2.822 -0.7273 -0.6545  0.0286
  537MOL0     H74055   5.419   5.458   3.156  1.1008 -0.5175  0.7121
  537MOL0     H74056   5.579   5.424   3.403  0.1889 -1.1801  0.8269
  537MOL0     H74057   5.752   5.417   3.362 -0.4918  1.4389 -1.2620
  537MOL0     H74058   5.559   5.171   3.336 -0.4697  2.0687 -0.9489
  537MOL0     H74059   5.705   5.188   3.250  0.4692  1.2398 -1.2175
  537MOL0     H74060   5.817   5.218   3.480 -0.2009 -0.3631  0.6533
  537MOL0     H74061   5.658   5.176   3.555 -0.2735  1.0793  0.9388
  537MOL0     H74062   5.801   4.970   3.538  2.3879  1.8678  0.4888
  537MOL0     H74063   5.659   4.953   3.429 -0.9204  1.2704  0.4786
  537MOL0     H74064   6.015   4.928   3.540  0.1439 -0.0865  0.5160
  537MOL0     H74065   6.360   4.923   3.544  1.4959  2.3759 -1.1712
  537MOL0     H74066   6.212   4.913   3.632 -1.1418 -0.8514 -1.8813
  537MOL0     H74067   6.288   5.071   3.621  0.7716 -0.7521  0.3950
  537MOL0     H74068   6.547   5.317   3.294  3.2132  2.1611  0.9009
  537MOL0     H74069   6.766   5.407   3.231  0.5586  0.0704 -1.4328
  537MOL0     H74070   7.031   5.210   2.930 -2.0437  0.1711 -1.0632
  537MOL0     H74071   6.947   5.343   2.848  1.1712 -1.1229 -0.3981
  537MOL0     H74072   7.103   5.504   2.899  1.6216  0.9774  1.5184
  537MOL0     H74073   7.174   5.435   3.038 -3.2861  1.8516  0.1674
  537MOL0     H74074   7.225   5.384   2.747 -1.0642 -2.6964 -0.9195
  537MOL0     H74075   7.228   5.240   2.846  0.8560  0.0624  0.9286
  537MOL0     H74076   7.454   5.327   2.822 -0.6723 -0.9988 -0.5349
  537MOL0     H74077   7.403   5.364   2.992 -2.2584 -3.5398  0.3510
  537MOL0     H74078   7.392   5.549   2.754  0.9475 -1.9288 -0.8113
  537MOL0     H74079   7.349   5.590   2.919  1.6197  0.8951 -0.2630
  537MOL0     H74080   7.596   5.657   2.845 -0.9872  1.5901  1.5475
  537MOL0     H74081   7.642   5.495   2.907 -1.2062 -0.7017 -0.2678
  537MOL0     H74082   7.516   5.564   3.117  0.5671  1.1421  1.0237
  537MOL0     H74083   7.506   5.724   3.037  0.9068 -0.6544  1.2242
  537MOL0     H74084   7.771   5.590   3.070 -1.5312  0.0411 -3.6033
  537MOL0     H74085   7.695   5.656   3.214 -0.4839 -1.2251  0.3051
  537MOL0     H74086   6.814   5.122   2.925 -0.4066  0.5958 -0.7693
  537MOL0     H74087   6.591   5.037   2.960  0.2035  0.9981 -2.3278
  537MOL0     H74088   6.172   5.164   3.126  0.1580  0.5392  0.2507
  537MOL0     H74089   5.934   5.102   3.159 -1.5030 -2.4190  0.5387
  537MOL0     H74090   5.478   6.493   2.180 -2.4138 -2.8792 -4.2280
  537MOL0     H74091   5.611   6.660   2.041 -1.2374  1.0702  2.6412
  537MOL0     H74092   5.847   6.882   1.910 -0.6158 -1.7087 -2.1818
  537MOL0     H74093   5.930   7.096   1.807 -0.6299 -0.5235 -0.3796
  537MOL0     H74094   6.286   7.189   1.763  1.0931 -1.4596  0.1764
  537MOL0     H74095   6.317   7.082   1.625 -1.0526  0.3857  1.1259
  537MOL0     H74096   6.233   7.281   1.480 -0.3039  0.5845  0.7355
  537MOL0     H74097   6.403   7.266   1.528  0.9134  0.5855  2.6817
  537MOL0     H74098   6.184   7.432   1.694  0.4385 -0.7955 -0.3003
  537MOL0     H74099   6.360   7.433   1.687  0.6545 -0.6304 -1.1344
  537MOL0     H74100   6.342   7.501   1.435  1.3462  0.4234  0.5742
  537MOL0     H74101   6.296   7.615   1.556 -3.5428  2.5476 -2.3769
  537MOL0     H74102   5.936   7.530   1.338 -0.9043  0.2258  1.9176
  537MOL0     H74103   6.262   6.872   1.636 -1.1278 -1.6958 -1.1427
  537MOL0     H74104   6.209   6.572   1.702 -0.5094 -1.5618  2.4464
  537MOL0     H74105   6.330   6.700   1.739  0.8271 -1.9560 -0.7528
  537MOL0     H74106   6.242   6.618   1.864 -3.7657  0.1706  0.9272
  538MOL0     O74107   0.694   4.445  11.159 -1.1312 -0.3985  0.0870
  538MOL0     C74108   0.600   4.515  11.193 -0.2145 -0.7545 -0.6102
  538MOL0     O74109   0.612   4.651  11.210 -0.9294  0.3611 -0.0560
  538MOL0     C74110   0.730   4.714  11.183  0.2743 -0.6712  0.5237
  538MOL0     C74111   0.861   4.676  11.216 -0.0796 -0.1722  0.5789
  538MOL0     C74112   0.975   4.759  11.192 -0.7548 -0.2603 -0.2232
  538MOL0     C74113   0.956   4.893  11.152 -0.0757 -0.2677 -0.0201
  538MOL0     O74114   1.054   4.990  11.150 -0.4178 -0.3929 -0.6794
  538MOL0     C74115   1.185   4.935  11.181  0.5834 -0.3333  0.3329
  538MOL0     C74116   1.285   5.045  11.161 -0.8272 -0.0164  0.4753
  538MOL0     C74117   1.267   5.139  11.289  0.0332  0.4315 -0.6265
  538MOL0     C74118   1.330   5.274  11.277  0.4268 -0.0811 -1.0250
  538MOL0     C74119   1.339   5.344  11.417 -0.4993  0.6886  0.1281
  538MOL0     C74120   1.372   5.492  11.392 -0.0111  1.1135 -0.4596
  538MOL0     C74121   1.410   5.576  11.506  0.5911 -0.2821  0.2887
  538MOL0     C74122   1.282   5.617  11.590 -0.1928  0.3392  0.0244
  538MOL0     N74123   1.213   5.738  11.537 -1.1497 -1.2546  0.5885
  538MOL0     C74124   1.277   5.846  11.471  1.1671 -0.3562  0.4709
  538MOL0     C74125   1.197   5.956  11.468  1.2315 -0.1533  0.3363
  538MOL0     C74126   1.233   6.096  11.428  0.0211 -0.0485  0.5964
  538MOL0     C74127   1.261   6.109  11.277  0.1952 -0.2037  0.6107
  538MOL0     C74128   1.368   6.021  11.223  0.2435  0.7542  0.4901
  538MOL0     C74129   1.401   6.043  11.075  0.3231 -0.2242 -0.4035
  538MOL0     O74130   1.461   6.166  11.060  0.1113  0.2957 -0.4009
  538MOL0     C74131   1.466   6.190  10.920  0.4216  0.1932 -0.7483
  538MOL0     C74132   1.563   6.137  10.843  0.7311 -0.9000  0.7623
  538MOL0     C74133   1.585   6.174  10.699  0.1621 -0.0301  0.7838
  538MOL0     C74134   1.703   6.109  10.626  1.1974 -0.5535  0.4928
  538MOL0     C74135   1.499   6.265  10.636  0.1308 -0.2416  0.9170
  538MOL0     C74136   1.528   6.320  10.503  0.6009 -0.1902  0.5338
  538MOL0     O74137   1.622   6.263  10.422 -0.7027  1.1082 -0.0481
  538MOL0     C74138   1.650   6.305  10.294  0.5817 -0.0414  0.0582
  538MOL0     C74139   1.649   6.215  10.184  0.6501 -0.0886 -0.3355
  538MOL0     C74140   1.678   6.256  10.056  0.2338  0.5106  0.5400
  538MOL0     C74141   1.721   6.385  10.036 -0.3490  0.6273  0.2761
  538MOL0     O74142   1.750   6.431   9.911  0.7226 -0.0893  0.2875
  538MOL0     C74143   1.755   6.346   9.799 -0.8831  0.0965  0.0801
  538MOL0     C74144   1.901   6.283   9.787 -0.1755  0.3023 -0.1644
  538MOL0     C74145   1.903   6.192   9.661  0.1530  0.1023 -0.6832
  538MOL0     C74146   2.027   6.107   9.653 -0.0960  1.0145  0.4400
  538MOL0     C74147   2.069   6.057   9.514 -0.9082  0.3426 -0.1075
  538MOL0     C74148   2.173   5.939   9.521  1.0746  0.6988  0.7813
  538MOL0     C74149   2.312   5.981   9.549 -0.5377  0.3737 -0.4290
  538MOL0     C74150   2.417   5.870   9.512  0.1109 -0.2608 -0.3019
  538MOL0    Cl74151   2.397   5.733   9.615 -0.0747  0.0336 -0.2890
  538MOL0     C74152   1.728   6.469  10.144 -0.2553 -1.0244  0.9501
  538MOL0     C74153   1.693   6.434  10.272 -0.6653  0.9529  0.0096
  538MOL0     O74154   1.446   6.404  10.464 -0.4550  0.0929 -0.2375
  538MOL0     C74155   1.391   6.314  10.718  0.2109 -0.3492  0.1716
  538MOL0     C74156   1.377   6.279  10.856  0.6865  0.1811 -0.0626
  538MOL0     N74157   1.080   5.911  11.529  0.6211  0.0327 -0.5317
  538MOL0     N74158   1.094   5.791  11.576  0.0763  0.0713 -0.3440
  538MOL0     C74159   0.819   4.941  11.140 -0.9079  0.3637  0.1012
  538MOL0     C74160   0.710   4.852  11.146  0.4254  0.1225 -0.2676
  538MOL0     C74161   0.466   4.451  11.193 -0.3268 -0.1389 -0.4659
  538MOL0     C74162   0.349   4.527  11.180 -0.8902 -0.9268 -0.3315
  538MOL0     C74163   0.227   4.482  11.203 -0.0850  0.5440  0.3362
  538MOL0     C74164   0.214   4.348  11.218 -0.2779  0.4009  0.2178
  538MOL0     O74165   0.093   4.298  11.239  0.4047 -0.9400  0.0284
  538MOL0     C74166   0.029   4.229  11.135 -1.1654  0.7485  0.2145
  538MOL0     C74167  -0.090   4.154  11.188  0.5412 -1.0039  0.4570
  538MOL0     C74168  -0.043   4.028  11.267 -0.2660  0.1233 -0.2032
  538MOL0     C74169  -0.141   4.005  11.372  0.2201 -0.3415 -0.6893
  538MOL0     C74170  -0.270   3.943  11.328 -0.3270  0.5640  0.3241
  538MOL0     C74171  -0.373   3.893  11.305  0.3963 -0.3783  0.0243
  538MOL0     C74172   0.326   4.258  11.223  1.1790  0.1612 -0.5988
  538MOL0     C74173   0.448   4.313  11.221  0.0173  0.1077 -0.5573
  538MOL0     C74174   0.551   4.212  11.233  0.0701  0.5225 -0.5615
  538MOL0     H74175   0.876   4.581  11.267  4.4396  0.7552  1.4607
  538MOL0     H74176   1.067   4.730  11.242 -1.2014  1.6028  1.8932
  538MOL0     H74177   1.208   4.848  11.119  0.9915 -1.0445  1.4532
  538MOL0     H74178   1.190   4.899  11.284 -0.1197 -3.3055 -0.5663
  538MOL0     H74179   1.388   5.011  11.151 -0.3854  0.9425  1.5769
  538MOL0     H74180   1.267   5.095  11.066  0.7369 -0.4661 -0.0871
  538MOL0     H74181   1.163   5.157  11.318  0.4201 -0.1809  1.3222
  538MOL0     H74182   1.310   5.090  11.377 -1.6807  2.5139  1.5158
  538MOL0     H74183   1.427   5.266  11.226 -0.0670 -1.1363 -1.8258
  538MOL0     H74184   1.268   5.333  11.208  0.4518  1.3753  0.1510
  538MOL0     H74185   1.411   5.283  11.473 -0.7520  0.4268  0.1731
  538MOL0     H74186   1.244   5.341  11.473 -0.6239  0.3873 -0.0937
  538MOL0     H74187   1.454   5.496  11.319 -0.1955 -1.0905 -0.8429
  538MOL0     H74188   1.290   5.527  11.329  0.6641 -1.8159 -3.2614
  538MOL0     H74189   1.475   5.657  11.475 -0.9592  1.7828  2.1319
  538MOL0     H74190   1.466   5.512  11.575 -2.8048 -4.0231 -0.0290
  538MOL0     H74191   1.207   5.537  11.594 -0.0828  0.2947  2.3105
  538MOL0     H74192   1.300   5.643  11.694 -2.2549 -2.1139  1.0943
  538MOL0     H74193   1.381   5.838  11.441  1.2495 -3.9305  1.3619
  538MOL0     H74194   1.331   6.124  11.470 -0.4739  3.7082 -0.3719
  538MOL0     H74195   1.160   6.167  11.469 -3.4576 -3.0979  0.1881
  538MOL0     H74196   1.170   6.072  11.228  0.7342  0.2967 -0.8325
  538MOL0     H74197   1.287   6.212  11.251  2.4233 -1.2362 -1.7504
  538MOL0     H74198   1.467   6.027  11.270 -0.9654  0.8383  3.2077
  538MOL0     H74199   1.339   5.917  11.239  1.6711  0.5285  1.8194
  538MOL0     H74200   1.463   5.958  11.045  1.1347 -0.6388  2.1588
  538MOL0     H74201   1.315   6.044  11.009  0.9618 -0.2695 -1.2534
  538MOL0     H74202   1.642   6.084  10.895  2.0055  0.7622  0.5712
  538MOL0     H74203   1.780   6.180  10.593  0.3700  1.2780  2.2708
  538MOL0     H74204   1.674   6.044  10.543  3.1367 -0.9532  0.0780
  538MOL0     H74205   1.759   6.058  10.705 -0.5040  1.8188  3.4726
  538MOL0     H74206   1.628   6.113  10.215 -2.1549  0.2085 -0.9462
  538MOL0     H74207   1.684   6.183   9.976 -1.0980  1.4183 -0.4323
  538MOL0     H74208   1.674   6.273   9.805 -0.8679  0.1287  0.7745
  538MOL0     H74209   1.730   6.398   9.707  2.0752 -1.3326 -1.6725
  538MOL0     H74210   1.975   6.358   9.760 -0.6753  0.5124 -0.9905
  538MOL0     H74211   1.924   6.222   9.875  2.2524  0.0637 -0.8949
  538MOL0     H74212   1.904   6.253   9.570  2.9299  0.0929 -0.7475
  538MOL0     H74213   1.815   6.128   9.672  2.1145 -2.3620  2.1575
  538MOL0     H74214   2.015   6.015   9.711  1.9503 -0.5983 -1.5434
  538MOL0     H74215   2.108   6.166   9.699 -0.0043  1.4059 -0.2206
  538MOL0     H74216   1.987   6.018   9.453  2.8630 -1.6287 -4.5364
  538MOL0     H74217   2.106   6.136   9.448  0.4739 -0.5393 -0.4428
  538MOL0     H74218   2.173   5.894   9.422  1.6412  2.6527 -0.1646
  538MOL0     H74219   2.151   5.868   9.601  0.5157  1.8825  1.7266
  538MOL0     H74220   2.323   6.011   9.654 -0.8080 -0.3905 -0.1752
  538MOL0     H74221   2.336   6.065   9.484  0.5199  1.6645  1.5015
  538MOL0     H74222   2.521   5.903   9.513 -0.6051  2.2187 -0.2837
  538MOL0     H74223   2.403   5.842   9.407 -0.4225  0.3400 -0.3958
  538MOL0     H74224   1.755   6.570  10.113  0.5406 -1.4384  0.2627
  538MOL0     H74225   1.719   6.499  10.355  1.9762  2.3494 -1.7723
  538MOL0     H74226   1.320   6.387  10.680  0.6616  0.9138  1.6684
  538MOL0     H74227   1.294   6.327  10.907 -1.2796 -0.7548 -2.2012
  538MOL0     H74228   0.816   5.046  11.111  1.0207  0.4273  0.0042
  538MOL0     H74229   0.611   4.896  11.135  0.1314  0.8837  3.7109
  538MOL0     H74230   0.366   4.634  11.182 -1.0717 -0.8311 -2.0551
  538MOL0     H74231   0.137   4.542  11.203  0.7343  1.9115 -1.7909
  538MOL0     H74232   0.001   4.303  11.060 -1.4366  0.5744  0.1461
  538MOL0     H74233   0.105   4.163  11.091 -2.3076  0.5873 -1.6136
  538MOL0     H74234  -0.170   4.125  11.119 -0.4349  0.7203  0.8180
  538MOL0     H74235  -0.136   4.225  11.256  1.8970 -0.7252  1.1201
  538MOL0     H74236  -0.032   3.944  11.198 -0.5098 -1.0146  1.1125
  538MOL0     H74237   0.058   4.046  11.307 -0.5542  0.8263  0.2378
  538MOL0     H74238  -0.167   4.097  11.424 -2.0386 -1.5288  0.4184
  538MOL0     H74239  -0.093   3.940  11.446 -0.0372 -2.8606 -2.5918
  538MOL0     H74240  -0.462   3.835  11.288  1.1230 -2.8057  3.3930
  538MOL0     H74241   0.307   4.154  11.245  0.5807  0.6694  1.5224
  538MOL0     H74242   0.638   4.250  11.289  0.3298  1.3786 -1.5301
  538MOL0     H74243   0.520   4.118  11.281  2.3450  0.5961  1.2494
  538MOL0     H74244   0.588   4.181  11.135 -0.2982 -1.9938  0.0223
  539MOL0     O74245   5.726   6.653  10.724 -0.4658 -0.2110  0.4564
  539MOL0     C74246   5.719   6.556  10.808  0.7129  0.5648  0.2808
  539MOL0     O74247   5.637   6.444  10.796  0.0347 -0.3965 -0.1721
  539MOL0     C74248   5.601   6.405  10.670 -0.2643 -0.7971 -0.8281
  539MOL0     C74249   5.501   6.312  10.664 -1.1476  0.3426  0.7559
  539MOL0     C74250   5.462   6.255  10.544  0.0917  0.8710 -0.9921
  539MOL0     C74251   5.519   6.301  10.428 -0.3109  0.5480  0.4227
  539MOL0     O74252   5.485   6.235  10.309 -0.6697  0.7528 -0.1764
  539MOL0     C74253   5.351   6.212  10.268  0.7148  0.6080 -0.9209
  539MOL0     C74254   5.364   6.167  10.125  1.0855  0.2833  0.0480
  539MOL0     C74255   5.422   6.282  10.035  0.4151 -0.1136  0.0337
  539MOL0     C74256   5.567   6.290  10.012 -0.5525  0.0919  0.9401
  539MOL0     C74257   5.612   6.414   9.931  0.2364 -0.7442 -0.2537
  539MOL0     C74258   5.611   6.385   9.781 -0.0555 -0.1053 -0.3295
  539MOL0     C74259   5.682   6.505   9.713  0.1594  0.7122  0.0090
  539MOL0     C74260   5.699   6.494   9.564  0.3747  0.9238  1.6016
  539MOL0     N74261   5.775   6.376   9.519  0.5288  0.7654 -0.1446
  539MOL0     C74262   5.913   6.368   9.496 -0.3707  0.4516 -0.4935
  539MOL0     C74263   5.938   6.239   9.467  0.5399 -0.3108  0.2845
  539MOL0     C74264   6.067   6.162   9.440  0.4711  1.0668  0.3504
  539MOL0     C74265   6.187   6.201   9.524 -0.1383 -0.7575 -0.8829
  539MOL0     C74266   6.307   6.098   9.521 -0.7174  1.0841  0.0743
  539MOL0     C74267   6.349   6.054   9.378  0.0046  0.8720 -0.1264
  539MOL0     O74268   6.406   6.160   9.292  0.1481 -0.1598  0.3453
  539MOL0     C74269   6.529   6.212   9.324 -0.2896 -0.0052  0.3049
  539MOL0     C74270   6.583   6.304   9.238  0.6326  0.3057 -0.0280
  539MOL0     C74271   6.707   6.363   9.259  0.5698  0.6880  0.3116
  539MOL0     C74272   6.742   6.475   9.165  0.3163  0.4963  0.5206
  539MOL0     C74273   6.789   6.315   9.368  0.1191 -0.8236  0.1021
  539MOL0     C74274   6.924   6.376   9.401  0.6004 -1.4927  0.4032
  539MOL0     O74275   6.987   6.331   9.516 -0.7773 -0.5266  0.7554
  539MOL0     C74276   7.126   6.338   9.513 -0.3617  0.5727  0.0350
  539MOL0     C74277   7.180   6.466   9.523 -0.6144 -0.2437  0.7998
  539MOL0     C74278   7.311   6.477   9.541  0.0514 -0.2346 -0.6644
  539MOL0     C74279   7.398   6.370   9.533  0.2358 -0.4746 -0.0955
  539MOL0     O74280   7.534   6.386   9.534 -0.3959 -0.2007 -0.0689
  539MOL0     C74281   7.596   6.386   9.403 -0.3738 -0.2206 -0.1595
  539MOL0     C74282   7.656   6.252   9.359 -0.0973  0.1499 -0.5243
  539MOL0     C74283   7.798   6.227   9.426 -0.1271 -0.3468  1.3589
  539MOL0     C74284   7.841   6.084   9.391 -0.3022  0.5939  0.4289
  539MOL0     C74285   7.987   6.049   9.411 -0.8472 -0.4765 -0.8255
  539MOL0     C74286   7.997   5.900   9.454 -0.9540  0.2970  0.6962
  539MOL0     C74287   8.130   5.835   9.428 -1.9441  0.7650 -0.0490
  539MOL0     C74288   8.258   5.914   9.407 -0.0627 -0.3866 -0.3650
  539MOL0    Cl74289   8.403   5.794   9.414 -0.9431 -0.9781 -0.4947
  539MOL0     C74290   7.341   6.244   9.524  0.2003  0.6666 -0.2806
  539MOL0     C74291   7.206   6.223   9.525 -0.4297  0.5645 -0.2744
  539MOL0     O74292   6.973   6.459   9.324  0.4355 -0.2955  0.5801
  539MOL0     C74293   6.736   6.214   9.447 -0.6992 -0.4879  0.5200
  539MOL0     C74294   6.614   6.162   9.426  0.8970 -0.0552  0.2070
  539MOL0     N74295   5.820   6.174   9.482 -0.7037 -0.2714  0.0502
  539MOL0     N74296   5.725   6.251   9.525 -0.1248 -0.5648 -0.2617
  539MOL0     C74297   5.625   6.395  10.424  0.1972  0.1326 -0.0936
  539MOL0     C74298   5.667   6.435  10.556  0.4035 -0.1340 -0.4485
  539MOL0     C74299   5.790   6.551  10.938  0.4565 -0.6468  0.2326
  539MOL0     C74300   5.729   6.485  11.047  1.0215 -0.2534  0.2119
  539MOL0     C74301   5.789   6.473  11.167  0.2376  0.6540 -1.0857
  539MOL0     C74302   5.918   6.514  11.190  0.1890  0.3202 -0.9930
  539MOL0     O74303   5.978   6.477  11.305  0.0521 -0.0737  0.1755
  539MOL0     C74304   6.117   6.514  11.328 -0.6128  0.1780  0.5667
  539MOL0     C74305   6.154   6.453  11.467 -0.3435 -0.3627  0.0245
  539MOL0     C74306   6.122   6.301  11.475  0.0530 -0.5715  0.8759
  539MOL0     C74307   6.112   6.244  11.616  0.4424  1.5463  0.3233
  539MOL0     C74308   6.023   6.307  11.710 -0.2418 -0.0312  1.0328
  539MOL0     C74309   5.947   6.346  11.797  0.1177 -0.4487 -0.6544
  539MOL0     C74310   5.974   6.598  11.097  0.1707  0.1399  0.0876
  539MOL0     C74311   5.909   6.631  10.971  0.7720  0.4744 -0.6683
  539MOL0     C74312   5.980   6.742  10.894  0.3783  0.0846  0.2362
  539MOL0     H74313   5.449   6.290  10.756  1.9873 -0.0879  2.5590
  539MOL0     H74314   5.396   6.169  10.547  1.7008 -0.4021 -0.7227
  539MOL0     H74315   5.287   6.299  10.281 -1.5839 -0.9571 -1.1168
  539MOL0     H74316   5.304   6.132  10.327 -1.1635  0.7704 -2.1204
  539MOL0     H74317   5.423   6.076  10.122  0.7183  0.0731 -1.5693
  539MOL0     H74318   5.261   6.140  10.099  0.4932 -0.5651  2.8345
  539MOL0     H74319   5.384   6.283   9.933  1.4130  2.3788 -0.3677
  539MOL0     H74320   5.381   6.374  10.076 -2.3854 -0.7189 -1.1900
  539MOL0     H74321   5.618   6.291  10.109  2.2639 -0.2111 -0.4433
  539MOL0     H74322   5.601   6.197   9.965 -2.5252  0.9365 -2.4715
  539MOL0     H74323   5.711   6.447   9.963 -0.9254  1.3417  1.5042
  539MOL0     H74324   5.560   6.508   9.954 -1.3634 -1.3088 -1.3466
  539MOL0     H74325   5.666   6.290   9.778 -0.7968 -0.5159 -1.5532
  539MOL0     H74326   5.511   6.375   9.738 -0.0702 -0.3507 -0.2385
  539MOL0     H74327   5.778   6.517   9.763 -0.8668 -1.1503  2.6849
  539MOL0     H74328   5.630   6.599   9.732 -1.3449 -0.4087  1.8461
  539MOL0     H74329   5.604   6.467   9.516  2.1961 -0.9135 -1.2710
  539MOL0     H74330   5.733   6.588   9.521  0.2643 -0.2042 -1.1663
  539MOL0     H74331   5.982   6.447   9.524 -0.3660  0.5032 -0.6471
  539MOL0     H74332   6.103   6.175   9.338  1.6511  1.7764  0.8404
  539MOL0     H74333   6.048   6.055   9.452 -1.3126  1.6610  4.2286
  539MOL0     H74334   6.234   6.289   9.480  2.7921 -2.4225 -1.3236
  539MOL0     H74335   6.160   6.228   9.626 -0.6447  2.4319 -1.7227
  539MOL0     H74336   6.389   6.142   9.578 -1.4881  2.1573  0.3730
  539MOL0     H74337   6.277   6.009   9.578  1.4431 -0.7247 -1.4210
  539MOL0     H74338   6.425   5.976   9.386  1.8865  2.8379  2.8119
  539MOL0     H74339   6.265   6.004   9.328 -1.7513  1.0145  2.4685
  539MOL0     H74340   6.514   6.333   9.159  1.4305  3.8642  0.3941
  539MOL0     H74341   6.654   6.517   9.115  0.7717  0.3080 -0.4524
  539MOL0     H74342   6.806   6.444   9.082 -0.2367  1.3578 -0.2452
  539MOL0     H74343   6.796   6.560   9.207  1.4359  0.5780 -1.0196
  539MOL0     H74344   7.117   6.554   9.516  1.2029  1.0751  0.4624
  539MOL0     H74345   7.355   6.575   9.553 -1.0290  0.2681 -0.7296
  539MOL0     H74346   7.523   6.419   9.328  1.1425  0.0069 -1.6003
  539MOL0     H74347   7.681   6.455   9.413 -2.7079  2.6129  1.5791
  539MOL0     H74348   7.582   6.173   9.377  0.4721 -0.6520 -1.5683
  539MOL0     H74349   7.672   6.251   9.251  0.3161 -3.2160 -0.5513
  539MOL0     H74350   7.802   6.238   9.535  2.4438  0.1580  1.2647
  539MOL0     H74351   7.870   6.299   9.387 -1.4002 -0.2454 -1.0273
  539MOL0     H74352   7.822   6.063   9.286 -0.0597 -0.5126  0.5965
  539MOL0     H74353   7.789   6.007   9.448  0.9266  1.2174  2.5152
  539MOL0     H74354   8.034   6.064   9.313 -0.5308  0.0896 -0.5938
  539MOL0     H74355   8.038   6.115   9.482 -1.0465 -0.8387 -0.3432
  539MOL0     H74356   7.921   5.841   9.402  1.2725  0.6794 -3.4170
  539MOL0     H74357   7.971   5.898   9.560 -1.2451  1.4499  0.6572
  539MOL0     H74358   8.123   5.776   9.337  0.1525  1.8556 -0.9786
  539MOL0     H74359   8.155   5.758   9.502  0.8356  2.0355  0.4907
  539MOL0     H74360   8.268   5.990   9.486 -1.9963 -1.4841  1.0271
  539MOL0     H74361   8.260   5.964   9.310  0.7601 -1.0736 -0.7126
  539MOL0     H74362   7.399   6.154   9.507 -0.3100  0.5812 -1.7124
  539MOL0     H74363   7.169   6.121   9.529 -3.7482  1.6448  0.2826
  539MOL0     H74364   6.788   6.173   9.533 -0.0520 -1.1120 -0.1484
  539MOL0     H74365   6.588   6.083   9.496  2.6955 -0.0947  0.8938
  539MOL0     H74366   5.672   6.425  10.330 -0.4799  0.7022 -0.2572
  539MOL0     H74367   5.753   6.502  10.552 -0.1317  0.7420  1.4422
  539MOL0     H74368   5.637   6.429  11.043  1.2478 -0.5638 -1.6044
  539MOL0     H74369   5.746   6.404  11.239 -1.6203 -3.7180 -5.7879
  539MOL0     H74370   6.183   6.470  11.253 -0.3506 -1.3255  1.6338
  539MOL0     H74371   6.137   6.620  11.342  2.2534 -0.6118  3.7665
  539MOL0     H74372   6.082   6.504  11.533 -1.6966 -1.1356 -0.8047
  539MOL0     H74373   6.257   6.478  11.494  0.7160  0.0417 -3.8374
  539MOL0     H74374   6.019   6.292  11.439  0.1568 -1.5785  0.7868
  539MOL0     H74375   6.190   6.242  11.412  0.2977  0.6900 -0.0893
  539MOL0     H74376   6.209   6.257  11.665  0.4151 -0.7072  1.0953
  539MOL0     H74377   6.087   6.138  11.608  0.8054  1.3883  1.1381
  539MOL0     H74378   5.886   6.398  11.868  1.2189  1.6950 -1.1697
  539MOL0     H74379   6.062   6.655  11.126 -0.4588  0.2639  1.8723
  539MOL0     H74380   5.917   6.760  10.807 -2.5062 -4.6791  0.9826
  539MOL0     H74381   6.005   6.830  10.953  0.1919 -1.2065  2.3387
  539MOL0     H74382   6.070   6.694  10.853 -0.5814 -0.3930 -1.4039
  540MOL0     O74383   6.894   0.115   7.358  0.8063 -0.0094 -0.4061
  540MOL0     C74384   6.874   0.078   7.244 -0.1708 -0.3401  0.6482
  540MOL0     O74385   6.752   0.075   7.188 -0.9595  0.9626  0.5680
  540MOL0     C74386   6.647   0.150   7.229 -0.8209 -0.7196  0.2159
  540MOL0     C74387   6.545   0.075   7.285  0.4068  0.7112  0.7062
  540MOL0     C74388   6.428   0.142   7.328 -0.5613 -0.2383 -0.2056
  540MOL0     C74389   6.431   0.290   7.331 -0.1620 -0.1765  0.3449
  540MOL0     O74390   6.333   0.376   7.377 -0.3451 -0.2074  0.8465
  540MOL0     C74391   6.232   0.318   7.453  1.0308 -0.5243 -0.1964
  540MOL0     C74392   6.144   0.432   7.512 -0.6663  0.6959 -0.7392
  540MOL0     C74393   6.221   0.502   7.623  0.1822 -0.3456 -0.6093
  540MOL0     C74394   6.135   0.623   7.672  0.5801  0.8772  0.3921
  540MOL0     C74395   6.215   0.703   7.779 -0.1015  0.4977 -0.6231
  540MOL0     C74396   6.136   0.820   7.829 -0.1574 -0.6237  0.0961
  540MOL0     C74397   6.062   0.784   7.956  0.2742  0.2609  0.2191
  540MOL0     C74398   5.978   0.893   8.015  0.7796  0.0462  0.9538
  540MOL0     N74399   5.927   0.858   8.145  0.6373  1.2117  1.2431
  540MOL0     C74400   5.819   0.783   8.167  0.5198  0.9444 -0.0004
  540MOL0     C74401   5.786   0.804   8.296  0.2355  0.0313 -0.2442
  540MOL0     C74402   5.670   0.761   8.372  1.0676  0.8939 -0.5556
  540MOL0     C74403   5.697   0.629   8.451  0.0563  0.4234 -0.3445
  540MOL0     C74404   5.688   0.502   8.363 -0.7123  0.8402  0.2634
  540MOL0     C74405   5.737   0.377   8.443  1.1385 -0.0702 -0.2926
  540MOL0     O74406   5.743   0.260   8.364  0.1471 -0.0934 -0.3591
  540MOL0     C74407   5.837   0.248   8.260  0.7735  0.1737 -0.4449
  540MOL0     C74408   5.824   0.156   8.156  0.3353  0.0774 -0.0901
  540MOL0     C74409   5.921   0.143   8.058  0.0121  1.3929  0.3423
  540MOL0     C74410   5.894   0.028   7.954 -0.2054  0.1841 -0.3779
  540MOL0     C74411   6.032   0.227   8.048  0.0791 -0.2477 -0.2536
  540MOL0     C74412   6.150   0.220   7.952  0.0519 -0.0123 -0.4133
  540MOL0     O74413   6.152   0.107   7.877  0.4048  0.2748  0.4924
  540MOL0     C74414   6.269   0.068   7.800 -0.3805  0.3404 -0.2181
  540MOL0     C74415   6.409   0.096   7.823  0.2322 -0.9474 -0.0080
  540MOL0     C74416   6.507   0.039   7.750 -0.2878  0.0789  0.7946
  540MOL0     C74417   6.469  -0.060   7.645  0.1806 -0.0839 -0.8009
  540MOL0     O74418   6.566  -0.118   7.574 -0.0848  0.8816 -0.6622
  540MOL0     C74419   6.700  -0.078   7.582 -0.9518 -0.5164 -0.1985
  540MOL0     C74420   6.785  -0.160   7.496  0.4290  0.5223 -0.5815
  540MOL0     C74421   6.936  -0.166   7.537  0.1988 -1.0636  0.1809
  540MOL0     C74422   6.946  -0.247   7.675 -0.3119  0.4776 -0.1911
  540MOL0     C74423   6.914  -0.393   7.675  1.2995  0.1423  0.3689
  540MOL0     C74424   6.935  -0.443   7.817 -0.2666  0.3645  0.3116
  540MOL0     C74425   6.883  -0.588   7.826  0.1528  0.2656  0.2145
  540MOL0     C74426   6.981  -0.693   7.778 -0.1230  0.4360  0.0895
  540MOL0    Cl74427   7.140  -0.684   7.865 -0.2297  0.1256  0.1218
  540MOL0     C74428   6.338  -0.073   7.618  0.2048  0.7189  0.1971
  540MOL0     C74429   6.237  -0.016   7.694 -0.1387 -0.2927 -0.3562
  540MOL0     O74430   6.241   0.306   7.955  0.9703 -0.3404  0.4989
  540MOL0     C74431   6.034   0.332   8.137  0.2305  0.5470  0.2318
  540MOL0     C74432   5.949   0.345   8.241 -0.2801  0.0745  0.2975
  540MOL0     N74433   5.878   0.889   8.349 -0.4507  0.7453  1.1246
  540MOL0     N74434   5.962   0.922   8.263 -0.2565 -0.4026  0.0953
  540MOL0     C74435   6.530   0.357   7.272 -0.5284  0.0934  0.1071
  540MOL0     C74436   6.645   0.291   7.221  0.2838 -0.2176 -0.7882
  540MOL0     C74437   6.991   0.050   7.156  0.5835  0.4733  0.0665
  540MOL0     C74438   6.968   0.019   7.025 -0.5127  0.2370 -0.5332
  540MOL0     C74439   7.080   0.004   6.931 -0.0431  0.1228 -0.5634
  540MOL0     C74440   7.207   0.007   6.971  0.1840  0.2080 -0.3430
  540MOL0     O74441   7.305   0.001   6.869 -0.6048  0.1418  0.3178
  540MOL0     C74442   7.424  -0.077   6.886  0.4339  0.3542  0.4806
  540MOL0     C74443   7.409  -0.210   6.953  0.0030 -0.4833  0.4272
  540MOL0     C74444   7.324  -0.316   6.869  0.3378  0.5173  0.1877
  540MOL0     C74445   7.415  -0.398   6.783  0.7568  0.6495 -0.9374
  540MOL0     C74446   7.329  -0.494   6.709 -0.1657 -0.7718 -0.0903
  540MOL0     C74447   7.267  -0.581   6.650 -0.6058 -0.2269 -0.6280
  540MOL0     C74448   7.233   0.036   7.111  0.0923 -0.2963 -0.7714
  540MOL0     C74449   7.128   0.060   7.198  0.5812 -0.0628  0.0777
  540MOL0     C74450   7.165   0.083   7.341  0.0971 -0.8771  0.4190
  540MOL0     H74451   6.536  -0.033   7.280  0.9319  0.6921 -0.0406
  540MOL0     H74452   6.340   0.085   7.357 -1.4506 -0.0809 -2.3338
  540MOL0     H74453   6.284   0.265   7.534  2.2507  3.0469  1.5780
  540MOL0     H74454   6.169   0.253   7.392 -2.0581  2.7555 -0.8324
  540MOL0     H74455   6.118   0.511   7.441  0.4011  0.9075 -0.9142
  540MOL0     H74456   6.053   0.392   7.557 -0.5081  1.3993  0.2367
  540MOL0     H74457   6.239   0.424   7.697  0.3666 -1.1691 -1.5039
  540MOL0     H74458   6.319   0.533   7.586  1.3713 -2.4815  0.5487
  540MOL0     H74459   6.107   0.696   7.596 -0.0146 -0.5496 -0.8066
  540MOL0     H74460   6.036   0.589   7.703 -2.1210  5.2397 -2.4145
  540MOL0     H74461   6.298   0.742   7.719  0.1088  4.0017  1.6802
  540MOL0     H74462   6.257   0.639   7.857  0.5663  0.6652 -0.8358
  540MOL0     H74463   6.210   0.899   7.843  0.5594 -1.4325  1.0376
  540MOL0     H74464   6.060   0.851   7.757 -0.7364 -1.2082  0.4368
  540MOL0     H74465   6.141   0.749   8.023  1.8852 -0.0126 -1.7065
  540MOL0     H74466   5.994   0.702   7.930  1.5906 -0.7702 -0.1122
  540MOL0     H74467   6.038   0.984   8.029 -0.8488  1.3501 -0.1552
  540MOL0     H74468   5.895   0.918   7.948  0.1674 -1.2079  1.2121
  540MOL0     H74469   5.759   0.735   8.091  2.3061 -2.7079  0.6848
  540MOL0     H74470   5.572   0.759   8.323  0.6509 -0.2153  0.2828
  540MOL0     H74471   5.652   0.831   8.455  0.8665  0.0984  0.0850
  540MOL0     H74472   5.800   0.635   8.487 -0.6193  0.3902  1.7574
  540MOL0     H74473   5.630   0.622   8.537  0.0282 -0.3457 -0.4195
  540MOL0     H74474   5.580   0.500   8.350 -0.8554 -2.4589  1.1036
  540MOL0     H74475   5.748   0.507   8.272  0.7014 -4.3033  0.6132
  540MOL0     H74476   5.839   0.381   8.481  1.1046 -3.6236  0.5017
  540MOL0     H74477   5.676   0.371   8.534 -1.1032 -3.3580 -1.8287
  540MOL0     H74478   5.735   0.095   8.147  0.4729 -0.0594 -0.5215
  540MOL0     H74479   5.966  -0.051   7.977 -0.9473 -0.5654 -0.5809
  540MOL0     H74480   5.911   0.072   7.855  2.9882 -0.4320 -0.1768
  540MOL0     H74481   5.791  -0.010   7.954 -0.2316  0.2258 -1.2567
  540MOL0     H74482   6.442   0.164   7.900  0.4754  0.7955 -1.5904
  540MOL0     H74483   6.607   0.080   7.762 -0.1070  0.4914 -1.6166
  540MOL0     H74484   6.723   0.017   7.534  3.0882 -1.1341  0.1436
  540MOL0     H74485   6.736  -0.074   7.686  2.6236 -1.2537 -1.2626
  540MOL0     H74486   6.739  -0.259   7.493  1.6843 -0.0750 -1.0369
  540MOL0     H74487   6.787  -0.104   7.402 -1.6762  2.1459  0.2615
  540MOL0     H74488   6.971  -0.065   7.558  0.2024 -1.6569  3.4815
  540MOL0     H74489   6.991  -0.221   7.460  0.5627  0.9411 -1.0582
  540MOL0     H74490   6.887  -0.197   7.752 -0.3395 -2.7147  2.0851
  540MOL0     H74491   7.052  -0.237   7.698 -0.2499 -0.2527 -0.1427
  540MOL0     H74492   6.808  -0.397   7.649  0.8735  0.5021  1.9346
  540MOL0     H74493   6.969  -0.450   7.599  3.1024  0.7899  1.1388
  540MOL0     H74494   6.873  -0.384   7.884 -0.8710 -1.2134  1.2097
  540MOL0     H74495   7.039  -0.431   7.848 -0.4066 -1.0221  1.3885
  540MOL0     H74496   6.790  -0.598   7.769 -0.2952  0.7241  0.8644
  540MOL0     H74497   6.856  -0.607   7.930 -2.1300 -0.7077 -0.4895
  540MOL0     H74498   7.009  -0.674   7.674 -0.1560 -2.7543 -0.5993
  540MOL0     H74499   6.934  -0.790   7.793 -0.6377  0.4011 -1.5662
  540MOL0     H74500   6.321  -0.153   7.546 -0.2865 -1.8059  2.9400
  540MOL0     H74501   6.134  -0.043   7.675 -0.3824 -1.7392  2.5390
  540MOL0     H74502   6.115   0.403   8.123  4.0770 -3.0758  2.0354
  540MOL0     H74503   5.957   0.437   8.297 -1.3043 -0.2314  0.9928
  540MOL0     H74504   6.523   0.464   7.254 -0.4331  0.0914  0.0605
  540MOL0     H74505   6.716   0.351   7.166  0.7663 -0.2960 -0.2643
  540MOL0     H74506   6.870  -0.003   6.985 -0.2108 -0.1743 -1.0615
  540MOL0     H74507   7.056  -0.009   6.826 -0.7303 -0.0532 -0.3891
  540MOL0     H74508   7.466  -0.096   6.787 -0.3007 -0.2789  0.2805
  540MOL0     H74509   7.497  -0.020   6.944  2.9349 -0.7703 -1.4062
  540MOL0     H74510   7.366  -0.201   7.053  0.2971  2.9197  0.3342
  540MOL0     H74511   7.509  -0.253   6.968  0.4306 -0.2900 -1.6170
  540MOL0     H74512   7.259  -0.376   6.934 -0.7821  1.3349 -0.1346
  540MOL0     H74513   7.253  -0.262   6.805  0.4879  0.1749 -0.2685
  540MOL0     H74514   7.477  -0.452   6.855  0.3821  0.6022 -0.6502
  540MOL0     H74515   7.475  -0.341   6.711  0.5855 -0.5768 -2.1084
  540MOL0     H74516   7.210  -0.662   6.611  0.7456 -0.4049 -2.3708
  540MOL0     H74517   7.337   0.041   7.141  0.9690  1.8017 -3.7123
  540MOL0     H74518   7.122   0.002   7.400  2.0204 -1.2705  1.3136
  540MOL0     H74519   7.274   0.079   7.346  0.0473 -3.5377  0.6635
  540MOL0     H74520   7.136   0.184   7.369  1.5457 -0.4520  0.4575
  541MOL0     O74521   9.354   3.005   5.415 -0.6089 -0.4898 -1.0711
  541MOL0     C74522   9.337   2.895   5.466 -0.5401 -0.1035 -0.7963
  541MOL0     O74523   9.438   2.799   5.483 -0.5684 -0.5027  0.1412
  541MOL0     C74524   9.564   2.781   5.419 -0.2535  0.5253  0.4359
  541MOL0     C74525   9.587   2.819   5.287  0.2044  0.0593 -0.0369
  541MOL0     C74526   9.712   2.795   5.221 -0.6265  0.3166  0.4569
  541MOL0     C74527   9.820   2.737   5.293  1.2085 -0.1223 -0.0353
  541MOL0     O74528   9.940   2.708   5.246  0.4502  0.4744  0.5518
  541MOL0     C74529   9.941   2.647   5.121  0.5978  0.1257  0.0527
  541MOL0     C74530  10.084   2.596   5.118 -0.4119  0.0515 -0.4226
  541MOL0     C74531  10.188   2.702   5.151 -0.0984  0.3906 -0.9379
  541MOL0     C74532  10.232   2.795   5.035  0.0710 -0.6378  0.8281
  541MOL0     C74533  10.356   2.868   5.067 -0.0206 -0.0061 -0.4568
  541MOL0     C74534  10.407   2.926   4.925 -0.1690 -0.0961 -1.6198
  541MOL0     C74535  10.538   2.998   4.922 -0.4960  0.3001 -0.0156
  541MOL0     C74536  10.562   3.073   4.792 -0.0461  0.0324  0.1576
  541MOL0     N74537  10.661   3.183   4.814  0.3053  0.2018  0.4831
  541MOL0     C74538  10.649   3.318   4.804  0.8102  0.0225 -0.4567
  541MOL0     C74539  10.774   3.367   4.827  0.4435 -1.1465 -0.0954
  541MOL0     C74540  10.825   3.511   4.812  0.3310 -1.3159  0.7219
  541MOL0     C74541  10.722   3.616   4.858 -0.2217 -0.9332 -0.0992
  541MOL0     C74542  10.666   3.600   5.003 -0.1107  0.1610  0.0017
  541MOL0     C74543  10.768   3.607   5.118  0.6709  0.8524 -0.5129
  541MOL0     O74544  10.838   3.727   5.119  0.3392  0.1919  0.0807
  541MOL0     C74545  10.943   3.747   5.211 -0.2036  0.3320  0.0423
  541MOL0     C74546  11.053   3.836   5.193 -1.1710 -0.4492 -0.7782
  541MOL0     C74547  11.155   3.854   5.290  0.1227 -0.1622 -0.7960
  541MOL0     C74548  11.269   3.951   5.251  0.5408  0.5693 -0.4770
  541MOL0     C74549  11.158   3.771   5.416  0.4246 -1.3915 -0.1504
  541MOL0     C74550  11.250   3.793   5.533 -0.1055 -0.4284  0.1857
  541MOL0     O74551  11.227   3.719   5.648  0.0835 -0.2964 -0.0114
  541MOL0     C74552  11.337   3.675   5.712  0.0682 -0.5728  0.4992
  541MOL0     C74553  11.394   3.732   5.829 -0.8050  0.0953  0.1674
  541MOL0     C74554  11.506   3.669   5.894 -0.3400  0.3665  0.4856
  541MOL0     C74555  11.570   3.558   5.835 -0.0955  0.2454 -0.1592
  541MOL0     O74556  11.691   3.499   5.887 -0.2425  0.3040  0.2416
  541MOL0     C74557  11.786   3.591   5.932 -0.1887  0.7595 -0.2546
  541MOL0     C74558  11.914   3.509   5.961 -0.1081  0.2169 -0.2603
  541MOL0     C74559  12.022   3.599   6.025  0.0947  0.4071 -0.0928
  541MOL0     C74560  12.142   3.523   6.066  0.2670 -0.3020  0.2683
  541MOL0     C74561  12.230   3.593   6.175  0.3522  0.3400 -0.0294
  541MOL0     C74562  12.355   3.518   6.221  0.2044 -0.3421 -0.2816
  541MOL0     C74563  12.438   3.463   6.110 -0.4559  0.0307  0.3936
  541MOL0     C74564  12.577   3.425   6.151 -1.1908 -0.4642  0.0953
  541MOL0    Cl74565  12.667   3.349   6.018 -0.1249  0.2144  0.3201
  541MOL0     C74566  11.513   3.514   5.716 -0.0891 -0.3821 -0.1544
  541MOL0     C74567  11.396   3.560   5.661 -0.5452 -0.2313 -0.1811
  541MOL0     O74568  11.339   3.872   5.523  0.1240  0.1507 -0.5991
  541MOL0     C74569  11.053   3.681   5.425 -0.5398 -0.2314 -0.6622
  541MOL0     C74570  10.951   3.664   5.329  0.0444 -0.4190 -0.1093
  541MOL0     N74571  10.860   3.261   4.859  0.8787  0.0082  0.8006
  541MOL0     N74572  10.791   3.159   4.853 -0.2243  0.0931  0.0260
  541MOL0     C74573   9.793   2.704   5.430 -1.0464 -1.0701  0.2464
  541MOL0     C74574   9.667   2.728   5.492 -0.6627  1.2065  0.1866
  541MOL0     C74575   9.204   2.851   5.509 -0.7294 -0.6968  1.0727
  541MOL0     C74576   9.177   2.716   5.539 -0.9454  0.3038  0.4916
  541MOL0     C74577   9.062   2.661   5.582 -0.6564 -0.4780 -0.5126
  541MOL0     C74578   8.950   2.743   5.605 -0.1508 -0.4330  0.6672
  541MOL0     O74579   8.826   2.704   5.651  0.1221 -0.2405  0.1055
  541MOL0     C74580   8.819   2.586   5.730 -0.6807  0.4226 -0.3127
  541MOL0     C74581   8.680   2.547   5.759  0.1685  0.2693 -0.2090
  541MOL0     C74582   8.600   2.658   5.834 -0.2878 -1.1495  0.3997
  541MOL0     C74583   8.572   2.639   5.980 -0.2023  0.2460  0.0068
  541MOL0     C74584   8.508   2.511   6.009 -0.3303 -0.0142 -0.1522
  541MOL0     C74585   8.445   2.412   6.045  0.7423 -0.1939  0.3360
  541MOL0     C74586   8.969   2.880   5.576 -0.0040 -0.2178 -0.3293
  541MOL0     C74587   9.094   2.930   5.536 -0.1306  0.6248  0.0258
  541MOL0     C74588   9.086   3.073   5.490  0.0523 -0.5632 -1.2900
  541MOL0     H74589   9.502   2.848   5.225 -0.9742 -1.9425  0.5442
  541MOL0     H74590   9.734   2.839   5.124 -0.4929  3.1457  1.6684
  541MOL0     H74591   9.920   2.711   5.034 -0.6762 -0.4963 -0.1129
  541MOL0     H74592   9.865   2.569   5.112  1.6721 -0.7321 -2.7980
  541MOL0     H74593  10.092   2.506   5.180 -3.4276  0.5155  0.8530
  541MOL0     H74594  10.095   2.567   5.014  0.8072 -0.5157 -0.1486
  541MOL0     H74595  10.168   2.766   5.238 -0.4642  1.4249 -1.7583
  541MOL0     H74596  10.278   2.643   5.166 -1.1687 -0.7139  1.6261
  541MOL0     H74597  10.249   2.731   4.948  1.0723  0.5577  0.1116
  541MOL0     H74598  10.153   2.864   5.006 -0.2016 -1.4522 -0.4472
  541MOL0     H74599  10.423   2.799   5.119  0.5769  0.9530  0.0941
  541MOL0     H74600  10.338   2.950   5.137  1.5637 -0.7675  0.9099
  541MOL0     H74601  10.402   2.851   4.846  3.7545 -1.4745 -0.7879
  541MOL0     H74602  10.329   3.001   4.906 -2.6026 -1.4235  2.0734
  541MOL0     H74603  10.622   2.931   4.940 -0.3855  0.4467  0.0181
  541MOL0     H74604  10.539   3.078   4.997  1.4467  0.0813  0.2436
  541MOL0     H74605  10.607   3.005   4.719 -1.3774  1.3323 -1.9753
  541MOL0     H74606  10.465   3.112   4.760 -0.6181 -0.1732  1.5680
  541MOL0     H74607  10.568   3.367   4.752  1.7411  1.9315 -0.1756
  541MOL0     H74608  10.859   3.519   4.708  0.2270 -1.0398  0.7074
  541MOL0     H74609  10.910   3.526   4.879 -2.6501  3.5426  4.0488
  541MOL0     H74610  10.757   3.719   4.849  0.1677 -0.9260  1.3112
  541MOL0     H74611  10.634   3.613   4.794 -0.7295 -3.7322  0.6214
  541MOL0     H74612  10.576   3.659   5.022 -0.7279 -1.0103  0.8557
  541MOL0     H74613  10.632   3.496   5.010 -1.1055  0.4996  0.3470
  541MOL0     H74614  10.715   3.601   5.213  1.8945  1.1450  0.2104
  541MOL0     H74615  10.834   3.520   5.111  1.7561  1.4592  1.3956
  541MOL0     H74616  11.060   3.898   5.104  1.0773 -0.2272 -0.4915
  541MOL0     H74617  11.238   4.005   5.161  0.7099 -0.5214 -1.2136
  541MOL0     H74618  11.371   3.912   5.244 -0.0975 -1.5035  0.8291
  541MOL0     H74619  11.270   4.014   5.340 -0.8948 -0.0392 -0.0007
  541MOL0     H74620  11.348   3.814   5.882  0.3495  1.0692 -0.2903
  541MOL0     H74621  11.554   3.713   5.981 -0.1174  0.2958  0.3985
  541MOL0     H74622  11.801   3.664   5.852  0.6599  1.0511  0.1588
  541MOL0     H74623  11.748   3.652   6.015 -0.8553  2.4513 -1.7433
  541MOL0     H74624  11.904   3.423   6.028  1.6265 -0.7697 -1.2157
  541MOL0     H74625  11.954   3.476   5.865  1.1975  1.4369 -0.1735
  541MOL0     H74626  11.983   3.637   6.119 -2.9872  0.8234 -1.4312
  541MOL0     H74627  12.052   3.679   5.957  1.1641  0.7383  0.7372
  541MOL0     H74628  12.188   3.510   5.968 -2.6172  1.1411 -1.4217
  541MOL0     H74629  12.119   3.424   6.106  1.0433 -0.9001 -0.7608
  541MOL0     H74630  12.264   3.689   6.135 -2.1227  1.3526  0.1157
  541MOL0     H74631  12.176   3.611   6.268  0.8375  0.7223  0.1866
  541MOL0     H74632  12.319   3.435   6.282  0.3500 -0.7331 -0.7214
  541MOL0     H74633  12.427   3.584   6.271  2.0991 -0.8536 -2.1874
  541MOL0     H74634  12.438   3.530   6.024  0.1989  2.8105  2.3956
  541MOL0     H74635  12.388   3.374   6.072 -3.7762  0.8203  2.4417
  541MOL0     H74636  12.580   3.350   6.231  1.8168  0.2342  0.7722
  541MOL0     H74637  12.628   3.517   6.178 -0.8841 -0.3292 -0.9008
  541MOL0     H74638  11.563   3.427   5.674 -3.8082 -3.3705  0.9916
  541MOL0     H74639  11.363   3.509   5.570  1.4422  0.4694 -1.3610
  541MOL0     H74640  11.043   3.632   5.521 -1.7866  2.4385  0.6933
  541MOL0     H74641  10.867   3.597   5.348  0.4884 -1.2732 -1.0557
  541MOL0     H74642   9.870   2.652   5.486  0.4694 -1.2932 -1.9275
  541MOL0     H74643   9.652   2.706   5.598 -0.4474 -0.7815 -0.1664
  541MOL0     H74644   9.259   2.645   5.534 -1.0553  0.2521 -1.1296
  541MOL0     H74645   9.047   2.553   5.579  1.1983 -0.8003  0.2875
  541MOL0     H74646   8.867   2.499   5.685 -0.4950  0.5861 -0.4294
  541MOL0     H74647   8.870   2.617   5.822  0.5979 -0.4442 -0.6993
  541MOL0     H74648   8.683   2.448   5.804 -5.0884  0.4252  1.0588
  541MOL0     H74649   8.629   2.523   5.665 -2.0990  2.5208  0.3243
  541MOL0     H74650   8.646   2.756   5.818  1.8839 -2.3099 -1.0085
  541MOL0     H74651   8.502   2.656   5.787 -0.3788  0.1227  0.4968
  541MOL0     H74652   8.496   2.714   6.001  0.8668  1.8122 -1.3950
  541MOL0     H74653   8.665   2.661   6.034 -1.0428 -1.5235  2.3353
  541MOL0     H74654   8.394   2.322   6.072 -1.3050  0.4750 -1.0227
  541MOL0     H74655   8.877   2.938   5.583 -1.2583 -1.9502 -1.5437
  541MOL0     H74656   8.991   3.115   5.525  1.0697 -0.8573  2.2381
  541MOL0     H74657   9.167   3.127   5.539 -0.6416  2.4531 -3.2043
  541MOL0     H74658   9.113   3.070   5.384  0.8759  1.7649 -1.2042
  542MOL0     O74659   9.983   0.859   6.489 -0.2193  1.0817  0.1032
  542MOL0     C74660   9.898   0.776   6.527 -1.1729 -0.6550  0.2026
  542MOL0     O74661   9.787   0.750   6.457  0.7101 -0.8777  0.2159
  542MOL0     C74662   9.770   0.793   6.329  0.1504  0.5467  0.1474
  542MOL0     C74663   9.713   0.918   6.300 -0.6667  0.2412  0.0801
  542MOL0     C74664   9.701   0.973   6.171 -0.4136  0.5480  0.5292
  542MOL0     C74665   9.743   0.898   6.058  1.1673  0.8624 -0.8486
  542MOL0     O74666   9.733   0.953   5.931 -0.3561 -0.4173  0.4026
  542MOL0     C74667   9.641   0.877   5.848  0.5946  0.6111  0.1424
  542MOL0     C74668   9.525   0.949   5.787  0.6066  0.6329  0.0346
  542MOL0     C74669   9.537   1.097   5.791 -0.2222  0.1670 -0.2057
  542MOL0     C74670   9.643   1.141   5.688 -1.2001  0.1428  0.4873
  542MOL0     C74671   9.662   1.291   5.691 -0.0296  0.2665 -0.4193
  542MOL0     C74672   9.805   1.343   5.667 -0.4736 -0.6270 -0.4995
  542MOL0     C74673   9.829   1.486   5.708 -0.3062  0.3905 -0.8534
  542MOL0     C74674   9.804   1.506   5.861 -0.3950  1.0492  1.4439
  542MOL0     N74675   9.866   1.633   5.902 -0.8509 -0.8357  0.1461
  542MOL0     C74676   9.992   1.636   5.968  0.6613 -0.6493  0.5870
  542MOL0     C74677  10.016   1.768   5.976  0.7687 -0.3845 -1.0771
  542MOL0     C74678  10.132   1.833   6.036 -0.0870  0.3097  0.4927
  542MOL0     C74679  10.151   1.987   6.009 -0.0189  0.1114 -0.2006
  542MOL0     C74680  10.254   2.042   6.118  0.5780  0.0445  0.1868
  542MOL0     C74681  10.233   2.189   6.130 -0.5805 -0.8412  0.9896
  542MOL0     O74682  10.361   2.249   6.183  0.3884  0.0186  0.8663
  542MOL0     C74683  10.346   2.261   6.318 -0.4424  0.0946 -0.2709
  542MOL0     C74684  10.410   2.169   6.403  1.4988 -0.9872  0.8087
  542MOL0     C74685  10.433   2.197   6.543 -0.3499 -0.4651 -0.4563
  542MOL0     C74686  10.503   2.090   6.617 -1.2075  0.3205  0.2394
  542MOL0     C74687  10.381   2.322   6.594 -0.2133  0.5136  0.0391
  542MOL0     C74688  10.355   2.344   6.739  0.4256  0.3855  0.1467
  542MOL0     O74689  10.331   2.473   6.779 -0.1224 -0.8622 -0.0893
  542MOL0     C74690  10.378   2.515   6.895  0.2167  0.5731 -0.5380
  542MOL0     C74691  10.306   2.603   6.955 -0.1067  0.0180  0.2562
  542MOL0     C74692  10.343   2.653   7.079 -1.2729 -0.0260 -0.0831
  542MOL0     C74693  10.453   2.606   7.147 -0.4843 -1.5643 -0.4004
  542MOL0     O74694  10.459   2.648   7.278 -1.2178  0.0434  0.0349
  542MOL0     C74695  10.520   2.567   7.382  0.1141 -0.1242 -0.4890
  542MOL0     C74696  10.539   2.643   7.515 -0.4370  0.1447  0.7258
  542MOL0     C74697  10.606   2.779   7.521 -0.4530  0.7211 -0.1787
  542MOL0     C74698  10.607   2.856   7.652  1.2893 -0.3415 -0.7238
  542MOL0     C74699  10.683   2.983   7.642  0.2558 -0.0073 -0.3025
  542MOL0     C74700  10.828   2.963   7.590  0.6796  0.5622 -0.8464
  542MOL0     C74701  10.934   3.072   7.632 -0.0124  0.4412 -0.7105
  542MOL0     C74702  11.074   3.036   7.575 -0.0803 -0.2645 -0.3142
  542MOL0    Cl74703  11.137   2.882   7.643 -0.0043 -0.0328 -0.1151
  542MOL0     C74704  10.536   2.516   7.085  0.3639  0.1732 -1.1045
  542MOL0     C74705  10.498   2.472   6.956 -0.7635 -0.5238  0.3950
  542MOL0     O74706  10.344   2.245   6.813 -0.1658  0.2469 -0.1098
  542MOL0     C74707  10.317   2.408   6.507  0.0490  0.0263 -0.0620
  542MOL0     C74708  10.293   2.378   6.373 -0.4634 -0.5886 -0.2904
  542MOL0     N74709   9.903   1.839   5.942 -0.1069  0.2770 -0.5157
  542MOL0     N74710   9.812   1.759   5.891 -0.6647 -0.5096 -0.2564
  542MOL0     C74711   9.807   0.775   6.084  0.1513 -0.2522 -0.8416
  542MOL0     C74712   9.822   0.725   6.220 -0.0027  0.3374  0.3836
  542MOL0     C74713   9.911   0.696   6.653 -0.6520  0.6731  0.2334
  542MOL0     C74714   9.796   0.650   6.719 -0.8865 -0.2765 -1.0671
  542MOL0     C74715   9.797   0.563   6.829 -0.7673 -0.2571  0.4899
  542MOL0     C74716   9.918   0.530   6.884  0.9824 -0.0568 -0.1476
  542MOL0     O74717   9.907   0.457   7.000 -0.6414 -0.1209 -0.2203
  542MOL0     C74718   9.993   0.336   7.008 -0.1030  0.1455  0.2875
  542MOL0     C74719  10.003   0.247   6.881 -0.5022  0.5370 -0.0303
  542MOL0     C74720   9.872   0.171   6.858  0.1966  0.1646 -0.7977
  542MOL0     C74721   9.885   0.053   6.752  0.4236  0.5894 -0.9003
  542MOL0     C74722   9.760  -0.014   6.713 -0.1058  0.1438  0.4359
  542MOL0     C74723   9.649  -0.052   6.683  0.1192 -0.2886 -0.2199
  542MOL0     C74724  10.035   0.579   6.828 -0.1045  0.6710 -0.4146
  542MOL0     C74725  10.039   0.660   6.714  0.5264 -0.6097 -0.1515
  542MOL0     C74726  10.168   0.725   6.672  0.1289  1.1287 -0.4383
  542MOL0     H74727   9.694   0.976   6.389 -2.6522 -0.6786  0.3087
  542MOL0     H74728   9.673   1.076   6.150  3.8685  2.1880  1.7692
  542MOL0     H74729   9.599   0.792   5.903 -1.2481 -0.1251 -2.2197
  542MOL0     H74730   9.690   0.837   5.759 -1.6894  4.1234 -2.9675
  542MOL0     H74731   9.512   0.921   5.682  0.2142  0.8626  0.0223
  542MOL0     H74732   9.431   0.919   5.833  0.1809  1.1849 -0.4662
  542MOL0     H74733   9.443   1.138   5.753 -0.7471 -0.4708  0.3783
  542MOL0     H74734   9.561   1.144   5.888 -4.3459  0.4489  0.8520
  542MOL0     H74735   9.744   1.097   5.690 -2.1355 -2.4131 -1.8377
  542MOL0     H74736   9.608   1.104   5.591 -2.6659 -0.0850  1.0822
  542MOL0     H74737   9.645   1.328   5.792  0.2070 -0.3686 -0.1442
  542MOL0     H74738   9.602   1.332   5.609  1.7968  1.8169 -1.0711
  542MOL0     H74739   9.873   1.282   5.726 -2.4345 -3.3607 -0.8699
  542MOL0     H74740   9.849   1.330   5.568  2.8486 -3.4878  1.1687
  542MOL0     H74741   9.755   1.550   5.659 -1.4149 -0.6175 -0.5546
  542MOL0     H74742   9.929   1.522   5.680 -1.3958  2.1006 -2.8129
  542MOL0     H74743   9.697   1.496   5.876 -0.9154 -1.9179 -2.6295
  542MOL0     H74744   9.858   1.431   5.919 -1.2707  0.0415  0.9723
  542MOL0     H74745  10.050   1.553   6.009 -1.1594 -1.2036  2.2124
  542MOL0     H74746  10.216   1.785   5.986 -2.5189 -0.6991 -3.0444
  542MOL0     H74747  10.121   1.816   6.144 -0.5912  1.8875  0.7223
  542MOL0     H74748  10.171   2.001   5.902 -3.8233 -0.6664 -1.1632
  542MOL0     H74749  10.062   2.049   6.020 -0.5966 -0.4168 -1.6170
  542MOL0     H74750  10.221   1.996   6.212 -2.4406  1.4066 -0.0717
  542MOL0     H74751  10.352   2.006   6.086  1.4690  3.1744 -0.9140
  542MOL0     H74752  10.209   2.230   6.031  2.1512 -4.1955 -1.2938
  542MOL0     H74753  10.149   2.204   6.199  0.0979  2.5746  1.2464
  542MOL0     H74754  10.448   2.082   6.350 -1.2484  0.2005 -3.5842
  542MOL0     H74755  10.554   2.133   6.704 -1.6494  1.3041  0.0320
  542MOL0     H74756  10.581   2.056   6.548 -4.3535  1.2551 -4.2307
  542MOL0     H74757  10.422   2.019   6.639 -0.7578 -0.6969 -1.2537
  542MOL0     H74758  10.221   2.641   6.899 -1.2169 -2.4055  0.1476
  542MOL0     H74759  10.291   2.734   7.128 -1.7537  0.2915 -1.0824
  542MOL0     H74760  10.448   2.490   7.411  0.2802 -0.0896  0.0262
  542MOL0     H74761  10.614   2.521   7.348 -0.1431 -0.1019 -1.2641
  542MOL0     H74762  10.434   2.666   7.534 -0.7245 -1.4847  1.2500
  542MOL0     H74763  10.581   2.559   7.571 -2.7706 -1.6099 -0.0217
  542MOL0     H74764  10.561   2.849   7.450 -1.1362  2.3945  1.7678
  542MOL0     H74765  10.709   2.765   7.486 -0.1129  1.2462  0.5680
  542MOL0     H74766  10.663   2.801   7.729  0.9090 -0.5046 -0.5568
  542MOL0     H74767  10.503   2.864   7.686  1.0488 -0.3319 -1.4410
  542MOL0     H74768  10.632   3.042   7.565  2.8995  1.7580 -0.8125
  542MOL0     H74769  10.673   3.033   7.739 -1.4329 -1.8690  0.5645
  542MOL0     H74770  10.812   2.971   7.482 -0.8367 -2.2292 -0.9316
  542MOL0     H74771  10.861   2.864   7.623 -2.4832  0.8938  4.2723
  542MOL0     H74772  10.942   3.063   7.740 -1.6106 -1.8672 -0.6894
  542MOL0     H74773  10.895   3.166   7.593 -0.3361  0.5356 -0.1647
  542MOL0     H74774  11.150   3.108   7.607  1.0327 -2.4652  2.3864
  542MOL0     H74775  11.065   3.025   7.467 -0.5893  0.2014 -0.3275
  542MOL0     H74776  10.617   2.466   7.138 -0.6596  0.7420  1.1076
  542MOL0     H74777  10.563   2.408   6.898 -0.5768  0.3804 -0.4150
  542MOL0     H74778  10.280   2.497   6.556 -1.0701 -0.6848  0.4217
  542MOL0     H74779  10.248   2.454   6.310 -0.4343 -1.4144 -1.3344
  542MOL0     H74780   9.858   0.733   5.999  0.9361 -2.9078  0.8426
  542MOL0     H74781   9.866   0.627   6.229  1.3391  0.7612 -1.0306
  542MOL0     H74782   9.701   0.689   6.682  0.3578  2.4497 -1.6639
  542MOL0     H74783   9.702   0.518   6.855 -0.8626  0.0238  0.6240
  542MOL0     H74784  10.094   0.363   7.037  1.3741 -2.4333 -2.0292
  542MOL0     H74785   9.966   0.269   7.089  2.7621 -0.1583  1.0896
  542MOL0     H74786  10.084   0.174   6.886 -1.3224 -0.3218  1.0713
  542MOL0     H74787  10.026   0.299   6.788 -0.6225 -2.9849 -2.2137
  542MOL0     H74788   9.841   0.137   6.957  1.1961 -0.2247 -0.6084
  542MOL0     H74789   9.801   0.245   6.820  0.6871  1.3715  0.5714
  542MOL0     H74790   9.946  -0.021   6.804 -1.8403 -1.1174 -0.5305
  542MOL0     H74791   9.932   0.092   6.661 -1.3631 -1.0242 -2.6106
  542MOL0     H74792   9.545  -0.075   6.670 -0.9052  2.9375  1.2267
  542MOL0     H74793  10.129   0.554   6.877 -0.5823 -1.0426 -0.2910
  542MOL0     H74794  10.242   0.698   6.747 -3.3066 -2.0964  2.1701
  542MOL0     H74795  10.203   0.670   6.584  0.1533  1.3452 -0.5647
  542MOL0     H74796  10.163   0.833   6.652 -0.0121  1.1232 -0.4322
  543MOL0     O74797   4.723  11.262   2.192 -0.1993 -0.2983 -0.3794
  543MOL0     C74798   4.735  11.367   2.125 -0.7078  1.3112  0.6208
  543MOL0     O74799   4.856  11.405   2.079  0.5900 -0.8566 -0.2573
  543MOL0     C74800   4.963  11.345   2.129  0.4511  0.2802  0.0850
  543MOL0     C74801   4.989  11.330   2.262 -0.1452 -0.0655 -0.3079
  543MOL0     C74802   5.116  11.282   2.316  0.1068 -0.4531 -0.1680
  543MOL0     C74803   5.214  11.243   2.227 -0.8860  0.5799  0.0868
  543MOL0     O74804   5.331  11.199   2.282 -0.7370  0.4336  0.5245
  543MOL0     C74805   5.440  11.238   2.200 -0.8594  0.1847 -0.3863
  543MOL0     C74806   5.569  11.209   2.288  0.7756 -0.4952 -0.3267
  543MOL0     C74807   5.598  11.058   2.302  0.0650  1.0383 -0.0865
  543MOL0     C74808   5.679  11.034   2.427  0.1531  0.6153 -0.7675
  543MOL0     C74809   5.743  10.897   2.427 -0.6582 -0.1605  0.4140
  543MOL0     C74810   5.643  10.781   2.426 -0.4597  0.3213 -0.5886
  543MOL0     C74811   5.721  10.664   2.481 -0.4375 -0.4406 -0.6962
  543MOL0     C74812   5.651  10.534   2.459 -0.1400 -0.4578  0.0231
  543MOL0     N74813   5.657  10.489   2.318 -0.1709 -0.5105 -0.4397
  543MOL0     C74814   5.769  10.492   2.237  1.5031  0.2563 -0.0995
  543MOL0     C74815   5.726  10.432   2.123 -0.2175 -0.7351 -0.1296
  543MOL0     C74816   5.787  10.447   1.983  0.7931 -0.7829 -0.3289
  543MOL0     C74817   5.830  10.304   1.948 -0.1505  0.8777 -0.3495
  543MOL0     C74818   5.942  10.311   1.838 -0.1326  0.6345  0.3518
  543MOL0     C74819   6.070  10.381   1.887 -0.1396  0.2054  0.2510
  543MOL0     O74820   6.093  10.341   2.021  0.1274 -0.1686 -0.1909
  543MOL0     C74821   6.166  10.231   2.058 -0.9985 -0.3981 -0.0578
  543MOL0     C74822   6.169  10.204   2.197  0.9405 -1.3248 -0.0328
  543MOL0     C74823   6.227  10.089   2.249 -0.2727 -0.6641  0.2415
  543MOL0     C74824   6.238  10.076   2.399  0.2019 -0.7982  0.8452
  543MOL0     C74825   6.282   9.999   2.162 -0.4367  0.6875 -0.2351
  543MOL0     C74826   6.365   9.883   2.199 -0.5566 -0.5028 -0.1475
  543MOL0     O74827   6.404   9.805   2.097 -0.9753  0.1638  0.1642
  543MOL0     C74828   6.463   9.684   2.124  0.4095 -0.4469 -0.0826
  543MOL0     C74829   6.541   9.639   2.015 -0.5800  0.1623 -0.0430
  543MOL0     C74830   6.612   9.516   2.028  0.5881 -0.4106  0.1978
  543MOL0     C74831   6.610   9.450   2.157 -0.7891  0.5945 -0.2441
  543MOL0     O74832   6.684   9.337   2.187 -0.9685  0.2621 -0.5704
  543MOL0     C74833   6.698   9.248   2.069  0.6322  0.6126 -0.2492
  543MOL0     C74834   6.740   9.106   2.127  0.4139  0.5437  0.0765
  543MOL0     C74835   6.699   9.001   2.025  0.8793  0.5753 -0.4885
  543MOL0     C74836   6.556   8.942   2.040 -0.8406 -0.4357  0.2427
  543MOL0     C74837   6.528   8.877   1.910  0.0745  0.2569 -0.2322
  543MOL0     C74838   6.388   8.829   1.914  0.8963  0.6002 -0.9993
  543MOL0     C74839   6.348   8.745   1.789  0.4075 -0.5166  0.0396
  543MOL0     C74840   6.207   8.681   1.815  0.0505  0.1396 -0.6850
  543MOL0    Cl74841   6.069   8.801   1.828  0.5572  0.1438  0.1234
  543MOL0     C74842   6.530   9.498   2.255  0.4698  0.4532  1.0231
  543MOL0     C74843   6.460   9.613   2.243 -0.2249  0.4553  1.2176
  543MOL0     O74844   6.402   9.869   2.318  0.2310  0.3029 -0.3339
  543MOL0     C74845   6.263  10.018   2.023  0.7003 -0.2696 -1.1204
  543MOL0     C74846   6.221  10.136   1.974  0.2460  0.8839 -0.3953
  543MOL0     N74847   5.594  10.397   2.135  0.5275  0.6938  0.1808
  543MOL0     N74848   5.557  10.424   2.255  0.4376 -0.6154 -0.1907
  543MOL0     C74849   5.189  11.263   2.087  0.7885 -0.5366 -0.4392
  543MOL0     C74850   5.063  11.310   2.041 -0.6629  0.1327  0.4622
  543MOL0     C74851   4.610  11.430   2.080 -0.1184 -0.1464  0.0723
  543MOL0     C74852   4.623  11.544   1.992 -0.5604  0.2576  0.0790
  543MOL0     C74853   4.518  11.616   1.947  0.8475 -0.4273  0.4103
  543MOL0     C74854   4.388  11.581   1.980 -0.4733 -0.4316  1.1678
  543MOL0     O74855   4.280  11.643   1.912  0.2827 -0.5660 -0.7106
  543MOL0     C74856   4.144  11.637   1.969 -0.4090  0.3990  0.8215
  543MOL0     C74857   4.045  11.739   1.916  0.7489  0.2844  0.0909
  543MOL0     C74858   4.066  11.869   1.982 -0.0537  0.8056  1.4665
  543MOL0     C74859   3.964  11.973   1.958  0.2588  0.0162  0.0955
  543MOL0     C74860   3.824  11.927   1.989 -0.1571 -0.1050  0.5097
  543MOL0     C74861   3.706  11.879   2.002  0.0621 -0.9251  0.6302
  543MOL0     C74862   4.363  11.476   2.071  0.3798 -0.0904 -0.4906
  543MOL0     C74863   4.473  11.407   2.124 -0.5545 -0.7363 -0.0600
  543MOL0     C74864   4.450  11.305   2.232  1.0681 -0.1205 -0.1962
  543MOL0     H74865   4.915  11.353   2.338  0.1098  0.7849 -0.2958
  543MOL0     H74866   5.156  11.290   2.417  0.6938 -2.1514 -0.2383
  543MOL0     H74867   5.438  11.345   2.179  3.2223  0.4458 -0.3765
  543MOL0     H74868   5.441  11.176   2.110  1.3219 -0.0990 -0.2188
  543MOL0     H74869   5.651  11.254   2.231 -1.2702  2.9360 -0.8076
  543MOL0     H74870   5.557  11.256   2.387  1.3693 -0.5664 -0.2180
  543MOL0     H74871   5.508  10.996   2.292  0.4279  0.1247  1.9273
  543MOL0     H74872   5.659  11.030   2.216  1.6804 -1.9528  1.8655
  543MOL0     H74873   5.754  11.114   2.431  1.0732 -0.2455  2.3042
  543MOL0     H74874   5.613  11.032   2.514 -0.6933 -0.9405 -1.4162
  543MOL0     H74875   5.799  10.896   2.521 -0.2922  1.7555  0.2648
  543MOL0     H74876   5.811  10.891   2.342 -2.9974  3.4845 -2.0156
  543MOL0     H74877   5.551  10.802   2.480  0.3171  1.1717  0.4628
  543MOL0     H74878   5.624  10.767   2.319  1.4092 -0.3988 -0.8621
  543MOL0     H74879   5.726  10.673   2.590  1.2225  1.3643 -0.8724
  543MOL0     H74880   5.820  10.663   2.435 -1.0044  1.7554 -2.1164
  543MOL0     H74881   5.687  10.453   2.523 -0.3421 -1.3582 -0.9583
  543MOL0     H74882   5.546  10.555   2.480  0.1550  0.0248  1.0546
  543MOL0     H74883   5.860  10.543   2.264  0.3543  2.2229  0.2275
  543MOL0     H74884   5.878  10.506   1.992 -0.6416  1.7395 -1.4658
  543MOL0     H74885   5.720  10.488   1.907  1.4444  2.0012  0.5177
  543MOL0     H74886   5.868  10.254   2.037 -0.4203  0.9104 -0.2131
  543MOL0     H74887   5.744  10.251   1.904 -0.7049  3.7862 -3.2551
  543MOL0     H74888   5.974  10.213   1.800 -2.1254 -0.1106  0.4414
  543MOL0     H74889   5.910  10.354   1.743  1.4275 -1.7791 -1.3830
  543MOL0     H74890   6.154  10.362   1.821  1.3930  0.0696  2.1495
  543MOL0     H74891   6.044  10.487   1.888 -3.5341 -0.4552 -1.5757
  543MOL0     H74892   6.115  10.264   2.270  0.6367 -0.3208 -1.0583
  543MOL0     H74893   6.197   9.980   2.433  3.4901 -2.0979  1.4575
  543MOL0     H74894   6.177  10.162   2.431 -0.1352 -0.8434  0.3360
  543MOL0     H74895   6.338  10.081   2.442 -0.1142 -0.7464  1.6124
  543MOL0     H74896   6.542   9.693   1.921 -0.0369 -2.9581 -1.9760
  543MOL0     H74897   6.669   9.473   1.946  2.6829  0.3290  1.1833
  543MOL0     H74898   6.604   9.225   2.017  2.3524  0.7107 -3.7065
  543MOL0     H74899   6.771   9.285   1.996  0.2542  0.2534 -0.8255
  543MOL0     H74900   6.848   9.104   2.145  0.8281 -0.9516 -2.1127
  543MOL0     H74901   6.700   9.089   2.228  1.0424  2.6703  0.7332
  543MOL0     H74902   6.768   8.917   2.016 -2.8559 -2.5822 -3.8345
  543MOL0     H74903   6.702   9.051   1.928 -0.9852  2.0463  0.1280
  543MOL0     H74904   6.485   9.025   2.047  0.1991  0.4811  0.2316
  543MOL0     H74905   6.559   8.879   2.129 -1.1151  1.8550  1.9419
  543MOL0     H74906   6.521   8.944   1.824 -6.1457 -0.5593 -0.8093
  543MOL0     H74907   6.600   8.795   1.899  0.9288  1.3049 -3.2689
  543MOL0     H74908   6.333   8.924   1.910  2.9159  1.7924 -3.3495
  543MOL0     H74909   6.371   8.763   2.000  1.7966  2.8973  1.0790
  543MOL0     H74910   6.423   8.667   1.772  2.8232  1.5551  0.6837
  543MOL0     H74911   6.332   8.816   1.708 -3.6047 -1.6320 -0.3869
  543MOL0     H74912   6.199   8.620   1.905 -1.4046  0.5896 -0.4856
  543MOL0     H74913   6.194   8.611   1.733  3.5770  1.0773 -2.2624
  543MOL0     H74914   6.530   9.452   2.353 -1.8571  2.0667  1.8863
  543MOL0     H74915   6.391   9.648   2.319 -0.6846  0.8545  0.6335
  543MOL0     H74916   6.291   9.944   1.949  0.0419  0.7059 -2.3763
  543MOL0     H74917   6.215  10.143   1.866 -0.1008  0.2182 -0.4211
  543MOL0     H74918   5.267  11.233   2.018 -0.5277 -0.9288 -1.8018
  543MOL0     H74919   5.054  11.319   1.934  1.1903 -0.1137  0.2613
  543MOL0     H74920   4.717  11.566   1.941  0.3823 -0.9534  1.2136
  543MOL0     H74921   4.528  11.700   1.880  0.7721  0.1684  1.1300
  543MOL0     H74922   4.104  11.539   1.943 -2.9315  1.9435 -1.7713
  543MOL0     H74923   4.157  11.635   2.077 -2.0463 -0.0913  1.0396
  543MOL0     H74924   3.944  11.701   1.930  1.6650 -2.5000 -0.2698
  543MOL0     H74925   4.056  11.750   1.808  2.0411  1.9881  0.3574
  543MOL0     H74926   4.082  11.859   2.090 -1.6145 -1.5282  1.5578
  543MOL0     H74927   4.162  11.912   1.954 -0.9539  1.6992 -0.4006
  543MOL0     H74928   3.976  12.014   1.857  0.4535  1.7474  0.7856
  543MOL0     H74929   3.987  12.062   2.017  0.5429  2.6131 -3.6345
  543MOL0     H74930   3.601  11.860   1.995 -0.2840  1.3214 -3.1372
  543MOL0     H74931   4.265  11.446   2.107  0.8224  0.8239  1.6426
  543MOL0     H74932   4.455  11.203   2.192  1.1874 -1.7586  3.5697
  543MOL0     H74933   4.534  11.309   2.303  1.6009 -2.2353 -0.6302
  543MOL0     H74934   4.353  11.313   2.282 -0.0982 -2.4631 -1.9267
  544MOL0     O74935   4.635   4.682  10.767 -0.2545 -0.2001  0.3162
  544MOL0     C74936   4.679   4.705  10.654 -0.7230 -0.7708  0.6745
  544MOL0     O74937   4.610   4.760  10.549  0.6267  0.4052  0.4014
  544MOL0     C74938   4.482   4.802  10.570 -0.4357  0.8016 -1.8367
  544MOL0     C74939   4.460   4.913  10.657  0.9417  0.7706 -0.2959
  544MOL0     C74940   4.332   4.973  10.662 -0.0318 -0.8919 -0.2611
  544MOL0     C74941   4.224   4.909  10.597  0.4082 -0.6461  0.2579
  544MOL0     O74942   4.088   4.946  10.604  0.2906  0.3397 -0.1043
  544MOL0     C74943   4.042   5.032  10.706 -0.5110 -0.0901  0.3858
  544MOL0     C74944   3.903   5.019  10.757 -0.4138 -0.2052  0.2260
  544MOL0     C74945   3.863   4.872  10.789  0.3624  0.7173 -0.8809
  544MOL0     C74946   3.718   4.873  10.842  0.4375  0.3281  0.1930
  544MOL0     C74947   3.676   4.757  10.927  0.8894 -0.0857 -0.2828
  544MOL0     C74948   3.530   4.763  10.974  0.1779  0.7410 -0.4364
  544MOL0     C74949   3.431   4.757  10.848 -0.6262 -0.4194  0.3203
  544MOL0     C74950   3.314   4.860  10.840 -0.0839 -0.2609 -0.6829
  544MOL0     N74951   3.374   4.996  10.856  0.0661 -1.1798 -0.2169
  544MOL0     C74952   3.457   5.053  10.768 -0.2042 -0.0880  0.6423
  544MOL0     C74953   3.457   5.187  10.800 -0.2989 -0.6192 -0.9400
  544MOL0     C74954   3.560   5.288  10.747 -0.0921 -0.3320 -0.0983
  544MOL0     C74955   3.506   5.435  10.744 -0.0506  0.0178  0.7383
  544MOL0     C74956   3.603   5.535  10.689  0.1452  0.2185  0.3370
  544MOL0     C74957   3.573   5.553  10.537  0.0446  0.2301 -0.3208
  544MOL0     O74958   3.693   5.578  10.455  0.0991  0.4207  0.7918
  544MOL0     C74959   3.757   5.700  10.467 -0.0446  0.3922  0.3870
  544MOL0     C74960   3.887   5.708  10.405 -0.7169 -0.2095  0.7103
  544MOL0     C74961   3.966   5.823  10.419 -0.5569  0.7217 -0.1658
  544MOL0     C74962   4.117   5.827  10.376 -0.8138 -0.5372  0.1099
  544MOL0     C74963   3.913   5.937  10.480 -0.3632  0.5992  0.4291
  544MOL0     C74964   3.975   6.076  10.488 -0.9717  0.0246  0.0453
  544MOL0     O74965   3.955   6.128  10.618 -1.1455  0.8648  0.0510
  544MOL0     C74966   4.026   6.239  10.661  0.8035  0.1298  0.1476
  544MOL0     C74967   4.030   6.233  10.797  0.3262  0.0081  0.1830
  544MOL0     C74968   4.086   6.339  10.865 -0.5908 -0.2627 -1.4716
  544MOL0     C74969   4.144   6.443  10.795 -0.0444  0.2404  0.0140
  544MOL0     O74970   4.208   6.537  10.872  0.5818 -0.6002 -0.8630
  544MOL0     C74971   4.251   6.653  10.803 -0.5150 -1.1901  0.0113
  544MOL0     C74972   4.339   6.735  10.903 -0.1689  0.9472 -0.4115
  544MOL0     C74973   4.369   6.875  10.854 -0.2001 -0.4187  0.2281
  544MOL0     C74974   4.434   6.877  10.709 -0.2357 -0.6813 -0.5532
  544MOL0     C74975   4.551   6.779  10.704  0.6855 -0.6466 -0.0919
  544MOL0     C74976   4.645   6.803  10.579  0.5494  0.1176  0.0138
  544MOL0     C74977   4.750   6.903  10.615  0.1982  0.3212  0.3894
  544MOL0     C74978   4.876   6.901  10.519  0.6662  0.3788 -0.5626
  544MOL0    Cl74979   4.897   7.040  10.420  0.0909 -0.4717 -0.1971
  544MOL0     C74980   4.130   6.453  10.659 -0.5501 -0.3454  0.8504
  544MOL0     C74981   4.057   6.354  10.588 -0.3789  0.4248  0.1104
  544MOL0     O74982   4.055   6.118  10.403  0.0630 -0.2483 -0.2881
  544MOL0     C74983   3.786   5.922  10.541  0.2299 -0.0768 -0.1962
  544MOL0     C74984   3.711   5.811  10.537 -1.7231  0.0475 -0.3523
  544MOL0     N74985   3.376   5.200  10.913 -0.6600  0.1057  0.2217
  544MOL0     N74986   3.316   5.089  10.934  0.3479 -0.8105  0.4499
  544MOL0     C74987   4.245   4.802  10.514  0.7207 -0.5639  0.0508
  544MOL0     C74988   4.376   4.749  10.504  0.1851  0.6248 -0.5371
  544MOL0     C74989   4.825   4.685  10.638 -0.9216  0.6873 -0.8033
  544MOL0     C74990   4.860   4.620  10.518 -0.3929  0.5025  0.1377
  544MOL0     C74991   4.990   4.604  10.474  0.4077  0.0853  0.5584
  544MOL0     C74992   5.098   4.639  10.561  0.1065  0.3676 -0.4085
  544MOL0     O74993   5.237   4.624  10.548 -0.2788 -0.3588 -0.1313
  544MOL0     C74994   5.283   4.528  10.455 -0.2356  0.8654  0.2424
  544MOL0     C74995   5.273   4.393  10.518  0.3532 -0.4823 -0.0212
  544MOL0     C74996   5.319   4.271  10.431 -1.3009 -0.0531  0.7214
  544MOL0     C74997   5.448   4.278  10.350 -0.1967  0.5699 -0.6380
  544MOL0     C74998   5.569   4.289  10.441  0.1739 -0.7243  0.4248
  544MOL0     C74999   5.662   4.291  10.521  0.6518  0.2215  0.1979
  544MOL0     C75000   5.061   4.688  10.697  0.8412  0.2905  0.4174
  544MOL0     C75001   4.931   4.722  10.727  0.7315 -0.3241  0.7185
  544MOL0     C75002   4.901   4.795  10.854  0.2246 -0.3319 -0.6840
  544MOL0     H75003   4.536   4.959  10.721  0.7527 -0.5927  0.9660
  544MOL0     H75004   4.323   5.058  10.729  0.1449 -1.1685  0.1148
  544MOL0     H75005   4.058   5.131  10.664  0.8014 -0.7928 -0.8726
  544MOL0     H75006   4.106   5.028  10.795  0.6394 -1.3727 -0.4550
  544MOL0     H75007   3.901   5.096  10.834 -0.0947  2.5348 -2.3414
  544MOL0     H75008   3.825   5.057  10.690  0.5650  4.6568  1.5152
  544MOL0     H75009   3.867   4.802  10.706 -0.4179  0.9978 -1.1634
  544MOL0     H75010   3.932   4.842  10.869 -1.3185  0.5507  0.5846
  544MOL0     H75011   3.700   4.965  10.898  1.1796 -0.3065  1.4991
  544MOL0     H75012   3.665   4.868  10.746 -1.4333 -0.6716  1.2082
  544MOL0     H75013   3.747   4.755  11.010  0.0216  2.2888  0.5866
  544MOL0     H75014   3.699   4.667  10.868  2.3801 -0.4849  0.8466
  544MOL0     H75015   3.500   4.676  11.034 -2.0596 -0.5469 -3.1612
  544MOL0     H75016   3.515   4.855  11.031  0.1065 -0.8939  2.3932
  544MOL0     H75017   3.389   4.656  10.841 -0.0761 -0.5741 -1.1836
  544MOL0     H75018   3.485   4.778  10.755  1.1853 -0.1381  1.3784
  544MOL0     H75019   3.269   4.856  10.741  1.0103  0.2442 -1.2211
  544MOL0     H75020   3.239   4.860  10.920  0.5591  2.0687  0.0173
  544MOL0     H75021   3.516   5.009  10.688 -0.0763 -1.6351  1.5558
  544MOL0     H75022   3.589   5.249  10.649 -2.7424 -3.6797  0.2521
  544MOL0     H75023   3.643   5.261  10.814 -2.8079 -4.4687  2.0561
  544MOL0     H75024   3.408   5.431  10.694 -0.3615 -3.3559  1.3901
  544MOL0     H75025   3.499   5.469  10.848 -1.3756  2.0660  0.0494
  544MOL0     H75026   3.594   5.631  10.741  4.5074  0.0527  1.7591
  544MOL0     H75027   3.703   5.493  10.705 -0.0315  0.2802  1.8316
  544MOL0     H75028   3.549   5.458  10.488 -0.1922 -0.4532  1.0646
  544MOL0     H75029   3.486   5.616  10.520  1.4980  1.9932 -1.5675
  544MOL0     H75030   3.931   5.620  10.361 -2.5861 -0.1996 -1.3130
  544MOL0     H75031   4.123   5.860  10.272  1.8887  3.8054  1.3910
  544MOL0     H75032   4.164   5.729  10.385 -0.4684 -0.3606  0.2510
  544MOL0     H75033   4.176   5.894  10.439  0.4833 -0.7745 -0.8025
  544MOL0     H75034   3.997   6.149  10.858  0.1224 -0.0397  0.0075
  544MOL0     H75035   4.091   6.337  10.974 -1.0384 -1.0134 -1.4597
  544MOL0     H75036   4.319   6.623  10.723 -1.3608 -0.9682 -0.8185
  544MOL0     H75037   4.166   6.709  10.763 -0.4443  1.0690  2.7271
  544MOL0     H75038   4.291   6.750  11.000  2.6325  1.9644  0.9356
  544MOL0     H75039   4.433   6.680  10.915 -1.5668 -1.4076  0.4501
  544MOL0     H75040   4.427   6.926  10.931 -1.8146  2.0267 -0.0533
  544MOL0     H75041   4.273   6.927  10.843  2.4972  4.6492 -3.6697
  544MOL0     H75042   4.471   6.974  10.673  1.9806 -0.8708  1.0034
  544MOL0     H75043   4.359   6.840  10.638 -1.6300 -2.2246  1.6142
  544MOL0     H75044   4.611   6.778  10.796  0.7860  1.1432 -0.0939
  544MOL0     H75045   4.515   6.677  10.689  0.2419 -0.4443 -0.4285
  544MOL0     H75046   4.578   6.836  10.499  0.7261 -0.5107 -0.4045
  544MOL0     H75047   4.700   6.715  10.543  1.6278  1.9693 -3.2740
  544MOL0     H75048   4.794   6.868  10.708  2.4967 -1.3027 -1.1973
  544MOL0     H75049   4.710   7.004  10.629  2.0113  1.0533  0.5275
  544MOL0     H75050   4.868   6.814  10.452 -0.1188 -0.2874  0.3749
  544MOL0     H75051   4.967   6.904  10.579  1.8254  1.1200 -2.2569
  544MOL0     H75052   4.158   6.535  10.594 -0.9983 -1.8252 -1.3115
  544MOL0     H75053   4.035   6.360  10.482 -1.4706 -0.2046  0.2928
  544MOL0     H75054   3.753   6.008  10.598 -1.7395 -0.4712 -0.6767
  544MOL0     H75055   3.618   5.802  10.592 -0.9376 -2.1933  0.7595
  544MOL0     H75056   4.162   4.756  10.462  0.0070 -0.7562  1.3066
  544MOL0     H75057   4.408   4.675  10.431  2.5005 -0.4154  1.3949
  544MOL0     H75058   4.777   4.579  10.461 -1.4100  1.2759  1.0268
  544MOL0     H75059   4.982   4.562  10.374 -1.4397 -1.2594  1.2185
  544MOL0     H75060   5.229   4.542  10.361 -0.7272 -0.1699  0.3503
  544MOL0     H75061   5.388   4.549  10.434  0.6096 -1.5927  1.6040
  544MOL0     H75062   5.166   4.381  10.540  0.4721 -0.0405  0.8322
  544MOL0     H75063   5.326   4.396  10.614 -1.3482  0.8390  0.9493
  544MOL0     H75064   5.323   4.190  10.505  1.4530  1.1522  2.0465
  544MOL0     H75065   5.236   4.255  10.362  1.3474 -0.4794 -2.6316
  544MOL0     H75066   5.453   4.362  10.280  0.2255  0.9188 -0.1954
  544MOL0     H75067   5.457   4.187  10.290  0.9811 -0.1312  0.5478
  544MOL0     H75068   5.736   4.288  10.598  1.4570 -0.6388 -0.5762
  544MOL0     H75069   5.147   4.717  10.757 -1.3487  1.9529  2.9585
  544MOL0     H75070   4.995   4.797  10.910  1.9408  0.5542 -3.3881
  544MOL0     H75071   4.884   4.897  10.820  0.0823  0.2572  1.0773
  544MOL0     H75072   4.828   4.756  10.926  2.8773 -0.5885  2.0560
  545MOL0     O75073   3.803   1.228   0.681 -0.0651  0.9019  0.3136
  545MOL0     C75074   3.746   1.282   0.777 -0.1895  0.0993 -0.0643
  545MOL0     O75075   3.807   1.326   0.888 -0.2490 -0.3934  0.4404
  545MOL0     C75076   3.944   1.324   0.888  0.1176 -0.3625 -0.5734
  545MOL0     C75077   4.021   1.441   0.905  0.6115 -0.0820 -0.2116
  545MOL0     C75078   4.154   1.444   0.922 -1.3807 -0.3409 -0.3737
  545MOL0     C75079   4.230   1.322   0.922 -0.5884 -0.5838  0.3985
  545MOL0     O75080   4.372   1.338   0.926 -0.1784 -0.2515 -0.4474
  545MOL0     C75081   4.446   1.225   0.989 -0.4906 -0.1331 -0.7517
  545MOL0     C75082   4.408   1.219   1.145  0.4154  0.0390  0.1010
  545MOL0     C75083   4.434   1.352   1.218 -0.5087 -0.2425  0.5568
  545MOL0     C75084   4.446   1.332   1.372  0.5712  0.8309  0.1212
  545MOL0     C75085   4.470   1.469   1.428  0.3572  0.5291 -0.3512
  545MOL0     C75086   4.469   1.464   1.574 -0.1779  0.1163  0.1739
  545MOL0     C75087   4.524   1.586   1.643  0.2054  0.3251 -0.4433
  545MOL0     C75088   4.673   1.609   1.635 -0.3569 -0.5969  0.3280
  545MOL0     N75089   4.752   1.492   1.683  0.3481 -0.3720  0.2602
  545MOL0     C75090   4.742   1.453   1.810 -0.1805 -0.1273 -0.6144
  545MOL0     C75091   4.835   1.355   1.826 -0.4586  1.3939  0.2208
  545MOL0     C75092   4.857   1.271   1.945 -0.1782 -0.0783  0.0857
  545MOL0     C75093   5.000   1.278   2.010  0.0596  0.0870 -0.1617
  545MOL0     C75094   5.022   1.406   2.098 -0.2600 -0.2500 -0.0998
  545MOL0     C75095   5.074   1.517   2.001  0.2748  0.4212  0.5404
  545MOL0     O75096   5.207   1.494   1.953  0.6658  0.0611  0.5357
  545MOL0     C75097   5.321   1.505   2.036 -0.2021 -1.3443  1.3963
  545MOL0     C75098   5.315   1.549   2.164 -0.8148 -0.9224 -1.5592
  545MOL0     C75099   5.438   1.585   2.235  0.0062 -0.3923 -0.2398
  545MOL0     C75100   5.418   1.635   2.376  0.6830 -0.8315  0.0633
  545MOL0     C75101   5.564   1.576   2.174 -0.0570  0.2713  0.8643
  545MOL0     C75102   5.683   1.627   2.251 -0.1263 -1.0649  0.0573
  545MOL0     O75103   5.785   1.689   2.175  0.0073  0.5243  0.7088
  545MOL0     C75104   5.851   1.784   2.249  0.0063  0.4112 -0.2578
  545MOL0     C75105   5.941   1.753   2.359  0.3784 -0.1434  0.0830
  545MOL0     C75106   6.001   1.852   2.438 -0.3063  0.4322 -0.4314
  545MOL0     C75107   5.977   1.989   2.412  0.1030  0.8705  0.8460
  545MOL0     O75108   6.026   2.096   2.482 -0.9190  0.4622 -1.2215
  545MOL0     C75109   6.081   2.057   2.610 -0.5214  0.2205  0.2735
  545MOL0     C75110   6.125   2.185   2.694  0.7431 -0.2557  1.1740
  545MOL0     C75111   6.208   2.153   2.815 -0.7747 -0.2210 -0.9718
  545MOL0     C75112   6.311   2.259   2.851 -0.6678  0.4159  0.1790
  545MOL0     C75113   6.250   2.405   2.864  0.9632  0.0326  0.2507
  545MOL0     C75114   6.346   2.516   2.887  0.5535  0.2654  0.2359
  545MOL0     C75115   6.404   2.511   3.030  0.4471  0.2324 -0.2442
  545MOL0     C75116   6.464   2.643   3.072 -0.2669 -0.1884 -0.0264
  545MOL0    Cl75117   6.329   2.768   3.128 -0.0789 -0.5126 -0.1645
  545MOL0     C75118   5.884   2.022   2.317 -1.0469 -0.5084  0.5932
  545MOL0     C75119   5.825   1.923   2.229  0.4224  0.1297  1.2482
  545MOL0     O75120   5.683   1.621   2.382 -0.8064  0.2642 -0.1922
  545MOL0     C75121   5.560   1.542   2.029  0.5775 -0.0488 -0.0510
  545MOL0     C75122   5.440   1.499   1.966  0.0976  0.0484 -0.8316
  545MOL0     N75123   4.891   1.334   1.703  0.0549  0.5902 -0.0672
  545MOL0     N75124   4.844   1.422   1.614  0.5050  0.3861 -1.0283
  545MOL0     C75125   4.162   1.198   0.898 -0.8233 -0.1880  0.1587
  545MOL0     C75126   4.025   1.204   0.881  0.3525 -0.0058  0.0474
  545MOL0     C75127   3.595   1.301   0.759  0.6267  0.1836  0.7506
  545MOL0     C75128   3.551   1.397   0.843  1.0189 -0.1424  1.2292
  545MOL0     C75129   3.420   1.435   0.842 -0.1541 -0.7824  0.5967
  545MOL0     C75130   3.324   1.374   0.769  0.7925 -0.0081  0.1850
  545MOL0     O75131   3.192   1.404   0.795  0.4263 -0.6212 -0.1925
  545MOL0     C75132   3.088   1.406   0.696 -0.1558  0.1954  0.2670
  545MOL0     C75133   2.972   1.486   0.752  0.7843 -0.1725 -0.1810
  545MOL0     C75134   2.886   1.425   0.855 -0.2109  0.9444 -0.3195
  545MOL0     C75135   2.809   1.531   0.929 -0.7386 -0.2655  0.8365
  545MOL0     C75136   2.715   1.475   1.027 -0.2219  0.3930 -0.2013
  545MOL0     C75137   2.643   1.432   1.117 -0.5606  0.6462 -0.6470
  545MOL0     C75138   3.368   1.280   0.681  0.8759  0.4020  0.6618
  545MOL0     C75139   3.504   1.242   0.670 -0.7366  0.9185 -0.3813
  545MOL0     C75140   3.533   1.127   0.571  0.8801  0.5569 -0.3037
  545MOL0     H75141   3.970   1.537   0.909  1.3259  0.2883  3.6722
  545MOL0     H75142   4.210   1.537   0.922  0.5641 -1.4409 -1.9169
  545MOL0     H75143   4.552   1.248   0.978  0.1656 -1.0759  2.5057
  545MOL0     H75144   4.430   1.131   0.935  0.2595 -0.9855  0.4648
  545MOL0     H75145   4.302   1.196   1.138  0.3895  0.0960  0.2968
  545MOL0     H75146   4.465   1.136   1.187  0.2824 -0.7882 -1.3042
  545MOL0     H75147   4.531   1.375   1.174 -0.3720 -1.8400 -0.0249
  545MOL0     H75148   4.372   1.436   1.186 -1.0896 -0.0445  2.1136
  545MOL0     H75149   4.353   1.288   1.409 -0.0738  2.8425  0.9908
  545MOL0     H75150   4.531   1.271   1.407  1.4152  0.6229 -2.1270
  545MOL0     H75151   4.394   1.541   1.397 -0.4747 -0.4490 -0.6113
  545MOL0     H75152   4.573   1.493   1.398  0.7179 -0.2604  0.2268
  545MOL0     H75153   4.363   1.458   1.598  0.2834 -2.6160  1.9718
  545MOL0     H75154   4.506   1.368   1.612 -1.5157 -0.8142 -0.8076
  545MOL0     H75155   4.488   1.580   1.747 -2.5541 -1.6334 -1.3894
  545MOL0     H75156   4.471   1.677   1.614 -1.0371  0.1538  1.1308
  545MOL0     H75157   4.700   1.631   1.532 -2.4469 -1.3386 -0.4264
  545MOL0     H75158   4.707   1.691   1.698  1.6227  0.2369 -1.7151
  545MOL0     H75159   4.675   1.494   1.885  0.0925  1.3330 -1.1208
  545MOL0     H75160   4.833   1.170   1.913 -1.7809  0.2715  0.1336
  545MOL0     H75161   4.786   1.287   2.026  0.2059 -0.4007  0.4952
  545MOL0     H75162   5.012   1.200   2.085 -1.2493 -0.9824 -1.0220
  545MOL0     H75163   5.073   1.253   1.933 -1.7097 -1.4962 -1.4195
  545MOL0     H75164   4.925   1.442   2.134 -0.4584 -0.2599 -0.6215
  545MOL0     H75165   5.092   1.389   2.180  2.4992  1.2655 -1.9845
  545MOL0     H75166   5.015   1.518   1.908 -0.0772 -1.6887  0.6768
  545MOL0     H75167   5.066   1.613   2.052  3.4153  1.7428 -1.1506
  545MOL0     H75168   5.220   1.554   2.218  0.5226 -1.6154  1.0319
  545MOL0     H75169   5.314   1.622   2.408  0.8612  0.6102  1.3802
  545MOL0     H75170   5.438   1.740   2.399 -0.8285 -1.0428  2.8552
  545MOL0     H75171   5.467   1.569   2.448 -0.2066 -0.7366  0.7823
  545MOL0     H75172   5.965   1.651   2.385 -0.1533  0.0083  1.2299
  545MOL0     H75173   6.066   1.820   2.519  0.0412  2.3459  0.0865
  545MOL0     H75174   6.025   1.983   2.668  1.2174 -1.8479 -0.5362
  545MOL0     H75175   6.176   2.008   2.582 -0.7524  1.3463 -2.8924
  545MOL0     H75176   6.183   2.236   2.617 -0.9687 -1.9787 -1.3985
  545MOL0     H75177   6.040   2.249   2.721  1.0053  0.2142  0.9002
  545MOL0     H75178   6.262   2.058   2.802  0.9411  0.0117  3.0326
  545MOL0     H75179   6.126   2.150   2.886 -1.8136 -1.5417 -2.1634
  545MOL0     H75180   6.391   2.254   2.776 -1.7763 -0.2231 -1.0057
  545MOL0     H75181   6.357   2.244   2.949  0.4251  1.0393 -0.2269
  545MOL0     H75182   6.201   2.427   2.769  0.8011 -1.7579 -0.1165
  545MOL0     H75183   6.178   2.407   2.945  1.4446  0.6714  0.6723
  545MOL0     H75184   6.289   2.608   2.870 -0.0630 -0.3095 -0.9061
  545MOL0     H75185   6.437   2.506   2.826 -0.1023 -3.2721 -0.3640
  545MOL0     H75186   6.478   2.431   3.028  1.0992  0.7978  0.5004
  545MOL0     H75187   6.319   2.493   3.096 -0.8273  2.4694 -1.1475
  545MOL0     H75188   6.523   2.689   2.992  0.5695 -1.1999 -0.0078
  545MOL0     H75189   6.533   2.638   3.157  1.1942  4.5634 -0.6460
  545MOL0     H75190   5.858   2.123   2.289 -0.4799 -0.6950 -0.6924
  545MOL0     H75191   5.759   1.949   2.147  2.6585  3.1992  0.2719
  545MOL0     H75192   5.650   1.553   1.969  0.5730  2.6559  0.3557
  545MOL0     H75193   5.421   1.458   1.867 -2.1033 -0.0548 -0.4246
  545MOL0     H75194   4.216   1.104   0.890 -2.0975 -0.9994  0.7813
  545MOL0     H75195   3.968   1.112   0.879 -0.1326  0.2867  0.1312
  545MOL0     H75196   3.614   1.455   0.910  3.2601 -0.2489 -0.6438
  545MOL0     H75197   3.392   1.512   0.913 -1.8665 -1.6757  0.9380
  545MOL0     H75198   3.127   1.472   0.618 -1.0941  1.4235  0.8131
  545MOL0     H75199   3.059   1.311   0.650 -0.5069  1.5477 -2.5330
  545MOL0     H75200   2.910   1.503   0.663  0.8820  1.3754  0.0186
  545MOL0     H75201   3.007   1.581   0.794 -1.9432  0.4306  0.9550
  545MOL0     H75202   2.810   1.357   0.815 -0.5589  0.0987  1.6650
  545MOL0     H75203   2.951   1.368   0.922 -1.0439 -2.3453 -2.0844
  545MOL0     H75204   2.737   1.585   0.866 -1.6929 -4.7630 -2.4352
  545MOL0     H75205   2.878   1.603   0.973  0.6771 -0.2925 -1.2230
  545MOL0     H75206   2.602   1.371   1.195  1.8495  0.1449  0.3171
  545MOL0     H75207   3.291   1.243   0.615  1.5435 -0.7537  0.5063
  545MOL0     H75208   3.460   1.142   0.491 -2.9716  0.8000  2.9145
  545MOL0     H75209   3.636   1.125   0.535  0.9516  4.2733 -0.7302
  545MOL0     H75210   3.510   1.033   0.622  1.7798 -0.5843 -1.9192
  546MOL0     O75211   5.059   1.088   7.077  1.1647 -0.7555  0.0896
  546MOL0     C75212   5.176   1.064   7.041  0.1415  0.3443 -0.1251
  546MOL0     O75213   5.235   0.941   7.033 -0.6029  0.2470 -0.1902
  546MOL0     C75214   5.167   0.821   7.019  0.0227 -0.0559 -0.5728
  546MOL0     C75215   5.233   0.711   6.960  0.4440  1.2024 -0.3507
  546MOL0     C75216   5.169   0.596   6.914  0.6769 -0.2614 -0.7627
  546MOL0     C75217   5.039   0.583   6.965  0.1933 -0.3872  0.5860
  546MOL0     O75218   4.989   0.461   6.948  0.0968  0.4701  0.5369
  546MOL0     C75219   4.856   0.421   6.960  1.5036  0.7787 -0.6401
  546MOL0     C75220   4.841   0.276   6.910 -0.1332  1.3615  0.1109
  546MOL0     C75221   4.872   0.265   6.762  0.0001 -0.2567  0.0224
  546MOL0     C75222   4.844   0.124   6.703  0.2819  0.6916  1.1194
  546MOL0     C75223   4.860   0.123   6.548  0.0076  0.2798  0.4712
  546MOL0     C75224   4.722   0.166   6.481 -0.5588 -0.1008 -0.5409
  546MOL0     C75225   4.616   0.065   6.470 -0.6441 -0.4434  0.0783
  546MOL0     C75226   4.657  -0.034   6.356 -0.5633  1.0377 -0.4157
  546MOL0     N75227   4.541  -0.076   6.275 -0.5607  0.2285 -0.4667
  546MOL0     C75228   4.441  -0.165   6.318  0.1410 -0.5651 -0.2011
  546MOL0     C75229   4.347  -0.167   6.230 -0.5074  0.8603 -0.1398
  546MOL0     C75230   4.236  -0.263   6.236  1.6324 -0.4804  0.2494
  546MOL0     C75231   4.225  -0.348   6.101  0.0902 -0.0589  0.7978
  546MOL0     C75232   4.300  -0.482   6.123  0.5756  0.4677  0.7065
  546MOL0     C75233   4.386  -0.532   6.007 -0.0808  0.8152 -0.0734
  546MOL0     O75234   4.463  -0.445   5.926  0.1333 -0.5502  0.2453
  546MOL0     C75235   4.582  -0.394   5.965 -0.0979  0.2973 -0.9514
  546MOL0     C75236   4.665  -0.328   5.867 -0.3554 -1.4326 -0.6238
  546MOL0     C75237   4.786  -0.261   5.890 -0.0967  1.0602 -0.0571
  546MOL0     C75238   4.861  -0.240   5.762  0.1501 -0.3174  0.1235
  546MOL0     C75239   4.823  -0.254   6.031  0.1149  0.1937 -0.3690
  546MOL0     C75240   4.951  -0.189   6.081  0.3676 -1.0711  0.7254
  546MOL0     O75241   4.978  -0.179   6.215 -0.4870  0.1695 -0.7698
  546MOL0     C75242   5.107  -0.143   6.257  0.1668 -0.6387 -0.0688
  546MOL0     C75243   5.221  -0.223   6.238  0.7754 -0.7538  0.5545
  546MOL0     C75244   5.346  -0.187   6.281  0.4457  0.6218 -0.3903
  546MOL0     C75245   5.360  -0.069   6.360  0.5492  0.0750  0.5976
  546MOL0     O75246   5.476  -0.016   6.422 -0.2837 -0.3239  0.8342
  546MOL0     C75247   5.588  -0.100   6.419 -1.1475  0.5269 -0.3671
  546MOL0     C75248   5.691  -0.044   6.510 -0.9776  0.3448 -0.4872
  546MOL0     C75249   5.754   0.085   6.467 -0.2115 -0.6229  0.0905
  546MOL0     C75250   5.677   0.200   6.538  0.1269  0.7754  0.9052
  546MOL0     C75251   5.772   0.289   6.609  0.0150 -0.5387 -0.4487
  546MOL0     C75252   5.711   0.419   6.664 -0.6630 -0.6568 -0.9986
  546MOL0     C75253   5.811   0.527   6.697  0.0231 -1.2011  0.2388
  546MOL0     C75254   5.748   0.629   6.795 -0.1702  0.6106 -0.6444
  546MOL0    Cl75255   5.601   0.700   6.748 -0.0108 -0.1290  0.1595
  546MOL0     C75256   5.233   0.008   6.383 -0.1690 -0.5480 -0.1420
  546MOL0     C75257   5.113  -0.023   6.328 -0.9879  0.4193  0.3678
  546MOL0     O75258   5.035  -0.160   5.994  0.3857  0.1739 -0.5888
  546MOL0     C75259   4.743  -0.314   6.136 -0.2445 -0.1687  0.4868
  546MOL0     C75260   4.629  -0.392   6.102  0.3890 -0.2589  0.4021
  546MOL0     N75261   4.383  -0.084   6.127 -0.4609  0.5130 -0.4941
  546MOL0     N75262   4.504  -0.034   6.152  0.0035  0.2059 -0.0712
  546MOL0     C75263   4.967   0.681   7.033  0.1921  0.3720 -0.1603
  546MOL0     C75264   5.033   0.798   7.065 -0.1802 -0.0728 -0.4010
  546MOL0     C75265   5.262   1.180   7.011  0.4755 -0.0849  0.4293
  546MOL0     C75266   5.193   1.306   6.996  0.1577 -0.0900  0.5637
  546MOL0     C75267   5.258   1.428   6.999 -0.3106 -0.0142 -0.5947
  546MOL0     C75268   5.397   1.433   6.996  0.2273  0.2533  0.7161
  546MOL0     O75269   5.474   1.544   6.980  0.7149 -0.1597  1.0785
  546MOL0     C75270   5.415   1.667   6.967  0.3176 -0.8819  0.0118
  546MOL0     C75271   5.515   1.775   6.963 -0.1422 -0.7618  0.7502
  546MOL0     C75272   5.590   1.800   7.094  0.3535  0.0305  0.7079
  546MOL0     C75273   5.505   1.882   7.191  1.3017 -0.1828  0.4012
  546MOL0     C75274   5.587   1.946   7.296 -0.7753 -0.2084 -0.0830
  546MOL0     C75275   5.636   2.011   7.382 -0.3240 -0.3872  0.0852
  546MOL0     C75276   5.465   1.310   6.995 -0.0947 -0.4831  0.2643
  546MOL0     C75277   5.406   1.186   7.011  0.2511  0.8852  0.0932
  546MOL0     C75278   5.490   1.058   7.040 -0.0954  0.5451  0.6313
  546MOL0     H75279   5.337   0.734   6.941 -0.0373  2.3847 -1.7254
  546MOL0     H75280   5.198   0.511   6.852 -0.6736 -1.9880  0.8466
  546MOL0     H75281   4.782   0.479   6.903  1.1939 -0.8443 -1.9821
  546MOL0     H75282   4.837   0.431   7.067 -1.2596 -0.4756 -0.9142
  546MOL0     H75283   4.914   0.217   6.967 -1.5734 -2.4960 -1.7159
  546MOL0     H75284   4.744   0.237   6.941 -0.3036  0.7332 -1.1744
  546MOL0     H75285   4.811   0.340   6.711 -0.3911 -0.6206 -0.0537
  546MOL0     H75286   4.975   0.298   6.748  0.0443 -0.6468 -0.5939
  546MOL0     H75287   4.907   0.049   6.752 -0.3650 -0.3569  0.4012
  546MOL0     H75288   4.737   0.112   6.719 -0.7231 -0.2372 -4.3541
  546MOL0     H75289   4.892   0.027   6.507  0.1137 -0.7363  2.7752
  546MOL0     H75290   4.928   0.200   6.510 -1.0802 -0.5267 -3.6416
  546MOL0     H75291   4.687   0.250   6.543  0.3539 -0.4141  0.4349
  546MOL0     H75292   4.741   0.213   6.384  3.0189  2.8410  1.2952
  546MOL0     H75293   4.538   0.125   6.421  0.1312  0.6078  0.1064
  546MOL0     H75294   4.580   0.016   6.561 -1.4310 -4.4791 -2.1803
  546MOL0     H75295   4.727   0.013   6.287 -1.0128  0.8953 -0.9745
  546MOL0     H75296   4.705  -0.119   6.405 -3.4267 -0.2266  0.3867
  546MOL0     H75297   4.433  -0.221   6.411  0.9486 -0.2230  0.0848
  546MOL0     H75298   4.154  -0.191   6.250  2.1434  0.3470 -0.8202
  546MOL0     H75299   4.229  -0.315   6.332  2.0819  0.4868  0.8239
  546MOL0     H75300   4.120  -0.370   6.083  0.3991  0.4312 -2.2619
  546MOL0     H75301   4.272  -0.297   6.016  0.7535  2.7066  2.6865
  546MOL0     H75302   4.360  -0.468   6.213 -0.7531  0.4682  1.6097
  546MOL0     H75303   4.230  -0.558   6.156  1.5334 -2.3067 -2.9440
  546MOL0     H75304   4.451  -0.614   6.041 -2.5634 -0.5189  1.8444
  546MOL0     H75305   4.307  -0.573   5.943 -1.5230 -1.2724  2.7679
  546MOL0     H75306   4.624  -0.345   5.769  1.7468 -1.5882 -1.5265
  546MOL0     H75307   4.967  -0.214   5.757  0.6186 -2.1210 -0.0063
  546MOL0     H75308   4.804  -0.169   5.701 -1.7906 -0.4967  1.6311
  546MOL0     H75309   4.862  -0.333   5.705 -0.1559 -0.5588  0.5089
  546MOL0     H75310   5.215  -0.313   6.177 -3.2275  0.3192 -0.9684
  546MOL0     H75311   5.430  -0.255   6.267 -0.5554 -1.4705  2.5582
  546MOL0     H75312   5.566  -0.203   6.449 -0.4209  0.8216  1.3041
  546MOL0     H75313   5.625  -0.110   6.317  0.2344 -1.6926  0.2862
  546MOL0     H75314   5.659  -0.039   6.615  1.5736 -1.5145  0.5089
  546MOL0     H75315   5.771  -0.119   6.510 -0.2028  1.1359  0.6105
  546MOL0     H75316   5.760   0.101   6.359 -1.4874  1.7441  0.3047
  546MOL0     H75317   5.855   0.078   6.509 -1.0367 -1.5891  2.0576
  546MOL0     H75318   5.588   0.166   6.592 -1.7412  0.2843 -2.2260
  546MOL0     H75319   5.631   0.261   6.460 -0.5958 -0.9507 -0.0593
  546MOL0     H75320   5.811   0.235   6.695  0.6812  1.8347  0.8146
  546MOL0     H75321   5.843   0.307   6.528  1.1030 -1.8751  0.1733
  546MOL0     H75322   5.655   0.398   6.755 -1.1568  2.4604 -0.4617
  546MOL0     H75323   5.646   0.466   6.589  0.4766 -0.2945 -1.7898
  546MOL0     H75324   5.851   0.585   6.614  0.9489 -1.8508  0.2170
  546MOL0     H75325   5.906   0.492   6.739  0.8542  1.8482  1.1656
  546MOL0     H75326   5.820   0.709   6.815 -0.8069  1.4019 -1.4592
  546MOL0     H75327   5.732   0.581   6.892  3.0083  0.6247 -0.0039
  546MOL0     H75328   5.246   0.098   6.441  1.0752 -2.5142  2.8820
  546MOL0     H75329   5.028   0.043   6.341  0.4060  2.3975 -0.0546
  546MOL0     H75330   4.783  -0.326   6.236  1.6422 -3.0120 -0.4758
  546MOL0     H75331   4.585  -0.459   6.174 -1.3257 -3.6826 -3.3986
  546MOL0     H75332   4.863   0.674   7.062  0.1210  1.6222 -0.0678
  546MOL0     H75333   4.981   0.883   7.108  1.3997  0.2903  0.8858
  546MOL0     H75334   5.085   1.314   6.990  0.1627 -0.8994 -1.3680
  546MOL0     H75335   5.201   1.521   7.000  1.6535  1.2434 -0.1459
  546MOL0     H75336   5.356   1.677   6.875  1.0403  1.5300 -0.2516
  546MOL0     H75337   5.350   1.686   7.052  0.2789  3.0218 -0.7371
  546MOL0     H75338   5.470   1.869   6.929  0.4575 -2.1371 -4.8119
  546MOL0     H75339   5.596   1.743   6.897 -0.9438 -0.5533 -0.3730
  546MOL0     H75340   5.605   1.701   7.139  1.4364  0.3692  1.1239
  546MOL0     H75341   5.693   1.831   7.074  1.1154 -1.7352  1.6321
  546MOL0     H75342   5.426   1.821   7.236  0.0362  0.1193 -1.3083
  546MOL0     H75343   5.450   1.959   7.136 -2.7995 -0.8593  3.1342
  546MOL0     H75344   5.677   2.077   7.456 -0.7198 -0.1461  0.0877
  546MOL0     H75345   5.573   1.313   7.005 -0.0660 -1.6452  0.3878
  546MOL0     H75346   5.466   0.964   6.989  1.5954 -0.1945  1.1628
  546MOL0     H75347   5.595   1.072   7.014 -0.1641  1.5819  0.8693
  546MOL0     H75348   5.490   1.046   7.148  1.8705  1.1413  0.7243
  547MOL0     O75349   9.887   9.714   7.707 -0.0223 -0.0686 -0.0628
  547MOL0     C75350   9.793   9.766   7.655  0.0987  0.4108  0.9241
  547MOL0     O75351   9.757   9.905   7.660 -0.3673  0.2475  0.5226
  547MOL0     C75352   9.844   9.995   7.714 -0.6104  0.1312 -0.3514
  547MOL0     C75353   9.974   9.978   7.771 -0.0006  1.1720  0.2324
  547MOL0     C75354  10.039  10.082   7.833  0.1012 -0.8033 -0.3629
  547MOL0     C75355   9.977  10.208   7.855 -0.3357 -0.4749  0.0355
  547MOL0     O75356  10.031  10.305   7.930 -0.1184  0.6051  0.2246
  547MOL0     C75357   9.999  10.446   7.909 -0.0147 -0.0145  0.5336
  547MOL0     C75358  10.124  10.539   7.934 -0.4764  0.8067  0.4458
  547MOL0     C75359  10.259  10.503   7.875 -0.0525  0.6735 -0.3056
  547MOL0     C75360  10.339  10.404   7.961 -0.0176  0.0623  0.2684
  547MOL0     C75361  10.484  10.388   7.920 -0.0972  0.5616  0.7697
  547MOL0     C75362  10.559  10.281   8.000 -0.1381 -0.4375  0.0071
  547MOL0     C75363  10.578  10.316   8.153 -0.3634  1.2973 -0.7297
  547MOL0     C75364  10.615  10.193   8.238  0.2468 -0.0637  0.0049
  547MOL0     N75365  10.763  10.170   8.243  0.2958  0.6892  0.0081
  547MOL0     C75366  10.844  10.115   8.140  0.0101 -0.3696 -0.1888
  547MOL0     C75367  10.954  10.081   8.204 -0.9269  0.3692  0.8259
  547MOL0     C75368  11.075  10.011   8.140 -0.3472  0.3428  0.3446
  547MOL0     C75369  11.176  10.110   8.092 -0.2882  0.6198 -0.6710
  547MOL0     C75370  11.291  10.045   8.025  0.2146  0.0485 -0.8919
  547MOL0     C75371  11.314  10.073   7.878  0.9315 -0.4752 -0.1276
  547MOL0     O75372  11.421   9.989   7.817 -0.0413  0.4315  0.4541
  547MOL0     C75373  11.388   9.884   7.730  0.3058 -0.0952 -1.2315
  547MOL0     C75374  11.474   9.853   7.627 -0.6707 -0.5149 -0.6760
  547MOL0     C75375  11.461   9.742   7.549 -0.1698  0.0491 -0.2268
  547MOL0     C75376  11.563   9.719   7.443  0.2594  0.3995  0.1692
  547MOL0     C75377  11.348   9.648   7.570  0.1978 -0.0593 -0.9797
  547MOL0     C75378  11.328   9.524   7.503 -0.6458 -0.1785  0.7013
  547MOL0     O75379  11.194   9.485   7.483  0.1775 -0.0860 -0.5738
  547MOL0     C75380  11.169   9.368   7.414  0.1009 -0.3603  0.6780
  547MOL0     C75381  11.156   9.242   7.469  0.4137 -0.7919 -0.1389
  547MOL0     C75382  11.106   9.141   7.390 -1.1817 -0.1348 -0.3818
  547MOL0     C75383  11.088   9.157   7.258 -0.1341  0.4763  0.5530
  547MOL0     O75384  11.050   9.051   7.184  0.0053  0.4042 -0.1393
  547MOL0     C75385  11.109   8.930   7.211 -0.6314  0.6829  0.1127
  547MOL0     C75386  11.081   8.838   7.089  0.1729  1.3685  0.4374
  547MOL0     C75387  11.177   8.862   6.976 -0.2579  0.2804 -0.3851
  547MOL0     C75388  11.174   8.753   6.864 -0.2724 -0.0525 -0.3689
  547MOL0     C75389  11.276   8.795   6.755 -0.5425 -0.2733 -0.7616
  547MOL0     C75390  11.239   8.924   6.679  0.6010  0.4180  0.2286
  547MOL0     C75391  11.121   8.892   6.581  0.3306 -0.3277  0.7079
  547MOL0     C75392  11.054   9.013   6.507 -0.2304 -0.7827 -0.1586
  547MOL0    Cl75393  10.923   8.955   6.403  0.4611 -0.3716  0.0453
  547MOL0     C75394  11.106   9.276   7.200 -0.0750  0.6973  0.0035
  547MOL0     C75395  11.142   9.390   7.276  0.2742  0.7320  0.4978
  547MOL0     O75396  11.425   9.452   7.468 -0.6916 -0.4727  0.2317
  547MOL0     C75397  11.258   9.687   7.667  0.6448  0.1291 -0.7900
  547MOL0     C75398  11.275   9.803   7.747 -0.6360 -0.3157 -0.7184
  547MOL0     N75399  10.945  10.107   8.340 -0.2826 -0.6865 -0.1369
  547MOL0     N75400  10.826  10.158   8.362  0.6336 -0.3699  0.5868
  547MOL0     C75401   9.851  10.218   7.793  0.1569 -0.0964 -0.4772
  547MOL0     C75402   9.784  10.121   7.725 -0.2861 -0.7444 -0.5366
  547MOL0     C75403   9.700   9.676   7.578  0.0851  0.1403  0.8937
  547MOL0     C75404   9.565   9.711   7.559  0.1902  0.8732  0.1471
  547MOL0     C75405   9.484   9.646   7.464  0.9689  0.2804  0.6383
  547MOL0     C75406   9.533   9.540   7.385 -0.2550 -0.0690 -0.2092
  547MOL0     O75407   9.452   9.455   7.308 -0.7124  0.7469 -0.1152
  547MOL0     C75408   9.316   9.484   7.304  0.6222 -0.4493 -1.1098
  547MOL0     C75409   9.236   9.386   7.226 -0.3392 -0.2990  1.0960
  547MOL0     C75410   9.230   9.239   7.277  0.4906  0.0089 -0.9036
  547MOL0     C75411   9.374   9.192   7.316 -0.4316  0.3725 -0.0218
  547MOL0     C75412   9.387   9.051   7.337  0.5415  0.1570  0.4519
  547MOL0     C75413   9.402   8.937   7.371 -0.3368 -0.0688  0.6804
  547MOL0     C75414   9.668   9.507   7.407 -0.0439  0.0331  0.7711
  547MOL0     C75415   9.753   9.572   7.503  0.9639  0.1997  0.5911
  547MOL0     C75416   9.898   9.518   7.507  1.0703 -0.6801 -0.5596
  547MOL0     H75417  10.014   9.877   7.780 -1.1632  0.4650 -1.7994
  547MOL0     H75418  10.134  10.057   7.879 -0.6113 -2.0818  0.4686
  547MOL0     H75419   9.913  10.472   7.972  0.8698  2.1855  0.9075
  547MOL0     H75420   9.975  10.454   7.802  0.0691 -2.5872  0.2586
  547MOL0     H75421  10.112  10.640   7.894  2.4854  1.8726  1.8863
  547MOL0     H75422  10.134  10.532   8.043  0.5962  1.1934  0.3925
  547MOL0     H75423  10.248  10.469   7.771 -1.4296 -1.2896  0.4221
  547MOL0     H75424  10.319  10.594   7.868  1.2252 -0.2574 -3.9216
  547MOL0     H75425  10.335  10.429   8.068  0.1293  1.0581  0.0450
  547MOL0     H75426  10.292  10.306   7.944 -2.1890  0.9141  1.0160
  547MOL0     H75427  10.537  10.483   7.934  1.5898 -0.5428  2.5547
  547MOL0     H75428  10.482  10.360   7.815  1.0334 -0.9755  1.1195
  547MOL0     H75429  10.504  10.186   7.999 -1.9554  0.5646 -0.5251
  547MOL0     H75430  10.660  10.275   7.959 -0.5432 -1.2524 -0.8866
  547MOL0     H75431  10.479  10.348   8.186 -0.7297 -0.7764  0.4235
  547MOL0     H75432  10.645  10.401   8.170  0.7543  0.2044  0.6548
  547MOL0     H75433  10.585  10.220   8.339 -1.4107  3.8594 -1.3103
  547MOL0     H75434  10.553  10.108   8.208 -0.2262  0.2120  0.1795
  547MOL0     H75435  10.818  10.099   8.036 -0.6925  2.6604 -0.5656
  547MOL0     H75436  11.044   9.942   8.060  0.4017  0.4630 -0.0553
  547MOL0     H75437  11.107   9.948   8.223 -1.7801  0.2197  0.8334
  547MOL0     H75438  11.134  10.188   8.028 -3.4955 -0.0403  0.4319
  547MOL0     H75439  11.201  10.172   8.179  1.7277 -1.4304  0.3274
  547MOL0     H75440  11.377  10.098   8.067 -1.4706  2.5103 -0.2743
  547MOL0     H75441  11.311   9.945   8.064 -2.1953 -1.9023 -4.1995
  547MOL0     H75442  11.216  10.055   7.831 -1.0079  4.2886  1.4734
  547MOL0     H75443  11.329  10.181   7.870  0.9060 -0.4202  0.5349
  547MOL0     H75444  11.564   9.914   7.632 -1.6093  0.9243  4.4624
  547MOL0     H75445  11.627   9.637   7.480  0.5938  1.1087  1.2177
  547MOL0     H75446  11.624   9.809   7.433  3.0225 -1.2818  0.5199
  547MOL0     H75447  11.512   9.684   7.353  0.4456  0.1606  0.1552
  547MOL0     H75448  11.170   9.232   7.576 -1.2538  2.8150  0.5747
  547MOL0     H75449  11.102   9.043   7.437  0.0468 -1.1606 -2.2590
  547MOL0     H75450  11.215   8.948   7.230 -0.6819  2.3532 -0.9976
  547MOL0     H75451  11.067   8.886   7.301  2.7092 -3.4544 -0.0248
  547MOL0     H75452  11.090   8.731   7.110  1.8254  0.6421 -3.1539
  547MOL0     H75453  10.979   8.854   7.053  1.1126  2.6166 -1.8642
  547MOL0     H75454  11.280   8.869   7.013 -0.3336 -6.0256  2.1970
  547MOL0     H75455  11.150   8.960   6.934  2.3839  0.5489 -1.6570
  547MOL0     H75456  11.073   8.752   6.823 -1.1797 -1.5099  1.7214
  547MOL0     H75457  11.194   8.654   6.906  2.0647 -0.7798 -2.9050
  547MOL0     H75458  11.377   8.796   6.797 -0.2156 -3.4996 -1.2201
  547MOL0     H75459  11.277   8.709   6.688 -1.9929 -1.8670  1.1673
  547MOL0     H75460  11.329   8.975   6.643  0.1630  1.7669  0.9550
  547MOL0     H75461  11.200   8.997   6.751  2.1218 -0.0910  1.6074
  547MOL0     H75462  11.050   8.829   6.635  0.5832 -2.9927 -1.8219
  547MOL0     H75463  11.155   8.817   6.509 -1.2839 -0.4487  0.0244
  547MOL0     H75464  11.121   9.075   6.446 -2.5543 -0.8470 -2.9592
  547MOL0     H75465  11.014   9.078   6.585 -0.3120 -0.0834 -0.7743
  547MOL0     H75466  11.082   9.290   7.095 -1.1286 -1.2558 -0.0673
  547MOL0     H75467  11.164   9.478   7.216  1.2956  1.7349  2.2675
  547MOL0     H75468  11.173   9.630   7.702  0.7134  0.6439  0.2841
  547MOL0     H75469  11.214   9.834   7.832  3.5784 -1.1296  2.9580
  547MOL0     H75470   9.800  10.313   7.793  2.2576  1.2798 -4.9714
  547MOL0     H75471   9.684  10.147   7.690 -0.3193 -2.4870 -1.8452
  547MOL0     H75472   9.527   9.797   7.613  0.4574  0.8787  0.3288
  547MOL0     H75473   9.385   9.688   7.450  0.0625 -2.3372 -1.8010
  547MOL0     H75474   9.278   9.495   7.406  0.4684 -0.8988 -1.1132
  547MOL0     H75475   9.284   9.573   7.249 -1.3923 -0.6017 -0.2611
  547MOL0     H75476   9.287   9.386   7.129  0.5709  3.3333  1.4251
  547MOL0     H75477   9.137   9.430   7.213  0.4176  1.1028 -0.3462
  547MOL0     H75478   9.175   9.245   7.372  1.1958  2.6063 -0.5768
  547MOL0     H75479   9.179   9.169   7.211  0.7953  0.0499 -1.1803
  547MOL0     H75480   9.416   9.244   7.402  0.8057  1.3237 -1.1647
  547MOL0     H75481   9.435   9.211   7.227 -0.7466 -2.1510 -0.8408
  547MOL0     H75482   9.415   8.835   7.399 -0.3385 -0.1938  0.2303
  547MOL0     H75483   9.707   9.417   7.361  1.7670  0.4626  1.3998
  547MOL0     H75484   9.974   9.593   7.529 -2.3654  2.7916  0.8177
  547MOL0     H75485   9.903   9.455   7.596  0.7490  1.4177  1.0479
  547MOL0     H75486   9.911   9.460   7.416  0.2843 -3.1792  0.8172
  548MOL0     O75487   3.522   3.827   5.913  0.0054  0.0147  0.6606
  548MOL0     C75488   3.553   3.786   6.024 -0.6714 -0.2461  0.5409
  548MOL0     O75489   3.673   3.807   6.089 -0.5670 -0.2180  0.3067
  548MOL0     C75490   3.780   3.873   6.025 -1.2883 -0.1424  0.3088
  548MOL0     C75491   3.829   3.836   5.900  1.1463 -0.6017 -0.8215
  548MOL0     C75492   3.943   3.894   5.848  0.0727 -0.7059  0.2058
  548MOL0     C75493   4.019   3.992   5.922  0.1766 -0.3328  0.2102
  548MOL0     O75494   4.125   4.059   5.864  0.0327  0.3269  0.3065
  548MOL0     C75495   4.177   4.019   5.736  0.1494 -0.2610  0.5978
  548MOL0     C75496   4.272   4.140   5.701 -0.6377  0.3708 -0.1967
  548MOL0     C75497   4.402   4.124   5.776  0.1880 -0.1438 -0.5566
  548MOL0     C75498   4.483   4.248   5.744 -1.0769 -0.5147  0.2771
  548MOL0     C75499   4.630   4.248   5.803 -0.2453  0.5119  0.1064
  548MOL0     C75500   4.742   4.174   5.725  0.0045 -0.3355 -0.5865
  548MOL0     C75501   4.777   4.249   5.594 -0.1649 -0.1905 -0.5925
  548MOL0     C75502   4.807   4.390   5.607  0.3207 -1.5923 -0.2213
  548MOL0     N75503   4.956   4.414   5.609 -0.0542 -0.2650 -0.1025
  548MOL0     C75504   5.015   4.549   5.627 -0.1729 -0.7183  0.2616
  548MOL0     C75505   5.148   4.523   5.647  0.6006 -0.6271  0.2887
  548MOL0     C75506   5.265   4.618   5.678  0.6934 -0.2015 -0.4040
  548MOL0     C75507   5.274   4.654   5.828  0.3887 -0.6738 -0.3475
  548MOL0     C75508   5.340   4.540   5.900  0.8010 -0.1577  0.1993
  548MOL0     C75509   5.330   4.577   6.055  0.8400 -0.3342  0.2256
  548MOL0     O75510   5.203   4.576   6.122 -0.7993  0.3985  0.0721
  548MOL0     C75511   5.177   4.632   6.242 -0.7609  0.1452 -0.7513
  548MOL0     C75512   5.063   4.593   6.315 -0.2887 -0.1424 -0.0780
  548MOL0     C75513   5.036   4.634   6.444  0.3819  0.8589 -0.0641
  548MOL0     C75514   4.905   4.594   6.519 -0.7193 -0.5821 -0.0552
  548MOL0     C75515   5.130   4.725   6.507 -0.4446  0.1467  0.3919
  548MOL0     C75516   5.109   4.774   6.637  0.5539 -0.2064  0.5014
  548MOL0     O75517   5.032   4.890   6.633 -0.3554  0.4548  0.8541
  548MOL0     C75518   5.033   4.963   6.746 -0.0358  0.0338  0.2701
  548MOL0     C75519   5.147   5.026   6.795 -0.3691 -0.8312 -0.1998
  548MOL0     C75520   5.150   5.106   6.908  0.1147  0.4088  0.3875
  548MOL0     C75521   5.037   5.133   6.979 -0.0519 -0.4542  0.6601
  548MOL0     O75522   5.040   5.210   7.098 -0.5230  0.5692 -0.0822
  548MOL0     C75523   4.920   5.262   7.154  0.0337 -0.3881 -0.0456
  548MOL0     C75524   4.875   5.177   7.275  0.9319  0.9485 -0.3948
  548MOL0     C75525   4.965   5.203   7.391 -1.2466  0.0341  0.2216
  548MOL0     C75526   4.898   5.158   7.517 -0.0624  0.4435 -0.7685
  548MOL0     C75527   4.994   5.182   7.632 -0.3523  0.0598 -0.3050
  548MOL0     C75528   4.914   5.115   7.746 -0.4878  1.0315 -1.1469
  548MOL0     C75529   5.013   5.121   7.872 -0.3986  0.1158 -0.1004
  548MOL0     C75530   4.961   5.040   7.994 -0.3276 -0.2418  0.3415
  548MOL0    Cl75531   4.819   5.089   8.081  0.0497  0.3527 -0.5234
  548MOL0     C75532   4.913   5.067   6.938 -0.0570  0.2777 -0.1459
  548MOL0     C75533   4.915   4.979   6.823  0.3871 -0.1687 -0.8247
  548MOL0     O75534   5.183   4.739   6.734  0.3878 -0.3014  0.5307
  548MOL0     C75535   5.250   4.763   6.443  0.2290  0.0342 -1.0019
  548MOL0     C75536   5.266   4.719   6.313 -0.3147  0.1272  0.1291
  548MOL0     N75537   5.167   4.384   5.654 -0.4585  0.2595  0.1044
  548MOL0     N75538   5.055   4.320   5.623 -0.4263 -0.0427 -0.0496
  548MOL0     C75539   3.976   4.022   6.058 -0.1637 -0.8315  0.7212
  548MOL0     C75540   3.854   3.969   6.102  0.0649  0.3393 -0.6067
  548MOL0     C75541   3.448   3.731   6.107 -0.1013 -0.7606  0.5464
  548MOL0     C75542   3.485   3.679   6.231  0.3771  0.4137 -0.5674
  548MOL0     C75543   3.411   3.597   6.316 -0.3894  0.1132  0.2316
  548MOL0     C75544   3.277   3.564   6.271 -0.2326 -0.4624 -0.9614
  548MOL0     O75545   3.189   3.496   6.355 -0.5161  0.7166 -0.5375
  548MOL0     C75546   3.233   3.461   6.495 -0.0078 -0.0561  0.2465
  548MOL0     C75547   3.127   3.375   6.560  0.1024 -0.2080  0.4178
  548MOL0     C75548   3.005   3.456   6.620  0.9816 -0.2102 -0.3217
  548MOL0     C75549   2.914   3.361   6.692 -0.4930  0.2327 -0.1226
  548MOL0     C75550   2.967   3.326   6.824  1.9153 -0.4777  0.6381
  548MOL0     C75551   3.013   3.306   6.930  0.0442  0.2370 -0.4023
  548MOL0     C75552   3.232   3.622   6.155 -0.0358  0.3848 -0.3613
  548MOL0     C75553   3.312   3.699   6.069 -0.4956  0.6099 -0.2162
  548MOL0     C75554   3.234   3.761   5.952 -0.9258  0.4090  0.1918
  548MOL0     H75555   3.771   3.775   5.832  0.9388 -0.6512 -0.5989
  548MOL0     H75556   3.977   3.863   5.750  0.2094  1.0550 -0.3307
  548MOL0     H75557   4.093   4.020   5.666 -0.1303  1.0954  0.9307
  548MOL0     H75558   4.234   3.925   5.743  1.8012  0.6566  0.0730
  548MOL0     H75559   4.286   4.135   5.593 -5.7217 -2.2038 -1.0251
  548MOL0     H75560   4.231   4.240   5.719  0.1751  0.6677  0.0640
  548MOL0     H75561   4.386   4.128   5.884 -1.4901  1.1470 -0.8107
  548MOL0     H75562   4.453   4.034   5.743  2.5620 -0.9719  4.3954
  548MOL0     H75563   4.501   4.272   5.638  3.1060  2.5739  1.4159
  548MOL0     H75564   4.425   4.327   5.792  1.1557  0.7874  0.9961
  548MOL0     H75565   4.611   4.200   5.900  2.3362 -0.9341 -0.0231
  548MOL0     H75566   4.659   4.346   5.841  0.8764  0.0843  0.3930
  548MOL0     H75567   4.831   4.187   5.786  0.0768  0.8997 -0.9381
  548MOL0     H75568   4.726   4.069   5.698  2.6162 -1.2004  0.8618
  548MOL0     H75569   4.695   4.236   5.524 -1.0711  2.7231 -0.1822
  548MOL0     H75570   4.865   4.191   5.563  2.0330  1.5860  1.8174
  548MOL0     H75571   4.778   4.428   5.509  1.8425  0.1365 -0.0424
  548MOL0     H75572   4.769   4.451   5.689  0.1703 -4.3558  1.9186
  548MOL0     H75573   4.974   4.649   5.618  0.3042 -0.7019 -2.5078
  548MOL0     H75574   5.234   4.712   5.631  0.8519  0.3456  0.5599
  548MOL0     H75575   5.364   4.587   5.644  1.2548  0.9074  0.1545
  548MOL0     H75576   5.333   4.745   5.841  1.4457 -1.5066  0.9611
  548MOL0     H75577   5.171   4.674   5.859  0.7395  1.3216 -0.3595
  548MOL0     H75578   5.294   4.441   5.891  2.5471 -1.5853  4.3620
  548MOL0     H75579   5.442   4.525   5.863  0.5700 -0.4317 -0.3280
  548MOL0     H75580   5.389   4.504   6.112 -0.4015 -0.9606  0.7433
  548MOL0     H75581   5.375   4.677   6.053  0.6126 -0.0853 -4.7810
  548MOL0     H75582   4.994   4.519   6.276 -1.1544 -0.9898  2.8456
  548MOL0     H75583   4.895   4.628   6.623 -3.0928 -0.3664 -0.2901
  548MOL0     H75584   4.891   4.486   6.521 -0.4221 -0.6161  1.1140
  548MOL0     H75585   4.824   4.640   6.462  2.6585 -0.5003 -5.5405
  548MOL0     H75586   5.240   5.021   6.739 -0.2617  1.2253 -0.2860
  548MOL0     H75587   5.246   5.151   6.933  2.3648 -2.1988 -2.6284
  548MOL0     H75588   4.946   5.362   7.191  0.0219 -0.9874  1.7118
  548MOL0     H75589   4.839   5.280   7.083 -0.3648 -0.3489  0.4126
  548MOL0     H75590   4.777   5.207   7.312  1.3955  0.0153  1.7337
  548MOL0     H75591   4.860   5.072   7.250 -0.6033  0.7424  1.2010
  548MOL0     H75592   4.991   5.310   7.398  0.9741 -0.3550 -1.0170
  548MOL0     H75593   5.052   5.141   7.366  0.2049  0.8246  2.9108
  548MOL0     H75594   4.869   5.053   7.512 -2.5739  1.0315  0.0011
  548MOL0     H75595   4.807   5.217   7.528  1.7158  3.0473  1.6176
  548MOL0     H75596   5.091   5.132   7.642 -0.9199 -0.5634  2.8702
  548MOL0     H75597   5.005   5.290   7.646  0.8183 -0.0566 -0.2188
  548MOL0     H75598   4.895   5.009   7.727 -0.4954 -0.0419  3.6175
  548MOL0     H75599   4.816   5.159   7.761 -0.3188  0.6464  1.8245
  548MOL0     H75600   5.033   5.224   7.904 -2.2560  0.1629  1.0087
  548MOL0     H75601   5.114   5.086   7.846 -0.7003 -2.2367  1.6178
  548MOL0     H75602   5.046   5.055   8.061  1.0641  0.6943 -1.5389
  548MOL0     H75603   4.953   4.934   7.969 -0.4785 -0.4815  1.3495
  548MOL0     H75604   4.820   5.086   6.990 -1.0764 -3.2122 -0.5145
  548MOL0     H75605   4.820   4.939   6.790  1.0235 -2.7597  0.2674
  548MOL0     H75606   5.316   4.829   6.497  1.3050 -2.5245  1.0278
  548MOL0     H75607   5.353   4.747   6.254 -2.3931 -0.7135 -3.6734
  548MOL0     H75608   4.034   4.086   6.124 -0.3253 -1.9655  1.9972
  548MOL0     H75609   3.816   3.990   6.202  3.3175 -0.0170  0.8323
  548MOL0     H75610   3.584   3.704   6.268  0.8150 -0.8885 -0.8256
  548MOL0     H75611   3.458   3.554   6.404 -0.2728 -0.9474 -0.3267
  548MOL0     H75612   3.323   3.399   6.489 -0.1269 -0.3823  1.5382
  548MOL0     H75613   3.264   3.539   6.565  1.4732 -0.1589 -0.2613
  548MOL0     H75614   3.177   3.304   6.626  1.4777 -1.3296 -1.7258
  548MOL0     H75615   3.074   3.316   6.484 -1.2841 -0.8997  1.8763
  548MOL0     H75616   3.043   3.534   6.686  1.0005 -0.1359 -0.4196
  548MOL0     H75617   2.942   3.503   6.544  2.2018  1.5152 -0.3401
  548MOL0     H75618   2.915   3.268   6.635 -1.4752 -1.3682  2.2774
  548MOL0     H75619   2.810   3.394   6.687 -1.0312 -0.8089  2.4689
  548MOL0     H75620   3.065   3.296   7.024 -1.2252  3.3276  0.7675
  548MOL0     H75621   3.129   3.596   6.131 -0.6438 -0.7697  2.9625
  548MOL0     H75622   3.298   3.775   5.864  1.7341 -2.6745  1.4571
  548MOL0     H75623   3.156   3.693   5.917 -0.1957 -0.6991  0.6749
  548MOL0     H75624   3.202   3.861   5.983 -1.3989  0.3301 -0.0293
  549MOL0     O75625   4.947   2.906   3.805 -0.0780  0.1340  0.4607
  549MOL0     C75626   4.962   2.871   3.692 -0.6358 -0.5705  0.8677
  549MOL0     O75627   4.972   2.740   3.646 -0.1147  0.2956  0.1733
  549MOL0     C75628   4.954   2.643   3.746  0.4301 -0.3702 -0.7175
  549MOL0     C75629   5.014   2.524   3.739 -0.2923  1.5735  0.0712
  549MOL0     C75630   4.975   2.407   3.807  0.3406 -0.4553 -1.0129
  549MOL0     C75631   4.875   2.412   3.903 -0.0350  0.2733  0.0527
  549MOL0     O75632   4.828   2.299   3.965  0.3549 -0.2145 -0.5494
  549MOL0     C75633   4.787   2.197   3.872  0.1300 -0.3623  0.3609
  549MOL0     C75634   4.727   2.079   3.945  0.1140  0.3550 -0.6191
  549MOL0     C75635   4.734   1.944   3.874  0.9113 -1.2386 -0.1486
  549MOL0     C75636   4.683   1.838   3.967  0.4432  0.7004 -0.2334
  549MOL0     C75637   4.716   1.687   3.921 -0.1477 -0.4341 -0.0731
  549MOL0     C75638   4.638   1.578   4.001 -0.5802  0.4300 -0.1790
  549MOL0     C75639   4.670   1.433   3.967  0.6771 -0.1981 -0.0112
  549MOL0     C75640   4.670   1.381   3.826 -1.3841  0.0043 -0.2282
  549MOL0     N75641   4.548   1.417   3.762  0.7761  0.4615 -0.2158
  549MOL0     C75642   4.421   1.378   3.816 -0.9768 -0.6039 -0.0284
  549MOL0     C75643   4.339   1.425   3.724 -0.7199  0.4834  0.1188
  549MOL0     C75644   4.188   1.403   3.717  0.2595  0.5486 -0.4682
  549MOL0     C75645   4.147   1.367   3.569  0.1425 -0.1120 -0.5665
  549MOL0     C75646   4.148   1.221   3.546  0.1941  0.3951  0.4625
  549MOL0     C75647   4.025   1.159   3.611  0.6214  0.9943 -0.5994
  549MOL0     O75648   4.031   1.014   3.610  0.0885 -0.1343 -0.0008
  549MOL0     C75649   3.935   0.934   3.664  0.2212 -0.3003  0.1073
  549MOL0     C75650   3.815   0.978   3.723  0.0560  0.9923  0.3100
  549MOL0     C75651   3.717   0.876   3.754 -0.4224 -0.1077 -0.4051
  549MOL0     C75652   3.586   0.927   3.806 -0.5577  0.6670 -0.1024
  549MOL0     C75653   3.740   0.738   3.727  0.3416 -0.0197 -0.5863
  549MOL0     C75654   3.645   0.626   3.763 -0.1114  0.5206  0.3238
  549MOL0     O75655   3.705   0.516   3.811 -0.0256 -0.1295  0.5536
  549MOL0     C75656   3.634   0.392   3.838 -0.5481 -0.0598 -0.4994
  549MOL0     C75657   3.701   0.297   3.916  0.3010  0.3723  0.5639
  549MOL0     C75658   3.632   0.182   3.969  0.8547 -0.3721 -0.4702
  549MOL0     C75659   3.496   0.169   3.954  0.0536 -0.4482  0.7617
  549MOL0     O75660   3.431   0.056   3.999 -0.3092  0.5374 -0.0817
  549MOL0     C75661   3.289   0.061   4.023  0.2646  0.4199 -0.5666
  549MOL0     C75662   3.258  -0.019   4.149 -0.6770  0.3674 -0.4387
  549MOL0     C75663   3.312  -0.162   4.147 -0.3313  0.1718 -0.9898
  549MOL0     C75664   3.252  -0.242   4.255 -0.3723  0.4372 -0.4377
  549MOL0     C75665   3.336  -0.365   4.285  0.4898 -0.7504  0.3703
  549MOL0     C75666   3.268  -0.449   4.397 -0.1263 -0.0519  1.3225
  549MOL0     C75667   3.355  -0.553   4.461  0.0738  0.0574  0.4103
  549MOL0     C75668   3.284  -0.636   4.574 -1.0377 -1.0605  0.0453
  549MOL0    Cl75669   3.400  -0.755   4.623 -0.4023 -0.0192 -0.5194
  549MOL0     C75670   3.428   0.259   3.875 -0.1884  1.4123 -0.4383
  549MOL0     C75671   3.494   0.367   3.816 -0.3966  0.1869  0.3511
  549MOL0     O75672   3.528   0.639   3.734 -0.0243 -0.5085 -0.3170
  549MOL0     C75673   3.866   0.706   3.674 -0.6636 -0.6559  0.2374
  549MOL0     C75674   3.969   0.801   3.643  0.4151  0.8512 -0.5546
  549MOL0     N75675   4.406   1.496   3.628  0.0332  0.1872  0.2950
  549MOL0     N75676   4.529   1.497   3.652 -0.1269 -0.1309 -0.5688
  549MOL0     C75677   4.819   2.534   3.924  0.7642  0.0736 -0.9129
  549MOL0     C75678   4.850   2.645   3.841 -1.1184  0.3018  0.1160
  549MOL0     C75679   4.978   2.978   3.577  0.6181  1.4436  0.4887
  549MOL0     C75680   5.035   2.936   3.453  0.3952  0.2994 -1.0921
  549MOL0     C75681   5.052   3.030   3.352 -0.5316 -0.6084 -0.3443
  549MOL0     C75682   4.989   3.159   3.344 -0.1404  0.3684 -1.1450
  549MOL0     O75683   4.986   3.246   3.239  0.2029  0.4866  0.0171
  549MOL0     C75684   5.083   3.223   3.133 -0.3745 -0.8692 -0.0947
  549MOL0     C75685   5.087   3.347   3.047 -0.3420 -0.3592 -0.2420
  549MOL0     C75686   5.160   3.458   3.123 -0.1841  0.1003  0.5465
  549MOL0     C75687   5.176   3.583   3.036  0.0615  0.9576  0.5998
  549MOL0     C75688   5.061   3.645   2.979  0.3114 -1.0684  0.0808
  549MOL0     C75689   4.956   3.691   2.939  0.2274 -1.0584  0.2299
  549MOL0     C75690   4.937   3.197   3.470  0.5176 -0.0676  0.2968
  549MOL0     C75691   4.930   3.112   3.583  0.8833 -0.3052 -0.1500
  549MOL0     C75692   4.853   3.174   3.701  0.3689 -0.0488 -0.3949
  549MOL0     H75693   5.077   2.500   3.654  0.9295  0.7425  1.1691
  549MOL0     H75694   4.997   2.310   3.765  3.4227 -0.3855  0.1748
  549MOL0     H75695   4.876   2.156   3.822  0.5889  0.1352  0.7518
  549MOL0     H75696   4.720   2.247   3.801 -1.4902 -0.2763  1.8960
  549MOL0     H75697   4.786   2.061   4.036 -1.6502  1.9192  0.9290
  549MOL0     H75698   4.632   2.111   3.988  0.5700  2.2141 -0.9187
  549MOL0     H75699   4.673   1.948   3.784  1.1246  0.7814 -0.2315
  549MOL0     H75700   4.839   1.941   3.843  1.2774  2.4830  0.2795
  549MOL0     H75701   4.721   1.851   4.069 -0.2874 -1.2379  0.3412
  549MOL0     H75702   4.574   1.834   3.976  0.4288 -0.2203 -0.6882
  549MOL0     H75703   4.823   1.670   3.939  0.0244  1.8695  1.4847
  549MOL0     H75704   4.696   1.693   3.813  2.7807  4.1815 -0.6760
  549MOL0     H75705   4.650   1.601   4.107 -3.1481 -1.6944  0.6714
  549MOL0     H75706   4.532   1.599   3.987 -1.0565  0.3348  2.7232
  549MOL0     H75707   4.602   1.369   4.025 -0.0200  1.3615  0.9426
  549MOL0     H75708   4.768   1.418   4.012  0.7571  2.0069  0.6644
  549MOL0     H75709   4.754   1.419   3.767  0.2586 -1.5343  1.0327
  549MOL0     H75710   4.687   1.273   3.823  2.7720  0.1416  4.4798
  549MOL0     H75711   4.390   1.329   3.907 -0.8901 -1.3863 -0.4051
  549MOL0     H75712   4.142   1.497   3.750 -0.0415  0.3622 -0.3526
  549MOL0     H75713   4.155   1.328   3.790 -2.2408  1.6538 -0.3544
  549MOL0     H75714   4.041   1.384   3.550 -0.8605 -1.1883  3.2739
  549MOL0     H75715   4.203   1.420   3.491  0.0884  0.0731 -0.4807
  549MOL0     H75716   4.143   1.192   3.441 -1.7693 -1.5624  1.0250
  549MOL0     H75717   4.238   1.183   3.595  0.1310  1.3732  1.3693
  549MOL0     H75718   4.024   1.194   3.714 -1.4047  2.3305 -1.0005
  549MOL0     H75719   3.931   1.187   3.562  1.3765  0.4893 -2.4373
  549MOL0     H75720   3.804   1.085   3.740  4.6693  1.6882  0.2686
  549MOL0     H75721   3.496   0.902   3.750 -0.2001 -0.2328 -0.3099
  549MOL0     H75722   3.598   1.034   3.824 -0.7346  0.4393  1.5362
  549MOL0     H75723   3.571   0.888   3.908  0.9792  3.1328  1.1482
  549MOL0     H75724   3.807   0.315   3.929  0.9486 -1.5468 -1.4988
  549MOL0     H75725   3.689   0.103   4.016  0.0323 -2.1625 -2.3121
  549MOL0     H75726   3.254   0.162   4.050 -0.1757 -0.1930  1.3412
  549MOL0     H75727   3.230   0.033   3.936  0.2017 -0.2084 -0.3270
  549MOL0     H75728   3.302   0.033   4.234 -3.4671  0.0058  1.3439
  549MOL0     H75729   3.149  -0.018   4.163 -1.0974  1.8508 -3.0019
  549MOL0     H75730   3.420  -0.146   4.160 -0.4790  0.3975  0.0447
  549MOL0     H75731   3.299  -0.206   4.048  1.4668  2.2893 -2.2911
  549MOL0     H75732   3.167  -0.289   4.205 -1.4241  2.3851 -0.5560
  549MOL0     H75733   3.235  -0.190   4.350 -0.5254  0.0211 -0.2314
  549MOL0     H75734   3.352  -0.420   4.191  2.3759  1.9803 -1.0529
  549MOL0     H75735   3.437  -0.336   4.318  0.7723 -3.3492  2.0319
  549MOL0     H75736   3.180  -0.495   4.352  2.0042 -2.4677 -0.6371
  549MOL0     H75737   3.244  -0.373   4.472  1.3915  0.8557  0.9331
  549MOL0     H75738   3.438  -0.496   4.503 -0.7330 -0.6476  3.1160
  549MOL0     H75739   3.402  -0.612   4.382  1.7060  1.4609  0.2606
  549MOL0     H75740   3.201  -0.694   4.535  1.2519 -2.5735 -3.0159
  549MOL0     H75741   3.256  -0.573   4.658 -0.7940 -0.7643 -0.0916
  549MOL0     H75742   3.320   0.262   3.862 -0.2618 -0.2462 -0.3650
  549MOL0     H75743   3.440   0.431   3.746  0.6561  1.9458  1.0921
  549MOL0     H75744   3.875   0.602   3.645 -1.3223 -1.5857  3.0967
  549MOL0     H75745   4.069   0.769   3.616  0.3930  1.5437 -1.4905
  549MOL0     H75746   4.747   2.545   4.004  0.8935 -5.2657  0.2844
  549MOL0     H75747   4.800   2.740   3.858 -1.1780 -0.2010  3.3199
  549MOL0     H75748   5.082   2.842   3.425  2.8201  1.4330 -1.1318
  549MOL0     H75749   5.099   2.987   3.265 -1.2290 -0.0501 -1.0062
  549MOL0     H75750   5.181   3.211   3.180  0.5827  0.4681 -1.6516
  549MOL0     H75751   5.051   3.142   3.066 -6.1039 -0.9519  2.1509
  549MOL0     H75752   4.981   3.370   3.029 -0.3090 -0.0389 -0.0351
  549MOL0     H75753   5.147   3.337   2.956 -0.5883  1.9668 -0.7221
  549MOL0     H75754   5.106   3.488   3.213 -1.0293  0.7428 -0.1575
  549MOL0     H75755   5.263   3.424   3.142  0.7408  1.0926 -2.1838
  549MOL0     H75756   5.264   3.564   2.974  0.2389 -5.5135  2.1168
  549MOL0     H75757   5.197   3.650   3.120  0.7375 -0.7534  1.8506
  549MOL0     H75758   4.871   3.743   2.900  1.6508 -0.7571 -2.7816
  549MOL0     H75759   4.903   3.300   3.470 -1.8131 -0.7474 -1.3227
  549MOL0     H75760   4.906   3.143   3.792 -0.4507 -0.6383 -0.1061
  549MOL0     H75761   4.854   3.283   3.698  0.2922 -0.0694 -1.3398
  549MOL0     H75762   4.751   3.136   3.702  0.8654 -1.5391 -1.6664
  550MOL0     O75763   3.065  10.823   8.277  0.0477  0.4777  0.8770
  550MOL0     C75764   3.034  10.940   8.261 -0.4261 -0.3475 -0.4059
  550MOL0     O75765   2.982  11.028   8.361  0.7178 -0.2623  0.1088
  550MOL0     C75766   2.970  10.987   8.491 -0.5117  1.1303 -0.5102
  550MOL0     C75767   2.880  11.052   8.572  0.1522  0.4136 -0.1372
  550MOL0     C75768   2.877  11.026   8.707 -0.7674  0.3319 -0.5214
  550MOL0     C75769   2.960  10.930   8.761 -0.2233  0.8597 -0.6906
  550MOL0     O75770   2.964  10.897   8.894 -0.2959 -0.4264 -0.5539
  550MOL0     C75771   2.866  10.945   8.976  0.6544 -0.1733 -0.1714
  550MOL0     C75772   2.882  10.900   9.128 -1.5979 -0.3313  0.7389
  550MOL0     C75773   2.779  10.968   9.216  0.0614  0.0959 -0.1754
  550MOL0     C75774   2.783  10.908   9.361 -0.4241 -0.3319  0.6610
  550MOL0     C75775   2.677  10.981   9.435  0.6582 -0.2483 -0.0544
  550MOL0     C75776   2.617  10.896   9.546 -0.7627 -0.2936  0.4424
  550MOL0     C75777   2.521  10.977   9.642 -0.1629 -0.1280  0.3588
  550MOL0     C75778   2.389  11.011   9.577 -0.2508  0.8149 -0.1373
  550MOL0     N75779   2.320  11.106   9.661 -0.9010  0.1133  0.0782
  550MOL0     C75780   2.238  11.068   9.763  1.0178 -0.5638  0.2877
  550MOL0     C75781   2.195  11.182   9.825 -0.8795  0.5851  0.2075
  550MOL0     C75782   2.095  11.190   9.932  0.2061 -0.1708  0.5280
  550MOL0     C75783   2.117  11.310  10.028  0.5057  0.5970 -0.4424
  550MOL0     C75784   2.056  11.275  10.168 -0.0300  0.5342 -0.9792
  550MOL0     C75785   1.904  11.312  10.172  0.7980 -1.0056 -0.7866
  550MOL0     O75786   1.820  11.275  10.065 -0.3134 -0.2092 -0.5087
  550MOL0     C75787   1.783  11.143  10.036 -1.2364  0.0367  0.0159
  550MOL0     C75788   1.722  11.110   9.914 -0.3937 -0.3573  0.6982
  550MOL0     C75789   1.674  10.987   9.887 -0.4269  0.4321  0.0077
  550MOL0     C75790   1.587  10.981   9.761  0.3780  0.6120  0.1990
  550MOL0     C75791   1.704  10.876   9.971 -0.8997 -0.7724  0.2555
  550MOL0     C75792   1.673  10.728   9.933 -0.1338 -0.0137 -0.4029
  550MOL0     O75793   1.766  10.645   9.966 -0.0930  0.1220  0.2916
  550MOL0     C75794   1.735  10.512   9.929 -0.5230  0.7948 -1.4235
  550MOL0     C75795   1.676  10.415  10.016 -0.2664 -0.7885 -0.1094
  550MOL0     C75796   1.644  10.291   9.968  1.2020 -0.3255 -0.6839
  550MOL0     C75797   1.674  10.256   9.837 -0.3792 -0.0508 -0.3976
  550MOL0     O75798   1.633  10.137   9.800 -0.2758  0.0544  0.1906
  550MOL0     C75799   1.704  10.062   9.704 -0.4406  0.8496  0.3541
  550MOL0     C75800   1.658   9.916   9.715 -0.4957  0.0584  0.3247
  550MOL0     C75801   1.724   9.831   9.614  0.7563 -0.2555 -0.5772
  550MOL0     C75802   1.666   9.679   9.630 -0.4690 -0.6449 -0.4702
  550MOL0     C75803   1.728   9.626   9.763  0.6734  0.7757  0.0617
  550MOL0     C75804   1.759   9.476   9.760 -1.3637  1.2835 -0.4386
  550MOL0     C75805   1.647   9.382   9.704  0.2442  0.0110 -0.1504
  550MOL0     C75806   1.527   9.368   9.783  0.5700  0.5105 -0.4753
  550MOL0    Cl75807   1.556   9.248   9.914  0.2783 -0.0858 -0.5551
  550MOL0     C75808   1.745  10.336   9.756 -0.9414 -0.3183  1.1813
  550MOL0     C75809   1.772  10.469   9.796 -0.2843  0.4210 -0.2519
  550MOL0     O75810   1.570  10.699   9.875  0.0459  0.7921 -0.1996
  550MOL0     C75811   1.773  10.903  10.091 -0.2853  0.5537  1.5156
  550MOL0     C75812   1.797  11.037  10.124 -0.8234  1.6387  0.4189
  550MOL0     N75813   2.257  11.284   9.766  0.3330 -0.0814 -0.0433
  550MOL0     N75814   2.336  11.242   9.675  0.0696  0.0328 -0.0031
  550MOL0     C75815   3.055  10.866   8.686  0.1511  0.0809 -0.6640
  550MOL0     C75816   3.070  10.912   8.554 -0.2898  0.4285 -0.5600
  550MOL0     C75817   3.061  10.993   8.123  1.1434  0.2304  0.1019
  550MOL0     C75818   3.029  10.911   8.015 -0.3241  0.2400 -0.3309
  550MOL0     C75819   3.023  10.972   7.885  0.2172  1.1542 -0.3746
  550MOL0     C75820   3.065  11.108   7.862 -0.5555 -0.4045 -0.4158
  550MOL0     O75821   3.045  11.171   7.744  0.3352 -0.6996  0.1964
  550MOL0     C75822   2.994  11.109   7.627  0.3357  0.3209  0.4798
  550MOL0     C75823   2.996  11.222   7.522  0.9623  0.2262 -0.0472
  550MOL0     C75824   3.131  11.253   7.460 -0.8010  0.7114 -0.7737
  550MOL0     C75825   3.127  11.359   7.346  0.1178 -0.5806  0.9079
  550MOL0     C75826   3.263  11.391   7.304  0.3486  0.8587  0.1516
  550MOL0     C75827   3.383  11.414   7.279 -0.5050 -0.1211 -0.0067
  550MOL0     C75828   3.112  11.177   7.974 -0.5373  0.6391  0.0300
  550MOL0     C75829   3.103  11.122   8.100 -0.1079  0.1768  0.1150
  550MOL0     C75830   3.164  11.204   8.216 -0.5543  0.0496  0.8097
  550MOL0     H75831   2.817  11.129   8.529  0.3546  1.3137  1.1050
  550MOL0     H75832   2.806  11.080   8.768  1.6408  2.0795  0.8783
  550MOL0     H75833   2.770  10.904   8.945 -1.4285 -0.4994  5.5142
  550MOL0     H75834   2.859  11.054   8.971  2.4389 -0.0536 -0.6061
  550MOL0     H75835   2.881  10.791   9.136 -0.6765 -0.7643 -3.1709
  550MOL0     H75836   2.980  10.934   9.164 -0.7841 -1.1718 -0.5987
  550MOL0     H75837   2.791  11.076   9.225  0.7998 -0.0534  0.9436
  550MOL0     H75838   2.679  10.950   9.176 -0.4941 -0.0127  1.1909
  550MOL0     H75839   2.760  10.803   9.346  0.7094 -0.4702 -0.3057
  550MOL0     H75840   2.885  10.908   9.400 -0.4348 -2.6435  0.8172
  550MOL0     H75841   2.590  11.013   9.377  1.9153  0.5849 -1.5746
  550MOL0     H75842   2.723  11.070   9.480 -0.1371 -0.2691  0.8274
  550MOL0     H75843   2.569  10.808   9.503  2.5288 -1.5430 -1.0033
  550MOL0     H75844   2.697  10.849   9.605 -0.4606 -2.6289 -1.6894
  550MOL0     H75845   2.571  11.071   9.665 -2.8246  1.3015  0.6733
  550MOL0     H75846   2.498  10.943   9.743 -2.3017 -0.2629 -0.1199
  550MOL0     H75847   2.411  11.035   9.473 -2.0037 -0.9589 -0.9946
  550MOL0     H75848   2.340  10.913   9.575 -0.8130  1.0448  1.0428
  550MOL0     H75849   2.184  10.975   9.778  0.6972 -0.6669 -1.3482
  550MOL0     H75850   2.088  11.096   9.986 -0.3624 -0.6893 -0.4078
  550MOL0     H75851   2.007  11.220   9.874  1.5734 -0.8426 -2.0563
  550MOL0     H75852   2.225  11.329  10.037  0.7140 -0.9477  0.8248
  550MOL0     H75853   2.069  11.400   9.989 -1.8767 -1.2098 -1.9306
  550MOL0     H75854   2.073  11.173  10.204  1.5721  0.6257 -1.4333
  550MOL0     H75855   2.109  11.336  10.242 -1.3093 -1.8193  2.1446
  550MOL0     H75856   1.863  11.278  10.268  0.0856  0.2737 -0.6030
  550MOL0     H75857   1.906  11.422  10.172  1.0579 -0.9307  1.7851
  550MOL0     H75858   1.718  11.198   9.851 -0.8969  0.3079  1.6407
  550MOL0     H75859   1.494  10.930   9.787  1.0884 -2.0825 -2.0296
  550MOL0     H75860   1.632  10.918   9.684  0.2693 -0.8369  1.2909
  550MOL0     H75861   1.572  11.082   9.721  0.5499 -0.0515 -1.6355
  550MOL0     H75862   1.654  10.450  10.117  2.3996 -1.2379  0.7078
  550MOL0     H75863   1.589  10.227  10.035 -1.1346  0.3985 -1.8125
  550MOL0     H75864   1.680  10.106   9.607  2.0028 -0.0144 -0.7413
  550MOL0     H75865   1.812  10.069   9.719 -0.4802  1.4658  0.3841
  550MOL0     H75866   1.682   9.885   9.817  2.1993 -0.9525 -0.5176
  550MOL0     H75867   1.550   9.908   9.699 -0.6919 -1.7268  2.1890
  550MOL0     H75868   1.832   9.838   9.623  0.8967 -1.9557 -0.5683
  550MOL0     H75869   1.696   9.870   9.516  1.5721 -0.9882 -1.1243
  550MOL0     H75870   1.693   9.618   9.543 -0.7951 -4.0029  1.6201
  550MOL0     H75871   1.558   9.685   9.640 -0.5909  1.0502 -2.2274
  550MOL0     H75872   1.826   9.675   9.767  1.7343 -1.0678 -1.3268
  550MOL0     H75873   1.665   9.648   9.849  1.5641  1.4286  0.5719
  550MOL0     H75874   1.793   9.432   9.854 -0.1404  1.9879 -0.5271
  550MOL0     H75875   1.848   9.469   9.697 -1.3015 -0.6069 -0.1915
  550MOL0     H75876   1.672   9.277   9.688  0.1355 -0.6255  3.1473
  550MOL0     H75877   1.610   9.433   9.615 -3.6103  0.4395  1.5197
  550MOL0     H75878   1.442   9.328   9.728  0.4711 -1.8128  1.2435
  550MOL0     H75879   1.493   9.460   9.832 -0.8045  0.8756 -2.0336
  550MOL0     H75880   1.764  10.307   9.653 -1.6365 -0.4770  1.0925
  550MOL0     H75881   1.810  10.541   9.724 -0.4881 -1.6543 -2.5834
  550MOL0     H75882   1.793  10.817  10.154 -1.3046 -2.0587 -1.4388
  550MOL0     H75883   1.847  11.063  10.217  1.3391 -1.4985  0.2765
  550MOL0     H75884   3.127  10.801   8.736  0.6848  1.6611  0.7078
  550MOL0     H75885   3.158  10.882   8.497 -1.1466 -1.8734 -0.7648
  550MOL0     H75886   3.007  10.807   8.035 -0.8344  0.3332 -0.3945
  550MOL0     H75887   2.979  10.923   7.799 -1.5989  0.5722  0.8248
  550MOL0     H75888   3.059  11.029   7.590 -1.4682 -0.0352 -2.2574
  550MOL0     H75889   2.889  11.078   7.635 -0.2669  2.4030  1.3422
  550MOL0     H75890   2.959  11.312   7.571 -1.3647 -1.5876  1.7955
  550MOL0     H75891   2.935  11.186   7.439 -0.8799  1.5829  0.6617
  550MOL0     H75892   3.189  11.302   7.539 -1.5443 -1.0022  0.9408
  550MOL0     H75893   3.190  11.163   7.441 -0.4004  0.8821 -0.3606
  550MOL0     H75894   3.075  11.449   7.380  2.0274  0.9667 -0.0893
  550MOL0     H75895   3.068  11.315   7.265  1.2318 -0.6656  0.1272
  550MOL0     H75896   3.487  11.436   7.264 -0.1774  0.8100  2.9796
  550MOL0     H75897   3.141  11.282   7.967  0.5980  0.5156  1.9678
  550MOL0     H75898   3.096  11.287   8.236 -3.3621 -1.9168  0.0998
  550MOL0     H75899   3.182  11.142   8.304 -4.3015 -2.6416 -0.0800
  550MOL0     H75900   3.255  11.250   8.176 -1.5699  0.1100 -1.6289
  551MOL0     O75901   2.378   5.319   6.041  0.3207  0.2334 -0.2193
  551MOL0     C75902   2.386   5.225   5.969 -1.2137  0.3941 -0.0420
  551MOL0     O75903   2.493   5.136   5.961 -0.6216 -0.5173  0.8085
  551MOL0     C75904   2.618   5.182   5.998 -0.0740  0.1649  0.3799
  551MOL0     C75905   2.659   5.207   6.131 -0.2345 -0.1544 -0.0056
  551MOL0     C75906   2.786   5.256   6.160  0.1098 -0.6491  0.7447
  551MOL0     C75907   2.880   5.270   6.054  0.0130  0.5287 -1.3142
  551MOL0     O75908   3.014   5.288   6.076 -0.3220 -0.2028  0.2485
  551MOL0     C75909   3.055   5.402   6.151  0.4897 -0.4093  0.6474
  551MOL0     C75910   3.206   5.410   6.154 -0.3330 -0.2941  0.1132
  551MOL0     C75911   3.263   5.420   6.012 -0.3481  0.1924  0.0156
  551MOL0     C75912   3.414   5.406   6.010 -0.0195  0.6923 -0.4408
  551MOL0     C75913   3.476   5.472   5.893 -0.9499  0.2286 -0.4117
  551MOL0     C75914   3.630   5.450   5.900  0.5735 -0.5481 -0.2242
  551MOL0     C75915   3.701   5.529   5.802  0.4004  0.1247  0.1955
  551MOL0     C75916   3.856   5.542   5.805  0.0659  0.5816  0.3121
  551MOL0     N75917   3.917   5.427   5.858 -0.1768 -0.4544  0.3888
  551MOL0     C75918   3.913   5.298   5.807  0.1246 -0.7867  0.1419
  551MOL0     C75919   3.971   5.225   5.907 -0.3303 -0.7109 -0.2250
  551MOL0     C75920   4.012   5.083   5.909 -0.9930 -0.2078 -0.2202
  551MOL0     C75921   3.937   4.995   6.009  0.5865 -0.6530 -0.4185
  551MOL0     C75922   3.785   4.990   5.995  0.4592 -1.1434 -0.2277
  551MOL0     C75923   3.739   4.935   5.859  0.1164  1.1083  0.0116
  551MOL0     O75924   3.602   4.899   5.871  0.2116 -1.0454 -1.0953
  551MOL0     C75925   3.560   4.783   5.923 -0.4868 -0.4420 -0.8534
  551MOL0     C75926   3.651   4.692   5.982  1.0821  0.3846  0.6681
  551MOL0     C75927   3.603   4.570   6.025  0.0782 -0.0435  0.0609
  551MOL0     C75928   3.697   4.463   6.069 -0.2413  0.0224 -0.4357
  551MOL0     C75929   3.464   4.542   6.026 -0.0920  0.8796  0.1985
  551MOL0     C75930   3.402   4.429   6.099  0.5339 -0.3604  0.2311
  551MOL0     O75931   3.291   4.376   6.039  0.4388  0.2436 -0.7896
  551MOL0     C75932   3.220   4.283   6.114  0.8138  0.4128 -0.3045
  551MOL0     C75933   3.109   4.327   6.196  0.6145  0.4198 -0.1393
  551MOL0     C75934   3.023   4.246   6.269 -0.0160 -0.3923 -0.1883
  551MOL0     C75935   3.050   4.106   6.252 -0.2501  0.1410 -0.2435
  551MOL0     O75936   2.962   4.017   6.310 -0.1457 -0.3456  0.6625
  551MOL0     C75937   2.990   3.878   6.285 -0.0379  0.0316  0.5484
  551MOL0     C75938   2.876   3.799   6.352  0.2732  0.0278 -0.0681
  551MOL0     C75939   2.866   3.657   6.306  0.6472 -1.3407  1.0073
  551MOL0     C75940   2.805   3.653   6.167  0.0920  0.8285  0.4637
  551MOL0     C75941   2.781   3.498   6.137 -0.9498 -0.3186  0.0522
  551MOL0     C75942   2.772   3.482   5.981  0.1561  0.4921  0.2299
  551MOL0     C75943   2.647   3.539   5.904 -0.8965  0.3241  0.1460
  551MOL0     C75944   2.509   3.504   5.963  0.4975  0.5295  0.0369
  551MOL0    Cl75945   2.510   3.333   6.006 -0.3847 -0.0323 -0.1038
  551MOL0     C75946   3.163   4.057   6.175  0.5259  0.4642  0.1794
  551MOL0     C75947   3.250   4.146   6.107  0.7978  0.4554 -0.3169
  551MOL0     O75948   3.448   4.394   6.209 -0.4026 -0.4851 -0.1324
  551MOL0     C75949   3.372   4.634   5.970 -0.4684 -0.5753  0.9800
  551MOL0     C75950   3.422   4.753   5.911 -0.2277  0.1660  0.1611
  551MOL0     N75951   4.019   5.307   6.010 -0.7203 -0.1715 -0.2633
  551MOL0     N75952   3.993   5.427   5.971  0.0060  0.0287  0.1334
  551MOL0     C75953   2.842   5.230   5.922 -0.4359 -0.0664 -0.1244
  551MOL0     C75954   2.709   5.196   5.894  0.3950 -0.5553 -0.6681
  551MOL0     C75955   2.270   5.188   5.880  0.2399 -0.1561 -0.3059
  551MOL0     C75956   2.285   5.082   5.789 -0.0264 -0.7145 -1.0129
  551MOL0     C75957   2.181   5.037   5.707  1.3667 -0.3556  0.2722
  551MOL0     C75958   2.055   5.100   5.712  0.3902  1.1843 -0.0883
  551MOL0     O75959   1.961   5.045   5.624  0.6088 -0.0092  0.1607
  551MOL0     C75960   1.877   5.136   5.552 -0.6007 -0.5173  0.2979
  551MOL0     C75961   1.886   5.089   5.407  0.4249 -0.3169 -0.4492
  551MOL0     C75962   1.810   4.962   5.374 -0.3277 -0.8961 -0.9698
  551MOL0     C75963   1.859   4.907   5.249 -0.5869  0.3897 -0.0564
  551MOL0     C75964   1.784   4.974   5.140  0.1150 -0.6404  0.0537
  551MOL0     C75965   1.726   5.036   5.050 -0.1254 -0.2525 -0.0102
  551MOL0     C75966   2.035   5.216   5.793  0.2645  0.4547  0.2034
  551MOL0     C75967   2.138   5.252   5.871 -0.8200  0.1002 -0.4072
  551MOL0     C75968   2.105   5.382   5.962 -1.0573 -0.0021  0.1360
  551MOL0     H75969   2.601   5.190   6.222  0.1252  0.7961  0.4194
  551MOL0     H75970   2.815   5.298   6.256  0.9749 -0.5185  0.4359
  551MOL0     H75971   3.027   5.411   6.257  2.6879  0.6481  1.2164
  551MOL0     H75972   3.017   5.492   6.102  1.7390  0.2782  0.8822
  551MOL0     H75973   3.215   5.504   6.209 -2.6101  0.6198 -0.9319
  551MOL0     H75974   3.255   5.324   6.199 -2.2936 -2.6978 -1.9743
  551MOL0     H75975   3.225   5.345   5.942  1.9145  0.5075 -1.6547
  551MOL0     H75976   3.237   5.518   5.972 -1.4801  0.3025  0.9655
  551MOL0     H75977   3.456   5.444   6.104  1.5521  2.6384 -1.8534
  551MOL0     H75978   3.442   5.300   6.013 -1.0091  0.4385  1.3996
  551MOL0     H75979   3.469   5.581   5.904  2.9323  0.5093  1.1056
  551MOL0     H75980   3.438   5.442   5.795 -2.1068  3.5836 -1.1309
  551MOL0     H75981   3.669   5.486   5.995 -0.4188  1.1902 -0.4201
  551MOL0     H75982   3.644   5.342   5.898 -2.2958 -0.9860 -1.0127
  551MOL0     H75983   3.655   5.628   5.805 -1.9891 -0.8436 -1.3339
  551MOL0     H75984   3.673   5.487   5.705 -1.4953 -1.5502  1.3942
  551MOL0     H75985   3.898   5.550   5.704  1.0735 -0.2453  0.6583
  551MOL0     H75986   3.879   5.623   5.875  0.3385  1.7154 -1.0259
  551MOL0     H75987   3.883   5.259   5.710 -0.9766 -0.4228  0.3184
  551MOL0     H75988   4.119   5.079   5.935 -0.8172 -0.2303 -0.9354
  551MOL0     H75989   4.000   5.048   5.806  4.1086  1.1555 -1.5526
  551MOL0     H75990   3.995   4.903   6.021 -0.5297 -1.1920  1.1674
  551MOL0     H75991   3.954   5.044   6.106  1.5924  0.6548 -1.2164
  551MOL0     H75992   3.744   4.936   6.080  0.9905  0.6619  1.2392
  551MOL0     H75993   3.745   5.091   6.002  1.3121 -0.8640  0.9186
  551MOL0     H75994   3.754   5.005   5.776  1.9409  1.9272  0.9578
  551MOL0     H75995   3.788   4.840   5.838 -1.9265 -0.9390  3.4076
  551MOL0     H75996   3.747   4.727   6.017  0.7863  0.9377  0.9398
  551MOL0     H75997   3.791   4.477   6.015  0.6211 -0.3630  0.9276
  551MOL0     H75998   3.665   4.362   6.043 -0.2336  0.3222 -1.6690
  551MOL0     H75999   3.721   4.462   6.176  2.3973 -2.7949 -0.9227
  551MOL0     H76000   3.077   4.430   6.198  0.4959  0.3880 -0.3192
  551MOL0     H76001   2.939   4.292   6.320  0.0189 -0.8790  0.3247
  551MOL0     H76002   2.989   3.861   6.177 -0.8975 -2.8449  0.9286
  551MOL0     H76003   3.088   3.853   6.328  0.5201  3.2947  1.4843
  551MOL0     H76004   2.891   3.799   6.460 -3.1095  0.7109  0.5135
  551MOL0     H76005   2.781   3.852   6.336 -1.4172 -2.8918 -0.3017
  551MOL0     H76006   2.804   3.590   6.367  0.7545 -3.3199 -0.9229
  551MOL0     H76007   2.959   3.599   6.312  0.1725 -1.9700  3.3274
  551MOL0     H76008   2.869   3.691   6.087  0.2573 -2.8143 -1.3446
  551MOL0     H76009   2.705   3.698   6.162 -1.5986 -2.6144  0.3816
  551MOL0     H76010   2.863   3.442   6.183 -2.5600 -2.3853  0.5505
  551MOL0     H76011   2.685   3.476   6.184 -1.7748 -0.8590 -1.7684
  551MOL0     H76012   2.791   3.377   5.958 -0.9796  0.5597 -1.2079
  551MOL0     H76013   2.855   3.544   5.945  2.7297  0.1315  4.7974
  551MOL0     H76014   2.635   3.518   5.797 -1.2091 -1.1343  0.4559
  551MOL0     H76015   2.665   3.647   5.899  0.2953  0.1140 -2.8024
  551MOL0     H76016   2.429   3.519   5.889  0.3583 -1.8230 -0.3480
  551MOL0     H76017   2.485   3.562   6.053 -2.0919  1.8591 -1.3800
  551MOL0     H76018   3.193   3.954   6.159  1.5188  0.4475  1.8990
  551MOL0     H76019   3.338   4.110   6.054  0.6327 -2.1492  1.0167
  551MOL0     H76020   3.266   4.614   5.960 -0.3676 -0.2344 -1.3422
  551MOL0     H76021   3.366   4.832   5.863  0.7912  1.6723  1.3774
  551MOL0     H76022   2.920   5.225   5.847 -0.2051  0.6811  0.0524
  551MOL0     H76023   2.675   5.155   5.799  0.8567 -2.8878  0.0958
  551MOL0     H76024   2.377   5.024   5.790  1.2378  1.2069 -0.1047
  551MOL0     H76025   2.192   4.958   5.633  0.8643 -0.1029 -0.0795
  551MOL0     H76026   1.775   5.134   5.590 -1.1452  1.4170 -0.9421
  551MOL0     H76027   1.928   5.232   5.560 -1.9124  0.1292  1.3821
  551MOL0     H76028   1.992   5.069   5.392  1.5506  3.4334  1.3034
  551MOL0     H76029   1.849   5.174   5.348 -1.7778 -0.1875  0.9770
  551MOL0     H76030   1.818   4.888   5.454 -0.8497 -0.8835 -0.9009
  551MOL0     H76031   1.708   5.001   5.365  1.0059  3.1895 -0.2576
  551MOL0     H76032   1.857   4.797   5.242 -0.9259  0.4988 -2.4360
  551MOL0     H76033   1.965   4.931   5.235 -0.5449 -0.1765 -0.7861
  551MOL0     H76034   1.688   5.093   4.967 -0.7562 -0.5051  0.1032
  551MOL0     H76035   1.937   5.262   5.792  1.0553  2.2440  0.5431
  551MOL0     H76036   2.001   5.392   5.995 -0.8462 -1.7808  1.5106
  551MOL0     H76037   2.156   5.382   6.059 -1.8821 -1.5454  0.6136
  551MOL0     H76038   2.140   5.465   5.901  1.3246 -0.2071  1.1111
  552MOL0     O76039   4.444   2.451   5.982  0.5112 -0.1367  0.1685
  552MOL0     C76040   4.373   2.447   6.075  0.0334  0.3762 -0.2234
  552MOL0     O76041   4.241   2.397   6.069  0.0330 -0.4061  0.2212
  552MOL0     C76042   4.184   2.349   5.952 -0.3587  0.2909  0.4843
  552MOL0     C76043   4.246   2.275   5.848  0.0125  0.6475 -0.5288
  552MOL0     C76044   4.178   2.230   5.727 -0.5074 -0.2263  0.3107
  552MOL0     C76045   4.043   2.273   5.707 -0.2935 -0.1574  0.8967
  552MOL0     O76046   3.965   2.251   5.595 -0.3620  0.5617  0.0784
  552MOL0     C76047   4.028   2.258   5.464  0.3302  0.0625  0.0558
  552MOL0     C76048   4.009   2.402   5.413  0.9773 -0.4056  0.1425
  552MOL0     C76049   4.118   2.426   5.304  1.0850  1.0094 -0.0624
  552MOL0     C76050   4.101   2.571   5.260  0.1412  0.4073  0.0912
  552MOL0     C76051   4.179   2.594   5.131  0.4001 -0.9167  0.0429
  552MOL0     C76052   4.164   2.735   5.066 -0.1236 -0.8604 -0.2873
  552MOL0     C76053   4.284   2.824   5.107 -1.2824  0.0267  0.1220
  552MOL0     C76054   4.286   2.967   5.045 -0.7262  0.7687  0.0685
  552MOL0     N76055   4.423   3.028   5.050  0.4749  0.2274 -0.2470
  552MOL0     C76056   4.477   3.074   5.167 -1.5269 -0.1260 -0.1658
  552MOL0     C76057   4.609   3.074   5.148 -0.3730 -1.2809 -0.2826
  552MOL0     C76058   4.718   3.104   5.245  0.9468  0.9173  0.6848
  552MOL0     C76059   4.678   3.072   5.393 -0.5485 -0.4341  0.5607
  552MOL0     C76060   4.794   3.039   5.487 -0.2755 -0.7029  0.5178
  552MOL0     C76061   4.810   3.121   5.612  0.2281 -0.2478  0.3066
  552MOL0     O76062   4.799   3.269   5.581 -0.4485 -0.6840  0.4260
  552MOL0     C76063   4.797   3.353   5.685  0.3087 -0.4770  0.4606
  552MOL0     C76064   4.827   3.485   5.636 -0.2647 -0.1934  0.1960
  552MOL0     C76065   4.852   3.588   5.732  0.0502 -0.5739 -0.1804
  552MOL0     C76066   4.882   3.730   5.685 -0.0591  0.2468 -0.3015
  552MOL0     C76067   4.835   3.551   5.868  0.1242  0.0064 -0.9444
  552MOL0     C76068   4.832   3.653   5.976  1.4951  0.0949 -0.6389
  552MOL0     O76069   4.748   3.756   5.948 -0.4176 -0.0403  0.5760
  552MOL0     C76070   4.720   3.835   6.051 -0.0599 -0.1303 -0.2840
  552MOL0     C76071   4.770   3.960   6.059 -0.4892 -0.2331  0.7544
  552MOL0     C76072   4.726   4.048   6.151  0.2413 -0.8100 -0.3197
  552MOL0     C76073   4.627   4.013   6.243 -0.2020  0.4453 -0.4354
  552MOL0     O76074   4.582   4.101   6.340  0.0334  0.5094 -0.1376
  552MOL0     C76075   4.639   4.238   6.351 -0.5020  0.7535  1.0995
  552MOL0     C76076   4.545   4.307   6.435  0.8978 -0.1052 -0.7058
  552MOL0     C76077   4.582   4.456   6.465 -0.0413 -0.0594  0.0043
  552MOL0     C76078   4.454   4.542   6.499  0.0494  0.1203 -1.2744
  552MOL0     C76079   4.476   4.688   6.556 -0.1487  0.3846 -0.0715
  552MOL0     C76080   4.552   4.783   6.457 -0.4180  0.3112 -0.5209
  552MOL0     C76081   4.628   4.894   6.534  0.5082 -0.0869  0.4775
  552MOL0     C76082   4.723   4.971   6.447  0.3817  0.3683 -0.6270
  552MOL0    Cl76083   4.648   5.076   6.324  0.1435  0.0634  0.4228
  552MOL0     C76084   4.575   3.881   6.238  0.5981  0.9932 -0.3677
  552MOL0     C76085   4.617   3.793   6.136  0.9001 -0.3534 -0.0165
  552MOL0     O76086   4.886   3.625   6.082  0.0551 -0.5210 -0.1296
  552MOL0     C76087   4.818   3.416   5.912  0.8078 -0.6199  0.1129
  552MOL0     C76088   4.807   3.316   5.822  0.3626  0.3582 -0.1021
  552MOL0     N76089   4.635   3.043   5.019 -0.0389  0.5267 -0.2537
  552MOL0     N76090   4.528   3.010   4.967 -0.8227 -0.0762  0.6130
  552MOL0     C76091   3.982   2.336   5.815  0.0481  1.4154  0.2324
  552MOL0     C76092   4.054   2.379   5.924  1.1442  0.0521 -0.1509
  552MOL0     C76093   4.412   2.497   6.212 -0.2849 -0.2801 -0.2161
  552MOL0     C76094   4.535   2.447   6.272  0.3360 -0.5952  0.1776
  552MOL0     C76095   4.567   2.477   6.407  0.4110 -0.8676  0.3631
  552MOL0     C76096   4.492   2.566   6.483 -1.2365  0.0623  0.0978
  552MOL0     O76097   4.528   2.588   6.619  0.3347  0.4770 -0.3033
  552MOL0     C76098   4.670   2.573   6.646  0.4693  0.1990  1.0089
  552MOL0     C76099   4.703   2.639   6.779 -0.5343 -1.0792 -0.0716
  552MOL0     C76100   4.649   2.547   6.892  0.1958 -0.3132 -0.4251
  552MOL0     C76101   4.672   2.594   7.036 -0.0757 -0.3879  0.4853
  552MOL0     C76102   4.813   2.613   7.066 -0.2797  0.6359 -0.4875
  552MOL0     C76103   4.928   2.632   7.095  0.2070 -0.6534 -0.4010
  552MOL0     C76104   4.377   2.620   6.423  0.4935 -0.1652 -0.8405
  552MOL0     C76105   4.336   2.586   6.292  0.1985  0.2435 -0.0369
  552MOL0     C76106   4.222   2.659   6.234  0.4757  0.5469 -0.4052
  552MOL0     H76107   4.345   2.232   5.854 -0.1190  0.5369  1.6934
  552MOL0     H76108   4.245   2.177   5.660  0.9831  0.2181  1.4133
  552MOL0     H76109   3.984   2.181   5.400 -5.4510  2.0512  1.0581
  552MOL0     H76110   4.134   2.234   5.473 -0.2353 -2.7011  0.0026
  552MOL0     H76111   3.910   2.402   5.366  1.7045 -3.3869 -1.7041
  552MOL0     H76112   4.008   2.488   5.480 -1.4395 -0.2401  0.0019
  552MOL0     H76113   4.221   2.411   5.338  2.1536 -0.9784 -3.5804
  552MOL0     H76114   4.095   2.360   5.219  0.2997 -0.8939  1.5516
  552MOL0     H76115   3.996   2.599   5.247 -0.6250 -2.3462 -0.1202
  552MOL0     H76116   4.136   2.636   5.341 -2.0097  1.8485 -0.0712
  552MOL0     H76117   4.130   2.521   5.066 -0.2536 -0.2736 -0.1960
  552MOL0     H76118   4.283   2.569   5.153  0.3748 -0.2444  1.0037
  552MOL0     H76119   4.159   2.725   4.957  0.5546 -0.5183 -0.3571
  552MOL0     H76120   4.070   2.771   5.108  0.6094 -2.7809  3.4197
  552MOL0     H76121   4.377   2.774   5.076  0.8532  4.4564 -1.4263
  552MOL0     H76122   4.274   2.827   5.216  2.8511 -2.3998  0.7912
  552MOL0     H76123   4.254   2.948   4.942  0.2592  1.1137 -0.3108
  552MOL0     H76124   4.211   3.024   5.101 -0.9122  0.2785  0.3284
  552MOL0     H76125   4.418   3.112   5.250  1.4972 -0.0873  2.1172
  552MOL0     H76126   4.740   3.210   5.231 -2.3926  1.6967  0.5775
  552MOL0     H76127   4.809   3.049   5.216 -0.8623 -0.5862 -2.7273
  552MOL0     H76128   4.624   3.158   5.433  0.8046  1.2937 -1.1539
  552MOL0     H76129   4.617   2.981   5.388 -1.3927  0.1783 -1.8206
  552MOL0     H76130   4.785   2.935   5.522  2.5496 -1.0468  0.4334
  552MOL0     H76131   4.887   3.044   5.430 -0.4798 -0.0504  0.2396
  552MOL0     H76132   4.726   3.095   5.677  0.3995  2.2432  1.6550
  552MOL0     H76133   4.907   3.097   5.657 -0.9323 -3.7368  1.2709
  552MOL0     H76134   4.820   3.500   5.529 -0.5411 -1.7389 -0.0301
  552MOL0     H76135   4.975   3.767   5.729  1.4964 -1.1372 -2.2454
  552MOL0     H76136   4.801   3.794   5.721  0.1103  0.3585 -0.1171
  552MOL0     H76137   4.891   3.741   5.576 -2.7048  2.0283 -0.4370
  552MOL0     H76138   4.849   3.994   5.993  0.8293  0.5875  2.6355
  552MOL0     H76139   4.775   4.144   6.142  0.2718 -0.9815 -2.8414
  552MOL0     H76140   4.737   4.242   6.399  0.9732  3.3113 -1.7149
  552MOL0     H76141   4.639   4.282   6.250  0.5612  0.0179  0.7628
  552MOL0     H76142   4.445   4.300   6.391  0.3301 -1.0319  0.6608
  552MOL0     H76143   4.525   4.254   6.528 -1.3085  3.4472  1.0702
  552MOL0     H76144   4.638   4.509   6.387  2.0436  0.9497  2.0771
  552MOL0     H76145   4.644   4.460   6.555 -0.3160  3.1658  0.1552
  552MOL0     H76146   4.397   4.485   6.573  1.1611  0.8909  0.2411
  552MOL0     H76147   4.390   4.547   6.411  0.4293 -0.9472 -1.6185
  552MOL0     H76148   4.379   4.728   6.587 -1.2964 -0.9873 -1.6410
  552MOL0     H76149   4.520   4.675   6.655 -2.1452 -0.4258  0.7739
  552MOL0     H76150   4.477   4.829   6.392 -0.2022  1.1382 -0.2070
  552MOL0     H76151   4.624   4.726   6.399 -1.2716 -4.2221  2.3197
  552MOL0     H76152   4.689   4.835   6.604  2.1505 -0.5465 -1.2610
  552MOL0     H76153   4.558   4.962   6.584 -0.3065 -0.4789 -0.1075
  552MOL0     H76154   4.780   4.888   6.404  1.2004 -0.6181  2.1770
  552MOL0     H76155   4.790   5.029   6.512  1.4087 -0.4450 -0.9288
  552MOL0     H76156   4.507   3.820   6.296  1.3900 -0.5964 -1.0344
  552MOL0     H76157   4.575   3.694   6.126 -1.6857  0.8676 -2.5694
  552MOL0     H76158   4.824   3.389   6.017  1.6565  0.5207  0.3878
  552MOL0     H76159   4.785   3.213   5.851 -0.8129  0.2752 -1.2067
  552MOL0     H76160   3.874   2.337   5.801  0.2324  2.9624 -1.4566
  552MOL0     H76161   3.981   2.424   5.991 -0.9713 -0.1421 -2.1792
  552MOL0     H76162   4.592   2.380   6.208 -0.7343 -1.3258 -0.0372
  552MOL0     H76163   4.660   2.429   6.437  0.4083 -0.4665  1.0495
  552MOL0     H76164   4.712   2.472   6.641 -1.3032 -0.5328 -0.1590
  552MOL0     H76165   4.723   2.634   6.572  0.6577 -0.3697  0.6685
  552MOL0     H76166   4.663   2.741   6.778 -0.3355 -1.0013 -0.7710
  552MOL0     H76167   4.812   2.641   6.785 -0.5009  1.3360 -0.5155
  552MOL0     H76168   4.540   2.544   6.893  0.2114 -2.1355  0.6006
  552MOL0     H76169   4.671   2.442   6.871 -0.4306 -0.8954  1.5762
  552MOL0     H76170   4.642   2.506   7.095  2.2983 -1.3504  0.3501
  552MOL0     H76171   4.624   2.690   7.057 -1.2909 -1.1840  1.5538
  552MOL0     H76172   5.027   2.653   7.130 -1.4760  2.5254  3.1999
  552MOL0     H76173   4.306   2.674   6.486 -0.6924 -1.1059 -1.3390
  552MOL0     H76174   4.144   2.589   6.203 -0.3683  1.9579 -1.6023
  552MOL0     H76175   4.181   2.719   6.315  1.3525  0.4046  0.1506
  552MOL0     H76176   4.239   2.728   6.150 -0.3482  1.0632 -0.1637
  553MOL0     O76177   1.399   1.550  10.115  0.5884 -0.4144 -0.5660
  553MOL0     C76178   1.306   1.601  10.178 -0.1681 -0.0016  0.3051
  553MOL0     O76179   1.266   1.730  10.159 -0.1150  0.3079 -0.3442
  553MOL0     C76180   1.372   1.816  10.140 -1.0848  0.5604  0.0143
  553MOL0     C76181   1.425   1.835  10.010  0.2870 -0.2635 -0.0959
  553MOL0     C76182   1.535   1.913   9.987 -0.2225  0.3322  0.6064
  553MOL0     C76183   1.604   1.972  10.090  0.3320 -0.3860 -0.3374
  553MOL0     O76184   1.715   2.049  10.070 -0.1621 -0.3999  1.2647
  553MOL0     C76185   1.839   1.979  10.053  0.3795  0.5187  0.0405
  553MOL0     C76186   1.930   2.044   9.943  0.4917  0.2739 -0.5278
  553MOL0     C76187   1.970   2.191   9.980  0.4611 -0.2007  0.9923
  553MOL0     C76188   2.080   2.247   9.890 -0.1543 -0.5354 -1.0564
  553MOL0     C76189   2.095   2.403   9.902 -0.6956 -0.4644  0.0174
  553MOL0     C76190   2.220   2.455   9.827  0.8158  0.2162  0.3343
  553MOL0     C76191   2.258   2.600   9.864  0.7687 -0.4105  0.5918
  553MOL0     C76192   2.318   2.629  10.008  0.4695 -0.2610 -0.2065
  553MOL0     N76193   2.346   2.778  10.014 -0.4147 -0.3486 -0.4723
  553MOL0     C76194   2.445   2.841   9.939  1.4501  0.0394  0.0890
  553MOL0     C76195   2.412   2.974   9.959 -0.3690  0.2157  0.4916
  553MOL0     C76196   2.478   3.093   9.902  0.2335 -0.3717 -0.2396
  553MOL0     C76197   2.621   3.125   9.956 -0.7098 -0.2621  0.1019
  553MOL0     C76198   2.684   3.260   9.897  0.2292 -0.0241  0.8278
  553MOL0     C76199   2.812   3.284   9.962  0.1048  0.5295  0.1901
  553MOL0     O76200   2.904   3.188   9.910 -0.2477  0.8722  0.3788
  553MOL0     C76201   3.035   3.234   9.893  0.3622 -0.8581  0.5183
  553MOL0     C76202   3.111   3.149   9.827 -0.0272 -0.7542  0.1735
  553MOL0     C76203   3.248   3.179   9.802  0.5930 -0.1027 -0.2340
  553MOL0     C76204   3.316   3.077   9.724  0.0997 -0.2988 -0.3752
  553MOL0     C76205   3.306   3.303   9.855  0.9903  1.3299 -0.1482
  553MOL0     C76206   3.446   3.338   9.836 -0.3003 -0.1547 -0.3380
  553MOL0     O76207   3.516   3.269   9.740 -0.4239  0.0506  0.6557
  553MOL0     C76208   3.653   3.280   9.743  0.0821  0.1166  0.1966
  553MOL0     C76209   3.718   3.162   9.747  0.2177 -0.3466 -0.6142
  553MOL0     C76210   3.861   3.151   9.755 -0.3052  0.7896  0.1345
  553MOL0     C76211   3.942   3.268   9.738 -0.1320  0.6455 -0.3386
  553MOL0     O76212   4.079   3.267   9.745  0.3209 -0.9769  0.2196
  553MOL0     C76213   4.119   3.375   9.829 -0.2081  0.4727 -0.0948
  553MOL0     C76214   4.260   3.354   9.874  0.0056 -0.2292 -0.6544
  553MOL0     C76215   4.359   3.353   9.762 -0.4779 -0.4622  0.3321
  553MOL0     C76216   4.372   3.485   9.685 -0.6428 -0.4036 -0.1755
  553MOL0     C76217   4.412   3.614   9.763 -0.0222  0.1033  0.2053
  553MOL0     C76218   4.439   3.749   9.692  1.0487  0.7199 -0.9074
  553MOL0     C76219   4.557   3.742   9.588 -0.3927 -0.5206 -0.1883
  553MOL0     C76220   4.593   3.883   9.525 -0.1783 -0.0971 -0.1493
  553MOL0    Cl76221   4.444   3.947   9.444 -0.4551  0.0087 -0.4489
  553MOL0     C76222   3.871   3.391   9.724  0.4204 -0.9718  0.5405
  553MOL0     C76223   3.730   3.400   9.720 -0.0636  1.0397 -0.1522
  553MOL0     O76224   3.498   3.429   9.907  0.1270 -0.0883 -0.5909
  553MOL0     C76225   3.224   3.386   9.924  0.0770  0.8036  0.2405
  553MOL0     C76226   3.093   3.355   9.941 -0.1649  0.6753 -0.6214
  553MOL0     N76227   2.294   2.986  10.024  0.2268  0.7600 -0.1529
  553MOL0     N76228   2.259   2.870  10.057  0.5471  0.0705 -0.3562
  553MOL0     C76229   1.562   1.945  10.223  0.1592  0.2393  0.4842
  553MOL0     C76230   1.448   1.869  10.248  0.2901 -0.6657 -0.4172
  553MOL0     C76231   1.217   1.528  10.264 -0.7576  0.9592 -0.4421
  553MOL0     C76232   1.194   1.575  10.393  0.3287  0.4566 -0.3263
  553MOL0     C76233   1.124   1.495  10.485 -1.0162  0.0661  0.7095
  553MOL0     C76234   1.087   1.361  10.458  0.3226 -0.0822  0.2446
  553MOL0     O76235   1.033   1.280  10.551  0.2602  0.0577  0.2054
  553MOL0     C76236   0.920   1.207  10.516 -0.1071 -0.5295  0.5318
  553MOL0     C76237   0.790   1.287  10.545  0.3205  0.2749  0.4541
  553MOL0     C76238   0.762   1.398  10.442  0.4116 -1.0491  0.4121
  553MOL0     C76239   0.662   1.499  10.500 -0.0642  0.6126  0.9491
  553MOL0     C76240   0.738   1.609  10.561  0.5835 -0.2646 -0.0218
  553MOL0     C76241   0.798   1.696  10.621 -0.0970 -0.9328  0.3081
  553MOL0     C76242   1.110   1.318  10.326 -1.1679  0.5699 -0.0509
  553MOL0     C76243   1.166   1.396  10.225  0.1058 -0.1355  0.2913
  553MOL0     C76244   1.166   1.356  10.076 -0.5709 -0.2797  0.3204
  553MOL0     H76245   1.378   1.781   9.928 -2.3893  3.7631 -1.5388
  553MOL0     H76246   1.572   1.908   9.885 -1.4442  0.7291  0.1242
  553MOL0     H76247   1.828   1.875  10.023 -0.6183  0.9174 -1.0881
  553MOL0     H76248   1.887   1.978  10.151  2.0964 -3.9882 -0.6343
  553MOL0     H76249   2.018   1.982   9.925  1.7477  2.3206 -1.8802
  553MOL0     H76250   1.873   2.043   9.850  0.8457 -3.6659 -0.8876
  553MOL0     H76251   1.894   2.266   9.956  2.9349  1.5839 -2.1994
  553MOL0     H76252   1.998   2.196  10.085 -3.1580 -5.2539  2.5556
  553MOL0     H76253   2.173   2.200   9.924  0.9965  2.9854  1.2826
  553MOL0     H76254   2.057   2.214   9.788  1.3482 -1.5255 -1.1095
  553MOL0     H76255   2.115   2.419  10.008  0.2356  1.2691 -0.3882
  553MOL0     H76256   1.999   2.449   9.876 -1.7225 -1.8419  1.1767
  553MOL0     H76257   2.304   2.386   9.837  0.2199 -0.7222 -0.8865
  553MOL0     H76258   2.186   2.461   9.723  1.6479  1.8566  0.1209
  553MOL0     H76259   2.168   2.662   9.864  1.4987  0.7086 -0.7601
  553MOL0     H76260   2.324   2.640   9.786 -1.7769 -1.5139 -2.3266
  553MOL0     H76261   2.243   2.610  10.086  0.3575 -0.9589 -0.4795
  553MOL0     H76262   2.407   2.568  10.026  2.1810  2.2241  0.2545
  553MOL0     H76263   2.516   2.800   9.868 -0.1949 -0.1454 -1.5225
  553MOL0     H76264   2.417   3.177   9.937  0.9411 -1.0061  2.8016
  553MOL0     H76265   2.472   3.099   9.793 -3.1884  2.8972 -0.1049
  553MOL0     H76266   2.629   3.131  10.065  1.3588 -2.4285  0.1384
  553MOL0     H76267   2.678   3.035   9.930 -0.2903 -0.2866  1.0708
  553MOL0     H76268   2.699   3.254   9.788 -2.4817  2.7523  0.1428
  553MOL0     H76269   2.624   3.348   9.920  0.3819  0.4709 -0.5582
  553MOL0     H76270   2.847   3.387   9.944  1.1233  0.0991 -0.4370
  553MOL0     H76271   2.809   3.271  10.070 -1.3333  2.6102  0.4606
  553MOL0     H76272   3.061   3.064   9.782 -2.1262  0.3104  0.3759
  553MOL0     H76273   3.351   3.120   9.630  0.8422  0.2086  0.1241
  553MOL0     H76274   3.249   2.993   9.702  0.3923 -0.1533 -1.9642
  553MOL0     H76275   3.407   3.048   9.777 -0.4403 -0.0395  0.7225
  553MOL0     H76276   3.657   3.072   9.753 -1.5523  0.1334 -5.9048
  553MOL0     H76277   3.898   3.050   9.769 -2.6050  0.0890  1.6128
  553MOL0     H76278   4.112   3.474   9.783 -0.3609  0.1865 -0.6953
  553MOL0     H76279   4.056   3.374   9.918 -1.2102  5.5263 -0.4550
  553MOL0     H76280   4.289   3.429   9.948  2.1831 -1.1771 -0.4691
  553MOL0     H76281   4.272   3.260   9.929 -1.7050 -0.7163 -1.0662
  553MOL0     H76282   4.314   3.279   9.696  0.8258 -0.8671 -0.1389
  553MOL0     H76283   4.453   3.319   9.807 -0.2915  0.8396  1.0006
  553MOL0     H76284   4.283   3.514   9.630 -0.1269 -3.0012 -2.5670
  553MOL0     H76285   4.447   3.456   9.611 -0.7024 -2.0220  0.3534
  553MOL0     H76286   4.331   3.635   9.833 -0.3558 -1.4002  0.3081
  553MOL0     H76287   4.501   3.602   9.826 -0.0808 -0.6741  0.1444
  553MOL0     H76288   4.457   3.820   9.774  0.4355 -1.9659  1.7143
  553MOL0     H76289   4.357   3.787   9.631  0.4766 -0.1409 -0.6806
  553MOL0     H76290   4.531   3.676   9.505  0.3566 -1.4513  0.3085
  553MOL0     H76291   4.650   3.697   9.623 -1.1163 -2.4163 -0.5895
  553MOL0     H76292   4.677   3.871   9.456 -0.8163 -0.5371 -0.8471
  553MOL0     H76293   4.632   3.953   9.601  3.5153 -2.8686  0.7880
  553MOL0     H76294   3.919   3.488   9.718 -0.3334 -0.6889 -2.0530
  553MOL0     H76295   3.666   3.487   9.708 -1.3627  0.3587  1.4159
  553MOL0     H76296   3.263   3.480   9.962  0.6566  0.9780 -0.7570
  553MOL0     H76297   3.037   3.426  10.000  2.1000  1.4656  0.7448
  553MOL0     H76298   1.626   1.983  10.302  1.1494 -2.6824  1.1933
  553MOL0     H76299   1.409   1.849  10.347  2.1733 -1.0096  0.2916
  553MOL0     H76300   1.222   1.677  10.415 -0.8598  0.4657  1.3892
  553MOL0     H76301   1.118   1.536  10.585  1.3622  3.5733 -0.4247
  553MOL0     H76302   0.916   1.182  10.409 -0.7306  1.1619  0.1109
  553MOL0     H76303   0.927   1.118  10.579  4.3320 -1.4106 -0.8264
  553MOL0     H76304   0.797   1.331  10.645 -3.9551 -0.8275  1.4004
  553MOL0     H76305   0.701   1.225  10.553 -0.6231  1.4026 -0.7851
  553MOL0     H76306   0.855   1.451  10.420  0.2035 -0.1316  1.6102
  553MOL0     H76307   0.720   1.350  10.353  0.7957 -0.3144 -0.1692
  553MOL0     H76308   0.594   1.451  10.571  2.7796 -3.6315  1.1491
  553MOL0     H76309   0.603   1.543  10.419  1.5237  0.3247 -0.4218
  553MOL0     H76310   0.845   1.785  10.658 -2.7291  0.7608 -0.1181
  553MOL0     H76311   1.085   1.214  10.306  1.9332 -0.7406  2.1119
  553MOL0     H76312   1.164   1.445  10.013  0.6592  1.4826  2.6020
  553MOL0     H76313   1.265   1.310  10.066  1.3485  3.0117  2.2897
  553MOL0     H76314   1.085   1.288  10.049 -1.1721  0.3097  0.6143
  554MOL0     O76315   7.465   7.972   9.291 -0.0405  0.1712  0.3043
  554MOL0     C76316   7.390   8.062   9.333  0.4649  0.1709  0.4254
  554MOL0     O76317   7.407   8.187   9.303  0.0762  0.5619 -0.2965
  554MOL0     C76318   7.493   8.227   9.209 -0.2849 -0.7050  0.8849
  554MOL0     C76319   7.633   8.239   9.233  0.0116 -0.4339 -0.3798
  554MOL0     C76320   7.713   8.309   9.136 -0.5742 -0.3156  0.7606
  554MOL0     C76321   7.668   8.347   9.016 -0.0837  0.6534  0.1190
  554MOL0     O76322   7.739   8.420   8.925 -0.6086  0.0881  0.2358
  554MOL0     C76323   7.866   8.464   8.978  0.5755 -0.2970 -0.5379
  554MOL0     C76324   7.929   8.559   8.885 -0.2814 -0.5663  0.0871
  554MOL0     C76325   8.070   8.600   8.937  0.4521  0.5906 -0.0938
  554MOL0     C76326   8.068   8.703   9.052  0.6038  0.1347 -0.4887
  554MOL0     C76327   8.189   8.800   9.046  0.5433 -0.1360 -0.5871
  554MOL0     C76328   8.320   8.719   9.057 -0.3128 -0.5700  0.2286
  554MOL0     C76329   8.445   8.811   9.041 -0.0986  0.7827 -0.0548
  554MOL0     C76330   8.575   8.722   9.061 -1.3205  0.8514  0.5728
  554MOL0     N76331   8.700   8.796   9.016 -0.1776  0.3215 -0.1894
  554MOL0     C76332   8.833   8.753   9.024  0.6845  0.0684  0.7158
  554MOL0     C76333   8.905   8.842   8.959 -0.2481 -0.3934 -0.7544
  554MOL0     C76334   9.055   8.836   8.951 -0.2110 -0.4344  0.1026
  554MOL0     C76335   9.113   8.874   9.086  0.1710  0.9938  0.9706
  554MOL0     C76336   9.085   9.014   9.141  0.7141 -0.3056  0.5888
  554MOL0     C76337   9.140   9.035   9.284  1.6109 -0.2599  0.7484
  554MOL0     O76338   9.267   8.963   9.293 -0.1335 -0.1075  0.3734
  554MOL0     C76339   9.391   9.032   9.275 -0.4377  1.1553  0.3699
  554MOL0     C76340   9.506   8.951   9.279 -1.2812  0.1792  0.3506
  554MOL0     C76341   9.633   9.008   9.271 -0.4555 -0.0020 -0.6087
  554MOL0     C76342   9.748   8.906   9.289  0.5842  0.0817 -0.1570
  554MOL0     C76343   9.653   9.149   9.268  0.8053 -0.4661  0.1398
  554MOL0     C76344   9.786   9.212   9.278  0.0340 -0.2448 -0.7719
  554MOL0     O76345   9.783   9.353   9.295  0.3997  0.4628 -0.0681
  554MOL0     C76346   9.892   9.422   9.281 -0.0947 -0.3210  0.0973
  554MOL0     C76347   9.925   9.483   9.153  0.4443 -0.2183  0.2960
  554MOL0     C76348  10.032   9.572   9.149 -0.1971 -0.0750 -0.5259
  554MOL0     C76349  10.105   9.612   9.258  0.2879 -0.3729 -0.4178
  554MOL0     O76350  10.199   9.706   9.227  0.2108 -0.0734 -0.0586
  554MOL0     C76351  10.319   9.716   9.315 -0.8045 -0.4167  0.1395
  554MOL0     C76352  10.408   9.810   9.237  0.0440 -0.3879 -0.4078
  554MOL0     C76353  10.325   9.943   9.219  0.4724 -0.4299 -0.8130
  554MOL0     C76354  10.410  10.064   9.172 -0.2420 -1.5261 -0.6431
  554MOL0     C76355  10.452  10.063   9.023 -0.3621 -0.3270 -0.0018
  554MOL0     C76356  10.561   9.967   8.974  0.8747  0.2349  0.1730
  554MOL0     C76357  10.609  10.018   8.847 -0.4413  0.4759  0.5515
  554MOL0     C76358  10.714   9.927   8.769  0.9291  0.3688 -0.8622
  554MOL0    Cl76359  10.730   9.971   8.593  0.4209 -0.2875  0.2884
  554MOL0     C76360  10.076   9.556   9.380  0.3220 -0.1150 -0.1868
  554MOL0     C76361   9.974   9.463   9.392 -1.3149  0.5310  0.1393
  554MOL0     O76362   9.885   9.146   9.263 -0.2832 -0.1075  0.2764
  554MOL0     C76363   9.533   9.226   9.252 -0.4680  1.4359 -0.5423
  554MOL0     C76364   9.403   9.167   9.259  0.2681  0.6763 -0.1107
  554MOL0     N76365   8.819   8.948   8.927  0.0203  0.2046 -0.1080
  554MOL0     N76366   8.699   8.919   8.962 -0.8777  0.1766  0.0084
  554MOL0     C76367   7.530   8.325   8.985 -0.2872  0.2283 -0.0962
  554MOL0     C76368   7.449   8.269   9.082  0.2929 -0.1650  0.5272
  554MOL0     C76369   7.260   8.035   9.403 -0.9104 -0.1146  0.2694
  554MOL0     C76370   7.165   8.140   9.409 -0.1982  0.7358  0.3851
  554MOL0     C76371   7.042   8.120   9.470 -0.6418 -0.3882 -0.2930
  554MOL0     C76372   7.003   8.001   9.529  0.1413 -0.3006  0.1596
  554MOL0     O76373   6.875   8.002   9.576  0.1470  0.3180 -0.0061
  554MOL0     C76374   6.825   7.880   9.638 -0.1988  0.3921 -0.2939
  554MOL0     C76375   6.681   7.877   9.700 -0.0677  0.0147  0.5496
  554MOL0     C76376   6.667   7.958   9.828  0.2815 -0.3178 -0.0823
  554MOL0     C76377   6.527   7.933   9.898 -1.0596  0.2420  0.8622
  554MOL0     C76378   6.531   7.997  10.024  0.8273  0.2682  0.1129
  554MOL0     C76379   6.535   8.057  10.125 -0.6380  0.8068 -1.1063
  554MOL0     C76380   7.090   7.900   9.528  0.5039 -0.5895  0.4461
  554MOL0     C76381   7.217   7.915   9.470  0.5987 -0.0242  0.0339
  554MOL0     C76382   7.311   7.797   9.492 -0.1509 -0.7559  1.2487
  554MOL0     H76383   7.675   8.196   9.323  2.7874 -1.4346 -2.0283
  554MOL0     H76384   7.817   8.311   9.166 -0.2975  1.8536 -0.0927
  554MOL0     H76385   7.941   8.386   8.997  2.1637  1.2470 -0.1210
  554MOL0     H76386   7.841   8.523   9.066 -1.7776 -2.6955  0.5282
  554MOL0     H76387   7.935   8.526   8.781  3.1154  1.1005 -0.3886
  554MOL0     H76388   7.857   8.642   8.880  0.5976  0.6212  3.6320
  554MOL0     H76389   8.125   8.513   8.974  0.7608  1.7147  2.2874
  554MOL0     H76390   8.133   8.631   8.853  0.1006 -0.2672 -0.6864
  554MOL0     H76391   7.974   8.758   9.042 -1.2559 -2.0017  3.1014
  554MOL0     H76392   8.071   8.645   9.145 -4.5516 -0.4561 -0.3829
  554MOL0     H76393   8.185   8.877   9.123 -4.0622 -0.6063 -0.0359
  554MOL0     H76394   8.183   8.849   8.949  2.0506  1.8181  0.2383
  554MOL0     H76395   8.320   8.660   9.150  0.8541  2.3581  2.2197
  554MOL0     H76396   8.334   8.644   8.979 -0.3086 -1.6726  1.2579
  554MOL0     H76397   8.439   8.880   9.126  1.9745 -2.7165  3.3250
  554MOL0     H76398   8.433   8.871   8.951 -0.8986  1.7021  0.6364
  554MOL0     H76399   8.586   8.707   9.169  0.6938  0.2197  0.3134
  554MOL0     H76400   8.565   8.627   9.007 -1.8188  1.1107  0.1985
  554MOL0     H76401   8.874   8.660   9.063  1.5810  0.8532  1.6858
  554MOL0     H76402   9.077   8.906   8.869 -3.8947 -1.0700 -1.6026
  554MOL0     H76403   9.100   8.745   8.910 -1.0201 -0.8060  0.0343
  554MOL0     H76404   9.085   8.802   9.163  0.8651  0.3452  0.6242
  554MOL0     H76405   9.220   8.880   9.067 -0.1061  1.8446 -0.5328
  554MOL0     H76406   9.132   9.093   9.082 -1.1198  0.9444  0.7309
  554MOL0     H76407   8.978   9.035   9.137  0.5131 -1.4750 -2.6388
  554MOL0     H76408   9.142   9.144   9.293  2.4619 -0.3644  2.2375
  554MOL0     H76409   9.078   8.996   9.366 -1.9332  0.2631 -1.4718
  554MOL0     H76410   9.495   8.843   9.287  1.5213 -0.3453 -1.4143
  554MOL0     H76411   9.822   8.909   9.209  0.7467 -1.3308 -0.0843
  554MOL0     H76412   9.710   8.803   9.293 -0.6777  0.5230 -0.4385
  554MOL0     H76413   9.796   8.924   9.386  1.2004 -0.7544 -0.2887
  554MOL0     H76414   9.881   9.456   9.058  2.9159 -0.7573 -0.7610
  554MOL0     H76415  10.077   9.605   9.055 -0.3575  0.6642 -0.3514
  554MOL0     H76416  10.306   9.764   9.413  1.4229 -2.5604  1.6262
  554MOL0     H76417  10.366   9.617   9.326 -2.3228 -1.3570 -1.3122
  554MOL0     H76418  10.495   9.823   9.303 -1.8478 -1.0982  2.3941
  554MOL0     H76419  10.436   9.762   9.143  1.8170 -0.3653  0.0705
  554MOL0     H76420  10.281   9.961   9.318  1.1868  1.3304 -0.7790
  554MOL0     H76421  10.231   9.941   9.163 -1.1587  3.5911  1.3751
  554MOL0     H76422  10.502  10.073   9.230 -1.0251  0.8370  0.3597
  554MOL0     H76423  10.364  10.161   9.194 -0.4140 -1.5462 -0.9149
  554MOL0     H76424  10.360  10.046   8.967 -1.5273  0.4707  1.6097
  554MOL0     H76425  10.491  10.161   8.994  1.3913 -1.5508 -2.0787
  554MOL0     H76426  10.508   9.872   8.956  0.1729  0.8746 -1.3021
  554MOL0     H76427  10.646   9.945   9.039  0.3834 -1.0395  0.4270
  554MOL0     H76428  10.674  10.106   8.854 -0.0937  0.2288  0.5079
  554MOL0     H76429  10.529  10.041   8.776 -0.2544 -1.2587 -0.2711
  554MOL0     H76430  10.667   9.828   8.773 -1.7827  1.6099  2.4221
  554MOL0     H76431  10.808   9.927   8.826  1.2393  1.3475 -1.3611
  554MOL0     H76432  10.148   9.586   9.456  0.6262  0.5102 -0.7059
  554MOL0     H76433   9.963   9.428   9.494  1.2917 -4.0101 -0.8431
  554MOL0     H76434   9.546   9.332   9.232 -0.4384  1.7959  1.2093
  554MOL0     H76435   9.315   9.230   9.246 -1.0869 -1.4560 -2.0466
  554MOL0     H76436   7.502   8.365   8.889  2.7711  0.5376 -0.9589
  554MOL0     H76437   7.345   8.256   9.056  0.5812  0.9857 -1.4743
  554MOL0     H76438   7.191   8.231   9.356 -2.2370  0.3891 -1.3764
  554MOL0     H76439   6.963   8.190   9.446 -0.0175  0.1772 -0.7618
  554MOL0     H76440   6.832   7.807   9.557  0.5086  0.0132  0.0961
  554MOL0     H76441   6.888   7.851   9.722 -2.6430 -2.2142  0.8194
  554MOL0     H76442   6.656   7.772   9.717  1.8835 -0.3220  1.7022
  554MOL0     H76443   6.610   7.918   9.628 -0.7111 -0.3381  0.9688
  554MOL0     H76444   6.745   7.930   9.899 -0.6123 -0.3551  0.9157
  554MOL0     H76445   6.673   8.064   9.801 -0.2745 -0.7016 -1.8219
  554MOL0     H76446   6.487   7.832   9.913  1.7337 -1.4099 -1.7739
  554MOL0     H76447   6.448   7.981   9.839 -1.0371 -1.9917 -1.1124
  554MOL0     H76448   6.537   8.101  10.223  0.0792 -1.6184  0.0247
  554MOL0     H76449   7.077   7.813   9.591  4.1703 -2.7196 -1.4319
  554MOL0     H76450   7.397   7.833   9.549 -1.4076  2.3746  1.3639
  554MOL0     H76451   7.258   7.714   9.540  0.0326 -1.8462 -0.3491
  554MOL0     H76452   7.348   7.755   9.398 -1.3163  1.1293 -0.1378
  555MOL0     O76453   9.579   6.468   2.572  0.1080  0.1404  0.3482
  555MOL0     C76454   9.502   6.526   2.641 -0.3353 -0.5873 -0.4254
  555MOL0     O76455   9.535   6.610   2.748 -0.0070 -0.1197 -0.2494
  555MOL0     C76456   9.660   6.615   2.811 -0.2863 -0.1199 -0.0581
  555MOL0     C76457   9.670   6.554   2.941 -0.6027  0.7263 -0.0632
  555MOL0     C76458   9.795   6.564   3.006  0.0647  0.3907  0.6444
  555MOL0     C76459   9.909   6.618   2.945  0.2625  0.4208 -0.1533
  555MOL0     O76460  10.043   6.623   2.996 -0.0519 -0.0901  0.3031
  555MOL0     C76461  10.061   6.595   3.132  0.1552  0.2027 -0.1970
  555MOL0     C76462  10.205   6.639   3.168  0.1762  0.4695 -0.0560
  555MOL0     C76463  10.220   6.797   3.133 -0.3991  0.7526 -0.6917
  555MOL0     C76464  10.166   6.888   3.240  0.2686  0.5229 -0.4560
  555MOL0     C76465  10.202   7.031   3.209 -0.7269 -0.0359 -0.5614
  555MOL0     C76466  10.125   7.082   3.080 -0.8732  0.7834 -0.3488
  555MOL0     C76467  10.145   7.236   3.074 -0.1513  0.6252 -0.2138
  555MOL0     C76468  10.044   7.313   3.158  0.7943  0.9793 -0.0876
  555MOL0     N76469  10.076   7.454   3.179 -0.0433  0.3759 -0.1450
  555MOL0     C76470  10.186   7.506   3.246  0.9380  0.7359 -0.5232
  555MOL0     C76471  10.160   7.636   3.261 -0.5873 -0.2554  1.0942
  555MOL0     C76472  10.263   7.732   3.311 -0.3684 -0.1990 -0.0490
  555MOL0     C76473  10.295   7.837   3.209 -0.9765  0.9212  0.5770
  555MOL0     C76474  10.439   7.890   3.207 -0.4406 -0.7165  0.6970
  555MOL0     C76475  10.547   7.800   3.146  0.2826  0.1458  0.4245
  555MOL0     O76476  10.546   7.812   3.005  0.7850  0.5949  0.8919
  555MOL0     C76477  10.663   7.860   2.948  0.3998 -0.3432 -0.3996
  555MOL0     C76478  10.672   7.999   2.934  0.4401 -0.0544  1.2251
  555MOL0     C76479  10.783   8.055   2.854  0.9651 -1.3891 -0.0376
  555MOL0     C76480  10.777   8.207   2.841  0.0505 -0.2554  0.7203
  555MOL0     C76481  10.879   7.969   2.796  0.2271 -0.2406 -0.0314
  555MOL0     C76482  10.975   8.015   2.685  0.1501  0.4008  0.4724
  555MOL0     O76483  10.941   8.132   2.612 -0.5609  0.3241  0.3622
  555MOL0     C76484  11.036   8.192   2.530 -0.2286  0.0724 -0.7006
  555MOL0     C76485  11.036   8.172   2.396  0.5993 -0.7631  0.3565
  555MOL0     C76486  11.152   8.202   2.317 -0.3836  0.4626 -0.4198
  555MOL0     C76487  11.253   8.289   2.371  0.1225  0.4394  0.2598
  555MOL0     O76488  11.361   8.327   2.288 -0.5301  0.5670 -0.2990
  555MOL0     C76489  11.496   8.320   2.354  0.6578  0.9771 -0.6502
  555MOL0     C76490  11.598   8.339   2.252 -0.7550 -0.3995  0.1576
  555MOL0     C76491  11.722   8.422   2.305  1.1041  0.0908  0.0933
  555MOL0     C76492  11.839   8.407   2.211 -0.6530  0.2034  0.0589
  555MOL0     C76493  11.935   8.526   2.245 -0.4105  0.5689  0.1333
  555MOL0     C76494  12.058   8.522   2.161  0.2245 -0.2626 -0.1490
  555MOL0     C76495  12.128   8.660   2.162  0.5042 -1.2875  0.3878
  555MOL0     C76496  12.176   8.684   2.308 -0.1813  0.4650 -0.4188
  555MOL0    Cl76497  12.304   8.557   2.354  0.1457  0.3726 -0.2022
  555MOL0     C76498  11.240   8.328   2.502 -0.6566 -0.1289  0.2998
  555MOL0     C76499  11.134   8.279   2.578 -0.0756  0.8018 -0.6318
  555MOL0     O76500  11.086   7.953   2.673  0.6673 -0.4777  0.2801
  555MOL0     C76501  10.877   7.832   2.833  0.4135  0.3693 -0.0466
  555MOL0     C76502  10.772   7.784   2.909  0.4294  0.8001  0.6333
  555MOL0     N76503  10.031   7.657   3.222  0.4931 -0.4149  0.2408
  555MOL0     N76504   9.989   7.554   3.154 -0.2711 -0.3755  0.4108
  555MOL0     C76505   9.896   6.660   2.816 -0.6214 -0.6464  0.2965
  555MOL0     C76506   9.775   6.666   2.744 -0.2207  0.2941  0.8483
  555MOL0     C76507   9.355   6.495   2.632  0.0501  0.0469  0.4706
  555MOL0     C76508   9.263   6.521   2.744  0.3121  1.1245 -0.2143
  555MOL0     C76509   9.127   6.496   2.722  1.2279 -0.2742 -0.4427
  555MOL0     C76510   9.074   6.436   2.606  0.0050 -0.6369  0.6289
  555MOL0     O76511   8.945   6.384   2.590 -0.7849 -0.0125  0.7756
  555MOL0     C76512   8.864   6.407   2.703  0.1255 -0.0225  0.5175
  555MOL0     C76513   8.725   6.354   2.673  1.0468  0.0482  0.0955
  555MOL0     C76514   8.626   6.375   2.787  0.0428  0.4549  0.2376
  555MOL0     C76515   8.489   6.426   2.734 -1.6034 -0.4865  0.0024
  555MOL0     C76516   8.385   6.421   2.836  0.5948 -0.1642  1.2082
  555MOL0     C76517   8.323   6.441   2.935  0.1936 -0.4374 -0.7671
  555MOL0     C76518   9.158   6.434   2.493 -0.0056 -0.1458  0.3405
  555MOL0     C76519   9.297   6.456   2.507 -0.2772 -0.6269  0.2888
  555MOL0     C76520   9.379   6.445   2.378  0.3741  0.6851 -0.7292
  555MOL0     H76521   9.589   6.506   2.994  0.1787 -0.1581  0.3442
  555MOL0     H76522   9.815   6.530   3.107  0.8588 -1.2882 -0.0428
  555MOL0     H76523  10.043   6.493   3.166 -0.4599 -0.9045 -3.4191
  555MOL0     H76524   9.996   6.659   3.191  0.4789 -0.1013  0.4982
  555MOL0     H76525  10.221   6.631   3.276  1.8204 -3.9214 -0.4222
  555MOL0     H76526  10.274   6.574   3.114  0.9741  2.5815 -1.7700
  555MOL0     H76527  10.327   6.821   3.123 -0.2877  1.1200  1.0183
  555MOL0     H76528  10.171   6.824   3.039 -0.6385  0.3971 -0.6715
  555MOL0     H76529  10.058   6.881   3.257  0.6018 -1.1689  1.4633
  555MOL0     H76530  10.198   6.856   3.340 -1.8675  2.6307  1.0103
  555MOL0     H76531  10.309   7.036   3.187 -1.3169  0.7177 -3.7353
  555MOL0     H76532  10.184   7.102   3.290  0.2126  0.6511 -0.9335
  555MOL0     H76533  10.163   7.039   2.987 -0.9196 -1.0386  0.4354
  555MOL0     H76534  10.017   7.067   3.090 -0.8031  1.0343  0.9022
  555MOL0     H76535  10.142   7.263   2.968 -1.3347  2.7963  0.3228
  555MOL0     H76536  10.241   7.272   3.112 -1.9822  3.7057  1.8767
  555MOL0     H76537   9.944   7.302   3.115  1.3424  0.7545 -1.3793
  555MOL0     H76538  10.044   7.262   3.254  0.1409  0.2436 -0.4636
  555MOL0     H76539  10.273   7.455   3.286 -0.9447 -1.2181  1.2721
  555MOL0     H76540  10.358   7.683   3.333  0.8230  2.3535  0.9172
  555MOL0     H76541  10.221   7.766   3.407 -0.5350 -2.6377  0.8319
  555MOL0     H76542  10.274   7.802   3.108  0.6540 -1.6423  1.0450
  555MOL0     H76543  10.235   7.927   3.228  0.6542  2.1531  0.0984
  555MOL0     H76544  10.427   7.977   3.142 -2.7622 -1.8247 -0.4636
  555MOL0     H76545  10.459   7.930   3.307  3.0905 -1.1851  0.3253
  555MOL0     H76546  10.640   7.828   3.196 -1.1085  3.6830  1.3039
  555MOL0     H76547  10.526   7.696   3.173 -2.0440 -0.1441 -1.9780
  555MOL0     H76548  10.594   8.063   2.975 -0.3087  0.4038 -0.7839
  555MOL0     H76549  10.699   8.248   2.906 -0.8296 -0.8300  0.0576
  555MOL0     H76550  10.757   8.242   2.739  2.0173 -2.9030 -0.7062
  555MOL0     H76551  10.876   8.239   2.872  1.9322 -4.8525  0.2986
  555MOL0     H76552  10.956   8.109   2.360  0.6443 -1.6833  1.7706
  555MOL0     H76553  11.147   8.159   2.217  0.8623 -4.6453  1.4358
  555MOL0     H76554  11.503   8.396   2.432 -0.0445  0.0345  0.3650
  555MOL0     H76555  11.503   8.229   2.414  2.5443 -0.6365 -3.0906
  555MOL0     H76556  11.636   8.245   2.212 -0.7625 -0.7183  0.8942
  555MOL0     H76557  11.551   8.386   2.165  1.5524  0.5566 -0.6708
  555MOL0     H76558  11.753   8.387   2.403  0.0662  0.6179  0.6306
  555MOL0     H76559  11.700   8.529   2.319 -0.2047 -0.3992  2.1027
  555MOL0     H76560  11.802   8.420   2.109  2.4066 -1.4370 -1.3773
  555MOL0     H76561  11.886   8.309   2.217 -3.2689 -1.3658 -2.3859
  555MOL0     H76562  11.880   8.618   2.221 -1.4670  0.1589  0.9602
  555MOL0     H76563  11.963   8.518   2.350 -2.5258  2.4549  0.9082
  555MOL0     H76564  12.022   8.497   2.061 -1.6977  1.8855 -0.0724
  555MOL0     H76565  12.125   8.446   2.202  2.1690  0.4281 -1.8851
  555MOL0     H76566  12.059   8.734   2.123  3.5113  1.0118 -1.0197
  555MOL0     H76567  12.213   8.663   2.093 -2.0921 -0.4512 -3.0090
  555MOL0     H76568  12.095   8.673   2.381  0.8216  2.4958  1.0982
  555MOL0     H76569  12.217   8.785   2.318  2.4309 -0.6211  0.6696
  555MOL0     H76570  11.313   8.394   2.549 -0.3136 -1.0128  1.0428
  555MOL0     H76571  11.139   8.303   2.684  2.4834  0.6684 -0.6617
  555MOL0     H76572  10.953   7.762   2.798 -0.1838  0.2275 -1.1055
  555MOL0     H76573  10.757   7.676   2.915 -0.6862  0.9929  1.6936
  555MOL0     H76574   9.980   6.716   2.775 -0.7943  0.6514  1.6262
  555MOL0     H76575   9.761   6.700   2.642  0.0356  0.0786  0.7381
  555MOL0     H76576   9.297   6.540   2.846  2.6018 -0.3474 -0.6301
  555MOL0     H76577   9.067   6.516   2.810  0.5852 -1.0037 -0.7163
  555MOL0     H76578   8.913   6.356   2.787  3.9404  1.8291 -0.4086
  555MOL0     H76579   8.857   6.513   2.730 -0.4450 -0.4332  2.1181
  555MOL0     H76580   8.726   6.249   2.640 -3.0630  0.1741 -1.0393
  555MOL0     H76581   8.686   6.414   2.590  0.4709  1.0603  1.0760
  555MOL0     H76582   8.604   6.278   2.835  0.0324  0.2668 -0.1478
  555MOL0     H76583   8.660   6.446   2.863 -0.0964 -3.0259  3.9247
  555MOL0     H76584   8.452   6.356   2.659 -2.1476 -2.4009  1.9842
  555MOL0     H76585   8.492   6.529   2.695  0.5821 -0.4985  0.0123
  555MOL0     H76586   8.248   6.463   3.008  0.6950 -3.1604  0.7020
  555MOL0     H76587   9.131   6.390   2.398 -0.3901 -0.7460  0.7172
  555MOL0     H76588   9.420   6.344   2.370 -3.0201 -0.6655 -4.2680
  555MOL0     H76589   9.324   6.473   2.287 -0.9490 -2.7775 -1.1373
  555MOL0     H76590   9.457   6.522   2.386 -1.1423  2.1350  0.8807
  556MOL0     O76591  11.065  10.198   4.225  1.0878  0.0300  0.8484
  556MOL0     C76592  11.078  10.077   4.240 -0.4929  0.4003  0.1917
  556MOL0     O76593  11.181  10.000   4.193  0.2629  0.2292  0.4486
  556MOL0     C76594  11.305  10.043   4.161 -0.2344  0.1208 -0.0642
  556MOL0     C76595  11.364  10.156   4.217  0.2921  0.3879 -0.0610
  556MOL0     C76596  11.487  10.189   4.195 -0.7018  0.3489  0.3641
  556MOL0     C76597  11.573  10.101   4.114  0.3632 -0.2081 -0.3531
  556MOL0     O76598  11.708  10.117   4.095  0.0342 -0.1493  0.1283
  556MOL0     C76599  11.764  10.241   4.141  0.4604 -0.3751  0.3775
  556MOL0     C76600  11.920  10.237   4.127  0.7986 -0.4361 -0.3791
  556MOL0     C76601  11.991  10.140   4.228  0.0759  0.3967 -0.4154
  556MOL0     C76602  12.144  10.149   4.218 -0.7797 -0.2169 -0.2971
  556MOL0     C76603  12.207  10.063   4.330 -0.2978 -0.0852 -0.3397
  556MOL0     C76604  12.353  10.075   4.325 -0.6028  0.3301 -0.4145
  556MOL0     C76605  12.427  10.002   4.447 -0.1685 -0.5069 -0.6762
  556MOL0     C76606  12.424  10.093   4.573  0.0801  0.9034  0.6627
  556MOL0     N76607  12.513  10.212   4.561 -0.6019 -0.9096  0.3217
  556MOL0     C76608  12.650  10.215   4.595 -0.1282  0.2999  0.5174
  556MOL0     C76609  12.682  10.342   4.579  1.0313 -0.2933 -0.4952
  556MOL0     C76610  12.832  10.380   4.602  0.4352  0.2426  0.0143
  556MOL0     C76611  12.868  10.430   4.746 -0.4304  0.1864 -0.7249
  556MOL0     C76612  12.829  10.573   4.756  0.7383  0.6899 -0.6321
  556MOL0     C76613  12.875  10.626   4.885  0.3042  0.0327  0.1607
  556MOL0     O76614  12.857  10.766   4.877 -0.6094  0.6388 -0.1059
  556MOL0     C76615  12.765  10.821   4.965 -0.3461  0.2164 -0.8775
  556MOL0     C76616  12.808  10.900   5.079 -0.1748  0.8408  0.5192
  556MOL0     C76617  12.709  10.959   5.157 -0.4228 -0.3316 -0.2265
  556MOL0     C76618  12.772  11.056   5.258 -0.1720 -0.1321  0.1298
  556MOL0     C76619  12.568  10.948   5.135 -0.0853  0.6039  0.4062
  556MOL0     C76620  12.458  10.996   5.227  0.2316 -0.9586 -0.1677
  556MOL0     O76621  12.330  10.968   5.195 -0.2942 -0.3905  0.6293
  556MOL0     C76622  12.247  11.019   5.286  0.6976  0.2994 -0.3207
  556MOL0     C76623  12.197  10.936   5.388 -0.5203 -0.9452 -0.0329
  556MOL0     C76624  12.106  10.972   5.486 -0.0228  0.2945 -0.1909
  556MOL0     C76625  12.069  11.102   5.494  0.0326  0.4963 -0.1476
  556MOL0     O76626  11.985  11.160   5.583  0.0312  0.5977  0.0248
  556MOL0     C76627  11.984  11.115   5.712  0.2508  0.8812 -1.1930
  556MOL0     C76628  12.114  11.172   5.784 -0.0697  0.5165  0.0474
  556MOL0     C76629  12.098  11.319   5.822  0.6333 -1.0141  0.8230
  556MOL0     C76630  12.178  11.375   5.942  1.2465 -0.2837  0.1116
  556MOL0     C76631  12.326  11.371   5.921  0.2167  0.5071  0.0961
  556MOL0     C76632  12.387  11.485   6.008  0.8204  0.3588  0.2326
  556MOL0     C76633  12.539  11.486   5.996  0.5421 -0.3883  0.3429
  556MOL0     C76634  12.597  11.348   6.027 -0.2094 -0.6008 -0.1024
  556MOL0    Cl76635  12.772  11.367   6.074 -0.5336  0.0596  0.1750
  556MOL0     C76636  12.110  11.191   5.392 -0.1040 -0.6041 -0.3312
  556MOL0     C76637  12.194  11.151   5.294  0.1339 -0.1878  0.6983
  556MOL0     O76638  12.499  11.053   5.324  0.1776  0.0563  0.4083
  556MOL0     C76639  12.526  10.872   5.025 -1.0860 -0.5362  0.0900
  556MOL0     C76640  12.621  10.810   4.949  0.2473  0.5252 -0.1861
  556MOL0     N76641  12.574  10.412   4.534 -0.0189  0.4338 -0.4447
  556MOL0     N76642  12.467  10.333   4.529 -0.3612  0.4703 -0.0754
  556MOL0     C76643  11.506   9.981   4.056  0.2874 -0.0063 -0.2675
  556MOL0     C76644  11.371   9.960   4.072 -0.0418  0.5017 -0.5546
  556MOL0     C76645  10.958   9.997   4.290  0.2194  0.4527  0.4538
  556MOL0     C76646  10.890  10.061   4.392  1.0603 -0.4235 -0.2407
  556MOL0     C76647  10.768  10.003   4.440 -0.3279  0.1212 -0.5314
  556MOL0     C76648  10.707   9.889   4.381 -0.5073  0.4331 -0.6236
  556MOL0     O76649  10.598   9.834   4.428  0.2504  0.0923  0.0750
  556MOL0     C76650  10.512   9.758   4.333 -0.7417 -0.1898 -1.0996
  556MOL0     C76651  10.366   9.805   4.378 -0.6380  0.5752  0.3068
  556MOL0     C76652  10.339   9.788   4.527  0.3463  0.1844  0.7353
  556MOL0     C76653  10.185   9.790   4.542  0.6875 -0.6858 -0.5451
  556MOL0     C76654  10.150   9.796   4.685 -1.0172 -0.1611  0.5240
  556MOL0     C76655  10.134   9.784   4.804 -0.1919  0.9817 -0.6493
  556MOL0     C76656  10.784   9.828   4.273 -0.3317  0.3368 -0.5574
  556MOL0     C76657  10.908   9.878   4.230  0.0924  0.2635  0.1549
  556MOL0     C76658  10.969   9.807   4.112 -0.1001  1.0127 -0.2607
  556MOL0     H76659  11.308  10.222   4.283  0.7874 -0.0792  0.8451
  556MOL0     H76660  11.519  10.286   4.232 -0.3447 -1.4764  5.6356
  556MOL0     H76661  11.743  10.260   4.247  0.1396 -0.3179  0.3026
  556MOL0     H76662  11.718  10.324   4.087  1.9580 -0.2018 -0.7070
  556MOL0     H76663  11.938  10.194   4.028  1.0511 -0.5772 -0.2715
  556MOL0     H76664  11.971  10.332   4.144 -1.0372  0.1208  3.1057
  556MOL0     H76665  11.951  10.148   4.330 -2.1537 -2.6976 -0.8855
  556MOL0     H76666  11.968  10.040   4.189  1.0366  0.5524 -1.4412
  556MOL0     H76667  12.179  10.126   4.117 -1.5382  1.5779 -1.0154
  556MOL0     H76668  12.173  10.253   4.232  1.8850 -1.1538  1.9032
  556MOL0     H76669  12.173   9.958   4.327 -2.0085  0.3164  1.7420
  556MOL0     H76670  12.170  10.099   4.427  1.4970 -1.2431  0.8522
  556MOL0     H76671  12.408  10.056   4.232  0.6964 -2.2263  0.7683
  556MOL0     H76672  12.368  10.183   4.323 -2.8081  0.6724 -0.7284
  556MOL0     H76673  12.533   9.989   4.426  0.6734  0.3128  2.5703
  556MOL0     H76674  12.382   9.906   4.473  1.9354 -0.7493  2.5803
  556MOL0     H76675  12.319  10.112   4.596 -0.3262 -1.1341  0.6126
  556MOL0     H76676  12.461  10.031   4.655 -0.1964  1.3450  1.1307
  556MOL0     H76677  12.709  10.126   4.612 -1.7946 -0.9285  0.0573
  556MOL0     H76678  12.861  10.466   4.542 -1.9521 -0.9844 -3.2307
  556MOL0     H76679  12.896  10.295   4.574  1.3422  1.3539 -1.4285
  556MOL0     H76680  12.815  10.382   4.829 -1.6189 -0.4483 -1.7974
  556MOL0     H76681  12.975  10.438   4.763 -0.2394  0.1162 -1.7934
  556MOL0     H76682  12.870  10.634   4.675  1.9266 -0.3979 -0.8704
  556MOL0     H76683  12.719  10.574   4.756  0.4047 -3.7700  3.2229
  556MOL0     H76684  12.824  10.585   4.972  2.0085  2.2546  2.3656
  556MOL0     H76685  12.983  10.616   4.899  0.3933 -0.5665 -0.9066
  556MOL0     H76686  12.914  10.912   5.093  0.3446  1.8464 -3.1556
  556MOL0     H76687  12.761  11.021   5.361  1.0644  0.9026  0.6475
  556MOL0     H76688  12.729  11.156   5.262 -2.4395 -1.0562  0.0416
  556MOL0     H76689  12.876  11.084   5.238 -0.3819  1.0991  0.7060
  556MOL0     H76690  12.216  10.831   5.371  2.0344 -0.7433  1.1558
  556MOL0     H76691  12.086  10.892   5.556 -3.1426  0.4375 -0.7473
  556MOL0     H76692  11.904  11.158   5.772  0.9889 -0.6942  1.0796
  556MOL0     H76693  11.971  11.007   5.702  0.7778  0.8210 -1.2854
  556MOL0     H76694  12.123  11.118   5.879 -0.3491 -0.6471 -0.5798
  556MOL0     H76695  12.206  11.154   5.727  0.1694 -0.0868  0.6054
  556MOL0     H76696  11.996  11.339   5.854  0.7961  0.1498  0.6857
  556MOL0     H76697  12.128  11.378   5.734 -0.2747 -0.8783  0.5935
  556MOL0     H76698  12.150  11.324   6.034  0.2797 -0.1900 -0.1232
  556MOL0     H76699  12.141  11.476   5.961 -1.9051 -1.2468 -0.3629
  556MOL0     H76700  12.352  11.266   5.939 -1.4708 -0.3796 -2.1455
  556MOL0     H76701  12.359  11.384   5.817  0.1890  2.3832  0.3012
  556MOL0     H76702  12.353  11.494   6.112 -0.5665  0.0736 -0.1747
  556MOL0     H76703  12.363  11.578   5.956 -0.0988 -0.1275 -0.2468
  556MOL0     H76704  12.570  11.571   6.058 -0.4290  2.3217 -2.6110
  556MOL0     H76705  12.571  11.521   5.898  1.7530  0.8420  1.1298
  556MOL0     H76706  12.588  11.289   5.935 -1.0292  0.8834 -1.0148
  556MOL0     H76707  12.555  11.300   6.115  0.8912 -1.8611 -0.2302
  556MOL0     H76708  12.082  11.295   5.384 -1.7590 -1.0721 -1.2473
  556MOL0     H76709  12.217  11.230   5.223  1.5585  1.3856  2.7715
  556MOL0     H76710  12.423  10.861   4.992 -1.0632 -2.3744  0.5398
  556MOL0     H76711  12.580  10.731   4.887 -1.1382 -0.0473  1.3806
  556MOL0     H76712  11.563   9.915   3.991  0.4596  1.3583 -1.5595
  556MOL0     H76713  11.315   9.887   4.013 -3.7170  1.1635  1.7413
  556MOL0     H76714  10.903  10.158   4.437 -2.0324  1.1791 -2.3896
  556MOL0     H76715  10.716  10.071   4.507 -0.2762 -1.1886  0.8830
  556MOL0     H76716  10.523   9.788   4.229  2.2257 -0.1338 -0.8438
  556MOL0     H76717  10.520   9.649   4.345 -0.5884 -0.0562  0.1126
  556MOL0     H76718  10.296   9.749   4.316 -1.5753  1.1437  0.8193
  556MOL0     H76719  10.356   9.913   4.361 -0.2870  0.7302  1.0168
  556MOL0     H76720  10.387   9.703   4.575 -1.6926 -1.5431 -0.1169
  556MOL0     H76721  10.383   9.879   4.568  0.7044  1.1455 -1.5852
  556MOL0     H76722  10.150   9.700   4.490  3.8240 -3.6861  1.9610
  556MOL0     H76723  10.152   9.883   4.495 -0.8430 -0.2326  1.2895
  556MOL0     H76724  10.113   9.762   4.907  2.1684 -2.2502 -0.7124
  556MOL0     H76725  10.744   9.741   4.223  1.6696  0.6265 -2.8432
  556MOL0     H76726  10.909   9.754   4.038  2.0091 -0.0111 -1.3099
  556MOL0     H76727  11.017   9.877   4.044  2.2604 -0.4884 -0.2487
  556MOL0     H76728  11.045   9.736   4.146 -0.4463  0.4361 -0.6670
  557MOL0     O76729   2.537   7.133   9.955  0.0737  0.3569  0.3915
  557MOL0     C76730   2.559   7.033   9.889  0.3718  0.3450  0.0731
  557MOL0     O76731   2.661   7.016   9.801  0.0921 -0.0257 -0.0547
  557MOL0     C76732   2.737   7.131   9.769  0.2753 -0.3392  0.5216
  557MOL0     C76733   2.855   7.160   9.842  0.5619 -0.4599  0.3615
  557MOL0     C76734   2.928   7.283   9.815  0.6518  0.2403 -0.2999
  557MOL0     C76735   2.892   7.359   9.698  0.2636  0.3902  0.0744
  557MOL0     O76736   2.970   7.465   9.657 -0.5652 -0.1468 -0.6212
  557MOL0     C76737   3.094   7.492   9.734  0.9766 -0.0616 -0.0865
  557MOL0     C76738   3.147   7.626   9.702 -0.3923 -0.6449  0.1794
  557MOL0     C76739   3.235   7.627   9.577  0.6342  0.6402  0.3954
  557MOL0     C76740   3.247   7.771   9.515  0.2644 -0.0985 -0.6206
  557MOL0     C76741   3.323   7.782   9.380 -0.5505 -0.2457 -0.1737
  557MOL0     C76742   3.314   7.920   9.326  0.1564 -0.5590  0.1662
  557MOL0     C76743   3.376   8.032   9.409 -0.2414 -0.1075 -0.4898
  557MOL0     C76744   3.329   8.178   9.378 -0.2144  0.7710  0.3083
  557MOL0     N76745   3.359   8.202   9.243 -0.2984 -0.5149  0.3570
  557MOL0     C76746   3.265   8.193   9.150  0.2325 -0.3689  0.3133
  557MOL0     C76747   3.324   8.249   9.043 -0.2881 -0.9970  0.0609
  557MOL0     C76748   3.262   8.245   8.904  0.0506 -0.0555 -0.1742
  557MOL0     C76749   3.296   8.121   8.823 -0.4182 -0.5275  1.2685
  557MOL0     C76750   3.271   7.991   8.893  0.3104 -0.4120  0.7766
  557MOL0     C76751   3.130   7.950   8.912 -0.5096  0.3724 -0.1527
  557MOL0     O76752   3.138   7.817   8.974  0.4129 -0.8013  0.4258
  557MOL0     C76753   3.028   7.763   9.044  0.2588 -1.0659  0.7331
  557MOL0     C76754   3.044   7.641   9.123 -0.2733 -0.7949  0.0264
  557MOL0     C76755   2.940   7.568   9.185  0.3181  0.2668 -0.7943
  557MOL0     C76756   2.990   7.455   9.266  0.2819  0.5949 -0.1268
  557MOL0     C76757   2.801   7.615   9.162 -0.4109  0.8236 -0.0379
  557MOL0     C76758   2.679   7.541   9.205 -0.8796  0.2148 -0.7032
  557MOL0     O76759   2.563   7.580   9.134 -0.5570  0.3457  0.0492
  557MOL0     C76760   2.446   7.510   9.149 -0.0959 -0.1241 -0.4586
  557MOL0     C76761   2.361   7.555   9.249 -0.0463 -1.3309  0.6387
  557MOL0     C76762   2.229   7.495   9.273 -0.7749  0.5272 -1.5924
  557MOL0     C76763   2.193   7.393   9.191 -0.2324  0.7663 -0.5590
  557MOL0     O76764   2.089   7.309   9.217 -0.4055 -0.5185 -0.5827
  557MOL0     C76765   1.957   7.366   9.198 -1.0452  0.2311 -0.9695
  557MOL0     C76766   1.854   7.260   9.178  0.1970 -0.0420 -0.0874
  557MOL0     C76767   1.861   7.151   9.284 -1.1399  0.5822  0.6087
  557MOL0     C76768   1.884   7.200   9.426  0.7303 -0.2271 -0.4815
  557MOL0     C76769   1.849   7.098   9.529  0.9553 -0.7981 -0.3626
  557MOL0     C76770   1.952   6.991   9.550 -0.6885 -0.1382 -0.0161
  557MOL0     C76771   1.919   6.910   9.671 -0.4568  0.1253  1.0138
  557MOL0     C76772   2.037   6.814   9.701  1.0060  0.4712 -1.0805
  557MOL0    Cl76773   2.083   6.704   9.568  0.1070  0.2484  0.1040
  557MOL0     C76774   2.276   7.341   9.088  0.6614 -0.1520  0.1588
  557MOL0     C76775   2.404   7.407   9.061  0.5719  0.8106  0.1995
  557MOL0     O76776   2.686   7.455   9.298 -0.1264  1.0320  0.7560
  557MOL0     C76777   2.789   7.728   9.080 -0.4736  0.7722  0.3966
  557MOL0     C76778   2.892   7.804   9.026  0.0062  0.2219  0.2532
  557MOL0     N76779   3.452   8.285   9.074 -0.9635 -0.5636  0.6538
  557MOL0     N76780   3.476   8.261   9.199  0.1751 -0.5813 -0.4928
  557MOL0     C76781   2.781   7.319   9.616 -0.1016  0.0438 -0.2861
  557MOL0     C76782   2.700   7.211   9.656  0.9917  0.3967  0.0064
  557MOL0     C76783   2.472   6.914   9.908 -0.4542  0.2616 -0.4091
  557MOL0     C76784   2.445   6.874  10.041  0.2626 -0.1691  0.1062
  557MOL0     C76785   2.378   6.762  10.082 -0.6849  0.4267 -0.6356
  557MOL0     C76786   2.340   6.664   9.994 -0.5879 -0.0319  0.9207
  557MOL0     O76787   2.272   6.553  10.039  0.0830 -0.7319 -0.0380
  557MOL0     C76788   2.167   6.496   9.966 -0.3488 -0.1134  0.4934
  557MOL0     C76789   2.206   6.347   9.951 -0.9341 -0.5547  0.3824
  557MOL0     C76790   2.194   6.291  10.093 -0.1886 -0.0257  1.4901
  557MOL0     C76791   2.256   6.145  10.083 -0.0444  0.5068 -0.7291
  557MOL0     C76792   2.399   6.143  10.096  0.0764  0.6727  0.1671
  557MOL0     C76793   2.522   6.143  10.118 -0.1349 -0.4675 -1.3189
  557MOL0     C76794   2.347   6.700   9.861  0.9988 -0.1182  0.5281
  557MOL0     C76795   2.412   6.823   9.817  0.0070  0.4003  0.7683
  557MOL0     C76796   2.425   6.842   9.668 -0.3238 -0.9961  0.4546
  557MOL0     H76797   2.873   7.090   9.923 -1.3812 -2.6772 -0.9887
  557MOL0     H76798   3.014   7.304   9.878  1.4581  1.4402 -1.7236
  557MOL0     H76799   3.163   7.408   9.723  1.1410  0.0886 -0.2111
  557MOL0     H76800   3.066   7.495   9.840  2.7831  2.1445  0.4076
  557MOL0     H76801   3.066   7.700   9.701 -0.1749 -0.2461  3.0472
  557MOL0     H76802   3.204   7.668   9.786  1.3445 -1.5632 -0.4960
  557MOL0     H76803   3.334   7.585   9.597  0.5556 -0.5315 -1.3955
  557MOL0     H76804   3.193   7.573   9.492  0.6106 -1.1235  1.4556
  557MOL0     H76805   3.147   7.814   9.500  0.3061  0.4713  0.6157
  557MOL0     H76806   3.291   7.836   9.592  1.2717 -0.5473 -0.7984
  557MOL0     H76807   3.274   7.714   9.309 -4.2945  1.3422  0.6666
  557MOL0     H76808   3.427   7.747   9.387 -1.2265 -2.3497 -0.0380
  557MOL0     H76809   3.356   7.927   9.225 -3.1731  0.1411 -1.3297
  557MOL0     H76810   3.208   7.944   9.311  0.1309 -1.6519 -1.8486
  557MOL0     H76811   3.485   8.027   9.406 -0.1588  0.5314  1.0439
  557MOL0     H76812   3.345   8.019   9.513 -0.4616  1.9563 -0.2551
  557MOL0     H76813   3.221   8.182   9.396 -0.6554 -0.8514 -1.5761
  557MOL0     H76814   3.383   8.251   9.439 -0.0206  1.1280 -0.2915
  557MOL0     H76815   3.163   8.155   9.158 -0.1680  0.5026 -0.4809
  557MOL0     H76816   3.294   8.336   8.851 -1.3317  0.2633 -0.4911
  557MOL0     H76817   3.154   8.252   8.922 -0.0834 -0.3449 -0.8353
  557MOL0     H76818   3.249   8.121   8.724  0.0046 -1.0679  1.0616
  557MOL0     H76819   3.404   8.119   8.804 -0.4892 -0.5927  0.8435
  557MOL0     H76820   3.306   7.912   8.826  0.0799 -1.5196  1.9090
  557MOL0     H76821   3.310   7.975   8.994  3.1275 -1.2894 -0.3552
  557MOL0     H76822   3.073   8.010   8.983 -0.7390  1.6560 -1.3691
  557MOL0     H76823   3.070   7.961   8.821  0.5081  1.2007 -0.7463
  557MOL0     H76824   3.149   7.621   9.141  0.3821  1.0418 -1.4931
  557MOL0     H76825   3.098   7.436   9.269  0.0985 -0.6476 -0.6478
  557MOL0     H76826   2.949   7.361   9.227 -1.0068  0.8474  0.5754
  557MOL0     H76827   2.951   7.468   9.367  0.4280  0.1688 -0.0141
  557MOL0     H76828   2.399   7.633   9.313 -0.2809 -0.2394 -0.5085
  557MOL0     H76829   2.172   7.533   9.357  0.1585  1.2139 -1.2475
  557MOL0     H76830   1.926   7.421   9.288 -1.6105 -0.9743 -0.4026
  557MOL0     H76831   1.968   7.433   9.113  2.6201 -1.2879 -1.8778
  557MOL0     H76832   1.756   7.307   9.176  0.9838  1.6172 -1.2111
  557MOL0     H76833   1.875   7.211   9.082 -3.6304 -0.4873 -0.8690
  557MOL0     H76834   1.941   7.082   9.257 -1.6263 -0.1820  1.0814
  557MOL0     H76835   1.765   7.100   9.276 -0.4741 -0.5942 -0.1343
  557MOL0     H76836   1.832   7.297   9.435  1.8308  0.4365 -1.1426
  557MOL0     H76837   1.987   7.235   9.438 -0.0269  2.6017 -1.3553
  557MOL0     H76838   1.821   7.142   9.625 -1.4931 -1.3504 -0.7481
  557MOL0     H76839   1.750   7.058   9.503  0.0068  1.7380 -0.9827
  557MOL0     H76840   2.048   7.042   9.564 -0.1353 -1.5686  1.9780
  557MOL0     H76841   1.968   6.928   9.462 -0.9153  2.4304 -2.0309
  557MOL0     H76842   1.831   6.853   9.638  1.9670 -2.6423 -1.1530
  557MOL0     H76843   1.894   6.974   9.756 -2.4512 -0.0505  0.6063
  557MOL0     H76844   2.010   6.755   9.789  0.0835  1.8620 -0.4098
  557MOL0     H76845   2.113   6.877   9.747 -0.8431  1.4492  0.8059
  557MOL0     H76846   2.259   7.252   9.028 -0.4771  0.6709 -0.8024
  557MOL0     H76847   2.458   7.380   8.971 -0.7508  1.0447 -0.6867
  557MOL0     H76848   2.692   7.774   9.064 -0.2844  0.6180 -1.4221
  557MOL0     H76849   2.873   7.893   8.967 -0.7500  0.4157  0.7760
  557MOL0     H76850   2.767   7.376   9.525 -0.9118  0.9123  0.3630
  557MOL0     H76851   2.602   7.187   9.617 -0.2296  0.4820  2.7982
  557MOL0     H76852   2.463   6.951  10.116 -1.8437  1.9872 -1.4580
  557MOL0     H76853   2.363   6.743  10.188  0.6519 -2.0620 -0.8158
  557MOL0     H76854   2.075   6.514  10.022  1.9230  1.3955  4.1400
  557MOL0     H76855   2.163   6.540   9.866  3.2557 -1.0589 -0.2153
  557MOL0     H76856   2.305   6.331   9.907 -2.5827 -1.0902 -3.5932
  557MOL0     H76857   2.131   6.296   9.889 -1.2354 -2.8581  2.4727
  557MOL0     H76858   2.236   6.345  10.178 -0.9186  0.8727  1.2947
  557MOL0     H76859   2.086   6.284  10.114  0.0285  0.8102  3.0725
  557MOL0     H76860   2.228   6.110   9.983  0.0613  1.4466 -1.0960
  557MOL0     H76861   2.220   6.074  10.158 -0.3345  0.6288 -0.7536
  557MOL0     H76862   2.628   6.144  10.135  0.1100  0.0849 -2.7646
  557MOL0     H76863   2.313   6.636   9.780 -0.2923  1.8211 -0.5222
  557MOL0     H76864   2.457   6.939   9.631  0.6261 -1.8649 -1.0982
  557MOL0     H76865   2.487   6.774   9.609  0.8469  0.8096 -0.4741
  557MOL0     H76866   2.322   6.839   9.632  0.1436  1.1237 -1.2510
  558MOL0     O76867  10.457   1.513   1.932 -0.4416 -0.1695  0.0038
  558MOL0     C76868  10.398   1.479   1.832 -0.3544  0.5501  0.0335
  558MOL0     O76869  10.464   1.418   1.733 -0.9015  0.0693 -0.7099
  558MOL0     C76870  10.578   1.348   1.752  0.0239 -0.1050  0.2402
  558MOL0     C76871  10.574   1.235   1.837  0.4512 -0.2383  0.5518
  558MOL0     C76872  10.695   1.164   1.842 -0.1480 -0.1104 -0.7233
  558MOL0     C76873  10.810   1.201   1.768 -0.7101 -0.0015 -0.4483
  558MOL0     O76874  10.919   1.127   1.784 -0.0647  0.0354 -0.0092
  558MOL0     C76875  10.902   0.982   1.775  1.6837  1.0482  0.5916
  558MOL0     C76876  11.043   0.922   1.771 -0.7500 -0.6752  0.1370
  558MOL0     C76877  11.036   0.773   1.743  0.0116  0.6153  0.3312
  558MOL0     C76878  11.171   0.714   1.792  0.1668 -0.1693 -0.0620
  558MOL0     C76879  11.183   0.561   1.758 -0.2116  0.5876 -0.6673
  558MOL0     C76880  11.218   0.527   1.613 -0.1199 -0.3074 -0.1979
  558MOL0     C76881  11.375   0.514   1.610  0.1856  0.2047 -0.1118
  558MOL0     C76882  11.436   0.457   1.481 -0.1668  0.2457  0.4370
  558MOL0     N76883  11.575   0.404   1.516 -0.0770 -0.0890 -0.3970
  558MOL0     C76884  11.682   0.465   1.585 -0.2055 -0.1441  0.1318
  558MOL0     C76885  11.759   0.359   1.621  0.2064 -0.2038 -0.3122
  558MOL0     C76886  11.899   0.365   1.677  0.2526 -0.2822 -0.7051
  558MOL0     C76887  11.913   0.406   1.833  0.5500 -0.0187  0.9601
  558MOL0     C76888  11.876   0.304   1.943 -0.8980  0.1431  0.5535
  558MOL0     C76889  11.731   0.262   1.939  0.2702 -0.5237 -0.0092
  558MOL0     O76890  11.682   0.187   2.054 -0.1146 -0.8177  0.2783
  558MOL0     C76891  11.547   0.174   2.061  0.1433 -0.9332 -0.3587
  558MOL0     C76892  11.497   0.107   2.176 -0.3031  0.3198  0.8455
  558MOL0     C76893  11.361   0.091   2.196  0.6014 -0.0892 -0.4639
  558MOL0     C76894  11.320  -0.004   2.312 -0.0875  0.0425  0.7919
  558MOL0     C76895  11.266   0.140   2.109  1.2956 -0.6875  1.3076
  558MOL0     C76896  11.118   0.137   2.128 -0.3028 -0.0648 -0.4557
  558MOL0     O76897  11.046   0.192   2.024  0.8165  0.0403 -0.4467
  558MOL0     C76898  10.913   0.204   2.039 -0.0661  0.8186 -0.6628
  558MOL0     C76899  10.857   0.281   2.137  0.5604  1.0040 -0.1603
  558MOL0     C76900  10.718   0.309   2.132 -0.1200 -0.3629  0.0687
  558MOL0     C76901  10.644   0.272   2.017 -0.0685  0.6090  0.3354
  558MOL0     O76902  10.512   0.306   1.994  0.0130 -0.8777  0.1260
  558MOL0     C76903  10.427   0.198   1.954  0.1554 -0.0270  0.4144
  558MOL0     C76904  10.280   0.230   1.984 -0.7021  0.2915 -0.3744
  558MOL0     C76905  10.195   0.112   1.935 -0.8103  0.4524  0.6765
  558MOL0     C76906  10.050   0.119   1.991  0.3354  0.1334  0.0741
  558MOL0     C76907   9.975  -0.013   1.969  0.0248  0.8825  0.4175
  558MOL0     C76908   9.920  -0.003   1.828  0.7928  0.6052  0.6775
  558MOL0     C76909   9.858  -0.141   1.773  0.1199 -0.2307 -0.0033
  558MOL0     C76910   9.961  -0.255   1.743  1.2830 -0.4090 -0.4260
  558MOL0    Cl76911  10.096  -0.190   1.655  0.0962  0.1934 -0.3458
  558MOL0     C76912  10.706   0.202   1.913 -0.6477 -0.6134 -0.2405
  558MOL0     C76913  10.836   0.167   1.929 -0.5688 -0.0422 -0.2690
  558MOL0     O76914  11.073   0.104   2.236  0.5459 -0.0248  0.5050
  558MOL0     C76915  11.318   0.207   1.996  0.1586 -0.0082 -1.1632
  558MOL0     C76916  11.452   0.219   1.972  0.2405  0.7200  0.5877
  558MOL0     N76917  11.699   0.241   1.572 -0.0622  0.5202  0.1582
  558MOL0     N76918  11.602   0.279   1.505 -1.0965 -0.4575  0.0852
  558MOL0     C76919  10.817   1.313   1.689 -0.3969  0.5139 -0.3238
  558MOL0     C76920  10.696   1.386   1.682  0.3353 -0.7144 -0.3787
  558MOL0     C76921  10.263   1.513   1.815  0.1921  0.5369  1.2390
  558MOL0     C76922  10.195   1.423   1.737  1.1690  0.0069 -0.1974
  558MOL0     C76923  10.060   1.446   1.706  0.3339 -0.3434 -0.7836
  558MOL0     C76924   9.992   1.557   1.755  0.4643  0.7388 -0.1513
  558MOL0     O76925   9.863   1.577   1.707 -0.3258 -0.4058  0.0154
  558MOL0     C76926   9.785   1.697   1.742 -0.0500 -0.0588 -0.1312
  558MOL0     C76927   9.741   1.698   1.889 -0.1066  0.4991  0.4684
  558MOL0     C76928   9.610   1.612   1.915 -0.7233 -1.0880  0.2781
  558MOL0     C76929   9.504   1.698   1.986  0.5045 -0.7336  0.8306
  558MOL0     C76930   9.367   1.640   1.958  0.0331  0.3897  1.1065
  558MOL0     C76931   9.247   1.613   1.942  0.2048 -0.7092  0.4895
  558MOL0     C76932  10.059   1.653   1.822  0.8004 -0.4499 -0.0419
  558MOL0     C76933  10.195   1.630   1.861  0.6396  0.5889 -0.0417
  558MOL0     C76934  10.272   1.726   1.959  0.5467  0.4020 -0.6057
  558MOL0     H76935  10.486   1.210   1.895 -1.2778 -0.9070 -2.2033
  558MOL0     H76936  10.693   1.079   1.909 -3.6816  0.9639  0.7263
  558MOL0     H76937  10.840   0.955   1.689  0.1844  2.1438  1.2732
  558MOL0     H76938  10.845   0.949   1.862  0.0315  0.5314 -0.6286
  558MOL0     H76939  11.101   0.967   1.689 -0.1739 -2.2467 -0.3520
  558MOL0     H76940  11.094   0.938   1.867  1.9295  0.6897 -1.4069
  558MOL0     H76941  10.953   0.726   1.795 -0.6379 -2.0715 -2.8230
  558MOL0     H76942  11.033   0.756   1.635  3.2061  1.6464 -0.0330
  558MOL0     H76943  11.240   0.765   1.724 -2.0068  3.1300  0.0116
  558MOL0     H76944  11.202   0.739   1.894  0.1098  0.7241 -0.2580
  558MOL0     H76945  11.090   0.513   1.788  1.8764 -3.6889 -0.3273
  558MOL0     H76946  11.263   0.527   1.824  1.4077  4.4199 -0.3777
  558MOL0     H76947  11.178   0.429   1.583 -0.6529 -0.1144 -0.1244
  558MOL0     H76948  11.189   0.606   1.543 -1.6536  2.9727  3.7948
  558MOL0     H76949  11.413   0.444   1.685  1.3799  0.4337 -0.4875
  558MOL0     H76950  11.421   0.606   1.646  1.1389 -1.4416  3.2994
  558MOL0     H76951  11.380   0.372   1.443  2.7731 -1.5502 -0.2033
  558MOL0     H76952  11.446   0.531   1.401  1.2262  0.1754  0.5145
  558MOL0     H76953  11.702   0.570   1.602  1.4089  0.0045 -2.1897
  558MOL0     H76954  11.946   0.451   1.629  0.4607 -0.0533 -0.1040
  558MOL0     H76955  11.958   0.276   1.655  4.3379  2.3800 -1.6893
  558MOL0     H76956  12.015   0.441   1.852  0.3461  0.8579  0.5189
  558MOL0     H76957  11.857   0.500   1.841  1.9063  0.6671  3.2463
  558MOL0     H76958  11.944   0.219   1.947  0.8747  1.4793  4.6350
  558MOL0     H76959  11.888   0.343   2.045  1.3943  0.1111  0.3314
  558MOL0     H76960  11.678   0.358   1.932  0.8334 -0.3166 -2.9648
  558MOL0     H76961  11.712   0.196   1.854  1.0303 -0.7029 -0.0441
  558MOL0     H76962  11.570   0.048   2.232  0.8667 -1.5949 -2.4060
  558MOL0     H76963  11.410  -0.031   2.368  0.2729 -0.7168 -0.1330
  558MOL0     H76964  11.265  -0.086   2.266 -1.3461  0.8278  0.8451
  558MOL0     H76965  11.255   0.052   2.380 -0.0812 -0.3939  1.1571
  558MOL0     H76966  10.913   0.319   2.222 -0.2699  1.5069  0.1767
  558MOL0     H76967  10.670   0.358   2.216  0.1932  4.2538 -2.0820
  558MOL0     H76968  10.448   0.184   1.848  2.0078  2.7108  0.2952
  558MOL0     H76969  10.458   0.114   2.017  1.3348 -1.5053 -2.0117
  558MOL0     H76970  10.278   0.232   2.093  0.5186 -1.9299 -0.2586
  558MOL0     H76971  10.253   0.328   1.942 -0.9399  0.1977 -0.4405
  558MOL0     H76972  10.244   0.029   1.987 -3.1737 -0.1385  2.1046
  558MOL0     H76973  10.184   0.087   1.829  0.7487 -1.2035  0.8650
  558MOL0     H76974   9.998   0.202   1.943  1.8304 -0.0030 -1.9606
  558MOL0     H76975  10.046   0.152   2.095 -1.1572 -0.8956  0.3656
  558MOL0     H76976  10.044  -0.098   1.975  0.4403  1.2606  0.9514
  558MOL0     H76977   9.901  -0.032   2.047 -0.8413  0.0206 -0.5662
  558MOL0     H76978   9.995   0.042   1.763  2.1308 -0.3620  1.4890
  558MOL0     H76979   9.837   0.068   1.821 -0.6266 -0.9438  1.0359
  558MOL0     H76980   9.821  -0.114   1.674 -2.1942  0.5000  0.9989
  558MOL0     H76981   9.771  -0.174   1.830 -0.4325 -0.2446 -0.8518
  558MOL0     H76982   9.913  -0.333   1.683 -2.8713  0.3605  1.5278
  558MOL0     H76983  10.005  -0.301   1.832 -1.9027  0.1889  1.6502
  558MOL0     H76984  10.652   0.189   1.819  2.6982 -1.4565 -2.1932
  558MOL0     H76985  10.890   0.112   1.852 -1.9970 -1.6484 -0.1999
  558MOL0     H76986  11.251   0.235   1.915  0.7374 -0.1703 -1.6992
  558MOL0     H76987  11.475   0.283   1.887 -0.0275  0.3195  0.2036
  558MOL0     H76988  10.910   1.331   1.637  0.0831 -0.3865  0.1909
  558MOL0     H76989  10.696   1.473   1.617  2.5171 -1.6963 -1.8286
  558MOL0     H76990  10.245   1.330   1.713  5.3618  1.8152  0.7085
  558MOL0     H76991  10.002   1.379   1.643  0.4242 -0.1094 -1.1166
  558MOL0     H76992   9.858   1.778   1.726  0.4030 -0.1406  1.3925
  558MOL0     H76993   9.697   1.716   1.680  0.3352 -0.3878 -0.7964
  558MOL0     H76994   9.719   1.804   1.905  0.6919  1.0484 -1.6926
  558MOL0     H76995   9.819   1.660   1.954 -0.6129  1.3958  1.6355
  558MOL0     H76996   9.575   1.580   1.817 -1.7460 -1.7132  0.8256
  558MOL0     H76997   9.627   1.525   1.979  0.1635  0.0738  1.6857
  558MOL0     H76998   9.503   1.803   1.955 -0.8457 -0.1730  2.5812
  558MOL0     H76999   9.524   1.692   2.094  2.2715  0.7598  0.6269
  558MOL0     H77000   9.146   1.577   1.930  0.2561 -0.8581  0.5012
  558MOL0     H77001  10.007   1.744   1.850  0.8788 -1.0398  2.1575
  558MOL0     H77002  10.319   1.666   2.037  1.8060  2.0627 -0.0220
  558MOL0     H77003  10.354   1.783   1.914  2.5662 -1.5610  0.3827
  558MOL0     H77004  10.195   1.787   2.007  0.2101 -0.8519  0.5087
  559MOL0     O77005   3.036   1.973  10.990  0.2168 -0.0967  0.6568
  559MOL0     C77006   2.972   1.878  11.052 -0.1766  0.1037  0.1728
  559MOL0     O77007   3.032   1.769  11.105  0.4852 -0.4043  0.6820
  559MOL0     C77008   3.173   1.765  11.113  0.2837  0.4524 -0.0147
  559MOL0     C77009   3.242   1.846  11.212  0.2700  0.6460 -0.8010
  559MOL0     C77010   3.389   1.840  11.222  0.4108 -0.9636 -0.3623
  559MOL0     C77011   3.465   1.747  11.150  0.1024  0.4044 -0.1138
  559MOL0     O77012   3.598   1.760  11.176 -0.3160  0.0585  0.3646
  559MOL0     C77013   3.691   1.661  11.120  0.9895 -0.1657  0.3955
  559MOL0     C77014   3.733   1.688  10.967  0.2156 -0.0262 -0.2076
  559MOL0     C77015   3.781   1.833  10.939  0.4233 -0.2422 -0.5936
  559MOL0     C77016   3.905   1.876  11.020 -0.2656  0.8310 -0.0209
  559MOL0     C77017   3.952   2.013  10.975 -0.2179  0.1753  0.5962
  559MOL0     C77018   4.091   2.061  11.025  0.6211  0.4784  1.0429
  559MOL0     C77019   4.098   2.211  11.017 -0.4039 -1.4185  0.5790
  559MOL0     C77020   4.189   2.276  11.119 -0.3549  0.1618 -0.4697
  559MOL0     N77021   4.154   2.238  11.259  0.0878  0.5432  0.9509
  559MOL0     C77022   4.038   2.267  11.321 -0.7415  0.2459  0.8543
  559MOL0     C77023   4.049   2.211  11.442 -0.0018  0.3659 -0.5674
  559MOL0     C77024   3.941   2.226  11.546 -1.5896  0.4625 -0.8046
  559MOL0     C77025   3.807   2.141  11.530 -0.6038 -0.1821  0.9647
  559MOL0     C77026   3.755   2.125  11.381  0.5003 -0.3887 -0.3379
  559MOL0     C77027   3.609   2.088  11.365  0.3625 -1.0342  0.0561
  559MOL0     O77028   3.544   2.210  11.412  0.3627  0.1226  0.5662
  559MOL0     C77029   3.413   2.193  11.458 -0.4506 -0.4171  0.4292
  559MOL0     C77030   3.313   2.225  11.370 -0.4618 -1.0624 -0.0818
  559MOL0     C77031   3.181   2.211  11.399  0.8993 -0.6415 -0.2520
  559MOL0     C77032   3.079   2.219  11.286 -0.4693 -0.2762  0.1960
  559MOL0     C77033   3.147   2.185  11.541 -0.4423  0.5329  0.0224
  559MOL0     C77034   3.008   2.162  11.585  0.2619 -0.1466  0.0215
  559MOL0     O77035   2.924   2.102  11.493  0.1154 -0.2220 -0.3532
  559MOL0     C77036   2.796   2.062  11.524  0.1792 -0.4063 -0.0765
  559MOL0     C77037   2.690   2.105  11.433  0.6852  0.7376 -1.4174
  559MOL0     C77038   2.561   2.062  11.465  0.4073 -0.2411 -0.1716
  559MOL0     C77039   2.522   1.996  11.583 -0.3015  0.9301 -0.3346
  559MOL0     O77040   2.397   1.959  11.626 -0.6764 -0.4970 -0.9471
  559MOL0     C77041   2.296   2.054  11.582 -1.5500 -0.2922 -0.4882
  559MOL0     C77042   2.167   2.039  11.679 -0.3297  0.5324  0.1955
  559MOL0     C77043   2.188   2.114  11.812  0.4739 -0.2436 -0.2527
  559MOL0     C77044   2.075   2.074  11.901 -0.2967  0.2826  0.0119
  559MOL0     C77045   2.109   2.148  12.037 -0.8926 -0.1489 -0.7445
  559MOL0     C77046   2.232   2.094  12.121 -0.2308 -0.4531  0.2419
  559MOL0     C77047   2.243   2.141  12.260 -0.4307  0.4732 -0.3837
  559MOL0     C77048   2.137   2.082  12.359 -1.3787 -0.3527 -0.9230
  559MOL0    Cl77049   2.172   2.164  12.518 -0.4100 -0.3946  0.0526
  559MOL0     C77050   2.627   1.953  11.664 -0.6686 -0.2940 -0.1535
  559MOL0     C77051   2.762   1.991  11.639  0.6001  0.2099  1.1600
  559MOL0     O77052   2.973   2.189  11.702  0.2860 -0.0431 -0.4781
  559MOL0     C77053   3.252   2.171  11.631  0.4976 -0.6596  0.6852
  559MOL0     C77054   3.387   2.166  11.588  0.9366 -0.7889  0.1044
  559MOL0     N77055   4.168   2.144  11.455 -0.5757  0.6432 -0.1616
  559MOL0     N77056   4.232   2.163  11.342 -0.0381  0.2055  0.3894
  559MOL0     C77057   3.395   1.671  11.062 -0.6556 -0.2681  0.4679
  559MOL0     C77058   3.255   1.673  11.047  0.1061 -0.1157 -0.2861
  559MOL0     C77059   2.824   1.898  11.062  0.3925  0.0066 -0.1003
  559MOL0     C77060   2.772   2.011  11.006  0.0695  0.5895  0.3400
  559MOL0     C77061   2.641   2.051  11.036 -0.6678 -0.0571  0.4422
  559MOL0     C77062   2.548   1.957  11.088 -0.8044 -0.3861 -0.4095
  559MOL0     O77063   2.412   1.992  11.081 -0.3872  0.2647  0.7674
  559MOL0     C77064   2.309   1.899  11.116 -0.0484  0.7322 -0.1143
  559MOL0     C77065   2.173   1.954  11.062  0.9121 -0.3459 -0.3037
  559MOL0     C77066   2.049   1.896  11.122 -0.4565  0.2470 -0.2530
  559MOL0     C77067   1.926   1.932  11.040  0.2802 -0.2722  0.6294
  559MOL0     C77068   1.898   2.078  11.020 -0.6962 -0.1426 -0.6229
  559MOL0     C77069   1.882   2.196  10.996  1.1405 -0.3850 -0.0670
  559MOL0     C77070   2.596   1.836  11.131 -0.6014  0.1664  0.4564
  559MOL0     C77071   2.735   1.807  11.130  1.1602 -0.1115 -0.4300
  559MOL0     C77072   2.785   1.690  11.213  0.4962  0.3793 -0.1443
  559MOL0     H77073   3.186   1.911  11.278  0.1837 -0.3286  0.1143
  559MOL0     H77074   3.443   1.918  11.274 -1.5941  1.6124 -1.9181
  559MOL0     H77075   3.646   1.562  11.128  2.6552 -1.0627 -0.7422
  559MOL0     H77076   3.780   1.659  11.183  0.1555  0.4832  1.6538
  559MOL0     H77077   3.802   1.610  10.935  0.0218  0.1518 -1.0815
  559MOL0     H77078   3.661   1.657  10.891  2.5921  0.6242 -2.8960
  559MOL0     H77079   3.811   1.842  10.834  1.4610 -1.5060 -0.4270
  559MOL0     H77080   3.695   1.900  10.946 -0.8569 -2.0260  3.7018
  559MOL0     H77081   3.873   1.885  11.125  1.5184  2.2214  0.4451
  559MOL0     H77082   3.983   1.800  11.011 -1.1465 -0.5399  2.5913
  559MOL0     H77083   3.868   2.075  11.009 -1.8063 -1.2483 -0.5701
  559MOL0     H77084   3.966   2.015  10.867  1.6869  1.0442  0.8075
  559MOL0     H77085   4.114   2.024  11.126  0.7139 -3.2141 -0.1747
  559MOL0     H77086   4.163   2.018  10.956 -0.5979  2.1268 -1.3920
  559MOL0     H77087   4.001   2.261  11.026 -0.2854  0.0463 -3.9113
  559MOL0     H77088   4.125   2.244  10.916 -1.7507 -0.6700  0.4361
  559MOL0     H77089   4.288   2.237  11.096 -1.6835 -2.9886 -1.4232
  559MOL0     H77090   4.190   2.385  11.107 -1.0259  0.1152 -1.0592
  559MOL0     H77091   3.947   2.317  11.288 -1.5771 -2.2656 -0.9582
  559MOL0     H77092   3.920   2.333  11.556  2.4840  1.2889  0.5758
  559MOL0     H77093   3.982   2.190  11.641 -2.9358 -1.2795 -0.8219
  559MOL0     H77094   3.819   2.041  11.571  3.4824  0.7978  2.7228
  559MOL0     H77095   3.724   2.186  11.586 -1.1860 -0.0198 -0.0024
  559MOL0     H77096   3.772   2.220  11.329  3.6111 -1.3028 -1.2523
  559MOL0     H77097   3.827   2.053  11.341  0.1838 -1.0507  0.2552
  559MOL0     H77098   3.599   2.070  11.258 -1.4432 -1.2720  0.2373
  559MOL0     H77099   3.592   2.000  11.427 -1.0046  0.1397  1.4435
  559MOL0     H77100   3.351   2.251  11.271  0.1884 -0.8905  0.2067
  559MOL0     H77101   3.019   2.310  11.278  2.3303  1.6837 -0.0729
  559MOL0     H77102   3.014   2.132  11.275 -1.8575  0.5427  1.5672
  559MOL0     H77103   3.136   2.227  11.192  2.0673  1.7446  1.7609
  559MOL0     H77104   2.705   2.161  11.341  1.5586  1.8749 -0.6178
  559MOL0     H77105   2.482   2.081  11.392 -1.1375  1.1150  1.7355
  559MOL0     H77106   2.331   2.157  11.584  4.4001 -1.8680 -3.1552
  559MOL0     H77107   2.252   2.026  11.486 -2.4931 -1.6376  0.2986
  559MOL0     H77108   2.085   2.094  11.632 -1.1500 -0.5746  0.2938
  559MOL0     H77109   2.133   1.937  11.701  0.4645  0.0781 -0.6030
  559MOL0     H77110   2.197   2.222  11.801 -1.8370  0.3451  2.5353
  559MOL0     H77111   2.283   2.081  11.856 -0.5717 -0.6421  1.8356
  559MOL0     H77112   2.069   1.966  11.919  0.3843  0.2242 -0.0746
  559MOL0     H77113   1.979   2.116  11.869 -0.8287 -0.8153  0.1303
  559MOL0     H77114   2.140   2.252  12.021 -0.9040 -0.4387 -3.0963
  559MOL0     H77115   2.014   2.152  12.090  0.6107  1.5913  2.0637
  559MOL0     H77116   2.322   2.115  12.062 -1.7034  2.8538 -1.0934
  559MOL0     H77117   2.221   1.985  12.128  0.0199 -0.3995  1.6218
  559MOL0     H77118   2.248   2.251  12.255 -0.4158  0.4680 -0.4777
  559MOL0     H77119   2.331   2.108  12.316 -0.4093  1.3239  0.1114
  559MOL0     H77120   2.155   1.975  12.373 -0.1862  0.0068  0.5176
  559MOL0     H77121   2.032   2.096  12.332 -1.2629  0.5159 -0.9616
  559MOL0     H77122   2.604   1.903  11.758  0.9976  0.6029  0.7747
  559MOL0     H77123   2.843   1.952  11.700 -0.3131 -0.3469  2.0641
  559MOL0     H77124   3.250   2.163  11.740  0.0260 -1.1012  0.6463
  559MOL0     H77125   3.476   2.156  11.649  0.5239 -1.5452  0.5830
  559MOL0     H77126   3.456   1.601  11.006  1.0218  0.3193  1.4843
  559MOL0     H77127   3.209   1.602  10.979  0.2167  0.5019 -1.0301
  559MOL0     H77128   2.834   2.086  10.957 -0.7879  0.3100 -1.2325
  559MOL0     H77129   2.612   2.150  11.004  4.0321  1.7797  1.0325
  559MOL0     H77130   2.331   1.796  11.088  3.7016  0.8834  1.6962
  559MOL0     H77131   2.310   1.887  11.225 -0.4256 -2.0304 -0.3455
  559MOL0     H77132   2.175   1.929  10.956  0.4840  0.1133 -0.4265
  559MOL0     H77133   2.177   2.063  11.067 -0.3560 -0.2336 -1.1774
  559MOL0     H77134   2.043   1.787  11.117 -1.0142  0.2666 -0.0938
  559MOL0     H77135   2.039   1.925  11.227  1.5471  1.3783 -0.3392
  559MOL0     H77136   1.843   1.882  11.092 -0.7663 -0.8006 -1.4358
  559MOL0     H77137   1.930   1.873  10.948  0.4771 -0.1678  0.5713
  559MOL0     H77138   1.862   2.295  10.959 -1.7913 -0.3390  1.3551
  559MOL0     H77139   2.530   1.759  11.170  1.0934 -0.0977  3.0687
  559MOL0     H77140   2.851   1.619  11.163  3.3318  1.4033  1.8970
  559MOL0     H77141   2.842   1.719  11.302  0.8605  1.6484 -0.7716
  559MOL0     H77142   2.692   1.643  11.249 -0.0343  2.0007  0.6817
  560MOL0     O77143   7.293   6.399   7.755 -0.3315  0.0524 -0.7270
  560MOL0     C77144   7.341   6.492   7.823  0.8611  0.6335  0.8127
  560MOL0     O77145   7.420   6.473   7.925  0.5066 -0.4023  0.4207
  560MOL0     C77146   7.426   6.344   7.982  0.2790  0.1726  0.9831
  560MOL0     C77147   7.537   6.260   7.962  0.1783  0.6974 -0.1488
  560MOL0     C77148   7.554   6.144   8.041  0.8481 -0.0938  0.1246
  560MOL0     C77149   7.456   6.114   8.142 -0.0304 -0.2279 -0.3834
  560MOL0     O77150   7.483   6.007   8.231  0.8668  0.1425  0.2234
  560MOL0     C77151   7.405   5.983   8.344 -0.7722 -0.0727  0.0425
  560MOL0     C77152   7.441   5.849   8.421  0.2280  0.2313 -0.4185
  560MOL0     C77153   7.368   5.727   8.359 -0.2879 -0.8300 -0.0674
  560MOL0     C77154   7.393   5.604   8.447  0.5918 -0.7410  0.9680
  560MOL0     C77155   7.337   5.470   8.405 -0.2853 -0.7885 -0.0590
  560MOL0     C77156   7.360   5.422   8.264 -0.2603 -0.4530 -0.8141
  560MOL0     C77157   7.509   5.378   8.250 -0.0228 -0.2466 -0.3428
  560MOL0     C77158   7.538   5.301   8.122  0.2615 -0.0784  0.7264
  560MOL0     N77159   7.522   5.376   7.993  0.4760 -0.1711 -0.4739
  560MOL0     C77160   7.598   5.489   7.959 -0.1085 -0.5849  0.7097
  560MOL0     C77161   7.523   5.540   7.853  0.1513 -0.5745 -0.6882
  560MOL0     C77162   7.564   5.677   7.786 -0.5177  0.7858  1.0101
  560MOL0     C77163   7.450   5.773   7.757 -0.5586  0.5717  0.4911
  560MOL0     C77164   7.389   5.826   7.891  0.0666 -0.0306  0.7796
  560MOL0     C77165   7.312   5.959   7.860 -0.2587  0.8917 -0.3752
  560MOL0     O77166   7.202   5.926   7.772 -0.1424  0.1488 -0.4517
  560MOL0     C77167   7.114   6.026   7.747  0.3908 -0.4901  0.4012
  560MOL0     C77168   7.004   5.979   7.674  0.5318 -0.1304  0.5127
  560MOL0     C77169   6.892   6.055   7.651 -0.1891 -0.4458  0.1525
  560MOL0     C77170   6.793   6.017   7.548 -0.2163 -0.1523  0.0619
  560MOL0     C77171   6.889   6.187   7.702 -0.3930 -0.5502 -0.2181
  560MOL0     C77172   6.769   6.283   7.701 -0.5172  0.1059  0.3491
  560MOL0     O77173   6.798   6.404   7.751  0.4803  0.1330 -0.7399
  560MOL0     C77174   6.699   6.499   7.728 -0.4458 -0.4662 -0.0396
  560MOL0     C77175   6.658   6.521   7.595  0.1483 -0.0501  0.8935
  560MOL0     C77176   6.554   6.610   7.562  0.0225  0.0490  0.2183
  560MOL0     C77177   6.506   6.691   7.672  0.8101  0.2218 -0.1870
  560MOL0     O77178   6.395   6.765   7.647  0.2841  0.6824 -0.3613
  560MOL0     C77179   6.378   6.882   7.726 -0.8009 -1.1225  0.7508
  560MOL0     C77180   6.291   6.975   7.640 -0.6860 -0.3302 -0.4123
  560MOL0     C77181   6.364   7.034   7.524  0.2052  0.7524  0.4514
  560MOL0     C77182   6.270   7.098   7.421 -0.6132  1.3585 -0.0957
  560MOL0     C77183   6.363   7.133   7.297  0.7542 -0.7414 -0.4614
  560MOL0     C77184   6.289   7.206   7.176 -0.6846 -0.5692 -0.6861
  560MOL0     C77185   6.237   7.347   7.219 -0.2232 -0.4028  0.3762
  560MOL0     C77186   6.213   7.439   7.102  0.6774 -0.7529  0.0860
  560MOL0    Cl77187   6.106   7.355   6.981 -0.0815 -0.0644  0.3994
  560MOL0     C77188   6.548   6.673   7.802 -0.1208 -0.6654  0.2714
  560MOL0     C77189   6.647   6.573   7.830 -0.2663  0.3059  0.9281
  560MOL0     O77190   6.662   6.248   7.666  0.0397 -0.4290 -0.3231
  560MOL0     C77191   7.006   6.229   7.773  0.2413 -0.1333 -0.1564
  560MOL0     C77192   7.117   6.157   7.792 -0.3138 -0.3531 -0.5762
  560MOL0     N77193   7.426   5.452   7.812  0.4816  0.3043  0.2380
  560MOL0     N77194   7.426   5.355   7.899 -0.4476 -1.1730 -0.4700
  560MOL0     C77195   7.348   6.195   8.155  1.1323 -1.2134 -0.2133
  560MOL0     C77196   7.334   6.312   8.081  0.4555  0.5365 -0.0318
  560MOL0     C77197   7.300   6.633   7.810  0.5099 -1.1265 -0.3078
  560MOL0     C77198   7.396   6.731   7.852  0.5003  0.4729 -0.2551
  560MOL0     C77199   7.358   6.868   7.851 -0.6627 -0.6825 -0.0271
  560MOL0     C77200   7.229   6.904   7.804 -1.0062 -1.0028 -0.2289
  560MOL0     O77201   7.182   7.037   7.798  0.2995  0.4787  0.8701
  560MOL0     C77202   7.272   7.154   7.785  0.8491  0.0197 -0.8674
  560MOL0     C77203   7.304   7.161   7.633 -0.1686 -0.1767 -0.0725
  560MOL0     C77204   7.363   7.301   7.592  0.2815  0.7971 -1.0709
  560MOL0     C77205   7.417   7.306   7.452  0.5568 -0.1981 -0.4015
  560MOL0     C77206   7.324   7.322   7.340  0.8405  0.4573 -0.7911
  560MOL0     C77207   7.240   7.317   7.257 -0.2037  1.2347  0.2336
  560MOL0     C77208   7.145   6.807   7.768  0.0209 -0.2616  1.0316
  560MOL0     C77209   7.178   6.677   7.762 -0.0979 -0.3834  1.0227
  560MOL0     C77210   7.068   6.589   7.706  0.3595 -0.8833 -0.1644
  560MOL0     H77211   7.593   6.276   7.870  0.0292 -2.1979 -0.8596
  560MOL0     H77212   7.631   6.068   8.029  1.7679  0.9382 -0.7350
  560MOL0     H77213   7.301   5.990   8.312 -0.1889  3.6925 -1.4566
  560MOL0     H77214   7.427   6.059   8.420  2.3995 -2.7667  2.1096
  560MOL0     H77215   7.549   5.844   8.433  0.0769  0.4493  1.2767
  560MOL0     H77216   7.401   5.852   8.523 -0.2808  0.3221 -0.6185
  560MOL0     H77217   7.259   5.737   8.354 -1.0292 -6.1230 -4.2392
  560MOL0     H77218   7.382   5.705   8.253 -2.5886 -1.4141 -0.3051
  560MOL0     H77219   7.500   5.591   8.466  0.8316  1.2420  1.1864
  560MOL0     H77220   7.342   5.621   8.542  2.0278  0.6536  1.5315
  560MOL0     H77221   7.229   5.489   8.404 -0.6088 -2.4382 -1.1557
  560MOL0     H77222   7.360   5.401   8.487  2.4367  2.2029  1.9211
  560MOL0     H77223   7.286   5.344   8.243 -4.6755  2.2645  2.6345
  560MOL0     H77224   7.346   5.498   8.187  1.4418  0.6073 -0.1357
  560MOL0     H77225   7.548   5.324   8.337  1.1773  0.1599 -0.6083
  560MOL0     H77226   7.575   5.466   8.248 -0.2502 -0.0295  0.7810
  560MOL0     H77227   7.645   5.280   8.120  0.6691  1.9061  0.1589
  560MOL0     H77228   7.482   5.207   8.113 -3.3937  1.9159  0.7814
  560MOL0     H77229   7.685   5.539   8.001 -0.2316 -1.6075  2.2395
  560MOL0     H77230   7.618   5.668   7.691  0.0396  1.3220  1.2671
  560MOL0     H77231   7.640   5.715   7.855 -1.2227  1.5918  1.3535
  560MOL0     H77232   7.480   5.856   7.693 -0.7340  2.1524  2.3527
  560MOL0     H77233   7.377   5.714   7.701  0.6996  0.3165 -0.9331
  560MOL0     H77234   7.313   5.755   7.926  1.1367 -1.2556  0.6818
  560MOL0     H77235   7.471   5.850   7.959  2.7579 -0.3465 -2.1353
  560MOL0     H77236   7.272   5.988   7.957  2.9276  0.3039  1.2511
  560MOL0     H77237   7.378   6.030   7.809  0.6706  1.3281  1.3699
  560MOL0     H77238   7.015   5.884   7.624 -0.3211  0.2841 -0.4993
  560MOL0     H77239   6.834   5.934   7.489 -1.8097 -2.1326  1.5620
  560MOL0     H77240   6.769   6.108   7.492 -1.3014  3.0290  5.0674
  560MOL0     H77241   6.704   5.966   7.586  0.2346 -2.4634 -1.7494
  560MOL0     H77242   6.704   6.466   7.514  1.0023  0.1984  1.1977
  560MOL0     H77243   6.525   6.641   7.461 -1.7890  6.2539  2.1745
  560MOL0     H77244   6.327   6.865   7.821 -0.9749  0.0992  0.8847
  560MOL0     H77245   6.469   6.936   7.753  0.0125 -0.2637 -3.0696
  560MOL0     H77246   6.207   6.921   7.596 -0.4068 -1.0880 -0.0306
  560MOL0     H77247   6.270   7.058   7.709  1.4114 -0.0025 -0.1018
  560MOL0     H77248   6.439   6.966   7.482 -0.4024  0.3054  0.0761
  560MOL0     H77249   6.416   7.121   7.565 -0.1460  0.5335  1.3832
  560MOL0     H77250   6.228   7.194   7.453  0.6698  1.4054  1.5894
  560MOL0     H77251   6.187   7.032   7.394  2.1386 -2.1425 -0.6994
  560MOL0     H77252   6.443   7.199   7.335 -1.9644  0.7773  3.2296
  560MOL0     H77253   6.398   7.035   7.264  2.4220 -0.4021  0.1601
  560MOL0     H77254   6.210   7.139   7.140 -0.3420 -2.0355  1.1325
  560MOL0     H77255   6.364   7.221   7.098  0.4956 -3.9709 -0.3900
  560MOL0     H77256   6.316   7.384   7.286 -0.4393 -0.9638  0.9504
  560MOL0     H77257   6.146   7.326   7.274 -1.1691  1.2667 -0.4688
  560MOL0     H77258   6.311   7.466   7.061  1.9825 -1.3382  2.6625
  560MOL0     H77259   6.164   7.531   7.135  3.0562  1.2672 -1.5615
  560MOL0     H77260   6.510   6.726   7.889  0.6002 -1.7372  1.2721
  560MOL0     H77261   6.687   6.568   7.931  1.7386 -0.5928  0.1406
  560MOL0     H77262   7.005   6.329   7.814  0.2927 -0.3551  0.3986
  560MOL0     H77263   7.191   6.192   7.863  0.7886  0.0392 -1.8735
  560MOL0     H77264   7.265   6.186   8.225  0.0887  2.7345 -0.7001
  560MOL0     H77265   7.264   6.394   8.091  1.7686  1.4461  2.8219
  560MOL0     H77266   7.490   6.695   7.891  1.1133  2.8532  0.6315
  560MOL0     H77267   7.431   6.943   7.881 -0.2034 -1.9770  2.3490
  560MOL0     H77268   7.237   7.256   7.797  0.5600  0.2156 -2.9121
  560MOL0     H77269   7.364   7.147   7.844 -1.3669 -0.5469  2.8325
  560MOL0     H77270   7.206   7.152   7.584 -2.3021  0.7993  3.5961
  560MOL0     H77271   7.375   7.085   7.601 -0.1774 -0.6522  0.9926
  560MOL0     H77272   7.288   7.377   7.616  0.4511  0.6053  0.1805
  560MOL0     H77273   7.447   7.318   7.659 -1.1079  0.2859  0.9068
  560MOL0     H77274   7.470   7.213   7.427 -0.3621 -0.8456  0.0029
  560MOL0     H77275   7.485   7.391   7.460 -1.6834  1.4799  3.8854
  560MOL0     H77276   7.154   7.321   7.193 -0.8884  0.9219  1.1209
  560MOL0     H77277   7.039   6.827   7.754 -0.2175 -1.8122  0.3951
  560MOL0     H77278   7.002   6.546   7.781  2.2920 -0.4879  1.8668
  560MOL0     H77279   7.000   6.646   7.642 -0.7451 -2.2306 -0.2317
  560MOL0     H77280   7.098   6.495   7.658 -2.5431 -2.7330  1.3743
  561MOL0     O77281  10.198   1.785   1.362 -0.2721  0.6371 -0.0248
  561MOL0     C77282  10.094   1.821   1.320  1.1557  0.1610  0.7615
  561MOL0     O77283  10.049   1.803   1.187 -0.3661  0.0354 -0.2143
  561MOL0     C77284  10.140   1.736   1.111 -0.1154  0.1234 -0.1337
  561MOL0     C77285  10.131   1.591   1.105  0.2693 -0.1104 -0.4708
  561MOL0     C77286  10.211   1.513   1.016 -0.3694 -0.0170 -0.2977
  561MOL0     C77287  10.309   1.577   0.933  0.3918  0.8151 -0.6660
  561MOL0     O77288  10.394   1.518   0.847 -0.3269  0.4090 -1.2728
  561MOL0     C77289  10.357   1.390   0.794  0.1478 -0.4912 -0.2984
  561MOL0     C77290  10.471   1.346   0.698  0.0739  0.3841 -0.3052
  561MOL0     C77291  10.599   1.318   0.779 -0.7232  0.1219 -0.2805
  561MOL0     C77292  10.705   1.259   0.686  0.8405 -0.3110 -0.5919
  561MOL0     C77293  10.844   1.273   0.759  0.0156  0.4505  0.1492
  561MOL0     C77294  10.903   1.417   0.732 -0.8843  0.2676 -1.0639
  561MOL0     C77295  11.044   1.432   0.779 -1.0581 -0.3253 -0.5069
  561MOL0     C77296  11.069   1.417   0.924 -0.3147  0.8487 -0.8183
  561MOL0     N77297  11.198   1.474   0.960  0.4918  0.3755  0.4737
  561MOL0     C77298  11.213   1.597   1.008  0.5587 -0.4615  0.3706
  561MOL0     C77299  11.340   1.620   1.033 -0.4395 -0.2945  0.1624
  561MOL0     C77300  11.410   1.740   1.115 -0.3023  0.3009 -0.2945
  561MOL0     C77301  11.486   1.827   1.019  0.1867 -0.2864 -0.5244
  561MOL0     C77302  11.549   1.951   1.089  0.7895 -0.2360 -0.1071
  561MOL0     C77303  11.654   1.918   1.193 -0.0999  0.1226 -0.2461
  561MOL0     O77304  11.750   1.830   1.138  0.1454 -0.6979 -0.5283
  561MOL0     C77305  11.847   1.865   1.051 -0.7333 -1.3876  0.1813
  561MOL0     C77306  11.865   1.983   0.981  0.7456 -0.8885 -0.0926
  561MOL0     C77307  11.958   2.004   0.875  0.3002  0.0096  0.8520
  561MOL0     C77308  11.948   2.143   0.815  0.1681  0.1486 -0.1447
  561MOL0     C77309  12.049   1.902   0.840  0.1456  0.3536 -0.6891
  561MOL0     C77310  12.147   1.913   0.722  1.3491 -0.0949 -0.5091
  561MOL0     O77311  12.200   1.789   0.699 -0.3073 -0.5648  0.3105
  561MOL0     C77312  12.251   1.773   0.576 -0.8673  0.2997 -0.0081
  561MOL0     C77313  12.185   1.674   0.497 -1.0130 -0.3848 -0.4035
  561MOL0     C77314  12.206   1.664   0.359 -0.6413  0.0688 -0.0492
  561MOL0     C77315  12.306   1.748   0.299  0.4908  0.5544  0.1447
  561MOL0     O77316  12.328   1.722   0.164 -0.1547 -0.6916  0.4535
  561MOL0     C77317  12.365   1.831   0.079 -0.1453 -0.0844  0.1231
  561MOL0     C77318  12.363   1.794  -0.063 -0.6708 -0.0291  0.5716
  561MOL0     C77319  12.484   1.707  -0.106  0.6191 -0.8771  0.0711
  561MOL0     C77320  12.480   1.678  -0.252  0.4325  0.6289  0.5521
  561MOL0     C77321  12.582   1.568  -0.291 -0.0531  0.8221  0.6164
  561MOL0     C77322  12.539   1.502  -0.429 -0.2586  0.6147 -0.8579
  561MOL0     C77323  12.651   1.417  -0.484  0.1552 -0.3350 -0.3508
  561MOL0     C77324  12.615   1.368  -0.619  0.4281 -0.4432 -0.3652
  561MOL0    Cl77325  12.509   1.220  -0.615  0.3624 -0.0124 -0.3041
  561MOL0     C77326  12.375   1.841   0.378 -0.0752  0.2309 -0.7967
  561MOL0     C77327  12.349   1.853   0.513  0.4314  0.7350 -0.3741
  561MOL0     O77328  12.152   2.022   0.661 -0.0225  0.1621 -0.2336
  561MOL0     C77329  12.032   1.779   0.912  1.2375 -0.2447 -0.1337
  561MOL0     C77330  11.926   1.762   1.008 -0.8577  0.1512 -1.5642
  561MOL0     N77331  11.398   1.501   0.992  1.0662 -0.2643  0.7862
  561MOL0     N77332  11.318   1.416   0.947 -0.6228  0.7736  0.5972
  561MOL0     C77333  10.315   1.717   0.938  0.1666 -0.5952  0.0274
  561MOL0     C77334  10.234   1.792   1.029 -0.0813 -0.7866  0.1306
  561MOL0     C77335   9.988   1.884   1.409 -0.0929 -0.8297 -0.0063
  561MOL0     C77336   9.853   1.891   1.361  0.3871 -0.4440 -0.1915
  561MOL0     C77337   9.755   1.953   1.426  0.4543 -0.2018  0.5530
  561MOL0     C77338   9.780   2.015   1.550  0.5545  1.2152 -0.4736
  561MOL0     O77339   9.687   2.079   1.634  0.0421  0.2508  0.8034
  561MOL0     C77340   9.554   2.119   1.582 -0.1980  0.2386  0.3973
  561MOL0     C77341   9.446   2.025   1.646  0.0461 -0.4279  0.0714
  561MOL0     C77342   9.325   2.011   1.564 -0.2346  0.7560 -0.4917
  561MOL0     C77343   9.265   2.133   1.509  0.0602 -0.9175  0.4150
  561MOL0     C77344   9.224   2.232   1.614  0.8318  0.1063  0.5785
  561MOL0     C77345   9.192   2.301   1.703  0.1937 -0.5085 -0.5941
  561MOL0     C77346   9.909   2.012   1.597  0.3402  0.9398  0.0401
  561MOL0     C77347  10.009   1.944   1.535 -0.2731 -0.1313  0.5134
  561MOL0     C77348  10.140   1.968   1.595 -0.6569  0.3329 -0.3443
  561MOL0     H77349  10.054   1.535   1.158 -0.2356  0.5885 -0.4405
  561MOL0     H77350  10.201   1.405   1.010 -1.6312 -0.0743  1.9093
  561MOL0     H77351  10.260   1.403   0.745 -1.2982 -2.3144  1.8678
  561MOL0     H77352  10.337   1.312   0.868 -0.7909  0.3584  0.3652
  561MOL0     H77353  10.457   1.260   0.632  1.6381  0.9274 -1.4313
  561MOL0     H77354  10.499   1.426   0.628 -0.2010 -0.4930 -1.4409
  561MOL0     H77355  10.638   1.417   0.803 -0.1148  0.3670 -2.1893
  561MOL0     H77356  10.579   1.260   0.870 -1.6857  3.1734  1.5974
  561MOL0     H77357  10.676   1.159   0.652  2.6559 -1.0541 -0.0863
  561MOL0     H77358  10.701   1.316   0.593  0.0574  3.2771  1.4552
  561MOL0     H77359  10.896   1.198   0.699 -0.2417 -0.9197  1.5514
  561MOL0     H77360  10.838   1.240   0.863  0.6868 -1.4962 -0.3866
  561MOL0     H77361  10.913   1.431   0.624 -1.7940  1.2276 -1.0442
  561MOL0     H77362  10.843   1.488   0.790  0.1354 -0.2475  0.7097
  561MOL0     H77363  11.073   1.535   0.759  2.5437 -1.0879  0.0914
  561MOL0     H77364  11.113   1.377   0.714 -1.2910  0.5814 -1.5615
  561MOL0     H77365  10.992   1.479   0.971  0.2952  1.5924 -0.7677
  561MOL0     H77366  11.051   1.313   0.950 -2.2076  1.3209 -0.0309
  561MOL0     H77367  11.136   1.673   1.014 -1.0748 -1.9849 -0.3634
  561MOL0     H77368  11.476   1.690   1.187  0.3869  0.8845 -0.5164
  561MOL0     H77369  11.333   1.803   1.161  0.6877  2.6533 -1.7121
  561MOL0     H77370  11.557   1.773   0.956  3.3439  2.3370  0.5005
  561MOL0     H77371  11.400   1.855   0.957 -0.6793 -2.9153 -0.6469
  561MOL0     H77372  11.591   2.017   1.012 -1.4502 -0.7275 -1.8377
  561MOL0     H77373  11.467   2.004   1.137 -0.2427  0.5912 -2.6119
  561MOL0     H77374  11.682   2.022   1.214 -5.3120  2.1677 -1.8258
  561MOL0     H77375  11.599   1.884   1.282 -2.7164  3.6475 -0.3099
  561MOL0     H77376  11.787   2.058   0.989  2.0407  0.6818 -1.6150
  561MOL0     H77377  12.045   2.189   0.837 -0.1646  0.9592 -0.3287
  561MOL0     H77378  11.868   2.200   0.864 -0.6026  0.8465 -2.1204
  561MOL0     H77379  11.916   2.143   0.711 -2.0683 -3.0382  0.4018
  561MOL0     H77380  12.114   1.612   0.550  1.0973 -2.0264  0.6458
  561MOL0     H77381  12.154   1.586   0.304 -3.1144  0.6789  1.2875
  561MOL0     H77382  12.292   1.911   0.092 -1.6500 -1.3200 -0.3217
  561MOL0     H77383  12.466   1.863   0.105  0.4008 -0.2597 -1.6238
  561MOL0     H77384  12.277   1.725  -0.066  1.7407 -3.2247 -0.9381
  561MOL0     H77385  12.361   1.886  -0.122 -1.0570  0.5104  1.4043
  561MOL0     H77386  12.480   1.609  -0.056  0.2609 -0.5725  0.6464
  561MOL0     H77387  12.574   1.760  -0.074  2.2630 -3.3093 -0.2559
  561MOL0     H77388  12.509   1.763  -0.315  0.7469  1.6564  2.0242
  561MOL0     H77389  12.381   1.642  -0.283  0.5852  0.9907 -0.3862
  561MOL0     H77390  12.680   1.615  -0.290  0.2716  0.1695  0.3800
  561MOL0     H77391  12.574   1.486  -0.219  0.1376  1.9073  1.9114
  561MOL0     H77392  12.505   1.580  -0.498 -1.2191  0.0590 -1.0334
  561MOL0     H77393  12.448   1.444  -0.408  1.6228 -1.9951  0.5858
  561MOL0     H77394  12.685   1.332  -0.424 -3.5905 -2.3207 -0.7740
  561MOL0     H77395  12.743   1.476  -0.499  0.7667 -1.3373 -0.6640
  561MOL0     H77396  12.705   1.329  -0.667  0.6996  0.4774 -0.6275
  561MOL0     H77397  12.577   1.455  -0.674 -1.4809 -1.0388 -0.0734
  561MOL0     H77398  12.454   1.904   0.338  3.5902 -1.1053  3.4892
  561MOL0     H77399  12.414   1.924   0.563  3.1687  0.3820 -3.1526
  561MOL0     H77400  12.106   1.704   0.886  1.7788  0.4830 -0.7562
  561MOL0     H77401  11.915   1.661   1.046  1.3165 -0.2944 -1.9445
  561MOL0     H77402  10.374   1.760   0.858 -0.9876 -2.6508 -2.0498
  561MOL0     H77403  10.237   1.900   1.023  0.9232 -0.8743 -2.2326
  561MOL0     H77404   9.824   1.854   1.264 -4.7936  2.6193 -0.1510
  561MOL0     H77405   9.657   1.938   1.380 -0.8039  1.6371  2.4583
  561MOL0     H77406   9.546   2.219   1.624  0.4703 -0.4514  2.2572
  561MOL0     H77407   9.544   2.117   1.473 -3.8577 -1.6602  0.6180
  561MOL0     H77408   9.417   2.075   1.739 -0.8979  0.5024 -0.6979
  561MOL0     H77409   9.495   1.931   1.673 -0.3727 -0.6871 -0.0730
  561MOL0     H77410   9.341   1.942   1.480  1.0251 -0.1271  0.4433
  561MOL0     H77411   9.248   1.965   1.626 -2.6038  4.0751 -0.6860
  561MOL0     H77412   9.172   2.109   1.457 -0.2760 -0.7523  0.9316
  561MOL0     H77413   9.331   2.184   1.438 -0.9839 -1.1033 -0.7280
  561MOL0     H77414   9.183   2.375   1.780 -0.8007  0.2437 -1.4065
  561MOL0     H77415   9.918   2.052   1.697  0.3665  0.8888  0.0579
  561MOL0     H77416  10.135   2.058   1.657 -2.3251 -0.6069  0.9909
  561MOL0     H77417  10.156   1.886   1.666  0.6916 -1.0455 -2.1368
  561MOL0     H77418  10.215   1.969   1.515  0.1228 -1.9243  0.2691
  562MOL0     O77419  10.373  11.116   4.121  0.0274  0.4123  0.2175
  562MOL0     C77420  10.406  11.194   4.033  0.5270 -1.0723  0.3355
  562MOL0     O77421  10.346  11.213   3.907  0.9784 -0.6047 -0.5915
  562MOL0     C77422  10.218  11.169   3.877 -1.0869 -0.2561 -0.5475
  562MOL0     C77423  10.140  11.244   3.782 -0.3485 -0.6488  0.2260
  562MOL0     C77424  10.012  11.204   3.744 -0.1258  0.6216 -0.5747
  562MOL0     C77425   9.947  11.084   3.795 -0.3439 -0.6729 -0.6919
  562MOL0     O77426   9.819  11.070   3.755  0.5208  0.6961  0.8841
  562MOL0     C77427   9.757  10.951   3.802 -0.5889  0.2163 -0.6373
  562MOL0     C77428   9.614  10.966   3.797  0.3667 -0.4192 -0.6570
  562MOL0     C77429   9.564  11.088   3.874  0.7231  0.0470 -0.0263
  562MOL0     C77430   9.411  11.116   3.848  0.0858  0.2991 -0.0394
  562MOL0     C77431   9.355  11.206   3.951  0.2642  0.8025 -0.5231
  562MOL0     C77432   9.203  11.229   3.935 -0.2662 -0.9037 -0.2761
  562MOL0     C77433   9.150  11.330   4.042  0.4481  0.0333  0.2701
  562MOL0     C77434   9.009  11.388   4.007  0.3187 -0.4580 -0.2084
  562MOL0     N77435   9.012  11.505   3.927  0.4674 -0.1655 -0.2786
  562MOL0     C77436   9.089  11.624   3.940 -0.0158  0.2082  0.2147
  562MOL0     C77437   9.057  11.707   3.833 -0.1661 -0.0849  0.3906
  562MOL0     C77438   9.118  11.843   3.794  0.8184 -0.0304 -0.3362
  562MOL0     C77439   9.061  11.953   3.896 -0.0269 -0.4702  0.5012
  562MOL0     C77440   9.165  11.982   4.001 -0.5830 -0.2612 -0.4001
  562MOL0     C77441   9.108  12.078   4.105 -1.1112 -0.2963  0.3953
  562MOL0     O77442   8.982  12.040   4.159  0.4130  0.0368 -0.0481
  562MOL0     C77443   8.985  11.961   4.269 -0.6727  0.0473 -0.3486
  562MOL0     C77444   9.055  11.983   4.397 -0.1605 -0.6637  0.5326
  562MOL0     C77445   9.040  11.906   4.515 -0.5705 -0.3860  0.6466
  562MOL0     C77446   9.127  11.927   4.638  0.0404  0.2895 -0.5210
  562MOL0     C77447   8.929  11.819   4.518  0.1258 -0.0210 -0.3063
  562MOL0     C77448   8.897  11.742   4.644  0.1909  0.8053  0.0430
  562MOL0     O77449   8.780  11.763   4.696 -0.6792 -0.7634 -0.2175
  562MOL0     C77450   8.764  11.731   4.826  0.0742 -0.0215 -0.6324
  562MOL0     C77451   8.866  11.736   4.922  0.2877  0.0794 -1.0895
  562MOL0     C77452   8.849  11.708   5.055  0.9576  0.9160  0.2912
  562MOL0     C77453   8.719  11.705   5.108 -0.4966 -0.5546 -0.6803
  562MOL0     O77454   8.695  11.699   5.242  0.2124 -0.3680 -0.6918
  562MOL0     C77455   8.813  11.712   5.333 -0.6960 -0.4526 -0.4241
  562MOL0     C77456   8.752  11.684   5.470  0.0121  0.1069 -0.0647
  562MOL0     C77457   8.851  11.683   5.580 -0.8961  0.1527 -0.4553
  562MOL0     C77458   8.769  11.640   5.705  0.2091  0.1531 -0.0190
  562MOL0     C77459   8.841  11.662   5.836 -0.5788  0.5552 -0.1577
  562MOL0     C77460   8.775  11.602   5.959  0.9955 -0.0454 -1.1295
  562MOL0     C77461   8.832  11.643   6.091  0.6385 -0.5949 -0.6883
  562MOL0     C77462   8.955  11.561   6.127 -0.1715  0.5975 -0.0813
  562MOL0    Cl77463   8.924  11.377   6.138  0.0018  0.0834  0.1293
  562MOL0     C77464   8.616  11.716   5.015 -0.3972  0.9083  0.4488
  562MOL0     C77465   8.637  11.703   4.880 -0.0318  0.1315  0.3976
  562MOL0     O77466   8.967  11.642   4.669  0.4350  0.2522  0.0294
  562MOL0     C77467   8.860  11.794   4.398 -0.5119 -0.0677  0.1317
  562MOL0     C77468   8.886  11.862   4.277 -0.2550  0.5191  0.0254
  562MOL0     N77469   8.953  11.639   3.766  0.3979  0.2942 -0.5995
  562MOL0     N77470   8.929  11.525   3.826  0.1018 -1.0000 -0.3218
  562MOL0     C77471  10.033  11.016   3.896  0.7324  0.1781  0.0055
  562MOL0     C77472  10.163  11.050   3.927 -0.3353 -0.3501 -0.5425
  562MOL0     C77473  10.531  11.281   4.050  0.0054  1.0799 -0.4103
  562MOL0     C77474  10.535  11.395   3.977  0.0937  0.9581  0.2384
  562MOL0     C77475  10.652  11.475   3.979 -0.7189  0.7132 -0.0647
  562MOL0     C77476  10.752  11.454   4.077  0.2529 -0.1457  0.1781
  562MOL0     O77477  10.864  11.541   4.098  0.2302  0.6103  0.3579
  562MOL0     C77478  10.946  11.565   3.981  0.2477  0.0345  0.7624
  562MOL0     C77479  11.016  11.431   3.946  0.2330  0.0315  0.2297
  562MOL0     C77480  11.089  11.429   3.806 -0.4293 -0.0278  1.0765
  562MOL0     C77481  11.212  11.524   3.796  0.2734 -0.0198 -0.1470
  562MOL0     C77482  11.323  11.467   3.878 -0.3347  0.3814  0.4805
  562MOL0     C77483  11.412  11.415   3.951  0.1517 -0.3712  0.1097
  562MOL0     C77484  10.744  11.341   4.156  0.2016  0.0137  0.9860
  562MOL0     C77485  10.631  11.256   4.141 -0.5767  0.3135 -0.6330
  562MOL0     C77486  10.630  11.130   4.223 -0.1829 -0.3031 -0.7499
  562MOL0     H77487  10.189  11.329   3.736  1.6766 -1.4896  0.7555
  562MOL0     H77488   9.956  11.257   3.668 -0.8117 -1.2917 -1.4567
  562MOL0     H77489   9.795  10.928   3.902  1.0480  2.1765 -0.7494
  562MOL0     H77490   9.798  10.868   3.743  3.9407  2.9520 -1.8767
  562MOL0     H77491   9.580  10.976   3.694 -0.4211 -1.9390 -0.5556
  562MOL0     H77492   9.567  10.873   3.830  2.6043 -1.0166  1.0617
  562MOL0     H77493   9.590  11.065   3.978  2.0706 -0.4803 -0.4591
  562MOL0     H77494   9.615  11.179   3.841  1.4156 -0.8139 -1.4087
  562MOL0     H77495   9.405  11.162   3.749  1.2080  0.0780 -0.2212
  562MOL0     H77496   9.358  11.020   3.843  1.2045 -0.2802 -1.9870
  562MOL0     H77497   9.402  11.302   3.927  0.5257  1.1002  1.0548
  562MOL0     H77498   9.375  11.172   4.053 -4.0459  4.0344  1.7110
  562MOL0     H77499   9.175  11.261   3.834  1.3065 -1.2176 -0.8347
  562MOL0     H77500   9.148  11.136   3.950  0.6378 -1.6277 -1.3269
  562MOL0     H77501   9.219  11.415   4.055 -1.1074  1.5097 -0.7181
  562MOL0     H77502   9.140  11.278   4.138 -2.6274  1.8206  1.0632
  562MOL0     H77503   8.941  11.314   3.962  0.7736 -0.0391 -1.6262
  562MOL0     H77504   8.971  11.407   4.108 -0.7727 -1.4680 -0.4073
  562MOL0     H77505   9.170  11.645   4.010  2.9572  0.4295 -2.9749
  562MOL0     H77506   9.093  11.872   3.691 -1.1645  0.9235  0.3647
  562MOL0     H77507   9.226  11.828   3.803  0.8770 -0.1677 -1.1533
  562MOL0     H77508   9.028  12.039   3.837  0.1112 -0.5891  0.2435
  562MOL0     H77509   8.970  11.915   3.943 -0.8134  1.9788  1.0584
  562MOL0     H77510   9.181  11.887   4.052  0.4498 -1.1401 -2.2867
  562MOL0     H77511   9.256  12.020   3.954 -0.8382  2.0155  0.7824
  562MOL0     H77512   9.178  12.089   4.189 -0.4490  2.0351 -0.3757
  562MOL0     H77513   9.102  12.173   4.052  1.6250  1.3884  2.7632
  562MOL0     H77514   9.127  12.064   4.398 -3.1732  2.3066 -0.7757
  562MOL0     H77515   9.168  12.029   4.644 -2.2678  1.2009  2.5094
  562MOL0     H77516   9.216  11.864   4.627  0.3435  0.3218  1.3654
  562MOL0     H77517   9.078  11.907   4.734 -2.3244 -3.1857 -2.2614
  562MOL0     H77518   8.967  11.757   4.890  0.9521 -2.0889 -0.5794
  562MOL0     H77519   8.931  11.680   5.121 -1.4319 -2.1826  2.1933
  562MOL0     H77520   8.885  11.632   5.316 -1.3929 -1.4802  1.1971
  562MOL0     H77521   8.852  11.814   5.326 -2.2887  0.3084  1.1139
  562MOL0     H77522   8.676  11.763   5.477  0.5525  1.0754 -3.3470
  562MOL0     H77523   8.695  11.590   5.464 -1.3906  1.0019 -1.8465
  562MOL0     H77524   8.895  11.782   5.595  0.5091 -0.5558  0.3974
  562MOL0     H77525   8.943  11.623   5.569 -0.1027  1.7278 -3.1811
  562MOL0     H77526   8.752  11.532   5.692  2.2219 -0.1554 -0.4803
  562MOL0     H77527   8.675  11.695   5.710 -0.3638 -0.7932 -0.1813
  562MOL0     H77528   8.940  11.615   5.827  0.8038  3.2016  0.0469
  562MOL0     H77529   8.866  11.767   5.856 -1.4900  1.0334 -1.3932
  562MOL0     H77530   8.778  11.493   5.948 -2.1308 -0.1774 -1.4957
  562MOL0     H77531   8.671  11.635   5.965  1.2441  1.0849 -2.4968
  562MOL0     H77532   8.752  11.639   6.165 -0.4260  3.0669 -1.4418
  562MOL0     H77533   8.868  11.746   6.092 -0.8766  0.1483  4.3516
  562MOL0     H77534   8.987  11.600   6.224 -0.7055 -2.6905  1.5508
  562MOL0     H77535   9.046  11.570   6.068 -0.1262 -2.7060 -0.6717
  562MOL0     H77536   8.516  11.699   5.053  0.1499 -5.1919  0.1460
  562MOL0     H77537   8.549  11.690   4.817  1.2334  1.1913 -1.6803
  562MOL0     H77538   8.783  11.717   4.406  0.3920 -0.8485  1.8159
  562MOL0     H77539   8.835  11.847   4.182 -1.5682  1.7605  0.4969
  562MOL0     H77540   9.989  10.939   3.958  1.4016 -2.8321 -2.9623
  562MOL0     H77541  10.217  10.996   4.005  1.7534  0.3792 -1.4145
  562MOL0     H77542  10.449  11.428   3.920 -2.1958  0.3138  3.0699
  562MOL0     H77543  10.645  11.560   3.912 -1.1133  0.8185  0.1062
  562MOL0     H77544  10.885  11.602   3.898 -1.9512 -1.9752  1.3784
  562MOL0     H77545  11.030  11.634   3.997  0.4932  0.3917 -1.6957
  562MOL0     H77546  10.945  11.348   3.950 -1.2444  1.1780 -0.9450
  562MOL0     H77547  11.096  11.409   4.017 -0.2761 -2.9806 -0.0291
  562MOL0     H77548  11.116  11.329   3.773 -0.1745  0.3342  0.1543
  562MOL0     H77549  11.021  11.471   3.732  3.0638 -0.9376 -3.0107
  562MOL0     H77550  11.183  11.620   3.839  0.4554  0.1346 -0.3688
  562MOL0     H77551  11.244  11.556   3.696 -0.2689  1.7276  0.2080
  562MOL0     H77552  11.495  11.373   4.004  0.0083 -3.1806 -1.6675
  562MOL0     H77553  10.827  11.329   4.225  0.5287  1.5288  0.8906
  562MOL0     H77554  10.539  11.129   4.284 -1.4180 -2.5214 -2.4782
  562MOL0     H77555  10.653  11.043   4.162  2.5475 -1.0346  1.1109
  562MOL0     H77556  10.714  11.127   4.293  1.4303  0.3234 -2.5784
  563MOL0     O77557   9.427  10.481   0.616 -0.1507  0.1041 -0.4333
  563MOL0     C77558   9.324  10.416   0.647 -0.8399  0.0526 -0.7697
  563MOL0     O77559   9.195  10.471   0.642 -0.3346  1.1442  0.7354
  563MOL0     C77560   9.177  10.603   0.598 -0.1544 -0.0965 -0.1197
  563MOL0     C77561   9.233  10.719   0.652  0.8192  0.2673 -0.1513
  563MOL0     C77562   9.235  10.840   0.576  0.5379 -0.0115  0.2440
  563MOL0     C77563   9.180  10.848   0.446 -0.4600 -0.5200 -0.0417
  563MOL0     O77564   9.181  10.957   0.365 -0.4748 -0.0516 -0.5849
  563MOL0     C77565   9.276  11.064   0.400 -0.0747  0.2823  0.0705
  563MOL0     C77566   9.286  11.183   0.308  0.3710  0.1543 -0.2831
  563MOL0     C77567   9.378  11.287   0.359 -0.0264 -0.9881 -0.1651
  563MOL0     C77568   9.402  11.392   0.242  0.1363  0.3358 -0.6227
  563MOL0     C77569   9.450  11.538   0.288 -0.5382 -0.1144 -1.0082
  563MOL0     C77570   9.577  11.547   0.367 -0.3343  0.0546  0.7686
  563MOL0     C77571   9.715  11.497   0.302 -0.2175 -0.0045  0.3584
  563MOL0     C77572   9.827  11.505   0.410  1.2207  0.2089  0.0550
  563MOL0     N77573   9.958  11.474   0.343  0.1071  0.2298  0.1799
  563MOL0     C77574  10.051  11.373   0.380  0.1853  0.1013 -0.6207
  563MOL0     C77575  10.164  11.397   0.307  0.1831  0.5386  0.5337
  563MOL0     C77576  10.284  11.311   0.306  0.3198 -0.1151 -0.6604
  563MOL0     C77577  10.293  11.200   0.199  0.4791  0.1291 -0.1124
  563MOL0     C77578  10.410  11.104   0.246  1.0333 -0.6657  0.4593
  563MOL0     C77579  10.541  11.160   0.212 -0.4554 -0.4978  0.5315
  563MOL0     O77580  10.648  11.077   0.262  0.7078 -0.1745 -0.0895
  563MOL0     C77581  10.772  11.116   0.218  0.2773  0.4264 -0.3022
  563MOL0     C77582  10.861  11.007   0.215  0.2599  0.0957 -0.3788
  563MOL0     C77583  10.993  11.022   0.175 -0.5034 -0.0035 -0.8118
  563MOL0     C77584  11.084  10.901   0.197  0.3370  0.5974 -0.0260
  563MOL0     C77585  11.042  11.150   0.120  0.6601  1.4218 -0.1399
  563MOL0     C77586  11.182  11.187   0.075 -0.7432  0.3725 -0.6164
  563MOL0     O77587  11.198  11.320   0.055  0.3211 -0.4301  0.1145
  563MOL0     C77588  11.323  11.368   0.022  1.1903 -0.4279 -0.3734
  563MOL0     C77589  11.384  11.435   0.121  0.4615  0.3706 -0.0838
  563MOL0     C77590  11.497  11.519   0.091  0.1268  0.0129  0.5208
  563MOL0     C77591  11.548  11.520  -0.044  0.6103 -0.1759 -0.1591
  563MOL0     O77592  11.664  11.592  -0.070  0.2780  0.2084  0.0947
  563MOL0     C77593  11.756  11.523  -0.159  0.9373  0.0034 -0.4470
  563MOL0     C77594  11.812  11.410  -0.080 -0.4300  0.2895 -0.4123
  563MOL0     C77595  11.930  11.457   0.014 -0.8447 -0.5154 -0.9970
  563MOL0     C77596  12.002  11.347   0.100  1.2345 -0.3874  0.0425
  563MOL0     C77597  12.086  11.417   0.210  0.9963 -0.1306  0.2445
  563MOL0     C77598  12.219  11.476   0.165 -0.6736 -0.4814  0.3604
  563MOL0     C77599  12.279  11.564   0.273  0.3059  0.2269 -0.1110
  563MOL0     C77600  12.339  11.494   0.393 -0.3378  0.3343 -0.0518
  563MOL0    Cl77601  12.468  11.390   0.345 -0.0337  0.2891  0.1495
  563MOL0     C77602  11.473  11.454  -0.144 -0.1904  0.1527  0.2975
  563MOL0     C77603  11.366  11.376  -0.112  1.3075  0.5187 -0.7238
  563MOL0     O77604  11.269  11.096   0.068 -0.4307  0.4030 -0.3765
  563MOL0     C77605  10.943  11.252   0.115 -0.6972 -0.1221 -0.6874
  563MOL0     C77606  10.818  11.238   0.173  0.3894  0.7728  0.1364
  563MOL0     N77607  10.139  11.509   0.228 -0.5553  0.2602 -1.1703
  563MOL0     N77608  10.017  11.553   0.250  1.0519 -0.3252 -0.3157
  563MOL0     C77609   9.107  10.739   0.399  0.3550  0.0648 -1.4112
  563MOL0     C77610   9.121  10.619   0.473  0.1657 -0.9113 -0.2770
  563MOL0     C77611   9.348  10.286   0.710 -0.1598  1.5451  0.2595
  563MOL0     C77612   9.279  10.261   0.831  0.1740  0.7713 -1.1664
  563MOL0     C77613   9.295  10.145   0.904  0.9281  0.5163  0.6171
  563MOL0     C77614   9.369  10.036   0.859  0.4407 -0.3101  0.2299
  563MOL0     O77615   9.361   9.921   0.931 -0.4609 -0.1161 -0.1701
  563MOL0     C77616   9.479   9.834   0.920  0.5287  0.0757  0.3511
  563MOL0     C77617   9.442   9.701   0.853 -0.2155  0.0232  0.2142
  563MOL0     C77618   9.462   9.688   0.706 -0.2744  0.5739 -0.0570
  563MOL0     C77619   9.345   9.717   0.615 -0.1018 -0.2659  0.1396
  563MOL0     C77620   9.383   9.760   0.482  0.1774 -0.3558  0.0392
  563MOL0     C77621   9.417   9.797   0.371  0.0519 -0.2926 -0.6741
  563MOL0     C77622   9.433  10.058   0.724 -0.4934 -0.7561  0.3443
  563MOL0     C77623   9.415  10.174   0.653  0.0180 -0.1006  0.1714
  563MOL0     C77624   9.472  10.181   0.514  0.3499 -0.7972  0.5277
  563MOL0     H77625   9.282  10.715   0.749 -2.9474 -2.2128  1.9087
  563MOL0     H77626   9.275  10.929   0.623 -2.3177  0.8214  1.2932
  563MOL0     H77627   9.381  11.033   0.404  0.6816  2.5033 -0.8787
  563MOL0     H77628   9.252  11.108   0.498 -3.0613 -0.3922 -0.2609
  563MOL0     H77629   9.335  11.141   0.220 -0.3972  0.2827 -0.7772
  563MOL0     H77630   9.187  11.223   0.283  1.0622  1.1605 -1.5557
  563MOL0     H77631   9.323  11.335   0.440 -2.7899 -0.4561 -2.2082
  563MOL0     H77632   9.477  11.260   0.397  1.7545  1.9864 -2.1908
  563MOL0     H77633   9.477  11.348   0.176  0.2541 -0.2607 -0.1051
  563MOL0     H77634   9.312  11.414   0.183  0.4154  0.9626 -0.8272
  563MOL0     H77635   9.366  11.587   0.338 -2.0578 -1.5350 -2.0699
  563MOL0     H77636   9.454  11.592   0.193 -0.6049  0.0298 -0.9304
  563MOL0     H77637   9.578  11.647   0.409 -2.0026  0.9602 -1.1448
  563MOL0     H77638   9.553  11.476   0.447 -0.6722 -3.7287 -2.3189
  563MOL0     H77639   9.734  11.554   0.210 -0.6248 -1.5537 -0.7214
  563MOL0     H77640   9.702  11.394   0.269  1.3692 -0.7282  1.8553
  563MOL0     H77641   9.839  11.603   0.456  0.8063  0.0800  0.4444
  563MOL0     H77642   9.808  11.424   0.481 -1.2633  1.8613  1.4243
  563MOL0     H77643  10.027  11.300   0.457  0.3956  1.5621  0.8808
  563MOL0     H77644  10.274  11.256   0.401 -1.7934 -1.7647 -1.7485
  563MOL0     H77645  10.374  11.372   0.300  0.1208  0.3063  0.2984
  563MOL0     H77646  10.194  11.156   0.188  0.5760 -0.0200 -0.3895
  563MOL0     H77647  10.308  11.246   0.101 -2.7106 -1.4079 -1.4490
  563MOL0     H77648  10.412  11.101   0.355 -1.9179 -2.5828  0.5946
  563MOL0     H77649  10.397  11.004   0.203  4.1753 -1.6911  1.6087
  563MOL0     H77650  10.545  11.161   0.102 -0.4860  3.3473  0.4220
  563MOL0     H77651  10.555  11.263   0.245  2.0421 -0.7257  0.3453
  563MOL0     H77652  10.828  10.920   0.270 -1.4551  0.7626 -0.2894
  563MOL0     H77653  11.032  10.825   0.256  0.4209  2.1024  2.0740
  563MOL0     H77654  11.183  10.922   0.237  1.0519  2.3782 -2.4455
  563MOL0     H77655  11.098  10.857   0.097 -0.3964  1.3142 -0.4616
  563MOL0     H77656  11.349  11.432   0.224  1.1259  0.5609  0.1598
  563MOL0     H77657  11.559  11.551   0.174 -2.1311 -0.4306  2.4679
  563MOL0     H77658  11.696  11.492  -0.245 -1.5523 -1.5292  1.6633
  563MOL0     H77659  11.827  11.599  -0.193 -0.5862  1.6592 -0.0750
  563MOL0     H77660  11.739  11.362  -0.014  1.2431 -2.3877 -0.3674
  563MOL0     H77661  11.850  11.331  -0.146  0.1527 -0.8621  1.2419
  563MOL0     H77662  11.881  11.529   0.081 -0.3338  0.0128 -1.1765
  563MOL0     H77663  12.011  11.499  -0.048 -0.0979 -1.8152 -0.9489
  563MOL0     H77664  12.063  11.280   0.039 -1.3820 -1.8625 -1.1154
  563MOL0     H77665  11.918  11.285   0.131  1.8577 -0.9364  0.6741
  563MOL0     H77666  12.018  11.496   0.242  0.1294  0.3060 -2.4223
  563MOL0     H77667  12.089  11.349   0.296  0.6052 -0.8127 -0.2659
  563MOL0     H77668  12.208  11.531   0.071  0.4413 -2.9695 -1.3549
  563MOL0     H77669  12.288  11.394   0.141  0.0417  0.5739 -1.3741
  563MOL0     H77670  12.201  11.631   0.309  3.3336  3.7966  0.4025
  563MOL0     H77671  12.360  11.627   0.236  0.5099  1.3760  2.1253
  563MOL0     H77672  12.255  11.440   0.437 -2.7817  2.7324 -1.4457
  563MOL0     H77673  12.372  11.572   0.463  0.1204 -0.9143  1.1754
  563MOL0     H77674  11.488  11.466  -0.251  0.8581  1.2382  0.5547
  563MOL0     H77675  11.302  11.332  -0.188 -2.5816  3.5851  0.4811
  563MOL0     H77676  10.964  11.351   0.076 -2.6826  1.3342  1.6983
  563MOL0     H77677  10.750  11.323   0.176  0.2451  0.6446  1.9891
  563MOL0     H77678   9.045  10.734   0.310 -0.4505  0.1675 -0.8624
  563MOL0     H77679   9.076  10.528   0.432  0.2076 -1.7402  1.4224
  563MOL0     H77680   9.216  10.334   0.880  1.4937  1.5826 -0.6245
  563MOL0     H77681   9.250  10.140   1.003 -0.4984 -0.0154 -0.0232
  563MOL0     H77682   9.558   9.875   0.857 -0.0202  0.0161 -0.3891
  563MOL0     H77683   9.516   9.817   1.021  0.6085 -1.0192  0.1550
  563MOL0     H77684   9.340   9.679   0.886 -0.2575  1.5090  1.1495
  563MOL0     H77685   9.509   9.628   0.900  1.5467  2.4844  1.7599
  563MOL0     H77686   9.543   9.755   0.676  1.6716 -0.0359  3.3368
  563MOL0     H77687   9.479   9.583   0.680 -4.0060  0.5803 -3.4111
  563MOL0     H77688   9.284   9.792   0.667 -0.9027  0.0952 -1.2573
  563MOL0     H77689   9.280   9.631   0.598 -1.4630  0.2279  2.4622
  563MOL0     H77690   9.418   9.820   0.267  1.8385 -0.7152 -0.7794
  563MOL0     H77691   9.478   9.981   0.662  1.0769  0.1705  0.2686
  563MOL0     H77692   9.548  10.260   0.512  1.1990 -1.5991  0.5523
  563MOL0     H77693   9.521  10.088   0.484  1.8627  0.2249 -0.3618
  563MOL0     H77694   9.393  10.208   0.442 -1.4918 -1.8144  2.0907
  564MOL0     O77695   1.295   3.662   6.069  0.8741 -0.6196 -0.5194
  564MOL0     C77696   1.416   3.665   6.079  1.1362  0.6946 -0.1644
  564MOL0     O77697   1.471   3.655   6.196  0.0621 -0.0616  0.5131
  564MOL0     C77698   1.599   3.713   6.209  0.2373  0.7623 -0.1202
  564MOL0     C77699   1.640   3.844   6.152 -0.1773  0.4965 -0.5456
  564MOL0     C77700   1.775   3.874   6.162 -0.4702  0.1364 -0.6553
  564MOL0     C77701   1.867   3.788   6.231  0.8023  0.6726 -0.1107
  564MOL0     O77702   1.997   3.821   6.232 -0.1632  0.1964 -0.1089
  564MOL0     C77703   2.092   3.800   6.340 -0.0756 -0.4735 -0.0799
  564MOL0     C77704   2.178   3.925   6.334 -0.3476 -0.2912  0.3875
  564MOL0     C77705   2.274   3.917   6.210 -0.3759 -0.4351 -0.2199
  564MOL0     C77706   2.386   4.022   6.199  0.0364 -0.6448  0.3818
  564MOL0     C77707   2.456   3.993   6.065 -0.3967  0.0563  0.1813
  564MOL0     C77708   2.604   4.042   6.071 -0.0049 -0.1024 -0.3250
  564MOL0     C77709   2.683   3.992   5.953 -0.3065 -0.5001 -1.1715
  564MOL0     C77710   2.651   4.050   5.811  0.3017 -0.6696 -0.5379
  564MOL0     N77711   2.713   4.188   5.805  0.8520  0.4809 -0.3720
  564MOL0     C77712   2.846   4.211   5.803 -0.4630  0.3799  0.3888
  564MOL0     C77713   2.849   4.336   5.842  0.2890 -0.1238  0.4467
  564MOL0     C77714   2.971   4.428   5.837 -0.7814  0.7983  0.2805
  564MOL0     C77715   2.969   4.502   5.703  0.3809 -0.1537  0.4626
  564MOL0     C77716   3.112   4.566   5.671 -0.2407 -0.8237 -0.5970
  564MOL0     C77717   3.139   4.621   5.535 -0.4899  0.5770  0.1715
  564MOL0     O77718   3.266   4.686   5.537 -0.2547  0.3124  0.0110
  564MOL0     C77719   3.340   4.704   5.414  0.7367 -1.0569  0.0692
  564MOL0     C77720   3.277   4.685   5.288  0.1732 -0.2662 -0.4566
  564MOL0     C77721   3.349   4.704   5.164  0.2943 -0.0412 -0.0743
  564MOL0     C77722   3.293   4.672   5.027  0.5586 -0.0650  0.3308
  564MOL0     C77723   3.479   4.734   5.168 -1.1827 -0.8643 -0.1057
  564MOL0     C77724   3.569   4.734   5.053  0.8513 -0.6380 -0.5927
  564MOL0     O77725   3.699   4.691   5.073  0.2985  0.2375  0.2930
  564MOL0     C77726   3.782   4.653   4.972 -0.3038  0.5619 -0.3575
  564MOL0     C77727   3.792   4.702   4.846  0.1391  0.2455  1.3985
  564MOL0     C77728   3.896   4.657   4.753  0.5649  0.1469 -0.5211
  564MOL0     C77729   3.981   4.553   4.793  0.3173  0.9010 -0.2622
  564MOL0     O77730   4.084   4.502   4.715 -0.1453  0.0880 -0.3100
  564MOL0     C77731   4.084   4.529   4.576 -0.2685 -0.0058 -0.3253
  564MOL0     C77732   4.138   4.400   4.507 -0.2977 -0.8317 -0.4653
  564MOL0     C77733   4.055   4.276   4.543 -0.5325 -0.4096  0.5589
  564MOL0     C77734   4.104   4.156   4.457 -0.2456 -0.8955 -0.7460
  564MOL0     C77735   4.024   4.031   4.483 -0.4991 -1.0780  0.4058
  564MOL0     C77736   4.068   3.910   4.400 -0.5301 -0.8501  0.7385
  564MOL0     C77737   4.178   3.829   4.455 -0.6353 -0.8677  0.7092
  564MOL0     C77738   4.243   3.734   4.355 -0.0487 -0.7087 -0.3030
  564MOL0    Cl77739   4.411   3.696   4.419 -0.4650  0.0346  0.0725
  564MOL0     C77740   3.975   4.511   4.920  0.3839  0.5248  1.0637
  564MOL0     C77741   3.877   4.555   5.006  0.6612  0.6594 -0.0337
  564MOL0     O77742   3.530   4.809   4.962  0.2977  0.2262  0.1876
  564MOL0     C77743   3.537   4.756   5.300 -0.3979  0.2047  1.2107
  564MOL0     C77744   3.472   4.746   5.421  0.1631 -0.0500 -0.3661
  564MOL0     N77745   2.722   4.393   5.862  0.8164  0.6526 -0.7871
  564MOL0     N77746   2.642   4.295   5.841 -0.4561 -0.0816  0.8796
  564MOL0     C77747   1.822   3.675   6.297 -0.6859 -0.1625 -0.5691
  564MOL0     C77748   1.690   3.640   6.286 -0.5801  0.6181  0.0263
  564MOL0     C77749   1.496   3.660   5.955 -0.4374  0.7716  0.2940
  564MOL0     C77750   1.471   3.755   5.856 -0.0859 -0.8225  0.0821
  564MOL0     C77751   1.552   3.751   5.739 -0.1240 -0.2400 -1.0387
  564MOL0     C77752   1.647   3.657   5.724 -0.8364  0.4535  0.7939
  564MOL0     O77753   1.732   3.651   5.624 -0.4479 -0.1003  0.5804
  564MOL0     C77754   1.673   3.573   5.509  0.5502 -0.0082 -0.2114
  564MOL0     C77755   1.794   3.538   5.413  0.3693  0.2293 -0.9510
  564MOL0     C77756   1.894   3.438   5.479 -0.3308  1.0284  0.3697
  564MOL0     C77757   1.969   3.361   5.373 -0.5943  0.4269 -0.1871
  564MOL0     C77758   2.074   3.437   5.308  0.1137 -0.3028  1.5204
  564MOL0     C77759   2.166   3.494   5.248  0.7875 -0.0236  0.7631
  564MOL0     C77760   1.669   3.555   5.817 -0.2906  0.3014 -0.7421
  564MOL0     C77761   1.590   3.551   5.928 -0.4761 -1.2414 -0.5716
  564MOL0     C77762   1.637   3.451   6.028 -0.2845 -0.2610 -0.2053
  564MOL0     H77763   1.574   3.920   6.113 -1.1941  0.1430  0.4252
  564MOL0     H77764   1.812   3.973   6.134  2.8371  0.5292  3.9506
  564MOL0     H77765   2.148   3.708   6.321 -1.0278 -0.7436 -1.8281
  564MOL0     H77766   2.044   3.789   6.438 -0.7317 -3.4137 -0.6394
  564MOL0     H77767   2.119   4.018   6.335  1.1557  0.7597  3.0627
  564MOL0     H77768   2.246   3.920   6.420 -2.3279 -0.1779  2.0626
  564MOL0     H77769   2.328   3.823   6.217 -0.2184 -0.3300 -0.0168
  564MOL0     H77770   2.213   3.925   6.119 -0.7508 -0.3207  0.0395
  564MOL0     H77771   2.344   4.123   6.202  1.3739  0.0420 -1.7812
  564MOL0     H77772   2.455   4.007   6.283  0.1896 -1.0284  0.1899
  564MOL0     H77773   2.417   4.056   5.985 -1.5790  1.9688  2.1241
  564MOL0     H77774   2.452   3.887   6.042 -0.9431 -0.2619  1.6453
  564MOL0     H77775   2.608   4.151   6.080  0.6106 -0.2750  2.2426
  564MOL0     H77776   2.649   4.019   6.168  0.4655 -0.9002 -0.7256
  564MOL0     H77777   2.675   3.883   5.944 -0.1371 -1.0340  3.0595
  564MOL0     H77778   2.788   3.991   5.981 -0.7512  0.1822  0.7163
  564MOL0     H77779   2.705   3.991   5.737  5.0198  0.8824  1.2334
  564MOL0     H77780   2.543   4.054   5.794 -0.5059 -0.3356  3.5585
  564MOL0     H77781   2.924   4.145   5.767 -0.0934  0.5096  0.9416
  564MOL0     H77782   3.060   4.365   5.847 -1.6508 -0.4963  0.1266
  564MOL0     H77783   2.971   4.495   5.924  1.7753  0.0183  0.9678
  564MOL0     H77784   2.964   4.434   5.618 -0.0519 -0.0532  0.4064
  564MOL0     H77785   2.893   4.578   5.689  0.7727 -0.1582 -2.1730
  564MOL0     H77786   3.127   4.644   5.747  0.0950  1.7719 -3.1347
  564MOL0     H77787   3.190   4.491   5.683 -0.1543 -0.7431 -0.6551
  564MOL0     H77788   3.143   4.532   5.471 -1.2640  0.6314  0.0504
  564MOL0     H77789   3.065   4.699   5.518  0.7975  2.1878  1.5792
  564MOL0     H77790   3.172   4.659   5.277 -1.2644  3.4816  2.2260
  564MOL0     H77791   3.189   4.646   5.052  0.5392  0.6889  1.0827
  564MOL0     H77792   3.343   4.589   4.975  3.0500  1.8266 -0.4738
  564MOL0     H77793   3.285   4.759   4.962 -3.4252 -1.8493 -1.9334
  564MOL0     H77794   3.737   4.788   4.810  0.8707 -1.0351 -3.6116
  564MOL0     H77795   3.911   4.709   4.658 -0.4919 -1.7282 -1.7823
  564MOL0     H77796   3.984   4.542   4.534 -1.2572 -1.2608  1.5227
  564MOL0     H77797   4.144   4.615   4.543  0.2918 -0.6312 -0.9895
  564MOL0     H77798   4.160   4.412   4.400  3.8112  0.1274  0.3316
  564MOL0     H77799   4.234   4.384   4.556 -0.4935 -1.5193 -0.2978
  564MOL0     H77800   3.949   4.286   4.521 -1.1327  1.5328  3.7225
  564MOL0     H77801   4.078   4.261   4.649  0.0602  1.2451  0.7042
  564MOL0     H77802   4.212   4.142   4.465  0.2079  2.8504  2.8924
  564MOL0     H77803   4.085   4.188   4.354  3.5908 -0.7624 -1.5452
  564MOL0     H77804   4.050   4.003   4.586 -0.2103 -2.5165 -0.0417
  564MOL0     H77805   3.917   4.053   4.476  0.2015  2.7696 -1.0315
  564MOL0     H77806   4.105   3.935   4.300  1.9507  1.6186  2.1422
  564MOL0     H77807   3.974   3.854   4.406 -1.3424  0.5610  1.8974
  564MOL0     H77808   4.128   3.776   4.537 -0.2324 -0.6391  1.1074
  564MOL0     H77809   4.252   3.891   4.506  0.1435 -0.3450 -0.9831
  564MOL0     H77810   4.249   3.780   4.257  3.3073 -1.2135 -0.4763
  564MOL0     H77811   4.179   3.645   4.359  0.1635 -0.8381  1.4611
  564MOL0     H77812   4.046   4.434   4.948  1.2936  0.7753 -0.4481
  564MOL0     H77813   3.870   4.532   5.112  2.1521 -2.4756 -0.5134
  564MOL0     H77814   3.645   4.772   5.300  0.2990 -3.3885 -0.9415
  564MOL0     H77815   3.516   4.784   5.513  1.7370  1.0994 -1.5445
  564MOL0     H77816   1.892   3.606   6.343 -1.0348  1.1799  2.1161
  564MOL0     H77817   1.651   3.548   6.330  2.4772 -1.0592 -0.5013
  564MOL0     H77818   1.388   3.825   5.861  0.1188 -0.5163 -0.6844
  564MOL0     H77819   1.531   3.823   5.661  2.9984 -0.9199 -2.6515
  564MOL0     H77820   1.614   3.483   5.531 -0.8338  0.6447 -1.1457
  564MOL0     H77821   1.602   3.643   5.465 -0.6035 -0.8542  0.2381
  564MOL0     H77822   1.847   3.631   5.391  0.3663 -0.2383 -3.1737
  564MOL0     H77823   1.753   3.503   5.318 -2.0810 -1.0199  0.4730
  564MOL0     H77824   1.962   3.483   5.553  1.9967 -0.6976 -0.5726
  564MOL0     H77825   1.824   3.371   5.530  0.2885 -1.2568 -1.6214
  564MOL0     H77826   1.901   3.327   5.295 -0.4752  0.7367 -0.4270
  564MOL0     H77827   2.017   3.272   5.416 -1.0360 -0.4506 -1.4647
  564MOL0     H77828   2.238   3.536   5.181 -1.3819  0.0485 -1.6999
  564MOL0     H77829   1.739   3.473   5.804  0.0260  0.4033  0.2119
  564MOL0     H77830   1.565   3.457   6.111 -0.5395  0.6624 -0.4747
  564MOL0     H77831   1.643   3.356   5.974  3.2543  0.7858 -1.9442
  564MOL0     H77832   1.737   3.482   6.057  0.8049 -1.0184 -2.8841
  565MOL0     O77833   7.880   9.810   7.331  0.0800 -0.2747 -0.1913
  565MOL0     C77834   7.868   9.881   7.437 -0.2100  0.2134 -0.1006
  565MOL0     O77835   7.749   9.907   7.496  0.2234 -1.1791  0.0663
  565MOL0     C77836   7.628   9.911   7.428  0.5049  0.4749 -0.7274
  565MOL0     C77837   7.606   9.969   7.303 -0.4911 -0.6056 -0.2261
  565MOL0     C77838   7.484   9.980   7.249 -0.2832 -1.2975  0.6238
  565MOL0     C77839   7.371   9.926   7.310 -0.3452  0.5009 -0.3391
  565MOL0     O77840   7.244   9.926   7.248 -0.6530  0.3163 -0.0425
  565MOL0     C77841   7.223   9.798   7.179  0.2284 -0.2296 -0.2997
  565MOL0     C77842   7.164   9.814   7.033  0.3414  0.4360 -0.5270
  565MOL0     C77843   7.185   9.696   6.936  0.0633 -0.5565 -0.0874
  565MOL0     C77844   7.097   9.738   6.823  0.0670 -0.1613  0.7448
  565MOL0     C77845   7.091   9.633   6.717 -0.1266  0.9527  0.2322
  565MOL0     C77846   7.229   9.611   6.646  0.0017  0.0444 -0.1570
  565MOL0     C77847   7.253   9.717   6.538 -0.9374 -0.9264  0.1892
  565MOL0     C77848   7.401   9.709   6.507 -0.1779  0.2641  0.5193
  565MOL0     N77849   7.469   9.820   6.575 -1.1135 -0.5770  0.2273
  565MOL0     C77850   7.547   9.796   6.690  0.3916  0.5377  0.4655
  565MOL0     C77851   7.591   9.923   6.719 -0.5062  0.3316  0.0453
  565MOL0     C77852   7.667   9.959   6.842 -0.2683 -0.3593 -0.4987
  565MOL0     C77853   7.791   9.874   6.869 -0.5675  0.3827  0.2007
  565MOL0     C77854   7.873   9.923   6.994  0.1939  0.3536 -0.2498
  565MOL0     C77855   8.014   9.841   7.001  0.6795  0.0632  0.7295
  565MOL0     O77856   8.083   9.874   6.883 -0.3583 -0.1813 -0.1391
  565MOL0     C77857   8.204   9.821   6.858  0.5205  0.3675  0.3192
  565MOL0     C77858   8.208   9.743   6.741 -0.1009  0.1180 -0.1162
  565MOL0     C77859   8.331   9.691   6.695  0.0426  0.3366  0.9558
  565MOL0     C77860   8.316   9.614   6.559 -0.3610 -0.3107 -0.2248
  565MOL0     C77861   8.447   9.722   6.768  0.2789 -0.3425  0.3903
  565MOL0     C77862   8.576   9.678   6.726 -0.7947 -0.0674  0.5841
  565MOL0     O77863   8.602   9.649   6.599  0.0760 -0.7623 -0.4534
  565MOL0     C77864   8.731   9.649   6.564 -0.0728  1.0712  0.2507
  565MOL0     C77865   8.764   9.551   6.468 -0.5425  0.9996 -0.6927
  565MOL0     C77866   8.896   9.547   6.410  0.0645 -0.7617  0.5051
  565MOL0     C77867   8.994   9.633   6.452 -0.3043  0.9295 -0.8228
  565MOL0     O77868   9.125   9.646   6.404 -1.0731  0.4938 -0.3966
  565MOL0     C77869   9.208   9.531   6.370 -0.6075 -0.3998 -0.2945
  565MOL0     C77870   9.211   9.522   6.216  0.4106 -0.0845 -0.3600
  565MOL0     C77871   9.323   9.432   6.173 -0.6811 -0.5333 -1.4244
  565MOL0     C77872   9.292   9.359   6.041 -0.7214 -0.1905 -0.1066
  565MOL0     C77873   9.407   9.275   5.994 -0.7945  0.0029  0.5700
  565MOL0     C77874   9.361   9.172   5.897 -0.8063  0.2867  0.5156
  565MOL0     C77875   9.477   9.081   5.872 -0.7137 -0.0087  0.0552
  565MOL0     C77876   9.468   9.000   5.749 -0.2256 -0.5616  0.0686
  565MOL0    Cl77877   9.630   8.930   5.721 -0.4549  0.0763  0.3871
  565MOL0     C77878   8.961   9.724   6.546 -0.1463  0.1404  0.5179
  565MOL0     C77879   8.832   9.737   6.597  1.2531 -0.1643 -0.0333
  565MOL0     O77880   8.656   9.672   6.818 -0.4071 -0.1936  0.3510
  565MOL0     C77881   8.438   9.794   6.889  0.1556 -0.0710 -0.0301
  565MOL0     C77882   8.314   9.845   6.939  0.1277  0.5520 -0.0971
  565MOL0     N77883   7.561  10.009   6.617  0.1318 -0.2867 -0.0153
  565MOL0     N77884   7.486   9.946   6.533  0.3372  0.1756  0.3900
  565MOL0     C77885   7.389   9.852   7.428  0.1118  0.4481 -0.2987
  565MOL0     C77886   7.519   9.854   7.491  0.6027 -1.2760 -0.6288
  565MOL0     C77887   7.985   9.926   7.510  0.4522  0.7852 -0.9291
  565MOL0     C77888   8.081   9.828   7.541 -0.3576 -0.0861 -0.3062
  565MOL0     C77889   8.179   9.848   7.636 -0.8403 -0.3757  0.3739
  565MOL0     C77890   8.193   9.975   7.688 -0.2747 -0.4251  0.1643
  565MOL0     O77891   8.298   9.988   7.782 -0.3888  0.3965 -0.0553
  565MOL0     C77892   8.347  10.120   7.834 -0.2694 -0.1797  0.3085
  565MOL0     C77893   8.324  10.148   7.978 -1.1347 -0.0901 -0.6232
  565MOL0     C77894   8.461  10.181   8.039 -0.1200 -0.2297 -0.3851
  565MOL0     C77895   8.448  10.170   8.196  0.3192  1.0495  1.0142
  565MOL0     C77896   8.587  10.173   8.257  0.0095  0.3919  0.0533
  565MOL0     C77897   8.696  10.193   8.312  0.0676  0.1873 -0.0994
  565MOL0     C77898   8.102  10.082   7.659  0.2540 -0.1667 -0.7120
  565MOL0     C77899   8.002  10.051   7.570  1.3104 -0.2651 -1.1400
  565MOL0     C77900   7.901  10.173   7.550 -0.6122  0.8583 -0.4479
  565MOL0     H77901   7.681  10.032   7.255 -0.8743  2.8485  3.1510
  565MOL0     H77902   7.463  10.026   7.153  0.6329  0.1154  1.0615
  565MOL0     H77903   7.166   9.731   7.243 -0.0720 -1.8250 -2.1358
  565MOL0     H77904   7.318   9.745   7.168 -0.1427 -0.8761 -0.4846
  565MOL0     H77905   7.058   9.832   7.054  0.6158  0.7090  0.7019
  565MOL0     H77906   7.225   9.892   6.985  1.0604  0.4161  0.3377
  565MOL0     H77907   7.291   9.698   6.909  0.1298  2.2733  0.1689
  565MOL0     H77908   7.162   9.599   6.982  1.1986  0.2531  2.3117
  565MOL0     H77909   6.996   9.751   6.865  0.6500  0.8092  1.9268
  565MOL0     H77910   7.122   9.832   6.772 -2.5098 -1.4140 -3.3007
  565MOL0     H77911   7.016   9.653   6.640 -1.2474 -0.4692  0.9115
  565MOL0     H77912   7.060   9.539   6.763  1.0301  1.1326  1.4551
  565MOL0     H77913   7.305   9.610   6.725  1.3611  1.0528 -1.3948
  565MOL0     H77914   7.226   9.510   6.606 -0.1058  0.4326 -1.1493
  565MOL0     H77915   7.220   9.813   6.579  1.3500 -0.7951  1.9091
  565MOL0     H77916   7.193   9.696   6.448  1.7901  3.0115 -2.9458
  565MOL0     H77917   7.434   9.608   6.536  1.6729  0.9313  0.8486
  565MOL0     H77918   7.416   9.705   6.399  1.8219  1.6494  0.6993
  565MOL0     H77919   7.547   9.711   6.757 -1.6427  0.2355  0.1280
  565MOL0     H77920   7.607   9.948   6.933 -0.0500  0.2809 -0.2749
  565MOL0     H77921   7.694  10.065   6.842  0.8014 -0.6149 -1.3909
  565MOL0     H77922   7.766   9.769   6.884 -1.8289  0.7776  0.9589
  565MOL0     H77923   7.845   9.900   6.777 -4.4151  4.5184 -1.2590
  565MOL0     H77924   7.904  10.028   6.989 -2.3894  1.2290  0.5129
  565MOL0     H77925   7.822   9.904   7.089  2.0466  0.7934  0.8841
  565MOL0     H77926   8.068   9.880   7.088 -2.1309  2.7301  1.4591
  565MOL0     H77927   8.005   9.732   7.005 -0.6548  0.0488 -1.3288
  565MOL0     H77928   8.113   9.723   6.693  0.3321 -3.1202  0.1482
  565MOL0     H77929   8.345   9.510   6.577  0.8209 -0.1845 -1.2977
  565MOL0     H77930   8.370   9.662   6.477 -1.6430 -2.3921 -2.3855
  565MOL0     H77931   8.213   9.610   6.524 -1.0382  0.5556  1.5392
  565MOL0     H77932   8.695   9.478   6.428  0.9400 -0.0945 -1.3452
  565MOL0     H77933   8.921   9.487   6.322 -1.3452  0.3111 -0.6950
  565MOL0     H77934   9.310   9.541   6.407 -1.9562 -2.1930  4.5697
  565MOL0     H77935   9.165   9.447   6.425  2.2020  0.2719  3.2200
  565MOL0     H77936   9.114   9.490   6.178 -1.1499  0.4845  2.7976
  565MOL0     H77937   9.235   9.625   6.189  3.4112 -0.7924 -0.7457
  565MOL0     H77938   9.343   9.363   6.255 -2.2670  1.7317  1.0354
  565MOL0     H77939   9.415   9.486   6.152  0.4233 -2.8664 -3.0246
  565MOL0     H77940   9.255   9.424   5.961  0.4990 -1.1810 -1.5447
  565MOL0     H77941   9.213   9.286   6.057 -0.7268  0.4974  4.3408
  565MOL0     H77942   9.488   9.331   5.946 -1.6503  0.5972 -0.2262
  565MOL0     H77943   9.451   9.230   6.084  1.7293 -1.8691 -1.4283
  565MOL0     H77944   9.345   9.229   5.805 -2.3771 -2.5248 -1.1039
  565MOL0     H77945   9.267   9.127   5.929 -0.1556  0.8431  3.5234
  565MOL0     H77946   9.472   9.021   5.963  0.0144 -1.0904 -0.6054
  565MOL0     H77947   9.576   9.128   5.875  0.1771 -1.8469  0.7971
  565MOL0     H77948   9.438   9.051   5.657 -0.4945  0.3019  0.6191
  565MOL0     H77949   9.401   8.916   5.771  1.8713 -2.9089 -1.9309
  565MOL0     H77950   9.037   9.790   6.587 -0.7907  1.1688  0.1174
  565MOL0     H77951   8.809   9.803   6.680  0.7939 -1.1014  0.6129
  565MOL0     H77952   8.527   9.819   6.946 -0.3056 -0.7254  0.9963
  565MOL0     H77953   8.313   9.900   7.033 -3.2156  0.6632 -0.0693
  565MOL0     H77954   7.307   9.804   7.482  0.7235  0.4626  0.6609
  565MOL0     H77955   7.534   9.801   7.584  2.9620  3.3374  1.9767
  565MOL0     H77956   8.080   9.729   7.496 -0.9222 -0.7109  1.0245
  565MOL0     H77957   8.244   9.766   7.663 -0.7888 -1.1232 -1.8712
  565MOL0     H77958   8.452  10.131   7.806 -0.8691  0.7683 -1.8012
  565MOL0     H77959   8.292  10.193   7.773  0.9216  0.8288  0.4138
  565MOL0     H77960   8.304  10.049   8.022 -0.4777 -1.0770 -2.4703
  565MOL0     H77961   8.244  10.221   7.994 -2.5131 -1.9675  1.8645
  565MOL0     H77962   8.537  10.106   8.014  1.0379  0.7074  0.2090
  565MOL0     H77963   8.497  10.274   7.995 -0.0976 -1.4208 -3.1353
  565MOL0     H77964   8.411  10.071   8.224  1.0315  1.0569  2.0418
  565MOL0     H77965   8.378  10.249   8.225 -0.3049  3.1510 -4.8462
  565MOL0     H77966   8.785  10.208   8.369 -1.6159 -1.9518  3.3709
  565MOL0     H77967   8.108  10.178   7.708 -1.7198 -1.1689  1.6657
  565MOL0     H77968   7.882  10.236   7.638  0.8408  0.5560  0.1105
  565MOL0     H77969   7.936  10.239   7.470  0.2546  1.5005  0.4307
  565MOL0     H77970   7.802  10.131   7.532  0.5334 -2.2599 -0.1414
  566MOL0     O77971   4.601   0.028   0.258  0.0837 -0.5785 -0.0976
  566MOL0     C77972   4.599   0.032   0.379  0.0085  0.5060 -0.5647
  566MOL0     O77973   4.489   0.028   0.457 -0.3929 -0.3648 -0.2556
  566MOL0     C77974   4.369   0.005   0.405  0.0650  0.1800 -0.6023
  566MOL0     C77975   4.283   0.111   0.383  0.1811  0.0534 -0.1648
  566MOL0     C77976   4.156   0.093   0.338  0.4737  0.2247 -0.1619
  566MOL0     C77977   4.118  -0.035   0.294  0.3934 -0.4967  0.2950
  566MOL0     O77978   3.987  -0.065   0.260 -0.1936  1.2650 -0.2583
  566MOL0     C77979   3.923   0.018   0.170 -0.4679 -0.4604 -0.0305
  566MOL0     C77980   3.772  -0.005   0.148  0.2927 -1.3426  0.4729
  566MOL0     C77981   3.702   0.021   0.285 -0.2061  0.1367 -0.5368
  566MOL0     C77982   3.548   0.042   0.271  0.0831  0.6246 -0.4422
  566MOL0     C77983   3.476  -0.080   0.220 -0.1841  0.2106  0.0072
  566MOL0     C77984   3.339  -0.043   0.157 -0.1551 -0.2324 -0.3409
  566MOL0     C77985   3.271  -0.168   0.106  0.0660  0.1538 -0.5615
  566MOL0     C77986   3.143  -0.136   0.014  0.0072 -0.0326  0.0107
  566MOL0     N77987   3.099  -0.236  -0.075 -0.4686  0.2495  0.2931
  566MOL0     C77988   2.964  -0.270  -0.098 -0.7448 -0.7505  0.1294
  566MOL0     C77989   2.977  -0.379  -0.182  0.0633 -0.1935  0.6341
  566MOL0     C77990   2.869  -0.450  -0.250  0.3604 -0.3620  0.4090
  566MOL0     C77991   2.790  -0.375  -0.345  0.2171 -0.6659 -0.5802
  566MOL0     C77992   2.680  -0.452  -0.422  0.4818  0.3075  0.1629
  566MOL0     C77993   2.733  -0.577  -0.493 -0.7188  0.2660  0.0532
  566MOL0     O77994   2.618  -0.617  -0.572  0.0951  0.2595  0.2426
  566MOL0     C77995   2.642  -0.717  -0.668  0.6523 -0.3074 -1.0357
  566MOL0     C77996   2.750  -0.798  -0.684 -0.2253  0.2551 -0.1318
  566MOL0     C77997   2.762  -0.889  -0.794 -0.6435  0.0210 -0.3848
  566MOL0     C77998   2.899  -0.967  -0.809  0.3041 -0.0436  0.7788
  566MOL0     C77999   2.649  -0.914  -0.878 -0.9949  0.1544  0.3868
  566MOL0     C78000   2.632  -1.010  -0.997 -0.0254  0.3834 -0.8232
  566MOL0     O78001   2.518  -0.993  -1.065  0.1060 -0.0034 -0.1649
  566MOL0     C78002   2.514  -1.028  -1.202 -0.8672  0.5155  0.3006
  566MOL0     C78003   2.605  -0.978  -1.295 -0.2321  0.6693 -0.1066
  566MOL0     C78004   2.595  -1.014  -1.430 -0.3631  1.1485  0.2315
  566MOL0     C78005   2.510  -1.118  -1.473 -0.9024  0.2601  0.1582
  566MOL0     O78006   2.507  -1.168  -1.601  0.0017 -0.4530  0.3353
  566MOL0     C78007   2.560  -1.092  -1.712  0.1438  0.2064  0.3895
  566MOL0     C78008   2.487  -0.949  -1.736  1.3905  0.4261  0.1772
  566MOL0     C78009   2.335  -0.957  -1.751 -0.9779 -0.2566  0.0527
  566MOL0     C78010   2.254  -0.822  -1.737  0.1173 -0.1565 -0.2086
  566MOL0     C78011   2.118  -0.850  -1.797 -0.5490  1.3376  0.2722
  566MOL0     C78012   2.055  -0.730  -1.865 -0.0715 -0.8498 -0.1168
  566MOL0     C78013   1.929  -0.737  -1.936  0.8513 -1.0076 -0.0158
  566MOL0     C78014   1.897  -0.628  -2.037  0.0112 -0.0669 -0.1956
  566MOL0    Cl78015   1.884  -0.466  -1.938  0.1469  0.0320 -0.4344
  566MOL0     C78016   2.432  -1.173  -1.370 -0.6120  0.3119 -1.1399
  566MOL0     C78017   2.426  -1.126  -1.240  0.6898  0.2099  0.0481
  566MOL0     O78018   2.731  -1.078  -1.035 -0.3299  0.6065  0.4749
  566MOL0     C78019   2.529  -0.837  -0.853 -1.1229  0.1387  0.0738
  566MOL0     C78020   2.535  -0.735  -0.754  0.7213  0.7293  0.5962
  566MOL0     N78021   3.111  -0.405  -0.212  0.5362 -0.6402  0.1365
  566MOL0     N78022   3.187  -0.315  -0.153  0.9370 -0.1594  0.2818
  566MOL0     C78023   4.199  -0.146   0.312 -0.2574 -1.1955 -0.2393
  566MOL0     C78024   4.326  -0.125   0.376  0.0459  0.1279  0.4854
  566MOL0     C78025   4.719   0.008   0.457 -0.8808 -0.2395 -0.1082
  566MOL0     C78026   4.724  -0.084   0.569  1.7380  0.1002 -0.8305
  566MOL0     C78027   4.834  -0.119   0.639 -1.1315  0.3597  0.0696
  566MOL0     C78028   4.957  -0.053   0.612  0.5647  0.0687 -0.2169
  566MOL0     O78029   5.073  -0.082   0.670  0.0794 -0.7467 -0.8968
  566MOL0     C78030   5.149  -0.185   0.607 -0.2021  0.5486 -1.0072
  566MOL0     C78031   5.300  -0.173   0.623  0.3333 -0.7897  0.9694
  566MOL0     C78032   5.341  -0.190   0.771  0.2275 -0.5722  0.6459
  566MOL0     C78033   5.341  -0.336   0.819 -0.7636  0.6094  0.5395
  566MOL0     C78034   5.434  -0.337   0.933  0.7122 -0.6798 -0.1986
  566MOL0     C78035   5.506  -0.354   1.029  0.4985 -0.9960  1.2188
  566MOL0     C78036   4.953   0.039   0.512 -0.0954 -0.4008  0.2462
  566MOL0     C78037   4.837   0.071   0.432 -0.1971 -0.4285  1.1116
  566MOL0     C78038   4.861   0.168   0.319 -0.2348  0.4721 -0.1223
  566MOL0     H78039   4.320   0.207   0.420 -2.0910  1.2066 -0.6958
  566MOL0     H78040   4.096   0.183   0.332 -0.3462 -0.3578 -1.1446
  566MOL0     H78041   3.973   0.015   0.073  1.3511  2.6572  0.6596
  566MOL0     H78042   3.936   0.124   0.197 -1.4130 -0.5753  0.9677
  566MOL0     H78043   3.736   0.072   0.078  4.0871 -1.4931 -1.9293
  566MOL0     H78044   3.744  -0.099   0.099 -0.7807 -0.1644 -1.3168
  566MOL0     H78045   3.718  -0.069   0.346  1.9477  0.7330 -0.1526
  566MOL0     H78046   3.745   0.107   0.338  0.2907 -1.1424  1.2388
  566MOL0     H78047   3.508   0.073   0.368 -2.1142 -0.4115 -0.9412
  566MOL0     H78048   3.535   0.126   0.203  0.1221  0.5171 -0.5820
  566MOL0     H78049   3.454  -0.143   0.307 -1.6470 -1.2431 -1.3416
  566MOL0     H78050   3.536  -0.136   0.149  1.0710 -0.7117  1.7068
  566MOL0     H78051   3.273  -0.007   0.237 -2.5071  0.6229 -2.5029
  566MOL0     H78052   3.378   0.028   0.083  4.1533 -0.6844  1.2476
  566MOL0     H78053   3.243  -0.229   0.193 -0.6698  0.9777 -0.2052
  566MOL0     H78054   3.353  -0.225   0.062  1.4083  2.2021 -0.8275
  566MOL0     H78055   3.061  -0.098   0.074  0.7346  2.4811 -0.4931
  566MOL0     H78056   3.171  -0.056  -0.055  0.5739  0.0077  0.2795
  566MOL0     H78057   2.881  -0.211  -0.061  0.8031  1.2495  0.5525
  566MOL0     H78058   2.800  -0.475  -0.169 -0.0931  0.1289  0.1737
  566MOL0     H78059   2.910  -0.544  -0.289  1.4567  0.6027 -0.8783
  566MOL0     H78060   2.737  -0.300  -0.286  2.2759  0.1610  0.2971
  566MOL0     H78061   2.864  -0.324  -0.408 -1.7389  0.6118 -1.9566
  566MOL0     H78062   2.603  -0.496  -0.358  0.9322 -2.6738 -1.1711
  566MOL0     H78063   2.626  -0.388  -0.492 -1.9121 -0.6784  1.0084
  566MOL0     H78064   2.822  -0.548  -0.550 -1.9219  2.9510 -0.6259
  566MOL0     H78065   2.756  -0.667  -0.435  0.2933 -1.0951 -2.3433
  566MOL0     H78066   2.836  -0.774  -0.622  1.5956 -1.8902 -1.6399
  566MOL0     H78067   2.974  -0.931  -0.737  1.2445  0.7134 -0.5240
  566MOL0     H78068   2.942  -0.951  -0.909  1.0999 -1.4095  0.8813
  566MOL0     H78069   2.888  -1.075  -0.796 -0.5962  0.1509  1.7260
  566MOL0     H78070   2.678  -0.914  -1.246 -0.0252  0.6339 -0.3705
  566MOL0     H78071   2.648  -0.957  -1.506  1.8203  0.8734  1.4791
  566MOL0     H78072   2.665  -1.067  -1.700  0.1810  1.4665 -1.9608
  566MOL0     H78073   2.554  -1.167  -1.791  0.5579 -0.0458  0.6000
  566MOL0     H78074   2.509  -0.871  -1.661  0.6422 -0.8042  1.7337
  566MOL0     H78075   2.527  -0.921  -1.834 -0.8257 -1.3718 -1.3216
  566MOL0     H78076   2.294  -1.026  -1.677  0.5476 -2.0981 -0.7338
  566MOL0     H78077   2.326  -1.000  -1.851  3.1839 -0.5908 -0.3370
  566MOL0     H78078   2.301  -0.734  -1.781  1.3444 -0.8925 -0.4361
  566MOL0     H78079   2.248  -0.795  -1.631  2.7990  3.5461 -0.8161
  566MOL0     H78080   2.135  -0.917  -1.882  0.5461 -0.2235  1.6673
  566MOL0     H78081   2.050  -0.894  -1.724 -2.3953  4.9469  0.9536
  566MOL0     H78082   2.129  -0.678  -1.928 -0.2856 -0.4716 -0.0583
  566MOL0     H78083   2.036  -0.650  -1.792  2.4369 -0.9448  0.7555
  566MOL0     H78084   1.843  -0.728  -1.870  0.1019  0.4333 -1.1125
  566MOL0     H78085   1.921  -0.829  -1.994  1.3150  0.9906 -3.6200
  566MOL0     H78086   1.801  -0.664  -2.076  0.5583 -1.7991 -0.0580
  566MOL0     H78087   1.977  -0.628  -2.112  0.4603  0.2170  0.2755
  566MOL0     H78088   2.364  -1.255  -1.392  0.1953 -1.9565  3.4884
  566MOL0     H78089   2.368  -1.174  -1.162 -0.6384  1.8673  0.1348
  566MOL0     H78090   2.438  -0.850  -0.911 -0.1964  1.4396 -1.7808
  566MOL0     H78091   2.446  -0.675  -0.737  0.1560  0.6193 -1.7117
  566MOL0     H78092   4.187  -0.242   0.263  0.6803 -1.1762 -0.5136
  566MOL0     H78093   4.396  -0.207   0.384  0.4645  0.4470  0.1768
  566MOL0     H78094   4.641  -0.149   0.596  2.2933 -0.2154  0.1459
  566MOL0     H78095   4.815  -0.192   0.718 -1.1781 -0.4035 -0.6348
  566MOL0     H78096   5.123  -0.287   0.636  1.6760 -0.0121 -1.1471
  566MOL0     H78097   5.123  -0.186   0.501  0.4742 -1.0904 -1.1764
  566MOL0     H78098   5.299  -0.071   0.585 -1.9434 -0.1432  2.5726
  566MOL0     H78099   5.363  -0.239   0.562  0.7604 -0.7122  1.3156
  566MOL0     H78100   5.444  -0.154   0.777  0.9884 -2.5111  0.0184
  566MOL0     H78101   5.267  -0.132   0.827 -0.6693  2.2564 -3.0355
  566MOL0     H78102   5.384  -0.404   0.746 -0.3509  1.0049  0.4073
  566MOL0     H78103   5.240  -0.369   0.845 -0.4665 -1.3510 -0.5899
  566MOL0     H78104   5.577  -0.364   1.108  0.1508 -2.0719  1.4026
  566MOL0     H78105   5.045   0.091   0.487 -0.4664  1.7139  2.7847
  566MOL0     H78106   4.927   0.251   0.346 -2.0235  1.3659  1.8556
  566MOL0     H78107   4.900   0.107   0.237  0.2680  0.4833  0.1092
  566MOL0     H78108   4.761   0.206   0.293 -2.0572 -1.7871  2.8520
  567MOL0     O78109   8.173   8.542   6.594 -0.6658  0.6699 -0.0735
  567MOL0     C78110   8.278   8.528   6.659  0.0706  0.7543  0.5897
  567MOL0     O78111   8.400   8.509   6.599  0.3051 -0.6213  0.0609
  567MOL0     C78112   8.396   8.532   6.462 -0.1540  0.1151  0.0500
  567MOL0     C78113   8.405   8.427   6.381 -0.0658  0.0142  0.2623
  567MOL0     C78114   8.407   8.443   6.241 -0.1663 -0.5992  0.0988
  567MOL0     C78115   8.405   8.572   6.179 -0.0488 -0.4349 -0.0569
  567MOL0     O78116   8.423   8.586   6.039 -0.3747 -0.7946 -0.1283
  567MOL0     C78117   8.497   8.493   5.958  0.4704 -0.0157 -0.3988
  567MOL0     C78118   8.460   8.469   5.811  0.1624  0.4735 -1.1053
  567MOL0     C78119   8.484   8.597   5.735 -0.2917 -0.0980  0.0743
  567MOL0     C78120   8.529   8.569   5.589  0.6429 -0.1180  0.3845
  567MOL0     C78121   8.547   8.701   5.520  0.9083 -0.6628  0.3649
  567MOL0     C78122   8.608   8.683   5.387  1.2692 -1.2184  0.3297
  567MOL0     C78123   8.666   8.822   5.332  0.2460 -0.6145 -0.2995
  567MOL0     C78124   8.705   8.814   5.181 -0.4796 -0.2309  0.5419
  567MOL0     N78125   8.775   8.930   5.137  0.1674  0.2244 -0.3359
  567MOL0     C78126   8.899   8.956   5.184 -0.6170 -0.0399 -0.7045
  567MOL0     C78127   8.930   9.081   5.128  0.6326 -0.4198 -0.9544
  567MOL0     C78128   9.058   9.155   5.155 -0.4765 -0.2318 -0.2376
  567MOL0     C78129   9.074   9.280   5.064 -0.1388  0.8945  1.0349
  567MOL0     C78130   9.222   9.327   5.040  0.0144 -0.1514  0.0363
  567MOL0     C78131   9.222   9.413   4.912 -0.7186 -0.5190  0.8992
  567MOL0     O78132   9.362   9.465   4.904  0.0637  0.6688 -0.3511
  567MOL0     C78133   9.474   9.397   4.864 -0.4675 -0.7459  0.8888
  567MOL0     C78134   9.596   9.464   4.855 -0.1235 -0.0464  0.1056
  567MOL0     C78135   9.715   9.395   4.810  0.3241 -0.5620  0.1670
  567MOL0     C78136   9.852   9.462   4.799  0.4217  0.1395  0.2103
  567MOL0     C78137   9.701   9.259   4.767  0.5787  0.4383  0.3809
  567MOL0     C78138   9.809   9.165   4.727 -0.2234 -0.4258 -0.2091
  567MOL0     O78139   9.819   9.046   4.800  0.8090 -0.0056  0.0467
  567MOL0     C78140   9.920   8.962   4.761  0.4511  0.0775  1.1001
  567MOL0     C78141  10.053   8.977   4.801 -1.3481 -0.1941  0.0645
  567MOL0     C78142  10.148   8.878   4.774 -0.1060  1.2472 -0.4733
  567MOL0     C78143  10.110   8.759   4.700  0.5734 -0.3197 -1.0062
  567MOL0     O78144  10.188   8.652   4.678 -0.4169  0.4316 -0.2492
  567MOL0     C78145  10.317   8.638   4.747  0.3787  0.1936 -0.3278
  567MOL0     C78146  10.361   8.493   4.728  0.5789 -0.1821 -0.4025
  567MOL0     C78147  10.513   8.494   4.705 -0.0272 -0.4488 -0.4585
  567MOL0     C78148  10.562   8.355   4.687  0.0056  0.2830  0.3608
  567MOL0     C78149  10.712   8.362   4.640  0.5516 -0.6604  0.0896
  567MOL0     C78150  10.775   8.219   4.616  0.9481  0.6771 -0.1141
  567MOL0     C78151  10.819   8.160   4.749 -0.0395  0.3139  0.4825
  567MOL0     C78152  10.931   8.066   4.747 -0.3233 -0.5524 -0.4332
  567MOL0    Cl78153  10.913   7.929   4.636  0.0761 -0.3065  0.2944
  567MOL0     C78154   9.977   8.749   4.659  0.1603 -0.3578  0.0391
  567MOL0     C78155   9.886   8.849   4.693  0.2641  1.1737 -0.3303
  567MOL0     O78156   9.858   9.182   4.615  0.5586 -0.8074 -0.0293
  567MOL0     C78157   9.576   9.194   4.781 -0.1457 -0.8356 -0.7790
  567MOL0     C78158   9.473   9.267   4.830  0.6816  0.5076 -0.0754
  567MOL0     N78159   8.815   9.119   5.063  0.2873 -0.5360  0.6178
  567MOL0     N78160   8.721   9.031   5.059  0.7079  0.2833  0.1042
  567MOL0     C78161   8.395   8.683   6.264  0.1097 -0.1377  0.3119
  567MOL0     C78162   8.382   8.662   6.403  0.5863  0.0544 -0.2126
  567MOL0     C78163   8.278   8.526   6.803  0.2746 -0.3542 -0.1049
  567MOL0     C78164   8.385   8.479   6.877 -0.0936  0.5161  0.3845
  567MOL0     C78165   8.398   8.491   7.014 -0.5110 -0.3314  0.5930
  567MOL0     C78166   8.292   8.525   7.093 -0.6105 -0.1405  0.3882
  567MOL0     O78167   8.307   8.543   7.224 -0.4190  0.1084  0.4531
  567MOL0     C78168   8.183   8.542   7.301  0.2278 -0.2941 -0.4810
  567MOL0     C78169   8.213   8.523   7.445 -0.7118 -0.2380  0.3855
  567MOL0     C78170   8.263   8.378   7.487  0.3086 -0.3805 -0.3555
  567MOL0     C78171   8.323   8.370   7.625  0.4976  0.2405 -1.1692
  567MOL0     C78172   8.410   8.254   7.633  0.1070 -0.2404  0.5416
  567MOL0     C78173   8.474   8.155   7.662 -0.0628 -0.4784  0.1005
  567MOL0     C78174   8.178   8.556   7.018  0.5931  0.0208  0.0321
  567MOL0     C78175   8.167   8.562   6.878  0.1715  0.2449  0.6578
  567MOL0     C78176   8.039   8.606   6.817  0.5731 -0.5254 -0.1914
  567MOL0     H78177   8.406   8.321   6.404  3.0230 -0.9229 -3.2668
  567MOL0     H78178   8.430   8.355   6.182 -0.2027 -0.5509  0.0136
  567MOL0     H78179   8.505   8.394   6.003 -0.0598  0.3644  0.5857
  567MOL0     H78180   8.598   8.535   5.967  0.5378 -0.5507  2.6282
  567MOL0     H78181   8.519   8.387   5.769  1.3339 -0.1970  1.5818
  567MOL0     H78182   8.355   8.439   5.807  0.4760 -0.5370 -2.2293
  567MOL0     H78183   8.386   8.647   5.729  0.1632  0.6465 -3.2908
  567MOL0     H78184   8.546   8.673   5.783 -0.7813  0.2666  0.1429
  567MOL0     H78185   8.623   8.513   5.599  0.0267 -0.7140  4.7684
  567MOL0     H78186   8.470   8.500   5.528  3.4068 -1.1776 -1.3286
  567MOL0     H78187   8.597   8.783   5.572 -0.7177  0.9232 -0.4300
  567MOL0     H78188   8.445   8.739   5.509  1.2428  2.1927  4.5649
  567MOL0     H78189   8.690   8.611   5.393  1.1290 -1.2490  3.4972
  567MOL0     H78190   8.534   8.649   5.314  0.4394 -0.0439  0.5895
  567MOL0     H78191   8.762   8.833   5.383 -0.8640  0.8657  1.6035
  567MOL0     H78192   8.602   8.904   5.366  1.7772  0.2574  0.6462
  567MOL0     H78193   8.778   8.734   5.171  3.0717  2.1114  4.4972
  567MOL0     H78194   8.622   8.798   5.112  1.2700 -1.2009 -1.4380
  567MOL0     H78195   8.959   8.899   5.254 -0.0599  1.7420  0.3299
  567MOL0     H78196   9.150   9.096   5.149  0.5962  1.4470 -0.9934
  567MOL0     H78197   9.055   9.180   5.261 -3.2642 -0.8274 -0.1007
  567MOL0     H78198   9.039   9.266   4.961 -0.6582 -1.3828  1.4699
  567MOL0     H78199   9.021   9.363   5.112 -1.7193  1.0815 -0.8727
  567MOL0     H78200   9.253   9.395   5.121  0.4325  2.1916 -1.9839
  567MOL0     H78201   9.286   9.240   5.026 -0.3390 -0.0294 -2.8695
  567MOL0     H78202   9.188   9.354   4.827 -0.3390  1.5827 -0.7845
  567MOL0     H78203   9.154   9.497   4.928 -0.2093 -0.3136  2.1544
  567MOL0     H78204   9.599   9.570   4.876 -0.8285 -0.5844  3.5081
  567MOL0     H78205   9.916   9.417   4.876  0.2683 -0.2113  0.1323
  567MOL0     H78206   9.850   9.571   4.806 -2.8763  0.2540 -0.7692
  567MOL0     H78207   9.904   9.442   4.705 -0.2418 -1.1751  0.1021
  567MOL0     H78208  10.084   9.066   4.855  0.7257 -0.0960 -1.1805
  567MOL0     H78209  10.248   8.905   4.809  0.1812  0.1895 -0.4400
  567MOL0     H78210  10.387   8.712   4.709  0.4403  1.1779  1.5872
  567MOL0     H78211  10.301   8.658   4.853  0.2550 -0.5077 -0.2109
  567MOL0     H78212  10.325   8.433   4.812 -0.0155 -1.5691 -1.6141
  567MOL0     H78213  10.311   8.451   4.640 -1.6283 -2.1130  1.6353
  567MOL0     H78214  10.567   8.535   4.791  0.2948 -0.6087 -0.5851
  567MOL0     H78215  10.528   8.554   4.615 -1.2636  0.0112 -0.3827
  567MOL0     H78216  10.509   8.293   4.614 -1.2795  0.3978  1.1629
  567MOL0     H78217  10.563   8.310   4.787 -0.0045  0.1561  0.3041
  567MOL0     H78218  10.714   8.420   4.547  1.0993 -0.2275  0.3633
  567MOL0     H78219  10.775   8.417   4.710  1.4249 -0.5288 -0.7747
  567MOL0     H78220  10.860   8.204   4.548  1.3607  0.3305  0.4750
  567MOL0     H78221  10.698   8.153   4.576  0.5516  0.4855  0.9585
  567MOL0     H78222  10.743   8.105   4.806 -1.8366  1.7329 -0.4323
  567MOL0     H78223  10.850   8.246   4.809  0.4711  1.1425 -0.9194
  567MOL0     H78224  10.944   8.020   4.845  0.4846 -0.1827 -0.3615
  567MOL0     H78225  11.022   8.124   4.731 -0.8398  0.7955  1.2294
  567MOL0     H78226   9.950   8.671   4.588 -1.6305 -0.4135  0.7207
  567MOL0     H78227   9.790   8.849   4.643 -0.0707  3.6550  0.2216
  567MOL0     H78228   9.554   9.092   4.754 -5.8587 -0.6939  1.8859
  567MOL0     H78229   9.381   9.210   4.825 -0.0736  1.7818 -2.0297
  567MOL0     H78230   8.380   8.784   6.229  1.5427  0.1582  0.5028
  567MOL0     H78231   8.374   8.744   6.474  0.5794 -0.6265  0.5797
  567MOL0     H78232   8.477   8.454   6.826  0.9097 -0.8320  2.6767
  567MOL0     H78233   8.487   8.471   7.073  0.1391  0.3291 -0.1345
  567MOL0     H78234   8.145   8.642   7.278  1.5008  0.2649 -0.2419
  567MOL0     H78235   8.106   8.470   7.272 -0.4769 -0.0115  0.6331
  567MOL0     H78236   8.133   8.550   7.514 -1.2584 -3.4906  1.2349
  567MOL0     H78237   8.302   8.582   7.464  0.9913 -2.1238 -1.2133
  567MOL0     H78238   8.182   8.306   7.475 -0.0195 -0.0831  0.0235
  567MOL0     H78239   8.339   8.352   7.413  0.4892 -1.3789  0.1650
  567MOL0     H78240   8.260   8.367   7.714  0.8651  2.6037 -0.7500
  567MOL0     H78241   8.375   8.464   7.643 -0.9186  1.3050 -2.3779
  567MOL0     H78242   8.538   8.070   7.671  4.7212  2.6365 -0.4236
  567MOL0     H78243   8.091   8.587   7.075 -0.2295 -2.2374  0.0810
  567MOL0     H78244   7.973   8.632   6.900 -0.7949 -2.6435 -0.5475
  567MOL0     H78245   8.057   8.694   6.754  0.9610  0.3306  1.0722
  567MOL0     H78246   7.989   8.534   6.752  3.5017 -1.6618 -1.3549
  568MOL0     O78247   3.589   5.448   7.738 -0.4888  0.2427  0.0511
  568MOL0     C78248   3.576   5.540   7.664 -0.4717  0.6234 -0.9546
  568MOL0     O78249   3.673   5.626   7.623  0.6785 -0.1576  0.1013
  568MOL0     C78250   3.792   5.650   7.687  0.4243 -0.8951  0.2298
  568MOL0     C78251   3.847   5.570   7.784  0.1153  0.1054  0.5581
  568MOL0     C78252   3.966   5.605   7.841 -0.1446 -0.2318 -0.0656
  568MOL0     C78253   4.020   5.729   7.819  0.3009 -0.3405 -0.4749
  568MOL0     O78254   4.124   5.770   7.900 -0.1833  1.1269 -0.5557
  568MOL0     C78255   4.080   5.813   8.036 -0.6283  0.3220  0.4955
  568MOL0     C78256   4.187   5.891   8.100  0.1367  0.1072 -0.0929
  568MOL0     C78257   4.237   6.016   8.017 -0.3974  0.1710  0.1067
  568MOL0     C78258   4.140   6.129   7.984  0.0050 -0.8671 -0.2564
  568MOL0     C78259   4.210   6.240   7.893  0.5110  0.5359  0.8793
  568MOL0     C78260   4.147   6.379   7.916  0.3512  0.4430  0.3817
  568MOL0     C78261   4.219   6.494   7.846 -0.4966  0.0463 -0.4682
  568MOL0     C78262   4.368   6.520   7.893  0.2822 -0.2057 -0.1264
  568MOL0     N78263   4.368   6.540   8.033 -0.0431  0.6330 -0.9255
  568MOL0     C78264   4.317   6.655   8.093 -0.1982 -0.0889 -0.6868
  568MOL0     C78265   4.342   6.629   8.227 -0.1579 -0.1886  0.1579
  568MOL0     C78266   4.305   6.709   8.352  0.0368  0.1999  0.6847
  568MOL0     C78267   4.409   6.700   8.462  0.3044 -0.9657  0.3874
  568MOL0     C78268   4.553   6.739   8.428  1.5751  0.0712  0.1493
  568MOL0     C78269   4.655   6.644   8.501  0.0205  0.0473 -0.1264
  568MOL0     O78270   4.657   6.655   8.643  0.5170  0.6255 -0.3871
  568MOL0     C78271   4.697   6.540   8.715 -0.0236  0.6579  0.0317
  568MOL0     C78272   4.811   6.529   8.799  0.0174 -0.2739 -0.7538
  568MOL0     C78273   4.829   6.412   8.881 -1.2801 -0.2364  0.4686
  568MOL0     C78274   4.952   6.400   8.969  0.4382  0.7208  0.0487
  568MOL0     C78275   4.743   6.303   8.871 -0.0750  0.1822  0.6290
  568MOL0     C78276   4.751   6.164   8.926 -0.9678  1.0619  0.0420
  568MOL0     O78277   4.659   6.076   8.887  0.7197  0.0768  0.0784
  568MOL0     C78278   4.680   5.943   8.923 -0.3283 -0.6094  0.0964
  568MOL0     C78279   4.584   5.871   8.990 -0.3381 -0.1164 -0.6295
  568MOL0     C78280   4.617   5.747   9.048 -0.0656  0.1405 -0.1609
  568MOL0     C78281   4.741   5.677   9.032  0.0652  0.2318 -0.5793
  568MOL0     O78282   4.763   5.557   9.087  0.3837  0.1598 -0.0720
  568MOL0     C78283   4.728   5.529   9.219  0.7992  0.4477 -0.0927
  568MOL0     C78284   4.746   5.375   9.234  0.3668 -0.5225  0.5302
  568MOL0     C78285   4.642   5.285   9.156 -0.9959 -0.1644  0.6284
  568MOL0     C78286   4.505   5.272   9.221  0.8985 -0.6447 -1.1106
  568MOL0     C78287   4.385   5.284   9.125 -1.0257 -0.4455 -0.0200
  568MOL0     C78288   4.340   5.426   9.102 -0.0068 -0.3493  0.3710
  568MOL0     C78289   4.255   5.430   8.976  0.3688 -0.0683 -0.2113
  568MOL0     C78290   4.187   5.570   8.957  0.0054 -0.1018 -0.5689
  568MOL0    Cl78291   4.030   5.512   8.900  0.4641 -0.0319 -0.6471
  568MOL0     C78292   4.832   5.742   8.946  0.4481  0.0001 -0.4964
  568MOL0     C78293   4.802   5.880   8.896  0.6599  0.0880  1.1039
  568MOL0     O78294   4.842   6.139   9.006  0.4121 -0.3571 -0.2104
  568MOL0     C78295   4.633   6.320   8.790  1.0915  0.1734  0.0267
  568MOL0     C78296   4.611   6.434   8.707 -0.2231  0.3451 -0.0115
  568MOL0     N78297   4.406   6.503   8.245  0.0375 -0.3465  0.4122
  568MOL0     N78298   4.414   6.451   8.127  0.1350  0.5326 -0.3867
  568MOL0     C78299   3.961   5.811   7.715  0.3882  0.9336 -0.5862
  568MOL0     C78300   3.841   5.773   7.660 -0.5327  0.2443  0.4912
  568MOL0     C78301   3.446   5.555   7.596  0.4961  0.0782  0.6896
  568MOL0     C78302   3.433   5.646   7.489 -0.3457  0.2190 -0.3262
  568MOL0     C78303   3.321   5.654   7.405  0.7208  0.6145 -0.4342
  568MOL0     C78304   3.200   5.583   7.440 -1.1268 -0.1945 -0.0761
  568MOL0     O78305   3.070   5.604   7.394  0.3214  0.1490  0.2225
  568MOL0     C78306   3.054   5.614   7.253  0.5803  0.0399  0.4577
  568MOL0     C78307   3.080   5.474   7.192  0.2780 -0.8363  0.1920
  568MOL0     C78308   2.964   5.380   7.192  0.5219  0.8557 -0.2954
  568MOL0     C78309   2.997   5.242   7.125 -0.6139  0.2794  0.2016
  568MOL0     C78310   2.995   5.244   6.972  0.4039 -0.7890  0.7883
  568MOL0     C78311   3.005   5.240   6.846  0.0598  0.2214  0.2430
  568MOL0     C78312   3.215   5.498   7.546  0.6023  0.8376 -0.2940
  568MOL0     C78313   3.330   5.479   7.623 -0.5014 -0.3259 -0.2959
  568MOL0     C78314   3.319   5.389   7.746  0.4418 -0.0162  0.1005
  568MOL0     H78315   3.794   5.487   7.829 -2.4895  1.7141  0.6347
  568MOL0     H78316   4.014   5.546   7.919 -0.5914 -0.9515 -0.3220
  568MOL0     H78317   4.057   5.727   8.099 -1.8279  1.0430  1.0644
  568MOL0     H78318   3.984   5.865   8.036 -0.2138  1.1831 -1.8666
  568MOL0     H78319   4.146   5.924   8.196  0.5336 -0.6911  0.3592
  568MOL0     H78320   4.280   5.836   8.116  1.4499  2.2328  0.0515
  568MOL0     H78321   4.309   6.067   8.082  1.2251 -1.2579 -0.5086
  568MOL0     H78322   4.285   5.970   7.930  3.3852 -3.8328  3.8004
  568MOL0     H78323   4.051   6.092   7.934 -1.2730  1.4969  0.1318
  568MOL0     H78324   4.112   6.171   8.081 -2.7176  1.0475 -1.7467
  568MOL0     H78325   4.195   6.214   7.788  0.5741 -0.4924  1.1137
  568MOL0     H78326   4.316   6.252   7.915  0.9405  3.5033 -1.9833
  568MOL0     H78327   4.047   6.383   7.871 -0.0402  3.8577  1.2897
  568MOL0     H78328   4.133   6.395   8.023 -1.0279 -3.1436  0.8799
  568MOL0     H78329   4.160   6.586   7.856 -2.3986 -1.2744  1.3587
  568MOL0     H78330   4.217   6.471   7.739 -1.3279  1.4184 -0.7747
  568MOL0     H78331   4.423   6.428   7.876 -0.4692 -0.7587  0.3529
  568MOL0     H78332   4.417   6.600   7.838 -2.6886  0.9387 -1.3224
  568MOL0     H78333   4.272   6.742   8.045 -0.5901  0.1742  0.1498
  568MOL0     H78334   4.210   6.679   8.397  0.7756 -0.8961  1.5745
  568MOL0     H78335   4.287   6.810   8.316  3.3949  0.9283  0.7212
  568MOL0     H78336   4.381   6.757   8.550  0.7649 -0.8963  0.4931
  568MOL0     H78337   4.398   6.595   8.492 -2.6516 -0.6457  0.7348
  568MOL0     H78338   4.569   6.741   8.320  2.0303 -1.0594  0.1831
  568MOL0     H78339   4.580   6.841   8.455  0.8812  2.1532 -5.6462
  568MOL0     H78340   4.625   6.542   8.475  0.8162 -0.4975  1.0288
  568MOL0     H78341   4.752   6.656   8.451  0.3881  2.1308  0.9833
  568MOL0     H78342   4.875   6.617   8.805  1.0156 -0.8697 -2.1632
  568MOL0     H78343   5.012   6.490   8.957  2.6408 -0.1174  3.5207
  568MOL0     H78344   5.002   6.306   8.946 -2.4038 -0.3492 -2.4406
  568MOL0     H78345   4.924   6.395   9.074  1.2986  1.7694  0.3483
  568MOL0     H78346   4.495   5.925   9.021  0.3219  1.0948 -0.7784
  568MOL0     H78347   4.555   5.704   9.126  1.9441 -3.3732 -0.2487
  568MOL0     H78348   4.796   5.575   9.292  0.6747  1.0002 -0.3191
  568MOL0     H78349   4.630   5.572   9.243  0.6181  0.6114 -1.1066
  568MOL0     H78350   4.846   5.356   9.195  1.9144  1.8417  2.9928
  568MOL0     H78351   4.729   5.360   9.341  0.7808 -2.1170  0.3960
  568MOL0     H78352   4.684   5.185   9.174  0.0939  0.6419  2.8325
  568MOL0     H78353   4.649   5.310   9.049 -0.1987 -2.0233  0.2012
  568MOL0     H78354   4.486   5.346   9.301 -1.0699  0.3046 -2.3782
  568MOL0     H78355   4.494   5.171   9.261 -1.0142 -1.0145 -2.3999
  568MOL0     H78356   4.403   5.232   9.031  0.0467 -0.8078  0.3765
  568MOL0     H78357   4.300   5.237   9.175  0.3863 -0.7511  2.2595
  568MOL0     H78358   4.426   5.492   9.090 -0.3919  0.8033  3.2076
  568MOL0     H78359   4.288   5.452   9.194 -0.0951 -3.3104  1.2431
  568MOL0     H78360   4.175   5.356   8.988 -0.4190  0.9054  0.7367
  568MOL0     H78361   4.311   5.400   8.886 -1.5819 -1.1840 -1.1347
  568MOL0     H78362   4.244   5.637   8.893  0.0555  1.1998  0.7821
  568MOL0     H78363   4.169   5.624   9.051  0.1594 -0.2630 -0.4454
  568MOL0     H78364   4.931   5.704   8.924  0.5409 -0.4409  0.6009
  568MOL0     H78365   4.869   5.942   8.836 -2.7982  5.5520  2.1453
  568MOL0     H78366   4.553   6.247   8.776 -0.7731  2.0671  0.3525
  568MOL0     H78367   4.525   6.431   8.642  1.7809 -2.9163 -2.7915
  568MOL0     H78368   4.006   5.909   7.700  0.8204  0.7421 -0.5608
  568MOL0     H78369   3.782   5.832   7.590 -1.6224 -0.5471  0.7219
  568MOL0     H78370   3.514   5.716   7.476 -1.1834  1.6492  1.6120
  568MOL0     H78371   3.320   5.730   7.327 -1.7411  0.4101 -0.6711
  568MOL0     H78372   2.953   5.650   7.235 -0.0262 -0.8956  1.7910
  568MOL0     H78373   3.110   5.700   7.215 -1.4603  1.4250  0.4650
  568MOL0     H78374   3.165   5.425   7.240  0.3889  1.1404  2.2041
  568MOL0     H78375   3.107   5.494   7.088  2.3468 -2.9219  0.2415
  568MOL0     H78376   2.954   5.362   7.300 -0.5600  3.2480  0.0838
  568MOL0     H78377   2.870   5.420   7.154  0.6250  0.6520 -0.7608
  568MOL0     H78378   2.916   5.170   7.145 -0.1707 -1.2124 -2.7842
  568MOL0     H78379   3.082   5.192   7.173 -1.2653 -3.1478 -1.8760
  568MOL0     H78380   3.025   5.227   6.742  1.4471  0.7882  0.4126
  568MOL0     H78381   3.121   5.448   7.563  0.6605 -0.0714 -2.3654
  568MOL0     H78382   3.222   5.340   7.758 -0.2467  1.4963  1.0295
  568MOL0     H78383   3.390   5.305   7.749 -0.0989 -0.4733  0.2532
  568MOL0     H78384   3.351   5.443   7.835 -1.2965  0.4342  0.4770
  569MOL0     O78385   6.750   2.153   9.582 -0.2578 -0.1217 -0.1718
  569MOL0     C78386   6.719   2.066   9.663 -1.4685  0.1943  0.9734
  569MOL0     O78387   6.781   1.933   9.668 -0.3717  0.3546 -0.3733
  569MOL0     C78388   6.871   1.902   9.577 -0.5972  0.3057  0.6451
  569MOL0     C78389   6.829   1.872   9.443 -0.0377 -0.4946  0.3959
  569MOL0     C78390   6.917   1.813   9.356 -0.7764  0.1436  0.1321
  569MOL0     C78391   7.048   1.773   9.399  0.4862 -0.4708 -0.1119
  569MOL0     O78392   7.128   1.721   9.297  0.3242 -0.4239  0.6045
  569MOL0     C78393   7.260   1.666   9.333 -0.0512  0.1719 -0.9791
  569MOL0     C78394   7.331   1.590   9.223  0.2419 -0.5177  0.2854
  569MOL0     C78395   7.356   1.677   9.103 -0.6813  0.2191  1.0002
  569MOL0     C78396   7.450   1.617   8.999 -1.5462 -0.1455 -0.2180
  569MOL0     C78397   7.427   1.683   8.858  0.0659 -0.2088 -0.1076
  569MOL0     C78398   7.553   1.674   8.771 -0.1668 -0.1139  0.3180
  569MOL0     C78399   7.569   1.557   8.673  0.2083 -0.4977  0.6095
  569MOL0     C78400   7.709   1.515   8.628  0.0636  0.1408 -1.2940
  569MOL0     N78401   7.767   1.622   8.547 -0.4518  0.9508  0.4936
  569MOL0     C78402   7.793   1.605   8.410 -0.2608  0.5317  0.0625
  569MOL0     C78403   7.859   1.721   8.377  0.0841 -0.1573 -0.3562
  569MOL0     C78404   7.910   1.749   8.239  0.3194  0.3029 -0.1616
  569MOL0     C78405   8.060   1.736   8.225  0.2975 -0.2512 -0.0540
  569MOL0     C78406   8.108   1.775   8.079 -0.2326 -0.0542 -0.4966
  569MOL0     C78407   8.072   1.911   8.038 -0.6266 -0.3156 -0.0001
  569MOL0     O78408   8.133   1.998   8.132  0.5286  0.2643  0.3383
  569MOL0     C78409   8.050   2.088   8.171  0.3651  0.2421  0.2149
  569MOL0     C78410   8.004   2.083   8.303  0.0949 -0.7897 -0.1305
  569MOL0     C78411   7.919   2.183   8.356 -0.3645  0.1107 -0.7129
  569MOL0     C78412   7.871   2.173   8.502  0.0224 -0.5379 -1.2257
  569MOL0     C78413   7.881   2.289   8.262  0.8716 -0.2452 -0.2086
  569MOL0     C78414   7.786   2.402   8.306 -0.0493  0.3731 -0.2090
  569MOL0     O78415   7.793   2.521   8.237  0.1526  0.2392 -1.0890
  569MOL0     C78416   7.703   2.629   8.258 -0.2445 -0.0310 -0.7054
  569MOL0     C78417   7.652   2.664   8.383 -0.3233 -0.3292 -0.2428
  569MOL0     C78418   7.585   2.789   8.399 -0.3530 -0.6767  1.1500
  569MOL0     C78419   7.577   2.882   8.298 -0.2588 -0.5241  0.5368
  569MOL0     O78420   7.509   2.999   8.308 -0.4062 -0.1054  0.4947
  569MOL0     C78421   7.412   3.017   8.411  0.0998 -0.3522 -1.0859
  569MOL0     C78422   7.349   3.159   8.394 -0.1754  0.6103  0.1209
  569MOL0     C78423   7.285   3.154   8.258  0.5808 -0.0477 -0.6242
  569MOL0     C78424   7.367   3.231   8.155  0.0514  0.1569 -0.3070
  569MOL0     C78425   7.298   3.240   8.017 -0.1273 -0.9331 -0.3146
  569MOL0     C78426   7.399   3.294   7.905 -0.5557 -1.1961  0.4716
  569MOL0     C78427   7.486   3.188   7.842  0.0731 -0.7587  0.5676
  569MOL0     C78428   7.420   3.060   7.775 -0.4559 -1.2198 -0.7789
  569MOL0    Cl78429   7.313   3.099   7.636 -0.4129 -0.0234  0.0062
  569MOL0     C78430   7.629   2.851   8.171 -0.4205  0.6057  0.1332
  569MOL0     C78431   7.692   2.720   8.151  0.4228 -0.3365  0.0447
  569MOL0     O78432   7.702   2.376   8.392  0.7901 -0.1963 -0.5204
  569MOL0     C78433   7.943   2.300   8.129 -0.1917  0.6234  0.9404
  569MOL0     C78434   8.021   2.194   8.086 -1.0190 -0.5549 -0.7487
  569MOL0     N78435   7.872   1.796   8.486 -0.7152  0.0400 -0.8087
  569MOL0     N78436   7.825   1.736   8.591  0.6692  0.1472  0.1167
  569MOL0     C78437   7.083   1.799   9.530 -0.3095  0.0913  0.2331
  569MOL0     C78438   7.000   1.863   9.626 -0.2944 -0.3276  0.8765
  569MOL0     C78439   6.612   2.108   9.753  0.0177 -0.6758  0.4716
  569MOL0     C78440   6.604   2.240   9.774  1.1742 -0.2079  0.2732
  569MOL0     C78441   6.491   2.293   9.855 -1.1584 -0.3991 -0.4665
  569MOL0     C78442   6.394   2.219   9.906 -0.1856 -0.2459  0.2008
  569MOL0     O78443   6.298   2.280   9.985 -0.1496 -0.3237  0.3116
  569MOL0     C78444   6.197   2.209  10.051  0.9546 -1.2206  0.1545
  569MOL0     C78445   6.095   2.299  10.121 -0.0645 -0.1077 -0.4392
  569MOL0     C78446   5.978   2.222  10.176 -0.4081 -0.1303  0.2498
  569MOL0     C78447   5.861   2.317  10.210 -0.0955 -0.2263  0.2340
  569MOL0     C78448   5.897   2.448  10.272 -0.1754  0.1569  0.2690
  569MOL0     C78449   5.930   2.551  10.313  0.6777 -0.4063  0.2351
  569MOL0     C78450   6.402   2.085   9.879 -0.0297  0.2325 -0.2647
  569MOL0     C78451   6.507   2.027   9.809 -0.3246 -0.1134 -0.3461
  569MOL0     C78452   6.491   1.879   9.784  0.7640  0.0249  0.3282
  569MOL0     H78453   6.728   1.891   9.409 -0.0459  1.5254  1.3912
  569MOL0     H78454   6.895   1.801   9.251  0.7676 -3.6919  0.0745
  569MOL0     H78455   7.265   1.590   9.412  2.3894 -2.5112 -3.4345
  569MOL0     H78456   7.321   1.745   9.376  0.4064 -0.1673 -0.9926
  569MOL0     H78457   7.426   1.553   9.264  1.5599 -0.0167 -2.0986
  569MOL0     H78458   7.267   1.511   9.182 -0.9532  0.5173  0.1007
  569MOL0     H78459   7.262   1.707   9.056 -0.0224  1.5554  0.4790
  569MOL0     H78460   7.405   1.773   9.125 -0.9210  0.5529  0.1264
  569MOL0     H78461   7.552   1.635   9.033 -0.1206 -1.6882 -3.2577
  569MOL0     H78462   7.435   1.509   9.012  1.0895 -0.6459 -0.7261
  569MOL0     H78463   7.424   1.787   8.893  3.1210 -0.1455  0.2807
  569MOL0     H78464   7.342   1.653   8.797  1.6788 -2.7779 -1.2606
  569MOL0     H78465   7.537   1.756   8.700 -1.4418 -1.0297 -0.4810
  569MOL0     H78466   7.641   1.696   8.833 -2.0709  2.8433  2.2743
  569MOL0     H78467   7.518   1.573   8.579 -1.5800 -0.0075  1.6263
  569MOL0     H78468   7.513   1.477   8.723 -1.9579  0.5718 -0.0267
  569MOL0     H78469   7.771   1.496   8.716 -1.9108  0.1277  0.1582
  569MOL0     H78470   7.703   1.419   8.575 -2.9054 -1.0937  0.9763
  569MOL0     H78471   7.765   1.522   8.347 -1.4802  1.5990 -0.8595
  569MOL0     H78472   7.884   1.852   8.212  1.8285  0.2489 -2.0710
  569MOL0     H78473   7.865   1.685   8.162  0.4993 -0.0401  0.0157
  569MOL0     H78474   8.118   1.791   8.300  1.3310  0.5667 -1.4255
  569MOL0     H78475   8.090   1.634   8.250 -0.9487  0.3263  4.8750
  569MOL0     H78476   8.217   1.761   8.076  0.3055  0.7733  4.8564
  569MOL0     H78477   8.076   1.696   8.011  2.9808 -1.7633 -0.2159
  569MOL0     H78478   8.113   1.931   7.939 -1.6387  1.3959 -0.1097
  569MOL0     H78479   7.963   1.925   8.039 -0.6113 -0.2321  1.0116
  569MOL0     H78480   8.047   2.017   8.379  2.3152  1.2693  0.5433
  569MOL0     H78481   7.859   2.269   8.554 -1.6190 -1.8109  0.9258
  569MOL0     H78482   7.943   2.117   8.561  0.3294  0.6734 -0.4169
  569MOL0     H78483   7.784   2.107   8.502  0.1636 -0.7361 -0.0084
  569MOL0     H78484   7.660   2.611   8.477 -0.6614 -0.2449 -0.1655
  569MOL0     H78485   7.533   2.810   8.492 -0.1430 -0.1285  1.1511
  569MOL0     H78486   7.327   2.948   8.404  0.6583 -1.1877  0.0817
  569MOL0     H78487   7.461   3.007   8.508  1.7809 -0.9002 -1.9598
  569MOL0     H78488   7.275   3.170   8.475  1.3871  0.1770  1.6664
  569MOL0     H78489   7.420   3.241   8.409  0.9271  0.0253 -1.6331
  569MOL0     H78490   7.190   3.208   8.265  2.0993  2.6091  1.5345
  569MOL0     H78491   7.267   3.057   8.212 -2.7660 -0.5888  1.4786
  569MOL0     H78492   7.469   3.195   8.149  0.2145  0.5634 -0.0487
  569MOL0     H78493   7.385   3.329   8.200  3.1644 -1.3558  2.0708
  569MOL0     H78494   7.250   3.144   7.996 -2.3786  0.5423 -2.4548
  569MOL0     H78495   7.217   3.312   8.029  0.2835  0.0258 -2.6698
  569MOL0     H78496   7.471   3.372   7.935 -1.7650  0.5513 -0.9755
  569MOL0     H78497   7.339   3.336   7.823  0.3776  0.1312  0.4298
  569MOL0     H78498   7.560   3.147   7.911  0.3034 -2.0428 -0.4253
  569MOL0     H78499   7.545   3.241   7.767 -1.6836  0.2647 -0.1799
  569MOL0     H78500   7.365   3.021   7.861  1.1097 -0.7168  0.4865
  569MOL0     H78501   7.501   2.994   7.745  0.8746 -1.1174  2.3007
  569MOL0     H78502   7.620   2.924   8.092  1.5972  2.6290  1.6414
  569MOL0     H78503   7.741   2.714   8.055  2.2548  0.6818  0.8586
  569MOL0     H78504   7.920   2.387   8.069 -2.3126 -0.0079  0.7410
  569MOL0     H78505   8.072   2.200   7.990  1.2366  1.0684  0.4475
  569MOL0     H78506   7.184   1.778   9.565 -0.1538 -1.9634 -1.2927
  569MOL0     H78507   7.032   1.878   9.729  3.2327  0.8546 -0.2472
  569MOL0     H78508   6.677   2.310   9.735  2.0742 -0.3059  1.7136
  569MOL0     H78509   6.484   2.401   9.868 -0.7944 -0.6971  3.0071
  569MOL0     H78510   6.144   2.142   9.982  0.4613 -1.0985  0.4129
  569MOL0     H78511   6.253   2.145  10.121 -0.0715 -2.2243  0.0823
  569MOL0     H78512   6.066   2.372  10.044 -0.3591  0.7709  0.4881
  569MOL0     H78513   6.147   2.353  10.201  0.2428  0.1013 -0.7766
  569MOL0     H78514   5.942   2.153  10.099 -0.3694  2.4183 -2.1965
  569MOL0     H78515   6.009   2.175  10.270  0.8279  2.8911  1.4780
  569MOL0     H78516   5.779   2.269  10.265 -3.0062  0.0614 -3.4596
  569MOL0     H78517   5.818   2.331  10.111 -1.7277 -1.3538  0.7446
  569MOL0     H78518   5.963   2.650  10.340 -1.5970  0.6504 -0.6142
  569MOL0     H78519   6.331   2.018   9.926  0.4453 -0.1111 -0.0305
  569MOL0     H78520   6.575   1.819   9.819  1.7032  0.2444 -1.4234
  569MOL0     H78521   6.396   1.842   9.823  1.2460  1.3734  3.0769
  569MOL0     H78522   6.487   1.855   9.677 -1.1273 -4.9162  1.2474
  570MOL0     O78523   5.020   7.489   2.387  0.1912  0.5051 -0.2181
  570MOL0     C78524   4.987   7.460   2.503 -0.4387 -0.3267 -0.1159
  570MOL0     O78525   5.020   7.532   2.613  0.6316  1.5166  0.2622
  570MOL0     C78526   5.109   7.626   2.592 -0.4752 -0.9479 -0.1376
  570MOL0     C78527   5.061   7.757   2.582  0.5393 -0.4103 -0.0253
  570MOL0     C78528   5.156   7.863   2.586  0.3418  0.2469 -0.7558
  570MOL0     C78529   5.287   7.840   2.569 -0.5760 -0.3210 -0.0698
  570MOL0     O78530   5.386   7.935   2.572  0.0140 -0.3231 -0.0923
  570MOL0     C78531   5.363   8.077   2.572 -0.1342  0.7121 -0.3711
  570MOL0     C78532   5.484   8.153   2.618 -1.1787  0.3381 -0.5427
  570MOL0     C78533   5.494   8.287   2.551 -0.1731  0.3000 -0.2396
  570MOL0     C78534   5.613   8.379   2.591  0.0626  0.5412  0.1988
  570MOL0     C78535   5.642   8.479   2.479 -0.0777  0.3687 -0.7683
  570MOL0     C78536   5.728   8.585   2.544 -0.5431  0.1212  0.4176
  570MOL0     C78537   5.794   8.697   2.463 -0.4636  0.4915  0.1489
  570MOL0     C78538   5.875   8.790   2.554 -1.2663 -0.5185 -0.1636
  570MOL0     N78539   5.981   8.724   2.633 -0.0271 -0.3640 -0.1808
  570MOL0     C78540   6.085   8.649   2.597  0.2005 -0.1994  0.4940
  570MOL0     C78541   6.149   8.604   2.705  0.0023  0.2043 -0.3538
  570MOL0     C78542   6.276   8.519   2.705 -0.3035  0.7560  0.1205
  570MOL0     C78543   6.394   8.569   2.620  0.2236  0.7498 -0.1283
  570MOL0     C78544   6.446   8.698   2.671 -0.6382 -0.6486 -0.6531
  570MOL0     C78545   6.559   8.752   2.586 -0.2060  0.4222  0.2775
  570MOL0     O78546   6.533   8.757   2.446 -1.0170  0.3971  0.0717
  570MOL0     C78547   6.477   8.870   2.399  0.1461 -0.3875 -0.2266
  570MOL0     C78548   6.356   8.849   2.338 -0.1172 -0.6850  0.1265
  570MOL0     C78549   6.263   8.946   2.290 -0.9520 -0.3203 -0.6918
  570MOL0     C78550   6.148   8.891   2.226  0.0453 -0.5659  0.2874
  570MOL0     C78551   6.305   9.086   2.299 -0.3930  0.8038 -0.3145
  570MOL0     C78552   6.216   9.196   2.253 -0.4482  0.1774 -0.5404
  570MOL0     O78553   6.266   9.315   2.293  0.1301  0.3926 -0.5034
  570MOL0     C78554   6.195   9.427   2.252  0.7093  0.7301  0.1619
  570MOL0     C78555   6.167   9.522   2.346  1.0443 -0.9722 -0.5695
  570MOL0     C78556   6.095   9.642   2.301 -0.9129 -0.8281 -0.0042
  570MOL0     C78557   6.072   9.657   2.164 -0.8205 -0.7658 -0.7537
  570MOL0     O78558   6.022   9.770   2.114 -0.7575  0.0193  0.5434
  570MOL0     C78559   5.932   9.855   2.188 -0.5832 -0.2362  0.7063
  570MOL0     C78560   5.798   9.811   2.146  0.4351 -0.0802  0.5394
  570MOL0     C78561   5.737   9.693   2.217  0.3419 -0.5660 -0.7559
  570MOL0     C78562   5.586   9.709   2.211 -0.2392 -0.0912 -0.0438
  570MOL0     C78563   5.524   9.603   2.296 -0.3215  0.1871  0.2284
  570MOL0     C78564   5.539   9.466   2.239  0.5147 -0.1439  0.3984
  570MOL0     C78565   5.470   9.454   2.097  0.0530 -0.0285 -0.1699
  570MOL0     C78566   5.397   9.319   2.089 -0.5703  0.1242  0.2027
  570MOL0    Cl78567   5.251   9.314   2.193 -0.3223  0.1314 -0.0982
  570MOL0     C78568   6.097   9.561   2.069 -0.2631  1.0718  0.7798
  570MOL0     C78569   6.159   9.444   2.115  0.0455 -0.3162  0.1939
  570MOL0     O78570   6.109   9.176   2.198  0.8360 -0.2130  0.2282
  570MOL0     C78571   6.432   9.108   2.367 -0.6794 -0.7246  0.1353
  570MOL0     C78572   6.521   8.999   2.405  0.6538 -0.8162 -0.8314
  570MOL0     N78573   6.073   8.650   2.802  0.2854 -0.0796 -0.3145
  570MOL0     N78574   5.975   8.730   2.769 -0.1418  0.9179  0.3583
  570MOL0     C78575   5.329   7.707   2.572 -0.0633 -0.3423 -0.0752
  570MOL0     C78576   5.244   7.600   2.593  1.0840 -0.1899 -0.7760
  570MOL0     C78577   4.918   7.327   2.531  0.3635 -0.1613  0.1160
  570MOL0     C78578   4.886   7.292   2.666  0.5034 -0.4483  0.9757
  570MOL0     C78579   4.820   7.177   2.694  0.5270 -0.5174  0.3571
  570MOL0     C78580   4.770   7.094   2.601  0.8201  0.0427 -0.0951
  570MOL0     O78581   4.692   6.990   2.644  0.4427 -0.4287  0.4654
  570MOL0     C78582   4.603   6.919   2.550 -0.5326 -0.0452 -0.5859
  570MOL0     C78583   4.669   6.808   2.466 -0.1055 -0.1978  1.0310
  570MOL0     C78584   4.750   6.708   2.544 -0.7445 -0.2318 -0.3210
  570MOL0     C78585   4.691   6.669   2.678 -0.0429  0.3809 -0.5328
  570MOL0     C78586   4.577   6.588   2.674  0.5000 -0.2404  0.4006
  570MOL0     C78587   4.475   6.523   2.669  0.9544  1.2042 -0.5184
  570MOL0     C78588   4.794   7.130   2.466 -0.7260 -0.0051  1.1161
  570MOL0     C78589   4.858   7.247   2.431  0.1012  0.2076  0.6986
  570MOL0     C78590   4.871   7.261   2.289 -0.3715 -0.1205  0.8301
  570MOL0     H78591   4.954   7.774   2.580  0.3386 -1.6016 -0.2549
  570MOL0     H78592   5.122   7.966   2.586  1.6092  0.6972 -2.0104
  570MOL0     H78593   5.275   8.100   2.633  0.5020  0.4583  0.6525
  570MOL0     H78594   5.344   8.118   2.472  1.0650  3.8058  0.5551
  570MOL0     H78595   5.463   8.176   2.724 -1.3449  0.5628 -0.6215
  570MOL0     H78596   5.580   8.104   2.602 -0.3894  1.6592 -0.0393
  570MOL0     H78597   5.484   8.278   2.443 -0.5249 -0.6282 -0.1393
  570MOL0     H78598   5.402   8.342   2.574  0.0345  0.3917  0.4119
  570MOL0     H78599   5.579   8.430   2.681 -1.3604  0.6716 -0.3804
  570MOL0     H78600   5.702   8.320   2.616  0.7339 -0.5846 -4.0253
  570MOL0     H78601   5.553   8.519   2.429 -0.0540  0.7934 -0.4732
  570MOL0     H78602   5.694   8.422   2.401 -0.6842 -1.2121 -0.0724
  570MOL0     H78603   5.662   8.623   2.622  0.0291 -4.0476  3.2835
  570MOL0     H78604   5.807   8.531   2.596  0.6822  0.7306 -0.7726
  570MOL0     H78605   5.709   8.747   2.416 -1.9961 -0.3409  1.8882
  570MOL0     H78606   5.848   8.645   2.384 -3.6699 -2.0201 -0.5971
  570MOL0     H78607   5.914   8.869   2.488  0.7577 -1.6320 -0.3741
  570MOL0     H78608   5.810   8.836   2.629  1.6824  0.4865  1.9530
  570MOL0     H78609   6.125   8.621   2.500  1.6050 -1.4345  1.3852
  570MOL0     H78610   6.250   8.415   2.680 -0.6070  1.0742 -0.9778
  570MOL0     H78611   6.310   8.522   2.808  1.1046 -0.2333 -0.2901
  570MOL0     H78612   6.477   8.497   2.619  0.0376  0.5173 -1.6764
  570MOL0     H78613   6.348   8.588   2.522  1.2747 -0.9876 -1.0190
  570MOL0     H78614   6.368   8.773   2.661  1.4029  1.3022 -3.3177
  570MOL0     H78615   6.471   8.692   2.778 -1.0442  2.7295 -0.2723
  570MOL0     H78616   6.591   8.851   2.621 -1.0540  1.7135 -2.3517
  570MOL0     H78617   6.644   8.685   2.600 -0.1129  0.0198 -1.9257
  570MOL0     H78618   6.328   8.744   2.328  0.9753 -1.3129  2.7899
  570MOL0     H78619   6.067   8.918   2.294 -0.7471  2.0754 -1.5308
  570MOL0     H78620   6.155   8.782   2.217  3.1222 -0.2910 -2.3404
  570MOL0     H78621   6.135   8.930   2.125  0.0085 -1.6298 -0.1325
  570MOL0     H78622   6.209   9.526   2.446 -1.1302  0.5087  0.3527
  570MOL0     H78623   6.093   9.735   2.357  2.0974  0.4794 -1.8283
  570MOL0     H78624   5.929   9.851   2.297 -1.0019 -2.2956  0.6693
  570MOL0     H78625   5.952   9.960   2.164  1.1074 -0.6948 -0.0842
  570MOL0     H78626   5.737   9.900   2.160  2.8038  1.8542 -0.6463
  570MOL0     H78627   5.789   9.797   2.038  0.4404  4.6815 -0.2853
  570MOL0     H78628   5.761   9.698   2.324 -1.3011 -0.0764 -0.3884
  570MOL0     H78629   5.778   9.595   2.189  0.6090 -0.8387  0.5150
  570MOL0     H78630   5.554   9.695   2.108 -0.9679  1.4046 -0.0516
  570MOL0     H78631   5.580   9.812   2.248  0.4750  0.1297 -0.5240
  570MOL0     H78632   5.555   9.614   2.400 -1.4274  2.5343  0.3776
  570MOL0     H78633   5.416   9.615   2.305 -0.4058  1.5478 -1.9434
  570MOL0     H78634   5.493   9.390   2.303 -0.6112 -2.6960 -3.1635
  570MOL0     H78635   5.646   9.447   2.222  0.2806  1.5901 -4.2538
  570MOL0     H78636   5.548   9.460   2.021 -0.5800  1.0631 -0.7588
  570MOL0     H78637   5.400   9.535   2.075 -0.7387 -1.2362 -2.4837
  570MOL0     H78638   5.467   9.235   2.100  0.6140  0.9464 -0.7908
  570MOL0     H78639   5.367   9.304   1.985  1.8286 -5.0688 -0.0675
  570MOL0     H78640   6.068   9.595   1.970 -1.6767  2.0211  1.4785
  570MOL0     H78641   6.182   9.364   2.046 -1.7352 -0.7859  0.0954
  570MOL0     H78642   6.473   9.208   2.380  0.5628 -1.2475  0.2845
  570MOL0     H78643   6.615   9.021   2.455  1.5521  3.6996 -3.9319
  570MOL0     H78644   5.436   7.690   2.580 -0.3850 -1.4381  3.4051
  570MOL0     H78645   5.279   7.498   2.605 -0.8574 -0.6259  2.1467
  570MOL0     H78646   4.899   7.363   2.747 -1.7406  0.1427  0.8910
  570MOL0     H78647   4.805   7.151   2.798  2.3782 -0.1386  0.7468
  570MOL0     H78648   4.519   6.874   2.603 -0.1767 -1.1076 -0.9055
  570MOL0     H78649   4.560   6.985   2.473 -5.4082 -2.9539 -0.7685
  570MOL0     H78650   4.719   6.849   2.378 -2.1568 -0.8501 -0.5223
  570MOL0     H78651   4.579   6.763   2.423  0.8574 -0.8613 -0.3330
  570MOL0     H78652   4.759   6.615   2.488 -0.7237  0.5636 -1.6842
  570MOL0     H78653   4.850   6.744   2.570 -1.6131  1.4496  0.9156
  570MOL0     H78654   4.673   6.762   2.734 -0.7456  0.4716 -0.8994
  570MOL0     H78655   4.775   6.623   2.731 -0.1621  0.7848  0.0187
  570MOL0     H78656   4.386   6.467   2.649  3.2750 -3.0600 -0.0141
  570MOL0     H78657   4.767   7.068   2.381  1.4737  3.0450 -2.1086
  570MOL0     H78658   4.832   7.358   2.258 -1.2107 -0.3758  1.0544
  570MOL0     H78659   4.975   7.253   2.255 -1.9444 -1.4977 -4.4899
  570MOL0     H78660   4.814   7.197   2.221  1.6517 -2.8780  1.5263
  571MOL0     O78661   8.927   5.896   1.588  0.0020 -0.1807  0.4024
  571MOL0     C78662   8.988   5.798   1.545  0.2506 -0.4550  0.0041
  571MOL0     O78663   8.936   5.678   1.505 -0.1886 -0.3317 -1.1297
  571MOL0     C78664   8.810   5.633   1.551  0.1542  0.2199 -1.3267
  571MOL0     C78665   8.801   5.524   1.639 -0.3649  0.2008 -0.5253
  571MOL0     C78666   8.691   5.465   1.686 -0.0323  0.7740  0.0215
  571MOL0     C78667   8.572   5.515   1.643 -0.1196 -0.6328 -0.3300
  571MOL0     O78668   8.458   5.471   1.696  0.5471  0.0240  0.0357
  571MOL0     C78669   8.389   5.375   1.619 -0.3315 -0.5437  0.6874
  571MOL0     C78670   8.254   5.342   1.696 -0.0569 -0.1871  0.6174
  571MOL0     C78671   8.152   5.261   1.621  0.7054 -0.4910  0.0620
  571MOL0     C78672   8.210   5.124   1.575 -0.2326  0.0038  0.4710
  571MOL0     C78673   8.103   5.028   1.540 -0.1835 -0.3711 -0.4161
  571MOL0     C78674   8.165   4.884   1.518  0.0087 -0.2476  0.5576
  571MOL0     C78675   8.063   4.774   1.491  0.6259  0.3576  0.4450
  571MOL0     C78676   7.981   4.731   1.606  0.4961 -1.0156 -0.2216
  571MOL0     N78677   7.845   4.712   1.571  0.4952 -0.1568  0.8437
  571MOL0     C78678   7.756   4.794   1.489 -0.1497 -0.0865 -0.2215
  571MOL0     C78679   7.639   4.725   1.491  0.3759  0.4148  1.1221
  571MOL0     C78680   7.515   4.785   1.439  0.1649  0.4417  0.0137
  571MOL0     C78681   7.456   4.687   1.335 -0.2223  0.7140  0.6411
  571MOL0     C78682   7.317   4.722   1.295  0.4388 -0.2156  0.5033
  571MOL0     C78683   7.194   4.716   1.391  0.7309 -0.7409  0.4650
  571MOL0     O78684   7.200   4.590   1.444 -0.4798  0.0360 -0.4951
  571MOL0     C78685   7.114   4.556   1.548 -0.2814  1.0118  0.8795
  571MOL0     C78686   7.089   4.636   1.655 -0.0629 -0.5419 -0.0851
  571MOL0     C78687   7.018   4.600   1.775 -0.1847 -0.7401 -0.2795
  571MOL0     C78688   6.993   4.707   1.881 -0.1992  0.1589  0.0471
  571MOL0     C78689   6.971   4.466   1.785  0.3343 -0.8093 -0.1019
  571MOL0     C78690   6.916   4.416   1.908  0.9242 -0.2380 -0.6665
  571MOL0     O78691   6.925   4.475   2.037 -0.1861 -0.1606 -0.1361
  571MOL0     C78692   6.900   4.404   2.148  0.9491  0.2561  0.8820
  571MOL0     C78693   6.948   4.274   2.166  0.7532 -0.2428 -0.6185
  571MOL0     C78694   6.902   4.205   2.270 -0.1942  0.3395  0.4442
  571MOL0     C78695   6.813   4.269   2.360 -0.0910  0.7592 -0.3471
  571MOL0     O78696   6.779   4.183   2.463  0.0568  0.5870 -0.3097
  571MOL0     C78697   6.649   4.208   2.526 -0.0763  0.2848  0.1848
  571MOL0     C78698   6.612   4.100   2.627  0.3267 -0.0966 -0.5454
  571MOL0     C78699   6.469   4.114   2.686 -1.2300  0.8904 -0.5693
  571MOL0     C78700   6.454   4.182   2.822 -0.3262 -1.1519  0.2422
  571MOL0     C78701   6.306   4.203   2.864  0.4811  0.5323 -0.3999
  571MOL0     C78702   6.297   4.215   3.025  0.1984 -0.3546 -0.6953
  571MOL0     C78703   6.156   4.207   3.073 -0.4180 -0.3287  0.1485
  571MOL0     C78704   6.084   4.338   3.030 -0.4275  0.4080 -0.4058
  571MOL0    Cl78705   5.914   4.365   3.088 -0.4170  0.0684  0.7804
  571MOL0     C78706   6.759   4.396   2.341 -0.9390 -1.0795  0.1604
  571MOL0     C78707   6.805   4.468   2.233 -0.8196 -0.5269  0.3442
  571MOL0     O78708   6.862   4.306   1.887 -0.1160  0.1109  0.0112
  571MOL0     C78709   6.985   4.381   1.668  0.3280  0.0837  0.3220
  571MOL0     C78710   7.055   4.426   1.553  0.4893 -0.0583  0.4227
  571MOL0     N78711   7.657   4.594   1.541  0.3832 -0.1473 -0.1650
  571MOL0     N78712   7.774   4.589   1.595 -0.2838  0.4209  0.6006
  571MOL0     C78713   8.566   5.618   1.554  0.1645 -0.7463  0.8226
  571MOL0     C78714   8.685   5.685   1.516 -0.1242  0.2209 -0.4960
  571MOL0     C78715   9.140   5.814   1.531 -0.4878  0.7919 -0.5969
  571MOL0     C78716   9.203   5.873   1.418  0.0149  0.9452  0.2050
  571MOL0     C78717   9.340   5.886   1.411  0.3533  0.6881 -0.2640
  571MOL0     C78718   9.422   5.830   1.513 -0.0660 -0.1542 -0.1505
  571MOL0     O78719   9.557   5.830   1.497  0.4849  0.6691  0.5545
  571MOL0     C78720   9.616   5.945   1.560  0.2465 -0.4999  0.1792
  571MOL0     C78721   9.759   5.893   1.572 -0.1533 -0.3600  0.1078
  571MOL0     C78722   9.844   5.873   1.441  0.2719  1.2369  1.2673
  571MOL0     C78723   9.829   5.994   1.344 -0.5879 -0.3062 -0.2119
  571MOL0     C78724   9.886   6.110   1.419 -0.7083 -0.4201  0.1088
  571MOL0     C78725   9.934   6.210   1.457  0.4386 -1.0975 -0.2291
  571MOL0     C78726   9.361   5.784   1.631  0.2715  0.0792  0.3667
  571MOL0     C78727   9.221   5.775   1.639 -0.5619  0.0620 -0.1155
  571MOL0     C78728   9.158   5.726   1.776 -0.1458  0.2044 -0.2117
  571MOL0     H78729   8.889   5.476   1.681  0.2565  3.5652  2.4519
  571MOL0     H78730   8.696   5.380   1.754  2.6498  1.0570  0.2621
  571MOL0     H78731   8.453   5.287   1.611  1.5159  0.9061 -2.3616
  571MOL0     H78732   8.363   5.420   1.523 -0.4556  0.0532  0.9944
  571MOL0     H78733   8.282   5.296   1.791 -0.3236 -0.0831  0.7505
  571MOL0     H78734   8.207   5.438   1.722 -0.4831  0.0123 -0.7755
  571MOL0     H78735   8.074   5.243   1.696  1.4130 -0.1823  0.8928
  571MOL0     H78736   8.124   5.325   1.538  4.6888  1.4874 -0.0144
  571MOL0     H78737   8.279   5.139   1.492  0.0240 -3.7884 -0.1829
  571MOL0     H78738   8.281   5.085   1.649  1.1487 -1.2942 -1.4228
  571MOL0     H78739   8.059   5.063   1.446 -1.8429 -0.5557  0.2647
  571MOL0     H78740   8.030   5.029   1.622  1.5792 -0.5717  1.2148
  571MOL0     H78741   8.224   4.893   1.426 -0.6003 -0.6029  0.1208
  571MOL0     H78742   8.233   4.866   1.602 -0.2258  3.4133  1.7333
  571MOL0     H78743   8.116   4.682   1.466 -0.2259  0.1633 -0.6869
  571MOL0     H78744   8.013   4.795   1.396 -0.0560 -0.3575  0.6364
  571MOL0     H78745   8.020   4.640   1.654  1.2032  0.1555  1.5373
  571MOL0     H78746   7.994   4.813   1.677 -0.2219  1.0630 -2.3662
  571MOL0     H78747   7.769   4.896   1.454 -3.6910  1.2156  1.7706
  571MOL0     H78748   7.536   4.877   1.383 -0.1294  1.3060  1.2940
  571MOL0     H78749   7.454   4.808   1.527  2.1845  0.5172  1.4660
  571MOL0     H78750   7.519   4.696   1.247  0.9975 -1.9788  1.1259
  571MOL0     H78751   7.457   4.582   1.366  0.0636 -1.3542 -5.2057
  571MOL0     H78752   7.325   4.827   1.265 -1.6679 -0.5256 -1.4538
  571MOL0     H78753   7.283   4.664   1.208 -0.5951 -0.1880  0.8756
  571MOL0     H78754   7.216   4.794   1.464 -0.0753 -0.3512  0.2994
  571MOL0     H78755   7.100   4.742   1.342 -0.4931 -0.2253  2.9366
  571MOL0     H78756   7.138   4.733   1.656 -0.9991 -0.0319  1.8588
  571MOL0     H78757   6.887   4.710   1.907 -0.0094  1.7369  0.7932
  571MOL0     H78758   7.028   4.803   1.842  0.6513  0.3645  1.2351
  571MOL0     H78759   7.045   4.702   1.977 -3.6318 -0.6001  2.0314
  571MOL0     H78760   7.005   4.222   2.091  0.4338 -1.9881  0.2839
  571MOL0     H78761   6.936   4.105   2.291 -0.2352 -0.1022 -1.4315
  571MOL0     H78762   6.681   4.299   2.579 -0.8707  0.5055  0.3057
  571MOL0     H78763   6.571   4.229   2.452 -1.8526 -1.9798  1.2986
  571MOL0     H78764   6.608   4.009   2.567 -0.8785  0.1275 -0.8435
  571MOL0     H78765   6.688   4.081   2.703  0.7821 -6.2054 -2.0015
  571MOL0     H78766   6.443   4.010   2.706 -0.5024  0.1460 -3.1489
  571MOL0     H78767   6.402   4.158   2.611  0.7221  0.0128 -2.9771
  571MOL0     H78768   6.500   4.281   2.830 -0.8145 -0.5997 -2.5517
  571MOL0     H78769   6.503   4.114   2.892 -0.5578  1.4262  3.0963
  571MOL0     H78770   6.271   4.294   2.816 -1.2629  0.1294  0.0354
  571MOL0     H78771   6.242   4.128   2.815 -0.7615  0.9656  0.5059
  571MOL0     H78772   6.334   4.311   3.063  0.4044 -0.7826  0.2137
  571MOL0     H78773   6.358   4.135   3.067 -0.0527 -0.8396 -1.2441
  571MOL0     H78774   6.158   4.193   3.181  0.2315  0.5314  0.2544
  571MOL0     H78775   6.115   4.121   3.018 -1.3442  2.6150 -4.3483
  571MOL0     H78776   6.072   4.346   2.921 -2.2650  2.2545 -0.1445
  571MOL0     H78777   6.149   4.420   3.062 -0.3546  0.4049 -0.5430
  571MOL0     H78778   6.682   4.426   2.412  0.1724 -2.9977  2.2549
  571MOL0     H78779   6.774   4.570   2.214  3.1999  0.7970 -0.2085
  571MOL0     H78780   6.955   4.278   1.681  0.6110  0.2489  2.5569
  571MOL0     H78781   7.059   4.362   1.465  3.7140 -1.4294  1.4098
  571MOL0     H78782   8.468   5.659   1.533  0.4382 -0.0169  0.9265
  571MOL0     H78783   8.678   5.771   1.451  1.2109  0.5850 -0.1813
  571MOL0     H78784   9.133   5.893   1.337 -4.2568 -3.6878  2.2013
  571MOL0     H78785   9.385   5.920   1.318  1.0312  1.0564  0.1933
  571MOL0     H78786   9.615   6.035   1.498  1.1437 -0.7374 -0.1996
  571MOL0     H78787   9.581   5.969   1.660 -1.1789 -0.6502 -0.2684
  571MOL0     H78788   9.752   5.792   1.614  1.2904 -0.9134 -0.8932
  571MOL0     H78789   9.823   5.957   1.632  0.1541  2.2475 -2.7464
  571MOL0     H78790   9.951   5.862   1.462  0.1407 -2.7165  0.6597
  571MOL0     H78791   9.814   5.781   1.389  0.8428  0.8447  1.6195
  571MOL0     H78792   9.727   6.014   1.311 -0.3741 -0.6452 -1.1079
  571MOL0     H78793   9.887   5.979   1.253  1.1434  3.2692  0.1443
  571MOL0     H78794   9.952   6.310   1.490 -0.3007 -0.3993 -1.8212
  571MOL0     H78795   9.432   5.755   1.708 -0.3089  0.0705  0.9088
  571MOL0     H78796   9.059   5.683   1.759 -1.4165  2.4428  0.9787
  571MOL0     H78797   9.231   5.654   1.814  1.4788  1.6382 -0.5089
  571MOL0     H78798   9.149   5.815   1.840  1.0363 -1.2423  2.1072
  572MOL0     O78799   0.699   5.169   6.025 -0.3878 -0.2528 -0.4587
  572MOL0     C78800   0.590   5.200   5.973 -0.6821  0.6512  0.5814
  572MOL0     O78801   0.529   5.129   5.872 -0.1223 -1.2080 -1.4158
  572MOL0     C78802   0.605   5.022   5.828 -0.8839 -0.5088  0.4825
  572MOL0     C78803   0.620   4.907   5.910  0.0237 -0.3531  0.3348
  572MOL0     C78804   0.694   4.799   5.863 -0.2968 -0.3108 -0.1479
  572MOL0     C78805   0.742   4.792   5.734 -0.5998  0.4106  0.5320
  572MOL0     O78806   0.823   4.697   5.680  0.4953  0.0155  0.9206
  572MOL0     C78807   0.860   4.584   5.754 -0.0434 -0.0598  0.3561
  572MOL0     C78808   0.770   4.469   5.749  1.1095  1.6330  0.9602
  572MOL0     C78809   0.800   4.359   5.638  0.2037 -0.5660  1.2103
  572MOL0     C78810   0.917   4.271   5.688  0.6121 -0.4016  0.8387
  572MOL0     C78811   0.934   4.167   5.575 -0.1684 -1.0605  0.4459
  572MOL0     C78812   1.049   4.081   5.610  1.6419 -0.6579  0.5907
  572MOL0     C78813   1.006   3.965   5.710 -0.9733 -0.3365 -0.0505
  572MOL0     C78814   1.138   3.903   5.767  0.6177  0.9046  0.2009
  572MOL0     N78815   1.179   3.780   5.703 -0.8073 -0.4398  0.1004
  572MOL0     C78816   1.170   3.652   5.748  0.3613  0.3590  0.8539
  572MOL0     C78817   1.253   3.574   5.680 -0.5776 -0.4419  0.2060
  572MOL0     C78818   1.273   3.428   5.719 -0.2611 -0.1796  0.0788
  572MOL0     C78819   1.329   3.332   5.612 -0.9261  0.2672  0.0616
  572MOL0     C78820   1.236   3.334   5.488 -0.6430 -0.2174  0.5560
  572MOL0     C78821   1.295   3.396   5.363  0.9500 -0.5962  0.9914
  572MOL0     O78822   1.322   3.302   5.261 -0.1408  0.9918  0.3041
  572MOL0     C78823   1.233   3.286   5.154 -0.2849 -0.0289  0.6717
  572MOL0     C78824   1.282   3.235   5.035  0.2543 -0.6033 -0.0346
  572MOL0     C78825   1.201   3.196   4.929 -0.2180 -0.1869 -0.0962
  572MOL0     C78826   1.264   3.124   4.817 -0.0746  0.5650  0.3500
  572MOL0     C78827   1.064   3.210   4.942 -0.4658  0.0700 -0.3147
  572MOL0     C78828   0.961   3.175   4.847 -0.7112  0.8025 -0.2047
  572MOL0     O78829   0.846   3.244   4.847 -0.3576 -1.1639  0.1824
  572MOL0     C78830   0.733   3.202   4.792 -0.0277 -0.4127 -1.1196
  572MOL0     C78831   0.691   3.254   4.673  0.5814 -0.2324 -0.0880
  572MOL0     C78832   0.569   3.206   4.616 -0.1692  0.0474  0.6965
  572MOL0     C78833   0.491   3.112   4.682 -0.0789  0.9280  0.9761
  572MOL0     O78834   0.391   3.045   4.613  0.9423 -0.5396  0.0625
  572MOL0     C78835   0.404   2.901   4.616 -0.0942 -0.4058 -0.1302
  572MOL0     C78836   0.315   2.838   4.506  0.2524  0.3748 -0.2182
  572MOL0     C78837   0.168   2.816   4.556 -0.0395 -0.1200 -0.4183
  572MOL0     C78838   0.167   2.721   4.682  0.0714 -0.5537  0.1477
  572MOL0     C78839   0.020   2.675   4.694 -0.7228  0.6622 -0.1261
  572MOL0     C78840  -0.009   2.585   4.815 -0.0984  0.1766  0.8920
  572MOL0     C78841  -0.145   2.514   4.819 -0.9201 -1.0920  0.4068
  572MOL0     C78842  -0.271   2.611   4.806  0.0608  0.4109  0.1066
  572MOL0    Cl78843  -0.322   2.682   4.970 -0.2736  0.6700 -0.1128
  572MOL0     C78844   0.545   3.060   4.801  0.3160 -0.0823  0.2047
  572MOL0     C78845   0.669   3.100   4.846  0.8704  0.2214  0.3937
  572MOL0     O78846   0.986   3.078   4.771  0.1323 -0.0412 -0.5526
  572MOL0     C78847   1.009   3.260   5.067  1.0249  1.0251 -0.2094
  572MOL0     C78848   1.095   3.299   5.163 -0.9892 -0.8852  0.1509
  572MOL0     N78849   1.314   3.651   5.580 -0.5570  0.0593 -0.1037
  572MOL0     N78850   1.265   3.774   5.592 -0.2515  0.5287 -0.1556
  572MOL0     C78851   0.716   4.906   5.646 -0.5349 -0.3631  0.6617
  572MOL0     C78852   0.654   5.022   5.696 -0.1058 -0.2416  0.1524
  572MOL0     C78853   0.517   5.305   6.047 -0.8560 -0.0045  0.1655
  572MOL0     C78854   0.488   5.288   6.174  0.1111 -0.0337 -0.4331
  572MOL0     C78855   0.425   5.387   6.249 -0.1240 -1.0875  0.6159
  572MOL0     C78856   0.379   5.504   6.190 -0.3936  0.5401  0.2246
  572MOL0     O78857   0.332   5.605   6.269 -0.6206 -0.3727 -0.5671
  572MOL0     C78858   0.287   5.734   6.220  0.6532  0.3293  0.3953
  572MOL0     C78859   0.252   5.828   6.331  0.4022  0.2072 -0.1363
  572MOL0     C78860   0.226   5.961   6.265  0.1330 -0.3149 -0.6511
  572MOL0     C78861   0.185   6.062   6.373  0.1099 -0.1996 -0.4947
  572MOL0     C78862   0.122   6.178   6.307  0.4524 -0.6441 -0.8113
  572MOL0     C78863   0.081   6.283   6.248  0.0567 -0.1400 -0.6422
  572MOL0     C78864   0.415   5.520   6.056 -0.4004  0.4630 -0.0574
  572MOL0     C78865   0.484   5.423   5.983 -0.1651 -0.0009 -0.0273
  572MOL0     C78866   0.515   5.457   5.843 -0.0751  0.1453  0.1607
  572MOL0     H78867   0.561   4.896   6.000 -0.9709  2.5762  0.1604
  572MOL0     H78868   0.704   4.711   5.926 -3.7046  0.2361  1.3860
  572MOL0     H78869   0.886   4.605   5.858  1.5269  3.1830 -0.5618
  572MOL0     H78870   0.962   4.560   5.723  0.0677 -1.9414  1.9937
  572MOL0     H78871   0.763   4.416   5.844 -0.1943 -1.0087 -0.4795
  572MOL0     H78872   0.669   4.511   5.736 -0.1764 -1.8259 -2.2481
  572MOL0     H78873   0.707   4.304   5.623 -0.3305 -0.0598  2.5218
  572MOL0     H78874   0.829   4.415   5.549 -0.4909 -1.5764  0.3254
  572MOL0     H78875   1.009   4.328   5.702  0.1920  1.0477 -1.5971
  572MOL0     H78876   0.896   4.226   5.785  1.2633  0.5170  1.4247
  572MOL0     H78877   0.951   4.220   5.480 -2.0430  1.0103  1.1759
  572MOL0     H78878   0.839   4.112   5.568 -1.0890  0.4718  0.3308
  572MOL0     H78879   1.081   4.026   5.522  3.3392 -1.6520  1.7653
  572MOL0     H78880   1.123   4.148   5.656 -0.1577  0.4443  2.0306
  572MOL0     H78881   0.941   3.897   5.654 -0.0196 -2.1248  0.9313
  572MOL0     H78882   0.953   4.011   5.794  1.6771  2.1695  0.3911
  572MOL0     H78883   1.219   3.974   5.748  0.3091  0.9873 -0.9047
  572MOL0     H78884   1.134   3.891   5.875 -1.6823 -1.6401 -0.0514
  572MOL0     H78885   1.129   3.621   5.844  1.8548 -0.3004  1.3086
  572MOL0     H78886   1.177   3.385   5.750 -0.5596 -0.1831 -0.8301
  572MOL0     H78887   1.334   3.420   5.810  3.6984  1.2587 -2.2083
  572MOL0     H78888   1.437   3.348   5.602 -0.8842  0.8254  1.2198
  572MOL0     H78889   1.319   3.233   5.657 -1.1998  0.4762  0.4737
  572MOL0     H78890   1.196   3.233   5.471 -0.4386 -0.2209  0.0718
  572MOL0     H78891   1.150   3.397   5.512 -0.7190 -0.7373  1.7262
  572MOL0     H78892   1.218   3.464   5.326 -0.9414 -2.6036  1.0554
  572MOL0     H78893   1.385   3.452   5.389  0.8430 -1.2674  2.9113
  572MOL0     H78894   1.389   3.220   5.031  0.5288  0.3544  2.0808
  572MOL0     H78895   1.216   3.026   4.817 -0.4652  0.7575  0.2808
  572MOL0     H78896   1.372   3.108   4.826 -0.0186 -1.1445 -2.1553
  572MOL0     H78897   1.251   3.173   4.720 -0.2689  0.3155  0.2477
  572MOL0     H78898   0.741   3.328   4.612 -2.4283  0.8262 -1.4919
  572MOL0     H78899   0.541   3.234   4.515 -3.5365  2.1224  2.0241
  572MOL0     H78900   0.511   2.883   4.601 -0.0031 -0.0706  0.1102
  572MOL0     H78901   0.363   2.863   4.710 -3.0968 -0.9561 -1.5260
  572MOL0     H78902   0.309   2.899   4.416  1.0397 -1.1754 -1.3648
  572MOL0     H78903   0.355   2.740   4.479 -1.5535 -0.2623 -0.7101
  572MOL0     H78904   0.108   2.775   4.475 -0.4119 -0.2092 -0.0998
  572MOL0     H78905   0.126   2.915   4.577 -0.9587 -0.2409 -1.6106
  572MOL0     H78906   0.195   2.777   4.772  2.1285  2.4537 -2.1381
  572MOL0     H78907   0.241   2.643   4.659 -1.0189 -1.4565 -0.3711
  572MOL0     H78908  -0.045   2.763   4.692 -2.7693 -0.7501  0.7357
  572MOL0     H78909  -0.009   2.636   4.596  0.9135  0.5359 -0.5895
  572MOL0     H78910   0.001   2.637   4.911 -0.3111 -0.2517  1.1484
  572MOL0     H78911   0.071   2.514   4.834  1.2814  1.5724  0.5169
  572MOL0     H78912  -0.159   2.457   4.912 -0.9714 -0.5267  0.7517
  572MOL0     H78913  -0.145   2.448   4.732 -1.4849  0.0133 -0.4628
  572MOL0     H78914  -0.358   2.561   4.761  2.4941 -2.1608 -2.1561
  572MOL0     H78915  -0.252   2.699   4.745  2.8457 -1.0638 -1.3520
  572MOL0     H78916   0.497   2.978   4.853  0.9430 -0.8158 -0.3341
  572MOL0     H78917   0.722   3.043   4.923 -1.1560 -2.5233 -0.0609
  572MOL0     H78918   0.908   3.296   5.087  0.2974 -1.0672  0.1330
  572MOL0     H78919   1.053   3.331   5.258 -0.6228 -1.0612  0.3762
  572MOL0     H78920   0.752   4.900   5.544 -1.3650 -0.2122  0.3514
  572MOL0     H78921   0.620   5.108   5.639 -1.3815 -0.3249  0.7480
  572MOL0     H78922   0.514   5.194   6.222 -0.3037 -0.5124 -1.1330
  572MOL0     H78923   0.398   5.375   6.354  1.0890 -0.5715  1.0084
  572MOL0     H78924   0.367   5.773   6.156  0.1379 -2.4506 -2.2207
  572MOL0     H78925   0.194   5.727   6.162 -1.4348  1.1762  3.3618
  572MOL0     H78926   0.340   5.823   6.395  0.4370 -1.8477 -0.2923
  572MOL0     H78927   0.165   5.793   6.387 -0.2509  0.2172 -1.1188
  572MOL0     H78928   0.310   5.983   6.199  0.6735  0.5230  0.2833
  572MOL0     H78929   0.136   5.952   6.204 -1.8811 -0.5273  2.1478
  572MOL0     H78930   0.263   6.092   6.444  1.1866 -2.6627 -0.5556
  572MOL0     H78931   0.100   6.012   6.421 -0.1796  2.2906  1.8221
  572MOL0     H78932   0.048   6.373   6.199  1.0278 -1.6385 -4.4416
  572MOL0     H78933   0.391   5.613   6.005 -0.6342 -0.3050 -1.3831
  572MOL0     H78934   0.507   5.566   5.835 -1.3394  0.1896  1.5840
  572MOL0     H78935   0.620   5.433   5.823  0.0882  1.0304 -0.1029
  572MOL0     H78936   0.450   5.405   5.771  0.9987 -0.2341 -0.5560
  573MOL0     O78937  11.135   5.059   8.584 -0.2403 -0.1481 -0.1610
  573MOL0     C78938  11.117   4.984   8.491 -0.0834 -0.1567 -0.3436
  573MOL0     O78939  11.207   4.960   8.395  0.1026  1.0461 -0.4489
  573MOL0     C78940  11.346   4.946   8.420  0.2004 -0.6784  0.1883
  573MOL0     C78941  11.424   4.995   8.318 -0.1491 -0.3037  0.4538
  573MOL0     C78942  11.565   4.979   8.319  0.0277 -0.4588 -0.3280
  573MOL0     C78943  11.631   4.946   8.438  0.3534  0.2333 -0.2357
  573MOL0     O78944  11.771   4.946   8.441 -0.2975 -0.2064  0.9298
  573MOL0     C78945  11.835   4.997   8.561 -0.4886 -0.3723  0.3175
  573MOL0     C78946  11.984   5.004   8.515 -0.8888  0.3856  0.2035
  573MOL0     C78947  12.052   5.086   8.629  0.5310 -0.3045 -0.1282
  573MOL0     C78948  12.201   5.076   8.615  0.0826 -0.0685  0.0480
  573MOL0     C78949  12.273   5.180   8.703  0.6987  1.1751  0.0344
  573MOL0     C78950  12.417   5.186   8.659  0.0565  0.0868  0.8140
  573MOL0     C78951  12.492   5.305   8.722 -0.4837 -0.7735 -0.2458
  573MOL0     C78952  12.641   5.316   8.714 -0.5461  0.6886  1.0748
  573MOL0     N78953  12.689   5.432   8.780 -0.7041  0.3707 -0.3081
  573MOL0     C78954  12.752   5.538   8.718 -0.2673  0.1582 -0.8779
  573MOL0     C78955  12.771   5.621   8.831  0.0241 -0.6106  0.9400
  573MOL0     C78956  12.828   5.757   8.799  0.0874 -0.0982  0.3254
  573MOL0     C78957  12.747   5.874   8.854  0.2788 -0.1032  0.2835
  573MOL0     C78958  12.803   6.014   8.835 -0.2121 -0.3154  0.0434
  573MOL0     C78959  12.703   6.114   8.896  1.3653 -0.1518 -0.0410
  573MOL0     O78960  12.646   6.209   8.798  0.2595  0.6675  0.1315
  573MOL0     C78961  12.519   6.260   8.829 -0.8405 -0.2752  0.5491
  573MOL0     C78962  12.447   6.244   8.945  0.1568  0.8602  0.5572
  573MOL0     C78963  12.332   6.307   8.968  0.1824 -1.3617 -0.2486
  573MOL0     C78964  12.265   6.274   9.106 -0.1869 -0.1071  0.3124
  573MOL0     C78965  12.274   6.393   8.868  0.0689  0.0222 -0.2773
  573MOL0     C78966  12.141   6.456   8.882  0.0111  0.1010  0.7778
  573MOL0     O78967  12.119   6.563   8.795 -0.3030  0.1658  1.0830
  573MOL0     C78968  11.982   6.604   8.763 -0.3418  0.0550  0.4094
  573MOL0     C78969  11.861   6.545   8.806 -0.3173 -0.6481  0.1527
  573MOL0     C78970  11.736   6.602   8.783 -0.5629 -0.1525  0.5734
  573MOL0     C78971  11.729   6.728   8.716  0.9287  0.6360  0.2404
  573MOL0     O78972  11.608   6.779   8.703 -0.0120 -0.2451 -0.3193
  573MOL0     C78973  11.584   6.830   8.570 -0.2423 -0.0709  0.8004
  573MOL0     C78974  11.432   6.840   8.564 -0.7872 -0.2182 -0.3173
  573MOL0     C78975  11.386   6.882   8.425 -0.1677 -0.2257  0.0409
  573MOL0     C78976  11.232   6.886   8.409  0.7529  0.3631  0.0907
  573MOL0     C78977  11.190   6.934   8.267 -0.5106  0.0887  1.2506
  573MOL0     C78978  11.065   7.023   8.255  0.7433 -0.2700  0.4915
  573MOL0     C78979  11.026   7.056   8.112 -1.0294 -0.3755  0.2393
  573MOL0     C78980  10.917   6.970   8.062 -0.0136 -0.0365  0.8094
  573MOL0    Cl78981  10.759   7.022   8.118  0.4010  0.2476 -0.3232
  573MOL0     C78982  11.847   6.792   8.672 -0.4197  0.4220 -0.0709
  573MOL0     C78983  11.977   6.734   8.697  0.4816  0.7233  0.2543
  573MOL0     O78984  12.060   6.416   8.968 -0.0846  0.0291 -0.2910
  573MOL0     C78985  12.352   6.416   8.751  0.7330  0.1027 -0.4587
  573MOL0     C78986  12.476   6.351   8.729 -0.0707  0.3852  0.5524
  573MOL0     N78987  12.736   5.564   8.951 -0.1678 -0.4848 -0.2589
  573MOL0     N78988  12.689   5.451   8.915  0.0346 -0.1127  0.1621
  573MOL0     C78989  11.545   4.911   8.549  0.1300  0.4136  0.1493
  573MOL0     C78990  11.412   4.905   8.535  0.5273 -0.0767 -0.0642
  573MOL0     C78991  10.987   4.916   8.470 -1.6875  0.5991  0.2447
  573MOL0     C78992  10.874   4.995   8.482  0.3440  1.2058 -0.4233
  573MOL0     C78993  10.745   4.947   8.467 -0.2098  0.6026  0.3178
  573MOL0     C78994  10.730   4.816   8.422 -1.5175 -1.0607  0.0839
  573MOL0     O78995  10.612   4.761   8.412 -0.6816 -0.2159 -0.3299
  573MOL0     C78996  10.502   4.853   8.390 -0.5058  0.8948  0.2460
  573MOL0     C78997  10.401   4.774   8.317  1.0529  0.2082 -0.8586
  573MOL0     C78998  10.447   4.740   8.181 -0.2882  0.7203 -0.2542
  573MOL0     C78999  10.342   4.640   8.123 -0.9575  0.2560  0.3444
  573MOL0     C79000  10.381   4.589   7.993  0.4037  0.7153 -0.4138
  573MOL0     C79001  10.417   4.543   7.882  0.0628 -0.4051 -1.1187
  573MOL0     C79002  10.847   4.733   8.397 -0.6851 -0.3103  1.3379
  573MOL0     C79003  10.975   4.779   8.421 -0.7617 -0.1722 -1.1726
  573MOL0     C79004  11.089   4.675   8.421  0.8794  0.1325  0.5535
  573MOL0     H79005  11.369   5.029   8.230 -0.6619 -3.5499 -0.6074
  573MOL0     H79006  11.629   5.006   8.236  1.6383  0.3875  1.1298
  573MOL0     H79007  11.820   4.937   8.652  3.0969  0.8466  1.8854
  573MOL0     H79008  11.800   5.100   8.563 -1.7884 -0.5839 -3.3799
  573MOL0     H79009  12.028   4.904   8.512 -2.6901 -0.5519  2.4919
  573MOL0     H79010  11.984   5.059   8.420 -3.4023 -0.1131 -0.1641
  573MOL0     H79011  12.024   5.191   8.632 -1.8967 -0.8289 -1.8352
  573MOL0     H79012  12.014   5.036   8.718 -2.0269 -5.6584 -3.6974
  573MOL0     H79013  12.243   4.977   8.632  1.5374 -0.1117 -3.0896
  573MOL0     H79014  12.224   5.094   8.510 -3.0979 -0.2785 -0.8020
  573MOL0     H79015  12.279   5.145   8.807 -1.3245  1.6869  0.3626
  573MOL0     H79016  12.215   5.273   8.701  0.5092  1.2256  3.0473
  573MOL0     H79017  12.467   5.093   8.688  0.0362  0.5098  2.2945
  573MOL0     H79018  12.431   5.195   8.551 -0.7130 -1.7121  0.5285
  573MOL0     H79019  12.474   5.305   8.830 -0.4134 -0.4670 -0.2341
  573MOL0     H79020  12.453   5.398   8.680 -0.3964 -1.4981 -2.0624
  573MOL0     H79021  12.680   5.220   8.747  0.2789  0.9229  0.8138
  573MOL0     H79022  12.670   5.319   8.608  0.4391  1.4296  1.3513
  573MOL0     H79023  12.779   5.553   8.614 -0.1259 -0.7308 -0.9817
  573MOL0     H79024  12.830   5.774   8.691 -0.1085 -2.0451 -0.0209
  573MOL0     H79025  12.929   5.752   8.839 -0.5188 -3.5172  1.7227
  573MOL0     H79026  12.661   5.880   8.786 -0.0243  3.9267  0.7676
  573MOL0     H79027  12.708   5.842   8.951  0.4621 -1.6246 -0.1142
  573MOL0     H79028  12.901   6.028   8.882 -0.0689 -2.2999  0.3946
  573MOL0     H79029  12.800   6.022   8.726 -0.0918 -2.5011 -0.1462
  573MOL0     H79030  12.615   6.055   8.923  1.2362 -1.2380 -2.5712
  573MOL0     H79031  12.745   6.173   8.979  1.6956 -1.2900  0.6163
  573MOL0     H79032  12.478   6.183   9.029 -1.8672  1.0198  1.4615
  573MOL0     H79033  12.227   6.359   9.164  0.8804  0.1539  0.6550
  573MOL0     H79034  12.323   6.212   9.174 -2.6214 -0.1110  2.5583
  573MOL0     H79035  12.180   6.212   9.079  0.3318 -0.4143 -0.6488
  573MOL0     H79036  11.861   6.442   8.840  1.2221 -0.3739  1.0760
  573MOL0     H79037  11.645   6.554   8.817 -2.2072  1.9090 -0.6281
  573MOL0     H79038  11.643   6.920   8.555  2.5253 -1.6896  1.2407
  573MOL0     H79039  11.614   6.762   8.490 -0.7146  0.7529 -0.0851
  573MOL0     H79040  11.397   6.739   8.588 -0.1769 -0.1654  0.8747
  573MOL0     H79041  11.403   6.913   8.640  0.1076  0.7119 -0.8302
  573MOL0     H79042  11.420   6.805   8.356 -2.6664 -2.1404  0.7961
  573MOL0     H79043  11.432   6.978   8.398 -1.4836 -0.3997 -3.2242
  573MOL0     H79044  11.176   6.947   8.481 -2.4285 -1.8955 -0.2991
  573MOL0     H79045  11.193   6.784   8.406  2.9852 -0.5314 -1.7997
  573MOL0     H79046  11.265   7.002   8.224  0.2700 -1.5137  0.0028
  573MOL0     H79047  11.192   6.850   8.198 -0.7246  1.9280 -1.1363
  573MOL0     H79048  11.105   7.110   8.308  2.8115 -0.2097 -1.0278
  573MOL0     H79049  10.979   6.974   8.300 -0.9765  0.0388 -2.2468
  573MOL0     H79050  11.113   7.047   8.046 -1.8090 -1.2382 -0.6928
  573MOL0     H79051  11.002   7.162   8.107  4.8985  1.3325  0.0644
  573MOL0     H79052  10.928   6.865   8.092 -2.4561 -0.5716  0.0544
  573MOL0     H79053  10.926   6.993   7.955  0.1379 -1.3671  0.5089
  573MOL0     H79054  11.851   6.890   8.626  3.2125 -0.7251 -2.5743
  573MOL0     H79055  12.070   6.782   8.669  1.0069 -1.8019 -2.7538
  573MOL0     H79056  12.320   6.491   8.680  2.0146 -0.9316 -2.1762
  573MOL0     H79057  12.522   6.341   8.631  3.2787  2.5562  1.7326
  573MOL0     H79058  11.592   4.876   8.640  2.1156  2.5945  0.0711
  573MOL0     H79059  11.358   4.866   8.621 -1.8228 -1.3494 -1.9771
  573MOL0     H79060  10.879   5.092   8.531  2.9878  0.0264  1.9492
  573MOL0     H79061  10.655   5.000   8.496 -2.3157 -3.1675  1.3595
  573MOL0     H79062  10.452   4.876   8.485 -2.4476  1.5642 -0.9014
  573MOL0     H79063  10.527   4.948   8.340  2.7543  0.1472  0.1917
  573MOL0     H79064  10.305   4.828   8.311 -0.1972 -1.8936 -0.7693
  573MOL0     H79065  10.378   4.687   8.379 -1.0217  1.8204  0.7986
  573MOL0     H79066  10.462   4.825   8.114 -1.5093  0.8776 -0.3559
  573MOL0     H79067  10.545   4.692   8.188  0.2920  1.9450  0.2485
  573MOL0     H79068  10.245   4.688   8.104 -0.3679  1.0072 -0.9329
  573MOL0     H79069  10.324   4.556   8.190 -0.2085 -0.6194 -0.5191
  573MOL0     H79070  10.458   4.508   7.790  1.6627  2.0251 -1.4266
  573MOL0     H79071  10.835   4.633   8.358 -2.9710  1.4369 -3.3007
  573MOL0     H79072  11.045   4.575   8.410  2.2922 -0.4599  0.1672
  573MOL0     H79073  11.139   4.688   8.325  0.4072  3.2057  0.6329
  573MOL0     H79074  11.167   4.674   8.498 -0.3402 -0.8908  1.8285
  574MOL0     O79075   2.846   8.214   2.563 -0.3655 -0.2089  0.3475
  574MOL0     C79076   2.752   8.177   2.635 -0.2469  0.5184 -0.3824
  574MOL0     O79077   2.763   8.082   2.735 -0.2956 -0.9754 -0.6092
  574MOL0     C79078   2.873   8.005   2.744  0.4726 -1.1545  0.3866
  574MOL0     C79079   2.953   7.953   2.640  0.4585 -0.1537 -0.4730
  574MOL0     C79080   3.066   7.884   2.669 -0.4831  0.2210 -0.2075
  574MOL0     C79081   3.105   7.849   2.796 -0.4376  0.1408 -0.9114
  574MOL0     O79082   3.221   7.774   2.804  0.1132 -0.3735  0.4031
  574MOL0     C79083   3.277   7.773   2.934  0.3218  0.3136 -0.4265
  574MOL0     C79084   3.404   7.686   2.947 -0.0512 -0.4254  0.0969
  574MOL0     C79085   3.509   7.735   2.849  0.6294 -0.1882  0.6818
  574MOL0     C79086   3.636   7.658   2.834 -0.2141 -0.0091 -0.4122
  574MOL0     C79087   3.718   7.724   2.723  1.1146  0.8894 -0.8654
  574MOL0     C79088   3.863   7.684   2.739  0.1036 -0.2652  0.1157
  574MOL0     C79089   3.942   7.805   2.786 -0.5808  0.5288 -0.4275
  574MOL0     C79090   3.956   7.914   2.679  0.1825 -0.1428 -0.3229
  574MOL0     N79091   3.991   7.861   2.546 -0.4745 -0.2312 -0.6181
  574MOL0     C79092   4.123   7.840   2.508  0.1140  0.8323  0.7270
  574MOL0     C79093   4.119   7.822   2.376 -0.1535  0.8926  0.8892
  574MOL0     C79094   4.230   7.800   2.274 -0.1744  0.2964  0.7007
  574MOL0     C79095   4.274   7.932   2.214 -0.9130 -0.3303  0.7559
  574MOL0     C79096   4.358   8.014   2.312  0.1830 -0.4915  0.7980
  574MOL0     C79097   4.419   8.134   2.236  0.4980 -0.0721 -0.5782
  574MOL0     O79098   4.520   8.100   2.143  0.2811  0.3586  0.4825
  574MOL0     C79099   4.661   8.117   2.169  0.2896 -0.9122  0.6090
  574MOL0     C79100   4.720   8.156   2.288  1.0309 -0.8767 -0.8785
  574MOL0     C79101   4.860   8.180   2.305  0.0072  0.0950  0.7181
  574MOL0     C79102   4.912   8.226   2.442 -0.3764 -0.2678  0.5113
  574MOL0     C79103   4.946   8.183   2.190  0.5823  0.2242 -0.0203
  574MOL0     C79104   5.091   8.197   2.185 -0.4666  0.9382 -0.0004
  574MOL0     O79105   5.142   8.218   2.071  0.5238  0.1807  0.3851
  574MOL0     C79106   5.280   8.241   2.054  0.0392  0.2179 -0.1938
  574MOL0     C79107   5.367   8.300   2.151 -0.1408  0.4536  0.2083
  574MOL0     C79108   5.495   8.328   2.120  0.2611 -0.4096  0.8604
  574MOL0     C79109   5.544   8.315   1.993  0.1276 -0.3440  0.1525
  574MOL0     O79110   5.666   8.347   1.950  0.0666  0.1161 -0.4551
  574MOL0     C79111   5.775   8.363   2.037 -1.1297 -0.3917  0.1486
  574MOL0     C79112   5.910   8.385   1.965 -0.4658  0.6957  0.2758
  574MOL0     C79113   5.927   8.282   1.858 -0.5825 -0.3887 -0.2827
  574MOL0     C79114   6.062   8.332   1.787  0.9155  0.1074 -0.2415
  574MOL0     C79115   6.084   8.259   1.652  0.1908 -0.3115 -0.6156
  574MOL0     C79116   6.180   8.332   1.556  0.0342  0.7226  1.3777
  574MOL0     C79117   6.226   8.258   1.436 -0.3016 -0.0432  0.6921
  574MOL0     C79118   6.336   8.322   1.355 -0.8711  0.6564 -0.1581
  574MOL0    Cl79119   6.387   8.202   1.238 -0.1075  0.2974  0.1722
  574MOL0     C79120   5.462   8.266   1.890  0.4600  0.4550 -0.2761
  574MOL0     C79121   5.328   8.232   1.923 -0.0344  0.3192 -0.9761
  574MOL0     O79122   5.154   8.164   2.284  0.4579 -0.1892 -0.0058
  574MOL0     C79123   4.880   8.160   2.068  0.1582  0.7334  0.1463
  574MOL0     C79124   4.748   8.114   2.060 -0.3797  0.7000  0.1022
  574MOL0     N79125   3.987   7.816   2.337  0.2730 -0.0023  0.5187
  574MOL0     N79126   3.908   7.854   2.433  0.1549 -0.1543  0.3174
  574MOL0     C79127   3.027   7.890   2.902 -0.6914  0.7869 -0.1641
  574MOL0     C79128   2.915   7.975   2.878 -0.1672  0.9285  0.6904
  574MOL0     C79129   2.609   8.229   2.605 -0.0306 -0.0038 -0.2071
  574MOL0     C79130   2.516   8.213   2.703  0.3454  0.7040 -0.0772
  574MOL0     C79131   2.379   8.247   2.697 -0.3622  0.3193  0.0704
  574MOL0     C79132   2.333   8.323   2.596  1.0730  1.0732  0.0706
  574MOL0     O79133   2.205   8.377   2.573  0.4997 -0.9515  0.2318
  574MOL0     C79134   2.139   8.415   2.695  1.5209 -0.3047  0.5423
  574MOL0     C79135   2.052   8.292   2.734  0.4144 -0.4882  0.0357
  574MOL0     C79136   1.911   8.326   2.795 -0.5272 -0.6173  0.1890
  574MOL0     C79137   1.856   8.199   2.843  0.3101  0.7029 -0.0653
  574MOL0     C79138   1.836   8.078   2.755  0.1357 -0.8069  0.0131
  574MOL0     C79139   1.832   7.977   2.689  0.1606 -0.4780 -0.1838
  574MOL0     C79140   2.420   8.343   2.487 -0.8385  0.2743 -0.1485
  574MOL0     C79141   2.557   8.303   2.492  0.0234  0.2366  0.1131
  574MOL0     C79142   2.636   8.312   2.362  0.7237  0.2247 -0.2354
  574MOL0     H79143   2.919   7.972   2.539  0.9022 -3.0929 -1.2805
  574MOL0     H79144   3.123   7.838   2.589 -2.3369 -3.1644  0.2078
  574MOL0     H79145   3.204   7.722   2.997  0.9857 -0.0249  0.0797
  574MOL0     H79146   3.298   7.872   2.974  0.3523  0.0846  0.1303
  574MOL0     H79147   3.447   7.703   3.046  1.7748  0.9693 -0.8711
  574MOL0     H79148   3.384   7.583   2.916  0.3213 -0.4467 -0.0726
  574MOL0     H79149   3.463   7.724   2.751  0.3403 -1.1612  0.9158
  574MOL0     H79150   3.527   7.842   2.857  1.2054  0.1878 -3.4749
  574MOL0     H79151   3.686   7.652   2.931 -4.2334  0.8109  1.9291
  574MOL0     H79152   3.614   7.553   2.813  0.8449 -0.9400  2.6431
  574MOL0     H79153   3.697   7.832   2.725  1.3792  0.9464 -1.1008
  574MOL0     H79154   3.677   7.685   2.629  0.0529  1.1827 -0.5387
  574MOL0     H79155   3.869   7.604   2.813 -0.2107  0.5117  0.9937
  574MOL0     H79156   3.909   7.642   2.648  3.3767  1.9205  0.5959
  574MOL0     H79157   4.037   7.771   2.828 -1.6538 -1.8106  0.2427
  574MOL0     H79158   3.877   7.843   2.865 -1.7370 -2.2482  0.0498
  574MOL0     H79159   3.872   7.981   2.662  0.7849  0.1878 -2.2596
  574MOL0     H79160   4.039   7.978   2.709  0.0564  1.8750 -3.7504
  574MOL0     H79161   4.207   7.837   2.577 -0.0781 -2.9836  1.0155
  574MOL0     H79162   4.193   7.733   2.196 -0.7286 -0.4832  1.6082
  574MOL0     H79163   4.306   7.740   2.325 -0.0084  0.4627  0.6529
  574MOL0     H79164   4.335   7.916   2.125 -0.4222  2.8318  0.3901
  574MOL0     H79165   4.193   7.999   2.182  0.5299  1.9007  1.5353
  574MOL0     H79166   4.295   8.051   2.393 -3.1751  2.8787 -2.9375
  574MOL0     H79167   4.433   7.951   2.361  0.1708 -0.3165  1.0436
  574MOL0     H79168   4.344   8.185   2.175  1.6755 -1.9157 -3.8428
  574MOL0     H79169   4.449   8.212   2.306  0.3628  0.3237 -0.9586
  574MOL0     H79170   4.663   8.164   2.380  2.0025  2.5387 -0.4359
  574MOL0     H79171   4.835   8.219   2.519 -1.6521 -1.4837 -0.8155
  574MOL0     H79172   4.957   8.326   2.433 -0.1324 -0.4923 -1.2923
  574MOL0     H79173   5.001   8.173   2.479  0.8066  2.0299  1.1548
  574MOL0     H79174   5.338   8.335   2.250  2.4847  1.7811  0.5993
  574MOL0     H79175   5.554   8.369   2.201  0.3209 -0.9153  1.0724
  574MOL0     H79176   5.743   8.454   2.089 -0.2875 -1.1200  2.0172
  574MOL0     H79177   5.791   8.283   2.109  1.9229 -2.0587 -2.1475
  574MOL0     H79178   5.913   8.487   1.925  0.7818 -0.2857 -2.3324
  574MOL0     H79179   5.980   8.374   2.048 -2.8162  0.1029  2.3009
  574MOL0     H79180   5.842   8.270   1.790 -1.3439  3.2730 -0.1713
  574MOL0     H79181   5.940   8.180   1.898  0.1739 -0.7823 -1.4723
  574MOL0     H79182   6.150   8.317   1.849  1.9930  0.4436 -1.6310
  574MOL0     H79183   6.061   8.440   1.766 -1.5639 -0.4183 -3.7462
  574MOL0     H79184   6.128   8.160   1.669  0.5962  0.2129  1.7395
  574MOL0     H79185   5.987   8.252   1.601  1.0422  1.9670 -2.7479
  574MOL0     H79186   6.271   8.362   1.609  0.6730  0.7877  0.2869
  574MOL0     H79187   6.123   8.422   1.533  1.6718  1.0424 -2.0564
  574MOL0     H79188   6.131   8.245   1.382 -0.4982  0.7924  0.8264
  574MOL0     H79189   6.267   8.162   1.471  0.8990  0.7669  1.5838
  574MOL0     H79190   6.423   8.349   1.415  0.3056  0.5847 -1.7881
  574MOL0     H79191   6.304   8.419   1.317 -0.2123  0.5639 -0.9575
  574MOL0     H79192   5.509   8.268   1.792  1.0952 -2.5868 -0.1117
  574MOL0     H79193   5.275   8.183   1.842  1.9957 -1.0068 -1.5685
  574MOL0     H79194   4.934   8.153   1.974  1.9015 -0.3469  1.1760
  574MOL0     H79195   4.708   8.089   1.962 -0.3973 -0.0235  0.2933
  574MOL0     H79196   3.053   7.864   3.004 -2.4646  0.4295  0.2100
  574MOL0     H79197   2.858   8.024   2.957 -0.1847 -0.1371  1.3557
  574MOL0     H79198   2.548   8.183   2.803  0.9168  0.8335 -0.2149
  574MOL0     H79199   2.310   8.229   2.778  0.0275  1.3406  0.6497
  574MOL0     H79200   2.206   8.443   2.777 -0.3951  2.8449  1.2259
  574MOL0     H79201   2.076   8.504   2.690  0.7627 -0.6287  2.7847
  574MOL0     H79202   2.106   8.229   2.806  0.2579 -1.3601 -0.5861
  574MOL0     H79203   2.035   8.237   2.640 -2.7954 -0.2328  0.3539
  574MOL0     H79204   1.911   8.407   2.868  0.5373 -0.9354  0.5617
  574MOL0     H79205   1.843   8.368   2.720  0.4770  1.6847  0.4752
  574MOL0     H79206   1.758   8.224   2.884  0.3774  1.1756 -0.1796
  574MOL0     H79207   1.914   8.157   2.926  0.7842 -5.0145 -2.8584
  574MOL0     H79208   1.839   7.900   2.615  0.9361  0.4891 -1.1470
  574MOL0     H79209   2.385   8.395   2.399 -0.7080  1.5233  0.5127
  574MOL0     H79210   2.563   8.322   2.281 -1.2695 -0.2096  1.4583
  574MOL0     H79211   2.705   8.397   2.366 -0.5024  1.2450 -0.0747
  574MOL0     H79212   2.701   8.232   2.325  0.1356  0.0536 -0.9247
  575MOL0     O79213   3.307   3.283   3.085  0.4779  0.4236 -0.2472
  575MOL0     C79214   3.262   3.235   2.978  0.5180  0.1549  0.0723
  575MOL0     O79215   3.347   3.165   2.889  0.6300 -0.1448  0.0890
  575MOL0     C79216   3.480   3.210   2.865  1.2269  0.0725  0.1320
  575MOL0     C79217   3.529   3.343   2.871 -0.4887  0.2252 -0.2457
  575MOL0     C79218   3.657   3.376   2.826  0.4897 -0.3732  0.3299
  575MOL0     C79219   3.748   3.279   2.791 -0.5923 -0.1108 -0.1837
  575MOL0     O79220   3.872   3.313   2.759 -0.0611 -0.1241 -0.1334
  575MOL0     C79221   3.956   3.352   2.869  0.1408 -0.4291  1.4874
  575MOL0     C79222   4.101   3.297   2.851 -0.0327  0.1390  0.5427
  575MOL0     C79223   4.177   3.352   2.725 -0.7183 -0.0437 -0.2570
  575MOL0     C79224   4.250   3.487   2.736  0.5062 -0.2128  0.5120
  575MOL0     C79225   4.297   3.553   2.599  0.6738  0.8089 -0.5182
  575MOL0     C79226   4.388   3.465   2.520 -0.4886  0.5182  0.6599
  575MOL0     C79227   4.435   3.553   2.397  0.4528  0.9171 -0.0408
  575MOL0     C79228   4.329   3.563   2.283 -0.3538 -0.3067 -0.4991
  575MOL0     N79229   4.295   3.436   2.227  0.3934  0.1149 -1.0078
  575MOL0     C79230   4.372   3.356   2.158 -0.0146 -0.0001  0.6142
  575MOL0     C79231   4.297   3.248   2.126  0.1650 -0.7695  0.7467
  575MOL0     C79232   4.322   3.167   2.002 -0.2249 -0.7601 -0.4173
  575MOL0     C79233   4.414   3.050   2.052 -0.0466  0.1389 -1.1133
  575MOL0     C79234   4.458   2.956   1.939  0.3543  1.0927 -0.0658
  575MOL0     C79235   4.523   3.029   1.820 -0.3334  0.2007  0.1040
  575MOL0     O79236   4.620   3.128   1.861  0.2141  0.2075 -0.2500
  575MOL0     C79237   4.720   3.151   1.775  0.2853 -0.0677 -0.2357
  575MOL0     C79238   4.687   3.189   1.645  0.1144 -0.2542 -0.2081
  575MOL0     C79239   4.784   3.186   1.548 -0.5662 -0.6194  0.3338
  575MOL0     C79240   4.730   3.197   1.405 -0.8477  0.2790 -0.9094
  575MOL0     C79241   4.925   3.171   1.585 -0.3294  0.3937  0.1390
  575MOL0     C79242   5.040   3.178   1.486  0.7502 -0.5170  0.9483
  575MOL0     O79243   5.007   3.220   1.363 -0.6745 -0.5694 -0.1156
  575MOL0     C79244   5.083   3.196   1.249  0.0868 -0.5200  0.2494
  575MOL0     C79245   5.205   3.264   1.229 -0.2227  0.4720 -0.3401
  575MOL0     C79246   5.286   3.261   1.114  0.2859 -0.0311  0.0847
  575MOL0     C79247   5.247   3.175   1.012  0.3554  0.2575  0.9569
  575MOL0     O79248   5.336   3.175   0.905  0.7958 -0.2994  0.8450
  575MOL0     C79249   5.288   3.126   0.773 -0.0238  0.8706  0.0132
  575MOL0     C79250   5.291   2.970   0.747  0.1221 -0.3344  0.0195
  575MOL0     C79251   5.421   2.909   0.798 -0.7012  0.6185 -0.4205
  575MOL0     C79252   5.424   2.757   0.810 -0.3194 -0.1145 -0.4459
  575MOL0     C79253   5.560   2.688   0.847 -0.1249  0.1706 -0.7629
  575MOL0     C79254   5.541   2.545   0.905  0.7960  0.5768  0.5275
  575MOL0     C79255   5.564   2.525   1.052  0.2028 -0.1408  0.4265
  575MOL0     C79256   5.711   2.510   1.075  0.6030  0.0380 -0.1000
  575MOL0    Cl79257   5.745   2.535   1.246 -0.0286  0.2061  0.4870
  575MOL0     C79258   5.117   3.107   1.025 -0.5563  0.1340 -0.2017
  575MOL0     C79259   5.042   3.116   1.139 -0.2280 -0.3237 -0.9586
  575MOL0     O79260   5.148   3.120   1.504 -0.3998 -0.9558 -0.0126
  575MOL0     C79261   4.958   3.140   1.720  0.1595 -0.0497 -0.0926
  575MOL0     C79262   4.857   3.130   1.814  0.3021 -0.4100 -0.3338
  575MOL0     N79263   4.179   3.260   2.188  0.3353 -0.5293 -0.3989
  575MOL0     N79264   4.177   3.377   2.244  0.0164  0.8230  0.3999
  575MOL0     C79265   3.698   3.143   2.794  0.8495 -0.5734  0.5808
  575MOL0     C79266   3.562   3.118   2.819 -0.7330  0.0659 -0.4967
  575MOL0     C79267   3.121   3.251   2.949  0.1954  0.1713 -0.0778
  575MOL0     C79268   3.051   3.139   2.881  0.0868 -0.9124 -0.9796
  575MOL0     C79269   2.911   3.141   2.863 -0.5012 -0.5982  0.2959
  575MOL0     C79270   2.839   3.257   2.907  0.9596  0.7863 -0.3094
  575MOL0     O79271   2.705   3.276   2.913 -0.2156 -0.0878  0.1129
  575MOL0     C79272   2.611   3.173   2.865 -0.6803 -0.5973 -0.0487
  575MOL0     C79273   2.465   3.203   2.909  0.0528  0.3413 -0.1694
  575MOL0     C79274   2.442   3.217   3.059 -0.0560  0.2827 -0.6325
  575MOL0     C79275   2.321   3.305   3.078  0.0354 -1.2132 -0.0942
  575MOL0     C79276   2.202   3.227   3.058  0.3001  0.0607  0.6159
  575MOL0     C79277   2.108   3.159   3.042  0.4852  0.0428  0.5829
  575MOL0     C79278   2.913   3.367   2.949 -0.6779 -0.7843 -0.2519
  575MOL0     C79279   3.045   3.365   2.978  1.0184  0.0120 -0.1327
  575MOL0     C79280   3.120   3.493   3.037  0.2316 -0.7121  0.0150
  575MOL0     H79281   3.474   3.425   2.915 -1.6337 -0.3306 -0.6123
  575MOL0     H79282   3.691   3.479   2.820  0.0449 -0.1979  0.7598
  575MOL0     H79283   3.914   3.333   2.968 -1.7067  0.8109  1.0038
  575MOL0     H79284   3.964   3.461   2.875  1.0136 -0.3249 -0.6778
  575MOL0     H79285   4.162   3.314   2.940  1.6617 -0.4226 -0.4565
  575MOL0     H79286   4.105   3.188   2.838  0.0022 -0.2071  2.9413
  575MOL0     H79287   4.265   3.290   2.704  2.4076  3.8285  0.1531
  575MOL0     H79288   4.103   3.341   2.645 -0.9392 -1.3660  0.0977
  575MOL0     H79289   4.172   3.552   2.776 -0.7380 -0.5490 -1.2150
  575MOL0     H79290   4.331   3.478   2.809  1.0977  1.3558  0.0760
  575MOL0     H79291   4.361   3.638   2.625  0.3562 -0.2482  5.2111
  575MOL0     H79292   4.209   3.590   2.547 -0.4837 -0.3291  0.5441
  575MOL0     H79293   4.474   3.440   2.582 -0.6611 -3.2732 -0.3523
  575MOL0     H79294   4.336   3.373   2.490  0.5828  0.0203  0.2595
  575MOL0     H79295   4.534   3.525   2.359  0.5783 -0.4329  1.2223
  575MOL0     H79296   4.465   3.651   2.436  5.7894 -0.2324 -0.5395
  575MOL0     H79297   4.236   3.613   2.311  0.5527  1.7353 -0.9736
  575MOL0     H79298   4.368   3.633   2.209 -0.4674  1.9634  1.4687
  575MOL0     H79299   4.472   3.377   2.120 -1.4651  2.2860 -2.2845
  575MOL0     H79300   4.375   3.226   1.928  0.9410 -2.4026 -0.9518
  575MOL0     H79301   4.231   3.124   1.958 -0.4752 -0.1050 -0.5510
  575MOL0     H79302   4.511   3.078   2.094  0.9042 -2.5090 -1.3397
  575MOL0     H79303   4.356   2.992   2.124  1.8483 -0.2594  0.1578
  575MOL0     H79304   4.526   2.883   1.985 -3.0814 -2.4572 -0.0423
  575MOL0     H79305   4.379   2.886   1.911  0.6716 -0.0244  1.6575
  575MOL0     H79306   4.567   2.961   1.748 -1.0556 -0.2102  0.0399
  575MOL0     H79307   4.438   3.079   1.772 -0.9039 -1.0947 -0.2747
  575MOL0     H79308   4.585   3.222   1.629  0.2272 -0.0708 -0.5547
  575MOL0     H79309   4.742   3.099   1.356  2.8652  0.2071 -0.1766
  575MOL0     H79310   4.766   3.269   1.330 -2.2577  1.7750 -0.1946
  575MOL0     H79311   4.625   3.226   1.412 -1.4019 -1.3508 -1.8231
  575MOL0     H79312   5.245   3.321   1.312  1.7347 -0.0126 -0.9017
  575MOL0     H79313   5.374   3.324   1.118  0.0287  0.4151 -0.8514
  575MOL0     H79314   5.196   3.179   0.749 -0.4066  2.2661  3.8607
  575MOL0     H79315   5.355   3.172   0.699  1.7165 -2.3469 -0.6298
  575MOL0     H79316   5.197   2.925   0.782 -0.2923  1.7635  1.8783
  575MOL0     H79317   5.283   2.964   0.638  0.8887  0.7117 -0.1046
  575MOL0     H79318   5.447   2.952   0.895 -0.3967 -3.1373  1.3536
  575MOL0     H79319   5.499   2.936   0.727  1.4284  1.1237  1.9700
  575MOL0     H79320   5.377   2.712   0.722  2.2001  1.7901 -2.9234
  575MOL0     H79321   5.354   2.734   0.890 -1.2336  2.0427 -0.5742
  575MOL0     H79322   5.626   2.693   0.760  0.6403  5.9471 -0.2129
  575MOL0     H79323   5.602   2.750   0.926 -0.0926 -1.9377  0.9537
  575MOL0     H79324   5.603   2.476   0.847 -1.2905 -0.3431 -0.7309
  575MOL0     H79325   5.435   2.538   0.878  1.4725  1.9093 -3.0450
  575MOL0     H79326   5.505   2.442   1.091  0.8737 -0.4253  0.8500
  575MOL0     H79327   5.523   2.616   1.098  1.7562  2.0774 -2.2715
  575MOL0     H79328   5.776   2.575   1.015 -0.3744  0.0424 -1.1834
  575MOL0     H79329   5.736   2.408   1.044  0.2947  0.2484 -1.0814
  575MOL0     H79330   5.071   3.055   0.941 -0.8445 -1.6981  1.0383
  575MOL0     H79331   4.939   3.081   1.136 -0.9894  1.5467  0.7932
  575MOL0     H79332   5.065   3.138   1.741  0.7094 -3.2410 -2.4496
  575MOL0     H79333   4.878   3.093   1.914  0.8170  1.3237  0.2282
  575MOL0     H79334   3.748   3.054   2.758 -1.8973 -1.1882 -2.1170
  575MOL0     H79335   3.520   3.018   2.806  2.1473 -1.1126 -1.4163
  575MOL0     H79336   3.111   3.056   2.846  4.0811  0.7484  1.2796
  575MOL0     H79337   2.871   3.056   2.809  1.2758  0.4283 -2.9076
  575MOL0     H79338   2.611   3.172   2.756  1.2327  2.9361 -0.2200
  575MOL0     H79339   2.644   3.076   2.903  1.5469 -0.2606 -0.9650
  575MOL0     H79340   2.393   3.129   2.873  1.2363 -1.1598  0.4136
  575MOL0     H79341   2.443   3.296   2.857  2.6074  2.7776  2.7544
  575MOL0     H79342   2.434   3.119   3.107  0.8470  0.8639  0.7675
  575MOL0     H79343   2.526   3.273   3.101  0.6535  0.1642 -1.8299
  575MOL0     H79344   2.325   3.379   2.997 -1.8966 -0.4413  0.4602
  575MOL0     H79345   2.324   3.353   3.176  1.4134 -0.2971 -0.5691
  575MOL0     H79346   2.035   3.085   3.016  0.2888  0.9256 -1.5755
  575MOL0     H79347   2.858   3.458   2.971  2.4405  0.7673  1.8245
  575MOL0     H79348   3.228   3.493   3.020  0.0522  0.3736 -1.3643
  575MOL0     H79349   3.063   3.579   3.000  1.3604  0.7460  1.5029
  575MOL0     H79350   3.106   3.495   3.145  1.7283  0.5496  0.2222
  576MOL0     O79351  11.250  10.811   1.391  0.4753 -0.1296 -0.6850
  576MOL0     C79352  11.200  10.694   1.413  0.2701  0.8155  0.4966
  576MOL0     O79353  11.278  10.585   1.458 -0.1026  0.0801 -0.0033
  576MOL0     C79354  11.410  10.565   1.440  0.3509  0.1210  0.0727
  576MOL0     C79355  11.503  10.670   1.408  0.3553 -0.5580 -0.2390
  576MOL0     C79356  11.632  10.637   1.383  0.1536 -0.8104  0.4468
  576MOL0     C79357  11.669  10.497   1.398 -0.8927  0.2335 -0.5478
  576MOL0     O79358  11.790  10.447   1.356 -0.4711  0.6164 -0.3280
  576MOL0     C79359  11.889  10.525   1.292  0.7132 -1.1150  0.1297
  576MOL0     C79360  11.973  10.602   1.384 -0.2584  0.6567  0.2728
  576MOL0     C79361  12.110  10.521   1.395  0.4417 -0.3456 -1.0532
  576MOL0     C79362  12.206  10.614   1.471  0.4602 -0.3231 -1.0651
  576MOL0     C79363  12.301  10.534   1.557  0.1943  0.4553 -0.2159
  576MOL0     C79364  12.386  10.614   1.637  0.1550  0.0258  0.2123
  576MOL0     C79365  12.484  10.540   1.720  0.1938 -0.4058  0.2808
  576MOL0     C79366  12.582  10.632   1.792  0.1182 -0.9978 -0.3182
  576MOL0     N79367  12.689  10.563   1.873  0.2645 -0.0179  0.4784
  576MOL0     C79368  12.686  10.526   2.006 -0.7439  0.0291  1.1279
  576MOL0     C79369  12.805  10.480   2.033 -0.1981 -0.1685 -0.3912
  576MOL0     C79370  12.858  10.424   2.159 -0.5217 -0.5395  0.2019
  576MOL0     C79371  12.936  10.531   2.233  0.3640  0.4912 -0.1153
  576MOL0     C79372  13.018  10.490   2.355 -0.5967  0.2204  0.0807
  576MOL0     C79373  12.948  10.454   2.487  0.1580  0.6846  0.1162
  576MOL0     O79374  13.026  10.487   2.602  0.3445 -0.4701  0.2627
  576MOL0     C79375  13.107  10.399   2.663 -0.1344  0.4436 -0.9489
  576MOL0     C79376  13.167  10.431   2.788  1.1100 -0.1538  0.0180
  576MOL0     C79377  13.246  10.347   2.862 -0.2654  0.3306 -0.5852
  576MOL0     C79378  13.312  10.387   2.988 -0.3386 -0.6738 -0.4188
  576MOL0     C79379  13.281  10.220   2.808  1.0221 -1.0204  0.4393
  576MOL0     C79380  13.378  10.123   2.864 -0.6850  1.0666 -0.1784
  576MOL0     O79381  13.429  10.136   2.994 -0.0248 -0.9237  0.1545
  576MOL0     C79382  13.525  10.047   3.040 -0.7998  0.3750  0.5433
  576MOL0     C79383  13.507   9.964   3.150 -0.3520 -0.0885 -0.3152
  576MOL0     C79384  13.615   9.892   3.208  0.4346 -0.0621 -1.2338
  576MOL0     C79385  13.739   9.898   3.165 -0.7562  0.1400 -0.0197
  576MOL0     O79386  13.828   9.819   3.234 -0.5330 -0.7517 -0.1248
  576MOL0     C79387  13.963   9.812   3.189  0.6172 -0.5458 -0.1242
  576MOL0     C79388  14.045   9.719   3.283 -0.3357  0.8689  0.0631
  576MOL0     C79389  14.194   9.747   3.304  0.1132 -0.5781 -0.0490
  576MOL0     C79390  14.273   9.679   3.196 -0.3688  1.3696 -0.1413
  576MOL0     C79391  14.412   9.732   3.198  0.2582  0.2977  0.7315
  576MOL0     C79392  14.494   9.657   3.088  0.3896 -0.6083 -0.2152
  576MOL0     C79393  14.438   9.669   2.951  0.5559  0.4703 -0.7975
  576MOL0     C79394  14.546   9.678   2.839 -0.3879 -0.5627 -0.3137
  576MOL0    Cl79395  14.613   9.506   2.829  0.1111 -0.0027 -0.0686
  576MOL0     C79396  13.756   9.977   3.049 -0.7612 -0.3568  0.5204
  576MOL0     C79397  13.653  10.049   2.982 -0.3887 -0.0553 -0.5209
  576MOL0     O79398  13.413  10.026   2.790  0.5631 -0.1342 -0.5791
  576MOL0     C79399  13.225  10.194   2.679  0.8165 -0.1153  0.3562
  576MOL0     C79400  13.147  10.279   2.605 -0.6759  0.1711  0.1938
  576MOL0     N79401  12.867  10.473   1.909  0.3958 -0.3125  0.4964
  576MOL0     N79402  12.799  10.523   1.806 -0.5068  0.4593  0.2995
  576MOL0     C79403  11.577  10.400   1.437  0.1732  0.3868  0.1560
  576MOL0     C79404  11.445  10.432   1.459  0.6271  0.0839  0.4733
  576MOL0     C79405  11.054  10.675   1.420  0.0432 -0.6046 -0.3065
  576MOL0     C79406  11.009  10.541   1.424 -0.1366  0.2612 -0.4965
  576MOL0     C79407  10.878  10.507   1.435  0.3692  0.5169  0.0604
  576MOL0     C79408  10.776  10.600   1.444 -0.3094 -1.0344 -0.7284
  576MOL0     O79409  10.649  10.548   1.453 -0.0222 -0.0999 -0.0109
  576MOL0     C79410  10.545  10.626   1.400 -0.4051 -0.4326 -0.4850
  576MOL0     C79411  10.537  10.637   1.247 -0.4575 -0.2321 -0.2608
  576MOL0     C79412  10.429  10.731   1.195  0.1373 -0.3632  0.4782
  576MOL0     C79413  10.394  10.861   1.268 -0.4230 -0.0794  0.6378
  576MOL0     C79414  10.497  10.955   1.242  0.0533  0.0189  0.2393
  576MOL0     C79415  10.593  11.021   1.213  0.3001 -0.5156  0.1876
  576MOL0     C79416  10.812  10.735   1.443  0.0255  0.2384  0.4211
  576MOL0     C79417  10.951  10.778   1.438 -0.1764 -0.0716 -0.0293
  576MOL0     C79418  10.970  10.927   1.459 -0.3972  0.6082 -0.8460
  576MOL0     H79419  11.472  10.772   1.387 -2.0799 -1.4777 -1.4735
  576MOL0     H79420  11.703  10.710   1.345  0.3102 -0.4550  1.3825
  576MOL0     H79421  11.839  10.595   1.225 -0.4514  2.2649  4.1532
  576MOL0     H79422  11.947  10.470   1.217 -1.1365 -2.6299 -0.2761
  576MOL0     H79423  11.985  10.705   1.349  2.4525  0.4614  0.3954
  576MOL0     H79424  11.917  10.601   1.478  0.2200 -0.6704  0.5693
  576MOL0     H79425  12.077  10.434   1.453  0.3927 -1.0013 -2.0450
  576MOL0     H79426  12.143  10.479   1.300 -2.1108 -1.2668 -1.6245
  576MOL0     H79427  12.259  10.688   1.410  0.2367 -1.0451 -2.1595
  576MOL0     H79428  12.153  10.680   1.540  1.8876  0.6188 -0.8105
  576MOL0     H79429  12.355  10.470   1.487  1.2355 -0.6561  1.5101
  576MOL0     H79430  12.256  10.458   1.621 -1.3920  0.2949 -1.4795
  576MOL0     H79431  12.427  10.685   1.564  0.9948 -3.6425 -3.2672
  576MOL0     H79432  12.324  10.676   1.702 -0.5427 -2.0920  1.6430
  576MOL0     H79433  12.541  10.472   1.657 -0.9069 -0.4706 -0.6672
  576MOL0     H79434  12.427  10.482   1.794 -0.5730 -0.7292 -0.5519
  576MOL0     H79435  12.641  10.673   1.710 -0.3152 -0.5767 -0.4282
  576MOL0     H79436  12.539  10.712   1.854 -1.3347 -2.3962  0.5482
  576MOL0     H79437  12.604  10.513   2.076 -2.4499 -1.4557 -1.0154
  576MOL0     H79438  12.928  10.346   2.128 -0.4125 -0.1684 -0.4988
  576MOL0     H79439  12.784  10.376   2.223 -1.7166  1.4924  0.4353
  576MOL0     H79440  13.003  10.574   2.158  3.0507 -1.4850  1.0115
  576MOL0     H79441  12.878  10.619   2.262 -2.5640 -1.2239 -0.2203
  576MOL0     H79442  13.101  10.421   2.334 -0.1097  0.5595  0.8571
  576MOL0     H79443  13.069  10.584   2.375  1.1822 -0.2246 -2.0128
  576MOL0     H79444  12.854  10.509   2.490  0.0149  0.3788  2.1316
  576MOL0     H79445  12.914  10.351   2.496 -2.5720  1.5025  0.0738
  576MOL0     H79446  13.138  10.529   2.825 -1.3790 -0.3296 -1.3120
  576MOL0     H79447  13.288  10.325   3.075  0.7178 -2.2709 -1.2027
  576MOL0     H79448  13.286  10.492   3.005  3.3426  0.4389 -0.6149
  576MOL0     H79449  13.420  10.392   2.969  0.1577 -1.5136  1.8075
  576MOL0     H79450  13.415   9.967   3.208 -1.5425 -3.4993 -1.8035
  576MOL0     H79451  13.587   9.826   3.290 -0.2910 -0.9290 -2.1440
  576MOL0     H79452  13.968   9.778   3.085 -2.1139 -4.1969  0.7343
  576MOL0     H79453  13.993   9.916   3.204 -1.2031 -0.0726  0.4485
  576MOL0     H79454  13.997   9.720   3.381  1.1377  1.5697  0.8066
  576MOL0     H79455  14.034   9.618   3.242 -2.8101  0.9400  0.3830
  576MOL0     H79456  14.224   9.717   3.405 -0.0728 -1.9562 -0.3828
  576MOL0     H79457  14.215   9.852   3.281 -1.0829 -0.3347 -0.1082
  576MOL0     H79458  14.222   9.706   3.103  0.7824 -2.1102 -1.9431
  576MOL0     H79459  14.276   9.570   3.198 -2.2397  1.2052 -2.3241
  576MOL0     H79460  14.416   9.838   3.171  3.6861  0.6735  2.2324
  576MOL0     H79461  14.454   9.717   3.298 -3.0437 -1.7873  1.9717
  576MOL0     H79462  14.508   9.554   3.121 -0.1703  0.1877  2.8963
  576MOL0     H79463  14.589   9.712   3.078 -0.2882  0.6970  0.2299
  576MOL0     H79464  14.379   9.761   2.951  0.6382  0.5379  0.2803
  576MOL0     H79465  14.365   9.589   2.932 -0.0211  1.3743 -2.6092
  576MOL0     H79466  14.627   9.749   2.855 -0.2240 -0.5104 -1.3073
  576MOL0     H79467  14.509   9.714   2.742  0.3186  2.1609  0.3423
  576MOL0     H79468  13.850   9.993   2.998 -2.5979  2.4219 -2.3107
  576MOL0     H79469  13.681  10.120   2.905  1.0217  4.0789  3.3361
  576MOL0     H79470  13.242  10.097   2.634  1.2395 -0.2813  0.8580
  576MOL0     H79471  13.132  10.260   2.499 -1.1890 -3.0395  0.7503
  576MOL0     H79472  11.618  10.300   1.445  1.1760  0.5336 -2.2741
  576MOL0     H79473  11.365  10.361   1.475  0.7878 -0.7390 -1.9474
  576MOL0     H79474  11.071  10.451   1.420 -0.5810 -0.2880  2.5094
  576MOL0     H79475  10.842  10.405   1.433 -0.1551  0.7040 -0.1546
  576MOL0     H79476  10.451  10.587   1.441 -1.0410  1.0214 -0.4906
  576MOL0     H79477  10.551  10.725   1.447  4.4547 -1.0908  0.8187
  576MOL0     H79478  10.529  10.535   1.208  2.2633 -1.7686  2.7329
  576MOL0     H79479  10.639  10.668   1.220 -1.1783  1.7850 -0.8028
  576MOL0     H79480  10.445  10.753   1.089 -2.7146 -2.9530 -0.6457
  576MOL0     H79481  10.337  10.673   1.209 -0.0442 -0.3459 -0.5493
  576MOL0     H79482  10.380  10.854   1.376 -0.7997 -0.1629  0.5834
  576MOL0     H79483  10.299  10.895   1.225 -1.5312 -2.5474  0.9791
  576MOL0     H79484  10.683  11.074   1.194 -1.3043  2.0733 -0.6840
  576MOL0     H79485  10.723  10.797   1.447 -1.1788 -1.1595 -2.3059
  576MOL0     H79486  10.876  10.980   1.474  0.5695  2.5379 -1.2288
  576MOL0     H79487  11.040  10.948   1.540  0.4913  0.1237 -1.4673
  576MOL0     H79488  11.028  10.966   1.374  3.2253 -1.1146  0.6378
  577MOL0     O79489   1.558   4.723  11.100  0.6024 -0.5087 -0.4675
  577MOL0     C79490   1.508   4.725  10.987  0.3785  0.0941 -0.5965
  577MOL0     O79491   1.559   4.794  10.880  0.0902  0.2617  0.6242
  577MOL0     C79492   1.680   4.856  10.889  0.6810  0.6256 -0.1485
  577MOL0     C79493   1.680   4.994  10.858 -0.2230  0.3490 -0.9713
  577MOL0     C79494   1.785   5.083  10.876 -0.4197  0.1557 -0.2439
  577MOL0     C79495   1.905   5.025  10.935  0.2476  0.0765  0.5237
  577MOL0     O79496   2.003   5.109  10.959  0.0076  0.8914  0.3255
  577MOL0     C79497   2.121   5.073  11.033  0.7278 -0.5475  0.5300
  577MOL0     C79498   2.201   5.209  11.061  0.7788  0.9432  0.5691
  577MOL0     C79499   2.223   5.216  11.204 -0.8686  0.5317 -0.7360
  577MOL0     C79500   2.109   5.273  11.291  0.2468 -0.4497 -1.1222
  577MOL0     C79501   2.119   5.240  11.444  0.1733  0.7994 -0.5934
  577MOL0     C79502   2.104   5.093  11.469 -0.0031  1.4887  0.2754
  577MOL0     C79503   2.076   5.036  11.608 -0.3368 -0.4435 -0.0507
  577MOL0     C79504   2.100   4.892  11.622 -0.5505  0.0085 -0.1870
  577MOL0     N79505   1.990   4.811  11.567 -0.1533 -0.0221  0.0595
  577MOL0     C79506   1.997   4.761  11.442  0.0225  0.1184 -0.1249
  577MOL0     C79507   1.882   4.694  11.432 -0.2786  0.1299  0.3780
  577MOL0     C79508   1.822   4.630  11.315 -0.0020  0.2739  0.8887
  577MOL0     C79509   1.910   4.508  11.285 -0.2022  0.5961  0.1282
  577MOL0     C79510   1.850   4.429  11.158  0.0684 -0.5598 -0.5313
  577MOL0     C79511   1.961   4.343  11.107 -0.5967  0.4937  0.3599
  577MOL0     O79512   1.981   4.253  11.217  0.2565  0.6131  0.1008
  577MOL0     C79513   2.089   4.163  11.215  0.4465 -0.2877  0.1207
  577MOL0     C79514   2.197   4.174  11.127 -0.1382  0.5295  0.0073
  577MOL0     C79515   2.310   4.092  11.127  0.3332 -0.1544  0.8592
  577MOL0     C79516   2.424   4.139  11.033 -0.6423 -0.1893  1.7505
  577MOL0     C79517   2.316   3.987  11.221  0.4829  1.0989  0.4026
  577MOL0     C79518   2.418   3.882  11.235 -0.0940  0.1535  0.0841
  577MOL0     O79519   2.412   3.801  11.347  0.5131 -0.8093 -0.6969
  577MOL0     C79520   2.504   3.703  11.361 -0.1096  0.3346 -0.7172
  577MOL0     C79521   2.516   3.593  11.276 -0.9488  0.4032  0.3786
  577MOL0     C79522   2.625   3.502  11.300 -0.6791 -1.1096  0.4552
  577MOL0     C79523   2.713   3.516  11.405 -0.4070 -0.6730  0.7553
  577MOL0     O79524   2.815   3.430  11.441 -0.4975 -0.4032 -0.4163
  577MOL0     C79525   2.854   3.318  11.364 -0.2753  0.5617 -0.1211
  577MOL0     C79526   2.909   3.222  11.462  0.3968 -0.7273 -0.7315
  577MOL0     C79527   2.967   3.101  11.385  0.4368 -0.1491  0.3623
  577MOL0     C79528   3.029   3.007  11.487  0.1203  0.3311 -0.1963
  577MOL0     C79529   3.150   2.939  11.421 -0.5351 -0.1400  0.1515
  577MOL0     C79530   3.231   2.849  11.516  0.0578  1.0024 -0.1860
  577MOL0     C79531   3.153   2.724  11.566 -0.1335  0.4454 -0.1835
  577MOL0     C79532   3.242   2.637  11.662 -0.3984 -0.5407 -0.2142
  577MOL0    Cl79533   3.292   2.727  11.809 -0.1406  0.6771  0.0603
  577MOL0     C79534   2.698   3.625  11.492  0.4256 -0.9366  0.0595
  577MOL0     C79535   2.592   3.718  11.467 -0.9417  0.3733 -0.5736
  577MOL0     O79536   2.512   3.876  11.155  0.0853 -0.2357  0.3149
  577MOL0     C79537   2.211   3.987  11.307 -0.3558  0.2879 -1.0944
  577MOL0     C79538   2.107   4.077  11.315  0.2625 -0.0343 -0.2326
  577MOL0     N79539   1.809   4.706  11.550 -0.0799 -0.3339  0.9174
  577MOL0     N79540   1.880   4.764  11.636 -0.5671 -0.1282 -0.2157
  577MOL0     C79541   1.910   4.884  10.964  0.4085  0.4759 -0.0765
  577MOL0     C79542   1.804   4.796  10.936  0.1988 -0.1883 -0.1982
  577MOL0     C79543   1.381   4.651  10.972 -0.1909 -0.8051  0.8463
  577MOL0     C79544   1.300   4.709  10.867  0.1343  0.2769 -0.1960
  577MOL0     C79545   1.174   4.652  10.845  0.0489  0.5588 -0.3118
  577MOL0     C79546   1.124   4.559  10.926  0.0837 -0.1057 -0.5842
  577MOL0     O79547   1.001   4.507  10.895  0.0369 -0.6085 -0.1763
  577MOL0     C79548   0.977   4.375  10.939  0.8749 -1.0775 -0.1355
  577MOL0     C79549   0.859   4.318  10.863  0.5237 -0.4103 -1.5154
  577MOL0     C79550   0.875   4.343  10.714 -0.9130  0.7536  0.5691
  577MOL0     C79551   0.992   4.274  10.639  0.1316  0.1539 -0.2441
  577MOL0     C79552   0.989   4.331  10.503 -0.7999  1.0762  0.1411
  577MOL0     C79553   0.989   4.376  10.392 -0.3010 -0.0306  0.1650
  577MOL0     C79554   1.199   4.518  11.040 -0.7076 -0.0340 -0.3185
  577MOL0     C79555   1.335   4.556  11.060  1.0243  0.6294 -0.0103
  577MOL0     C79556   1.417   4.468  11.157 -0.5281 -0.5499  0.6342
  577MOL0     H79557   1.583   5.036  10.831 -1.3735 -1.4621  0.1249
  577MOL0     H79558   1.768   5.181  10.832  0.8475  0.0450 -1.0330
  577MOL0     H79559   2.186   5.007  10.975  0.3375 -1.4313  1.0802
  577MOL0     H79560   2.093   5.016  11.122  0.6966 -1.7080 -0.2043
  577MOL0     H79561   2.297   5.197  11.010  0.1343 -2.5348 -0.0799
  577MOL0     H79562   2.141   5.291  11.023  1.8718  2.0004  1.0684
  577MOL0     H79563   2.254   5.117  11.240  1.3915  2.4818  3.3961
  577MOL0     H79564   2.315   5.273  11.216 -0.9020  0.2766  1.0999
  577MOL0     H79565   2.103   5.382  11.279  2.4969  0.0989  1.7004
  577MOL0     H79566   2.021   5.230  11.244 -0.3435  0.5748 -0.9700
  577MOL0     H79567   2.046   5.303  11.495  2.5769  4.3929 -1.2892
  577MOL0     H79568   2.217   5.274  11.480 -0.0572  1.8436 -0.9262
  577MOL0     H79569   2.026   5.058  11.401  0.1004 -1.6925  1.6149
  577MOL0     H79570   2.200   5.055  11.432  1.5180  5.1059  0.0720
  577MOL0     H79571   1.973   5.050  11.640 -0.0157  1.7059  0.2068
  577MOL0     H79572   2.134   5.099  11.677 -3.1951  0.8906  1.2862
  577MOL0     H79573   2.199   4.861  11.587  0.0903  0.6038  1.0147
  577MOL0     H79574   2.100   4.867  11.729 -0.2341 -1.0027 -0.4124
  577MOL0     H79575   2.075   4.778  11.369 -0.5975 -0.5293 -0.9464
  577MOL0     H79576   1.831   4.708  11.239  0.0675  0.3772  1.0007
  577MOL0     H79577   1.717   4.616  11.342 -0.9562  0.9342 -2.1744
  577MOL0     H79578   2.012   4.543  11.265  0.5364 -0.4003  1.9115
  577MOL0     H79579   1.906   4.448  11.376 -0.7611  0.3037 -0.0840
  577MOL0     H79580   1.754   4.381  11.180 -0.8356 -0.3024 -3.4194
  577MOL0     H79581   1.825   4.496  11.075  0.3120  0.5688  0.2810
  577MOL0     H79582   1.939   4.288  11.016  1.2054  2.7558 -1.5637
  577MOL0     H79583   2.053   4.397  11.083 -1.0823  0.9426 -0.5098
  577MOL0     H79584   2.199   4.245  11.046 -2.1166  1.2691  0.5353
  577MOL0     H79585   2.421   4.245  11.007  0.5981 -0.7374 -0.9464
  577MOL0     H79586   2.423   4.088  10.936 -0.0549  2.2980  0.3295
  577MOL0     H79587   2.523   4.120  11.073 -1.0190 -2.7151  1.6058
  577MOL0     H79588   2.452   3.572  11.192 -3.1817  0.9756  1.8467
  577MOL0     H79589   2.636   3.424  11.226  0.2532  1.0106 -1.7634
  577MOL0     H79590   2.773   3.280  11.301 -2.1720  3.4818  0.3524
  577MOL0     H79591   2.940   3.351  11.304 -0.4497  2.0079  0.3917
  577MOL0     H79592   2.982   3.277  11.522 -0.1491  0.8619 -1.4857
  577MOL0     H79593   2.829   3.192  11.531  1.3304 -3.1934 -0.6242
  577MOL0     H79594   3.039   3.142  11.313  0.8657  0.0672  0.9095
  577MOL0     H79595   2.888   3.051  11.328  0.3254  0.5541 -0.1161
  577MOL0     H79596   2.959   2.929  11.519  0.7927 -0.2388 -0.0954
  577MOL0     H79597   3.065   3.066  11.572 -0.7740 -0.7655  0.9950
  577MOL0     H79598   3.116   2.880  11.335 -1.8851  1.0212 -0.1468
  577MOL0     H79599   3.209   3.024  11.386 -2.7665  1.2029 -0.5680
  577MOL0     H79600   3.263   2.905  11.605  1.8952 -0.5540  0.1859
  577MOL0     H79601   3.317   2.808  11.463 -0.5603 -2.4585  1.2130
  577MOL0     H79602   3.123   2.667  11.478  1.9343 -1.5705  0.3232
  577MOL0     H79603   3.070   2.752  11.632  0.8895  1.5426  0.6882
  577MOL0     H79604   3.329   2.609  11.602  0.4051  3.2808 -1.0722
  577MOL0     H79605   3.187   2.544  11.678 -1.0215 -0.3571 -1.1800
  577MOL0     H79606   2.765   3.629  11.577  1.2263 -1.7427 -0.5220
  577MOL0     H79607   2.579   3.808  11.526 -0.8679 -0.7315  1.2005
  577MOL0     H79608   2.217   3.914  11.387  1.1307 -0.3477 -1.7447
  577MOL0     H79609   2.033   4.055  11.392  1.2788  1.9802  1.4153
  577MOL0     H79610   2.005   4.853  11.006 -0.4531 -0.7669  1.0201
  577MOL0     H79611   1.803   4.688  10.950  1.1592 -0.2036 -0.1812
  577MOL0     H79612   1.336   4.781  10.794 -0.0085  0.0406 -0.5009
  577MOL0     H79613   1.110   4.677  10.760  0.9464  1.1479 -0.8265
  577MOL0     H79614   1.062   4.307  10.933 -0.4404 -2.6187 -3.1670
  577MOL0     H79615   0.954   4.373  11.046  1.5586 -2.2772  0.0052
  577MOL0     H79616   0.766   4.367  10.895 -0.1347 -2.2229 -0.5058
  577MOL0     H79617   0.854   4.211  10.885  1.0799 -0.3068 -0.8387
  577MOL0     H79618   0.784   4.303  10.667 -0.2439  1.5231 -1.5095
  577MOL0     H79619   0.874   4.451  10.696  1.7684  0.5664 -1.3054
  577MOL0     H79620   0.977   4.166  10.652 -0.8056  0.2162 -0.6644
  577MOL0     H79621   1.092   4.302  10.671 -0.0050  2.6252 -1.7563
  577MOL0     H79622   0.971   4.415  10.293 -0.4488 -0.6665 -0.0656
  577MOL0     H79623   1.157   4.457  11.119 -1.3182  1.3460  0.4624
  577MOL0     H79624   1.513   4.451  11.107  0.3344 -0.7699  2.2912
  577MOL0     H79625   1.426   4.517  11.254 -2.4074  1.9253 -0.3129
  577MOL0     H79626   1.365   4.374  11.176 -0.3414 -1.2449 -1.9155
  578MOL0     O79627   1.342  10.026   8.509  0.3592 -0.3823 -0.0589
  578MOL0     C79628   1.229  10.033   8.459  0.3330 -0.3290  0.5730
  578MOL0     O79629   1.115   9.984   8.514 -0.8209 -0.5383 -0.5382
  578MOL0     C79630   1.118   9.879   8.606  0.0122  0.1510  0.1942
  578MOL0     C79631   1.215   9.774   8.601  0.3088 -0.7669 -0.5334
  578MOL0     C79632   1.204   9.654   8.687 -0.0306  0.0413  0.1917
  578MOL0     C79633   1.100   9.640   8.775 -0.2407  0.3548 -0.3958
  578MOL0     O79634   1.084   9.533   8.858  0.5091 -0.1149  0.4465
  578MOL0     C79635   1.200   9.454   8.902  0.0774 -0.7261  0.1021
  578MOL0     C79636   1.166   9.372   9.030 -0.5150 -0.5093  0.1071
  578MOL0     C79637   1.119   9.227   9.008 -0.0555  0.0230  0.2220
  578MOL0     C79638   1.171   9.138   9.128  1.0753 -0.4808  0.0645
  578MOL0     C79639   1.151   8.992   9.099 -0.3717  0.0208  0.4959
  578MOL0     C79640   1.180   8.906   9.221  0.1883 -0.0045  0.4708
  578MOL0     C79641   1.166   8.755   9.186 -0.0926  0.9694 -0.2292
  578MOL0     C79642   1.179   8.673   9.310  0.3936 -0.7686 -0.9813
  578MOL0     N79643   1.098   8.730   9.415  0.4075 -0.5286 -0.0845
  578MOL0     C79644   1.144   8.742   9.538 -0.2461 -0.1998 -0.3994
  578MOL0     C79645   1.048   8.802   9.606  0.2474 -0.7891 -0.0115
  578MOL0     C79646   1.044   8.837   9.749 -0.8380  0.3591 -0.3005
  578MOL0     C79647   0.993   8.720   9.831 -1.0025 -0.2169  0.7474
  578MOL0     C79648   0.979   8.760   9.978  0.7525  0.5986  0.7337
  578MOL0     C79649   0.926   8.643  10.061 -0.5050 -0.4647  0.4625
  578MOL0     O79650   0.907   8.683  10.196 -0.0133 -0.6078  0.7515
  578MOL0     C79651   0.790   8.714  10.253  0.5115 -0.2764 -1.0643
  578MOL0     C79652   0.791   8.731  10.399 -0.6391  0.4647  0.6353
  578MOL0     C79653   0.674   8.750  10.478 -0.4374 -0.3988  0.2638
  578MOL0     C79654   0.687   8.774  10.629 -0.2474 -0.4821  0.6727
  578MOL0     C79655   0.547   8.760  10.413  0.5851 -0.7463  0.1691
  578MOL0     C79656   0.415   8.769  10.477  0.2962 -0.1885  0.8082
  578MOL0     O79657   0.308   8.814  10.392  0.3911 -0.5916  0.4554
  578MOL0     C79658   0.178   8.833  10.441 -1.0600  0.0845 -0.2598
  578MOL0     C79659   0.150   8.873  10.569  0.3649  0.3582 -0.3040
  578MOL0     C79660   0.011   8.903  10.600  0.0034  0.3545 -0.0801
  578MOL0     C79661  -0.100   8.892  10.514 -0.3511  0.0560  0.4221
  578MOL0     O79662  -0.222   8.899  10.564 -0.3885  0.0901 -0.2330
  578MOL0     C79663  -0.339   8.900  10.480  0.3239  0.2765  0.3098
  578MOL0     C79664  -0.446   8.973  10.567 -0.7731 -0.4928 -0.6010
  578MOL0     C79665  -0.510   9.084  10.484  0.2976 -0.5994  0.1962
  578MOL0     C79666  -0.586   9.028  10.368  0.3323  0.2909  0.5001
  578MOL0     C79667  -0.690   9.124  10.314  0.8998  0.6346  0.3014
  578MOL0     C79668  -0.803   9.046  10.238  0.0417 -0.6393  0.1615
  578MOL0     C79669  -0.908   8.965  10.316 -0.2493 -0.1077  0.8423
  578MOL0     C79670  -1.051   8.968  10.246 -1.4766  0.2713  0.4559
  578MOL0    Cl79671  -1.129   9.133  10.260 -0.1055  0.4433 -0.3989
  578MOL0     C79672  -0.069   8.840  10.391  0.4991  0.2186 -0.2667
  578MOL0     C79673   0.065   8.815  10.356  0.5391 -0.0562  0.7530
  578MOL0     O79674   0.400   8.714  10.587  0.6705 -1.1932 -0.4008
  578MOL0     C79675   0.545   8.736  10.274  0.1810  0.0731  0.4887
  578MOL0     C79676   0.663   8.702  10.195 -0.1180 -0.0511  0.2311
  578MOL0     N79677   0.940   8.820   9.523  0.7684 -0.0117 -0.0632
  578MOL0     N79678   0.968   8.775   9.405  0.7673 -0.2610 -1.3326
  578MOL0     C79679   1.010   9.747   8.789  0.5040  0.0146 -0.8115
  578MOL0     C79680   1.013   9.861   8.701  0.0125 -0.2600  0.0445
  578MOL0     C79681   1.208  10.102   8.328 -1.0984 -0.5164 -0.7345
  578MOL0     C79682   1.082  10.150   8.303  0.1591 -0.1618 -0.7659
  578MOL0     C79683   1.064  10.239   8.200 -0.3514  0.2767  1.0182
  578MOL0     C79684   1.163  10.265   8.101 -0.1856 -0.0977 -0.6273
  578MOL0     O79685   1.132  10.344   7.990  0.2988  0.1591 -0.1840
  578MOL0     C79686   1.233  10.445   7.949  0.3221 -0.1661 -0.4755
  578MOL0     C79687   1.166  10.585   7.927  0.0340  0.4953  0.0523
  578MOL0     C79688   1.090  10.639   8.047 -0.3033  0.1111  1.4052
  578MOL0     C79689   1.065  10.791   8.039  0.2613 -0.4860  0.6029
  578MOL0     C79690   1.181  10.872   8.088 -0.8132 -1.2289 -1.5786
  578MOL0     C79691   1.284  10.913   8.130  0.0651  0.3722  0.4698
  578MOL0     C79692   1.279  10.190   8.108  0.7529  0.3542  0.0879
  578MOL0     C79693   1.307  10.107   8.223  0.0387  0.3675  0.2389
  578MOL0     C79694   1.434  10.031   8.231 -0.9822 -0.1408 -0.4250
  578MOL0     H79695   1.299   9.776   8.533  0.1844  2.4830 -0.7258
  578MOL0     H79696   1.284   9.582   8.669  1.6109  2.0203 -0.9059
  578MOL0     H79697   1.279   9.518   8.943 -0.8826  0.4034  0.2175
  578MOL0     H79698   1.244   9.409   8.813 -1.0964 -0.9031 -0.4063
  578MOL0     H79699   1.258   9.363   9.088  0.9779  0.3496 -2.0201
  578MOL0     H79700   1.095   9.432   9.087 -1.3380  0.5853 -1.9383
  578MOL0     H79701   1.010   9.220   9.010 -0.0035 -1.3796 -0.4186
  578MOL0     H79702   1.145   9.193   8.907 -1.5660  1.2534 -0.6352
  578MOL0     H79703   1.275   9.167   9.147  0.9318  0.5019 -0.5267
  578MOL0     H79704   1.113   9.174   9.214 -2.5379 -1.2326 -1.8412
  578MOL0     H79705   1.218   8.957   9.019  0.5885  0.7400  0.9556
  578MOL0     H79706   1.048   8.975   9.068 -0.6881  0.1217  1.4723
  578MOL0     H79707   1.288   8.916   9.240 -0.1322  2.0540  1.4784
  578MOL0     H79708   1.109   8.943   9.295  0.2371 -1.5723  1.3255
  578MOL0     H79709   1.232   8.717   9.108  0.5657 -0.0217  0.7785
  578MOL0     H79710   1.062   8.742   9.154  0.4275 -0.0327 -1.5960
  578MOL0     H79711   1.145   8.571   9.289  1.2002 -1.5318  1.1994
  578MOL0     H79712   1.281   8.672   9.348  0.2436  0.0196 -0.5276
  578MOL0     H79713   1.243   8.717   9.574  0.1679  0.6918 -0.8802
  578MOL0     H79714   0.975   8.920   9.762 -1.3370  0.5050 -3.3698
  578MOL0     H79715   1.144   8.875   9.773 -0.1957 -2.3339  1.8428
  578MOL0     H79716   0.890   8.694   9.803 -0.7328  0.4435 -0.9340
  578MOL0     H79717   1.060   8.634   9.819  1.5942  1.6283  1.0826
  578MOL0     H79718   1.080   8.787  10.010  1.7751 -0.6461 -1.3048
  578MOL0     H79719   0.920   8.852   9.989  1.8667  1.6567 -1.5963
  578MOL0     H79720   0.839   8.601  10.010 -0.1754  1.4841 -1.8673
  578MOL0     H79721   1.000   8.563  10.054  1.0355  1.0065 -0.7821
  578MOL0     H79722   0.891   8.711  10.438 -0.4632  2.7171  1.4942
  578MOL0     H79723   0.790   8.800  10.653  0.1295 -0.2556 -1.0371
  578MOL0     H79724   0.666   8.675  10.672  3.6477 -1.1880  1.2800
  578MOL0     H79725   0.629   8.854  10.674  0.7182  0.2701  0.6059
  578MOL0     H79726   0.233   8.886  10.638  2.8150 -2.3845 -2.4721
  578MOL0     H79727  -0.003   8.948  10.698 -1.2768  0.3643 -0.2469
  578MOL0     H79728  -0.315   8.961  10.392  2.2980  0.7886  1.1321
  578MOL0     H79729  -0.385   8.803  10.463  0.6155  0.3069 -0.7532
  578MOL0     H79730  -0.523   8.914  10.617  0.2546  0.7766  2.7284
  578MOL0     H79731  -0.390   9.011  10.653 -0.6994  1.6008 -1.5034
  578MOL0     H79732  -0.439   9.157  10.445 -0.6988  0.7235  0.8018
  578MOL0     H79733  -0.584   9.138  10.543 -0.7405 -0.1051 -1.4726
  578MOL0     H79734  -0.640   8.947  10.418 -0.3920  0.1248 -0.5221
  578MOL0     H79735  -0.523   8.990  10.286 -0.7146 -4.8883  1.7194
  578MOL0     H79736  -0.736   9.182  10.395  0.0725 -0.9486  1.0125
  578MOL0     H79737  -0.640   9.193  10.245 -2.8320 -0.1671 -3.6896
  578MOL0     H79738  -0.764   8.963  10.178 -1.3993 -0.3251 -1.2916
  578MOL0     H79739  -0.858   9.121  10.180  0.9625  0.0454  0.1553
  578MOL0     H79740  -0.937   9.010  10.411 -0.2984  0.2346  0.6702
  578MOL0     H79741  -0.861   8.868  10.330  0.4241  0.0737 -0.0612
  578MOL0     H79742  -1.124   8.900  10.291 -0.8268 -0.2503  0.7336
  578MOL0     H79743  -1.044   8.941  10.140 -1.5913  0.6712  0.3440
  578MOL0     H79744  -0.145   8.838  10.313  0.6615  2.6499 -0.5659
  578MOL0     H79745   0.084   8.781  10.255 -0.6121  0.3458  0.3849
  578MOL0     H79746   0.454   8.723  10.217  1.0362 -1.0472 -0.6773
  578MOL0     H79747   0.659   8.689  10.087  0.6800 -1.1869  0.3129
  578MOL0     H79748   0.936   9.734   8.868  1.1431 -1.0864 -0.3610
  578MOL0     H79749   0.941   9.941   8.711  0.6287  0.0455  2.5704
  578MOL0     H79750   0.996  10.132   8.367 -0.5604 -0.2806 -1.7452
  578MOL0     H79751   0.961  10.273   8.198 -0.0079  1.4386 -1.8125
  578MOL0     H79752   1.313  10.460   8.022  0.8420  1.6715 -1.3671
  578MOL0     H79753   1.274  10.408   7.855  2.2095  0.6684 -0.0165
  578MOL0     H79754   1.097  10.570   7.843  3.0883 -1.0753 -2.3941
  578MOL0     H79755   1.246  10.655   7.900 -0.2212  0.7518 -0.0389
  578MOL0     H79756   1.001  10.577   8.027  1.3450 -2.3781  1.3102
  578MOL0     H79757   1.135  10.613   8.143  0.6065  1.3845  1.3408
  578MOL0     H79758   0.979  10.812   8.102  1.9643 -2.3465  3.8254
  578MOL0     H79759   1.038  10.827   7.939  1.5712 -0.6346  0.1693
  578MOL0     H79760   1.378  10.949   8.168  0.2347 -1.4367  1.9099
  578MOL0     H79761   1.338  10.191   8.017  0.2758 -1.4900 -0.2907
  578MOL0     H79762   1.500  10.085   8.300 -1.9099  1.5633 -0.8210
  578MOL0     H79763   1.410   9.934   8.275  0.0759 -0.0363  0.4094
  578MOL0     H79764   1.473  10.004   8.133 -2.4592  0.9349 -1.3619
  579MOL0     O79765   2.123   1.737   7.192  0.3999  0.3106  0.0359
  579MOL0     C79766   2.242   1.707   7.211  0.1881 -0.1498 -0.7665
  579MOL0     O79767   2.286   1.633   7.317  0.5662 -0.1842 -0.3190
  579MOL0     C79768   2.195   1.612   7.423  0.4993 -0.1462 -0.2834
  579MOL0     C79769   2.084   1.539   7.398  0.0515 -0.1159 -0.3178
  579MOL0     C79770   1.993   1.523   7.510 -0.4099 -0.4918  0.2878
  579MOL0     C79771   2.007   1.577   7.637 -0.9080 -0.3826 -1.0770
  579MOL0     O79772   1.916   1.542   7.741  0.0295 -0.8730 -0.3480
  579MOL0     C79773   1.896   1.641   7.843 -0.7009 -0.0671 -0.2075
  579MOL0     C79774   1.781   1.603   7.937 -0.2368 -0.0583  0.1382
  579MOL0     C79775   1.765   1.699   8.061  0.9427  0.9673 -1.1238
  579MOL0     C79776   1.698   1.833   8.030 -0.1396 -1.1776 -0.2231
  579MOL0     C79777   1.685   1.917   8.155  0.0285 -0.0449  1.2499
  579MOL0     C79778   1.687   2.072   8.116 -0.2161  0.1754 -0.1090
  579MOL0     C79779   1.826   2.118   8.120  0.5182 -0.4083  0.2547
  579MOL0     C79780   1.834   2.262   8.066  0.7685 -0.6664  0.6145
  579MOL0     N79781   1.962   2.326   8.087 -0.6980  0.2687 -1.0705
  579MOL0     C79782   2.012   2.379   8.210  0.0675  0.5362  0.1500
  579MOL0     C79783   2.110   2.462   8.165  0.3446  0.3903 -0.5582
  579MOL0     C79784   2.197   2.560   8.249  0.7999  0.4645 -0.2686
  579MOL0     C79785   2.180   2.714   8.220 -0.1177 -0.1718  0.1026
  579MOL0     C79786   2.244   2.745   8.086  0.3100  0.3941  0.4542
  579MOL0     C79787   2.348   2.849   8.086 -0.6136  0.3487 -0.0066
  579MOL0     O79788   2.295   2.977   8.091  0.6156 -0.7026  0.9878
  579MOL0     C79789   2.371   3.094   8.094 -0.5618  1.1477 -0.4432
  579MOL0     C79790   2.314   3.216   8.122  0.3573  0.1692 -0.4196
  579MOL0     C79791   2.387   3.339   8.119  0.6789  0.2636 -0.1327
  579MOL0     C79792   2.313   3.468   8.142 -0.6079  0.1521 -0.5241
  579MOL0     C79793   2.523   3.331   8.086 -0.8026  0.2337  0.3458
  579MOL0     C79794   2.614   3.454   8.087 -0.1379 -0.2334 -0.4421
  579MOL0     O79795   2.745   3.435   8.114 -0.0198 -0.0485  0.1712
  579MOL0     C79796   2.821   3.553   8.110 -0.3482 -0.8966  0.2557
  579MOL0     C79797   2.899   3.581   8.000 -0.6603  1.1854 -0.3304
  579MOL0     C79798   2.999   3.687   8.000  0.8006 -0.1354 -1.3491
  579MOL0     C79799   3.004   3.766   8.112  0.2408  0.4408  1.3299
  579MOL0     O79800   3.080   3.882   8.113 -0.2494 -0.1878  0.2019
  579MOL0     C79801   3.102   3.951   8.231 -0.7393 -1.2676  0.4028
  579MOL0     C79802   3.168   4.090   8.180  0.0859  0.2246  0.4198
  579MOL0     C79803   3.229   4.148   8.314  0.1876  0.2113 -0.0887
  579MOL0     C79804   3.241   4.295   8.312  0.2920  0.2656  0.4521
  579MOL0     C79805   3.269   4.359   8.442 -0.2020  0.3269  0.2044
  579MOL0     C79806   3.307   4.503   8.416 -0.2960  0.0589 -0.4148
  579MOL0     C79807   3.317   4.587   8.548 -0.5587  0.1909 -0.2480
  579MOL0     C79808   3.394   4.714   8.529  0.3128 -0.1319  0.6607
  579MOL0    Cl79809   3.345   4.813   8.390 -0.1808 -0.2156 -0.3471
  579MOL0     C79810   2.923   3.732   8.227  0.8681  0.5529  0.2029
  579MOL0     C79811   2.829   3.628   8.224 -0.6458 -0.2336  0.3776
  579MOL0     O79812   2.570   3.565   8.070 -0.7858  0.7819  0.0593
  579MOL0     C79813   2.582   3.209   8.068  0.5605 -0.5022  0.2983
  579MOL0     C79814   2.510   3.094   8.085  0.9707 -0.5406  0.1852
  579MOL0     N79815   2.138   2.437   8.032  0.2035 -0.8000  0.0108
  579MOL0     N79816   2.041   2.357   7.986  0.1366  0.3252 -0.1128
  579MOL0     C79817   2.125   1.654   7.657 -0.3435 -0.4578 -0.4081
  579MOL0     C79818   2.214   1.665   7.548 -0.6734 -0.2999  0.6731
  579MOL0     C79819   2.337   1.743   7.103  0.1944  0.3435  0.5948
  579MOL0     C79820   2.296   1.772   6.974  0.0809 -0.1862  0.1553
  579MOL0     C79821   2.371   1.827   6.869 -0.3711  0.6677 -0.3416
  579MOL0     C79822   2.512   1.835   6.888 -0.4583  1.0460  0.7807
  579MOL0     O79823   2.614   1.850   6.793  0.3890  1.1197 -0.3588
  579MOL0     C79824   2.586   1.925   6.683  1.1906 -0.0483  0.0115
  579MOL0     C79825   2.687   1.886   6.571 -0.7518 -0.3186  0.4161
  579MOL0     C79826   2.704   1.739   6.542  0.2374  1.1060 -0.6170
  579MOL0     C79827   2.801   1.719   6.426  0.7725 -0.7795 -0.2276
  579MOL0     C79828   2.836   1.577   6.404  0.7318  0.7922 -0.1238
  579MOL0     C79829   2.857   1.456   6.390 -0.7391 -0.2191  0.1377
  579MOL0     C79830   2.559   1.805   7.019 -0.0383 -0.8494  0.1104
  579MOL0     C79831   2.476   1.766   7.129 -0.0608  0.7142 -1.2620
  579MOL0     C79832   2.543   1.745   7.261 -0.6349 -0.4486  0.9196
  579MOL0     H79833   2.070   1.509   7.294 -0.4726  1.0451 -0.5949
  579MOL0     H79834   1.895   1.477   7.499  0.3395 -2.6036  1.8274
  579MOL0     H79835   1.886   1.737   7.792 -3.3796  0.3400  0.8806
  579MOL0     H79836   1.985   1.630   7.905 -0.0387 -3.1294 -1.4755
  579MOL0     H79837   1.696   1.597   7.868  0.2337  2.1577 -0.7394
  579MOL0     H79838   1.807   1.506   7.980  3.0221 -0.5408 -2.4785
  579MOL0     H79839   1.686   1.657   8.123  0.1497  3.9395  0.0475
  579MOL0     H79840   1.854   1.722   8.120 -2.5440  2.3590  4.2240
  579MOL0     H79841   1.751   1.890   7.953  0.8035  1.0205  1.8911
  579MOL0     H79842   1.602   1.814   7.982  0.8920  0.0049 -2.9523
  579MOL0     H79843   1.763   1.891   8.228  2.4139 -1.3903 -1.5881
  579MOL0     H79844   1.589   1.890   8.200 -1.0183  1.8106  0.2508
  579MOL0     H79845   1.646   2.092   8.017  2.6716 -2.0784 -1.9231
  579MOL0     H79846   1.624   2.123   8.190 -0.1563  1.1805 -0.7306
  579MOL0     H79847   1.891   2.053   8.061 -0.2745 -0.8896 -0.0969
  579MOL0     H79848   1.848   2.118   8.227  1.8031 -3.5031  0.0994
  579MOL0     H79849   1.808   2.257   7.960 -2.2702  2.1504  1.0570
  579MOL0     H79850   1.759   2.326   8.114 -2.6683 -3.3146 -0.7864
  579MOL0     H79851   1.961   2.376   8.306 -1.0773 -0.0276 -0.4549
  579MOL0     H79852   2.300   2.523   8.245  0.0431 -1.7803 -0.9422
  579MOL0     H79853   2.164   2.552   8.353 -1.9397  0.5822 -1.0699
  579MOL0     H79854   2.076   2.747   8.215  0.6304  2.1920 -1.5349
  579MOL0     H79855   2.223   2.758   8.310  0.4916  1.0690 -0.7553
  579MOL0     H79856   2.296   2.652   8.059  0.8366  0.1415  2.2670
  579MOL0     H79857   2.168   2.769   8.010  0.3408  1.0646  0.6357
  579MOL0     H79858   2.401   2.840   8.181 -0.7566 -2.3036 -0.0944
  579MOL0     H79859   2.412   2.834   7.998 -1.2425  1.8194 -0.7423
  579MOL0     H79860   2.207   3.222   8.139  0.5187 -2.0276  2.0627
  579MOL0     H79861   2.216   3.440   8.183 -0.2183  1.5079  1.4724
  579MOL0     H79862   2.293   3.534   8.056  2.8590 -0.3625 -1.9051
  579MOL0     H79863   2.360   3.525   8.222 -1.8642 -2.0425  1.9089
  579MOL0     H79864   2.889   3.529   7.905  0.6242  1.4962 -0.6536
  579MOL0     H79865   3.061   3.704   7.912  0.6396  1.3126 -1.2049
  579MOL0     H79866   3.010   3.987   8.278 -1.4342 -3.2907  0.6712
  579MOL0     H79867   3.173   3.905   8.299  2.6570  2.4172 -0.2826
  579MOL0     H79868   3.251   4.067   8.113 -1.2886 -2.6114 -0.4302
  579MOL0     H79869   3.096   4.154   8.128 -0.1516 -1.5174 -1.4743
  579MOL0     H79870   3.329   4.111   8.341 -1.1503 -4.9780 -1.1360
  579MOL0     H79871   3.159   4.125   8.394 -2.1306  1.6341 -1.5830
  579MOL0     H79872   3.153   4.348   8.272  1.7536  2.2439 -0.3269
  579MOL0     H79873   3.324   4.316   8.243 -1.5843  2.2185 -1.4083
  579MOL0     H79874   3.175   4.349   8.498  0.1571 -1.7188  0.5279
  579MOL0     H79875   3.336   4.305   8.510  0.5275  0.5706 -0.3101
  579MOL0     H79876   3.247   4.556   8.341  0.6105 -0.1646 -1.3196
  579MOL0     H79877   3.409   4.513   8.376  1.0705  0.4297  2.8549
  579MOL0     H79878   3.352   4.532   8.636 -1.8631  2.3522  1.7258
  579MOL0     H79879   3.218   4.615   8.584 -1.8138 -2.5918 -1.2116
  579MOL0     H79880   3.500   4.689   8.526  0.3239  0.0050 -0.1510
  579MOL0     H79881   3.371   4.768   8.622  2.5296 -0.3516  1.4042
  579MOL0     H79882   2.923   3.788   8.319 -2.2291 -1.4445  1.5526
  579MOL0     H79883   2.769   3.602   8.311 -1.3614  1.5082  0.4486
  579MOL0     H79884   2.689   3.194   8.058  0.5442  0.1334 -1.0387
  579MOL0     H79885   2.570   3.005   8.099  2.5062 -0.0480 -2.6184
  579MOL0     H79886   2.150   1.698   7.753  2.1975 -1.5990 -0.4590
  579MOL0     H79887   2.304   1.725   7.546 -0.7045 -0.1722 -2.8401
  579MOL0     H79888   2.192   1.763   6.945 -0.5186  1.8919  1.4478
  579MOL0     H79889   2.314   1.865   6.784 -1.6829  2.9588  1.4338
  579MOL0     H79890   2.487   1.894   6.649  0.5485  0.5900  1.2248
  579MOL0     H79891   2.575   2.032   6.702  2.2272  0.0196  0.3387
  579MOL0     H79892   2.780   1.916   6.620  0.2832 -3.2502  0.4306
  579MOL0     H79893   2.661   1.939   6.479  0.0572 -0.9676 -0.1964
  579MOL0     H79894   2.745   1.680   6.625 -2.1097 -1.2273 -0.9763
  579MOL0     H79895   2.603   1.697   6.531  0.3465  0.7197 -0.1493
  579MOL0     H79896   2.902   1.759   6.444  0.5599 -0.8992  1.4131
  579MOL0     H79897   2.754   1.771   6.342  0.2874  2.8230  2.0161
  579MOL0     H79898   2.855   1.350   6.372  0.2133 -0.0637 -1.0446
  579MOL0     H79899   2.664   1.817   7.043 -0.4820  1.1198  1.2842
  579MOL0     H79900   2.497   1.807   7.339 -2.2752 -0.2080 -0.2024
  579MOL0     H79901   2.523   1.641   7.288 -2.2027  0.5352  3.8946
  579MOL0     H79902   2.648   1.770   7.243 -0.5151  0.3149  2.4847
  580MOL0     O79903   6.677   9.665   9.180 -1.0592 -0.7961  0.2909
  580MOL0     C79904   6.726   9.556   9.142 -0.2647  0.8926  0.0942
  580MOL0     O79905   6.835   9.548   9.057 -0.1212 -0.3207 -0.2264
  580MOL0     C79906   6.924   9.654   9.050  0.5948 -0.7852 -0.0156
  580MOL0     C79907   7.001   9.687   9.157 -0.6249 -0.5736 -0.0687
  580MOL0     C79908   7.102   9.780   9.148 -0.6278  1.2531 -0.0898
  580MOL0     C79909   7.126   9.851   9.034 -0.6405  0.1058 -0.0456
  580MOL0     O79910   7.224   9.947   9.029 -0.4112  1.3383  0.1999
  580MOL0     C79911   7.354   9.909   9.061 -0.2015 -0.3886 -0.0496
  580MOL0     C79912   7.442  10.031   9.036 -0.0063  0.4263 -0.7854
  580MOL0     C79913   7.589  10.002   9.067  0.0473  0.5952 -0.2704
  580MOL0     C79914   7.668  10.131   9.076 -0.2508  0.5171 -0.1274
  580MOL0     C79915   7.818  10.106   9.069  0.0606 -0.3319  0.2654
  580MOL0     C79916   7.854  10.042   8.932  0.0224 -0.6963 -0.0733
  580MOL0     C79917   8.007  10.036   8.920  0.1738 -0.1197  0.0617
  580MOL0     C79918   8.040   9.987   8.778 -0.9973  0.2126  0.6406
  580MOL0     N79919   8.188   9.963   8.770 -0.1388  0.2738 -0.3073
  580MOL0     C79920   8.285  10.050   8.724 -0.2886  0.0711  0.0189
  580MOL0     C79921   8.379   9.972   8.659  0.1650 -0.8218  0.2204
  580MOL0     C79922   8.499  10.016   8.581  0.7518 -0.1810  0.6704
  580MOL0     C79923   8.619  10.073   8.661 -1.1942 -0.2339 -0.1835
  580MOL0     C79924   8.727   9.977   8.694 -0.6609  0.2427  0.1884
  580MOL0     C79925   8.703   9.866   8.784  0.9427  2.0110 -0.4060
  580MOL0     O79926   8.813   9.776   8.805 -0.0310  0.3605  0.7013
  580MOL0     C79927   8.871   9.716   8.915 -0.6694 -0.3832  0.3663
  580MOL0     C79928   8.831   9.726   9.051  0.5357  0.2482 -0.0182
  580MOL0     C79929   8.893   9.649   9.144  0.1529 -1.1623 -1.7865
  580MOL0     C79930   8.852   9.673   9.288 -0.4680  0.4298 -0.1597
  580MOL0     C79931   8.986   9.554   9.105  0.2232  0.1496  0.2421
  580MOL0     C79932   9.059   9.464   9.198 -0.6360  0.2198 -0.2704
  580MOL0     O79933   9.092   9.519   9.312  0.5975  0.2424 -0.2591
  580MOL0     C79934   9.165   9.441   9.400  0.2531  0.8670  0.7291
  580MOL0     C79935   9.302   9.454   9.411 -0.1371 -0.8380 -0.7713
  580MOL0     C79936   9.375   9.381   9.504  0.5936  0.5736  0.5169
  580MOL0     C79937   9.305   9.279   9.578  0.2222 -0.3328 -0.7496
  580MOL0     O79938   9.355   9.174   9.654 -0.0229  0.1256 -0.0013
  580MOL0     C79939   9.494   9.135   9.637  1.1265 -0.0254  0.6568
  580MOL0     C79940   9.507   8.992   9.671 -0.2562 -0.5987  0.2596
  580MOL0     C79941   9.655   8.962   9.688 -0.2375  0.4295 -0.0375
  580MOL0     C79942   9.696   8.819   9.663 -0.0890  0.5583  0.6486
  580MOL0     C79943   9.857   8.814   9.663  0.2266  1.4884  0.9391
  580MOL0     C79944   9.918   8.683   9.613 -0.7201 -0.0641  1.2093
  580MOL0     C79945  10.069   8.690   9.618 -0.4824 -0.2148  0.0547
  580MOL0     C79946  10.138   8.550   9.613  0.1994  0.5674 -0.1561
  580MOL0    Cl79947  10.291   8.571   9.529 -0.2409 -0.1428  0.4632
  580MOL0     C79948   9.172   9.272   9.576  0.0889 -0.8438  0.3098
  580MOL0     C79949   9.099   9.357   9.489  0.9070 -0.2314  0.3670
  580MOL0     O79950   9.087   9.354   9.153  0.0591 -0.1797  0.1997
  580MOL0     C79951   9.030   9.560   8.968 -0.1846  0.1550 -0.4130
  580MOL0     C79952   8.978   9.645   8.875  0.1803  0.4179 -0.0012
  580MOL0     N79953   8.336   9.840   8.681 -0.6817 -0.4759  0.8608
  580MOL0     N79954   8.234   9.837   8.756 -0.6141  0.2100 -0.3177
  580MOL0     C79955   7.040   9.834   8.925  0.2637 -0.1345 -0.3887
  580MOL0     C79956   6.939   9.731   8.934 -0.1658 -0.0858 -0.3470
  580MOL0     C79957   6.653   9.429   9.172  0.5050  0.6034 -0.9837
  580MOL0     C79958   6.726   9.315   9.148  0.0617  0.1626  0.6792
  580MOL0     C79959   6.669   9.186   9.141  0.1261  0.2018 -0.2074
  580MOL0     C79960   6.534   9.162   9.167  0.1532  0.0340  0.0933
  580MOL0     O79961   6.492   9.031   9.171  0.7018  0.2751  0.3384
  580MOL0     C79962   6.360   9.014   9.223  0.1364  0.3959 -0.2483
  580MOL0     C79963   6.328   8.867   9.204  0.6183  0.0744  0.4698
  580MOL0     C79964   6.179   8.849   9.183 -0.3805  0.2420  0.4994
  580MOL0     C79965   6.133   8.869   9.041  0.4729 -0.2317  0.3647
  580MOL0     C79966   5.981   8.879   9.043 -0.3625  0.1574  0.5023
  580MOL0     C79967   5.862   8.870   9.051  0.6426 -0.8018 -0.3760
  580MOL0     C79968   6.458   9.276   9.191 -0.6615  0.4366 -0.4206
  580MOL0     C79969   6.513   9.409   9.191 -0.3010  0.6837 -0.2422
  580MOL0     C79970   6.416   9.520   9.203  0.2258 -0.5413  0.5207
  580MOL0     H79971   6.979   9.639   9.251 -0.1371 -1.3265 -0.3324
  580MOL0     H79972   7.175   9.784   9.229 -0.0971 -3.4193 -0.0520
  580MOL0     H79973   7.382   9.820   9.004 -0.3579 -0.6348  0.2546
  580MOL0     H79974   7.346   9.899   9.170 -3.7174  0.9764 -0.0314
  580MOL0     H79975   7.432  10.072   8.935 -0.4265  1.6403 -0.2632
  580MOL0     H79976   7.404  10.098   9.113  0.8075 -0.8885  0.8278
  580MOL0     H79977   7.600   9.954   9.164 -0.7169 -1.4609 -1.1357
  580MOL0     H79978   7.629   9.925   8.999  1.1368 -1.3530  2.4015
  580MOL0     H79979   7.627  10.196   8.998 -1.2597 -0.1009 -0.1343
  580MOL0     H79980   7.649  10.177   9.173  0.6163 -2.7339  1.7045
  580MOL0     H79981   7.840  10.022   9.136  1.7838  1.8886  2.6901
  580MOL0     H79982   7.865  10.200   9.099 -0.2113 -0.3563  0.7902
  580MOL0     H79983   7.810   9.942   8.924  0.1807 -0.6812 -1.4666
  580MOL0     H79984   7.809  10.093   8.847 -2.3384 -1.0407  0.8958
  580MOL0     H79985   8.045   9.972   9.001 -0.2135  3.2651  3.1693
  580MOL0     H79986   8.052  10.135   8.934  0.3606 -0.2574  0.4346
  580MOL0     H79987   7.979   9.900   8.752 -0.2142  0.3551 -1.9665
  580MOL0     H79988   8.012  10.058   8.700  1.2761  0.2706 -0.1974
  580MOL0     H79989   8.297  10.158   8.726  2.9422  0.0069 -3.5808
  580MOL0     H79990   8.466  10.093   8.510  2.3361  0.9135  1.0595
  580MOL0     H79991   8.527   9.933   8.516 -3.6395 -1.8081  0.5363
  580MOL0     H79992   8.658  10.165   8.615  0.4228 -0.9539 -0.3220
  580MOL0     H79993   8.578  10.106   8.757 -3.1578  0.0706 -1.0754
  580MOL0     H79994   8.766   9.937   8.600 -0.5363 -0.9463  0.7348
  580MOL0     H79995   8.805  10.030   8.748 -0.9692  0.9414 -0.0384
  580MOL0     H79996   8.657   9.905   8.875 -1.2569  0.6240 -0.8645
  580MOL0     H79997   8.627   9.802   8.739  3.2233 -0.1255 -1.4487
  580MOL0     H79998   8.741   9.777   9.082  0.4036 -1.0810  1.9780
  580MOL0     H79999   8.755   9.725   9.290  0.3956  2.3083  3.9779
  580MOL0     H80000   8.926   9.742   9.330 -1.8043  1.8978 -0.1290
  580MOL0     H80001   8.824   9.582   9.341  0.6755  0.8340  1.2026
  580MOL0     H80002   9.351   9.521   9.342  2.0529  0.6153  2.0464
  580MOL0     H80003   9.482   9.399   9.515  0.5494  0.7294  0.7211
  580MOL0     H80004   9.543   9.157   9.542  1.0435 -2.3109  0.0201
  580MOL0     H80005   9.545   9.184   9.721  1.2055  0.9706  0.0446
  580MOL0     H80006   9.454   8.965   9.763 -0.8396 -0.7268 -0.1162
  580MOL0     H80007   9.475   8.925   9.591 -1.0844 -1.7310  1.4981
  580MOL0     H80008   9.691   8.987   9.789 -3.2055  2.7836  0.5818
  580MOL0     H80009   9.711   9.026   9.619 -1.2775 -0.4356 -1.7532
  580MOL0     H80010   9.656   8.783   9.567  0.8751 -1.6719  1.0107
  580MOL0     H80011   9.652   8.752   9.737 -4.5127 -0.3876 -2.3839
  580MOL0     H80012   9.892   8.895   9.598 -0.1892  0.9530  0.0458
  580MOL0     H80013   9.895   8.828   9.765 -2.7213 -0.6194  2.4708
  580MOL0     H80014   9.887   8.658   9.511  2.8396 -1.6594  0.3906
  580MOL0     H80015   9.877   8.602   9.674 -0.7802  0.1658  1.4780
  580MOL0     H80016  10.112   8.743   9.704  3.2675 -0.7238 -1.2927
  580MOL0     H80017  10.108   8.752   9.536 -0.3925  2.7430  2.1742
  580MOL0     H80018  10.064   8.483   9.568  2.3521 -0.5666 -2.2437
  580MOL0     H80019  10.158   8.513   9.713 -0.1024  0.3282 -0.1817
  580MOL0     H80020   9.120   9.212   9.650 -0.8661 -0.2787  0.1097
  580MOL0     H80021   8.991   9.356   9.478  0.7646  3.7662 -0.2004
  580MOL0     H80022   9.112   9.501   8.930  0.0603  0.3359 -0.1710
  580MOL0     H80023   9.010   9.640   8.772 -0.7268 -0.1804 -0.2620
  580MOL0     H80024   7.057   9.893   8.836 -2.6574 -0.7178 -1.4520
  580MOL0     H80025   6.874   9.705   8.851  0.0287  0.2784 -0.6214
  580MOL0     H80026   6.830   9.318   9.121  0.0364  0.0436  0.5690
  580MOL0     H80027   6.737   9.107   9.112  1.5324  1.8037 -1.5333
  580MOL0     H80028   6.348   9.033   9.330  0.0522  0.4331 -0.2637
  580MOL0     H80029   6.290   9.073   9.163 -1.2099 -1.0330 -0.1423
  580MOL0     H80030   6.362   8.827   9.300  1.2605 -1.9554 -0.5541
  580MOL0     H80031   6.381   8.826   9.117 -0.1059 -1.0783  0.5635
  580MOL0     H80032   6.160   8.746   9.214  0.8530 -0.0223  0.4111
  580MOL0     H80033   6.123   8.905   9.259 -2.1349 -1.8353  0.8325
  580MOL0     H80034   6.171   8.799   8.967 -0.9802 -1.1330  0.4388
  580MOL0     H80035   6.170   8.966   9.006  0.6535 -0.4783 -0.1299
  580MOL0     H80036   5.756   8.861   9.042  0.8337 -2.8600 -1.0115
  580MOL0     H80037   6.351   9.274   9.214 -0.3780 -2.2479  1.0904
  580MOL0     H80038   6.428   9.587   9.290 -4.4115 -1.7899  2.4318
  580MOL0     H80039   6.405   9.583   9.114  0.3764 -0.1988  0.7385
  580MOL0     H80040   6.318   9.473   9.217  0.9429 -1.4537  3.0317
  581MOL0     O80041   9.725   5.501   2.569  0.6419  0.4843 -0.9032
  581MOL0     C80042   9.810   5.576   2.525  0.7598  1.3289  0.5120
  581MOL0     O80043   9.785   5.695   2.466  0.0119  0.2502 -0.7222
  581MOL0     C80044   9.667   5.761   2.479 -1.1350  0.6207  0.1838
  581MOL0     C80045   9.544   5.698   2.472 -0.4720 -0.3050  0.8087
  581MOL0     C80046   9.424   5.770   2.496  0.6652 -0.3378  0.1987
  581MOL0     C80047   9.432   5.916   2.491 -0.4925  0.0982 -0.8552
  581MOL0     O80048   9.325   5.998   2.504 -0.0435  0.7887 -0.3119
  581MOL0     C80049   9.194   5.942   2.510 -1.1264 -0.0099  0.4334
  581MOL0     C80050   9.109   6.065   2.497  0.0429 -0.1125  1.1527
  581MOL0     C80051   8.960   6.024   2.528  0.3945 -0.2001  0.3122
  581MOL0     C80052   8.944   6.016   2.682 -0.1073  0.0085 -0.0557
  581MOL0     C80053   8.816   5.943   2.727 -0.1246 -0.6365  0.3245
  581MOL0     C80054   8.792   5.960   2.878 -0.3703 -0.3971  0.1970
  581MOL0     C80055   8.690   5.864   2.927 -0.6153  0.5158  0.7628
  581MOL0     C80056   8.650   5.904   3.064  1.0554  0.6795 -0.8106
  581MOL0     N80057   8.767   5.872   3.160 -0.2762  0.2397 -0.0634
  581MOL0     C80058   8.799   5.744   3.194  0.3559  0.6719 -0.3909
  581MOL0     C80059   8.916   5.758   3.266  1.2296  0.1598  0.8059
  581MOL0     C80060   8.982   5.652   3.344 -0.0936 -0.5103  0.2394
  581MOL0     C80061   9.118   5.697   3.402  0.0530  0.9688 -1.1001
  581MOL0     C80062   9.198   5.586   3.474  0.1977 -1.1349 -0.1569
  581MOL0     C80063   9.113   5.488   3.553 -0.0874 -0.0108  0.0888
  581MOL0     O80064   9.191   5.386   3.612 -0.7233 -0.4231 -0.0752
  581MOL0     C80065   9.134   5.312   3.712  0.7623 -0.6735 -0.0703
  581MOL0     C80066   8.999   5.278   3.721  1.0691  0.3745  0.1917
  581MOL0     C80067   8.958   5.199   3.835  0.2395 -1.1891 -0.5509
  581MOL0     C80068   8.806   5.182   3.844 -1.0743 -0.3403 -0.1469
  581MOL0     C80069   9.051   5.153   3.936  0.3118 -0.6708  0.7712
  581MOL0     C80070   9.003   5.082   4.054  0.9387  1.3064  0.9114
  581MOL0     O80071   9.104   5.014   4.117 -0.1858 -0.3844 -0.4978
  581MOL0     C80072   9.066   4.941   4.230 -0.5782 -0.0637 -0.1232
  581MOL0     C80073   8.986   4.818   4.210 -0.4406  0.2907 -0.1909
  581MOL0     C80074   8.933   4.749   4.323  0.2677 -0.1558  0.2805
  581MOL0     C80075   8.992   4.773   4.449 -0.1474  0.3684  0.1382
  581MOL0     O80076   8.950   4.687   4.543  0.4372 -0.6287 -0.3376
  581MOL0     C80077   8.965   4.718   4.691  0.4122  0.3404  0.4571
  581MOL0     C80078   8.831   4.728   4.755  0.4008 -1.2069  0.7746
  581MOL0     C80079   8.743   4.596   4.748  0.6608 -0.6264 -1.0074
  581MOL0     C80080   8.773   4.501   4.872 -0.1845 -0.3997 -0.7749
  581MOL0     C80081   8.671   4.387   4.874 -0.1926  0.0727  0.7514
  581MOL0     C80082   8.736   4.260   4.957  0.3959  0.4816  0.6389
  581MOL0     C80083   8.651   4.133   4.940  0.5175  0.1830 -0.1237
  581MOL0     C80084   8.713   4.021   5.016 -0.2604  1.1961  0.1536
  581MOL0    Cl80085   8.646   4.007   5.184  0.1186 -0.1142 -0.2069
  581MOL0     C80086   9.067   4.888   4.470  0.1306 -0.4888 -0.1334
  581MOL0     C80087   9.116   4.972   4.362 -0.5286  0.3289 -0.9336
  581MOL0     O80088   8.888   5.083   4.091 -0.3000 -0.2460 -0.0615
  581MOL0     C80089   9.184   5.187   3.912  0.2391  0.7943  0.8842
  581MOL0     C80090   9.221   5.268   3.806  0.3986 -0.9087  0.0356
  581MOL0     N80091   8.967   5.892   3.251  0.3015 -0.2803  0.1290
  581MOL0     N80092   8.872   5.957   3.189  0.4868 -0.1997  0.3691
  581MOL0     C80093   9.555   5.977   2.488 -0.7625 -0.6097  0.4038
  581MOL0     C80094   9.674   5.898   2.479 -0.3438 -0.3705 -1.1413
  581MOL0     C80095   9.952   5.536   2.530 -0.0997  0.7033 -1.0777
  581MOL0     C80096   9.985   5.394   2.550 -0.4497 -0.0111  0.3352
  581MOL0     C80097  10.121   5.355   2.549  0.1960 -0.6473 -0.2687
  581MOL0     C80098  10.223   5.444   2.553 -0.9884  0.1515  0.3059
  581MOL0     O80099  10.344   5.380   2.553 -0.5639 -0.3565 -0.1461
  581MOL0     C80100  10.453   5.450   2.608 -1.0333 -0.4905 -0.4419
  581MOL0     C80101  10.526   5.518   2.495  0.1040 -0.4916 -0.3090
  581MOL0     C80102  10.610   5.411   2.420  0.6088  0.5526  0.2142
  581MOL0     C80103  10.755   5.452   2.396 -1.4497  0.3798  0.9154
  581MOL0     C80104  10.817   5.336   2.317 -0.3354 -0.1446 -0.2277
  581MOL0     C80105  10.872   5.234   2.268  0.7538 -0.1236 -0.8242
  581MOL0     C80106  10.194   5.585   2.550 -0.0107  0.4382  0.3605
  581MOL0     C80107  10.065   5.630   2.534  0.3249  0.6332 -0.6019
  581MOL0     C80108  10.043   5.780   2.548 -0.1951  0.3169  0.0890
  581MOL0     H80109   9.548   5.590   2.468 -0.9216 -0.3528  1.4929
  581MOL0     H80110   9.330   5.718   2.488  0.3932  0.3804 -2.1847
  581MOL0     H80111   9.171   5.881   2.598  0.6657 -2.9529 -0.9629
  581MOL0     H80112   9.183   5.893   2.412  1.0316  1.2632 -0.5161
  581MOL0     H80113   9.127   6.138   2.575 -2.7017  1.1496  0.7099
  581MOL0     H80114   9.119   6.120   2.403 -0.9888 -2.1365 -0.2121
  581MOL0     H80115   8.887   6.099   2.497 -0.9055 -0.8703  1.6637
  581MOL0     H80116   8.941   5.925   2.485  3.0389 -0.3148 -0.7523
  581MOL0     H80117   9.028   5.962   2.725  2.0412  3.4201  0.4206
  581MOL0     H80118   8.939   6.118   2.723 -1.2035 -0.2756  0.5420
  581MOL0     H80119   8.814   5.838   2.697  0.6114 -0.0503 -1.9975
  581MOL0     H80120   8.731   5.982   2.671  0.0435 -0.2873  0.3070
  581MOL0     H80121   8.887   5.941   2.928  0.1443 -1.6979 -1.1920
  581MOL0     H80122   8.754   6.061   2.898 -2.0162 -0.8798 -0.3324
  581MOL0     H80123   8.723   5.760   2.924 -0.6399  0.5196  0.0293
  581MOL0     H80124   8.599   5.865   2.867 -1.2520 -1.8278  1.5752
  581MOL0     H80125   8.632   6.012   3.072  1.8722  0.6709  2.8100
  581MOL0     H80126   8.556   5.856   3.091  0.9427  1.7876  0.9522
  581MOL0     H80127   8.744   5.652   3.180  0.6723  0.4378 -0.1151
  581MOL0     H80128   8.994   5.566   3.276  0.2237 -0.1628 -0.1524
  581MOL0     H80129   8.912   5.627   3.424  1.7248  4.4159  3.8778
  581MOL0     H80130   9.185   5.731   3.322  0.4383 -0.9171 -1.6329
  581MOL0     H80131   9.095   5.774   3.476 -0.1171 -0.8178  0.7978
  581MOL0     H80132   9.249   5.525   3.399  0.7132 -1.0541  0.1249
  581MOL0     H80133   9.259   5.635   3.551 -0.5619 -0.0137 -0.2388
  581MOL0     H80134   9.062   5.546   3.631 -0.4350 -0.9103  0.5452
  581MOL0     H80135   9.046   5.435   3.485 -0.8954 -3.0834  2.9939
  581MOL0     H80136   8.937   5.305   3.636  3.4793  0.1520 -1.7278
  581MOL0     H80137   8.752   5.210   3.753  2.0986  0.6056 -1.8854
  581MOL0     H80138   8.766   5.247   3.923 -1.5670 -1.2154  0.3322
  581MOL0     H80139   8.776   5.079   3.865 -0.9114 -0.8976 -2.4398
  581MOL0     H80140   8.962   4.787   4.109 -0.5673 -1.5013  0.3484
  581MOL0     H80141   8.879   4.656   4.309 -0.4115  0.4273 -1.1261
  581MOL0     H80142   9.015   4.629   4.732  0.5426 -1.0506 -2.4773
  581MOL0     H80143   9.021   4.810   4.707  0.4550  0.5956 -1.0137
  581MOL0     H80144   8.845   4.753   4.861 -2.0894  0.2130  0.8613
  581MOL0     H80145   8.783   4.820   4.720 -0.6887  0.2866  5.3987
  581MOL0     H80146   8.769   4.533   4.662  1.3843  0.4675 -1.6202
  581MOL0     H80147   8.635   4.614   4.742  0.1354 -2.5384  1.2046
  581MOL0     H80148   8.771   4.557   4.966 -1.7590 -2.9068  0.7659
  581MOL0     H80149   8.870   4.452   4.858 -1.3623 -2.6637 -1.5023
  581MOL0     H80150   8.577   4.416   4.922  0.6849  0.8563  2.0593
  581MOL0     H80151   8.648   4.358   4.771 -1.2925 -1.6545  1.4374
  581MOL0     H80152   8.739   4.283   5.064 -0.7030 -0.7323  0.9522
  581MOL0     H80153   8.832   4.241   4.908 -0.0840  0.7004 -0.4168
  581MOL0     H80154   8.650   4.106   4.834  0.5357  1.1984 -0.3896
  581MOL0     H80155   8.550   4.141   4.980  0.5330 -1.4624  0.3316
  581MOL0     H80156   8.822   4.026   5.016 -0.1972  0.1241  0.7825
  581MOL0     H80157   8.681   3.924   4.975 -3.2667  1.1337  2.2588
  581MOL0     H80158   9.100   4.925   4.567  0.0927  1.6268 -0.8648
  581MOL0     H80159   9.182   5.058   4.368  0.7169 -0.4026 -2.9829
  581MOL0     H80160   9.246   5.159   3.996 -1.9955  2.9473  3.4317
  581MOL0     H80161   9.321   5.307   3.792  0.6737 -1.3855  0.5878
  581MOL0     H80162   9.565   6.085   2.488 -2.3537 -0.3952 -1.8914
  581MOL0     H80163   9.767   5.954   2.476 -0.6683  0.5338  2.0920
  581MOL0     H80164   9.905   5.321   2.552  0.6139 -1.4656 -3.0713
  581MOL0     H80165  10.156   5.253   2.537  1.9684 -0.2418  0.9797
  581MOL0     H80166  10.424   5.532   2.674 -1.6645 -1.9818  1.2221
  581MOL0     H80167  10.528   5.393   2.663  0.7527  3.6897  1.9087
  581MOL0     H80168  10.578   5.609   2.526 -1.1082  0.6148 -1.4073
  581MOL0     H80169  10.449   5.560   2.431  2.6020  2.0474 -1.8894
  581MOL0     H80170  10.611   5.324   2.485 -0.8291  0.5519  0.2548
  581MOL0     H80171  10.556   5.381   2.330 -2.2961 -1.0149  2.3431
  581MOL0     H80172  10.816   5.463   2.486 -0.4400  0.4665  0.2422
  581MOL0     H80173  10.775   5.544   2.340  3.0087 -0.5017  0.7300
  581MOL0     H80174  10.917   5.148   2.222 -1.2749 -1.4637 -0.4639
  581MOL0     H80175  10.277   5.654   2.564  1.9872 -2.1263  2.1367
  581MOL0     H80176  10.061   5.834   2.454  0.3084 -1.5156 -0.9206
  581MOL0     H80177   9.943   5.794   2.589 -0.9325 -0.2958 -1.4047
  581MOL0     H80178  10.110   5.819   2.625  0.8841 -0.7196 -0.2941
  582MOL0     O80179   5.879   3.321   8.896  0.5316 -0.1515  0.0870
  582MOL0     C80180   5.972   3.396   8.869  0.8416  0.6382 -0.5425
  582MOL0     O80181   5.964   3.504   8.785 -0.0317 -0.2036  1.3255
  582MOL0     C80182   5.854   3.531   8.713  0.4523 -0.2293  0.5045
  582MOL0     C80183   5.863   3.584   8.582 -0.1264  0.0121 -0.2514
  582MOL0     C80184   5.758   3.619   8.500 -0.4493  1.0028 -0.1492
  582MOL0     C80185   5.623   3.620   8.549  0.3503  0.8583  0.4073
  582MOL0     O80186   5.531   3.671   8.465  0.6621 -1.1578 -0.0816
  582MOL0     C80187   5.389   3.658   8.492 -0.1828 -0.0723 -0.4338
  582MOL0     C80188   5.313   3.770   8.414 -0.5907 -0.6882 -0.4450
  582MOL0     C80189   5.163   3.736   8.401 -0.7136  0.0959 -0.4357
  582MOL0     C80190   5.109   3.816   8.278 -0.4894  0.0669  0.4927
  582MOL0     C80191   4.976   3.769   8.228  0.2825 -0.1355  1.0334
  582MOL0     C80192   4.981   3.625   8.168 -0.3763  0.1346 -0.0450
  582MOL0     C80193   4.839   3.558   8.164  0.0616  0.6614  0.0505
  582MOL0     C80194   4.731   3.646   8.097  0.0579 -0.3883  0.1794
  582MOL0     N80195   4.602   3.570   8.103 -0.2960 -0.3196 -0.4823
  582MOL0     C80196   4.591   3.445   8.069 -0.1866  0.3847  0.2060
  582MOL0     C80197   4.471   3.400   8.088 -0.4421 -1.1678 -0.0099
  582MOL0     C80198   4.428   3.259   8.097  0.5187 -0.0700 -0.3228
  582MOL0     C80199   4.451   3.185   8.230 -0.6147  0.9391  0.0005
  582MOL0     C80200   4.330   3.097   8.277 -0.3410 -0.7801  0.1470
  582MOL0     C80201   4.298   2.996   8.186  0.0706  1.0273  0.9951
  582MOL0     O80202   4.416   2.918   8.147  0.8218 -0.0612 -1.0864
  582MOL0     C80203   4.485   2.844   8.245  1.2195  0.4818  0.3881
  582MOL0     C80204   4.432   2.787   8.357 -0.4492  0.0489 -0.6489
  582MOL0     C80205   4.510   2.710   8.446 -0.0673 -0.1313 -1.3115
  582MOL0     C80206   4.441   2.663   8.572  0.3031  0.3019 -0.1506
  582MOL0     C80207   4.650   2.688   8.418  0.8555 -0.0299 -0.4615
  582MOL0     C80208   4.739   2.592   8.484 -0.2361  0.7434  0.8169
  582MOL0     O80209   4.681   2.482   8.533  0.1206  0.1852 -0.4950
  582MOL0     C80210   4.760   2.386   8.577 -0.3711 -1.1856  0.1901
  582MOL0     C80211   4.845   2.315   8.490  0.7567 -0.6642  0.6366
  582MOL0     C80212   4.950   2.244   8.531 -0.8837 -0.5914  0.1057
  582MOL0     C80213   4.990   2.239   8.660  0.0417  0.7210 -0.7595
  582MOL0     O80214   5.096   2.154   8.686  0.4793  1.0281  0.3560
  582MOL0     C80215   5.166   2.163   8.813  0.4098 -0.1786  0.9481
  582MOL0     C80216   5.279   2.069   8.808  0.1437  0.1564 -0.1538
  582MOL0     C80217   5.395   2.121   8.720 -0.1801  0.0698  0.7546
  582MOL0     C80218   5.518   2.030   8.712  0.8932  0.8786  0.1593
  582MOL0     C80219   5.628   2.097   8.622 -1.5393 -0.0585  1.0875
  582MOL0     C80220   5.762   2.022   8.644 -0.0406  0.1088  0.4322
  582MOL0     C80221   5.875   2.092   8.560  0.9241 -1.0381  0.1581
  582MOL0     C80222   5.953   1.999   8.477 -0.2627  0.5243  0.6993
  582MOL0    Cl80223   5.843   1.948   8.343  0.2457 -0.3584 -0.4456
  582MOL0     C80224   4.902   2.300   8.755  0.4094 -0.6243  0.6286
  582MOL0     C80225   4.794   2.375   8.713  0.2037 -0.3478  0.6524
  582MOL0     O80226   4.861   2.622   8.483 -0.7735 -0.5027 -0.5938
  582MOL0     C80227   4.702   2.752   8.304 -0.4150  0.6062 -0.6477
  582MOL0     C80228   4.621   2.818   8.213 -0.5070 -0.8997 -0.6105
  582MOL0     N80229   4.406   3.509   8.148  0.2825 -0.3179 -0.0228
  582MOL0     N80230   4.478   3.616   8.141 -1.2335  0.4415  0.1422
  582MOL0     C80231   5.608   3.565   8.680  0.0910  0.5769 -0.1409
  582MOL0     C80232   5.720   3.530   8.768  0.3234 -0.3788 -0.1441
  582MOL0     C80233   6.112   3.371   8.924 -1.2856  0.7643  0.3758
  582MOL0     C80234   6.218   3.427   8.850  0.8862  0.8369  0.4695
  582MOL0     C80235   6.349   3.429   8.907 -0.1466  0.3859  0.4792
  582MOL0     C80236   6.378   3.375   9.030  0.2474  0.2365 -0.3493
  582MOL0     O80237   6.495   3.369   9.105 -0.3756 -0.5116 -0.4429
  582MOL0     C80238   6.608   3.442   9.053  0.2768 -0.3578 -0.0607
  582MOL0     C80239   6.736   3.386   9.118 -0.6988  0.3040  0.6577
  582MOL0     C80240   6.766   3.242   9.069 -0.8970 -0.8230  0.2890
  582MOL0     C80241   6.915   3.206   9.077 -0.4202 -0.2531  0.4648
  582MOL0     C80242   6.981   3.263   8.959 -0.4703 -1.1366  0.0476
  582MOL0     C80243   7.052   3.287   8.860 -0.4450 -0.2111 -0.5287
  582MOL0     C80244   6.270   3.317   9.094 -0.3790  0.7291 -0.0637
  582MOL0     C80245   6.142   3.306   9.041 -0.2466  0.6328 -0.2127
  582MOL0     C80246   6.043   3.238   9.120 -0.1029 -0.1678  0.0635
  582MOL0     H80247   5.960   3.599   8.536  1.1331 -0.6267  2.0605
  582MOL0     H80248   5.775   3.648   8.397 -0.3909  2.1889  0.1826
  582MOL0     H80249   5.358   3.667   8.597  0.3028  0.0804 -0.3014
  582MOL0     H80250   5.350   3.562   8.458 -1.4392  0.6674 -1.1619
  582MOL0     H80251   5.325   3.867   8.464  0.9533 -1.4597  0.7781
  582MOL0     H80252   5.343   3.788   8.311 -1.3073  3.7479 -0.0720
  582MOL0     H80253   5.159   3.628   8.387  0.5835  0.2428 -2.4350
  582MOL0     H80254   5.111   3.772   8.490  1.0074  3.0472 -0.4824
  582MOL0     H80255   5.089   3.917   8.315  1.8685  0.5685  0.5406
  582MOL0     H80256   5.171   3.812   8.188 -2.0640  0.8113 -0.6698
  582MOL0     H80257   4.949   3.834   8.145  3.2253 -0.9367 -0.6974
  582MOL0     H80258   4.905   3.772   8.312  1.9218  1.5872  2.4447
  582MOL0     H80259   5.024   3.625   8.067  0.0876  0.9818  0.1494
  582MOL0     H80260   5.039   3.556   8.229 -1.4425  0.9418  1.9721
  582MOL0     H80261   4.809   3.514   8.260 -3.0227 -1.7678 -1.8295
  582MOL0     H80262   4.849   3.469   8.102 -2.1399  0.8794 -0.7189
  582MOL0     H80263   4.718   3.738   8.156 -0.0861  1.9819 -3.2714
  582MOL0     H80264   4.757   3.667   7.993 -0.3760  1.1060  0.3377
  582MOL0     H80265   4.675   3.386   8.034  1.2755  2.1545  0.5811
  582MOL0     H80266   4.466   3.211   8.007 -0.5248 -0.8135 -0.3908
  582MOL0     H80267   4.320   3.268   8.079  0.1839 -1.1791  0.9849
  582MOL0     H80268   4.547   3.131   8.227 -0.3942  1.3606 -1.6383
  582MOL0     H80269   4.462   3.253   8.315  1.3369  0.0112  0.5544
  582MOL0     H80270   4.344   3.055   8.377 -0.4700  0.3967  0.6765
  582MOL0     H80271   4.245   3.164   8.287  0.6212  0.3797  0.8441
  582MOL0     H80272   4.231   2.924   8.235 -1.2998  2.1809  0.8437
  582MOL0     H80273   4.237   3.036   8.105  2.2465  3.6766  0.5314
  582MOL0     H80274   4.331   2.808   8.391 -0.7184  2.3097 -2.5798
  582MOL0     H80275   4.360   2.731   8.602  0.4050 -0.3882  1.8420
  582MOL0     H80276   4.513   2.647   8.653 -0.7345  0.8285  0.9109
  582MOL0     H80277   4.390   2.572   8.539  0.0810  0.5761 -0.5671
  582MOL0     H80278   4.830   2.305   8.383  1.9340 -1.7376  0.5504
  582MOL0     H80279   5.018   2.201   8.457 -1.8792  0.7501 -1.6440
  582MOL0     H80280   5.194   2.267   8.831  0.1000 -0.1400  1.2406
  582MOL0     H80281   5.108   2.129   8.899  0.3966 -2.5779  0.0460
  582MOL0     H80282   5.313   2.035   8.906  3.4599 -0.2307 -1.2873
  582MOL0     H80283   5.239   1.975   8.770  0.7209 -0.1937  0.0875
  582MOL0     H80284   5.424   2.221   8.753 -0.0913  2.1131 -4.4824
  582MOL0     H80285   5.354   2.137   8.619  4.1818 -2.4836 -1.7326
  582MOL0     H80286   5.506   1.932   8.665  0.7700 -0.1189  2.2085
  582MOL0     H80287   5.554   2.012   8.813 -0.5051 -0.7254  0.4124
  582MOL0     H80288   5.598   2.098   8.517 -0.1135  0.4362  0.6617
  582MOL0     H80289   5.633   2.198   8.661 -2.3334 -0.1806  1.5107
  582MOL0     H80290   5.747   1.921   8.603  1.3264  0.4746 -1.0369
  582MOL0     H80291   5.783   2.000   8.749 -1.3345 -2.0902  0.3058
  582MOL0     H80292   5.937   2.147   8.631 -1.3523 -1.6734  2.8331
  582MOL0     H80293   5.837   2.175   8.500  1.2802  0.1971  1.5843
  582MOL0     H80294   5.998   1.917   8.532 -0.3562  0.6156  0.9135
  582MOL0     H80295   6.044   2.047   8.438  0.4397  2.0867  3.9183
  582MOL0     H80296   4.925   2.291   8.860  1.3934 -1.1788  0.3861
  582MOL0     H80297   4.745   2.433   8.790  2.3477  1.5786  0.6665
  582MOL0     H80298   4.802   2.734   8.265  0.3008 -0.2257  1.4123
  582MOL0     H80299   4.660   2.847   8.116  2.3559  4.3550  1.7332
  582MOL0     H80300   5.511   3.539   8.721  1.4046 -0.2653  2.6943
  582MOL0     H80301   5.693   3.478   8.859 -1.2743 -0.3128 -0.5632
  582MOL0     H80302   6.207   3.493   8.765  1.6430 -0.9623 -1.0923
  582MOL0     H80303   6.424   3.487   8.853  0.7183  0.7932  2.0450
  582MOL0     H80304   6.623   3.423   8.946  0.6015 -2.2304  0.2811
  582MOL0     H80305   6.604   3.548   9.080  2.8926 -0.6411  1.9526
  582MOL0     H80306   6.738   3.398   9.227  0.8889  1.9942  0.4818
  582MOL0     H80307   6.816   3.451   9.080 -1.4417  1.6831  1.3736
  582MOL0     H80308   6.723   3.172   9.142  0.4037  0.2988  2.2406
  582MOL0     H80309   6.726   3.221   8.970  0.9799 -2.0084 -0.2823
  582MOL0     H80310   6.923   3.097   9.074  1.2516 -0.2635  2.6540
  582MOL0     H80311   6.967   3.225   9.172  1.1384 -2.5692  0.1590
  582MOL0     H80312   7.119   3.302   8.778 -0.4229 -0.9973 -0.6555
  582MOL0     H80313   6.282   3.271   9.191 -0.0617  1.4620  0.2490
  582MOL0     H80314   6.086   3.153   9.174 -2.6556 -0.9723  0.9797
  582MOL0     H80315   5.997   3.302   9.195  0.9807  0.4719  0.2056
  582MOL0     H80316   5.956   3.194   9.070 -0.3446 -0.2041  0.5076
  583MOL0     O80317   1.678   8.623   2.897  0.0782  0.7986 -0.3477
  583MOL0     C80318   1.620   8.725   2.942  0.3085 -0.8948 -0.0980
  583MOL0     O80319   1.666   8.806   3.041 -0.0807 -0.4734 -0.3948
  583MOL0     C80320   1.748   8.740   3.132  0.5598  0.7527  0.4665
  583MOL0     C80321   1.883   8.737   3.111  0.9760  0.6889  0.8346
  583MOL0     C80322   1.969   8.685   3.221  0.7576 -0.2663 -0.0354
  583MOL0     C80323   1.924   8.639   3.339 -0.2526  0.2771  0.2957
  583MOL0     O80324   2.020   8.575   3.421  0.1658 -0.2032  0.5925
  583MOL0     C80325   2.001   8.599   3.562  0.0907 -0.7873 -0.0104
  583MOL0     C80326   2.067   8.734   3.599 -0.3929 -0.7932 -1.1809
  583MOL0     C80327   2.039   8.762   3.753  0.6911 -0.3273 -1.2450
  583MOL0     C80328   2.023   8.912   3.788  0.0758 -0.5755 -0.7295
  583MOL0     C80329   1.876   8.939   3.837 -1.2301  0.5765 -0.6317
  583MOL0     C80330   1.845   9.094   3.856  0.4800  0.0208 -0.6190
  583MOL0     C80331   1.726   9.143   3.942 -0.0811  0.3322 -0.8167
  583MOL0     C80332   1.729   9.294   3.971 -0.0240 -0.8238 -0.2860
  583MOL0     N80333   1.621   9.347   4.063  0.0794 -0.5120  0.7214
  583MOL0     C80334   1.637   9.350   4.202 -0.1172 -0.1117  0.5685
  583MOL0     C80335   1.533   9.422   4.250  0.1557  0.3839  0.4878
  583MOL0     C80336   1.499   9.451   4.393  0.0102 -0.3200 -0.6683
  583MOL0     C80337   1.400   9.363   4.461 -0.5648  0.7123  0.5060
  583MOL0     C80338   1.410   9.380   4.606 -0.0004  1.0235 -0.2929
  583MOL0     C80339   1.301   9.310   4.689  0.1008  0.2343 -0.2565
  583MOL0     O80340   1.315   9.356   4.825  0.2143 -0.7549 -0.0555
  583MOL0     C80341   1.235   9.294   4.908  0.2388 -0.3037  0.8715
  583MOL0     C80342   1.279   9.179   4.957  0.1665  0.5236  0.5663
  583MOL0     C80343   1.213   9.112   5.059  0.4419 -0.7729  0.1732
  583MOL0     C80344   1.292   8.999   5.124 -0.1874  0.4067  0.4158
  583MOL0     C80345   1.072   9.148   5.086  0.2554 -0.2979  0.3431
  583MOL0     C80346   0.971   9.072   5.166 -0.6480 -0.3948  0.4010
  583MOL0     O80347   0.859   9.141   5.218 -0.7598  0.3277 -0.1356
  583MOL0     C80348   0.779   9.068   5.297 -0.3223  0.5823  0.3127
  583MOL0     C80349   0.799   9.090   5.426  0.4081 -1.2314 -0.1766
  583MOL0     C80350   0.734   9.015   5.519  0.4877  0.4030 -0.7852
  583MOL0     C80351   0.629   8.919   5.481 -0.5840  0.0967  0.2125
  583MOL0     O80352   0.557   8.848   5.574  0.5850 -1.2450 -0.6065
  583MOL0     C80353   0.452   8.760   5.543  0.6379  0.7512  0.0035
  583MOL0     C80354   0.395   8.686   5.669  0.1603 -0.1371  0.4160
  583MOL0     C80355   0.351   8.785   5.768 -0.5386  0.3244 -0.6663
  583MOL0     C80356   0.206   8.824   5.741  0.3410 -0.0718 -0.3278
  583MOL0     C80357   0.173   8.946   5.827  0.4055 -0.3063  0.0938
  583MOL0     C80358   0.024   8.974   5.829 -0.0275  0.4284 -0.1409
  583MOL0     C80359  -0.011   9.080   5.934 -0.2016  0.2781 -0.1229
  583MOL0     C80360  -0.171   9.085   5.944 -0.5636 -0.3031  0.3075
  583MOL0    Cl80361  -0.270   9.057   5.787  0.4310 -0.0988  0.2389
  583MOL0     C80362   0.605   8.908   5.341 -0.9988 -0.0226  0.2984
  583MOL0     C80363   0.681   8.986   5.248  0.3822  0.3049 -0.8498
  583MOL0     O80364   0.985   8.952   5.168 -0.1029  0.0955 -0.3604
  583MOL0     C80365   1.034   9.273   5.038  0.0553  0.9209 -0.1738
  583MOL0     C80366   1.116   9.342   4.957 -0.7747 -0.5044 -0.2213
  583MOL0     N80367   1.447   9.444   4.143 -0.3043  0.3892  0.3557
  583MOL0     N80368   1.504   9.407   4.035  0.6952  0.3487 -0.0783
  583MOL0     C80369   1.784   8.645   3.356  0.7314  0.5348  0.2895
  583MOL0     C80370   1.701   8.694   3.252  0.1610 -0.0583 -0.1814
  583MOL0     C80371   1.490   8.772   2.875  0.0759  0.5038  0.8670
  583MOL0     C80372   1.417   8.869   2.941 -0.2768  0.1418  0.0196
  583MOL0     C80373   1.297   8.914   2.891  0.2937  0.2725 -0.0317
  583MOL0     C80374   1.235   8.850   2.783  0.0371 -0.5273  0.3516
  583MOL0     O80375   1.106   8.882   2.755  0.1747 -0.4887  0.3825
  583MOL0     C80376   1.015   8.777   2.710 -0.1517 -0.2098 -0.5716
  583MOL0     C80377   0.874   8.836   2.708 -0.0879 -0.0754  0.1920
  583MOL0     C80378   0.778   8.731   2.662  0.5389 -0.4304 -0.7508
  583MOL0     C80379   0.628   8.763   2.687 -0.4326 -0.2028 -0.2723
  583MOL0     C80380   0.594   8.906   2.663 -0.9907 -0.6799  0.7714
  583MOL0     C80381   0.539   9.015   2.632  0.2398 -0.1677  0.5268
  583MOL0     C80382   1.314   8.764   2.710 -0.2618  0.1612 -0.0571
  583MOL0     C80383   1.443   8.725   2.747  0.5945  0.4693  0.3765
  583MOL0     C80384   1.510   8.622   2.659  0.4552  0.0556  0.5822
  583MOL0     H80385   1.921   8.785   3.022 -0.6005  0.8248  0.1971
  583MOL0     H80386   2.077   8.691   3.215  0.7117  0.2475 -0.3649
  583MOL0     H80387   2.063   8.524   3.611  0.8347  0.7105  1.4541
  583MOL0     H80388   1.897   8.581   3.592  0.0862 -1.3768 -0.3639
  583MOL0     H80389   2.174   8.732   3.576  0.4212  0.0394  1.9651
  583MOL0     H80390   2.022   8.811   3.536 -0.3214  0.3154  0.0690
  583MOL0     H80391   1.950   8.704   3.781 -2.3450  2.8693 -3.3484
  583MOL0     H80392   2.129   8.724   3.802  2.0569  1.8464 -1.9174
  583MOL0     H80393   2.095   8.940   3.864  0.7501  0.2987 -1.6703
  583MOL0     H80394   2.055   8.960   3.695  2.1256 -1.8386 -0.7552
  583MOL0     H80395   1.861   8.887   3.933  0.6153  3.2160  1.2247
  583MOL0     H80396   1.800   8.901   3.768 -1.1569 -0.5471 -0.1236
  583MOL0     H80397   1.939   9.142   3.887  1.4484  1.0805 -4.6339
  583MOL0     H80398   1.831   9.128   3.753  0.0502  0.9691 -0.2522
  583MOL0     H80399   1.737   9.086   4.035 -2.3703 -0.0046 -0.6848
  583MOL0     H80400   1.629   9.123   3.897  0.2618 -0.3982 -1.2424
  583MOL0     H80401   1.827   9.332   4.000 -0.4916  0.1045  0.0995
  583MOL0     H80402   1.709   9.333   3.871  0.8322 -0.0067 -0.1550
  583MOL0     H80403   1.724   9.315   4.255  1.9098  0.5625 -2.0848
  583MOL0     H80404   1.462   9.553   4.376  0.7762 -0.1774 -1.6116
  583MOL0     H80405   1.594   9.441   4.447 -0.8218 -0.8307  0.7411
  583MOL0     H80406   1.306   9.402   4.421  0.2172 -1.5812 -4.3468
  583MOL0     H80407   1.412   9.260   4.427 -2.3190  0.7950 -0.4721
  583MOL0     H80408   1.509   9.351   4.642 -1.0767  1.1524  3.0372
  583MOL0     H80409   1.403   9.488   4.622 -2.8015  0.7689  0.6682
  583MOL0     H80410   1.198   9.337   4.664 -0.5562 -1.0019  0.9453
  583MOL0     H80411   1.321   9.202   4.687  0.4930  0.2707  0.9208
  583MOL0     H80412   1.377   9.142   4.930 -0.3972  0.4077 -1.4543
  583MOL0     H80413   1.228   8.953   5.201 -0.5879  0.7060  0.2705
  583MOL0     H80414   1.387   9.028   5.169  0.2197 -0.2224 -0.0410
  583MOL0     H80415   1.323   8.925   5.050  2.3361  1.6940  0.0751
  583MOL0     H80416   0.867   9.169   5.457  1.3169 -1.4848 -1.4686
  583MOL0     H80417   0.754   9.027   5.625 -0.7941 -0.5331 -0.4224
  583MOL0     H80418   0.369   8.819   5.503  1.4264  0.5750 -2.0021
  583MOL0     H80419   0.473   8.687   5.465 -1.3193  0.3817 -0.2324
  583MOL0     H80420   0.316   8.616   5.639 -1.0951  0.7848  1.4752
  583MOL0     H80421   0.484   8.637   5.709  3.6399  1.8050 -4.0781
  583MOL0     H80422   0.421   8.867   5.785  0.3331 -0.7301  1.1598
  583MOL0     H80423   0.354   8.739   5.868  2.1288  0.5957 -0.5645
  583MOL0     H80424   0.141   8.736   5.745  0.1593  0.1083  2.2668
  583MOL0     H80425   0.196   8.854   5.636 -0.5158 -1.1178 -0.5654
  583MOL0     H80426   0.208   8.917   5.926  3.3344 -0.8259 -0.9732
  583MOL0     H80427   0.226   9.040   5.806  1.4895 -1.0626 -0.7061
  583MOL0     H80428  -0.039   8.885   5.841 -2.5434  2.1608  0.0929
  583MOL0     H80429  -0.007   9.000   5.728 -1.4152 -3.6388 -0.9548
  583MOL0     H80430   0.025   9.181   5.911 -0.6904  0.6973  0.9305
  583MOL0     H80431   0.027   9.051   6.033  1.0364  3.3743  0.4347
  583MOL0     H80432  -0.202   9.186   5.973 -0.2799 -0.1356  0.0260
  583MOL0     H80433  -0.195   9.021   6.029  1.6914  1.0555  2.0772
  583MOL0     H80434   0.532   8.837   5.305  0.0016 -0.6280 -0.6145
  583MOL0     H80435   0.665   8.968   5.142 -1.4668 -3.0077 -0.1786
  583MOL0     H80436   0.944   9.310   5.085  1.0033 -0.4211  2.9863
  583MOL0     H80437   1.086   9.444   4.935 -3.9751 -1.5977 -1.6114
  583MOL0     H80438   1.741   8.601   3.444  2.0121  3.1207  2.3743
  583MOL0     H80439   1.594   8.698   3.273 -0.5623 -2.0185 -2.8030
  583MOL0     H80440   1.423   8.901   3.045  0.5360 -0.7678  0.2695
  583MOL0     H80441   1.242   8.993   2.941 -0.3465 -0.6821  0.8224
  583MOL0     H80442   1.037   8.740   2.609 -0.0071  0.7430 -0.9003
  583MOL0     H80443   1.019   8.698   2.785 -2.2798 -0.4808 -0.6846
  583MOL0     H80444   0.868   8.932   2.655  0.2488  0.7127  1.5297
  583MOL0     H80445   0.841   8.859   2.810 -2.8820 -2.4898 -0.0293
  583MOL0     H80446   0.786   8.724   2.553  2.4244  0.1409 -0.6653
  583MOL0     H80447   0.801   8.632   2.704  2.0774 -0.4483 -1.5874
  583MOL0     H80448   0.589   8.737   2.785 -1.0397  1.8571  0.0818
  583MOL0     H80449   0.584   8.699   2.611  1.0569 -1.0820 -0.4380
  583MOL0     H80450   0.492   9.102   2.591  3.7438  1.0600 -1.3272
  583MOL0     H80451   1.261   8.723   2.624 -3.5169 -2.4692  2.8955
  583MOL0     H80452   1.449   8.624   2.569 -0.8676  0.8234  1.4682
  583MOL0     H80453   1.614   8.647   2.634  0.5736  0.0140  1.0178
  583MOL0     H80454   1.508   8.525   2.710  1.0515  0.6941  1.8641
  584MOL0     O80455   6.729   1.537  10.339  0.4476 -0.7316 -0.2862
  584MOL0     C80456   6.784   1.617  10.418  0.5401 -0.1032  0.4826
  584MOL0     O80457   6.904   1.667  10.400  0.0988  0.7648 -0.3961
  584MOL0     C80458   6.968   1.638  10.277 -0.4923  0.1894 -0.6932
  584MOL0     C80459   6.929   1.665  10.153  0.2317  0.9140  0.6310
  584MOL0     C80460   7.011   1.636  10.047 -0.5058 -1.1172  0.4616
  584MOL0     C80461   7.136   1.576  10.067 -1.0174  0.2566 -0.3124
  584MOL0     O80462   7.225   1.547   9.959  0.9538  0.1011 -0.4752
  584MOL0     C80463   7.160   1.555   9.832 -1.3293  0.0045 -0.4599
  584MOL0     C80464   7.257   1.481   9.740 -0.6690  0.1908 -0.6253
  584MOL0     C80465   7.373   1.571   9.697 -0.0611  0.0523 -0.3234
  584MOL0     C80466   7.494   1.495   9.641 -0.3764  0.8881 -0.0379
  584MOL0     C80467   7.610   1.599   9.617 -0.6145 -0.1030 -0.2092
  584MOL0     C80468   7.728   1.547   9.536 -0.6143  0.0282  1.5106
  584MOL0     C80469   7.826   1.662   9.509 -0.0970  0.2089 -0.0622
  584MOL0     C80470   7.958   1.608   9.445  0.1005 -0.5173 -0.0864
  584MOL0     N80471   7.950   1.600   9.297 -0.4133  0.0728 -0.5537
  584MOL0     C80472   8.022   1.505   9.228  0.1322 -0.4483  0.0042
  584MOL0     C80473   7.988   1.516   9.097 -0.2052  0.9743  0.9784
  584MOL0     C80474   8.021   1.422   8.985 -0.8821 -0.3063  0.4770
  584MOL0     C80475   7.913   1.319   8.956  1.0987 -0.4691 -0.6219
  584MOL0     C80476   7.977   1.196   8.883 -0.6195 -0.1207 -0.2050
  584MOL0     C80477   8.037   1.231   8.741 -0.2147  0.4199 -0.0956
  584MOL0     O80478   8.182   1.265   8.745 -0.1056  0.1249 -0.2487
  584MOL0     C80479   8.260   1.153   8.711 -0.6146  0.3429 -0.5864
  584MOL0     C80480   8.257   1.026   8.775 -0.0849 -0.3879  0.2181
  584MOL0     C80481   8.359   0.929   8.757  0.9274  0.1746  0.4814
  584MOL0     C80482   8.348   0.807   8.836 -0.0392  0.0192  0.1698
  584MOL0     C80483   8.471   0.965   8.681 -0.7233 -0.3278  0.2667
  584MOL0     C80484   8.597   0.894   8.691 -0.4268 -0.2587  0.6968
  584MOL0     O80485   8.598   0.764   8.652  0.0588  0.5304  0.3384
  584MOL0     C80486   8.726   0.701   8.648  0.9254 -0.2375 -0.5312
  584MOL0     C80487   8.754   0.593   8.729  0.5227  0.4737  0.0420
  584MOL0     C80488   8.874   0.518   8.696 -0.9890  0.5185 -0.3498
  584MOL0     C80489   8.962   0.547   8.593  0.0738 -0.4473 -0.3986
  584MOL0     O80490   9.080   0.474   8.597 -0.3306  0.6562 -0.5145
  584MOL0     C80491   9.151   0.458   8.476  0.1124  0.7407  0.8003
  584MOL0     C80492   9.274   0.371   8.502 -0.7827  0.1235 -0.7142
  584MOL0     C80493   9.240   0.225   8.526  0.5639 -0.8012  0.2494
  584MOL0     C80494   9.366   0.146   8.557  0.2870 -0.5394 -0.2740
  584MOL0     C80495   9.345   0.002   8.612  0.4648 -0.7289 -0.1112
  584MOL0     C80496   9.460  -0.095   8.605 -0.3210 -0.2460  0.7223
  584MOL0     C80497   9.471  -0.151   8.466 -0.3818  0.6349  0.7244
  584MOL0     C80498   9.604  -0.234   8.448  0.0746  0.1730  0.2477
  584MOL0    Cl80499   9.635  -0.269   8.273 -0.1920 -0.7219  0.2060
  584MOL0     C80500   8.919   0.644   8.508  0.8564  0.0163 -0.1713
  584MOL0     C80501   8.815   0.732   8.536  0.7394 -0.0793 -0.7461
  584MOL0     O80502   8.686   0.960   8.747 -0.6488 -0.3673  0.7920
  584MOL0     C80503   8.477   1.084   8.611 -0.1084  0.6162 -0.8491
  584MOL0     C80504   8.364   1.171   8.624 -0.3064 -0.9928 -0.7862
  584MOL0     N80505   7.898   1.631   9.095 -0.0145  0.6238  0.0015
  584MOL0     N80506   7.882   1.675   9.214  0.3259  0.4463 -0.1792
  584MOL0     C80507   7.179   1.546  10.199 -0.2703  0.0591  0.1015
  584MOL0     C80508   7.093   1.582  10.301 -0.1873  0.1333 -0.5592
  584MOL0     C80509   6.717   1.656  10.544  1.4502 -0.8596 -0.0295
  584MOL0     C80510   6.793   1.674  10.660 -0.7431 -0.0832  0.2990
  584MOL0     C80511   6.748   1.712  10.780 -0.4665 -0.4102  0.0375
  584MOL0     C80512   6.614   1.723  10.795  0.2147  0.2562 -0.8366
  584MOL0     O80513   6.575   1.759  10.927  0.1159  0.2189  0.0190
  584MOL0     C80514   6.434   1.802  10.942 -0.5042 -0.0581  1.2307
  584MOL0     C80515   6.398   1.839  11.085  0.2163 -0.2039 -0.3202
  584MOL0     C80516   6.240   1.844  11.102  0.4775 -0.3215  0.6648
  584MOL0     C80517   6.204   1.886  11.244  0.6771 -0.5394  0.3651
  584MOL0     C80518   6.061   1.917  11.233 -0.0959  0.0350 -0.8791
  584MOL0     C80519   5.944   1.927  11.214  0.1293 -1.0409  0.7445
  584MOL0     C80520   6.533   1.708  10.684  0.7042  0.7587 -0.5457
  584MOL0     C80521   6.578   1.678  10.553  0.7562 -0.5424 -0.8960
  584MOL0     C80522   6.470   1.682  10.443 -0.3227  0.1179 -0.6314
  584MOL0     H80523   6.829   1.698  10.126  0.2202 -2.1090 -4.1245
  584MOL0     H80524   6.979   1.679   9.952  0.3419  0.5918  0.9186
  584MOL0     H80525   7.136   1.651   9.786  0.4517  0.9720  0.5307
  584MOL0     H80526   7.069   1.494   9.836  0.4159 -2.7286  1.7032
  584MOL0     H80527   7.277   1.388   9.793 -2.4347  1.8925  3.4607
  584MOL0     H80528   7.198   1.453   9.652 -0.1022 -1.1153 -0.6141
  584MOL0     H80529   7.351   1.645   9.619 -0.1000  1.9153  1.3579
  584MOL0     H80530   7.406   1.630   9.783  2.1630  3.5600 -3.2418
  584MOL0     H80531   7.526   1.420   9.714  0.1823  2.4038  1.3520
  584MOL0     H80532   7.478   1.454   9.541 -0.0865 -0.2001  0.3468
  584MOL0     H80533   7.650   1.643   9.709 -1.2152  1.2290 -0.5656
  584MOL0     H80534   7.562   1.682   9.565 -1.4624 -0.4355  0.0367
  584MOL0     H80535   7.780   1.470   9.594  2.9792 -0.4131 -1.8734
  584MOL0     H80536   7.704   1.506   9.437  1.2579  1.8370  0.2278
  584MOL0     H80537   7.842   1.711   9.606  0.3288  1.2566 -0.6473
  584MOL0     H80538   7.778   1.731   9.440 -1.7802 -1.5321 -0.7299
  584MOL0     H80539   8.040   1.680   9.455 -0.0264 -0.5824  1.7226
  584MOL0     H80540   7.978   1.517   9.502  0.2522  1.0467  2.5284
  584MOL0     H80541   8.094   1.436   9.272  2.7270  2.1799  0.1397
  584MOL0     H80542   8.113   1.370   9.013 -0.1552  1.6110  1.8179
  584MOL0     H80543   8.030   1.484   8.896 -3.7107  1.9835  1.6003
  584MOL0     H80544   7.864   1.276   9.045  2.0455 -0.9074 -0.2967
  584MOL0     H80545   7.830   1.364   8.901 -2.8377 -2.0444  3.3377
  584MOL0     H80546   8.044   1.136   8.946 -2.5411 -1.6601  0.4907
  584MOL0     H80547   7.893   1.128   8.866 -0.3807 -0.3661 -0.4250
  584MOL0     H80548   8.032   1.143   8.676 -0.2106  0.7574 -0.5659
  584MOL0     H80549   7.989   1.318   8.695  0.8263  0.0035 -2.0753
  584MOL0     H80550   8.177   1.017   8.848 -0.6045  0.2455 -0.2551
  584MOL0     H80551   8.427   0.807   8.912 -2.1416 -0.0997  2.4788
  584MOL0     H80552   8.353   0.719   8.771 -2.7916 -0.2256  0.1721
  584MOL0     H80553   8.256   0.797   8.894  0.1596 -1.7850  0.2466
  584MOL0     H80554   8.678   0.558   8.798  1.8657  0.1349  1.4125
  584MOL0     H80555   8.908   0.441   8.764  0.5418  2.4403  1.1851
  584MOL0     H80556   9.082   0.414   8.403  1.7229  2.2367 -1.7572
  584MOL0     H80557   9.186   0.558   8.449  1.2279 -0.2164 -1.5310
  584MOL0     H80558   9.332   0.372   8.409 -0.4738 -0.3552 -0.5259
  584MOL0     H80559   9.327   0.409   8.590 -3.5110 -0.8156  1.5070
  584MOL0     H80560   9.184   0.185   8.441  1.8874  0.7272 -1.3855
  584MOL0     H80561   9.183   0.222   8.620 -3.3408  0.3351 -1.8528
  584MOL0     H80562   9.436   0.192   8.627 -1.8806 -1.9245  3.0686
  584MOL0     H80563   9.423   0.135   8.464 -0.1339 -1.2393 -0.4602
  584MOL0     H80564   9.301   0.012   8.712 -2.8550 -0.3360 -1.4787
  584MOL0     H80565   9.262  -0.043   8.557 -0.3936  0.9155 -0.2250
  584MOL0     H80566   9.437  -0.186   8.662 -3.1578 -0.7506 -1.0277
  584MOL0     H80567   9.551  -0.046   8.640  0.2772 -1.2025  0.5313
  584MOL0     H80568   9.466  -0.073   8.390 -3.1932 -1.8832 -1.9531
  584MOL0     H80569   9.390  -0.224   8.460 -0.6942  0.3565  4.9542
  584MOL0     H80570   9.597  -0.331   8.498 -4.2930  1.3854  2.5029
  584MOL0     H80571   9.689  -0.184   8.495  0.9680 -0.7073 -0.3988
  584MOL0     H80572   8.984   0.659   8.421  1.1761 -0.0499  0.0559
  584MOL0     H80573   8.786   0.811   8.468  0.4194 -1.2338 -1.9887
  584MOL0     H80574   8.569   1.114   8.563  0.7222  0.8586  0.8432
  584MOL0     H80575   8.377   1.272   8.586 -1.8531 -0.1986  0.6435
  584MOL0     H80576   7.276   1.510  10.232  0.8599  1.2895 -1.6952
  584MOL0     H80577   7.129   1.574  10.403 -0.5226 -2.1980 -0.5704
  584MOL0     H80578   6.896   1.641  10.654 -0.5492  0.7414 -2.5599
  584MOL0     H80579   6.816   1.725  10.863 -0.4001 -1.8920  0.2404
  584MOL0     H80580   6.418   1.883  10.870 -2.1512 -3.0956 -2.2058
  584MOL0     H80581   6.366   1.725  10.903  0.8515 -0.2360 -0.9811
  584MOL0     H80582   6.456   1.927  11.115 -0.5609 -0.8381  3.5577
  584MOL0     H80583   6.439   1.759  11.147  1.2946 -0.2325 -1.0314
  584MOL0     H80584   6.205   1.927  11.040  1.2056  1.7321  2.8087
  584MOL0     H80585   6.196   1.749  11.072  3.5740 -1.7225  0.1653
  584MOL0     H80586   6.262   1.973  11.274  1.1444 -0.8397  0.3439
  584MOL0     H80587   6.215   1.802  11.313 -1.8921 -2.3396 -1.2161
  584MOL0     H80588   5.841   1.944  11.192  0.2423  0.1226  1.0599
  584MOL0     H80589   6.433   1.745  10.702  1.0393  0.0438  4.2820
  584MOL0     H80590   6.518   1.738  10.362 -2.0594  0.2054 -1.6327
  584MOL0     H80591   6.446   1.579  10.414 -1.5221 -0.0226  0.7474
  584MOL0     H80592   6.384   1.736  10.481  0.7691  0.8403  0.9140
  585MOL0     O80593  10.927  10.473   4.750 -0.4323 -0.9320  0.0541
  585MOL0     C80594  10.936  10.368   4.812  0.5736  0.0162  0.2132
  585MOL0     O80595  10.869  10.339   4.924  0.3024 -0.5624  0.2954
  585MOL0     C80596  10.828  10.431   5.018  0.4442 -0.4333 -0.6945
  585MOL0     C80597  10.760  10.392   5.130 -0.7577 -1.2659 -0.6331
  585MOL0     C80598  10.720  10.492   5.220 -0.0587  0.3551  0.1063
  585MOL0     C80599  10.740  10.627   5.206  0.1716  0.2111  0.7659
  585MOL0     O80600  10.690  10.721   5.295  0.4698 -0.4068  0.1884
  585MOL0     C80601  10.547  10.718   5.322  0.2934  0.2834 -0.0337
  585MOL0     C80602  10.486  10.789   5.196 -0.3099  0.8202 -0.8337
  585MOL0     C80603  10.526  10.934   5.188  0.3371 -0.1901 -0.0382
  585MOL0     C80604  10.502  10.979   5.048 -0.4468  0.4834 -0.0403
  585MOL0     C80605  10.498  11.135   5.037  0.8989 -0.2818 -0.6808
  585MOL0     C80606  10.462  11.198   4.909  0.6309  0.3335 -0.1639
  585MOL0     C80607  10.485  11.353   4.907  0.3825  0.6477 -0.5825
  585MOL0     C80608  10.411  11.423   5.023  1.0665 -0.0753  0.0613
  585MOL0     N80609  10.264  11.405   5.014  0.6919  0.7918 -0.0014
  585MOL0     C80610  10.180  11.461   4.921 -0.0838 -0.4692  0.5974
  585MOL0     C80611  10.057  11.435   4.976 -0.5202  0.3112  0.3517
  585MOL0     C80612   9.921  11.473   4.930 -1.3664 -0.4792  0.2208
  585MOL0     C80613   9.876  11.615   4.984 -0.0007 -0.1751 -0.3075
  585MOL0     C80614   9.915  11.721   4.879  0.6890 -0.0054 -0.7198
  585MOL0     C80615   9.860  11.861   4.927 -0.7744 -0.6994  0.2357
  585MOL0     O80616   9.846  11.936   4.805 -0.2196 -0.1148 -0.8778
  585MOL0     C80617   9.862  12.076   4.795  0.7271  0.0755 -0.1542
  585MOL0     C80618   9.862  12.130   4.663 -0.8757 -0.2633 -0.4757
  585MOL0     C80619   9.873  12.265   4.646  0.2947 -0.0723  0.0059
  585MOL0     C80620   9.862  12.320   4.499 -0.3099  0.8562 -0.8951
  585MOL0     C80621   9.883  12.356   4.756 -0.1293  0.3738 -0.1913
  585MOL0     C80622   9.892  12.505   4.757  0.2414 -0.9893  0.2785
  585MOL0     O80623   9.883  12.575   4.878  0.3231  0.0109 -0.5041
  585MOL0     C80624   9.866  12.711   4.872 -0.1918 -0.4294 -0.0810
  585MOL0     C80625   9.761  12.756   4.793 -0.7488 -0.3014 -0.1939
  585MOL0     C80626   9.733  12.895   4.792  0.2549 -0.0172 -0.2817
  585MOL0     C80627   9.799  12.984   4.876 -0.3122 -0.6464  0.4977
  585MOL0     O80628   9.754  13.118   4.878  0.2940  0.4282 -0.6735
  585MOL0     C80629   9.835  13.212   4.931 -0.2359 -0.8832 -0.5540
  585MOL0     C80630   9.786  13.356   4.905 -0.2038 -0.1401  0.2796
  585MOL0     C80631   9.666  13.399   4.993  0.6055  0.9392  0.2540
  585MOL0     C80632   9.682  13.396   5.150 -0.1227  0.4220  0.2938
  585MOL0     C80633   9.566  13.455   5.234 -0.2374  0.3143 -0.1286
  585MOL0     C80634   9.468  13.339   5.283  0.6676  0.0186  0.1611
  585MOL0     C80635   9.512  13.298   5.428 -1.0602  0.2312 -0.0867
  585MOL0     C80636   9.411  13.215   5.505 -0.3357 -0.4184 -0.4796
  585MOL0    Cl80637   9.478  13.165   5.663 -0.2184 -0.2996 -0.1313
  585MOL0     C80638   9.903  12.929   4.957 -0.2100 -0.6281  0.1967
  585MOL0     C80639   9.934  12.793   4.958  0.2609  0.0817  0.3650
  585MOL0     O80640   9.890  12.565   4.646  0.0597 -0.1171 -0.0022
  585MOL0     C80641   9.889  12.300   4.880  0.9783 -0.0457  0.3422
  585MOL0     C80642   9.866  12.164   4.905 -1.7309  0.5751 -0.3893
  585MOL0     N80643  10.067  11.373   5.094 -0.1429 -0.7400  0.2133
  585MOL0     N80644  10.193  11.343   5.112 -0.5175 -0.3074  0.9688
  585MOL0     C80645  10.816  10.668   5.097 -0.2743  0.6002  0.5321
  585MOL0     C80646  10.857  10.572   5.004 -0.4839  0.2833  1.0262
  585MOL0     C80647  11.001  10.247   4.745 -0.1860 -0.5469  0.1750
  585MOL0     C80648  10.939  10.124   4.769  0.0614  0.4037 -0.1203
  585MOL0     C80649  10.982  10.001   4.710  0.3209 -0.0954  0.0765
  585MOL0     C80650  11.103   9.996   4.639 -0.0089  0.6795 -0.3206
  585MOL0     O80651  11.139   9.866   4.591  0.7749 -1.0251 -0.7334
  585MOL0     C80652  11.261   9.844   4.526  0.8355 -0.4057 -1.2745
  585MOL0     C80653  11.261   9.691   4.488 -0.4593  0.6608 -0.1934
  585MOL0     C80654  11.397   9.641   4.441  0.0904 -0.1097 -0.0863
  585MOL0     C80655  11.378   9.494   4.374 -0.0078  0.0004 -1.1839
  585MOL0     C80656  11.305   9.498   4.247 -0.9422 -0.2933 -0.7874
  585MOL0     C80657  11.249   9.497   4.135 -0.4823  0.3919 -0.6663
  585MOL0     C80658  11.171  10.122   4.613 -0.3431  0.6356 -0.3003
  585MOL0     C80659  11.118  10.245   4.661 -0.6118 -0.2117  0.0158
  585MOL0     C80660  11.196  10.376   4.635  0.1736  0.4596 -0.0097
  585MOL0     H80661  10.745  10.288   5.157 -0.5050 -0.9659  0.7451
  585MOL0     H80662  10.683  10.464   5.318 -1.0421  0.3327 -0.2538
  585MOL0     H80663  10.537  10.777   5.413  1.2161  2.5222 -1.3209
  585MOL0     H80664  10.504  10.617   5.331 -2.4883  1.4139  0.3140
  585MOL0     H80665  10.515  10.729   5.109  1.3074  1.4343 -0.7626
  585MOL0     H80666  10.377  10.792   5.193 -0.3394  1.1829  0.1404
  585MOL0     H80667  10.466  10.990   5.261  1.9293  1.2439  0.2145
  585MOL0     H80668  10.629  10.959   5.212 -0.6895  0.6653  4.2970
  585MOL0     H80669  10.574  10.944   4.972 -0.6980  1.0878 -0.5665
  585MOL0     H80670  10.409  10.942   5.005 -0.1234  1.3146 -1.5369
  585MOL0     H80671  10.595  11.176   5.066  0.9218  0.0192 -1.1710
  585MOL0     H80672  10.429  11.177   5.110  2.0680 -0.5894  0.6420
  585MOL0     H80673  10.517  11.154   4.825  1.7266 -1.6540  1.5186
  585MOL0     H80674  10.356  11.173   4.894  0.7295  0.0946 -0.4839
  585MOL0     H80675  10.435  11.393   4.818  1.4280  4.3052  0.3335
  585MOL0     H80676  10.589  11.384   4.905  0.6820 -0.0104  1.8904
  585MOL0     H80677  10.440  11.398   5.125  1.2103  1.9174  0.5489
  585MOL0     H80678  10.428  11.529   5.002  1.1219 -0.3890 -1.6026
  585MOL0     H80679  10.194  11.510   4.825 -1.6132  0.7775  0.9608
  585MOL0     H80680   9.864  11.393   4.978  0.5483 -1.9628  0.1470
  585MOL0     H80681   9.919  11.462   4.822 -1.6843 -2.0763  0.3702
  585MOL0     H80682   9.768  11.604   4.991  0.2345 -2.2404  1.0399
  585MOL0     H80683   9.911  11.653   5.080  0.3544  1.1495 -0.9411
  585MOL0     H80684  10.024  11.720   4.873  0.8364  0.2679  1.3544
  585MOL0     H80685   9.864  11.703   4.783 -2.5237  1.5887  0.5236
  585MOL0     H80686   9.768  11.865   4.987 -0.6289 -0.1518  0.4211
  585MOL0     H80687   9.945  11.891   4.987 -0.5975  1.5977 -1.0581
  585MOL0     H80688   9.852  12.065   4.577 -0.0124 -0.7760 -0.2086
  585MOL0     H80689   9.942  12.385   4.464 -0.3117 -0.4803 -3.7050
  585MOL0     H80690   9.771  12.379   4.489 -1.4016 -0.3777  1.0949
  585MOL0     H80691   9.848  12.235   4.432 -0.1692 -1.4611  1.8178
  585MOL0     H80692   9.712  12.677   4.736  2.7180 -3.7344  1.1206
  585MOL0     H80693   9.651  12.937   4.734  0.8600  3.4053  1.1639
  585MOL0     H80694   9.841  13.205   5.040  1.9949  3.4851 -0.2003
  585MOL0     H80695   9.937  13.202   4.892  1.2102  1.4538  2.2590
  585MOL0     H80696   9.870  13.418   4.939 -0.3043 -0.9811  2.2065
  585MOL0     H80697   9.764  13.376   4.800  0.4897  0.6698  0.2745
  585MOL0     H80698   9.581  13.337   4.961  1.8960  0.2822 -2.1550
  585MOL0     H80699   9.641  13.501   4.960 -0.8719  0.3714 -0.5057
  585MOL0     H80700   9.761  13.457   5.194  0.5954 -2.4214  3.2708
  585MOL0     H80701   9.701  13.294   5.184 -1.5397  0.7305  2.1595
  585MOL0     H80702   9.599  13.503   5.326 -3.5971 -1.1041  2.0230
  585MOL0     H80703   9.517  13.526   5.166  0.9603  0.3785 -0.9442
  585MOL0     H80704   9.479  13.252   5.216  5.0847  0.9796 -0.7016
  585MOL0     H80705   9.361  13.360   5.281  0.3540 -1.2509  1.6668
  585MOL0     H80706   9.519  13.391   5.485  1.2892  0.2608 -0.3249
  585MOL0     H80707   9.604  13.241   5.411 -2.1185 -0.5371 -4.4343
  585MOL0     H80708   9.379  13.127   5.449 -2.2784  0.5699 -0.9941
  585MOL0     H80709   9.319  13.273   5.512  1.5407  3.9035 -5.0773
  585MOL0     H80710   9.954  12.994   5.027 -2.8068  0.3408  1.3120
  585MOL0     H80711  10.010  12.751   5.023 -1.2131 -1.7022  1.0351
  585MOL0     H80712   9.912  12.357   4.969 -0.8814 -1.4349  1.7972
  585MOL0     H80713   9.858  12.123   5.005 -0.2682 -3.8729 -1.8636
  585MOL0     H80714  10.823  10.776   5.085 -0.8440  0.4371 -1.7120
  585MOL0     H80715  10.920  10.602   4.922 -0.1271 -1.0430  0.7947
  585MOL0     H80716  10.849  10.112   4.830  1.3111 -1.2638  1.4926
  585MOL0     H80717  10.936   9.906   4.736  1.5147 -0.1748  2.0825
  585MOL0     H80718  11.257   9.910   4.438 -0.7567 -1.3760 -1.9837
  585MOL0     H80719  11.351   9.868   4.584  1.2612 -1.7601 -1.3462
  585MOL0     H80720  11.185   9.691   4.410  2.8015  0.1744 -3.6206
  585MOL0     H80721  11.235   9.622   4.570  0.3079 -0.3682 -0.7968
  585MOL0     H80722  11.442   9.702   4.361 -0.2063 -1.3378 -1.2334
  585MOL0     H80723  11.462   9.636   4.528 -0.3976 -0.6985  0.2518
  585MOL0     H80724  11.322   9.438   4.449 -0.4162 -0.8272 -2.0816
  585MOL0     H80725  11.473   9.443   4.356  0.3049  0.2947 -0.3779
  585MOL0     H80726  11.193   9.491   4.044 -2.7357 -2.1217  0.7416
  585MOL0     H80727  11.265  10.114   4.559  0.2336 -0.8963  0.8670
  585MOL0     H80728  11.196  10.435   4.727  3.7743 -0.1270  0.4912
  585MOL0     H80729  11.303  10.362   4.621 -0.3185 -2.9964 -1.1658
  585MOL0     H80730  11.151  10.433   4.553  0.7358  0.8180 -0.0703
  586MOL0     O80731   9.446   7.686   6.585 -0.0764 -0.3552  0.2562
  586MOL0     C80732   9.360   7.638   6.508 -0.9972 -0.4988 -0.7130
  586MOL0     O80733   9.261   7.546   6.548 -0.2197 -0.0779 -0.3686
  586MOL0     C80734   9.282   7.482   6.673  0.0526  0.1738  0.8563
  586MOL0     C80735   9.185   7.503   6.765 -0.3781 -0.5681  0.8905
  586MOL0     C80736   9.197   7.455   6.890  0.2830  1.2460 -0.1107
  586MOL0     C80737   9.313   7.371   6.922  0.0537 -0.2507  0.6475
  586MOL0     O80738   9.335   7.309   7.043  0.0073 -0.2910  0.5717
  586MOL0     C80739   9.229   7.277   7.130  0.4180  0.7269  0.1783
  586MOL0     C80740   9.281   7.203   7.255 -0.7455 -0.0608 -0.2952
  586MOL0     C80741   9.359   7.076   7.221  0.0276 -1.3115 -0.5120
  586MOL0     C80742   9.363   6.982   7.343 -1.5091  0.2403 -1.7343
  586MOL0     C80743   9.452   7.041   7.452 -0.2266  0.2718 -0.0996
  586MOL0     C80744   9.479   6.949   7.572  0.2333 -0.7148 -0.5837
  586MOL0     C80745   9.584   6.997   7.677  0.0236  0.5067 -0.5479
  586MOL0     C80746   9.584   6.901   7.794  0.5326  0.0650 -0.3928
  586MOL0     N80747   9.705   6.841   7.841 -0.7563  1.1108 -0.4453
  586MOL0     C80748   9.817   6.919   7.870 -0.1041 -0.5822 -0.2261
  586MOL0     C80749   9.924   6.839   7.885 -0.0496  0.0318  0.1016
  586MOL0     C80750  10.064   6.873   7.904  0.0713 -0.8908 -0.2501
  586MOL0     C80751  10.117   6.805   8.028  0.2358 -1.0900 -0.7094
  586MOL0     C80752  10.256   6.854   8.055 -0.6636 -0.9429 -0.5229
  586MOL0     C80753  10.326   6.764   8.151 -0.5290  0.8556 -0.2801
  586MOL0     O80754  10.444   6.822   8.204 -0.2693  0.1559  0.4020
  586MOL0     C80755  10.557   6.750   8.176  0.5128  1.0963  0.3051
  586MOL0     C80756  10.586   6.732   8.044  0.0873 -0.0543  0.5941
  586MOL0     C80757  10.706   6.662   8.006 -0.2103  0.5850 -0.1104
  586MOL0     C80758  10.747   6.666   7.857  0.0367 -0.0576  0.0256
  586MOL0     C80759  10.798   6.618   8.105  0.9759  1.1859 -0.6051
  586MOL0     C80760  10.925   6.556   8.078 -0.7815 -0.1151 -0.2057
  586MOL0     O80761  10.999   6.500   8.182  0.0300 -0.3969 -0.4935
  586MOL0     C80762  11.126   6.453   8.156  1.0657 -0.0878 -0.6092
  586MOL0     C80763  11.143   6.318   8.124 -0.4972 -0.8842  0.0031
  586MOL0     C80764  11.269   6.273   8.089 -0.4599  0.3193 -0.5956
  586MOL0     C80765  11.382   6.349   8.093  0.0050 -0.4896 -0.6839
  586MOL0     O80766  11.509   6.308   8.059  0.3820 -0.6924  0.2742
  586MOL0     C80767  11.533   6.190   7.978 -0.1951 -0.2089  0.2540
  586MOL0     C80768  11.661   6.187   7.899 -0.0502  0.2561  0.2631
  586MOL0     C80769  11.723   6.047   7.904  0.0548 -0.4280  0.4906
  586MOL0     C80770  11.849   6.049   7.818  0.7447  0.0455  0.3736
  586MOL0     C80771  11.961   6.122   7.881  0.1880 -0.8319 -0.2797
  586MOL0     C80772  12.098   6.097   7.815  0.4015 -0.2894  0.0972
  586MOL0     C80773  12.102   6.161   7.673 -0.2270  0.3780  0.0900
  586MOL0     C80774  12.236   6.234   7.652  0.1489 -0.4600 -0.1084
  586MOL0    Cl80775  12.255   6.355   7.788  0.4346 -0.6279 -0.7284
  586MOL0     C80776  11.370   6.482   8.134  0.0013 -0.4439 -0.4298
  586MOL0     C80777  11.244   6.533   8.156 -0.1092 -0.3352 -0.3805
  586MOL0     O80778  10.968   6.546   7.963 -0.0515  0.1902 -0.4289
  586MOL0     C80779  10.757   6.629   8.244  0.5107  0.2989  0.0386
  586MOL0     C80780  10.632   6.697   8.276 -0.5810  0.2551  0.0965
  586MOL0     N80781   9.874   6.710   7.869 -0.4995 -0.3589 -0.0100
  586MOL0     N80782   9.755   6.715   7.839 -0.0813  0.7707  0.6702
  586MOL0     C80783   9.396   7.337   6.822 -0.2053 -0.1171 -0.2499
  586MOL0     C80784   9.393   7.404   6.701  0.0467  0.3040  0.5098
  586MOL0     C80785   9.355   7.679   6.368  0.6042 -0.9957  0.4864
  586MOL0     C80786   9.260   7.603   6.287  0.1345  0.1691 -0.5476
  586MOL0     C80787   9.256   7.621   6.147 -0.6825  0.6976 -0.5326
  586MOL0     C80788   9.352   7.711   6.088  0.2928  0.3272  0.4645
  586MOL0     O80789   9.356   7.722   5.949 -0.4812 -0.2281  0.2538
  586MOL0     C80790   9.287   7.625   5.868 -0.1042 -0.4593  0.9167
  586MOL0     C80791   9.287   7.672   5.726  0.0754 -0.5378 -0.9126
  586MOL0     C80792   9.408   7.631   5.655 -0.0706  0.3744 -0.4557
  586MOL0     C80793   9.413   7.713   5.517  0.6347  1.0132 -1.0566
  586MOL0     C80794   9.315   7.657   5.419  0.5816  0.1103  0.4418
  586MOL0     C80795   9.245   7.604   5.334 -0.0050 -0.6192  0.0041
  586MOL0     C80796   9.434   7.791   6.167 -0.3746  0.5288 -0.4800
  586MOL0     C80797   9.438   7.782   6.312  0.1258 -0.1818 -0.5221
  586MOL0     C80798   9.531   7.883   6.379  0.1307  0.2928 -0.9163
  586MOL0     H80799   9.095   7.560   6.743 -1.1556 -1.9373  0.3553
  586MOL0     H80800   9.123   7.468   6.969  0.3386  0.4483  0.0809
  586MOL0     H80801   9.157   7.221   7.069 -0.2194  1.0430  0.6349
  586MOL0     H80802   9.189   7.375   7.154 -0.0245  0.8192 -0.8552
  586MOL0     H80803   9.339   7.270   7.319 -0.4707 -0.1989 -0.3966
  586MOL0     H80804   9.195   7.177   7.318  0.9817 -1.0171  1.8180
  586MOL0     H80805   9.301   7.018   7.149  3.5452 -1.2169 -3.7122
  586MOL0     H80806   9.454   7.106   7.175 -0.3789 -0.0040 -0.5335
  586MOL0     H80807   9.269   6.966   7.396  0.0841 -2.7004  0.5201
  586MOL0     H80808   9.398   6.885   7.306 -0.1162 -0.7122  1.6788
  586MOL0     H80809   9.411   7.136   7.489  1.7321  1.4226 -0.7367
  586MOL0     H80810   9.547   7.068   7.405 -0.5752 -0.6842 -1.4088
  586MOL0     H80811   9.386   6.938   7.628 -0.4723  0.5562 -1.4434
  586MOL0     H80812   9.507   6.848   7.541  1.2563 -0.2780 -1.1485
  586MOL0     H80813   9.573   7.101   7.706  1.2729  0.7855 -1.0299
  586MOL0     H80814   9.678   6.996   7.620  0.5222  0.7567  0.2565
  586MOL0     H80815   9.561   6.965   7.879  1.2909 -0.3937  0.1593
  586MOL0     H80816   9.508   6.822   7.791  1.1685 -0.6790  1.7751
  586MOL0     H80817   9.826   7.027   7.863  2.0803 -0.8005 -1.3825
  586MOL0     H80818  10.088   6.980   7.910  2.9900 -1.5246  1.0439
  586MOL0     H80819  10.116   6.846   7.812  0.0992  1.0889 -0.8640
  586MOL0     H80820  10.055   6.832   8.114  0.4525  0.8097 -1.1136
  586MOL0     H80821  10.117   6.695   8.032 -0.9284 -1.0545  1.4979
  586MOL0     H80822  10.305   6.860   7.958 -0.9758  2.4065 -0.5809
  586MOL0     H80823  10.260   6.956   8.095  0.5787 -1.0612 -0.2961
  586MOL0     H80824  10.255   6.754   8.234 -1.0122  5.8747  0.2270
  586MOL0     H80825  10.345   6.666   8.108 -1.4862 -0.0363  1.2513
  586MOL0     H80826  10.524   6.778   7.968  1.7690 -1.2835 -1.6229
  586MOL0     H80827  10.669   6.724   7.807 -0.9538 -2.2281 -1.0592
  586MOL0     H80828  10.748   6.568   7.810  2.6906 -0.9828  1.7985
  586MOL0     H80829  10.835   6.727   7.832 -1.0590  0.3601 -3.2358
  586MOL0     H80830  11.061   6.247   8.121  0.0111 -1.4852  0.1380
  586MOL0     H80831  11.273   6.167   8.065 -0.5741 -0.4315  2.3251
  586MOL0     H80832  11.536   6.107   8.049  0.8271  0.2163  0.7338
  586MOL0     H80833  11.448   6.169   7.912 -1.7563  1.0793  1.7746
  586MOL0     H80834  11.638   6.216   7.796 -1.8447  0.5011  0.7043
  586MOL0     H80835  11.733   6.264   7.929  0.3625  1.0232 -2.4623
  586MOL0     H80836  11.652   5.981   7.853 -0.7722  0.3524  0.6100
  586MOL0     H80837  11.739   6.009   8.005  4.1148  0.8481  0.5062
  586MOL0     H80838  11.833   6.083   7.715  1.8201 -0.5528 -0.0047
  586MOL0     H80839  11.876   5.945   7.802 -1.1979 -0.3673 -0.5376
  586MOL0     H80840  11.940   6.228   7.870 -0.5282 -1.0494 -1.0735
  586MOL0     H80841  11.990   6.101   7.985  5.6489  1.6093 -0.9489
  586MOL0     H80842  12.108   5.988   7.816 -3.1746 -0.8377 -2.5677
  586MOL0     H80843  12.175   6.138   7.880 -0.0014 -1.1396  1.1370
  586MOL0     H80844  12.017   6.228   7.653  0.4774  0.9444 -1.1250
  586MOL0     H80845  12.089   6.073   7.611 -2.3694 -0.1704  1.2366
  586MOL0     H80846  12.253   6.268   7.549 -0.3459 -0.3102 -0.1413
  586MOL0     H80847  12.315   6.158   7.655 -0.9891 -1.9323 -3.1914
  586MOL0     H80848  11.460   6.543   8.142 -0.2352  0.4082 -3.2314
  586MOL0     H80849  11.229   6.640   8.173  0.8522  0.3974 -3.4379
  586MOL0     H80850  10.813   6.586   8.326 -1.1406  0.9985  1.5957
  586MOL0     H80851  10.588   6.695   8.375 -0.5751  2.2042  0.1884
  586MOL0     H80852   9.473   7.261   6.832 -0.2035 -0.2294 -1.0307
  586MOL0     H80853   9.467   7.375   6.626  0.2269  0.5349  0.5977
  586MOL0     H80854   9.180   7.535   6.313 -2.1203  1.8112 -2.6846
  586MOL0     H80855   9.202   7.552   6.083 -0.8947  0.2588  0.1079
  586MOL0     H80856   9.349   7.537   5.890  3.5545  2.4715  3.6519
  586MOL0     H80857   9.185   7.620   5.909  0.2634 -1.0702  1.8028
  586MOL0     H80858   9.278   7.781   5.734  2.2580 -0.4501  3.4378
  586MOL0     H80859   9.198   7.631   5.678  0.0098 -0.0597 -1.2076
  586MOL0     H80860   9.501   7.661   5.703 -0.0455  0.9344 -0.8407
  586MOL0     H80861   9.410   7.523   5.635  0.5957  0.8470 -3.4744
  586MOL0     H80862   9.515   7.714   5.476  1.7811  2.0585  1.6100
  586MOL0     H80863   9.373   7.811   5.545  1.3510  0.4372  2.4307
  586MOL0     H80864   9.184   7.556   5.261 -0.7135  1.2592 -0.6985
  586MOL0     H80865   9.500   7.868   6.129 -0.6449  3.1227  3.5949
  586MOL0     H80866   9.631   7.842   6.362  0.9512  2.0921 -0.6603
  586MOL0     H80867   9.521   7.981   6.331  0.4670  0.6621 -0.2517
  586MOL0     H80868   9.521   7.897   6.488  4.5042  1.9042 -0.5451
  587MOL0     O80869   3.030   8.139   4.397  0.0216 -0.6144  0.3511
  587MOL0     C80870   3.020   8.075   4.503 -0.0455  0.2504 -0.2602
  587MOL0     O80871   2.944   7.964   4.523  0.0524 -0.3429  0.5935
  587MOL0     C80872   2.894   7.888   4.419 -0.2402 -0.1818 -0.0286
  587MOL0     C80873   2.928   7.895   4.280 -0.1595  0.0266 -0.4266
  587MOL0     C80874   2.858   7.814   4.190  0.2773 -0.0252 -0.2069
  587MOL0     C80875   2.751   7.745   4.226 -0.3095  0.0286  0.5915
  587MOL0     O80876   2.680   7.672   4.124  0.6240  0.2180 -0.3352
  587MOL0     C80877   2.581   7.746   4.060  0.1275 -0.1065 -0.2319
  587MOL0     C80878   2.459   7.650   4.020 -0.1350  0.7336 -0.1513
  587MOL0     C80879   2.369   7.617   4.139 -0.3808  0.9153  0.5848
  587MOL0     C80880   2.270   7.723   4.165 -0.3299  0.1798 -0.1189
  587MOL0     C80881   2.190   7.671   4.285  0.7736 -0.7838 -0.3831
  587MOL0     C80882   2.045   7.717   4.281 -0.1191 -0.2816  0.4317
  587MOL0     C80883   1.960   7.661   4.400 -0.0158 -0.1600  0.2928
  587MOL0     C80884   1.823   7.721   4.387 -0.4387 -0.3918  0.2775
  587MOL0     N80885   1.757   7.704   4.513 -0.4925  0.0571 -0.0152
  587MOL0     C80886   1.776   7.774   4.629 -0.4204 -0.7525  0.8521
  587MOL0     C80887   1.714   7.704   4.720  0.0691  0.1558  0.4517
  587MOL0     C80888   1.714   7.726   4.876  0.0239  0.7863  0.2663
  587MOL0     C80889   1.806   7.833   4.931  0.4774 -0.9158 -0.4019
  587MOL0     C80890   1.945   7.774   4.959 -0.2480  0.0691  0.6402
  587MOL0     C80891   2.047   7.884   4.990 -0.3707  1.1218 -0.1226
  587MOL0     O80892   2.074   7.965   4.880  0.4331 -0.2192 -0.6343
  587MOL0     C80893   2.139   8.086   4.885 -0.4413  0.2959  1.3775
  587MOL0     C80894   2.199   8.127   5.002 -1.5111  0.3368 -0.7041
  587MOL0     C80895   2.290   8.225   5.005 -0.0273 -0.0314  0.0394
  587MOL0     C80896   2.362   8.263   5.133  0.3961 -0.6890 -0.1188
  587MOL0     C80897   2.312   8.293   4.879  0.6035 -0.1626  0.4715
  587MOL0     C80898   2.411   8.401   4.859  0.6487  0.8356  0.0153
  587MOL0     O80899   2.383   8.491   4.770  0.1842 -0.3130 -0.0502
  587MOL0     C80900   2.464   8.598   4.766  0.1245 -0.2830  0.0931
  587MOL0     C80901   2.421   8.735   4.769 -0.7736  0.2991 -0.3353
  587MOL0     C80902   2.512   8.839   4.748 -0.0532 -0.2050  0.0962
  587MOL0     C80903   2.647   8.813   4.728  0.0465  0.4157  0.2680
  587MOL0     O80904   2.728   8.926   4.707  0.4183  0.8100 -0.3407
  587MOL0     C80905   2.743   8.950   4.562  0.1691  0.5327 -0.8953
  587MOL0     C80906   2.871   9.040   4.540  0.6211  1.2644  0.0377
  587MOL0     C80907   2.969   8.951   4.453  0.4829  0.1100 -0.7661
  587MOL0     C80908   3.042   8.841   4.538  0.5631  0.6341  0.3240
  587MOL0     C80909   3.126   8.737   4.459 -0.6508 -0.4252  0.0629
  587MOL0     C80910   3.051   8.639   4.372  0.0586  0.6088  0.0572
  587MOL0     C80911   2.945   8.559   4.457  1.0848  0.4814 -0.1809
  587MOL0     C80912   2.893   8.440   4.389 -0.9100 -0.4464  0.3909
  587MOL0    Cl80913   2.793   8.356   4.509 -0.1238  0.0829  0.0215
  587MOL0     C80914   2.704   8.681   4.734  0.6202  0.3158 -0.1470
  587MOL0     C80915   2.604   8.583   4.748  0.7212  0.5949  0.1284
  587MOL0     O80916   2.512   8.390   4.926 -0.0980 -0.0757 -0.2741
  587MOL0     C80917   2.244   8.253   4.759  0.0909 -0.4151 -0.6995
  587MOL0     C80918   2.168   8.141   4.764  0.0003  0.3885 -0.5040
  587MOL0     N80919   1.632   7.620   4.655 -0.2192 -0.4347  0.7918
  587MOL0     N80920   1.664   7.614   4.530 -0.3711 -0.5073  0.6757
  587MOL0     C80921   2.709   7.735   4.357 -0.6345 -0.1781 -0.2988
  587MOL0     C80922   2.782   7.805   4.453  0.3618  0.2447 -0.2169
  587MOL0     C80923   3.112   8.112   4.616  0.2191 -0.0000 -0.3176
  587MOL0     C80924   3.069   8.059   4.746  0.3692  0.8461  0.1724
  587MOL0     C80925   3.150   8.080   4.859 -0.0117 -0.4603 -0.9336
  587MOL0     C80926   3.259   8.158   4.848 -0.7327  1.1916  0.3462
  587MOL0     O80927   3.335   8.192   4.957  0.1927  0.1787  0.4568
  587MOL0     C80928   3.408   8.088   5.030 -0.9374  0.0010 -0.7964
  587MOL0     C80929   3.541   8.063   4.959 -0.3522  0.2168  0.8170
  587MOL0     C80930   3.622   8.186   5.002  0.9742 -0.2359 -0.2398
  587MOL0     C80931   3.753   8.190   4.914  1.1862 -0.0630  0.0011
  587MOL0     C80932   3.815   8.319   4.941  0.3591 -0.4057 -0.1384
  587MOL0     C80933   3.868   8.430   4.953 -0.1478 -0.4310 -0.0939
  587MOL0     C80934   3.291   8.213   4.726  0.2266 -0.1529  1.1293
  587MOL0     C80935   3.221   8.193   4.609 -0.3073  0.3784  0.0660
  587MOL0     C80936   3.287   8.247   4.481 -0.8646 -0.1636  0.3117
  587MOL0     H80937   3.011   7.956   4.245  2.6463 -2.6598  1.0848
  587MOL0     H80938   2.882   7.810   4.084 -4.1611  0.5942 -1.4462
  587MOL0     H80939   2.629   7.798   3.976 -0.6672  1.0180 -0.0107
  587MOL0     H80940   2.522   7.817   4.118 -2.4452 -1.2379 -1.2737
  587MOL0     H80941   2.400   7.696   3.940  1.3363 -0.5030 -2.0291
  587MOL0     H80942   2.494   7.559   3.969 -2.9112  0.6992 -2.2322
  587MOL0     H80943   2.316   7.525   4.110  0.9409  0.5009 -0.6508
  587MOL0     H80944   2.419   7.592   4.233 -0.6215 -1.2825  0.1975
  587MOL0     H80945   2.312   7.822   4.186  0.9012  0.7800 -4.4064
  587MOL0     H80946   2.190   7.733   4.090 -0.7165 -1.2021  0.0910
  587MOL0     H80947   2.235   7.709   4.377  0.7279  1.5996 -1.2689
  587MOL0     H80948   2.185   7.562   4.290 -1.1682 -1.0954 -4.5531
  587MOL0     H80949   2.053   7.826   4.277  1.4880 -0.3929 -0.4631
  587MOL0     H80950   1.992   7.679   4.193 -1.1178  0.2117  0.8104
  587MOL0     H80951   2.013   7.699   4.488  0.5324  1.8501 -0.8469
  587MOL0     H80952   1.948   7.552   4.404  0.9919 -0.2908  0.1375
  587MOL0     H80953   1.825   7.827   4.359  2.1450  0.0692  1.9086
  587MOL0     H80954   1.779   7.660   4.307 -0.3701 -1.6887  1.1907
  587MOL0     H80955   1.848   7.855   4.639 -1.3755  0.1494  0.5544
  587MOL0     H80956   1.714   7.633   4.933  0.5610  0.2323 -0.6162
  587MOL0     H80957   1.613   7.768   4.886  0.3621  1.6688  0.0600
  587MOL0     H80958   1.818   7.920   4.865  2.2215  0.8384  2.0514
  587MOL0     H80959   1.759   7.876   5.020  3.6374  0.5661  0.7199
  587MOL0     H80960   1.937   7.707   5.046 -0.3525 -0.2499  0.3839
  587MOL0     H80961   1.970   7.725   4.865 -2.2882 -0.8252  0.5038
  587MOL0     H80962   2.005   7.932   5.079  0.1568 -1.6702  1.7629
  587MOL0     H80963   2.140   7.834   5.020 -1.3460 -0.4534  0.4056
  587MOL0     H80964   2.179   8.078   5.096  0.2379  0.6418 -0.1305
  587MOL0     H80965   2.295   8.234   5.215  0.9802 -0.7066  0.3627
  587MOL0     H80966   2.380   8.370   5.144 -0.1939 -0.7449  1.6990
  587MOL0     H80967   2.460   8.218   5.147  1.2302  1.4736  1.5442
  587MOL0     H80968   2.317   8.765   4.772 -0.9754 -0.2610 -1.3221
  587MOL0     H80969   2.477   8.941   4.766  2.2872  0.4357  1.4071
  587MOL0     H80970   2.753   8.860   4.501  1.0971  0.1860 -0.2562
  587MOL0     H80971   2.651   8.981   4.512 -0.2043 -2.5651 -2.3558
  587MOL0     H80972   2.836   9.129   4.488 -1.7768 -0.4112 -1.4333
  587MOL0     H80973   2.916   9.064   4.637  0.5157 -2.7321  1.2845
  587MOL0     H80974   3.040   9.018   4.403 -1.3057  1.2185 -1.9135
  587MOL0     H80975   2.923   8.894   4.372 -0.9382  0.8013 -0.4627
  587MOL0     H80976   2.966   8.786   4.594 -0.8301  1.2759 -0.8695
  587MOL0     H80977   3.109   8.890   4.609  0.4763 -1.0393  1.6471
  587MOL0     H80978   3.198   8.776   4.386  0.5821 -1.3905  0.7400
  587MOL0     H80979   3.186   8.684   4.533  1.6560  0.8679 -0.8005
  587MOL0     H80980   3.123   8.566   4.333  1.6888  1.6694  0.9939
  587MOL0     H80981   3.003   8.690   4.288  1.4503  1.5329 -0.2105
  587MOL0     H80982   2.861   8.627   4.471  0.3273 -1.0413  4.1902
  587MOL0     H80983   2.975   8.530   4.558 -1.5702  0.1468  0.5849
  587MOL0     H80984   2.971   8.373   4.353 -0.7590 -1.4309  2.3819
  587MOL0     H80985   2.832   8.472   4.304  0.1684 -4.2623 -2.0347
  587MOL0     H80986   2.811   8.665   4.730  0.4267 -1.4496  0.7503
  587MOL0     H80987   2.640   8.481   4.743 -2.8449 -0.8401  0.5992
  587MOL0     H80988   2.265   8.298   4.662  0.9538 -0.8375 -0.7244
  587MOL0     H80989   2.127   8.104   4.671 -2.3660  3.4276 -0.8309
  587MOL0     H80990   2.625   7.671   4.382 -0.4850  0.4658  2.1763
  587MOL0     H80991   2.758   7.790   4.558  2.4335  1.2809  0.4466
  587MOL0     H80992   2.972   8.012   4.759 -0.4021  2.3420  0.0538
  587MOL0     H80993   3.112   8.044   4.955 -0.6297 -1.9623 -1.6994
  587MOL0     H80994   3.423   8.123   5.133  2.5725  1.2054 -1.5521
  587MOL0     H80995   3.353   7.995   5.045 -0.6746 -0.0055  0.2369
  587MOL0     H80996   3.540   8.042   4.852  1.1752  2.3467  0.3283
  587MOL0     H80997   3.589   7.969   4.988 -2.7607 -1.3778  0.0386
  587MOL0     H80998   3.568   8.280   4.987  0.8424 -0.2805 -0.0537
  587MOL0     H80999   3.649   8.179   5.108  0.4786 -1.3884 -0.1687
  587MOL0     H81000   3.723   8.178   4.809  1.6785  0.9293 -0.2696
  587MOL0     H81001   3.818   8.109   4.947 -0.4622 -1.2783  0.4146
  587MOL0     H81002   3.940   8.507   4.970  0.6944 -0.9074 -1.4049
  587MOL0     H81003   3.385   8.267   4.715 -0.9278  1.6950 -0.1608
  587MOL0     H81004   3.379   8.304   4.500 -1.1196 -0.3243  2.2230
  587MOL0     H81005   3.297   8.157   4.419 -1.7613  0.3994 -0.6922
  587MOL0     H81006   3.216   8.320   4.444 -1.0876  0.4620  1.8992
  588MOL0     O81007   3.130   0.527  10.960  0.7606 -0.2327 -0.3161
  588MOL0     C81008   3.157   0.646  10.950 -0.2396  0.1967  0.4172
  588MOL0     O81009   3.282   0.699  10.973  0.1463  0.3249  0.5207
  588MOL0     C81010   3.394   0.620  10.980  0.4911 -0.1445 -0.6023
  588MOL0     C81011   3.410   0.493  10.936  0.0171  0.0998  0.5919
  588MOL0     C81012   3.533   0.427  10.963 -0.0009  0.1186  0.4099
  588MOL0     C81013   3.637   0.493  11.028 -0.5500  0.7836  0.3662
  588MOL0     O81014   3.765   0.431  11.042 -0.2098  0.5974 -0.4281
  588MOL0     C81015   3.763   0.291  11.057 -0.5224  0.1594 -1.0394
  588MOL0     C81016   3.904   0.245  11.087 -0.4929 -0.7029 -0.0826
  588MOL0     C81017   3.947   0.278  11.220 -1.0662  0.3888 -1.5788
  588MOL0     C81018   4.099   0.255  11.255  0.1355 -0.2620  0.9550
  588MOL0     C81019   4.150   0.329  11.377  0.0572 -0.7571 -0.5455
  588MOL0     C81020   4.274   0.255  11.439  1.1693  0.5699 -0.0422
  588MOL0     C81021   4.351   0.357  11.538 -0.0105  0.3833  0.2046
  588MOL0     C81022   4.479   0.284  11.583 -0.7700 -0.1927 -0.2059
  588MOL0     N81023   4.562   0.241  11.469  0.0299  0.1001  0.0514
  588MOL0     C81024   4.634   0.127  11.456 -0.2455 -0.5325  0.9919
  588MOL0     C81025   4.703   0.138  11.339  0.5205  0.5498 -0.4575
  588MOL0     C81026   4.815   0.051  11.297 -0.3683  0.1971 -0.6021
  588MOL0     C81027   4.930   0.135  11.227 -0.0956 -0.9644 -0.6605
  588MOL0     C81028   5.026   0.199  11.328 -0.0276  0.0658  0.5080
  588MOL0     C81029   5.104   0.327  11.279 -0.0966  0.4084  0.2321
  588MOL0     O81030   5.175   0.398  11.382 -0.1429  0.0793 -0.8308
  588MOL0     C81031   5.303   0.352  11.414  0.2039  0.5593  0.3736
  588MOL0     C81032   5.413   0.405  11.355 -0.2030  0.3203  1.4123
  588MOL0     C81033   5.546   0.375  11.399  0.6919  0.1949 -0.6267
  588MOL0     C81034   5.664   0.436  11.341  0.2006 -0.3658 -0.4852
  588MOL0     C81035   5.561   0.278  11.494  0.3877  0.6249  0.1291
  588MOL0     C81036   5.698   0.230  11.538 -0.2638 -0.0006 -0.5419
  588MOL0     O81037   5.782   0.321  11.587 -0.8026 -0.5498 -0.7402
  588MOL0     C81038   5.913   0.299  11.620 -0.1556  0.0164  0.4140
  588MOL0     C81039   5.994   0.197  11.567 -0.7780  0.0012 -0.4498
  588MOL0     C81040   6.116   0.174  11.617  0.0086 -0.5528  0.5053
  588MOL0     C81041   6.183   0.257  11.704  0.0306  0.4512 -0.6290
  588MOL0     O81042   6.312   0.237  11.754 -0.3304 -0.0669 -0.3965
  588MOL0     C81043   6.359   0.107  11.792 -0.4747  0.5008  0.5474
  588MOL0     C81044   6.495   0.099  11.846 -0.3845 -1.0056 -0.5590
  588MOL0     C81045   6.518  -0.034  11.932 -0.1514 -0.2344  0.7131
  588MOL0     C81046   6.656  -0.085  11.916 -0.3040  0.3271  0.5613
  588MOL0     C81047   6.698  -0.218  11.990  0.2158 -0.2797  0.3301
  588MOL0     C81048   6.607  -0.343  11.970  0.3617  0.3876  0.2195
  588MOL0     C81049   6.605  -0.400  11.829 -0.1766 -0.6306  0.5625
  588MOL0     C81050   6.552  -0.537  11.819  0.2277 -0.0547 -0.0550
  588MOL0    Cl81051   6.583  -0.604  11.657  0.3487  0.1057  0.2073
  588MOL0     C81052   6.109   0.367  11.741  0.3070 -0.2939 -0.8385
  588MOL0     C81053   5.981   0.395  11.703  0.3127  0.2837  0.9731
  588MOL0     O81054   5.724   0.109  11.514 -0.0039 -0.2963  0.0265
  588MOL0     C81055   5.446   0.205  11.542  0.7784 -0.1719  0.1798
  588MOL0     C81056   5.320   0.254  11.506  0.3413  0.1239  0.0313
  588MOL0     N81057   4.654   0.260  11.283 -0.6003 -0.3472 -0.1553
  588MOL0     N81058   4.577   0.317  11.360  0.4885 -0.2258 -0.3354
  588MOL0     C81059   3.608   0.615  11.084  0.1682 -0.2682  0.0492
  588MOL0     C81060   3.486   0.682  11.051  1.1814  0.2359  0.0723
  588MOL0     C81061   3.047   0.743  10.919 -0.1959  0.6775  0.0297
  588MOL0     C81062   2.928   0.750  10.992  0.7570 -0.9406 -0.2553
  588MOL0     C81063   2.831   0.856  10.974  0.0403  0.4017 -0.2745
  588MOL0     C81064   2.856   0.945  10.873 -0.5816 -0.0690  0.1677
  588MOL0     O81065   2.763   1.046  10.871 -0.4071 -0.0170  0.7951
  588MOL0     C81066   2.785   1.156  10.779  0.2795 -0.4165 -0.8406
  588MOL0     C81067   2.690   1.279  10.813  0.5992 -0.6446  0.3011
  588MOL0     C81068   2.691   1.315  10.964 -1.2436  0.2298  0.4238
  588MOL0     C81069   2.644   1.456  11.013 -0.4290 -0.2602 -0.1296
  588MOL0     C81070   2.517   1.483  10.946  0.1118 -0.6194 -0.2343
  588MOL0     C81071   2.411   1.496  10.889  0.5907 -0.0835  0.2211
  588MOL0     C81072   2.966   0.930  10.787 -0.1025  0.6291 -0.1173
  588MOL0     C81073   3.069   0.835  10.816 -0.7364  0.1462  1.1114
  588MOL0     C81074   3.190   0.824  10.722 -0.3133 -0.1415  0.3809
  588MOL0     H81075   3.337   0.435  10.879  2.6470 -2.8386 -0.0818
  588MOL0     H81076   3.537   0.326  10.923 -0.1370 -0.6699  2.2931
  588MOL0     H81077   3.719   0.242  10.970 -0.2104 -0.7693 -0.6912
  588MOL0     H81078   3.697   0.268  11.141 -2.0783  3.7337 -1.1277
  588MOL0     H81079   3.917   0.137  11.074  0.8292 -0.4256 -1.2667
  588MOL0     H81080   3.973   0.293  11.016  2.4413 -1.6630  1.9016
  588MOL0     H81081   3.919   0.382  11.235 -0.5291  0.2564  0.9041
  588MOL0     H81082   3.891   0.230  11.301 -0.5049  2.3108  0.0467
  588MOL0     H81083   4.103   0.148  11.274  2.9179 -0.7651 -1.7571
  588MOL0     H81084   4.160   0.279  11.167 -3.1167  0.8669 -1.2276
  588MOL0     H81085   4.076   0.336  11.457 -0.7196  0.1154 -1.3197
  588MOL0     H81086   4.178   0.430  11.344  1.1114 -0.5279  0.9383
  588MOL0     H81087   4.261   0.155  11.480  1.7075 -0.9839 -3.3410
  588MOL0     H81088   4.339   0.240  11.352  1.1633  3.2205 -0.5878
  588MOL0     H81089   4.289   0.368  11.628 -0.1853  1.8478 -0.0604
  588MOL0     H81090   4.369   0.449  11.481 -2.0619 -0.0134 -1.2270
  588MOL0     H81091   4.534   0.359  11.640  2.8165 -0.5332 -2.8452
  588MOL0     H81092   4.455   0.201  11.651 -1.6883 -0.3389 -0.6929
  588MOL0     H81093   4.655   0.049  11.528  1.1224  0.2732  1.5208
  588MOL0     H81094   4.768  -0.020  11.228 -0.3814  1.3806 -1.8540
  588MOL0     H81095   4.852  -0.017  11.374  0.9916 -2.5726 -3.4387
  588MOL0     H81096   4.989   0.059  11.175 -2.0519 -4.8150  2.2049
  588MOL0     H81097   4.876   0.204  11.161 -0.3569 -0.9919 -0.4754
  588MOL0     H81098   4.969   0.228  11.416 -1.6902 -2.9690  0.5698
  588MOL0     H81099   5.101   0.123  11.347 -0.5804 -0.8448 -0.7739
  588MOL0     H81100   5.182   0.290  11.211 -1.4783 -2.5362  0.0762
  588MOL0     H81101   5.035   0.390  11.223  0.8985  0.4655 -0.9925
  588MOL0     H81102   5.410   0.487  11.284 -2.0847 -0.9934 -0.1182
  588MOL0     H81103   5.641   0.489  11.249  2.3325  0.1484 -0.7634
  588MOL0     H81104   5.743   0.366  11.313  2.1147  1.6029 -0.3004
  588MOL0     H81105   5.713   0.501  11.415  0.3571  0.0042 -0.9116
  588MOL0     H81106   5.963   0.127  11.490 -0.2488 -3.3850  2.1868
  588MOL0     H81107   6.150   0.078  11.580 -0.8801 -1.6323  2.3567
  588MOL0     H81108   6.295   0.074  11.874 -2.9334 -1.2628 -1.9005
  588MOL0     H81109   6.348   0.039  11.707  0.8507 -0.6869  1.2811
  588MOL0     H81110   6.565   0.092  11.762 -1.1003 -2.2264 -1.0907
  588MOL0     H81111   6.514   0.188  11.907  0.0740 -1.5333  0.0880
  588MOL0     H81112   6.452  -0.113  11.895  0.8599 -0.9814  0.4690
  588MOL0     H81113   6.502  -0.015  12.039  1.4885  0.5148  0.8567
  588MOL0     H81114   6.716   0.000  11.950 -0.1051  1.0596 -1.4791
  588MOL0     H81115   6.663  -0.099  11.808 -0.3815  0.4219  0.5429
  588MOL0     H81116   6.799  -0.242  11.956 -0.0741 -4.3764  1.9005
  588MOL0     H81117   6.692  -0.188  12.095 -3.3001 -1.8764  0.7034
  588MOL0     H81118   6.506  -0.314  12.000  0.2793  1.4808 -1.0337
  588MOL0     H81119   6.633  -0.421  12.043 -0.7229 -0.5738 -0.3722
  588MOL0     H81120   6.710  -0.407  11.796 -0.0426  3.3483 -0.3565
  588MOL0     H81121   6.553  -0.331  11.762  3.0741 -0.0454 -1.6437
  588MOL0     H81122   6.445  -0.539  11.839  0.2530  1.2935  0.2957
  588MOL0     H81123   6.595  -0.599  11.899  0.7547  0.3505 -0.0214
  588MOL0     H81124   6.152   0.432  11.816 -1.1335  1.5547 -1.5417
  588MOL0     H81125   5.918   0.478  11.734 -0.2229 -0.2089  1.2199
  588MOL0     H81126   5.463   0.125  11.613 -1.5991 -0.3745  0.6069
  588MOL0     H81127   5.229   0.213  11.550  0.1968 -2.1154 -2.1248
  588MOL0     H81128   3.675   0.668  11.151 -1.6177  2.1996  0.0350
  588MOL0     H81129   3.465   0.781  11.090 -0.2859 -1.0893  2.9525
  588MOL0     H81130   2.894   0.677  11.065  1.8694 -1.6828 -0.4602
  588MOL0     H81131   2.738   0.860  11.030 -0.2303  2.1357 -0.8011
  588MOL0     H81132   2.887   1.194  10.795 -0.0802 -0.6432  2.7414
  588MOL0     H81133   2.769   1.116  10.678 -0.6795 -1.5433 -0.2634
  588MOL0     H81134   2.587   1.253  10.790  0.6580  0.4871 -1.4043
  588MOL0     H81135   2.731   1.361  10.753  1.2215  0.2073  1.8308
  588MOL0     H81136   2.627   1.241  11.012 -1.2056  0.2920  0.5716
  588MOL0     H81137   2.795   1.318  10.999 -1.4422  0.7783  0.9960
  588MOL0     H81138   2.716   1.534  10.990 -0.0467 -0.9315 -1.2818
  588MOL0     H81139   2.612   1.444  11.117 -2.4462  0.0864 -0.6567
  588MOL0     H81140   2.324   1.505  10.827  0.8340  0.2000 -0.0847
  588MOL0     H81141   2.979   1.008  10.712 -1.6476  2.0353  0.9932
  588MOL0     H81142   3.167   0.857  10.621  0.3455 -3.1291 -0.8390
  588MOL0     H81143   3.266   0.892  10.763 -0.8746  1.9074 -1.7671
  588MOL0     H81144   3.235   0.724  10.722  3.3067  1.2219  3.6084
  589MOL0     O81145   3.761   4.039   1.774  0.1630 -0.0469 -0.0560
  589MOL0     C81146   3.674   4.118   1.739  0.5224 -0.0211 -0.2070
  589MOL0     O81147   3.682   4.210   1.638 -0.0463  0.1232  0.3906
  589MOL0     C81148   3.802   4.231   1.558  0.3911  0.1842  0.6467
  589MOL0     C81149   3.836   4.364   1.517 -0.7330 -0.4614 -0.0520
  589MOL0     C81150   3.953   4.386   1.445 -0.3225  0.4267  0.6077
  589MOL0     C81151   4.029   4.275   1.399  0.2175 -0.5060 -0.1214
  589MOL0     O81152   4.134   4.304   1.312 -0.6025 -1.0866  0.2267
  589MOL0     C81153   4.211   4.200   1.255 -0.1988 -0.3441 -0.1041
  589MOL0     C81154   4.328   4.267   1.177  0.3345  0.3973  0.0437
  589MOL0     C81155   4.413   4.175   1.094  0.0531 -0.1958 -0.1775
  589MOL0     C81156   4.529   4.239   1.034 -1.1435  0.4997 -0.0137
  589MOL0     C81157   4.594   4.178   0.909  0.4993  0.2977  0.3800
  589MOL0     C81158   4.613   4.034   0.938  0.4413  0.1645  0.6829
  589MOL0     C81159   4.703   3.966   0.833  0.1179  0.2541  0.0582
  589MOL0     C81160   4.665   3.987   0.687  0.6149 -0.3844 -0.7973
  589MOL0     N81161   4.754   3.925   0.595  0.4158  0.5642  0.0314
  589MOL0     C81162   4.836   3.821   0.610 -0.6794  0.1816 -0.3352
  589MOL0     C81163   4.887   3.805   0.489 -1.1709  0.3119 -0.1225
  589MOL0     C81164   4.993   3.708   0.473  0.2248  1.2374  0.2859
  589MOL0     C81165   5.108   3.716   0.579 -0.0132 -0.2002  0.3845
  589MOL0     C81166   5.186   3.841   0.560 -0.5426 -0.2676  0.6581
  589MOL0     C81167   5.297   3.856   0.666 -0.2810 -0.1775  0.9208
  589MOL0     O81168   5.398   3.753   0.640  0.2781  0.4594  0.2568
  589MOL0     C81169   5.509   3.736   0.725 -0.0127 -0.9598 -0.2483
  589MOL0     C81170   5.563   3.844   0.787 -0.2677 -0.6364 -0.1118
  589MOL0     C81171   5.690   3.844   0.851 -0.1303  0.0689 -0.4418
  589MOL0     C81172   5.737   3.974   0.904  0.0833 -1.1036  0.2065
  589MOL0     C81173   5.766   3.724   0.841  0.1015 -0.5141  0.3482
  589MOL0     C81174   5.912   3.724   0.879  0.5191 -0.4214  0.2000
  589MOL0     O81175   5.976   3.610   0.845  1.4806  0.5668  0.8040
  589MOL0     C81176   6.112   3.624   0.844 -0.1294 -0.9310  0.2192
  589MOL0     C81177   6.166   3.717   0.755 -0.2257  0.7696  0.2634
  589MOL0     C81178   6.304   3.718   0.727 -0.2452  0.7576 -0.3020
  589MOL0     C81179   6.387   3.636   0.805  0.4003  0.4172 -0.3855
  589MOL0     O81180   6.521   3.656   0.792 -0.0463 -0.0003 -0.6322
  589MOL0     C81181   6.619   3.601   0.879 -0.0520  0.2648 -0.1151
  589MOL0     C81182   6.615   3.663   1.016 -0.5409 -0.6815  0.2839
  589MOL0     C81183   6.741   3.625   1.103 -0.9481 -0.4460  0.6180
  589MOL0     C81184   6.844   3.737   1.118 -0.3604 -0.3805  0.0157
  589MOL0     C81185   6.982   3.700   1.182 -0.4531  0.3488 -0.2613
  589MOL0     C81186   7.068   3.823   1.209  0.2948 -0.2514 -1.1210
  589MOL0     C81187   7.209   3.775   1.247 -0.5776 -0.0188 -0.2724
  589MOL0     C81188   7.307   3.894   1.217  0.4924  0.4892  0.2514
  589MOL0    Cl81189   7.303   3.952   1.048 -0.1191 -0.5282  0.0975
  589MOL0     C81190   6.328   3.546   0.903  0.0623  0.3035  0.2214
  589MOL0     C81191   6.190   3.542   0.925 -0.3321  0.1276  0.6457
  589MOL0     O81192   5.965   3.821   0.930 -0.1524 -0.2393 -0.4398
  589MOL0     C81193   5.703   3.602   0.784  0.4516  0.3120  0.4365
  589MOL0     C81194   5.578   3.623   0.726 -0.3568 -0.4555  0.6202
  589MOL0     N81195   4.857   3.905   0.401 -0.7553 -0.2169 -0.1719
  589MOL0     N81196   4.775   3.977   0.470  0.4640 -0.6828  0.3694
  589MOL0     C81197   3.997   4.148   1.447 -0.0911 -0.0882 -0.5174
  589MOL0     C81198   3.887   4.126   1.523  0.1000  0.4399 -0.2584
  589MOL0     C81199   3.539   4.107   1.809  1.3239 -0.1958 -0.5017
  589MOL0     C81200   3.418   4.139   1.743  1.4075  0.1522 -0.1996
  589MOL0     C81201   3.290   4.123   1.810 -0.1526  0.0431 -0.4356
  589MOL0     C81202   3.278   4.072   1.936  1.2778  0.5559 -0.4915
  589MOL0     O81203   3.147   4.060   1.999  0.1138 -0.3471 -0.3197
  589MOL0     C81204   3.127   4.016   2.135  0.2186 -0.4304 -0.2478
  589MOL0     C81205   3.125   4.138   2.230 -0.4500  0.2495  1.1158
  589MOL0     C81206   3.008   4.230   2.206 -0.1253  0.4526  0.0245
  589MOL0     C81207   2.991   4.347   2.309  0.5071 -0.4847  1.4945
  589MOL0     C81208   2.879   4.432   2.259  0.4719  1.1233 -0.2080
  589MOL0     C81209   2.786   4.491   2.215  0.0607 -0.5187 -0.5852
  589MOL0     C81210   3.403   4.045   1.997 -0.1500 -1.2749  1.2437
  589MOL0     C81211   3.524   4.052   1.941 -1.0548  0.1524 -0.5842
  589MOL0     C81212   3.642   4.031   2.036 -0.8240 -0.2269 -0.2688
  589MOL0     H81213   3.776   4.447   1.553 -0.5828 -0.1139 -0.6033
  589MOL0     H81214   3.976   4.488   1.416 -3.5913  0.9460 -0.5545
  589MOL0     H81215   4.151   4.137   1.188  0.1356  0.9914 -1.7280
  589MOL0     H81216   4.251   4.136   1.333 -0.0102  1.1880  1.1020
  589MOL0     H81217   4.288   4.351   1.120  1.7607  2.3426  1.7467
  589MOL0     H81218   4.392   4.314   1.253  1.5201  1.4464 -1.5516
  589MOL0     H81219   4.442   4.081   1.142 -1.9335 -0.8596 -0.1988
  589MOL0     H81220   4.350   4.140   1.011 -2.4767 -1.9295  2.3149
  589MOL0     H81221   4.505   4.345   1.030 -3.4994  0.0108 -0.5446
  589MOL0     H81222   4.600   4.224   1.115  0.9839 -2.8417 -2.2525
  589MOL0     H81223   4.686   4.235   0.892 -0.9364  2.4306 -0.7137
  589MOL0     H81224   4.536   4.199   0.819  3.9754 -0.9029 -2.3674
  589MOL0     H81225   4.659   4.012   1.034  0.4449 -3.2183  0.0434
  589MOL0     H81226   4.514   3.987   0.937  0.0688  0.9183  1.1225
  589MOL0     H81227   4.692   3.860   0.857  1.1131  0.6397  2.5030
  589MOL0     H81228   4.808   3.997   0.840  0.7796 -1.4054 -1.4750
  589MOL0     H81229   4.561   3.957   0.675  0.5891 -0.6776  0.0699
  589MOL0     H81230   4.670   4.094   0.664 -0.5865 -0.3466 -0.9322
  589MOL0     H81231   4.861   3.780   0.708  4.4005  1.6861 -0.6953
  589MOL0     H81232   5.031   3.735   0.373 -1.8023  4.6506  0.2658
  589MOL0     H81233   4.951   3.608   0.461  0.7043  0.8738  1.5350
  589MOL0     H81234   5.067   3.720   0.681 -0.0612 -0.6473  0.3827
  589MOL0     H81235   5.177   3.632   0.573  3.4062  2.4624 -0.8775
  589MOL0     H81236   5.239   3.832   0.465 -0.3712 -0.1276  0.7401
  589MOL0     H81237   5.125   3.931   0.567  0.6500  0.4486  2.8396
  589MOL0     H81238   5.343   3.955   0.671 -0.7100  0.0221  1.0288
  589MOL0     H81239   5.254   3.850   0.766 -0.4779 -0.2041  0.8365
  589MOL0     H81240   5.514   3.941   0.784  1.1825  0.3561  3.5341
  589MOL0     H81241   5.766   3.967   1.009 -2.8171 -1.5968  1.0704
  589MOL0     H81242   5.655   4.046   0.899  1.1215  0.5449  3.8026
  589MOL0     H81243   5.801   4.029   0.833 -1.2675 -1.2446 -1.1886
  589MOL0     H81244   6.114   3.785   0.688  0.4247  1.4912  0.4662
  589MOL0     H81245   6.360   3.780   0.657  1.1774 -0.4956 -0.3232
  589MOL0     H81246   6.598   3.495   0.894  0.6480  0.4524  2.6401
  589MOL0     H81247   6.718   3.602   0.833  0.2706  1.0171  0.5619
  589MOL0     H81248   6.598   3.771   1.016 -2.0449 -0.9023  0.5098
  589MOL0     H81249   6.529   3.627   1.073 -2.2463  1.8753 -0.4753
  589MOL0     H81250   6.802   3.547   1.056 -0.2581  0.9427 -0.8862
  589MOL0     H81251   6.707   3.586   1.200 -0.8875  0.8851  1.1993
  589MOL0     H81252   6.805   3.821   1.177  0.2817  0.5416 -0.8272
  589MOL0     H81253   6.868   3.755   1.012 -0.8174  0.3570  0.0280
  589MOL0     H81254   6.965   3.668   1.286  3.0901  1.1832  0.6985
  589MOL0     H81255   7.033   3.622   1.125 -0.9718 -0.4063  0.2853
  589MOL0     H81256   7.025   3.891   1.283 -0.1109  1.0550 -2.5022
  589MOL0     H81257   7.078   3.878   1.115  0.1329  2.2804  0.2612
  589MOL0     H81258   7.235   3.688   1.185  0.1668 -1.3768  1.8182
  589MOL0     H81259   7.216   3.753   1.354 -2.4869  1.3748  0.1844
  589MOL0     H81260   7.409   3.869   1.248  0.5541 -0.0233 -0.3430
  589MOL0     H81261   7.264   3.973   1.280 -0.0756 -0.6943  1.4077
  589MOL0     H81262   6.388   3.485   0.970  0.2843 -1.8587 -1.8064
  589MOL0     H81263   6.125   3.477   0.983 -1.9841  0.1376 -1.0928
  589MOL0     H81264   5.752   3.507   0.773 -0.1201 -0.1663  1.7963
  589MOL0     H81265   5.542   3.539   0.668  0.7564 -1.1761  0.9386
  589MOL0     H81266   4.052   4.062   1.410  2.1436  0.5728  1.0333
  589MOL0     H81267   3.874   4.022   1.553 -1.4970  0.9633  0.9726
  589MOL0     H81268   3.405   4.181   1.644  2.1394  0.1518 -0.3017
  589MOL0     H81269   3.201   4.142   1.750 -2.9926 -1.6345  2.8780
  589MOL0     H81270   3.031   3.965   2.147  0.0317  0.1501  0.8997
  589MOL0     H81271   3.199   3.942   2.172  1.8255 -0.0904 -2.4855
  589MOL0     H81272   3.211   4.204   2.215 -0.7355  0.2300 -0.8619
  589MOL0     H81273   3.117   4.099   2.332  2.2594  0.2191  1.3886
  589MOL0     H81274   2.997   4.268   2.104  1.2340  0.8343  0.0004
  589MOL0     H81275   2.924   4.160   2.213 -1.5214  1.4516 -4.0230
  589MOL0     H81276   3.083   4.404   2.328 -1.4325  3.2804  0.5347
  589MOL0     H81277   2.949   4.300   2.398 -3.8790 -0.5488 -0.3456
  589MOL0     H81278   2.702   4.554   2.191  0.1506 -0.4831 -0.8090
  589MOL0     H81279   3.394   4.010   2.099 -0.6255 -3.4292  0.5112
  589MOL0     H81280   3.625   4.015   2.142  3.6759 -0.6504  0.6176
  589MOL0     H81281   3.706   3.948   2.004 -2.3876 -1.0876 -1.3008
  589MOL0     H81282   3.705   4.120   2.025 -1.6862  0.4183 -0.0089
  590MOL0     O81283   3.516   5.921   7.301 -0.1392 -0.5555  0.2665
  590MOL0     C81284   3.450   6.026   7.309  0.2612  0.1287 -1.0431
  590MOL0     O81285   3.495   6.147   7.359 -0.1172  0.0838  0.4900
  590MOL0     C81286   3.624   6.176   7.379  0.6011  0.5546 -0.3344
  590MOL0     C81287   3.698   6.114   7.483 -0.5583 -0.0026  0.3375
  590MOL0     C81288   3.836   6.138   7.501  0.2586  0.3325 -0.2608
  590MOL0     C81289   3.910   6.227   7.409 -0.5880 -0.7324 -0.8278
  590MOL0     O81290   4.038   6.262   7.439  0.1013 -0.3245 -0.8629
  590MOL0     C81291   4.118   6.260   7.322  0.2018  0.0940 -1.2195
  590MOL0     C81292   4.261   6.276   7.353 -0.4539 -0.0472 -0.2939
  590MOL0     C81293   4.289   6.423   7.414 -0.0906  0.4643 -0.6852
  590MOL0     C81294   4.441   6.435   7.434 -0.3316 -0.6025 -0.3015
  590MOL0     C81295   4.468   6.574   7.507 -0.0799  0.5381 -0.0516
  590MOL0     C81296   4.602   6.564   7.572  0.1951 -0.3327  0.1015
  590MOL0     C81297   4.665   6.699   7.610  0.2960  0.4673  0.3463
  590MOL0     C81298   4.734   6.773   7.498  0.2420  0.1830 -0.2385
  590MOL0     N81299   4.787   6.903   7.547 -0.3745  0.8192 -1.0880
  590MOL0     C81300   4.797   7.010   7.470  0.4338  0.5665 -0.0792
  590MOL0     C81301   4.900   7.082   7.524  0.2896 -0.1694 -0.0838
  590MOL0     C81302   4.963   7.208   7.478 -0.2757  0.0334  0.1475
  590MOL0     C81303   4.865   7.330   7.515  0.2641 -0.5671  0.1872
  590MOL0     C81304   4.884   7.448   7.428  1.0203  0.2691 -0.2835
  590MOL0     C81305   5.032   7.498   7.413 -0.2825  0.8601 -0.4716
  590MOL0     O81306   5.070   7.582   7.527  1.1063  0.5408 -0.8476
  590MOL0     C81307   5.197   7.627   7.525  0.5232 -0.9147 -0.1354
  590MOL0     C81308   5.299   7.590   7.435 -0.0431  0.8289 -0.3376
  590MOL0     C81309   5.426   7.648   7.446  0.2533  1.0941  0.1420
  590MOL0     C81310   5.537   7.620   7.345 -0.0061  0.0169 -0.4007
  590MOL0     C81311   5.449   7.750   7.545  1.2429 -1.1252 -0.3408
  590MOL0     C81312   5.569   7.829   7.565 -0.6864  0.1227  0.2808
  590MOL0     O81313   5.559   7.957   7.606  0.5573 -0.0328  0.2205
  590MOL0     C81314   5.659   8.033   7.660  0.0057  0.9646  0.3099
  590MOL0     C81315   5.622   8.129   7.755 -0.2138 -0.2349 -0.6821
  590MOL0     C81316   5.717   8.214   7.806  0.0982  0.3639 -0.0555
  590MOL0     C81317   5.849   8.209   7.770 -0.5019  0.9364 -0.5388
  590MOL0     O81318   5.932   8.296   7.837 -0.2173 -0.2858 -0.8043
  590MOL0     C81319   6.037   8.344   7.755  0.1194  0.8509 -0.0816
  590MOL0     C81320   6.083   8.478   7.812 -0.5488  0.3379  0.6094
  590MOL0     C81321   6.155   8.569   7.708  0.3795  0.0018  0.8088
  590MOL0     C81322   6.287   8.617   7.753  0.2261 -0.0298 -0.3733
  590MOL0     C81323   6.297   8.723   7.870 -0.2875  1.0226 -0.7422
  590MOL0     C81324   6.440   8.746   7.912  0.4700  0.5156  0.0593
  590MOL0     C81325   6.441   8.870   8.016 -0.0546 -0.5584 -0.1675
  590MOL0     C81326   6.580   8.939   8.027  0.7520 -0.5871  0.4756
  590MOL0    Cl81327   6.588   9.053   8.163  0.3719 -0.1308  0.1608
  590MOL0     C81328   5.898   8.104   7.684  0.1237 -0.5433  0.3190
  590MOL0     C81329   5.795   8.029   7.622 -0.5906  1.0998 -0.7725
  590MOL0     O81330   5.675   7.764   7.570 -0.1403  0.1128 -0.2058
  590MOL0     C81331   5.347   7.790   7.629  0.3477 -0.6671  0.2759
  590MOL0     C81332   5.225   7.719   7.627 -0.1797 -0.1989 -0.9605
  590MOL0     N81333   4.938   7.022   7.640 -0.0069  0.3425  0.9151
  590MOL0     N81334   4.876   6.909   7.652  0.8001  0.7343 -0.0423
  590MOL0     C81335   3.836   6.279   7.303  1.0120  0.1354  0.0512
  590MOL0     C81336   3.699   6.262   7.299  0.3352 -0.8358 -0.2001
  590MOL0     C81337   3.308   6.021   7.266  0.9281  1.5340  0.7020
  590MOL0     C81338   3.220   6.094   7.340 -0.8758  0.3052  0.0455
  590MOL0     C81339   3.087   6.091   7.314  0.6621  0.9548 -0.8305
  590MOL0     C81340   3.032   6.030   7.199  0.7640 -1.4067 -0.0555
  590MOL0     O81341   2.897   6.040   7.162  0.5743 -0.6902 -0.0924
  590MOL0     C81342   2.815   5.925   7.188  0.0228  0.9015  0.3227
  590MOL0     C81343   2.683   5.979   7.222  0.7263 -0.1585 -0.0794
  590MOL0     C81344   2.577   5.870   7.255 -0.0247 -1.1615 -0.5385
  590MOL0     C81345   2.443   5.928   7.306 -0.5368 -1.3657 -0.2637
  590MOL0     C81346   2.445   5.940   7.451 -0.5029 -0.5478 -0.8869
  590MOL0     C81347   2.443   5.940   7.574 -0.6471  0.7594  0.5625
  590MOL0     C81348   3.124   5.962   7.123  1.2872  0.9026 -0.6820
  590MOL0     C81349   3.268   5.952   7.148 -0.1115 -0.4207 -0.8532
  590MOL0     C81350   3.346   5.859   7.060  0.1629 -0.0906  0.1674
  590MOL0     H81351   3.639   6.063   7.559 -1.2184  1.7890  1.0767
  590MOL0     H81352   3.885   6.076   7.575  3.1763  0.3570 -2.0257
  590MOL0     H81353   4.096   6.342   7.253 -1.2669  1.1242  0.4134
  590MOL0     H81354   4.119   6.156   7.288  1.2750 -0.8542  1.4642
  590MOL0     H81355   4.298   6.205   7.427  2.3920 -1.3094 -2.7259
  590MOL0     H81356   4.310   6.265   7.256 -2.0480 -0.1864 -1.1215
  590MOL0     H81357   4.255   6.501   7.345 -0.9407 -1.1980 -2.2326
  590MOL0     H81358   4.234   6.451   7.505  0.7711  0.6966 -0.2277
  590MOL0     H81359   4.470   6.356   7.503  0.9490  0.6293  0.6247
  590MOL0     H81360   4.486   6.428   7.334  0.5426  1.2506 -0.0760
  590MOL0     H81361   4.392   6.587   7.585 -1.2567 -2.1020 -0.6185
  590MOL0     H81362   4.465   6.653   7.431  1.1230  0.9413  0.3064
  590MOL0     H81363   4.598   6.507   7.665  2.3889 -2.3414 -0.9281
  590MOL0     H81364   4.678   6.520   7.506 -2.5962  1.2418 -4.6875
  590MOL0     H81365   4.739   6.674   7.687  3.5242  1.7255 -2.0727
  590MOL0     H81366   4.588   6.767   7.645  0.9880  1.5040 -0.1094
  590MOL0     H81367   4.815   6.710   7.463 -2.0763 -1.4373 -3.1418
  590MOL0     H81368   4.669   6.771   7.410 -1.2366 -2.2664  0.7917
  590MOL0     H81369   4.738   7.019   7.379 -0.4850  0.1478  0.4655
  590MOL0     H81370   4.972   7.195   7.370  0.2168 -2.2391  0.4256
  590MOL0     H81371   5.061   7.221   7.525 -1.0587  1.6379  1.4656
  590MOL0     H81372   4.761   7.298   7.503 -0.3515  0.4937  2.2840
  590MOL0     H81373   4.869   7.373   7.615 -1.5949 -0.1749  0.1309
  590MOL0     H81374   4.841   7.415   7.333  0.5935 -1.4183  0.4673
  590MOL0     H81375   4.829   7.533   7.470 -2.8925 -2.1462 -0.0643
  590MOL0     H81376   5.099   7.412   7.405 -2.5004 -0.7797 -2.9913
  590MOL0     H81377   5.032   7.545   7.314  0.3676  0.5413 -0.6285
  590MOL0     H81378   5.287   7.528   7.346  1.0959  1.3273 -0.8603
  590MOL0     H81379   5.501   7.556   7.264 -0.0793 -0.5335  0.0606
  590MOL0     H81380   5.612   7.566   7.403 -1.4488 -1.4949  0.1039
  590MOL0     H81381   5.577   7.713   7.304  0.7373 -0.0864  0.0717
  590MOL0     H81382   5.521   8.126   7.794  0.8164  0.8831  2.3552
  590MOL0     H81383   5.699   8.294   7.877  0.7652  2.3208 -1.9821
  590MOL0     H81384   6.121   8.275   7.743 -0.8037 -0.1139 -1.2546
  590MOL0     H81385   6.008   8.346   7.650 -0.4993 -1.5444 -0.0152
  590MOL0     H81386   5.994   8.534   7.843  0.4617  2.9474 -0.8660
  590MOL0     H81387   6.156   8.457   7.891  1.6819 -0.9829 -1.6566
  590MOL0     H81388   6.097   8.659   7.686  1.2478  0.4772  0.4132
  590MOL0     H81389   6.175   8.512   7.617  1.8086 -0.9120  1.6571
  590MOL0     H81390   6.338   8.664   7.668 -0.7128 -0.3050 -1.1124
  590MOL0     H81391   6.344   8.528   7.780 -0.1362  0.2809  1.6125
  590MOL0     H81392   6.251   8.815   7.834 -4.0815 -0.4232 -0.0684
  590MOL0     H81393   6.245   8.685   7.959 -0.3337 -0.8952 -1.5282
  590MOL0     H81394   6.503   8.768   7.826 -1.5530  1.0934 -1.3445
  590MOL0     H81395   6.483   8.662   7.967  2.3830  1.3703 -0.0584
  590MOL0     H81396   6.407   8.841   8.116  1.1396 -0.3978  0.3051
  590MOL0     H81397   6.379   8.946   7.968  3.2956  0.6857 -2.9656
  590MOL0     H81398   6.595   8.995   7.935 -1.4778  0.3179  0.6176
  590MOL0     H81399   6.656   8.860   8.036  0.2638 -0.9837  1.2777
  590MOL0     H81400   6.003   8.098   7.657 -0.2083  1.5186 -1.8552
  590MOL0     H81401   5.828   7.963   7.542  0.4994  0.3241  0.2795
  590MOL0     H81402   5.364   7.860   7.711  1.1349 -0.7939  0.2360
  590MOL0     H81403   5.145   7.736   7.698  0.5949  0.3420 -0.1965
  590MOL0     H81404   3.893   6.344   7.237  2.5253 -0.6472  0.5384
  590MOL0     H81405   3.648   6.311   7.217 -1.6124  2.2493  2.5905
  590MOL0     H81406   3.254   6.146   7.429 -0.0532  0.7702 -0.5282
  590MOL0     H81407   3.023   6.150   7.380 -0.1510  1.9373 -2.4173
  590MOL0     H81408   2.815   5.856   7.103  1.0455  1.7669 -0.3975
  590MOL0     H81409   2.852   5.865   7.272  2.1416 -1.4731 -2.1230
  590MOL0     H81410   2.647   6.039   7.138  2.6454  1.9540  0.4900
  590MOL0     H81411   2.704   6.041   7.310  1.9343 -3.4598  2.1154
  590MOL0     H81412   2.548   5.817   7.165 -1.3060  0.8027 -1.3443
  590MOL0     H81413   2.619   5.800   7.329  1.8412  1.3781  0.9811
  590MOL0     H81414   2.363   5.853   7.304 -5.4485  3.0846  2.6731
  590MOL0     H81415   2.414   6.018   7.252 -0.4498 -0.3957  1.2280
  590MOL0     H81416   2.443   5.920   7.679 -1.6953 -0.3888  0.3751
  590MOL0     H81417   3.092   5.908   7.035  0.6689 -0.1493  0.1526
  590MOL0     H81418   3.441   5.904   7.031  0.1525 -0.8886 -1.1878
  590MOL0     H81419   3.366   5.764   7.111  2.4324  1.0010  1.4564
  590MOL0     H81420   3.286   5.827   6.974  1.5598 -0.2725 -0.7762
  591MOL0     O81421   3.341   8.222   5.522  0.6730  0.3534  0.1352
  591MOL0     C81422   3.277   8.178   5.616  0.1724 -0.5662 -0.0888
  591MOL0     O81423   3.324   8.089   5.704 -0.1634  0.1702  0.4893
  591MOL0     C81424   3.457   8.084   5.712 -0.1210  0.6642 -0.5916
  591MOL0     C81425   3.528   8.162   5.808  0.4588  0.8474  0.6486
  591MOL0     C81426   3.668   8.135   5.830  0.0518  0.8871  0.5417
  591MOL0     C81427   3.737   8.030   5.760  0.3400  0.1667  0.3986
  591MOL0     O81428   3.871   8.034   5.769  0.1217 -0.7391 -0.0695
  591MOL0     C81429   3.945   7.966   5.669 -0.1731  0.0347 -0.5510
  591MOL0     C81430   4.095   7.972   5.703  0.3503 -0.5470  0.1096
  591MOL0     C81431   4.138   8.123   5.736  0.6312  0.5613  0.3337
  591MOL0     C81432   4.286   8.121   5.760 -0.2544  0.2916  0.0247
  591MOL0     C81433   4.350   8.245   5.825  0.0845  0.1682 -0.0195
  591MOL0     C81434   4.272   8.277   5.951 -0.0941 -0.0381 -0.0075
  591MOL0     C81435   4.304   8.411   6.005 -0.5781 -0.2422 -0.0510
  591MOL0     C81436   4.231   8.433   6.139 -0.0913 -0.6086  0.6555
  591MOL0     N81437   4.253   8.575   6.180  0.2550  0.0807 -0.0780
  591MOL0     C81438   4.379   8.630   6.204 -0.0752 -0.0076  0.3134
  591MOL0     C81439   4.348   8.756   6.243  0.0562 -0.3327  1.1229
  591MOL0     C81440   4.453   8.861   6.280 -0.0256  0.9888  0.8437
  591MOL0     C81441   4.466   8.964   6.165  0.5148  0.1339  0.3288
  591MOL0     C81442   4.569   9.070   6.214 -0.9544 -0.1221 -0.1671
  591MOL0     C81443   4.610   9.164   6.100  0.3192 -0.2999 -0.5997
  591MOL0     O81444   4.705   9.266   6.129  0.5121 -0.3296  0.3303
  591MOL0     C81445   4.836   9.245   6.108 -0.8102 -0.2705  0.0497
  591MOL0     C81446   4.925   9.348   6.133  0.5345 -0.6886  0.3144
  591MOL0     C81447   5.058   9.336   6.131 -0.0629  0.0578 -0.6737
  591MOL0     C81448   5.134   9.469   6.141  0.4832  0.3190 -0.3570
  591MOL0     C81449   5.115   9.206   6.117 -0.0659  1.1115 -0.2799
  591MOL0     C81450   5.265   9.178   6.148  0.5550 -0.2750  0.5113
  591MOL0     O81451   5.294   9.043   6.133 -0.3712  0.0360 -0.6081
  591MOL0     C81452   5.419   8.997   6.160  0.2087 -0.6287 -0.3714
  591MOL0     C81453   5.440   8.902   6.261  0.3908  0.0617  0.8166
  591MOL0     C81454   5.568   8.848   6.265  0.4628  0.9745  0.2889
  591MOL0     C81455   5.670   8.884   6.174 -0.2675  0.7781 -0.3933
  591MOL0     O81456   5.792   8.828   6.175  0.3237  0.4484  0.0792
  591MOL0     C81457   5.855   8.794   6.304 -0.1412 -0.2061 -0.5191
  591MOL0     C81458   5.970   8.695   6.278 -0.4390 -0.2361 -0.0085
  591MOL0     C81459   6.086   8.760   6.185 -1.1476  0.2777  0.5111
  591MOL0     C81460   6.214   8.673   6.170 -0.3991  0.2362 -0.4504
  591MOL0     C81461   6.313   8.678   6.286  0.9632  0.1098 -0.0672
  591MOL0     C81462   6.468   8.653   6.260  0.8249 -0.9877 -1.4607
  591MOL0     C81463   6.488   8.525   6.188  0.3211  0.8480 -0.0840
  591MOL0     C81464   6.642   8.496   6.140  0.3222 -0.3377  0.8418
  591MOL0    Cl81465   6.647   8.379   6.000  0.4615 -0.0013 -0.3879
  591MOL0     C81466   5.646   8.976   6.067 -0.2630  0.2287 -0.1206
  591MOL0     C81467   5.528   9.042   6.077  0.7154  0.8747 -0.2116
  591MOL0     O81468   5.341   9.261   6.197 -0.5084 -0.1608  0.4479
  591MOL0     C81469   5.025   9.092   6.097 -0.1176  0.6471 -0.9153
  591MOL0     C81470   4.887   9.117   6.090  0.3268  0.9419 -0.2946
  591MOL0     N81471   4.211   8.782   6.237  0.1431  0.4044  0.1197
  591MOL0     N81472   4.158   8.669   6.190  0.5919 -0.7063 -0.1399
  591MOL0     C81473   3.656   7.954   5.670  1.0396 -0.6652  0.2179
  591MOL0     C81474   3.516   7.975   5.652 -0.5436  0.1068 -0.9062
  591MOL0     C81475   3.134   8.199   5.632 -0.9311  0.2702  0.5234
  591MOL0     C81476   3.057   8.091   5.665  0.1756  0.9065 -0.6213
  591MOL0     C81477   2.915   8.096   5.674 -0.3193  0.5115  0.0172
  591MOL0     C81478   2.853   8.220   5.649  0.2101  1.0879 -0.1481
  591MOL0     O81479   2.723   8.250   5.675 -0.6729 -0.4014 -0.6748
  591MOL0     C81480   2.631   8.144   5.632 -0.3414  0.3525  0.5226
  591MOL0     C81481   2.496   8.206   5.626 -0.3526  0.1872 -0.1804
  591MOL0     C81482   2.490   8.338   5.548  0.8309 -0.9176  0.4001
  591MOL0     C81483   2.356   8.419   5.562  0.3311  0.1116  0.0945
  591MOL0     C81484   2.237   8.347   5.515  0.3466 -0.0201  1.2210
  591MOL0     C81485   2.143   8.289   5.478  0.6293 -0.3473  0.3319
  591MOL0     C81486   2.930   8.325   5.623  1.0394 -1.1213  0.2703
  591MOL0     C81487   3.067   8.314   5.599 -0.1896  0.4380  0.3232
  591MOL0     C81488   3.145   8.428   5.537 -0.0266 -0.0316  0.3320
  591MOL0     H81489   3.465   8.236   5.857 -0.0861  0.0193  1.2290
  591MOL0     H81490   3.711   8.216   5.888 -1.5883  3.5313 -1.6987
  591MOL0     H81491   3.946   8.003   5.567  1.6311 -1.3227 -1.0833
  591MOL0     H81492   3.912   7.862   5.673 -0.3817  0.0536 -1.6205
  591MOL0     H81493   4.113   7.926   5.800  3.3321 -0.2298 -0.2057
  591MOL0     H81494   4.158   7.919   5.632  0.2244  0.7346 -0.9956
  591MOL0     H81495   4.115   8.186   5.650 -1.1998  1.0640  1.1257
  591MOL0     H81496   4.075   8.155   5.820  0.2012  3.1487 -0.8744
  591MOL0     H81497   4.290   8.041   5.834 -0.9854  0.0765 -0.1570
  591MOL0     H81498   4.345   8.092   5.672 -0.3265 -0.6779  0.2892
  591MOL0     H81499   4.339   8.327   5.753 -1.2144 -0.2119 -0.2842
  591MOL0     H81500   4.456   8.224   5.842 -0.2268 -3.3771 -1.6150
  591MOL0     H81501   4.165   8.293   5.935  0.1045  3.3218  1.2544
  591MOL0     H81502   4.294   8.204   6.030 -0.6770  0.0795  0.2626
  591MOL0     H81503   4.275   8.483   5.928 -2.4121 -0.3808  0.4457
  591MOL0     H81504   4.412   8.413   6.017 -0.4449 -3.4989  0.0318
  591MOL0     H81505   4.124   8.416   6.125 -0.2001 -0.3353  1.1298
  591MOL0     H81506   4.256   8.367   6.222  2.3286  0.8871  1.1919
  591MOL0     H81507   4.476   8.585   6.187  0.6963  1.5384  0.4486
  591MOL0     H81508   4.554   8.824   6.300 -0.2931  1.0926  2.4982
  591MOL0     H81509   4.419   8.910   6.372 -2.8430 -1.3671  1.2027
  591MOL0     H81510   4.515   8.909   6.084  0.0840 -0.3098  0.3687
  591MOL0     H81511   4.370   9.010   6.140 -0.0052  0.2165  2.2911
  591MOL0     H81512   4.524   9.126   6.296  0.8095 -2.1714  2.3538
  591MOL0     H81513   4.657   9.018   6.253  1.7862  2.9389 -1.7621
  591MOL0     H81514   4.627   9.104   6.010  2.0736  0.1153 -0.5942
  591MOL0     H81515   4.519   9.221   6.084 -1.7942 -2.4370  2.6597
  591MOL0     H81516   4.882   9.448   6.134 -1.0721 -1.3327  1.6537
  591MOL0     H81517   5.221   9.465   6.208  0.4608 -1.3743 -0.3885
  591MOL0     H81518   5.077   9.548   6.191  1.9442  0.5384  1.0921
  591MOL0     H81519   5.185   9.493   6.047  1.3493 -0.6740 -0.1661
  591MOL0     H81520   5.361   8.855   6.318 -1.3758  1.5759 -0.2648
  591MOL0     H81521   5.596   8.769   6.333 -1.1333 -0.5974 -0.7807
  591MOL0     H81522   5.876   8.891   6.350 -2.9214  0.6714 -0.9420
  591MOL0     H81523   5.781   8.744   6.366 -2.7227 -0.7986 -3.7771
  591MOL0     H81524   6.006   8.686   6.381 -1.1482 -0.8088  0.1998
  591MOL0     H81525   5.942   8.602   6.229  2.0541 -0.8736 -0.3657
  591MOL0     H81526   6.105   8.855   6.235 -1.1791 -1.1210  3.4471
  591MOL0     H81527   6.039   8.774   6.088 -0.5759  1.8027  0.4391
  591MOL0     H81528   6.271   8.694   6.080 -0.2600  1.6043 -0.0698
  591MOL0     H81529   6.187   8.569   6.151  2.2586 -0.4095 -0.9933
  591MOL0     H81530   6.310   8.783   6.317  0.7922  0.4050 -1.0582
  591MOL0     H81531   6.279   8.618   6.372  2.6958 -2.0685 -0.8056
  591MOL0     H81532   6.521   8.652   6.355  2.1334 -3.7600 -2.1122
  591MOL0     H81533   6.494   8.745   6.208 -1.3643  1.3814  1.3187
  591MOL0     H81534   6.434   8.535   6.093 -0.3191 -1.5573 -0.0171
  591MOL0     H81535   6.466   8.430   6.237  3.9138 -0.1966 -0.1862
  591MOL0     H81536   6.706   8.453   6.218  1.6406  2.4136  1.4361
  591MOL0     H81537   6.684   8.588   6.097 -2.5808  0.9100  0.4035
  591MOL0     H81538   5.718   8.992   5.988 -0.8237  0.5187 -0.5778
  591MOL0     H81539   5.493   9.113   6.003  0.5205  1.3216  0.3137
  591MOL0     H81540   5.062   8.990   6.092 -2.7858 -0.4248 -0.2583
  591MOL0     H81541   4.828   9.027   6.083  2.6637 -0.7499  0.3668
  591MOL0     H81542   3.691   7.860   5.631 -1.8413 -0.9701 -1.9485
  591MOL0     H81543   3.454   7.911   5.590 -1.5413  0.3071 -0.1315
  591MOL0     H81544   3.104   7.993   5.670 -0.3826  0.6996  1.8820
  591MOL0     H81545   2.863   8.001   5.678  0.4545 -0.0862 -2.5081
  591MOL0     H81546   2.665   8.101   5.538  0.8476  0.5767  0.8300
  591MOL0     H81547   2.629   8.060   5.703  0.1392  1.0809  1.4271
  591MOL0     H81548   2.468   8.216   5.731  1.3072 -2.0623  0.5624
  591MOL0     H81549   2.433   8.126   5.586  1.7355 -1.4042 -0.4681
  591MOL0     H81550   2.566   8.410   5.578  0.2895 -0.1215 -0.1139
  591MOL0     H81551   2.505   8.326   5.440  0.5922  1.6246  0.0229
  591MOL0     H81552   2.382   8.507   5.502  1.7443  1.2044  2.1670
  591MOL0     H81553   2.331   8.460   5.660  1.3327  1.2734 -0.1080
  591MOL0     H81554   2.045   8.255   5.451 -0.3988  1.0336  2.1146
  591MOL0     H81555   2.873   8.417   5.616 -0.6158 -2.1977 -0.9335
  591MOL0     H81556   3.231   8.443   5.603  0.9899 -2.2408 -0.3889
  591MOL0     H81557   3.173   8.384   5.441 -1.2112 -1.6617  0.6965
  591MOL0     H81558   3.086   8.520   5.535  0.9416  0.6395  1.2948
  592MOL0     O81559   9.858   6.279  10.594 -0.4148 -0.3080  0.8084
  592MOL0     C81560   9.791   6.186  10.561  0.3624  0.6020 -0.6510
  592MOL0     O81561   9.849   6.060  10.535 -0.3122 -0.1687  0.4636
  592MOL0     C81562   9.977   6.050  10.573 -0.6442  0.3613  1.2581
  592MOL0     C81563  10.084   6.049  10.476 -0.2201 -0.1486  0.7922
  592MOL0     C81564  10.219   6.006  10.510 -0.1900  0.7549 -0.7035
  592MOL0     C81565  10.249   5.970  10.642 -0.0437 -0.3606  0.5138
  592MOL0     O81566  10.372   5.916  10.667  0.4463  0.0645  0.1884
  592MOL0     C81567  10.426   5.944  10.796  0.0696 -0.1467  0.0539
  592MOL0     C81568  10.567   5.880  10.812 -1.2161 -0.5706 -0.4778
  592MOL0     C81569  10.656   5.953  10.717 -0.3710  0.6219 -0.6217
  592MOL0     C81570  10.806   5.928  10.747 -0.0731 -0.2840 -0.3606
  592MOL0     C81571  10.897   5.890  10.623 -0.0079  0.0089 -0.1966
  592MOL0     C81572  10.900   6.002  10.522 -0.0337 -0.1719  0.0636
  592MOL0     C81573  10.988   5.946  10.410 -0.2519  0.2486 -0.1431
  592MOL0     C81574  11.026   6.055  10.310  0.2681 -0.8118 -0.0183
  592MOL0     N81575  11.135   6.021  10.222  1.4096  0.6868  0.4344
  592MOL0     C81576  11.135   5.924  10.129  0.1227 -1.1354 -0.0437
  592MOL0     C81577  11.253   5.942  10.062 -0.5990  0.9155  0.4004
  592MOL0     C81578  11.320   5.862   9.949 -0.3015 -0.1873  0.0351
  592MOL0     C81579  11.309   5.719   9.981 -0.5863  0.0604 -0.0558
  592MOL0     C81580  11.348   5.628   9.869 -0.5531 -0.0862  0.0292
  592MOL0     C81581  11.326   5.475   9.914  0.0327 -0.5755 -0.1637
  592MOL0     O81582  11.260   5.416   9.805  0.3414 -0.3376  0.1412
  592MOL0     C81583  11.124   5.405   9.805  0.0252  0.6426 -0.5329
  592MOL0     C81584  11.060   5.332   9.705  0.5682 -0.5913  0.1176
  592MOL0     C81585  10.920   5.323   9.700  1.2038  0.3463  0.8525
  592MOL0     C81586  10.880   5.227   9.592 -0.2772  0.3280 -0.0475
  592MOL0     C81587  10.838   5.385   9.792  0.2133 -0.3716  0.1855
  592MOL0     C81588  10.695   5.374   9.795  0.8212  0.1316 -0.4352
  592MOL0     O81589  10.627   5.485   9.846  0.2301  0.3826  0.4326
  592MOL0     C81590  10.486   5.483   9.854 -0.5288 -0.1799  1.0965
  592MOL0     C81591  10.405   5.414   9.755 -1.0177 -0.6277 -0.2802
  592MOL0     C81592  10.264   5.412   9.779 -0.7246 -0.4362  0.5353
  592MOL0     C81593  10.208   5.467   9.893 -0.4390 -0.7350  0.5745
  592MOL0     O81594  10.068   5.458   9.903 -0.0254 -0.5779 -0.4425
  592MOL0     C81595  10.005   5.530  10.010  0.5278 -0.7681  0.1128
  592MOL0     C81596   9.859   5.547   9.969 -0.3654 -0.0701 -0.5845
  592MOL0     C81597   9.769   5.426  10.002 -0.2235  0.3355  0.2689
  592MOL0     C81598   9.623   5.462   9.990 -0.2075  0.0781 -0.4407
  592MOL0     C81599   9.588   5.478   9.842 -0.4089  0.2504  0.6788
  592MOL0     C81600   9.448   5.528   9.811 -0.2668  0.2149 -0.1368
  592MOL0     C81601   9.435   5.557   9.670 -0.3281  0.8759  0.0571
  592MOL0     C81602   9.464   5.442   9.568  0.2557  0.1881  0.7781
  592MOL0    Cl81603   9.436   5.519   9.402  0.1513  0.4154 -0.2701
  592MOL0     C81604  10.287   5.536   9.990 -1.3973 -0.2226 -0.1179
  592MOL0     C81605  10.431   5.543   9.971 -0.2356 -0.8125  1.0155
  592MOL0     O81606  10.654   5.257   9.775 -0.6274 -0.4861 -0.2482
  592MOL0     C81607  10.902   5.468   9.888 -0.0002  0.2162 -0.3335
  592MOL0     C81608  11.044   5.467   9.894 -0.6717 -0.2452  0.2033
  592MOL0     N81609  11.329   6.038  10.126 -0.4111 -0.2478 -0.4718
  592MOL0     N81610  11.259   6.088  10.223  0.1738 -0.1576  0.2155
  592MOL0     C81611  10.144   5.972  10.732  0.3770 -0.5952  0.6607
  592MOL0     C81612  10.016   6.010  10.703  0.4790  0.2573  0.3007
  592MOL0     C81613   9.638   6.194  10.559  0.4189 -0.0385  0.0809
  592MOL0     C81614   9.557   6.081  10.597 -0.7719 -0.6160  0.9468
  592MOL0     C81615   9.420   6.080  10.582 -0.8209  0.3475  0.5565
  592MOL0     C81616   9.348   6.198  10.548  0.5649  0.5890  0.0193
  592MOL0     O81617   9.218   6.208  10.540  0.2659  0.8110  0.6087
  592MOL0     C81618   9.152   6.091  10.574  0.7221  0.7033  0.2736
  592MOL0     C81619   9.004   6.135  10.594  0.5710 -0.4393  0.4101
  592MOL0     C81620   8.952   6.233  10.499 -0.0344  0.6768 -0.1585
  592MOL0     C81621   8.797   6.237  10.523  0.5459  0.2535  0.7383
  592MOL0     C81622   8.740   6.361  10.463  0.3070  0.9229  0.9353
  592MOL0     C81623   8.668   6.451  10.436 -0.2134 -0.7618 -0.1896
  592MOL0     C81624   9.426   6.302  10.511  0.5882 -1.4833  0.4703
  592MOL0     C81625   9.565   6.302  10.508 -0.3854 -0.0207  0.1689
  592MOL0     C81626   9.646   6.427  10.469 -0.7482  0.9731 -0.5418
  592MOL0     H81627  10.064   6.071  10.372  0.0240 -1.6581  0.4013
  592MOL0     H81628  10.300   6.002  10.438  0.5238 -1.6330  0.1259
  592MOL0     H81629  10.355   5.910  10.872 -0.5701  0.0999 -0.4258
  592MOL0     H81630  10.435   6.052  10.805 -0.9414 -0.0842  0.4257
  592MOL0     H81631  10.594   5.887  10.918  0.7661  0.4653 -1.0097
  592MOL0     H81632  10.571   5.779  10.771 -0.8665 -0.7843  0.0796
  592MOL0     H81633  10.627   5.924  10.615 -1.7816 -1.4632  0.3158
  592MOL0     H81634  10.645   6.062  10.716 -0.6618  0.6103 -2.3424
  592MOL0     H81635  10.839   6.023  10.792  2.4937 -1.1355 -0.2290
  592MOL0     H81636  10.813   5.850  10.823 -0.7451 -0.0584 -0.0602
  592MOL0     H81637  10.885   5.793  10.576  0.7203  0.2867 -0.9811
  592MOL0     H81638  10.997   5.895  10.667 -1.1561  0.7765  2.5599
  592MOL0     H81639  10.798   6.029  10.495 -0.9174 -3.1827  0.0964
  592MOL0     H81640  10.943   6.091  10.570  1.1521 -1.3367  1.2520
  592MOL0     H81641  10.939   5.865  10.355 -2.2639 -0.4729  2.5127
  592MOL0     H81642  11.081   5.903  10.448 -0.4103 -1.2372 -1.3319
  592MOL0     H81643  10.939   6.073  10.247  2.0468  1.1339 -2.1180
  592MOL0     H81644  11.057   6.147  10.361  0.0242 -0.6063 -0.2411
  592MOL0     H81645  11.062   5.851  10.095 -4.1306  1.1254  3.2584
  592MOL0     H81646  11.425   5.895   9.945  0.2420 -1.6733  1.1360
  592MOL0     H81647  11.268   5.875   9.854 -3.2856  1.6118  1.7358
  592MOL0     H81648  11.362   5.692  10.073  1.7967  1.4231 -0.9441
  592MOL0     H81649  11.208   5.685  10.005 -1.4155  2.3958 -0.0030
  592MOL0     H81650  11.279   5.649   9.787 -1.2157 -2.6462 -0.1793
  592MOL0     H81651  11.447   5.645   9.825  0.1254 -0.0504  1.4933
  592MOL0     H81652  11.420   5.420   9.930  0.2768 -0.0117  0.4258
  592MOL0     H81653  11.267   5.461  10.005 -2.5763  1.0468 -1.5042
  592MOL0     H81654  11.125   5.293   9.628  1.6224  1.7177 -0.2615
  592MOL0     H81655  10.879   5.128   9.639  1.5513  0.4642  0.3716
  592MOL0     H81656  10.948   5.206   9.508  0.1865  1.8205 -0.0735
  592MOL0     H81657  10.780   5.251   9.554 -0.5579  4.5166  2.7618
  592MOL0     H81658  10.449   5.364   9.670 -0.3133  1.2653 -1.0830
  592MOL0     H81659  10.205   5.375   9.696  2.5156 -0.8988 -1.7169
  592MOL0     H81660  10.018   5.481  10.106 -2.1135 -2.3684 -0.2321
  592MOL0     H81661  10.052   5.629  10.012 -1.4543  0.2324  0.8293
  592MOL0     H81662   9.818   5.638  10.014 -0.4648 -0.5611  0.3473
  592MOL0     H81663   9.861   5.566   9.861 -0.5123  1.8959 -0.2729
  592MOL0     H81664   9.804   5.395  10.101  4.0165  2.6012 -0.2554
  592MOL0     H81665   9.789   5.347   9.929  0.6326  0.6653  0.1371
  592MOL0     H81666   9.601   5.558  10.036  1.7054  1.6250 -2.5043
  592MOL0     H81667   9.557   5.384  10.030  0.9784 -1.2784 -1.0388
  592MOL0     H81668   9.669   5.538   9.800 -0.7065  1.3601  1.6429
  592MOL0     H81669   9.605   5.380   9.797 -0.2271 -0.0160  1.3223
  592MOL0     H81670   9.427   5.615   9.873  0.0530  0.3992 -0.2818
  592MOL0     H81671   9.363   5.465   9.840 -1.0286  2.0682  1.9173
  592MOL0     H81672   9.494   5.646   9.646 -1.2670  1.1956 -1.1991
  592MOL0     H81673   9.331   5.588   9.652  0.0529  2.3383  0.2729
  592MOL0     H81674   9.381   5.372   9.583 -1.0624  0.8524 -2.5813
  592MOL0     H81675   9.557   5.385   9.577  0.0891 -0.9215 -2.9446
  592MOL0     H81676  10.244   5.573  10.083 -0.4508 -2.6420  1.3588
  592MOL0     H81677  10.488   5.601  10.042 -0.4153 -0.2056  0.6779
  592MOL0     H81678  10.847   5.517   9.966 -1.7605 -2.5420  0.3028
  592MOL0     H81679  11.091   5.534   9.966 -0.6455 -0.3980  0.3285
  592MOL0     H81680  10.159   5.929  10.831  1.0986 -1.4279  0.2088
  592MOL0     H81681   9.936   6.005  10.776  1.5592  0.1517  1.5114
  592MOL0     H81682   9.622   5.995  10.612  3.6538  2.3920  1.0024
  592MOL0     H81683   9.371   5.984  10.592 -2.5801  1.3703  2.6219
  592MOL0     H81684   9.149   6.030  10.483 -1.6925 -0.3602  1.0030
  592MOL0     H81685   9.187   6.034  10.660 -1.5107 -0.0097  0.7643
  592MOL0     H81686   8.985   6.161  10.698 -1.4488 -1.0827  0.2379
  592MOL0     H81687   8.948   6.041  10.587 -0.7259  0.2019  1.7952
  592MOL0     H81688   8.996   6.332  10.514  2.7789 -0.2671 -1.4475
  592MOL0     H81689   8.967   6.198  10.396 -3.3359 -2.7392  0.3240
  592MOL0     H81690   8.769   6.245  10.628 -0.9896 -1.5200  0.5207
  592MOL0     H81691   8.747   6.149  10.481  2.8521  0.3319 -2.5775
  592MOL0     H81692   8.607   6.535  10.410  1.0693  0.2343 -0.1019
  592MOL0     H81693   9.371   6.394  10.493  1.6680 -1.1169 -1.1604
  592MOL0     H81694   9.728   6.396  10.404 -1.2378  4.7105 -3.2709
  592MOL0     H81695   9.593   6.505  10.413  0.1503  2.5701  0.7395
  592MOL0     H81696   9.685   6.484  10.555  0.0082  0.4292 -0.5200
  593MOL0     O81697   7.590   8.075   0.808  0.2055  0.8205  0.1356
  593MOL0     C81698   7.585   8.114   0.923 -0.0216  0.4205 -0.2757
  593MOL0     O81699   7.684   8.097   1.016  0.0685  0.5117  0.3612
  593MOL0     C81700   7.786   8.014   0.969  1.1374  0.2465  0.4381
  593MOL0     C81701   7.772   7.874   0.971 -0.2264 -0.5225  0.0214
  593MOL0     C81702   7.874   7.795   0.922  0.2116 -0.5534 -0.2389
  593MOL0     C81703   7.983   7.850   0.846  0.2965  0.3844 -0.3591
  593MOL0     O81704   8.075   7.787   0.771 -0.4862 -0.1934  0.4412
  593MOL0     C81705   8.087   7.645   0.790 -0.3642 -0.7175  0.4870
  593MOL0     C81706   8.203   7.602   0.710  0.8657  0.8058  0.2216
  593MOL0     C81707   8.258   7.460   0.758 -0.1610  0.6182  0.1718
  593MOL0     C81708   8.390   7.437   0.680 -0.7023  0.1131  0.5378
  593MOL0     C81709   8.438   7.299   0.705 -0.3984 -0.7855 -1.1056
  593MOL0     C81710   8.582   7.290   0.669 -0.1199 -0.1859  0.2213
  593MOL0     C81711   8.643   7.150   0.668  0.7162  0.2890  0.1118
  593MOL0     C81712   8.780   7.144   0.599  0.1739 -0.6352 -0.1276
  593MOL0     N81713   8.771   7.133   0.448  0.1597  0.3175 -0.2623
  593MOL0     C81714   8.753   7.234   0.353 -0.6675 -0.3634  0.4139
  593MOL0     C81715   8.706   7.174   0.240  0.9248 -0.0975 -0.5932
  593MOL0     C81716   8.676   7.243   0.109  0.1657  0.2971  0.5069
  593MOL0     C81717   8.538   7.214   0.064  0.0625 -0.3809 -1.6016
  593MOL0     C81718   8.517   7.126  -0.065  0.0279 -0.6190  0.0506
  593MOL0     C81719   8.553   6.979  -0.040 -0.3800  0.1142  0.7566
  593MOL0     O81720   8.537   6.894  -0.167  0.0205  0.1294  0.0795
  593MOL0     C81721   8.416   6.885  -0.228 -0.9779  0.2855  0.8099
  593MOL0     C81722   8.413   6.810  -0.345 -0.3587 -1.4341 -0.0784
  593MOL0     C81723   8.290   6.774  -0.398  0.0643  0.2885 -0.7574
  593MOL0     C81724   8.297   6.665  -0.501  0.0107  0.4757  0.1715
  593MOL0     C81725   8.170   6.808  -0.339  0.4346 -0.1475 -0.2974
  593MOL0     C81726   8.038   6.769  -0.394 -0.3228  0.1930 -0.3288
  593MOL0     O81727   7.930   6.775  -0.300  0.1954  0.4890  0.6643
  593MOL0     C81728   7.806   6.714  -0.338 -0.4641 -0.0716 -0.8663
  593MOL0     C81729   7.685   6.766  -0.298  0.0963 -0.1803 -0.7086
  593MOL0     C81730   7.566   6.705  -0.324  0.1162 -0.3369  0.7052
  593MOL0     C81731   7.557   6.590  -0.405  1.0608  0.0803  1.0629
  593MOL0     O81732   7.424   6.546  -0.437  0.0732  0.2590  0.2042
  593MOL0     C81733   7.417   6.431  -0.529  0.0350  0.5748 -0.1112
  593MOL0     C81734   7.280   6.363  -0.527 -0.6644 -0.5222 -0.2802
  593MOL0     C81735   7.233   6.308  -0.396 -0.1288  0.7073 -0.0857
  593MOL0     C81736   7.137   6.189  -0.413 -0.2556  0.2430  0.2153
  593MOL0     C81737   7.105   6.109  -0.286 -0.2438  0.4921  0.8564
  593MOL0     C81738   7.003   6.003  -0.318  0.1339 -0.4215 -0.0569
  593MOL0     C81739   6.908   5.958  -0.202 -0.1798  0.3104 -0.6104
  593MOL0     C81740   6.868   5.816  -0.238  0.9940 -0.4217 -0.6363
  593MOL0    Cl81741   6.752   5.753  -0.118 -0.1725  0.1251  0.0055
  593MOL0     C81742   7.671   6.541  -0.464 -0.9745 -0.4770 -0.6665
  593MOL0     C81743   7.802   6.597  -0.426  0.8870  0.3699 -0.3675
  593MOL0     O81744   8.029   6.753  -0.518  0.4427 -0.1188 -0.1427
  593MOL0     C81745   8.171   6.899  -0.227  0.4266  0.8687 -0.0194
  593MOL0     C81746   8.293   6.927  -0.167 -0.9099 -0.0109  0.1591
  593MOL0     N81747   8.679   7.040   0.265  0.3511  0.5941  0.0681
  593MOL0     N81748   8.716   7.015   0.391 -0.0799 -0.0753  0.4296
  593MOL0     C81749   7.991   7.988   0.850  0.2448  0.3934  0.0851
  593MOL0     C81750   7.894   8.070   0.911  0.4024 -0.1134  0.4095
  593MOL0     C81751   7.458   8.154   0.971  0.2838  0.3603  0.1264
  593MOL0     C81752   7.394   8.252   0.895  0.3201 -0.6312 -0.3241
  593MOL0     C81753   7.265   8.297   0.937 -0.0883 -0.4826 -0.0463
  593MOL0     C81754   7.207   8.248   1.053  0.4142  0.9928 -0.7907
  593MOL0     O81755   7.085   8.273   1.109 -0.6187 -1.4982 -0.1172
  593MOL0     C81756   7.012   8.382   1.062 -0.0139  0.8758  0.0112
  593MOL0     C81757   6.885   8.390   1.144  0.2862 -0.0050  0.1159
  593MOL0     C81758   6.765   8.420   1.052 -0.8750  0.2383  0.2851
  593MOL0     C81759   6.625   8.410   1.122  0.0758 -0.1936 -0.2850
  593MOL0     C81760   6.613   8.504   1.232 -1.0050 -0.3501 -0.1548
  593MOL0     C81761   6.610   8.573   1.332  0.1028  0.5686 -0.3232
  593MOL0     C81762   7.276   8.158   1.123  0.1051  0.7758  0.3356
  593MOL0     C81763   7.400   8.106   1.094 -0.2752 -0.0328  0.0839
  593MOL0     C81764   7.459   7.992   1.178 -0.1366 -0.2411 -0.2978
  593MOL0     H81765   7.684   7.823   1.009 -2.9809  3.5931 -0.1546
  593MOL0     H81766   7.874   7.687   0.930 -2.3306 -0.5667  0.3332
  593MOL0     H81767   8.003   7.581   0.760 -0.3053 -0.4060 -0.3861
  593MOL0     H81768   8.106   7.620   0.894 -0.9976 -4.6222 -0.1633
  593MOL0     H81769   8.170   7.601   0.606  3.4299  0.9851 -0.6634
  593MOL0     H81770   8.278   7.678   0.734  0.0845  1.9090 -0.7076
  593MOL0     H81771   8.256   7.442   0.866 -1.5702 -3.5346 -0.3573
  593MOL0     H81772   8.185   7.385   0.728  1.4849 -1.1508  0.3840
  593MOL0     H81773   8.390   7.463   0.574 -2.4948  2.8657  1.1036
  593MOL0     H81774   8.469   7.494   0.730  0.3674 -0.0500 -0.8994
  593MOL0     H81775   8.375   7.225   0.655 -0.2232 -1.6409 -0.1090
  593MOL0     H81776   8.427   7.276   0.812  1.2774  0.6943 -0.5463
  593MOL0     H81777   8.591   7.332   0.568  0.4258 -0.4992  0.1332
  593MOL0     H81778   8.641   7.354   0.735  0.8766 -2.2721  1.4769
  593MOL0     H81779   8.583   7.074   0.616 -1.2454  2.8519 -1.6549
  593MOL0     H81780   8.671   7.122   0.770 -1.2475  3.0533  1.5435
  593MOL0     H81781   8.838   7.231   0.631 -0.8601 -0.5791  1.7545
  593MOL0     H81782   8.821   7.049   0.634 -2.5426 -1.3522  1.3487
  593MOL0     H81783   8.770   7.340   0.366  2.3923 -0.4203 -2.0164
  593MOL0     H81784   8.745   7.219   0.027  1.5335  1.6016  1.2308
  593MOL0     H81785   8.695   7.346   0.139  1.6820 -0.3084  1.8007
  593MOL0     H81786   8.483   7.168   0.147 -0.0062  1.2341 -0.7177
  593MOL0     H81787   8.491   7.312   0.051  1.7142  0.8067  0.6466
  593MOL0     H81788   8.420   7.136  -0.115  0.0440  1.2518  0.3242
  593MOL0     H81789   8.581   7.170  -0.142 -1.8071 -0.2275 -1.3456
  593MOL0     H81790   8.656   6.980  -0.004 -0.7282  0.2608  1.7907
  593MOL0     H81791   8.497   6.933   0.043 -0.9104  1.3452  1.0978
  593MOL0     H81792   8.507   6.767  -0.377  1.5089  0.0607  2.9512
  593MOL0     H81793   8.391   6.609  -0.496 -0.9359 -1.1129  1.6605
  593MOL0     H81794   8.279   6.692  -0.605  3.2981  0.7422 -0.4273
  593MOL0     H81795   8.219   6.597  -0.464 -0.6791  1.2780  0.2264
  593MOL0     H81796   7.693   6.850  -0.230 -0.8015  1.1221 -2.1434
  593MOL0     H81797   7.479   6.756  -0.283 -0.4352  0.7729 -1.6819
  593MOL0     H81798   7.440   6.470  -0.628 -0.7670  1.4818  0.0479
  593MOL0     H81799   7.486   6.351  -0.499  0.4203 -0.2522 -2.9645
  593MOL0     H81800   7.209   6.432  -0.573  1.3387  0.0006 -2.7855
  593MOL0     H81801   7.276   6.274  -0.590 -2.0087 -2.8455  2.8223
  593MOL0     H81802   7.187   6.391  -0.341 -3.2776 -0.5943 -0.5348
  593MOL0     H81803   7.313   6.268  -0.334 -0.6100 -2.1983 -1.1790
  593MOL0     H81804   7.169   6.126  -0.496 -2.0262 -0.7192  0.2065
  593MOL0     H81805   7.042   6.235  -0.443 -0.1483  2.5196  2.8692
  593MOL0     H81806   7.201   6.077  -0.245  1.0631  1.7275 -1.0954
  593MOL0     H81807   7.074   6.171  -0.201 -0.5820 -0.4338  1.4318
  593MOL0     H81808   7.053   5.911  -0.349 -1.5984 -1.7470  0.8865
  593MOL0     H81809   6.948   6.044  -0.403 -4.3859  1.3427  3.3206
  593MOL0     H81810   6.819   6.018  -0.181 -0.7329 -1.0274  1.1745
  593MOL0     H81811   6.962   5.959  -0.106  0.8204  0.6228 -1.1572
  593MOL0     H81812   6.952   5.750  -0.217 -0.0913 -1.0518  2.1898
  593MOL0     H81813   6.829   5.809  -0.340 -1.5901 -1.9784  0.3626
  593MOL0     H81814   7.655   6.447  -0.517 -0.1830 -1.1040  0.1676
  593MOL0     H81815   7.892   6.557  -0.473  0.3864 -0.6325 -0.4934
  593MOL0     H81816   8.082   6.941  -0.182  1.5303  1.6236  1.5186
  593MOL0     H81817   8.295   6.974  -0.069 -1.0719 -4.5683  2.6034
  593MOL0     H81818   8.077   8.033   0.801 -0.2646  0.0617 -1.1392
  593MOL0     H81819   7.885   8.178   0.897  0.6511 -0.3549 -2.1562
  593MOL0     H81820   7.438   8.304   0.811 -1.6785  2.4074  0.3424
  593MOL0     H81821   7.215   8.381   0.889 -0.7807 -0.1859  1.1369
  593MOL0     H81822   7.065   8.474   1.088 -0.5611  1.0162  0.6555
  593MOL0     H81823   7.003   8.376   0.953  2.1947  2.1498 -0.2944
  593MOL0     H81824   6.884   8.471   1.217 -2.1962  0.1485 -0.0038
  593MOL0     H81825   6.858   8.296   1.192  0.0354 -0.4469 -0.8640
  593MOL0     H81826   6.782   8.520   1.010  1.5718  0.5433  1.7875
  593MOL0     H81827   6.753   8.344   0.973 -0.1630  1.0860 -0.6696
  593MOL0     H81828   6.606   8.311   1.164 -1.3662  0.9167  1.8527
  593MOL0     H81829   6.553   8.427   1.041 -0.0288  0.8025  0.0103
  593MOL0     H81830   6.606   8.623   1.426  1.2498 -3.1687  1.9017
  593MOL0     H81831   7.241   8.127   1.221 -2.6362  3.3585  0.3178
  593MOL0     H81832   7.539   8.024   1.244 -1.5684  2.8403  0.1084
  593MOL0     H81833   7.376   7.961   1.242  0.1712 -1.8459 -0.6279
  593MOL0     H81834   7.501   7.927   1.100  0.0730 -1.5914  0.9103
  594MOL0     O81835  10.383   4.089   9.946 -0.1131 -0.7268  0.5582
  594MOL0     C81836  10.285   4.047  10.018 -0.6952 -0.2114  0.2841
  594MOL0     O81837  10.296   4.010  10.153  0.0017 -0.3358 -0.0024
  594MOL0     C81838  10.418   4.029  10.216 -0.0204 -0.3964  0.1680
  594MOL0     C81839  10.443   4.143  10.304 -0.2631 -0.4634  0.1268
  594MOL0     C81840  10.565   4.173  10.352 -0.1333  0.2467  0.2881
  594MOL0     C81841  10.679   4.086  10.330  0.0464  0.4609  0.2554
  594MOL0     O81842  10.801   4.134  10.365  0.0483 -0.2975 -0.8724
  594MOL0     C81843  10.923   4.074  10.332 -0.5000  0.6603  0.2596
  594MOL0     C81844  11.035   4.134  10.406 -0.0483  0.0336 -1.0117
  594MOL0     C81845  11.101   4.240  10.316 -0.0383 -0.0762 -0.7016
  594MOL0     C81846  11.239   4.291  10.356  0.2727  0.7612  0.0593
  594MOL0     C81847  11.347   4.188  10.320 -0.0555 -0.2679 -0.0218
  594MOL0     C81848  11.478   4.249  10.362 -0.4467  0.7913  0.1881
  594MOL0     C81849  11.595   4.155  10.321  0.1909  0.2472 -0.4175
  594MOL0     C81850  11.729   4.224  10.316  0.4807  0.0042  0.2117
  594MOL0     N81851  11.738   4.324  10.211 -0.2570  0.2817 -0.3111
  594MOL0     C81852  11.809   4.314  10.091 -0.2368 -0.4783 -0.1112
  594MOL0     C81853  11.854   4.439  10.057 -0.5663  0.6062 -0.6231
  594MOL0     C81854  11.929   4.474   9.939 -0.3469 -0.1060  0.6066
  594MOL0     C81855  12.040   4.581   9.968  0.1136 -0.2183  0.5720
  594MOL0     C81856  12.099   4.628   9.837  0.1197 -0.5840 -0.7102
  594MOL0     C81857  12.187   4.511   9.779  0.0996 -0.6240  0.5885
  594MOL0     O81858  12.220   4.549   9.644  0.0155 -0.0324 -0.2585
  594MOL0     C81859  12.354   4.542   9.614 -0.1799  0.0479 -0.5873
  594MOL0     C81860  12.430   4.654   9.574  1.2211 -0.0865  0.1082
  594MOL0     C81861  12.561   4.635   9.530 -0.6575  0.3654  0.3520
  594MOL0     C81862  12.642   4.758   9.487  0.1422  0.3226 -0.3455
  594MOL0     C81863  12.627   4.509   9.541  0.0840  0.5322  0.3036
  594MOL0     C81864  12.766   4.490   9.511 -0.5131  0.1966  0.8953
  594MOL0     O81865  12.822   4.560   9.394  0.6501 -0.1490 -1.2778
  594MOL0     C81866  12.956   4.540   9.380 -0.4273 -0.2196  0.1494
  594MOL0     C81867  13.011   4.456   9.280  0.0777 -0.1300 -0.2619
  594MOL0     C81868  13.148   4.446   9.268  0.2053 -0.6086  0.4995
  594MOL0     C81869  13.233   4.527   9.349  0.5942  0.2392 -0.2589
  594MOL0     O81870  13.362   4.513   9.306  0.0287 -0.8647 -0.2575
  594MOL0     C81871  13.463   4.569   9.397  0.3180  0.7101 -0.3945
  594MOL0     C81872  13.583   4.604   9.310  0.1983  0.0842  0.0541
  594MOL0     C81873  13.676   4.484   9.275 -0.0366  0.2858  0.2331
  594MOL0     C81874  13.817   4.527   9.216 -1.0775 -0.1375 -0.2795
  594MOL0     C81875  13.870   4.418   9.118  0.5198 -0.6136  0.3113
  594MOL0     C81876  14.019   4.437   9.082 -0.1356  0.4540  0.7386
  594MOL0     C81877  14.094   4.311   9.022 -0.2544  0.2049  0.8590
  594MOL0     C81878  14.238   4.348   8.999 -0.2258  0.7733 -0.0146
  594MOL0    Cl81879  14.320   4.227   8.886 -0.6235  0.2751  0.1840
  594MOL0     C81880  13.181   4.605   9.453  0.4333  0.8136  0.4200
  594MOL0     C81881  13.042   4.605   9.464 -0.4977  1.0849  0.0567
  594MOL0     O81882  12.830   4.397   9.568  0.5946 -0.6092 -0.0613
  594MOL0     C81883  12.544   4.396   9.567 -0.2068 -0.6999  0.1121
  594MOL0     C81884  12.412   4.417   9.593 -0.5014 -0.3942 -1.3989
  594MOL0     N81885  11.800   4.519  10.157 -0.2578 -0.4786  0.5518
  594MOL0     N81886  11.740   4.451  10.244  0.6665  0.4723 -0.0885
  594MOL0     C81887  10.655   3.967  10.256  1.0705 -0.1913 -0.9878
  594MOL0     C81888  10.528   3.948  10.198 -0.4983 -0.4181 -0.3894
  594MOL0     C81889  10.159   4.004   9.944 -0.3202 -0.0076  0.7993
  594MOL0     C81890  10.100   3.887   9.993 -0.8020 -0.3455 -0.4199
  594MOL0     C81891   9.991   3.834   9.926 -0.1298 -0.2909 -0.3984
  594MOL0     C81892   9.937   3.890   9.810  0.2312 -0.3763  0.2186
  594MOL0     O81893   9.831   3.851   9.734  0.5244  0.7603 -1.0534
  594MOL0     C81894   9.758   3.733   9.769  0.0244 -0.8259 -0.6142
  594MOL0     C81895   9.620   3.748   9.701 -0.4282 -0.2004  0.1362
  594MOL0     C81896   9.544   3.879   9.721 -0.3689  0.0231 -0.0330
  594MOL0     C81897   9.407   3.861   9.645 -0.7199  0.4186 -0.1848
  594MOL0     C81898   9.331   3.983   9.654  0.6193 -0.0816 -0.2857
  594MOL0     C81899   9.261   4.086   9.668 -0.3041  0.3274  0.6279
  594MOL0     C81900   9.993   4.011   9.766 -0.5562 -0.2998  0.2700
  594MOL0     C81901  10.111   4.060   9.816  0.5420 -0.3798 -0.5281
  594MOL0     C81902  10.175   4.170   9.741 -0.0266  0.1121  0.3541
  594MOL0     H81903  10.355   4.203  10.321 -2.4312 -2.7946 -2.0633
  594MOL0     H81904  10.596   4.269  10.392 -1.3110  2.1030 -2.8702
  594MOL0     H81905  10.940   4.063  10.225  4.4287 -1.7304  1.0299
  594MOL0     H81906  10.924   3.968  10.361  0.2308  1.3481  3.0339
  594MOL0     H81907  11.002   4.170  10.503  0.3920 -0.1823 -0.7774
  594MOL0     H81908  11.120   4.068  10.427  0.6122  1.0601 -0.4108
  594MOL0     H81909  11.102   4.206  10.212  0.0703 -0.2981 -0.6308
  594MOL0     H81910  11.021   4.312  10.328 -1.0320 -1.3766  0.9443
  594MOL0     H81911  11.260   4.385  10.303  0.9209 -0.6894 -2.3960
  594MOL0     H81912  11.240   4.320  10.462  1.2542  4.9286 -0.9064
  594MOL0     H81913  11.351   4.190  10.210 -1.6709  0.4500 -0.0872
  594MOL0     H81914  11.338   4.089  10.366  0.9634  0.0556  0.9093
  594MOL0     H81915  11.494   4.348  10.319  3.0632  1.3755  2.4593
  594MOL0     H81916  11.474   4.260  10.470  0.3419  1.9804  0.1228
  594MOL0     H81917  11.573   4.114  10.221 -2.7840 -2.6690  1.2295
  594MOL0     H81918  11.597   4.064  10.382 -0.8520 -0.0741 -0.8252
  594MOL0     H81919  11.761   4.261  10.414  2.0180 -0.5581 -0.0383
  594MOL0     H81920  11.812   4.155  10.295  2.6273  2.5802 -0.3066
  594MOL0     H81921  11.821   4.222  10.036 -0.5677  0.4189 -1.7718
  594MOL0     H81922  11.848   4.509   9.874  0.5812 -1.1982 -1.2132
  594MOL0     H81923  11.983   4.391   9.892 -0.1955 -0.6157  1.6485
  594MOL0     H81924  12.008   4.669  10.024 -1.1479  0.0621 -0.5571
  594MOL0     H81925  12.124   4.540  10.025  0.0322 -1.0708  0.0897
  594MOL0     H81926  12.022   4.660   9.767 -0.0923 -1.5785 -0.9490
  594MOL0     H81927  12.168   4.711   9.854 -0.8898 -0.0961  1.2945
  594MOL0     H81928  12.275   4.487   9.840 -2.1407 -1.1060  3.8653
  594MOL0     H81929  12.132   4.417   9.771 -0.4785 -0.3910  1.5978
  594MOL0     H81930  12.380   4.750   9.590  3.6179  1.0645  1.2194
  594MOL0     H81931  12.587   4.852   9.489 -0.6415 -0.1251  1.5228
  594MOL0     H81932  12.675   4.733   9.386 -0.8576  0.0588 -0.6094
  594MOL0     H81933  12.728   4.769   9.554 -0.1036 -1.0125  0.2196
  594MOL0     H81934  12.950   4.406   9.206  0.8851 -2.6728  0.6811
  594MOL0     H81935  13.177   4.385   9.184 -2.4060 -3.0167  1.1887
  594MOL0     H81936  13.442   4.665   9.444 -2.5733 -0.9111  1.9967
  594MOL0     H81937  13.480   4.492   9.474 -0.0166  0.8336 -0.1926
  594MOL0     H81938  13.535   4.644   9.221  3.4264 -1.1089 -2.4363
  594MOL0     H81939  13.652   4.677   9.353 -0.7243  0.3775  1.0983
  594MOL0     H81940  13.622   4.423   9.202  0.9781 -0.8422  0.4003
  594MOL0     H81941  13.699   4.421   9.361 -2.7097 -1.3116 -0.1202
  594MOL0     H81942  13.873   4.543   9.308 -1.3308  0.0580 -0.1587
  594MOL0     H81943  13.821   4.624   9.166  0.1878  0.2588  0.5519
  594MOL0     H81944  13.854   4.318   9.159  0.0625 -0.2031  1.1531
  594MOL0     H81945  13.804   4.409   9.031  0.4135 -1.0725  0.4369
  594MOL0     H81946  14.062   4.470   9.177  0.0353 -1.4962  1.3777
  594MOL0     H81947  14.028   4.517   9.008  1.4695  0.5309  0.9977
  594MOL0     H81948  14.048   4.296   8.924 -2.7530  1.0055  1.8340
  594MOL0     H81949  14.074   4.226   9.088 -2.2155  0.1651  0.2886
  594MOL0     H81950  14.281   4.354   9.100 -2.0223  2.9202  0.7228
  594MOL0     H81951  14.240   4.448   8.953 -2.4084  1.3478  0.9826
  594MOL0     H81952  13.237   4.667   9.522 -0.6858  0.6738  1.4954
  594MOL0     H81953  13.002   4.662   9.548 -1.1450 -4.2499  3.9457
  594MOL0     H81954  12.593   4.299   9.574  2.0590  0.3910 -0.1250
  594MOL0     H81955  12.349   4.334   9.623  0.8851 -1.4214 -1.2053
  594MOL0     H81956  10.740   3.911  10.218  4.0590  2.8458  0.7210
  594MOL0     H81957  10.499   3.857  10.145 -2.5885  0.9547 -1.7536
  594MOL0     H81958  10.132   3.837  10.084  2.1871 -3.2589 -2.7815
  594MOL0     H81959   9.957   3.734   9.952  0.9376 -1.2794 -2.5255
  594MOL0     H81960   9.812   3.645   9.734  1.9915 -0.2368  0.7599
  594MOL0     H81961   9.747   3.723   9.878 -1.5681 -1.0013 -0.7685
  594MOL0     H81962   9.563   3.667   9.747  1.3030 -2.8021 -1.9567
  594MOL0     H81963   9.630   3.728   9.594 -3.1000  1.1864 -0.4696
  594MOL0     H81964   9.515   3.890   9.825  1.5357 -0.9588  0.6542
  594MOL0     H81965   9.606   3.964   9.690  0.4815  0.7001  3.2219
  594MOL0     H81966   9.361   3.766   9.674 -0.7371  0.0964 -1.2484
  594MOL0     H81967   9.424   3.840   9.540 -0.4877 -1.2444  0.1644
  594MOL0     H81968   9.196   4.168   9.691  0.4803  0.3786  2.8729
  594MOL0     H81969   9.942   4.052   9.680 -3.1496 -2.0743  0.8364
  594MOL0     H81970  10.229   4.234   9.812  1.4602 -1.6545  0.9042
  594MOL0     H81971  10.241   4.126   9.666 -0.2550  0.0299  0.2013
  594MOL0     H81972  10.104   4.238   9.693  1.0062  2.9955  2.5786
  595MOL0     O81973   7.889   0.907  10.145  0.2573 -0.0843 -0.0643
  595MOL0     C81974   7.808   0.841  10.078  0.3036 -0.7139 -0.2253
  595MOL0     O81975   7.688   0.793  10.120 -0.3519 -0.0148 -0.7029
  595MOL0     C81976   7.635   0.833  10.239 -0.0885 -0.0445 -0.3647
  595MOL0     C81977   7.652   0.965  10.289  0.3433 -0.7912 -0.4028
  595MOL0     C81978   7.600   1.001  10.412  1.0676  0.0466 -0.8678
  595MOL0     C81979   7.557   0.897  10.497  0.3947 -0.0985 -0.7654
  595MOL0     O81980   7.530   0.926  10.629 -0.5741  0.0778 -0.1435
  595MOL0     C81981   7.602   0.851  10.724  0.5605 -0.5166  0.4406
  595MOL0     C81982   7.535   0.859  10.873  0.0460  0.8829  0.2723
  595MOL0     C81983   7.448   0.745  10.919 -0.3247 -0.2930 -1.0329
  595MOL0     C81984   7.521   0.606  10.905 -0.7010 -0.0920 -0.1536
  595MOL0     C81985   7.499   0.525  10.771  1.4860  0.4416 -0.3068
  595MOL0     C81986   7.394   0.409  10.790 -0.1096 -0.5597  0.7096
  595MOL0     C81987   7.374   0.332  10.661 -0.8095 -0.3013 -0.0224
  595MOL0     C81988   7.492   0.234  10.624 -0.0540 -0.3300 -0.1861
  595MOL0     N81989   7.451   0.159  10.505 -0.5439  0.1657 -0.1085
  595MOL0     C81990   7.392   0.032  10.505  0.0507 -0.5516 -0.3739
  595MOL0     C81991   7.353   0.014  10.375  0.1510 -0.1880  0.1051
  595MOL0     C81992   7.281  -0.101  10.324  0.0678 -0.6287 -0.4601
  595MOL0     C81993   7.314  -0.133  10.172  0.0516  1.2142  0.4673
  595MOL0     C81994   7.229  -0.240  10.099  0.7262 -0.0593 -0.0707
  595MOL0     C81995   7.293  -0.379  10.119  0.2792  0.0204  0.6509
  595MOL0     O81996   7.195  -0.476  10.061 -0.5202  0.9025  0.8642
  595MOL0     C81997   7.227  -0.605  10.035 -0.2341 -0.6620  0.5052
  595MOL0     C81998   7.342  -0.669  10.090 -0.3042 -0.7879  0.0899
  595MOL0     C81999   7.372  -0.795  10.055 -0.5119 -0.4245  0.5685
  595MOL0     C82000   7.503  -0.850  10.107  0.2296 -1.3166  0.2875
  595MOL0     C82001   7.282  -0.873   9.973 -0.0085 -0.4161  0.3834
  595MOL0     C82002   7.298  -1.013   9.955 -0.0222  0.5503  0.4782
  595MOL0     O82003   7.224  -1.058   9.847 -0.0684  0.2522  0.2036
  595MOL0     C82004   7.186  -1.190   9.821 -0.1322  0.1591 -0.3789
  595MOL0     C82005   7.211  -1.301   9.904  0.4647  1.1355  0.3337
  595MOL0     C82006   7.171  -1.431   9.864  0.0223  0.7049  0.6485
  595MOL0     C82007   7.117  -1.444   9.737  0.3487 -0.2623 -0.1719
  595MOL0     O82008   7.084  -1.570   9.700  0.4628  0.5414 -0.0298
  595MOL0     C82009   6.953  -1.600   9.652 -0.3411  0.7300 -0.6841
  595MOL0     C82010   6.928  -1.744   9.678 -0.0562  0.0580  0.3854
  595MOL0     C82011   6.886  -1.811   9.543 -0.7941 -0.7502  0.3928
  595MOL0     C82012   6.797  -1.931   9.567 -0.4510 -0.5383  1.2737
  595MOL0     C82013   6.646  -1.914   9.606 -0.3359  0.0144  0.4513
  595MOL0     C82014   6.553  -2.032   9.586  0.3828 -0.2801 -0.2471
  595MOL0     C82015   6.598  -2.173   9.621 -0.7047 -0.6983  0.6834
  595MOL0     C82016   6.539  -2.280   9.533  0.9230 -0.1460 -1.4371
  595MOL0    Cl82017   6.357  -2.272   9.533  0.6985  0.3047 -0.1562
  595MOL0     C82018   7.079  -1.330   9.663 -0.2761  0.3315 -0.3590
  595MOL0     C82019   7.116  -1.202   9.705 -0.2513 -1.1602 -0.0049
  595MOL0     O82020   7.368  -1.084  10.025 -0.6498 -0.2651  0.5244
  595MOL0     C82021   7.168  -0.812   9.925 -0.2183 -0.2400  0.6138
  595MOL0     C82022   7.137  -0.672   9.958 -0.2371  0.6197  0.2720
  595MOL0     N82023   7.418   0.109  10.295 -0.5543 -0.2578 -0.3631
  595MOL0     N82024   7.467   0.192  10.377 -0.6607 -0.5568  0.4983
  595MOL0     C82025   7.543   0.769  10.444  0.0990  0.0305 -0.2463
  595MOL0     C82026   7.579   0.739  10.312  0.4524 -0.2667 -0.1355
  595MOL0     C82027   7.861   0.795   9.946 -0.6784  0.8004  0.0641
  595MOL0     C82028   7.786   0.699   9.875  0.3974 -0.1155  0.2411
  595MOL0     C82029   7.826   0.655   9.754  0.9454 -0.1687  0.0019
  595MOL0     C82030   7.939   0.707   9.686  0.3988 -0.5576 -0.2852
  595MOL0     O82031   7.980   0.671   9.567 -0.0984 -1.2564 -0.0768
  595MOL0     C82032   7.895   0.573   9.497 -0.8844  0.2209 -0.7718
  595MOL0     C82033   7.960   0.528   9.371 -0.2294  0.8897  1.2478
  595MOL0     C82034   7.869   0.413   9.307  0.4621  0.1243  0.1342
  595MOL0     C82035   7.933   0.355   9.178 -0.1786  0.0803 -0.3330
  595MOL0     C82036   7.887   0.227   9.139  0.4496 -0.2381  0.2459
  595MOL0     C82037   7.838   0.121   9.109  0.1791 -0.2739  0.6664
  595MOL0     C82038   8.014   0.802   9.755  0.0156 -0.7493 -0.5932
  595MOL0     C82039   7.980   0.851   9.889 -0.2211 -0.4568  0.3299
  595MOL0     C82040   8.048   0.980   9.934 -0.8091  0.5018 -0.0764
  595MOL0     H82041   7.683   1.051  10.232  1.6958 -0.3279  0.9581
  595MOL0     H82042   7.613   1.104  10.442  0.4699 -0.0441 -0.2870
  595MOL0     H82043   7.701   0.897  10.726  0.5828 -0.4870 -0.7480
  595MOL0     H82044   7.606   0.750  10.683  2.0514 -0.6090  0.7615
  595MOL0     H82045   7.617   0.865  10.945  0.2628  1.4153 -0.0093
  595MOL0     H82046   7.472   0.948  10.875  1.6638  2.0931  3.3261
  595MOL0     H82047   7.409   0.743  11.021  2.2012 -1.0831  0.0094
  595MOL0     H82048   7.355   0.740  10.863 -1.9403 -2.0055  1.5805
  595MOL0     H82049   7.628   0.631  10.906 -1.3633  3.2975 -0.3447
  595MOL0     H82050   7.488   0.548  10.992  2.1709 -2.1080 -0.2744
  595MOL0     H82051   7.597   0.483  10.747 -0.1425 -3.1891 -1.2539
  595MOL0     H82052   7.464   0.598  10.698 -1.4282  0.7881  1.2601
  595MOL0     H82053   7.427   0.356  10.880 -1.6574  0.9631  2.2674
  595MOL0     H82054   7.311   0.475  10.817  0.6107  1.1916 -1.1438
  595MOL0     H82055   7.370   0.407  10.581  1.4164  1.0499  1.0374
  595MOL0     H82056   7.286   0.268  10.666  0.7072 -2.5047 -0.0486
  595MOL0     H82057   7.584   0.292  10.617 -1.0408  1.3378  0.1080
  595MOL0     H82058   7.498   0.165  10.709 -2.7674 -1.7060 -1.0009
  595MOL0     H82059   7.359  -0.018  10.595 -2.5002  0.5413 -0.6179
  595MOL0     H82060   7.174  -0.087  10.340  0.1887 -0.1244 -0.1054
  595MOL0     H82061   7.308  -0.186  10.388  1.5506 -0.4415 -0.7854
  595MOL0     H82062   7.320  -0.038  10.118 -2.6445  2.7291  2.5860
  595MOL0     H82063   7.415  -0.175  10.180 -0.9267 -1.2627  0.5841
  595MOL0     H82064   7.123  -0.240  10.125  0.0962 -2.5236 -2.1806
  595MOL0     H82065   7.230  -0.210   9.993  2.5268 -0.0316 -0.0840
  595MOL0     H82066   7.374  -0.384  10.046  0.2719 -2.4742  0.7319
  595MOL0     H82067   7.325  -0.393  10.223  0.0278  2.3644  1.0945
  595MOL0     H82068   7.414  -0.609  10.145  1.9597 -2.3563 -0.9688
  595MOL0     H82069   7.562  -0.879  10.020  0.8777 -0.5941  0.4683
  595MOL0     H82070   7.477  -0.924  10.183  0.4116 -0.7703  0.8917
  595MOL0     H82071   7.566  -0.775  10.156 -0.5614 -0.8975  0.6896
  595MOL0     H82072   7.269  -1.284   9.994  3.5811 -0.1377 -1.2961
  595MOL0     H82073   7.183  -1.515   9.931 -2.0583  0.0138  0.2376
  595MOL0     H82074   6.881  -1.536   9.705 -1.4647 -0.0584 -1.1986
  595MOL0     H82075   6.941  -1.563   9.550 -1.0112  2.1033 -0.1288
  595MOL0     H82076   7.021  -1.796   9.702 -0.1586 -1.3217 -1.8963
  595MOL0     H82077   6.859  -1.765   9.761 -1.2010  0.3281 -0.4786
  595MOL0     H82078   6.978  -1.849   9.498 -0.7479 -1.2479  0.8934
  595MOL0     H82079   6.829  -1.742   9.480 -0.5593 -0.5461  0.4001
  595MOL0     H82080   6.837  -1.986   9.653  0.2553 -2.0784  0.0034
  595MOL0     H82081   6.809  -1.995   9.479 -0.0954 -0.8911  1.5779
  595MOL0     H82082   6.650  -1.871   9.707  4.6271  1.0133  0.0788
  595MOL0     H82083   6.612  -1.830   9.546  1.8507  2.6839  2.6697
  595MOL0     H82084   6.514  -2.028   9.485 -1.7175 -1.6887  0.4581
  595MOL0     H82085   6.465  -2.014   9.648  0.0050 -1.5266 -0.4046
  595MOL0     H82086   6.564  -2.187   9.724 -1.9488  0.9205  0.5357
  595MOL0     H82087   6.705  -2.190   9.612 -0.9378 -0.8787 -3.0968
  595MOL0     H82088   6.586  -2.373   9.566  1.5552 -0.0582 -2.0635
  595MOL0     H82089   6.579  -2.279   9.432 -1.5675  0.6552 -2.4966
  595MOL0     H82090   7.020  -1.340   9.572  2.9666 -2.1880 -2.4179
  595MOL0     H82091   7.111  -1.120   9.634 -1.9879 -0.1962  1.1679
  595MOL0     H82092   7.092  -0.866   9.870  1.9548 -1.8818 -0.9515
  595MOL0     H82093   7.042  -0.624   9.935  0.1194  0.6918 -1.1159
  595MOL0     H82094   7.483   0.700  10.504 -0.4538 -1.5882 -2.5127
  595MOL0     H82095   7.561   0.636  10.284 -0.7363 -1.1424  3.4084
  595MOL0     H82096   7.702   0.650   9.922  0.7773  0.0364  1.1088
  595MOL0     H82097   7.771   0.573   9.709  0.7180 -1.3634  2.2967
  595MOL0     H82098   7.896   0.483   9.558 -1.2472  0.5305 -0.3065
  595MOL0     H82099   7.790   0.594   9.471 -0.4576  0.9522 -2.0155
  595MOL0     H82100   8.062   0.490   9.382 -1.5228 -2.8753  1.7522
  595MOL0     H82101   7.972   0.611   9.301 -2.2011  1.2565  1.3062
  595MOL0     H82102   7.861   0.328   9.376  0.1004  1.0573  1.2690
  595MOL0     H82103   7.767   0.441   9.280  1.3032  1.2558 -2.1783
  595MOL0     H82104   8.041   0.337   9.172 -0.4691 -1.6100 -1.0247
  595MOL0     H82105   7.916   0.427   9.097 -0.0266 -1.7770 -2.0860
  595MOL0     H82106   7.774   0.039   9.082 -1.0305  1.0172 -0.5959
  595MOL0     H82107   8.108   0.841   9.717  1.1932  0.6307  3.2102
  595MOL0     H82108   8.091   0.963  10.033 -1.4390  1.7776  0.4377
  595MOL0     H82109   8.127   1.010   9.864  0.3880 -0.7413  0.6770
  595MOL0     H82110   7.982   1.067   9.934 -0.2581  0.9313 -0.2672
  596MOL0     O82111   8.434   6.992   9.371 -0.4354  0.0866 -0.0724
  596MOL0     C82112   8.429   6.887   9.313  0.0977  1.4747  0.0961
  596MOL0     O82113   8.312   6.814   9.296  0.5736  0.0915  0.4110
  596MOL0     C82114   8.185   6.864   9.310  0.6565 -0.6770 -0.9266
  596MOL0     C82115   8.078   6.788   9.369 -0.3855 -0.3679 -0.1357
  596MOL0     C82116   7.947   6.844   9.385  0.1933 -0.3458 -0.5020
  596MOL0     C82117   7.919   6.969   9.336  0.5994 -0.1048 -0.0950
  596MOL0     O82118   7.787   7.006   9.341 -0.2685 -0.1256  0.3986
  596MOL0     C82119   7.730   7.051   9.219  0.1641 -1.0148 -0.4407
  596MOL0     C82120   7.589   7.106   9.254  0.5445 -0.1361  0.4523
  596MOL0     C82121   7.576   7.219   9.362  0.1997 -0.3833  0.2593
  596MOL0     C82122   7.428   7.264   9.382  0.5586  0.4639 -0.1641
  596MOL0     C82123   7.401   7.343   9.511  0.1898 -0.5500 -0.0335
  596MOL0     C82124   7.243   7.375   9.525  0.0431  0.3482 -0.3784
  596MOL0     C82125   7.162   7.246   9.539 -0.3900  0.2871  0.3812
  596MOL0     C82126   7.030   7.260   9.614  0.2202  0.1141  0.7951
  596MOL0     N82127   6.944   7.349   9.534 -0.0087 -0.3949 -1.1461
  596MOL0     C82128   6.875   7.316   9.421 -0.4654 -0.2750 -0.2916
  596MOL0     C82129   6.812   7.432   9.381 -1.0705 -0.7010 -0.0347
  596MOL0     C82130   6.738   7.446   9.252 -0.9266 -1.3903  0.3139
  596MOL0     C82131   6.751   7.593   9.180 -0.1956 -0.3929 -0.1806
  596MOL0     C82132   6.891   7.624   9.122 -0.3974 -0.0115 -0.3285
  596MOL0     C82133   6.986   7.685   9.216 -0.0871 -0.6350 -0.0321
  596MOL0     O82134   7.099   7.765   9.160  0.4216  0.8279 -0.0916
  596MOL0     C82135   7.215   7.692   9.126 -0.3137 -0.1369 -0.4302
  596MOL0     C82136   7.314   7.776   9.094  0.4481  0.8738 -0.1511
  596MOL0     C82137   7.433   7.730   9.040  0.0397  0.9003 -0.7163
  596MOL0     C82138   7.521   7.829   8.980 -0.3484  0.3120  0.7372
  596MOL0     C82139   7.459   7.587   9.025 -0.4469 -0.5779 -0.3899
  596MOL0     C82140   7.588   7.531   8.979 -0.4513  0.1100 -0.0690
  596MOL0     O82141   7.595   7.399   8.989 -0.0016  0.1701 -0.3690
  596MOL0     C82142   7.717   7.332   8.971  0.0779 -0.7783 -0.9302
  596MOL0     C82143   7.717   7.220   8.895 -0.8799 -0.1746  0.5756
  596MOL0     C82144   7.837   7.139   8.883  0.3996 -0.1441 -0.6813
  596MOL0     C82145   7.954   7.178   8.949 -0.5422  0.0170 -0.1782
  596MOL0     O82146   8.072   7.120   8.937 -0.0032  0.3269 -0.5972
  596MOL0     C82147   8.146   7.171   8.829  0.8558 -0.0505  0.2261
  596MOL0     C82148   8.299   7.180   8.872  0.2018 -0.7134 -0.3726
  596MOL0     C82149   8.352   7.039   8.839 -0.8574 -0.3159  0.4775
  596MOL0     C82150   8.478   7.019   8.927  0.5398  0.5371 -0.2244
  596MOL0     C82151   8.592   7.108   8.880 -0.3368 -0.1004 -0.5882
  596MOL0     C82152   8.719   7.049   8.946  0.0132 -0.3193 -0.3757
  596MOL0     C82153   8.842   7.141   8.927 -0.0307 -0.6831 -0.2181
  596MOL0     C82154   8.966   7.072   8.987  0.0532 -0.1281  0.8356
  596MOL0    Cl82155   8.962   7.097   9.167  0.0626  0.2863  0.1004
  596MOL0     C82156   7.941   7.293   9.038 -0.2770  0.3278  0.0575
  596MOL0     C82157   7.824   7.362   9.047 -0.4964 -0.7208 -0.1103
  596MOL0     O82158   7.674   7.603   8.936 -0.1898 -0.1167 -0.1507
  596MOL0     C82159   7.354   7.505   9.067  0.4802 -0.2453 -0.3622
  596MOL0     C82160   7.240   7.555   9.126 -0.8294  0.2220 -0.4398
  596MOL0     N82161   6.846   7.528   9.474  0.5250 -0.2140 -0.0437
  596MOL0     N82162   6.924   7.479   9.564 -0.9366 -0.3656  0.4576
  596MOL0     C82163   8.019   7.039   9.270 -0.5831 -0.4982  0.4912
  596MOL0     C82164   8.151   6.985   9.249  0.3642  0.6647  0.8894
  596MOL0     C82165   8.555   6.817   9.279  0.0643 -0.2846  0.4193
  596MOL0     C82166   8.544   6.688   9.228 -0.3864  0.5456  0.1053
  596MOL0     C82167   8.658   6.623   9.179  0.0502  0.4389  0.8724
  596MOL0     C82168   8.789   6.666   9.205  0.2281 -0.8137  0.8257
  596MOL0     O82169   8.896   6.587   9.184 -0.9212  0.4285 -0.1467
  596MOL0     C82170   9.010   6.599   9.272  0.0034  0.1888  0.2371
  596MOL0     C82171   9.124   6.670   9.202  0.8973 -0.0837 -0.8741
  596MOL0     C82172   9.235   6.689   9.293  0.0232  0.0844 -0.4202
  596MOL0     C82173   9.203   6.827   9.362 -0.2241  1.1463 -0.2752
  596MOL0     C82174   9.329   6.881   9.423 -0.5032  0.2958  0.0744
  596MOL0     C82175   9.431   6.909   9.474 -0.5974  0.4137 -0.1309
  596MOL0     C82176   8.800   6.791   9.265  0.5290  0.3606 -0.3828
  596MOL0     C82177   8.682   6.871   9.293 -0.7211  0.1282 -0.4446
  596MOL0     C82178   8.710   6.999   9.355  0.3488 -0.5366  0.0208
  596MOL0     H82179   8.103   6.696   9.422  0.6951  0.7001  1.2941
  596MOL0     H82180   7.873   6.783   9.437  0.8136 -1.3140 -0.7247
  596MOL0     H82181   7.709   6.972   9.147  0.5857  0.4936 -2.3023
  596MOL0     H82182   7.787   7.125   9.162  1.3891 -1.9724 -0.5071
  596MOL0     H82183   7.547   7.144   9.160  0.0086 -2.4575 -0.3220
  596MOL0     H82184   7.530   7.021   9.290  1.3353 -0.7647  0.3014
  596MOL0     H82185   7.621   7.189   9.457 -0.0558  1.7322  1.1003
  596MOL0     H82186   7.620   7.312   9.325 -0.1833 -1.1047 -2.2069
  596MOL0     H82187   7.404   7.342   9.309 -0.0488  1.8922  1.4940
  596MOL0     H82188   7.368   7.173   9.385 -0.2722  1.0254  1.4604
  596MOL0     H82189   7.434   7.447   9.502 -1.8679  0.0701 -1.0653
  596MOL0     H82190   7.443   7.295   9.600 -0.5654 -1.8506 -0.3525
  596MOL0     H82191   7.219   7.438   9.611 -1.7296 -1.2385  0.3674
  596MOL0     H82192   7.211   7.433   9.438 -1.3758  0.6043  0.2819
  596MOL0     H82193   7.226   7.176   9.593 -0.0437 -2.8682 -3.5899
  596MOL0     H82194   7.141   7.205   9.439 -0.3601  0.0244  0.4834
  596MOL0     H82195   6.983   7.163   9.632 -0.8030  0.6959  1.3375
  596MOL0     H82196   7.057   7.299   9.713  3.4294  0.2222 -0.0205
  596MOL0     H82197   6.884   7.221   9.371  1.3921  0.3650 -1.2670
  596MOL0     H82198   6.630   7.435   9.262 -1.6349  2.0313 -1.8430
  596MOL0     H82199   6.786   7.375   9.184  4.0550  0.3551  1.5698
  596MOL0     H82200   6.681   7.588   9.096 -0.3535 -1.0560 -0.0163
  596MOL0     H82201   6.714   7.677   9.240  1.3946  0.8818 -0.9091
  596MOL0     H82202   6.926   7.532   9.073 -2.1166 -1.3492  0.8547
  596MOL0     H82203   6.878   7.705   9.050 -1.0084  0.6640  0.5129
  596MOL0     H82204   6.926   7.764   9.262  0.8467 -0.3267  0.6963
  596MOL0     H82205   7.014   7.604   9.284  1.3910 -2.2457 -2.4137
  596MOL0     H82206   7.287   7.879   9.115 -2.9632 -0.2271  1.4335
  596MOL0     H82207   7.483   7.928   9.005  2.1168  1.7578 -0.8634
  596MOL0     H82208   7.522   7.835   8.871  1.1416  0.0384  0.7177
  596MOL0     H82209   7.624   7.835   9.016  0.4774  1.0803 -1.5623
  596MOL0     H82210   7.629   7.188   8.841  0.7950 -2.2428 -1.1406
  596MOL0     H82211   7.834   7.051   8.819 -4.8198 -1.0687  0.3077
  596MOL0     H82212   8.132   7.112   8.738 -0.6866  0.6964 -0.0651
  596MOL0     H82213   8.114   7.274   8.812  1.8347  0.7248  2.6899
  596MOL0     H82214   8.343   7.258   8.809 -1.3472 -0.2391 -0.9214
  596MOL0     H82215   8.311   7.204   8.978  1.1176 -1.7657 -0.2187
  596MOL0     H82216   8.368   7.024   8.732 -1.4965  2.5770 -0.0953
  596MOL0     H82217   8.277   6.965   8.871 -1.3821 -0.3622 -0.8046
  596MOL0     H82218   8.516   6.917   8.920  1.6309  0.8916  0.2848
  596MOL0     H82219   8.450   7.042   9.030 -1.3891  1.5397 -0.9199
  596MOL0     H82220   8.621   7.132   8.777  0.2276 -2.2936 -0.9822
  596MOL0     H82221   8.583   7.209   8.922  2.0107 -0.1603  0.2262
  596MOL0     H82222   8.741   6.953   8.898  0.0061  0.9113 -3.0061
  596MOL0     H82223   8.697   7.036   9.053  1.4166  0.6589  0.0599
  596MOL0     H82224   8.819   7.239   8.972  0.1582 -0.2660 -1.0101
  596MOL0     H82225   8.860   7.170   8.823 -0.0130  0.5229  0.1048
  596MOL0     H82226   9.060   7.108   8.945 -0.1077  0.7985  1.2424
  596MOL0     H82227   8.965   6.963   8.973  0.7613 -0.2007  1.3160
  596MOL0     H82228   8.029   7.305   9.099  1.2141 -4.0812 -0.9196
  596MOL0     H82229   7.820   7.439   9.124  0.4819 -1.9072  1.1961
  596MOL0     H82230   7.355   7.397   9.072 -3.6784 -0.4841 -0.6800
  596MOL0     H82231   7.163   7.496   9.174 -0.6849 -0.3559 -0.9162
  596MOL0     H82232   7.998   7.134   9.222  0.6464 -0.4472  0.0119
  596MOL0     H82233   8.235   7.030   9.196 -1.3183 -1.3327 -3.9795
  596MOL0     H82234   8.449   6.639   9.212 -1.2741  1.9675  0.7799
  596MOL0     H82235   8.644   6.523   9.138 -0.1916  0.6847  0.3421
  596MOL0     H82236   8.985   6.658   9.361  0.1818 -1.7599  1.6390
  596MOL0     H82237   9.039   6.499   9.304 -3.4705 -1.0622 -0.1046
  596MOL0     H82238   9.096   6.759   9.145 -0.1325  0.0208 -0.2348
  596MOL0     H82239   9.157   6.595   9.129  0.6871 -0.4399 -0.6116
  596MOL0     H82240   9.257   6.604   9.358 -0.9132  0.7210  0.7838
  596MOL0     H82241   9.335   6.694   9.248  0.3304  1.9388  0.3914
  596MOL0     H82242   9.115   6.821   9.427 -1.2923  1.1640 -1.6646
  596MOL0     H82243   9.196   6.902   9.282  1.1409  0.5347 -0.9938
  596MOL0     H82244   9.532   6.927   9.505 -0.0920 -1.3230 -0.6697
  596MOL0     H82245   8.902   6.828   9.274  0.0676  1.3356  1.1049
  596MOL0     H82246   8.819   7.010   9.363  0.6802 -1.2865 -2.5720
  596MOL0     H82247   8.677   7.082   9.292 -1.1936  0.1702  1.6544
  596MOL0     H82248   8.664   6.990   9.454  0.1129 -2.0988 -0.2028
  597MOL0     O82249   1.259   6.119   5.642 -0.1628  0.2648 -0.4170
  597MOL0     C82250   1.295   6.026   5.570  0.9577 -0.3731  0.6316
  597MOL0     O82251   1.353   5.917   5.609 -0.1960  0.0585 -0.1191
  597MOL0     C82252   1.361   5.875   5.741  0.1323 -0.1306 -0.4049
  597MOL0     C82253   1.259   5.917   5.841  0.8410  0.8541 -0.3115
  597MOL0     C82254   1.272   5.876   5.973 -1.0178  0.5339  0.0271
  597MOL0     C82255   1.384   5.811   6.019 -0.7710  0.2542 -0.0432
  597MOL0     O82256   1.406   5.774   6.152 -0.6868  0.7426  0.2215
  597MOL0     C82257   1.309   5.699   6.226  0.5603  0.2684 -0.6079
  597MOL0     C82258   1.333   5.681   6.372 -0.0038 -0.5360  0.1318
  597MOL0     C82259   1.465   5.615   6.424 -0.3633 -0.5784  1.3129
  597MOL0     C82260   1.525   5.515   6.323  0.2137  0.3836 -0.1019
  597MOL0     C82261   1.664   5.473   6.375 -0.5017  0.1952  0.5981
  597MOL0     C82262   1.765   5.425   6.269 -0.4799 -0.5133 -0.4570
  597MOL0     C82263   1.821   5.547   6.192 -0.8934 -0.1357  0.3626
  597MOL0     C82264   1.930   5.614   6.271 -0.2794  0.3829  0.8286
  597MOL0     N82265   2.013   5.687   6.179 -0.7820 -0.4913 -0.1489
  597MOL0     C82266   2.146   5.660   6.159 -0.3278  0.8807 -0.4545
  597MOL0     C82267   2.182   5.754   6.074 -0.1467  0.3530  0.1106
  597MOL0     C82268   2.322   5.788   6.032  0.0487  0.2056  0.8059
  597MOL0     C82269   2.425   5.671   6.018 -0.2457  0.1299  0.6735
  597MOL0     C82270   2.569   5.714   5.978 -0.3922  0.1086  0.2836
  597MOL0     C82271   2.669   5.603   5.962  0.3233  0.6922 -0.4456
  597MOL0     O82272   2.795   5.637   5.903  1.0152  0.0763  0.6256
  597MOL0     C82273   2.827   5.586   5.781 -0.2884  0.3346 -0.4458
  597MOL0     C82274   2.967   5.565   5.774  0.4663 -0.5256 -0.4627
  597MOL0     C82275   3.026   5.516   5.655  0.6119  0.5715 -0.6108
  597MOL0     C82276   3.174   5.504   5.666 -0.9475 -0.5617  0.4491
  597MOL0     C82277   2.939   5.484   5.547 -0.1689 -1.2427  0.0065
  597MOL0     C82278   2.997   5.430   5.432  0.7008  0.4410  0.8946
  597MOL0     O82279   3.122   5.378   5.434 -0.1036 -0.4671 -0.0410
  597MOL0     C82280   3.194   5.349   5.316  0.7434  1.2391  0.1672
  597MOL0     C82281   3.210   5.433   5.204  0.1766  0.3777 -0.1607
  597MOL0     C82282   3.286   5.385   5.098 -0.9776  0.5784 -0.8881
  597MOL0     C82283   3.350   5.265   5.096 -0.6060 -1.1503 -0.1057
  597MOL0     O82284   3.433   5.231   4.995  0.3478  0.0837 -0.4374
  597MOL0     C82285   3.383   5.119   4.919 -0.4394  0.4612 -0.0685
  597MOL0     C82286   3.473   5.106   4.788  0.1386 -0.1391  0.1245
  597MOL0     C82287   3.499   5.234   4.706 -0.5230 -0.9776 -0.3829
  597MOL0     C82288   3.370   5.314   4.671 -0.7107 -0.7564 -0.7514
  597MOL0     C82289   3.404   5.441   4.585 -0.0277 -0.0837 -0.0842
  597MOL0     C82290   3.296   5.543   4.548  0.2842  0.5042 -0.4011
  597MOL0     C82291   3.171   5.470   4.489  0.1108 -0.1201  0.1796
  597MOL0     C82292   3.175   5.379   4.352  1.0393  0.5341  0.1953
  597MOL0    Cl82293   3.024   5.274   4.341  0.2185 -0.3384 -0.1216
  597MOL0     C82294   3.333   5.178   5.203 -0.5527  0.2686 -0.7590
  597MOL0     C82295   3.250   5.220   5.309 -0.7309  0.7449  0.3445
  597MOL0     O82296   2.924   5.414   5.335 -0.9113  0.9106 -0.2925
  597MOL0     C82297   2.801   5.515   5.552 -1.0600  0.2173  0.1031
  597MOL0     C82298   2.747   5.561   5.670  0.3032 -0.4497 -1.0123
  597MOL0     N82299   2.076   5.828   6.038  0.4088  0.4589  1.1046
  597MOL0     N82300   1.977   5.798   6.111  0.4925 -0.1095 -0.1483
  597MOL0     C82301   1.483   5.770   5.930  0.3735  0.0116  0.1885
  597MOL0     C82302   1.469   5.810   5.788 -0.4126 -0.2564  0.0393
  597MOL0     C82303   1.262   6.033   5.419  0.6609 -0.3893  0.7020
  597MOL0     C82304   1.173   6.141   5.382 -0.4046  0.4992 -0.0901
  597MOL0     C82305   1.110   6.151   5.261  0.3919  0.4821  0.4207
  597MOL0     C82306   1.142   6.067   5.147 -1.1643 -0.1734  0.2333
  597MOL0     O82307   1.084   6.071   5.018  0.4178  0.2749  0.2264
  597MOL0     C82308   0.969   6.152   4.991  0.4871  0.0446  0.1246
  597MOL0     C82309   0.949   6.131   4.844  0.6168 -0.0197  0.0144
  597MOL0     C82310   0.813   6.197   4.789 -0.1292  0.3105  0.0842
  597MOL0     C82311   0.680   6.133   4.837  0.0292  0.8810  0.1275
  597MOL0     C82312   0.683   5.988   4.808  0.5777 -0.3961  0.5684
  597MOL0     C82313   0.670   5.863   4.790  0.2250  0.5778  0.3104
  597MOL0     C82314   1.236   5.968   5.176 -0.1447  0.6989 -0.6672
  597MOL0     C82315   1.295   5.949   5.310  0.5299  0.2365  0.9522
  597MOL0     C82316   1.389   5.829   5.333 -0.5433  0.2159 -0.4490
  597MOL0     H82317   1.164   5.964   5.819 -1.9739 -3.3051  1.5751
  597MOL0     H82318   1.188   5.891   6.040  0.1330  1.1348  1.3706
  597MOL0     H82319   1.291   5.599   6.184  1.8269 -0.8376  1.3584
  597MOL0     H82320   1.212   5.747   6.211  0.2706 -0.3331 -0.6968
  597MOL0     H82321   1.342   5.781   6.415  0.9061 -0.4424 -0.2549
  597MOL0     H82322   1.245   5.631   6.412 -1.6954 -0.5666 -3.2527
  597MOL0     H82323   1.535   5.699   6.432  0.2759 -0.7168 -1.4991
  597MOL0     H82324   1.455   5.562   6.519  2.7677 -1.5490  1.2418
  597MOL0     H82325   1.450   5.435   6.327 -0.6130  1.1836  0.7275
  597MOL0     H82326   1.533   5.544   6.218 -1.9510  0.6560 -0.2345
  597MOL0     H82327   1.632   5.384   6.430 -1.9193  1.5554  2.0848
  597MOL0     H82328   1.716   5.546   6.438  0.5767  0.1591 -0.2174
  597MOL0     H82329   1.842   5.363   6.317  1.7307  2.1592 -0.3340
  597MOL0     H82330   1.712   5.367   6.193  0.7019 -1.4219 -0.6155
  597MOL0     H82331   1.746   5.620   6.158  1.3572  0.8985 -2.8931
  597MOL0     H82332   1.864   5.503   6.102 -0.7964 -1.9413  1.2584
  597MOL0     H82333   1.886   5.684   6.342 -0.9432 -0.3763  1.1840
  597MOL0     H82334   1.987   5.544   6.332  2.3556  0.7129 -1.0641
  597MOL0     H82335   2.201   5.585   6.215 -3.2453 -1.6362 -0.6789
  597MOL0     H82336   2.373   5.852   6.105  0.3559 -0.1612  0.9147
  597MOL0     H82337   2.304   5.845   5.941 -3.6508 -0.5731  0.8720
  597MOL0     H82338   2.430   5.616   6.112  1.6338  0.5818  0.8730
  597MOL0     H82339   2.384   5.598   5.948 -0.9875 -0.3056  1.5516
  597MOL0     H82340   2.553   5.772   5.887 -0.9099  0.9623  0.9123
  597MOL0     H82341   2.608   5.776   6.059 -5.5155  0.1581  3.1580
  597MOL0     H82342   2.680   5.553   6.058  0.3145  1.2781 -0.1376
  597MOL0     H82343   2.615   5.528   5.904 -1.5440  1.5401  0.1370
  597MOL0     H82344   3.031   5.592   5.858  2.7218 -0.3136 -2.1687
  597MOL0     H82345   3.233   5.517   5.574 -0.2303 -0.4711  0.9135
  597MOL0     H82346   3.187   5.400   5.699 -0.2898 -0.1579  1.5276
  597MOL0     H82347   3.210   5.571   5.744  2.9049 -2.0245  0.1905
  597MOL0     H82348   3.170   5.533   5.218 -1.0023 -0.0507 -0.3901
  597MOL0     H82349   3.308   5.455   5.018  1.5779 -0.1437 -0.8958
  597MOL0     H82350   3.387   5.030   4.983 -1.1650  1.1175  0.9076
  597MOL0     H82351   3.286   5.138   4.874  0.5591  2.0740 -1.6609
  597MOL0     H82352   3.572   5.065   4.812 -1.0366 -5.0650 -2.2929
  597MOL0     H82353   3.431   5.033   4.719 -1.7264  1.0968 -0.1175
  597MOL0     H82354   3.528   5.216   4.602 -1.7676  1.1103 -1.1539
  597MOL0     H82355   3.568   5.302   4.757 -3.7512  2.6850 -0.4446
  597MOL0     H82356   3.328   5.341   4.768  1.8093 -1.7948  0.7358
  597MOL0     H82357   3.294   5.254   4.619 -1.7601  0.1786 -0.3215
  597MOL0     H82358   3.485   5.499   4.631 -0.7448  1.1107 -0.2738
  597MOL0     H82359   3.434   5.397   4.489 -2.8799 -0.9558 -0.6673
  597MOL0     H82360   3.334   5.618   4.478 -0.7487  3.2810  1.8203
  597MOL0     H82361   3.266   5.595   4.639 -0.2163  1.5854 -1.1552
  597MOL0     H82362   3.094   5.548   4.486 -0.2297 -0.4722 -0.5683
  597MOL0     H82363   3.131   5.402   4.565 -0.0432 -0.1471  0.0750
  597MOL0     H82364   3.269   5.323   4.357 -0.6165 -2.3313  2.3968
  597MOL0     H82365   3.167   5.446   4.267 -1.2204 -0.7567 -0.6785
  597MOL0     H82366   3.393   5.088   5.193 -0.0579  0.5732 -0.5522
  597MOL0     H82367   3.236   5.155   5.394 -0.0723  0.1097 -0.0176
  597MOL0     H82368   2.735   5.506   5.466 -1.1348 -0.8090  0.2565
  597MOL0     H82369   2.640   5.580   5.680  0.5993  0.7717  0.1947
  597MOL0     H82370   1.565   5.707   5.964 -0.9460 -2.6444 -1.2328
  597MOL0     H82371   1.554   5.795   5.722 -0.2217 -2.5179  0.6898
  597MOL0     H82372   1.133   6.215   5.450  0.9141 -0.7384  2.1905
  597MOL0     H82373   1.032   6.226   5.261  0.7337  0.8413  0.8612
  597MOL0     H82374   0.889   6.111   5.054  0.9111 -2.0722 -0.6305
  597MOL0     H82375   0.987   6.256   5.020 -0.8473  0.4441 -0.3581
  597MOL0     H82376   0.951   6.022   4.840  0.6845 -0.3150  3.9613
  597MOL0     H82377   1.029   6.175   4.784 -1.1975  2.0870 -1.0113
  597MOL0     H82378   0.814   6.303   4.812  0.5959 -0.0594  1.8894
  597MOL0     H82379   0.815   6.193   4.680  1.9190  0.6448  0.0791
  597MOL0     H82380   0.595   6.172   4.781  1.5195  0.3534 -2.6692
  597MOL0     H82381   0.655   6.139   4.944  0.0265 -0.9808  0.2534
  597MOL0     H82382   0.659   5.757   4.777 -0.0628  0.1524  3.3742
  597MOL0     H82383   1.263   5.899   5.097  0.4209  1.3046 -1.0051
  597MOL0     H82384   1.342   5.745   5.384 -0.7028  2.5808  3.7382
  597MOL0     H82385   1.427   5.790   5.238  1.5187  0.6675  0.1482
  597MOL0     H82386   1.480   5.857   5.387 -0.9720 -3.3040  2.4636
  598MOL0     O82387   0.977   1.282   8.479  0.2798  0.4024  0.1646
  598MOL0     C82388   0.978   1.341   8.586 -0.8295  0.0281  0.7108
  598MOL0     O82389   1.083   1.353   8.666  0.0109 -0.3789  0.3935
  598MOL0     C82390   1.191   1.266   8.653 -0.3930  1.4893 -1.2949
  598MOL0     C82391   1.285   1.273   8.550  0.0797 -0.3903 -0.2545
  598MOL0     C82392   1.404   1.192   8.547 -0.8037  0.3613  0.6094
  598MOL0     C82393   1.420   1.096   8.646  0.5214  0.4133 -0.3232
  598MOL0     O82394   1.528   1.014   8.644  0.9682 -0.4462 -1.3888
  598MOL0     C82395   1.519   0.883   8.701 -0.3325 -0.6476  0.4449
  598MOL0     C82396   1.609   0.858   8.825  0.1835 -0.0963  0.3226
  598MOL0     C82397   1.728   0.769   8.802 -0.2399 -0.8027 -0.3130
  598MOL0     C82398   1.691   0.626   8.821  0.5175 -0.5935  0.0500
  598MOL0     C82399   1.807   0.525   8.800 -0.5329  0.4425 -0.3958
  598MOL0     C82400   1.869   0.524   8.654 -0.3949 -0.0349  0.2955
  598MOL0     C82401   1.974   0.414   8.642 -0.0861 -0.1689 -0.6952
  598MOL0     C82402   2.046   0.399   8.509 -0.0600 -0.1869  0.5248
  598MOL0     N82403   2.149   0.292   8.504  0.2830 -0.0437  0.4155
  598MOL0     C82404   2.195   0.239   8.385  0.5082 -0.0814 -0.5765
  598MOL0     C82405   2.316   0.191   8.417 -0.0236  0.7874 -0.7899
  598MOL0     C82406   2.411   0.133   8.312 -0.4000  0.9304 -0.5493
  598MOL0     C82407   2.517   0.234   8.260 -0.3631 -0.5568 -0.4624
  598MOL0     C82408   2.451   0.357   8.210 -0.4429 -0.1476  0.0841
  598MOL0     C82409   2.546   0.460   8.151 -0.7612  0.2961  0.4159
  598MOL0     O82410   2.482   0.580   8.108 -0.1679  0.2232 -0.6075
  598MOL0     C82411   2.564   0.689   8.067 -0.2804  0.0894  0.1103
  598MOL0     C82412   2.506   0.818   8.074  0.0694  0.2485  0.0486
  598MOL0     C82413   2.586   0.928   8.036 -0.2802 -0.9218  0.2670
  598MOL0     C82414   2.507   1.050   8.002  0.8493  0.2562  0.0179
  598MOL0     C82415   2.722   0.917   8.010  0.0586 -0.5287 -0.5164
  598MOL0     C82416   2.815   1.037   7.979 -0.1658 -0.0751 -0.2710
  598MOL0     O82417   2.932   1.002   7.933  1.0819  0.6039  0.4104
  598MOL0     C82418   3.028   1.095   7.920  0.5410 -0.6053  0.5964
  598MOL0     C82419   3.019   1.190   7.816  0.3323 -0.1378 -0.5122
  598MOL0     C82420   3.122   1.287   7.796  0.3649 -0.2888  0.1302
  598MOL0     C82421   3.231   1.278   7.872 -0.0900  0.1437 -0.3100
  598MOL0     O82422   3.332   1.370   7.854  0.0203  0.4877  1.0617
  598MOL0     C82423   3.401   1.425   7.971 -0.0423 -0.2111  0.3042
  598MOL0     C82424   3.494   1.541   7.935  0.4466  0.1002  0.2944
  598MOL0     C82425   3.556   1.627   8.055 -0.0287 -0.0458  0.2625
  598MOL0     C82426   3.591   1.564   8.189  0.2866 -1.2434 -1.0706
  598MOL0     C82427   3.630   1.659   8.304  0.2128  1.3475  0.0170
  598MOL0     C82428   3.512   1.733   8.355  0.5940 -0.2575 -0.2333
  598MOL0     C82429   3.526   1.836   8.465 -0.3001  0.5664 -0.9338
  598MOL0     C82430   3.582   1.766   8.593  0.0958 -0.3368  0.0433
  598MOL0    Cl82431   3.559   1.867   8.739 -0.0476 -0.0176 -0.0726
  598MOL0     C82432   3.252   1.174   7.969  0.2549  0.1510  0.2218
  598MOL0     C82433   3.141   1.094   8.000 -0.3633  0.6016  0.0168
  598MOL0     O82434   2.781   1.155   8.003  0.6815  0.3198  0.2950
  598MOL0     C82435   2.778   0.791   8.017  0.3912  0.1522  0.1561
  598MOL0     C82436   2.702   0.675   8.042 -0.4362  0.2031  0.4992
  598MOL0     N82437   2.344   0.195   8.558  0.3358  0.2164  0.5427
  598MOL0     N82438   2.241   0.270   8.605  0.2093 -0.2736 -0.2067
  598MOL0     C82439   1.327   1.093   8.758 -0.5315  0.4489  0.2342
  598MOL0     C82440   1.221   1.175   8.762  0.6873 -0.4862 -0.2681
  598MOL0     C82441   0.869   1.431   8.621  0.0069 -0.5353 -0.2996
  598MOL0     C82442   0.880   1.567   8.590 -0.3906 -0.1919  0.0877
  598MOL0     C82443   0.800   1.657   8.662  0.5757 -0.1239  0.5222
  598MOL0     C82444   0.700   1.607   8.751  0.0154  0.5126  0.8125
  598MOL0     O82445   0.629   1.692   8.834  0.7256  0.7024  0.3674
  598MOL0     C82446   0.706   1.753   8.926 -0.7326  0.9779 -0.6561
  598MOL0     C82447   0.614   1.810   9.028  1.1263  0.0175 -0.3701
  598MOL0     C82448   0.546   1.697   9.113 -0.3956  0.1106 -0.0094
  598MOL0     C82449   0.477   1.766   9.231  1.0180  0.0981  0.0049
  598MOL0     C82450   0.400   1.665   9.311 -0.3810  0.1666  0.0469
  598MOL0     C82451   0.350   1.584   9.395  0.0231  0.2063  0.1990
  598MOL0     C82452   0.674   1.472   8.762 -0.3959 -0.2020 -0.0618
  598MOL0     C82453   0.755   1.384   8.697  0.6172  0.0505  0.7135
  598MOL0     C82454   0.740   1.241   8.739 -0.3864 -0.6606  0.0289
  598MOL0     H82455   1.274   1.354   8.480  0.1813  0.7288  0.9918
  598MOL0     H82456   1.467   1.213   8.461  0.7888  1.6499  2.0515
  598MOL0     H82457   1.533   0.810   8.620 -2.1143  0.4315 -0.9251
  598MOL0     H82458   1.418   0.859   8.735  0.0810 -2.7346  0.3382
  598MOL0     H82459   1.648   0.959   8.838 -0.5568  0.5934 -2.1601
  598MOL0     H82460   1.547   0.818   8.906 -0.7717  1.7157  0.5385
  598MOL0     H82461   1.781   0.802   8.712 -2.4067  4.0067 -0.1231
  598MOL0     H82462   1.784   0.787   8.894 -1.8873 -2.0071  0.9893
  598MOL0     H82463   1.670   0.613   8.928  0.0099 -0.1953  0.0029
  598MOL0     H82464   1.606   0.590   8.763 -0.9466  2.7300 -0.0526
  598MOL0     H82465   1.792   0.423   8.834  0.3180  0.9360  1.5712
  598MOL0     H82466   1.880   0.555   8.876 -0.4467 -1.7480  0.4572
  598MOL0     H82467   1.797   0.512   8.572 -0.3215 -1.8584  0.4464
  598MOL0     H82468   1.915   0.622   8.639 -0.7042 -0.0363 -0.7157
  598MOL0     H82469   1.929   0.314   8.649 -3.4575  1.0006 -3.2285
  598MOL0     H82470   2.053   0.420   8.717  0.4711 -0.0678 -1.2800
  598MOL0     H82471   1.966   0.397   8.435 -0.4440  2.6734  0.7432
  598MOL0     H82472   2.093   0.494   8.481  1.9785 -1.9422 -2.5695
  598MOL0     H82473   2.168   0.253   8.280 -0.2643  2.2597 -0.1299
  598MOL0     H82474   2.358   0.085   8.229  3.0492 -0.4082 -2.1336
  598MOL0     H82475   2.469   0.056   8.363 -3.0689 -0.4169  0.6829
  598MOL0     H82476   2.588   0.255   8.340  2.5361 -3.5113 -1.9866
  598MOL0     H82477   2.571   0.192   8.174  0.4278  0.9826 -0.7468
  598MOL0     H82478   2.378   0.328   8.134  1.5740 -6.1071 -0.1331
  598MOL0     H82479   2.410   0.406   8.299 -1.0562 -0.0104 -0.2671
  598MOL0     H82480   2.622   0.481   8.227 -2.2095 -1.0228  2.3519
  598MOL0     H82481   2.595   0.426   8.060 -2.2217  2.6758 -1.3675
  598MOL0     H82482   2.404   0.821   8.112  0.1499 -3.0196  0.8090
  598MOL0     H82483   2.399   1.036   8.006  0.9084  0.0029  1.1357
  598MOL0     H82484   2.524   1.085   7.900 -0.8165  3.3406  0.6792
  598MOL0     H82485   2.530   1.135   8.066  2.2547 -0.6210  0.7293
  598MOL0     H82486   2.933   1.198   7.750  0.4351 -4.0983 -1.3577
  598MOL0     H82487   3.103   1.353   7.712  0.0563 -2.7039 -1.8411
  598MOL0     H82488   3.321   1.449   8.042  0.4522  0.2780  0.6971
  598MOL0     H82489   3.462   1.350   8.022 -0.2714 -0.0326  0.8429
  598MOL0     H82490   3.560   1.502   7.857 -0.8183 -3.8668  0.9552
  598MOL0     H82491   3.422   1.609   7.888 -0.4568 -1.6456 -0.9842
  598MOL0     H82492   3.480   1.706   8.060  0.1090  0.1229 -0.3145
  598MOL0     H82493   3.650   1.673   8.023 -0.6449  2.1259  1.3258
  598MOL0     H82494   3.680   1.502   8.170  0.6036 -0.8388 -0.9243
  598MOL0     H82495   3.509   1.503   8.227 -0.0075  0.2086  0.7603
  598MOL0     H82496   3.668   1.603   8.389  1.2366  2.0746  0.0591
  598MOL0     H82497   3.699   1.729   8.256  0.0961  0.2764 -1.7942
  598MOL0     H82498   3.437   1.659   8.387 -2.6869  0.6760 -4.7918
  598MOL0     H82499   3.458   1.787   8.278 -3.5314 -3.7622 -0.2181
  598MOL0     H82500   3.428   1.869   8.499  0.0376  0.1165  0.5745
  598MOL0     H82501   3.593   1.917   8.435 -0.7814  1.4685  0.3397
  598MOL0     H82502   3.683   1.726   8.586  0.4351  0.8172 -2.9020
  598MOL0     H82503   3.514   1.682   8.610  2.8591 -2.5890  0.5895
  598MOL0     H82504   3.350   1.165   8.013  0.6447 -0.0874 -0.6776
  598MOL0     H82505   3.142   1.020   8.079 -0.4172  2.2627  1.6322
  598MOL0     H82506   2.886   0.786   8.008  0.2949 -1.1701 -0.4540
  598MOL0     H82507   2.742   0.574   8.042 -1.7496 -0.3775 -1.2731
  598MOL0     H82508   1.331   1.030   8.846  0.4701  2.3797  1.6314
  598MOL0     H82509   1.145   1.167   8.840  2.0760  1.0289  1.3131
  598MOL0     H82510   0.972   1.603   8.546  0.3016 -2.7205 -0.7216
  598MOL0     H82511   0.803   1.765   8.651  1.9420 -0.0346  1.4024
  598MOL0     H82512   0.771   1.674   8.966 -1.1373  0.0008 -1.8378
  598MOL0     H82513   0.759   1.836   8.879 -2.2070  0.9303 -2.5341
  598MOL0     H82514   0.532   1.865   8.982  0.7373  0.1961  0.5123
  598MOL0     H82515   0.665   1.869   9.104  1.3092 -1.9206  1.0922
  598MOL0     H82516   0.468   1.656   9.049  0.9848  1.7428 -2.9079
  598MOL0     H82517   0.621   1.625   9.146  0.4444  0.1402 -1.7561
  598MOL0     H82518   0.407   1.839   9.189 -0.0517 -1.8678 -1.8824
  598MOL0     H82519   0.555   1.814   9.290 -0.9257  1.4150  1.6401
  598MOL0     H82520   0.308   1.504   9.452  1.3780 -1.6052 -1.2022
  598MOL0     H82521   0.597   1.435   8.828 -0.7098 -0.8268 -0.7606
  598MOL0     H82522   0.640   1.202   8.721  0.6300 -2.0111 -3.8432
  598MOL0     H82523   0.805   1.176   8.679 -1.0474  0.0546 -1.5225
  598MOL0     H82524   0.772   1.230   8.843 -1.0785 -0.2115  0.2911
  599MOL0     O82525   2.620   5.109  10.870  0.5306 -0.5744 -0.3321
  599MOL0     C82526   2.728   5.086  10.922  1.2345 -0.6129 -0.0584
  599MOL0     O82527   2.807   5.175  10.992 -0.4057 -0.5300  0.5269
  599MOL0     C82528   2.777   5.314  11.002 -0.4622 -0.4338 -0.3176
  599MOL0     C82529   2.713   5.400  10.905  0.2764  0.7044  0.0436
  599MOL0     C82530   2.713   5.539  10.912  0.2410 -0.0345  0.0448
  599MOL0     C82531   2.776   5.603  11.018 -0.2492 -0.1359  0.5069
  599MOL0     O82532   2.787   5.739  11.030  1.3074 -0.0360 -0.3446
  599MOL0     C82533   2.731   5.820  10.926 -0.3312 -0.6105 -0.0954
  599MOL0     C82534   2.757   5.971  10.959  0.5646  0.1537  1.1076
  599MOL0     C82535   2.849   6.030  10.843 -0.7108  1.3560 -0.0269
  599MOL0     C82536   2.899   6.162  10.885 -0.0811 -0.0013 -0.4696
  599MOL0     C82537   2.974   6.242  10.772 -1.2018  1.0201  0.5094
  599MOL0     C82538   2.884   6.285  10.656  0.7624 -0.1923 -1.0496
  599MOL0     C82539   2.929   6.408  10.577 -0.5635  0.1681  0.3555
  599MOL0     C82540   3.049   6.372  10.474  0.8516  0.7143  0.2751
  599MOL0     N82541   3.100   6.476  10.395 -0.5614 -0.3567 -0.1028
  599MOL0     C82542   3.184   6.459  10.287  0.1322 -0.0490 -0.7050
  599MOL0     C82543   3.214   6.580  10.242  0.5757 -0.7418  0.7607
  599MOL0     C82544   3.314   6.584  10.136 -0.3785  0.5585  0.0044
  599MOL0     C82545   3.439   6.494  10.173  0.0085 -0.7267  0.4330
  599MOL0     C82546   3.539   6.444  10.066 -0.0251  0.0989 -0.4087
  599MOL0     C82547   3.559   6.535   9.948 -0.2799  0.2008 -0.5976
  599MOL0     O82548   3.604   6.659  10.006  0.3795  0.6684  0.8038
  599MOL0     C82549   3.622   6.754   9.913  0.2688 -0.3306  0.7217
  599MOL0     C82550   3.670   6.744   9.775  0.4731  0.0507  0.0559
  599MOL0     C82551   3.687   6.856   9.697  0.0850 -0.8265  0.0202
  599MOL0     C82552   3.746   6.840   9.557  0.5681 -0.0326 -0.3423
  599MOL0     C82553   3.651   6.985   9.754 -0.4168 -0.5634  0.0900
  599MOL0     C82554   3.660   7.108   9.674 -0.0651  0.1157 -0.3961
  599MOL0     O82555   3.604   7.217   9.730 -0.7744 -0.4729 -0.3662
  599MOL0     C82556   3.608   7.345   9.687 -0.6570  0.7760  0.4330
  599MOL0     C82557   3.622   7.441   9.792  0.3033  0.8228 -0.6662
  599MOL0     C82558   3.643   7.579   9.765 -0.2434  0.2535 -0.3089
  599MOL0     C82559   3.646   7.616   9.630 -0.0547  0.5292 -1.1328
  599MOL0     O82560   3.660   7.744   9.591  0.2328 -0.2043  0.0317
  599MOL0     C82561   3.786   7.782   9.540 -0.7383 -0.0475  0.5509
  599MOL0     C82562   3.838   7.870   9.648  0.4131 -0.0708  0.5633
  599MOL0     C82563   3.994   7.899   9.648  0.3573 -0.8655 -0.5974
  599MOL0     C82564   4.039   7.956   9.513 -0.1042 -0.2867  0.1542
  599MOL0     C82565   4.195   7.995   9.513  0.4463  0.5078  0.5431
  599MOL0     C82566   4.276   7.865   9.508 -0.5504  0.2952  0.9894
  599MOL0     C82567   4.425   7.898   9.488  0.0009 -0.7340  0.2869
  599MOL0     C82568   4.520   7.783   9.466 -0.0319 -0.5920 -0.4423
  599MOL0    Cl82569   4.686   7.835   9.448 -0.2626  0.1948  0.0630
  599MOL0     C82570   3.639   7.523   9.530 -0.4014  0.2797  0.3288
  599MOL0     C82571   3.623   7.387   9.556 -0.2829  0.1331 -0.4734
  599MOL0     O82572   3.718   7.103   9.568 -0.2903  0.3655  0.0601
  599MOL0     C82573   3.611   7.000   9.886 -0.1244  0.1684  0.2327
  599MOL0     C82574   3.599   6.886   9.960 -0.0571  0.4280  0.2640
  599MOL0     N82575   3.163   6.678  10.323  0.3032 -0.1952 -0.3550
  599MOL0     N82576   3.100   6.613  10.419 -0.1708 -0.4202 -0.2310
  599MOL0     C82577   2.849   5.523  11.112  0.6007  0.3568  0.2708
  599MOL0     C82578   2.841   5.384  11.112  0.5154  0.5690  0.3049
  599MOL0     C82579   2.759   4.941  10.925  0.1018  0.3995 -0.1571
  599MOL0     C82580   2.879   4.909  11.008 -1.2745 -0.5180  0.0285
  599MOL0     C82581   2.948   4.790  11.000  0.5931  0.0390 -0.0749
  599MOL0     C82582   2.890   4.686  10.916  0.0463 -0.7409 -0.9165
  599MOL0     O82583   2.938   4.563  10.890  0.4533 -0.3958  0.0314
  599MOL0     C82584   3.066   4.535  10.947  0.8303  0.6045 -0.9352
  599MOL0     C82585   3.097   4.388  10.930  0.3963  0.2158  0.2345
  599MOL0     C82586   3.243   4.343  10.925 -0.0615 -0.3120 -0.4016
  599MOL0     C82587   3.330   4.377  11.048  0.5717  0.5998 -0.8622
  599MOL0     C82588   3.468   4.343  11.035 -0.3885 -0.1664 -0.5089
  599MOL0     C82589   3.583   4.308  11.016  0.0156 -0.5507  0.1614
  599MOL0     C82590   2.783   4.717  10.833 -0.3840  0.2481 -0.1250
  599MOL0     C82591   2.708   4.837  10.839  0.3307 -0.2427 -0.3663
  599MOL0     C82592   2.581   4.854  10.750 -0.2555  0.2081 -0.1756
  599MOL0     H82593   2.675   5.344  10.820  1.5706  1.0741 -0.8115
  599MOL0     H82594   2.677   5.605  10.834  3.7721 -1.7538 -3.4250
  599MOL0     H82595   2.623   5.805  10.909 -0.7749  1.3327  0.7120
  599MOL0     H82596   2.781   5.796  10.831  2.5971 -0.3771  1.2916
  599MOL0     H82597   2.657   6.014  10.974 -0.0841 -0.3539 -1.2061
  599MOL0     H82598   2.810   5.979  11.054  0.0487  0.0165  1.4104
  599MOL0     H82599   2.929   5.956  10.854 -2.2292 -0.6671 -1.8443
  599MOL0     H82600   2.800   6.023  10.746  2.1783 -0.5022 -1.5065
  599MOL0     H82601   2.821   6.219  10.937  1.7884  0.7919  1.6503
  599MOL0     H82602   2.963   6.133  10.968 -2.4036 -3.2664  0.3890
  599MOL0     H82603   3.063   6.191  10.733  1.2778  5.1474  0.1729
  599MOL0     H82604   3.017   6.331  10.818 -0.1049  0.5958  0.3414
  599MOL0     H82605   2.870   6.204  10.584 -3.0787 -0.2813 -0.4514
  599MOL0     H82606   2.788   6.306  10.704  1.3061  0.2115 -0.1084
  599MOL0     H82607   2.974   6.479  10.647  1.8527 -0.0693 -0.8646
  599MOL0     H82608   2.845   6.460  10.529  0.3774  1.7620  0.3819
  599MOL0     H82609   3.133   6.340  10.537 -0.0203  0.6383  1.4287
  599MOL0     H82610   3.010   6.290  10.414  3.3215  0.6110 -1.3497
  599MOL0     H82611   3.205   6.368  10.232  2.1825 -0.4356  0.6034
  599MOL0     H82612   3.339   6.686  10.106  0.6621  1.5504  3.7099
  599MOL0     H82613   3.282   6.538  10.042  0.9501  0.6218 -0.5008
  599MOL0     H82614   3.500   6.548  10.247 -2.3653  0.4567  1.6233
  599MOL0     H82615   3.404   6.404  10.224 -0.5421 -1.9674 -2.0035
  599MOL0     H82616   3.636   6.431  10.115 -0.3493  0.3042  0.2951
  599MOL0     H82617   3.515   6.342  10.033  1.6460 -0.3512 -0.3341
  599MOL0     H82618   3.626   6.487   9.877 -0.4134 -0.1836 -0.4625
  599MOL0     H82619   3.468   6.550   9.889 -1.5503 -1.3193  0.8768
  599MOL0     H82620   3.667   6.646   9.729 -0.5726  1.2247 -2.6068
  599MOL0     H82621   3.675   6.875   9.482 -1.0161  0.0753  1.1543
  599MOL0     H82622   3.772   6.735   9.539 -1.7895 -0.4543 -1.5587
  599MOL0     H82623   3.841   6.895   9.551 -0.8184  2.5271 -0.1902
  599MOL0     H82624   3.626   7.410   9.896 -1.3000  2.0983 -0.1879
  599MOL0     H82625   3.639   7.665   9.832  0.0900  1.5903 -1.9543
  599MOL0     H82626   3.851   7.693   9.534 -1.8565 -0.9048  0.8235
  599MOL0     H82627   3.793   7.826   9.440 -1.5302 -0.7966  0.1496
  599MOL0     H82628   3.792   7.970   9.645 -0.7076 -0.5265  1.8247
  599MOL0     H82629   3.809   7.823   9.742 -2.0729  0.7585  0.2954
  599MOL0     H82630   4.050   7.811   9.681 -3.6983 -3.1265  1.0211
  599MOL0     H82631   4.007   7.978   9.724 -0.3075 -1.6481  0.3532
  599MOL0     H82632   3.977   8.042   9.488 -1.2854 -2.0049 -3.5596
  599MOL0     H82633   4.020   7.901   9.420  0.8968  2.3518 -1.7310
  599MOL0     H82634   4.216   8.061   9.428  0.5760  2.2365  1.8421
  599MOL0     H82635   4.222   8.044   9.607 -0.1929  2.3883 -0.1911
  599MOL0     H82636   4.254   7.817   9.413  3.9404 -1.2985  0.5028
  599MOL0     H82637   4.259   7.794   9.589 -1.5982 -1.8322 -1.0092
  599MOL0     H82638   4.457   7.949   9.579  0.6611  1.9051 -1.3284
  599MOL0     H82639   4.438   7.957   9.397  1.0267 -2.5114 -0.7670
  599MOL0     H82640   4.485   7.727   9.378  1.4850 -1.1452 -0.7335
  599MOL0     H82641   4.523   7.715   9.551  1.0056  1.4471  1.2328
  599MOL0     H82642   3.656   7.548   9.426 -2.2582  1.8179  0.3328
  599MOL0     H82643   3.628   7.322   9.470  2.8767  1.2900 -1.3235
  599MOL0     H82644   3.584   7.095   9.930  1.5694  0.9345 -0.3293
  599MOL0     H82645   3.561   6.883  10.062 -1.2491 -4.4404 -0.0459
  599MOL0     H82646   2.890   5.569  11.201  1.6898  0.5412 -0.3033
  599MOL0     H82647   2.891   5.330  11.192 -2.6977 -1.1407  1.3812
  599MOL0     H82648   2.920   4.987  11.070  0.6936 -0.8042 -0.8383
  599MOL0     H82649   3.043   4.781  11.050 -0.1839  1.3738  1.7520
  599MOL0     H82650   3.143   4.595  10.898  0.1642  2.3113  0.0189
  599MOL0     H82651   3.069   4.558  11.054  2.1890 -0.8929 -0.6241
  599MOL0     H82652   3.061   4.360  10.830 -0.7837  2.7200 -0.1161
  599MOL0     H82653   3.045   4.334  11.010 -0.3807 -1.6137 -1.4189
  599MOL0     H82654   3.255   4.236  10.906  0.2177 -0.2446 -0.6203
  599MOL0     H82655   3.293   4.396  10.843 -0.8054  0.0254 -0.6467
  599MOL0     H82656   3.280   4.312  11.120 -2.2216  2.3063 -1.0981
  599MOL0     H82657   3.313   4.483  11.068  0.5995  0.6525 -1.1059
  599MOL0     H82658   3.686   4.285  10.998  1.4140  3.5696  1.8428
  599MOL0     H82659   2.747   4.645  10.760  0.1870 -0.5519  0.3571
  599MOL0     H82660   2.594   4.928  10.671 -3.1334  1.4013  0.3248
  599MOL0     H82661   2.554   4.751  10.722 -0.8406  1.1215 -3.2997
  599MOL0     H82662   2.505   4.895  10.817 -0.6745  0.6414 -0.9063
  600MOL0     O82663   0.930   1.770   9.153 -0.5313 -0.8344 -0.0504
  600MOL0     C82664   1.024   1.698   9.189  0.1244 -0.1961 -0.0172
  600MOL0     O82665   1.034   1.627   9.309  0.4662  0.4506 -0.2767
  600MOL0     C82666   0.920   1.656   9.393  0.4917 -0.3397  0.7565
  600MOL0     C82667   0.906   1.776   9.454  0.4707 -1.4277 -0.0178
  600MOL0     C82668   0.795   1.803   9.531  0.0133 -0.2505 -0.2928
  600MOL0     C82669   0.696   1.706   9.544  0.5963 -0.3953  0.6903
  600MOL0     O82670   0.584   1.747   9.617 -0.0109  0.0145  0.0525
  600MOL0     C82671   0.588   1.683   9.750  0.2161 -0.0619 -0.7051
  600MOL0     C82672   0.494   1.769   9.833 -0.2126  0.1877 -0.1894
  600MOL0     C82673   0.343   1.750   9.813  0.3810 -0.0829  0.4954
  600MOL0     C82674   0.292   1.599   9.832  0.0976 -0.8538  0.5055
  600MOL0     C82675   0.144   1.594   9.853  0.1878  0.6756  0.3814
  600MOL0     C82676   0.090   1.453   9.892  0.5589 -0.1141 -0.3716
  600MOL0     C82677   0.139   1.339   9.798  0.1249 -0.3632  0.2855
  600MOL0     C82678   0.094   1.199   9.837  0.0563 -0.4220 -0.0190
  600MOL0     N82679   0.109   1.112   9.717 -0.3967  0.2334  0.4443
  600MOL0     C82680   0.179   0.999   9.718 -0.6306  0.0000  0.3687
  600MOL0     C82681   0.157   0.946   9.597 -0.4411  0.3999  0.5460
  600MOL0     C82682   0.231   0.818   9.543  0.2718  0.0223  0.0829
  600MOL0     C82683   0.269   0.829   9.400 -0.5262  0.1565 -0.0966
  600MOL0     C82684   0.157   0.784   9.297  0.0354 -0.0224  0.7137
  600MOL0     C82685   0.189   0.835   9.162  0.4084 -0.4246  0.3895
  600MOL0     O82686   0.319   0.801   9.107  0.2476  0.3519 -0.7619
  600MOL0     C82687   0.357   0.847   8.987 -0.2966 -0.2767  0.1171
  600MOL0     C82688   0.452   0.774   8.928  0.0317  0.1565 -1.2944
  600MOL0     C82689   0.507   0.806   8.806 -0.6098 -0.1136  0.6100
  600MOL0     C82690   0.606   0.714   8.747 -0.0506  1.0458  0.1601
  600MOL0     C82691   0.454   0.922   8.734 -0.0600 -0.0166 -0.2233
  600MOL0     C82692   0.503   0.972   8.595  0.3831 -0.1772 -1.1249
  600MOL0     O82693   0.628   0.955   8.549 -0.7505  0.1866  0.7329
  600MOL0     C82694   0.669   0.954   8.416 -0.2486  0.6035  0.0170
  600MOL0     C82695   0.587   0.917   8.305  0.4763 -0.5386 -0.4079
  600MOL0     C82696   0.640   0.920   8.175  0.2207  0.3444  0.2901
  600MOL0     C82697   0.771   0.959   8.150  0.4382  1.0178  0.2129
  600MOL0     O82698   0.814   0.979   8.019  0.1534 -0.4763  0.1148
  600MOL0     C82699   0.946   0.937   7.986  1.3832  0.3640 -0.1344
  600MOL0     C82700   0.952   0.785   7.963 -0.3802  0.0536 -0.0719
  600MOL0     C82701   1.087   0.744   7.906 -0.1883 -0.0671  0.8612
  600MOL0     C82702   1.200   0.736   8.013 -0.4878  0.8734 -0.1134
  600MOL0     C82703   1.352   0.734   7.961  0.9163  0.2573 -0.1350
  600MOL0     C82704   1.391   0.596   7.916 -0.6919 -0.2983  0.2870
  600MOL0     C82705   1.535   0.600   7.864 -0.0241 -0.1396 -0.3615
  600MOL0     C82706   1.535   0.674   7.722 -0.5834  1.2980  0.7687
  600MOL0    Cl82707   1.445   0.568   7.608 -0.2176 -0.4210  0.0420
  600MOL0     C82708   0.852   0.994   8.260 -0.5578 -0.3371 -0.3457
  600MOL0     C82709   0.800   0.990   8.390 -0.0912 -1.1347  0.2731
  600MOL0     O82710   0.416   1.033   8.530 -0.6645  0.1998 -0.4306
  600MOL0     C82711   0.359   0.991   8.799  0.7312 -0.2285  0.6684
  600MOL0     C82712   0.304   0.957   8.921  0.8627  0.6265 -0.7709
  600MOL0     N82713   0.079   1.026   9.528  0.2457  0.3968 -0.5210
  600MOL0     N82714   0.036   1.121   9.601 -0.1699  0.2143 -0.2169
  600MOL0     C82715   0.704   1.594   9.473 -0.7331 -0.3067  0.6836
  600MOL0     C82716   0.818   1.559   9.401 -0.4160 -0.0801  0.4156
  600MOL0     C82717   1.137   1.677   9.090  0.0719  0.4000 -0.7847
  600MOL0     C82718   1.106   1.700   8.955  0.4722  0.2243 -0.2376
  600MOL0     C82719   1.200   1.667   8.852  0.0788  0.0221  0.7446
  600MOL0     C82720   1.325   1.609   8.887  0.8064  0.5987 -0.0984
  600MOL0     O82721   1.430   1.588   8.801 -0.3159  0.1593 -0.0957
  600MOL0     C82722   1.416   1.601   8.661 -0.5826 -0.0042  0.6502
  600MOL0     C82723   1.471   1.738   8.614  0.4236 -0.4990  0.8997
  600MOL0     C82724   1.628   1.740   8.636 -1.0268  0.3045 -0.4537
  600MOL0     C82725   1.696   1.837   8.543 -0.2572 -0.5182  0.2589
  600MOL0     C82726   1.632   1.968   8.542  1.0744 -0.1933  0.4519
  600MOL0     C82727   1.593   2.087   8.539 -0.0922  0.2947 -0.7107
  600MOL0     C82728   1.361   1.600   9.018 -0.6531  0.4317 -0.5036
  600MOL0     C82729   1.270   1.629   9.120  0.1317  0.0329 -0.7000
  600MOL0     C82730   1.324   1.634   9.260 -0.0350 -0.0283  0.3896
  600MOL0     H82731   0.983   1.852   9.446  0.8005 -1.7765 -0.1469
  600MOL0     H82732   0.779   1.901   9.575  1.0181 -0.5068  0.7121
  600MOL0     H82733   0.689   1.695   9.790 -0.9128  0.8952  2.1659
  600MOL0     H82734   0.553   1.580   9.739 -1.7785  0.3576  0.8917
  600MOL0     H82735   0.512   1.749   9.939  1.8403 -0.7628 -0.6633
  600MOL0     H82736   0.520   1.872   9.807 -0.2554 -0.4053 -2.8674
  600MOL0     H82737   0.302   1.817   9.889 -0.4749 -0.7193  0.6145
  600MOL0     H82738   0.315   1.800   9.719  0.4412 -1.0374 -0.0367
  600MOL0     H82739   0.316   1.541   9.742  1.0428 -4.3160  2.8108
  600MOL0     H82740   0.343   1.554   9.918 -1.1871  1.5952  2.6974
  600MOL0     H82741   0.092   1.616   9.760 -2.2426  1.8324  1.9097
  600MOL0     H82742   0.120   1.668   9.930  2.6560  3.1404 -1.0576
  600MOL0     H82743   0.108   1.426   9.996  1.7289  1.4565 -0.1160
  600MOL0     H82744  -0.019   1.464   9.885  0.6203  0.2408 -0.8815
  600MOL0     H82745   0.248   1.338   9.793  0.3575  2.3320  2.3384
  600MOL0     H82746   0.098   1.365   9.700  2.7352 -0.5518 -0.9298
  600MOL0     H82747   0.155   1.156   9.917  0.6189  1.1519  0.4438
  600MOL0     H82748  -0.009   1.186   9.870  1.0002 -3.4298  2.1244
  600MOL0     H82749   0.247   0.969   9.797 -0.6321  1.2948  0.8792
  600MOL0     H82750   0.170   0.728   9.554  1.5426 -0.6040  2.6466
  600MOL0     H82751   0.319   0.817   9.607 -0.0116  1.7974  0.5515
  600MOL0     H82752   0.298   0.931   9.370 -2.4040 -0.2622 -4.0339
  600MOL0     H82753   0.357   0.765   9.389  0.0454 -0.0532  4.1416
  600MOL0     H82754   0.150   0.675   9.298 -3.0783  0.0768  0.0680
  600MOL0     H82755   0.057   0.823   9.320 -0.3803 -0.0920 -0.8546
  600MOL0     H82756   0.115   0.790   9.096  1.4638  0.2881 -1.3612
  600MOL0     H82757   0.178   0.944   9.165  0.7970 -0.2107 -2.7937
  600MOL0     H82758   0.491   0.688   8.982  1.1881  2.1546  1.2759
  600MOL0     H82759   0.600   0.723   8.639 -2.0397  0.0616  0.1440
  600MOL0     H82760   0.561   0.617   8.770 -5.1154  1.6017 -5.2777
  600MOL0     H82761   0.713   0.713   8.770  0.4682 -0.7836 -1.9654
  600MOL0     H82762   0.487   0.878   8.318  0.3329 -0.8450 -2.1583
  600MOL0     H82763   0.578   0.887   8.092  1.0051 -3.8488  1.1297
  600MOL0     H82764   0.972   0.985   7.891 -0.4728  0.5701 -0.5789
  600MOL0     H82765   1.021   0.973   8.057  0.6770 -3.5857  2.9702
  600MOL0     H82766   0.941   0.749   8.066  1.6950  0.5576  0.3690
  600MOL0     H82767   0.869   0.752   7.900  1.8686 -0.3289 -3.0800
  600MOL0     H82768   1.128   0.804   7.825  0.2515 -0.7922  0.5385
  600MOL0     H82769   1.080   0.647   7.856  2.0911  0.3601 -0.4184
  600MOL0     H82770   1.175   0.642   8.062  2.3704 -1.2665 -2.3423
  600MOL0     H82771   1.184   0.816   8.085 -1.3693  0.9347 -0.3655
  600MOL0     H82772   1.343   0.816   7.889  4.0409  1.8151  1.0476
  600MOL0     H82773   1.428   0.768   8.032  2.6388 -0.0207 -1.7604
  600MOL0     H82774   1.312   0.569   7.846 -1.6636  3.0626 -0.0841
  600MOL0     H82775   1.387   0.518   7.992 -2.1085 -2.0811 -1.4979
  600MOL0     H82776   1.582   0.501   7.861  0.0722 -0.0631 -1.8602
  600MOL0     H82777   1.594   0.660   7.934 -2.6469  0.4784  1.5047
  600MOL0     H82778   1.635   0.678   7.679 -0.9855 -0.0393 -0.3612
  600MOL0     H82779   1.506   0.779   7.730  2.2701  2.0144  4.4341
  600MOL0     H82780   0.956   1.017   8.242 -0.3880 -0.7520  0.0755
  600MOL0     H82781   0.860   1.031   8.471 -2.1686  0.4180  1.1216
  600MOL0     H82782   0.316   1.080   8.753  1.7645 -0.9970 -1.9223
  600MOL0     H82783   0.215   1.013   8.947  1.3468  0.6471  1.0213
  600MOL0     H82784   0.626   1.518   9.472 -2.8957  1.7831 -1.0204
  600MOL0     H82785   0.835   1.464   9.350 -1.7529  0.6318 -1.4739
  600MOL0     H82786   1.005   1.729   8.931 -0.6911 -0.6410  3.0268
  600MOL0     H82787   1.177   1.714   8.757  1.9917  2.9137  1.5544
  600MOL0     H82788   1.482   1.529   8.614 -0.8402 -1.4495  2.3749
  600MOL0     H82789   1.321   1.574   8.613  0.2872 -3.7129  0.7803
  600MOL0     H82790   1.416   1.817   8.664  1.6733  1.4557 -0.6310
  600MOL0     H82791   1.446   1.751   8.508 -0.7779 -3.8637  0.6468
  600MOL0     H82792   1.651   1.775   8.737 -3.0247 -0.4200  0.2940
  600MOL0     H82793   1.678   1.644   8.623  2.8242  2.1494 -0.7561
  600MOL0     H82794   1.689   1.802   8.439 -2.3031  1.4850 -0.3813
  600MOL0     H82795   1.802   1.856   8.559 -0.4449 -0.1446  1.1255
  600MOL0     H82796   1.563   2.190   8.533  0.2391  0.3526 -1.6749
  600MOL0     H82797   1.461   1.565   9.041 -0.3558  3.1151  3.2018
  600MOL0     H82798   1.432   1.621   9.264  0.2756  0.8750 -2.6066
  600MOL0     H82799   1.284   1.723   9.308  0.2495 -0.2645  1.0628
  600MOL0     H82800   1.282   1.551   9.318 -0.4522  1.0824  1.7347
  601MOL0     O82801   1.415   4.552   5.724 -0.0901 -0.1685 -1.2834
  601MOL0     C82802   1.445   4.662   5.684  0.5741  0.9337 -0.0262
  601MOL0     O82803   1.570   4.710   5.680 -0.4717  0.4632 -0.2415
  601MOL0     C82804   1.673   4.655   5.762 -0.7450 -1.1411 -0.1160
  601MOL0     C82805   1.651   4.617   5.891 -0.2072 -0.3506  0.2826
  601MOL0     C82806   1.758   4.590   5.984  0.3260  0.0490  0.2994
  601MOL0     C82807   1.890   4.603   5.932  1.0589 -0.3234 -0.7471
  601MOL0     O82808   1.998   4.560   6.013  0.3704  0.4565 -0.2131
  601MOL0     C82809   2.118   4.647   6.008 -0.2682 -0.4088 -0.0611
  601MOL0     C82810   2.127   4.760   6.114  0.3430 -0.0542 -0.4922
  601MOL0     C82811   2.255   4.831   6.116 -0.2416 -0.5119  0.2323
  601MOL0     C82812   2.333   4.844   6.249  0.7788  0.4844  0.5245
  601MOL0     C82813   2.472   4.888   6.230 -0.3028  0.0070 -0.5972
  601MOL0     C82814   2.560   4.791   6.143  0.6532 -0.7149  0.4477
  601MOL0     C82815   2.708   4.816   6.180  0.0543 -0.7931 -0.3942
  601MOL0     C82816   2.788   4.756   6.071 -0.0402 -0.3932 -0.0429
  601MOL0     N82817   2.925   4.789   6.088 -0.4616 -0.3018  0.0888
  601MOL0     C82818   2.991   4.907   6.065  0.5704  0.2123  0.6172
  601MOL0     C82819   3.113   4.896   6.104 -0.1133 -0.3135  0.5765
  601MOL0     C82820   3.211   5.003   6.094  0.9597  1.0592 -0.4697
  601MOL0     C82821   3.301   5.022   6.224  1.0271  0.3861  0.0556
  601MOL0     C82822   3.222   5.040   6.351  0.5751  0.1588 -0.2365
  601MOL0     C82823   3.315   5.049   6.466  0.1505  0.1678 -0.0830
  601MOL0     O82824   3.351   5.190   6.485 -0.5042  0.6883  0.1814
  601MOL0     C82825   3.374   5.230   6.613  0.0481  0.5178 -0.6855
  601MOL0     C82826   3.324   5.361   6.628  0.3209  0.1111  0.4512
  601MOL0     C82827   3.351   5.435   6.743 -0.3009 -0.2200  0.3445
  601MOL0     C82828   3.292   5.577   6.750 -0.3097  0.6620 -0.6629
  601MOL0     C82829   3.436   5.374   6.840  0.4198  0.3694 -0.8160
  601MOL0     C82830   3.496   5.446   6.955  0.1696 -0.7411 -0.3501
  601MOL0     O82831   3.622   5.412   6.999 -0.4736 -0.9847 -0.6088
  601MOL0     C82832   3.694   5.499   7.089 -0.2441  0.5687  0.4556
  601MOL0     C82833   3.649   5.578   7.191  0.5488  0.3079 -0.3188
  601MOL0     C82834   3.742   5.645   7.273 -0.2163 -0.0172  0.9646
  601MOL0     C82835   3.883   5.639   7.250  0.0559 -0.1922  0.7513
  601MOL0     O82836   3.966   5.726   7.323 -0.1084  0.1938  0.1455
  601MOL0     C82837   4.095   5.759   7.275  0.7160 -0.0794 -0.1028
  601MOL0     C82838   4.190   5.769   7.396  0.8830  0.3612  0.3927
  601MOL0     C82839   4.180   5.895   7.476  0.1242  0.1020  0.8259
  601MOL0     C82840   4.276   5.889   7.599  0.2386 -0.7055  0.3882
  601MOL0     C82841   4.426   5.878   7.571  0.1976 -1.1864  0.1193
  601MOL0     C82842   4.492   5.980   7.479  0.5872  0.3552  0.4629
  601MOL0     C82843   4.646   5.976   7.483  0.8648  0.3994  0.6373
  601MOL0     C82844   4.699   6.048   7.357 -0.3725 -0.7192  0.4674
  601MOL0    Cl82845   4.666   6.219   7.357 -0.3749  0.3988  0.1168
  601MOL0     C82846   3.928   5.550   7.155 -0.0889  0.3114 -0.4475
  601MOL0     C82847   3.835   5.482   7.080  0.5766 -0.0136 -0.2770
  601MOL0     O82848   3.426   5.534   7.002  0.7050 -0.0746 -0.0231
  601MOL0     C82849   3.482   5.240   6.828 -0.2649 -0.4049 -0.2472
  601MOL0     C82850   3.451   5.166   6.714  0.1783 -0.2346  0.0712
  601MOL0     N82851   3.135   4.768   6.144  0.3948 -0.4581  0.4881
  601MOL0     N82852   3.023   4.700   6.124 -0.4824  0.9663 -0.7774
  601MOL0     C82853   1.908   4.640   5.801  0.6232  0.0734  0.1767
  601MOL0     C82854   1.797   4.660   5.721  0.5510  0.5013 -1.1545
  601MOL0     C82855   1.353   4.719   5.592  0.0486  0.1216  0.2408
  601MOL0     C82856   1.375   4.701   5.461  0.1487 -0.2634  0.5408
  601MOL0     C82857   1.284   4.739   5.365 -0.6382  0.5505 -0.3130
  601MOL0     C82858   1.173   4.812   5.399 -0.0496  0.1888 -0.7309
  601MOL0     O82859   1.104   4.878   5.307  0.8093 -0.1571  0.2680
  601MOL0     C82860   0.959   4.881   5.322 -0.1755  0.4185 -0.5347
  601MOL0     C82861   0.900   4.746   5.273 -0.0909 -0.6324 -0.2410
  601MOL0     C82862   0.747   4.734   5.296  0.3776 -0.7536 -0.4454
  601MOL0     C82863   0.673   4.856   5.241 -0.5695  0.1380  0.0486
  601MOL0     C82864   0.526   4.840   5.258  0.8417  0.2271 -0.2779
  601MOL0     C82865   0.408   4.831   5.284  0.0952 -0.4893  0.2630
  601MOL0     C82866   1.148   4.830   5.529  0.3792  0.2923 -0.4608
  601MOL0     C82867   1.234   4.786   5.630  0.3890  0.1164  0.6128
  601MOL0     C82868   1.193   4.802   5.776  0.9885 -0.3033  0.0652
  601MOL0     H82869   1.556   4.583   5.931  0.0351 -0.4426  0.7895
  601MOL0     H82870   1.729   4.544   6.078  1.0038  1.7829  1.4007
  601MOL0     H82871   2.142   4.697   5.914 -0.9136  2.2063  1.0763
  601MOL0     H82872   2.200   4.575   6.019  1.1770  1.1858 -0.1232
  601MOL0     H82873   2.042   4.827   6.095  0.7693  0.2395 -1.3877
  601MOL0     H82874   2.095   4.713   6.208  0.5620 -0.1796 -0.4792
  601MOL0     H82875   2.316   4.768   6.052 -2.9480 -0.0639 -3.0581
  601MOL0     H82876   2.243   4.934   6.080  4.4342 -0.3785 -1.6497
  601MOL0     H82877   2.274   4.912   6.310  0.2037  0.0301  0.4898
  601MOL0     H82878   2.325   4.741   6.286 -3.5535 -0.1882 -1.5364
  601MOL0     H82879   2.511   4.895   6.332  0.8112  1.1750 -1.0781
  601MOL0     H82880   2.471   4.991   6.195 -0.9122  0.0545 -0.4570
  601MOL0     H82881   2.520   4.690   6.148  0.7314 -0.8513 -1.1771
  601MOL0     H82882   2.546   4.819   6.038  0.4189  2.2053  1.1529
  601MOL0     H82883   2.738   4.776   6.277 -0.8988  3.1258  1.7195
  601MOL0     H82884   2.732   4.922   6.187  0.6791 -1.0216  1.3849
  601MOL0     H82885   2.770   4.648   6.079 -1.8815 -0.2261 -1.3962
  601MOL0     H82886   2.763   4.793   5.972  1.5323 -1.4616 -0.8858
  601MOL0     H82887   2.948   4.998   6.025 -0.2066 -0.8297 -1.0431
  601MOL0     H82888   3.163   5.099   6.074 -2.6696 -0.6410 -0.6889
  601MOL0     H82889   3.281   4.971   6.017 -3.5453 -1.7118 -3.9386
  601MOL0     H82890   3.373   4.940   6.238 -2.9120 -3.1422  1.7564
  601MOL0     H82891   3.357   5.113   6.200 -1.6964  2.4142  1.0071
  601MOL0     H82892   3.163   5.130   6.330  1.6506  0.1636 -3.8570
  601MOL0     H82893   3.153   4.959   6.377 -0.1863  0.9921  0.4209
  601MOL0     H82894   3.259   5.026   6.557  2.1826 -2.2165  0.6600
  601MOL0     H82895   3.410   4.996   6.461  2.7517  4.4165 -1.0408
  601MOL0     H82896   3.276   5.408   6.543  3.3327  2.8439  0.0842
  601MOL0     H82897   3.236   5.599   6.842 -0.5939 -1.2056 -0.3512
  601MOL0     H82898   3.219   5.586   6.669 -0.3531  0.5393 -0.6384
  601MOL0     H82899   3.367   5.656   6.739 -0.8170  1.7242  2.3135
  601MOL0     H82900   3.543   5.597   7.204 -0.1585 -2.0442 -1.9413
  601MOL0     H82901   3.710   5.705   7.358  0.1944 -2.3725  2.8811
  601MOL0     H82902   4.139   5.685   7.206  2.1541 -4.3944  4.7904
  601MOL0     H82903   4.083   5.854   7.222  0.5481 -1.3194 -2.4201
  601MOL0     H82904   4.157   5.694   7.469  2.5381 -1.0557 -0.2526
  601MOL0     H82905   4.288   5.750   7.352 -0.1006 -0.0982 -1.7544
  601MOL0     H82906   4.074   5.897   7.501 -0.5110  1.7866 -1.5788
  601MOL0     H82907   4.200   5.987   7.420  2.2928 -1.3639 -1.0157
  601MOL0     H82908   4.250   5.803   7.662 -1.0898 -1.3616 -0.9998
  601MOL0     H82909   4.256   5.982   7.653 -2.4784 -1.2491  0.4959
  601MOL0     H82910   4.472   5.887   7.670  0.1101 -3.2003  0.3798
  601MOL0     H82911   4.451   5.777   7.538  1.6160 -1.0274  0.6213
  601MOL0     H82912   4.453   6.081   7.488  1.5295  0.8904 -1.1303
  601MOL0     H82913   4.464   5.948   7.378  2.5372 -3.4738  0.9368
  601MOL0     H82914   4.678   5.871   7.483 -0.9914 -0.1980 -0.2863
  601MOL0     H82915   4.683   6.031   7.570 -1.0156  2.7455  0.0622
  601MOL0     H82916   4.650   6.003   7.270 -0.4296  0.7374 -0.2821
  601MOL0     H82917   4.807   6.036   7.352 -0.0311  0.7833  2.6707
  601MOL0     H82918   4.031   5.513   7.154 -1.2975 -4.1986  3.5878
  601MOL0     H82919   3.873   5.418   7.000 -1.1977  0.5722 -1.6465
  601MOL0     H82920   3.534   5.185   6.906  1.4303  0.8219 -0.4430
  601MOL0     H82921   3.481   5.062   6.698 -1.7418 -0.6663 -1.0622
  601MOL0     H82922   2.004   4.627   5.751 -0.5811 -0.7119 -2.0633
  601MOL0     H82923   1.795   4.678   5.614 -2.0274  2.7545 -0.8536
  601MOL0     H82924   1.462   4.642   5.435  0.5179  0.1275  0.8682
  601MOL0     H82925   1.312   4.727   5.261 -1.2428 -1.7308 -0.2728
  601MOL0     H82926   0.932   4.905   5.425  2.7170  1.1711  0.1331
  601MOL0     H82927   0.923   4.952   5.248  0.6918  1.2115 -0.2084
  601MOL0     H82928   0.957   4.667   5.323  1.7815  0.3618 -0.6871
  601MOL0     H82929   0.918   4.733   5.166 -0.1532 -0.9761 -0.2113
  601MOL0     H82930   0.725   4.649   5.231  6.0206 -1.2915 -2.2062
  601MOL0     H82931   0.721   4.715   5.401  0.9875  0.1409 -0.1207
  601MOL0     H82932   0.695   4.862   5.134 -0.3543  1.1531  0.1415
  601MOL0     H82933   0.712   4.951   5.280  1.9416  0.2199 -2.3659
  601MOL0     H82934   0.308   4.825   5.323  0.6092 -0.3096  1.6497
  601MOL0     H82935   1.067   4.895   5.561  0.5347  0.1672  0.2197
  601MOL0     H82936   1.125   4.721   5.803  3.0938 -2.1778  0.1116
  601MOL0     H82937   1.269   4.773   5.849  0.5655  0.0150  0.6314
  601MOL0     H82938   1.166   4.901   5.812  2.0885 -0.5996  1.8520
  602MOL0     O82939  11.152   4.144   9.837  0.1079  0.3820 -0.0987
  602MOL0     C82940  11.051   4.193   9.881  0.5446  0.0890  0.6388
  602MOL0     O82941  11.031   4.323   9.911 -0.8182  0.0732  0.1981
  602MOL0     C82942  11.145   4.404   9.904 -0.8905 -0.4754  0.5546
  602MOL0     C82943  11.134   4.535   9.850 -0.1827 -0.1758  0.9244
  602MOL0     C82944  11.234   4.629   9.845  0.6030  0.3610 -0.1571
  602MOL0     C82945  11.360   4.602   9.900  0.0762  0.5372  0.0110
  602MOL0     O82946  11.453   4.700   9.904  0.1748  0.2604  0.3657
  602MOL0     C82947  11.584   4.665   9.961  0.4806  1.0376 -0.4640
  602MOL0     C82948  11.688   4.778   9.934 -1.2445  0.7355 -0.1454
  602MOL0     C82949  11.677   4.899  10.027  0.0858  0.5021  1.4338
  602MOL0     C82950  11.777   5.017   9.981  0.5092 -0.3253 -0.3091
  602MOL0     C82951  11.813   5.100  10.102  0.1404  0.1376 -0.3353
  602MOL0     C82952  11.911   5.215  10.093 -0.1509  0.7179  0.4346
  602MOL0     C82953  11.901   5.306   9.967 -0.7328  0.2701  0.4928
  602MOL0     C82954  11.771   5.388   9.970 -1.1125  0.1832 -0.3241
  602MOL0     N82955  11.763   5.491   9.865 -0.3229  0.8523 -0.5603
  602MOL0     C82956  11.806   5.619   9.885 -0.0126  0.2933  0.2290
  602MOL0     C82957  11.778   5.687   9.773  0.2673 -0.0567 -0.4745
  602MOL0     C82958  11.785   5.833   9.762  0.3425  0.1063 -0.6621
  602MOL0     C82959  11.927   5.885   9.728  0.3211 -0.2745 -0.2230
  602MOL0     C82960  11.963   6.034   9.724 -0.1182 -0.7838  0.1356
  602MOL0     C82961  11.901   6.107   9.597  0.4862 -0.1110 -0.9946
  602MOL0     O82962  11.975   6.230   9.594 -0.0183 -0.6633 -0.2878
  602MOL0     C82963  11.907   6.348   9.572  0.2608  0.8974 -0.4430
  602MOL0     C82964  11.815   6.392   9.666 -0.1757  0.4708 -0.7642
  602MOL0     C82965  11.733   6.501   9.644  0.0704 -0.2312  0.0967
  602MOL0     C82966  11.641   6.537   9.755  0.8321  0.1829 -0.2413
  602MOL0     C82967  11.729   6.570   9.521 -0.2633 -0.0917  0.4774
  602MOL0     C82968  11.642   6.694   9.486  0.3516  0.3161  0.3830
  602MOL0     O82969  11.642   6.739   9.355 -0.1571 -0.5261 -0.3645
  602MOL0     C82970  11.561   6.847   9.324  0.4858  0.3200 -0.6007
  602MOL0     C82971  11.614   6.977   9.310 -0.0476 -0.4628  0.8613
  602MOL0     C82972  11.535   7.086   9.265 -0.2522 -0.2716  0.8783
  602MOL0     C82973  11.407   7.059   9.223  1.0913  1.1027 -1.1639
  602MOL0     O82974  11.349   7.160   9.153  0.3230 -0.2360 -0.5387
  602MOL0     C82975  11.221   7.144   9.099  0.6454 -0.0116  0.6246
  602MOL0     C82976  11.187   7.291   9.052 -0.3289 -0.1915 -0.1955
  602MOL0     C82977  11.068   7.278   8.956 -0.5759  0.3788 -0.1536
  602MOL0     C82978  11.035   7.419   8.915  0.5041 -0.1459  0.4579
  602MOL0     C82979  10.926   7.425   8.806  0.5164 -0.1635  1.1178
  602MOL0     C82980  10.903   7.572   8.753 -0.8690 -0.1165  0.3523
  602MOL0     C82981  10.870   7.581   8.609 -0.1057 -0.2930 -0.2694
  602MOL0     C82982  10.834   7.732   8.578  0.6567  0.2754 -0.2681
  602MOL0    Cl82983  10.895   7.773   8.404  0.3159 -0.0110 -0.1874
  602MOL0     C82984  11.352   6.934   9.242  0.2770  0.5325  0.1568
  602MOL0     C82985  11.431   6.829   9.296  0.4690  0.0503 -0.2581
  602MOL0     O82986  11.581   6.757   9.577  0.1835 -0.0050 -0.5298
  602MOL0     C82987  11.827   6.527   9.430  0.4578  0.1695  0.2322
  602MOL0     C82988  11.913   6.421   9.452  0.3783  0.0851  0.2774
  602MOL0     N82989  11.703   5.601   9.689  0.4028 -0.7466 -0.3949
  602MOL0     N82990  11.704   5.481   9.741 -0.4382  0.3593  0.0043
  602MOL0     C82991  11.384   4.473   9.945  0.3966 -0.1688 -0.6991
  602MOL0     C82992  11.280   4.378   9.952  0.0400  0.8628 -0.6979
  602MOL0     C82993  10.940   4.101   9.896  0.3866 -0.5794  0.5434
  602MOL0     C82994  10.814   4.146   9.837  0.5546  0.3445  0.5411
  602MOL0     C82995  10.706   4.058   9.824  0.3645  0.3270 -0.1420
  602MOL0     C82996  10.723   3.923   9.868  0.0396 -1.1005 -0.1116
  602MOL0     O82997  10.628   3.832   9.849  0.8266 -0.2706 -0.2902
  602MOL0     C82998  10.533   3.837   9.733 -0.4412  0.7159 -0.3811
  602MOL0     C82999  10.439   3.723   9.724  0.3984 -0.3382 -0.1702
  602MOL0     C83000  10.352   3.710   9.852 -0.5964 -1.1968  1.0588
  602MOL0     C83001  10.230   3.616   9.818 -0.1725 -0.5448 -0.2682
  602MOL0     C83002  10.187   3.551   9.941 -0.0699 -0.4650 -0.4487
  602MOL0     C83003  10.154   3.499  10.049  0.0637 -0.2366  0.8582
  602MOL0     C83004  10.842   3.888   9.930 -0.2709  1.0644 -0.8098
  602MOL0     C83005  10.953   3.966   9.937 -0.3812  0.8457 -0.0359
  602MOL0     C83006  11.083   3.908   9.999  0.4648  0.0963 -0.5898
  602MOL0     H83007  11.041   4.568   9.807 -1.0521 -1.1922  1.9541
  602MOL0     H83008  11.221   4.734   9.819  0.1149  0.7821  1.6476
  602MOL0     H83009  11.627   4.577   9.914  2.9733  2.3142 -0.7248
  602MOL0     H83010  11.574   4.635  10.065 -0.7156  0.3233 -0.7696
  602MOL0     H83011  11.790   4.740   9.945 -1.6775 -0.7241 -0.8089
  602MOL0     H83012  11.671   4.802   9.829 -5.2874 -0.4484  0.0481
  602MOL0     H83013  11.574   4.933  10.037 -0.7652  0.1968 -3.6917
  602MOL0     H83014  11.708   4.861  10.125  0.4252 -1.5598  0.5970
  602MOL0     H83015  11.861   4.977   9.923  0.6181  0.1817 -0.5091
  602MOL0     H83016  11.733   5.091   9.914 -1.6592 -0.7855  0.5193
  602MOL0     H83017  11.852   5.028  10.174  2.5130 -1.5074 -3.0928
  602MOL0     H83018  11.719   5.142  10.140 -1.0385 -1.5222 -1.2669
  602MOL0     H83019  11.895   5.280  10.180 -1.1441 -1.4339  1.9340
  602MOL0     H83020  12.006   5.160  10.095 -0.8478 -0.5116  0.3289
  602MOL0     H83021  11.919   5.257   9.870 -1.1437  2.4624 -0.7719
  602MOL0     H83022  11.981   5.379   9.983 -0.4134  0.3541 -1.2130
  602MOL0     H83023  11.686   5.321   9.950 -1.4999  1.0191 -1.5911
  602MOL0     H83024  11.761   5.428  10.071 -2.1028  0.2447 -0.4321
  602MOL0     H83025  11.859   5.644   9.977 -0.3296  1.7857  0.0338
  602MOL0     H83026  11.760   5.882   9.857  0.3660 -0.0079 -0.5965
  602MOL0     H83027  11.715   5.883   9.694  0.3230  1.5029  0.3274
  602MOL0     H83028  12.000   5.832   9.789 -0.4964 -1.2695 -0.0723
  602MOL0     H83029  11.943   5.855   9.624 -1.4405 -0.7358 -0.3901
  602MOL0     H83030  11.930   6.096   9.808 -0.2795  0.0174 -0.5100
  602MOL0     H83031  12.071   6.042   9.712 -0.2404  1.2614 -0.0181
  602MOL0     H83032  11.907   6.048   9.506 -2.4163 -5.6033  1.8470
  602MOL0     H83033  11.796   6.137   9.608  1.5792  3.4389  1.9091
  602MOL0     H83034  11.827   6.336   9.759 -0.0745  2.4413  0.4549
  602MOL0     H83035  11.638   6.446   9.816 -0.6000  0.1494 -0.3465
  602MOL0     H83036  11.537   6.549   9.727  1.2865 -1.5516 -3.0829
  602MOL0     H83037  11.685   6.614   9.819 -1.2703  0.3480  1.1056
  602MOL0     H83038  11.721   6.985   9.327  0.2520  0.3791 -1.1222
  602MOL0     H83039  11.584   7.182   9.251 -2.1883  0.5466 -0.6888
  602MOL0     H83040  11.240   7.081   9.012  2.0943  3.5170 -1.8474
  602MOL0     H83041  11.145   7.113   9.171  0.6039  1.8434  1.4281
  602MOL0     H83042  11.153   7.353   9.135 -1.6345  0.6638 -1.3101
  602MOL0     H83043  11.276   7.338   9.010  1.3536 -2.5883  0.4914
  602MOL0     H83044  10.986   7.231   9.012  0.0945 -2.0735 -1.0965
  602MOL0     H83045  11.077   7.209   8.871 -3.5696  1.0495 -1.1266
  602MOL0     H83046  11.121   7.481   8.888  1.0781 -0.9049  0.5121
  602MOL0     H83047  11.001   7.466   9.007 -1.1203 -1.6054  0.6547
  602MOL0     H83048  10.946   7.361   8.719 -0.7158  2.5619 -1.3870
  602MOL0     H83049  10.829   7.390   8.841 -0.3886  1.9132  0.8575
  602MOL0     H83050  10.990   7.638   8.763 -0.1751 -1.0079  0.3442
  602MOL0     H83051  10.823   7.624   8.805 -0.9674 -1.1263  1.2485
  602MOL0     H83052  10.785   7.516   8.588  0.0294 -0.2439 -1.0179
  602MOL0     H83053  10.953   7.539   8.551 -0.4474 -1.6063  0.1708
  602MOL0     H83054  10.866   7.807   8.651 -0.1713  1.7506 -1.3650
  602MOL0     H83055  10.726   7.719   8.594  1.5059 -5.4173  4.1063
  602MOL0     H83056  11.248   6.911   9.221  0.1976 -1.5587  2.4097
  602MOL0     H83057  11.390   6.729   9.307  1.6957 -0.4121  0.2037
  602MOL0     H83058  11.830   6.560   9.326 -0.6972 -3.8881 -1.2950
  602MOL0     H83059  11.974   6.374   9.375  1.0317 -0.9700  1.3952
  602MOL0     H83060  11.476   4.437   9.989  0.8615 -1.4044 -2.5539
  602MOL0     H83061  11.300   4.287  10.007  3.2415 -0.2108 -3.3125
  602MOL0     H83062  10.805   4.253   9.825 -3.2725  0.3344  1.9288
  602MOL0     H83063  10.621   4.098   9.770  2.6340  3.3245 -1.8457
  602MOL0     H83064  10.473   3.928   9.737 -0.4626  0.6568  1.5877
  602MOL0     H83065  10.587   3.841   9.638  0.3107 -1.0090 -0.0796
  602MOL0     H83066  10.499   3.633   9.709 -0.5524 -0.6693 -2.3996
  602MOL0     H83067  10.383   3.718   9.631  0.7974 -0.7507 -0.3889
  602MOL0     H83068  10.418   3.663   9.926  3.3723 -0.6443 -1.7683
  602MOL0     H83069  10.327   3.808   9.894  2.3852  0.5536 -0.8654
  602MOL0     H83070  10.261   3.539   9.747  2.0609 -1.1147  1.1837
  602MOL0     H83071  10.147   3.671   9.772 -0.7823 -0.0073  1.3998
  602MOL0     H83072  10.124   3.452  10.140 -1.0613  0.9175  1.1153
  602MOL0     H83073  10.854   3.788   9.968  1.8234  2.7199  3.5776
  602MOL0     H83074  11.150   3.888   9.915 -0.5793  0.6104 -1.5717
  602MOL0     H83075  11.130   3.967  10.079  0.1872 -2.2123  1.4034
  602MOL0     H83076  11.064   3.812  10.049  0.5210  1.3732  2.0655
  603MOL0     O83077   0.081   7.663   9.073  0.6381 -0.1461  0.7935
  603MOL0     C83078  -0.028   7.614   9.098  0.0835  0.3737  0.2028
  603MOL0     O83079  -0.140   7.642   9.026 -0.4386  0.2003 -0.0772
  603MOL0     C83080  -0.136   7.733   8.921  0.7788 -0.5954 -0.7378
  603MOL0     C83081  -0.159   7.685   8.790 -0.5846 -0.3622 -0.7105
  603MOL0     C83082  -0.151   7.773   8.682  0.0853  1.5039 -0.6723
  603MOL0     C83083  -0.131   7.909   8.695  0.3674 -0.4322  0.6119
  603MOL0     O83084  -0.125   7.997   8.588 -0.5500  0.5353  0.3279
  603MOL0     C83085  -0.213   7.983   8.474 -1.0683  0.5323  0.1757
  603MOL0     C83086  -0.350   8.036   8.503 -0.3986  0.7590  0.1059
  603MOL0     C83087  -0.359   8.188   8.544  0.2883 -0.4299  0.2078
  603MOL0     C83088  -0.506   8.225   8.593  0.5247 -0.5194 -0.6573
  603MOL0     C83089  -0.507   8.381   8.602 -0.4517 -0.2051 -0.1152
  603MOL0     C83090  -0.646   8.421   8.659  0.0415  0.4003  0.5792
  603MOL0     C83091  -0.691   8.561   8.637  0.9159 -0.5706 -0.2427
  603MOL0     C83092  -0.835   8.582   8.668 -1.0805 -0.4596 -0.3032
  603MOL0     N83093  -0.849   8.711   8.731  0.4930  0.3958  0.1003
  603MOL0     C83094  -0.951   8.797   8.698 -1.2330 -0.2053  0.2093
  603MOL0     C83095  -0.953   8.882   8.808  0.5284  0.4854 -0.1776
  603MOL0     C83096  -1.036   9.015   8.819 -0.3709  0.4359  0.1422
  603MOL0     C83097  -0.947   9.138   8.816 -0.1878 -0.4250 -0.3546
  603MOL0     C83098  -0.862   9.163   8.694  0.6560 -0.1574  0.0499
  603MOL0     C83099  -0.941   9.178   8.565 -0.2479  0.0093  1.2656
  603MOL0     O83100  -1.010   9.308   8.559 -0.4913  0.3135  0.4130
  603MOL0     C83101  -1.022   9.368   8.437 -0.7823 -0.2972 -0.1678
  603MOL0     C83102  -1.003   9.506   8.438 -0.4245 -0.3161 -0.3122
  603MOL0     C83103  -1.014   9.571   8.315  0.1550  0.1556 -0.4190
  603MOL0     C83104  -0.993   9.723   8.325  0.8198  0.3488  1.0820
  603MOL0     C83105  -1.032   9.504   8.195  0.4536  0.5052  0.0098
  603MOL0     C83106  -1.041   9.571   8.055 -0.6321 -0.2458 -0.8743
  603MOL0     O83107  -1.079   9.489   7.956 -0.4594  0.4270  0.4449
  603MOL0     C83108  -1.101   9.543   7.834 -0.1546  0.1973 -0.7258
  603MOL0     C83109  -1.012   9.500   7.723 -0.2654 -0.1343  0.0586
  603MOL0     C83110  -1.013   9.572   7.606 -0.6133 -0.8354 -0.7350
  603MOL0     C83111  -1.117   9.667   7.587 -0.3442  0.2566 -0.0623
  603MOL0     O83112  -1.124   9.745   7.473  0.2371 -0.3752  0.3839
  603MOL0     C83113  -1.003   9.783   7.402  0.4433  0.2081  0.3688
  603MOL0     C83114  -1.015   9.883   7.293 -0.2431 -1.3163 -0.8077
  603MOL0     C83115  -0.892   9.922   7.214 -0.6637 -0.3855 -0.3581
  603MOL0     C83116  -0.924   9.983   7.074 -0.6864 -0.4824 -0.5563
  603MOL0     C83117  -0.789  10.028   7.008 -0.1325  0.2492 -0.7392
  603MOL0     C83118  -0.794  10.027   6.856 -0.3517  0.2190  0.6080
  603MOL0     C83119  -0.659  10.048   6.791  0.5730 -0.0277  0.3834
  603MOL0     C83120  -0.683  10.099   6.649  0.3798 -0.7191  0.4043
  603MOL0    Cl83121  -0.762  10.257   6.666 -0.3729 -0.5480 -0.3521
  603MOL0     C83122  -1.215   9.680   7.678  0.6596  0.2623  0.1388
  603MOL0     C83123  -1.213   9.624   7.807 -0.1611 -0.6364 -0.2858
  603MOL0     O83124  -1.022   9.694   8.041  0.2265 -0.9913  0.5845
  603MOL0     C83125  -1.049   9.361   8.199  0.1627  0.8802 -0.5783
  603MOL0     C83126  -1.039   9.288   8.319  0.0962  0.3181 -0.7625
  603MOL0     N83127  -0.856   8.842   8.901  0.1888  0.7420 -0.3390
  603MOL0     N83128  -0.795   8.741   8.850  0.9084 -0.3147  0.4114
  603MOL0     C83129  -0.108   7.961   8.826  0.5918 -0.6532 -0.6016
  603MOL0     C83130  -0.124   7.871   8.933  0.7486 -0.0199  0.3539
  603MOL0     C83131  -0.053   7.528   9.212 -1.2020  0.3382  0.5892
  603MOL0     C83132  -0.182   7.511   9.261  0.0955  0.0583  0.1717
  603MOL0     C83133  -0.198   7.434   9.383 -0.0062 -0.1027  0.2625
  603MOL0     C83134  -0.095   7.392   9.463 -1.0172  0.1140 -0.2716
  603MOL0     O83135  -0.126   7.337   9.584 -0.1965  0.1606 -0.0632
  603MOL0     C83136  -0.043   7.238   9.633  0.1098 -0.2272 -0.5983
  603MOL0     C83137  -0.104   7.167   9.752 -0.3219  0.1649 -0.8425
  603MOL0     C83138  -0.189   7.043   9.725  0.7762  0.9124 -0.4362
  603MOL0     C83139  -0.220   6.983   9.859 -0.2860  0.0171 -0.4035
  603MOL0     C83140  -0.293   6.852   9.851 -0.8121 -0.9592  0.8766
  603MOL0     C83141  -0.367   6.755   9.849  0.0350 -0.2731 -0.2455
  603MOL0     C83142   0.036   7.405   9.413 -0.7946  0.0244 -0.7032
  603MOL0     C83143   0.058   7.463   9.286 -0.4523  1.0208 -1.1733
  603MOL0     C83144   0.207   7.466   9.250 -0.3879  0.7074  0.3863
  603MOL0     H83145  -0.171   7.580   8.764  1.8804 -0.5863 -1.1678
  603MOL0     H83146  -0.159   7.731   8.583  0.1435  0.2174 -0.1601
  603MOL0     H83147  -0.198   7.884   8.431 -1.8752  0.2110  0.6194
  603MOL0     H83148  -0.176   8.046   8.393 -0.5551  0.4485  0.3343
  603MOL0     H83149  -0.413   8.019   8.415 -1.7492  3.3264  0.4789
  603MOL0     H83150  -0.392   7.982   8.588 -0.6879  2.4914  1.1072
  603MOL0     H83151  -0.279   8.210   8.614  0.8055 -2.8919  0.4544
  603MOL0     H83152  -0.333   8.252   8.458  0.7606 -0.9102 -0.0099
  603MOL0     H83153  -0.589   8.200   8.525  0.8016  2.4326 -2.2302
  603MOL0     H83154  -0.521   8.177   8.690 -2.7963 -2.8249 -2.0807
  603MOL0     H83155  -0.480   8.440   8.515 -0.5309  0.3728  0.2478
  603MOL0     H83156  -0.433   8.419   8.673  2.0670  0.1407 -2.7439
  603MOL0     H83157  -0.719   8.369   8.597  0.1301 -0.7714  1.4205
  603MOL0     H83158  -0.660   8.384   8.761  2.8233  0.0087  0.9045
  603MOL0     H83159  -0.671   8.595   8.535  1.2268  0.9924  0.3051
  603MOL0     H83160  -0.632   8.632   8.696 -0.1312  3.7133 -3.7575
  603MOL0     H83161  -0.892   8.591   8.575 -0.2470  0.1756 -0.7635
  603MOL0     H83162  -0.859   8.495   8.730 -0.1994  0.3764  1.2821
  603MOL0     H83163  -1.010   8.803   8.607 -0.1539  2.2795 -0.3959
  603MOL0     H83164  -1.079   9.025   8.919  2.0902  3.4195  1.0425
  603MOL0     H83165  -1.120   9.013   8.749  1.0860 -1.7225 -1.6584
  603MOL0     H83166  -1.021   9.217   8.831  1.6012  1.2418  0.0942
  603MOL0     H83167  -0.872   9.126   8.895 -0.3170  0.5933 -0.0697
  603MOL0     H83168  -0.821   9.262   8.714 -0.1094  1.2590 -4.3552
  603MOL0     H83169  -0.775   9.098   8.689  1.9779  1.2217  2.7518
  603MOL0     H83170  -0.870   9.168   8.482 -2.7317  0.1082 -0.9850
  603MOL0     H83171  -1.012   9.096   8.552  1.6006 -1.4946  0.1263
  603MOL0     H83172  -0.989   9.554   8.535 -4.9072 -0.6368  0.7126
  603MOL0     H83173  -1.069   9.774   8.265  0.2508 -2.3470 -0.6900
  603MOL0     H83174  -0.893   9.733   8.281 -0.2557 -2.1368 -2.4160
  603MOL0     H83175  -0.989   9.754   8.429  0.0358 -0.5878  1.4106
  603MOL0     H83176  -0.950   9.411   7.726  0.5940  0.1687 -3.8210
  603MOL0     H83177  -0.929   9.566   7.537  0.0522 -0.9378  0.0689
  603MOL0     H83178  -0.932   9.821   7.477 -1.3557 -0.8166  2.7321
  603MOL0     H83179  -0.961   9.698   7.348 -2.7137  0.3290 -2.6160
  603MOL0     H83180  -1.091   9.847   7.224 -1.2288 -1.2441  0.2109
  603MOL0     H83181  -1.044   9.975   7.345  3.0043 -1.7452  2.1371
  603MOL0     H83182  -0.835   9.832   7.189 -1.3772 -0.8931 -0.1989
  603MOL0     H83183  -0.825   9.986   7.272  0.0261 -1.4325  0.0358
  603MOL0     H83184  -0.995  10.064   7.093 -0.9449 -1.2148  1.9240
  603MOL0     H83185  -0.987   9.921   7.009 -0.0608  1.1533 -2.8789
  603MOL0     H83186  -0.765  10.126   7.052  0.7710 -0.9101  1.5143
  603MOL0     H83187  -0.704   9.965   7.037 -1.1547 -1.2769 -0.9641
  603MOL0     H83188  -0.871  10.097   6.821 -0.5989  0.1878  1.0776
  603MOL0     H83189  -0.830   9.927   6.830 -0.8745  1.2240 -3.1676
  603MOL0     H83190  -0.600   9.957   6.804  1.1456  0.3118  0.2031
  603MOL0     H83191  -0.599  10.119   6.848  2.9416 -1.8000  0.2197
  603MOL0     H83192  -0.747  10.033   6.590  2.7928 -2.9408  0.0667
  603MOL0     H83193  -0.587  10.111   6.599  0.1166 -0.9415 -0.1684
  603MOL0     H83194  -1.285   9.762   7.663  0.7533  0.6958  1.8730
  603MOL0     H83195  -1.290   9.641   7.880 -0.0333  1.9213 -0.6571
  603MOL0     H83196  -1.080   9.307   8.110 -0.9547 -0.6349  0.6769
  603MOL0     H83197  -1.036   9.180   8.316  0.9587  0.2336  1.3833
  603MOL0     H83198  -0.078   8.062   8.851  0.0292 -0.4553 -0.7037
  603MOL0     H83199  -0.117   7.901   9.037  0.6919 -2.9263  1.2695
  603MOL0     H83200  -0.261   7.569   9.215 -0.7490  0.0243  1.5275
  603MOL0     H83201  -0.298   7.422   9.424  0.5449  1.7831  2.3587
  603MOL0     H83202  -0.039   7.160   9.557 -0.0459 -0.8395  0.0095
  603MOL0     H83203   0.051   7.281   9.668  0.5602 -1.3928 -0.3055
  603MOL0     H83204  -0.163   7.243   9.802  0.2131  0.8376 -1.2188
  603MOL0     H83205  -0.022   7.145   9.822 -1.9510  0.8596  1.3808
  603MOL0     H83206  -0.287   7.054   9.678  0.0472 -0.1264  0.7536
  603MOL0     H83207  -0.131   6.970   9.667  1.6248  2.6095 -1.8286
  603MOL0     H83208  -0.281   7.047   9.924 -0.2324  0.7419 -1.0497
  603MOL0     H83209  -0.129   6.960   9.914 -1.2063  1.0894  1.6820
  603MOL0     H83210  -0.435   6.674   9.840 -1.7390  0.9686  1.2067
  603MOL0     H83211   0.113   7.369   9.480 -0.3733  2.4740  0.2482
  603MOL0     H83212   0.223   7.451   9.143 -3.5999 -0.2716 -0.0701
  603MOL0     H83213   0.253   7.558   9.287 -0.8089  1.3232 -0.6019
  603MOL0     H83214   0.253   7.382   9.303 -1.7411 -1.7621 -2.0457
  604MOL0     O83215   3.618   0.171   7.897 -0.6472 -0.1747  0.3205
  604MOL0     C83216   3.703   0.173   7.805 -0.0634 -0.1787 -0.3249
  604MOL0     O83217   3.722   0.077   7.708  0.8609 -0.0277  0.1084
  604MOL0     C83218   3.655  -0.040   7.700 -0.0121  0.7609 -0.2034
  604MOL0     C83219   3.624  -0.116   7.813  0.0188 -1.3033  0.7083
  604MOL0     C83220   3.552  -0.236   7.805  0.6297  0.4849  0.5190
  604MOL0     C83221   3.534  -0.292   7.680  0.1361 -0.2398 -0.3838
  604MOL0     O83222   3.483  -0.414   7.685 -0.1836  0.4103  0.9505
  604MOL0     C83223   3.513  -0.494   7.568 -0.3889 -0.2470 -0.3607
  604MOL0     C83224   3.509  -0.643   7.612 -0.0089  1.1290  0.3434
  604MOL0     C83225   3.511  -0.737   7.488 -0.3358 -0.2260  0.1902
  604MOL0     C83226   3.494  -0.889   7.526 -0.4952 -0.2696 -0.6574
  604MOL0     C83227   3.445  -0.958   7.393  0.4613  0.3058  1.0722
  604MOL0     C83228   3.555  -0.969   7.294  0.9817  0.5102 -0.6469
  604MOL0     C83229   3.493  -1.038   7.171 -0.6886 -0.6255 -0.3835
  604MOL0     C83230   3.595  -1.058   7.063 -1.2286  0.2642  0.1368
  604MOL0     N83231   3.725  -1.097   7.104  0.7182  0.3037 -0.3363
  604MOL0     C83232   3.854  -1.057   7.061  0.8227 -0.6477 -0.5695
  604MOL0     C83233   3.946  -1.148   7.109  0.3882  0.4213 -0.0671
  604MOL0     C83234   4.097  -1.159   7.093 -0.0148  0.2645  0.6148
  604MOL0     C83235   4.168  -1.029   7.100  0.6751  0.4152  0.2548
  604MOL0     C83236   4.320  -1.044   7.145  0.3814 -0.2583 -0.6448
  604MOL0     C83237   4.359  -0.905   7.203 -0.9117  0.2825  0.0955
  604MOL0     O83238   4.497  -0.908   7.233  0.3594  0.5024 -0.5739
  604MOL0     C83239   4.543  -0.794   7.290 -0.4602 -0.4597  0.6992
  604MOL0     C83240   4.467  -0.713   7.379 -0.5308  0.3949 -0.8343
  604MOL0     C83241   4.525  -0.595   7.433 -0.7779 -1.4696 -0.8315
  604MOL0     C83242   4.459  -0.512   7.543  0.1730  0.3392 -0.2316
  604MOL0     C83243   4.637  -0.546   7.381 -0.4318 -0.3944  0.2907
  604MOL0     C83244   4.702  -0.417   7.410 -0.9544 -0.6231  0.1858
  604MOL0     O83245   4.831  -0.415   7.447  0.4411  0.0069 -0.3712
  604MOL0     C83246   4.897  -0.295   7.440  0.5267  0.3090  1.0894
  604MOL0     C83247   4.904  -0.222   7.556  0.6910  0.0406 -0.4053
  604MOL0     C83248   5.007  -0.124   7.569  0.9543 -0.3730  0.0590
  604MOL0     C83249   5.082  -0.083   7.452 -0.2509  0.4048  0.1376
  604MOL0     O83250   5.189   0.012   7.460 -0.1879  0.0784  0.4063
  604MOL0     C83251   5.217   0.078   7.335 -0.6257 -0.1261  0.0155
  604MOL0     C83252   5.101   0.163   7.286 -0.3941 -0.6018 -1.1395
  604MOL0     C83253   5.051   0.255   7.405 -0.5277  0.2520  1.2032
  604MOL0     C83254   5.000   0.389   7.358  0.3715  0.3063  0.4580
  604MOL0     C83255   4.938   0.485   7.468 -0.1588 -0.2598 -1.1262
  604MOL0     C83256   4.889   0.607   7.397  0.1441  0.5959 -0.2821
  604MOL0     C83257   4.829   0.702   7.501 -0.5114  0.7749  0.8502
  604MOL0     C83258   4.927   0.773   7.589 -0.3415 -0.0641  0.1265
  604MOL0    Cl83259   4.847   0.867   7.706  0.1597 -0.1013 -0.1145
  604MOL0     C83260   5.051  -0.154   7.330 -0.4944  0.1336 -0.6723
  604MOL0     C83261   4.971  -0.262   7.332 -0.4186  0.6715 -0.8594
  604MOL0     O83262   4.627  -0.313   7.396  0.0868 -0.1195  0.7760
  604MOL0     C83263   4.710  -0.628   7.291  0.6280  0.3601  0.5280
  604MOL0     C83264   4.663  -0.753   7.251  0.5114  0.8430 -0.0826
  604MOL0     N83265   3.878  -1.237   7.182  0.4964  0.2313  0.4299
  604MOL0     N83266   3.749  -1.216   7.169  0.4510 -0.4162  0.4398
  604MOL0     C83267   3.585  -0.228   7.560 -0.1380  0.1148 -0.2843
  604MOL0     C83268   3.636  -0.098   7.576 -0.0602 -0.5984 -0.2529
  604MOL0     C83269   3.800   0.288   7.796 -0.3675  0.2792 -0.1574
  604MOL0     C83270   3.915   0.262   7.726 -0.0703  0.2807 -0.2738
  604MOL0     C83271   4.009   0.366   7.732 -0.5446  0.4788  0.2871
  604MOL0     C83272   4.008   0.490   7.802  0.5816 -0.3452 -0.5518
  604MOL0     O83273   4.110   0.583   7.810  0.5589  0.5356  0.0892
  604MOL0     C83274   4.099   0.698   7.893  0.6360  0.6628  0.6086
  604MOL0     C83275   4.203   0.794   7.849 -0.5732 -0.7991 -0.1030
  604MOL0     C83276   4.197   0.910   7.954  0.4286 -0.5664  0.2374
  604MOL0     C83277   4.287   1.026   7.908 -0.4118 -0.7607 -0.7664
  604MOL0     C83278   4.220   1.110   7.812 -0.2189 -0.1958  0.9385
  604MOL0     C83279   4.151   1.178   7.744  0.5439  0.3668 -0.1634
  604MOL0     C83280   3.884   0.508   7.869 -0.3016  0.1833 -0.8056
  604MOL0     C83281   3.780   0.416   7.863  0.1052  1.2091  1.1830
  604MOL0     C83282   3.646   0.459   7.924  0.1877 -0.5346  0.8634
  604MOL0     H83283   3.635  -0.071   7.911 -2.1384  0.8188  0.0798
  604MOL0     H83284   3.497  -0.292   7.881  0.7661 -1.1080 -0.4988
  604MOL0     H83285   3.617  -0.480   7.537  0.4596 -2.3566  1.2716
  604MOL0     H83286   3.445  -0.466   7.487 -1.7099  0.3707  0.9339
  604MOL0     H83287   3.602  -0.659   7.667  0.8726 -0.9639 -1.6050
  604MOL0     H83288   3.417  -0.661   7.667 -3.7249  0.3264 -5.2819
  604MOL0     H83289   3.421  -0.703   7.437  0.3209 -1.8762 -2.2356
  604MOL0     H83290   3.594  -0.718   7.419 -2.6006  0.9446 -2.3948
  604MOL0     H83291   3.590  -0.929   7.558 -0.4117 -0.3581 -1.0156
  604MOL0     H83292   3.409  -0.892   7.595  1.8161  1.2251  2.4645
  604MOL0     H83293   3.366  -0.903   7.341  1.9538  1.7128  0.1663
  604MOL0     H83294   3.406  -1.058   7.415 -1.9068  1.5417  2.9888
  604MOL0     H83295   3.600  -0.872   7.272  0.2244  1.0597  0.1300
  604MOL0     H83296   3.642  -1.025   7.329  0.2287 -1.5503 -1.8984
  604MOL0     H83297   3.414  -0.972   7.134 -0.8092 -0.7911 -0.4213
  604MOL0     H83298   3.453  -1.137   7.193 -0.2330 -0.5659  0.8071
  604MOL0     H83299   3.553  -1.124   6.985 -0.7176 -0.0280  0.1043
  604MOL0     H83300   3.608  -0.969   7.001 -0.2709 -1.5443 -2.4599
  604MOL0     H83301   3.865  -0.967   7.001 -0.3154  0.7804  1.2193
  604MOL0     H83302   4.130  -1.210   7.003  2.2491  0.5229  1.2520
  604MOL0     H83303   4.124  -1.225   7.175 -2.0543 -2.8678 -1.0389
  604MOL0     H83304   4.154  -0.973   7.007 -0.7055  1.4688  1.0580
  604MOL0     H83305   4.114  -0.974   7.178 -1.4821  0.2926 -1.0651
  604MOL0     H83306   4.330  -1.128   7.213 -0.4603 -0.1015 -0.3116
  604MOL0     H83307   4.380  -1.065   7.056  0.1912  0.5443 -0.9718
  604MOL0     H83308   4.354  -0.821   7.134  0.4915  0.1888 -0.1434
  604MOL0     H83309   4.291  -0.885   7.287 -2.4528 -0.7914 -0.8346
  604MOL0     H83310   4.376  -0.749   7.426  0.6519 -1.1847  0.3730
  604MOL0     H83311   4.376  -0.452   7.503 -0.4029 -0.8244 -0.8177
  604MOL0     H83312   4.533  -0.462   7.606 -1.5324  0.8358  1.4841
  604MOL0     H83313   4.417  -0.587   7.611  3.3386 -2.3656 -1.0382
  604MOL0     H83314   4.836  -0.256   7.634  2.4088  1.0060  1.6461
  604MOL0     H83315   5.024  -0.081   7.667  0.7993 -3.9313  1.7936
  604MOL0     H83316   5.301   0.146   7.353 -1.6803  1.2514 -0.1108
  604MOL0     H83317   5.260   0.021   7.252 -1.7362  0.0247 -0.6818
  604MOL0     H83318   5.128   0.224   7.199 -0.8043  0.8366 -0.3048
  604MOL0     H83319   5.019   0.097   7.257 -0.0086 -0.7437 -1.9126
  604MOL0     H83320   5.132   0.284   7.472  1.5696  2.5505 -2.0306
  604MOL0     H83321   4.961   0.209   7.447 -0.6087  0.2127  0.9856
  604MOL0     H83322   4.920   0.369   7.286 -0.3627  2.1365  0.7203
  604MOL0     H83323   5.075   0.435   7.294 -1.7174 -0.5033 -2.8416
  604MOL0     H83324   4.855   0.434   7.518 -1.5630  2.6967 -0.1917
  604MOL0     H83325   5.007   0.522   7.544 -0.9197  0.4485 -0.7647
  604MOL0     H83326   4.814   0.569   7.326  2.1183 -0.8040 -1.7103
  604MOL0     H83327   4.974   0.648   7.342  0.8123 -0.8136 -0.3414
  604MOL0     H83328   4.757   0.650   7.564 -0.1893  1.5626  1.8945
  604MOL0     H83329   4.767   0.772   7.444  0.2249  0.8780  0.1573
  604MOL0     H83330   4.995   0.833   7.528  0.4490 -1.2459 -0.1777
  604MOL0     H83331   4.996   0.700   7.632 -0.6379  0.2124  1.0789
  604MOL0     H83332   5.107  -0.130   7.240  1.7554 -0.8540  0.4130
  604MOL0     H83333   4.942  -0.323   7.247 -1.0802 -0.8608  0.4203
  604MOL0     H83334   4.803  -0.585   7.255  0.8569 -0.4897  0.0658
  604MOL0     H83335   4.711  -0.819   7.179 -4.3447 -2.2103 -1.0407
  604MOL0     H83336   3.576  -0.271   7.461 -2.4732  0.7546 -0.4204
  604MOL0     H83337   3.663  -0.043   7.487 -2.8974 -1.3529 -1.6721
  604MOL0     H83338   3.942   0.171   7.674  1.7257  0.4730  0.2481
  604MOL0     H83339   4.095   0.345   7.669  1.0630 -1.0094  2.8346
  604MOL0     H83340   4.000   0.744   7.887  0.0737 -0.3517  1.5952
  604MOL0     H83341   4.130   0.680   7.996  1.0493 -0.7819  0.2576
  604MOL0     H83342   4.176   0.837   7.752 -1.3795 -1.5506 -0.2247
  604MOL0     H83343   4.297   0.739   7.852 -2.7371 -4.9076  2.0956
  604MOL0     H83344   4.093   0.942   7.968 -0.1820 -0.8372 -2.9404
  604MOL0     H83345   4.232   0.866   8.047  0.1420 -1.5971 -0.1257
  604MOL0     H83346   4.373   0.982   7.856 -0.4692  1.3717 -2.8490
  604MOL0     H83347   4.329   1.091   7.985 -3.3235 -0.0072  0.3240
  604MOL0     H83348   4.094   1.248   7.687 -0.6386 -0.5671 -0.1447
  604MOL0     H83349   3.865   0.590   7.938  0.9273 -0.0734 -0.1246
  604MOL0     H83350   3.637   0.568   7.928  1.0666 -0.4552  0.8706
  604MOL0     H83351   3.560   0.427   7.863  0.6402  1.4228 -0.8835
  604MOL0     H83352   3.618   0.418   8.022 -4.4837 -2.1321 -0.8440
  605MOL0     O83353   8.087   1.686   6.625 -0.4630  0.2027 -0.2916
  605MOL0     C83354   7.971   1.653   6.649  0.2694 -0.0918 -0.3967
  605MOL0     O83355   7.920   1.534   6.624  0.2967  0.0030  0.1196
  605MOL0     C83356   7.991   1.423   6.587 -0.0963  0.0478  0.3162
  605MOL0     C83357   7.959   1.301   6.645 -0.3977 -0.5619 -0.2318
  605MOL0     C83358   8.030   1.185   6.616  0.6909  0.8413 -0.0882
  605MOL0     C83359   8.131   1.182   6.522  0.6051 -0.7137  0.4422
  605MOL0     O83360   8.201   1.062   6.506  0.4412 -0.6274 -0.0112
  605MOL0     C83361   8.339   1.069   6.533 -0.1580  0.6060  0.0264
  605MOL0     C83362   8.353   1.095   6.685 -0.3077  0.9702 -0.1703
  605MOL0     C83363   8.500   1.061   6.724  0.1603 -0.0074  0.0214
  605MOL0     C83364   8.530   1.063   6.869  0.8363 -0.1439 -0.3537
  605MOL0     C83365   8.461   0.940   6.945  0.1508  0.0466 -0.6994
  605MOL0     C83366   8.553   0.896   7.065  0.0786  1.0735  0.6271
  605MOL0     C83367   8.476   0.788   7.153 -0.0133 -0.0781  0.6477
  605MOL0     C83368   8.559   0.757   7.272 -0.6528 -0.3886 -0.1709
  605MOL0     N83369   8.479   0.660   7.344 -0.1323 -1.3246 -0.3068
  605MOL0     C83370   8.412   0.556   7.290  0.1832  0.0028 -0.0597
  605MOL0     C83371   8.348   0.505   7.398 -0.4921 -1.2176 -0.8393
  605MOL0     C83372   8.254   0.392   7.396  0.6083 -0.0915  0.4630
  605MOL0     C83373   8.154   0.388   7.520  0.3562 -0.6454  0.6117
  605MOL0     C83374   8.082   0.514   7.559  0.2972  0.0980 -0.4170
  605MOL0     C83375   7.950   0.493   7.640 -0.9884 -1.3289  0.1579
  605MOL0     O83376   7.898   0.626   7.676 -0.4144 -0.1282 -0.6083
  605MOL0     C83377   7.797   0.642   7.767  0.6306 -0.5520  0.0641
  605MOL0     C83378   7.820   0.603   7.896 -0.0230  0.2840 -0.1788
  605MOL0     C83379   7.712   0.603   7.983 -0.3864  0.3391  0.1198
  605MOL0     C83380   7.746   0.540   8.117 -0.0870  0.0233 -0.0104
  605MOL0     C83381   7.589   0.660   7.948 -0.8157  0.2527 -0.0669
  605MOL0     C83382   7.470   0.663   8.048  0.4473  0.8695 -0.3511
  605MOL0     O83383   7.362   0.725   8.003 -0.1131 -0.0013 -0.3769
  605MOL0     C83384   7.255   0.744   8.086 -0.4246 -0.3307  1.1430
  605MOL0     C83385   7.256   0.826   8.200 -0.2432  0.1532 -0.0859
  605MOL0     C83386   7.138   0.853   8.269 -1.0063 -0.2407 -0.4991
  605MOL0     C83387   7.014   0.815   8.220  0.2859 -0.2671 -0.0777
  605MOL0     O83388   6.894   0.842   8.268 -0.6763 -0.3254 -0.0903
  605MOL0     C83389   6.869   0.952   8.345  0.0539 -0.7279  0.3001
  605MOL0     C83390   6.725   0.935   8.367  0.2425 -0.1769  0.8605
  605MOL0     C83391   6.692   0.799   8.426 -0.7060  0.8085  0.6801
  605MOL0     C83392   6.599   0.810   8.551 -0.3271 -0.0715  0.4816
  605MOL0     C83393   6.539   0.680   8.591 -0.7373  0.9655 -0.2756
  605MOL0     C83394   6.464   0.697   8.722  0.5968 -0.8457 -0.1420
  605MOL0     C83395   6.392   0.576   8.767  0.3568  1.1038 -0.1191
  605MOL0     C83396   6.449   0.529   8.895 -0.2949  0.9173  0.1022
  605MOL0    Cl83397   6.621   0.471   8.877 -0.3395 -0.2068  0.1155
  605MOL0     C83398   7.015   0.743   8.099 -0.9766  0.1133  0.0324
  605MOL0     C83399   7.135   0.704   8.036  0.3286 -0.1672  0.3122
  605MOL0     O83400   7.484   0.629   8.162  0.0449  0.1458  0.0368
  605MOL0     C83401   7.576   0.711   7.814  0.3283 -0.3738 -0.3350
  605MOL0     C83402   7.682   0.704   7.724 -0.6527  0.6278 -0.0348
  605MOL0     N83403   8.372   0.578   7.513  0.6470 -0.2918 -0.2558
  605MOL0     N83404   8.453   0.666   7.483  0.3189 -0.1463  0.2299
  605MOL0     C83405   8.171   1.304   6.470 -0.0986 -0.1409  0.6017
  605MOL0     C83406   8.102   1.423   6.492 -0.3953 -0.1863 -0.2350
  605MOL0     C83407   7.883   1.760   6.700  2.2490  1.1307  0.4287
  605MOL0     C83408   7.785   1.827   6.621 -0.4950  0.2130  0.5088
  605MOL0     C83409   7.704   1.932   6.673 -0.4349 -0.4753  0.0654
  605MOL0     C83410   7.704   1.964   6.810  0.5509  0.3902  0.4838
  605MOL0     O83411   7.613   2.048   6.876 -0.0933 -0.5133 -0.3146
  605MOL0     C83412   7.524   2.145   6.811 -0.1467 -0.1189  0.0877
  605MOL0     C83413   7.402   2.159   6.910 -0.3403  0.4197  0.8364
  605MOL0     C83414   7.428   2.245   7.034  0.0028  0.3474  0.4749
  605MOL0     C83415   7.468   2.390   7.003 -0.1578  0.2191 -0.4712
  605MOL0     C83416   7.503   2.455   7.131 -0.4963  0.0287 -1.2522
  605MOL0     C83417   7.556   2.516   7.221 -0.8791  0.3562 -0.2193
  605MOL0     C83418   7.795   1.893   6.886  0.5405  0.2825  0.4140
  605MOL0     C83419   7.869   1.787   6.838 -0.8560  0.6002 -0.7378
  605MOL0     C83420   7.950   1.716   6.946 -0.2780 -0.0254  0.2141
  605MOL0     H83421   7.868   1.296   6.703 -2.3314  0.1914 -2.9927
  605MOL0     H83422   8.023   1.103   6.686 -0.4915  0.2679 -0.8388
  605MOL0     H83423   8.388   1.152   6.481  0.0523  0.1491 -0.5298
  605MOL0     H83424   8.391   0.974   6.514  0.8891  1.1820 -0.0601
  605MOL0     H83425   8.339   1.201   6.709  3.2951  1.7495 -0.8740
  605MOL0     H83426   8.290   1.026   6.742 -0.8223  1.5499 -0.0271
  605MOL0     H83427   8.523   0.962   6.684  1.6570  0.2538  0.1978
  605MOL0     H83428   8.572   1.125   6.673  1.4474 -2.4663 -1.4285
  605MOL0     H83429   8.637   1.058   6.889  0.9481  3.1148  0.4072
  605MOL0     H83430   8.502   1.161   6.909  3.1361  0.9123 -1.2057
  605MOL0     H83431   8.463   0.857   6.875  4.1940 -0.8796  0.2627
  605MOL0     H83432   8.359   0.961   6.980  0.9632 -1.5005  3.0803
  605MOL0     H83433   8.642   0.849   7.021 -1.4316 -1.5996  0.2354
  605MOL0     H83434   8.571   0.983   7.128 -0.6375  1.4738  0.2803
  605MOL0     H83435   8.450   0.717   7.074 -0.0178  1.2990 -0.6322
  605MOL0     H83436   8.386   0.841   7.185  0.5080  2.2494 -1.4275
  605MOL0     H83437   8.649   0.713   7.230 -2.3220 -2.5547 -1.7066
  605MOL0     H83438   8.588   0.845   7.330 -0.5839 -1.8687  2.2182
  605MOL0     H83439   8.415   0.534   7.184 -0.0136  3.1777 -0.8358
  605MOL0     H83440   8.327   0.310   7.393  3.0110  1.8460  2.0123
  605MOL0     H83441   8.190   0.399   7.307 -0.9549 -2.5765  1.2816
  605MOL0     H83442   8.080   0.309   7.503 -2.8610  2.0433  1.0279
  605MOL0     H83443   8.215   0.355   7.605  1.9125 -3.1060 -1.3291
  605MOL0     H83444   8.145   0.576   7.623 -3.2756  1.3593  2.2200
  605MOL0     H83445   8.046   0.557   7.465 -2.9037  1.7010  1.3731
  605MOL0     H83446   7.877   0.438   7.579 -1.0466  0.4665 -1.4948
  605MOL0     H83447   7.967   0.440   7.734  1.4297 -1.6568 -0.3980
  605MOL0     H83448   7.915   0.558   7.925 -1.8800 -3.6668  0.4118
  605MOL0     H83449   7.761   0.614   8.196  0.2748 -0.6713  0.5927
  605MOL0     H83450   7.848   0.501   8.109  0.0658  0.8163 -3.1214
  605MOL0     H83451   7.675   0.462   8.149  1.0266 -1.8512 -1.9067
  605MOL0     H83452   7.351   0.861   8.238  0.1946 -0.0154 -1.0058
  605MOL0     H83453   7.144   0.908   8.362  1.7528 -0.6397 -0.3535
  605MOL0     H83454   6.924   0.936   8.439  0.5890 -3.0509 -0.3269
  605MOL0     H83455   6.890   1.051   8.305 -4.3710 -0.4613 -1.8876
  605MOL0     H83456   6.695   1.009   8.442 -0.4837 -1.7408  2.1831
  605MOL0     H83457   6.663   0.952   8.279 -2.6591 -0.5819  2.6985
  605MOL0     H83458   6.777   0.735   8.453 -0.7599  0.1800 -0.5793
  605MOL0     H83459   6.639   0.735   8.355  0.8865  0.4004 -0.1856
  605MOL0     H83460   6.511   0.873   8.533 -0.8867 -0.7154  0.9354
  605MOL0     H83461   6.663   0.850   8.630  0.1268  2.0973 -0.8819
  605MOL0     H83462   6.475   0.650   8.507 -3.0255 -1.3417  2.1118
  605MOL0     H83463   6.620   0.611   8.612 -2.5372 -1.2196 -0.1442
  605MOL0     H83464   6.390   0.777   8.714  1.0031 -0.4678 -0.1497
  605MOL0     H83465   6.541   0.739   8.787  0.4896 -0.4798 -0.2477
  605MOL0     H83466   6.400   0.496   8.693  2.2764  3.0810 -2.2240
  605MOL0     H83467   6.285   0.590   8.784 -0.7953 -3.1114 -2.6139
  605MOL0     H83468   6.386   0.464   8.956  0.2375  1.2155  0.9811
  605MOL0     H83469   6.450   0.609   8.970  0.2086  0.6712  0.3606
  605MOL0     H83470   6.926   0.724   8.039 -0.5388  0.1143 -0.6246
  605MOL0     H83471   7.138   0.644   7.945  0.8157  0.0176  0.2060
  605MOL0     H83472   7.493   0.770   7.776  1.6081  1.2741 -0.7106
  605MOL0     H83473   7.675   0.738   7.621 -2.1599 -0.7929 -0.4463
  605MOL0     H83474   8.251   1.314   6.397  0.7998  3.2022  1.8609
  605MOL0     H83475   8.121   1.514   6.436 -1.6228  0.3803  0.2229
  605MOL0     H83476   7.790   1.814   6.513  2.5482  0.5536  0.4981
  605MOL0     H83477   7.638   1.994   6.613 -0.4403 -0.1631  0.3929
  605MOL0     H83478   7.580   2.236   6.791 -0.1418 -0.6067 -2.4377
  605MOL0     H83479   7.497   2.092   6.719  1.3961 -3.8668  1.6051
  605MOL0     H83480   7.375   2.059   6.946 -0.4495  0.3513  0.5591
  605MOL0     H83481   7.329   2.212   6.850  3.2418  3.6138 -1.1507
  605MOL0     H83482   7.335   2.247   7.091  0.6726  2.3094  1.5866
  605MOL0     H83483   7.522   2.208   7.076  1.9403  3.9949 -0.1783
  605MOL0     H83484   7.381   2.436   6.955  1.1702  2.6910 -0.6704
  605MOL0     H83485   7.558   2.409   6.943  0.3103  2.6355  0.8751
  605MOL0     H83486   7.601   2.567   7.304  3.4785 -1.4760 -1.1393
  605MOL0     H83487   7.800   1.924   6.990 -1.7600  1.1181  0.3312
  605MOL0     H83488   8.053   1.752   6.955 -0.9352  1.8188  0.9542
  605MOL0     H83489   7.911   1.718   7.048  4.5812  2.7091  2.3846
  605MOL0     H83490   7.961   1.608   6.934  0.3837  0.0523  0.0923
  606MOL0     O83491   1.784   9.648   1.599  0.1599 -0.8462  0.5274
  606MOL0     C83492   1.740   9.731   1.681 -0.5327  1.1470 -0.7689
  606MOL0     O83493   1.631   9.808   1.665 -0.1547  0.6116 -0.1469
  606MOL0     C83494   1.570   9.772   1.547  0.7056  0.0506 -0.2002
  606MOL0     C83495   1.586   9.852   1.431  0.4608  0.1773 -0.3531
  606MOL0     C83496   1.517   9.840   1.313  0.8634 -0.3838  0.0613
  606MOL0     C83497   1.422   9.731   1.307  0.1141  0.2036 -0.3883
  606MOL0     O83498   1.345   9.696   1.201  0.0480 -0.0266  0.0845
  606MOL0     C83499   1.252   9.792   1.147 -0.0467  0.3218 -0.4078
  606MOL0     C83500   1.139   9.830   1.238  0.4041 -0.1487 -0.4207
  606MOL0     C83501   1.060   9.957   1.197 -0.2201 -0.5478  0.2653
  606MOL0     C83502   0.979   9.932   1.066  0.3789 -0.2244  0.1735
  606MOL0     C83503   0.910  10.062   1.025  0.0550  1.0238  1.5336
  606MOL0     C83504   0.814  10.021   0.909 -0.3736 -0.3162  0.0744
  606MOL0     C83505   0.703  10.128   0.902  0.6548 -1.0523  0.5383
  606MOL0     C83506   0.634  10.142   0.760 -0.4440  0.1494  0.5529
  606MOL0     N83507   0.535  10.255   0.748 -0.7619 -0.5047  0.1079
  606MOL0     C83508   0.451  10.270   0.644  0.4874  0.3045  0.2038
  606MOL0     C83509   0.367  10.370   0.671  0.3683 -0.8627  0.1429
  606MOL0     C83510   0.253  10.409   0.578  0.8004  0.0796 -0.5231
  606MOL0     C83511   0.191  10.545   0.625 -0.7504 -1.3424  0.2680
  606MOL0     C83512   0.097  10.605   0.518 -0.8736 -0.1827 -0.1712
  606MOL0     C83513   0.180  10.671   0.403  1.1119  0.1911 -0.0362
  606MOL0     O83514   0.095  10.767   0.349 -0.0064 -0.4147 -0.8064
  606MOL0     C83515   0.121  10.800   0.215  0.0708  0.4061  0.3034
  606MOL0     C83516   0.239  10.792   0.146 -0.1873 -0.2211  0.5898
  606MOL0     C83517   0.246  10.839   0.009 -0.3729  0.1313  0.3396
  606MOL0     C83518   0.376  10.832  -0.050 -0.0380 -0.4119 -0.1164
  606MOL0     C83519   0.131  10.888  -0.060  0.4630 -0.3573 -0.7650
  606MOL0     C83520   0.120  10.949  -0.199  0.2908 -0.2666  0.7338
  606MOL0     O83521   0.019  11.049  -0.218  0.1858 -0.1098 -0.4209
  606MOL0     C83522   0.027  11.113  -0.335  0.2694  0.3967  0.3895
  606MOL0     C83523   0.101  11.227  -0.344  0.4744 -0.5425  0.3220
  606MOL0     C83524   0.114  11.302  -0.460 -0.6382  0.3124  0.1520
  606MOL0     C83525   0.050  11.276  -0.579  0.0347 -0.0852  0.0062
  606MOL0     O83526   0.061  11.362  -0.686  0.2609 -0.9638  0.1611
  606MOL0     C83527   0.043  11.306  -0.815 -0.7629 -0.3177  0.6639
  606MOL0     C83528   0.082  11.402  -0.932 -0.5905  0.1572  0.6194
  606MOL0     C83529  -0.011  11.520  -0.971 -0.4199  1.1032  0.7768
  606MOL0     C83530  -0.120  11.486  -1.073 -0.0025 -0.6870 -0.2657
  606MOL0     C83531  -0.247  11.579  -1.080  0.4123  0.5572  0.2279
  606MOL0     C83532  -0.331  11.579  -0.952 -0.3023  0.6264 -0.4583
  606MOL0     C83533  -0.457  11.669  -0.946  1.0468  0.1353  0.0890
  606MOL0     C83534  -0.558  11.631  -0.835 -0.3969  0.3934  0.1141
  606MOL0    Cl83535  -0.697  11.740  -0.828 -0.2323 -0.0211  0.0149
  606MOL0     C83536  -0.031  11.161  -0.575 -0.1257 -0.0786  0.3125
  606MOL0     C83537  -0.045  11.083  -0.458 -0.1360 -0.1491  1.0509
  606MOL0     O83538   0.202  10.914  -0.282  0.3566 -0.0663 -0.3642
  606MOL0     C83539   0.008  10.892   0.018  0.0397 -0.0340  0.7814
  606MOL0     C83540   0.005  10.844   0.151  0.0688 -0.7178 -0.4371
  606MOL0     N83541   0.405  10.422   0.800  0.6428  0.2575  0.2968
  606MOL0     N83542   0.505  10.353   0.841 -0.3107 -0.4048  0.1088
  606MOL0     C83543   1.409   9.652   1.421 -0.2797  0.2404 -1.0092
  606MOL0     C83544   1.486   9.665   1.536 -0.6022  0.1859  0.9885
  606MOL0     C83545   1.809   9.725   1.807 -0.1531 -0.0479  0.1119
  606MOL0     C83546   1.851   9.856   1.857 -0.2628 -0.2594 -0.4978
  606MOL0     C83547   1.913   9.869   1.978  0.2626 -0.8943 -0.2799
  606MOL0     C83548   1.931   9.750   2.060  0.2567  0.2170  0.2702
  606MOL0     O83549   1.973   9.742   2.189 -0.0266 -0.2411 -0.1668
  606MOL0     C83550   2.088   9.827   2.220 -0.2521 -1.3154 -0.1205
  606MOL0     C83551   2.132   9.802   2.363  0.7813 -0.4198 -1.0374
  606MOL0     C83552   2.237   9.914   2.398  0.5841  1.0984 -0.0371
  606MOL0     C83553   2.275   9.912   2.546  0.5030 -0.2275 -0.2355
  606MOL0     C83554   2.343   9.798   2.606  0.0067 -0.7641  0.5264
  606MOL0     C83555   2.403   9.703   2.666 -0.5700  0.0198 -0.3177
  606MOL0     C83556   1.903   9.630   2.007  0.6488 -0.1816  0.2489
  606MOL0     C83557   1.833   9.615   1.884 -0.1218  0.2810 -0.7493
  606MOL0     C83558   1.812   9.480   1.837  0.1762 -0.3218 -0.0719
  606MOL0     H83559   1.651   9.938   1.420 -3.3721  3.4828  0.5414
  606MOL0     H83560   1.537   9.900   1.225 -2.5139 -0.4730 -0.9338
  606MOL0     H83561   1.215   9.749   1.054  3.3200 -1.2492 -1.1942
  606MOL0     H83562   1.324   9.873   1.133  2.0482 -0.9086  2.2557
  606MOL0     H83563   1.072   9.743   1.247  0.8223 -0.6245 -1.7427
  606MOL0     H83564   1.181   9.853   1.337 -0.2338 -1.0235  0.0703
  606MOL0     H83565   1.005   9.978   1.289  0.9397  0.4199  0.7723
  606MOL0     H83566   1.129  10.042   1.190  0.4592 -1.0243  0.9989
  606MOL0     H83567   1.054   9.902   0.993  0.1086  0.6503 -0.4767
  606MOL0     H83568   0.905   9.855   1.087  1.5007 -1.5092 -0.4821
  606MOL0     H83569   0.980  10.136   0.986  2.1488 -1.2329  0.7575
  606MOL0     H83570   0.848  10.103   1.106  2.6662  1.4313  3.4696
  606MOL0     H83571   0.873  10.022   0.817  0.4389 -0.9041  0.5756
  606MOL0     H83572   0.758   9.927   0.918 -2.2851  0.6142 -1.2703
  606MOL0     H83573   0.754  10.223   0.919  1.4031 -1.1756 -0.8165
  606MOL0     H83574   0.622  10.109   0.973 -3.6153  3.1688 -2.5588
  606MOL0     H83575   0.717  10.160   0.691  0.5054  2.9974  2.2681
  606MOL0     H83576   0.599  10.043   0.729  4.8738 -1.5649 -0.9499
  606MOL0     H83577   0.432  10.202   0.561  3.5452 -3.4729  2.2749
  606MOL0     H83578   0.166  10.343   0.572 -0.8874  2.2607 -1.3011
  606MOL0     H83579   0.275  10.429   0.473 -2.5583 -0.3100 -1.4429
  606MOL0     H83580   0.158  10.540   0.729  3.4894  0.6100  1.9651
  606MOL0     H83581   0.274  10.614   0.644 -1.0702 -1.0965  0.8163
  606MOL0     H83582   0.031  10.528   0.477 -0.1573 -1.1483  0.4615
  606MOL0     H83583   0.033  10.681   0.564 -0.2998 -0.6324  1.4176
  606MOL0     H83584   0.276  10.718   0.427  0.9045  0.1692  0.8901
  606MOL0     H83585   0.195  10.586   0.336  0.9070  0.5313 -0.5245
  606MOL0     H83586   0.333  10.753   0.185  1.0779  0.2903 -1.7497
  606MOL0     H83587   0.381  10.745  -0.117  0.8537 -2.2249  2.1922
  606MOL0     H83588   0.460  10.850   0.017 -0.4588  0.9125  0.0937
  606MOL0     H83589   0.390  10.917  -0.117 -0.3331  1.0269  1.5813
  606MOL0     H83590   0.161  11.260  -0.260  2.7057 -0.6151 -1.1609
  606MOL0     H83591   0.194  11.376  -0.454 -0.1424 -0.1494 -0.5807
  606MOL0     H83592   0.105  11.216  -0.824  1.4074  1.3147 -3.8393
  606MOL0     H83593  -0.060  11.275  -0.833 -1.4362  1.8320  0.5928
  606MOL0     H83594   0.180  11.445  -0.911  0.3681 -0.8740 -1.4615
  606MOL0     H83595   0.102  11.341  -1.021  1.1343  2.9899 -1.0701
  606MOL0     H83596   0.044  11.599  -1.023  0.0610  0.9471  1.0350
  606MOL0     H83597  -0.052  11.564  -0.879  1.9052  1.5711  1.6688
  606MOL0     H83598  -0.170  11.390  -1.055  1.4663 -1.2411  1.1885
  606MOL0     H83599  -0.077  11.481  -1.173 -1.4134 -2.6911 -0.8410
  606MOL0     H83600  -0.217  11.684  -1.092  4.7181 -0.6059 -1.0246
  606MOL0     H83601  -0.321  11.546  -1.153 -1.9888 -1.4719  3.3313
  606MOL0     H83602  -0.265  11.609  -0.870 -2.3346  4.0967  0.0906
  606MOL0     H83603  -0.360  11.476  -0.929  0.9443  0.2200 -0.6577
  606MOL0     H83604  -0.515  11.660  -1.038 -1.9046 -1.8495  1.9278
  606MOL0     H83605  -0.423  11.772  -0.937  0.1799  0.9847 -4.1692
  606MOL0     H83606  -0.500  11.657  -0.747  2.2462 -1.0248 -1.0863
  606MOL0     H83607  -0.589  11.526  -0.849  2.1454 -0.2482 -1.3350
  606MOL0     H83608  -0.080  11.129  -0.666  0.4018 -2.0807  0.6754
  606MOL0     H83609  -0.122  11.006  -0.448 -0.4306 -0.0729 -0.4424
  606MOL0     H83610  -0.087  10.930  -0.020  0.9520  2.2667  0.5986
  606MOL0     H83611  -0.074  10.873   0.219  2.7122  3.3723  1.2788
  606MOL0     H83612   1.342   9.567   1.419 -2.6330  2.0088 -1.7871
  606MOL0     H83613   1.471   9.603   1.624 -2.0855  0.0013  0.6410
  606MOL0     H83614   1.829   9.946   1.801 -1.8842  0.2548  0.9048
  606MOL0     H83615   1.942   9.963   2.023  0.5241 -1.2248  0.2592
  606MOL0     H83616   2.178   9.814   2.160  1.9855  2.8471  1.9090
  606MOL0     H83617   2.057   9.932   2.216 -1.1817 -1.3530  3.2270
  606MOL0     H83618   2.182   9.704   2.365 -1.8421 -1.8373 -1.1005
  606MOL0     H83619   2.042   9.797   2.424  0.8956 -2.3673 -0.9627
  606MOL0     H83620   2.323   9.910   2.330 -1.0383  1.4187 -2.2418
  606MOL0     H83621   2.192  10.013   2.380 -1.2830  0.9314  3.0147
  606MOL0     H83622   2.185   9.928   2.606  1.1518 -1.0597  1.0047
  606MOL0     H83623   2.342   9.998   2.544  2.3644 -1.4466  2.4571
  606MOL0     H83624   2.460   9.623   2.710  0.0559 -0.6894 -2.2920
  606MOL0     H83625   1.916   9.541   2.069 -0.5720 -0.9876 -0.6169
  606MOL0     H83626   1.709   9.445   1.828  0.4527 -1.3420  0.4724
  606MOL0     H83627   1.853   9.467   1.737 -2.4159  2.3121 -1.6135
  606MOL0     H83628   1.867   9.403   1.893 -2.5471 -1.6232  1.0115
  607MOL0     O83629   1.632   3.261   4.813  0.1484  0.5038  0.1855
  607MOL0     C83630   1.611   3.377   4.772  0.1183  0.7531  0.3565
  607MOL0     O83631   1.587   3.408   4.638 -0.1364  0.4212 -0.2142
  607MOL0     C83632   1.592   3.296   4.559  0.1245 -0.2109  0.4208
  607MOL0     C83633   1.723   3.252   4.510  0.3030 -0.3469  0.1977
  607MOL0     C83634   1.725   3.145   4.411 -1.0101 -0.1678 -0.9413
  607MOL0     C83635   1.609   3.078   4.354 -1.2083 -1.7600 -0.0256
  607MOL0     O83636   1.632   2.983   4.256  0.8166  0.6242 -0.9250
  607MOL0     C83637   1.523   2.922   4.184  0.3445 -0.5917  0.2528
  607MOL0     C83638   1.589   2.847   4.068  0.1317  0.2356  0.1080
  607MOL0     C83639   1.492   2.761   3.983 -0.5393 -0.1132 -0.0048
  607MOL0     C83640   1.535   2.707   3.845  0.0752 -0.2231  0.7564
  607MOL0     C83641   1.420   2.652   3.774 -0.2988  0.0628 -0.3733
  607MOL0     C83642   1.450   2.574   3.641  0.5334  0.7334  0.5258
  607MOL0     C83643   1.331   2.515   3.561 -0.5448 -0.6491  1.2118
  607MOL0     C83644   1.197   2.600   3.554  0.2081  0.5207  0.3347
  607MOL0     N83645   1.116   2.543   3.450  0.2165  0.0102  0.4471
  607MOL0     C83646   1.126   2.566   3.313 -0.4535 -0.2648  0.3678
  607MOL0     C83647   1.015   2.521   3.252 -0.7774 -0.1058 -0.4604
  607MOL0     C83648   0.978   2.541   3.111  0.6923  0.7299 -0.2901
  607MOL0     C83649   0.879   2.658   3.106  0.2324 -0.7266 -0.5774
  607MOL0     C83650   0.867   2.708   2.965  0.4740 -0.4329  0.4591
  607MOL0     C83651   0.747   2.801   2.947  1.5983  0.3916  0.4547
  607MOL0     O83652   0.766   2.924   3.012  0.2203  0.0379 -0.5875
  607MOL0     C83653   0.847   3.004   2.939  0.6528 -0.3183  0.0651
  607MOL0     C83654   0.814   3.044   2.809  0.7464 -0.4615  1.3165
  607MOL0     C83655   0.896   3.138   2.738  0.1421 -0.1540  0.8161
  607MOL0     C83656   0.852   3.185   2.600  0.3457 -0.9020  0.2504
  607MOL0     C83657   1.027   3.177   2.797  0.2462 -0.0752  0.4844
  607MOL0     C83658   1.121   3.261   2.730 -0.2913 -0.4209  0.4065
  607MOL0     O83659   1.250   3.264   2.771 -0.5371 -0.2881  0.5065
  607MOL0     C83660   1.364   3.297   2.694 -0.2884  0.9681  0.2676
  607MOL0     C83661   1.480   3.312   2.763  0.1008  0.2864  0.2804
  607MOL0     C83662   1.595   3.359   2.702  1.0025 -0.0700  0.0133
  607MOL0     C83663   1.607   3.379   2.566 -0.6073  0.1530  0.6025
  607MOL0     O83664   1.718   3.416   2.493 -0.1431  0.7505 -0.5550
  607MOL0     C83665   1.821   3.506   2.550 -0.0335  0.5229 -0.0622
  607MOL0     C83666   1.898   3.576   2.438  0.1159 -0.3837  0.2152
  607MOL0     C83667   1.989   3.495   2.356  0.5239 -0.0014 -0.6865
  607MOL0     C83668   2.075   3.572   2.249 -0.0524 -0.6409  0.3164
  607MOL0     C83669   2.202   3.625   2.322  0.3439  0.4047 -0.2625
  607MOL0     C83670   2.286   3.713   2.234  1.1856  0.1868 -0.0892
  607MOL0     C83671   2.418   3.752   2.298  0.6605 -0.0496  0.9564
  607MOL0     C83672   2.496   3.845   2.196  0.2762  0.1946  0.2316
  607MOL0    Cl83673   2.648   3.883   2.273 -0.1173 -0.5651 -0.0569
  607MOL0     C83674   1.490   3.352   2.488  0.0676  0.1708 -0.6428
  607MOL0     C83675   1.366   3.306   2.550  0.3204 -0.0120  0.4897
  607MOL0     O83676   1.078   3.342   2.642 -0.4516  0.2435  0.1176
  607MOL0     C83677   1.055   3.131   2.924  0.0527  0.3868 -0.4249
  607MOL0     C83678   0.962   3.051   2.995 -0.9905  0.4538 -0.2803
  607MOL0     N83679   0.944   2.454   3.352 -0.6605 -0.0370 -0.7184
  607MOL0     N83680   1.004   2.472   3.468 -0.1943  0.1373 -1.0269
  607MOL0     C83681   1.483   3.118   4.405 -0.0194 -0.3279 -0.0276
  607MOL0     C83682   1.476   3.228   4.501 -0.1026 -0.5364 -0.0442
  607MOL0     C83683   1.566   3.478   4.869  0.0660 -0.0837 -0.1586
  607MOL0     C83684   1.486   3.590   4.821  0.0257  0.6548 -0.5973
  607MOL0     C83685   1.450   3.694   4.899  0.3563  1.2441  0.9534
  607MOL0     C83686   1.486   3.692   5.036 -1.0124 -0.0320  0.5777
  607MOL0     O83687   1.438   3.804   5.111 -0.2467  0.1336 -0.1563
  607MOL0     C83688   1.470   3.810   5.247 -0.1907 -0.1426 -0.5185
  607MOL0     C83689   1.431   3.950   5.303 -0.8561  0.2514 -0.2738
  607MOL0     C83690   1.276   3.970   5.304  0.4089  0.3903 -0.0872
  607MOL0     C83691   1.217   4.106   5.271 -0.1023  0.8007  0.2883
  607MOL0     C83692   1.248   4.203   5.377 -0.0707 -0.9422 -0.0919
  607MOL0     C83693   1.276   4.287   5.459 -1.0618 -0.5710  0.2053
  607MOL0     C83694   1.558   3.578   5.082  0.0301  0.0454 -0.2580
  607MOL0     C83695   1.598   3.466   5.006 -0.9334 -0.4877  0.2134
  607MOL0     C83696   1.688   3.361   5.062 -0.8306 -0.4738 -0.2167
  607MOL0     H83697   1.814   3.300   4.546 -0.6178  1.0271  0.7766
  607MOL0     H83698   1.824   3.111   4.382 -1.6807 -1.7149 -1.4681
  607MOL0     H83699   1.458   3.001   4.147 -0.5204  1.1969  4.9538
  607MOL0     H83700   1.458   2.856   4.242 -2.0659 -0.6620 -2.3089
  607MOL0     H83701   1.650   2.911   4.004 -2.2265  1.7421 -0.7721
  607MOL0     H83702   1.657   2.779   4.122 -0.1608  0.4554  0.7610
  607MOL0     H83703   1.455   2.681   4.048 -0.8272 -0.1431 -0.2027
  607MOL0     H83704   1.407   2.829   3.970 -0.2873  0.1254 -0.4020
  607MOL0     H83705   1.579   2.790   3.789 -1.2456  0.5698  0.8595
  607MOL0     H83706   1.614   2.634   3.867 -0.6084 -1.5557 -0.9190
  607MOL0     H83707   1.353   2.733   3.743  1.7185  1.6948 -0.6812
  607MOL0     H83708   1.366   2.581   3.837 -1.5073 -0.2826 -1.7236
  607MOL0     H83709   1.519   2.637   3.584  2.2367  1.4322  3.1784
  607MOL0     H83710   1.511   2.489   3.674 -1.9463 -1.0684  0.7991
  607MOL0     H83711   1.323   2.411   3.592  0.0597 -1.8599 -2.2777
  607MOL0     H83712   1.383   2.496   3.467  0.0129 -0.0610  1.3962
  607MOL0     H83713   1.142   2.594   3.649 -3.4636  0.8730 -1.6165
  607MOL0     H83714   1.216   2.703   3.523  2.9517 -0.4737 -1.7489
  607MOL0     H83715   1.200   2.629   3.265  0.3142 -0.8604  0.7458
  607MOL0     H83716   0.927   2.452   3.073  1.4528 -0.0030  0.3642
  607MOL0     H83717   1.067   2.567   3.053  0.9210  0.9884  0.1742
  607MOL0     H83718   0.780   2.621   3.132  1.1616 -0.3229  4.5445
  607MOL0     H83719   0.916   2.743   3.164 -0.4171 -0.6257 -0.3112
  607MOL0     H83720   0.955   2.764   2.931 -1.1200  0.2606 -2.8301
  607MOL0     H83721   0.850   2.630   2.891 -0.8901  1.7234 -1.6372
  607MOL0     H83722   0.711   2.801   2.844 -3.7973 -0.0374  2.0266
  607MOL0     H83723   0.660   2.764   3.003  0.1372  1.7058 -0.8349
  607MOL0     H83724   0.725   2.999   2.765  0.7866 -0.3233  1.0897
  607MOL0     H83725   0.767   3.129   2.560 -0.0050  0.8113 -1.5903
  607MOL0     H83726   0.927   3.190   2.520 -1.9540  0.4627 -1.9879
  607MOL0     H83727   0.817   3.287   2.619 -0.9100 -0.6873 -2.6223
  607MOL0     H83728   1.484   3.283   2.867  1.0280  0.7048  0.3756
  607MOL0     H83729   1.685   3.367   2.762  1.2731 -1.1173 -0.2402
  607MOL0     H83730   1.777   3.580   2.618  1.0292 -0.0243  1.2694
  607MOL0     H83731   1.887   3.441   2.609  3.7324  4.0986  0.1283
  607MOL0     H83732   1.820   3.616   2.373 -0.1358 -1.3701 -0.1035
  607MOL0     H83733   1.952   3.659   2.485  1.9795 -1.2163 -0.3452
  607MOL0     H83734   1.928   3.428   2.296  1.7416 -0.1538 -1.7870
  607MOL0     H83735   2.049   3.418   2.405 -2.3240 -3.5429 -2.3259
  607MOL0     H83736   2.016   3.654   2.208  0.9233 -0.3693 -0.5791
  607MOL0     H83737   2.108   3.509   2.166 -1.5468 -0.7245 -0.2320
  607MOL0     H83738   2.163   3.677   2.410 -2.9517  0.9586 -1.8999
  607MOL0     H83739   2.264   3.538   2.345 -2.3312 -1.5288  0.0910
  607MOL0     H83740   2.224   3.801   2.216  3.5996  1.6759 -1.8402
  607MOL0     H83741   2.293   3.663   2.137  1.3999 -0.2916  0.1700
  607MOL0     H83742   2.469   3.658   2.323  1.3964 -0.1873 -0.8719
  607MOL0     H83743   2.401   3.820   2.382  2.3822  2.7712 -0.7970
  607MOL0     H83744   2.437   3.935   2.173 -5.3945 -3.5488 -2.1958
  607MOL0     H83745   2.510   3.791   2.102 -0.4946  1.2447 -0.5093
  607MOL0     H83746   1.477   3.371   2.381 -0.3385  1.2323 -0.4221
  607MOL0     H83747   1.280   3.280   2.489  1.7333 -1.0675 -1.1710
  607MOL0     H83748   1.148   3.160   2.972 -0.2246  0.8817 -0.1777
  607MOL0     H83749   0.984   3.017   3.096  0.0358 -2.0502 -1.2401
  607MOL0     H83750   1.402   3.065   4.357  1.1800 -3.5165  1.1945
  607MOL0     H83751   1.376   3.264   4.524 -0.2728 -1.3725  0.5998
  607MOL0     H83752   1.445   3.592   4.720  0.6041  2.0668 -0.8248
  607MOL0     H83753   1.386   3.773   4.863 -0.3897  1.0830  1.8685
  607MOL0     H83754   1.422   3.726   5.298 -0.7941 -0.5035 -1.6627
  607MOL0     H83755   1.579   3.802   5.252 -0.3593 -2.5423  2.7810
  607MOL0     H83756   1.486   4.026   5.247  3.6328 -1.6874  1.0853
  607MOL0     H83757   1.472   3.965   5.403 -0.0905 -2.0873 -0.1637
  607MOL0     H83758   1.239   3.902   5.226 -3.4334  1.3367  0.7073
  607MOL0     H83759   1.238   3.937   5.401  0.9685  5.0291  1.9690
  607MOL0     H83760   1.112   4.093   5.246  0.1333 -1.2022  0.1244
  607MOL0     H83761   1.257   4.135   5.174  0.5961 -0.4081  0.1950
  607MOL0     H83762   1.318   4.365   5.519  6.3774  2.5168 -7.0427
  607MOL0     H83763   1.586   3.567   5.186  0.4134  1.6182 -0.1747
  607MOL0     H83764   1.791   3.376   5.026 -0.4303 -0.3599  0.9291
  607MOL0     H83765   1.699   3.370   5.170  3.8090  0.7305 -0.5570
  607MOL0     H83766   1.662   3.257   5.041  0.9785 -1.1541  0.6995
  608MOL0     O83767   3.506   5.770   3.990 -0.2785 -0.2249 -0.4676
  608MOL0     C83768   3.424   5.671   4.003  0.1437 -1.0389  0.3627
  608MOL0     O83769   3.437   5.566   4.093  0.5948  0.4296  0.2776
  608MOL0     C83770   3.540   5.550   4.177  0.0948  0.2946 -0.7543
  608MOL0     C83771   3.596   5.650   4.250 -0.9662  0.6573  0.2009
  608MOL0     C83772   3.701   5.624   4.339  0.6421  0.6569 -0.5516
  608MOL0     C83773   3.732   5.491   4.370 -0.0463  0.0704 -0.4774
  608MOL0     O83774   3.817   5.485   4.474 -0.1047  0.7111 -0.4987
  608MOL0     C83775   3.832   5.353   4.528 -0.3021  0.3589  0.0201
  608MOL0     C83776   3.898   5.358   4.663 -0.5683  0.2212  0.2268
  608MOL0     C83777   3.965   5.226   4.703  0.1463  0.7291 -0.5085
  608MOL0     C83778   3.860   5.123   4.755 -1.1715 -0.2740 -0.8642
  608MOL0     C83779   3.819   5.164   4.900 -0.6957 -0.4127  0.0768
  608MOL0     C83780   3.924   5.125   5.003  0.3027 -0.0371 -0.1036
  608MOL0     C83781   3.864   5.129   5.145 -0.4945 -0.3355 -0.2114
  608MOL0     C83782   3.787   5.007   5.183  0.8818  0.2489  0.0160
  608MOL0     N83783   3.740   5.025   5.321 -0.3054  0.2076 -0.5477
  608MOL0     C83784   3.653   5.116   5.364 -0.0138 -0.1796  0.6879
  608MOL0     C83785   3.634   5.077   5.494 -0.7655 -0.2652 -0.0243
  608MOL0     C83786   3.544   5.156   5.591 -0.0426  0.3668  0.7319
  608MOL0     C83787   3.431   5.072   5.631 -0.2194 -0.0046  0.5650
  608MOL0     C83788   3.352   5.137   5.743  0.3168  0.0346 -0.7861
  608MOL0     C83789   3.220   5.065   5.763 -0.0711 -0.3285  0.8107
  608MOL0     O83790   3.140   5.093   5.651 -0.2338 -0.1546  0.8946
  608MOL0     C83791   3.020   5.041   5.666 -0.1153  0.6839  1.1651
  608MOL0     C83792   2.918   5.106   5.581 -1.2949 -0.3813 -0.1448
  608MOL0     C83793   2.789   5.058   5.574  0.5897  0.6869 -0.0500
  608MOL0     C83794   2.700   5.123   5.469 -0.3435  0.0639 -0.0210
  608MOL0     C83795   2.742   4.948   5.647  0.0105  1.3659  0.2378
  608MOL0     C83796   2.605   4.894   5.646 -0.5637  0.4312 -0.0075
  608MOL0     O83797   2.591   4.780   5.721  0.3191 -0.4686 -0.1912
  608MOL0     C83798   2.481   4.698   5.722 -0.8383  0.5824  0.1576
  608MOL0     C83799   2.476   4.597   5.826 -0.3387 -0.5497 -1.2708
  608MOL0     C83800   2.381   4.494   5.828 -0.3786 -0.4117 -0.8434
  608MOL0     C83801   2.279   4.495   5.736  0.1131 -0.3856 -0.4767
  608MOL0     O83802   2.171   4.411   5.723 -0.6354  0.3311  0.1878
  608MOL0     C83803   2.172   4.291   5.795 -0.1804 -0.3636  0.1352
  608MOL0     C83804   2.045   4.208   5.764  0.2499  0.4657  0.2176
  608MOL0     C83805   2.014   4.119   5.882 -0.4231 -0.2127 -0.3174
  608MOL0     C83806   1.918   3.992   5.843 -0.2308 -0.7520  0.4796
  608MOL0     C83807   1.987   3.861   5.861  0.0660  0.2893 -0.5857
  608MOL0     C83808   2.102   3.848   5.756 -0.0709 -0.7430  0.2845
  608MOL0     C83809   2.187   3.723   5.776  0.4828 -0.2363  0.2953
  608MOL0     C83810   2.308   3.721   5.679  0.1875 -0.2972  0.3040
  608MOL0    Cl83811   2.438   3.844   5.703  0.3251 -0.0270 -0.8490
  608MOL0     C83812   2.282   4.590   5.634 -0.2385 -0.3685  0.6142
  608MOL0     C83813   2.382   4.687   5.623 -0.1688 -0.7321  0.0143
  608MOL0     O83814   2.518   4.945   5.578 -0.4544 -0.2317 -0.0108
  608MOL0     C83815   2.839   4.880   5.726  0.2528 -0.6615  0.1545
  608MOL0     C83816   2.976   4.925   5.735  0.1554 -0.3189 -0.2492
  608MOL0     N83817   3.700   4.960   5.526  1.1945 -1.0251 -0.4616
  608MOL0     N83818   3.772   4.940   5.424  0.0801 -0.8303  0.2792
  608MOL0     C83819   3.683   5.379   4.288  0.3898 -0.5632  0.0682
  608MOL0     C83820   3.578   5.417   4.202  0.1759  0.1188 -0.5678
  608MOL0     C83821   3.305   5.660   3.900 -0.7736 -0.5201 -0.8550
  608MOL0     C83822   3.222   5.547   3.909  0.6567  1.0469 -0.2032
  608MOL0     C83823   3.130   5.520   3.805 -0.5083  0.0669 -0.5660
  608MOL0     C83824   3.116   5.604   3.702  0.0714  0.5038  0.4238
  608MOL0     O83825   3.036   5.564   3.599 -0.2283 -0.2687  0.0776
  608MOL0     C83826   3.106   5.516   3.483  0.0742 -0.4682  0.2293
  608MOL0     C83827   3.241   5.428   3.496 -0.3165  0.6307  1.1645
  608MOL0     C83828   3.241   5.322   3.380 -1.1280 -0.0889 -0.1721
  608MOL0     C83829   3.262   5.382   3.248 -0.4272 -0.4446  0.8568
  608MOL0     C83830   3.252   5.270   3.154  0.4529  0.0848  0.1830
  608MOL0     C83831   3.231   5.181   3.073  0.3615 -0.1388 -0.0601
  608MOL0     C83832   3.199   5.714   3.693 -0.1126  0.2435  0.1982
  608MOL0     C83833   3.281   5.759   3.795  0.1501  0.8106 -0.6510
  608MOL0     C83834   3.335   5.895   3.787 -0.3254 -0.3392  0.8124
  608MOL0     H83835   3.577   5.757   4.255  1.1204  1.0388  0.7292
  608MOL0     H83836   3.745   5.694   4.409  0.1126 -1.8364  2.5316
  608MOL0     H83837   3.883   5.282   4.462 -0.2740 -0.7362  1.1877
  608MOL0     H83838   3.736   5.308   4.551  0.6619 -0.9107  1.7159
  608MOL0     H83839   3.972   5.439   4.661 -0.3222 -0.0178 -1.0707
  608MOL0     H83840   3.813   5.382   4.728 -0.1176 -0.8542  1.2479
  608MOL0     H83841   4.013   5.192   4.611  1.8009 -0.4547  0.7212
  608MOL0     H83842   4.044   5.255   4.773  2.5946 -1.9031 -2.0081
  608MOL0     H83843   3.769   5.122   4.695 -1.8439 -0.7334  0.1460
  608MOL0     H83844   3.905   5.024   4.744 -0.8207  0.1729 -5.3115
  608MOL0     H83845   3.731   5.109   4.934 -0.8096 -0.4361 -0.2469
  608MOL0     H83846   3.794   5.269   4.919  3.1337  0.6420  0.0613
  608MOL0     H83847   3.975   5.031   4.984  0.9507  0.0086  1.2847
  608MOL0     H83848   4.007   5.197   5.006  1.4888 -1.3964  1.4157
  608MOL0     H83849   3.804   5.219   5.161  0.4887  0.1733  0.7371
  608MOL0     H83850   3.949   5.135   5.214  1.7053 -1.3223 -2.6471
  608MOL0     H83851   3.704   4.991   5.114  2.6733  0.1967 -2.2149
  608MOL0     H83852   3.851   4.919   5.181 -0.2178 -0.5517 -0.7526
  608MOL0     H83853   3.610   5.194   5.303  0.6040  0.5224  1.1291
  608MOL0     H83854   3.505   5.249   5.549 -2.7731 -1.5587 -1.3973
  608MOL0     H83855   3.607   5.179   5.677  2.3638 -0.9419 -0.5783
  608MOL0     H83856   3.369   5.071   5.541 -1.4061  0.4106  1.3535
  608MOL0     H83857   3.453   4.970   5.661 -0.7226  0.1315  1.4330
  608MOL0     H83858   3.413   5.129   5.834  2.6276  3.1280 -1.9020
  608MOL0     H83859   3.336   5.245   5.735 -0.9875  0.2142  2.6392
  608MOL0     H83860   3.232   4.958   5.780  1.0697 -0.3382  0.0528
  608MOL0     H83861   3.177   5.109   5.853 -0.9356  3.0730 -1.0728
  608MOL0     H83862   2.933   5.197   5.524 -0.2178 -2.4817 -3.5843
  608MOL0     H83863   2.743   5.214   5.428  0.4729  0.4582  1.6119
  608MOL0     H83864   2.610   5.160   5.518 -0.0920  0.5650  0.0667
  608MOL0     H83865   2.683   5.050   5.389  0.3664 -1.7474  1.4033
  608MOL0     H83866   2.557   4.588   5.897 -0.8043 -2.9781 -0.9495
  608MOL0     H83867   2.387   4.404   5.888 -2.8541  1.1625  2.0586
  608MOL0     H83868   2.257   4.228   5.766 -1.3534 -2.5351  1.2533
  608MOL0     H83869   2.171   4.313   5.902 -1.5345  0.9079 -0.1054
  608MOL0     H83870   1.957   4.264   5.730  1.0873  1.4212 -0.3942
  608MOL0     H83871   2.061   4.134   5.685  0.5127 -0.8447  1.4566
  608MOL0     H83872   1.969   4.175   5.964 -1.2731  2.7361 -2.6144
  608MOL0     H83873   2.113   4.078   5.904 -1.0743 -1.9685 -0.4900
  608MOL0     H83874   1.889   3.997   5.738  1.7581  1.6074 -0.0420
  608MOL0     H83875   1.824   3.994   5.900  0.1130 -0.3373  1.0423
  608MOL0     H83876   2.021   3.850   5.965 -0.4749 -1.1914 -0.5453
  608MOL0     H83877   1.913   3.784   5.838 -2.5587  2.1189  1.1805
  608MOL0     H83878   2.172   3.932   5.759 -2.8067  1.7567 -0.5534
  608MOL0     H83879   2.051   3.851   5.660  1.9679  5.9765 -1.1557
  608MOL0     H83880   2.120   3.640   5.754  2.7676 -2.0223 -0.3610
  608MOL0     H83881   2.214   3.704   5.881  0.4177  2.6129  0.9072
  608MOL0     H83882   2.275   3.721   5.575  3.6099  1.1789 -0.9091
  608MOL0     H83883   2.354   3.622   5.689 -2.8990 -1.9206 -0.3660
  608MOL0     H83884   2.209   4.596   5.554  1.1004  0.5331 -0.5852
  608MOL0     H83885   2.368   4.747   5.533 -1.7651  0.4894  1.0250
  608MOL0     H83886   2.807   4.791   5.778 -2.9762 -0.8290 -1.8598
  608MOL0     H83887   3.039   4.850   5.782 -1.5499 -1.5386  0.2029
  608MOL0     H83888   3.721   5.277   4.288  2.0075 -0.0095 -1.4808
  608MOL0     H83889   3.541   5.333   4.144  0.4584 -0.1510 -0.3568
  608MOL0     H83890   3.222   5.480   3.994 -0.0488  3.1349  1.5292
  608MOL0     H83891   3.070   5.430   3.809  0.3561 -0.5044 -0.0407
  608MOL0     H83892   3.033   5.461   3.424 -0.4019  1.2785 -0.8652
  608MOL0     H83893   3.141   5.605   3.430  4.3667 -2.6471 -1.0700
  608MOL0     H83894   3.253   5.389   3.597  0.3120 -2.4015  0.0247
  608MOL0     H83895   3.330   5.488   3.476 -1.0468  0.5441 -3.4646
  608MOL0     H83896   3.314   5.240   3.386 -1.8689 -1.3529 -4.3842
  608MOL0     H83897   3.142   5.277   3.394 -0.8410 -0.2832  1.3767
  608MOL0     H83898   3.360   5.429   3.240  0.2369 -2.0034 -0.9954
  608MOL0     H83899   3.191   5.459   3.217  0.3029 -0.3832 -0.7707
  608MOL0     H83900   3.197   5.107   3.004 -0.0594 -0.3788  0.3934
  608MOL0     H83901   3.195   5.777   3.605  0.4204 -0.0591 -0.0520
  608MOL0     H83902   3.281   5.954   3.712  0.3639 -3.4217 -2.3772
  608MOL0     H83903   3.327   5.950   3.881  0.1766  0.1616  0.5703
  608MOL0     H83904   3.441   5.886   3.762 -0.1947  0.8913  0.8294
  609MOL0     O83905   5.281   0.621   0.269  0.2260 -0.4349 -0.5290
  609MOL0     C83906   5.274   0.507   0.316  0.4706  0.6334  0.7143
  609MOL0     O83907   5.159   0.432   0.314  0.0842  0.1831 -0.3334
  609MOL0     C83908   5.037   0.491   0.296  0.0926  0.2412 -0.3114
  609MOL0     C83909   4.967   0.516   0.413  0.0274 -0.5398 -0.1600
  609MOL0     C83910   4.836   0.566   0.408  0.5752 -0.3166 -0.4020
  609MOL0     C83911   4.770   0.571   0.286  0.1932  0.2008  0.1730
  609MOL0     O83912   4.634   0.601   0.267 -0.1762 -0.8895 -0.4781
  609MOL0     C83913   4.554   0.646   0.382 -0.0006  0.5156  0.1898
  609MOL0     C83914   4.419   0.718   0.340 -0.1211 -0.2928  0.1060
  609MOL0     C83915   4.329   0.646   0.237  0.4785 -0.4599  0.3248
  609MOL0     C83916   4.204   0.721   0.205  0.4426 -0.2917  0.5913
  609MOL0     C83917   4.098   0.623   0.142 -0.2488  0.4254  0.9700
  609MOL0     C83918   3.965   0.684   0.142  0.4714 -0.1572 -0.2920
  609MOL0     C83919   3.958   0.810   0.051 -0.1094 -0.1035  0.4517
  609MOL0     C83920   3.843   0.895   0.102  0.3358  0.2412  0.3396
  609MOL0     N83921   3.711   0.841   0.053  0.2497  0.1895 -0.7266
  609MOL0     C83922   3.608   0.809   0.131  0.2785 -0.3004  0.3132
  609MOL0     C83923   3.498   0.784   0.051 -0.8316  0.4529 -0.9385
  609MOL0     C83924   3.355   0.758   0.105 -1.5854  0.5006  0.0078
  609MOL0     C83925   3.253   0.753   0.003 -0.3036  0.0477  0.8357
  609MOL0     C83926   3.129   0.668   0.045 -0.1907 -0.0934 -0.2150
  609MOL0     C83927   3.043   0.633  -0.077 -0.4566 -0.1242 -0.0697
  609MOL0     O83928   2.979   0.742  -0.136 -0.2281 -0.4221  0.0011
  609MOL0     C83929   2.877   0.796  -0.067  0.2266 -0.8988 -0.2578
  609MOL0     C83930   2.749   0.771  -0.121 -0.4326 -0.5542 -0.6286
  609MOL0     C83931   2.634   0.820  -0.060 -0.3135 -0.9555  0.3934
  609MOL0     C83932   2.503   0.776  -0.116  0.3933 -0.3378 -0.2906
  609MOL0     C83933   2.636   0.910   0.046 -0.0983 -0.4113 -1.0569
  609MOL0     C83934   2.514   0.958   0.116  0.8800  0.1025 -0.3486
  609MOL0     O83935   2.424   1.023   0.032  0.2641  0.1537 -0.4140
  609MOL0     C83936   2.304   1.060   0.082  0.4552 -0.3218 -0.4368
  609MOL0     C83937   2.300   1.166   0.174  0.8942 -0.6774  0.1406
  609MOL0     C83938   2.176   1.202   0.235 -0.7568  0.6686 -0.3644
  609MOL0     C83939   2.061   1.139   0.201 -0.1669 -0.4461 -0.6976
  609MOL0     O83940   1.952   1.173   0.267 -0.3208 -0.3340 -0.2829
  609MOL0     C83941   1.962   1.243   0.400 -0.1488 -0.0693 -0.1642
  609MOL0     C83942   1.826   1.240   0.460 -0.3203  0.2011 -0.6103
  609MOL0     C83943   1.801   1.309   0.595  0.3768 -0.2275  0.0735
  609MOL0     C83944   1.669   1.275   0.664 -0.4245  0.5494  1.0388
  609MOL0     C83945   1.653   1.340   0.803  0.1237  0.3390 -0.3821
  609MOL0     C83946   1.520   1.301   0.873 -0.6294 -1.2632 -0.3960
  609MOL0     C83947   1.527   1.350   1.021 -0.0989 -0.2837 -0.5452
  609MOL0     C83948   1.395   1.306   1.101 -0.1718 -0.0983 -0.3668
  609MOL0    Cl83949   1.394   1.129   1.114 -0.2697  0.0038  0.0086
  609MOL0     C83950   2.069   1.036   0.107  0.2552 -1.1780 -0.8792
  609MOL0     C83951   2.186   1.002   0.040  0.9125  1.6115 -0.1073
  609MOL0     O83952   2.506   0.950   0.242 -0.5058 -0.5806  0.3504
  609MOL0     C83953   2.760   0.939   0.105 -0.4760  0.1007 -0.1470
  609MOL0     C83954   2.878   0.882   0.043 -0.1193 -0.3321 -0.3758
  609MOL0     N83955   3.533   0.798  -0.083 -1.2066 -0.5681 -0.3770
  609MOL0     N83956   3.664   0.831  -0.078  0.4956 -0.0481  1.3421
  609MOL0     C83957   4.840   0.534   0.172  0.1552 -0.4252 -0.2944
  609MOL0     C83958   4.974   0.502   0.174 -0.0219 -0.1583  0.5720
  609MOL0     C83959   5.405   0.455   0.378  0.1067  0.3488 -0.3704
  609MOL0     C83960   5.519   0.532   0.356  0.3124  0.3573  0.7642
  609MOL0     C83961   5.646   0.502   0.417  0.4331  0.0198 -0.0869
  609MOL0     C83962   5.651   0.397   0.502 -1.4124  0.6761 -0.1543
  609MOL0     O83963   5.770   0.373   0.566 -0.5545 -0.0865  0.2972
  609MOL0     C83964   5.807   0.233   0.581 -0.6083  0.2198 -0.4636
  609MOL0     C83965   5.956   0.222   0.599 -0.8912  0.4941 -0.7006
  609MOL0     C83966   6.017   0.079   0.596  0.5264 -0.1950  0.8590
  609MOL0     C83967   6.156   0.077   0.648 -0.0139  1.2129 -0.3035
  609MOL0     C83968   6.197  -0.066   0.642 -0.5937 -0.0029 -0.1664
  609MOL0     C83969   6.235  -0.178   0.617 -0.7150 -0.0869  0.6300
  609MOL0     C83970   5.538   0.316   0.518  0.1235  0.1405  0.1246
  609MOL0     C83971   5.419   0.339   0.454 -0.2463 -0.1384 -0.4142
  609MOL0     C83972   5.296   0.246   0.487  0.6577  0.2825 -0.4734
  609MOL0     H83973   5.018   0.502   0.508 -1.5713 -2.1696  0.5157
  609MOL0     H83974   4.790   0.591   0.503 -2.4626 -0.2987 -1.7745
  609MOL0     H83975   4.608   0.719   0.444 -0.4629  0.4940  0.6188
  609MOL0     H83976   4.530   0.560   0.444  0.3951 -0.4998 -1.0192
  609MOL0     H83977   4.363   0.716   0.434 -0.5804  3.7417  0.0784
  609MOL0     H83978   4.425   0.820   0.302 -5.6518 -1.7976 -6.9237
  609MOL0     H83979   4.386   0.644   0.144 -2.0689  1.1239 -1.3912
  609MOL0     H83980   4.309   0.544   0.270 -2.6743 -0.5597 -1.5115
  609MOL0     H83981   4.186   0.763   0.304 -0.8836 -1.5439  0.9009
  609MOL0     H83982   4.231   0.793   0.127 -0.0135 -0.9749 -0.2183
  609MOL0     H83983   4.087   0.527   0.194 -1.3453  0.8697  1.5758
  609MOL0     H83984   4.131   0.605   0.039  1.1498  2.8129  0.9437
  609MOL0     H83985   3.894   0.620   0.089  0.5684 -0.6146  0.1253
  609MOL0     H83986   3.930   0.695   0.245  3.1524  4.8860  0.4014
  609MOL0     H83987   3.928   0.789  -0.052 -1.4124  3.2164  0.0399
  609MOL0     H83988   4.048   0.872   0.044 -0.4743  0.2965 -1.3014
  609MOL0     H83989   3.849   0.891   0.212  1.2233 -2.0972  0.2743
  609MOL0     H83990   3.852   1.001   0.078 -1.6872  0.9672  2.3557
  609MOL0     H83991   3.605   0.808   0.239 -0.9520 -0.4079  0.3007
  609MOL0     H83992   3.334   0.841   0.173 -1.1295  0.8132 -0.2264
  609MOL0     H83993   3.362   0.670   0.169  0.0315  2.2490  2.4116
  609MOL0     H83994   3.221   0.855  -0.021  2.8445  0.6825 -1.3625
  609MOL0     H83995   3.302   0.707  -0.083 -2.0473 -0.5444  0.1237
  609MOL0     H83996   3.178   0.581   0.090 -0.4058 -0.0536  0.0998
  609MOL0     H83997   3.065   0.703   0.126  2.1995 -2.2336  2.8553
  609MOL0     H83998   3.113   0.589  -0.149  2.0683 -0.8485  2.5936
  609MOL0     H83999   2.963   0.562  -0.055 -1.9292  1.7272  0.7108
  609MOL0     H84000   2.732   0.710  -0.209 -0.7948  0.0300 -0.9734
  609MOL0     H84001   2.509   0.687  -0.179  0.3101  1.5414 -3.1347
  609MOL0     H84002   2.453   0.854  -0.175 -0.6376  2.1896  3.5569
  609MOL0     H84003   2.431   0.759  -0.035  0.1448  1.7288 -0.0173
  609MOL0     H84004   2.390   1.219   0.204 -0.3282  1.4659  0.2134
  609MOL0     H84005   2.181   1.296   0.288  3.4241  0.1663  0.4335
  609MOL0     H84006   2.035   1.190   0.463  0.7801  1.6442  0.2820
  609MOL0     H84007   1.988   1.349   0.387 -0.7640  0.0823 -0.1650
  609MOL0     H84008   1.759   1.278   0.382  0.5811 -1.3624 -2.2361
  609MOL0     H84009   1.796   1.135   0.473  0.2206 -0.0500 -1.2972
  609MOL0     H84010   1.803   1.418   0.585  0.3726  0.0008  2.0916
  609MOL0     H84011   1.870   1.281   0.676 -0.2722  2.2664  1.6196
  609MOL0     H84012   1.679   1.167   0.678  0.6440  0.5804  0.5648
  609MOL0     H84013   1.580   1.294   0.603  0.2536  0.1878 -0.0740
  609MOL0     H84014   1.728   1.308   0.876  0.3441 -2.4013 -1.6746
  609MOL0     H84015   1.657   1.447   0.781 -1.5650 -0.1116 -3.4036
  609MOL0     H84016   1.503   1.193   0.865  2.1366 -1.7093 -0.9786
  609MOL0     H84017   1.445   1.361   0.820 -1.0741 -1.5192 -0.0677
  609MOL0     H84018   1.546   1.456   1.038  2.8201 -0.7161 -0.7192
  609MOL0     H84019   1.612   1.296   1.063 -1.5954 -1.9084  0.5510
  609MOL0     H84020   1.303   1.329   1.047 -1.5744 -0.0811  1.9026
  609MOL0     H84021   1.401   1.355   1.198  1.1454  0.0478 -0.4961
  609MOL0     H84022   1.975   0.990   0.079 -1.9491  2.7028 -0.5245
  609MOL0     H84023   2.175   0.929  -0.040  1.7565  1.6656 -0.2926
  609MOL0     H84024   2.786   0.997   0.192  2.8465 -3.5112  1.5863
  609MOL0     H84025   2.973   0.906   0.090 -1.1871  3.3511  0.2071
  609MOL0     H84026   4.792   0.530   0.075  1.5538  0.4467 -1.0503
  609MOL0     H84027   5.021   0.473   0.081 -2.1578  0.5336 -0.7919
  609MOL0     H84028   5.515   0.616   0.287  1.3898 -0.5633 -0.4700
  609MOL0     H84029   5.737   0.551   0.385  0.0187  0.3314 -0.8261
  609MOL0     H84030   5.751   0.189   0.664 -0.0290  1.8383  0.8417
  609MOL0     H84031   5.781   0.177   0.491 -0.1823 -0.9901  0.1457
  609MOL0     H84032   5.981   0.279   0.688 -1.0063  1.4255 -1.2538
  609MOL0     H84033   6.004   0.267   0.511 -0.7852  1.0129 -0.3790
  609MOL0     H84034   5.955   0.016   0.662  0.6542 -0.5100  0.6790
  609MOL0     H84035   6.002   0.039   0.495 -0.8957  3.0635 -0.3549
  609MOL0     H84036   6.157   0.106   0.754  4.7536 -0.6271  0.4234
  609MOL0     H84037   6.226   0.145   0.599  0.5865 -0.5322 -1.9756
  609MOL0     H84038   6.273  -0.278   0.608  0.2422  0.3796 -1.1192
  609MOL0     H84039   5.544   0.230   0.584  0.5480 -0.1133 -0.2387
  609MOL0     H84040   5.327   0.167   0.555  0.8047  0.3451 -0.4667
  609MOL0     H84041   5.217   0.303   0.537 -1.0955 -1.7175 -0.8413
  609MOL0     H84042   5.262   0.204   0.392 -0.1600  0.3518 -0.2185
  610MOL0     O84043   8.424   8.257   9.571  0.1917  0.3127  0.1925
  610MOL0     C84044   8.441   8.144   9.539  0.2812 -0.4992  0.4891
  610MOL0     O84045   8.551   8.092   9.460 -0.6984 -0.6925  0.8584
  610MOL0     C84046   8.671   8.085   9.526 -0.4290 -0.1253  0.8465
  610MOL0     C84047   8.772   8.042   9.442 -0.5791 -0.4594 -0.0175
  610MOL0     C84048   8.905   8.020   9.484 -0.2006 -0.4852 -0.2490
  610MOL0     C84049   8.926   8.024   9.618 -0.4100 -0.8870  0.2090
  610MOL0     O84050   9.051   7.983   9.659  0.0457 -0.1829  0.4247
  610MOL0     C84051   9.093   7.997   9.797 -0.0851 -0.1399 -0.0024
  610MOL0     C84052   9.243   7.982   9.799 -0.5285 -0.8485  0.3433
  610MOL0     C84053   9.309   7.972   9.932 -0.4150  0.4483  0.2683
  610MOL0     C84054   9.458   7.950   9.920  0.1083  0.1975 -0.1888
  610MOL0     C84055   9.516   7.915  10.055 -0.2582 -0.1465  0.5701
  610MOL0     C84056   9.635   7.817  10.038 -0.3497 -0.5564  0.5991
  610MOL0     C84057   9.741   7.872   9.945 -0.0797  0.8829  0.3085
  610MOL0     C84058   9.840   7.759   9.920 -0.2279  0.4995 -0.1321
  610MOL0     N84059   9.927   7.795   9.806  0.6679  0.2105  0.1765
  610MOL0     C84060   9.934   7.705   9.696 -0.2433  0.5510 -0.3134
  610MOL0     C84061  10.043   7.741   9.633 -0.2433 -1.0200  0.7804
  610MOL0     C84062  10.098   7.664   9.516  0.4253 -0.3553  0.0607
  610MOL0     C84063  10.094   7.755   9.398 -0.0321 -0.5406 -0.4028
  610MOL0     C84064  10.096   7.693   9.260  0.3226 -0.4725 -0.8301
  610MOL0     C84065   9.963   7.694   9.180 -0.1479  0.1105  0.2697
  610MOL0     O84066   9.916   7.825   9.153 -0.1630 -0.3126 -0.3368
  610MOL0     C84067   9.801   7.845   9.085 -0.3083 -0.6986 -0.0999
  610MOL0     C84068   9.706   7.745   9.039 -0.6372  0.4992  0.2711
  610MOL0     C84069   9.591   7.791   8.964  0.2415 -0.4515  0.8925
  610MOL0     C84070   9.487   7.690   8.904 -0.7959  0.7282 -0.6607
  610MOL0     C84071   9.579   7.928   8.931 -1.0342  0.3196  0.4158
  610MOL0     C84072   9.466   7.982   8.860  0.6834  0.1362  0.8462
  610MOL0     O84073   9.340   7.935   8.886 -0.0218 -0.0547  0.1820
  610MOL0     C84074   9.225   7.959   8.815  0.8676  0.5570 -0.9951
  610MOL0     C84075   9.133   7.856   8.828  1.0544  0.9306  0.3881
  610MOL0     C84076   9.006   7.862   8.755  0.0090  0.4172 -0.3812
  610MOL0     C84077   8.979   7.967   8.670 -0.5333  0.0403 -0.0594
  610MOL0     O84078   8.861   7.987   8.606 -0.0261 -0.0090  0.1816
  610MOL0     C84079   8.736   7.932   8.651 -0.3819 -0.2330  0.0910
  610MOL0     C84080   8.657   7.898   8.518 -0.3209 -0.1849  0.3583
  610MOL0     C84081   8.711   7.783   8.431 -0.1957 -0.4307  0.7647
  610MOL0     C84082   8.673   7.802   8.281  0.9700 -0.2804 -0.0539
  610MOL0     C84083   8.528   7.758   8.251  0.4470 -0.0008 -0.2521
  610MOL0     C84084   8.506   7.746   8.104 -0.2392 -0.0511  0.2768
  610MOL0     C84085   8.368   7.696   8.063 -0.2021 -0.3733  0.1789
  610MOL0     C84086   8.309   7.762   7.937 -0.5409  0.1192  0.9828
  610MOL0    Cl84087   8.308   7.948   7.937 -0.5149  0.3522 -0.2774
  610MOL0     C84088   9.084   8.064   8.651  0.5169 -0.3266  1.0129
  610MOL0     C84089   9.208   8.053   8.712  0.2654 -0.2146  0.4360
  610MOL0     O84090   9.489   8.054   8.761 -0.7518 -0.1876 -0.1531
  610MOL0     C84091   9.684   8.012   8.958 -0.3025  0.5364 -0.2300
  610MOL0     C84092   9.800   7.971   9.031  0.4169  0.6686  0.1205
  610MOL0     N84093  10.085   7.862   9.678  0.1657 -0.6969 -0.1686
  610MOL0     N84094  10.006   7.895   9.776 -0.5565  0.1751  0.5112
  610MOL0     C84095   8.827   8.069   9.712 -0.1628  0.6138  0.5210
  610MOL0     C84096   8.702   8.105   9.659  0.5412  0.2767  0.9359
  610MOL0     C84097   8.333   8.043   9.556  0.7385 -1.1677 -0.4552
  610MOL0     C84098   8.330   7.940   9.459  0.0121 -0.9913 -0.0081
  610MOL0     C84099   8.250   7.822   9.475  0.6404  0.3576  0.3638
  610MOL0     C84100   8.155   7.829   9.578 -0.2813  0.3179  0.1369
  610MOL0     O84101   8.082   7.714   9.612  0.0930 -0.2874 -0.9751
  610MOL0     C84102   8.121   7.584   9.570  0.4301 -0.8919  0.7415
  610MOL0     C84103   8.007   7.479   9.589  0.0580  0.6045  0.0244
  610MOL0     C84104   7.882   7.486   9.492 -0.2616  0.2746  0.3287
  610MOL0     C84105   7.797   7.608   9.504  0.9659 -0.3637  0.3821
  610MOL0     C84106   7.697   7.612   9.400  0.8604 -0.0598  0.3812
  610MOL0     C84107   7.601   7.625   9.326 -0.6492  0.4260  0.2929
  610MOL0     C84108   8.139   7.943   9.653 -0.2369  0.8008 -0.8795
  610MOL0     C84109   8.234   8.047   9.654 -0.1385 -0.6725  0.1662
  610MOL0     C84110   8.215   8.149   9.758 -0.8681 -0.1285 -0.5510
  610MOL0     H84111   8.741   8.022   9.340 -2.8874 -0.3088  0.5897
  610MOL0     H84112   8.978   7.993   9.408  1.1063  1.2201  0.3120
  610MOL0     H84113   9.041   7.927   9.864 -0.9732 -0.0955 -0.6335
  610MOL0     H84114   9.066   8.096   9.834 -2.7514 -0.2142 -1.5125
  610MOL0     H84115   9.272   7.893   9.742 -1.2170 -2.1145  1.8643
  610MOL0     H84116   9.285   8.074   9.759 -1.4190 -1.0636 -1.1711
  610MOL0     H84117   9.301   8.060   9.997  1.5611  1.6638 -1.0291
  610MOL0     H84118   9.261   7.889   9.985 -0.2285 -0.9369 -1.6303
  610MOL0     H84119   9.479   7.874   9.844  1.6801  0.2200  0.1816
  610MOL0     H84120   9.505   8.045   9.891  0.5785  0.2611  0.7425
  610MOL0     H84121   9.446   7.868  10.125  0.3692 -1.5710  0.2555
  610MOL0     H84122   9.555   8.003  10.107 -2.0372  1.3553 -0.4847
  610MOL0     H84123   9.678   7.794  10.136 -1.5058 -2.7323  0.6366
  610MOL0     H84124   9.605   7.717  10.007  1.2601 -1.4525  1.7450
  610MOL0     H84125   9.799   7.954   9.988  1.7300 -1.6081  2.9770
  610MOL0     H84126   9.697   7.905   9.850 -0.2954 -1.6227 -0.5415
  610MOL0     H84127   9.899   7.743  10.011 -1.2551  0.9267  0.6401
  610MOL0     H84128   9.790   7.665   9.894  1.6461 -0.5838 -0.0028
  610MOL0     H84129   9.862   7.628   9.669  2.0614 -2.3554  1.1897
  610MOL0     H84130  10.029   7.582   9.498 -0.8448 -0.0190  2.7928
  610MOL0     H84131  10.201   7.635   9.541 -0.1695 -3.0429 -0.3439
  610MOL0     H84132  10.001   7.812   9.391 -0.8277 -1.7430  0.0633
  610MOL0     H84133  10.171   7.832   9.394 -1.1463  0.5857 -0.6622
  610MOL0     H84134  10.173   7.741   9.199  1.8540 -1.5235  0.1988
  610MOL0     H84135  10.127   7.588   9.263  1.2357 -0.2361 -1.4537
  610MOL0     H84136   9.980   7.641   9.086 -2.0225 -0.3036  0.1218
  610MOL0     H84137   9.881   7.637   9.225  0.2530 -1.6464 -1.1187
  610MOL0     H84138   9.733   7.641   9.056  2.6046  1.2189  0.1724
  610MOL0     H84139   9.436   7.711   8.809  0.0480 -1.1012 -1.5773
  610MOL0     H84140   9.413   7.682   8.984 -1.8069  1.4061 -1.4936
  610MOL0     H84141   9.538   7.594   8.893 -0.0432  1.1157 -0.6035
  610MOL0     H84142   9.149   7.768   8.890 -1.0640 -0.5852 -1.0565
  610MOL0     H84143   8.927   7.791   8.773 -0.2351  1.3723  2.8847
  610MOL0     H84144   8.736   7.837   8.705  1.7936  0.0577  0.6793
  610MOL0     H84145   8.686   8.016   8.701 -0.5524 -0.6987  0.7153
  610MOL0     H84146   8.555   7.872   8.548  0.0931  0.1743  2.1660
  610MOL0     H84147   8.649   7.993   8.465  4.5620  0.5997  0.5665
  610MOL0     H84148   8.673   7.687   8.466  3.5582 -2.5961 -0.4255
  610MOL0     H84149   8.820   7.786   8.447 -0.1511  2.4151  0.5383
  610MOL0     H84150   8.743   7.742   8.222  2.1209  0.8055  0.1515
  610MOL0     H84151   8.699   7.908   8.271 -0.9626  0.6817  3.3825
  610MOL0     H84152   8.500   7.658   8.287  2.2860 -1.4097 -2.4194
  610MOL0     H84153   8.455   7.828   8.293 -1.1513 -0.0669 -2.7551
  610MOL0     H84154   8.582   7.677   8.067  0.4606 -0.4766  2.3408
  610MOL0     H84155   8.518   7.847   8.066  1.2354  0.4162  1.8305
  610MOL0     H84156   8.288   7.705   8.137 -1.0258 -3.3327 -0.2418
  610MOL0     H84157   8.372   7.589   8.042 -0.2501 -0.3644  0.1233
  610MOL0     H84158   8.208   7.724   7.917 -0.0124 -0.8745  0.0970
  610MOL0     H84159   8.371   7.732   7.852 -0.4311  3.0189 -0.0839
  610MOL0     H84160   9.078   8.156   8.594 -1.5489 -0.1634  1.4312
  610MOL0     H84161   9.290   8.121   8.690  0.0199  0.2467  0.9173
  610MOL0     H84162   9.674   8.118   8.937 -0.7685  1.0268  2.1160
  610MOL0     H84163   9.881   8.040   9.053 -0.9300  1.7181  2.1563
  610MOL0     H84164   8.853   8.086   9.816 -2.0893 -0.4256  1.2303
  610MOL0     H84165   8.623   8.143   9.723 -0.3143 -0.7262  0.4947
  610MOL0     H84166   8.407   7.928   9.384 -0.6324  0.4789 -0.9603
  610MOL0     H84167   8.268   7.735   9.412  3.9440  0.2736  1.2797
  610MOL0     H84168   8.123   7.598   9.462 -3.6013 -1.0268  0.5298
  610MOL0     H84169   8.222   7.558   9.604  1.7266 -0.3179 -2.3652
  610MOL0     H84170   7.973   7.467   9.693 -1.4816 -0.8044 -0.5882
  610MOL0     H84171   8.049   7.381   9.564  0.3351  0.7893 -0.2348
  610MOL0     H84172   7.924   7.480   9.391  1.4976  0.4817  0.9997
  610MOL0     H84173   7.814   7.404   9.515  0.3262 -0.2901  0.0863
  610MOL0     H84174   7.862   7.694   9.484  2.2913 -1.6322 -0.9849
  610MOL0     H84175   7.756   7.615   9.605  1.0236  0.3172  0.3668
  610MOL0     H84176   7.508   7.658   9.286 -0.1668  1.2634 -0.1800
  610MOL0     H84177   8.057   7.939   9.724 -1.6959 -0.6213 -2.5653
  610MOL0     H84178   8.111   8.170   9.783 -0.3856  0.2881  1.2242
  610MOL0     H84179   8.259   8.109   9.850 -0.9293  1.4617  0.2082
  610MOL0     H84180   8.269   8.242   9.737 -0.2011 -0.7656 -1.8181
  611MOL0     O84181   3.267   6.136  11.382  0.3502  0.2342  0.1936
  611MOL0     C84182   3.181   6.176  11.467 -0.7588  0.6667  0.4788
  611MOL0     O84183   3.220   6.232  11.583 -1.0980  1.0493 -0.1996
  611MOL0     C84184   3.352   6.235  11.613 -0.2393 -0.3274 -0.2196
  611MOL0     C84185   3.418   6.357  11.571 -0.3336  0.0065 -1.2825
  611MOL0     C84186   3.561   6.356  11.603  0.4894 -0.1495  0.9077
  611MOL0     C84187   3.631   6.245  11.648  0.4519 -0.4380 -0.1016
  611MOL0     O84188   3.769   6.247  11.673  0.3878  0.0525  0.4139
  611MOL0     C84189   3.842   6.367  11.690  0.2305 -0.2808  0.8515
  611MOL0     C84190   3.975   6.355  11.749 -0.2789  0.5695  0.1855
  611MOL0     C84191   4.056   6.251  11.667  0.4841  0.4825  0.2127
  611MOL0     C84192   4.205   6.246  11.694  1.4695  0.9140  0.1927
  611MOL0     C84193   4.293   6.158  11.598  0.2913  0.2074  0.3169
  611MOL0     C84194   4.261   6.008  11.611  0.5881  0.5924 -0.9253
  611MOL0     C84195   4.341   5.919  11.508  0.7143 -0.4604 -0.7585
  611MOL0     C84196   4.483   5.892  11.544 -0.6497 -0.1434  0.4686
  611MOL0     N84197   4.498   5.784  11.643 -0.6410 -0.4597  0.0985
  611MOL0     C84198   4.460   5.768  11.779 -0.7831 -0.0815  0.4678
  611MOL0     C84199   4.505   5.650  11.814  0.0533 -0.1045  0.8211
  611MOL0     C84200   4.495   5.577  11.937  0.0762 -0.0091 -1.0362
  611MOL0     C84201   4.353   5.557  11.989 -0.0643  0.6925 -0.6219
  611MOL0     C84202   4.365   5.494  12.133  0.4117 -0.7816  0.1626
  611MOL0     C84203   4.242   5.431  12.177  0.2471  0.8743  0.0759
  611MOL0     O84204   4.122   5.513  12.151  0.4176  0.7869 -0.4735
  611MOL0     C84205   4.001   5.478  12.206 -0.4151 -0.3371  0.3061
  611MOL0     C84206   3.887   5.559  12.182  0.4617 -0.9772  0.8876
  611MOL0     C84207   3.755   5.528  12.241 -0.3559  0.9240 -0.6576
  611MOL0     C84208   3.637   5.629  12.221  0.3668 -0.4222 -0.0313
  611MOL0     C84209   3.734   5.403  12.307  0.1612 -0.3071  0.0918
  611MOL0     C84210   3.605   5.365  12.378 -0.1210  0.2676 -0.5691
  611MOL0     O84211   3.538   5.470  12.437 -0.8398  0.5733 -0.4165
  611MOL0     C84212   3.419   5.474  12.503  0.7634 -0.3561  1.0979
  611MOL0     C84213   3.350   5.591  12.499 -0.1978  0.2144  1.1381
  611MOL0     C84214   3.216   5.597  12.542 -0.0111 -0.2547 -0.4638
  611MOL0     C84215   3.150   5.480  12.604 -0.0645  0.5987  0.1334
  611MOL0     O84216   3.019   5.473  12.640 -0.2560  0.6169  0.5852
  611MOL0     C84217   2.919   5.568  12.621 -0.3567 -0.3266  0.8712
  611MOL0     C84218   2.780   5.500  12.617  0.0073  0.3933 -0.3387
  611MOL0     C84219   2.732   5.443  12.754 -0.1474 -0.0445  0.0293
  611MOL0     C84220   2.620   5.327  12.750 -0.1868  0.1411 -0.3441
  611MOL0     C84221   2.498   5.367  12.674  0.0314 -0.0007  0.4795
  611MOL0     C84222   2.379   5.290  12.726 -0.9265 -0.9297  0.1108
  611MOL0     C84223   2.245   5.337  12.663  0.3333 -0.2524  0.3931
  611MOL0     C84224   2.205   5.484  12.702 -0.2275 -0.5280 -0.0685
  611MOL0    Cl84225   2.022   5.489  12.678 -0.4328 -0.3793 -0.2033
  611MOL0     C84226   3.229   5.363  12.615  0.2785 -0.0767  0.1120
  611MOL0     C84227   3.361   5.358  12.555  0.3700  0.2463  0.0751
  611MOL0     O84228   3.570   5.244  12.372  0.1749  0.2819  0.3416
  611MOL0     C84229   3.848   5.324  12.325 -0.1798 -0.8386  0.5103
  611MOL0     C84230   3.978   5.360  12.272 -0.6561 -0.0983 -0.8433
  611MOL0     N84231   4.566   5.588  11.707  0.1468 -0.1999 -0.3442
  611MOL0     N84232   4.554   5.668  11.604 -0.4783 -0.7570 -0.0612
  611MOL0     C84233   3.558   6.132  11.679 -0.1906  0.0588 -0.5960
  611MOL0     C84234   3.421   6.122  11.663 -0.1237  0.3084  0.7862
  611MOL0     C84235   3.037   6.146  11.450 -0.7409 -0.4911  0.6366
  611MOL0     C84236   2.948   6.233  11.519 -0.5540  1.0800 -0.3553
  611MOL0     C84237   2.812   6.222  11.504 -0.9655  0.0705 -0.0423
  611MOL0     C84238   2.763   6.125  11.419  0.6597  0.6671  0.9038
  611MOL0     O84239   2.624   6.123  11.426 -0.3785  0.3312 -0.2533
  611MOL0     C84240   2.542   6.009  11.379  0.0457 -0.2527  0.4972
  611MOL0     C84241   2.405   6.026  11.448  0.4432  0.2260  0.7180
  611MOL0     C84242   2.308   5.926  11.388  0.1393 -0.5004 -0.7172
  611MOL0     C84243   2.200   5.886  11.486 -1.1392  0.5202  0.5285
  611MOL0     C84244   2.116   5.778  11.424 -0.0447  0.1969 -0.4064
  611MOL0     C84245   2.052   5.714  11.357  0.0812 -0.2045 -0.1836
  611MOL0     C84246   2.843   6.042  11.340  0.0668  0.1905  0.0160
  611MOL0     C84247   2.979   6.050  11.353 -0.4684 -0.5716 -0.1625
  611MOL0     C84248   3.062   5.948  11.281  1.0802  0.2390  0.2599
  611MOL0     H84249   3.363   6.446  11.540 -2.3988  0.2913  2.5269
  611MOL0     H84250   3.609   6.453  11.596  0.8855 -0.2420  2.2022
  611MOL0     H84251   3.784   6.427  11.761  0.0156  1.9901 -1.1120
  611MOL0     H84252   3.851   6.428  11.600 -2.6612 -1.6078 -0.4841
  611MOL0     H84253   4.021   6.454  11.753  1.3194 -0.1457  0.4710
  611MOL0     H84254   3.963   6.321  11.853  0.9222 -2.3507 -0.5096
  611MOL0     H84255   4.011   6.152  11.663  0.8755  0.2844  0.5686
  611MOL0     H84256   4.061   6.286  11.564 -0.0217 -0.0688 -0.0042
  611MOL0     H84257   4.237   6.349  11.680  0.6740  1.2921  1.0502
  611MOL0     H84258   4.222   6.225  11.800  1.1403  2.4890  0.5793
  611MOL0     H84259   4.396   6.171  11.633  0.2173  2.0627 -0.0720
  611MOL0     H84260   4.274   6.194  11.497 -1.0981  1.0786  0.8602
  611MOL0     H84261   4.286   5.981  11.714 -0.4348  1.4337 -0.4369
  611MOL0     H84262   4.155   5.986  11.596  0.7810 -0.2089 -1.1963
  611MOL0     H84263   4.334   5.978  11.416  2.7290  1.4183  0.1989
  611MOL0     H84264   4.288   5.824  11.496 -0.0184 -0.1238 -0.2430
  611MOL0     H84265   4.541   5.880  11.452 -1.6109  2.3742 -0.5654
  611MOL0     H84266   4.526   5.979  11.593  1.1560 -0.6259 -0.1871
  611MOL0     H84267   4.409   5.833  11.849 -2.2334 -0.5744 -0.0955
  611MOL0     H84268   4.548   5.630  12.016 -0.1623 -1.4112  0.0935
  611MOL0     H84269   4.558   5.488  11.937  0.7690  0.4625 -0.1165
  611MOL0     H84270   4.301   5.652  12.003  0.5493  0.8929  0.3921
  611MOL0     H84271   4.298   5.492  11.922  0.7004 -0.3628 -0.2555
  611MOL0     H84272   4.449   5.426  12.148  0.1851 -1.0228  0.3399
  611MOL0     H84273   4.395   5.579  12.196 -1.0547 -1.2969  1.6325
  611MOL0     H84274   4.234   5.347  12.108 -4.9190 -0.6545  2.1351
  611MOL0     H84275   4.250   5.392  12.279  0.8119  0.6809 -0.0390
  611MOL0     H84276   3.896   5.645  12.118 -0.4291  0.0315  2.0769
  611MOL0     H84277   3.666   5.705  12.147 -2.2210  1.4573  0.7533
  611MOL0     H84278   3.617   5.689  12.310  1.5665  1.2431 -0.8146
  611MOL0     H84279   3.546   5.580  12.188 -1.4711  2.7940 -0.1887
  611MOL0     H84280   3.378   5.679  12.442 -0.2991  0.0473  0.8239
  611MOL0     H84281   3.163   5.689  12.519 -2.2865 -2.0240 -3.1585
  611MOL0     H84282   2.931   5.642  12.701 -3.3024 -0.0557  1.1586
  611MOL0     H84283   2.932   5.628  12.530 -2.4306 -1.6719 -0.3936
  611MOL0     H84284   2.712   5.581  12.587 -1.3755 -0.9087 -0.8189
  611MOL0     H84285   2.791   5.426  12.537  2.8158  3.8615 -3.5746
  611MOL0     H84286   2.708   5.524  12.824  0.6213 -2.0882  2.8178
  611MOL0     H84287   2.818   5.392  12.799 -0.8471 -1.2796 -0.0012
  611MOL0     H84288   2.594   5.298  12.853 -2.1014 -0.2241 -0.8844
  611MOL0     H84289   2.657   5.234  12.705  1.3044  0.0035  1.0643
  611MOL0     H84290   2.494   5.476  12.686 -0.4353 -0.0145  0.4823
  611MOL0     H84291   2.508   5.345  12.568 -0.9462 -0.2905  0.4315
  611MOL0     H84292   2.371   5.296  12.835 -2.1023 -1.7934  0.0906
  611MOL0     H84293   2.378   5.186  12.691 -0.8667 -0.8136 -0.2396
  611MOL0     H84294   2.172   5.270  12.710 -1.9509  1.2969 -0.7710
  611MOL0     H84295   2.240   5.316  12.556 -0.4118  1.1252  0.1267
  611MOL0     H84296   2.252   5.544  12.624  0.3920  0.8738  1.3324
  611MOL0     H84297   2.245   5.506  12.802  0.7187 -1.0096 -0.3264
  611MOL0     H84298   3.174   5.278  12.655 -2.2682  1.4374  0.0573
  611MOL0     H84299   3.418   5.266  12.560 -1.1861 -0.7983 -0.5140
  611MOL0     H84300   3.841   5.231  12.379  0.9557 -1.8680 -1.0242
  611MOL0     H84301   4.058   5.288  12.282 -2.0944 -1.5148  1.2223
  611MOL0     H84302   3.603   6.042  11.719 -1.0694 -0.0438  0.1765
  611MOL0     H84303   3.371   6.028  11.684  1.8896 -1.1650 -0.5711
  611MOL0     H84304   2.990   6.290  11.601 -1.5846  0.3979  0.6712
  611MOL0     H84305   2.759   6.278  11.581  1.6872  3.1173 -0.2412
  611MOL0     H84306   2.529   6.022  11.271 -1.6638  1.4388  0.8431
  611MOL0     H84307   2.585   5.912  11.405 -0.3938 -0.3655  0.8146
  611MOL0     H84308   2.385   6.130  11.423 -1.1825 -0.0570  0.7363
  611MOL0     H84309   2.417   6.021  11.556 -1.2559  0.5826  0.9540
  611MOL0     H84310   2.253   5.966  11.302 -1.1222 -0.1331  0.2394
  611MOL0     H84311   2.351   5.836  11.343 -0.7716 -0.2340 -2.1851
  611MOL0     H84312   2.143   5.977  11.507  0.4804  2.1687 -1.6834
  611MOL0     H84313   2.236   5.847  11.581  1.0982 -0.3644 -0.6046
  611MOL0     H84314   1.990   5.649  11.298 -1.8257  0.3613  1.0882
  611MOL0     H84315   2.799   5.960  11.285 -2.4004 -0.1156  2.2586
  611MOL0     H84316   3.115   5.891  11.359 -0.7873 -2.0793 -0.0631
  611MOL0     H84317   3.001   5.878  11.223 -2.6039  2.0990  1.6080
  611MOL0     H84318   3.125   6.003  11.211  2.6979 -2.7009 -0.7860
  612MOL0     O84319   0.407   5.289   5.222  0.8828 -0.2076  0.7769
  612MOL0     C84320   0.331   5.200   5.178  0.2708  0.6569  0.3343
  612MOL0     O84321   0.234   5.134   5.251  0.4238 -0.1748 -0.3570
  612MOL0     C84322   0.204   5.188   5.374 -0.7588  0.3207  0.2357
  612MOL0     C84323   0.097   5.276   5.386  0.8245  0.1583  0.5618
  612MOL0     C84324   0.052   5.324   5.509 -0.4452  0.4141  0.3516
  612MOL0     C84325   0.135   5.299   5.623 -0.1149 -0.1500 -0.8599
  612MOL0     O84326   0.090   5.358   5.745 -0.0534 -0.3003 -0.1958
  612MOL0     C84327   0.120   5.282   5.862  0.1773  0.3740  0.5191
  612MOL0     C84328   0.034   5.330   5.974  0.1497  0.8924 -0.0324
  612MOL0     C84329   0.082   5.256   6.105  0.2567 -1.3911 -1.2712
  612MOL0     C84330   0.030   5.329   6.234  0.6137  0.6028 -0.0325
  612MOL0     C84331   0.066   5.252   6.360  0.1842  0.4038  0.2680
  612MOL0     C84332   0.018   5.305   6.493  0.3096 -0.1059 -0.7042
  612MOL0     C84333   0.028   5.194   6.609 -0.1472  0.0182  0.4737
  612MOL0     C84334   0.175   5.175   6.665 -0.3252  0.4016  0.4321
  612MOL0     N84335   0.267   5.120   6.570  0.2482 -0.6852  0.0458
  612MOL0     C84336   0.239   5.019   6.480  0.1124 -0.4064  0.2754
  612MOL0     C84337   0.346   5.017   6.388  0.2011 -0.1982 -0.2519
  612MOL0     C84338   0.348   4.950   6.248 -0.2753 -0.3947  0.2054
  612MOL0     C84339   0.320   4.801   6.260 -0.6909  0.3996 -0.5541
  612MOL0     C84340   0.436   4.710   6.309  0.1858  0.1274  0.5527
  612MOL0     C84341   0.406   4.561   6.304  0.4550 -0.6818  0.9697
  612MOL0     O84342   0.376   4.537   6.162 -0.3722 -0.0030  0.2050
  612MOL0     C84343   0.416   4.409   6.127 -0.4181 -0.4204 -0.3134
  612MOL0     C84344   0.324   4.308   6.140  0.6953 -0.0180 -0.7608
  612MOL0     C84345   0.357   4.177   6.091 -0.5775 -0.5043  0.6715
  612MOL0     C84346   0.262   4.068   6.137  0.6313 -0.0103 -0.0161
  612MOL0     C84347   0.481   4.163   6.016 -0.0140  0.5891  0.1604
  612MOL0     C84348   0.507   4.045   5.927  0.3134 -0.5391 -0.6911
  612MOL0     O84349   0.630   4.043   5.870  0.0964 -1.0493 -0.0597
  612MOL0     C84350   0.648   3.949   5.772 -0.2737 -0.0146 -0.1010
  612MOL0     C84351   0.720   3.831   5.798 -0.3413  0.6976  0.7911
  612MOL0     C84352   0.745   3.735   5.702  0.7789 -1.2546  0.2606
  612MOL0     C84353   0.711   3.766   5.574 -0.3885 -0.1205  0.5725
  612MOL0     O84354   0.749   3.692   5.460  0.2975  0.4521  0.6073
  612MOL0     C84355   0.874   3.615   5.466  1.0565 -0.0887 -0.3111
  612MOL0     C84356   0.922   3.563   5.327 -0.2941 -0.0206  1.4701
  612MOL0     C84357   0.968   3.680   5.228  1.1981  0.3397 -0.2622
  612MOL0     C84358   1.011   3.635   5.090 -0.3809  0.5037 -0.9384
  612MOL0     C84359   1.030   3.747   4.991  0.3152 -0.2508 -0.5766
  612MOL0     C84360   1.097   3.689   4.870 -0.7300  0.5619 -0.6062
  612MOL0     C84361   1.012   3.592   4.799  0.3880 -0.1909  0.4261
  612MOL0     C84362   1.063   3.568   4.656 -0.1239 -0.3621 -0.2923
  612MOL0    Cl84363   1.203   3.465   4.651 -0.0204 -0.8207  0.1671
  612MOL0     C84364   0.635   3.878   5.546  0.1610  0.3785  0.4916
  612MOL0     C84365   0.603   3.967   5.640  1.2109 -0.3596 -0.2633
  612MOL0     O84366   0.428   3.954   5.922  0.0818  0.9136  0.0891
  612MOL0     C84367   0.577   4.269   6.020  0.3958  0.0840  0.1235
  612MOL0     C84368   0.549   4.391   6.071 -0.6123 -0.0526  0.9011
  612MOL0     N84369   0.442   5.098   6.449  0.0611 -0.5607  0.3624
  612MOL0     N84370   0.398   5.160   6.557  0.8235  0.3932  0.0411
  612MOL0     C84371   0.249   5.215   5.605  0.2646  0.2343 -0.5939
  612MOL0     C84372   0.281   5.162   5.484 -0.5044 -0.3965  0.3742
  612MOL0     C84373   0.345   5.159   5.036 -0.4045  0.8602  0.1640
  612MOL0     C84374   0.313   5.029   5.003 -0.5304 -0.1979  1.0514
  612MOL0     C84375   0.303   4.983   4.871 -0.7037 -1.2632  0.2551
  612MOL0     C84376   0.339   5.072   4.762  0.1908  0.1369 -0.3078
  612MOL0     O84377   0.338   5.053   4.629 -0.0966 -0.4061 -0.5860
  612MOL0     C84378   0.270   4.934   4.579 -0.5976 -0.3035 -0.2435
  612MOL0     C84379   0.284   4.927   4.425  0.3369  0.5587 -0.4266
  612MOL0     C84380   0.432   4.941   4.378  0.1397 -0.6605  0.0072
  612MOL0     C84381   0.438   4.923   4.221  0.1524  0.1131 -0.2194
  612MOL0     C84382   0.576   4.916   4.180 -0.5243  0.0438 -0.7927
  612MOL0     C84383   0.687   4.910   4.136  0.4143 -0.6748  0.2959
  612MOL0     C84384   0.379   5.203   4.805 -0.0627  0.0292  0.1006
  612MOL0     C84385   0.389   5.252   4.936 -0.2824  0.0467  0.3597
  612MOL0     C84386   0.442   5.397   4.951 -0.6235  0.1652  0.2953
  612MOL0     H84387   0.059   5.315   5.292 -0.7955  0.6641  1.3927
  612MOL0     H84388  -0.030   5.395   5.509  1.4838  2.7566  0.0403
  612MOL0     H84389   0.227   5.304   5.870 -0.1065  1.7193  0.8163
  612MOL0     H84390   0.095   5.176   5.851 -0.7139  0.5667  0.6727
  612MOL0     H84391   0.055   5.436   5.985  5.5513 -0.0980  1.8317
  612MOL0     H84392  -0.069   5.312   5.941 -0.5229  3.8368  0.1832
  612MOL0     H84393   0.064   5.148   6.114 -1.5298 -0.9932  0.6068
  612MOL0     H84394   0.191   5.257   6.101  0.5200 -2.5107  2.1881
  612MOL0     H84395   0.078   5.427   6.227 -1.4988  1.6034 -2.1484
  612MOL0     H84396  -0.078   5.342   6.223  0.5867 -1.1885 -2.9034
  612MOL0     H84397   0.175   5.250   6.366  0.4815 -3.0451 -2.5374
  612MOL0     H84398   0.035   5.147   6.354  0.2802  0.2609  1.8296
  612MOL0     H84399   0.088   5.385   6.519  0.7281 -1.3095  2.2113
  612MOL0     H84400  -0.080   5.354   6.494  0.8148  0.9144  0.2950
  612MOL0     H84401  -0.018   5.099   6.583 -0.4681  0.1535  0.5421
  612MOL0     H84402  -0.029   5.226   6.696 -0.1311  1.4510 -0.0154
  612MOL0     H84403   0.216   5.273   6.689 -2.4347  1.3213  0.4104
  612MOL0     H84404   0.184   5.104   6.748  1.8100 -0.8151 -0.7395
  612MOL0     H84405   0.146   4.963   6.475 -1.3027  1.8921 -0.7977
  612MOL0     H84406   0.442   4.966   6.194 -0.2526 -4.5698 -1.3678
  612MOL0     H84407   0.274   5.011   6.196  0.6902  0.9834  0.3861
  612MOL0     H84408   0.237   4.788   6.330  0.1688  2.7129  1.0022
  612MOL0     H84409   0.298   4.762   6.160  3.0349 -0.0910 -1.3298
  612MOL0     H84410   0.522   4.738   6.248 -0.5221  0.9074 -0.1228
  612MOL0     H84411   0.461   4.732   6.413  0.4607 -0.0337  0.5204
  612MOL0     H84412   0.489   4.505   6.348  1.5053 -0.4053 -0.5962
  612MOL0     H84413   0.312   4.531   6.350 -2.5468  0.3186 -3.8199
  612MOL0     H84414   0.225   4.315   6.184  0.9197 -2.1773  0.2547
  612MOL0     H84415   0.189   4.122   6.198  2.4531 -0.0827  2.3374
  612MOL0     H84416   0.316   3.999   6.202 -0.9758 -3.1481 -1.7188
  612MOL0     H84417   0.215   4.002   6.063 -0.5578  1.3368 -0.5055
  612MOL0     H84418   0.746   3.790   5.895  3.3924  0.7581 -0.0256
  612MOL0     H84419   0.796   3.640   5.719 -3.0337 -3.2348  1.8632
  612MOL0     H84420   0.949   3.681   5.509  0.0585  0.7224  0.2385
  612MOL0     H84421   0.872   3.527   5.530  0.6631 -0.2920 -0.5958
  612MOL0     H84422   1.006   3.496   5.347  1.3947  0.6115 -2.5286
  612MOL0     H84423   0.856   3.501   5.267  3.7498 -0.1963 -3.4011
  612MOL0     H84424   1.046   3.734   5.283  1.8885 -2.6299  1.9572
  612MOL0     H84425   0.885   3.750   5.217  0.1452 -1.2098 -5.2161
  612MOL0     H84426   0.944   3.556   5.056  0.7774 -0.5051 -0.9679
  612MOL0     H84427   1.107   3.583   5.097  0.1365  1.2439 -2.2324
  612MOL0     H84428   0.935   3.793   4.966 -0.2396  0.6714  2.7208
  612MOL0     H84429   1.091   3.823   5.041  0.9370 -0.4080 -1.0814
  612MOL0     H84430   1.186   3.634   4.903 -1.0456 -0.1341 -0.8855
  612MOL0     H84431   1.125   3.770   4.802  0.4660 -0.6481 -1.6161
  612MOL0     H84432   0.907   3.618   4.784  0.3245 -1.2471 -1.2316
  612MOL0     H84433   1.019   3.495   4.848 -1.2518 -0.0694  0.9511
  612MOL0     H84434   1.092   3.664   4.613  1.2745 -1.7150 -2.5200
  612MOL0     H84435   0.992   3.519   4.589 -0.1019 -0.2317 -0.4100
  612MOL0     H84436   0.617   3.891   5.440  2.9543  0.5123 -0.0374
  612MOL0     H84437   0.556   4.062   5.618  1.6988 -0.2474 -0.8309
  612MOL0     H84438   0.669   4.255   5.965 -0.5918 -1.8944 -1.1609
  612MOL0     H84439   0.625   4.467   6.056  0.5216 -1.0000  1.6584
  612MOL0     H84440   0.313   5.190   5.689 -1.9043  1.0871  1.4543
  612MOL0     H84441   0.367   5.097   5.469  0.5496  0.7755  1.1663
  612MOL0     H84442   0.300   4.950   5.077 -1.5725 -0.6971  0.3628
  612MOL0     H84443   0.252   4.891   4.842 -0.7782 -0.9023 -0.8002
  612MOL0     H84444   0.321   4.844   4.616 -0.6836  0.3371  1.5173
  612MOL0     H84445   0.169   4.928   4.621 -1.1928  3.1442 -0.9315
  612MOL0     H84446   0.223   5.011   4.391  0.5435  1.1862  0.6876
  612MOL0     H84447   0.232   4.841   4.380  2.9224  1.4562 -5.7823
  612MOL0     H84448   0.467   5.041   4.405 -1.2749  0.0247 -0.5967
  612MOL0     H84449   0.494   4.870   4.432  0.5361 -0.9998 -0.8718
  612MOL0     H84450   0.392   5.011   4.175  0.4818 -0.2059 -1.1700
  612MOL0     H84451   0.381   4.833   4.198  0.9139 -0.7363  1.0597
  612MOL0     H84452   0.786   4.906   4.095  1.4515  0.1224  2.5312
  612MOL0     H84453   0.408   5.268   4.723  2.2710  0.7700  1.4256
  612MOL0     H84454   0.383   5.450   5.026 -0.9866 -0.9831  0.8507
  612MOL0     H84455   0.548   5.382   4.974 -0.7962  0.1046  1.0765
  612MOL0     H84456   0.428   5.448   4.855 -1.1602 -1.3210 -0.4508
  613MOL0     O84457   2.018   7.695   3.206 -0.0838  1.0522  0.2130
  613MOL0     C84458   2.124   7.744   3.244 -0.0925 -1.1438  0.2508
  613MOL0     O84459   2.131   7.812   3.363 -0.0788  0.4592 -0.0694
  613MOL0     C84460   2.037   7.806   3.462  0.3790  0.0370 -0.5076
  613MOL0     C84461   2.047   7.910   3.556 -0.0131 -0.4585  0.1527
  613MOL0     C84462   1.965   7.927   3.671 -0.3227  0.4733  0.8306
  613MOL0     C84463   1.864   7.829   3.690  0.5314 -0.0792 -0.1016
  613MOL0     O84464   1.770   7.830   3.791 -0.0897 -0.4823 -0.0355
  613MOL0     C84465   1.646   7.894   3.757 -0.3914 -0.5691  0.3118
  613MOL0     C84466   1.654   8.044   3.790  0.1602 -0.0587  0.4183
  613MOL0     C84467   1.678   8.078   3.942  0.2521  0.1013  0.2291
  613MOL0     C84468   1.824   8.092   3.970 -0.2593  0.3895 -0.7263
  613MOL0     C84469   1.857   8.132   4.117  0.1742 -0.4731  0.2861
  613MOL0     C84470   2.000   8.170   4.147  0.0756 -0.1313  0.8432
  613MOL0     C84471   2.008   8.260   4.272 -0.3570 -0.1204 -0.4854
  613MOL0     C84472   2.038   8.183   4.411  0.2143  0.5213  0.5934
  613MOL0     N84473   2.167   8.111   4.407  1.0827  0.6242  1.0820
  613MOL0     C84474   2.287   8.175   4.392 -0.7991 -0.2411  0.2814
  613MOL0     C84475   2.376   8.079   4.424 -0.1516  0.8810  0.0038
  613MOL0     C84476   2.519   8.097   4.452 -0.0698  0.5204 -0.6790
  613MOL0     C84477   2.610   8.069   4.333 -0.1135  0.5837  0.5011
  613MOL0     C84478   2.600   8.179   4.229  0.1718  0.4356 -0.4348
  613MOL0     C84479   2.714   8.164   4.147 -0.2831 -0.0214  0.5643
  613MOL0     O84480   2.704   8.249   4.032 -0.3437 -0.4772 -0.2549
  613MOL0     C84481   2.790   8.359   4.038  0.3966 -0.2472 -0.0842
  613MOL0     C84482   2.741   8.488   4.010 -0.4899 -1.1524 -0.7417
  613MOL0     C84483   2.830   8.604   3.994 -0.7769 -0.1191 -0.2423
  613MOL0     C84484   2.775   8.731   3.939  0.4163  0.4396 -0.5705
  613MOL0     C84485   2.970   8.585   4.032  0.9564 -1.7034 -0.0224
  613MOL0     C84486   3.076   8.689   4.022  0.2788 -0.0543 -1.2153
  613MOL0     O84487   3.198   8.676   4.093 -0.1449 -0.3503  0.0088
  613MOL0     C84488   3.298   8.774   4.086 -0.4745  0.0733  0.5425
  613MOL0     C84489   3.419   8.748   4.014 -0.2697  0.1760  0.1641
  613MOL0     C84490   3.520   8.837   4.016  0.1573  0.2025  0.0657
  613MOL0     C84491   3.509   8.957   4.096 -0.0895  0.4654  0.3339
  613MOL0     O84492   3.603   9.051   4.099 -0.1092 -1.6303 -0.5960
  613MOL0     C84493   3.712   9.043   4.008  0.2593 -0.8713 -0.2229
  613MOL0     C84494   3.779   9.183   4.023 -0.3324 -0.4605  0.5035
  613MOL0     C84495   3.903   9.194   3.933  0.2173 -0.0428 -0.5728
  613MOL0     C84496   3.940   9.341   3.927 -0.1288 -0.7847  0.4727
  613MOL0     C84497   4.091   9.383   3.906  1.2946  0.9863 -0.4851
  613MOL0     C84498   4.088   9.529   3.883 -0.8055  0.6421  0.2717
  613MOL0     C84499   4.222   9.568   3.819  0.1481 -0.2748 -0.3093
  613MOL0     C84500   4.253   9.718   3.839 -0.4744 -0.0529 -0.2643
  613MOL0    Cl84501   4.158   9.827   3.736 -0.4860 -0.5615 -0.0087
  613MOL0     C84502   3.391   8.970   4.170 -0.1487 -0.0971 -0.5680
  613MOL0     C84503   3.287   8.882   4.160  0.8768  0.3823 -0.2540
  613MOL0     O84504   3.055   8.781   3.948 -0.2395  0.2920  0.9068
  613MOL0     C84505   3.016   8.460   4.067 -0.3676  0.6638  0.2606
  613MOL0     C84506   2.930   8.347   4.054  0.8127 -0.7991  0.3657
  613MOL0     N84507   2.320   7.952   4.438  0.4162 -0.2081 -0.3218
  613MOL0     N84508   2.189   7.978   4.429  0.1072 -0.6516  0.3419
  613MOL0     C84509   1.863   7.719   3.601 -0.3902  0.6536 -0.1086
  613MOL0     C84510   1.942   7.703   3.493 -1.0044  0.1445  0.3459
  613MOL0     C84511   2.244   7.770   3.159  0.0218 -0.0235 -0.2397
  613MOL0     C84512   2.368   7.826   3.207  0.1310 -0.4438  0.3241
  613MOL0     C84513   2.473   7.861   3.125 -0.0092  0.8290 -0.3729
  613MOL0     C84514   2.476   7.818   2.994  0.1437  1.3642 -0.3531
  613MOL0     O84515   2.589   7.833   2.923 -1.0601 -0.4213 -0.5582
  613MOL0     C84516   2.660   7.720   2.860  0.5446 -0.7154 -1.0479
  613MOL0     C84517   2.690   7.610   2.960 -0.1716 -0.4705 -0.8953
  613MOL0     C84518   2.786   7.498   2.901  0.1432  0.0086  0.2180
  613MOL0     C84519   2.831   7.386   2.990  0.0082  0.3973  0.2733
  613MOL0     C84520   2.936   7.423   3.082  0.2354 -0.6635  0.6016
  613MOL0     C84521   3.009   7.470   3.163 -0.2361 -0.0959  0.3345
  613MOL0     C84522   2.361   7.750   2.942 -0.2121 -1.3274 -0.0990
  613MOL0     C84523   2.246   7.732   3.015  0.1156 -0.2733 -0.7037
  613MOL0     C84524   2.127   7.667   2.935  0.6670 -0.9927 -0.1212
  613MOL0     H84525   2.122   7.988   3.547  1.0905 -1.6141 -1.0288
  613MOL0     H84526   1.983   8.000   3.749  0.4402  1.4668 -0.2226
  613MOL0     H84527   1.575   7.855   3.830 -0.7326 -1.2815 -0.3920
  613MOL0     H84528   1.618   7.878   3.652  2.3487  5.1868 -1.7778
  613MOL0     H84529   1.732   8.086   3.725 -0.4535  1.7554  0.7947
  613MOL0     H84530   1.555   8.078   3.758 -0.3978  0.1873  2.3341
  613MOL0     H84531   1.623   8.169   3.970  0.7845  0.2885  0.6782
  613MOL0     H84532   1.631   8.013   4.015 -1.5912  2.7986  1.6184
  613MOL0     H84533   1.875   7.997   3.955 -2.3847 -0.7980 -0.7672
  613MOL0     H84534   1.865   8.166   3.900 -2.3431  1.2160 -1.1478
  613MOL0     H84535   1.820   8.046   4.174 -0.7339 -1.3821 -1.6141
  613MOL0     H84536   1.791   8.217   4.136  1.5357  1.2255 -2.0506
  613MOL0     H84537   2.051   8.073   4.150 -1.7640 -1.1460  0.9331
  613MOL0     H84538   2.035   8.227   4.060  1.2438  0.5782  1.7485
  613MOL0     H84539   1.912   8.308   4.294 -0.5311 -1.0142  0.8112
  613MOL0     H84540   2.088   8.330   4.247  0.8969 -1.5455 -0.6014
  613MOL0     H84541   2.036   8.246   4.500  0.1386 -1.4648  2.0573
  613MOL0     H84542   1.957   8.113   4.434 -0.0971  1.1904  1.5789
  613MOL0     H84543   2.304   8.280   4.369  0.7066 -0.4559  0.3112
  613MOL0     H84544   2.555   8.026   4.527 -1.7333 -3.3839 -3.2791
  613MOL0     H84545   2.529   8.198   4.493 -1.2399  1.5683 -2.8494
  613MOL0     H84546   2.711   8.060   4.375 -0.4526  0.4513  1.3015
  613MOL0     H84547   2.596   7.969   4.289 -0.7221 -0.1123  2.1847
  613MOL0     H84548   2.516   8.168   4.160  0.2429 -1.2434 -0.3020
  613MOL0     H84549   2.585   8.273   4.284 -2.0634 -0.3013  0.3360
  613MOL0     H84550   2.807   8.184   4.201  1.0040 -0.0364 -1.5417
  613MOL0     H84551   2.709   8.061   4.114 -3.7879  0.3390 -0.4745
  613MOL0     H84552   2.634   8.506   3.998 -1.2061  0.3176  4.6881
  613MOL0     H84553   2.667   8.741   3.930  0.3762  1.2406  0.5583
  613MOL0     H84554   2.816   8.742   3.838  1.9612 -0.6617 -0.1024
  613MOL0     H84555   2.793   8.822   3.998 -0.8756  1.9617 -2.4045
  613MOL0     H84556   3.431   8.655   3.957 -2.0657  0.7759 -1.3024
  613MOL0     H84557   3.607   8.813   3.956  0.0386 -2.6926  0.9130
  613MOL0     H84558   3.775   8.963   4.048  0.6984  0.3523  1.6773
  613MOL0     H84559   3.674   9.033   3.906  1.9119  2.9591 -1.4221
  613MOL0     H84560   3.719   9.267   3.988 -2.4275 -0.9651  2.6667
  613MOL0     H84561   3.811   9.196   4.127  1.1361 -1.3627  0.2001
  613MOL0     H84562   3.893   9.156   3.831 -3.1626 -2.7020  0.5615
  613MOL0     H84563   3.971   9.129   3.988 -2.3641 -1.5712  1.0380
  613MOL0     H84564   3.900   9.392   4.015 -2.6097 -1.2244 -0.3363
  613MOL0     H84565   3.887   9.382   3.840 -1.4886 -0.7366  1.2973
  613MOL0     H84566   4.148   9.366   3.998  2.0110  1.3723 -0.8458
  613MOL0     H84567   4.149   9.339   3.824  1.8788 -1.1980  0.9959
  613MOL0     H84568   4.075   9.582   3.977  0.4345 -0.8577  1.3377
  613MOL0     H84569   4.014   9.558   3.808 -0.6291 -3.4485 -1.7961
  613MOL0     H84570   4.227   9.545   3.713 -2.7136  0.7601 -0.7373
  613MOL0     H84571   4.297   9.516   3.880 -0.4572  0.4261  1.0919
  613MOL0     H84572   4.361   9.726   3.820 -0.7920 -2.1791 -3.7301
  613MOL0     H84573   4.244   9.739   3.946  1.2076 -1.1694  0.1422
  613MOL0     H84574   3.374   9.063   4.224  2.4647 -0.1138  0.4048
  613MOL0     H84575   3.191   8.907   4.203 -0.1794 -0.2501 -2.1347
  613MOL0     H84576   3.117   8.435   4.100 -0.0414  0.8686 -0.5387
  613MOL0     H84577   2.974   8.248   4.067 -0.0727 -1.3374 -0.6242
  613MOL0     H84578   1.792   7.639   3.620  0.5525 -0.1811 -0.0448
  613MOL0     H84579   1.943   7.612   3.434  1.3784 -0.1842  0.8004
  613MOL0     H84580   2.383   7.849   3.313  4.5626 -0.3879 -0.1529
  613MOL0     H84581   2.557   7.916   3.166 -0.9598 -1.4902  5.7406
  613MOL0     H84582   2.592   7.691   2.779 -2.5448  2.8274 -0.0029
  613MOL0     H84583   2.756   7.756   2.821  1.2359  0.0137  1.1651
  613MOL0     H84584   2.589   7.573   2.983 -0.7590  0.1483 -2.3507
  613MOL0     H84585   2.739   7.651   3.049 -1.5635  0.4538 -0.5082
  613MOL0     H84586   2.751   7.459   2.804  0.8848  1.8658 -0.8440
  613MOL0     H84587   2.877   7.544   2.861  0.5469  0.2446  1.3900
  613MOL0     H84588   2.862   7.294   2.941  0.5053 -0.6030  2.3661
  613MOL0     H84589   2.744   7.344   3.042 -1.1433  0.2496 -1.6705
  613MOL0     H84590   3.079   7.525   3.222 -0.5486 -0.5498  1.1412
  613MOL0     H84591   2.371   7.708   2.843 -0.5436  1.1148 -1.2346
  613MOL0     H84592   2.137   7.682   2.827 -1.3982  0.5578 -0.1688
  613MOL0     H84593   2.129   7.560   2.954  0.7739 -1.0319 -0.3517
  613MOL0     H84594   2.035   7.715   2.971  0.1379 -1.4573 -0.8422
  614MOL0     O84595   6.312   4.758   2.017 -0.4068 -0.1284  0.4437
  614MOL0     C84596   6.255   4.651   2.005  0.2282  0.0804 -0.8077
  614MOL0     O84597   6.140   4.615   2.078  0.4575 -0.8919  0.4205
  614MOL0     C84598   6.077   4.685   2.181 -1.1407 -0.0146 -0.1473
  614MOL0     C84599   6.074   4.826   2.198  0.3110 -0.4913  0.1623
  614MOL0     C84600   5.998   4.886   2.299  0.8305  0.5207  0.5541
  614MOL0     C84601   5.935   4.810   2.392 -0.3562 -0.0674 -0.6402
  614MOL0     O84602   5.846   4.873   2.483  0.4200  0.2926  0.6451
  614MOL0     C84603   5.702   4.839   2.467 -0.2587 -0.6928  0.6708
  614MOL0     C84604   5.620   4.945   2.393  0.2874 -0.1439  0.4608
  614MOL0     C84605   5.638   4.951   2.241 -0.1936 -0.3753  0.3118
  614MOL0     C84606   5.609   4.815   2.175 -0.4288 -1.0321 -0.4340
  614MOL0     C84607   5.627   4.831   2.019  0.0494  1.7299 -0.0069
  614MOL0     C84608   5.533   4.929   1.953  0.0311  0.1389  0.4073
  614MOL0     C84609   5.388   4.918   1.988  0.1883  0.4436 -0.4101
  614MOL0     C84610   5.301   4.981   1.871  0.5195 -0.2814  1.2699
  614MOL0     N84611   5.162   4.944   1.881  0.0802 -0.3712  0.1168
  614MOL0     C84612   5.058   5.017   1.924  0.4340 -0.1473 -0.5443
  614MOL0     C84613   4.943   4.939   1.908  0.2287 -0.2307 -0.3839
  614MOL0     C84614   4.798   4.971   1.907  0.5871 -0.6763  0.4890
  614MOL0     C84615   4.771   5.101   1.825 -0.1985  0.1248  0.1803
  614MOL0     C84616   4.614   5.099   1.808 -0.2377 -0.1984 -0.1796
  614MOL0     C84617   4.535   5.134   1.940 -0.0128 -0.2721 -0.4886
  614MOL0     O84618   4.390   5.140   1.921 -0.2018 -0.0813  0.3704
  614MOL0     C84619   4.334   5.244   1.844  0.6190  1.0638 -0.8905
  614MOL0     C84620   4.196   5.236   1.828 -0.2059  0.0792 -0.0407
  614MOL0     C84621   4.124   5.331   1.758  0.2878 -0.0653  1.1433
  614MOL0     C84622   3.978   5.303   1.750  0.3982  0.7213 -0.9933
  614MOL0     C84623   4.188   5.447   1.699 -0.2396  0.7438  0.4194
  614MOL0     C84624   4.100   5.547   1.632 -0.5787  0.1989 -0.2772
  614MOL0     O84625   4.166   5.664   1.612  0.3830  0.2540  0.4868
  614MOL0     C84626   4.117   5.774   1.549  0.9357 -0.6663  0.2250
  614MOL0     C84627   4.201   5.862   1.468 -0.2650  0.5303  0.2369
  614MOL0     C84628   4.152   5.961   1.389 -0.9932 -0.2212 -0.5641
  614MOL0     C84629   4.018   5.995   1.402  0.4238  0.7193  0.1693
  614MOL0     O84630   3.966   6.101   1.323 -0.1270  0.3042  0.6854
  614MOL0     C84631   4.054   6.187   1.251 -0.1874 -0.0614  0.2569
  614MOL0     C84632   3.995   6.322   1.227  0.8130  0.2230 -0.5469
  614MOL0     C84633   3.873   6.301   1.134  0.5820  0.0736 -1.4476
  614MOL0     C84634   3.778   6.423   1.156  0.8490 -0.0179 -0.4686
  614MOL0     C84635   3.644   6.423   1.081 -0.2380  0.0559 -0.3451
  614MOL0     C84636   3.531   6.522   1.115  0.0693 -0.4030 -0.5291
  614MOL0     C84637   3.401   6.499   1.044  0.4548 -0.2956  0.5980
  614MOL0     C84638   3.307   6.624   1.063  0.3142 -0.0240  1.3592
  614MOL0    Cl84639   3.380   6.780   0.970  0.2125  0.0393  0.0317
  614MOL0     C84640   3.931   5.914   1.467  0.3109 -0.1901  0.5105
  614MOL0     C84641   3.981   5.805   1.540  0.5453  0.4171  0.4566
  614MOL0     O84642   3.985   5.524   1.586  0.6892 -0.0611  0.2406
  614MOL0     C84643   4.323   5.460   1.714 -1.3617 -0.0470 -0.6528
  614MOL0     C84644   4.399   5.355   1.787 -0.4216  0.3525  0.3839
  614MOL0     N84645   4.992   4.816   1.872 -0.7326 -1.0833  0.3268
  614MOL0     N84646   5.124   4.820   1.850  0.1719 -0.0413 -0.0332
  614MOL0     C84647   5.939   4.667   2.378 -0.1340  0.5422 -0.0391
  614MOL0     C84648   6.005   4.609   2.274 -0.3383  0.5396 -0.2381
  614MOL0     C84649   6.304   4.560   1.904  0.2105 -0.6467  0.4940
  614MOL0     C84650   6.226   4.461   1.857 -0.4569 -0.6651  0.5731
  614MOL0     C84651   6.262   4.372   1.767  0.2530  0.5887  0.4986
  614MOL0     C84652   6.394   4.368   1.712 -0.3677  0.4514  0.6910
  614MOL0     O84653   6.441   4.273   1.626 -0.0570 -0.6441  0.2198
  614MOL0     C84654   6.557   4.192   1.651  0.0375 -0.1832 -0.0387
  614MOL0     C84655   6.557   4.053   1.577 -0.4456  0.1145 -0.5195
  614MOL0     C84656   6.591   4.062   1.428  1.1506  0.0118  1.0043
  614MOL0     C84657   6.552   3.927   1.357 -0.0979 -0.0708 -1.1029
  614MOL0     C84658   6.642   3.817   1.396 -0.2050 -0.7464  0.0475
  614MOL0     C84659   6.712   3.721   1.433  0.5637 -1.0070  1.1943
  614MOL0     C84660   6.477   4.479   1.747  0.1765 -0.2387  0.4252
  614MOL0     C84661   6.441   4.565   1.849  0.3067  0.4662 -0.4202
  614MOL0     C84662   6.542   4.675   1.886 -1.1037 -0.3438 -0.1234
  614MOL0     H84663   6.117   4.885   2.118 -0.3782  0.9483  0.8274
  614MOL0     H84664   5.970   4.989   2.323 -2.1302  0.3427 -1.5579
  614MOL0     H84665   5.660   4.836   2.568  1.1728  0.5904  1.3468
  614MOL0     H84666   5.697   4.742   2.416  3.2825 -0.4269 -0.4271
  614MOL0     H84667   5.514   4.931   2.415  0.7394 -1.9187  1.6768
  614MOL0     H84668   5.656   5.038   2.437  2.0526 -0.9126  0.7323
  614MOL0     H84669   5.559   5.014   2.200 -2.7417 -2.5452  1.6336
  614MOL0     H84670   5.732   5.001   2.213  0.5149 -1.2450  1.0737
  614MOL0     H84671   5.688   4.741   2.196  1.9263  0.8371 -2.0930
  614MOL0     H84672   5.515   4.775   2.213 -1.3317  1.0343 -0.3876
  614MOL0     H84673   5.604   4.729   1.988 -3.6234  1.0502  3.9125
  614MOL0     H84674   5.733   4.850   1.999  1.2026 -0.9182  2.7858
  614MOL0     H84675   5.556   5.031   1.984 -2.6007  0.6249  1.0282
  614MOL0     H84676   5.547   4.925   1.844 -1.3283 -1.5760  0.2556
  614MOL0     H84677   5.370   4.966   2.085  0.3717 -0.1676 -0.0672
  614MOL0     H84678   5.365   4.811   1.999  1.2444 -0.0801 -2.8147
  614MOL0     H84679   5.318   5.088   1.854 -1.3325 -0.0252  0.8608
  614MOL0     H84680   5.335   4.936   1.776 -0.7209  1.6746 -0.1772
  614MOL0     H84681   5.059   5.122   1.952  2.1833 -0.6264  1.4183
  614MOL0     H84682   4.759   4.982   2.009 -0.1868  2.1133 -0.0350
  614MOL0     H84683   4.737   4.892   1.864  2.2553 -1.7323 -0.0371
  614MOL0     H84684   4.817   5.192   1.866 -1.2597  1.8234 -2.1725
  614MOL0     H84685   4.816   5.096   1.726  0.8137  0.1750  0.6221
  614MOL0     H84686   4.592   5.174   1.731  1.3172 -0.5125 -0.9678
  614MOL0     H84687   4.584   5.004   1.762 -1.4240  0.4894 -0.8741
  614MOL0     H84688   4.565   5.064   2.018 -1.1199 -0.6016 -0.3365
  614MOL0     H84689   4.575   5.234   1.955  1.1552 -0.5013 -1.8533
  614MOL0     H84690   4.149   5.148   1.871  2.3607 -0.4186  1.9419
  614MOL0     H84691   3.913   5.380   1.793  1.0907 -1.2875  4.3954
  614MOL0     H84692   3.947   5.210   1.799 -0.0003  0.5507 -1.5478
  614MOL0     H84693   3.950   5.283   1.646  2.4476  1.4041 -1.7216
  614MOL0     H84694   4.307   5.838   1.462 -0.6048 -0.9725 -0.0545
  614MOL0     H84695   4.222   6.014   1.326 -0.9503  1.5065  0.8604
  614MOL0     H84696   4.152   6.202   1.298  0.2228  1.7388 -1.0552
  614MOL0     H84697   4.080   6.155   1.150  1.8157  0.0612  0.6921
  614MOL0     H84698   3.967   6.369   1.321  0.1504 -0.9682 -0.1254
  614MOL0     H84699   4.070   6.388   1.181  0.9662  0.7004  0.3757
  614MOL0     H84700   3.814   6.211   1.153 -1.0004  1.1868 -0.8627
  614MOL0     H84701   3.915   6.303   1.033  2.2551 -2.4030 -0.8836
  614MOL0     H84702   3.831   6.515   1.132  0.9509  0.3440  1.0131
  614MOL0     H84703   3.751   6.421   1.262  2.2199 -1.4690 -0.1195
  614MOL0     H84704   3.669   6.425   0.974  3.8460 -2.1156  0.3908
  614MOL0     H84705   3.603   6.323   1.094  0.3055 -0.2020 -0.5820
  614MOL0     H84706   3.563   6.625   1.097 -1.0610  0.0909  0.2340
  614MOL0     H84707   3.518   6.514   1.223 -0.2998  0.6032 -0.4913
  614MOL0     H84708   3.359   6.410   1.092  0.5290  0.4362  2.1062
  614MOL0     H84709   3.420   6.472   0.940  1.0156  2.4028 -0.0914
  614MOL0     H84710   3.302   6.635   1.172  0.3845 -0.3075  1.3903
  614MOL0     H84711   3.206   6.607   1.026 -0.2159  5.0576 -0.3837
  614MOL0     H84712   3.825   5.935   1.461  0.2651 -0.5543 -0.0628
  614MOL0     H84713   3.905   5.751   1.596  2.0164  0.2827  2.4480
  614MOL0     H84714   4.380   5.540   1.667 -0.9141  0.5264  0.8085
  614MOL0     H84715   4.504   5.372   1.808  0.6401  0.0772 -3.7450
  614MOL0     H84716   5.908   4.605   2.461 -1.3572 -0.7217 -1.3812
  614MOL0     H84717   6.024   4.502   2.273  2.6312  0.8498  3.2066
  614MOL0     H84718   6.119   4.457   1.871 -0.9980 -0.8571 -2.8413
  614MOL0     H84719   6.185   4.308   1.725  2.0902 -0.5744 -1.3236
  614MOL0     H84720   6.649   4.248   1.635  1.4166 -2.1710  0.4696
  614MOL0     H84721   6.558   4.171   1.758 -0.2816  2.8342  0.6420
  614MOL0     H84722   6.456   4.012   1.586 -1.7858  2.9863 -1.4172
  614MOL0     H84723   6.624   3.981   1.625 -3.0663 -0.6327  2.2839
  614MOL0     H84724   6.523   4.133   1.379  0.3776 -0.4371  1.4069
  614MOL0     H84725   6.687   4.105   1.398  0.9791  2.3098  3.3688
  614MOL0     H84726   6.555   3.948   1.250 -2.4737  0.2764 -1.1478
  614MOL0     H84727   6.449   3.899   1.380  0.4384 -0.6710  0.7740
  614MOL0     H84728   6.762   3.638   1.480  1.2972 -0.4709  1.3747
  614MOL0     H84729   6.561   4.507   1.684 -2.3678  5.9926 -0.9869
  614MOL0     H84730   6.639   4.635   1.855 -1.8930 -1.4554 -1.2814
  614MOL0     H84731   6.534   4.772   1.836  2.6245  1.0256  1.6015
  614MOL0     H84732   6.538   4.696   1.993 -1.8787  3.0125 -0.6953
  615MOL0     O84733   5.850   3.807   6.372 -0.0309 -0.1720  0.0447
  615MOL0     C84734   5.900   3.781   6.481  1.2568 -0.1644  0.7410
  615MOL0     O84735   6.008   3.708   6.495 -0.0758 -0.0064 -0.1049
  615MOL0     C84736   6.081   3.671   6.384  0.2522 -0.1035 -0.4577
  615MOL0     C84737   6.216   3.668   6.415 -0.3587 -0.3361  0.5263
  615MOL0     C84738   6.311   3.608   6.334 -0.2048  0.3175 -0.4614
  615MOL0     C84739   6.268   3.540   6.223  0.0915  0.5679 -0.6667
  615MOL0     O84740   6.374   3.494   6.152 -0.6415  0.6979  0.2965
  615MOL0     C84741   6.375   3.507   6.014  0.4552  0.3336  0.7741
  615MOL0     C84742   6.503   3.443   5.964  0.0498 -0.8108 -0.1395
  615MOL0     C84743   6.520   3.451   5.811 -0.6890  0.1080  0.5279
  615MOL0     C84744   6.629   3.348   5.771  0.3566 -0.7785 -0.6099
  615MOL0     C84745   6.645   3.368   5.621  0.2956  0.4747  0.1814
  615MOL0     C84746   6.764   3.294   5.566  0.2598  0.5289  0.0867
  615MOL0     C84747   6.758   3.283   5.416 -0.3083  0.7733  1.0499
  615MOL0     C84748   6.841   3.168   5.364 -0.5779  0.5568 -0.5889
  615MOL0     N84749   6.818   3.149   5.222  0.5728 -0.1204  0.0524
  615MOL0     C84750   6.703   3.089   5.168  0.9205 -0.1983  0.1767
  615MOL0     C84751   6.721   3.073   5.038  0.0269  0.1823  0.5007
  615MOL0     C84752   6.617   3.023   4.937  0.3142 -0.1768 -0.4556
  615MOL0     C84753   6.501   3.120   4.914  0.0708  0.1685  1.1029
  615MOL0     C84754   6.529   3.252   4.834 -1.1242  0.7243 -0.0008
  615MOL0     C84755   6.610   3.227   4.705 -0.4381  0.2286 -0.6718
  615MOL0     O84756   6.521   3.143   4.626 -0.2372 -0.2477  0.2927
  615MOL0     C84757   6.572   3.040   4.553  0.4837  0.4730 -0.2208
  615MOL0     C84758   6.708   3.007   4.524 -0.2122 -0.1711  0.2368
  615MOL0     C84759   6.747   2.908   4.438  0.1160  0.2755  0.6281
  615MOL0     C84760   6.897   2.890   4.412  0.4243  1.2956 -0.2811
  615MOL0     C84761   6.648   2.818   4.393 -0.2612  0.0446  0.2896
  615MOL0     C84762   6.671   2.692   4.312 -0.8564  0.7585  0.8822
  615MOL0     O84763   6.560   2.606   4.293 -0.9732 -0.9039 -0.3531
  615MOL0     C84764   6.584   2.485   4.231  0.6918 -0.0403  1.3827
  615MOL0     C84765   6.623   2.385   4.310  0.4816 -0.2399 -0.2919
  615MOL0     C84766   6.629   2.255   4.262 -0.1321 -0.1096  0.4244
  615MOL0     C84767   6.621   2.231   4.124 -0.8007 -0.1726  0.3939
  615MOL0     O84768   6.630   2.102   4.069 -0.4359 -0.0914 -0.5483
  615MOL0     C84769   6.693   2.003   4.159  1.0655 -0.0222  0.1091
  615MOL0     C84770   6.716   1.874   4.065  0.5414 -0.0018 -0.6338
  615MOL0     C84771   6.747   1.747   4.146 -0.0689 -0.1629  0.0375
  615MOL0     C84772   6.880   1.757   4.220  0.0937 -0.4181  0.0097
  615MOL0     C84773   6.915   1.623   4.280  0.0786  0.4918  0.4190
  615MOL0     C84774   7.072   1.618   4.278  0.3697  0.1781 -0.4195
  615MOL0     C84775   7.119   1.489   4.352  1.2195  0.1830 -0.5801
  615MOL0     C84776   7.235   1.417   4.278 -0.3361 -0.1578  0.1144
  615MOL0    Cl84777   7.380   1.521   4.279  0.0601 -0.1643  0.0314
  615MOL0     C84778   6.591   2.337   4.037  0.1387  1.1493  0.1879
  615MOL0     C84779   6.569   2.458   4.091  0.1178 -0.1928 -0.1706
  615MOL0     O84780   6.780   2.677   4.252 -0.0965 -0.0997 -0.1907
  615MOL0     C84781   6.516   2.838   4.433  0.6040  0.0272 -1.9454
  615MOL0     C84782   6.476   2.946   4.509  0.7388 -0.1583 -0.5067
  615MOL0     N84783   6.849   3.118   5.008  0.2551 -0.0822 -0.1423
  615MOL0     N84784   6.907   3.174   5.115 -0.1002 -0.1790  0.7759
  615MOL0     C84785   6.134   3.536   6.196  0.6408 -0.2010  0.3096
  615MOL0     C84786   6.037   3.603   6.272  0.0030 -0.1848  0.0412
  615MOL0     C84787   5.864   3.833   6.605 -0.3990 -0.4853 -0.1531
  615MOL0     C84788   5.860   3.749   6.720 -0.2064 -0.0421  0.1098
  615MOL0     C84789   5.828   3.798   6.848 -0.5459 -0.4091 -0.6170
  615MOL0     C84790   5.789   3.929   6.862 -0.6512  0.2373 -0.5976
  615MOL0     O84791   5.752   3.949   6.992  0.5173 -0.4820  0.0348
  615MOL0     C84792   5.703   4.076   7.045  0.3319  0.0045 -0.0170
  615MOL0     C84793   5.555   4.056   7.061  1.0229  0.3167 -0.3798
  615MOL0     C84794   5.517   4.023   7.198 -0.0104  0.1976 -0.4975
  615MOL0     C84795   5.376   3.954   7.210 -0.8064  0.0130  0.0963
  615MOL0     C84796   5.353   3.944   7.351 -1.0292 -0.2669 -0.8149
  615MOL0     C84797   5.332   3.942   7.466  0.3023 -1.0173  0.3621
  615MOL0     C84798   5.788   4.016   6.748 -0.4743 -1.3788 -0.4778
  615MOL0     C84799   5.829   3.976   6.621  0.0324  0.5017 -0.5977
  615MOL0     C84800   5.822   4.070   6.505 -1.1156  0.3840  0.9378
  615MOL0     H84801   6.257   3.724   6.499  1.8028  0.6417 -1.1079
  615MOL0     H84802   6.415   3.619   6.361 -0.5364  1.8745  0.2939
  615MOL0     H84803   6.384   3.607   5.969 -1.1321 -0.4432 -1.4664
  615MOL0     H84804   6.284   3.468   5.969 -0.3889  1.1387  1.7416
  615MOL0     H84805   6.586   3.478   6.027 -1.2911  0.9134  0.7412
  615MOL0     H84806   6.501   3.339   5.999  1.9795 -0.9167 -0.2287
  615MOL0     H84807   6.427   3.428   5.759 -0.8132  0.7058  0.4850
  615MOL0     H84808   6.546   3.551   5.776  0.1973  0.3421  1.7942
  615MOL0     H84809   6.725   3.381   5.812  1.3608 -1.2381 -2.4841
  615MOL0     H84810   6.608   3.245   5.801 -1.3133 -1.7081 -4.3481
  615MOL0     H84811   6.664   3.474   5.602  0.6525  0.0189 -2.4077
  615MOL0     H84812   6.560   3.326   5.567  0.2439  0.6297  0.1426
  615MOL0     H84813   6.853   3.346   5.603 -1.7140  3.5660  0.9703
  615MOL0     H84814   6.753   3.188   5.592  0.0305  0.0039 -1.9749
  615MOL0     H84815   6.805   3.372   5.373  0.5515  0.0539  0.4763
  615MOL0     H84816   6.655   3.285   5.379  0.6064  4.3076 -1.9589
  615MOL0     H84817   6.947   3.192   5.379 -0.2123  0.0822 -2.1817
  615MOL0     H84818   6.817   3.071   5.410  2.2232  0.0660  0.0411
  615MOL0     H84819   6.608   3.070   5.218  0.2234 -0.4633 -1.2065
  615MOL0     H84820   6.581   2.921   4.955  2.1710 -1.0333 -1.2809
  615MOL0     H84821   6.663   3.013   4.838 -1.6596  1.3235 -1.6008
  615MOL0     H84822   6.419   3.078   4.854 -0.6807  1.7420  0.9873
  615MOL0     H84823   6.458   3.158   5.008 -1.4221  2.2927 -0.3481
  615MOL0     H84824   6.431   3.291   4.807 -1.3779 -1.0941 -1.9191
  615MOL0     H84825   6.586   3.323   4.896 -1.8177  3.1995 -2.0466
  615MOL0     H84826   6.631   3.325   4.660  2.0024  1.2687  2.3935
  615MOL0     H84827   6.706   3.182   4.731  0.6874  2.2382 -1.1782
  615MOL0     H84828   6.763   3.089   4.568 -3.1889  1.6371  0.9001
  615MOL0     H84829   6.967   2.939   4.481 -2.0140  1.9359  1.9027
  615MOL0     H84830   6.927   2.923   4.312 -2.7532  0.4320 -1.6369
  615MOL0     H84831   6.916   2.785   4.437  1.6141  1.4977 -0.2758
  615MOL0     H84832   6.638   2.403   4.416 -1.0160  1.3050 -0.2901
  615MOL0     H84833   6.659   2.180   4.335 -0.0579 -0.1447  0.3585
  615MOL0     H84834   6.786   2.042   4.201  1.2639  1.8230 -1.8532
  615MOL0     H84835   6.622   1.988   4.240 -3.5697  1.7334 -3.2004
  615MOL0     H84836   6.621   1.860   4.013  0.1177 -0.3164  0.1944
  615MOL0     H84837   6.795   1.890   3.992  1.0716  2.8918  0.4363
  615MOL0     H84838   6.745   1.666   4.073 -2.0039 -1.0543  1.0035
  615MOL0     H84839   6.666   1.731   4.218 -0.2159 -0.2901 -0.1572
  615MOL0     H84840   6.886   1.825   4.306  1.2402 -0.3631 -0.1015
  615MOL0     H84841   6.954   1.779   4.142 -2.2211  0.7413 -2.0084
  615MOL0     H84842   6.881   1.623   4.384 -0.3620 -0.8149  0.2917
  615MOL0     H84843   6.873   1.536   4.228 -0.9244  2.0715 -1.5728
  615MOL0     H84844   7.109   1.701   4.338  0.1397  3.0467 -3.9196
  615MOL0     H84845   7.114   1.616   4.177  0.3840  0.9902 -0.4300
  615MOL0     H84846   7.031   1.423   4.357 -0.1340  1.8498 -1.3026
  615MOL0     H84847   7.144   1.507   4.457 -1.6921  0.9061  0.0920
  615MOL0     H84848   7.205   1.401   4.174  3.7614  2.0539 -1.6612
  615MOL0     H84849   7.262   1.321   4.321  2.5675 -0.5605 -2.2676
  615MOL0     H84850   6.566   2.303   3.937 -1.1359  3.1713 -0.2338
  615MOL0     H84851   6.523   2.538   4.034  0.5334  2.0993  2.4911
  615MOL0     H84852   6.442   2.760   4.415 -0.6488  0.7852 -0.3821
  615MOL0     H84853   6.369   2.959   4.523  0.9591 -0.7273  2.2044
  615MOL0     H84854   6.110   3.488   6.101  1.1726 -1.8994  0.9963
  615MOL0     H84855   5.933   3.585   6.248 -0.7559  2.8079  0.6515
  615MOL0     H84856   5.879   3.643   6.710  0.2550  0.2590 -3.8917
  615MOL0     H84857   5.829   3.738   6.939  2.6232 -2.3457 -1.7599
  615MOL0     H84858   5.737   4.094   7.148 -2.6015  1.3356  0.8371
  615MOL0     H84859   5.745   4.160   6.990 -2.0207  1.0903 -0.2532
  615MOL0     H84860   5.516   3.976   6.998 -1.6652  1.4799 -0.3418
  615MOL0     H84861   5.507   4.147   7.023 -0.2753 -0.0382  0.3255
  615MOL0     H84862   5.593   3.959   7.242 -0.6153 -2.8299 -3.4392
  615MOL0     H84863   5.508   4.115   7.257  1.7868 -1.2869  2.3055
  615MOL0     H84864   5.373   3.855   7.165  1.5541 -1.4997  2.9284
  615MOL0     H84865   5.293   4.020   7.182 -0.8126 -1.0466 -2.7477
  615MOL0     H84866   5.308   3.937   7.570 -1.4882  0.3475  0.0720
  615MOL0     H84867   5.736   4.111   6.751  0.8217 -0.6110 -1.0350
  615MOL0     H84868   5.763   4.018   6.429 -0.8706 -1.9233  2.2412
  615MOL0     H84869   5.783   4.168   6.537  1.0235  1.7189 -0.2737
  615MOL0     H84870   5.923   4.092   6.468 -0.9167 -1.8107  0.0602
  616MOL0     O84871   8.903   5.186   6.799  0.4028  0.0497  0.4248
  616MOL0     C84872   8.989   5.248   6.732 -0.3756  0.1833  0.1436
  616MOL0     O84873   9.048   5.362   6.783  0.0556  0.0485  0.4329
  616MOL0     C84874   9.049   5.390   6.919  0.3002 -0.5512  0.5932
  616MOL0     C84875   9.059   5.528   6.952  0.3813  0.0533  0.0499
  616MOL0     C84876   9.068   5.571   7.085 -0.2411  0.1342  0.8260
  616MOL0     C84877   9.078   5.475   7.183 -0.1271  0.0948 -0.2804
  616MOL0     O84878   9.094   5.503   7.318 -0.3352 -0.3101  0.4117
  616MOL0     C84879   9.120   5.642   7.354 -0.9939  0.5825  0.2885
  616MOL0     C84880   9.183   5.648   7.495 -0.3301  0.3012 -0.0168
  616MOL0     C84881   9.321   5.570   7.499  0.4273 -0.4587 -1.3460
  616MOL0     C84882   9.437   5.660   7.468  0.1670  0.0292  0.3529
  616MOL0     C84883   9.571   5.592   7.499  1.0198  0.6235  0.0216
  616MOL0     C84884   9.679   5.692   7.454 -0.3586 -0.6410  0.3663
  616MOL0     C84885   9.825   5.647   7.477  0.3266  0.0788  0.9706
  616MOL0     C84886   9.867   5.658   7.624  1.7146 -0.1021 -0.5292
  616MOL0     N84887  10.008   5.614   7.638 -0.2406 -0.8349 -0.4419
  616MOL0     C84888  10.113   5.694   7.616  0.1056  0.0392 -0.4783
  616MOL0     C84889  10.221   5.617   7.653 -0.0340 -0.0901 -0.6719
  616MOL0     C84890  10.364   5.649   7.616  0.7203  0.7729 -1.1168
  616MOL0     C84891  10.425   5.720   7.742  0.3089 -0.1311  0.2802
  616MOL0     C84892  10.554   5.792   7.692 -0.4168 -0.6429  0.3031
  616MOL0     C84893  10.541   5.937   7.631  0.4924  0.6173  0.3097
  616MOL0     O84894  10.547   6.045   7.732 -0.3790 -0.2173  0.5606
  616MOL0     C84895  10.527   6.178   7.703  0.2643 -0.2320 -0.6168
  616MOL0     C84896  10.475   6.256   7.801  0.7192 -0.4098  0.3779
  616MOL0     C84897  10.444   6.393   7.784  0.5112  0.8732  0.1647
  616MOL0     C84898  10.387   6.459   7.906 -0.7012  0.2384 -0.1235
  616MOL0     C84899  10.467   6.452   7.658  0.5261  1.2879  0.8265
  616MOL0     C84900  10.424   6.596   7.621  0.1110 -0.3591  0.1267
  616MOL0     O84901  10.431   6.632   7.488 -0.5206 -0.3333 -0.2777
  616MOL0     C84902  10.447   6.763   7.462  0.1467 -0.2677 -0.1102
  616MOL0     C84903  10.355   6.824   7.375  0.7002  0.2719  0.5430
  616MOL0     C84904  10.359   6.960   7.338  0.2580 -0.5338 -0.3174
  616MOL0     C84905  10.457   7.041   7.396 -0.5998  1.1950  0.2538
  616MOL0     O84906  10.452   7.177   7.369 -0.5018 -0.1107 -0.0085
  616MOL0     C84907  10.461   7.265   7.483  0.5233  1.3136 -1.1052
  616MOL0     C84908  10.328   7.267   7.556  0.6652  0.5600 -0.7192
  616MOL0     C84909  10.362   7.316   7.706  0.4321 -0.9394  0.0086
  616MOL0     C84910  10.419   7.193   7.796  0.0537  0.3496  0.4816
  616MOL0     C84911  10.476   7.222   7.939  0.0683  0.4207 -0.2209
  616MOL0     C84912  10.558   7.350   7.950 -0.2156 -0.6796  0.4907
  616MOL0     C84913  10.611   7.378   8.086 -0.8688  0.3675 -0.2472
  616MOL0     C84914  10.762   7.408   8.077 -0.4063  0.3358 -0.0981
  616MOL0    Cl84915  10.836   7.448   8.227  0.4255 -0.0882  0.0139
  616MOL0     C84916  10.556   6.977   7.470  0.7881  0.1058 -1.0328
  616MOL0     C84917  10.557   6.846   7.508  0.2716  0.1312  0.5023
  616MOL0     O84918  10.411   6.678   7.707 -0.6684 -0.1942  0.4452
  616MOL0     C84919  10.544   6.381   7.563  0.3402 -0.3788  0.3757
  616MOL0     C84920  10.567   6.246   7.584  0.2890 -0.6725  0.1359
  616MOL0     N84921  10.169   5.497   7.704 -0.3430  0.9629  0.3260
  616MOL0     N84922  10.043   5.492   7.702  0.7981 -0.0047  1.0502
  616MOL0     C84923   9.069   5.341   7.151  0.8496  0.9554  0.0165
  616MOL0     C84924   9.047   5.298   7.022 -0.6872  0.1152 -0.2373
  616MOL0     C84925   9.022   5.197   6.592  0.1795  0.2569 -0.1480
  616MOL0     C84926   9.111   5.277   6.511  0.1625 -0.5629  1.4012
  616MOL0     C84927   9.158   5.237   6.385  0.6367 -0.9865 -0.5704
  616MOL0     C84928   9.113   5.118   6.339 -0.8900 -0.3028  0.9259
  616MOL0     O84929   9.171   5.073   6.221 -0.2697 -0.3356  0.1714
  616MOL0     C84930   9.079   5.021   6.128  0.6299  0.7242  0.7053
  616MOL0     C84931   9.118   5.052   5.982  0.2570 -0.6443 -0.4545
  616MOL0     C84932   9.178   5.197   5.960 -0.3990  0.2906  0.3663
  616MOL0     C84933   9.157   5.238   5.820  0.3504  0.0259  0.5798
  616MOL0     C84934   9.243   5.345   5.761  0.6898  0.4997  0.1791
  616MOL0     C84935   9.302   5.429   5.699  0.5834 -1.0094 -0.1038
  616MOL0     C84936   9.020   5.040   6.407 -0.2650 -0.2650  0.1540
  616MOL0     C84937   8.978   5.074   6.538  0.2404 -0.5729  0.5691
  616MOL0     C84938   8.892   4.963   6.598 -0.2985  0.0102 -0.6341
  616MOL0     H84939   9.048   5.610   6.882 -2.5042 -1.7410 -1.7975
  616MOL0     H84940   9.068   5.678   7.103 -2.6725  0.3171  0.0379
  616MOL0     H84941   9.028   5.700   7.359  0.9031  4.2492 -2.3443
  616MOL0     H84942   9.188   5.691   7.284  0.2838  0.0303  1.1011
  616MOL0     H84943   9.189   5.752   7.530 -2.0939  0.5110 -0.2354
  616MOL0     H84944   9.111   5.603   7.563 -1.1262  2.3662  0.5900
  616MOL0     H84945   9.338   5.533   7.600  1.0758 -1.9586 -1.9766
  616MOL0     H84946   9.315   5.481   7.435 -0.8308 -2.3247  1.2233
  616MOL0     H84947   9.437   5.692   7.363 -0.6208  0.4043  0.4581
  616MOL0     H84948   9.438   5.751   7.529  0.0715  1.4412 -1.6151
  616MOL0     H84949   9.573   5.505   7.434 -2.4882  0.3515  0.1093
  616MOL0     H84950   9.570   5.558   7.603 -0.5000 -1.1248 -0.5074
  616MOL0     H84951   9.659   5.708   7.347 -1.0261 -3.8819 -0.0885
  616MOL0     H84952   9.663   5.790   7.500  3.5002 -0.4474  1.6162
  616MOL0     H84953   9.898   5.711   7.426  0.0485 -0.2704  0.1065
  616MOL0     H84954   9.829   5.540   7.456 -0.5198 -0.1860  2.0637
  616MOL0     H84955   9.867   5.761   7.662 -0.0810  0.3522 -1.6440
  616MOL0     H84956   9.806   5.599   7.693  0.2088 -1.1602 -2.6847
  616MOL0     H84957  10.113   5.794   7.574  2.0982  0.2319 -0.1224
  616MOL0     H84958  10.370   5.718   7.532 -1.8621  0.7321 -1.4204
  616MOL0     H84959  10.415   5.558   7.583  2.3795  1.0088  0.6032
  616MOL0     H84960  10.366   5.798   7.791  2.8584  0.8337  2.0174
  616MOL0     H84961  10.438   5.652   7.826 -1.9052  0.5126  1.2015
  616MOL0     H84962  10.617   5.806   7.780 -1.4168  2.3116  0.6591
  616MOL0     H84963  10.604   5.723   7.624 -1.7183 -1.6614  0.3106
  616MOL0     H84964  10.609   5.957   7.547 -2.5592  0.7702 -2.3244
  616MOL0     H84965  10.443   5.939   7.583 -0.5753 -0.8489  2.2766
  616MOL0     H84966  10.449   6.199   7.889 -0.2208 -2.9551 -1.4342
  616MOL0     H84967  10.460   6.466   7.987  0.1564  0.7908 -0.9136
  616MOL0     H84968  10.308   6.392   7.941 -1.2472 -0.7518 -3.0092
  616MOL0     H84969  10.332   6.552   7.885 -0.4096  0.6579  0.8856
  616MOL0     H84970  10.276   6.768   7.327  1.6268  1.3158 -2.4166
  616MOL0     H84971  10.291   6.993   7.260 -1.8458 -3.1462  0.2691
  616MOL0     H84972  10.544   7.247   7.551 -1.4401 -1.4665  0.7837
  616MOL0     H84973  10.471   7.365   7.440  0.0557  1.8694  0.0503
  616MOL0     H84974  10.255   7.331   7.506 -1.3975  0.0664  1.5021
  616MOL0     H84975  10.289   7.165   7.556  3.1614 -0.4885  0.3489
  616MOL0     H84976  10.267   7.351   7.746  0.4909  3.0044 -2.7228
  616MOL0     H84977  10.431   7.401   7.707 -1.4995  0.7217 -0.5725
  616MOL0     H84978  10.505   7.152   7.744 -1.0030  0.6611 -1.6406
  616MOL0     H84979  10.343   7.116   7.814 -2.0643  2.1617 -0.1604
  616MOL0     H84980  10.396   7.232   8.013  0.8640 -2.5457  1.1596
  616MOL0     H84981  10.530   7.130   7.962  0.7461  0.9864  0.5023
  616MOL0     H84982  10.486   7.430   7.929 -2.0794 -1.0960  4.3506
  616MOL0     H84983  10.634   7.346   7.872  0.2315  0.9894  0.7929
  616MOL0     H84984  10.604   7.293   8.154  2.9090  1.9919  2.5162
  616MOL0     H84985  10.562   7.463   8.134 -0.4660  0.3328  0.2282
  616MOL0     H84986  10.778   7.495   8.014  0.1620  0.0046 -0.4169
  616MOL0     H84987  10.820   7.324   8.036  3.0599  2.6818 -0.3782
  616MOL0     H84988  10.634   7.034   7.518  0.7437 -0.6934  0.0182
  616MOL0     H84989  10.639   6.801   7.564  0.7072 -0.5104 -0.6212
  616MOL0     H84990  10.570   6.424   7.466 -1.6984  1.2682  0.5006
  616MOL0     H84991  10.626   6.190   7.511  0.8800  1.9867 -1.5914
  616MOL0     H84992   9.087   5.267   7.228 -0.4674  0.6035  0.0096
  616MOL0     H84993   9.055   5.192   7.000 -1.3401 -0.0807  0.4248
  616MOL0     H84994   9.135   5.377   6.546 -1.5413  1.1200 -1.7876
  616MOL0     H84995   9.226   5.297   6.325 -0.3719 -1.5599 -2.3638
  616MOL0     H84996   9.065   4.914   6.144 -2.6152  0.8283 -0.7759
  616MOL0     H84997   8.982   5.068   6.146 -0.3439 -0.6412 -0.7019
  616MOL0     H84998   9.026   5.032   5.927 -0.6902 -0.2205  0.9134
  616MOL0     H84999   9.188   4.976   5.945  1.2625  1.3708 -2.9395
  616MOL0     H85000   9.127   5.265   6.029  2.4774  2.9106  0.1451
  616MOL0     H85001   9.286   5.192   5.977 -0.4277 -3.1635  0.1680
  616MOL0     H85002   9.049   5.257   5.819  0.3838  0.2615  1.0943
  616MOL0     H85003   9.172   5.149   5.759  2.0333  1.9165 -1.9621
  616MOL0     H85004   9.336   5.504   5.631 -1.5530  0.2641  0.1549
  616MOL0     H85005   8.983   4.947   6.365 -0.1566  0.0336 -0.6270
  616MOL0     H85006   8.937   4.918   6.686 -1.2492  0.2944  0.0145
  616MOL0     H85007   8.799   5.002   6.640 -1.3193  0.1940 -2.8792
  616MOL0     H85008   8.869   4.885   6.524  0.9700  0.2070 -1.2588
  617MOL0     O85009   1.211  10.470   7.569 -0.0484  0.4086  0.1447
  617MOL0     C85010   1.283  10.576   7.583  0.1117  0.0892  0.2878
  617MOL0     O85011   1.423  10.583   7.571  0.8384  0.7318  0.3744
  617MOL0     C85012   1.502  10.465   7.562  0.4534 -0.2925 -0.0474
  617MOL0     C85013   1.476  10.345   7.609  0.2014  0.0260  0.7685
  617MOL0     C85014   1.566  10.232   7.592  0.1144 -0.8716 -0.9513
  617MOL0     C85015   1.694  10.252   7.538  0.5408 -0.6304  0.5589
  617MOL0     O85016   1.773  10.143   7.516 -1.1413  0.0947 -0.0484
  617MOL0     C85017   1.769  10.097   7.378 -0.4790 -0.6223 -0.3292
  617MOL0     C85018   1.901  10.113   7.288 -0.9777 -0.0305 -0.7426
  617MOL0     C85019   1.914  10.009   7.189 -0.1081  0.2474  0.6341
  617MOL0     C85020   2.041  10.019   7.119 -0.3027  0.2331  0.2010
  617MOL0     C85021   2.045   9.921   7.008 -0.4836  0.8148  0.0016
  617MOL0     C85022   2.175   9.931   6.924  0.3649 -0.6083 -0.0858
  617MOL0     C85023   2.300   9.863   6.984  0.2537  0.0570 -0.5622
  617MOL0     C85024   2.423   9.882   6.890 -0.4798  0.7265  0.6356
  617MOL0     N85025   2.434   9.771   6.791  1.2194 -0.6605  0.0802
  617MOL0     C85026   2.497   9.652   6.806 -0.7973 -0.0866 -1.4687
  617MOL0     C85027   2.439   9.571   6.713  0.4545 -0.7718  0.1033
  617MOL0     C85028   2.475   9.435   6.684  0.8569 -0.1323 -0.1026
  617MOL0     C85029   2.601   9.419   6.600 -0.0640  0.3507  0.0844
  617MOL0     C85030   2.723   9.475   6.673 -0.3825 -0.3864  0.7823
  617MOL0     C85031   2.837   9.476   6.568 -0.7603 -0.2398  0.4013
  617MOL0     O85032   2.946   9.557   6.599 -0.0665 -0.3131 -0.6084
  617MOL0     C85033   3.060   9.549   6.525 -0.5467  0.0057  0.2379
  617MOL0     C85034   3.158   9.638   6.557 -0.5677 -1.0979  0.2486
  617MOL0     C85035   3.282   9.649   6.488 -0.0816 -0.3070  0.8727
  617MOL0     C85036   3.370   9.762   6.535  0.2143 -0.0015 -0.7756
  617MOL0     C85037   3.314   9.564   6.379  0.2747  0.1193  0.5028
  617MOL0     C85038   3.418   9.565   6.278  0.1090 -0.1079 -0.1422
  617MOL0     O85039   3.411   9.473   6.177 -0.0351  0.6500  0.2802
  617MOL0     C85040   3.517   9.478   6.082  0.5163  0.6303  0.3187
  617MOL0     C85041   3.501   9.559   5.969  0.4281  0.8010 -0.1132
  617MOL0     C85042   3.603   9.580   5.877  0.0820  0.3635  0.3373
  617MOL0     C85043   3.723   9.519   5.896 -0.8356  0.5902 -0.7777
  617MOL0     O85044   3.834   9.527   5.821  0.7441  0.6552  0.0949
  617MOL0     C85045   3.809   9.569   5.685 -0.4535  0.3572  0.1761
  617MOL0     C85046   3.930   9.562   5.594  0.4264 -0.5864 -0.2542
  617MOL0     C85047   4.056   9.636   5.652  0.1810 -0.6118 -0.7635
  617MOL0     C85048   4.179   9.626   5.559  0.1294  0.3185  0.2038
  617MOL0     C85049   4.286   9.697   5.627  0.5950 -0.5682  0.8759
  617MOL0     C85050   4.278   9.853   5.599  0.5186 -0.2082 -0.3461
  617MOL0     C85051   4.413   9.929   5.623  0.8825  0.1417 -0.3216
  617MOL0     C85052   4.416  10.054   5.536  0.4768 -0.2062  0.7305
  617MOL0    Cl85053   4.576  10.121   5.576  0.3538 -0.2566  0.0073
  617MOL0     C85054   3.742   9.431   6.006  0.1088 -0.0016  0.6944
  617MOL0     C85055   3.639   9.413   6.092  0.5495  0.0400 -0.1664
  617MOL0     O85056   3.495   9.664   6.274 -0.0470 -0.1183  0.6640
  617MOL0     C85057   3.212   9.466   6.358  0.7322 -0.0100  0.4495
  617MOL0     C85058   3.095   9.450   6.434  0.3659 -0.7810  0.7896
  617MOL0     N85059   2.358   9.645   6.635 -0.5730  0.6035  0.4438
  617MOL0     N85060   2.349   9.766   6.682 -0.3312 -0.3652  0.0368
  617MOL0     C85061   1.730  10.382   7.492 -0.2812  0.1235  0.1161
  617MOL0     C85062   1.635  10.488   7.506 -0.2385  0.0658 -0.0104
  617MOL0     C85063   1.220  10.705   7.621  0.6768  0.3463  0.3446
  617MOL0     C85064   1.300  10.791   7.698  0.1328  0.8738  1.0155
  617MOL0     C85065   1.258  10.921   7.731  0.7105 -0.1592  0.1281
  617MOL0     C85066   1.141  10.973   7.678 -0.9216 -0.9461 -0.2376
  617MOL0     O85067   1.106  11.106   7.695  0.2747 -0.0107 -0.1665
  617MOL0     C85068   1.192  11.216   7.742 -0.3434  0.6099  0.0207
  617MOL0     C85069   1.092  11.335   7.723 -0.5890  0.3816  0.3449
  617MOL0     C85070   1.011  11.373   7.854 -0.5797  0.3082 -0.1385
  617MOL0     C85071   0.889  11.279   7.867 -0.5388  0.6865 -0.2736
  617MOL0     C85072   0.829  11.309   7.995  0.1898 -0.7841 -0.5417
  617MOL0     C85073   0.777  11.344   8.098  0.7162 -1.0374 -0.5342
  617MOL0     C85074   1.065  10.895   7.588 -0.4822 -0.3290  0.5219
  617MOL0     C85075   1.100  10.756   7.564 -0.2819  0.5613 -0.1426
  617MOL0     C85076   1.029  10.664   7.467 -0.2870 -0.8057  0.3603
  617MOL0     H85077   1.382  10.337   7.662 -0.0341  1.4609  0.6039
  617MOL0     H85078   1.530  10.132   7.618 -1.4746  0.6159  3.6444
  617MOL0     H85079   1.674  10.119   7.330  0.9006  0.0596 -2.9550
  617MOL0     H85080   1.761   9.989   7.390  0.8000 -0.9299 -1.8171
  617MOL0     H85081   1.904  10.212   7.241  0.5510 -0.2589 -1.1705
  617MOL0     H85082   1.992  10.095   7.345 -0.8300 -3.8983 -1.9332
  617MOL0     H85083   1.912   9.913   7.242  0.9198 -1.1511 -1.6935
  617MOL0     H85084   1.827  10.008   7.124  0.9806 -3.5641 -1.0579
  617MOL0     H85085   2.045  10.120   7.077 -4.1682 -0.6819 -2.9632
  617MOL0     H85086   2.124  10.006   7.189  0.1705  3.3424  0.3912
  617MOL0     H85087   1.972   9.945   6.930 -0.0877 -2.0251 -1.3414
  617MOL0     H85088   2.019   9.819   7.035 -1.3809  0.8649 -0.6381
  617MOL0     H85089   2.156   9.886   6.826  0.8525  0.4961 -0.6988
  617MOL0     H85090   2.202  10.037   6.922  0.6257 -0.6660  0.2682
  617MOL0     H85091   2.287   9.756   7.002 -1.3229  0.2459 -0.4404
  617MOL0     H85092   2.326   9.912   7.079 -1.5359  1.5584 -0.7978
  617MOL0     H85093   2.415   9.975   6.834 -2.2324  1.2927  1.7302
  617MOL0     H85094   2.502   9.869   6.965  2.4886  1.7930 -2.1161
  617MOL0     H85095   2.569   9.621   6.880 -1.1970 -1.5827 -1.6674
  617MOL0     H85096   2.390   9.379   6.645  1.2530  0.1071 -1.3662
  617MOL0     H85097   2.494   9.381   6.777  1.9567 -1.1175 -0.8645
  617MOL0     H85098   2.624   9.313   6.599 -1.1348  0.1069 -0.9090
  617MOL0     H85099   2.580   9.461   6.501  1.9528  2.1538  0.3540
  617MOL0     H85100   2.711   9.581   6.696  2.2246  0.4159 -1.0827
  617MOL0     H85101   2.747   9.408   6.756 -0.0298  1.0515  1.8846
  617MOL0     H85102   2.853   9.370   6.547 -1.3837 -0.4567  0.9719
  617MOL0     H85103   2.812   9.509   6.467  0.3562  0.4041  0.3306
  617MOL0     H85104   3.131   9.713   6.631  0.9371  0.8094 -1.0087
  617MOL0     H85105   3.331   9.833   6.608  2.8149  0.5685  0.1680
  617MOL0     H85106   3.413   9.816   6.450  1.0074  1.0205  0.2321
  617MOL0     H85107   3.456   9.713   6.582  0.7527  0.6992 -1.0169
  617MOL0     H85108   3.404   9.603   5.950 -0.0912 -0.2265  0.1028
  617MOL0     H85109   3.582   9.637   5.787  1.6891 -0.6347 -0.7253
  617MOL0     H85110   3.720   9.517   5.649  1.3130 -1.6657 -1.5492
  617MOL0     H85111   3.783   9.675   5.699  0.8315  0.6151  0.7954
  617MOL0     H85112   3.956   9.456   5.592  0.3962 -0.5994 -2.2075
  617MOL0     H85113   3.903   9.602   5.496  1.0792 -3.1344 -1.5530
  617MOL0     H85114   4.080   9.591   5.749 -2.0808 -0.3932 -0.0271
  617MOL0     H85115   4.042   9.740   5.682 -3.9496 -0.9594 -0.8488
  617MOL0     H85116   4.145   9.674   5.467  0.3503  1.9283  0.9401
  617MOL0     H85117   4.189   9.517   5.552 -2.2407  0.1647 -2.9645
  617MOL0     H85118   4.288   9.679   5.735  3.7737  1.4931  1.2984
  617MOL0     H85119   4.383   9.670   5.584  0.8473  0.3896  0.8307
  617MOL0     H85120   4.196   9.907   5.648  2.4614  1.9250  0.7792
  617MOL0     H85121   4.254   9.860   5.492 -1.1426 -0.2633 -0.0019
  617MOL0     H85122   4.495   9.876   5.574 -0.2642  0.1828 -2.4345
  617MOL0     H85123   4.408   9.953   5.729  0.9018  0.2264 -0.3413
  617MOL0     H85124   4.332  10.121   5.558 -2.3042 -2.3867 -2.2537
  617MOL0     H85125   4.404  10.023   5.432 -3.2311 -3.6472  1.8994
  617MOL0     H85126   3.837   9.386   6.030  0.5544  1.5418  2.0576
  617MOL0     H85127   3.660   9.357   6.183 -2.5009  0.8353  1.1714
  617MOL0     H85128   3.224   9.395   6.276  0.1142 -0.1798  0.5014
  617MOL0     H85129   3.037   9.364   6.405  1.5720 -0.5764 -2.6905
  617MOL0     H85130   1.825  10.408   7.447 -0.8178 -0.8221 -1.6618
  617MOL0     H85131   1.669  10.589   7.491 -2.0539  0.9346  1.2793
  617MOL0     H85132   1.398  10.757   7.732  1.8611  0.4070 -3.7156
  617MOL0     H85133   1.312  10.970   7.812 -1.6849  3.4274 -0.1860
  617MOL0     H85134   1.237  11.205   7.841  0.5756 -0.6395 -0.5025
  617MOL0     H85135   1.279  11.223   7.676  0.2829  0.9918  0.8797
  617MOL0     H85136   1.019  11.303   7.647 -0.2075  1.1196 -0.3466
  617MOL0     H85137   1.152  11.419   7.685 -3.1839  3.4074  2.4138
  617MOL0     H85138   1.071  11.365   7.946 -1.9444  3.7967  1.2391
  617MOL0     H85139   0.989  11.480   7.854  1.5091  0.7785 -0.3366
  617MOL0     H85140   0.916  11.173   7.857  0.4061  1.0992 -2.7513
  617MOL0     H85141   0.811  11.288   7.792 -3.6256  0.6835  2.6926
  617MOL0     H85142   0.728  11.369   8.190  0.1746 -0.6724 -0.9166
  617MOL0     H85143   0.972  10.930   7.544  0.7958  1.0216 -1.2039
  617MOL0     H85144   0.954  10.717   7.408  0.0668 -1.1669 -0.4222
  617MOL0     H85145   1.092  10.617   7.390  1.6628 -0.8868  1.9079
  617MOL0     H85146   0.991  10.577   7.522  1.5741 -2.8519 -1.3520
  618MOL0     O85147   7.924   4.880   6.085  0.0047 -0.0734 -0.0172
  618MOL0     C85148   7.938   4.771   6.042 -0.6097  0.7526 -0.8870
  618MOL0     O85149   8.039   4.726   5.959  0.0919 -0.6637 -0.3009
  618MOL0     C85150   8.141   4.806   5.933 -0.2335 -0.4189 -0.5253
  618MOL0     C85151   8.139   4.855   5.806  0.1935  1.0631  0.0911
  618MOL0     C85152   8.249   4.919   5.751  0.4273  1.2266 -0.2634
  618MOL0     C85153   8.355   4.952   5.835 -0.4484  0.1333  1.5360
  618MOL0     O85154   8.471   5.009   5.790 -0.2063  0.1072  0.4048
  618MOL0     C85155   8.481   5.070   5.658 -0.0196 -0.4754 -0.3671
  618MOL0     C85156   8.613   5.146   5.647  1.0059  0.1057 -0.5832
  618MOL0     C85157   8.637   5.203   5.513  0.1250  0.3099 -0.3604
  618MOL0     C85158   8.756   5.294   5.492  0.4363  0.8193 -0.5337
  618MOL0     C85159   8.833   5.278   5.355  0.6758  0.1193  1.1575
  618MOL0     C85160   8.949   5.376   5.359  0.2055 -0.1357 -0.2758
  618MOL0     C85161   9.070   5.348   5.460  0.3327 -0.1654 -0.0673
  618MOL0     C85162   9.120   5.204   5.444 -0.3398  0.3668 -0.5343
  618MOL0     N85163   9.151   5.148   5.311  0.0628  0.6894  0.8004
  618MOL0     C85164   9.268   5.192   5.244  1.0165  0.1789 -0.5213
  618MOL0     C85165   9.276   5.101   5.142 -0.7307  0.2963  0.1961
  618MOL0     C85166   9.385   5.109   5.043  0.5837 -0.1987 -1.2533
  618MOL0     C85167   9.367   5.242   4.974 -0.2861  0.9833  0.2004
  618MOL0     C85168   9.486   5.271   4.884 -0.2215  0.1578  0.6128
  618MOL0     C85169   9.587   5.354   4.966 -0.4272 -0.4378  0.0692
  618MOL0     O85170   9.558   5.496   4.949 -0.3979 -0.1610 -0.1533
  618MOL0     C85171   9.637   5.595   5.006 -0.4436  0.0148  0.4867
  618MOL0     C85172   9.574   5.709   5.051 -0.2799  0.7493 -0.7395
  618MOL0     C85173   9.642   5.795   5.129 -0.5776  0.4722 -0.1689
  618MOL0     C85174   9.559   5.887   5.214 -0.1554  0.3970  0.0399
  618MOL0     C85175   9.786   5.792   5.133  0.0817 -0.3776 -0.4345
  618MOL0     C85176   9.865   5.884   5.214  0.0650 -0.3766 -0.8102
  618MOL0     O85177   9.974   5.835   5.276  0.4822  0.2987 -0.2648
  618MOL0     C85178  10.040   5.916   5.370 -0.8809  1.0678  0.2844
  618MOL0     C85179  10.103   6.036   5.340  1.0524  0.1773  0.5584
  618MOL0     C85180  10.150   6.119   5.441  0.3769  0.0761  0.1656
  618MOL0     C85181  10.148   6.081   5.570 -0.5444  0.6264 -0.9001
  618MOL0     O85182  10.205   6.169   5.653 -0.2334  0.2381 -0.7770
  618MOL0     C85183  10.135   6.187   5.787  0.0198 -0.5597 -0.0158
  618MOL0     C85184  10.230   6.236   5.902  2.1059  0.2304  0.5384
  618MOL0     C85185  10.332   6.345   5.864 -0.3017  0.1416 -0.4459
  618MOL0     C85186  10.430   6.377   5.979  0.0192 -0.3226  0.2233
  618MOL0     C85187  10.513   6.505   5.949 -0.5215  1.0572 -0.2224
  618MOL0     C85188  10.626   6.482   5.850 -0.1589 -0.4548 -0.3565
  618MOL0     C85189  10.706   6.617   5.835  0.1968 -1.1320  0.0956
  618MOL0     C85190  10.831   6.589   5.750 -0.1188  0.2512  0.0371
  618MOL0    Cl85191  10.797   6.615   5.574 -0.1366  0.2876 -0.5429
  618MOL0     C85192  10.082   5.966   5.605 -0.2090  0.0875 -0.0582
  618MOL0     C85193  10.028   5.885   5.505  0.8848  0.0064  0.5622
  618MOL0     O85194   9.841   6.007   5.203  0.8037  0.1510  0.3379
  618MOL0     C85195   9.855   5.687   5.064  0.5742  0.0678  0.1854
  618MOL0     C85196   9.781   5.596   4.995  0.5522  0.6333  0.1349
  618MOL0     N85197   9.178   5.004   5.155  0.4960  0.2715  0.6753
  618MOL0     N85198   9.103   5.036   5.253 -0.6261 -0.4883  0.0249
  618MOL0     C85199   8.360   4.899   5.965  0.4302 -0.3392  0.8056
  618MOL0     C85200   8.253   4.825   6.018 -1.0427 -0.7342 -0.3242
  618MOL0     C85201   7.834   4.668   6.071 -0.0836 -0.0251 -0.3718
  618MOL0     C85202   7.871   4.522   6.079 -0.3768 -0.7064 -0.2548
  618MOL0     C85203   7.782   4.422   6.110  0.1279  0.2327 -0.0177
  618MOL0     C85204   7.649   4.454   6.142  0.5390  0.2682  0.0393
  618MOL0     O85205   7.542   4.366   6.160 -0.9076  0.8273 -0.5099
  618MOL0     C85206   7.575   4.227   6.192  0.9540  0.7069  0.2056
  618MOL0     C85207   7.446   4.148   6.230  0.4684  0.0434  0.9049
  618MOL0     C85208   7.386   4.200   6.359  0.7277  0.8364 -0.4128
  618MOL0     C85209   7.271   4.113   6.414 -0.2676 -0.5759 -0.3375
  618MOL0     C85210   7.205   4.186   6.518 -0.7367  0.1579 -0.6869
  618MOL0     C85211   7.135   4.236   6.608 -0.5749  0.9231 -0.3710
  618MOL0     C85212   7.612   4.585   6.124  0.3559 -0.0902 -0.0788
  618MOL0     C85213   7.691   4.693   6.091  0.4743 -0.7231  0.7511
  618MOL0     C85214   7.629   4.839   6.088 -0.4397  0.0231 -0.4706
  618MOL0     H85215   8.057   4.826   5.742  0.3777 -1.7577  1.0029
  618MOL0     H85216   8.250   4.931   5.644 -0.1749  1.1793 -0.2758
  618MOL0     H85217   8.397   5.139   5.647 -2.4184 -3.2152 -0.3526
  618MOL0     H85218   8.478   4.995   5.578 -0.6877  0.5881 -1.3802
  618MOL0     H85219   8.600   5.224   5.723 -2.2785 -1.4170  0.6056
  618MOL0     H85220   8.693   5.075   5.668  1.4003 -0.0977 -2.6245
  618MOL0     H85221   8.664   5.118   5.450  0.7995  0.5713 -0.4303
  618MOL0     H85222   8.553   5.255   5.466  0.6715  0.2479 -1.4231
  618MOL0     H85223   8.722   5.397   5.505 -2.2343 -0.1597  0.9303
  618MOL0     H85224   8.828   5.281   5.575 -1.3850  5.3361  2.1182
  618MOL0     H85225   8.774   5.313   5.270  0.7017  2.1854  1.9316
  618MOL0     H85226   8.870   5.178   5.335 -1.1538 -0.2700 -0.6601
  618MOL0     H85227   8.990   5.379   5.258 -3.1182  0.5027 -1.7607
  618MOL0     H85228   8.925   5.480   5.382 -0.6485 -0.4017  0.0780
  618MOL0     H85229   9.031   5.360   5.561 -0.1420 -2.8978  0.1592
  618MOL0     H85230   9.148   5.422   5.441 -0.0954 -0.1104 -1.8220
  618MOL0     H85231   9.209   5.188   5.505  1.7876  3.3448 -2.6163
  618MOL0     H85232   9.045   5.141   5.494 -2.3910  3.5056  0.6505
  618MOL0     H85233   9.323   5.281   5.273  1.0361 -0.3260  1.0776
  618MOL0     H85234   9.384   5.020   4.980  4.4218 -0.6717 -0.8950
  618MOL0     H85235   9.480   5.112   5.097 -0.4332  0.4126  0.5898
  618MOL0     H85236   9.280   5.233   4.908  0.6993  0.4278 -1.0694
  618MOL0     H85237   9.353   5.327   5.040 -0.7103  1.5732 -0.6335
  618MOL0     H85238   9.531   5.174   4.860 -4.8664 -2.2457  0.4794
  618MOL0     H85239   9.469   5.321   4.789  1.5252 -0.3021  0.0292
  618MOL0     H85240   9.592   5.327   5.072 -0.0795 -1.5724 -0.2170
  618MOL0     H85241   9.685   5.337   4.921 -1.4652 -2.3957 -1.5749
  618MOL0     H85242   9.467   5.721   5.040 -0.3299 -0.2509 -1.5680
  618MOL0     H85243   9.459   5.844   5.224  0.3857 -0.3872  4.4341
  618MOL0     H85244   9.564   5.990   5.176  2.1766 -0.1196 -1.2229
  618MOL0     H85245   9.590   5.880   5.319 -2.8716 -0.8630  0.8539
  618MOL0     H85246  10.106   6.067   5.236  2.7555  1.2410  0.8836
  618MOL0     H85247  10.196   6.210   5.403  0.3736  0.6140  1.4256
  618MOL0     H85248  10.070   6.273   5.766  0.6799  0.2220  1.0362
  618MOL0     H85249  10.087   6.103   5.836  0.5174 -0.7101  0.2245
  618MOL0     H85250  10.161   6.268   5.981 -0.7513 -0.6749 -1.4089
  618MOL0     H85251  10.289   6.151   5.938  2.3527 -0.9987 -2.4719
  618MOL0     H85252  10.275   6.433   5.832  0.0465  0.2532 -0.7607
  618MOL0     H85253  10.393   6.311   5.780 -0.9723 -0.5234 -0.6716
  618MOL0     H85254  10.498   6.296   6.005 -2.1343 -1.9582  1.1027
  618MOL0     H85255  10.369   6.400   6.067  0.6945  0.4387  0.4977
  618MOL0     H85256  10.451   6.589   5.920  1.8281  2.0665 -2.8269
  618MOL0     H85257  10.548   6.536   6.048 -2.5342  0.6370  0.6751
  618MOL0     H85258  10.569   6.459   5.760 -0.2860  0.1788 -0.4429
  618MOL0     H85259  10.698   6.402   5.871 -0.0183  0.2343  2.1100
  618MOL0     H85260  10.736   6.652   5.934 -2.9872 -0.3243  0.8889
  618MOL0     H85261  10.647   6.696   5.786 -1.7835 -3.3676 -1.3387
  618MOL0     H85262  10.875   6.489   5.757  1.4353  0.8421 -0.8092
  618MOL0     H85263  10.908   6.666   5.764 -1.1124  1.4038 -0.6195
  618MOL0     H85264  10.084   5.938   5.710  0.4687 -0.1440 -0.1229
  618MOL0     H85265   9.974   5.793   5.522  0.4004 -0.1784 -1.6979
  618MOL0     H85266   9.963   5.677   5.062  0.4355 -1.5302 -0.7091
  618MOL0     H85267   9.829   5.508   4.952  1.0168  0.4224  1.0466
  618MOL0     H85268   8.443   4.937   6.025 -0.1556  0.0211  1.3979
  618MOL0     H85269   8.267   4.783   6.117 -0.5766  1.1860  0.4712
  618MOL0     H85270   7.975   4.494   6.066  0.0651 -0.0019  1.5149
  618MOL0     H85271   7.809   4.319   6.086  0.3844  0.4673 -0.7776
  618MOL0     H85272   7.605   4.183   6.096 -4.4502  0.3506 -1.7264
  618MOL0     H85273   7.651   4.210   6.268 -1.5564 -0.1012  2.7059
  618MOL0     H85274   7.473   4.046   6.256 -1.1420 -0.5784  0.2595
  618MOL0     H85275   7.377   4.136   6.146  1.3467 -1.7528  0.4005
  618MOL0     H85276   7.472   4.212   6.425  0.3155  3.0778 -0.2100
  618MOL0     H85277   7.346   4.301   6.343 -0.9624  0.0611 -1.3702
  618MOL0     H85278   7.303   4.014   6.448  1.2444  0.0117  0.0442
  618MOL0     H85279   7.195   4.107   6.336 -2.0409  2.4780  0.9875
  618MOL0     H85280   7.086   4.282   6.692  2.2660  1.4548  1.1116
  618MOL0     H85281   7.506   4.608   6.129  0.4959  0.4397  0.7002
  618MOL0     H85282   7.671   4.894   6.173 -0.0926  1.6680 -1.6577
  618MOL0     H85283   7.646   4.898   5.998 -1.5324  0.6110 -0.3156
  618MOL0     H85284   7.520   4.836   6.096 -0.3394 -2.8620  1.8491
  619MOL0     O85285  10.734  11.426   1.589 -0.2829 -0.0579 -0.1568
  619MOL0     C85286  10.755  11.302   1.576 -0.0040  0.3801 -0.2009
  619MOL0     O85287  10.881  11.249   1.562 -0.2911  1.0916  0.5599
  619MOL0     C85288  10.994  11.301   1.606  0.2292  0.6802 -0.8354
  619MOL0     C85289  11.005  11.376   1.721  0.2954 -0.3414 -0.0446
  619MOL0     C85290  11.126  11.440   1.757  0.2187 -0.0623  0.3151
  619MOL0     C85291  11.231  11.429   1.660 -0.3426 -0.7683 -0.0096
  619MOL0     O85292  11.344  11.489   1.710 -0.7346 -0.0106 -0.0148
  619MOL0     C85293  11.468  11.494   1.649 -0.6914 -0.0808  0.0084
  619MOL0     C85294  11.553  11.359   1.640 -0.1938  0.5445 -0.5894
  619MOL0     C85295  11.671  11.366   1.542  0.8013 -0.7908  0.3208
  619MOL0     C85296  11.718  11.226   1.523 -0.6435  0.7108  0.8704
  619MOL0     C85297  11.857  11.226   1.451 -0.4168 -0.3217  0.1430
  619MOL0     C85298  11.920  11.091   1.467 -0.5872  0.2482 -0.2426
  619MOL0     C85299  11.956  11.040   1.604 -0.2792  0.0918  0.3945
  619MOL0     C85300  12.012  11.150   1.708 -0.3517 -0.6531 -0.1913
  619MOL0     N85301  12.049  11.082   1.837  0.6088  0.0330  0.4333
  619MOL0     C85302  11.968  11.082   1.950  0.1043  0.4077 -0.5669
  619MOL0     C85303  12.023  10.978   2.032 -0.2573 -0.5489  0.6134
  619MOL0     C85304  11.960  10.932   2.165 -0.7091 -0.4286  0.9291
  619MOL0     C85305  11.881  10.799   2.145  0.6325  0.1961 -0.6076
  619MOL0     C85306  11.914  10.688   2.245  0.0197 -0.1616 -0.2522
  619MOL0     C85307  12.057  10.652   2.260  0.4565  0.8042  0.4542
  619MOL0     O85308  12.079  10.597   2.395 -0.4204  0.1080 -0.1015
  619MOL0     C85309  12.182  10.501   2.397 -0.0403 -0.1995 -0.0467
  619MOL0     C85310  12.158  10.372   2.349 -0.3055 -0.2131  1.0341
  619MOL0     C85311  12.256  10.273   2.346  0.6598 -0.3195 -0.5662
  619MOL0     C85312  12.220  10.133   2.299  0.0533 -0.1044 -0.3614
  619MOL0     C85313  12.386  10.301   2.405  0.4617  0.4229 -0.3128
  619MOL0     C85314  12.504  10.208   2.415 -0.3625 -0.0204 -0.1519
  619MOL0     O85315  12.621  10.252   2.478 -0.7868  0.4338 -0.3114
  619MOL0     C85316  12.720  10.161   2.509 -0.4331 -0.3784  0.0356
  619MOL0     C85317  12.762  10.052   2.438  0.3401  1.2441  0.6900
  619MOL0     C85318  12.864   9.968   2.474 -0.1633  0.4520  0.4498
  619MOL0     C85319  12.937   9.995   2.593  1.2747  0.4819 -0.5232
  619MOL0     O85320  13.037   9.911   2.648  0.3746 -0.0541  0.6817
  619MOL0     C85321  13.126   9.849   2.546  0.8106  0.6790 -0.0132
  619MOL0     C85322  13.229   9.771   2.627  0.8611 -0.8843  0.3259
  619MOL0     C85323  13.296   9.659   2.557  0.1839 -0.0040 -0.2365
  619MOL0     C85324  13.229   9.529   2.533  0.0968  0.3607 -0.2925
  619MOL0     C85325  13.331   9.438   2.453  0.1340 -0.3577 -0.4339
  619MOL0     C85326  13.258   9.331   2.388  0.1142  0.1600  0.3561
  619MOL0     C85327  13.362   9.249   2.306 -0.1981  0.4788  0.6003
  619MOL0     C85328  13.281   9.150   2.220  0.0591 -0.3914  0.8659
  619MOL0    Cl85329  13.213   9.221   2.070 -0.5151  0.0214 -0.0312
  619MOL0     C85330  12.891  10.105   2.674  0.6978  0.5456 -0.0592
  619MOL0     C85331  12.791  10.183   2.632 -0.5969  0.5522  0.0613
  619MOL0     O85332  12.485  10.092   2.373  0.2533  0.5625  0.4265
  619MOL0     C85333  12.404  10.433   2.465  0.7003  0.0676  0.5790
  619MOL0     C85334  12.308  10.528   2.445 -0.4799 -0.6226  0.4503
  619MOL0     N85335  12.133  10.921   1.961 -0.9385 -1.2490  0.0342
  619MOL0     N85336  12.146  10.988   1.852 -0.2734  0.6237 -0.1655
  619MOL0     C85337  11.216  11.358   1.537  0.1367  0.7592  0.0772
  619MOL0     C85338  11.101  11.297   1.523  0.3846  0.1179 -0.8830
  619MOL0     C85339  10.643  11.216   1.581  0.5206 -1.1581  0.0536
  619MOL0     C85340  10.670  11.086   1.637  0.1214  1.1355  1.0241
  619MOL0     C85341  10.565  10.993   1.645 -1.1474 -0.5700  0.2218
  619MOL0     C85342  10.441  11.018   1.588 -0.1714  0.1137  0.0233
  619MOL0     O85343  10.339  10.925   1.608  0.3382 -0.4370  0.0162
  619MOL0     C85344  10.211  10.971   1.662  0.5879 -0.9152 -0.2903
  619MOL0     C85345  10.138  10.864   1.743  0.0387  0.7055  0.1700
  619MOL0     C85346  10.116  10.731   1.666 -0.7916 -0.5873  0.0456
  619MOL0     C85347  10.080  10.615   1.770  0.7219  0.4852 -0.6851
  619MOL0     C85348   9.945  10.634   1.841  0.1782 -0.0290 -0.1340
  619MOL0     C85349   9.836  10.654   1.894  0.3295  0.1703  0.2423
  619MOL0     C85350  10.417  11.141   1.534 -0.2510 -0.6909 -0.1363
  619MOL0     C85351  10.512  11.245   1.537 -0.1226 -0.4493 -0.2483
  619MOL0     C85352  10.472  11.377   1.483 -0.2693 -0.7718  0.9539
  619MOL0     H85353  10.923  11.366   1.792  0.7913 -5.3413  0.1540
  619MOL0     H85354  11.137  11.483   1.856  0.6612 -3.9438  2.1558
  619MOL0     H85355  11.532  11.561   1.707 -0.5255 -1.0212  0.9401
  619MOL0     H85356  11.465  11.542   1.550  2.2319 -1.3466 -0.7940
  619MOL0     H85357  11.602  11.339   1.736  0.3642 -1.4625 -1.2250
  619MOL0     H85358  11.486  11.275   1.619  1.4735 -1.5529  1.8289
  619MOL0     H85359  11.634  11.417   1.452  0.3840 -0.5142  0.6448
  619MOL0     H85360  11.752  11.423   1.589 -0.5463  1.0056  0.5816
  619MOL0     H85361  11.739  11.174   1.617  2.4373  0.6162  0.2630
  619MOL0     H85362  11.648  11.167   1.464 -1.0321 -0.0390  2.0490
  619MOL0     H85363  11.930  11.287   1.507  3.0436 -1.2306 -2.9825
  619MOL0     H85364  11.848  11.256   1.346 -3.1202 -1.0434  0.0986
  619MOL0     H85365  11.845  11.030   1.415 -1.8080  0.4838  1.2019
  619MOL0     H85366  12.024  11.105   1.434  0.0400  2.0942  2.2563
  619MOL0     H85367  12.031  10.961   1.590 -3.3041 -2.5021 -3.4746
  619MOL0     H85368  11.872  10.995   1.657 -1.2423  0.6827 -0.5964
  619MOL0     H85369  12.101  11.205   1.675 -1.6330  0.9380 -1.1776
  619MOL0     H85370  11.936  11.229   1.712  2.8277  2.7305 -0.8617
  619MOL0     H85371  11.885  11.148   1.971 -2.8344 -3.4719  1.2425
  619MOL0     H85372  11.886  11.008   2.193 -2.4013 -2.5344  2.5385
  619MOL0     H85373  12.030  10.939   2.249  1.2678  1.0298 -0.7522
  619MOL0     H85374  11.776  10.827   2.156  1.0970  1.2665  1.6785
  619MOL0     H85375  11.885  10.761   2.042  1.3739 -0.0776 -0.4897
  619MOL0     H85376  11.875  10.733   2.337  2.6611 -1.0567  1.4107
  619MOL0     H85377  11.853  10.600   2.223  1.7741 -1.3609 -0.5510
  619MOL0     H85378  12.076  10.591   2.172 -0.4160  0.4916  0.4726
  619MOL0     H85379  12.123  10.738   2.242 -1.1930  2.0880  0.2626
  619MOL0     H85380  12.064  10.349   2.301 -0.7801  3.5754 -0.1171
  619MOL0     H85381  12.218  10.072   2.389  2.6847 -0.8569 -0.7408
  619MOL0     H85382  12.310  10.108   2.242  0.0075 -0.1338 -0.4208
  619MOL0     H85383  12.128  10.128   2.240 -0.9353  1.6948  0.9336
  619MOL0     H85384  12.700  10.034   2.350 -1.2847  0.0334  1.9911
  619MOL0     H85385  12.886   9.883   2.410 -0.7170  0.3053  0.4436
  619MOL0     H85386  13.080   9.777   2.478 -0.6223 -0.6467  2.2617
  619MOL0     H85387  13.176   9.921   2.481  1.9312  1.7326  1.9208
  619MOL0     H85388  13.315   9.834   2.654  0.7441 -0.5284 -0.1146
  619MOL0     H85389  13.183   9.738   2.720 -0.1875  0.0671  0.1693
  619MOL0     H85390  13.392   9.636   2.604  0.2118 -1.1355 -0.8231
  619MOL0     H85391  13.316   9.705   2.460 -0.1564  0.2588 -0.1867
  619MOL0     H85392  13.134   9.542   2.481 -0.9278  0.5624  1.5481
  619MOL0     H85393  13.204   9.488   2.631  2.6836  1.0335  0.7540
  619MOL0     H85394  13.365   9.497   2.368 -2.8693  0.0472 -1.4796
  619MOL0     H85395  13.422   9.410   2.507  0.4002 -0.5952 -1.0022
  619MOL0     H85396  13.194   9.368   2.308  0.7825 -2.1491 -1.3436
  619MOL0     H85397  13.199   9.268   2.457 -0.7931 -2.4258 -2.5504
  619MOL0     H85398  13.426   9.204   2.381 -0.5171 -1.3839 -0.1839
  619MOL0     H85399  13.428   9.309   2.242  1.8134 -0.6731  1.5316
  619MOL0     H85400  13.199   9.109   2.280  1.5388 -2.8860  1.3220
  619MOL0     H85401  13.356   9.073   2.205 -1.1940 -1.5206  0.2496
  619MOL0     H85402  12.952  10.144   2.755  2.7989  0.9583 -1.7357
  619MOL0     H85403  12.752  10.269   2.685 -1.9664 -0.3141  0.5039
  619MOL0     H85404  12.499  10.450   2.513  0.6483  0.5404  0.5178
  619MOL0     H85405  12.329  10.634   2.460  0.7068 -0.3929 -2.2554
  619MOL0     H85406  11.287  11.349   1.455  3.6020  1.6440  2.7359
  619MOL0     H85407  11.095  11.242   1.429  2.0869 -2.3723  0.3666
  619MOL0     H85408  10.769  11.046   1.656 -0.1588 -0.0322  0.1261
  619MOL0     H85409  10.581  10.894   1.685  0.4701  0.2561  1.7552
  619MOL0     H85410  10.241  11.054   1.726  0.3529 -2.3436  1.7651
  619MOL0     H85411  10.149  11.003   1.578  3.0094 -0.2925 -1.9484
  619MOL0     H85412  10.041  10.898   1.780  0.4183 -1.7016  3.8588
  619MOL0     H85413  10.198  10.839   1.831  1.6108 -1.8166 -1.4963
  619MOL0     H85414  10.039  10.726   1.589 -1.8536 -0.6186  1.0728
  619MOL0     H85415  10.205  10.704   1.609 -2.0371 -0.6257 -1.9590
  619MOL0     H85416  10.159  10.599   1.843  0.9188 -0.3053 -1.0577
  619MOL0     H85417  10.086  10.524   1.709  1.8851  1.3374 -1.8901
  619MOL0     H85418   9.737  10.673   1.929  0.8171  0.1841  1.6828
  619MOL0     H85419  10.325  11.161   1.480 -0.3332 -4.0285 -1.4589
  619MOL0     H85420  10.366  11.385   1.458  0.2531  0.5149 -1.1228
  619MOL0     H85421  10.514  11.459   1.542 -0.3027  1.7881 -2.2438
  619MOL0     H85422  10.528  11.398   1.391  0.8974  0.2849  1.8794
  620MOL0     O85423   8.055   9.754   0.051  0.6238 -0.1887  0.6012
  620MOL0     C85424   8.007   9.638   0.024 -0.5200  0.5640 -0.8009
  620MOL0     O85425   8.072   9.535  -0.034  0.1077 -0.1474 -0.1325
  620MOL0     C85426   8.199   9.542  -0.095 -0.0547 -0.4457  0.3403
  620MOL0     C85427   8.292   9.641  -0.060 -0.8221 -0.0817  0.0780
  620MOL0     C85428   8.416   9.626  -0.120  0.4654 -0.1992  0.1951
  620MOL0     C85429   8.464   9.525  -0.208 -0.3383 -0.8874 -0.0260
  620MOL0     O85430   8.583   9.519  -0.268 -0.1791  0.3247 -1.1436
  620MOL0     C85431   8.699   9.561  -0.190  0.3336 -0.2166  0.1482
  620MOL0     C85432   8.703   9.509  -0.036  0.2293 -0.0778  0.1654
  620MOL0     C85433   8.728   9.362  -0.036  1.2810  0.0672  0.1002
  620MOL0     C85434   8.768   9.311   0.112 -0.3516  0.3705  0.7878
  620MOL0     C85435   8.748   9.162   0.114 -0.3134  0.5388 -0.8128
  620MOL0     C85436   8.854   9.102   0.219 -0.0767  0.3937  0.5145
  620MOL0     C85437   8.807   8.955   0.245 -0.1629  0.9542 -0.2513
  620MOL0     C85438   8.727   8.937   0.381 -0.4077 -0.0969 -0.2761
  620MOL0     N85439   8.621   8.837   0.367  0.3615 -0.1928 -0.5206
  620MOL0     C85440   8.484   8.871   0.349 -0.1973 -0.5358 -0.7672
  620MOL0     C85441   8.435   8.755   0.301  0.3902  0.8513  0.2208
  620MOL0     C85442   8.294   8.726   0.276  0.6492 -0.2680  0.0648
  620MOL0     C85443   8.222   8.727   0.419  1.8972  0.3098  0.4683
  620MOL0     C85444   8.062   8.712   0.399  0.3426 -0.1089 -0.5313
  620MOL0     C85445   7.986   8.833   0.343  0.8068 -0.4233 -0.0308
  620MOL0     O85446   7.947   8.926   0.446  0.1915 -0.0807 -0.0801
  620MOL0     C85447   7.825   8.901   0.500 -0.3584  0.3231 -0.7545
  620MOL0     C85448   7.710   8.870   0.436 -0.3877 -0.5991 -0.6629
  620MOL0     C85449   7.596   8.841   0.507 -0.0811 -0.4335 -0.4094
  620MOL0     C85450   7.475   8.808   0.414  0.1606  0.1930  0.1244
  620MOL0     C85451   7.599   8.826   0.646 -0.1146  0.5371  0.6192
  620MOL0     C85452   7.488   8.786   0.730  0.2118  0.3538  0.2477
  620MOL0     O85453   7.473   8.858   0.848  0.4031 -0.3355  0.9245
  620MOL0     C85454   7.383   8.793   0.936  0.1963  0.3074  0.6387
  620MOL0     C85455   7.396   8.665   0.989  0.7274  0.9464 -0.5792
  620MOL0     C85456   7.310   8.614   1.090  0.9890  0.0536  0.4297
  620MOL0     C85457   7.213   8.704   1.145 -0.2309  0.1830  0.5227
  620MOL0     O85458   7.140   8.659   1.248 -0.3632  0.2850  0.1288
  620MOL0     C85459   7.080   8.749   1.340 -0.6650  0.7339 -0.4242
  620MOL0     C85460   7.096   8.681   1.477  0.6155  0.6755  0.4334
  620MOL0     C85461   7.241   8.668   1.532  0.0308  0.3681  0.8535
  620MOL0     C85462   7.309   8.805   1.553 -0.0985 -0.0958  0.4075
  620MOL0     C85463   7.391   8.859   1.435 -0.3014 -0.1751  0.1249
  620MOL0     C85464   7.433   9.002   1.459  0.5510 -0.2846 -0.3222
  620MOL0     C85465   7.541   9.044   1.353 -0.7601  1.0418  0.1503
  620MOL0     C85466   7.604   9.179   1.381  0.2662 -0.7807  0.2760
  620MOL0    Cl85467   7.716   9.203   1.246 -0.2670  0.2369  0.0733
  620MOL0     C85468   7.201   8.829   1.093 -0.2826 -0.2533 -0.1637
  620MOL0     C85469   7.284   8.873   0.996 -0.9548  0.9292 -0.3724
  620MOL0     O85470   7.412   8.694   0.687 -0.5180 -0.2700 -0.8589
  620MOL0     C85471   7.726   8.870   0.715  0.3382  0.6781  0.1181
  620MOL0     C85472   7.832   8.914   0.637  0.3745  0.6265 -0.1036
  620MOL0     N85473   8.527   8.658   0.305  0.1540  0.2609  0.0460
  620MOL0     N85474   8.632   8.704   0.357 -0.4846  0.0001 -0.5009
  620MOL0     C85475   8.370   9.424  -0.229 -0.0167 -0.7795  0.9167
  620MOL0     C85476   8.238   9.429  -0.171 -1.1421 -0.8033 -1.0548
  620MOL0     C85477   7.867   9.600   0.063  0.6133  0.3661  0.0375
  620MOL0     C85478   7.814   9.487  -0.009 -0.4603  0.4269 -0.5976
  620MOL0     C85479   7.683   9.445   0.007 -1.0685  0.7129 -0.3695
  620MOL0     C85480   7.602   9.516   0.101 -0.5530 -0.0483  0.2891
  620MOL0     O85481   7.473   9.478   0.110  0.0453  0.5899 -0.0851
  620MOL0     C85482   7.400   9.497   0.236 -0.3764  0.6190  0.4583
  620MOL0     C85483   7.294   9.387   0.255  0.5477 -0.3679 -0.8965
  620MOL0     C85484   7.197   9.417   0.144 -0.6152 -0.2546  0.0262
  620MOL0     C85485   7.070   9.327   0.166  0.9657 -0.1141 -0.3755
  620MOL0     C85486   6.981   9.397   0.266 -0.4421 -0.2081 -0.8964
  620MOL0     C85487   6.928   9.437   0.357 -0.5228 -0.5679 -0.0677
  620MOL0     C85488   7.647   9.636   0.159 -0.1592  1.1938 -0.4441
  620MOL0     C85489   7.777   9.673   0.150 -0.8926 -0.2147  0.1492
  620MOL0     C85490   7.805   9.807   0.229  0.1119  1.3942 -0.1753
  620MOL0     H85491   8.273   9.715   0.017 -3.0379 -0.5994  0.0785
  620MOL0     H85492   8.480   9.709  -0.092  0.1549 -0.6847  2.6018
  620MOL0     H85493   8.708   9.670  -0.182  2.5559 -0.3525  0.2753
  620MOL0     H85494   8.795   9.529  -0.232  0.1151 -2.3350  1.1559
  620MOL0     H85495   8.789   9.564   0.004  1.3585  2.1193 -4.6065
  620MOL0     H85496   8.626   9.538   0.037  2.8092  0.7474  2.7683
  620MOL0     H85497   8.631   9.310  -0.045  0.0813  2.0573  0.8604
  620MOL0     H85498   8.791   9.318  -0.113 -1.5351 -3.4944 -0.4922
  620MOL0     H85499   8.873   9.339   0.125  0.2810 -0.7288 -1.4562
  620MOL0     H85500   8.703   9.362   0.185  2.0874  5.1118  0.0231
  620MOL0     H85501   8.769   9.121   0.014  1.5784  0.9204 -0.6212
  620MOL0     H85502   8.646   9.152   0.150  0.1593 -0.7235  0.2476
  620MOL0     H85503   8.957   9.108   0.181 -0.5954  1.3247 -0.8386
  620MOL0     H85504   8.855   9.161   0.311 -2.5766  1.1187  0.1434
  620MOL0     H85505   8.891   8.886   0.246 -2.7207 -2.3953 -0.7226
  620MOL0     H85506   8.748   8.921   0.159  0.0764 -3.2298  1.0597
  620MOL0     H85507   8.805   8.895   0.446 -0.1491 -3.5695 -2.5395
  620MOL0     H85508   8.700   9.024   0.441  1.2891  0.9248 -0.8938
  620MOL0     H85509   8.424   8.956   0.377  0.9240  0.5176 -1.4915
  620MOL0     H85510   8.274   8.630   0.228 -0.9859 -2.2838  4.2539
  620MOL0     H85511   8.260   8.806   0.210  2.6261 -0.8765 -1.7823
  620MOL0     H85512   8.267   8.642   0.471  0.6813 -1.5260 -1.3422
  620MOL0     H85513   8.243   8.818   0.476 -0.0648  1.2299 -0.1703
  620MOL0     H85514   8.052   8.626   0.333  0.1068  0.3075 -1.0423
  620MOL0     H85515   8.012   8.671   0.487  2.1752 -0.6266  0.3290
  620MOL0     H85516   8.048   8.877   0.265 -0.3931  1.9101  0.2400
  620MOL0     H85517   7.899   8.799   0.286 -0.9271 -0.0365  2.2391
  620MOL0     H85518   7.701   8.883   0.328  0.0404  0.4437 -0.5773
  620MOL0     H85519   7.474   8.869   0.324  0.0599 -0.6046 -0.4244
  620MOL0     H85520   7.387   8.834   0.474 -0.2562  1.0988 -0.8499
  620MOL0     H85521   7.481   8.703   0.386  5.0304  0.2529  0.0998
  620MOL0     H85522   7.466   8.592   0.950  1.0774  1.1432 -0.3203
  620MOL0     H85523   7.301   8.516   1.137  5.1084 -1.1013 -0.7599
  620MOL0     H85524   7.120   8.851   1.343  2.4192 -0.4089  0.1144
  620MOL0     H85525   6.974   8.764   1.316 -0.1810  0.1749 -3.3615
  620MOL0     H85526   7.026   8.729   1.546 -0.3168 -0.3839  0.2399
  620MOL0     H85527   7.058   8.580   1.463  2.0618 -0.2029  2.4583
  620MOL0     H85528   7.309   8.608   1.471 -0.6858 -0.8577  1.2341
  620MOL0     H85529   7.226   8.634   1.635  0.9350  3.1915  2.0122
  620MOL0     H85530   7.388   8.805   1.628  0.7907 -0.2190 -0.5048
  620MOL0     H85531   7.241   8.887   1.579  0.0128 -0.5073  2.0760
  620MOL0     H85532   7.483   8.801   1.425 -0.6756 -0.7429 -0.0789
  620MOL0     H85533   7.330   8.857   1.344  0.5363  2.4522 -0.5773
  620MOL0     H85534   7.468   9.023   1.561  1.2042  2.2199 -0.9845
  620MOL0     H85535   7.342   9.062   1.456 -0.9426 -2.1260  3.0874
  620MOL0     H85536   7.490   9.035   1.257 -4.3422  3.1122  1.6534
  620MOL0     H85537   7.625   8.975   1.354 -0.5657  1.2749  0.0673
  620MOL0     H85538   7.641   9.180   1.484  0.1562  1.8725  0.3494
  620MOL0     H85539   7.527   9.256   1.371  1.0103 -0.2844 -2.6063
  620MOL0     H85540   7.122   8.895   1.126 -0.5944  1.2834 -3.5914
  620MOL0     H85541   7.271   8.978   0.970  0.6409  1.1156 -0.5069
  620MOL0     H85542   7.739   8.880   0.823  1.8232  3.3585 -0.2271
  620MOL0     H85543   7.918   8.959   0.685 -0.3679  1.4828  0.4358
  620MOL0     H85544   8.388   9.338  -0.292 -1.6905 -1.5333  1.4012
  620MOL0     H85545   8.187   9.334  -0.185  2.2011 -3.0645  0.7985
  620MOL0     H85546   7.875   9.424  -0.073 -2.7572 -1.4600 -1.0515
  620MOL0     H85547   7.634   9.362  -0.043  0.8564 -0.2647 -0.7108
  620MOL0     H85548   7.466   9.501   0.323  0.3137  1.9222 -0.0914
  620MOL0     H85549   7.347   9.593   0.227  1.5422  1.8325  1.4842
  620MOL0     H85550   7.258   9.394   0.359  2.7489 -0.9167 -0.0468
  620MOL0     H85551   7.336   9.286   0.248 -1.2622 -1.1333 -1.2492
  620MOL0     H85552   7.167   9.522   0.137  0.7448  0.0186 -3.0051
  620MOL0     H85553   7.248   9.392   0.051  2.0139  1.7574  0.8178
  620MOL0     H85554   7.107   9.232   0.206  3.5045  0.7510 -0.4648
  620MOL0     H85555   7.020   9.316   0.070 -1.0241  1.3161  0.4408
  620MOL0     H85556   6.876   9.484   0.438  0.9110 -0.4919  0.8574
  620MOL0     H85557   7.575   9.699   0.209  1.2311  4.1061 -1.8600
  620MOL0     H85558   7.762   9.900   0.192 -2.0974  0.2097 -0.7738
  620MOL0     H85559   7.766   9.801   0.331 -2.4898 -1.2083 -1.1998
  620MOL0     H85560   7.910   9.815   0.261 -0.2962 -1.9433  2.5709
  621MOL0     O85561   3.227   3.887  10.903 -0.0970 -0.3263 -0.5560
  621MOL0     C85562   3.326   3.917  10.828  0.7669 -0.9511  0.7168
  621MOL0     O85563   3.320   3.948  10.688  0.5123 -0.2794 -0.8923
  621MOL0     C85564   3.197   3.957  10.635  0.7417  0.2805 -0.2091
  621MOL0     C85565   3.148   4.082  10.605 -0.4529 -0.8217  0.4011
  621MOL0     C85566   3.012   4.094  10.584 -0.3491  0.5054 -0.4040
  621MOL0     C85567   2.926   3.979  10.570  0.0637 -0.7455 -1.8764
  621MOL0     O85568   2.810   3.998  10.511  0.2643  0.5903 -0.1838
  621MOL0     C85569   2.698   3.946  10.581 -0.2569 -0.4902 -0.4362
  621MOL0     C85570   2.581   4.015  10.527  0.7944  0.3620 -0.5115
  621MOL0     C85571   2.457   3.975  10.618 -1.1126 -0.3872  0.2642
  621MOL0     C85572   2.334   4.052  10.561  0.0509  0.2207 -0.2950
  621MOL0     C85573   2.210   4.010  10.652  0.3349 -0.5553 -0.2812
  621MOL0     C85574   2.085   4.075  10.590 -0.3700 -0.5858  0.8298
  621MOL0     C85575   1.956   4.096  10.679 -0.5220 -0.1147  0.1642
  621MOL0     C85576   1.897   3.965  10.734 -0.2524  0.1596  0.1697
  621MOL0     N85577   1.813   4.002  10.857  0.2434 -0.0990 -0.3057
  621MOL0     C85578   1.838   3.987  10.989  0.1316  0.0289 -0.7310
  621MOL0     C85579   1.727   4.029  11.051  0.4284 -0.2819  0.0489
  621MOL0     C85580   1.677   4.043  11.187 -1.1672 -0.3179 -0.8734
  621MOL0     C85581   1.693   3.904  11.250 -0.6276  0.5527  0.0055
  621MOL0     C85582   1.665   3.913  11.406 -0.1160 -0.0282  0.7852
  621MOL0     C85583   1.730   3.806  11.478 -0.5175  0.4403 -0.6235
  621MOL0     O85584   1.870   3.809  11.460 -0.8357 -0.1380 -0.5001
  621MOL0     C85585   1.932   3.688  11.441 -0.1994  0.7461  0.1593
  621MOL0     C85586   1.942   3.594  11.539 -0.2913  0.2791  0.1578
  621MOL0     C85587   2.013   3.477  11.525 -1.1285 -0.4152 -0.1684
  621MOL0     C85588   1.998   3.390  11.650 -0.1490  1.0745 -0.0021
  621MOL0     C85589   2.087   3.452  11.401 -0.1792  0.5440 -0.5085
  621MOL0     C85590   2.177   3.335  11.381  0.2334  0.0704  0.5574
  621MOL0     O85591   2.260   3.350  11.270  0.4612 -0.5920  0.5076
  621MOL0     C85592   2.354   3.256  11.251  0.4962 -0.9495  0.3236
  621MOL0     C85593   2.453   3.215  11.335  0.6371  0.2291 -0.2047
  621MOL0     C85594   2.547   3.117  11.303 -0.0005 -0.1538 -0.9208
  621MOL0     C85595   2.540   3.067  11.175 -0.0867 -1.0246  0.7432
  621MOL0     O85596   2.637   2.975  11.148 -0.0308  0.5338  0.5000
  621MOL0     C85597   2.691   2.968  11.016  0.2622  0.3696 -0.0729
  621MOL0     C85598   2.839   2.955  11.023 -0.3577  0.7201  0.6058
  621MOL0     C85599   2.900   2.902  10.890  0.4862  0.4017 -0.1443
  621MOL0     C85600   3.035   2.957  10.854  0.0025 -1.5374  0.1176
  621MOL0     C85601   3.143   2.937  10.952 -0.5757  0.0630 -0.2434
  621MOL0     C85602   3.283   3.004  10.913  0.3766 -0.2759 -0.6479
  621MOL0     C85603   3.379   2.982  11.035  1.3124 -0.7895 -0.0770
  621MOL0     C85604   3.512   3.061  11.024  1.0589  0.2156  0.9019
  621MOL0    Cl85605   3.646   2.973  11.114 -0.1248  0.1267 -0.6812
  621MOL0     C85606   2.439   3.111  11.081  0.3628 -0.2931 -0.1753
  621MOL0     C85607   2.350   3.213  11.124  0.5147 -0.7935 -0.6181
  621MOL0     O85608   2.190   3.243  11.460 -0.0138  0.2071  0.2223
  621MOL0     C85609   2.079   3.557  11.300 -0.3902 -0.9417  1.0983
  621MOL0     C85610   2.008   3.674  11.328 -0.0244  0.1829  0.3493
  621MOL0     N85611   1.643   4.076  10.954 -0.0059 -0.0657 -0.6399
  621MOL0     N85612   1.695   4.060  10.838 -0.2011 -0.0127  0.3192
  621MOL0     C85613   2.992   3.852  10.582  0.4706 -0.3812 -0.6722
  621MOL0     C85614   3.118   3.848  10.621  0.3544 -0.5679  0.0018
  621MOL0     C85615   3.466   3.919  10.887 -0.0275 -0.3209  0.5902
  621MOL0     C85616   3.584   3.897  10.801 -0.0024  0.3654  0.0918
  621MOL0     C85617   3.713   3.894  10.857  0.6521 -0.3853  0.9568
  621MOL0     C85618   3.740   3.922  10.988  0.6191  0.3837 -0.1399
  621MOL0     O85619   3.854   3.949  11.043 -0.2794 -0.7898 -0.3873
  621MOL0     C85620   3.974   3.959  10.951  0.5589 -0.4244 -0.3689
  621MOL0     C85621   4.056   4.069  10.998  0.6408 -0.9198 -0.0668
  621MOL0     C85622   4.106   4.040  11.146  0.2215 -0.5384  0.1987
  621MOL0     C85623   4.183   4.162  11.203 -0.2406 -0.0422 -0.0452
  621MOL0     C85624   4.238   4.147  11.336 -1.3938  0.9889  0.4826
  621MOL0     C85625   4.294   4.128  11.446 -0.4102  0.1241  0.0792
  621MOL0     C85626   3.631   3.950  11.073 -0.1086  0.3052  0.1816
  621MOL0     C85627   3.499   3.954  11.027  0.1895  0.0983  0.2027
  621MOL0     C85628   3.391   3.984  11.129 -0.6270  0.3485 -0.1501
  621MOL0     H85629   3.224   4.158  10.594 -1.8705  0.4690 -0.9282
  621MOL0     H85630   2.977   4.194  10.562  3.1196  1.8389 -0.4614
  621MOL0     H85631   2.708   3.966  10.688  0.7577  3.7045 -1.1524
  621MOL0     H85632   2.685   3.842  10.551 -1.4428 -0.4497 -0.0979
  621MOL0     H85633   2.592   4.124  10.519 -0.9444  0.5415 -0.9576
  621MOL0     H85634   2.566   3.983  10.423 -1.4710  0.8008 -0.3735
  621MOL0     H85635   2.435   3.870  10.599 -3.5005  0.3782 -1.6336
  621MOL0     H85636   2.475   3.986  10.726 -1.5611 -0.7228  0.3764
  621MOL0     H85637   2.344   4.160  10.570 -1.0640  0.4279 -1.4143
  621MOL0     H85638   2.317   4.019  10.458  0.9350 -2.2268  0.2689
  621MOL0     H85639   2.237   4.044  10.752  1.4535 -0.3567 -0.6390
  621MOL0     H85640   2.191   3.903  10.641  0.2567 -0.2844 -4.5248
  621MOL0     H85641   2.125   4.170  10.554  1.8090 -1.6655  0.2735
  621MOL0     H85642   2.053   4.025  10.498 -1.6610  1.1226  0.3001
  621MOL0     H85643   1.886   4.154  10.619 -0.4562  0.1846  0.3705
  621MOL0     H85644   1.984   4.160  10.764  1.7938 -0.1477 -0.4890
  621MOL0     H85645   1.842   3.905  10.661  1.1322 -1.1961  0.1736
  621MOL0     H85646   1.983   3.903  10.762 -0.7413 -1.1500 -1.0808
  621MOL0     H85647   1.926   3.938  11.029  0.6142 -0.3429 -2.1677
  621MOL0     H85648   1.572   4.073  11.189 -1.0675  0.2827  2.9883
  621MOL0     H85649   1.730   4.122  11.240 -1.3173  0.0481 -1.2611
  621MOL0     H85650   1.615   3.842  11.206 -0.6756  0.7868 -0.2464
  621MOL0     H85651   1.793   3.862  11.236  0.8052  3.4776  0.7360
  621MOL0     H85652   1.707   4.006  11.444 -0.9405 -0.2673  2.3643
  621MOL0     H85653   1.557   3.914  11.427 -0.2985  2.6057  0.1191
  621MOL0     H85654   1.706   3.820  11.584 -2.1948 -2.3911 -0.5387
  621MOL0     H85655   1.684   3.708  11.463  0.5824 -0.4292  1.2619
  621MOL0     H85656   1.899   3.609  11.637  1.6694  1.5108  0.8839
  621MOL0     H85657   1.899   3.347  11.661 -0.0571  0.0547 -2.4784
  621MOL0     H85658   2.023   3.454  11.735  1.1465  1.5016 -0.6762
  621MOL0     H85659   2.073   3.311  11.659  1.7796  2.9822  2.3347
  621MOL0     H85660   2.454   3.256  11.436 -0.1890 -1.1707  0.4050
  621MOL0     H85661   2.622   3.095  11.378  0.3931  0.4802 -1.1109
  621MOL0     H85662   2.654   2.884  10.956  3.1716  1.0700 -3.1656
  621MOL0     H85663   2.673   3.057  10.956 -0.3362 -1.7323 -3.2839
  621MOL0     H85664   2.872   3.059  11.016  1.6642  0.0251 -2.4987
  621MOL0     H85665   2.874   2.896  11.108  0.5841  0.2681 -0.0819
  621MOL0     H85666   2.834   2.928  10.806  1.7645 -0.0780 -1.3386
  621MOL0     H85667   2.895   2.794  10.905 -1.8687  0.0465 -2.6319
  621MOL0     H85668   3.012   3.060  10.825 -0.9793 -1.1199  2.1828
  621MOL0     H85669   3.069   2.911  10.761 -0.9910  0.2234 -1.1800
  621MOL0     H85670   3.096   2.975  11.044 -0.0963  0.4182 -0.1434
  621MOL0     H85671   3.164   2.830  10.962 -0.3451  0.0920 -0.4357
  621MOL0     H85672   3.269   3.112  10.898  0.7424 -0.2359 -0.7033
  621MOL0     H85673   3.339   2.958  10.832  0.1821 -1.8292  0.0741
  621MOL0     H85674   3.399   2.875  11.046 -1.3864 -1.5162 -1.4077
  621MOL0     H85675   3.333   3.011  11.130 -3.3300 -2.4457 -1.5412
  621MOL0     H85676   3.492   3.159  11.069 -0.2599  1.2571 -1.7355
  621MOL0     H85677   3.544   3.075  10.921  0.4766  1.3204  0.8600
  621MOL0     H85678   2.422   3.072  10.981  0.7510  0.9884 -0.7729
  621MOL0     H85679   2.270   3.256  11.064  1.6372  0.5192 -1.2106
  621MOL0     H85680   2.137   3.549  11.208 -1.2159 -0.0928  0.4779
  621MOL0     H85681   2.011   3.749  11.250  0.0761 -0.9496 -0.7584
  621MOL0     H85682   2.944   3.755  10.570  0.1602 -0.8834  3.3830
  621MOL0     H85683   3.169   3.753  10.634  1.5494 -0.3231 -2.4705
  621MOL0     H85684   3.573   3.883  10.694  0.1959  0.5481  0.0476
  621MOL0     H85685   3.782   3.888  10.774  0.9650  0.1335  1.1719
  621MOL0     H85686   4.035   3.869  10.937  0.1770 -1.1319  2.0059
  621MOL0     H85687   3.949   3.991  10.850  0.2967  1.1649  0.1626
  621MOL0     H85688   4.001   4.164  10.998  0.4219 -1.0046  1.7202
  621MOL0     H85689   4.142   4.082  10.932  1.4586 -1.9292  0.7575
  621MOL0     H85690   4.023   4.017  11.213 -0.5584 -2.0936 -1.2167
  621MOL0     H85691   4.179   3.960  11.131 -0.2970 -1.0474  0.3581
  621MOL0     H85692   4.108   4.241  11.192  1.4041  1.3313 -2.5927
  621MOL0     H85693   4.262   4.198  11.136 -0.8695  1.9445  0.2010
  621MOL0     H85694   4.339   4.101  11.539 -1.0308 -2.1950 -0.2316
  621MOL0     H85695   3.660   3.975  11.175  6.6313 -3.1242 -0.3491
  621MOL0     H85696   3.439   4.002  11.226 -0.0869  0.6124 -0.4581
  621MOL0     H85697   3.325   4.070  11.120 -2.9124 -1.4897 -3.1082
  621MOL0     H85698   3.331   3.896  11.153 -0.8005  1.2891  3.5769
  622MOL0     O85699   6.146   8.902   3.943 -0.6096 -0.6092 -0.5456
  622MOL0     C85700   6.056   8.897   4.025  0.4987  0.4119 -0.1677
  622MOL0     O85701   6.012   8.999   4.099  0.6254  0.4981 -0.3551
  622MOL0     C85702   6.072   9.123   4.113 -0.4212  0.3287  0.2745
  622MOL0     C85703   5.988   9.233   4.145  0.0212 -0.6285 -0.6889
  622MOL0     C85704   6.042   9.366   4.164  0.8810  0.9954 -0.7317
  622MOL0     C85705   6.179   9.383   4.152 -1.1363  0.5960  0.1696
  622MOL0     O85706   6.218   9.513   4.160 -0.3201  0.5321  0.1958
  622MOL0     C85707   6.352   9.545   4.127  0.0426 -0.4384  0.3440
  622MOL0     C85708   6.359   9.682   4.059  0.0622 -0.0597  0.0292
  622MOL0     C85709   6.503   9.737   4.071  0.4856  0.6166 -0.1904
  622MOL0     C85710   6.531   9.798   4.206  0.4453 -0.1915  0.3538
  622MOL0     C85711   6.657   9.869   4.219 -0.0487 -0.6854  0.8261
  622MOL0     C85712   6.777   9.793   4.265 -1.0200 -0.6126 -0.0049
  622MOL0     C85713   6.903   9.895   4.263  0.9848  0.4369  0.4394
  622MOL0     C85714   6.904  10.011   4.365  0.6750  0.4579 -0.0498
  622MOL0     N85715   7.024  10.095   4.347  0.0046  0.3506 -0.0004
  622MOL0     C85716   7.027  10.222   4.396  0.0593  0.5141 -0.5167
  622MOL0     C85717   7.147  10.262   4.350  0.0761  1.0038  1.0510
  622MOL0     C85718   7.216  10.398   4.374 -0.2966 -0.0469  1.1874
  622MOL0     C85719   7.270  10.395   4.514  0.5690 -0.2842 -1.0391
  622MOL0     C85720   7.347  10.529   4.538  0.5068 -0.1661 -0.5847
  622MOL0     C85721   7.486  10.537   4.467  0.2466  0.0084  0.5075
  622MOL0     O85722   7.560  10.428   4.524  0.2527  0.1134  0.7206
  622MOL0     C85723   7.684  10.413   4.488 -0.2837  0.3680  1.1983
  622MOL0     C85724   7.743  10.294   4.523 -0.3862  0.0600 -0.0668
  622MOL0     C85725   7.872  10.257   4.495 -0.3543 -0.1582  0.3985
  622MOL0     C85726   7.922  10.123   4.538 -0.2119 -0.4855  0.8173
  622MOL0     C85727   7.945  10.350   4.410 -1.2346 -0.2154  1.0785
  622MOL0     C85728   8.088  10.332   4.371  0.3123 -0.3790  0.7419
  622MOL0     O85729   8.137  10.402   4.261 -0.4636 -0.2151  0.4052
  622MOL0     C85730   8.262  10.366   4.226 -0.2182  0.2385 -0.7669
  622MOL0     C85731   8.361  10.450   4.248 -0.2535 -0.0040  0.5143
  622MOL0     C85732   8.497  10.418   4.226  0.0315 -0.3914 -0.0631
  622MOL0     C85733   8.530  10.299   4.172  0.6749 -0.0722 -0.4077
  622MOL0     O85734   8.671  10.271   4.163  0.5767 -0.1022 -0.2428
  622MOL0     C85735   8.700  10.177   4.060  0.2821  0.3156  0.6994
  622MOL0     C85736   8.826  10.230   3.995 -0.6813 -0.1280 -0.0520
  622MOL0     C85737   8.884  10.140   3.889  0.9222 -0.1701  0.0748
  622MOL0     C85738   8.963  10.224   3.786 -1.0018 -0.5690 -0.1405
  622MOL0     C85739   9.079  10.296   3.860 -0.8467  0.2086 -0.9030
  622MOL0     C85740   9.156  10.380   3.761 -0.1424  0.3317  0.9081
  622MOL0     C85741   9.270  10.455   3.827  0.0719 -0.2487 -0.4274
  622MOL0     C85742   9.285  10.593   3.780 -0.6581 -0.3832 -0.6039
  622MOL0    Cl85743   9.423  10.649   3.867  0.0983 -0.8011  0.0884
  622MOL0     C85744   8.424  10.217   4.126 -0.4047 -0.6511  0.3663
  622MOL0     C85745   8.289  10.248   4.161 -1.1624 -0.2965  0.5613
  622MOL0     O85746   8.163  10.281   4.455  0.1597  0.0194 -0.5709
  622MOL0     C85747   7.881  10.468   4.366  0.8208 -0.3184  0.9034
  622MOL0     C85748   7.753  10.494   4.406  0.5062  0.0209  0.0112
  622MOL0     N85749   7.216  10.156   4.282 -0.7847 -0.1402  0.0404
  622MOL0     N85750   7.141  10.050   4.296 -0.5399  0.0131 -0.4244
  622MOL0     C85751   6.258   9.276   4.116 -0.9296 -0.3993 -0.1619
  622MOL0     C85752   6.207   9.151   4.106 -1.5871  0.1940  0.3524
  622MOL0     C85753   5.985   8.769   4.013  0.2487 -1.0209  0.3648
  622MOL0     C85754   5.872   8.774   4.093 -0.2989 -0.4907 -0.2377
  622MOL0     C85755   5.785   8.669   4.107  0.0118 -0.3510 -0.3305
  622MOL0     C85756   5.816   8.545   4.051 -0.7256  0.1693  1.0161
  622MOL0     O85757   5.745   8.426   4.064 -0.3745 -0.5222 -0.0330
  622MOL0     C85758   5.601   8.435   4.069 -0.7602 -0.4420 -0.8147
  622MOL0     C85759   5.528   8.494   3.951  0.1006 -0.1229  0.3351
  622MOL0     C85760   5.499   8.396   3.837 -0.3748 -0.1896 -0.3893
  622MOL0     C85761   5.621   8.347   3.775 -0.5642 -0.3073  0.4414
  622MOL0     C85762   5.705   8.456   3.733 -0.7412  0.1756  1.0263
  622MOL0     C85763   5.772   8.538   3.676 -0.2248 -0.2668 -0.4023
  622MOL0     C85764   5.940   8.527   3.984 -0.0961  0.1245 -0.8332
  622MOL0     C85765   6.024   8.636   3.968 -0.0557 -0.3651  0.8504
  622MOL0     C85766   6.155   8.613   3.894  0.3666  0.3765 -0.4128
  622MOL0     H85767   5.882   9.218   4.166  0.6766 -2.9263  1.5588
  622MOL0     H85768   5.985   9.450   4.201  3.3704  1.5172  2.2794
  622MOL0     H85769   6.395   9.466   4.065 -0.2572 -0.3179 -0.0165
  622MOL0     H85770   6.411   9.549   4.219 -1.1560 -0.6550  1.1466
  622MOL0     H85771   6.342   9.662   3.953 -2.3891 -0.7604  0.4986
  622MOL0     H85772   6.284   9.757   4.084 -0.1642 -0.1127 -0.4906
  622MOL0     H85773   6.575   9.656   4.051  1.2776  0.6933  2.0358
  622MOL0     H85774   6.523   9.823   4.006  2.2681 -1.3118 -2.3937
  622MOL0     H85775   6.456   9.876   4.222  0.2948 -0.5119  1.2670
  622MOL0     H85776   6.523   9.722   4.284  2.6975  0.2303  1.0458
  622MOL0     H85777   6.640   9.936   4.303  1.2449  1.0603 -0.2446
  622MOL0     H85778   6.686   9.933   4.135 -0.6542 -0.3041  0.9037
  622MOL0     H85779   6.770   9.739   4.360 -1.8905  0.1895  0.3955
  622MOL0     H85780   6.791   9.719   4.185 -2.2451 -1.8666  0.8872
  622MOL0     H85781   6.906   9.932   4.160  1.6639  2.6542  1.1958
  622MOL0     H85782   6.987   9.826   4.278 -1.9489 -3.2506  1.2558
  622MOL0     H85783   6.814  10.068   4.343  0.2324  0.5910  1.9259
  622MOL0     H85784   6.903   9.967   4.465 -0.2509 -2.6363 -1.3002
  622MOL0     H85785   6.943  10.284   4.427  0.9259  1.2508  0.4221
  622MOL0     H85786   7.136  10.472   4.361 -1.2805 -1.1862  0.4496
  622MOL0     H85787   7.285  10.420   4.292  0.9883 -2.0910  1.6531
  622MOL0     H85788   7.190  10.378   4.587  1.5719  0.9636  0.4333
  622MOL0     H85789   7.343  10.314   4.518  4.4358  2.8733 -1.1619
  622MOL0     H85790   7.281  10.614   4.518  3.0006  2.3571  1.1320
  622MOL0     H85791   7.378  10.533   4.643  0.8000  0.0336 -0.6787
  622MOL0     H85792   7.470  10.518   4.361  0.2106  0.4973  0.4245
  622MOL0     H85793   7.528  10.637   4.480 -0.6882  0.2428  2.0871
  622MOL0     H85794   7.700  10.225   4.595 -3.9217  0.6410 -1.4089
  622MOL0     H85795   7.968  10.131   4.637  1.0501 -1.9860  0.3846
  622MOL0     H85796   8.004  10.081   4.478  0.4859 -1.2075  2.2366
  622MOL0     H85797   7.844  10.047   4.535  1.5505 -2.3520 -1.4144
  622MOL0     H85798   8.339  10.550   4.283 -2.3001  0.2200 -1.2311
  622MOL0     H85799   8.571  10.495   4.243 -2.1883  2.0070 -0.5836
  622MOL0     H85800   8.710  10.077   4.103  1.8553  0.3842  0.5381
  622MOL0     H85801   8.634  10.180   3.972  2.1135  0.5329 -0.7355
  622MOL0     H85802   8.818  10.330   3.950  0.4172 -0.2427 -0.5372
  622MOL0     H85803   8.902  10.239   4.072  0.7955 -0.6478 -1.4054
  622MOL0     H85804   8.813  10.093   3.821  0.1563  1.4787 -0.3126
  622MOL0     H85805   8.946  10.066   3.941 -0.4938 -2.6283 -1.5047
  622MOL0     H85806   8.908  10.306   3.739  0.5764  0.2289 -0.6774
  622MOL0     H85807   9.006  10.154   3.713 -0.2024 -1.5862  1.2624
  622MOL0     H85808   9.047  10.360   3.944  0.8392  0.1093 -0.1548
  622MOL0     H85809   9.147  10.224   3.905 -1.6685  0.9788  1.8394
  622MOL0     H85810   9.091  10.445   3.702 -0.9636 -2.4457 -1.5297
  622MOL0     H85811   9.198  10.309   3.689 -1.8805  1.9504 -1.8816
  622MOL0     H85812   9.362  10.399   3.809 -0.5174 -1.7177  0.9127
  622MOL0     H85813   9.266  10.460   3.936 -3.6771 -0.1434 -0.4239
  622MOL0     H85814   9.195  10.652   3.801  0.2842  0.4752  1.3128
  622MOL0     H85815   9.305  10.597   3.673  1.6451  0.5263 -0.1983
  622MOL0     H85816   8.435  10.117   4.085  0.7200  0.4081 -2.0440
  622MOL0     H85817   8.211  10.181   4.127 -2.1083  1.0281  0.0476
  622MOL0     H85818   7.925  10.538   4.295 -1.8718 -0.2424 -0.8031
  622MOL0     H85819   7.714  10.586   4.366  0.0602 -0.4441 -0.6478
  622MOL0     H85820   6.367   9.278   4.117 -0.8425  0.9822 -2.6792
  622MOL0     H85821   6.281   9.071   4.108  0.7663  2.1113  4.3192
  622MOL0     H85822   5.835   8.861   4.146 -1.0953  0.0732 -1.6520
  622MOL0     H85823   5.698   8.683   4.171  2.8626  0.4862  3.7229
  622MOL0     H85824   5.556   8.335   4.078 -0.3145 -0.5103  0.8697
  622MOL0     H85825   5.582   8.488   4.162  2.1918 -0.9260  0.1527
  622MOL0     H85826   5.587   8.582   3.923  0.6182 -0.5334  0.1079
  622MOL0     H85827   5.432   8.528   3.989  1.6196  1.0816  3.4957
  622MOL0     H85828   5.453   8.303   3.873  0.6679 -0.7702 -0.5209
  622MOL0     H85829   5.439   8.448   3.762 -1.4560  0.6571  0.9942
  622MOL0     H85830   5.594   8.283   3.690 -1.1217 -0.7028  0.9084
  622MOL0     H85831   5.681   8.283   3.841 -1.8619 -0.1989  1.7682
  622MOL0     H85832   5.820   8.611   3.614 -0.5888  0.7326  0.4656
  622MOL0     H85833   5.976   8.427   3.958  2.6275  0.8456 -0.2109
  622MOL0     H85834   6.147   8.629   3.786 -0.0740  1.5703 -0.2209
  622MOL0     H85835   6.239   8.677   3.922 -0.7215  2.1301 -0.9868
  622MOL0     H85836   6.198   8.515   3.916  0.5388  0.8958  1.8260
  623MOL0     O85837   4.885   9.756   7.256 -0.4555  1.1135 -0.1742
  623MOL0     C85838   4.857   9.828   7.349  0.3234  0.2437 -0.3923
  623MOL0     O85839   4.929   9.932   7.396 -0.2939 -0.0610 -0.3913
  623MOL0     C85840   5.009   9.989   7.301  0.2820  0.7998 -0.3188
  623MOL0     C85841   4.956  10.086   7.220 -0.7487  0.5795 -1.0009
  623MOL0     C85842   5.019  10.124   7.104 -0.0539 -0.3886  0.3562
  623MOL0     C85843   5.157  10.093   7.075  0.0970  0.1368 -0.5332
  623MOL0     O85844   5.214  10.145   6.965  0.9271  0.3018  0.2000
  623MOL0     C85845   5.355  10.117   6.950  1.0880  0.5225 -0.2932
  623MOL0     C85846   5.412  10.202   6.833 -0.4895  1.1833 -0.4073
  623MOL0     C85847   5.338  10.180   6.695  0.2446 -0.0943  0.2863
  623MOL0     C85848   5.264  10.308   6.652  0.1829 -0.1746  0.4074
  623MOL0     C85849   5.345  10.426   6.615  0.2980  0.0510  0.6533
  623MOL0     C85850   5.470  10.391   6.524  0.4564  0.2829 -0.4435
  623MOL0     C85851   5.548  10.521   6.490  0.7011 -0.2615  0.5045
  623MOL0     C85852   5.635  10.559   6.610 -0.4025  0.4647 -0.0028
  623MOL0     N85853   5.748  10.470   6.641  0.2022 -0.3352 -0.0835
  623MOL0     C85854   5.861  10.469   6.566  0.4306  0.5767  0.7476
  623MOL0     C85855   5.945  10.386   6.624  0.0468  0.8474  0.0991
  623MOL0     C85856   6.082  10.376   6.582 -1.1935 -0.0851 -0.4187
  623MOL0     C85857   6.179  10.407   6.704  0.4052 -0.8284 -0.2525
  623MOL0     C85858   6.319  10.439   6.671  0.2013 -0.0498 -0.4814
  623MOL0     C85859   6.397  10.470   6.806  0.5700 -0.1800  0.7050
  623MOL0     O85860   6.538  10.491   6.771  1.2235  0.5795  1.2839
  623MOL0     C85861   6.631  10.526   6.864 -0.4215  0.0198 -0.0121
  623MOL0     C85862   6.758  10.574   6.828 -0.6458 -0.5864 -0.6749
  623MOL0     C85863   6.867  10.586   6.921 -0.1612 -0.8354  0.3414
  623MOL0     C85864   7.003  10.616   6.867  0.2758 -0.8125  0.4416
  623MOL0     C85865   6.844  10.545   7.048 -0.7746  0.3973 -0.5045
  623MOL0     C85866   6.951  10.541   7.155  0.1682 -0.0214  0.4503
  623MOL0     O85867   6.900  10.522   7.280 -0.2171  0.3282  0.9731
  623MOL0     C85868   6.978  10.500   7.394 -0.7361  0.2048 -0.2070
  623MOL0     C85869   6.940  10.400   7.484 -0.3514  0.3418 -0.1715
  623MOL0     C85870   7.015  10.388   7.600 -0.1417  0.1562 -0.6412
  623MOL0     C85871   7.117  10.473   7.646  0.1827 -0.7773  0.3408
  623MOL0     O85872   7.181  10.474   7.765  0.0052 -0.4657  0.3774
  623MOL0     C85873   7.123  10.409   7.882 -0.1118 -0.8973 -0.1684
  623MOL0     C85874   7.164  10.270   7.900  0.1844 -0.3419 -0.6080
  623MOL0     C85875   7.110  10.208   8.030  0.5535  0.4287 -0.6837
  623MOL0     C85876   6.984  10.122   8.014 -0.2481  0.8400  0.1244
  623MOL0     C85877   6.954  10.045   8.148  0.4148  0.2435  0.0956
  623MOL0     C85878   6.920  10.117   8.278 -0.0832  0.0086 -0.8160
  623MOL0     C85879   6.933  10.028   8.397  0.0521 -0.5022 -0.2124
  623MOL0     C85880   6.797   9.961   8.419  0.3238  0.0473 -0.7294
  623MOL0    Cl85881   6.818   9.811   8.518  0.2502  0.4127  0.5365
  623MOL0     C85882   7.154  10.573   7.548 -0.6591  0.5869 -0.5425
  623MOL0     C85883   7.079  10.586   7.432  0.2903  0.5859  0.4926
  623MOL0     O85884   7.070  10.561   7.134 -0.4273 -0.2509  0.3998
  623MOL0     C85885   6.717  10.503   7.094 -0.6072 -0.2739  0.0883
  623MOL0     C85886   6.617  10.492   7.000  0.2894 -0.9334 -0.7499
  623MOL0     N85887   5.882  10.328   6.731 -0.0862  1.1089  0.3544
  623MOL0     N85888   5.762  10.375   6.743 -0.4952  0.0313 -0.7096
  623MOL0     C85889   5.210  10.005   7.172  0.1193  0.6996 -0.4633
  623MOL0     C85890   5.135   9.949   7.273  0.4560 -0.6699 -0.2286
  623MOL0     C85891   4.728   9.804   7.421 -0.5111 -0.0831 -0.6382
  623MOL0     C85892   4.666   9.913   7.499 -0.1752 -0.6902  0.3508
  623MOL0     C85893   4.543   9.891   7.558 -0.1385 -0.4823 -0.1513
  623MOL0     C85894   4.482   9.765   7.562  0.2298  0.0288 -0.4945
  623MOL0     O85895   4.386   9.739   7.654  0.2177 -0.6962 -0.4779
  623MOL0     C85896   4.264   9.820   7.650  0.3402 -0.1925  0.1335
  623MOL0     C85897   4.157   9.758   7.553  0.2597 -0.3306 -0.0442
  623MOL0     C85898   4.106   9.622   7.605  0.4281 -0.0846 -1.1274
  623MOL0     C85899   4.043   9.533   7.490  0.1152 -0.6309 -0.9230
  623MOL0     C85900   3.938   9.603   7.421 -0.2771  0.2285 -0.0887
  623MOL0     C85901   3.872   9.671   7.343  0.6922 -0.1916  0.1714
  623MOL0     C85902   4.539   9.660   7.481 -1.1642 -0.0361 -0.6913
  623MOL0     C85903   4.662   9.682   7.407  1.1516  0.6051 -0.5164
  623MOL0     C85904   4.729   9.549   7.356 -0.4817 -0.3318 -0.3802
  623MOL0     H85905   4.856  10.125   7.237 -0.9550 -0.6453  0.9444
  623MOL0     H85906   4.968  10.191   7.037  2.7954  3.1600  1.4277
  623MOL0     H85907   5.376  10.013   6.924  0.7147  0.3450  0.0964
  623MOL0     H85908   5.410  10.141   7.041 -1.4505  0.6522  1.3143
  623MOL0     H85909   5.415  10.303   6.876 -0.6309  0.0535  2.5172
  623MOL0     H85910   5.520  10.187   6.824 -0.4932  1.0635 -0.2607
  623MOL0     H85911   5.412  10.141   6.625 -1.5841 -0.1164 -1.7530
  623MOL0     H85912   5.267  10.098   6.707  2.0698 -2.1528 -2.0701
  623MOL0     H85913   5.207  10.286   6.561 -2.5848  3.0270  1.1703
  623MOL0     H85914   5.184  10.336   6.721  1.2076  1.9588  0.8074
  623MOL0     H85915   5.372  10.462   6.715 -2.2547  2.1443  0.6829
  623MOL0     H85916   5.279  10.498   6.568 -0.2005 -0.3724  0.7029
  623MOL0     H85917   5.535  10.313   6.563 -0.8026 -0.7351 -0.2922
  623MOL0     H85918   5.429  10.347   6.433  0.4533  0.5139 -0.5544
  623MOL0     H85919   5.474  10.596   6.462 -0.2171 -1.5672 -0.7466
  623MOL0     H85920   5.607  10.496   6.401  0.7708  3.0467 -0.4892
  623MOL0     H85921   5.685  10.651   6.577 -0.7620 -0.7846 -4.6454
  623MOL0     H85922   5.573  10.579   6.698  0.5302 -2.9508  1.6016
  623MOL0     H85923   5.881  10.541   6.488  1.7945  1.1407  1.5794
  623MOL0     H85924   6.105  10.447   6.502  3.1277  2.3788  2.5829
  623MOL0     H85925   6.102  10.274   6.547 -2.1861 -0.4629  0.0781
  623MOL0     H85926   6.142  10.504   6.739 -2.1950 -1.8427  0.0237
  623MOL0     H85927   6.174  10.322   6.773 -1.4924 -0.2994  0.3229
  623MOL0     H85928   6.360  10.350   6.622 -0.3278 -1.0922  0.8705
  623MOL0     H85929   6.334  10.522   6.602  0.1483  2.5754  2.4262
  623MOL0     H85930   6.367  10.564   6.854  2.3054  0.4746  0.5642
  623MOL0     H85931   6.395  10.385   6.874  0.9075 -0.8197 -0.0827
  623MOL0     H85932   6.779  10.603   6.726  0.3596 -1.2350 -0.6714
  623MOL0     H85933   7.048  10.699   6.922  1.6871  0.1346 -1.9537
  623MOL0     H85934   6.996  10.635   6.759 -2.7091 -1.9291  0.3426
  623MOL0     H85935   7.060  10.531   6.905 -1.0877 -0.2279  4.1348
  623MOL0     H85936   6.861  10.327   7.470  0.4061 -0.3549 -0.9049
  623MOL0     H85937   6.986  10.316   7.677 -1.0011 -0.5004 -1.5650
  623MOL0     H85938   7.157  10.457   7.974 -2.0172 -0.9358  0.6102
  623MOL0     H85939   7.016  10.426   7.870 -0.0123 -0.7484 -0.9266
  623MOL0     H85940   7.126  10.209   7.818 -0.5095  1.4923 -1.7127
  623MOL0     H85941   7.274  10.271   7.907  0.2376 -2.3044 -0.6696
  623MOL0     H85942   7.101  10.278   8.114 -3.9833 -2.3601  1.5546
  623MOL0     H85943   7.186  10.133   8.054 -0.3534 -0.5565 -0.8210
  623MOL0     H85944   7.001  10.061   7.925 -0.4441  3.7686 -2.0533
  623MOL0     H85945   6.897  10.185   7.995  0.4733  2.4840  1.9560
  623MOL0     H85946   6.875   9.975   8.120  1.0421 -0.5575  0.3016
  623MOL0     H85947   7.041   9.983   8.172  0.2635 -1.3382 -3.0108
  623MOL0     H85948   6.819  10.161   8.278  0.4799  1.3613 -1.2662
  623MOL0     H85949   6.986  10.203   8.292 -1.0857  0.6329  0.2836
  623MOL0     H85950   6.960  10.086   8.485 -1.1382  0.0427 -0.1896
  623MOL0     H85951   7.009   9.951   8.380  0.0246 -0.6746  0.4007
  623MOL0     H85952   6.752   9.922   8.327 -2.6401 -2.3857  1.5441
  623MOL0     H85953   6.734  10.034   8.470 -0.0267  0.9556 -2.3919
  623MOL0     H85954   7.237  10.638   7.574 -0.8537 -0.6664  4.0181
  623MOL0     H85955   7.098  10.674   7.371 -3.6391  0.4600 -1.1572
  623MOL0     H85956   6.691  10.472   7.195 -0.5488  3.3645  1.3440
  623MOL0     H85957   6.526  10.451   7.043  0.4077 -1.0515 -0.6089
  623MOL0     H85958   5.312   9.976   7.150  0.2514  0.3587  0.5491
  623MOL0     H85959   5.180   9.870   7.332 -0.5637  0.1299  1.7285
  623MOL0     H85960   4.711  10.009   7.520  0.2992 -0.5813 -1.0463
  623MOL0     H85961   4.504   9.970   7.622  2.0165  1.7897 -1.4547
  623MOL0     H85962   4.226   9.842   7.750 -1.9592  1.7323 -1.0467
  623MOL0     H85963   4.280   9.917   7.602  0.6622 -0.5474 -0.4889
  623MOL0     H85964   4.203   9.755   7.454  3.1767  4.0800  0.9157
  623MOL0     H85965   4.068   9.820   7.536  1.2985  1.1476 -0.2656
  623MOL0     H85966   4.193   9.575   7.650  0.0952  1.7805  1.7068
  623MOL0     H85967   4.043   9.658   7.686  1.4225  0.7890 -0.7184
  623MOL0     H85968   4.011   9.442   7.541 -0.3107 -0.2117 -0.4242
  623MOL0     H85969   4.122   9.511   7.418  0.9705 -2.2411  0.4225
  623MOL0     H85970   3.822   9.747   7.286 -1.6669 -0.4393  1.7261
  623MOL0     H85971   4.498   9.560   7.495 -0.0176 -0.4909 -0.4633
  623MOL0     H85972   4.821   9.538   7.414 -1.8801  1.4982  2.3709
  623MOL0     H85973   4.671   9.463   7.391  0.1155  0.2805  2.3089
  623MOL0     H85974   4.744   9.554   7.248  1.3115  0.2147 -0.1343
  624MOL0     O85975   1.947   1.709   9.391  0.6618  0.3276  0.9688
  624MOL0     C85976   1.894   1.689   9.278 -0.4388  0.1609  0.2003
  624MOL0     O85977   1.755   1.679   9.262 -0.2815 -0.5956  0.2111
  624MOL0     C85978   1.675   1.655   9.369 -0.1684 -0.1486 -0.6562
  624MOL0     C85979   1.673   1.534   9.442  0.3412 -0.8680  0.3876
  624MOL0     C85980   1.593   1.519   9.559  0.6705 -0.2607  0.5709
  624MOL0     C85981   1.509   1.616   9.606 -0.3014  0.6729 -0.3981
  624MOL0     O85982   1.410   1.611   9.704 -0.1407 -0.1134  0.2585
  624MOL0     C85983   1.357   1.499   9.766  0.0799  0.0851  0.4848
  624MOL0     C85984   1.252   1.428   9.670 -0.3479 -0.3291  0.3109
  624MOL0     C85985   1.143   1.531   9.622  1.0383  0.1970  0.7835
  624MOL0     C85986   1.056   1.593   9.729  0.9232 -0.7304  0.4237
  624MOL0     C85987   1.124   1.731   9.751 -0.0311 -0.4537  0.1283
  624MOL0     C85988   1.050   1.821   9.844 -0.5746  0.4573 -0.3205
  624MOL0     C85989   1.120   1.951   9.868  0.0500 -0.0860  0.3165
  624MOL0     C85990   1.065   2.016   9.996 -0.3473 -0.5094  0.3343
  624MOL0     N85991   1.124   2.147  10.014  0.2663 -0.2440 -0.2104
  624MOL0     C85992   1.259   2.193   9.995 -0.1305  0.4055 -0.6714
  624MOL0     C85993   1.252   2.329  10.000 -1.1065 -0.1719  0.2024
  624MOL0     C85994   1.356   2.431   9.986  0.5595  0.2433  0.3174
  624MOL0     C85995   1.487   2.374   9.914  0.8154 -0.9977  1.1139
  624MOL0     C85996   1.582   2.491   9.887 -0.2557  0.0246  0.2120
  624MOL0     C85997   1.514   2.623   9.826  0.4897 -0.0622 -0.4371
  624MOL0     O85998   1.443   2.576   9.715 -0.3957  0.7425 -0.6248
  624MOL0     C85999   1.351   2.665   9.659  1.0051 -0.3890  0.2229
  624MOL0     C86000   1.327   2.795   9.693 -0.3335 -0.1433  1.2718
  624MOL0     C86001   1.234   2.875   9.623  0.2979  0.0632  0.1272
  624MOL0     C86002   1.230   3.026   9.649  0.1488  0.6968 -0.6636
  624MOL0     C86003   1.147   2.821   9.533 -0.5034  0.3425 -0.0416
  624MOL0     C86004   1.039   2.891   9.454  0.5443  0.3694  0.1240
  624MOL0     O86005   0.908   2.855   9.484  0.4656 -0.3701 -0.0448
  624MOL0     C86006   0.789   2.907   9.442  0.1862 -0.5529 -0.2055
  624MOL0     C86007   0.771   3.018   9.359  0.1269  0.7854  0.5527
  624MOL0     C86008   0.649   3.079   9.326  0.8209 -0.4043  0.4900
  624MOL0     C86009   0.530   3.011   9.363 -1.2659  0.2174  0.2514
  624MOL0     O86010   0.409   3.066   9.330 -0.3018  0.8284 -0.3415
  624MOL0     C86011   0.381   3.180   9.421  0.1116 -0.6027  0.7926
  624MOL0     C86012   0.259   3.253   9.363  0.0111 -0.6179 -1.6011
  624MOL0     C86013   0.296   3.368   9.266 -0.0851 -0.4804  0.0516
  624MOL0     C86014   0.171   3.429   9.187 -0.2418 -0.4889 -1.2214
  624MOL0     C86015   0.106   3.553   9.253 -0.7623  0.5521  0.5297
  624MOL0     C86016   0.194   3.680   9.250 -0.3467  0.4533 -0.2544
  624MOL0     C86017   0.113   3.816   9.280 -0.0447  0.2162  0.6786
  624MOL0     C86018   0.193   3.949   9.270 -0.5691 -0.2990 -1.3161
  624MOL0    Cl86019   0.349   3.935   9.353 -0.0810 -0.1338 -0.0660
  624MOL0     C86020   0.537   2.890   9.425  0.1352  0.1662  0.8838
  624MOL0     C86021   0.663   2.845   9.476 -0.0538 -1.0722  1.1327
  624MOL0     O86022   1.077   2.979   9.384 -0.2812 -0.5914  0.0807
  624MOL0     C86023   1.161   2.681   9.509  0.5161 -0.2919  0.1787
  624MOL0     C86024   1.268   2.608   9.567  0.2017 -0.5182 -0.1219
  624MOL0     N86025   1.127   2.367  10.035  0.0612  0.0934  0.0648
  624MOL0     N86026   1.050   2.263  10.041 -0.1451 -0.7693 -0.3533
  624MOL0     C86027   1.514   1.733   9.538  0.5600 -0.0057 -0.1634
  624MOL0     C86028   1.601   1.753   9.428 -0.0147 -0.2622 -0.1771
  624MOL0     C86029   1.987   1.672   9.162  0.0944 -0.4241  0.6602
  624MOL0     C86030   2.123   1.718   9.176 -0.0669  0.3991  0.1951
  624MOL0     C86031   2.226   1.686   9.081 -0.5299 -0.5560  0.3594
  624MOL0     C86032   2.198   1.620   8.965  0.5698 -0.6378 -0.5264
  624MOL0     O86033   2.303   1.611   8.875 -0.9575  0.4597 -0.5292
  624MOL0     C86034   2.313   1.478   8.813  0.7203 -0.3199  0.1864
  624MOL0     C86035   2.262   1.504   8.668 -0.6871  0.4474 -0.1020
  624MOL0     C86036   2.290   1.381   8.578  0.5809  0.0558  0.1916
  624MOL0     C86037   2.439   1.368   8.543 -0.3840  0.1371  0.3286
  624MOL0     C86038   2.510   1.484   8.480  0.1227  0.8869  0.5919
  624MOL0     C86039   2.576   1.572   8.437  0.0331  0.6119 -0.2988
  624MOL0     C86040   2.055   1.584   8.947  0.2123 -0.4931 -0.3274
  624MOL0     C86041   1.959   1.611   9.037  0.6811  0.0644 -0.0991
  624MOL0     C86042   1.821   1.579   9.003  0.7607 -0.2118  0.2977
  624MOL0     H86043   1.734   1.449   9.413  2.4567 -0.4578  3.2237
  624MOL0     H86044   1.612   1.432   9.621 -0.8484 -0.4520  0.7902
  624MOL0     H86045   1.301   1.524   9.856  1.4101 -0.9467  1.6436
  624MOL0     H86046   1.436   1.426   9.788 -0.3845 -0.3558  0.6888
  624MOL0     H86047   1.301   1.381   9.584  0.7028  0.6286  0.3732
  624MOL0     H86048   1.200   1.358   9.736  1.1760 -0.9514  0.8977
  624MOL0     H86049   1.182   1.608   9.554 -1.2316  0.7388  0.0179
  624MOL0     H86050   1.067   1.478   9.565 -0.8280  2.0396  1.4136
  624MOL0     H86051   0.953   1.600   9.694  0.6009 -1.6922  1.1489
  624MOL0     H86052   1.051   1.547   9.828 -1.3919 -0.3262  0.5537
  624MOL0     H86053   1.128   1.784   9.656 -2.8610 -1.8493 -0.9026
  624MOL0     H86054   1.229   1.721   9.777  0.3827 -1.3979 -1.8036
  624MOL0     H86055   0.949   1.845   9.809 -0.4136  1.1395 -0.3268
  624MOL0     H86056   1.034   1.767   9.938  3.5023 -1.3307 -0.4278
  624MOL0     H86057   1.094   2.016   9.784  0.3810  1.5764  1.4623
  624MOL0     H86058   1.227   1.931   9.875  0.2716  0.1518 -1.8363
  624MOL0     H86059   0.956   2.016   9.989 -0.3527 -2.9257 -0.4674
  624MOL0     H86060   1.088   1.954  10.082 -0.6862 -1.8628 -0.5206
  624MOL0     H86061   1.339   2.125   9.964 -0.2506 -1.1214  2.0883
  624MOL0     H86062   1.369   2.479  10.083 -1.2086 -2.0246  1.7909
  624MOL0     H86063   1.307   2.498   9.916  1.8040  0.6586 -0.1835
  624MOL0     H86064   1.537   2.301   9.979  0.4785 -2.1167  0.1615
  624MOL0     H86065   1.465   2.325   9.818 -0.8952  3.4364 -1.0465
  624MOL0     H86066   1.625   2.518   9.984 -1.6354  1.2844  0.4947
  624MOL0     H86067   1.662   2.453   9.822 -1.6576  0.7892 -2.0805
  624MOL0     H86068   1.456   2.680   9.900  1.2065  0.5804 -0.3635
  624MOL0     H86069   1.593   2.691   9.795  0.8710 -0.7328 -0.9393
  624MOL0     H86070   1.402   2.849   9.750  0.2836  0.4291 -0.0530
  624MOL0     H86071   1.303   3.052   9.726 -1.9217 -0.3844  1.8110
  624MOL0     H86072   1.133   3.066   9.678 -0.8515 -1.1271 -1.2901
  624MOL0     H86073   1.277   3.072   9.561  1.2158  1.1801  0.1440
  624MOL0     H86074   0.850   3.072   9.309  1.4313 -2.1073 -0.7400
  624MOL0     H86075   0.650   3.168   9.265 -1.8467 -0.8682 -0.3566
  624MOL0     H86076   0.347   3.128   9.511 -0.6419  0.3767  1.0878
  624MOL0     H86077   0.465   3.250   9.416  0.5651 -1.2125 -0.5493
  624MOL0     H86078   0.197   3.175   9.318 -0.6512 -1.3000  0.3986
  624MOL0     H86079   0.201   3.284   9.451 -0.0265 -2.1447 -1.0635
  624MOL0     H86080   0.360   3.332   9.184  0.9658  2.3031 -0.4674
  624MOL0     H86081   0.351   3.449   9.316 -0.9766  1.3353 -1.7736
  624MOL0     H86082   0.096   3.349   9.177 -1.1307  0.3467 -1.4151
  624MOL0     H86083   0.196   3.463   9.086  1.0231 -2.8454 -1.7830
  624MOL0     H86084   0.008   3.575   9.210 -0.9433  1.4756  1.3732
  624MOL0     H86085   0.107   3.527   9.360 -0.4954  1.0767  0.6570
  624MOL0     H86086   0.258   3.694   9.163 -1.8119  1.4944 -1.2003
  624MOL0     H86087   0.277   3.665   9.321  0.8875 -0.1375 -1.7615
  624MOL0     H86088   0.071   3.810   9.382  0.9194  2.0130  1.2158
  624MOL0     H86089   0.026   3.825   9.215 -0.3048  1.5817  1.1769
  624MOL0     H86090   0.137   4.021   9.330 -0.6807  0.1669 -1.9683
  624MOL0     H86091   0.184   3.991   9.169 -0.9036 -1.3447 -1.7286
  624MOL0     H86092   0.448   2.830   9.444  0.3782 -1.5750 -2.5976
  624MOL0     H86093   0.682   2.750   9.526  3.2955 -0.2492  1.6578
  624MOL0     H86094   1.102   2.644   9.426  0.0417  1.6501 -0.4157
  624MOL0     H86095   1.288   2.502   9.553  0.0538 -0.6880  0.8800
  624MOL0     H86096   1.474   1.820   9.589  0.2244 -0.8127  0.9725
  624MOL0     H86097   1.624   1.854   9.396  1.9741 -0.4058  0.6494
  624MOL0     H86098   2.157   1.749   9.275  1.2844  0.0254 -0.1368
  624MOL0     H86099   2.325   1.726   9.101 -0.8544  1.4451 -1.6084
  624MOL0     H86100   2.420   1.453   8.810  0.8991  0.0034  2.1516
  624MOL0     H86101   2.241   1.404   8.849 -0.2348 -1.2144 -3.1936
  624MOL0     H86102   2.315   1.593   8.634 -1.5557  1.2276  0.5645
  624MOL0     H86103   2.154   1.514   8.666 -1.4230 -4.5904 -1.1232
  624MOL0     H86104   2.255   1.288   8.624  2.4853 -1.5095 -1.3174
  624MOL0     H86105   2.225   1.379   8.490 -0.4831  0.0325  0.9734
  624MOL0     H86106   2.451   1.275   8.486 -1.7222  1.0557 -1.5544
  624MOL0     H86107   2.488   1.339   8.637 -3.4582 -0.8202  1.7536
  624MOL0     H86108   2.642   1.639   8.387 -0.2825  0.4224 -0.9797
  624MOL0     H86109   2.031   1.537   8.853 -1.7972  0.9246 -0.5849
  624MOL0     H86110   1.817   1.540   8.901 -0.9133 -1.4699  0.7967
  624MOL0     H86111   1.780   1.504   9.072 -0.7118  0.3416  0.0539
  624MOL0     H86112   1.760   1.669   9.000 -0.5201 -1.0725 -1.6529
  625MOL0     O86113   9.735   4.924   5.517  0.7597 -0.2460  0.2678
  625MOL0     C86114   9.646   4.888   5.433 -0.1504 -0.4624 -0.0258
  625MOL0     O86115   9.580   4.972   5.342  0.6025  0.0106  1.1096
  625MOL0     C86116   9.606   5.106   5.365 -0.2809  0.8211 -1.1438
  625MOL0     C86117   9.535   5.167   5.467 -0.8413 -0.5372 -0.1105
  625MOL0     C86118   9.557   5.301   5.495  0.3986 -0.7051  0.1645
  625MOL0     C86119   9.658   5.371   5.434  0.5789  0.1003 -0.5958
  625MOL0     O86120   9.691   5.496   5.488  0.3504 -0.5426  0.1434
  625MOL0     C86121   9.773   5.486   5.598  0.3839 -0.6853  0.0846
  625MOL0     C86122   9.697   5.562   5.716 -0.7500 -0.5166  0.6415
  625MOL0     C86123   9.600   5.679   5.697 -0.2991 -0.4761 -0.2979
  625MOL0     C86124   9.658   5.786   5.606  0.2670 -1.0037  0.4459
  625MOL0     C86125   9.739   5.890   5.683 -0.3215 -1.3588 -0.1418
  625MOL0     C86126   9.658   6.003   5.755 -0.5323  0.0309 -1.0840
  625MOL0     C86127   9.757   6.120   5.787  0.0177  0.3073 -0.0836
  625MOL0     C86128   9.690   6.224   5.865 -0.5910  0.7249 -0.6648
  625MOL0     N86129   9.793   6.323   5.908  0.4426 -0.1286 -0.3709
  625MOL0     C86130   9.839   6.424   5.824  0.7207  0.1477  0.5987
  625MOL0     C86131   9.935   6.480   5.910  0.8973  0.1166 -0.4596
  625MOL0     C86132  10.018   6.595   5.852 -0.6928 -0.4632 -0.9752
  625MOL0     C86133  10.066   6.680   5.977  0.0052  0.5373  0.9045
  625MOL0     C86134  10.167   6.793   5.943  0.5915 -1.4908  0.4741
  625MOL0     C86135  10.118   6.879   5.827 -0.0042 -0.3805 -0.3006
  625MOL0     O86136   9.979   6.927   5.833  0.5418 -0.1049  0.4862
  625MOL0     C86137   9.921   6.949   5.713  0.8968  0.3262  0.5097
  625MOL0     C86138   9.977   6.960   5.591  0.4267  0.2573 -0.2675
  625MOL0     C86139   9.899   6.956   5.478 -0.6473  0.0394  0.0582
  625MOL0     C86140   9.976   6.950   5.345  0.0158 -1.0944 -0.3026
  625MOL0     C86141   9.755   6.956   5.485 -0.8661 -0.0752 -0.2220
  625MOL0     C86142   9.669   6.965   5.365  0.2361 -0.3602  0.9084
  625MOL0     O86143   9.551   6.901   5.359 -0.3280 -0.0601 -0.3255
  625MOL0     C86144   9.463   6.908   5.259  0.3945  0.3280  0.6426
  625MOL0     C86145   9.478   6.962   5.138 -1.2851  0.0840  0.4150
  625MOL0     C86146   9.372   6.968   5.047 -0.3509 -0.3752  0.2866
  625MOL0     C86147   9.249   6.918   5.075  0.6012  0.1755  0.2559
  625MOL0     O86148   9.143   6.924   4.985  0.2296  0.3299  0.5608
  625MOL0     C86149   9.161   6.971   4.853  0.1373  0.2221  0.0043
  625MOL0     C86150   9.249   6.870   4.769  0.5672 -0.4137  0.8864
  625MOL0     C86151   9.318   6.935   4.652 -0.0093  0.5025  0.7328
  625MOL0     C86152   9.228   7.014   4.555  0.0797  0.1162 -0.4163
  625MOL0     C86153   9.277   7.015   4.411 -0.0996 -0.3964 -0.3672
  625MOL0     C86154   9.188   7.087   4.324 -0.3028 -0.3051  0.1800
  625MOL0     C86155   9.215   7.087   4.169 -0.4604  0.2679  0.4129
  625MOL0     C86156   9.093   7.154   4.089  0.0287  0.4622  0.1712
  625MOL0    Cl86157   9.161   7.180   3.911 -0.0721 -0.5609  0.3458
  625MOL0     C86158   9.235   6.848   5.194 -0.0753 -0.0855  0.0281
  625MOL0     C86159   9.340   6.854   5.286  0.1699  0.8015  0.0083
  625MOL0     O86160   9.706   7.057   5.280 -0.1592  0.7518 -0.5303
  625MOL0     C86161   9.700   6.943   5.610  0.6385  0.0733 -0.5323
  625MOL0     C86162   9.780   6.931   5.721 -0.4161 -0.8437 -0.0650
  625MOL0     N86163   9.945   6.408   6.026 -0.9281  0.4025  0.6807
  625MOL0     N86164   9.848   6.324   6.032  0.3449  0.5798  0.2792
  625MOL0     C86165   9.734   5.311   5.330  0.0342  0.2844  0.0574
  625MOL0     C86166   9.709   5.173   5.308  0.0944 -0.3405  1.0920
  625MOL0     C86167   9.616   4.740   5.431 -0.8340 -0.0115  0.3484
  625MOL0     C86168   9.719   4.645   5.474 -0.2494 -0.5450 -0.1350
  625MOL0     C86169   9.709   4.506   5.474  1.0585  0.1105 -0.1449
  625MOL0     C86170   9.602   4.450   5.400 -0.8950  0.8525  0.2273
  625MOL0     O86171   9.599   4.315   5.371 -0.0214 -0.0918 -0.1166
  625MOL0     C86172   9.717   4.230   5.400 -0.5354 -0.1090  0.0757
  625MOL0     C86173   9.685   4.077   5.392 -0.1363 -0.5489 -0.3143
  625MOL0     C86174   9.570   4.042   5.484  1.0423 -0.2159 -0.2861
  625MOL0     C86175   9.582   3.884   5.507  0.0331 -0.4831 -0.1539
  625MOL0     C86176   9.484   3.825   5.606  0.9064 -0.5953 -0.0625
  625MOL0     C86177   9.392   3.784   5.665  0.1749 -0.1865 -0.6859
  625MOL0     C86178   9.496   4.529   5.367 -0.9821 -0.8286 -0.0048
  625MOL0     C86179   9.500   4.671   5.381 -0.6674  0.1810 -0.1866
  625MOL0     C86180   9.384   4.754   5.341  0.4683 -0.4578  0.2246
  625MOL0     H86181   9.455   5.115   5.519  0.6956 -0.7215  2.2679
  625MOL0     H86182   9.497   5.346   5.573  0.1229  4.0763 -2.4151
  625MOL0     H86183   9.866   5.536   5.570 -0.3494 -0.1838 -1.6123
  625MOL0     H86184   9.808   5.387   5.627  1.4510 -0.0617  0.9918
  625MOL0     H86185   9.648   5.483   5.772  1.0940 -0.0284  3.1693
  625MOL0     H86186   9.768   5.594   5.793 -0.9802 -0.6731  0.9198
  625MOL0     H86187   9.508   5.636   5.656  1.8312 -3.8018 -2.0710
  625MOL0     H86188   9.577   5.705   5.801  2.4037 -1.6861  0.7059
  625MOL0     H86189   9.731   5.746   5.535  1.9549  0.4263  1.3033
  625MOL0     H86190   9.585   5.851   5.557  1.9021  1.7612  1.4334
  625MOL0     H86191   9.801   5.947   5.613 -0.5911 -0.7130  0.1374
  625MOL0     H86192   9.800   5.839   5.758 -2.1565 -2.3781  0.7272
  625MOL0     H86193   9.581   6.037   5.686  0.7456  0.0304 -2.5557
  625MOL0     H86194   9.615   5.964   5.848  2.2581 -0.3966  0.1098
  625MOL0     H86195   9.794   6.165   5.695  2.6968  3.5946  2.3507
  625MOL0     H86196   9.837   6.085   5.853 -1.6901  3.7493  4.3153
  625MOL0     H86197   9.624   6.273   5.793 -0.7780 -1.0408 -1.7657
  625MOL0     H86198   9.635   6.191   5.953  0.4200  0.1903 -0.2183
  625MOL0     H86199   9.810   6.438   5.721 -0.6705 -2.0577  0.6144
  625MOL0     H86200   9.966   6.659   5.780  2.4872  1.6087 -1.6098
  625MOL0     H86201  10.108   6.560   5.800  0.2103 -2.5103  1.7207
  625MOL0     H86202   9.979   6.725   6.026 -1.7063 -0.6131 -0.9073
  625MOL0     H86203  10.110   6.607   6.046  1.9559 -0.0223 -0.8174
  625MOL0     H86204  10.183   6.847   6.037 -1.9901 -0.6448  0.4988
  625MOL0     H86205  10.264   6.750   5.916  2.0117  0.5031  2.0484
  625MOL0     H86206  10.162   6.974   5.797 -1.0158 -0.6566 -2.9819
  625MOL0     H86207  10.130   6.814   5.740 -1.4352 -1.9097  0.5736
  625MOL0     H86208  10.084   6.978   5.591  0.3588  0.6708  0.1487
  625MOL0     H86209   9.974   7.044   5.289  3.4732  0.5133  2.0071
  625MOL0     H86210   9.926   6.873   5.285  1.7548 -1.8168 -0.8975
  625MOL0     H86211  10.080   6.918   5.349 -0.1767 -1.5887  2.7942
  625MOL0     H86212   9.576   7.003   5.112  0.2716 -2.1437  2.3638
  625MOL0     H86213   9.389   7.008   4.948  0.8180  2.2922  1.4720
  625MOL0     H86214   9.066   6.981   4.799 -0.1737  1.3746  0.7366
  625MOL0     H86215   9.200   7.073   4.854  3.7788 -1.0156  0.3595
  625MOL0     H86216   9.319   6.817   4.833 -1.3130 -0.4153  3.0695
  625MOL0     H86217   9.192   6.783   4.734 -1.2602 -0.2249  3.0769
  625MOL0     H86218   9.361   6.849   4.599 -1.1543  0.7396 -0.6602
  625MOL0     H86219   9.401   7.002   4.677  0.3995  0.4622 -0.4169
  625MOL0     H86220   9.215   7.116   4.592  1.5812 -0.2005  1.0689
  625MOL0     H86221   9.134   6.959   4.558 -0.0359  0.3114 -0.4624
  625MOL0     H86222   9.373   7.067   4.409 -1.3473  2.0606 -0.5949
  625MOL0     H86223   9.286   6.918   4.362 -0.8117 -0.6735  0.0311
  625MOL0     H86224   9.188   7.192   4.352  2.4453 -0.4046  0.8415
  625MOL0     H86225   9.089   7.041   4.338 -2.3013  4.0207  2.1678
  625MOL0     H86226   9.240   6.986   4.135 -3.7375 -0.2452 -0.7461
  625MOL0     H86227   9.304   7.146   4.145  0.7337 -0.9156  1.7518
  625MOL0     H86228   9.058   7.247   4.136 -0.9214 -0.4439  1.3428
  625MOL0     H86229   9.013   7.079   4.093 -0.3920  0.5067 -3.7161
  625MOL0     H86230   9.138   6.799   5.202  0.2031 -1.0168 -1.8210
  625MOL0     H86231   9.332   6.827   5.391  3.0470  4.0423  1.2760
  625MOL0     H86232   9.594   6.933   5.631  0.3429 -2.3973 -2.7038
  625MOL0     H86233   9.736   6.923   5.820  1.3100 -1.4897  0.6886
  625MOL0     H86234   9.823   5.355   5.284 -0.2264  2.6987  1.6436
  625MOL0     H86235   9.763   5.123   5.228 -0.1015  1.5455 -0.2852
  625MOL0     H86236   9.811   4.690   5.510  0.3807 -0.8576 -1.2961
  625MOL0     H86237   9.797   4.453   5.508  0.1233 -0.6176  1.2125
  625MOL0     H86238   9.792   4.261   5.326  0.8719 -2.1996  0.5396
  625MOL0     H86239   9.766   4.252   5.495  0.1222  1.7587 -0.6497
  625MOL0     H86240   9.777   4.028   5.425  2.1035  2.8196 -1.0015
  625MOL0     H86241   9.651   4.050   5.292 -0.4869  0.3474 -0.4544
  625MOL0     H86242   9.566   4.097   5.579 -1.7411  1.8422 -1.4645
  625MOL0     H86243   9.479   4.065   5.427 -0.0601 -2.6477  0.3812
  625MOL0     H86244   9.679   3.849   5.542 -1.0240 -4.2385 -0.6033
  625MOL0     H86245   9.554   3.841   5.410  3.4104  0.5103 -1.7036
  625MOL0     H86246   9.315   3.752   5.732  1.9054 -1.0686  0.9615
  625MOL0     H86247   9.415   4.481   5.313 -1.4846  0.9019 -0.8864
  625MOL0     H86248   9.294   4.692   5.347 -1.3868  2.1706  0.9433
  625MOL0     H86249   9.375   4.836   5.413  0.0312  1.3871 -1.8180
  625MOL0     H86250   9.396   4.810   5.247 -1.1283  1.1968  0.9539
  626MOL0     O86251   9.110   6.117  10.940  0.1654  0.0073  0.0339
  626MOL0     C86252   9.179   6.078  11.035 -0.0745  0.6098 -1.5848
  626MOL0     O86253   9.129   6.020  11.142 -0.0516  0.5762  0.1613
  626MOL0     C86254   8.995   6.035  11.174  0.8505  0.4470  0.0556
  626MOL0     C86255   8.947   5.922  11.239  0.2666 -0.7429 -0.3196
  626MOL0     C86256   8.816   5.909  11.275  0.2706  0.3493  0.8432
  626MOL0     C86257   8.724   6.015  11.239 -0.8781  0.1880  0.0443
  626MOL0     O86258   8.595   6.003  11.275 -0.1858  0.2040 -0.8183
  626MOL0     C86259   8.530   5.883  11.246  0.6134  0.1891 -0.1936
  626MOL0     C86260   8.429   5.836  11.350 -0.1854  0.5044 -0.0863
  626MOL0     C86261   8.327   5.948  11.367 -0.1758  0.0624  0.1710
  626MOL0     C86262   8.341   6.020  11.509  0.3783 -0.2513 -0.4120
  626MOL0     C86263   8.251   6.128  11.545 -0.7954  0.5390 -0.1255
  626MOL0     C86264   8.234   6.243  11.435  0.0003  1.0257 -0.8716
  626MOL0     C86265   8.182   6.370  11.499  0.1843 -0.5370  0.8009
  626MOL0     C86266   8.163   6.487  11.402  0.2787  0.5242  0.2837
  626MOL0     N86267   8.102   6.592  11.482  0.4703 -0.1386 -0.3478
  626MOL0     C86268   7.970   6.640  11.471  0.3431 -0.9153  0.7667
  626MOL0     C86269   7.969   6.753  11.548 -0.2393  0.5284 -0.6297
  626MOL0     C86270   7.857   6.854  11.560  0.9113  0.3857 -0.3114
  626MOL0     C86271   7.898   6.998  11.539  0.5073  0.2912 -0.1205
  626MOL0     C86272   7.772   7.083  11.547  0.5238  0.8619 -0.4220
  626MOL0     C86273   7.785   7.222  11.489  0.1653 -0.2869 -0.2744
  626MOL0     O86274   7.909   7.284  11.531  0.2953  0.6712  0.0780
  626MOL0     C86275   7.995   7.341  11.438 -0.4374 -0.5109  0.3508
  626MOL0     C86276   7.952   7.418  11.327 -0.5933 -0.3187 -0.1891
  626MOL0     C86277   8.044   7.488  11.244 -0.7674 -0.5401  0.6727
  626MOL0     C86278   7.998   7.575  11.123 -0.4299 -0.0236 -0.5865
  626MOL0     C86279   8.184   7.476  11.268 -0.4970 -0.2527  0.3228
  626MOL0     C86280   8.291   7.552  11.202 -0.3286 -0.0706 -0.3808
  626MOL0     O86281   8.403   7.482  11.185 -0.0519 -0.4237 -0.4769
  626MOL0     C86282   8.501   7.544  11.119  0.4865  0.0811  0.4206
  626MOL0     C86283   8.494   7.588  10.985 -0.6780  0.0544 -0.0271
  626MOL0     C86284   8.609   7.658  10.938  0.1094 -0.3008  0.2903
  626MOL0     C86285   8.729   7.676  11.020 -0.6818 -0.6135  0.8798
  626MOL0     O86286   8.848   7.736  10.981  0.4864 -0.8128 -0.2445
  626MOL0     C86287   8.981   7.679  11.001 -0.0446  0.3105  0.2918
  626MOL0     C86288   9.063   7.708  10.874  0.3152  0.2317 -0.7735
  626MOL0     C86289   9.068   7.860  10.851  0.3726 -0.7982 -0.5791
  626MOL0     C86290   9.168   7.870  10.737 -0.1935  0.0020  1.0516
  626MOL0     C86291   9.174   8.015  10.675 -0.4500  0.8507 -0.2934
  626MOL0     C86292   9.254   8.025  10.544 -0.1841  1.0177  0.2591
  626MOL0     C86293   9.187   7.959  10.417 -0.9299 -0.1732  0.3662
  626MOL0     C86294   9.263   7.835  10.364  0.4144  0.0348 -1.1357
  626MOL0    Cl86295   9.167   7.753  10.249 -0.0059 -0.3627 -0.2482
  626MOL0     C86296   8.730   7.625  11.151 -0.3434  0.6307  0.7229
  626MOL0     C86297   8.617   7.546  11.188 -0.6581  0.1724  0.1872
  626MOL0     O86298   8.281   7.672  11.184 -0.5347 -0.3733 -0.7078
  626MOL0     C86299   8.224   7.392  11.372 -0.3248  0.3790 -0.1272
  626MOL0     C86300   8.131   7.322  11.461 -0.0502 -0.3738 -0.7807
  626MOL0     N86301   8.087   6.753  11.623  0.4689 -0.1342 -0.0700
  626MOL0     N86302   8.164   6.657  11.585  0.0598 -0.5002  0.0922
  626MOL0     C86303   8.765   6.124  11.167 -0.6792 -0.4199  0.6020
  626MOL0     C86304   8.902   6.133  11.138 -0.5825  0.1844  0.7502
  626MOL0     C86305   9.328   6.103  11.012  0.5885  0.5441  0.7075
  626MOL0     C86306   9.371   6.224  10.951  1.2520 -0.5490 -0.0605
  626MOL0     C86307   9.505   6.261  10.927 -0.2320  0.2313 -0.8934
  626MOL0     C86308   9.604   6.171  10.980 -0.4318  1.0724  1.1437
  626MOL0     O86309   9.739   6.187  10.973 -0.0264  0.5922 -0.3675
  626MOL0     C86310   9.778   6.314  10.930 -0.0683  0.0159 -0.3223
  626MOL0     C86311   9.930   6.325  10.929 -0.3732 -0.1411 -0.5833
  626MOL0     C86312   9.978   6.471  10.881  1.1026 -0.0325  0.6188
  626MOL0     C86313  10.121   6.526  10.895 -0.4784 -0.3093  0.3042
  626MOL0     C86314  10.215   6.434  10.832 -0.1688  0.1861 -0.0800
  626MOL0     C86315  10.309   6.372  10.797 -1.2201  1.8198  0.3619
  626MOL0     C86316   9.558   6.055  11.037  0.5976  0.9749  0.7795
  626MOL0     C86317   9.425   6.019  11.058 -0.1700  0.0315  0.2174
  626MOL0     C86318   9.399   5.890  11.131 -0.0701  0.6704  0.1399
  626MOL0     H86319   9.022   5.845  11.258  1.6096  0.5599 -0.0970
  626MOL0     H86320   8.798   5.824  11.340 -3.1018 -1.2061 -1.8097
  626MOL0     H86321   8.606   5.807  11.226  2.3825  1.0504  2.6665
  626MOL0     H86322   8.471   5.904  11.156  0.7197  0.2454 -0.2501
  626MOL0     H86323   8.377   5.749  11.309 -0.3032  0.0815  0.9351
  626MOL0     H86324   8.473   5.809  11.446 -2.0469  1.6533  1.1491
  626MOL0     H86325   8.345   6.030  11.298  0.5720 -0.2812 -0.0522
  626MOL0     H86326   8.232   5.904  11.338  0.6810 -0.4387 -2.0699
  626MOL0     H86327   8.335   5.947  11.590  1.8346  0.0538  0.0026
  626MOL0     H86328   8.438   6.071  11.508  0.4085 -0.2464  0.7717
  626MOL0     H86329   8.277   6.176  11.639 -0.3349  0.5974 -0.2789
  626MOL0     H86330   8.155   6.078  11.563 -2.3219  3.6078  0.9781
  626MOL0     H86331   8.325   6.255  11.376  0.9219 -2.2659 -0.3405
  626MOL0     H86332   8.156   6.209  11.367  0.4403  1.1511 -1.4454
  626MOL0     H86333   8.265   6.398  11.563  1.6653 -0.3129 -1.1212
  626MOL0     H86334   8.096   6.360  11.566  0.2799 -1.0086  0.8566
  626MOL0     H86335   8.266   6.519  11.383  2.0479 -3.7316  1.6210
  626MOL0     H86336   8.113   6.461  11.308  0.0666  3.3385 -0.4755
  626MOL0     H86337   7.891   6.608  11.403  0.4344 -0.4534  0.4320
  626MOL0     H86338   7.821   6.849  11.663  3.8441  2.1439  0.9164
  626MOL0     H86339   7.784   6.821  11.485  0.6564 -1.1355  0.5686
  626MOL0     H86340   7.972   7.018  11.617  2.9668 -0.6024 -2.0820
  626MOL0     H86341   7.942   7.009  11.439 -0.7130  2.9484 -0.4594
  626MOL0     H86342   7.688   7.036  11.496  2.1608  0.1705 -2.6625
  626MOL0     H86343   7.740   7.088  11.652 -2.6987 -1.2717 -1.1550
  626MOL0     H86344   7.781   7.221  11.380 -2.9239 -0.6458 -0.2537
  626MOL0     H86345   7.709   7.295  11.519  2.8622  3.5818 -2.0510
  626MOL0     H86346   7.847   7.440  11.316 -0.3298  1.7286  0.8662
  626MOL0     H86347   7.895   7.547  11.099 -0.7341  2.0520 -1.9739
  626MOL0     H86348   8.050   7.561  11.027 -1.0675 -1.3305 -0.7505
  626MOL0     H86349   7.987   7.678  11.158 -1.8758 -1.1560  2.6976
  626MOL0     H86350   8.395   7.584  10.940 -0.6466  3.0198 -0.5260
  626MOL0     H86351   8.594   7.698  10.838  0.5750  0.8969  0.6934
  626MOL0     H86352   9.038   7.725  11.083  2.4203 -1.7536 -0.1203
  626MOL0     H86353   8.977   7.573  11.026 -0.6589  0.0259 -0.9845
  626MOL0     H86354   9.165   7.668  10.879  0.5775  0.4767 -3.2626
  626MOL0     H86355   9.009   7.649  10.799 -0.2426 -1.1272  0.6276
  626MOL0     H86356   9.114   7.908  10.938  0.3226 -3.9021  1.3332
  626MOL0     H86357   8.974   7.910  10.826  0.0722 -1.1108 -0.0965
  626MOL0     H86358   9.132   7.804  10.657  2.9557 -0.5771 -0.0549
  626MOL0     H86359   9.273   7.851  10.761  0.9756  0.9439 -2.6248
  626MOL0     H86360   9.075   8.058  10.659 -0.7538 -0.5169 -2.5666
  626MOL0     H86361   9.216   8.079  10.753 -0.8145  3.6624 -2.2478
  626MOL0     H86362   9.342   7.960  10.555  1.4208  2.7355 -1.5977
  626MOL0     H86363   9.291   8.127  10.528  2.4521 -0.0037 -0.8470
  626MOL0     H86364   9.181   8.034  10.337 -1.9523 -2.3829 -1.7740
  626MOL0     H86365   9.084   7.930  10.441 -1.3004 -0.3550 -1.3237
  626MOL0     H86366   9.273   7.768  10.450  2.9031  0.2407 -1.1865
  626MOL0     H86367   9.362   7.855  10.323  0.8452  0.9969  0.3112
  626MOL0     H86368   8.809   7.648  11.222  0.3794  1.6215 -0.3632
  626MOL0     H86369   8.626   7.499  11.285  1.8321 -2.3565 -1.1316
  626MOL0     H86370   8.330   7.379  11.392 -0.2402  1.3034  0.0889
  626MOL0     H86371   8.166   7.256  11.540 -0.5585 -1.5012 -1.4664
  626MOL0     H86372   8.690   6.195  11.136 -0.8111 -0.5791  0.5539
  626MOL0     H86373   8.930   6.214  11.072 -0.8609 -0.9614 -0.8362
  626MOL0     H86374   9.297   6.293  10.913  2.0332 -1.5290 -3.7756
  626MOL0     H86375   9.517   6.361  10.887  0.8850  0.7146  0.5564
  626MOL0     H86376   9.740   6.328  10.829 -1.9991 -0.5802  0.2748
  626MOL0     H86377   9.736   6.391  10.995  1.4926 -0.1466  0.9570
  626MOL0     H86378   9.969   6.249  10.861  0.8574  0.3926 -0.5009
  626MOL0     H86379   9.959   6.300  11.032 -2.3021 -3.7750 -0.7629
  626MOL0     H86380   9.950   6.478  10.776  0.0820  0.8684  0.9343
  626MOL0     H86381   9.914   6.547  10.927 -0.6915 -0.3470 -1.2103
  626MOL0     H86382  10.151   6.542  11.000  0.9476 -0.0114 -0.1200
  626MOL0     H86383  10.119   6.623  10.844  0.0326 -0.7597 -0.5978
  626MOL0     H86384  10.394   6.320  10.759 -0.8827  2.5121  0.1549
  626MOL0     H86385   9.642   5.992  11.065  0.5946  0.6479  0.0888
  626MOL0     H86386   9.396   5.906  11.239 -2.0291 -0.1235  0.2505
  626MOL0     H86387   9.303   5.839  11.119  1.6219 -2.9988  0.7501
  626MOL0     H86388   9.476   5.816  11.109  0.1770  0.2985  2.0675
  627MOL0     O86389   2.822   4.624   3.782 -0.0196 -0.3169 -0.1375
  627MOL0     C86390   2.940   4.649   3.790 -0.9587 -0.5999  0.1244
  627MOL0     O86391   3.045   4.609   3.701  0.2435 -0.3082  0.6014
  627MOL0     C86392   3.019   4.523   3.589  0.1701  0.0250  0.2456
  627MOL0     C86393   2.904   4.493   3.514  0.7041 -0.5946 -0.9221
  627MOL0     C86394   2.894   4.412   3.406 -0.0354 -0.0280 -0.3547
  627MOL0     C86395   3.012   4.343   3.372 -0.1980 -0.3796  0.3411
  627MOL0     O86396   2.985   4.253   3.269 -0.0728  0.2219  0.2875
  627MOL0     C86397   3.095   4.166   3.242 -0.6869  0.3594  0.5136
  627MOL0     C86398   3.066   4.060   3.143  0.5445 -0.0038 -0.5187
  627MOL0     C86399   3.195   3.997   3.088  0.0382  0.1338  0.0565
  627MOL0     C86400   3.171   3.900   2.963  1.3265 -0.5640 -0.7272
  627MOL0     C86401   3.303   3.881   2.890 -1.0950  0.6428  0.0443
  627MOL0     C86402   3.317   3.888   2.732 -0.5423  0.2099 -0.3391
  627MOL0     C86403   3.242   3.778   2.661  0.5200  0.0208  0.2614
  627MOL0     C86404   3.244   3.787   2.508 -0.7556  0.3510  0.3183
  627MOL0     N86405   3.369   3.758   2.450  0.3924  0.4181 -0.5302
  627MOL0     C86406   3.429   3.628   2.445  0.1932  0.0424  0.6923
  627MOL0     C86407   3.543   3.648   2.380 -0.5560  0.2654  0.2880
  627MOL0     C86408   3.654   3.539   2.373 -0.2471  0.4514  0.0036
  627MOL0     C86409   3.720   3.519   2.503  0.0713 -0.4340 -0.0122
  627MOL0     C86410   3.848   3.605   2.522  0.3155 -0.1256  0.2518
  627MOL0     C86411   3.824   3.759   2.506 -0.8743  0.6935  0.2552
  627MOL0     O86412   3.952   3.830   2.537  0.2732 -0.3417  0.8065
  627MOL0     C86413   4.031   3.873   2.439 -0.5445 -0.0941 -0.6039
  627MOL0     C86414   3.985   3.943   2.332 -0.9737  0.9356  1.3193
  627MOL0     C86415   4.066   3.988   2.223  0.3253 -0.2802 -1.1023
  627MOL0     C86416   4.002   4.059   2.106 -0.7489  0.6736 -0.6602
  627MOL0     C86417   4.204   3.966   2.233 -0.0904  0.7042 -0.0961
  627MOL0     C86418   4.307   3.996   2.130  0.5341  0.2805 -0.8487
  627MOL0     O86419   4.431   3.932   2.146 -1.1348  0.1454 -0.3632
  627MOL0     C86420   4.520   3.929   2.046  0.1889 -0.7095 -0.3269
  627MOL0     C86421   4.650   3.961   2.082 -0.8787  0.8982  0.1808
  627MOL0     C86422   4.752   3.969   1.982  0.2363  0.4277 -0.2495
  627MOL0     C86423   4.724   3.941   1.845 -0.9769 -0.3043 -0.4676
  627MOL0     O86424   4.816   3.960   1.747 -0.0572 -0.6539  0.3524
  627MOL0     C86425   4.928   3.873   1.755 -0.2452  0.7437 -0.5907
  627MOL0     C86426   5.033   3.934   1.672 -1.0690 -0.1969 -0.2080
  627MOL0     C86427   5.078   4.077   1.719  0.2452 -0.4618 -0.9197
  627MOL0     C86428   5.219   4.106   1.702 -0.0853  0.1817 -0.2083
  627MOL0     C86429   5.254   4.119   1.553 -0.0022 -0.2338 -0.4754
  627MOL0     C86430   5.371   4.203   1.514  0.0459  0.7074 -0.3986
  627MOL0     C86431   5.407   4.188   1.371  0.6609 -0.1911 -0.0818
  627MOL0     C86432   5.521   4.282   1.322  0.1019  0.3497  0.3631
  627MOL0    Cl86433   5.615   4.192   1.201  0.2737  0.4035 -0.4854
  627MOL0     C86434   4.596   3.898   1.812 -0.9401  0.4505  0.9861
  627MOL0     C86435   4.499   3.886   1.919 -0.9099  0.2985  0.2713
  627MOL0     O86436   4.274   4.056   2.033  0.9528  0.4019 -0.1084
  627MOL0     C86437   4.255   3.902   2.348  1.1799 -1.0757 -0.1232
  627MOL0     C86438   4.166   3.865   2.456 -0.6128 -0.0891 -0.0134
  627MOL0     N86439   3.552   3.778   2.336 -0.2036  0.2202 -0.0061
  627MOL0     N86440   3.452   3.843   2.383  0.3387 -0.3495 -0.7679
  627MOL0     C86441   3.127   4.367   3.440 -0.3305 -0.6233  0.3435
  627MOL0     C86442   3.134   4.457   3.545  0.7080  0.8831 -0.6695
  627MOL0     C86443   2.998   4.726   3.911  0.8904 -1.1290  0.3710
  627MOL0     C86444   3.137   4.740   3.921  0.1103  1.3966 -0.1199
  627MOL0     C86445   3.201   4.816   4.026  0.6360  0.1157  0.0646
  627MOL0     C86446   3.119   4.873   4.131  0.0856 -0.0048  0.2639
  627MOL0     O86447   3.155   4.947   4.241 -0.5150  0.2745  0.1563
  627MOL0     C86448   3.280   5.012   4.252 -0.0381 -0.9340  0.1748
  627MOL0     C86449   3.369   4.941   4.357  0.2886 -0.1522 -0.0544
  627MOL0     C86450   3.521   4.962   4.334  0.1382 -0.2836 -0.4259
  627MOL0     C86451   3.610   4.888   4.438  0.6053 -0.6760 -0.1273
  627MOL0     C86452   3.743   4.900   4.378 -1.0432 -0.2806 -0.4453
  627MOL0     C86453   3.858   4.909   4.342 -0.4771  0.3539  0.0288
  627MOL0     C86454   2.981   4.847   4.126  0.4780 -0.1188  0.0931
  627MOL0     C86455   2.916   4.780   4.022  0.0141 -0.6443  0.3789
  627MOL0     C86456   2.764   4.785   4.036 -0.1329  0.0578  0.5669
  627MOL0     H86457   2.817   4.548   3.549  0.9909 -0.6480 -0.0989
  627MOL0     H86458   2.806   4.415   3.341  1.5475  1.4963 -2.5695
  627MOL0     H86459   3.137   4.120   3.333 -2.6120  2.2515  2.4795
  627MOL0     H86460   3.181   4.219   3.198 -0.7361 -0.8750 -1.1376
  627MOL0     H86461   3.008   3.976   3.184  4.5913 -1.7082  2.3288
  627MOL0     H86462   3.015   4.110   3.060 -0.1930  0.3581  0.1320
  627MOL0     H86463   3.250   4.084   3.051 -0.6130  0.8873  0.8273
  627MOL0     H86464   3.261   3.952   3.163  0.3790 -0.4700 -0.5923
  627MOL0     H86465   3.128   3.805   2.996 -1.2716  0.9931  0.6965
  627MOL0     H86466   3.103   3.951   2.893 -0.0001 -0.2284  0.7523
  627MOL0     H86467   3.344   3.786   2.925 -0.0694  1.4275  1.0451
  627MOL0     H86468   3.379   3.951   2.926  0.6621 -0.9099 -0.5493
  627MOL0     H86469   3.278   3.981   2.691  1.3692  0.6428 -1.3040
  627MOL0     H86470   3.425   3.887   2.714 -0.0724 -2.0421  1.9341
  627MOL0     H86471   3.137   3.802   2.679  0.1158  0.7296 -2.5111
  627MOL0     H86472   3.275   3.680   2.698  1.8392 -0.5736 -2.2675
  627MOL0     H86473   3.167   3.715   2.477  0.7523 -0.2365 -2.4335
  627MOL0     H86474   3.216   3.889   2.479  3.0556  2.0481  1.9386
  627MOL0     H86475   3.388   3.546   2.503  1.3695 -1.7120 -0.8645
  627MOL0     H86476   3.726   3.554   2.293  2.3566  1.8093  2.4329
  627MOL0     H86477   3.613   3.443   2.340 -0.0923  0.4597 -0.2155
  627MOL0     H86478   3.657   3.542   2.589 -0.9253  0.2953 -0.9064
  627MOL0     H86479   3.740   3.412   2.514  1.3623 -0.6904 -3.6126
  627MOL0     H86480   3.873   3.592   2.628 -1.2520  3.0125  1.1491
  627MOL0     H86481   3.931   3.570   2.460 -0.3209 -3.4685  1.0843
  627MOL0     H86482   3.793   3.774   2.402  0.2994  3.0803  0.1940
  627MOL0     H86483   3.743   3.802   2.565  0.5438 -0.4268  3.2422
  627MOL0     H86484   3.878   3.962   2.333 -1.3958 -1.1680  0.2576
  627MOL0     H86485   4.019   4.005   2.012 -1.3077 -2.4209  0.8629
  627MOL0     H86486   4.036   4.162   2.099 -0.9399  0.7514 -0.4669
  627MOL0     H86487   3.894   4.052   2.126 -0.4078 -1.6643  0.8354
  627MOL0     H86488   4.662   3.994   2.185 -3.0129  0.5665  0.5816
  627MOL0     H86489   4.851   3.993   2.018  0.0865 -0.0648  0.5104
  627MOL0     H86490   4.966   3.868   1.858  0.7095  1.9023 -0.8635
  627MOL0     H86491   4.911   3.775   1.710 -0.8331  0.4659  0.2165
  627MOL0     H86492   5.108   3.854   1.670 -1.7664 -0.8511 -0.3480
  627MOL0     H86493   4.990   3.943   1.572 -0.9073  1.3837 -0.1636
  627MOL0     H86494   5.062   4.082   1.827 -0.9468 -1.0146 -1.0592
  627MOL0     H86495   5.024   4.162   1.679  0.7936  0.7994  0.8679
  627MOL0     H86496   5.268   4.019   1.746 -2.3501 -1.2719 -0.3962
  627MOL0     H86497   5.251   4.200   1.747 -0.7517  0.4615 -0.3142
  627MOL0     H86498   5.268   4.016   1.520 -3.4534 -1.7460  2.1533
  627MOL0     H86499   5.168   4.154   1.496 -0.3865 -0.3235  0.0413
  627MOL0     H86500   5.451   4.176   1.583 -2.2730  0.2863  2.2925
  627MOL0     H86501   5.350   4.308   1.533  2.7509  1.4114 -0.8254
  627MOL0     H86502   5.331   4.186   1.292  2.4607 -1.0991 -1.8730
  627MOL0     H86503   5.451   4.087   1.367  5.5557  1.7073 -1.8997
  627MOL0     H86504   5.577   4.330   1.403 -0.2459  0.2069  0.6949
  627MOL0     H86505   5.490   4.376   1.275  0.9635  0.0989 -0.7396
  627MOL0     H86506   4.585   3.870   1.707  1.1074  2.6814  0.0692
  627MOL0     H86507   4.407   3.838   1.890  0.3929 -0.8927 -2.1052
  627MOL0     H86508   4.358   3.882   2.376  1.5243 -1.3869 -1.5251
  627MOL0     H86509   4.205   3.822   2.547  0.0581 -2.1928 -1.2284
  627MOL0     H86510   3.222   4.326   3.407  1.5960  1.5261  2.7595
  627MOL0     H86511   3.219   4.493   3.602 -0.2809  0.4062  1.1917
  627MOL0     H86512   3.201   4.688   3.852 -4.6345 -1.1081 -3.2135
  627MOL0     H86513   3.307   4.834   4.021  0.4400  1.3233 -4.5561
  627MOL0     H86514   3.337   5.007   4.159  1.3097 -0.2623  0.9338
  627MOL0     H86515   3.272   5.117   4.280 -1.7431 -0.6434 -1.2100
  627MOL0     H86516   3.339   4.836   4.368  1.6031 -0.7839 -1.9137
  627MOL0     H86517   3.349   4.978   4.457  1.9314  0.8969 -0.0830
  627MOL0     H86518   3.545   4.928   4.233  0.6376  1.2200 -0.8446
  627MOL0     H86519   3.539   5.069   4.350  1.2311 -0.8364  2.7193
  627MOL0     H86520   3.581   4.783   4.444  1.3318 -1.0796 -2.6110
  627MOL0     H86521   3.611   4.934   4.538  0.4360  0.1554 -0.5052
  627MOL0     H86522   3.958   4.897   4.306 -1.5512 -2.5897 -2.4744
  627MOL0     H86523   2.927   4.893   4.209  2.3671  3.5281 -0.4888
  627MOL0     H86524   2.740   4.761   4.140  2.2605  1.9846  1.6550
  627MOL0     H86525   2.726   4.882   4.002  0.4331  0.3215  0.6687
  627MOL0     H86526   2.719   4.711   3.970 -1.0166  1.4523 -0.4434
  628MOL0     O86527   7.631  11.085   3.073  0.2558  0.1186  0.0419
  628MOL0     C86528   7.572  11.134   3.176 -0.0377  0.8818 -0.4496
  628MOL0     O86529   7.645  11.196   3.278 -0.3047  0.2210 -0.2959
  628MOL0     C86530   7.782  11.211   3.253  0.5852  0.5635  0.0678
  628MOL0     C86531   7.852  11.089   3.248 -0.2785  0.0619 -0.3011
  628MOL0     C86532   7.993  11.110   3.217  0.0123  0.1003 -0.1026
  628MOL0     C86533   8.047  11.236   3.198  0.9281  0.1302  0.0457
  628MOL0     O86534   8.182  11.263   3.181 -0.9564 -0.1959  0.0985
  628MOL0     C86535   8.256  11.348   3.274  1.1579  0.2605 -0.6171
  628MOL0     C86536   8.409  11.333   3.252 -0.3611  0.2938  0.0193
  628MOL0     C86537   8.483  11.419   3.356  0.5707 -0.1911  0.6405
  628MOL0     C86538   8.622  11.475   3.309  0.8424  0.3490 -0.3228
  628MOL0     C86539   8.679  11.572   3.407 -0.5331 -0.3038 -0.6873
  628MOL0     C86540   8.828  11.571   3.390 -0.7041  0.2235 -0.6764
  628MOL0     C86541   8.894  11.701   3.434 -0.0173 -0.4244 -0.1170
  628MOL0     C86542   8.869  11.829   3.358  1.0016 -0.3275 -0.8706
  628MOL0     N86543   8.854  11.934   3.460 -0.0582 -0.4012 -0.1622
  628MOL0     C86544   8.747  11.945   3.542 -0.1317 -0.5346 -0.2561
  628MOL0     C86545   8.772  12.055   3.617  0.1941  0.7408  0.3565
  628MOL0     C86546   8.692  12.125   3.731  0.4378 -0.2865  0.1266
  628MOL0     C86547   8.661  12.264   3.686 -0.1616  1.0309  0.3460
  628MOL0     C86548   8.581  12.255   3.554 -0.0438  0.2287  0.0170
  628MOL0     C86549   8.534  12.398   3.514  0.0756  0.3557  0.5730
  628MOL0     O86550   8.659  12.466   3.503 -0.3376  1.0596 -0.1433
  628MOL0     C86551   8.658  12.604   3.520  0.5312 -0.2079  0.7028
  628MOL0     C86552   8.549  12.685   3.475 -0.0381  0.5496  0.0341
  628MOL0     C86553   8.562  12.822   3.498  0.3642 -0.0490  0.3523
  628MOL0     C86554   8.450  12.910   3.444 -0.3360  0.0918  0.6647
  628MOL0     C86555   8.674  12.881   3.555 -0.4579 -0.4515 -0.1301
  628MOL0     C86556   8.702  13.025   3.561 -0.0924  0.3911 -0.8471
  628MOL0     O86557   8.804  13.048   3.647 -0.0249  0.1315 -0.0213
  628MOL0     C86558   8.848  13.178   3.668  0.1462  0.6705 -0.5167
  628MOL0     C86559   8.773  13.282   3.723  0.5907  0.1868  1.2005
  628MOL0     C86560   8.836  13.403   3.755 -0.9691  0.2396 -0.6132
  628MOL0     C86561   8.975  13.424   3.744  0.5221 -0.0542  0.1906
  628MOL0     O86562   9.033  13.541   3.782 -0.4029  0.1617 -0.0752
  628MOL0     C86563   9.179  13.550   3.812  0.7464 -0.1879 -1.5047
  628MOL0     C86564   9.214  13.489   3.948  0.6010  0.0382 -0.5627
  628MOL0     C86565   9.317  13.571   4.033 -0.0608  0.2898  0.1505
  628MOL0     C86566   9.455  13.568   3.959 -0.3720  0.7940 -0.0014
  628MOL0     C86567   9.531  13.698   3.968 -0.3042  0.0494 -0.2881
  628MOL0     C86568   9.583  13.738   4.115  0.8417 -0.6694 -0.2731
  628MOL0     C86569   9.642  13.878   4.130  0.4278 -0.8197  0.0221
  628MOL0     C86570   9.780  13.909   4.065 -0.8835 -0.1413  0.4651
  628MOL0    Cl86571   9.909  13.830   4.151 -0.3317 -0.1274  0.0819
  628MOL0     C86572   9.045  13.314   3.696 -0.1523 -0.2235  0.5140
  628MOL0     C86573   8.985  13.194   3.656 -0.5987  0.1903 -0.0187
  628MOL0     O86574   8.632  13.110   3.506  0.1102 -0.0824  0.6031
  628MOL0     C86575   8.776  12.796   3.580  0.7245 -0.6100  0.4171
  628MOL0     C86576   8.770  12.661   3.569  0.9539 -0.7101  0.2901
  628MOL0     N86577   8.898  12.099   3.581  0.1394  0.7818 -0.3401
  628MOL0     N86578   8.951  12.024   3.497 -0.6081  0.7272  0.6489
  628MOL0     C86579   7.972  11.350   3.216 -0.1787  0.1498 -0.6976
  628MOL0     C86580   7.838  11.340   3.237 -0.1719 -0.1664 -0.2867
  628MOL0     C86581   7.422  11.104   3.186  0.8084  0.1291  0.6173
  628MOL0     C86582   7.371  11.022   3.084  0.5035 -0.0070  0.3863
  628MOL0     C86583   7.241  10.971   3.106  0.0325  1.1414 -0.1340
  628MOL0     C86584   7.168  11.003   3.210  0.4764 -0.1868 -0.5163
  628MOL0     O86585   7.052  10.935   3.235 -0.4685  0.2079  0.2795
  628MOL0     C86586   6.936  11.019   3.222  1.4807  0.3221  0.0040
  628MOL0     C86587   6.826  10.912   3.201 -0.3055 -0.7992  1.0019
  628MOL0     C86588   6.688  10.986   3.192  0.1819  1.2951  0.2262
  628MOL0     C86589   6.584  10.872   3.178  0.0550 -0.5506  0.2379
  628MOL0     C86590   6.459  10.944   3.126  0.0634  0.0843 -0.2850
  628MOL0     C86591   6.361  11.005   3.080 -0.7812 -0.4137 -0.1334
  628MOL0     C86592   7.200  11.109   3.294 -0.8560 -0.4376 -0.2497
  628MOL0     C86593   7.335  11.155   3.287  0.5232  0.0389  0.4283
  628MOL0     C86594   7.379  11.241   3.402  1.0131 -0.7656 -0.3431
  628MOL0     H86595   7.813  10.991   3.275  1.7180 -0.7285 -0.0600
  628MOL0     H86596   8.068  11.032   3.207  0.7261  1.0754 -3.4916
  628MOL0     H86597   8.232  11.326   3.378  3.2553  1.1978  0.1029
  628MOL0     H86598   8.222  11.450   3.254 -0.6672 -0.6763 -2.8905
  628MOL0     H86599   8.444  11.232   3.275 -0.1340  0.1638 -0.8601
  628MOL0     H86600   8.442  11.353   3.149  0.0058 -2.6032 -0.5293
  628MOL0     H86601   8.422  11.504   3.389  0.5790 -1.2093  3.5675
  628MOL0     H86602   8.493  11.351   3.440 -1.9829  1.1661  2.1738
  628MOL0     H86603   8.686  11.387   3.301  2.0101  1.1878 -0.6380
  628MOL0     H86604   8.621  11.512   3.206 -0.7672  0.1727 -0.3887
  628MOL0     H86605   8.652  11.538   3.508  2.7908  0.5504  0.6241
  628MOL0     H86606   8.631  11.669   3.388 -0.7151  0.6410  3.5641
  628MOL0     H86607   8.880  11.486   3.437  1.2572  1.7515  0.0705
  628MOL0     H86608   8.854  11.551   3.286 -0.7341 -0.5584 -0.5424
  628MOL0     H86609   9.002  11.687   3.435  0.1038  0.4360  0.9473
  628MOL0     H86610   8.869  11.709   3.540 -0.6969 -0.5792 -0.2626
  628MOL0     H86611   8.952  11.854   3.291 -0.3821 -0.1777 -2.6253
  628MOL0     H86612   8.776  11.810   3.303 -0.2168 -0.0566  1.0063
  628MOL0     H86613   8.664  11.875   3.540 -0.7242  0.1672 -2.0927
  628MOL0     H86614   8.739  12.126   3.830 -0.1244  1.6491  0.4206
  628MOL0     H86615   8.597  12.075   3.752  0.2384 -1.2062 -2.6157
  628MOL0     H86616   8.599  12.307   3.764  2.5120 -0.0724  3.3096
  628MOL0     H86617   8.757  12.312   3.667  1.5800 -2.2019  0.2027
  628MOL0     H86618   8.636  12.222   3.465  0.6013  0.9441  0.1330
  628MOL0     H86619   8.495  12.190   3.571  1.7082 -2.2674 -0.1781
  628MOL0     H86620   8.486  12.400   3.416  0.6570  2.6594  0.2811
  628MOL0     H86621   8.463  12.433   3.590  0.7278  1.2466  0.7879
  628MOL0     H86622   8.456  12.644   3.437 -0.1687  2.1077 -1.4324
  628MOL0     H86623   8.484  12.961   3.353  1.2844 -0.3207  1.0156
  628MOL0     H86624   8.414  12.977   3.523  1.3542 -1.2398  2.6669
  628MOL0     H86625   8.375  12.842   3.402  0.8020 -0.2660 -0.8650
  628MOL0     H86626   8.670  13.258   3.746  0.3145  0.2089  0.0369
  628MOL0     H86627   8.771  13.475   3.803 -2.6433 -2.2822  1.1866
  628MOL0     H86628   9.243  13.504   3.737  0.5272 -0.2688 -1.6442
  628MOL0     H86629   9.196  13.657   3.826 -1.3712 -0.0023  0.2483
  628MOL0     H86630   9.122  13.497   4.006  1.7420  1.3274  1.1792
  628MOL0     H86631   9.241  13.385   3.930  0.0919  0.1444 -1.9946
  628MOL0     H86632   9.334  13.522   4.130 -0.9016 -2.1442 -0.8577
  628MOL0     H86633   9.274  13.668   4.058 -4.9228 -0.5876 -3.4147
  628MOL0     H86634   9.449  13.531   3.857 -1.7519 -0.0901  0.3824
  628MOL0     H86635   9.512  13.491   4.011  0.6271  1.1745 -0.5070
  628MOL0     H86636   9.624  13.698   3.911 -0.7911  0.7178 -1.0958
  628MOL0     H86637   9.472  13.782   3.931  0.9936  2.0344  1.9280
  628MOL0     H86638   9.658  13.662   4.136 -1.0856 -2.4769  0.4163
  628MOL0     H86639   9.497  13.725   4.181  1.1245 -1.5128 -0.0610
  628MOL0     H86640   9.654  13.915   4.232 -2.0458  0.8492 -0.2087
  628MOL0     H86641   9.574  13.947   4.079 -1.6464 -2.5017  0.3961
  628MOL0     H86642   9.807  14.014   4.077  0.9947  0.0277 -3.5736
  628MOL0     H86643   9.791  13.890   3.958 -0.1455  0.3316  0.4518
  628MOL0     H86644   9.153  13.318   3.692 -0.1306 -1.1399 -0.1702
  628MOL0     H86645   9.046  13.111   3.624  2.3551  2.3228 -0.4178
  628MOL0     H86646   8.878  12.816   3.609  1.1500 -1.8068 -0.1882
  628MOL0     H86647   8.857  12.607   3.604  2.1519  0.1511 -1.2173
  628MOL0     H86648   7.998  11.455   3.224 -1.2550  0.5782 -2.1914
  628MOL0     H86649   7.773  11.427   3.244 -1.1134 -0.5615 -2.8491
  628MOL0     H86650   7.439  10.983   3.009 -1.1461 -2.6523  0.1601
  628MOL0     H86651   7.196  10.896   3.041  1.5448  1.4297 -1.5836
  628MOL0     H86652   6.920  11.076   3.314  0.2381 -1.8446  1.2256
  628MOL0     H86653   6.950  11.094   3.144 -0.5467 -1.0394 -1.7814
  628MOL0     H86654   6.816  10.835   3.278 -1.2983 -1.6290  0.0739
  628MOL0     H86655   6.842  10.859   3.107 -1.0763  2.8481 -1.3830
  628MOL0     H86656   6.667  11.035   3.287  0.2690  2.7936 -0.5002
  628MOL0     H86657   6.685  11.064   3.116 -1.8207 -0.0042 -1.1291
  628MOL0     H86658   6.564  10.824   3.274 -1.2904 -1.0636 -0.2618
  628MOL0     H86659   6.616  10.793   3.109  3.6087 -0.8075  1.9915
  628MOL0     H86660   6.284  11.055   3.025  0.5648  0.2648 -1.4895
  628MOL0     H86661   7.144  11.148   3.378  0.1583  2.0331 -0.6216
  628MOL0     H86662   7.423  11.340   3.386  3.3826 -1.1033  3.1553
  628MOL0     H86663   7.293  11.266   3.465  2.1797 -2.4636  2.0453
  628MOL0     H86664   7.453  11.187   3.461 -1.0297 -1.2687  1.9073
  629MOL0     O86665   9.467   3.059   4.591 -0.8830  0.1843 -0.0845
  629MOL0     C86666   9.346   3.056   4.615 -0.1424  0.6191 -0.2995
  629MOL0     O86667   9.258   3.150   4.577 -0.4472  0.3002  0.1224
  629MOL0     C86668   9.299   3.257   4.510 -1.0057 -0.8490 -0.2211
  629MOL0     C86669   9.250   3.384   4.549 -0.0565  1.3337  0.4739
  629MOL0     C86670   9.289   3.497   4.479 -0.4077 -0.8219 -0.0084
  629MOL0     C86671   9.373   3.492   4.369  0.0122  0.4243  0.3932
  629MOL0     O86672   9.410   3.596   4.285 -0.6091  0.0544  0.3182
  629MOL0     C86673   9.428   3.716   4.356  0.0682 -0.8083 -0.3693
  629MOL0     C86674   9.499   3.805   4.256 -0.2804 -0.4135  0.1784
  629MOL0     C86675   9.430   3.831   4.128  0.3232 -0.2204 -0.2038
  629MOL0     C86676   9.330   3.945   4.131  0.4789  0.5828 -0.2315
  629MOL0     C86677   9.219   3.929   4.235 -0.6612  0.7350  0.1549
  629MOL0     C86678   9.083   4.001   4.213  0.5557 -0.5013 -1.3837
  629MOL0     C86679   8.973   3.901   4.230 -0.0885 -0.3908 -0.2575
  629MOL0     C86680   8.837   3.955   4.240  0.0047  0.2905  1.0093
  629MOL0     N86681   8.752   3.874   4.156  0.1097  0.5759  0.3580
  629MOL0     C86682   8.689   3.761   4.198  0.3396 -0.0764 -0.9293
  629MOL0     C86683   8.595   3.730   4.101 -0.6003 -0.5008 -0.1166
  629MOL0     C86684   8.515   3.603   4.098 -1.0075 -0.0898 -0.5242
  629MOL0     C86685   8.462   3.566   4.243  1.2345  0.7894 -0.0134
  629MOL0     C86686   8.308   3.531   4.242  0.0021  0.1213 -0.1707
  629MOL0     C86687   8.258   3.409   4.175  0.0498 -0.7103 -0.0256
  629MOL0     O86688   8.344   3.300   4.208 -0.5478  0.5031  0.5279
  629MOL0     C86689   8.307   3.180   4.157 -0.3455  0.0606  0.6093
  629MOL0     C86690   8.219   3.093   4.229 -0.1712 -0.4276  0.3008
  629MOL0     C86691   8.170   2.978   4.172  0.6893 -0.2534 -0.2821
  629MOL0     C86692   8.093   2.880   4.266  0.7399 -0.1042  0.5885
  629MOL0     C86693   8.201   2.945   4.042  0.8840 -0.2337 -0.7971
  629MOL0     C86694   8.151   2.821   3.974  0.1272  0.3657 -0.0824
  629MOL0     O86695   8.027   2.774   3.991  0.2441  0.4116 -0.4407
  629MOL0     C86696   8.004   2.644   3.953  0.0854 -0.6703 -0.6528
  629MOL0     C86697   7.895   2.620   3.876 -0.3759 -0.6563  0.9569
  629MOL0     C86698   7.852   2.500   3.832 -0.6506  0.2768  0.0553
  629MOL0     C86699   7.920   2.382   3.860 -0.9095 -0.1138  0.8027
  629MOL0     O86700   7.882   2.260   3.807 -0.3044 -0.4870 -0.0969
  629MOL0     C86701   7.943   2.133   3.853 -0.7487  0.0284  0.9564
  629MOL0     C86702   7.922   2.003   3.778 -0.0780  1.0981  0.2871
  629MOL0     C86703   7.771   1.962   3.776 -0.1967 -0.2067 -0.1602
  629MOL0     C86704   7.755   1.830   3.699  0.2142  0.7975  0.1313
  629MOL0     C86705   7.644   1.735   3.752 -1.1448  0.4133  0.6564
  629MOL0     C86706   7.501   1.786   3.753  1.1269  0.0283  0.2067
  629MOL0     C86707   7.404   1.674   3.804  0.3808  0.4707  0.1675
  629MOL0     C86708   7.256   1.730   3.799 -0.2258  0.1837 -0.1124
  629MOL0    Cl86709   7.126   1.624   3.851 -0.2439  0.5492 -0.2690
  629MOL0     C86710   8.034   2.401   3.947  0.8359 -0.1023 -0.0029
  629MOL0     C86711   8.075   2.529   3.982 -0.9277 -0.0934 -0.6868
  629MOL0     O86712   8.236   2.767   3.905  0.1839  0.1665  0.0885
  629MOL0     C86713   8.288   3.028   3.970  1.4048 -0.6410  0.5919
  629MOL0     C86714   8.340   3.144   4.027 -0.1596 -0.3210  0.4752
  629MOL0     N86715   8.619   3.831   4.006  0.9304  0.3851 -0.0347
  629MOL0     N86716   8.704   3.918   4.037 -0.1167 -0.3227  0.7758
  629MOL0     C86717   9.424   3.372   4.335 -0.1380  0.3263 -0.3802
  629MOL0     C86718   9.391   3.254   4.406 -0.9757  0.2834 -0.0103
  629MOL0     C86719   9.290   2.948   4.700  0.1716 -0.0378  0.5427
  629MOL0     C86720   9.153   2.920   4.689  0.0879  0.0125  0.3081
  629MOL0     C86721   9.090   2.829   4.767 -0.0349  0.4594 -0.2822
  629MOL0     C86722   9.167   2.742   4.844  0.1858 -0.1964  0.1151
  629MOL0     O86723   9.105   2.634   4.900 -0.6661  0.6163  0.0002
  629MOL0     C86724   9.165   2.560   5.010  0.0694 -0.3626  0.1897
  629MOL0     C86725   9.188   2.626   5.147  0.3117  0.0541  0.6701
  629MOL0     C86726   9.085   2.737   5.172  0.3086  0.4386  0.5879
  629MOL0     C86727   8.942   2.675   5.185  0.0387 -0.7274 -0.3637
  629MOL0     C86728   8.933   2.539   5.255 -0.3969  0.1721 -0.2704
  629MOL0     C86729   8.936   2.422   5.299 -0.6760 -0.4317  0.1893
  629MOL0     C86730   9.305   2.757   4.835 -0.6408  0.5121  0.1055
  629MOL0     C86731   9.366   2.865   4.774 -0.0371 -0.0214  0.2219
  629MOL0     C86732   9.518   2.895   4.808  1.2463  0.3737 -0.3757
  629MOL0     H86733   9.185   3.397   4.635 -0.4831 -0.7099  0.5121
  629MOL0     H86734   9.244   3.591   4.508  2.4703  1.5724 -2.5797
  629MOL0     H86735   9.495   3.697   4.441  1.2814 -5.2527 -2.0542
  629MOL0     H86736   9.338   3.767   4.391  0.1311  0.3680 -1.8260
  629MOL0     H86737   9.535   3.902   4.290 -0.8951  0.5746 -1.8506
  629MOL0     H86738   9.594   3.761   4.223  2.1080  2.3384  2.7894
  629MOL0     H86739   9.504   3.858   4.051  2.3897  1.1227  2.1217
  629MOL0     H86740   9.385   3.734   4.103  5.7888 -3.5059  1.0138
  629MOL0     H86741   9.379   4.039   4.155 -1.1705  0.9410  2.1284
  629MOL0     H86742   9.288   3.942   4.030 -2.8622 -0.3370  1.0360
  629MOL0     H86743   9.262   3.965   4.328  2.4593 -1.0884 -0.4597
  629MOL0     H86744   9.198   3.822   4.242 -1.6411  0.7776 -1.5259
  629MOL0     H86745   9.068   4.082   4.285 -1.7756 -0.9212 -1.3228
  629MOL0     H86746   9.060   4.045   4.116 -3.3282  2.0383  0.3996
  629MOL0     H86747   8.992   3.833   4.314  2.3219 -0.6319 -0.9305
  629MOL0     H86748   8.988   3.838   4.142 -0.2901 -3.3576  1.6861
  629MOL0     H86749   8.798   3.972   4.341 -0.6800  0.4967  0.7157
  629MOL0     H86750   8.838   4.051   4.187  1.9791  0.1439  0.6798
  629MOL0     H86751   8.711   3.692   4.279 -3.2857  0.5674  0.7931
  629MOL0     H86752   8.578   3.524   4.055  3.5333  2.2496  1.1003
  629MOL0     H86753   8.428   3.619   4.035 -0.3346  2.4930 -0.9355
  629MOL0     H86754   8.522   3.479   4.270 -0.1583 -0.4478 -0.7342
  629MOL0     H86755   8.492   3.633   4.324 -2.4911  0.3153  1.9939
  629MOL0     H86756   8.268   3.521   4.343  0.2852  1.3572  0.0792
  629MOL0     H86757   8.259   3.622   4.207 -1.8502  0.3880  2.8164
  629MOL0     H86758   8.152   3.386   4.194 -1.0948  2.9520 -1.1184
  629MOL0     H86759   8.255   3.429   4.067  0.3530 -2.8678 -0.4664
  629MOL0     H86760   8.181   3.115   4.328  0.8812 -1.2600  0.9050
  629MOL0     H86761   8.065   2.928   4.360 -2.3742 -0.3271 -0.0887
  629MOL0     H86762   8.141   2.785   4.292  0.2649 -0.0431  1.7470
  629MOL0     H86763   7.999   2.864   4.211  1.4776  1.8550 -1.4143
  629MOL0     H86764   7.838   2.706   3.844 -1.5338 -2.2617 -1.6132
  629MOL0     H86765   7.767   2.501   3.765 -0.0212  2.7008 -0.8353
  629MOL0     H86766   8.049   2.150   3.871 -0.6801  0.5909  0.0953
  629MOL0     H86767   7.904   2.112   3.953  1.1811  0.0382  1.7524
  629MOL0     H86768   7.955   2.015   3.674  0.5854 -1.3389  0.1343
  629MOL0     H86769   7.979   1.925   3.831  1.5807  3.1319  1.6691
  629MOL0     H86770   7.721   2.042   3.721  2.9394  3.6961  2.0611
  629MOL0     H86771   7.727   1.954   3.876  1.6160  0.5457  0.7336
  629MOL0     H86772   7.843   1.766   3.710  0.1008  0.8645  1.6777
  629MOL0     H86773   7.750   1.867   3.596  1.9756  1.4009  0.2243
  629MOL0     H86774   7.650   1.646   3.690  0.9536 -0.5466  2.1189
  629MOL0     H86775   7.675   1.704   3.852  1.3110 -1.9554 -0.7244
  629MOL0     H86776   7.470   1.825   3.656 -1.1371 -1.3923  0.2880
  629MOL0     H86777   7.491   1.875   3.817 -2.1272 -0.1363  0.0912
  629MOL0     H86778   7.434   1.640   3.903 -1.6362 -0.9984  0.3394
  629MOL0     H86779   7.414   1.583   3.744  0.7381 -1.5924  3.1617
  629MOL0     H86780   7.254   1.742   3.691  2.7361 -4.9935 -1.1385
  629MOL0     H86781   7.262   1.824   3.854  0.5626 -0.1954  0.4850
  629MOL0     H86782   8.077   2.310   3.988 -0.3672 -0.0165  1.5518
  629MOL0     H86783   8.162   2.540   4.047 -2.0084  0.7091  0.7094
  629MOL0     H86784   8.321   2.998   3.871  3.3608 -1.7575  1.5151
  629MOL0     H86785   8.405   3.205   3.965 -3.4192  3.0151  0.0048
  629MOL0     H86786   9.491   3.381   4.250  1.8097  1.3073  1.1651
  629MOL0     H86787   9.446   3.163   4.383  2.6179  1.9879  1.0000
  629MOL0     H86788   9.088   2.980   4.625 -0.0815 -0.5568 -0.0643
  629MOL0     H86789   8.983   2.817   4.760 -0.0595  0.3455  0.2382
  629MOL0     H86790   9.091   2.482   5.032 -1.2321  0.0838 -2.2739
  629MOL0     H86791   9.258   2.511   4.979 -0.0860 -0.0248 -0.8195
  629MOL0     H86792   9.287   2.671   5.146 -0.1949  1.3359 -1.9628
  629MOL0     H86793   9.185   2.543   5.218 -0.1572 -2.7313 -2.3059
  629MOL0     H86794   9.120   2.791   5.261 -0.8684  2.5275 -0.1367
  629MOL0     H86795   9.077   2.814   5.095 -2.2175  1.1080  1.3972
  629MOL0     H86796   8.898   2.668   5.085 -1.6788 -0.2631  0.3350
  629MOL0     H86797   8.883   2.741   5.249 -0.4046 -0.9008 -0.5900
  629MOL0     H86798   8.966   2.322   5.326  0.7559 -0.1695 -0.3425
  629MOL0     H86799   9.370   2.696   4.898  1.3196  1.0133 -1.3290
  629MOL0     H86800   9.583   2.888   4.720  0.5068  2.2376 -1.1212
  629MOL0     H86801   9.519   2.994   4.855  1.4473 -0.9261  2.5588
  629MOL0     H86802   9.546   2.825   4.887  0.3402  1.3666  0.8768
  630MOL0     O86803  10.608   5.279   8.546  0.0479  1.1347  1.1945
  630MOL0     C86804  10.573   5.394   8.528 -0.5174 -0.1876  0.3940
  630MOL0     O86805  10.655   5.498   8.505  0.7213  0.1799  0.2928
  630MOL0     C86806  10.784   5.486   8.470 -0.0326 -0.4807 -0.0601
  630MOL0     C86807  10.841   5.576   8.372  0.8935 -0.8599 -1.0496
  630MOL0     C86808  10.974   5.575   8.346  0.2903 -0.5467  0.3495
  630MOL0     C86809  11.060   5.482   8.414  0.6100  0.4273  0.0970
  630MOL0     O86810  11.191   5.468   8.376  0.7971 -0.7907  0.4612
  630MOL0     C86811  11.278   5.387   8.454 -0.1585  0.6983 -0.4226
  630MOL0     C86812  11.320   5.458   8.577 -0.6114 -0.2225 -0.2738
  630MOL0     C86813  11.426   5.568   8.543 -0.4642  0.5964 -0.9945
  630MOL0     C86814  11.451   5.659   8.672  0.8553  0.3058  0.0783
  630MOL0     C86815  11.546   5.773   8.646  0.0651 -0.1938 -0.3951
  630MOL0     C86816  11.688   5.751   8.595 -0.7746 -0.9181  0.4873
  630MOL0     C86817  11.797   5.705   8.695  0.5044 -0.1329  0.6449
  630MOL0     C86818  11.769   5.566   8.752 -0.4669 -0.1738 -0.2437
  630MOL0     N86819  11.880   5.515   8.831  0.3066  1.2218 -0.0831
  630MOL0     C86820  11.918   5.552   8.953 -0.0661  0.1199 -0.4941
  630MOL0     C86821  12.018   5.463   8.987  0.2283  0.4572 -0.0622
  630MOL0     C86822  12.098   5.444   9.111  0.4757  0.6220  0.0439
  630MOL0     C86823  12.237   5.389   9.082 -0.3091  0.4664  0.3631
  630MOL0     C86824  12.351   5.468   9.145 -0.9391  1.3040 -0.4723
  630MOL0     C86825  12.325   5.498   9.296 -0.9571  0.0971  0.0796
  630MOL0     O86826  12.446   5.481   9.379  0.2369 -0.4508  0.3161
  630MOL0     C86827  12.555   5.558   9.340  0.1368 -0.7628  0.1091
  630MOL0     C86828  12.561   5.680   9.392  0.1357 -0.5289  0.6762
  630MOL0     C86829  12.674   5.765   9.369  1.2868  0.0063 -0.1810
  630MOL0     C86830  12.673   5.910   9.418  0.3411 -0.9199  0.0527
  630MOL0     C86831  12.791   5.709   9.306  0.1407  0.4317  0.3348
  630MOL0     C86832  12.913   5.780   9.281  0.1649  0.3186 -0.5368
  630MOL0     O86833  12.968   5.753   9.158  0.6251  0.4778  0.6979
  630MOL0     C86834  13.096   5.790   9.138 -1.1161 -0.2863  0.1985
  630MOL0     C86835  13.195   5.685   9.146  0.4504  0.0051  0.6703
  630MOL0     C86836  13.331   5.727   9.112  0.4747 -0.2891 -0.0920
  630MOL0     C86837  13.362   5.859   9.074  0.3390 -0.5022  0.5781
  630MOL0     O86838  13.490   5.901   9.050  0.0206  0.2566 -0.5551
  630MOL0     C86839  13.595   5.881   9.151  0.3018 -1.2641  0.6367
  630MOL0     C86840  13.730   5.899   9.097 -0.0269  0.2176  1.2110
  630MOL0     C86841  13.762   6.039   9.047 -0.0637 -0.4572  1.3847
  630MOL0     C86842  13.799   6.149   9.146 -0.2203 -0.2225 -0.0068
  630MOL0     C86843  13.857   6.281   9.097 -0.0087  0.4119  0.5174
  630MOL0     C86844  13.907   6.371   9.210 -0.6547  0.4441 -0.3419
  630MOL0     C86845  13.961   6.505   9.170 -0.4678 -0.3883 -0.4734
  630MOL0     C86846  14.001   6.590   9.293  0.3653  0.2654  0.2845
  630MOL0    Cl86847  14.061   6.755   9.246  0.3693  0.0399  0.0661
  630MOL0     C86848  13.259   5.952   9.064 -0.0310  0.0281  0.3005
  630MOL0     C86849  13.132   5.917   9.097  0.5832 -0.4235 -0.8632
  630MOL0     O86850  12.968   5.831   9.377 -0.3757  0.0581  0.7608
  630MOL0     C86851  12.781   5.571   9.260  0.4501  0.0034  0.3223
  630MOL0     C86852  12.664   5.500   9.275 -0.4639 -0.9921  1.3393
  630MOL0     N86853  12.031   5.368   8.886 -0.2069  0.1032  0.1375
  630MOL0     N86854  11.951   5.406   8.794 -0.3148  0.0161  0.7455
  630MOL0     C86855  10.999   5.396   8.500 -0.3094 -0.1230 -0.7467
  630MOL0     C86856  10.864   5.397   8.533 -0.8260  0.3194 -0.6570
  630MOL0     C86857  10.422   5.426   8.521 -0.5050 -0.2535  0.6806
  630MOL0     C86858  10.387   5.554   8.477 -0.4543 -0.0743 -0.1432
  630MOL0     C86859  10.252   5.595   8.460 -0.0185 -0.6617  0.7333
  630MOL0     C86860  10.146   5.513   8.492  0.1398  0.1843  0.0866
  630MOL0     O86861  10.016   5.549   8.481 -0.7689  1.1981  0.0927
  630MOL0     C86862   9.983   5.667   8.561  0.3574  0.1539  1.4955
  630MOL0     C86863   9.954   5.788   8.476 -0.8120 -0.2618  0.2993
  630MOL0     C86864   9.924   5.908   8.561 -0.1562  0.0788  0.1170
  630MOL0     C86865   9.894   6.036   8.483  0.8327 -0.4426 -0.2736
  630MOL0     C86866   9.881   6.156   8.581 -0.0928  1.2905  0.0329
  630MOL0     C86867   9.897   6.259   8.643  0.5402 -0.1946 -0.6134
  630MOL0     C86868  10.180   5.388   8.540 -0.1264 -0.0639 -0.0425
  630MOL0     C86869  10.316   5.338   8.544  0.5303 -0.4990 -0.7195
  630MOL0     C86870  10.339   5.194   8.591  0.6698  0.1795  0.4642
  630MOL0     H86871  10.770   5.645   8.328  1.1641  0.7602  0.9261
  630MOL0     H86872  11.025   5.646   8.282 -0.2855 -0.5753 -0.1473
  630MOL0     H86873  11.360   5.361   8.387 -1.4409  1.6094 -2.4831
  630MOL0     H86874  11.232   5.293   8.487 -2.3332  2.2961  1.4708
  630MOL0     H86875  11.239   5.504   8.635 -0.3616  0.8917 -0.7851
  630MOL0     H86876  11.361   5.379   8.640 -1.3917 -2.0615 -1.9651
  630MOL0     H86877  11.522   5.528   8.506  0.1168  1.2251 -0.1982
  630MOL0     H86878  11.397   5.632   8.459  0.8931  3.2914  0.4599
  630MOL0     H86879  11.357   5.699   8.711  0.1359 -0.0014 -1.2842
  630MOL0     H86880  11.487   5.599   8.757  1.0723  1.3246  0.7197
  630MOL0     H86881  11.554   5.831   8.738  3.9832 -1.5211  0.2478
  630MOL0     H86882  11.496   5.848   8.583 -0.4861  3.7780  4.1797
  630MOL0     H86883  11.689   5.680   8.511 -2.7971  1.6739 -1.9087
  630MOL0     H86884  11.725   5.844   8.552  1.0882 -2.4213 -1.3751
  630MOL0     H86885  11.793   5.771   8.782 -1.4717  1.0871 -0.2822
  630MOL0     H86886  11.890   5.710   8.639  1.3361 -1.8447  1.8163
  630MOL0     H86887  11.683   5.560   8.819 -2.6984 -1.1599 -2.9978
  630MOL0     H86888  11.747   5.505   8.663  0.3319 -0.5659 -0.1843
  630MOL0     H86889  11.874   5.629   9.015 -0.3508 -1.0183  0.7500
  630MOL0     H86890  12.049   5.361   9.165 -1.0816 -0.6981 -3.1501
  630MOL0     H86891  12.102   5.538   9.166  1.5353  0.8324 -0.3876
  630MOL0     H86892  12.245   5.283   9.109  1.7544 -0.3712 -2.9796
  630MOL0     H86893  12.256   5.389   8.975  0.0230  0.8618  0.4201
  630MOL0     H86894  12.437   5.400   9.137 -0.3257  1.5949  2.4763
  630MOL0     H86895  12.379   5.561   9.095  2.0170  0.6890 -0.1551
  630MOL0     H86896  12.278   5.596   9.305  1.7695  1.2718  5.0583
  630MOL0     H86897  12.255   5.424   9.337  2.6514 -2.5444  2.1107
  630MOL0     H86898  12.486   5.718   9.460  1.3707  0.6788  1.4416
  630MOL0     H86899  12.729   5.969   9.344 -0.5908  0.1228  0.1592
  630MOL0     H86900  12.702   5.924   9.522 -1.3058 -0.9737  0.5442
  630MOL0     H86901  12.573   5.949   9.397  1.3164  1.5202 -0.3651
  630MOL0     H86902  13.170   5.583   9.171 -3.4895  0.9741  1.3651
  630MOL0     H86903  13.421   5.668   9.106  1.3804  1.1759 -1.8641
  630MOL0     H86904  13.586   5.952   9.233  0.1674  2.8739 -2.6215
  630MOL0     H86905  13.585   5.779   9.190  0.2858 -1.0732  1.1391
  630MOL0     H86906  13.808   5.863   9.165  0.7912 -0.1179  0.1273
  630MOL0     H86907  13.721   5.839   9.006 -1.1814  1.2654  0.6214
  630MOL0     H86908  13.686   6.070   8.974 -0.5755 -1.9133  1.2840
  630MOL0     H86909  13.848   6.019   8.982 -0.7313  0.9348 -0.0006
  630MOL0     H86910  13.869   6.092   9.208 -0.6898 -0.3335  0.4309
  630MOL0     H86911  13.709   6.170   9.204  0.2666 -0.1460  0.7410
  630MOL0     H86912  13.949   6.260   9.041  0.9117 -1.0164  2.4441
  630MOL0     H86913  13.786   6.329   9.028  0.2015  0.8353  0.5925
  630MOL0     H86914  13.988   6.320   9.263 -1.5770  0.3999  1.0863
  630MOL0     H86915  13.830   6.377   9.288 -0.1735 -1.4033  0.3217
  630MOL0     H86916  13.884   6.558   9.112 -1.0155 -0.1915  0.4119
  630MOL0     H86917  14.047   6.493   9.104  0.6260 -2.6780  1.2363
  630MOL0     H86918  14.075   6.541   9.357 -0.6177  1.3480  2.3468
  630MOL0     H86919  13.905   6.594   9.347 -1.1125 -3.8608 -1.6568
  630MOL0     H86920  13.272   6.056   9.038 -2.4108  0.5749  1.1214
  630MOL0     H86921  13.055   5.992   9.087 -1.2901 -2.2745 -0.9586
  630MOL0     H86922  12.865   5.519   9.216 -0.7493 -1.5237 -0.2796
  630MOL0     H86923  12.647   5.399   9.238 -1.3861 -0.4506  0.2537
  630MOL0     H86924  11.060   5.324   8.553  0.4854  0.3681 -0.9713
  630MOL0     H86925  10.824   5.326   8.605 -1.7095 -0.1177 -1.5454
  630MOL0     H86926  10.473   5.619   8.462  1.5275 -2.8855 -1.8141
  630MOL0     H86927  10.234   5.694   8.420  2.3694 -0.1022  0.8803
  630MOL0     H86928   9.892   5.639   8.615 -0.5620 -0.6467 -0.3733
  630MOL0     H86929  10.058   5.688   8.638  0.7030 -0.5639  1.3632
  630MOL0     H86930   9.869   5.756   8.416  0.7629 -0.2427 -2.0590
  630MOL0     H86931  10.030   5.832   8.411 -0.7464  1.2411  1.3279
  630MOL0     H86932   9.852   5.882   8.639  0.6964  0.5525  1.0924
  630MOL0     H86933  10.017   5.933   8.613  0.4132  0.1269 -0.8892
  630MOL0     H86934   9.802   6.022   8.426  0.2943 -0.3693  0.5502
  630MOL0     H86935   9.975   6.053   8.412  2.4976 -1.4791  1.2766
  630MOL0     H86936   9.905   6.337   8.715 -3.3871  1.2344 -1.4981
  630MOL0     H86937  10.108   5.312   8.569 -1.9595 -0.1983 -4.2377
  630MOL0     H86938  10.380   5.132   8.511 -0.4438  1.1541 -0.9125
  630MOL0     H86939  10.404   5.201   8.678  2.6239 -0.6934 -0.8586
  630MOL0     H86940  10.242   5.154   8.621  2.0502 -2.5362  1.6574
  631MOL0     O86941   0.890   4.414   8.963  0.1753 -0.4114 -0.1984
  631MOL0     C86942   0.928   4.436   8.847 -0.4702 -0.2832 -0.4703
  631MOL0     O86943   0.870   4.397   8.730  0.6224  0.5510  0.3872
  631MOL0     C86944   0.766   4.307   8.739  0.2234  0.4685 -0.2691
  631MOL0     C86945   0.639   4.343   8.693 -0.3902 -0.2701 -0.2498
  631MOL0     C86946   0.529   4.251   8.698 -0.0513  0.3165  0.6102
  631MOL0     C86947   0.547   4.111   8.733  0.4364 -0.8229  0.2132
  631MOL0     O86948   0.440   4.032   8.730  0.4195 -0.3358 -0.5663
  631MOL0     C86949   0.421   3.945   8.846 -0.7608  0.6697 -0.2106
  631MOL0     C86950   0.284   3.866   8.835  0.6240  0.4367 -0.5291
  631MOL0     C86951   0.148   3.943   8.840 -0.4478  0.8218 -1.1265
  631MOL0     C86952   0.033   3.839   8.846 -0.2476 -0.0458  0.5888
  631MOL0     C86953  -0.094   3.900   8.919 -0.1369 -0.3571 -0.5834
  631MOL0     C86954  -0.207   3.820   8.875  0.6462 -0.0156  0.1652
  631MOL0     C86955  -0.335   3.860   8.953 -0.3496 -0.5624  0.8231
  631MOL0     C86956  -0.333   3.813   9.096  1.4076  0.1300  0.2165
  631MOL0     N86957  -0.360   3.669   9.075 -0.2956  0.4734  0.3252
  631MOL0     C86958  -0.299   3.569   9.149 -0.6397  0.1203  0.0745
  631MOL0     C86959  -0.361   3.451   9.115 -0.1006 -0.1518  0.3389
  631MOL0     C86960  -0.311   3.318   9.173 -0.3827  0.2036 -0.5895
  631MOL0     C86961  -0.294   3.218   9.063 -0.4166 -0.3467 -0.3413
  631MOL0     C86962  -0.262   3.089   9.132  0.6885 -0.6024  0.1282
  631MOL0     C86963  -0.104   3.067   9.151  0.0509 -0.3197  0.3895
  631MOL0     O86964  -0.046   3.062   9.008 -0.2490 -0.0142 -0.1359
  631MOL0     C86965   0.061   2.975   9.000  0.0508 -0.0866  0.0803
  631MOL0     C86966   0.079   2.918   8.871  0.0963  0.3545  0.3813
  631MOL0     C86967   0.193   2.844   8.837 -0.7974  0.2814 -0.8600
  631MOL0     C86968   0.200   2.761   8.706 -0.8137 -0.6001  0.6021
  631MOL0     C86969   0.289   2.828   8.942  0.5256 -0.1784  0.0295
  631MOL0     C86970   0.415   2.750   8.924 -0.5241 -0.4314  0.8002
  631MOL0     O86971   0.525   2.797   8.988 -0.3658 -0.3730  0.2529
  631MOL0     C86972   0.650   2.736   8.995  0.6833  0.8935  0.5983
  631MOL0     C86973   0.741   2.805   9.068 -0.6770 -0.0056 -0.1565
  631MOL0     C86974   0.882   2.759   9.070  0.5171  0.5491  0.7841
  631MOL0     C86975   0.910   2.630   9.032 -0.8046  0.9477  0.7140
  631MOL0     O86976   1.041   2.582   9.046 -0.3957 -0.2075  0.3332
  631MOL0     C86977   1.087   2.453   9.009  0.5254  0.2623  0.1528
  631MOL0     C86978   1.230   2.436   9.025 -0.0520 -0.5854 -1.3466
  631MOL0     C86979   1.272   2.474   9.172  0.1615  0.4013  0.0571
  631MOL0     C86980   1.422   2.441   9.170 -1.0816  1.8980 -1.1683
  631MOL0     C86981   1.487   2.468   9.301  0.0862  0.4705  0.2487
  631MOL0     C86982   1.641   2.487   9.298 -0.3725 -0.3906  0.0797
  631MOL0     C86983   1.697   2.510   9.440  0.6012  0.3534 -0.6209
  631MOL0     C86984   1.843   2.556   9.455  0.3136  0.8403 -0.0218
  631MOL0    Cl86985   1.863   2.580   9.633  0.0884 -0.1084  0.1858
  631MOL0     C86986   0.810   2.556   8.966  0.0702 -0.0469 -0.4705
  631MOL0     C86987   0.678   2.607   8.944  0.1565 -0.5326 -0.2524
  631MOL0     O86988   0.422   2.675   8.830 -0.1642  0.1337 -0.1666
  631MOL0     C86989   0.269   2.886   9.070  0.9737  0.0612 -0.9355
  631MOL0     C86990   0.156   2.956   9.101  0.0700  0.9015 -0.0283
  631MOL0     N86991  -0.477   3.485   9.046 -1.0203  0.6097  0.3035
  631MOL0     N86992  -0.478   3.613   9.020  0.4269 -1.2713  0.0382
  631MOL0     C86993   0.675   4.078   8.768  0.1504  0.8717  0.0865
  631MOL0     C86994   0.782   4.172   8.767  0.4267 -0.4792  0.5442
  631MOL0     C86995   1.056   4.515   8.834  0.9828  1.0682 -0.6329
  631MOL0     C86996   1.115   4.526   8.707  0.0624 -0.5751  1.2747
  631MOL0     C86997   1.237   4.587   8.693  0.3827 -0.6462 -0.4043
  631MOL0     C86998   1.314   4.633   8.803  0.2960  0.0664 -0.0492
  631MOL0     O86999   1.439   4.685   8.784 -0.0655 -0.1476 -0.0659
  631MOL0     C87000   1.442   4.824   8.812 -0.4994  0.1426  0.2807
  631MOL0     C87001   1.536   4.846   8.935  0.6892 -0.2255 -0.3816
  631MOL0     C87002   1.680   4.827   8.891  0.5633 -0.0455  0.3725
  631MOL0     C87003   1.752   4.727   8.984 -0.7269  0.7377 -0.5706
  631MOL0     C87004   1.771   4.781   9.114 -0.4756  0.5849 -0.2999
  631MOL0     C87005   1.798   4.846   9.214 -1.0368 -0.1416 -0.1195
  631MOL0     C87006   1.253   4.625   8.924 -0.4827 -0.2110 -0.5520
  631MOL0     C87007   1.131   4.561   8.949  0.9788 -0.0434 -0.8662
  631MOL0     C87008   1.090   4.559   9.096 -0.3693 -0.5687 -1.0059
  631MOL0     H87009   0.627   4.445   8.656 -2.8823  0.4619  2.2169
  631MOL0     H87010   0.430   4.277   8.661 -0.2237 -1.3208 -0.1589
  631MOL0     H87011   0.441   3.988   8.944  0.9296  1.2899 -0.7800
  631MOL0     H87012   0.484   3.857   8.830 -1.2292  0.2090  0.4106
  631MOL0     H87013   0.279   3.807   8.743 -1.8280  0.6704 -0.5882
  631MOL0     H87014   0.278   3.804   8.925 -1.2927  0.7498 -0.4115
  631MOL0     H87015   0.140   4.010   8.927 -0.9595 -1.1099  0.3890
  631MOL0     H87016   0.151   4.003   8.749  0.4712  1.7475 -0.5129
  631MOL0     H87017  -0.004   3.822   8.745  3.2095  2.4401 -1.3022
  631MOL0     H87018   0.059   3.742   8.888  1.5622  1.0018  2.0463
  631MOL0     H87019  -0.101   4.004   8.885 -0.1447  0.9429  2.9364
  631MOL0     H87020  -0.080   3.907   9.028  0.5932 -0.8764 -0.6365
  631MOL0     H87021  -0.217   3.841   8.768  1.2921 -1.9157 -0.3059
  631MOL0     H87022  -0.198   3.713   8.892 -4.1424 -0.3561  2.2782
  631MOL0     H87023  -0.422   3.835   8.892 -0.1800  0.8460 -0.0587
  631MOL0     H87024  -0.340   3.969   8.961 -3.7442 -0.5804  0.3779
  631MOL0     H87025  -0.242   3.814   9.156  0.6914 -1.3831  1.4177
  631MOL0     H87026  -0.417   3.854   9.152 -0.2233  2.5040 -3.5655
  631MOL0     H87027  -0.226   3.578   9.229 -0.2513  0.4319 -0.3095
  631MOL0     H87028  -0.372   3.276   9.253  0.4315 -1.0070 -0.5690
  631MOL0     H87029  -0.211   3.325   9.217 -0.6383  1.0391 -0.1216
  631MOL0     H87030  -0.386   3.220   9.004 -0.4565  1.0262 -0.2681
  631MOL0     H87031  -0.221   3.233   8.983 -0.2673  2.2124  0.1911
  631MOL0     H87032  -0.314   3.094   9.229 -2.5300 -3.1946 -1.2773
  631MOL0     H87033  -0.311   3.006   9.081 -1.0072 -1.4735  2.9370
  631MOL0     H87034  -0.042   3.145   9.198  3.4922 -0.7989 -2.8323
  631MOL0     H87035  -0.077   2.983   9.215  1.5681 -0.1977 -0.0398
  631MOL0     H87036  -0.003   2.925   8.799 -1.1576 -1.5915  1.5181
  631MOL0     H87037   0.260   2.814   8.631  0.2738 -1.3759  0.8882
  631MOL0     H87038   0.100   2.771   8.662  0.6439  1.6977 -2.6499
  631MOL0     H87039   0.238   2.659   8.714  2.0214  0.1196 -1.7301
  631MOL0     H87040   0.717   2.901   9.112 -1.6562 -0.9459  1.4654
  631MOL0     H87041   0.956   2.821   9.119 -0.1445  0.2296  2.2535
  631MOL0     H87042   1.022   2.377   9.053  0.8600 -0.1054  0.0210
  631MOL0     H87043   1.065   2.442   8.902  3.4122  0.2462 -0.5370
  631MOL0     H87044   1.263   2.337   8.992  0.6628 -0.3636 -1.3279
  631MOL0     H87045   1.283   2.503   8.956  1.4071 -1.5522 -1.2019
  631MOL0     H87046   1.214   2.417   9.246  1.3662  0.2304  0.9030
  631MOL0     H87047   1.259   2.578   9.204  1.2934  0.0623  1.7641
  631MOL0     H87048   1.476   2.494   9.092  2.0480  0.5930 -0.0601
  631MOL0     H87049   1.436   2.333   9.156 -0.8119  1.5437  1.3119
  631MOL0     H87050   1.452   2.557   9.353  1.9832  0.8298  1.0168
  631MOL0     H87051   1.466   2.386   9.370 -1.5184 -0.8537 -1.6921
  631MOL0     H87052   1.658   2.572   9.231 -0.9002  1.1246  1.8014
  631MOL0     H87053   1.681   2.397   9.251 -1.6245 -1.3165  0.7466
  631MOL0     H87054   1.690   2.412   9.488 -1.5070  0.4905 -0.5607
  631MOL0     H87055   1.632   2.580   9.494 -0.8294 -1.7318  0.4936
  631MOL0     H87056   1.857   2.653   9.406  0.0057  0.0214 -1.8074
  631MOL0     H87057   1.915   2.486   9.412  0.9172  2.1410 -1.1952
  631MOL0     H87058   0.843   2.453   8.957  0.1936 -0.0364 -0.1498
  631MOL0     H87059   0.606   2.547   8.889 -1.2614  1.4409 -0.6243
  631MOL0     H87060   0.340   2.873   9.150 -2.4514  1.4695  2.6542
  631MOL0     H87061   0.151   3.008   9.196  0.3690  0.0722  0.4473
  631MOL0     H87062   0.707   3.981   8.804 -3.3486 -0.7182 -0.6388
  631MOL0     H87063   0.886   4.147   8.786  0.9288  2.1209  1.5977
  631MOL0     H87064   1.060   4.491   8.621  0.1390 -2.3059  1.8721
  631MOL0     H87065   1.296   4.604   8.603  2.9618  3.4752  1.8033
  631MOL0     H87066   1.462   4.890   8.727 -1.4690  0.0016 -0.0789
  631MOL0     H87067   1.343   4.851   8.852 -0.9268  0.2948 -0.8429
  631MOL0     H87068   1.507   4.768   9.006 -0.7319  1.0466  0.5104
  631MOL0     H87069   1.534   4.947   8.977  0.9411 -1.4756  2.9057
  631MOL0     H87070   1.672   4.789   8.789 -0.2458 -2.8769  1.4025
  631MOL0     H87071   1.739   4.920   8.893 -0.0661  0.3540  0.7388
  631MOL0     H87072   1.852   4.715   8.942  0.7445  3.5363  1.7519
  631MOL0     H87073   1.694   4.634   8.987  0.0575  0.2626  1.1582
  631MOL0     H87074   1.846   4.905   9.290  1.1466 -0.8173 -0.8748
  631MOL0     H87075   1.313   4.653   9.010 -0.8991 -1.9688  0.3489
  631MOL0     H87076   1.168   4.595   9.164  0.0803 -2.3902 -0.4826
  631MOL0     H87077   0.999   4.615   9.117  0.3271  0.2545 -0.0895
  631MOL0     H87078   1.087   4.456   9.133 -1.4888 -0.0341  0.5183
  632MOL0     O87079   3.844   8.461  10.190 -0.0118  0.2508  0.1944
  632MOL0     C87080   3.907   8.393  10.266 -0.2810  0.3633 -0.3282
  632MOL0     O87081   3.843   8.318  10.366  0.6021 -0.4554  0.8505
  632MOL0     C87082   3.707   8.297  10.367 -0.0941 -0.5552 -0.5789
  632MOL0     C87083   3.642   8.252  10.252  0.4002  0.2409 -0.1408
  632MOL0     C87084   3.502   8.231  10.255 -0.3196  0.2154  0.6307
  632MOL0     C87085   3.425   8.245  10.364 -1.0175  0.6579 -0.0348
  632MOL0     O87086   3.293   8.221  10.358  0.2367 -0.4433 -0.7188
  632MOL0     C87087   3.244   8.111  10.438  0.7089 -0.0498  0.0144
  632MOL0     C87088   3.094   8.112  10.411  0.3497  0.1156 -0.6326
  632MOL0     C87089   3.039   7.985  10.493 -0.0509  0.3351  0.2738
  632MOL0     C87090   2.882   7.960  10.478 -0.7821  0.2282 -0.9246
  632MOL0     C87091   2.847   7.806  10.503  0.5828  0.7557  0.4627
  632MOL0     C87092   2.839   7.782  10.650 -0.6252 -0.2107  0.1230
  632MOL0     C87093   2.812   7.631  10.677  0.4377  0.2916  0.5305
  632MOL0     C87094   2.658   7.591  10.676 -0.2426  0.8891 -0.2306
  632MOL0     N87095   2.647   7.446  10.667  0.0990  0.5536 -0.3475
  632MOL0     C87096   2.608   7.360  10.769  1.3255  0.1623 -0.3078
  632MOL0     C87097   2.649   7.244  10.730 -0.9064 -0.0316  0.9797
  632MOL0     C87098   2.636   7.123  10.818 -0.2747  0.9784 -1.2808
  632MOL0     C87099   2.537   7.010  10.757 -0.5790  0.4134  0.5892
  632MOL0     C87100   2.495   6.897  10.862  0.0221  0.4387  0.3307
  632MOL0     C87101   2.388   6.794  10.808  0.7861  0.2366  0.0293
  632MOL0     O87102   2.428   6.739  10.683 -0.2426 -0.3308  0.0008
  632MOL0     C87103   2.457   6.610  10.669 -0.2335 -0.8043  0.2043
  632MOL0     C87104   2.483   6.561  10.540 -0.5883 -0.6203 -0.1095
  632MOL0     C87105   2.516   6.433  10.509  0.5771 -0.0142 -0.2116
  632MOL0     C87106   2.531   6.399  10.360 -0.3563  0.4760 -0.5663
  632MOL0     C87107   2.516   6.335  10.615 -0.0560 -0.6286 -0.2739
  632MOL0     C87108   2.534   6.183  10.596 -0.2457  0.1248 -0.5360
  632MOL0     O87109   2.535   6.134  10.470 -0.3757  0.0557 -0.1421
  632MOL0     C87110   2.548   5.996  10.459 -0.2662  0.4568 -0.6510
  632MOL0     C87111   2.443   5.908  10.455 -0.4117 -0.3238 -0.0352
  632MOL0     C87112   2.472   5.774  10.420 -0.2233  0.1499 -0.9040
  632MOL0     C87113   2.600   5.722  10.395  0.4735 -0.0943 -0.3151
  632MOL0     O87114   2.623   5.590  10.379 -0.1618 -0.3041 -0.6022
  632MOL0     C87115   2.660   5.518  10.494  0.4392 -0.1553 -0.0946
  632MOL0     C87116   2.600   5.391  10.495  0.2882  0.1775 -0.0780
  632MOL0     C87117   2.675   5.289  10.391 -0.2477 -0.2090  0.2001
  632MOL0     C87118   2.602   5.152  10.400 -1.4061  0.3473  0.7904
  632MOL0     C87119   2.455   5.167  10.386  0.5243  0.1912 -0.6014
  632MOL0     C87120   2.384   5.032  10.359 -0.4744 -0.1188 -0.0020
  632MOL0     C87121   2.459   4.932  10.265  0.2314 -0.4636 -0.1214
  632MOL0     C87122   2.562   4.840  10.345  0.7489  0.6138 -0.8136
  632MOL0    Cl87123   2.486   4.729  10.468  0.2219  0.5302  0.1454
  632MOL0     C87124   2.701   5.815  10.388  0.1816  0.6863 -0.9730
  632MOL0     C87125   2.679   5.948  10.425  0.8085 -0.1671 -0.0942
  632MOL0     O87126   2.529   6.114  10.698 -0.0415 -0.9272  0.1828
  632MOL0     C87127   2.485   6.383  10.744 -0.7153 -0.3522  0.0666
  632MOL0     C87128   2.475   6.519  10.772 -0.4136  0.1244 -0.4258
  632MOL0     N87129   2.691   7.256  10.601 -0.3091  0.4563  0.1383
  632MOL0     N87130   2.689   7.379  10.563  1.2847  0.0714 -0.2195
  632MOL0     C87131   3.490   8.277  10.486 -0.5118 -0.1159 -0.3492
  632MOL0     C87132   3.628   8.302  10.488 -0.1820 -0.8300  0.0192
  632MOL0     C87133   4.055   8.408  10.274  0.1292 -0.1211 -0.3898
  632MOL0     C87134   4.126   8.338  10.378  0.3038 -0.0348  0.4131
  632MOL0     C87135   4.267   8.349  10.403 -0.1787  0.6935  0.4883
  632MOL0     C87136   4.340   8.429  10.317 -0.0464  0.2097  0.1828
  632MOL0     O87137   4.474   8.445  10.315 -0.6326 -0.2349  0.3234
  632MOL0     C87138   4.543   8.401  10.432 -0.2946 -0.5024 -1.1592
  632MOL0     C87139   4.693   8.424  10.420  0.1022  0.4176 -0.2519
  632MOL0     C87140   4.750   8.387  10.280  0.0654 -0.1195 -0.0160
  632MOL0     C87141   4.909   8.376  10.291  0.0940  1.0746  0.6631
  632MOL0     C87142   4.950   8.250  10.359  0.3882 -0.5161  0.3047
  632MOL0     C87143   4.967   8.148  10.426  0.8249 -0.4997  0.8008
  632MOL0     C87144   4.267   8.501  10.212 -0.8198 -0.2095 -0.5134
  632MOL0     C87145   4.132   8.491  10.195  0.6835 -0.0918 -0.0196
  632MOL0     C87146   4.079   8.575  10.082  0.8372  0.2049  0.2250
  632MOL0     H87147   3.698   8.234  10.161 -3.0110 -0.0052 -2.3844
  632MOL0     H87148   3.449   8.202  10.164  0.6822 -0.7262  0.3226
  632MOL0     H87149   3.262   8.117  10.546  0.4330  0.3986  0.0376
  632MOL0     H87150   3.284   8.016  10.401 -0.0063 -1.4129  2.4772
  632MOL0     H87151   3.030   8.193  10.446 -1.7167 -0.8761 -1.9050
  632MOL0     H87152   3.072   8.105  10.304 -0.3280  0.2516 -0.5035
  632MOL0     H87153   3.093   7.899  10.452 -1.0242  0.7395 -2.0464
  632MOL0     H87154   3.055   7.995  10.600 -2.9599 -4.0372  1.4106
  632MOL0     H87155   2.817   8.006  10.552 -1.4492 -1.0071 -0.7188
  632MOL0     H87156   2.847   7.974  10.376  0.6745  0.2301 -1.4451
  632MOL0     H87157   2.928   7.747  10.460 -0.0253  1.7598 -2.2992
  632MOL0     H87158   2.749   7.786  10.458  0.7879 -0.5302  0.5693
  632MOL0     H87159   2.930   7.812  10.702 -1.0528 -0.6215  1.1282
  632MOL0     H87160   2.761   7.838  10.702 -0.1547 -0.2659  0.8978
  632MOL0     H87161   2.855   7.602  10.773 -0.5533  0.4920  1.0439
  632MOL0     H87162   2.861   7.578  10.594  1.0146 -0.7677  1.5221
  632MOL0     H87163   2.599   7.622  10.762 -0.9898  0.2074 -0.4904
  632MOL0     H87164   2.621   7.618  10.576  0.9713  0.6070 -0.7779
  632MOL0     H87165   2.562   7.387  10.863  1.4130 -1.4459  0.2396
  632MOL0     H87166   2.597   7.151  10.917  1.5557  2.3066 -0.8819
  632MOL0     H87167   2.739   7.088  10.830 -0.6732  0.4434  1.0795
  632MOL0     H87168   2.451   7.060  10.711 -0.5025  0.0501  0.0448
  632MOL0     H87169   2.603   6.964  10.683 -0.7905  2.4238 -0.9358
  632MOL0     H87170   2.577   6.840  10.905  0.6665  2.1388  1.4491
  632MOL0     H87171   2.445   6.950  10.944 -0.0833  0.1377  0.4612
  632MOL0     H87172   2.372   6.726  10.892 -1.4681  5.1456  4.1285
  632MOL0     H87173   2.295   6.848  10.789  1.9338  1.5748 -2.3213
  632MOL0     H87174   2.475   6.636  10.461 -1.9380 -1.2385 -0.6004
  632MOL0     H87175   2.453   6.331  10.326  0.0120 -1.0195  1.4409
  632MOL0     H87176   2.628   6.355  10.337 -1.2155 -1.6465 -0.3055
  632MOL0     H87177   2.516   6.496  10.310 -1.7017  0.9625  0.6978
  632MOL0     H87178   2.344   5.945  10.478  0.1403  0.9271  0.4243
  632MOL0     H87179   2.396   5.697  10.417  0.5927 -0.9870  2.5476
  632MOL0     H87180   2.767   5.500  10.511  0.5421  2.6766  3.6288
  632MOL0     H87181   2.626   5.573  10.582 -1.2447 -0.1969 -0.6947
  632MOL0     H87182   2.600   5.338  10.590  0.7254 -2.3102 -1.4012
  632MOL0     H87183   2.497   5.411  10.463  1.3081 -0.2553 -4.2312
  632MOL0     H87184   2.777   5.274  10.427 -0.3358  0.3328  0.6972
  632MOL0     H87185   2.655   5.317  10.288 -2.4019 -2.4116 -0.0860
  632MOL0     H87186   2.629   5.097  10.490  2.1713  0.6870  0.0785
  632MOL0     H87187   2.642   5.096  10.315  1.0722  1.4514  1.1401
  632MOL0     H87188   2.409   5.205  10.477 -1.0740  1.9136 -2.0423
  632MOL0     H87189   2.432   5.245  10.312 -1.1893 -1.6046 -2.0807
  632MOL0     H87190   2.287   5.045  10.309  0.4154  2.4358 -1.2518
  632MOL0     H87191   2.371   4.995  10.461  1.6181 -0.6516  0.0962
  632MOL0     H87192   2.512   4.990  10.190 -0.8080  0.7357  0.0279
  632MOL0     H87193   2.378   4.878  10.214 -1.3547  1.3685  0.3559
  632MOL0     H87194   2.631   4.899  10.406  0.0839  1.3792 -0.7778
  632MOL0     H87195   2.619   4.782  10.272 -4.6703 -1.3037 -4.0882
  632MOL0     H87196   2.798   5.772  10.364  1.6967  2.8715  0.7021
  632MOL0     H87197   2.755   6.026  10.428  0.6740  0.0066 -1.0891
  632MOL0     H87198   2.478   6.321  10.834  1.6616  1.1272  1.3712
  632MOL0     H87199   2.485   6.533  10.879  1.5223 -3.7473  0.0974
  632MOL0     H87200   3.433   8.295  10.576  0.1084  1.1396 -0.2009
  632MOL0     H87201   3.675   8.325  10.583  1.7540 -4.2191  0.0343
  632MOL0     H87202   4.072   8.273  10.446 -1.3448  0.7974 -0.0372
  632MOL0     H87203   4.317   8.287  10.477  3.6146 -0.9128 -3.0392
  632MOL0     H87204   4.504   8.442  10.526  0.3714  3.1676 -2.3098
  632MOL0     H87205   4.542   8.292  10.436 -0.8608 -0.4735 -0.2448
  632MOL0     H87206   4.741   8.360  10.496  1.4908  1.4711 -0.2040
  632MOL0     H87207   4.712   8.529  10.445 -1.7305  0.6360  0.3843
  632MOL0     H87208   4.698   8.296  10.248 -3.0989  0.9412  1.6368
  632MOL0     H87209   4.737   8.475  10.215 -0.1355  1.2527  1.7980
  632MOL0     H87210   4.952   8.462  10.343  1.3609  1.8834 -1.5635
  632MOL0     H87211   4.959   8.371  10.194 -1.9040 -0.0386 -0.3735
  632MOL0     H87212   4.990   8.071  10.496  1.5381 -1.0473 -0.0201
  632MOL0     H87213   4.328   8.559  10.142 -0.6945  2.1364  1.4121
  632MOL0     H87214   4.004   8.644  10.122 -0.7749 -1.6832  0.6235
  632MOL0     H87215   4.163   8.628  10.036  2.9048 -2.6995  0.3696
  632MOL0     H87216   4.035   8.504  10.011  0.9924  3.7392 -3.8292
  633MOL0     O87217   9.945  10.751   3.429  0.3859 -0.9131  0.6182
  633MOL0     C87218   9.868  10.745   3.337 -0.6860 -0.1096  0.4685
  633MOL0     O87219   9.874  10.811   3.217 -0.4695 -0.3608 -0.6831
  633MOL0     C87220   9.979  10.899   3.199 -0.5370  0.2805 -0.2826
  633MOL0     C87221   9.950  11.016   3.130  0.5035  0.3600  0.4331
  633MOL0     C87222  10.052  11.108   3.108  0.2296 -0.6520  0.4224
  633MOL0     C87223  10.188  11.082   3.138  1.0232 -0.5386  0.8715
  633MOL0     O87224  10.286  11.177   3.104  0.7671  0.8136  0.1453
  633MOL0     C87225  10.280  11.230   2.975  0.3017  0.3115  0.6007
  633MOL0     C87226  10.394  11.329   2.978  0.0791 -0.2312  0.0165
  633MOL0     C87227  10.535  11.254   2.964  0.9762  0.0649  0.2975
  633MOL0     C87228  10.650  11.345   2.999  0.3879  0.4165  0.3189
  633MOL0     C87229  10.789  11.291   2.954  1.7323  0.0473 -0.2067
  633MOL0     C87230  10.909  11.366   3.027 -0.2642  0.5146  0.1830
  633MOL0     C87231  11.035  11.306   2.966  0.6080  0.0605  0.3165
  633MOL0     C87232  11.143  11.354   3.063 -0.0701 -0.6767  0.4774
  633MOL0     N87233  11.278  11.294   3.056 -0.3662 -0.3628 -0.1284
  633MOL0     C87234  11.340  11.227   3.156  0.3786 -0.4725  0.9338
  633MOL0     C87235  11.465  11.203   3.113 -0.2614 -0.2780 -0.3921
  633MOL0     C87236  11.586  11.121   3.155 -0.4048 -0.1977  0.8508
  633MOL0     C87237  11.721  11.143   3.078  0.5179  0.9491  0.2057
  633MOL0     C87238  11.825  11.030   3.102  0.1002 -0.3430  0.7723
  633MOL0     C87239  11.952  11.047   3.022  0.4414  1.0091  0.3282
  633MOL0     O87240  12.025  11.173   3.050  0.6249  0.6714  0.5462
  633MOL0     C87241  12.160  11.181   3.048  0.0720  0.2787 -0.3467
  633MOL0     C87242  12.239  11.093   2.986 -0.5569 -0.5151  0.9921
  633MOL0     C87243  12.380  11.110   2.977  1.0368 -0.8940 -0.3358
  633MOL0     C87244  12.449  10.990   2.910 -1.5059  0.1379  0.8020
  633MOL0     C87245  12.430  11.230   3.041 -0.1602 -0.3294  0.0325
  633MOL0     C87246  12.581  11.257   3.057 -1.0685 -0.9845 -0.3507
  633MOL0     O87247  12.671  11.175   2.997 -0.4800 -0.6025  0.1032
  633MOL0     C87248  12.812  11.184   3.031  0.2346  0.1479  0.1749
  633MOL0     C87249  12.905  11.228   2.930 -0.4279 -0.3275  0.4361
  633MOL0     C87250  13.043  11.235   2.952  0.6110 -0.1246  0.1106
  633MOL0     C87251  13.091  11.204   3.081  0.2458 -0.9245 -0.2711
  633MOL0     O87252  13.224  11.210   3.099 -0.4316 -1.1827  0.3793
  633MOL0     C87253  13.293  11.176   3.225 -0.1410 -0.4866  0.1849
  633MOL0     C87254  13.446  11.175   3.205 -0.2566 -0.0435  0.2967
  633MOL0     C87255  13.530  11.212   3.324 -0.8703 -0.1546  0.1733
  633MOL0     C87256  13.678  11.224   3.287 -0.0096 -0.3046  0.3749
  633MOL0     C87257  13.762  11.264   3.405 -1.4096  0.3965  0.1092
  633MOL0     C87258  13.913  11.250   3.383 -0.9560 -0.8911  0.1075
  633MOL0     C87259  13.955  11.334   3.262 -0.0774  0.0445 -0.0245
  633MOL0     C87260  13.929  11.480   3.294  0.2370  0.3342  0.4529
  633MOL0    Cl87261  14.027  11.537   3.443 -0.1251 -0.1147  0.6113
  633MOL0     C87262  13.000  11.166   3.178  1.1110 -0.6454  0.1021
  633MOL0     C87263  12.863  11.147   3.157  1.3888  0.0381 -0.7912
  633MOL0     O87264  12.611  11.359   3.121  0.1256  0.4755  1.0437
  633MOL0     C87265  12.348  11.325   3.097  0.4433 -0.1465 -0.2836
  633MOL0     C87266  12.209  11.303   3.100  0.7508 -0.6492  0.8379
  633MOL0     N87267  11.481  11.278   2.998 -0.5180 -0.8162  0.2618
  633MOL0     N87268  11.372  11.330   2.965 -1.3978 -0.2162  0.1429
  633MOL0     C87269  10.218  10.964   3.205  0.6340 -0.1173  0.1820
  633MOL0     C87270  10.115  10.877   3.236 -0.3595  0.0742  0.0917
  633MOL0     C87271   9.751  10.661   3.371  0.9010 -0.4630 -0.8264
  633MOL0     C87272   9.732  10.619   3.514  0.2122  0.6880 -0.0247
  633MOL0     C87273   9.619  10.540   3.547  0.6852  0.6153 -0.1767
  633MOL0     C87274   9.515  10.512   3.446 -0.1182 -0.4953  0.6400
  633MOL0     O87275   9.406  10.442   3.475 -0.0299  0.6774  0.1676
  633MOL0     C87276   9.425  10.301   3.464 -0.7115 -0.0704  0.1025
  633MOL0     C87277   9.367  10.259   3.331  0.0467 -0.0663 -0.1785
  633MOL0     C87278   9.220  10.241   3.336  0.6983 -0.0001 -0.8033
  633MOL0     C87279   9.164  10.178   3.206 -0.4380  1.3869 -0.1935
  633MOL0     C87280   9.160  10.275   3.104 -0.3143  0.1175 -0.0022
  633MOL0     C87281   9.163  10.373   3.030 -0.5025  0.1042 -0.8342
  633MOL0     C87282   9.537  10.550   3.312  0.1140 -0.7807  0.2455
  633MOL0     C87283   9.652  10.625   3.274  1.2346 -0.5710  0.7370
  633MOL0     C87284   9.672  10.622   3.122 -0.7538  0.0257 -0.9638
  633MOL0     H87285   9.850  11.046   3.098  1.3234  1.6625 -1.0033
  633MOL0     H87286  10.038  11.203   3.058 -0.0736  0.2142  2.0663
  633MOL0     H87287  10.183  11.280   2.959  0.8002  1.0325 -0.2668
  633MOL0     H87288  10.307  11.163   2.893  1.6548  1.4096  0.1016
  633MOL0     H87289  10.370  11.411   2.910 -1.8919 -1.0829 -0.3576
  633MOL0     H87290  10.397  11.370   3.080  1.7694 -1.6790  0.6046
  633MOL0     H87291  10.527  11.170   3.034 -1.5319 -1.2297 -1.3879
  633MOL0     H87292  10.546  11.217   2.862 -0.2451  0.5203 -0.0212
  633MOL0     H87293  10.633  11.441   2.950  2.2936  0.6398  0.0053
  633MOL0     H87294  10.655  11.363   3.106  0.2753  1.0826  0.2159
  633MOL0     H87295  10.801  11.295   2.845 -3.1640 -2.3559 -1.0769
  633MOL0     H87296  10.788  11.184   2.975 -2.0947  0.4448  2.6682
  633MOL0     H87297  10.908  11.475   3.018  3.0893  0.6596  0.4904
  633MOL0     H87298  10.899  11.343   3.133  1.0750 -2.2385 -0.2122
  633MOL0     H87299  11.056  11.343   2.866  1.3758 -0.6929  0.1827
  633MOL0     H87300  11.041  11.197   2.979  0.4793 -0.0580 -0.5605
  633MOL0     H87301  11.162  11.461   3.044  1.4746 -0.9978  0.1310
  633MOL0     H87302  11.104  11.339   3.164 -2.0988 -3.4664 -0.6056
  633MOL0     H87303  11.286  11.181   3.238 -1.1081 -1.0362 -0.3123
  633MOL0     H87304  11.569  11.013   3.148  2.7923 -0.7338 -0.5306
  633MOL0     H87305  11.599  11.152   3.259  0.1036  2.2678  0.1076
  633MOL0     H87306  11.700  11.161   2.972 -1.7535  2.3315  0.8154
  633MOL0     H87307  11.763  11.235   3.118  0.9151 -0.0515  2.2203
  633MOL0     H87308  11.840  11.032   3.211 -1.6721 -1.3193  1.0736
  633MOL0     H87309  11.771  10.937   3.079  0.4689 -0.2653 -0.4483
  633MOL0     H87310  12.019  10.965   3.048 -2.5372 -1.5315  0.5350
  633MOL0     H87311  11.920  11.042   2.918 -1.3499 -1.9790  0.9033
  633MOL0     H87312  12.194  11.012   2.929 -3.2536  2.9121 -2.1664
  633MOL0     H87313  12.540  10.962   2.965 -1.6417  0.2555  1.0875
  633MOL0     H87314  12.479  11.015   2.808 -3.0242  1.9864  0.7681
  633MOL0     H87315  12.389  10.899   2.902 -2.7152  0.8251  1.8510
  633MOL0     H87316  12.860  11.251   2.834  0.6986 -3.5953 -1.0136
  633MOL0     H87317  13.113  11.266   2.875 -1.3059  1.9686 -0.9118
  633MOL0     H87318  13.256  11.253   3.293 -0.6259 -0.2061 -0.3780
  633MOL0     H87319  13.247  11.083   3.260 -2.3723  0.1906 -0.7056
  633MOL0     H87320  13.471  11.070   3.186  0.5944  0.1940  0.0759
  633MOL0     H87321  13.479  11.230   3.117 -0.4559 -2.7150 -1.5659
  633MOL0     H87322  13.520  11.135   3.401 -1.7207 -1.4870 -1.2049
  633MOL0     H87323  13.496  11.309   3.363  1.2082  1.5660 -1.9494
  633MOL0     H87324  13.687  11.308   3.218 -2.0201  0.2576  0.7345
  633MOL0     H87325  13.716  11.133   3.239  0.0779 -0.8058  1.3686
  633MOL0     H87326  13.746  11.369   3.429  0.5535  0.9187 -0.6390
  633MOL0     H87327  13.765  11.198   3.493  3.9038  0.5715  0.4011
  633MOL0     H87328  13.935  11.146   3.356 -3.3648 -1.0209 -1.6263
  633MOL0     H87329  13.967  11.264   3.476 -0.7109 -0.0654 -0.1481
  633MOL0     H87330  13.911  11.300   3.168  1.5091  1.7747 -1.4642
  633MOL0     H87331  14.063  11.319   3.252  0.3213  1.1348  2.0970
  633MOL0     H87332  13.822  11.498   3.306 -0.6093 -3.6274  0.0675
  633MOL0     H87333  13.966  11.523   3.200 -1.0138 -0.1411 -0.2871
  633MOL0     H87334  13.043  11.152   3.277 -1.8800 -2.6066  1.2393
  633MOL0     H87335  12.787  11.125   3.231  2.4965 -0.0730  0.3325
  633MOL0     H87336  12.378  11.420   3.141 -2.0450  1.2876 -1.4310
  633MOL0     H87337  12.145  11.369   3.157  2.3113  0.9818  0.8104
  633MOL0     H87338  10.317  10.928   3.231  0.3325 -1.4343 -0.4210
  633MOL0     H87339  10.151  10.786   3.284  0.9254  0.4721 -0.0679
  633MOL0     H87340   9.801  10.633   3.596 -0.5766 -4.3634  1.9175
  633MOL0     H87341   9.590  10.489   3.638  1.2569 -0.4969 -0.5957
  633MOL0     H87342   9.528  10.270   3.483 -0.4479  0.5715 -0.2615
  633MOL0     H87343   9.359  10.251   3.536 -3.8244  0.2408 -2.3294
  633MOL0     H87344   9.413  10.162   3.312 -2.4891 -1.5593  0.7101
  633MOL0     H87345   9.398  10.319   3.245  1.8197 -2.3261 -1.1954
  633MOL0     H87346   9.190  10.181   3.422  0.6810  1.6145  0.3605
  633MOL0     H87347   9.170  10.337   3.348  0.8189  0.2208 -1.9191
  633MOL0     H87348   9.063  10.138   3.219  1.0231 -2.1441  1.8414
  633MOL0     H87349   9.227  10.091   3.182 -1.9887 -0.0976  0.8165
  633MOL0     H87350   9.187  10.453   2.964 -0.0300  1.3879  0.8341
  633MOL0     H87351   9.465  10.520   3.237 -2.0327 -4.3309  3.3491
  633MOL0     H87352   9.772  10.643   3.083 -0.2101  0.7827  0.7040
  633MOL0     H87353   9.634  10.526   3.087 -2.8489  0.3947  0.0945
  633MOL0     H87354   9.604  10.697   3.081 -0.4651 -0.2025 -1.8839
  634MOL0     O87355   6.718   8.068   8.475 -0.2856  0.5797 -0.5643
  634MOL0     C87356   6.674   7.966   8.533 -0.1033 -0.3833  0.4467
  634MOL0     O87357   6.655   7.851   8.464  0.2460 -0.0823  0.2502
  634MOL0     C87358   6.701   7.836   8.335  0.7736  0.2996 -0.1983
  634MOL0     C87359   6.843   7.826   8.314  0.3406 -0.2132 -0.2860
  634MOL0     C87360   6.897   7.832   8.183 -1.2480  0.4036  0.0333
  634MOL0     C87361   6.805   7.837   8.081  0.2564 -0.0818  0.3956
  634MOL0     O87362   6.836   7.855   7.946  0.3153  0.2606 -0.3089
  634MOL0     C87363   6.957   7.919   7.913 -0.4944 -0.0028 -0.5795
  634MOL0     C87364   6.954   7.923   7.758  0.2724  0.1934  0.0180
  634MOL0     C87365   6.829   7.997   7.707  0.1242  0.0265  0.3247
  634MOL0     C87366   6.857   8.035   7.558 -0.1562  0.1620  0.2163
  634MOL0     C87367   6.719   8.060   7.495 -0.7961 -0.5740 -0.2252
  634MOL0     C87368   6.636   8.183   7.549 -0.0308 -0.8073  0.5955
  634MOL0     C87369   6.719   8.309   7.588  0.2626 -0.4828 -0.1027
  634MOL0     C87370   6.624   8.395   7.665  0.0630 -0.4073  0.1933
  634MOL0     N87371   6.665   8.537   7.666  0.9220  0.0291  0.1648
  634MOL0     C87372   6.617   8.621   7.568 -0.4133 -0.7766 -0.0157
  634MOL0     C87373   6.672   8.737   7.612  0.1353 -0.0540 -0.3146
  634MOL0     C87374   6.665   8.871   7.540  0.0188  0.0320  0.3359
  634MOL0     C87375   6.777   8.974   7.581 -0.6558 -0.4584 -0.3850
  634MOL0     C87376   6.740   9.125   7.548  0.1982  0.1673  0.5060
  634MOL0     C87377   6.847   9.214   7.491 -0.0891  0.7468 -0.1369
  634MOL0     O87378   6.929   9.258   7.599  1.0107  0.3937 -0.2828
  634MOL0     C87379   6.931   9.390   7.636 -0.2297  0.2734 -0.4880
  634MOL0     C87380   6.835   9.493   7.620 -1.2197  0.3641  0.9227
  634MOL0     C87381   6.862   9.625   7.649 -0.3699 -0.2473  0.7339
  634MOL0     C87382   6.757   9.731   7.602  1.0825  0.2804 -0.3506
  634MOL0     C87383   6.983   9.660   7.711 -0.6688 -0.6010  0.0642
  634MOL0     C87384   7.026   9.807   7.731 -0.1169 -0.8318 -0.3095
  634MOL0     O87385   7.161   9.817   7.758 -0.3684 -0.2062 -0.6413
  634MOL0     C87386   7.236   9.926   7.727  0.3178  0.2264 -0.0551
  634MOL0     C87387   7.368   9.931   7.784  1.1920 -0.3827 -0.2401
  634MOL0     C87388   7.448  10.047   7.756 -0.4837  0.3185 -0.8891
  634MOL0     C87389   7.414  10.141   7.658 -0.3053  0.8949 -0.2711
  634MOL0     O87390   7.499  10.239   7.629 -0.1613 -0.2614  0.2808
  634MOL0     C87391   7.454  10.384   7.631  0.2061  0.4484 -0.1004
  634MOL0     C87392   7.578  10.475   7.597 -0.3144  0.2125 -0.4658
  634MOL0     C87393   7.629  10.452   7.452  0.4298  0.7485  0.4085
  634MOL0     C87394   7.737  10.556   7.422 -0.0692 -0.7808 -0.2647
  634MOL0     C87395   7.783  10.532   7.280 -0.2093  0.1200 -0.3691
  634MOL0     C87396   7.873  10.636   7.211 -0.0261 -0.9669 -0.6815
  634MOL0     C87397   7.811  10.701   7.084 -0.6242 -0.5625  0.5121
  634MOL0     C87398   7.910  10.803   7.025 -0.5988 -1.2034 -0.3444
  634MOL0    Cl87399   7.842  10.891   6.888 -0.1551 -0.0816  0.4039
  634MOL0     C87400   7.300  10.126   7.588 -0.0134 -0.2026  0.5572
  634MOL0     C87401   7.208  10.025   7.628 -0.5588  0.4697 -0.4478
  634MOL0     O87402   6.950   9.898   7.721  0.2924  0.3485 -0.0867
  634MOL0     C87403   7.076   9.556   7.731 -0.5504 -0.5309 -0.3583
  634MOL0     C87404   7.057   9.424   7.690  0.3794 -0.6692 -0.1595
  634MOL0     N87405   6.747   8.720   7.729  0.0497 -0.3167 -0.6903
  634MOL0     N87406   6.743   8.594   7.761  0.0216 -0.8582 -0.2787
  634MOL0     C87407   6.670   7.838   8.095  0.5441  0.1344 -0.1403
  634MOL0     C87408   6.615   7.831   8.222  0.3723  0.3177 -0.2652
  634MOL0     C87409   6.637   7.955   8.685  0.0669 -0.0733  0.2901
  634MOL0     C87410   6.612   7.826   8.734  0.6406  1.4803  1.1012
  634MOL0     C87411   6.584   7.805   8.874  0.2347 -0.9974 -0.2730
  634MOL0     C87412   6.591   7.910   8.968  0.4742 -0.0889 -0.4746
  634MOL0     O87413   6.584   7.890   9.107  0.1033  0.6944  0.3903
  634MOL0     C87414   6.489   7.969   9.181  0.9203 -0.4610  0.7796
  634MOL0     C87415   6.347   7.920   9.172  0.5191  1.3466 -0.4632
  634MOL0     C87416   6.334   7.764   9.173 -0.1535 -0.1623 -0.7946
  634MOL0     C87417   6.391   7.703   9.304  0.4210 -0.6161 -0.1597
  634MOL0     C87418   6.329   7.773   9.420 -0.1047  0.3978 -0.3642
  634MOL0     C87419   6.266   7.844   9.491  0.0068 -0.1296 -0.1013
  634MOL0     C87420   6.616   8.042   8.911  0.6051  0.3673  0.3145
  634MOL0     C87421   6.631   8.067   8.773 -0.2823 -0.3052 -0.3998
  634MOL0     C87422   6.659   8.218   8.741  0.8095 -0.2023 -1.0847
  634MOL0     H87423   6.903   7.815   8.403 -1.1608  0.6448  0.8799
  634MOL0     H87424   7.001   7.813   8.156 -1.3571  2.1781 -1.8930
  634MOL0     H87425   7.041   7.865   7.957 -3.1941 -3.8163  0.4903
  634MOL0     H87426   6.979   8.021   7.945  1.3526  0.4713 -3.0339
  634MOL0     H87427   7.039   7.974   7.713 -0.5823 -0.2816 -2.2640
  634MOL0     H87428   6.957   7.826   7.708  1.2303  0.7003 -0.9489
  634MOL0     H87429   6.739   7.935   7.699  0.1712  0.1444 -1.7651
  634MOL0     H87430   6.817   8.091   7.761  1.6728 -1.0348  2.6751
  634MOL0     H87431   6.930   8.118   7.553 -0.7302  0.6080 -1.6578
  634MOL0     H87432   6.899   7.946   7.511 -0.4424 -0.0791  0.4201
  634MOL0     H87433   6.660   7.970   7.517 -1.8422  0.6064  2.1725
  634MOL0     H87434   6.728   8.079   7.387  1.0154 -2.2956 -0.4335
  634MOL0     H87435   6.559   8.207   7.475  0.8076 -0.7549 -0.2879
  634MOL0     H87436   6.570   8.133   7.620 -1.3402 -2.1886 -1.4664
  634MOL0     H87437   6.764   8.343   7.495 -1.2597 -3.4845 -2.0873
  634MOL0     H87438   6.801   8.297   7.660  0.4588  3.0451  0.4569
  634MOL0     H87439   6.521   8.385   7.631 -0.0768  1.7261 -0.1537
  634MOL0     H87440   6.621   8.370   7.772 -1.6300  0.3352  0.3583
  634MOL0     H87441   6.561   8.584   7.483 -0.8046 -0.3559  0.0569
  634MOL0     H87442   6.569   8.911   7.574  0.3640  0.0998  1.2650
  634MOL0     H87443   6.661   8.847   7.434 -3.2839  0.2215  0.3243
  634MOL0     H87444   6.787   8.975   7.690 -0.6517  0.2324 -0.3823
  634MOL0     H87445   6.875   8.953   7.536  0.1148  1.7871  0.1101
  634MOL0     H87446   6.661   9.123   7.472  0.0706 -0.8844  0.6445
  634MOL0     H87447   6.695   9.168   7.638 -1.2681  0.2108 -0.2144
  634MOL0     H87448   6.903   9.157   7.416  0.6752  1.1194  0.1317
  634MOL0     H87449   6.800   9.290   7.428 -1.7756 -0.9913 -1.0667
  634MOL0     H87450   6.742   9.461   7.576  1.3993 -1.3077 -4.2558
  634MOL0     H87451   6.800   9.804   7.533 -1.3483 -1.3222 -3.8461
  634MOL0     H87452   6.708   9.787   7.682  2.3634  2.0227 -0.7318
  634MOL0     H87453   6.681   9.673   7.549  0.2809  0.8546  0.1418
  634MOL0     H87454   7.401   9.849   7.848  1.6180 -1.1782 -1.4401
  634MOL0     H87455   7.546  10.058   7.801  0.4070 -0.7974 -2.4394
  634MOL0     H87456   7.389  10.408   7.545  1.3954  2.6953 -0.4730
  634MOL0     H87457   7.400  10.422   7.718 -0.8991 -2.2619  0.4892
  634MOL0     H87458   7.557  10.583   7.601  2.2283  0.7689 -0.2673
  634MOL0     H87459   7.650  10.466   7.679  0.0129  4.1281 -0.1127
  634MOL0     H87460   7.550  10.480   7.381 -0.1010  2.3189  1.5440
  634MOL0     H87461   7.659  10.349   7.435  2.5460  1.4690 -0.6163
  634MOL0     H87462   7.827  10.537   7.482  1.4484  0.9627 -1.8109
  634MOL0     H87463   7.700  10.657   7.444  0.9214 -0.6744  1.0815
  634MOL0     H87464   7.829  10.433   7.284 -3.6488 -1.7200 -1.7949
  634MOL0     H87465   7.701  10.515   7.209 -0.6796 -4.0063  0.9207
  634MOL0     H87466   7.974  10.599   7.190 -0.4404 -1.3478 -2.1071
  634MOL0     H87467   7.887  10.717   7.284  3.8811 -1.2425 -0.8940
  634MOL0     H87468   7.723  10.753   7.122 -0.2020 -0.4840  1.4040
  634MOL0     H87469   7.781  10.624   7.012 -2.1296 -0.5523  1.1010
  634MOL0     H87470   8.002  10.761   6.981  2.6642  5.1065 -0.6905
  634MOL0     H87471   7.946  10.868   7.105 -2.3707  0.8113 -1.0987
  634MOL0     H87472   7.281  10.183   7.498 -0.8595 -0.4427  0.5726
  634MOL0     H87473   7.113  10.022   7.577 -1.0691  0.3025  0.4852
  634MOL0     H87474   7.165   9.578   7.789 -0.1488 -3.1069  0.1592
  634MOL0     H87475   7.135   9.349   7.694  0.9561 -0.1759 -1.7670
  634MOL0     H87476   6.599   7.834   8.013  0.5635 -2.8573 -0.1004
  634MOL0     H87477   6.508   7.846   8.236  0.7374  1.1375  2.0228
  634MOL0     H87478   6.622   7.734   8.679  1.6608  2.0303  0.3473
  634MOL0     H87479   6.559   7.704   8.905 -1.1965 -0.7222 -0.4559
  634MOL0     H87480   6.520   7.970   9.286 -1.9444  2.0432  1.7446
  634MOL0     H87481   6.487   8.074   9.148  1.0379 -0.0798  1.9531
  634MOL0     H87482   6.303   7.944   9.075 -3.0664 -0.1975  0.5915
  634MOL0     H87483   6.285   7.969   9.248  2.7202  2.0971  0.9339
  634MOL0     H87484   6.229   7.743   9.151 -0.8226  3.6831 -2.0354
  634MOL0     H87485   6.386   7.727   9.084  0.2041  0.2992 -0.7850
  634MOL0     H87486   6.499   7.712   9.317  0.2886 -1.1795  1.6839
  634MOL0     H87487   6.360   7.598   9.302  0.4932 -0.6419 -2.4175
  634MOL0     H87488   6.218   7.919   9.551 -0.8465  0.4165 -1.4290
  634MOL0     H87489   6.609   8.124   8.983  2.0485  0.6733  0.1299
  634MOL0     H87490   6.585   8.256   8.670 -1.3905 -1.2401  0.5108
  634MOL0     H87491   6.660   8.283   8.829  2.0863 -0.5320 -0.8332
  634MOL0     H87492   6.752   8.225   8.685  3.0197 -1.0974  2.1577
  635MOL0     O87493  11.055   9.616   3.814 -0.5272 -0.1025  0.3045
  635MOL0     C87494  11.045   9.563   3.701  0.0489 -0.0683  0.4875
  635MOL0     O87495  11.152   9.510   3.635  0.3915  0.6393  0.4927
  635MOL0     C87496  11.278   9.523   3.689 -0.8946 -0.4519  1.0163
  635MOL0     C87497  11.336   9.644   3.712 -0.1641  0.2055 -0.8497
  635MOL0     C87498  11.469   9.645   3.775  0.7196  1.0647 -0.0295
  635MOL0     C87499  11.525   9.520   3.813  0.7457 -0.0998 -0.2503
  635MOL0     O87500  11.642   9.535   3.871 -0.4786  0.4541 -0.4035
  635MOL0     C87501  11.707   9.422   3.929  0.4813  0.1420 -0.3127
  635MOL0     C87502  11.808   9.463   4.034  0.0190 -0.6888  0.6855
  635MOL0     C87503  11.742   9.546   4.145 -0.3224  0.1061 -0.7839
  635MOL0     C87504  11.837   9.545   4.271 -0.0231  0.1134  0.2719
  635MOL0     C87505  11.788   9.605   4.397 -0.4495 -0.8440 -1.5180
  635MOL0     C87506  11.736   9.744   4.380 -0.0535  0.4151  1.0581
  635MOL0     C87507  11.714   9.811   4.519  0.8612 -0.3983 -0.3078
  635MOL0     C87508  11.645   9.946   4.483  0.3523  0.4509 -0.6701
  635MOL0     N87509  11.629  10.047   4.597 -0.1524 -0.4316  0.0718
  635MOL0     C87510  11.724  10.134   4.646  0.2419 -0.7058 -0.1237
  635MOL0     C87511  11.669  10.214   4.739  0.7292 -0.8697  0.5980
  635MOL0     C87512  11.735  10.329   4.816  0.5177  0.0349  0.7319
  635MOL0     C87513  11.758  10.447   4.728  0.8143  0.3317  0.0794
  635MOL0     C87514  11.852  10.556   4.805 -0.3255  0.8962  0.5020
  635MOL0     C87515  11.995  10.507   4.799  0.2549 -0.5988 -0.0710
  635MOL0     O87516  12.086  10.615   4.822 -0.1082 -0.7259 -1.0803
  635MOL0     C87517  12.195  10.582   4.897  1.1306 -0.4780  0.4979
  635MOL0     C87518  12.291  10.482   4.862 -0.0886  0.1401  0.9140
  635MOL0     C87519  12.406  10.462   4.939  0.6093  0.7593  0.8372
  635MOL0     C87520  12.496  10.339   4.888  0.0613 -0.2925  0.1056
  635MOL0     C87521  12.425  10.533   5.061  0.7314  0.5454 -0.2416
  635MOL0     C87522  12.520  10.512   5.170 -0.5233  0.2794 -0.3327
  635MOL0     O87523  12.523  10.602   5.274 -0.0859  0.1089  0.4189
  635MOL0     C87524  12.650  10.642   5.332 -0.5124  0.2472 -0.2363
  635MOL0     C87525  12.654  10.729   5.438  0.3981 -0.3784  0.2136
  635MOL0     C87526  12.766  10.766   5.500  1.1034  0.5759  1.0373
  635MOL0     C87527  12.890  10.715   5.461 -0.3450  0.1054 -0.4150
  635MOL0     O87528  13.002  10.748   5.543 -0.6016 -0.9588  0.3362
  635MOL0     C87529  13.130  10.713   5.512 -0.5233  0.0747  0.1557
  635MOL0     C87530  13.224  10.797   5.593 -0.4144 -0.2875  0.1565
  635MOL0     C87531  13.203  10.785   5.739  0.0538  0.5023 -0.6054
  635MOL0     C87532  13.334  10.826   5.812  0.4217  0.1628  0.6518
  635MOL0     C87533  13.450  10.731   5.811 -0.1322  0.0910 -0.2030
  635MOL0     C87534  13.581  10.801   5.836 -0.2681 -1.0373 -0.6914
  635MOL0     C87535  13.633  10.876   5.711 -0.1542  0.1222 -0.0529
  635MOL0     C87536  13.770  10.932   5.740 -0.3286  0.0935 -0.0558
  635MOL0    Cl87537  13.799  11.056   5.605 -0.0405 -0.2728 -0.1446
  635MOL0     C87538  12.896  10.633   5.354 -0.3185  0.1047  0.0406
  635MOL0     C87539  12.779  10.588   5.293 -0.5746  0.1013  0.0376
  635MOL0     O87540  12.598  10.414   5.159  0.3036 -0.3158 -0.3601
  635MOL0     C87541  12.317  10.621   5.095  0.6591 -0.5252  0.0765
  635MOL0     C87542  12.210  10.655   5.012  0.1778  0.5300 -0.3337
  635MOL0     N87543  11.532  10.182   4.737 -0.3346 -0.2120  0.2212
  635MOL0     N87544  11.512  10.073   4.665  0.1176  0.5330 -0.2515
  635MOL0     C87545  11.459   9.398   3.782  0.0197 -0.2115 -0.1990
  635MOL0     C87546  11.341   9.403   3.720 -0.4724  0.0542  1.0621
  635MOL0     C87547  10.911   9.534   3.645  0.5385  0.2264  0.3514
  635MOL0     C87548  10.902   9.480   3.510 -0.2675 -0.7389  0.1270
  635MOL0     C87549  10.795   9.422   3.462  0.5713  0.5482 -0.1883
  635MOL0     C87550  10.675   9.432   3.535 -0.3472  0.0118  0.4260
  635MOL0     O87551  10.557   9.386   3.496 -0.1757 -0.0161  0.6981
  635MOL0     C87552  10.543   9.354   3.357 -0.1942  1.0098 -0.1942
  635MOL0     C87553  10.542   9.476   3.266 -0.6264 -0.1413 -0.0712
  635MOL0     C87554  10.475   9.442   3.137  0.2572  0.1586 -0.0763
  635MOL0     C87555  10.463   9.570   3.053 -0.7761  0.5506  0.3710
  635MOL0     C87556  10.411   9.540   2.919  0.1734  0.3818  0.2604
  635MOL0     C87557  10.376   9.525   2.802 -0.0063  0.6444  0.2235
  635MOL0     C87558  10.670   9.480   3.665 -0.3598  0.3842  0.1579
  635MOL0     C87559  10.788   9.534   3.719  0.0170  0.2208  0.1621
  635MOL0     C87560  10.780   9.609   3.843 -0.4356 -0.1016 -0.1115
  635MOL0     H87561  11.291   9.740   3.690  2.6171  1.8221  0.1165
  635MOL0     H87562  11.523   9.734   3.805  2.3562 -0.7638  2.8325
  635MOL0     H87563  11.757   9.365   3.851  0.3128  0.8206 -0.9230
  635MOL0     H87564  11.633   9.357   3.977 -0.4278  0.2729 -1.5055
  635MOL0     H87565  11.856   9.378   4.083  1.5004  0.8998  2.1293
  635MOL0     H87566  11.885   9.523   3.984 -3.1102  1.7773 -1.5694
  635MOL0     H87567  11.737   9.652   4.119  1.3979  0.2570 -0.6261
  635MOL0     H87568  11.645   9.506   4.176 -0.3671 -0.3377 -1.4754
  635MOL0     H87569  11.861   9.445   4.309 -0.7326 -0.1643  0.0097
  635MOL0     H87570  11.934   9.589   4.247 -0.8155  2.6663  1.4104
  635MOL0     H87571  11.861   9.597   4.478  0.8595 -1.6198 -2.7072
  635MOL0     H87572  11.706   9.545   4.438 -0.8826 -0.9639 -2.5118
  635MOL0     H87573  11.798   9.812   4.321 -3.6270  4.1906  1.2050
  635MOL0     H87574  11.639   9.744   4.329  0.1474 -1.7888  0.5754
  635MOL0     H87575  11.805   9.834   4.575  0.5371  0.7737 -0.2375
  635MOL0     H87576  11.657   9.747   4.586  1.1808 -0.2740  0.0865
  635MOL0     H87577  11.703   9.999   4.408 -1.2096  2.4900 -0.5453
  635MOL0     H87578  11.551   9.928   4.430  0.5793  2.0831 -1.7000
  635MOL0     H87579  11.827  10.142   4.614  0.4473  0.8805  0.8449
  635MOL0     H87580  11.833  10.296   4.851  0.7405  1.7569  1.8281
  635MOL0     H87581  11.674  10.355   4.903  0.6078 -0.5268  0.9684
  635MOL0     H87582  11.793  10.418   4.628 -0.9513  3.5731 -1.6534
  635MOL0     H87583  11.657  10.486   4.710  1.1669  0.5155 -1.6689
  635MOL0     H87584  11.850  10.648   4.746  0.1550  0.1297 -0.7526
  635MOL0     H87585  11.796  10.561   4.899 -0.8539 -0.4427  0.2843
  635MOL0     H87586  12.019  10.424   4.865  2.3680 -0.5025 -0.6142
  635MOL0     H87587  12.015  10.467   4.699  1.8354  1.9618 -0.8871
  635MOL0     H87588  12.281  10.421   4.772 -0.4466 -0.9004  1.6417
  635MOL0     H87589  12.453  10.246   4.925  0.1092 -1.0971 -1.7421
  635MOL0     H87590  12.603  10.351   4.903  0.2238  0.8074 -1.5684
  635MOL0     H87591  12.483  10.345   4.779  0.2367  0.1688  0.1065
  635MOL0     H87592  12.567  10.792   5.457 -0.3556 -0.9827 -1.0173
  635MOL0     H87593  12.754  10.848   5.571 -1.2233 -0.1556  1.5720
  635MOL0     H87594  13.146  10.608   5.538 -0.5811  0.5538  2.2306
  635MOL0     H87595  13.149  10.712   5.404  0.8740 -0.2059  0.3874
  635MOL0     H87596  13.329  10.778   5.567  0.9816  1.6147  3.7324
  635MOL0     H87597  13.198  10.900   5.569  0.0567  0.0007  0.8418
  635MOL0     H87598  13.171  10.683   5.765 -1.7296  1.2793  0.4361
  635MOL0     H87599  13.123  10.856   5.763  0.3821  0.8074 -0.3966
  635MOL0     H87600  13.308  10.855   5.915 -2.1080  0.4808 -0.0239
  635MOL0     H87601  13.359  10.921   5.764  0.0999  0.1066  0.3772
  635MOL0     H87602  13.445  10.655   5.890  1.0461 -2.0794 -2.0692
  635MOL0     H87603  13.450  10.678   5.715  0.6984  2.0760 -1.3466
  635MOL0     H87604  13.647  10.716   5.859  0.2874 -0.6645 -0.8898
  635MOL0     H87605  13.564  10.857   5.928 -0.8982 -3.2455  0.6074
  635MOL0     H87606  13.560  10.952   5.681 -0.0075 -0.1677 -1.1960
  635MOL0     H87607  13.659  10.807   5.630 -1.5677 -0.4374 -0.0600
  635MOL0     H87608  13.842  10.851   5.751 -0.3374  0.1064  0.0924
  635MOL0     H87609  13.781  10.993   5.829  1.1178 -0.7699  0.3939
  635MOL0     H87610  12.994  10.604   5.317 -0.6418 -0.7531 -0.1653
  635MOL0     H87611  12.797  10.502   5.228  0.6662 -0.4271  1.0231
  635MOL0     H87612  12.336  10.692   5.174  3.3497 -1.5541  0.4596
  635MOL0     H87613  12.145  10.736   5.044  0.7573  0.0702  2.2026
  635MOL0     H87614  11.493   9.301   3.815 -1.8961 -0.2519  1.9030
  635MOL0     H87615  11.281   9.318   3.693  0.7349  0.0794 -2.0539
  635MOL0     H87616  10.983   9.470   3.439 -0.0177 -1.5469  0.5086
  635MOL0     H87617  10.810   9.386   3.361  0.8340  2.7964 -1.0138
  635MOL0     H87618  10.616   9.276   3.332 -3.4922 -1.6410 -2.5191
  635MOL0     H87619  10.442   9.316   3.339 -0.4231  1.5093  0.0296
  635MOL0     H87620  10.646   9.499   3.241  0.2894 -2.4128  1.3265
  635MOL0     H87621  10.493   9.564   3.309  0.1450  0.5659 -0.5969
  635MOL0     H87622  10.524   9.359   3.087 -2.9862 -3.1296  1.7387
  635MOL0     H87623  10.375   9.405   3.160  0.9396 -0.6981  1.7044
  635MOL0     H87624  10.562   9.612   3.034 -0.1516 -0.8722  0.4067
  635MOL0     H87625  10.398   9.643   3.103 -0.1044  3.3008 -2.5015
  635MOL0     H87626  10.357   9.509   2.698  0.3454  0.4003  0.1944
  635MOL0     H87627  10.574   9.483   3.714 -0.5579 -1.5122 -0.0327
  635MOL0     H87628  10.821   9.710   3.835  2.2375 -1.1882 -0.9648
  635MOL0     H87629  10.677   9.611   3.880 -0.6919 -0.9992 -0.7385
  635MOL0     H87630  10.840   9.553   3.916 -0.1365  2.6570  1.9069
  636MOL0     O87631   0.028   0.330   4.612 -0.1124 -0.5916  0.1110
  636MOL0     C87632   0.124   0.261   4.589 -0.9348 -0.8620 -0.6065
  636MOL0     O87633   0.144   0.132   4.637 -0.5551 -0.6707 -0.6345
  636MOL0     C87634   0.042   0.066   4.710  0.3554 -0.5176 -0.0743
  636MOL0     C87635  -0.037   0.114   4.810  0.1969 -0.1700 -1.1471
  636MOL0     C87636  -0.132   0.028   4.874 -0.7582  0.4287 -0.2994
  636MOL0     C87637  -0.140  -0.113   4.850 -0.1505  0.5849 -0.2084
  636MOL0     O87638  -0.230  -0.193   4.917 -1.0023 -0.3866  0.7250
  636MOL0     C87639  -0.192  -0.265   5.024  0.6288  1.0382 -0.3378
  636MOL0     C87640  -0.287  -0.378   5.049  0.6343 -0.5632  0.4966
  636MOL0     C87641  -0.243  -0.473   5.157  0.3614  0.4590 -0.2342
  636MOL0     C87642  -0.357  -0.562   5.209  0.2670 -0.3963  1.0357
  636MOL0     C87643  -0.372  -0.556   5.357  0.1613  0.5145  0.4918
  636MOL0     C87644  -0.507  -0.637   5.406 -1.1098  0.3630  0.2587
  636MOL0     C87645  -0.515  -0.635   5.554  0.6612 -0.4893  0.2568
  636MOL0     C87646  -0.659  -0.682   5.594 -0.2540  0.3392  1.1924
  636MOL0     N87647  -0.685  -0.618   5.724 -0.4299  0.0954 -0.5155
  636MOL0     C87648  -0.668  -0.485   5.753  0.2308  0.0366 -0.0647
  636MOL0     C87649  -0.678  -0.488   5.887  0.0344  0.4914  0.5075
  636MOL0     C87650  -0.650  -0.391   5.994  0.4087 -0.3569 -0.2751
  636MOL0     C87651  -0.499  -0.384   6.043 -0.1668  0.0116 -0.6911
  636MOL0     C87652  -0.480  -0.466   6.173 -0.1453  0.4768  0.3463
  636MOL0     C87653  -0.523  -0.399   6.301  0.5849  0.2457 -0.7500
  636MOL0     O87654  -0.486  -0.261   6.299 -0.0144  0.1403  0.4803
  636MOL0     C87655  -0.351  -0.229   6.305 -0.4477  0.3482  0.4545
  636MOL0     C87656  -0.256  -0.310   6.361 -0.3023 -0.8038 -0.5949
  636MOL0     C87657  -0.123  -0.255   6.394  0.2959  0.8389  0.2001
  636MOL0     C87658  -0.026  -0.355   6.454 -0.3488 -0.0941 -0.2035
  636MOL0     C87659  -0.091  -0.121   6.355  0.6134  0.5661 -0.1970
  636MOL0     C87660   0.029  -0.054   6.392 -0.3346  0.3904 -0.0228
  636MOL0     O87661   0.080  -0.058   6.520  0.1849 -0.1546 -0.4724
  636MOL0     C87662   0.004  -0.068   6.632  0.0419 -0.1550 -0.1196
  636MOL0     C87663  -0.127  -0.014   6.651 -0.7765 -0.5305  0.2404
  636MOL0     C87664  -0.187  -0.025   6.774  0.0276 -0.6138  0.5444
  636MOL0     C87665  -0.128  -0.086   6.884 -0.5265  0.4726  0.8825
  636MOL0     O87666  -0.211  -0.089   6.988 -0.4160  0.0451 -0.2531
  636MOL0     C87667  -0.206  -0.207   7.070  0.0735 -0.9633  0.1894
  636MOL0     C87668  -0.289  -0.193   7.193  0.4705 -1.3280  0.4426
  636MOL0     C87669  -0.254  -0.075   7.290  1.0389  1.6068 -0.9295
  636MOL0     C87670  -0.359  -0.086   7.403 -0.1169 -0.7908  0.3211
  636MOL0     C87671  -0.344   0.040   7.482 -0.2209  0.7816 -0.5255
  636MOL0     C87672  -0.426   0.064   7.610  0.2675  0.1032 -0.0969
  636MOL0     C87673  -0.398   0.206   7.675 -0.1040 -0.5100  0.5913
  636MOL0     C87674  -0.423   0.195   7.821  0.3714 -0.5020 -0.0004
  636MOL0    Cl87675  -0.485   0.346   7.903  0.1571 -0.2974 -0.2792
  636MOL0     C87676   0.004  -0.133   6.866 -0.6109  0.3566 -0.1820
  636MOL0     C87677   0.060  -0.130   6.745 -0.2853  0.0311  0.5280
  636MOL0     O87678   0.083   0.015   6.301  0.4981  0.6503  0.1929
  636MOL0     C87679  -0.197  -0.048   6.311 -0.7752 -0.0254  0.0527
  636MOL0     C87680  -0.324  -0.096   6.282  0.1200  0.0206  0.3849
  636MOL0     N87681  -0.704  -0.611   5.938 -0.6036 -0.2949  0.4419
  636MOL0     N87682  -0.697  -0.695   5.836  0.0344 -1.4537  0.0390
  636MOL0     C87683  -0.061  -0.154   4.751  0.2864  0.2761  0.9348
  636MOL0     C87684   0.033  -0.073   4.687 -0.4242  0.0600 -0.5374
  636MOL0     C87685   0.222   0.321   4.494 -0.2396 -0.2890  0.5054
  636MOL0     C87686   0.332   0.237   4.457  0.4266  0.1473  0.2951
  636MOL0     C87687   0.423   0.266   4.358  0.4381 -0.2135 -0.5295
  636MOL0     C87688   0.422   0.386   4.290  0.0764  0.4466  0.2951
  636MOL0     O87689   0.506   0.411   4.185 -0.6861  0.4541  0.6173
  636MOL0     C87690   0.648   0.367   4.189 -0.4681  0.9501  1.0686
  636MOL0     C87691   0.742   0.473   4.238  0.0473 -0.0234 -0.7414
  636MOL0     C87692   0.788   0.558   4.123 -0.3669 -0.5236 -0.5430
  636MOL0     C87693   0.868   0.678   4.160 -0.3849  0.3906 -0.6370
  636MOL0     C87694   0.957   0.726   4.046 -0.2309  0.6761  0.2502
  636MOL0     C87695   1.026   0.754   3.948  1.0766 -0.4770 -0.0929
  636MOL0     C87696   0.322   0.471   4.326  1.0126  0.3199 -0.7764
  636MOL0     C87697   0.224   0.447   4.428  0.7536 -0.0957  0.2337
  636MOL0     C87698   0.118   0.558   4.451 -0.7758  0.2442  0.0718
  636MOL0     H87699  -0.038   0.220   4.837  0.6796 -0.4128 -0.1191
  636MOL0     H87700  -0.201   0.080   4.939  1.5505  0.6739  2.0990
  636MOL0     H87701  -0.180  -0.198   5.110  2.6349  0.2359  0.0745
  636MOL0     H87702  -0.096  -0.317   5.013 -1.0274 -2.4664  0.3430
  636MOL0     H87703  -0.391  -0.352   5.072  0.9172 -0.1088  1.2992
  636MOL0     H87704  -0.295  -0.436   4.957 -0.3838 -1.3139  1.0424
  636MOL0     H87705  -0.176  -0.549   5.115 -0.3924  0.3499 -1.2859
  636MOL0     H87706  -0.198  -0.429   5.246 -0.0930 -2.6359  1.6869
  636MOL0     H87707  -0.453  -0.529   5.168  2.2708  3.1412 -1.3450
  636MOL0     H87708  -0.340  -0.666   5.179  0.9448  1.0853 -5.0493
  636MOL0     H87709  -0.374  -0.452   5.390  0.7060 -0.4671  4.0079
  636MOL0     H87710  -0.282  -0.593   5.406  0.4408 -1.2045 -1.2035
  636MOL0     H87711  -0.585  -0.581   5.352  1.2843  1.9512 -1.7954
  636MOL0     H87712  -0.493  -0.743   5.385 -2.7221  0.2217 -0.2354
  636MOL0     H87713  -0.506  -0.533   5.594 -1.8177 -0.5423  1.1824
  636MOL0     H87714  -0.435  -0.690   5.604  3.2408  2.4878 -0.2782
  636MOL0     H87715  -0.727  -0.654   5.513 -0.9241  0.3053  1.7307
  636MOL0     H87716  -0.671  -0.791   5.601  0.9922 -0.0704 -1.6136
  636MOL0     H87717  -0.649  -0.410   5.677 -0.9009 -3.7391 -4.5251
  636MOL0     H87718  -0.713  -0.426   6.076  3.7748  1.5577  3.4960
  636MOL0     H87719  -0.681  -0.292   5.961 -1.5822 -0.7158  0.4269
  636MOL0     H87720  -0.441  -0.425   5.960 -0.1554 -0.1693 -0.5961
  636MOL0     H87721  -0.465  -0.282   6.061  0.1331 -0.2008 -0.0185
  636MOL0     H87722  -0.534  -0.560   6.159  1.4946 -0.8519  2.3174
  636MOL0     H87723  -0.373  -0.480   6.191 -0.0154  0.6771 -0.2316
  636MOL0     H87724  -0.632  -0.412   6.308  0.5083  1.3334  0.6649
  636MOL0     H87725  -0.480  -0.445   6.390 -0.7199 -0.0007 -0.2176
  636MOL0     H87726  -0.274  -0.409   6.402  2.4571 -1.7923 -1.5010
  636MOL0     H87727  -0.052  -0.453   6.413  0.7984  0.6937 -3.0361
  636MOL0     H87728  -0.029  -0.354   6.564 -0.3783 -1.5632 -0.1664
  636MOL0     H87729   0.073  -0.327   6.417  0.1527 -1.9354 -0.3569
  636MOL0     H87730  -0.181   0.036   6.571 -1.6842  0.2627  1.3324
  636MOL0     H87731  -0.279   0.033   6.777 -0.0918 -0.7509 -0.1765
  636MOL0     H87732  -0.247  -0.284   7.004  2.4478 -2.4103  0.2848
  636MOL0     H87733  -0.104  -0.234   7.099 -0.2597 -1.9840  0.4612
  636MOL0     H87734  -0.394  -0.177   7.167  0.9371  0.1518 -0.6587
  636MOL0     H87735  -0.274  -0.287   7.247  1.3481 -0.4497  1.7793
  636MOL0     H87736  -0.270   0.024   7.245 -1.3193  1.5325 -0.3921
  636MOL0     H87737  -0.149  -0.082   7.320  1.8772  0.4366 -3.7956
  636MOL0     H87738  -0.345  -0.176   7.463  0.1178  0.1572  1.7347
  636MOL0     H87739  -0.456  -0.079   7.353  0.2697  1.0337 -0.2653
  636MOL0     H87740  -0.240   0.049   7.512  0.6485 -0.5158 -2.9015
  636MOL0     H87741  -0.374   0.113   7.406 -1.8966  0.4217 -0.2538
  636MOL0     H87742  -0.404  -0.028   7.666 -3.8548 -2.4385 -2.2035
  636MOL0     H87743  -0.532   0.050   7.586  0.1323  2.1422 -0.8597
  636MOL0     H87744  -0.462   0.285   7.637  0.1173 -2.0990 -3.6052
  636MOL0     H87745  -0.296   0.237   7.651 -1.1537  3.0115  0.2408
  636MOL0     H87746  -0.336   0.159   7.876 -0.6604 -0.1634  1.9747
  636MOL0     H87747  -0.511   0.130   7.826 -2.0321  2.5041 -0.3129
  636MOL0     H87748   0.046  -0.177   6.956 -0.0297  0.0974 -0.5648
  636MOL0     H87749   0.158  -0.175   6.734  0.5488  1.7945  0.3999
  636MOL0     H87750  -0.174   0.056   6.290 -0.1974  0.1437  1.4459
  636MOL0     H87751  -0.395  -0.041   6.221  2.5268  1.5960 -1.1518
  636MOL0     H87752  -0.070  -0.258   4.720  0.7102  0.6080 -0.3348
  636MOL0     H87753   0.090  -0.122   4.609  0.2026 -3.3987  1.8509
  636MOL0     H87754   0.347   0.139   4.502 -3.0513 -0.5411  0.2248
  636MOL0     H87755   0.505   0.197   4.338  0.0773 -0.5814 -0.7690
  636MOL0     H87756   0.666   0.276   4.246  1.7152 -2.9649 -4.9553
  636MOL0     H87757   0.678   0.348   4.086 -2.2027  0.8807  0.5359
  636MOL0     H87758   0.827   0.427   4.289  0.1895  0.5935 -0.4123
  636MOL0     H87759   0.692   0.537   4.311  1.9025 -0.9283  1.4335
  636MOL0     H87760   0.853   0.498   4.060  2.4035  1.8675 -0.1744
  636MOL0     H87761   0.707   0.591   4.057  1.6288  0.6724 -2.5424
  636MOL0     H87762   0.935   0.653   4.243  0.6066  2.7293 -0.6647
  636MOL0     H87763   0.801   0.756   4.196  0.2716  1.7453 -2.2260
  636MOL0     H87764   1.095   0.785   3.871  2.2004 -3.4774 -0.4348
  636MOL0     H87765   0.309   0.557   4.261  0.0250  0.8676  0.1168
  636MOL0     H87766   0.143   0.653   4.403  1.5271 -0.2237  0.1891
  636MOL0     H87767   0.029   0.520   4.401 -0.3457 -0.0472 -0.4719
  636MOL0     H87768   0.112   0.555   4.561 -1.1165 -3.0629  0.0634
  637MOL0     O87769   8.579   5.179   6.284  0.1450 -0.0994 -0.5350
  637MOL0     C87770   8.471   5.187   6.228  0.2164  0.3340 -0.2495
  637MOL0     O87771   8.447   5.258   6.113 -1.1061  0.1521 -0.1429
  637MOL0     C87772   8.561   5.324   6.061  0.0305 -0.9813  0.2594
  637MOL0     C87773   8.574   5.455   6.094 -0.0115 -0.3397 -0.3240
  637MOL0     C87774   8.692   5.521   6.062  0.5715  0.5950 -0.5653
  637MOL0     C87775   8.795   5.456   5.981  0.8366 -0.5325 -0.9648
  637MOL0     O87776   8.908   5.522   5.936 -0.3430  0.4904  0.1434
  637MOL0     C87777   8.904   5.653   5.889 -0.0653  0.8371  0.6689
  637MOL0     C87778   9.009   5.666   5.779  0.1618 -0.4921 -0.1149
  637MOL0     C87779   9.011   5.803   5.725  1.0673 -0.4961  0.1596
  637MOL0     C87780   9.118   5.830   5.622  0.5647  0.1759 -0.1183
  637MOL0     C87781   9.265   5.836   5.682 -0.8898  0.4953 -0.2600
  637MOL0     C87782   9.277   5.918   5.806  0.5996 -0.8427  0.9029
  637MOL0     C87783   9.247   6.065   5.791 -0.2374  0.3950  0.5837
  637MOL0     C87784   9.236   6.129   5.934 -0.1584 -0.4849  0.5759
  637MOL0     N87785   9.207   6.272   5.929  0.2281  0.0232 -0.4282
  637MOL0     C87786   9.106   6.331   5.852 -0.5977 -0.3754 -0.0112
  637MOL0     C87787   9.105   6.461   5.901 -0.0968 -0.8417 -0.2754
  637MOL0     C87788   8.989   6.548   5.872  0.3709  0.0702 -0.7624
  637MOL0     C87789   8.867   6.454   5.872 -0.5746 -0.9543 -0.7712
  637MOL0     C87790   8.738   6.541   5.885 -0.7973 -0.5725 -0.4134
  637MOL0     C87791   8.621   6.448   5.917  0.3521 -0.0714  0.0052
  637MOL0     O87792   8.639   6.396   6.050 -0.0685  0.7962  0.1288
  637MOL0     C87793   8.534   6.354   6.128 -0.3898  0.0245 -0.1781
  637MOL0     C87794   8.567   6.290   6.243 -0.5191 -0.8136 -0.5449
  637MOL0     C87795   8.472   6.261   6.342  0.4428  0.1356  1.0228
  637MOL0     C87796   8.527   6.216   6.480 -0.3942  0.2288  0.3373
  637MOL0     C87797   8.334   6.294   6.325 -0.3735  0.3954  1.3411
  637MOL0     C87798   8.238   6.273   6.431 -0.0955  0.8636  0.7531
  637MOL0     O87799   8.120   6.323   6.395 -0.2421 -0.9333 -1.0548
  637MOL0     C87800   8.010   6.318   6.481 -0.3606 -0.2921  0.0625
  637MOL0     C87801   7.885   6.259   6.444  0.3991 -0.3705 -0.0870
  637MOL0     C87802   7.780   6.252   6.534 -0.5903  0.4015  0.9507
  637MOL0     C87803   7.786   6.320   6.654  0.2270  0.8798  0.1890
  637MOL0     O87804   7.677   6.320   6.731 -0.5087 -0.1953 -0.8284
  637MOL0     C87805   7.686   6.343   6.874  0.1693  0.3904  0.2667
  637MOL0     C87806   7.559   6.311   6.961  1.2186  0.1808 -0.7539
  637MOL0     C87807   7.452   6.414   6.913 -0.3230  0.3460 -0.9771
  637MOL0     C87808   7.471   6.561   6.965 -0.2415  0.1014 -0.2304
  637MOL0     C87809   7.473   6.581   7.115  0.2526  0.1960  0.8071
  637MOL0     C87810   7.490   6.731   7.139 -0.2042  0.4332  0.4370
  637MOL0     C87811   7.525   6.765   7.286  0.0729  0.7645 -0.5653
  637MOL0     C87812   7.419   6.706   7.385  0.9882 -0.4653  0.4078
  637MOL0    Cl87813   7.471   6.703   7.551 -0.3337 -0.2374 -0.1701
  637MOL0     C87814   7.906   6.385   6.691  0.9498  0.4896 -0.1153
  637MOL0     C87815   8.011   6.385   6.607  0.7776 -0.8922  0.2666
  637MOL0     O87816   8.260   6.205   6.534 -0.1841 -0.3855  0.4445
  637MOL0     C87817   8.301   6.345   6.195 -0.1969  0.1859 -0.7936
  637MOL0     C87818   8.395   6.360   6.092  0.0106 -0.0996 -0.4536
  637MOL0     N87819   9.207   6.483   5.996 -0.1503  0.3012 -0.3390
  637MOL0     N87820   9.266   6.363   6.006  0.4714 -0.0622  0.1809
  637MOL0     C87821   8.769   5.316   5.945 -0.7169  0.4689  0.4133
  637MOL0     C87822   8.651   5.254   5.986 -0.8926 -0.3251  0.6543
  637MOL0     C87823   8.354   5.110   6.290 -0.7424 -0.8561 -0.8994
  637MOL0     C87824   8.236   5.111   6.218  0.3888  0.2353 -0.0446
  637MOL0     C87825   8.130   5.046   6.277  0.8377 -0.7940 -0.4531
  637MOL0     C87826   8.126   5.001   6.411 -0.2474 -0.5606  0.2092
  637MOL0     O87827   8.010   4.948   6.468  0.1692  0.2655 -0.5573
  637MOL0     C87828   7.915   4.892   6.393  0.1956  0.2600  0.0608
  637MOL0     C87829   7.802   4.824   6.468 -0.5946 -0.8902  0.5559
  637MOL0     C87830   7.847   4.728   6.582 -0.3096  0.0487 -0.1391
  637MOL0     C87831   7.732   4.687   6.685 -0.4629 -0.2803  0.5374
  637MOL0     C87832   7.627   4.603   6.625 -0.5743 -0.2086  0.5877
  637MOL0     C87833   7.545   4.536   6.570  0.1383  0.5226 -0.0447
  637MOL0     C87834   8.253   5.003   6.481  0.3655 -0.6468  0.5135
  637MOL0     C87835   8.373   5.045   6.421 -0.2877 -0.5378 -0.2581
  637MOL0     C87836   8.491   5.035   6.511 -0.9318  1.0472 -0.5386
  637MOL0     H87837   8.506   5.522   6.146  0.0096 -1.4348  1.1948
  637MOL0     H87838   8.710   5.619   6.105 -4.9469  1.0590  1.4226
  637MOL0     H87839   8.918   5.717   5.976 -0.5416  1.6270  0.1720
  637MOL0     H87840   8.806   5.678   5.847  1.8413  0.6076 -4.7678
  637MOL0     H87841   9.106   5.658   5.829  1.0680  0.0087 -1.7420
  637MOL0     H87842   9.002   5.587   5.705  0.7516  0.7531 -1.5523
  637MOL0     H87843   8.915   5.816   5.674  1.2379  1.4503  0.2781
  637MOL0     H87844   9.023   5.884   5.797  0.9739  0.0299 -0.4100
  637MOL0     H87845   9.112   5.756   5.542  0.6127  0.0105  0.0290
  637MOL0     H87846   9.100   5.924   5.569  4.0872  0.1707 -1.6120
  637MOL0     H87847   9.341   5.866   5.610  1.9301 -0.3470  2.1469
  637MOL0     H87848   9.293   5.733   5.706 -2.7864  0.2627  1.2404
  637MOL0     H87849   9.230   5.873   5.894 -1.5847  1.1066  0.8306
  637MOL0     H87850   9.384   5.909   5.825  0.6952  0.2930  0.9526
  637MOL0     H87851   9.152   6.075   5.737 -1.8912  1.2684  3.4384
  637MOL0     H87852   9.322   6.114   5.728 -1.3678  0.0092 -1.1432
  637MOL0     H87853   9.165   6.069   5.991 -0.6273  1.6247  2.3437
  637MOL0     H87854   9.335   6.110   5.978  0.4045 -2.4890 -1.3341
  637MOL0     H87855   9.046   6.277   5.779  0.6211  1.5376 -2.6082
  637MOL0     H87856   8.987   6.604   5.778 -1.4112  0.7991 -0.3401
  637MOL0     H87857   8.981   6.624   5.951 -0.4855  2.1006 -2.7084
  637MOL0     H87858   8.865   6.399   5.778 -1.3859 -0.4511 -1.0552
  637MOL0     H87859   8.878   6.392   5.961  1.7949  0.2618 -0.1058
  637MOL0     H87860   8.746   6.618   5.961 -2.1618 -0.6362 -0.1736
  637MOL0     H87861   8.720   6.588   5.787  2.5235 -0.0729 -0.8923
  637MOL0     H87862   8.529   6.507   5.910 -0.4298 -1.4359 -2.8539
  637MOL0     H87863   8.607   6.375   5.837 -0.2434 -1.1422  1.0687
  637MOL0     H87864   8.674   6.280   6.260 -0.2336  1.7365 -0.5224
  637MOL0     H87865   8.492   6.116   6.508  2.9614 -2.5156 -3.9053
  637MOL0     H87866   8.508   6.298   6.550 -0.3151 -1.4533  2.4399
  637MOL0     H87867   8.636   6.205   6.479 -0.5370 -1.4736 -0.0636
  637MOL0     H87868   7.882   6.206   6.349  3.0173 -0.1646 -0.3525
  637MOL0     H87869   7.692   6.192   6.514 -0.2422  0.4890 -0.9778
  637MOL0     H87870   7.772   6.286   6.911 -0.6235  0.2826  2.0468
  637MOL0     H87871   7.704   6.450   6.879  0.3261  0.4116 -0.6423
  637MOL0     H87872   7.524   6.208   6.965  0.9227  0.3055  0.2575
  637MOL0     H87873   7.572   6.323   7.069 -1.6520 -2.3852  0.0148
  637MOL0     H87874   7.354   6.379   6.945  0.0215 -0.5872 -0.8963
  637MOL0     H87875   7.449   6.417   6.804 -1.8120  0.0618 -0.9684
  637MOL0     H87876   7.386   6.621   6.933 -0.3867  0.7322  1.2555
  637MOL0     H87877   7.559   6.606   6.917 -0.3531  1.9243  1.1505
  637MOL0     H87878   7.378   6.551   7.159 -0.7198  3.5522  1.2999
  637MOL0     H87879   7.552   6.521   7.161 -0.9763 -1.5376  0.7543
  637MOL0     H87880   7.392   6.771   7.112 -0.5435 -1.9075 -2.3792
  637MOL0     H87881   7.567   6.772   7.073 -1.2084  0.3254 -0.8515
  637MOL0     H87882   7.528   6.875   7.288  1.2956  0.8251 -2.6331
  637MOL0     H87883   7.625   6.731   7.317 -1.0254 -1.3333  0.8806
  637MOL0     H87884   7.413   6.599   7.364 -1.0163 -0.6533  1.6609
  637MOL0     H87885   7.322   6.754   7.371  1.2636 -0.4375 -1.7760
  637MOL0     H87886   7.917   6.439   6.785  1.5256  1.6382 -0.8158
  637MOL0     H87887   8.107   6.427   6.636  0.5215 -0.7717  0.9647
  637MOL0     H87888   8.194   6.356   6.177 -1.0722 -3.1269  1.3022
  637MOL0     H87889   8.347   6.395   6.001  0.1848  0.6162 -0.2822
  637MOL0     H87890   8.827   5.258   5.874 -1.2089 -1.1273  1.2703
  637MOL0     H87891   8.642   5.147   5.968  0.0086 -0.5639  1.5188
  637MOL0     H87892   8.221   5.160   6.122  2.7029  1.7989  0.3022
  637MOL0     H87893   8.037   5.046   6.220  0.5826  0.6858 -0.0792
  637MOL0     H87894   7.879   4.962   6.316 -1.1805  2.5658  2.6099
  637MOL0     H87895   7.960   4.813   6.333  1.1097  0.5149  0.4038
  637MOL0     H87896   7.738   4.759   6.408  0.4073 -0.4331 -1.0568
  637MOL0     H87897   7.735   4.900   6.508 -1.2853 -0.7669 -0.7794
  637MOL0     H87898   7.904   4.641   6.548  0.6090 -0.0933  1.6803
  637MOL0     H87899   7.918   4.785   6.642 -2.1725  2.4511 -0.0853
  637MOL0     H87900   7.682   4.773   6.731 -0.2066  0.7892 -1.0991
  637MOL0     H87901   7.788   4.626   6.757 -0.1327 -1.7759 -0.9269
  637MOL0     H87902   7.468   4.469   6.537  1.0629 -1.8584  2.3048
  637MOL0     H87903   8.266   4.967   6.582 -0.8778 -0.3897  0.7822
  637MOL0     H87904   8.524   5.122   6.567 -1.1918 -1.4089  3.8964
  637MOL0     H87905   8.482   4.960   6.591  5.0268  2.3301  1.8358
  637MOL0     H87906   8.579   5.004   6.453 -1.2704 -1.2169  0.0509
  638MOL0     O87907   4.057   8.809   2.335 -0.5679  0.4015 -0.4781
  638MOL0     C87908   4.154   8.848   2.270 -0.2441 -0.6277 -0.2647
  638MOL0     O87909   4.147   8.920   2.160  0.5472  0.4419  0.1631
  638MOL0     C87910   4.017   8.914   2.104  0.7976 -1.1177  0.0236
  638MOL0     C87911   3.979   8.814   2.013 -1.0846  0.6800 -0.1505
  638MOL0     C87912   3.846   8.811   1.963 -0.6555  0.0069 -0.1536
  638MOL0     C87913   3.760   8.918   1.998 -0.7733 -0.1007  0.5436
  638MOL0     O87914   3.630   8.916   1.948  0.1137  0.0979  0.3836
  638MOL0     C87915   3.536   9.019   1.971  0.5832 -0.3057 -0.0680
  638MOL0     C87916   3.414   8.999   1.894  0.4198 -0.1833  0.8007
  638MOL0     C87917   3.299   9.085   1.960  0.3136  0.5582  0.8289
  638MOL0     C87918   3.325   9.235   1.958 -1.0100 -1.0941 -0.9076
  638MOL0     C87919   3.204   9.330   1.998 -0.0402  0.3319 -0.6238
  638MOL0     C87920   3.255   9.473   1.982  0.8573 -0.1618 -0.1587
  638MOL0     C87921   3.156   9.574   2.029  0.1389  0.7151 -0.9591
  638MOL0     C87922   3.203   9.708   1.983 -0.0465 -0.7779  0.3385
  638MOL0     N87923   3.122   9.767   1.872  0.5917  0.0150  0.1915
  638MOL0     C87924   3.010   9.841   1.893  0.2576 -0.0815  0.5454
  638MOL0     C87925   2.970   9.876   1.765  1.1185  0.4892  0.4975
  638MOL0     C87926   2.848   9.961   1.735 -0.4778  0.0497 -0.0630
  638MOL0     C87927   2.857  10.107   1.789  0.1136 -0.1651 -0.4481
  638MOL0     C87928   2.733  10.194   1.744  0.6192 -0.2955 -0.1344
  638MOL0     C87929   2.735  10.334   1.798  0.4785 -0.1697 -0.6482
  638MOL0     O87930   2.603  10.384   1.818 -0.1349  1.1350 -0.0232
  638MOL0     C87931   2.518  10.420   1.720 -0.5457  0.8634 -0.4759
  638MOL0     C87932   2.389  10.442   1.754 -0.7334  0.7042  0.0962
  638MOL0     C87933   2.286  10.496   1.670  0.6933  0.1411 -1.0344
  638MOL0     C87934   2.153  10.529   1.731  0.0896  0.9073 -0.4434
  638MOL0     C87935   2.326  10.530   1.536 -0.2261 -0.2321  0.3261
  638MOL0     C87936   2.235  10.594   1.437 -0.0576  0.1658  0.8875
  638MOL0     O87937   2.289  10.713   1.385  0.1462 -0.2814  0.4911
  638MOL0     C87938   2.210  10.814   1.336  0.3901 -0.3046  0.1308
  638MOL0     C87939   2.082  10.847   1.387  0.8227 -0.5790 -0.3513
  638MOL0     C87940   2.003  10.942   1.322  0.0959  0.2992  0.4403
  638MOL0     C87941   2.047  11.020   1.214  1.0835 -0.2111  0.7548
  638MOL0     O87942   1.966  11.115   1.150  0.1252 -0.3534 -0.0502
  638MOL0     C87943   1.821  11.109   1.152  0.5912  0.2543  0.2261
  638MOL0     C87944   1.784  10.971   1.081  0.1967 -0.1767  0.4896
  638MOL0     C87945   1.860  10.956   0.940  0.6190 -0.1798  0.5861
  638MOL0     C87946   1.779  11.002   0.819 -0.4280  0.5969  0.2883
  638MOL0     C87947   1.852  10.971   0.682 -0.5978  0.3405  0.3159
  638MOL0     C87948   1.773  11.016   0.559  0.8121  0.5465  0.0555
  638MOL0     C87949   1.834  10.958   0.433  0.3141  0.2984  0.3519
  638MOL0     C87950   1.755  11.005   0.311  0.1561 -0.3028  0.7435
  638MOL0    Cl87951   1.706  10.870   0.212  0.2508  0.6717 -0.0983
  638MOL0     C87952   2.176  11.000   1.165  0.4496  0.0435 -0.4518
  638MOL0     C87953   2.256  10.894   1.224 -0.9706 -0.0787 -0.0759
  638MOL0     O87954   2.120  10.549   1.408  0.2617 -0.1339 -0.3001
  638MOL0     C87955   2.465  10.515   1.498  0.3772 -0.4073  0.4421
  638MOL0     C87956   2.553  10.464   1.591 -0.0235  0.5065 -0.3421
  638MOL0     N87957   3.073   9.839   1.675  0.2005 -0.0951 -0.0339
  638MOL0     N87958   3.154   9.763   1.741 -0.2172 -0.9575  0.8674
  638MOL0     C87959   3.798   9.020   2.088 -0.2287  0.1224 -0.9691
  638MOL0     C87960   3.921   9.013   2.149  0.1649 -0.5680  1.0565
  638MOL0     C87961   4.292   8.798   2.306  0.4458 -1.1540  0.4692
  638MOL0     C87962   4.394   8.879   2.364  0.1395  0.4990 -0.4687
  638MOL0     C87963   4.527   8.838   2.378 -0.5330 -0.0372 -0.4393
  638MOL0     C87964   4.557   8.707   2.352 -0.1219 -0.3630  0.5660
  638MOL0     O87965   4.689   8.675   2.389  0.2184  0.1381  0.2952
  638MOL0     C87966   4.740   8.544   2.345  0.2854 -0.8533 -0.0846
  638MOL0     C87967   4.782   8.529   2.205  0.3647 -0.2820 -0.0216
  638MOL0     C87968   4.882   8.637   2.171 -1.2699 -0.8105 -0.3293
  638MOL0     C87969   4.927   8.643   2.021  0.0923  0.3311  0.2464
  638MOL0     C87970   5.029   8.743   1.995  0.6452 -0.7114  0.9343
  638MOL0     C87971   5.106   8.820   1.947 -1.3131 -0.2053  0.5271
  638MOL0     C87972   4.459   8.620   2.308 -1.4355 -0.0670 -0.8379
  638MOL0     C87973   4.330   8.666   2.286  0.2614  0.5199 -0.3713
  638MOL0     C87974   4.227   8.568   2.233 -0.4457 -0.2261  0.2233
  638MOL0     H87975   4.060   8.747   1.984 -2.8302 -1.2502 -0.8282
  638MOL0     H87976   3.812   8.727   1.904  1.5674 -0.7939 -0.4171
  638MOL0     H87977   3.577   9.118   1.951 -0.3593 -0.1928 -1.5871
  638MOL0     H87978   3.523   9.015   2.080 -2.6283  0.6295 -0.3147
  638MOL0     H87979   3.431   9.030   1.791 -1.1108 -1.1923  0.1948
  638MOL0     H87980   3.367   8.900   1.895 -2.4794  1.0775  1.7396
  638MOL0     H87981   3.208   9.066   1.902  2.5316 -0.1262 -2.7391
  638MOL0     H87982   3.286   9.040   2.059  1.4040 -4.5408 -1.0185
  638MOL0     H87983   3.413   9.260   2.018 -1.4006 -0.7813 -0.4439
  638MOL0     H87984   3.351   9.267   1.857  1.6455  0.5479  0.1912
  638MOL0     H87985   3.171   9.323   2.103  1.0128  1.0404 -0.2267
  638MOL0     H87986   3.121   9.311   1.930 -0.1144  0.8580 -0.6806
  638MOL0     H87987   3.355   9.479   2.027  1.8512  1.0229 -2.3570
  638MOL0     H87988   3.271   9.491   1.875 -0.3444 -0.6785 -0.4338
  638MOL0     H87989   3.152   9.555   2.136 -1.1460 -1.4266 -1.3269
  638MOL0     H87990   3.055   9.542   2.001  0.5849 -0.7737 -0.9109
  638MOL0     H87991   3.191   9.779   2.065 -0.8368  1.7386 -1.8361
  638MOL0     H87992   3.305   9.718   1.946 -0.4249  2.6057 -0.0635
  638MOL0     H87993   2.944   9.841   1.979 -0.3832 -0.9948  0.0694
  638MOL0     H87994   2.759   9.909   1.773  1.0736 -0.6360  2.9498
  638MOL0     H87995   2.829   9.968   1.628 -3.1922 -3.5931 -0.0057
  638MOL0     H87996   2.866  10.114   1.897 -3.6234 -2.3297  0.1824
  638MOL0     H87997   2.948  10.156   1.754  0.7892  1.3329  3.0293
  638MOL0     H87998   2.726  10.206   1.635  0.6522 -0.2765 -0.1342
  638MOL0     H87999   2.641  10.152   1.785 -0.3087  1.8870  0.1437
  638MOL0     H88000   2.787  10.339   1.894  3.8386  2.7122 -2.3515
  638MOL0     H88001   2.784  10.401   1.727  1.7607  0.7754  1.0680
  638MOL0     H88002   2.373  10.437   1.861 -0.4191  2.6568  0.2687
  638MOL0     H88003   2.081  10.474   1.670  1.2330 -0.9806 -0.1643
  638MOL0     H88004   2.128  10.635   1.741 -0.6879  0.5541  1.6949
  638MOL0     H88005   2.134  10.483   1.828 -3.1033 -1.5710 -2.0704
  638MOL0     H88006   2.030  10.791   1.464  1.3996 -0.1334  0.3730
  638MOL0     H88007   1.904  10.958   1.363 -0.7702 -2.1835 -0.4977
  638MOL0     H88008   1.774  11.120   1.251 -1.8221  1.5256 -0.9803
  638MOL0     H88009   1.782  11.190   1.090 -0.0496  0.6931  1.1778
  638MOL0     H88010   1.799  10.889   1.152 -1.1650 -0.7888  0.1065
  638MOL0     H88011   1.676  10.970   1.071 -0.0200  4.8044 -0.3395
  638MOL0     H88012   1.877  10.850   0.919 -0.7405 -0.3397  0.2189
  638MOL0     H88013   1.958  11.005   0.939 -0.1339  1.3804  0.4769
  638MOL0     H88014   1.761  11.110   0.821 -3.4701  0.1818  2.5864
  638MOL0     H88015   1.684  10.948   0.824  0.6330 -1.3022  1.2721
  638MOL0     H88016   1.944  11.029   0.690 -0.8896  0.9668 -0.6119
  638MOL0     H88017   1.871  10.864   0.671  3.0000  0.9996 -1.5899
  638MOL0     H88018   1.790  11.122   0.543 -1.5760  0.8836 -0.5013
  638MOL0     H88019   1.666  10.995   0.564  0.8754  0.4670  2.6997
  638MOL0     H88020   1.834  10.849   0.442  1.9626  0.0139 -2.1325
  638MOL0     H88021   1.938  10.985   0.412  0.5585 -2.1741 -2.2012
  638MOL0     H88022   1.817  11.063   0.242 -1.4079 -1.0362 -1.3589
  638MOL0     H88023   1.668  11.065   0.336  1.1633  1.0929  0.9945
  638MOL0     H88024   2.204  11.047   1.071 -0.9442  0.9991 -0.4180
  638MOL0     H88025   2.351  10.862   1.183 -0.4562 -0.8604  1.6511
  638MOL0     H88026   2.492  10.550   1.399 -1.7058 -1.1453 -0.4686
  638MOL0     H88027   2.655  10.446   1.557  0.4288 -1.9787  1.9669
  638MOL0     H88028   3.734   9.104   2.112 -0.7489  0.6349 -3.7491
  638MOL0     H88029   3.955   9.097   2.209  0.3343  0.6538 -0.6713
  638MOL0     H88030   4.383   8.986   2.382  0.7076  0.2845  1.3428
  638MOL0     H88031   4.583   8.922   2.418 -3.1893  1.9607 -0.6018
  638MOL0     H88032   4.834   8.536   2.401  0.8753 -0.2223 -0.9596
  638MOL0     H88033   4.671   8.467   2.381 -1.3423  1.1503  1.3338
  638MOL0     H88034   4.694   8.560   2.149 -0.4629  1.4227  2.0997
  638MOL0     H88035   4.816   8.426   2.186  1.5312  0.0443  0.2116
  638MOL0     H88036   4.850   8.737   2.202  1.8733  0.4383 -0.7687
  638MOL0     H88037   4.972   8.606   2.226 -0.9577 -1.2414 -1.0681
  638MOL0     H88038   4.838   8.688   1.975  1.8693  4.9395  0.8299
  638MOL0     H88039   4.952   8.545   1.980 -2.1837  0.6530 -2.2085
  638MOL0     H88040   5.190   8.878   1.913 -0.8226 -1.3866 -0.3531
  638MOL0     H88041   4.481   8.515   2.294  0.8424  0.4548 -1.7343
  638MOL0     H88042   4.254   8.462   2.234 -3.5631 -1.1363  1.1444
  638MOL0     H88043   4.133   8.574   2.289 -1.2107 -1.2420 -0.8915
  638MOL0     H88044   4.202   8.605   2.133  1.3839  3.1303  0.8786
  639MOL0     O88045   3.952   3.532   3.180 -0.4180 -0.8458  1.0465
  639MOL0     C88046   3.912   3.555   3.296  1.0646 -0.4664  0.3738
  639MOL0     O88047   3.969   3.492   3.410 -0.0991  0.1933 -0.8288
  639MOL0     C88048   4.073   3.407   3.371  0.4871  0.8940 -0.3740
  639MOL0     C88049   4.059   3.285   3.292  0.2385  0.3810  0.4698
  639MOL0     C88050   4.171   3.209   3.262  0.3647  0.3125  0.1982
  639MOL0     C88051   4.296   3.242   3.309 -1.4448 -0.0789  0.2246
  639MOL0     O88052   4.398   3.151   3.294 -0.1615 -0.4641  0.2457
  639MOL0     C88053   4.531   3.163   3.344  0.4170 -0.6050 -0.6838
  639MOL0     C88054   4.616   3.044   3.292 -0.2079 -0.3731 -0.2685
  639MOL0     C88055   4.604   3.016   3.148 -1.1392 -0.7345  0.3772
  639MOL0     C88056   4.638   3.132   3.054  0.0867  0.5219  0.1119
  639MOL0     C88057   4.752   3.103   2.956  0.0353  0.3575  0.2025
  639MOL0     C88058   4.768   3.234   2.873 -0.3243 -0.1347 -0.2436
  639MOL0     C88059   4.891   3.218   2.779 -0.5147 -0.8984  0.3265
  639MOL0     C88060   4.904   3.329   2.674 -0.4950 -0.1586 -0.3747
  639MOL0     N88061   5.042   3.378   2.658  0.0987 -0.0003  0.4167
  639MOL0     C88062   5.136   3.306   2.579  0.3165 -0.1278 -0.0958
  639MOL0     C88063   5.257   3.362   2.619  0.8168 -0.8675 -0.1866
  639MOL0     C88064   5.397   3.346   2.560  0.2565  0.5214  0.9004
  639MOL0     C88065   5.438   3.209   2.555 -0.1115  0.5470 -0.1277
  639MOL0     C88066   5.579   3.184   2.495  0.1508  0.8415 -0.1674
  639MOL0     C88067   5.604   3.216   2.350 -0.5131 -1.2856  0.1279
  639MOL0     O88068   5.721   3.160   2.284 -0.1963 -0.4960 -0.2213
  639MOL0     C88069   5.825   3.248   2.259 -0.1382  0.1828 -0.0798
  639MOL0     C88070   5.923   3.197   2.176  0.2815  0.6398 -0.2089
  639MOL0     C88071   6.034   3.277   2.137  0.7215 -0.9550 -0.2328
  639MOL0     C88072   6.132   3.219   2.037  0.2080  0.5444 -0.6268
  639MOL0     C88073   6.055   3.402   2.201 -0.1330  0.9385 -0.6025
  639MOL0     C88074   6.193   3.467   2.201 -0.2829 -0.5889  1.0752
  639MOL0     O88075   6.212   3.566   2.292 -0.6283 -0.9043 -0.9231
  639MOL0     C88076   6.335   3.580   2.349  0.2856 -0.2959  0.9547
  639MOL0     C88077   6.444   3.598   2.265 -0.7090  0.2912  1.7996
  639MOL0     C88078   6.573   3.624   2.313 -0.1365  0.4599  0.3899
  639MOL0     C88079   6.586   3.611   2.450  0.0876  0.1308 -0.6661
  639MOL0     O88080   6.709   3.610   2.515  0.7558  0.2455  0.0257
  639MOL0     C88081   6.805   3.501   2.512  0.5935  0.3685  0.1610
  639MOL0     C88082   6.761   3.380   2.593 -0.1282  0.3046  0.1228
  639MOL0     C88083   6.757   3.406   2.747  0.2892  1.1869 -0.3444
  639MOL0     C88084   6.892   3.455   2.800 -0.6108  0.3663  0.1492
  639MOL0     C88085   6.887   3.477   2.952 -0.4675  0.4733  0.3452
  639MOL0     C88086   7.023   3.535   3.014  0.6266  0.0463 -0.2416
  639MOL0     C88087   6.984   3.633   3.126  0.5065  1.5164  0.3471
  639MOL0     C88088   7.106   3.693   3.179 -0.1347  0.8530 -1.0683
  639MOL0    Cl88089   7.062   3.820   3.304 -0.5884  0.1023  0.1332
  639MOL0     C88090   6.466   3.618   2.531 -0.7295 -0.1934  0.5399
  639MOL0     C88091   6.338   3.595   2.482  0.1163  0.0962 -1.1316
  639MOL0     O88092   6.278   3.426   2.124  0.0312  0.5886 -0.1848
  639MOL0     C88093   5.958   3.456   2.289 -0.6908  0.5490  0.3256
  639MOL0     C88094   5.845   3.386   2.305  0.2570  0.1712  0.7720
  639MOL0     N88095   5.233   3.459   2.710 -0.2438 -1.4081 -0.4851
  639MOL0     N88096   5.109   3.465   2.737  0.3513  0.3119 -0.1405
  639MOL0     C88097   4.308   3.368   3.382 -0.0539  0.1713 -0.6914
  639MOL0     C88098   4.196   3.440   3.413  0.4797 -0.4464 -0.8287
  639MOL0     C88099   3.796   3.654   3.323 -0.5003  0.2147 -0.3694
  639MOL0     C88100   3.789   3.709   3.451 -0.4535 -0.3382 -0.0584
  639MOL0     C88101   3.680   3.802   3.479 -0.2411 -0.5661 -0.0723
  639MOL0     C88102   3.582   3.831   3.382  0.1459  0.1744  0.4321
  639MOL0     O88103   3.489   3.931   3.397  0.0716  0.4106  0.1233
  639MOL0     C88104   3.365   3.899   3.453  0.8193  0.3493 -0.7064
  639MOL0     C88105   3.368   3.872   3.610 -0.4461  0.2319  0.6738
  639MOL0     C88106   3.226   3.845   3.661  0.1725 -0.3921  0.2559
  639MOL0     C88107   3.152   3.978   3.704 -0.1529  1.2539  0.4086
  639MOL0     C88108   3.049   4.006   3.609 -0.0632 -0.9093  0.4556
  639MOL0     C88109   2.960   4.037   3.530 -0.7939  0.5866 -0.1627
  639MOL0     C88110   3.595   3.765   3.254 -1.7789 -1.1551 -0.2242
  639MOL0     C88111   3.699   3.682   3.223 -0.4511  0.2105 -0.3206
  639MOL0     C88112   3.693   3.636   3.074  0.5156 -0.7979 -0.3441
  639MOL0     H88113   3.964   3.253   3.251  1.0996 -2.0274  0.1765
  639MOL0     H88114   4.163   3.108   3.223 -0.4183  0.2507  0.5024
  639MOL0     H88115   4.544   3.183   3.451  0.2518 -2.1337 -0.3486
  639MOL0     H88116   4.584   3.253   3.312  2.1049 -0.9060  1.0508
  639MOL0     H88117   4.721   3.062   3.318 -0.0538 -0.1930 -1.0066
  639MOL0     H88118   4.587   2.955   3.350 -0.1224 -1.1302 -1.3582
  639MOL0     H88119   4.666   2.929   3.125 -0.2391 -0.0889  0.2952
  639MOL0     H88120   4.500   2.989   3.127 -1.0849  0.0167 -0.9758
  639MOL0     H88121   4.549   3.169   3.003  1.4943  1.5861 -1.6735
  639MOL0     H88122   4.678   3.196   3.133  2.0644 -3.5035  2.7477
  639MOL0     H88123   4.716   3.019   2.895 -1.8050  2.9408 -2.5735
  639MOL0     H88124   4.842   3.066   3.005 -1.3763  0.1410  2.7930
  639MOL0     H88125   4.678   3.258   2.815  1.5562  1.9406 -2.5187
  639MOL0     H88126   4.788   3.321   2.937 -0.9474 -1.8478  2.4554
  639MOL0     H88127   4.868   3.124   2.728 -1.4409  0.3618 -1.7005
  639MOL0     H88128   4.979   3.231   2.843 -3.0285 -0.6417  3.9993
  639MOL0     H88129   4.856   3.295   2.582 -1.7577 -2.1419  0.9361
  639MOL0     H88130   4.850   3.418   2.707  1.4105  0.3103  1.6909
  639MOL0     H88131   5.115   3.232   2.502 -1.0810 -0.6565  0.7470
  639MOL0     H88132   5.461   3.410   2.621  2.7676 -0.4848 -0.5236
  639MOL0     H88133   5.396   3.402   2.466  2.2332  0.5767  0.8586
  639MOL0     H88134   5.442   3.165   2.655 -0.1945 -0.2311 -0.4597
  639MOL0     H88135   5.362   3.156   2.497 -1.1195  1.6386  0.1839
  639MOL0     H88136   5.652   3.243   2.550 -1.1186  3.5752 -1.2055
  639MOL0     H88137   5.596   3.076   2.497  0.6190  0.9194 -0.0269
  639MOL0     H88138   5.514   3.193   2.293  0.3881 -3.1333 -0.6298
  639MOL0     H88139   5.608   3.325   2.338  2.6356 -1.3640 -0.4344
  639MOL0     H88140   5.901   3.093   2.151  1.5226 -0.8783  4.1435
  639MOL0     H88141   6.175   3.291   1.967 -0.4259  1.0765 -0.4781
  639MOL0     H88142   6.102   3.126   1.990  1.4032  1.1160 -2.6244
  639MOL0     H88143   6.213   3.175   2.095 -1.1036  0.5988  1.3610
  639MOL0     H88144   6.438   3.602   2.157 -2.6042  2.3779  1.9140
  639MOL0     H88145   6.655   3.623   2.241  0.0707  1.4848  0.5956
  639MOL0     H88146   6.807   3.480   2.405 -1.6973 -0.6858  0.2736
  639MOL0     H88147   6.906   3.532   2.542  1.2597 -0.5187 -1.0811
  639MOL0     H88148   6.668   3.331   2.562  0.1720 -1.1902  1.4712
  639MOL0     H88149   6.831   3.301   2.563 -0.5166 -0.1352  0.3540
  639MOL0     H88150   6.721   3.320   2.805  1.2481  1.3620  0.5174
  639MOL0     H88151   6.680   3.483   2.758  1.1578  2.2134 -1.2291
  639MOL0     H88152   6.919   3.549   2.751 -2.6993 -0.0477 -1.9573
  639MOL0     H88153   6.974   3.386   2.776 -0.7258  0.4695 -0.5472
  639MOL0     H88154   6.799   3.540   2.969 -1.3500  0.0341 -2.1333
  639MOL0     H88155   6.874   3.382   3.004  3.2535  0.0117  0.7229
  639MOL0     H88156   7.072   3.597   2.938 -1.1413  0.9480 -0.6935
  639MOL0     H88157   7.097   3.458   3.036 -0.3816 -1.4346 -1.8123
  639MOL0     H88158   6.940   3.583   3.213 -0.4887  0.4728 -0.7184
  639MOL0     H88159   6.900   3.700   3.103  0.9813  1.6582 -1.1047
  639MOL0     H88160   7.165   3.743   3.102  1.6873  1.9277  0.9313
  639MOL0     H88161   7.180   3.620   3.212 -1.4487 -1.2921 -2.6142
  639MOL0     H88162   6.486   3.642   2.635 -3.0859 -0.9203  1.2142
  639MOL0     H88163   6.242   3.605   2.530  0.2875 -0.8683 -0.5663
  639MOL0     H88164   5.970   3.555   2.333 -0.4689 -0.2649  2.1595
  639MOL0     H88165   5.776   3.446   2.363  0.7305  2.9344 -1.3074
  639MOL0     H88166   4.404   3.392   3.427 -0.5957  1.1206 -0.0416
  639MOL0     H88167   4.215   3.528   3.473 -0.7249  0.1031 -1.2418
  639MOL0     H88168   3.851   3.673   3.533  0.8460  1.5026 -0.1760
  639MOL0     H88169   3.672   3.848   3.577 -0.6493  0.9370 -0.7849
  639MOL0     H88170   3.299   3.984   3.435 -0.9468 -0.8866 -0.3499
  639MOL0     H88171   3.317   3.818   3.397  2.9657  0.4860 -2.9315
  639MOL0     H88172   3.417   3.953   3.666 -0.1893  2.5692 -2.6110
  639MOL0     H88173   3.416   3.775   3.625  0.7862  0.6466 -0.4404
  639MOL0     H88174   3.174   3.784   3.587 -0.8917  0.8067 -0.0375
  639MOL0     H88175   3.241   3.783   3.750  2.1472 -4.7074 -2.7470
  639MOL0     H88176   3.223   4.061   3.706 -0.5191  1.5522  1.8030
  639MOL0     H88177   3.101   3.957   3.798  2.8433  0.6159  1.9826
  639MOL0     H88178   2.873   4.061   3.472 -1.2443 -2.3027 -0.8528
  639MOL0     H88179   3.528   3.801   3.176 -1.4077  2.5286  0.9372
  639MOL0     H88180   3.599   3.664   3.026  0.4817 -2.9865 -1.7095
  639MOL0     H88181   3.772   3.680   3.012  0.6995 -1.6609 -0.7385
  639MOL0     H88182   3.689   3.527   3.070  0.3566 -0.7600 -1.9303
  640MOL0     O88183   6.542   7.417   7.961  0.3479 -0.1001  0.6614
  640MOL0     C88184   6.486   7.514   8.017  0.4065 -0.4639 -1.4980
  640MOL0     O88185   6.442   7.622   7.957  0.4137  0.1311 -0.0110
  640MOL0     C88186   6.447   7.626   7.825  0.1583 -0.5388  0.3095
  640MOL0     C88187   6.350   7.577   7.742 -0.7311 -1.0749 -0.8293
  640MOL0     C88188   6.359   7.583   7.603 -0.5234 -0.4773 -0.5009
  640MOL0     C88189   6.467   7.648   7.540  0.0719  0.3507  0.8435
  640MOL0     O88190   6.483   7.623   7.404  0.0626 -0.2294  0.4261
  640MOL0     C88191   6.522   7.730   7.311 -0.1595 -0.0850  0.1179
  640MOL0     C88192   6.503   7.691   7.168 -0.7772  0.0810  0.2416
  640MOL0     C88193   6.592   7.775   7.078  0.1949 -0.6878 -0.3517
  640MOL0     C88194   6.579   7.725   6.934  0.6665 -0.1343  0.3986
  640MOL0     C88195   6.690   7.774   6.838 -0.4436 -0.3926  0.3721
  640MOL0     C88196   6.697   7.713   6.693  0.2666 -0.2308  0.1142
  640MOL0     C88197   6.699   7.562   6.666  0.0047  0.4701  0.0404
  640MOL0     C88198   6.753   7.537   6.524 -0.5086  0.7209 -0.3035
  640MOL0     N88199   6.656   7.570   6.422 -0.2400 -0.2778  0.4886
  640MOL0     C88200   6.559   7.486   6.372  0.7133 -0.1703  0.1709
  640MOL0     C88201   6.480   7.570   6.294  0.0047 -0.0804 -0.2749
  640MOL0     C88202   6.368   7.534   6.199 -0.3492 -0.0530  0.2362
  640MOL0     C88203   6.427   7.513   6.061 -0.1972 -0.4485 -0.7390
  640MOL0     C88204   6.338   7.476   5.939  0.5844  0.0132 -0.0774
  640MOL0     C88205   6.205   7.552   5.935  0.9709 -0.6999  0.4320
  640MOL0     O88206   6.127   7.496   6.036  0.0689  0.2288 -0.4386
  640MOL0     C88207   6.035   7.574   6.103  0.2836 -0.3812 -0.4611
  640MOL0     C88208   5.937   7.516   6.180  0.5750 -0.4675 -0.7933
  640MOL0     C88209   5.850   7.592   6.262  0.0237  0.2411 -0.1066
  640MOL0     C88210   5.763   7.508   6.352  0.1404  0.7693  0.1834
  640MOL0     C88211   5.860   7.728   6.278  1.3256 -0.3899  0.9447
  640MOL0     C88212   5.792   7.807   6.387 -0.0840  0.1876 -0.3049
  640MOL0     O88213   5.840   7.937   6.398  0.3720  0.1071 -0.2633
  640MOL0     C88214   5.805   8.012   6.511 -0.5133 -0.0383 -1.3921
  640MOL0     C88215   5.910   8.037   6.603 -0.3379 -0.6421 -0.0724
  640MOL0     C88216   5.877   8.119   6.721  0.2341  0.2388  0.2657
  640MOL0     C88217   5.742   8.147   6.760  0.2885 -0.0474  0.2105
  640MOL0     O88218   5.699   8.215   6.868  0.3626 -0.2479 -0.5147
  640MOL0     C88219   5.792   8.232   6.975 -0.1174  0.1787  0.4852
  640MOL0     C88220   5.714   8.247   7.103 -0.5280 -0.4136 -0.3839
  640MOL0     C88221   5.630   8.123   7.125 -0.4834  0.2029 -0.8255
  640MOL0     C88222   5.532   8.149   7.241 -0.5962  0.0580  0.1026
  640MOL0     C88223   5.444   8.027   7.275 -0.3924  0.5039 -1.0284
  640MOL0     C88224   5.352   7.977   7.162 -0.3287  0.4690  0.9459
  640MOL0     C88225   5.216   7.943   7.223 -0.1250  0.0918 -0.6026
  640MOL0     C88226   5.141   7.839   7.132  0.5883 -0.6864  0.8569
  640MOL0    Cl88227   4.971   7.804   7.163  0.2467 -0.0493 -0.2182
  640MOL0     C88228   5.640   8.097   6.667 -0.1313 -0.0195 -0.8655
  640MOL0     C88229   5.675   8.041   6.547  0.6070  0.5716 -0.9343
  640MOL0     O88230   5.702   7.763   6.449 -0.0901 -0.0874  0.1346
  640MOL0     C88231   5.944   7.792   6.179 -0.0165 -0.8066 -0.2483
  640MOL0     C88232   6.027   7.712   6.097  1.3808  0.2524  0.1905
  640MOL0     N88233   6.537   7.701   6.303  0.1525 -0.1233  0.3162
  640MOL0     N88234   6.639   7.691   6.374  0.5808  0.4877  0.8450
  640MOL0     C88235   6.572   7.705   7.621  0.1327 -0.2203  0.4877
  640MOL0     C88236   6.558   7.699   7.760 -0.3123  0.6817 -0.2594
  640MOL0     C88237   6.464   7.522   8.164 -0.1341  0.0754 -0.1807
  640MOL0     C88238   6.573   7.481   8.244 -0.5458  0.0265  0.2561
  640MOL0     C88239   6.558   7.492   8.381 -0.6145  0.6187  0.0436
  640MOL0     C88240   6.444   7.545   8.445  0.9058 -1.3628  0.0915
  640MOL0     O88241   6.418   7.557   8.584  0.5164  0.6790 -0.2492
  640MOL0     C88242   6.295   7.514   8.638  0.3397  1.0820  0.8997
  640MOL0     C88243   6.290   7.497   8.791 -0.3608 -0.9186  0.4127
  640MOL0     C88244   6.145   7.456   8.828  0.2547 -0.0020  0.4615
  640MOL0     C88245   6.125   7.477   8.976  0.7056 -0.3639 -0.0267
  640MOL0     C88246   6.224   7.432   9.072 -0.3850  0.2311 -0.4455
  640MOL0     C88247   6.306   7.388   9.150 -0.5620 -0.2546 -0.6432
  640MOL0     C88248   6.336   7.577   8.358  0.1446 -0.0354  1.6773
  640MOL0     C88249   6.336   7.567   8.220 -0.5475  0.7352 -0.2594
  640MOL0     C88250   6.225   7.626   8.144 -0.0245 -0.0851 -0.0122
  640MOL0     H88251   6.261   7.529   7.781 -1.7591  1.9838  0.8449
  640MOL0     H88252   6.280   7.538   7.543  0.7513 -4.1198  0.2943
  640MOL0     H88253   6.620   7.764   7.346  0.3658 -1.7766  0.3999
  640MOL0     H88254   6.452   7.813   7.322  1.1901  1.4024 -1.8729
  640MOL0     H88255   6.535   7.587   7.158  1.1678  0.6339  0.2696
  640MOL0     H88256   6.395   7.696   7.150 -0.7970 -1.2745 -0.1126
  640MOL0     H88257   6.552   7.876   7.072 -0.6927 -1.0340 -0.4332
  640MOL0     H88258   6.694   7.774   7.118 -0.6591  1.6562  2.1536
  640MOL0     H88259   6.578   7.616   6.926  2.3913 -0.4301  3.1345
  640MOL0     H88260   6.482   7.756   6.894  0.5959  1.7013  1.8773
  640MOL0     H88261   6.786   7.751   6.885 -0.0390 -0.1438 -0.3125
  640MOL0     H88262   6.683   7.884   6.836 -2.2624 -0.4735 -0.0001
  640MOL0     H88263   6.626   7.765   6.627  1.4600  1.1586 -0.1295
  640MOL0     H88264   6.794   7.746   6.655 -0.9904  0.6944 -2.6117
  640MOL0     H88265   6.602   7.517   6.689 -0.2361  1.4864  1.1283
  640MOL0     H88266   6.772   7.517   6.733 -1.1600  0.7927  1.5767
  640MOL0     H88267   6.847   7.592   6.516 -0.2132  0.4467  1.0222
  640MOL0     H88268   6.775   7.433   6.502 -2.0623  0.2666  0.1590
  640MOL0     H88269   6.557   7.378   6.366  3.5665 -0.1911 -3.5755
  640MOL0     H88270   6.301   7.621   6.202 -1.3499 -0.8241  0.5889
  640MOL0     H88271   6.303   7.450   6.223 -1.8187 -0.8083 -5.0700
  640MOL0     H88272   6.488   7.599   6.033 -2.8949  1.3226 -1.5760
  640MOL0     H88273   6.508   7.440   6.072  1.6162  1.4909 -0.4570
  640MOL0     H88274   6.401   7.497   5.852 -2.9843  3.4277 -2.1349
  640MOL0     H88275   6.315   7.369   5.935 -1.4744  0.2681  2.2101
  640MOL0     H88276   6.229   7.658   5.944  3.0547 -1.2487  2.4125
  640MOL0     H88277   6.147   7.540   5.843 -0.3206 -0.8921  1.2463
  640MOL0     H88278   5.921   7.409   6.166  1.8048 -0.8975  0.8321
  640MOL0     H88279   5.791   7.507   6.458  1.4409  1.3304 -0.1415
  640MOL0     H88280   5.766   7.406   6.314 -1.8609  1.0411 -0.8509
  640MOL0     H88281   5.664   7.554   6.347 -0.0901  0.4647  1.5787
  640MOL0     H88282   6.013   8.005   6.599 -0.1796 -0.1968  0.3153
  640MOL0     H88283   5.954   8.143   6.794  0.8832 -1.2139  0.0942
  640MOL0     H88284   5.864   8.151   6.987  0.9718  1.3060  1.7910
  640MOL0     H88285   5.861   8.316   6.962 -0.1387  0.3576  1.4303
  640MOL0     H88286   5.783   8.255   7.188  1.4299  2.0313 -2.0589
  640MOL0     H88287   5.649   8.334   7.093  0.6959  0.4938 -0.7444
  640MOL0     H88288   5.691   8.041   7.163  0.4972  1.6637  0.9589
  640MOL0     H88289   5.576   8.102   7.033 -0.7232  1.4446 -0.9864
  640MOL0     H88290   5.473   8.237   7.216 -1.0250 -0.4280 -0.6118
  640MOL0     H88291   5.594   8.175   7.328  0.2605 -2.3615  0.3043
  640MOL0     H88292   5.517   7.949   7.298 -0.1688  0.4457 -1.9163
  640MOL0     H88293   5.386   8.061   7.362  2.7597  1.3504  0.8925
  640MOL0     H88294   5.386   7.890   7.104  2.7461  2.2680 -0.1811
  640MOL0     H88295   5.326   8.056   7.092 -0.9751  0.9061  1.6731
  640MOL0     H88296   5.168   8.042   7.229 -1.0716 -0.4215  0.9351
  640MOL0     H88297   5.231   7.912   7.327  0.2565 -0.4833 -0.8279
  640MOL0     H88298   5.195   7.744   7.131  2.0960  0.1259  1.1397
  640MOL0     H88299   5.143   7.878   7.029  0.5141 -2.6723  0.0641
  640MOL0     H88300   5.536   8.122   6.687  0.3955  0.0190  2.2299
  640MOL0     H88301   5.587   8.010   6.491 -0.4594  1.8840 -0.0785
  640MOL0     H88302   5.929   7.899   6.173 -2.9717 -1.1048  0.3963
  640MOL0     H88303   6.092   7.769   6.031  1.9573  1.9503  2.1277
  640MOL0     H88304   6.654   7.760   7.576 -0.6486  0.9651  0.4568
  640MOL0     H88305   6.638   7.735   7.824 -3.8862  1.1501  4.4488
  640MOL0     H88306   6.668   7.454   8.199  0.4157 -0.2449  2.3519
  640MOL0     H88307   6.645   7.466   8.440 -0.2047 -0.9421 -1.1662
  640MOL0     H88308   6.223   7.591   8.611 -0.1474 -0.4651 -2.7591
  640MOL0     H88309   6.265   7.419   8.592 -0.7335  2.4380 -1.3732
  640MOL0     H88310   6.308   7.592   8.841 -2.0364 -0.2941 -0.1018
  640MOL0     H88311   6.355   7.416   8.826 -2.3487 -2.2060  1.3410
  640MOL0     H88312   6.072   7.515   8.773 -0.2603 -2.7414 -2.0866
  640MOL0     H88313   6.123   7.352   8.803  1.2526 -0.0698 -0.1741
  640MOL0     H88314   6.031   7.429   9.007  0.7006  0.1498  0.7735
  640MOL0     H88315   6.113   7.584   8.994  0.5827 -0.2802 -0.5890
  640MOL0     H88316   6.377   7.351   9.222 -1.4031 -0.4223  0.1215
  640MOL0     H88317   6.242   7.614   8.398 -1.4842 -0.3883 -1.4949
  640MOL0     H88318   6.146   7.667   8.208  2.5119  4.6757  0.5441
  640MOL0     H88319   6.260   7.704   8.076 -0.3125 -1.1472 -1.4281
  640MOL0     H88320   6.171   7.555   8.081 -2.3804  2.7130 -1.3565
  641MOL0     O88321   6.884   2.420   2.696 -0.4348 -0.1017 -0.2037
  641MOL0     C88322   6.980   2.402   2.622 -0.1970 -0.1090  0.1399
  641MOL0     O88323   7.037   2.282   2.594  0.2610  0.3614 -0.6176
  641MOL0     C88324   6.990   2.171   2.663  0.7196  0.2090  0.1316
  641MOL0     C88325   6.913   2.081   2.590  0.9035 -0.0205 -0.2412
  641MOL0     C88326   6.857   1.973   2.653  0.7565  0.4038 -0.1090
  641MOL0     C88327   6.880   1.950   2.791 -0.5001  0.3621 -0.1991
  641MOL0     O88328   6.827   1.833   2.840  0.0839  0.4078  0.6172
  641MOL0     C88329   6.885   1.789   2.968  0.8267 -0.2209  0.4429
  641MOL0     C88330   6.799   1.843   3.083  0.2695 -0.8798  0.2438
  641MOL0     C88331   6.873   1.837   3.220 -0.2348 -0.5343  0.5381
  641MOL0     C88332   6.788   1.880   3.340 -0.7974  0.3237  0.2213
  641MOL0     C88333   6.881   1.900   3.463 -0.0091 -0.0804 -0.8504
  641MOL0     C88334   6.948   1.770   3.516 -0.0616  0.3806 -0.2331
  641MOL0     C88335   6.850   1.665   3.575 -1.1286 -0.1991 -0.6038
  641MOL0     C88336   6.797   1.707   3.721  0.5717  0.5968 -0.0027
  641MOL0     N88337   6.703   1.598   3.769 -0.0434  0.4796 -0.7731
  641MOL0     C88338   6.743   1.490   3.833 -0.3769 -0.1188 -0.6147
  641MOL0     C88339   6.634   1.412   3.853 -0.0366  0.6371 -1.4185
  641MOL0     C88340   6.627   1.280   3.917  0.5005  0.0235 -0.4661
  641MOL0     C88341   6.567   1.289   4.058 -0.5779 -0.3329  0.8306
  641MOL0     C88342   6.571   1.153   4.131 -0.0044  0.9147 -0.2874
  641MOL0     C88343   6.718   1.124   4.167 -0.2763 -0.0579  0.3086
  641MOL0     O88344   6.704   1.021   4.266 -0.6790 -0.5182 -0.7588
  641MOL0     C88345   6.824   0.963   4.307 -0.6986 -0.0588 -0.4077
  641MOL0     C88346   6.960   0.992   4.272  0.1102 -0.6973 -0.6294
  641MOL0     C88347   7.073   0.936   4.320 -0.5681 -0.7149  0.0706
  641MOL0     C88348   7.202   0.992   4.256 -0.3027 -0.2645 -0.2805
  641MOL0     C88349   7.049   0.850   4.424 -1.0173 -0.1024  0.7748
  641MOL0     C88350   7.166   0.803   4.504  0.5880  0.0720 -0.2692
  641MOL0     O88351   7.246   0.913   4.532 -0.7225  0.1485  0.6494
  641MOL0     C88352   7.346   0.881   4.619  0.9284  0.6087  0.2598
  641MOL0     C88353   7.469   0.828   4.573 -0.6162  0.6178 -0.4418
  641MOL0     C88354   7.562   0.784   4.670  0.1348  0.2285 -0.0498
  641MOL0     C88355   7.539   0.823   4.804 -0.5236  1.3498  0.4942
  641MOL0     O88356   7.632   0.796   4.901  0.7508 -0.4531  0.3404
  641MOL0     C88357   7.770   0.816   4.857 -0.2419 -0.2589  0.0277
  641MOL0     C88358   7.852   0.813   4.986  0.0615  0.1205  0.0280
  641MOL0     C88359   8.004   0.851   4.981  0.2904 -0.1080 -0.2143
  641MOL0     C88360   8.061   0.904   5.110 -0.3444  0.1425  0.9762
  641MOL0     C88361   8.024   1.053   5.137  0.8275  0.1628  0.3431
  641MOL0     C88362   8.007   1.099   5.282 -0.3434 -0.1986 -0.0735
  641MOL0     C88363   7.925   1.228   5.283 -0.2262 -0.4090 -0.1733
  641MOL0     C88364   7.940   1.300   5.416  0.0540 -0.0023 -0.3935
  641MOL0    Cl88365   7.834   1.438   5.431 -0.1952 -0.1455 -0.3389
  641MOL0     C88366   7.420   0.881   4.843  0.1089 -0.4761 -0.9426
  641MOL0     C88367   7.324   0.908   4.753 -0.2418  0.8814 -0.3916
  641MOL0     O88368   7.163   0.693   4.558 -0.1871  0.0962  0.1651
  641MOL0     C88369   6.917   0.817   4.469  0.4047  0.0049  0.7098
  641MOL0     C88370   6.811   0.876   4.412 -0.0633 -0.0471  0.0312
  641MOL0     N88371   6.529   1.479   3.798 -0.7284 -0.4525 -0.2108
  641MOL0     N88372   6.569   1.589   3.747 -0.3550  0.6026  0.0234
  641MOL0     C88373   6.963   2.038   2.867 -0.4497  0.3569  0.1013
  641MOL0     C88374   7.016   2.153   2.802  0.1533  0.1103 -0.4658
  641MOL0     C88375   7.039   2.515   2.552  0.4315  0.4781  0.4330
  641MOL0     C88376   6.944   2.614   2.525  0.0160 -0.5560  0.0190
  641MOL0     C88377   6.978   2.715   2.430 -0.3290 -0.2940 -0.0312
  641MOL0     C88378   7.105   2.740   2.394 -1.2629 -0.4902  0.1766
  641MOL0     O88379   7.145   2.841   2.314 -0.2181  0.0380 -0.3494
  641MOL0     C88380   7.043   2.933   2.272 -0.7269 -1.0177 -0.1192
  641MOL0     C88381   7.126   3.040   2.200  0.4790  0.2542  0.3770
  641MOL0     C88382   7.164   2.997   2.058  0.7345 -0.9528 -0.4100
  641MOL0     C88383   7.248   3.103   1.986 -1.0611 -0.1952 -0.2427
  641MOL0     C88384   7.311   3.024   1.867  0.1938  1.6340  0.2280
  641MOL0     C88385   7.373   2.966   1.781 -0.2802 -0.5686 -0.0032
  641MOL0     C88386   7.193   2.646   2.431 -0.1259 -0.4453  0.4744
  641MOL0     C88387   7.165   2.532   2.503  0.5249  0.8589 -0.0211
  641MOL0     C88388   7.276   2.432   2.528 -0.5535 -1.3866  0.1952
  641MOL0     H88389   6.921   2.095   2.482 -0.9437 -1.4238 -0.6074
  641MOL0     H88390   6.789   1.908   2.599  1.6056 -1.5453  1.0683
  641MOL0     H88391   6.988   1.824   2.978  0.8389  0.2140 -1.0062
  641MOL0     H88392   6.889   1.680   2.979  4.0451 -0.2209  0.0879
  641MOL0     H88393   6.774   1.948   3.067 -0.1523 -0.7490  1.6498
  641MOL0     H88394   6.708   1.784   3.099  0.2368 -0.5544  1.3341
  641MOL0     H88395   6.922   1.740   3.232  2.6097  0.3931 -2.1889
  641MOL0     H88396   6.956   1.908   3.207  0.4659 -1.3661  0.3758
  641MOL0     H88397   6.758   1.979   3.308 -0.0859 -0.0841 -1.8469
  641MOL0     H88398   6.698   1.819   3.354  0.5369 -1.4233  1.8200
  641MOL0     H88399   6.834   1.951   3.547  0.9628  0.6017 -0.7049
  641MOL0     H88400   6.953   1.980   3.440  0.7112 -0.1857  0.9141
  641MOL0     H88401   7.023   1.728   3.448  0.8894 -1.3523  1.7843
  641MOL0     H88402   7.017   1.793   3.597 -0.3241 -1.5639  0.6021
  641MOL0     H88403   6.906   1.572   3.582 -1.3746 -0.1868  3.0331
  641MOL0     H88404   6.764   1.648   3.508 -1.0139  0.1792 -0.8520
  641MOL0     H88405   6.871   1.727   3.800  0.0219 -0.8119  0.9141
  641MOL0     H88406   6.755   1.807   3.711  0.4832  0.7720  1.7305
  641MOL0     H88407   6.850   1.472   3.843 -0.7666 -3.1564 -0.8703
  641MOL0     H88408   6.731   1.255   3.944  1.3651  3.6562  0.0915
  641MOL0     H88409   6.578   1.197   3.866 -0.3425 -1.6484  2.7664
  641MOL0     H88410   6.610   1.379   4.103 -0.9162 -1.1178  2.8275
  641MOL0     H88411   6.460   1.309   4.060 -0.7351 -0.9366 -0.5013
  641MOL0     H88412   6.512   1.159   4.223  1.6309  2.7561  0.7387
  641MOL0     H88413   6.534   1.069   4.072 -1.2668  0.3719  1.2097
  641MOL0     H88414   6.766   1.098   4.072  1.7688  1.3730  0.8991
  641MOL0     H88415   6.766   1.219   4.193 -0.7304  0.5645 -0.9957
  641MOL0     H88416   6.987   1.056   4.189  1.4137  0.8991  0.9535
  641MOL0     H88417   7.202   0.980   4.147  1.0725 -1.1883 -0.1926
  641MOL0     H88418   7.294   0.936   4.275 -1.1539 -2.9601 -3.1669
  641MOL0     H88419   7.216   1.097   4.284 -1.0429  0.6813 -3.0361
  641MOL0     H88420   7.481   0.809   4.467  4.3665  0.8948 -0.1421
  641MOL0     H88421   7.654   0.734   4.639 -0.1924  1.3368 -3.0925
  641MOL0     H88422   7.808   0.748   4.781  0.5639  0.8065 -0.5658
  641MOL0     H88423   7.777   0.913   4.806 -0.8913 -0.1936  0.0577
  641MOL0     H88424   7.803   0.881   5.056 -1.6243 -2.8195  1.9295
  641MOL0     H88425   7.841   0.711   5.023 -2.4977  1.2644  2.8146
  641MOL0     H88426   8.025   0.923   4.901  1.3962  0.0368  0.1976
  641MOL0     H88427   8.063   0.761   4.965  0.4486 -0.3587  1.6361
  641MOL0     H88428   8.169   0.892   5.103 -0.4692  0.0546 -1.2967
  641MOL0     H88429   8.026   0.848   5.197  1.5252  2.9203  3.7611
  641MOL0     H88430   8.096   1.115   5.082  0.6911  0.2200  0.2292
  641MOL0     H88431   7.923   1.058   5.095  1.1759  1.1277 -0.3919
  641MOL0     H88432   8.107   1.130   5.313  0.0226 -0.5462 -0.8815
  641MOL0     H88433   7.972   1.024   5.353  2.1696 -0.3427  1.1132
  641MOL0     H88434   7.822   1.202   5.261 -0.5108 -1.0947  1.8216
  641MOL0     H88435   7.972   1.294   5.209  2.4556 -0.9614  0.8877
  641MOL0     H88436   8.043   1.320   5.447 -0.7179 -0.6307  2.9201
  641MOL0     H88437   7.909   1.222   5.485 -3.2507  0.6617 -0.9543
  641MOL0     H88438   7.410   0.890   4.951  3.9061 -0.9865 -0.4205
  641MOL0     H88439   7.233   0.954   4.790  1.5511  3.4550  1.1532
  641MOL0     H88440   6.902   0.734   4.539 -0.1747 -0.6988 -0.2205
  641MOL0     H88441   6.709   0.856   4.444 -0.5146  0.1559 -1.2183
  641MOL0     H88442   7.000   2.026   2.969  1.5182  0.2950 -0.5834
  641MOL0     H88443   7.083   2.215   2.861  0.6336 -1.5415  0.7834
  641MOL0     H88444   6.846   2.615   2.572  0.5768  0.6531  1.2207
  641MOL0     H88445   6.893   2.781   2.414  0.3939  0.5641 -0.4192
  641MOL0     H88446   6.991   2.881   2.191  1.9847  1.0500 -3.4462
  641MOL0     H88447   6.992   2.963   2.365  0.5516 -2.5001  1.1254
  641MOL0     H88448   7.214   3.067   2.259  0.8644  1.1145 -0.5696
  641MOL0     H88449   7.064   3.129   2.184 -1.2776  0.0919  4.7541
  641MOL0     H88450   7.224   2.905   2.061  1.0105 -0.9295 -3.2582
  641MOL0     H88451   7.075   2.995   1.995 -1.5702  1.6638  2.4305
  641MOL0     H88452   7.330   3.147   2.045  0.2767 -1.2246 -1.2483
  641MOL0     H88453   7.176   3.171   1.941 -0.1336 -0.0565 -1.5913
  641MOL0     H88454   7.448   2.942   1.709  0.5613  0.2505  0.5855
  641MOL0     H88455   7.295   2.663   2.398 -0.2323 -3.8462 -2.1149
  641MOL0     H88456   7.279   2.427   2.637 -0.1425  0.8699  0.3270
  641MOL0     H88457   7.255   2.332   2.487  0.4627 -0.6218 -2.3845
  641MOL0     H88458   7.374   2.457   2.486 -0.0467 -1.0943  1.5039
  642MOL0     O88459   4.879   8.039   2.746 -0.9880  0.7400 -0.6706
  642MOL0     C88460   4.834   8.062   2.858 -0.0465 -0.2549 -1.0420
  642MOL0     O88461   4.907   8.053   2.971 -0.1591  0.1289 -0.1391
  642MOL0     C88462   5.040   8.042   2.969 -0.4980  0.0180  0.5936
  642MOL0     C88463   5.119   8.134   3.033  0.4355  0.0060 -0.0643
  642MOL0     C88464   5.258   8.115   3.051  0.3240 -0.5019  1.0332
  642MOL0     C88465   5.323   8.012   2.983 -0.4116 -0.5303 -0.2965
  642MOL0     O88466   5.460   8.006   3.002 -0.6321 -0.1006 -0.4439
  642MOL0     C88467   5.540   7.915   2.929 -0.8281  0.3223 -0.4645
  642MOL0     C88468   5.693   7.925   2.952  0.3484 -0.9894 -0.0840
  642MOL0     C88469   5.754   8.055   2.903 -0.1810 -0.2463  0.0227
  642MOL0     C88470   5.896   8.033   2.871 -1.0576  0.3894  0.5724
  642MOL0     C88471   5.954   8.162   2.814 -0.3248 -0.8196  0.3623
  642MOL0     C88472   5.948   8.150   2.666 -0.0179  0.4265  0.4846
  642MOL0     C88473   6.032   8.257   2.590  0.0346  0.3579 -0.2459
  642MOL0     C88474   5.970   8.271   2.445  0.6926 -0.6862  0.4017
  642MOL0     N88475   6.071   8.340   2.359  1.3283 -0.4854 -0.6737
  642MOL0     C88476   6.193   8.299   2.301  0.2608 -0.2673 -0.4634
  642MOL0     C88477   6.229   8.405   2.227  0.2526  0.0005  0.1287
  642MOL0     C88478   6.351   8.416   2.137  0.1051  0.4666 -0.9952
  642MOL0     C88479   6.467   8.485   2.214 -0.4615 -0.5732  0.2485
  642MOL0     C88480   6.555   8.392   2.299 -0.1301  0.0455  0.6561
  642MOL0     C88481   6.677   8.463   2.346  0.9789  0.8326  0.3069
  642MOL0     O88482   6.726   8.560   2.263 -0.1315  0.1498 -0.0971
  642MOL0     C88483   6.859   8.557   2.217  0.0149  0.2443 -0.1171
  642MOL0     C88484   6.878   8.597   2.087 -1.2400 -0.6131  0.2682
  642MOL0     C88485   7.008   8.599   2.021 -0.1400 -0.9171  0.9562
  642MOL0     C88486   7.010   8.652   1.886 -0.8675  0.3893 -0.3127
  642MOL0     C88487   7.128   8.558   2.097 -0.3769  0.8231  0.2558
  642MOL0     C88488   7.267   8.534   2.045  0.4648  0.8142  0.5343
  642MOL0     O88489   7.307   8.581   1.924  0.1172  0.1900 -0.1384
  642MOL0     C88490   7.439   8.545   1.886  1.3933  0.5144 -0.7172
  642MOL0     C88491   7.447   8.501   1.754 -0.0459  0.3714  1.0778
  642MOL0     C88492   7.572   8.469   1.700 -0.2887  0.2130  0.1696
  642MOL0     C88493   7.690   8.507   1.760 -0.1271  0.2860  0.0744
  642MOL0     O88494   7.817   8.497   1.716  0.7611 -0.7409  0.2758
  642MOL0     C88495   7.843   8.366   1.664  0.4303 -0.3504 -0.2277
  642MOL0     C88496   7.987   8.322   1.672  0.4977 -0.0277 -0.0877
  642MOL0     C88497   8.020   8.165   1.672  0.6220 -0.1165  0.9042
  642MOL0     C88498   8.015   8.093   1.805  0.0255  0.4699 -1.2520
  642MOL0     C88499   8.101   7.962   1.798 -1.9568  0.0025 -0.1368
  642MOL0     C88500   8.178   7.948   1.929 -0.7143  0.4272 -0.4634
  642MOL0     C88501   8.266   7.823   1.913 -0.3513 -0.1438 -0.5374
  642MOL0     C88502   8.323   7.769   2.044  0.7578  0.2337 -0.1069
  642MOL0    Cl88503   8.461   7.873   2.081  0.0820  0.3731 -0.0204
  642MOL0     C88504   7.676   8.570   1.885  0.0397 -0.1420  0.2066
  642MOL0     C88505   7.552   8.596   1.946  0.0551  0.0809  0.2280
  642MOL0     O88506   7.340   8.464   2.117  0.1654 -0.0067  0.2508
  642MOL0     C88507   7.105   8.513   2.229 -0.4035 -0.0893 -0.2975
  642MOL0     C88508   6.969   8.507   2.282 -0.0181  0.1244 -0.1440
  642MOL0     N88509   6.137   8.510   2.242 -0.2289  0.3364  0.4821
  642MOL0     N88510   6.040   8.467   2.317 -0.1995 -0.0917 -0.4202
  642MOL0     C88511   5.242   7.923   2.907 -0.1142  0.9358 -0.5343
  642MOL0     C88512   5.106   7.937   2.895  0.1727 -1.2890 -0.0121
  642MOL0     C88513   4.692   8.087   2.885  0.1045  0.7123  0.3945
  642MOL0     C88514   4.649   8.141   3.005  0.5721 -0.3382 -0.6106
  642MOL0     C88515   4.512   8.164   3.045 -0.2013 -1.1266  0.4274
  642MOL0     C88516   4.410   8.105   2.964  0.3746 -0.6163  0.7864
  642MOL0     O88517   4.284   8.110   3.017 -0.2230 -0.3838 -0.3969
  642MOL0     C88518   4.177   8.103   2.931 -0.6473 -1.5224 -0.1341
  642MOL0     C88519   4.058   8.167   3.002  0.4785 -0.2638  0.9427
  642MOL0     C88520   4.028   8.100   3.136  0.2874  0.5525 -1.0172
  642MOL0     C88521   4.016   7.942   3.136  0.1089 -1.1929  0.2640
  642MOL0     C88522   3.880   7.878   3.110  0.5294 -0.8861 -0.7683
  642MOL0     C88523   3.764   7.830   3.097  0.0078  0.4918 -0.9363
  642MOL0     C88524   4.448   8.064   2.833 -0.1125 -0.2225  0.2794
  642MOL0     C88525   4.587   8.046   2.794  0.2187 -0.5864 -0.0588
  642MOL0     C88526   4.605   7.991   2.655 -0.6228  0.2964  0.1786
  642MOL0     H88527   5.068   8.218   3.079 -0.2064 -1.9573  3.1061
  642MOL0     H88528   5.308   8.189   3.112  0.9538 -1.7064  1.9995
  642MOL0     H88529   5.516   7.927   2.823 -1.5179  0.1417 -0.3364
  642MOL0     H88530   5.521   7.815   2.971  0.8971  1.4993  3.6259
  642MOL0     H88531   5.723   7.915   3.057 -4.1071  2.1854  1.7826
  642MOL0     H88532   5.726   7.846   2.883  1.1710  0.2367 -1.1536
  642MOL0     H88533   5.709   8.090   2.810  1.0781  1.2266 -0.0761
  642MOL0     H88534   5.748   8.134   2.979 -1.7331  0.6236 -0.9363
  642MOL0     H88535   5.953   8.005   2.961 -0.4221  0.9597  0.3571
  642MOL0     H88536   5.895   7.946   2.805 -4.2160 -1.8534  3.2173
  642MOL0     H88537   6.059   8.166   2.844 -0.4330  0.9695  0.6095
  642MOL0     H88538   5.900   8.251   2.846  1.0696  0.6014 -1.0904
  642MOL0     H88539   5.977   8.048   2.639 -1.3745  0.2259 -0.3286
  642MOL0     H88540   5.840   8.148   2.646 -0.1317 -2.9735  0.8394
  642MOL0     H88541   6.130   8.209   2.592  0.3864  1.0661  0.4221
  642MOL0     H88542   6.030   8.357   2.634  2.5392  1.4926 -2.3889
  642MOL0     H88543   5.960   8.172   2.401  2.0833  0.0950 -1.8400
  642MOL0     H88544   5.873   8.321   2.451  0.5863 -0.8826  0.3282
  642MOL0     H88545   6.238   8.203   2.324 -0.7684 -0.5905  0.2658
  642MOL0     H88546   6.321   8.481   2.055  1.0763  2.5650  0.2393
  642MOL0     H88547   6.371   8.315   2.099  0.1409  0.0608  0.0464
  642MOL0     H88548   6.523   8.547   2.143 -2.5584  0.8751 -0.2583
  642MOL0     H88549   6.410   8.551   2.282 -2.0289 -1.9994  0.3919
  642MOL0     H88550   6.500   8.353   2.385  0.3098  0.8860  1.3462
  642MOL0     H88551   6.590   8.307   2.240 -0.0166  0.7790 -0.3650
  642MOL0     H88552   6.639   8.515   2.434 -1.7113 -0.5896  0.1038
  642MOL0     H88553   6.750   8.382   2.360 -0.5432 -0.5132  0.7859
  642MOL0     H88554   6.788   8.629   2.035 -0.3307  2.9339  0.6684
  642MOL0     H88555   7.018   8.567   1.818 -0.4027  0.5001 -0.4008
  642MOL0     H88556   7.094   8.722   1.883 -0.9627  0.7349  2.4073
  642MOL0     H88557   6.923   8.717   1.872 -2.0846 -0.9435  0.7586
  642MOL0     H88558   7.365   8.472   1.689  1.5265  4.1196 -3.0574
  642MOL0     H88559   7.577   8.416   1.606 -1.8631  2.7245 -1.4647
  642MOL0     H88560   7.789   8.291   1.722 -1.3281  1.5317  0.7186
  642MOL0     H88561   7.809   8.353   1.561  2.4041 -2.9716 -0.6362
  642MOL0     H88562   8.048   8.362   1.591 -1.0512  2.4859 -0.1187
  642MOL0     H88563   8.025   8.373   1.760  0.0906  1.0064 -0.4955
  642MOL0     H88564   8.122   8.168   1.634  0.2138  3.0143 -0.2242
  642MOL0     H88565   7.948   8.114   1.607  0.0258 -0.8028  2.0492
  642MOL0     H88566   7.912   8.065   1.826  0.7972 -1.3442  0.3989
  642MOL0     H88567   8.052   8.164   1.880  1.3191 -1.0598 -0.3829
  642MOL0     H88568   8.040   7.874   1.777 -1.1334 -1.5074  3.1426
  642MOL0     H88569   8.181   7.979   1.725 -3.5130  0.2990 -1.8271
  642MOL0     H88570   8.105   7.946   2.010 -1.2451  0.8958 -0.9275
  642MOL0     H88571   8.240   8.037   1.942 -0.2742  0.2856 -1.5388
  642MOL0     H88572   8.347   7.850   1.845 -0.7580  0.3444 -0.8392
  642MOL0     H88573   8.210   7.739   1.872 -2.4378  0.8953 -0.0061
  642MOL0     H88574   8.361   7.670   2.017 -1.4147 -0.6679 -0.0206
  642MOL0     H88575   8.260   7.750   2.131 -1.6876 -2.7388 -2.2992
  642MOL0     H88576   7.762   8.608   1.941  1.9597 -1.0913 -1.9342
  642MOL0     H88577   7.541   8.667   2.027  0.3372  2.2079 -1.5117
  642MOL0     H88578   7.180   8.464   2.290 -0.5301  1.3134  1.0395
  642MOL0     H88579   6.945   8.464   2.379 -0.7410 -0.8735 -0.7545
  642MOL0     H88580   5.300   7.845   2.858 -1.1798 -1.9348  2.3753
  642MOL0     H88581   5.051   7.863   2.837 -3.1895 -1.0508  2.5539
  642MOL0     H88582   4.735   8.176   3.062 -0.6727 -0.2120  1.2776
  642MOL0     H88583   4.495   8.211   3.142  0.3472 -2.9494  1.4476
  642MOL0     H88584   4.199   8.163   2.843  3.0523 -4.6105 -1.5981
  642MOL0     H88585   4.162   7.999   2.901  1.1777 -2.5693  2.2535
  642MOL0     H88586   3.967   8.157   2.942  0.0743  0.0786  1.4918
  642MOL0     H88587   4.078   8.274   3.004  1.4936 -0.1664 -3.5404
  642MOL0     H88588   4.112   8.128   3.200 -0.3519  2.0054 -0.7957
  642MOL0     H88589   3.940   8.141   3.186  0.0905 -0.8785 -0.1265
  642MOL0     H88590   4.054   7.911   3.234 -1.2332 -3.5726  0.0985
  642MOL0     H88591   4.076   7.895   3.058 -2.6187 -0.4166 -2.5398
  642MOL0     H88592   3.663   7.798   3.080 -0.8867 -0.0779  3.8282
  642MOL0     H88593   4.372   8.039   2.760  1.8063  1.1239 -2.3557
  642MOL0     H88594   4.518   7.947   2.608 -2.0637  0.5119  2.4605
  642MOL0     H88595   4.651   8.054   2.578 -0.0347 -1.3638 -0.8753
  642MOL0     H88596   4.671   7.904   2.662  0.1626  0.6380 -2.2636
  643MOL0     O88597   7.400   5.684   6.736  0.5139 -0.4988 -0.5422
  643MOL0     C88598   7.503   5.633   6.770  0.5142 -0.6969  0.2343
  643MOL0     O88599   7.510   5.508   6.821  0.1243 -0.4826  1.2516
  643MOL0     C88600   7.390   5.436   6.826 -0.1042  0.2817 -0.2283
  643MOL0     C88601   7.372   5.349   6.727 -0.1155 -0.2179 -0.3302
  643MOL0     C88602   7.254   5.273   6.719 -0.1666 -0.0155  0.0534
  643MOL0     C88603   7.161   5.277   6.823 -0.4826 -0.0565  0.4367
  643MOL0     O88604   7.047   5.198   6.841  0.4677 -0.2215  0.1211
  643MOL0     C88605   7.028   5.069   6.775  0.6454  0.2260 -0.1614
  643MOL0     C88606   7.117   4.975   6.859 -0.0336  0.1485  0.3362
  643MOL0     C88607   7.120   4.834   6.803  0.3396 -0.5535 -0.0789
  643MOL0     C88608   7.184   4.738   6.893 -0.5535  0.3130  0.1393
  643MOL0     C88609   7.177   4.596   6.837 -0.1253 -0.8608  0.2263
  643MOL0     C88610   7.239   4.490   6.918  0.2811 -0.0935 -0.3440
  643MOL0     C88611   7.389   4.518   6.950  0.4048  0.3380  0.4586
  643MOL0     C88612   7.467   4.385   6.974 -0.5422 -0.4274  0.1131
  643MOL0     N88613   7.593   4.405   7.047 -0.3904  0.1686  1.0416
  643MOL0     C88614   7.715   4.449   6.993  0.5213 -0.3710  0.6661
  643MOL0     C88615   7.790   4.469   7.102 -0.5465  0.1576 -0.2598
  643MOL0     C88616   7.924   4.544   7.097  0.0332  0.1472  0.6370
  643MOL0     C88617   8.041   4.465   7.153  0.1235 -0.5167 -0.6928
  643MOL0     C88618   8.181   4.538   7.145 -0.2618 -0.4474  0.3784
  643MOL0     C88619   8.205   4.601   7.008 -0.0676 -0.2410 -1.0698
  643MOL0     O88620   8.344   4.620   6.981 -0.0192  0.0352 -0.2890
  643MOL0     C88621   8.387   4.634   6.847  0.0520  0.2790 -0.5643
  643MOL0     C88622   8.295   4.630   6.736  0.0790 -0.3499 -0.6159
  643MOL0     C88623   8.344   4.653   6.608  0.0600  0.4640 -0.4908
  643MOL0     C88624   8.241   4.615   6.508 -0.1017  0.5044 -0.8149
  643MOL0     C88625   8.476   4.679   6.579  0.8171  0.1598 -0.3073
  643MOL0     C88626   8.542   4.693   6.439 -0.3735 -0.5199 -0.8755
  643MOL0     O88627   8.679   4.681   6.445 -0.5395  0.7320 -0.8682
  643MOL0     C88628   8.750   4.702   6.330  0.4731  0.7306  0.2014
  643MOL0     C88629   8.738   4.812   6.247  0.0108  0.3431 -0.4359
  643MOL0     C88630   8.811   4.816   6.129  0.2179  0.0680  0.6259
  643MOL0     C88631   8.883   4.703   6.074  0.0003 -0.0492 -0.4071
  643MOL0     O88632   8.932   4.704   5.957  0.3828  0.0088  0.1926
  643MOL0     C88633   8.861   4.612   5.871  0.6813 -0.0318  0.8209
  643MOL0     C88634   8.906   4.634   5.727  0.8453  0.4638 -1.1940
  643MOL0     C88635   9.048   4.576   5.687  0.7457  0.8292 -0.2830
  643MOL0     C88636   9.044   4.431   5.660  0.0779  1.1625 -0.0498
  643MOL0     C88637   9.176   4.366   5.629 -0.7509 -0.5636 -0.4893
  643MOL0     C88638   9.286   4.382   5.728  0.3039  0.3421 -0.2156
  643MOL0     C88639   9.403   4.288   5.703  0.1492 -0.6050  0.6112
  643MOL0     C88640   9.510   4.293   5.809 -0.9088 -0.0903  0.0224
  643MOL0    Cl88641   9.633   4.439   5.800  0.4784  0.6150  0.5032
  643MOL0     C88642   8.868   4.581   6.151  0.5706  0.2835  0.1941
  643MOL0     C88643   8.808   4.589   6.278  0.6644 -0.0982 -0.0726
  643MOL0     O88644   8.474   4.717   6.339 -0.0838  0.2116  0.0808
  643MOL0     C88645   8.566   4.693   6.688 -0.4432 -0.5293  0.0765
  643MOL0     C88646   8.517   4.677   6.820 -0.1685  1.3755  0.2065
  643MOL0     N88647   7.722   4.443   7.217 -0.6237  0.3884 -0.1497
  643MOL0     N88648   7.603   4.411   7.180 -0.4198  0.1527 -0.0894
  643MOL0     C88649   7.182   5.380   6.912  0.5236  0.8836 -1.0918
  643MOL0     C88650   7.288   5.462   6.918  0.1245 -0.5637 -0.5325
  643MOL0     C88651   7.626   5.712   6.773  0.1439 -0.4052 -0.1770
  643MOL0     C88652   7.744   5.649   6.794  0.2804 -0.7701 -0.2403
  643MOL0     C88653   7.866   5.721   6.797  0.5303 -0.5714 -0.5663
  643MOL0     C88654   7.873   5.856   6.787  0.1288 -0.8994 -0.7118
  643MOL0     O88655   8.005   5.902   6.795  0.8273  1.1059  0.5780
  643MOL0     C88656   8.033   6.047   6.787  0.0552 -0.4763 -0.4626
  643MOL0     C88657   8.171   6.073   6.857 -0.1699 -0.2379 -0.0607
  643MOL0     C88658   8.288   5.986   6.795  0.6782 -0.4652 -0.5321
  643MOL0     C88659   8.429   6.025   6.863  0.1952 -0.7333 -0.2475
  643MOL0     C88660   8.464   6.166   6.856  1.3160  0.1017  0.2259
  643MOL0     C88661   8.477   6.285   6.843 -0.3127 -1.4588 -1.1218
  643MOL0     C88662   7.759   5.927   6.774  0.4023 -0.1522  0.4525
  643MOL0     C88663   7.636   5.857   6.756  0.2553 -0.2250 -0.3085
  643MOL0     C88664   7.517   5.945   6.747 -0.5049  0.2029 -0.3786
  643MOL0     H88665   7.456   5.341   6.659 -0.7703  4.8442 -2.1596
  643MOL0     H88666   7.248   5.194   6.645  1.2131  2.3066 -2.7827
  643MOL0     H88667   7.062   5.072   6.671 -0.6061  2.3453 -0.5469
  643MOL0     H88668   6.926   5.031   6.772  1.3591 -1.9010  0.5235
  643MOL0     H88669   7.219   5.015   6.857  0.3042 -0.7053 -1.7021
  643MOL0     H88670   7.084   4.974   6.964 -0.2797  0.4245  0.2618
  643MOL0     H88671   7.021   4.791   6.788  0.9484 -2.0607  0.0264
  643MOL0     H88672   7.166   4.831   6.704  3.2163  0.5430  1.1292
  643MOL0     H88673   7.281   4.771   6.931 -0.8798  0.9512  0.4269
  643MOL0     H88674   7.135   4.741   6.991 -1.1689  0.4199 -0.1650
  643MOL0     H88675   7.206   4.596   6.732  0.8892  2.2626  0.4045
  643MOL0     H88676   7.071   4.568   6.827 -0.1421 -1.3332  1.5693
  643MOL0     H88677   7.189   4.466   7.013  4.0386 -0.5590  1.7063
  643MOL0     H88678   7.229   4.399   6.858 -0.0346  0.7043 -1.5412
  643MOL0     H88679   7.396   4.584   7.037 -1.0617  0.6120  0.3908
  643MOL0     H88680   7.435   4.567   6.864 -1.3309  1.5955  0.2002
  643MOL0     H88681   7.402   4.321   7.034 -1.4142  0.1814 -0.1653
  643MOL0     H88682   7.484   4.344   6.874 -0.6588 -0.8227  0.2531
  643MOL0     H88683   7.755   4.448   6.893  2.2715 -1.4807  1.3316
  643MOL0     H88684   7.908   4.639   7.150 -0.8254  0.9701 -1.0264
  643MOL0     H88685   7.936   4.577   6.994 -0.7011  1.0307  0.8242
  643MOL0     H88686   8.019   4.459   7.260  2.6732  1.9922  0.0920
  643MOL0     H88687   8.046   4.370   7.099  0.7185  0.5008 -2.5224
  643MOL0     H88688   8.193   4.613   7.224 -1.3224  0.3644 -0.2019
  643MOL0     H88689   8.252   4.459   7.172 -0.4300 -0.5757  0.4436
  643MOL0     H88690   8.166   4.531   6.933 -0.4779  0.0867 -1.1686
  643MOL0     H88691   8.149   4.695   6.999 -2.3598 -1.5862 -1.9372
  643MOL0     H88692   8.188   4.617   6.749 -0.2365  0.8390 -1.8359
  643MOL0     H88693   8.150   4.670   6.531  0.0902  0.4826  0.0138
  643MOL0     H88694   8.211   4.511   6.521 -0.4011  0.7239  0.3336
  643MOL0     H88695   8.263   4.630   6.401 -0.4079  0.8167 -0.8324
  643MOL0     H88696   8.668   4.890   6.274 -0.5578 -0.7815  1.5252
  643MOL0     H88697   8.805   4.904   6.066 -0.7860 -0.2961  0.2082
  643MOL0     H88698   8.886   4.510   5.901  0.0657 -0.2599  0.5775
  643MOL0     H88699   8.754   4.631   5.889  0.3604 -2.3122  1.7449
  643MOL0     H88700   8.828   4.583   5.669 -0.5384 -0.4601  1.3378
  643MOL0     H88701   8.900   4.740   5.699 -0.7893  0.8563  0.4232
  643MOL0     H88702   9.119   4.600   5.766 -0.7617  1.6615  0.8724
  643MOL0     H88703   9.093   4.634   5.606  0.3918 -2.0010 -2.7210
  643MOL0     H88704   8.983   4.424   5.570 -1.7421 -0.9416  1.2439
  643MOL0     H88705   9.003   4.381   5.748  3.1572 -1.5863  0.0284
  643MOL0     H88706   9.155   4.261   5.609  2.2336 -1.0251 -1.7228
  643MOL0     H88707   9.210   4.407   5.534 -0.1887  0.2866  0.0602
  643MOL0     H88708   9.244   4.355   5.825  0.9717  0.8614  0.2340
  643MOL0     H88709   9.319   4.486   5.739  3.1870 -0.6299  1.2257
  643MOL0     H88710   9.436   4.315   5.603 -1.4635  1.4773  0.5897
  643MOL0     H88711   9.365   4.185   5.704 -1.2448 -0.1218  1.7554
  643MOL0     H88712   9.569   4.203   5.794 -3.3166 -1.5182 -1.4628
  643MOL0     H88713   9.453   4.283   5.902 -0.9342 -2.2839 -0.1977
  643MOL0     H88714   8.903   4.483   6.120  3.7602  0.1837  3.4275
  643MOL0     H88715   8.802   4.496   6.335  2.0772 -1.2917 -1.7770
  643MOL0     H88716   8.663   4.737   6.668 -1.2542  1.7593  0.8222
  643MOL0     H88717   8.585   4.692   6.903  3.9763 -2.2293 -2.0628
  643MOL0     H88718   7.101   5.383   6.985  0.2505 -1.8760 -1.1961
  643MOL0     H88719   7.299   5.540   6.993  0.6257  0.7893 -1.9526
  643MOL0     H88720   7.739   5.542   6.815  2.9589 -1.4510 -2.5004
  643MOL0     H88721   7.953   5.663   6.829  1.3770  0.8529 -0.1624
  643MOL0     H88722   8.038   6.076   6.681 -2.5234 -0.4474 -0.6244
  643MOL0     H88723   7.959   6.117   6.826 -0.0291  1.0204 -3.0574
  643MOL0     H88724   8.169   6.057   6.965  1.0029  1.5913  0.2791
  643MOL0     H88725   8.195   6.180   6.848 -1.3517  0.3008  2.4547
  643MOL0     H88726   8.269   5.880   6.808  0.2220 -0.2127  1.1098
  643MOL0     H88727   8.283   5.999   6.686 -0.1012 -0.3321 -0.4879
  643MOL0     H88728   8.514   5.972   6.819 -0.0642 -0.7812 -0.7074
  643MOL0     H88729   8.423   6.002   6.969  0.1108 -0.4162 -0.1818
  643MOL0     H88730   8.480   6.391   6.832  2.9970 -1.0117  2.1872
  643MOL0     H88731   7.763   6.035   6.772  3.4410 -0.1902 -1.3983
  643MOL0     H88732   7.500   5.992   6.844  0.7505 -0.8047  0.3681
  643MOL0     H88733   7.529   6.034   6.685  1.5320  0.1677 -0.0971
  643MOL0     H88734   7.420   5.906   6.716 -1.0837  0.5160  0.9616
  644MOL0     O88735   2.324   2.300   8.994  0.6105 -0.6295  0.7832
  644MOL0     C88736   2.366   2.413   8.984  0.1345  0.2353  0.3866
  644MOL0     O88737   2.477   2.467   9.050  0.0494  0.2010 -0.1011
  644MOL0     C88738   2.573   2.394   9.115  0.3815 -0.5379 -0.1132
  644MOL0     C88739   2.663   2.468   9.192 -0.1662  1.0579 -0.4775
  644MOL0     C88740   2.782   2.400   9.237  1.8847  0.0698  0.3454
  644MOL0     C88741   2.800   2.263   9.217  0.3516 -0.2015 -0.9146
  644MOL0     O88742   2.908   2.193   9.266  0.5083  0.1945  0.4517
  644MOL0     C88743   2.886   2.129   9.392 -0.6732  0.3864  0.0950
  644MOL0     C88744   2.981   2.190   9.491 -0.7323 -0.3943  1.0511
  644MOL0     C88745   2.968   2.134   9.628  0.4453  0.0716 -0.0226
  644MOL0     C88746   3.088   2.127   9.716  0.6158 -0.0412 -0.6063
  644MOL0     C88747   3.066   2.098   9.868 -0.0946 -1.0828 -0.0390
  644MOL0     C88748   2.990   2.211   9.929  0.1171  0.2276 -0.6770
  644MOL0     C88749   2.950   2.194  10.086  0.1830  0.6029  0.4680
  644MOL0     C88750   3.062   2.239  10.176 -0.2417 -0.4275  0.0510
  644MOL0     N88751   3.121   2.382  10.159  0.6625  0.4491 -0.2866
  644MOL0     C88752   3.246   2.394  10.106  0.1607  0.7219  0.4631
  644MOL0     C88753   3.235   2.506  10.038  0.0158 -0.8161 -0.2203
  644MOL0     C88754   3.328   2.560   9.932 -0.4209  0.2282  0.8621
  644MOL0     C88755   3.443   2.655   9.987 -0.7917 -0.3551  0.7179
  644MOL0     C88756   3.526   2.719   9.875 -0.0987 -0.2902  1.0197
  644MOL0     C88757   3.609   2.616   9.801  0.5502  0.4207  0.5145
  644MOL0     O88758   3.654   2.679   9.680 -0.8277 -0.3298  0.3744
  644MOL0     C88759   3.739   2.608   9.606  0.2775 -0.3434  0.2130
  644MOL0     C88760   3.775   2.472   9.631 -0.5588  1.0508 -0.3840
  644MOL0     C88761   3.859   2.403   9.545 -0.5205  0.3469  0.1804
  644MOL0     C88762   3.918   2.272   9.593 -0.4177 -0.1027 -0.3516
  644MOL0     C88763   3.888   2.464   9.422 -0.8318  0.5646  0.0499
  644MOL0     C88764   3.972   2.393   9.321 -0.4311  0.6049 -0.5633
  644MOL0     O88765   4.068   2.465   9.256  0.3677 -0.1884 -0.2182
  644MOL0     C88766   4.117   2.392   9.158 -0.2242 -1.0087 -0.4471
  644MOL0     C88767   4.249   2.354   9.158  0.1625  0.8426  0.7428
  644MOL0     C88768   4.308   2.296   9.045  0.3664  0.4057 -0.5794
  644MOL0     C88769   4.236   2.280   8.927 -0.4107  0.5599  0.4245
  644MOL0     O88770   4.270   2.221   8.804 -0.4302  0.2557 -0.0172
  644MOL0     C88771   4.402   2.237   8.743 -0.0991 -0.6925 -0.3993
  644MOL0     C88772   4.429   2.145   8.629  0.0546 -0.0627 -0.5689
  644MOL0     C88773   4.343   2.158   8.501 -0.4529 -0.2804 -0.9311
  644MOL0     C88774   4.359   2.289   8.431  0.2863 -0.2855 -0.0668
  644MOL0     C88775   4.467   2.283   8.313 -0.6463  0.2510 -0.3469
  644MOL0     C88776   4.485   2.408   8.224 -0.8527  0.0370 -0.1050
  644MOL0     C88777   4.356   2.478   8.204 -0.0078 -0.3031 -0.1960
  644MOL0     C88778   4.367   2.567   8.083  0.1436 -0.7294 -0.4148
  644MOL0    Cl88779   4.209   2.655   8.063  0.0930  0.0716 -0.2572
  644MOL0     C88780   4.097   2.316   8.931  0.6608  0.2452  0.0203
  644MOL0     C88781   4.039   2.379   9.041 -0.6013 -0.2798 -0.4260
  644MOL0     O88782   3.936   2.273   9.294  0.3247 -0.4500  0.0194
  644MOL0     C88783   3.848   2.593   9.400  0.3508  0.1456  0.4607
  644MOL0     C88784   3.773   2.663   9.490 -0.6779  0.5214  0.2301
  644MOL0     N88785   3.110   2.560  10.054  1.1242  0.1999 -0.1495
  644MOL0     N88786   3.040   2.484  10.121  0.3559  0.7188 -0.8775
  644MOL0     C88787   2.713   2.193   9.138  0.3225  0.7191 -1.0559
  644MOL0     C88788   2.600   2.254   9.090 -0.2923  0.0558 -0.0440
  644MOL0     C88789   2.285   2.510   8.904 -0.1668 -0.2465  0.4958
  644MOL0     C88790   2.304   2.647   8.940 -0.2459  0.5627  1.2304
  644MOL0     C88791   2.240   2.754   8.881 -0.2330 -0.4720 -0.3429
  644MOL0     C88792   2.153   2.729   8.769 -0.5231  0.2463  0.0448
  644MOL0     O88793   2.082   2.821   8.696 -0.1235  1.0366  0.0355
  644MOL0     C88794   2.112   2.958   8.718  0.5231  0.5474  0.2741
  644MOL0     C88795   2.045   3.053   8.619 -0.2621  0.4960 -0.5602
  644MOL0     C88796   2.092   3.020   8.474  0.0565  0.1140  0.2292
  644MOL0     C88797   2.242   3.022   8.446  0.7546  0.1550 -0.2231
  644MOL0     C88798   2.313   3.148   8.475  0.5881 -0.4663  0.2452
  644MOL0     C88799   2.364   3.254   8.490  0.2129 -0.0766 -0.4390
  644MOL0     C88800   2.134   2.595   8.735 -0.6502 -0.4876  0.3098
  644MOL0     C88801   2.197   2.491   8.797 -0.4801  0.2235  0.2067
  644MOL0     C88802   2.182   2.354   8.741 -0.2423 -0.8485  0.0923
  644MOL0     H88803   2.635   2.565   9.232 -1.0705  0.5913  0.0484
  644MOL0     H88804   2.850   2.458   9.299  0.6105  1.3292  0.6312
  644MOL0     H88805   2.914   2.023   9.383  0.2473  0.6604 -0.4783
  644MOL0     H88806   2.783   2.131   9.428 -0.4797 -2.9332  1.1397
  644MOL0     H88807   3.087   2.179   9.465 -0.6942  0.4340  0.8175
  644MOL0     H88808   2.982   2.299   9.496 -1.9751 -0.4323  2.5196
  644MOL0     H88809   2.884   2.190   9.672  1.9478  3.4295 -1.1730
  644MOL0     H88810   2.930   2.031   9.622 -0.5753  0.4582 -0.5304
  644MOL0     H88811   3.146   2.041   9.681  1.0089 -0.7354  1.5994
  644MOL0     H88812   3.140   2.223   9.708 -0.4430  0.4274 -2.6908
  644MOL0     H88813   3.167   2.096   9.911  0.3096 -0.4165 -0.9258
  644MOL0     H88814   3.022   1.998   9.880 -0.8247 -0.6855  0.6923
  644MOL0     H88815   3.038   2.308   9.913  1.2524 -0.6989 -3.4376
  644MOL0     H88816   2.898   2.228   9.872 -0.9420  0.3647  1.0082
  644MOL0     H88817   2.934   2.089  10.110  3.8868 -0.1941  0.1345
  644MOL0     H88818   2.867   2.257  10.118 -2.1278 -1.1263 -1.7836
  644MOL0     H88819   3.017   2.231  10.276  0.3125 -0.3874  0.3083
  644MOL0     H88820   3.132   2.155  10.176 -0.9813 -1.0577  0.8651
  644MOL0     H88821   3.322   2.318  10.093 -1.0590 -0.2412 -1.7958
  644MOL0     H88822   3.266   2.618   9.864 -0.2130 -0.6059 -0.0645
  644MOL0     H88823   3.363   2.470   9.881  0.0986  0.4733  0.7836
  644MOL0     H88824   3.397   2.731  10.051 -1.0951  0.8543 -0.8607
  644MOL0     H88825   3.515   2.598  10.045 -1.2759 -0.4009  1.2769
  644MOL0     H88826   3.472   2.777   9.799  0.0545  0.6382  1.6148
  644MOL0     H88827   3.595   2.788   9.923 -0.9486  1.0134  0.4464
  644MOL0     H88828   3.691   2.574   9.860  0.6349 -2.4120 -1.4307
  644MOL0     H88829   3.553   2.529   9.766  0.8622  0.8749 -1.2343
  644MOL0     H88830   3.741   2.427   9.724 -3.0487  0.6747 -1.3842
  644MOL0     H88831   3.844   2.191   9.585 -0.7633  0.0174  1.3289
  644MOL0     H88832   3.941   2.270   9.700  1.8724 -1.0925 -0.7936
  644MOL0     H88833   4.012   2.249   9.542  0.9861  1.1156  1.5767
  644MOL0     H88834   4.312   2.366   9.246  1.5497 -0.9877  0.0755
  644MOL0     H88835   4.413   2.270   9.052  0.2793  0.1914  0.0768
  644MOL0     H88836   4.405   2.339   8.702  1.4883 -1.0248 -1.1745
  644MOL0     H88837   4.487   2.235   8.812 -0.3307  2.8777  0.1690
  644MOL0     H88838   4.530   2.174   8.599  0.2233 -0.3547 -0.2860
  644MOL0     H88839   4.421   2.046   8.675  0.3291  1.4775  3.2348
  644MOL0     H88840   4.242   2.141   8.539  0.5101  1.9055  3.2559
  644MOL0     H88841   4.367   2.071   8.439 -2.1133 -2.2930  1.0815
  644MOL0     H88842   4.385   2.372   8.498  0.6937 -0.3509 -0.1427
  644MOL0     H88843   4.264   2.315   8.383  0.4390 -0.3391 -0.4021
  644MOL0     H88844   4.561   2.262   8.364 -0.8799 -0.6695 -0.2795
  644MOL0     H88845   4.452   2.189   8.259 -0.1380 -0.3662  0.5559
  644MOL0     H88846   4.530   2.380   8.128 -1.2744  0.1293 -0.3327
  644MOL0     H88847   4.561   2.471   8.271 -0.8043  1.7191 -2.2465
  644MOL0     H88848   4.349   2.540   8.293  3.2260 -1.9068  1.3386
  644MOL0     H88849   4.277   2.404   8.182  1.1145 -1.7186  0.3821
  644MOL0     H88850   4.387   2.501   7.998  0.8463  1.2728 -1.8739
  644MOL0     H88851   4.451   2.636   8.090  1.1912 -1.9968 -0.0574
  644MOL0     H88852   4.042   2.303   8.838  0.1112  4.7621 -0.4991
  644MOL0     H88853   3.933   2.400   9.027 -0.8245  0.6685  2.1447
  644MOL0     H88854   3.858   2.641   9.303  0.7739 -0.2944  0.2864
  644MOL0     H88855   3.733   2.760   9.460  1.8463  1.0068 -1.8938
  644MOL0     H88856   2.726   2.086   9.128  0.5435 -0.0814  4.5744
  644MOL0     H88857   2.526   2.202   9.031  1.9345 -2.1132 -1.1573
  644MOL0     H88858   2.375   2.675   9.017  2.4088  0.2998 -0.9906
  644MOL0     H88859   2.255   2.853   8.922 -0.7458 -0.4042 -0.3137
  644MOL0     H88860   2.065   2.986   8.813 -2.4055 -2.2419 -0.1604
  644MOL0     H88861   2.219   2.979   8.713  1.0895 -2.2493 -1.2161
  644MOL0     H88862   2.068   3.158   8.635 -1.1597  0.3108  2.4454
  644MOL0     H88863   1.939   3.029   8.629  0.6318 -4.1678  0.0182
  644MOL0     H88864   2.057   2.919   8.450  3.1237 -1.0634  0.2592
  644MOL0     H88865   2.045   3.087   8.402  0.9792 -0.6895 -1.1715
  644MOL0     H88866   2.260   2.990   8.343  1.0251  0.2888 -0.2165
  644MOL0     H88867   2.298   2.953   8.510 -0.3456  1.5498  2.3720
  644MOL0     H88868   2.424   3.334   8.529  1.1503 -0.6349 -0.6958
  644MOL0     H88869   2.081   2.575   8.642  0.6755 -2.7726 -0.0366
  644MOL0     H88870   2.273   2.312   8.697 -1.3920 -3.3134 -0.0907
  644MOL0     H88871   2.136   2.290   8.817 -1.6690 -0.2732 -0.2588
  644MOL0     H88872   2.104   2.356   8.665  1.1130  0.7563 -1.3504
  645MOL0     O88873   0.896   2.583   1.360 -0.5480 -0.6128 -0.2343
  645MOL0     C88874   0.844   2.574   1.467 -0.7096 -0.1608  0.0773
  645MOL0     O88875   0.914   2.565   1.580 -0.1361 -0.5050  0.3260
  645MOL0     C88876   1.047   2.548   1.566 -0.8956  0.4205 -0.9756
  645MOL0     C88877   1.099   2.416   1.588 -0.7743 -0.2373  0.1869
  645MOL0     C88878   1.238   2.395   1.593 -0.3053  0.0452  1.1028
  645MOL0     C88879   1.330   2.509   1.571  0.3706  0.0946 -0.2300
  645MOL0     O88880   1.467   2.505   1.589 -0.0431 -0.3926  0.9167
  645MOL0     C88881   1.527   2.377   1.567 -0.1396 -0.0425 -0.0921
  645MOL0     C88882   1.677   2.377   1.562  0.2601 -0.2268  0.4639
  645MOL0     C88883   1.736   2.438   1.679 -1.3078  0.1275  0.0308
  645MOL0     C88884   1.893   2.451   1.655  0.3748 -0.4508 -0.3253
  645MOL0     C88885   1.977   2.326   1.693  0.1217  0.3936  0.2954
  645MOL0     C88886   1.909   2.219   1.794  0.1104 -0.6136 -0.0556
  645MOL0     C88887   2.025   2.160   1.871  0.6533  0.4053 -0.4382
  645MOL0     C88888   2.111   2.076   1.787  0.1048 -0.0753 -0.3079
  645MOL0     N88889   2.187   1.967   1.851 -0.7824 -0.3565  0.3165
  645MOL0     C88890   2.312   1.984   1.900 -0.3560 -0.5858 -0.0384
  645MOL0     C88891   2.348   1.860   1.943  0.0464  0.0666  1.1837
  645MOL0     C88892   2.466   1.816   2.020 -1.4051  1.3949  0.5241
  645MOL0     C88893   2.551   1.728   1.935 -0.3638 -0.5091  0.1584
  645MOL0     C88894   2.667   1.658   1.999 -0.4452 -0.2046  0.3899
  645MOL0     C88895   2.749   1.572   1.893  1.2406 -0.8029 -0.9316
  645MOL0     O88896   2.833   1.640   1.798 -0.1255  0.1646 -0.4419
  645MOL0     C88897   2.965   1.668   1.827 -0.8540  0.3350  0.1578
  645MOL0     C88898   3.037   1.613   1.936  0.1036  0.1292  0.5521
  645MOL0     C88899   3.172   1.623   1.940 -0.0749 -0.3512 -0.1655
  645MOL0     C88900   3.253   1.565   2.054  0.4783 -0.1321 -0.7762
  645MOL0     C88901   3.238   1.677   1.827 -0.4015  0.2576  0.0380
  645MOL0     C88902   3.379   1.684   1.811 -0.7180  0.0222  0.4363
  645MOL0     O88903   3.422   1.805   1.766  0.4597  0.1165  0.3481
  645MOL0     C88904   3.558   1.822   1.740 -0.8559 -0.7910  0.1764
  645MOL0     C88905   3.593   1.872   1.613 -0.0482 -0.7378 -0.5344
  645MOL0     C88906   3.724   1.906   1.576 -0.7401 -0.0828  0.8682
  645MOL0     C88907   3.823   1.878   1.675  0.4046 -0.3248 -0.6299
  645MOL0     O88908   3.956   1.891   1.648  0.0295  0.4154 -0.0235
  645MOL0     C88909   4.034   1.769   1.669 -0.7513  0.3810 -0.0703
  645MOL0     C88910   4.178   1.809   1.640  0.3346  0.2275  0.1179
  645MOL0     C88911   4.243   1.913   1.731 -0.2539  0.1201  0.0996
  645MOL0     C88912   4.393   1.903   1.730  0.6867 -0.5335 -0.3696
  645MOL0     C88913   4.454   2.031   1.796 -0.0395  0.2071  0.1250
  645MOL0     C88914   4.608   2.060   1.798  0.5153  0.1873  0.7345
  645MOL0     C88915   4.686   1.941   1.857  0.2509 -0.7045  0.7021
  645MOL0     C88916   4.821   1.925   1.776 -0.5639 -0.5240 -0.0504
  645MOL0    Cl88917   4.932   1.817   1.862  0.5604  0.1414 -0.2778
  645MOL0     C88918   3.782   1.834   1.801  0.7498 -0.4071 -0.4786
  645MOL0     C88919   3.652   1.815   1.838  0.0740 -0.4088  0.3080
  645MOL0     O88920   3.450   1.590   1.838 -0.2960  0.0368  0.1116
  645MOL0     C88921   3.168   1.732   1.724  0.4989  0.2258 -0.3206
  645MOL0     C88922   3.033   1.724   1.720 -0.3278 -0.7682 -0.3907
  645MOL0     N88923   2.253   1.766   1.898 -0.2261  0.0342 -0.0127
  645MOL0     N88924   2.159   1.833   1.839 -0.5930 -0.6403  1.3464
  645MOL0     C88925   1.278   2.639   1.548  0.1739  1.0527 -0.1094
  645MOL0     C88926   1.137   2.660   1.554 -0.6911  0.3005  0.9475
  645MOL0     C88927   0.700   2.568   1.480  0.4050  0.2634  1.1774
  645MOL0     C88928   0.647   2.625   1.597 -0.0388  0.7506 -0.4190
  645MOL0     C88929   0.512   2.628   1.614  1.2043  0.2486  0.2170
  645MOL0     C88930   0.431   2.581   1.509 -0.8667  0.0675  0.4761
  645MOL0     O88931   0.294   2.577   1.515  1.1751  0.0811  0.5915
  645MOL0     C88932   0.223   2.665   1.610 -0.1227  0.6609  0.5979
  645MOL0     C88933   0.232   2.817   1.586  0.4180 -0.8862 -0.9813
  645MOL0     C88934   0.124   2.894   1.674  0.4140  0.0053  0.5619
  645MOL0     C88935   0.110   3.046   1.645  0.2399  0.0686  0.0284
  645MOL0     C88936   0.027   3.060   1.525  1.0437  0.4315 -0.7129
  645MOL0     C88937  -0.043   3.063   1.426  0.8937 -0.3947 -0.2120
  645MOL0     C88938   0.480   2.530   1.387 -0.2737 -0.3759  0.4362
  645MOL0     C88939   0.615   2.524   1.375  0.1517  0.0313 -0.0592
  645MOL0     C88940   0.648   2.445   1.251 -1.0931 -0.0503 -0.1381
  645MOL0     H88941   1.031   2.332   1.599 -0.0796 -1.1318 -1.8253
  645MOL0     H88942   1.271   2.293   1.606 -1.2440 -0.2464  1.2511
  645MOL0     H88943   1.483   2.344   1.473 -0.1941  1.8224 -0.7685
  645MOL0     H88944   1.498   2.316   1.653 -0.8070  1.6160  0.9145
  645MOL0     H88945   1.708   2.273   1.551 -0.1956 -0.5454  1.9885
  645MOL0     H88946   1.698   2.426   1.467 -0.5375  2.7659  1.6984
  645MOL0     H88947   1.690   2.535   1.695 -0.1982  0.4617  1.3429
  645MOL0     H88948   1.714   2.381   1.770 -0.3672  2.7036  1.9733
  645MOL0     H88949   1.918   2.492   1.556  2.2183  5.0037  2.0372
  645MOL0     H88950   1.927   2.532   1.719  0.7381  0.3053 -1.4349
  645MOL0     H88951   2.074   2.360   1.731 -0.0295 -0.0768  1.1181
  645MOL0     H88952   1.993   2.267   1.601 -0.3703 -0.9961  1.0681
  645MOL0     H88953   1.849   2.264   1.873  2.3106 -0.3775  1.5946
  645MOL0     H88954   1.856   2.140   1.741 -0.2656  0.9340 -2.0980
  645MOL0     H88955   1.986   2.086   1.940 -1.4056  0.3440 -1.6070
  645MOL0     H88956   2.083   2.237   1.923  1.9970 -0.9595  0.1566
  645MOL0     H88957   2.044   2.032   1.713  1.5899 -1.0393 -1.1422
  645MOL0     H88958   2.185   2.137   1.734  3.0220 -1.7631  1.5529
  645MOL0     H88959   2.353   2.083   1.913 -1.4001 -0.1866  0.3449
  645MOL0     H88960   2.439   1.768   2.115 -0.9616  4.0063  2.0838
  645MOL0     H88961   2.527   1.903   2.045 -2.2826  2.2148 -0.1099
  645MOL0     H88962   2.493   1.648   1.887 -0.5916 -0.7189  0.7678
  645MOL0     H88963   2.596   1.793   1.860 -0.0506 -0.0914  0.7000
  645MOL0     H88964   2.735   1.734   2.038 -2.0083 -0.2364  3.4986
  645MOL0     H88965   2.629   1.600   2.084 -0.6979 -2.2414 -1.0302
  645MOL0     H88966   2.808   1.504   1.956  0.3735 -1.8063 -1.1709
  645MOL0     H88967   2.674   1.512   1.841 -0.0059 -0.7364  0.6947
  645MOL0     H88968   2.987   1.577   2.025  3.6885 -1.5433  2.1114
  645MOL0     H88969   3.320   1.638   2.100  0.3374 -0.3879 -0.1506
  645MOL0     H88970   3.312   1.483   2.011 -0.7456 -2.1084  1.1089
  645MOL0     H88971   3.191   1.533   2.138  2.2835 -1.0576  0.2543
  645MOL0     H88972   3.517   1.884   1.536 -1.6969  1.4656  1.3035
  645MOL0     H88973   3.755   1.930   1.475  3.1113  1.1529  2.1734
  645MOL0     H88974   4.018   1.741   1.774 -1.9972 -0.1944 -0.3850
  645MOL0     H88975   4.004   1.684   1.607 -0.2477 -0.7912  1.2224
  645MOL0     H88976   4.238   1.717   1.641  1.8191  1.1476 -0.9683
  645MOL0     H88977   4.183   1.843   1.536  2.1487 -4.7383 -1.7432
  645MOL0     H88978   4.217   1.898   1.837  2.5067 -1.6096  0.6432
  645MOL0     H88979   4.198   2.005   1.694 -2.2407 -1.1743 -0.8931
  645MOL0     H88980   4.411   1.890   1.623 -1.0372  0.9114 -0.8735
  645MOL0     H88981   4.407   1.810   1.786  0.5918 -1.4641 -1.8420
  645MOL0     H88982   4.412   2.121   1.750  3.6891  3.5417  2.6073
  645MOL0     H88983   4.418   2.049   1.898 -1.5285  3.3631 -0.7934
  645MOL0     H88984   4.619   2.154   1.852 -2.8806 -0.6516  3.2447
  645MOL0     H88985   4.639   2.071   1.693 -3.3387 -1.7530 -0.8154
  645MOL0     H88986   4.625   1.850   1.855  0.4729 -0.8478 -0.1346
  645MOL0     H88987   4.704   1.956   1.964 -2.9733  2.3136  0.9847
  645MOL0     H88988   4.866   2.024   1.770 -5.3515  1.9773 -0.1098
  645MOL0     H88989   4.802   1.905   1.670 -2.7800 -1.0402  0.3862
  645MOL0     H88990   3.849   1.832   1.886  1.3108  1.1322 -0.8496
  645MOL0     H88991   3.615   1.791   1.937  0.0085 -0.9516  0.1533
  645MOL0     H88992   3.224   1.772   1.640  0.3169  0.5235 -0.3033
  645MOL0     H88993   2.980   1.770   1.638  0.8528  0.0098 -0.7399
  645MOL0     H88994   1.354   2.712   1.522 -0.6775  1.5605 -1.2771
  645MOL0     H88995   1.082   2.753   1.543 -0.7638  0.0588 -1.2865
  645MOL0     H88996   0.715   2.669   1.670 -0.8642  0.5787  0.4851
  645MOL0     H88997   0.476   2.664   1.710  2.2591 -3.4945  2.2214
  645MOL0     H88998   0.119   2.639   1.590  0.0723  1.6455 -2.1370
  645MOL0     H88999   0.249   2.628   1.710  0.0533  0.4642  0.4822
  645MOL0     H89000   0.203   2.827   1.481 -0.0510 -0.4418 -0.8127
  645MOL0     H89001   0.331   2.858   1.608  0.9429 -2.6562  0.1360
  645MOL0     H89002   0.027   2.855   1.641  0.5795  0.8396 -1.0113
  645MOL0     H89003   0.134   2.882   1.782  1.0298 -0.3943  0.4651
  645MOL0     H89004   0.205   3.098   1.644 -0.6214  1.6913 -0.0816
  645MOL0     H89005   0.051   3.098   1.721 -1.2649 -0.1731 -0.9225
  645MOL0     H89006  -0.108   3.049   1.342  0.2567 -3.9390  0.7334
  645MOL0     H89007   0.411   2.501   1.308  0.5045  0.4385 -0.5752
  645MOL0     H89008   0.611   2.343   1.252 -1.2231  0.0015  0.5426
  645MOL0     H89009   0.603   2.487   1.160  0.8920  0.5209 -0.9179
  645MOL0     H89010   0.756   2.443   1.238 -1.2629 -0.0736 -1.8356
  646MOL0     O89011  11.403   1.737   6.197 -0.1908 -0.5638  0.2619
  646MOL0     C89012  11.350   1.738   6.084 -0.4458  0.0691  0.2683
  646MOL0     O89013  11.350   1.631   6.001  0.4384 -0.0110  0.6106
  646MOL0     C89014  11.396   1.502   6.043 -0.5991 -0.7100 -1.3582
  646MOL0     C89015  11.304   1.407   6.106 -1.0326 -1.1788  0.7197
  646MOL0     C89016  11.342   1.279   6.140 -0.0442  0.5258  0.1477
  646MOL0     C89017  11.482   1.240   6.120  0.2847 -0.0906 -0.5371
  646MOL0     O89018  11.532   1.114   6.140  0.0398  0.2163  0.9808
  646MOL0     C89019  11.525   1.066   6.272 -0.2012 -0.2930  0.8179
  646MOL0     C89020  11.624   1.154   6.362  1.0343 -0.3887 -0.1457
  646MOL0     C89021  11.761   1.159   6.306  0.1656 -0.3430 -0.4004
  646MOL0     C89022  11.870   1.234   6.398 -0.9379 -0.8233 -0.3119
  646MOL0     C89023  11.833   1.379   6.434  0.3672 -0.0123 -0.2911
  646MOL0     C89024  11.823   1.475   6.318  0.9029  0.2253 -1.0753
  646MOL0     C89025  11.815   1.630   6.357  0.9650  0.1615 -0.5709
  646MOL0     C89026  11.676   1.661   6.433 -0.6111  0.5060  0.4248
  646MOL0     N89027  11.654   1.790   6.496  0.0203 -0.3722 -0.0345
  646MOL0     C89028  11.614   1.903   6.431  0.7465  0.6833 -0.5042
  646MOL0     C89029  11.619   2.001   6.528  0.0251 -0.2836 -0.4405
  646MOL0     C89030  11.570   2.144   6.504  0.4570  0.3361  0.3288
  646MOL0     C89031  11.665   2.237   6.422  0.3140  0.0565  0.0306
  646MOL0     C89032  11.809   2.251   6.476  0.7302  0.1906  0.8320
  646MOL0     C89033  11.826   2.306   6.614 -0.0967 -0.3577  0.7661
  646MOL0     O89034  11.830   2.449   6.603 -1.0353 -0.2550 -0.1401
  646MOL0     C89035  11.824   2.497   6.733  0.6435 -0.0376 -0.7481
  646MOL0     C89036  11.693   2.499   6.791 -0.8837 -0.5498 -0.4371
  646MOL0     C89037  11.680   2.542   6.921  0.4575  0.5255  1.2927
  646MOL0     C89038  11.546   2.538   6.987  0.4409  0.1337 -0.2320
  646MOL0     C89039  11.782   2.612   6.986 -0.3965 -0.0406  1.1360
  646MOL0     C89040  11.782   2.662   7.128 -0.3104 -0.3769  0.0007
  646MOL0     O89041  11.911   2.657   7.190 -0.1331  0.0964 -0.0931
  646MOL0     C89042  11.937   2.692   7.320 -0.5250 -0.3440 -0.4873
  646MOL0     C89043  12.069   2.742   7.344  0.0033  0.6040  0.0411
  646MOL0     C89044  12.108   2.770   7.474  0.6036 -0.5093  0.0653
  646MOL0     C89045  12.025   2.746   7.575 -0.2145  0.0013 -0.1183
  646MOL0     O89046  12.080   2.785   7.695 -0.2229  0.1737 -0.3119
  646MOL0     C89047  11.996   2.801   7.812 -0.1684 -0.9477 -0.0365
  646MOL0     C89048  11.919   2.931   7.812  0.4468  1.2079 -0.6206
  646MOL0     C89049  12.007   3.055   7.861 -0.4255 -0.6727  0.6103
  646MOL0     C89050  11.949   3.183   7.805  0.0164  1.1180  0.6368
  646MOL0     C89051  12.032   3.311   7.831 -0.0915  0.2252 -0.2117
  646MOL0     C89052  11.954   3.439   7.802  0.2776 -0.3831  0.5859
  646MOL0     C89053  11.914   3.450   7.661 -0.2867  0.6000 -0.0747
  646MOL0     C89054  11.925   3.592   7.609 -0.4489 -0.6310  0.6295
  646MOL0    Cl89055  11.931   3.582   7.433 -0.2742 -0.2928  0.0687
  646MOL0     C89056  11.903   2.680   7.553 -0.3427  0.3608  0.8620
  646MOL0     C89057  11.854   2.665   7.433  0.4424 -0.1602 -0.2654
  646MOL0     O89058  11.681   2.712   7.181 -0.4860 -0.3488 -0.6452
  646MOL0     C89059  11.911   2.617   6.915 -0.3074  0.0510 -0.1789
  646MOL0     C89060  11.928   2.562   6.788  0.1717 -0.1705  1.3695
  646MOL0     N89061  11.656   1.940   6.650 -0.5553 -1.0530  0.5208
  646MOL0     N89062  11.664   1.812   6.628  0.8831  0.1869 -0.2014
  646MOL0     C89063  11.567   1.329   6.052 -0.9292 -0.0256  0.4850
  646MOL0     C89064  11.525   1.455   6.016  0.2168 -1.1783  1.0325
  646MOL0     C89065  11.316   1.871   6.015  0.4654  0.1646  0.3065
  646MOL0     C89066  11.377   1.892   5.890  1.1620  0.9545  0.0627
  646MOL0     C89067  11.367   2.010   5.824 -0.0863 -0.3556 -0.2115
  646MOL0     C89068  11.294   2.116   5.885 -0.1160 -0.4174  0.4494
  646MOL0     O89069  11.274   2.230   5.807  0.0557  0.2421  0.0970
  646MOL0     C89070  11.181   2.208   5.707  0.5513  0.6725  0.4915
  646MOL0     C89071  11.038   2.255   5.751  0.6612  0.0579 -0.0849
  646MOL0     C89072  11.044   2.401   5.794 -0.4499 -0.7572 -0.2759
  646MOL0     C89073  10.907   2.474   5.813  0.3847  1.2148 -0.3395
  646MOL0     C89074  10.906   2.612   5.762  0.6342  0.0591 -0.7340
  646MOL0     C89075  10.902   2.720   5.714 -0.8049 -0.4848 -0.3991
  646MOL0     C89076  11.234   2.103   6.011 -0.3032  0.1237 -0.0147
  646MOL0     C89077  11.248   1.979   6.079  0.7239 -0.2706 -0.1561
  646MOL0     C89078  11.188   1.969   6.219  0.5098 -0.2719  0.1953
  646MOL0     H89079  11.208   1.445   6.140 -0.5482  1.4991 -0.6443
  646MOL0     H89080  11.274   1.213   6.193  0.5046 -0.9975 -0.9807
  646MOL0     H89081  11.572   0.968   6.269 -2.8330 -1.6564 -2.4758
  646MOL0     H89082  11.426   1.055   6.317  1.0414 -2.4808  3.2962
  646MOL0     H89083  11.573   1.250   6.376  0.2916 -0.8097  0.0715
  646MOL0     H89084  11.632   1.114   6.464  0.4422 -1.4065 -0.4826
  646MOL0     H89085  11.804   1.059   6.292  0.7615 -0.2933  0.9257
  646MOL0     H89086  11.747   1.213   6.212 -0.9256 -1.3768 -0.8547
  646MOL0     H89087  11.878   1.188   6.497  2.5779  0.7594  0.3108
  646MOL0     H89088  11.968   1.228   6.350  0.7241  1.2274  2.4544
  646MOL0     H89089  11.909   1.428   6.495 -0.8278  2.4332 -0.6151
  646MOL0     H89090  11.732   1.379   6.477 -1.1411 -1.0020 -3.4555
  646MOL0     H89091  11.915   1.470   6.259  3.1418 -0.3813  2.2136
  646MOL0     H89092  11.736   1.450   6.256 -0.8732  4.1594 -0.4699
  646MOL0     H89093  11.828   1.699   6.273  1.1221 -0.1070 -0.7682
  646MOL0     H89094  11.896   1.651   6.427 -0.9117  1.3360  1.3529
  646MOL0     H89095  11.591   1.651   6.365 -1.6039  1.7936  1.4462
  646MOL0     H89096  11.653   1.575   6.497 -1.8167 -0.9451 -1.8348
  646MOL0     H89097  11.570   1.925   6.334 -2.6066 -1.1266  0.4525
  646MOL0     H89098  11.547   2.191   6.600  4.4672  0.3675  1.4559
  646MOL0     H89099  11.476   2.146   6.448  1.9957  0.9323 -2.3965
  646MOL0     H89100  11.679   2.188   6.325 -0.8042 -2.5773  1.1154
  646MOL0     H89101  11.623   2.337   6.407 -1.8411 -1.1115 -2.3988
  646MOL0     H89102  11.850   2.150   6.476 -3.1390 -1.5715 -0.6860
  646MOL0     H89103  11.873   2.305   6.405  1.2366 -1.1630  0.2340
  646MOL0     H89104  11.749   2.266   6.680  2.4413 -3.4970  2.0632
  646MOL0     H89105  11.917   2.266   6.660 -1.1991  1.4043  4.9079
  646MOL0     H89106  11.599   2.465   6.750 -1.4268 -2.0144  1.8455
  646MOL0     H89107  11.498   2.449   6.946 -3.2048  2.5032 -1.6175
  646MOL0     H89108  11.486   2.627   6.966  1.3793  1.0903  0.9041
  646MOL0     H89109  11.541   2.520   7.095  0.3695 -2.2528 -0.5880
  646MOL0     H89110  12.125   2.765   7.253 -0.1893  0.3272 -0.1504
  646MOL0     H89111  12.195   2.831   7.493 -1.7269  3.0029  0.4834
  646MOL0     H89112  11.929   2.717   7.831 -0.5667 -1.0330 -1.6626
  646MOL0     H89113  12.067   2.809   7.895 -0.6559 -0.8349  0.3725
  646MOL0     H89114  11.890   2.953   7.709  0.4134  0.2203 -0.8288
  646MOL0     H89115  11.833   2.914   7.877  0.9941  2.7339  0.5802
  646MOL0     H89116  12.106   3.040   7.819  0.4329 -1.5444  2.7550
  646MOL0     H89117  11.998   3.055   7.970 -1.2306 -0.6844  0.5499
  646MOL0     H89118  11.854   3.192   7.858  0.1945  0.3340  1.1091
  646MOL0     H89119  11.934   3.161   7.699 -2.4490 -0.2197  1.1977
  646MOL0     H89120  12.064   3.318   7.936  0.0165 -0.7636 -0.1664
  646MOL0     H89121  12.128   3.309   7.779  0.3483 -0.3108  0.5917
  646MOL0     H89122  12.010   3.530   7.826 -0.0480  0.1291 -0.5136
  646MOL0     H89123  11.874   3.429   7.876  0.7585  2.7803  1.6887
  646MOL0     H89124  11.810   3.415   7.666  0.0162 -0.7454 -1.8790
  646MOL0     H89125  11.981   3.382   7.608  1.3968  2.0304  0.1193
  646MOL0     H89126  12.013   3.642   7.648 -0.8032 -0.2425  0.9426
  646MOL0     H89127  11.834   3.645   7.640  0.0876 -0.3057  1.6619
  646MOL0     H89128  11.839   2.634   7.627 -0.8145  1.4653  1.1561
  646MOL0     H89129  11.769   2.597   7.429  0.6101 -0.3305 -1.2382
  646MOL0     H89130  11.980   2.687   6.962 -0.4498  1.2564 -1.6846
  646MOL0     H89131  12.015   2.571   6.724  0.3192 -2.0074  1.2570
  646MOL0     H89132  11.670   1.300   6.033 -0.6546  1.6859 -0.9677
  646MOL0     H89133  11.589   1.526   5.964 -0.8247 -0.6901  0.3908
  646MOL0     H89134  11.439   1.813   5.850 -0.9112 -0.1809 -1.0743
  646MOL0     H89135  11.417   2.029   5.729  0.0884 -0.6676 -0.1796
  646MOL0     H89136  11.213   2.274   5.627  3.5300  1.8210  2.4425
  646MOL0     H89137  11.177   2.104   5.673 -1.9567 -0.1575  2.8589
  646MOL0     H89138  11.001   2.193   5.834  0.1811 -1.2601 -1.2393
  646MOL0     H89139  10.965   2.245   5.670  0.2694  0.7584  0.1781
  646MOL0     H89140  11.113   2.412   5.879 -3.2842  0.9896  2.0121
  646MOL0     H89141  11.090   2.451   5.708 -0.5722  0.0122  0.0945
  646MOL0     H89142  10.882   2.469   5.919  2.0538  2.0309  0.1191
  646MOL0     H89143  10.822   2.436   5.755  0.8445  1.6609 -1.3257
  646MOL0     H89144  10.915   2.815   5.666  2.8824 -1.4809 -1.6510
  646MOL0     H89145  11.184   2.183   6.066 -0.3579 -0.3647  0.6552
  646MOL0     H89146  11.265   1.962   6.296 -0.6463  1.0747  1.5491
  646MOL0     H89147  11.118   2.049   6.243  0.4719 -0.2925  0.1569
  646MOL0     H89148  11.129   1.877   6.227 -0.7328  0.4796 -0.0425
  647MOL0     O89149   2.743   0.681   1.250 -0.1035  0.4309  0.3907
  647MOL0     C89150   2.705   0.565   1.271 -0.5651  0.2458  0.7956
  647MOL0     O89151   2.783   0.456   1.252 -0.5233  0.4357 -0.5566
  647MOL0     C89152   2.918   0.478   1.235 -0.4629 -0.0086 -0.5019
  647MOL0     C89153   3.006   0.497   1.342 -0.1171  0.0513  0.3473
  647MOL0     C89154   3.142   0.497   1.321  0.1581 -0.2595  0.2816
  647MOL0     C89155   3.196   0.489   1.187 -0.1132 -0.6628  0.3601
  647MOL0     O89156   3.331   0.504   1.155 -0.0873 -0.4367 -0.5694
  647MOL0     C89157   3.425   0.551   1.259 -0.9715  0.3228 -0.7463
  647MOL0     C89158   3.561   0.539   1.199 -0.1242  0.2072 -0.0442
  647MOL0     C89159   3.620   0.397   1.187  0.3302 -0.1879 -0.5058
  647MOL0     C89160   3.778   0.402   1.148  0.1584  0.0259  0.1442
  647MOL0     C89161   3.825   0.266   1.096  0.1011 -0.0215  0.0673
  647MOL0     C89162   3.967   0.268   1.042  0.4546 -0.6454  0.8877
  647MOL0     C89163   4.058   0.316   1.148 -0.1667  1.0613  0.2372
  647MOL0     C89164   4.199   0.342   1.107  1.1636 -0.3078 -0.6760
  647MOL0     N89165   4.279   0.411   1.217  0.1484  0.1874  0.3353
  647MOL0     C89166   4.322   0.350   1.335 -0.1374  0.2672 -0.6862
  647MOL0     C89167   4.402   0.445   1.396  0.8472  0.6519 -1.5340
  647MOL0     C89168   4.484   0.415   1.523  0.0136  0.0706  0.3310
  647MOL0     C89169   4.632   0.392   1.497  0.1587  0.1571  0.3153
  647MOL0     C89170   4.696   0.393   1.633  0.4732  0.0259 -0.2501
  647MOL0     C89171   4.829   0.329   1.624  0.2003  0.3293 -0.1761
  647MOL0     O89172   4.800   0.186   1.624 -0.3578 -0.6279  0.5055
  647MOL0     C89173   4.906   0.105   1.610 -0.4954 -0.5616 -0.2254
  647MOL0     C89174   5.040   0.135   1.653 -0.3045  0.8192 -0.0400
  647MOL0     C89175   5.138   0.038   1.649 -0.2056  0.6079 -0.0461
  647MOL0     C89176   5.284   0.082   1.685 -0.3149  0.0835  0.2026
  647MOL0     C89177   5.104  -0.103   1.612  0.0529  0.9412  0.8442
  647MOL0     C89178   5.200  -0.216   1.599  0.6313  0.3126 -0.2604
  647MOL0     O89179   5.158  -0.322   1.527  0.2041 -0.4780  0.1184
  647MOL0     C89180   5.250  -0.416   1.482 -0.7589 -0.6311  0.5391
  647MOL0     C89181   5.235  -0.456   1.354  0.2410  0.0913  1.6938
  647MOL0     C89182   5.320  -0.533   1.288  0.8530 -0.3791  1.1316
  647MOL0     C89183   5.434  -0.577   1.348 -0.1642  0.0398  0.0211
  647MOL0     O89184   5.532  -0.627   1.272 -0.5289  0.5729 -0.2524
  647MOL0     C89185   5.630  -0.720   1.330  0.8353  0.1379 -0.2106
  647MOL0     C89186   5.690  -0.792   1.210 -0.4571 -0.8743  0.3037
  647MOL0     C89187   5.717  -0.941   1.251 -0.5392  0.2738 -0.5250
  647MOL0     C89188   5.763  -1.034   1.137 -0.0800 -0.0841  0.2073
  647MOL0     C89189   5.778  -1.182   1.160 -0.6956 -0.2333 -0.4211
  647MOL0     C89190   5.814  -1.240   1.016 -0.2661  0.5270  0.2026
  647MOL0     C89191   5.839  -1.390   1.038  0.6106  0.2404  1.1592
  647MOL0     C89192   5.715  -1.467   1.048 -0.1043  0.3837  0.0773
  647MOL0    Cl89193   5.739  -1.610   1.137  0.0945 -0.4816  0.1804
  647MOL0     C89194   5.447  -0.556   1.489 -0.8072 -0.0995 -0.7621
  647MOL0     C89195   5.359  -0.465   1.557 -1.2064  0.4033 -0.5099
  647MOL0     O89196   5.307  -0.207   1.651  0.1727  0.1494  0.4720
  647MOL0     C89197   4.969  -0.129   1.570 -0.3856 -0.1289 -1.0508
  647MOL0     C89198   4.878  -0.019   1.575  0.3505 -0.0208 -0.7333
  647MOL0     N89199   4.387   0.567   1.325 -0.8866 -0.8231  0.5637
  647MOL0     N89200   4.317   0.544   1.223  0.4044 -0.1219  0.5737
  647MOL0     C89201   3.104   0.487   1.083  0.1158  0.9423 -0.9077
  647MOL0     C89202   2.965   0.472   1.105 -1.0313 -0.2550 -0.0967
  647MOL0     C89203   2.560   0.550   1.305  0.4736 -0.4707  0.3119
  647MOL0     C89204   2.499   0.421   1.275 -0.3959  0.5130 -0.2848
  647MOL0     C89205   2.374   0.398   1.317 -0.5405  0.2191  0.4015
  647MOL0     C89206   2.290   0.495   1.368  0.6675  0.1164 -0.4752
  647MOL0     O89207   2.155   0.455   1.390 -0.5379  0.0711 -0.6001
  647MOL0     C89208   2.124   0.380   1.507 -0.2277  0.5599  0.2214
  647MOL0     C89209   2.080   0.236   1.484  0.3566  0.7176  0.3176
  647MOL0     C89210   1.948   0.227   1.424  1.5684  0.4418 -0.5700
  647MOL0     C89211   1.876   0.093   1.461  1.0802  0.1415 -0.0464
  647MOL0     C89212   1.953  -0.022   1.422  0.2094  0.0486  0.2331
  647MOL0     C89213   2.008  -0.118   1.367 -0.0432 -0.4572  0.1300
  647MOL0     C89214   2.339   0.622   1.381  0.9707  1.2636  0.0264
  647MOL0     C89215   2.469   0.655   1.348  0.7673 -0.4034 -0.5334
  647MOL0     C89216   2.518   0.799   1.376 -1.0318 -0.6048 -0.3512
  647MOL0     H89217   2.972   0.512   1.444 -1.3196  2.6817 -0.3531
  647MOL0     H89218   3.214   0.505   1.402 -1.3450  0.2242  1.6184
  647MOL0     H89219   3.423   0.492   1.351  1.7352 -0.0934 -0.8737
  647MOL0     H89220   3.402   0.654   1.291 -2.0917  0.0836 -0.7217
  647MOL0     H89221   3.563   0.581   1.098  2.4454  0.7896  0.1711
  647MOL0     H89222   3.609   0.613   1.265 -2.2405  3.7312 -2.1056
  647MOL0     H89223   3.602   0.338   1.277  1.5199 -1.0010 -0.7816
  647MOL0     H89224   3.577   0.337   1.106  0.6083 -1.9036  0.5862
  647MOL0     H89225   3.797   0.468   1.062 -1.1518 -0.2637 -0.3976
  647MOL0     H89226   3.832   0.434   1.238  1.6335  2.3625 -1.4335
  647MOL0     H89227   3.763   0.223   1.016  1.8996 -2.0871 -0.3266
  647MOL0     H89228   3.811   0.199   1.181  0.0757 -1.4771 -1.0524
  647MOL0     H89229   3.993   0.170   1.002 -2.6398 -0.7010 -1.2655
  647MOL0     H89230   3.973   0.336   0.957 -2.0054  0.2304  1.3433
  647MOL0     H89231   4.052   0.252   1.236 -2.8817 -1.4436 -1.5660
  647MOL0     H89232   4.022   0.417   1.172 -2.6516  1.1178 -3.0642
  647MOL0     H89233   4.242   0.246   1.076  2.8702  0.8163 -1.9270
  647MOL0     H89234   4.186   0.407   1.020  0.6421 -3.5384 -3.1852
  647MOL0     H89235   4.310   0.248   1.369 -1.0201  0.5967  0.0462
  647MOL0     H89236   4.447   0.317   1.555 -1.2736  0.4498  0.0687
  647MOL0     H89237   4.467   0.484   1.606 -2.1688 -1.7277  1.5065
  647MOL0     H89238   4.651   0.300   1.442 -1.1949  1.4710 -2.5649
  647MOL0     H89239   4.664   0.481   1.442 -1.0960 -0.0069 -0.7153
  647MOL0     H89240   4.709   0.501   1.650 -1.2186 -0.0403  1.9361
  647MOL0     H89241   4.654   0.341   1.719  1.5446 -0.7669 -0.1873
  647MOL0     H89242   4.869   0.358   1.526  0.5720  0.6632  0.0720
  647MOL0     H89243   4.893   0.356   1.709  1.0073  0.4261 -0.7981
  647MOL0     H89244   5.076   0.235   1.676 -2.0742  1.4449  0.1548
  647MOL0     H89245   5.305   0.056   1.789 -0.0076 -0.3803  0.0270
  647MOL0     H89246   5.307   0.188   1.670  1.3176 -0.6428 -4.2490
  647MOL0     H89247   5.350   0.023   1.621 -2.8456 -4.3247  1.2534
  647MOL0     H89248   5.137  -0.432   1.313  0.1661 -0.8091  1.3213
  647MOL0     H89249   5.294  -0.560   1.186 -1.7184 -0.1247  1.6573
  647MOL0     H89250   5.702  -0.662   1.389  0.8014 -1.8169  1.8400
  647MOL0     H89251   5.577  -0.777   1.406 -3.4457  4.6568  0.7041
  647MOL0     H89252   5.619  -0.792   1.127 -2.1315 -1.5852  1.6441
  647MOL0     H89253   5.783  -0.748   1.175 -0.7313  1.1758  1.9227
  647MOL0     H89254   5.628  -0.995   1.285 -1.1644 -0.5712 -3.2687
  647MOL0     H89255   5.797  -0.952   1.325 -0.7145 -3.8884 -0.7547
  647MOL0     H89256   5.853  -0.989   1.093  0.9873 -1.2903  1.0894
  647MOL0     H89257   5.686  -1.028   1.060  2.0227  2.5731 -1.9397
  647MOL0     H89258   5.864  -1.188   1.227 -1.5287  0.5883  0.7590
  647MOL0     H89259   5.689  -1.223   1.209 -0.3920  1.2200  1.4914
  647MOL0     H89260   5.903  -1.185   0.985 -0.5100  1.3664  0.9363
  647MOL0     H89261   5.729  -1.224   0.949 -2.8297 -1.4330  2.7555
  647MOL0     H89262   5.897  -1.411   1.128 -0.0723 -0.2978  1.4895
  647MOL0     H89263   5.899  -1.431   0.956 -0.7624 -1.3863  0.8987
  647MOL0     H89264   5.669  -1.480   0.950 -2.7007  1.7286  0.9990
  647MOL0     H89265   5.639  -1.410   1.104 -0.8528 -1.6176  1.1866
  647MOL0     H89266   5.540  -0.593   1.530 -2.1707 -1.4220  1.3743
  647MOL0     H89267   5.373  -0.437   1.660  0.4102  0.6427 -0.7682
  647MOL0     H89268   4.935  -0.227   1.537 -3.4323  0.3131  0.4647
  647MOL0     H89269   4.776  -0.044   1.548 -0.2059 -2.7142  3.0022
  647MOL0     H89270   3.137   0.491   0.980 -1.5420  3.7135 -1.4248
  647MOL0     H89271   2.894   0.458   1.024  1.2035 -0.8942 -2.0616
  647MOL0     H89272   2.555   0.352   1.214 -2.7282 -0.5713 -1.3258
  647MOL0     H89273   2.339   0.299   1.290 -1.5468  0.5174  0.5680
  647MOL0     H89274   2.213   0.385   1.571  0.2959 -0.6832 -0.3710
  647MOL0     H89275   2.055   0.435   1.572  1.6453  1.3064  1.6941
  647MOL0     H89276   2.089   0.188   1.582  0.7427  2.0615  0.9641
  647MOL0     H89277   2.152   0.179   1.424 -1.4114 -0.6924 -0.5627
  647MOL0     H89278   1.893   0.307   1.473 -1.2336 -0.1910 -2.4000
  647MOL0     H89279   1.942   0.239   1.315  2.3362 -2.7380 -1.0747
  647MOL0     H89280   1.772   0.086   1.426  0.4264 -0.7515  1.9444
  647MOL0     H89281   1.883   0.079   1.569 -0.8534  0.1499  0.1168
  647MOL0     H89282   2.071  -0.187   1.313  0.0907  0.7006 -1.2593
  647MOL0     H89283   2.265   0.700   1.398 -0.2875  0.3080 -0.9219
  647MOL0     H89284   2.442   0.853   1.434 -1.5417  0.1804 -1.7083
  647MOL0     H89285   2.613   0.804   1.430 -2.0548  1.9594  1.4133
  647MOL0     H89286   2.542   0.844   1.279  0.2147  1.1769  0.7265
  648MOL0     O89287   5.177   5.819  10.589 -0.4096  0.1251  0.1822
  648MOL0     C89288   5.287   5.767  10.623 -0.0162  0.2149  0.6157
  648MOL0     O89289   5.303   5.700  10.726 -0.5552  0.2708 -0.9588
  648MOL0     C89290   5.200   5.674  10.811  0.2902  0.8483 -0.2787
  648MOL0     C89291   5.179   5.534  10.832  0.2615 -0.0239  0.0565
  648MOL0     C89292   5.087   5.498  10.930 -0.1600  0.4769  0.2707
  648MOL0     C89293   5.001   5.595  10.993  0.3003  0.4958  0.6453
  648MOL0     O89294   4.908   5.551  11.080  0.4554  0.1122 -0.1090
  648MOL0     C89295   4.836   5.646  11.165  0.4756 -0.6161 -0.2188
  648MOL0     C89296   4.799   5.584  11.303  0.2406 -0.6981  0.2194
  648MOL0     C89297   4.686   5.478  11.299 -0.5134  0.3209 -0.0658
  648MOL0     C89298   4.537   5.533  11.281 -0.2799 -0.4435 -0.0596
  648MOL0     C89299   4.422   5.437  11.310 -0.5670 -0.9726  0.3258
  648MOL0     C89300   4.289   5.506  11.275 -0.4969  0.1802  0.8376
  648MOL0     C89301   4.182   5.410  11.295  0.3847  0.8420  0.1442
  648MOL0     C89302   4.044   5.481  11.287  0.3611 -0.2706  0.4047
  648MOL0     N89303   4.023   5.596  11.369  0.8214 -0.2657  0.1865
  648MOL0     C89304   3.979   5.602  11.496 -0.4133  0.4719 -0.1876
  648MOL0     C89305   3.972   5.730  11.527 -0.3457 -0.0853 -0.4456
  648MOL0     C89306   3.931   5.793  11.650  0.0316 -0.2426 -0.6205
  648MOL0     C89307   4.027   5.750  11.763  0.0765 -0.5908  0.4784
  648MOL0     C89308   4.015   5.830  11.900 -0.4700 -0.0594 -0.2526
  648MOL0     C89309   3.996   5.983  11.894  0.4156  0.1653 -0.2503
  648MOL0     O89310   3.952   6.030  12.024  0.2187 -0.5288 -0.0538
  648MOL0     C89311   3.820   6.011  12.077  0.7504  0.7619 -0.8641
  648MOL0     C89312   3.800   6.055  12.212 -1.1706 -0.3407  0.2444
  648MOL0     C89313   3.677   6.057  12.269 -0.2064  0.3971 -0.2153
  648MOL0     C89314   3.673   6.140  12.395 -0.4783 -0.2639  0.2554
  648MOL0     C89315   3.557   6.022  12.187  0.3453  0.2751  0.1220
  648MOL0     C89316   3.414   6.017  12.238 -0.5821  0.0451 -0.1801
  648MOL0     O89317   3.323   5.996  12.145  1.1517  0.0863  0.9132
  648MOL0     C89318   3.191   5.968  12.175 -0.4290  0.6908  0.2032
  648MOL0     C89319   3.081   6.052  12.141  0.0463  0.0831  0.7972
  648MOL0     C89320   2.952   6.008  12.176 -0.2979 -0.2374  0.3249
  648MOL0     C89321   2.918   5.886  12.236 -0.0616  0.6168  0.1457
  648MOL0     O89322   2.786   5.839  12.271 -0.5110 -1.0936 -0.2265
  648MOL0     C89323   2.680   5.867  12.181  0.0003  0.4501  0.5498
  648MOL0     C89324   2.568   5.770  12.221  0.0273 -0.5854  1.1835
  648MOL0     C89325   2.621   5.624  12.242  0.2533 -0.1062  0.5212
  648MOL0     C89326   2.516   5.514  12.219  1.1933  0.0832  0.4242
  648MOL0     C89327   2.591   5.377  12.209  0.0007  0.5969  0.8058
  648MOL0     C89328   2.668   5.354  12.074  0.3771 -0.0942 -0.0248
  648MOL0     C89329   2.578   5.346  11.949 -0.0205 -0.8761 -0.8275
  648MOL0     C89330   2.658   5.272  11.844  0.0085 -0.4276  0.1744
  648MOL0    Cl89331   2.690   5.095  11.893 -0.0052 -0.6949  0.3903
  648MOL0     C89332   3.033   5.804  12.265 -0.7722 -1.2793 -0.3163
  648MOL0     C89333   3.164   5.846  12.230 -0.4134  0.2465  0.1894
  648MOL0     O89334   3.392   6.015  12.361 -0.2164  0.4993  0.2794
  648MOL0     C89335   3.582   5.976  12.051  0.0062 -0.2593  0.2042
  648MOL0     C89336   3.712   5.980  11.991  1.0727 -1.1148 -1.1049
  648MOL0     N89337   3.991   5.796  11.413  0.3417  0.1708 -0.4143
  648MOL0     N89338   4.033   5.717  11.317  0.6168  0.7033 -0.4726
  648MOL0     C89339   5.010   5.730  10.952  0.1394  0.4266 -0.7680
  648MOL0     C89340   5.108   5.773  10.866 -0.3819  0.7074  0.3317
  648MOL0     C89341   5.409   5.790  10.536 -0.2511 -0.3669  0.7721
  648MOL0     C89342   5.531   5.766  10.596  0.9297 -0.9388 -0.6045
  648MOL0     C89343   5.653   5.798  10.538  0.4194  0.1440  0.4035
  648MOL0     C89344   5.649   5.866  10.414  0.7579  0.8419  0.0439
  648MOL0     O89345   5.769   5.897  10.357 -0.2265 -0.1153 -0.4044
  648MOL0     C89346   5.777   5.972  10.237  0.2240 -0.8399  0.1334
  648MOL0     C89347   5.904   6.063  10.251 -0.8847 -0.2852 -0.1312
  648MOL0     C89348   5.879   6.141  10.370 -0.0918 -0.4076 -0.8208
  648MOL0     C89349   5.986   6.237  10.407  0.4219 -0.1378 -0.5139
  648MOL0     C89350   5.994   6.341  10.302  0.2425 -0.6346  0.0597
  648MOL0     C89351   5.994   6.425  10.212 -0.0847  0.0409 -0.4910
  648MOL0     C89352   5.527   5.884  10.351  1.0369  0.0040  1.0198
  648MOL0     C89353   5.407   5.839  10.404  0.8161 -0.4478 -0.5276
  648MOL0     C89354   5.283   5.847  10.321  0.3996  0.1523  0.4242
  648MOL0     H89355   5.235   5.462  10.772 -3.2140 -1.5018 -1.7183
  648MOL0     H89356   5.062   5.396  10.956 -1.0420  0.2776 -1.2744
  648MOL0     H89357   4.755   5.700  11.115  0.6645 -1.8241 -1.8803
  648MOL0     H89358   4.908   5.722  11.197 -0.2408 -0.3790  0.9024
  648MOL0     H89359   4.897   5.548  11.336  0.7999  1.2712  0.8689
  648MOL0     H89360   4.769   5.669  11.365 -2.0575 -2.4530  1.6504
  648MOL0     H89361   4.709   5.409  11.217 -1.4788 -2.7926  2.1408
  648MOL0     H89362   4.690   5.427  11.395 -1.6084 -0.8882 -0.6228
  648MOL0     H89363   4.520   5.628  11.333  0.5520  0.6484 -1.6656
  648MOL0     H89364   4.537   5.570  11.178  2.1639 -3.0050 -1.0976
  648MOL0     H89365   4.423   5.402  11.414  1.2247  0.5649  0.8728
  648MOL0     H89366   4.435   5.349  11.247  1.0855 -3.7432  4.1286
  648MOL0     H89367   4.268   5.589  11.344 -1.1097  0.3582  0.4474
  648MOL0     H89368   4.297   5.550  11.175  2.2841  0.0208  0.9018
  648MOL0     H89369   4.181   5.367  11.395 -1.1894  2.8878  1.0776
  648MOL0     H89370   4.190   5.324  11.227  0.3476 -0.3305  1.5710
  648MOL0     H89371   4.021   5.504  11.182 -3.1218  1.4300  1.4177
  648MOL0     H89372   3.971   5.408  11.321 -0.0503  0.4552  1.1084
  648MOL0     H89373   3.956   5.518  11.561 -2.6487  0.6511 -0.6692
  648MOL0     H89374   3.828   5.777  11.682  0.5187 -3.1314 -0.2206
  648MOL0     H89375   3.950   5.901  11.642  2.1133 -0.5659 -0.5490
  648MOL0     H89376   4.000   5.648  11.793 -1.6555  0.3330  2.3571
  648MOL0     H89377   4.130   5.760  11.727 -0.8769  1.8410 -1.8624
  648MOL0     H89378   3.923   5.797  11.949 -0.4866 -3.1504 -2.0967
  648MOL0     H89379   4.100   5.811  11.966  0.6530  2.0234 -1.0075
  648MOL0     H89380   4.092   6.026  11.863  0.3240  0.6039  0.0645
  648MOL0     H89381   3.929   6.012  11.812  2.8154 -0.1433 -2.4706
  648MOL0     H89382   3.883   6.099  12.266 -3.2372 -0.9988  4.2845
  648MOL0     H89383   3.570   6.156  12.428 -0.3880  0.1854  0.3305
  648MOL0     H89384   3.703   6.242  12.368 -0.7743 -0.8811 -2.7142
  648MOL0     H89385   3.732   6.097  12.477  1.0375 -0.0582 -0.6889
  648MOL0     H89386   3.100   6.146  12.090  0.1227 -0.3706 -0.0376
  648MOL0     H89387   2.867   6.069  12.147  0.4983 -0.1866 -2.1398
  648MOL0     H89388   2.650   5.972  12.186  2.9267  1.3889  0.2813
  648MOL0     H89389   2.709   5.856  12.077 -2.0928 -0.4750 -0.0031
  648MOL0     H89390   2.514   5.811  12.307  1.6032  1.4960  1.2698
  648MOL0     H89391   2.493   5.774  12.141 -2.9529  3.7250  3.7642
  648MOL0     H89392   2.675   5.618  12.337  2.8650 -0.8084 -0.8710
  648MOL0     H89393   2.690   5.610  12.157 -1.2225 -1.7270 -0.4840
  648MOL0     H89394   2.467   5.538  12.124  1.5111 -2.8922 -0.5969
  648MOL0     H89395   2.446   5.519  12.303  0.2416 -1.1227 -0.2506
  648MOL0     H89396   2.646   5.369  12.304  0.8922  2.2019  0.4593
  648MOL0     H89397   2.516   5.297  12.218  0.6397 -0.1069  0.0305
  648MOL0     H89398   2.729   5.264  12.080  3.1112  1.7547  2.1948
  648MOL0     H89399   2.741   5.435  12.066  1.0392 -0.7725 -1.0335
  648MOL0     H89400   2.566   5.449  11.914  0.4733  0.6467  2.9917
  648MOL0     H89401   2.480   5.303  11.972 -1.4340  2.4099 -0.0572
  648MOL0     H89402   2.755   5.321  11.827  0.2997 -0.5496  1.4109
  648MOL0     H89403   2.610   5.259  11.746  1.8265 -0.3538 -0.7866
  648MOL0     H89404   3.024   5.709  12.317 -0.8449  0.1483  2.4884
  648MOL0     H89405   3.244   5.785  12.271 -1.1708 -1.5213 -0.8614
  648MOL0     H89406   3.505   5.935  11.987 -0.3043 -1.8899  1.5655
  648MOL0     H89407   3.748   5.957  11.891  4.7602 -2.4415  0.3432
  648MOL0     H89408   4.949   5.814  10.982 -2.3914 -0.7222 -2.3982
  648MOL0     H89409   5.140   5.876  10.851  1.8761  0.5927  3.4557
  648MOL0     H89410   5.536   5.749  10.703  2.2793  2.5801  0.0462
  648MOL0     H89411   5.735   5.762  10.599 -1.2776 -4.7300  0.2035
  648MOL0     H89412   5.783   5.902  10.153  0.4282 -3.1099  1.9345
  648MOL0     H89413   5.687   6.034  10.228  0.7289  0.0048  0.7401
  648MOL0     H89414   5.906   6.121  10.158 -1.1626  1.3450  0.8413
  648MOL0     H89415   5.995   6.002  10.259  0.3376  1.3382 -1.0807
  648MOL0     H89416   5.794   6.208  10.355 -1.1927 -2.1196 -2.5265
  648MOL0     H89417   5.857   6.085  10.462 -0.9791  0.1178 -0.7030
  648MOL0     H89418   6.084   6.188  10.415  0.4027 -0.1627 -0.4295
  648MOL0     H89419   5.962   6.282  10.504  2.9900  1.8980 -0.6756
  648MOL0     H89420   5.998   6.502  10.137  0.1063 -3.5816 -4.5754
  648MOL0     H89421   5.514   5.925  10.251 -5.1979 -5.1601 -0.9723
  648MOL0     H89422   5.209   5.920  10.355  0.7985  0.8822 -0.2393
  648MOL0     H89423   5.297   5.864  10.214 -3.6431  1.6244 -0.0380
  648MOL0     H89424   5.226   5.754  10.326 -0.0958  0.2953 -1.5921
  649MOL0     O89425   7.559   6.119   8.981  0.2643  0.0937  0.3165
  649MOL0     C89426   7.589   6.238   8.980  0.6145  0.3117 -0.3445
  649MOL0     O89427   7.714   6.289   8.992  1.0745  0.3404 -0.1869
  649MOL0     C89428   7.831   6.225   8.978  0.1050 -0.3809 -0.2213
  649MOL0     C89429   7.936   6.292   8.915 -0.4314 -0.4991 -0.5927
  649MOL0     C89430   8.058   6.231   8.902  0.1152 -0.1908 -0.4640
  649MOL0     C89431   8.074   6.094   8.928  1.2274 -0.8967 -0.1111
  649MOL0     O89432   8.182   6.037   8.873  0.5471 -0.1765 -0.1465
  649MOL0     C89433   8.196   5.901   8.896 -0.0428  0.2209 -0.2575
  649MOL0     C89434   8.313   5.838   8.818 -0.5314  0.8219 -0.7289
  649MOL0     C89435   8.310   5.851   8.668 -1.1779  0.5384  0.1946
  649MOL0     C89436   8.215   5.753   8.604  0.5435  0.0241 -0.2981
  649MOL0     C89437   8.128   5.830   8.493  0.3082  0.5062 -0.1857
  649MOL0     C89438   8.191   5.870   8.353 -0.1927 -0.1733  0.1804
  649MOL0     C89439   8.267   5.754   8.294  0.5064 -0.2519  0.0732
  649MOL0     C89440   8.300   5.769   8.148  0.5764  0.2392  0.8563
  649MOL0     N89441   8.406   5.863   8.134 -0.1041 -0.4248  0.0314
  649MOL0     C89442   8.530   5.826   8.094  0.1794 -1.3655  0.0135
  649MOL0     C89443   8.600   5.940   8.080 -0.4790  0.5205  0.3580
  649MOL0     C89444   8.740   5.948   8.030  0.0171  0.3057 -0.6137
  649MOL0     C89445   8.829   6.017   8.138 -1.2353  0.1092  0.7588
  649MOL0     C89446   8.972   5.961   8.131 -0.3426 -0.4357  0.1343
  649MOL0     C89447   9.048   6.023   8.251  0.3253 -0.7232  0.0653
  649MOL0     O89448   9.024   5.954   8.385  0.0649 -0.0606  0.1055
  649MOL0     C89449   9.132   5.881   8.429  0.6611  0.6122 -0.0409
  649MOL0     C89450   9.255   5.945   8.456 -0.6257 -0.0181  0.7234
  649MOL0     C89451   9.364   5.873   8.505 -1.2675  0.4224  0.3189
  649MOL0     C89452   9.509   5.933   8.499  0.1576  0.5692  0.1973
  649MOL0     C89453   9.349   5.732   8.538  1.0259 -0.8478 -0.1967
  649MOL0     C89454   9.443   5.642   8.613 -0.0264  0.3305 -0.6051
  649MOL0     O89455   9.444   5.512   8.577  1.1112  0.4118 -0.0286
  649MOL0     C89456   9.541   5.442   8.640  0.2369  0.3405 -0.9813
  649MOL0     C89457   9.650   5.416   8.568 -0.6657 -0.2095 -0.6961
  649MOL0     C89458   9.761   5.356   8.629 -1.2035  1.1366  0.7922
  649MOL0     C89459   9.749   5.300   8.755 -0.6036 -1.1871  1.1613
  649MOL0     O89460   9.859   5.245   8.800 -0.2715  0.5371  0.3210
  649MOL0     C89461   9.850   5.127   8.884  0.4720  0.0418 -0.2854
  649MOL0     C89462   9.979   5.037   8.888 -0.4703 -0.8174 -0.0495
  649MOL0     C89463   9.995   4.960   8.755  0.2193 -0.1991  0.9059
  649MOL0     C89464  10.101   4.852   8.769 -0.4956 -0.2107 -0.3447
  649MOL0     C89465  10.237   4.907   8.817  0.1400  0.0285 -0.0562
  649MOL0     C89466  10.333   4.799   8.809 -0.7925 -0.5456 -0.6353
  649MOL0     C89467  10.461   4.842   8.884  0.2878  0.8866  0.3756
  649MOL0     C89468  10.559   4.723   8.905 -0.1933 -0.3826  0.6476
  649MOL0    Cl89469  10.664   4.676   8.753 -0.1844 -0.0356 -0.4257
  649MOL0     C89470   9.628   5.321   8.831  0.2019 -0.1420 -0.1756
  649MOL0     C89471   9.520   5.394   8.773  0.7182  0.3109 -0.8536
  649MOL0     O89472   9.511   5.693   8.708  0.5363  0.0301  0.1801
  649MOL0     C89473   9.226   5.669   8.510  0.5081  0.8188 -1.5097
  649MOL0     C89474   9.122   5.745   8.453 -0.2110 -0.3370 -0.4345
  649MOL0     N89475   8.522   6.041   8.105  0.5509 -0.4876  0.2159
  649MOL0     N89476   8.404   6.002   8.138  0.2596 -0.1029 -0.0448
  649MOL0     C89477   7.973   6.033   9.004  0.8068 -0.4114  0.7796
  649MOL0     C89478   7.849   6.098   9.028 -0.4201  0.9622  0.5434
  649MOL0     C89479   7.490   6.341   8.966  0.0091  0.4788  0.6208
  649MOL0     C89480   7.508   6.430   8.854 -0.1354 -0.0507 -0.0840
  649MOL0     C89481   7.407   6.524   8.820  0.0564  0.9405 -0.2834
  649MOL0     C89482   7.289   6.539   8.898 -0.1589 -0.1276 -0.9487
  649MOL0     O89483   7.188   6.637   8.896 -0.1236 -0.1393 -0.2769
  649MOL0     C89484   7.144   6.669   8.756  0.3454 -0.4583 -0.3984
  649MOL0     C89485   7.010   6.746   8.751  0.3281 -0.0368  1.3665
  649MOL0     C89486   6.897   6.649   8.785  0.2743  0.0491  0.7943
  649MOL0     C89487   6.760   6.702   8.747  0.0297 -0.3730  0.2001
  649MOL0     C89488   6.658   6.612   8.801  0.4339  0.3738 -0.1707
  649MOL0     C89489   6.572   6.530   8.831  0.3614 -0.8336 -1.1306
  649MOL0     C89490   7.280   6.448   9.008 -0.3978 -0.2066  0.2164
  649MOL0     C89491   7.364   6.343   9.032  0.2441  0.7077  0.3032
  649MOL0     C89492   7.324   6.247   9.143  0.0266  0.0505  0.1654
  649MOL0     H89493   7.921   6.395   8.886  1.1331 -1.1991 -4.4044
  649MOL0     H89494   8.141   6.288   8.859  0.0540  1.5837  1.5779
  649MOL0     H89495   8.104   5.845   8.877  0.9796 -1.7950  0.5053
  649MOL0     H89496   8.215   5.892   9.003 -4.7404 -0.5272  0.6920
  649MOL0     H89497   8.396   5.904   8.844 -1.9936  4.3650 -4.0799
  649MOL0     H89498   8.326   5.732   8.840 -0.4806  0.9488 -0.1187
  649MOL0     H89499   8.306   5.955   8.635  2.4207  0.3041 -1.4656
  649MOL0     H89500   8.412   5.819   8.643 -0.3762  0.5565  3.0490
  649MOL0     H89501   8.284   5.677   8.565 -1.7637 -1.9780 -0.7427
  649MOL0     H89502   8.162   5.697   8.682  1.9897 -0.5929  0.2889
  649MOL0     H89503   8.079   5.918   8.536 -2.2516 -0.4205 -1.0609
  649MOL0     H89504   8.050   5.757   8.473 -0.0126  1.2162 -1.6576
  649MOL0     H89505   8.101   5.889   8.294 -0.5314 -2.6140 -0.1839
  649MOL0     H89506   8.241   5.967   8.360  0.3369  0.0303 -4.0941
  649MOL0     H89507   8.212   5.660   8.302  1.0452 -0.4652  1.3592
  649MOL0     H89508   8.361   5.737   8.346  0.3838  1.8450  1.1064
  649MOL0     H89509   8.341   5.679   8.102  1.7166  1.3295 -0.3604
  649MOL0     H89510   8.216   5.803   8.088  0.5560 -0.7342  0.3137
  649MOL0     H89511   8.574   5.726   8.093  2.2741 -0.5011 -1.9206
  649MOL0     H89512   8.750   6.003   7.936  1.1698  0.7570 -0.2460
  649MOL0     H89513   8.779   5.848   8.010  0.4468  0.3040  0.2068
  649MOL0     H89514   8.842   6.123   8.112  3.6599 -0.0541  1.4449
  649MOL0     H89515   8.787   6.017   8.239 -1.4465  1.1728  0.6828
  649MOL0     H89516   8.966   5.852   8.138  0.7603 -0.6971 -2.0338
  649MOL0     H89517   9.040   5.988   8.049  1.3364  2.6406  2.3324
  649MOL0     H89518   9.156   6.020   8.233  0.5353  2.5955  0.1694
  649MOL0     H89519   9.036   6.131   8.266  3.1920 -0.5904  2.2793
  649MOL0     H89520   9.248   6.052   8.438 -0.1650  0.0570  0.9784
  649MOL0     H89521   9.497   6.032   8.455  0.8251  0.9266  0.8071
  649MOL0     H89522   9.578   5.869   8.443 -1.2105  1.1352 -2.2521
  649MOL0     H89523   9.555   5.945   8.598 -2.4833 -0.6458  1.6812
  649MOL0     H89524   9.660   5.448   8.465  1.3340 -1.8600 -1.0783
  649MOL0     H89525   9.849   5.354   8.565 -1.0574 -1.3638  0.9424
  649MOL0     H89526   9.846   5.170   8.985 -0.8129  1.6107 -0.9452
  649MOL0     H89527   9.755   5.085   8.848  0.0359  2.0263 -1.6139
  649MOL0     H89528  10.060   5.109   8.906 -0.9802  0.2906 -1.9119
  649MOL0     H89529   9.979   4.960   8.965 -1.5193 -0.3758  0.4179
  649MOL0     H89530  10.033   5.034   8.684  0.8977 -1.9680 -0.6458
  649MOL0     H89531   9.898   4.926   8.717  0.4782  0.1852 -0.1166
  649MOL0     H89532  10.118   4.807   8.671  1.3452  0.9000 -0.5954
  649MOL0     H89533  10.059   4.778   8.837 -0.9132  0.6789  0.3925
  649MOL0     H89534  10.265   4.991   8.752 -0.8567  0.5971  0.2371
  649MOL0     H89535  10.237   4.937   8.922 -0.2543 -0.0448 -0.0350
  649MOL0     H89536  10.354   4.772   8.706  4.0763  2.7045 -0.8462
  649MOL0     H89537  10.288   4.718   8.867  1.6119 -0.5422  1.3940
  649MOL0     H89538  10.439   4.862   8.990  2.2260 -0.2479  1.0433
  649MOL0     H89539  10.512   4.927   8.839 -2.5613  2.8527  0.5686
  649MOL0     H89540  10.507   4.630   8.929  2.6835 -1.7094  2.3290
  649MOL0     H89541  10.625   4.743   8.990  2.5278  0.8521 -1.5634
  649MOL0     H89542   9.614   5.297   8.936  0.1980  1.9436  0.3390
  649MOL0     H89543   9.427   5.412   8.826 -0.4473 -1.6571 -2.1422
  649MOL0     H89544   9.210   5.567   8.544  1.3172  1.3711  0.6648
  649MOL0     H89545   9.028   5.701   8.421 -1.7443  1.5961  1.1223
  649MOL0     H89546   7.984   5.933   9.045  0.2141 -2.1468 -2.9242
  649MOL0     H89547   7.778   6.049   9.094  2.6176  0.0808  3.4574
  649MOL0     H89548   7.598   6.425   8.794 -0.0227 -1.4020  0.1716
  649MOL0     H89549   7.418   6.593   8.737  0.2190  0.8281 -0.3571
  649MOL0     H89550   7.224   6.725   8.705  2.2661 -1.5657  1.2573
  649MOL0     H89551   7.128   6.581   8.694 -0.2744 -0.6930  0.0932
  649MOL0     H89552   7.005   6.777   8.647  0.8011 -1.5959  0.8522
  649MOL0     H89553   7.015   6.842   8.804  0.6596  0.2293  0.8564
  649MOL0     H89554   6.921   6.551   8.742 -2.7303 -1.6133  2.5661
  649MOL0     H89555   6.899   6.639   8.894 -0.1693  0.2673  0.8227
  649MOL0     H89556   6.756   6.689   8.638 -1.7413 -0.9881  0.3033
  649MOL0     H89557   6.746   6.806   8.778  0.1018 -0.8480  1.9136
  649MOL0     H89558   6.509   6.444   8.842 -1.6635  0.8057  1.2124
  649MOL0     H89559   7.186   6.468   9.060 -0.5380 -0.2634 -0.0151
  649MOL0     H89560   7.238   6.291   9.194 -0.5498 -2.0403  1.1278
  649MOL0     H89561   7.301   6.152   9.093 -3.1859 -0.8680  2.9606
  649MOL0     H89562   7.405   6.228   9.215  0.0445  0.7344  0.3300
  650MOL0     O89563   7.033   6.787   4.784  0.4251 -0.0174  0.2799
  650MOL0     C89564   6.924   6.729   4.814 -0.4319  0.1963 -0.6037
  650MOL0     O89565   6.914   6.600   4.863  0.3338 -0.3533  0.0818
  650MOL0     C89566   7.034   6.544   4.883  0.3313  0.0593 -0.2036
  650MOL0     C89567   7.100   6.503   4.761 -0.0631 -0.3174  0.0271
  650MOL0     C89568   7.198   6.404   4.763 -0.4832 -0.0573  1.0931
  650MOL0     C89569   7.238   6.349   4.886 -0.7917  0.1703 -0.9821
  650MOL0     O89570   7.337   6.253   4.892  0.2082  0.3961 -0.3481
  650MOL0     C89571   7.287   6.123   4.925  0.3135  0.5060  0.2128
  650MOL0     C89572   7.393   6.035   4.980 -0.3561  0.2508  0.8559
  650MOL0     C89573   7.514   6.020   4.888 -0.1400 -0.2924 -0.0170
  650MOL0     C89574   7.479   5.991   4.740  0.6163  0.1408 -0.2319
  650MOL0     C89575   7.583   5.929   4.646 -0.0469 -0.2733  0.7625
  650MOL0     C89576   7.602   5.785   4.659 -0.2762  0.5189  0.1347
  650MOL0     C89577   7.729   5.733   4.598  0.4057 -0.1086 -0.0244
  650MOL0     C89578   7.748   5.583   4.617 -0.6427 -0.1846  0.2552
  650MOL0     N89579   7.850   5.544   4.512 -0.4713  0.2611  0.6442
  650MOL0     C89580   7.883   5.413   4.477  0.0272  0.2904  0.5334
  650MOL0     C89581   8.006   5.420   4.428 -0.5634  0.3328  0.7904
  650MOL0     C89582   8.086   5.302   4.369 -0.0175  0.4529 -0.3723
  650MOL0     C89583   8.199   5.259   4.457 -1.2158  0.0323  0.5284
  650MOL0     C89584   8.329   5.345   4.435 -0.1640  0.4906  0.2591
  650MOL0     C89585   8.447   5.276   4.509 -0.0459 -1.2993  0.5129
  650MOL0     O89586   8.543   5.379   4.527  0.0072  0.0845  0.1377
  650MOL0     C89587   8.636   5.399   4.428 -0.0154  0.7535 -0.9429
  650MOL0     C89588   8.627   5.516   4.359 -0.3785  0.1373 -0.6481
  650MOL0     C89589   8.723   5.552   4.265  0.2710 -0.2237  0.3879
  650MOL0     C89590   8.722   5.703   4.229 -0.1630 -0.9570  0.9135
  650MOL0     C89591   8.836   5.458   4.242  0.9924 -0.4780 -0.1549
  650MOL0     C89592   8.951   5.484   4.151 -0.5026 -0.3394  0.9785
  650MOL0     O89593   9.069   5.422   4.193  0.1469  0.6468 -0.3937
  650MOL0     C89594   9.192   5.460   4.140  0.2060  0.5245  0.6511
  650MOL0     C89595   9.301   5.451   4.227 -0.5733 -0.8717 -0.0870
  650MOL0     C89596   9.423   5.492   4.178 -0.9304 -0.2118  0.1741
  650MOL0     C89597   9.448   5.556   4.052  0.6005  0.1239 -0.6686
  650MOL0     O89598   9.575   5.584   4.014  0.5337  0.3378  0.2554
  650MOL0     C89599   9.644   5.673   4.093 -0.3500  0.5212  0.2867
  650MOL0     C89600   9.778   5.686   4.028 -0.1305 -0.1427 -0.2513
  650MOL0     C89601   9.779   5.786   3.910  0.0273 -0.3019  0.3885
  650MOL0     C89602   9.789   5.929   3.946  0.1537  0.6642 -1.0653
  650MOL0     C89603   9.807   6.017   3.818 -0.2308 -0.5226  0.1292
  650MOL0     C89604   9.800   6.167   3.842 -0.3332 -0.3854 -0.2240
  650MOL0     C89605   9.842   6.240   3.714  1.1429  0.3998 -0.8558
  650MOL0     C89606   9.838   6.392   3.732  0.1143  0.5934 -0.4088
  650MOL0    Cl89607   9.686   6.457   3.801  0.1518 -0.1317 -0.1013
  650MOL0     C89608   9.343   5.556   3.959 -0.5813 -0.4398  0.9685
  650MOL0     C89609   9.215   5.510   4.008 -0.4512 -0.9039 -0.9425
  650MOL0     O89610   8.946   5.559   4.058 -0.0949 -0.1172 -0.7859
  650MOL0     C89611   8.832   5.334   4.314 -0.1639  1.2858 -1.2470
  650MOL0     C89612   8.735   5.308   4.408  0.0925  0.3566  0.0505
  650MOL0     N89613   8.047   5.552   4.436 -0.0070 -0.3096  0.0834
  650MOL0     N89614   7.957   5.627   4.479  0.3354 -0.9697 -0.0349
  650MOL0     C89615   7.172   6.389   5.006 -0.2793  0.0154 -0.0838
  650MOL0     C89616   7.074   6.492   5.006 -0.0002 -0.3422 -0.0207
  650MOL0     C89617   6.789   6.796   4.772  0.9111 -1.1430  0.5979
  650MOL0     C89618   6.673   6.710   4.770  0.5012 -0.0254 -0.5348
  650MOL0     C89619   6.554   6.757   4.717  0.3154  0.0811  0.5963
  650MOL0     C89620   6.543   6.884   4.670 -0.9038  0.5213  0.1465
  650MOL0     O89621   6.425   6.917   4.615 -0.0531 -0.3530  0.0885
  650MOL0     C89622   6.325   6.936   4.713  0.2039 -0.1332 -0.3811
  650MOL0     C89623   6.182   6.895   4.661 -0.0468  1.0250  0.4926
  650MOL0     C89624   6.136   6.963   4.537  0.3429  0.6348 -0.2471
  650MOL0     C89625   6.112   7.111   4.561  0.1142  0.5996 -0.4668
  650MOL0     C89626   6.019   7.130   4.674 -0.8680  0.1324  1.2710
  650MOL0     C89627   5.934   7.148   4.760  0.5792  0.6568 -0.5644
  650MOL0     C89628   6.653   6.977   4.671  0.2556  0.2898  0.1115
  650MOL0     C89629   6.773   6.930   4.721  0.0205 -0.3479 -0.3182
  650MOL0     C89630   6.888   7.019   4.705  0.6107 -0.0254 -0.1112
  650MOL0     H89631   7.075   6.549   4.666 -2.9862  1.8843  1.6931
  650MOL0     H89632   7.253   6.385   4.671  0.9759  3.2529  1.1627
  650MOL0     H89633   7.240   6.085   4.834  2.5603  2.9431 -2.1517
  650MOL0     H89634   7.209   6.143   4.999 -0.1654 -2.3603  0.5844
  650MOL0     H89635   7.414   6.065   5.083  0.3043  0.6386  0.6125
  650MOL0     H89636   7.345   5.936   4.986 -0.2869  0.2571  1.6378
  650MOL0     H89637   7.580   6.106   4.905 -0.4191  0.3532 -1.9720
  650MOL0     H89638   7.564   5.935   4.935 -1.6477 -0.5361  1.2352
  650MOL0     H89639   7.390   5.928   4.738 -0.7082  1.8914  0.5069
  650MOL0     H89640   7.440   6.084   4.697  0.7754 -0.3216 -1.4010
  650MOL0     H89641   7.679   5.980   4.655  0.3322 -1.1812  2.1735
  650MOL0     H89642   7.546   5.951   4.546  0.1143  0.6250  0.8942
  650MOL0     H89643   7.599   5.755   4.764 -0.7928 -0.2923 -0.1023
  650MOL0     H89644   7.514   5.745   4.607 -2.4582  2.1743  2.3507
  650MOL0     H89645   7.819   5.777   4.641  2.2982 -2.2795 -1.5094
  650MOL0     H89646   7.723   5.765   4.493 -0.2129 -0.7721 -0.1951
  650MOL0     H89647   7.780   5.566   4.720 -0.1097  1.1026  0.3164
  650MOL0     H89648   7.655   5.530   4.594 -1.3634  1.6726 -1.4662
  650MOL0     H89649   7.823   5.323   4.484  0.3273  0.0225 -0.2571
  650MOL0     H89650   8.132   5.337   4.276  0.3672  0.7003 -0.0977
  650MOL0     H89651   8.023   5.216   4.346 -0.1916  0.4864 -0.0200
  650MOL0     H89652   8.170   5.260   4.562 -0.7024 -1.8158  0.7246
  650MOL0     H89653   8.220   5.153   4.438  0.4492  0.6827 -1.7794
  650MOL0     H89654   8.350   5.353   4.328  2.1761 -2.0569  0.4269
  650MOL0     H89655   8.321   5.450   4.464  2.1436  1.1690 -1.2890
  650MOL0     H89656   8.418   5.245   4.610 -3.0021  2.2768  0.9845
  650MOL0     H89657   8.491   5.197   4.448  1.5652 -1.3807  1.7054
  650MOL0     H89658   8.550   5.586   4.389 -1.1743 -0.6429 -0.8193
  650MOL0     H89659   8.645   5.761   4.281 -1.6598 -1.4651 -0.6659
  650MOL0     H89660   8.700   5.729   4.126  0.5218 -2.3618  0.3798
  650MOL0     H89661   8.817   5.750   4.258  0.3409 -1.2670 -0.2078
  650MOL0     H89662   9.292   5.398   4.321 -4.1044 -0.3899 -0.0116
  650MOL0     H89663   9.511   5.485   4.241  1.2786  0.4359 -2.6280
  650MOL0     H89664   9.581   5.762   4.097  1.5060  1.9971 -1.3250
  650MOL0     H89665   9.654   5.622   4.190 -2.0968 -1.4296 -0.4814
  650MOL0     H89666   9.843   5.727   4.106 -0.6437  2.1157 -0.9671
  650MOL0     H89667   9.823   5.589   4.003  2.2757  0.8523 -0.0404
  650MOL0     H89668   9.699   5.753   3.844  0.2812 -0.9707  0.4100
  650MOL0     H89669   9.870   5.776   3.850  0.1151  2.7454 -0.1375
  650MOL0     H89670   9.874   5.943   4.013 -0.1885 -0.1398 -0.4419
  650MOL0     H89671   9.695   5.962   3.992  0.7116  2.3370 -1.0341
  650MOL0     H89672   9.905   5.987   3.780 -0.7616 -1.5445 -0.4981
  650MOL0     H89673   9.730   5.991   3.744  0.1515  0.0745 -0.4849
  650MOL0     H89674   9.879   6.194   3.913  1.0637 -2.0978 -1.0419
  650MOL0     H89675   9.701   6.205   3.872  0.9277  3.8088 -0.7069
  650MOL0     H89676   9.762   6.215   3.644 -1.0252  0.7282  1.3634
  650MOL0     H89677   9.944   6.218   3.680  2.6282 -0.9543  3.7187
  650MOL0     H89678   9.842   6.445   3.637 -1.7258 -0.5412 -1.1584
  650MOL0     H89679   9.921   6.421   3.798  1.6758  0.8146 -2.3811
  650MOL0     H89680   9.374   5.570   3.856 -0.7461 -1.0711  0.8266
  650MOL0     H89681   9.134   5.505   3.936 -2.9339 -0.8161  1.6782
  650MOL0     H89682   8.913   5.264   4.297 -0.0500  1.5090 -1.6423
  650MOL0     H89683   8.737   5.214   4.461 -2.1105  0.2152 -0.0169
  650MOL0     H89684   7.184   6.360   5.110  0.1303  3.1980  0.8681
  650MOL0     H89685   7.018   6.511   5.097  0.1487  2.9519 -0.4924
  650MOL0     H89686   6.676   6.606   4.800  2.3056  0.0329 -0.4080
  650MOL0     H89687   6.466   6.695   4.700 -0.1220  1.0918 -1.0650
  650MOL0     H89688   6.352   6.881   4.804 -1.3338  0.1150  0.2558
  650MOL0     H89689   6.318   7.040   4.748  0.6282 -0.8588  2.1030
  650MOL0     H89690   6.110   6.907   4.743 -2.5429 -0.7398 -1.2711
  650MOL0     H89691   6.180   6.788   4.639  0.4781  1.0167  0.4930
  650MOL0     H89692   6.213   6.957   4.460  0.0988  2.7738 -0.7240
  650MOL0     H89693   6.041   6.925   4.499 -0.7143  1.3543  1.4992
  650MOL0     H89694   6.061   7.152   4.473  1.8923 -0.6789 -2.1908
  650MOL0     H89695   6.207   7.165   4.565  2.0847 -2.5631 -1.1402
  650MOL0     H89696   5.858   7.156   4.834 -0.4361 -1.5438 -1.2685
  650MOL0     H89697   6.642   7.066   4.611 -0.2281 -0.3737 -0.8086
  650MOL0     H89698   6.868   7.109   4.646 -1.2814  2.3030  3.7209
  650MOL0     H89699   6.940   7.053   4.795  1.9437  0.1470 -0.9081
  650MOL0     H89700   6.975   6.968   4.661  1.4145 -1.0007  2.4226
  651MOL0     O89701   0.848   6.665   2.924  0.0087  1.0459  0.5190
  651MOL0     C89702   0.797   6.765   2.977  0.5628  0.7064 -0.0053
  651MOL0     O89703   0.711   6.765   3.077  0.9236  0.6710  0.9957
  651MOL0     C89704   0.641   6.653   3.109  0.0863 -0.1771 -0.2406
  651MOL0     C89705   0.676   6.595   3.231  0.6688 -0.8052  0.2054
  651MOL0     C89706   0.620   6.484   3.275  0.2762 -0.0032 -0.0882
  651MOL0     C89707   0.501   6.425   3.213  0.2489 -0.1629  0.5478
  651MOL0     O89708   0.456   6.308   3.267  0.0957 -0.0363  0.1237
  651MOL0     C89709   0.323   6.270   3.233 -0.7080 -0.0408 -0.2507
  651MOL0     C89710   0.277   6.178   3.344 -0.1440  0.2170 -1.0062
  651MOL0     C89711   0.262   6.274   3.462 -0.0527 -0.0224  0.8370
  651MOL0     C89712   0.273   6.188   3.592 -0.8043  0.4781 -0.3304
  651MOL0     C89713   0.152   6.099   3.598 -0.7325  0.5625 -0.1793
  651MOL0     C89714   0.128   6.037   3.735  0.1155  0.5184 -0.0825
  651MOL0     C89715  -0.021   5.993   3.736  0.3671  0.4258 -0.2059
  651MOL0     C89716  -0.044   5.923   3.869  0.7638  0.1581  0.6355
  651MOL0     N89717  -0.185   5.869   3.887 -0.6149 -0.1217  0.4612
  651MOL0     C89718  -0.240   5.801   3.992  0.2039 -0.3738 -1.1056
  651MOL0     C89719  -0.367   5.770   3.951 -0.0065  0.8815  0.0919
  651MOL0     C89720  -0.452   5.675   4.024  0.4724 -0.0282 -1.2151
  651MOL0     C89721  -0.552   5.758   4.114  0.1501 -0.0831 -0.7145
  651MOL0     C89722  -0.482   5.813   4.247  0.3762  0.7146  0.3292
  651MOL0     C89723  -0.554   5.934   4.311  0.6798  1.2105  0.3028
  651MOL0     O89724  -0.553   6.059   4.244 -0.3552 -0.2436 -0.1189
  651MOL0     C89725  -0.444   6.141   4.254  0.8205 -1.0593 -0.1652
  651MOL0     C89726  -0.410   6.218   4.361 -0.1854  0.1126  0.1370
  651MOL0     C89727  -0.299   6.303   4.361  0.7389  0.2519  0.0059
  651MOL0     C89728  -0.283   6.382   4.502  0.2912  0.6331  0.4306
  651MOL0     C89729  -0.225   6.316   4.242 -1.2570  0.2533 -1.0255
  651MOL0     C89730  -0.101   6.397   4.243 -0.0794  0.5198 -0.6719
  651MOL0     O89731  -0.031   6.380   4.362 -0.2958 -0.4278 -0.0777
  651MOL0     C89732   0.085   6.447   4.361 -0.6249  0.1140 -0.3161
  651MOL0     C89733   0.104   6.562   4.443  0.0823  1.0719 -0.7116
  651MOL0     C89734   0.221   6.632   4.449  0.2700  0.1075 -0.4226
  651MOL0     C89735   0.329   6.598   4.372 -0.0572  0.5505  0.7854
  651MOL0     O89736   0.438   6.676   4.368  1.0760 -0.4101  0.2447
  651MOL0     C89737   0.559   6.622   4.315  0.1324 -0.0432 -0.5966
  651MOL0     C89738   0.647   6.740   4.285  0.0319  0.6446 -0.6138
  651MOL0     C89739   0.758   6.703   4.182  0.4757  0.3604 -0.2458
  651MOL0     C89740   0.813   6.835   4.117 -0.1160 -0.5808 -0.3157
  651MOL0     C89741   0.956   6.811   4.068 -0.0220  0.3328  0.5303
  651MOL0     C89742   1.033   6.927   4.005 -0.1511  0.4504 -0.2323
  651MOL0     C89743   1.143   6.872   3.918 -0.2633  0.0934  1.0170
  651MOL0     C89744   1.248   6.800   3.998  0.9542  0.3688  0.3165
  651MOL0    Cl89745   1.374   6.715   3.877 -0.1412  0.2272  0.2384
  651MOL0     C89746   0.313   6.485   4.291 -0.3378 -0.0001 -0.5309
  651MOL0     C89747   0.192   6.407   4.279  0.3095  0.0305 -0.6533
  651MOL0     O89748  -0.083   6.476   4.153  0.3652 -0.1343  0.1528
  651MOL0     C89749  -0.257   6.238   4.131  0.9264  0.7571 -0.5839
  651MOL0     C89750  -0.362   6.148   4.139  0.2319  0.5096 -0.8593
  651MOL0     N89751  -0.387   5.810   3.821  0.1366 -1.4253  0.6012
  651MOL0     N89752  -0.278   5.867   3.787 -0.4321 -0.0426  0.4512
  651MOL0     C89753   0.462   6.486   3.092 -0.1578  0.7645  0.2099
  651MOL0     C89754   0.533   6.594   3.041  0.8343  0.0678  0.0109
  651MOL0     C89755   0.821   6.896   2.903 -0.5335 -0.1718  0.2122
  651MOL0     C89756   0.792   7.017   2.982  0.4425 -0.6077  0.5929
  651MOL0     C89757   0.815   7.148   2.940 -0.8897 -0.5583 -0.3090
  651MOL0     C89758   0.883   7.171   2.823 -0.3753  0.0884  0.5614
  651MOL0     O89759   0.927   7.297   2.808 -0.7274 -0.1160  0.2422
  651MOL0     C89760   1.067   7.321   2.759  1.1320  0.8773 -0.0914
  651MOL0     C89761   1.060   7.455   2.679 -0.5026 -0.0049 -0.3368
  651MOL0     C89762   1.207   7.511   2.664  0.7787 -0.4041  0.2038
  651MOL0     C89763   1.195   7.620   2.566 -0.0406  0.1656  0.3470
  651MOL0     C89764   1.328   7.689   2.570  0.2891 -0.2222  1.0677
  651MOL0     C89765   1.439   7.740   2.559  0.8284  0.7244 -0.3783
  651MOL0     C89766   0.920   7.054   2.747  1.3369  0.7752 -0.8421
  651MOL0     C89767   0.892   6.919   2.778  0.0589  0.5658 -1.0250
  651MOL0     C89768   0.930   6.811   2.677  0.6108 -0.4446 -0.5661
  651MOL0     H89769   0.756   6.644   3.286  1.4318 -2.5504  0.6944
  651MOL0     H89770   0.660   6.430   3.360  2.6448  1.3853 -0.2467
  651MOL0     H89771   0.321   6.213   3.140  3.6912  0.1304 -0.6683
  651MOL0     H89772   0.262   6.360   3.226 -0.9298 -0.0882  0.8363
  651MOL0     H89773   0.173   6.149   3.327 -0.6145  0.0314  1.7261
  651MOL0     H89774   0.341   6.091   3.360  1.8853  2.1784  3.4005
  651MOL0     H89775   0.337   6.352   3.470 -0.3464  0.1273  2.3870
  651MOL0     H89776   0.167   6.328   3.452 -0.5201 -0.1933  3.6080
  651MOL0     H89777   0.366   6.131   3.601 -1.4757 -0.6917 -0.6551
  651MOL0     H89778   0.279   6.262   3.673  0.0838  0.7245 -0.6009
  651MOL0     H89779   0.164   6.018   3.525 -0.2326  1.9782 -1.7208
  651MOL0     H89780   0.066   6.160   3.568 -0.1816  0.4691 -2.0968
  651MOL0     H89781   0.193   5.949   3.744 -0.7634 -0.1879 -0.4721
  651MOL0     H89782   0.151   6.107   3.816 -0.7309  0.0592  0.5903
  651MOL0     H89783  -0.038   5.919   3.657 -0.9370  3.3321 -2.8507
  651MOL0     H89784  -0.091   6.075   3.720 -3.7368 -2.6933  0.0682
  651MOL0     H89785   0.031   5.844   3.878  3.1209  1.7631 -2.5890
  651MOL0     H89786  -0.018   6.000   3.943 -0.9208  1.2375  0.1549
  651MOL0     H89787  -0.192   5.758   4.080  0.5049  0.6445 -0.7621
  651MOL0     H89788  -0.400   5.609   4.094 -2.2231  0.6687  1.6611
  651MOL0     H89789  -0.500   5.601   3.960  2.0182 -2.6871  0.5099
  651MOL0     H89790  -0.593   5.841   4.057 -1.2298 -1.2816 -1.5510
  651MOL0     H89791  -0.641   5.695   4.123 -0.4246  0.1074 -4.0337
  651MOL0     H89792  -0.482   5.736   4.324  0.6180 -0.3448 -0.7123
  651MOL0     H89793  -0.379   5.842   4.224  1.6647 -2.4515  1.5830
  651MOL0     H89794  -0.659   5.908   4.325  0.9448 -0.7303 -0.9084
  651MOL0     H89795  -0.506   5.948   4.408 -0.5423  1.4681  0.8910
  651MOL0     H89796  -0.474   6.209   4.449 -0.4095 -0.0783 -0.0421
  651MOL0     H89797  -0.185   6.361   4.546  2.3305 -0.5245 -4.0756
  651MOL0     H89798  -0.370   6.359   4.563 -0.1522  0.0753 -0.3942
  651MOL0     H89799  -0.288   6.488   4.476  0.6059  0.5074 -0.1586
  651MOL0     H89800   0.012   6.588   4.493 -0.1318 -0.6670 -0.1260
  651MOL0     H89801   0.227   6.723   4.509  0.1001 -1.6052  2.3346
  651MOL0     H89802   0.598   6.560   4.396  1.2657  0.4321 -0.7527
  651MOL0     H89803   0.544   6.566   4.222  0.1292  1.2441 -1.4061
  651MOL0     H89804   0.586   6.824   4.249 -0.8834 -0.6701 -2.2877
  651MOL0     H89805   0.699   6.769   4.377 -0.8800  0.4619 -0.0250
  651MOL0     H89806   0.717   6.651   4.095 -0.9568  1.4915 -0.2981
  651MOL0     H89807   0.828   6.640   4.237 -1.3672 -0.2715  1.4718
  651MOL0     H89808   0.815   6.908   4.198 -0.8116 -0.5420 -0.3256
  651MOL0     H89809   0.744   6.876   4.044 -0.8084 -3.1638 -1.2333
  651MOL0     H89810   1.009   6.767   4.153  0.8096 -0.8640 -0.5687
  651MOL0     H89811   0.953   6.736   3.988  3.3006 -0.2765  0.8222
  651MOL0     H89812   1.068   6.991   4.087 -2.4723  0.3420  0.9253
  651MOL0     H89813   0.971   6.995   3.946  2.6682  1.9032 -1.7340
  651MOL0     H89814   1.179   6.958   3.860 -0.1972 -1.7727 -1.8670
  651MOL0     H89815   1.110   6.812   3.833 -2.6956  1.1673  1.1215
  651MOL0     H89816   1.198   6.726   4.062  1.1620 -0.3767 -0.3678
  651MOL0     H89817   1.308   6.871   4.055  1.9737  1.9466 -2.5381
  651MOL0     H89818   0.388   6.443   4.225 -1.3869 -1.9280 -0.5579
  651MOL0     H89819   0.167   6.337   4.200  1.1788 -1.6873  0.5175
  651MOL0     H89820  -0.198   6.254   4.042  1.5312 -2.4269 -0.8500
  651MOL0     H89821  -0.380   6.077   4.059 -2.7413 -0.0901  0.2153
  651MOL0     H89822   0.383   6.445   3.030  0.1591 -0.0531  0.3328
  651MOL0     H89823   0.500   6.626   2.942  1.0244 -0.7721 -0.3367
  651MOL0     H89824   0.737   7.010   3.076 -2.0940  1.9072 -0.5768
  651MOL0     H89825   0.786   7.231   3.005  1.4623 -0.2518  0.4714
  651MOL0     H89826   1.135   7.336   2.843  1.5959 -1.0550 -0.0679
  651MOL0     H89827   1.110   7.235   2.707  1.3192  2.0924 -2.0313
  651MOL0     H89828   0.999   7.523   2.739 -0.7366  0.6084 -1.2476
  651MOL0     H89829   1.018   7.434   2.580 -1.5446 -3.1511  0.6540
  651MOL0     H89830   1.248   7.543   2.760 -0.5600  0.9523  0.3622
  651MOL0     H89831   1.288   7.443   2.633  0.5682 -0.0468 -1.1997
  651MOL0     H89832   1.119   7.697   2.582 -0.4108 -0.2919  0.8117
  651MOL0     H89833   1.175   7.578   2.467 -0.3617  0.6519  0.2010
  651MOL0     H89834   1.537   7.768   2.525  1.3573  0.0520  0.5315
  651MOL0     H89835   0.977   7.057   2.655 -0.4174 -1.4895 -2.0854
  651MOL0     H89836   1.020   6.764   2.716 -0.9995 -1.0455  2.8248
  651MOL0     H89837   0.854   6.732   2.673 -0.4196  0.5118 -0.4867
  651MOL0     H89838   0.950   6.851   2.577 -0.6311  1.9456  0.0579
  652MOL0     O89839   7.268   5.122   9.521  0.4987 -0.3361 -0.2030
  652MOL0     C89840   7.263   5.053   9.419  0.5670 -0.3657 -0.1181
  652MOL0     O89841   7.364   5.030   9.338  0.4074 -0.4160  0.1854
  652MOL0     C89842   7.473   5.110   9.348 -0.8857  0.1195 -0.2275
  652MOL0     C89843   7.481   5.239   9.297  0.3578  0.3606  0.7122
  652MOL0     C89844   7.602   5.306   9.307  0.1866  0.1382  0.8757
  652MOL0     C89845   7.715   5.248   9.364 -0.8083  0.3383  0.0376
  652MOL0     O89846   7.834   5.320   9.366  0.2053  0.4519 -0.4504
  652MOL0     C89847   7.958   5.259   9.343 -0.2151 -0.4602 -0.3261
  652MOL0     C89848   7.967   5.163   9.230  0.3117 -0.6219 -0.5606
  652MOL0     C89849   8.110   5.118   9.244 -0.8763  0.0571 -0.0107
  652MOL0     C89850   8.135   5.020   9.132  0.2396  0.1595  0.5673
  652MOL0     C89851   8.275   4.952   9.150  0.1426 -0.1363 -0.8000
  652MOL0     C89852   8.401   5.026   9.093 -0.1075  0.6932  0.0769
  652MOL0     C89853   8.522   4.931   9.108  0.1072 -0.4923  0.7089
  652MOL0     C89854   8.614   4.948   8.979 -0.0720  0.4388 -0.1231
  652MOL0     N89855   8.741   4.882   9.006 -0.5344 -0.5128  0.1589
  652MOL0     C89856   8.763   4.754   9.058  0.4630 -0.6151 -0.5196
  652MOL0     C89857   8.896   4.749   9.082 -0.3449  0.1678 -0.0632
  652MOL0     C89858   8.969   4.650   9.158 -0.8661  0.3933 -0.3278
  652MOL0     C89859   9.041   4.709   9.282 -0.2331 -1.0363 -0.7982
  652MOL0     C89860   9.117   4.592   9.341  0.7875 -0.1866  0.9422
  652MOL0     C89861   9.210   4.627   9.463 -0.0504 -0.2137 -0.2894
  652MOL0     O89862   9.276   4.511   9.512  0.3918 -0.3032  0.1410
  652MOL0     C89863   9.411   4.520   9.533  0.5042  0.6004 -1.2510
  652MOL0     C89864   9.486   4.400   9.534  0.6757 -0.6700  0.5439
  652MOL0     C89865   9.620   4.392   9.557  0.2316  0.4811 -0.5113
  652MOL0     C89866   9.675   4.247   9.566 -0.9697 -0.2185  0.3041
  652MOL0     C89867   9.690   4.503   9.597 -0.0752 -0.2274  0.6157
  652MOL0     C89868   9.833   4.508   9.619 -1.1095 -0.1050 -0.2732
  652MOL0     O89869   9.885   4.580   9.717 -0.4132 -0.3593  0.2796
  652MOL0     C89870  10.016   4.596   9.734 -0.7453  0.1261  0.1558
  652MOL0     C89871  10.049   4.633   9.866 -0.3776 -0.2928 -0.1896
  652MOL0     C89872  10.176   4.645   9.910 -0.5065 -0.4388  0.1567
  652MOL0     C89873  10.280   4.612   9.822  0.3762  0.1118 -0.5103
  652MOL0     O89874  10.406   4.628   9.873 -0.6561  0.9325 -0.4560
  652MOL0     C89875  10.517   4.558   9.814  0.7897  0.0946  0.2378
  652MOL0     C89876  10.654   4.586   9.897  0.5596  1.6208  0.0598
  652MOL0     C89877  10.690   4.728   9.906 -0.1137  0.3094  0.4759
  652MOL0     C89878  10.766   4.769   9.783 -0.2986  0.3352 -0.3913
  652MOL0     C89879  10.842   4.902   9.787 -0.3670 -0.1469  0.4408
  652MOL0     C89880  10.959   4.909   9.886  0.3669 -0.2797 -0.2278
  652MOL0     C89881  11.048   5.036   9.879 -0.4569 -0.9171  0.4946
  652MOL0     C89882  11.180   5.015   9.963  0.0829 -0.5576 -0.1413
  652MOL0    Cl89883  11.320   5.124   9.920 -0.3473 -0.2812  0.1665
  652MOL0     C89884  10.257   4.596   9.675  0.7731  0.4154  0.4089
  652MOL0     C89885  10.120   4.588   9.638  0.0112 -0.4901 -0.7582
  652MOL0     O89886   9.898   4.427   9.554 -0.3470 -0.7512 -0.4784
  652MOL0     C89887   9.625   4.630   9.598 -1.2239 -0.1244  0.9620
  652MOL0     C89888   9.489   4.634   9.559  0.5563  0.5723  0.2315
  652MOL0     N89889   8.956   4.860   9.039 -0.1089 -0.3859  1.0005
  652MOL0     N89890   8.864   4.945   8.990  0.5260  0.7517  0.8417
  652MOL0     C89891   7.704   5.124   9.416 -0.2186  0.4385  0.6159
  652MOL0     C89892   7.588   5.054   9.407  0.5203  0.1620 -0.7162
  652MOL0     C89893   7.121   5.013   9.390 -0.3757  0.3985 -0.7325
  652MOL0     C89894   7.030   4.986   9.493  0.2748  0.2536  0.2867
  652MOL0     C89895   6.907   4.919   9.480 -0.7949 -0.7493  0.2120
  652MOL0     C89896   6.861   4.893   9.349 -0.0467  0.6068  0.8146
  652MOL0     O89897   6.743   4.819   9.323 -0.1074 -0.2867  0.5497
  652MOL0     C89898   6.621   4.863   9.382  0.5259 -0.0965  0.5220
  652MOL0     C89899   6.554   4.969   9.282  0.3618 -0.4278  0.8424
  652MOL0     C89900   6.406   5.014   9.320 -0.6104  0.1674  0.8110
  652MOL0     C89901   6.364   5.128   9.221  0.4269 -0.9216  0.3146
  652MOL0     C89902   6.415   5.253   9.273  0.8542 -0.4544 -0.0267
  652MOL0     C89903   6.452   5.360   9.313 -1.0225 -0.2121  0.4283
  652MOL0     C89904   6.943   4.931   9.247  0.1679  1.1889 -0.2695
  652MOL0     C89905   7.063   4.994   9.263  0.6118 -0.4041  1.0070
  652MOL0     C89906   7.134   5.038   9.135  0.9509  0.3160 -0.7884
  652MOL0     H89907   7.395   5.285   9.248 -0.1821 -0.2289  1.0917
  652MOL0     H89908   7.608   5.403   9.259  0.4831 -0.9389 -1.4079
  652MOL0     H89909   7.971   5.207   9.439  0.6543  0.0335 -0.1634
  652MOL0     H89910   8.032   5.339   9.329 -0.4147 -0.1717  0.2153
  652MOL0     H89911   7.904   5.075   9.243  1.4296 -1.2922  0.4504
  652MOL0     H89912   7.939   5.212   9.136 -0.8808  4.3166  1.9825
  652MOL0     H89913   8.174   5.204   9.222 -0.5882  0.1888  1.2902
  652MOL0     H89914   8.132   5.061   9.335 -1.1714  1.6656  1.0993
  652MOL0     H89915   8.059   4.941   9.136 -1.1598  1.4311  0.2906
  652MOL0     H89916   8.137   5.074   9.037  0.4833  0.2682  0.6332
  652MOL0     H89917   8.270   4.858   9.094  1.3058 -0.4884 -0.3450
  652MOL0     H89918   8.293   4.932   9.256 -2.3987  2.9556  0.3639
  652MOL0     H89919   8.376   5.067   8.995 -2.2616  1.5541  0.9117
  652MOL0     H89920   8.426   5.103   9.166  1.6829 -0.3005  0.5565
  652MOL0     H89921   8.492   4.826   9.110  1.6117 -0.9403  0.4664
  652MOL0     H89922   8.580   4.950   9.198 -1.9770 -1.8747  2.4543
  652MOL0     H89923   8.561   4.902   8.895  1.1364  1.3312 -1.4302
  652MOL0     H89924   8.629   5.055   8.958 -0.2629  0.8144  1.5102
  652MOL0     H89925   8.683   4.689   9.091 -0.7782  0.2515 -1.7253
  652MOL0     H89926   9.044   4.600   9.096  0.1873 -1.4261  2.2280
  652MOL0     H89927   8.896   4.572   9.181  0.3950 -0.6568  0.1969
  652MOL0     H89928   9.104   4.794   9.254 -1.2505  0.1971  0.5030
  652MOL0     H89929   8.966   4.755   9.347  1.6164  1.0281 -0.0205
  652MOL0     H89930   9.043   4.520   9.378  1.2394 -0.8203  0.6340
  652MOL0     H89931   9.173   4.555   9.254  1.3471  5.0727 -1.2803
  652MOL0     H89932   9.277   4.704   9.424  0.1625  0.1847  0.8154
  652MOL0     H89933   9.163   4.681   9.546  1.6764 -0.0349  0.6312
  652MOL0     H89934   9.434   4.311   9.502  0.8386  0.3307 -2.8472
  652MOL0     H89935   9.591   4.178   9.583 -0.2175 -0.8490  1.6344
  652MOL0     H89936   9.745   4.245   9.650  1.5052 -0.3184 -1.6496
  652MOL0     H89937   9.736   4.219   9.480  0.2568 -1.8204  1.6341
  652MOL0     H89938   9.968   4.643   9.936 -2.3956  0.4472 -2.4784
  652MOL0     H89939  10.195   4.667  10.015 -2.6224 -2.1087  0.9658
  652MOL0     H89940  10.493   4.453   9.795  0.8404  0.2084 -0.4790
  652MOL0     H89941  10.539   4.598   9.715 -0.0106 -2.2902 -0.9801
  652MOL0     H89942  10.648   4.538   9.995  0.2484  0.9691 -0.2749
  652MOL0     H89943  10.730   4.526   9.846  1.4984 -0.8074  3.9141
  652MOL0     H89944  10.741   4.737  10.002 -1.5825 -0.3457  1.3597
  652MOL0     H89945  10.597   4.786   9.909 -0.2452  0.2244 -1.2972
  652MOL0     H89946  10.707   4.777   9.691  0.6950 -1.2819 -1.2086
  652MOL0     H89947  10.842   4.691   9.780 -0.3793  0.1681  1.1898
  652MOL0     H89948  10.882   4.916   9.686 -1.0121 -1.2781  0.0074
  652MOL0     H89949  10.762   4.975   9.800 -0.0057  0.3144  0.0868
  652MOL0     H89950  11.023   4.821   9.869  2.4051  0.3698  3.1060
  652MOL0     H89951  10.914   4.906   9.986  2.7794  4.0139  1.2616
  652MOL0     H89952  10.997   5.125   9.918 -0.7386 -0.2774 -1.2523
  652MOL0     H89953  11.070   5.061   9.775 -1.2454 -1.8071  0.1028
  652MOL0     H89954  11.208   4.912   9.939 -1.9117 -1.4981  1.3144
  652MOL0     H89955  11.169   5.008  10.071 -3.6362  1.8938 -0.1589
  652MOL0     H89956  10.339   4.598   9.604  0.8248 -1.9990  0.3262
  652MOL0     H89957  10.101   4.571   9.533  1.0327 -0.6766 -0.9230
  652MOL0     H89958   9.685   4.720   9.609  1.1196 -1.6975  1.7594
  652MOL0     H89959   9.435   4.727   9.541 -0.8505 -0.8052 -3.6114
  652MOL0     H89960   7.788   5.076   9.467  0.8213  1.5212 -0.0212
  652MOL0     H89961   7.578   4.963   9.464 -0.5606 -0.6568 -2.1342
  652MOL0     H89962   7.066   5.018   9.591  0.3928  2.7109 -0.4833
  652MOL0     H89963   6.851   4.893   9.569  0.3948 -1.7925  0.6769
  652MOL0     H89964   6.555   4.776   9.380  0.3609  0.0156 -2.2213
  652MOL0     H89965   6.629   4.906   9.482  3.1232  3.1173 -0.8953
  652MOL0     H89966   6.556   4.934   9.178  0.0336  2.8761 -0.4251
  652MOL0     H89967   6.620   5.056   9.284  0.3928 -0.3809 -0.5935
  652MOL0     H89968   6.345   4.923   9.313 -0.2668  0.0730 -2.3239
  652MOL0     H89969   6.401   5.048   9.424 -1.2222 -1.6169  1.4120
  652MOL0     H89970   6.256   5.146   9.230  0.8140  0.9207  2.0842
  652MOL0     H89971   6.395   5.114   9.118  1.9726 -2.0028  0.8918
  652MOL0     H89972   6.481   5.455   9.352 -1.8269  0.1375  0.1970
  652MOL0     H89973   6.899   4.927   9.147 -0.8042 -1.5187  0.1618
  652MOL0     H89974   7.188   4.956   9.085  4.9118  1.7311  0.7136
  652MOL0     H89975   7.074   5.100   9.068  0.0053  1.9861  1.4488
  652MOL0     H89976   7.220   5.103   9.157 -0.9256  3.5903 -2.4188
  653MOL0     O89977   7.988   1.736   0.448 -0.5751  0.6556  0.6387
  653MOL0     C89978   7.902   1.719   0.358 -0.8818 -0.1945 -0.2108
  653MOL0     O89979   7.844   1.601   0.334  0.1391 -0.1959  0.0447
  653MOL0     C89980   7.876   1.497   0.425  0.0719 -0.9691 -0.2219
  653MOL0     C89981   7.827   1.484   0.552 -0.1754  0.2860 -0.2385
  653MOL0     C89982   7.870   1.372   0.621  0.3962 -0.2092 -0.1342
  653MOL0     C89983   7.963   1.287   0.568 -0.0899 -0.0848  0.4619
  653MOL0     O89984   8.009   1.175   0.637  0.8117 -0.3504 -0.5311
  653MOL0     C89985   8.146   1.185   0.689 -0.2166  0.1537 -0.8303
  653MOL0     C89986   8.198   1.049   0.738 -0.3242 -0.2402  0.0514
  653MOL0     C89987   8.181   0.943   0.628  0.0494  0.1153 -0.6559
  653MOL0     C89988   8.279   0.830   0.646 -0.1208 -0.5013 -0.2648
  653MOL0     C89989   8.263   0.727   0.535  0.7248  0.6404  0.4617
  653MOL0     C89990   8.386   0.650   0.496  1.0858 -0.3321 -0.3118
  653MOL0     C89991   8.420   0.545   0.596  0.0204  0.0512  0.5030
  653MOL0     C89992   8.354   0.397   0.574 -0.5218 -1.1107 -0.0314
  653MOL0     N89993   8.386   0.303   0.688  0.6477 -0.0985 -0.7840
  653MOL0     C89994   8.508   0.241   0.709 -1.0908  0.9842  1.0539
  653MOL0     C89995   8.513   0.215   0.841 -0.5589  0.1661 -0.6541
  653MOL0     C89996   8.638   0.159   0.919  0.3915 -0.3844  0.1266
  653MOL0     C89997   8.616   0.153   1.076  0.4485 -0.1726  0.2349
  653MOL0     C89998   8.709   0.046   1.138  0.1651  0.4877  0.0146
  653MOL0     C89999   8.661   0.021   1.286 -0.0135 -0.3489  0.7535
  653MOL0     O90000   8.680   0.127   1.380  0.4479 -0.0767  0.0488
  653MOL0     C90001   8.806   0.165   1.425 -0.1403 -0.0697 -0.6454
  653MOL0     C90002   8.926   0.092   1.406 -0.3935  0.7896 -0.1587
  653MOL0     C90003   9.046   0.146   1.454  0.0041 -0.5331  0.5466
  653MOL0     C90004   9.169   0.073   1.418  0.5804  0.5575  0.1154
  653MOL0     C90005   9.047   0.278   1.523  0.0020  0.8818 -0.2710
  653MOL0     C90006   9.168   0.344   1.571 -0.1823  0.9274 -0.4903
  653MOL0     O90007   9.150   0.449   1.654 -0.0793 -1.0170  0.1974
  653MOL0     C90008   9.242   0.548   1.654 -0.0441  0.1328  0.7084
  653MOL0     C90009   9.282   0.599   1.779 -0.8566  0.9963  0.4684
  653MOL0     C90010   9.394   0.699   1.779  0.7844  0.7780 -0.3851
  653MOL0     C90011   9.462   0.728   1.659  0.2883 -0.5843 -0.4653
  653MOL0     O90012   9.577   0.796   1.649  0.0810 -0.1571 -0.1854
  653MOL0     C90013   9.650   0.825   1.775  0.6081  0.1022  0.4014
  653MOL0     C90014   9.796   0.862   1.732  0.1237  0.2861 -0.2490
  653MOL0     C90015   9.879   0.748   1.667 -0.0864  0.4486  0.4949
  653MOL0     C90016  10.028   0.776   1.661  0.0348 -0.4075 -0.1364
  653MOL0     C90017  10.075   0.633   1.640 -0.5972  0.8168  0.8849
  653MOL0     C90018  10.226   0.647   1.661 -0.2621 -0.3530  0.0053
  653MOL0     C90019  10.291   0.512   1.682  0.4798 -0.3518  0.1760
  653MOL0     C90020  10.302   0.421   1.554  0.8379  0.0600 -0.0567
  653MOL0    Cl90021  10.325   0.250   1.578  0.1092 -0.1117  0.0955
  653MOL0     C90022   9.400   0.698   1.546  0.8548 -0.2310  0.6269
  653MOL0     C90023   9.294   0.611   1.539  0.3354  0.5426  0.3472
  653MOL0     O90024   9.275   0.309   1.516 -0.1807 -0.4075 -1.3100
  653MOL0     C90025   8.924   0.343   1.531  0.2110  0.7955 -0.3299
  653MOL0     C90026   8.806   0.288   1.491  0.0648 -0.1652  0.0054
  653MOL0     N90027   8.400   0.259   0.896  0.1475  0.0858 -0.9126
  653MOL0     N90028   8.323   0.299   0.803  0.6037 -0.0883 -0.2213
  653MOL0     C90029   8.003   1.297   0.439  0.1230  0.5993 -0.4591
  653MOL0     C90030   7.952   1.401   0.366  0.8088 -0.1085 -0.2505
  653MOL0     C90031   7.867   1.843   0.280  0.1031  0.3582 -0.3099
  653MOL0     C90032   7.886   1.966   0.337  0.2576  0.2262 -0.2450
  653MOL0     C90033   7.852   2.089   0.282 -0.3932 -0.4195 -0.1329
  653MOL0     C90034   7.793   2.095   0.157 -0.1476  0.2056 -0.4470
  653MOL0     O90035   7.765   2.207   0.085  0.6590 -0.8674 -0.0779
  653MOL0     C90036   7.781   2.329   0.146  0.1838 -1.0300 -0.4680
  653MOL0     C90037   7.696   2.438   0.087  1.0755  0.0795 -0.2592
  653MOL0     C90038   7.712   2.451  -0.061  0.2745  0.6426  0.5494
  653MOL0     C90039   7.635   2.578  -0.119 -0.9250  0.4091 -0.3320
  653MOL0     C90040   7.676   2.704  -0.059  0.3043 -0.4105 -0.4893
  653MOL0     C90041   7.706   2.806  -0.005 -0.2730 -0.2302 -0.1598
  653MOL0     C90042   7.772   1.968   0.098 -0.5293  0.6836 -0.4934
  653MOL0     C90043   7.811   1.848   0.155  0.0972  0.7748  0.1061
  653MOL0     C90044   7.811   1.717   0.062 -0.1367 -0.8740 -0.3130
  653MOL0     H90045   7.754   1.555   0.590 -0.3545 -0.2676  0.4900
  653MOL0     H90046   7.817   1.349   0.713  1.1988  1.0229  0.6565
  653MOL0     H90047   8.160   1.246   0.778  1.8147  0.1554 -1.1147
  653MOL0     H90048   8.210   1.219   0.607 -0.0906  0.0349 -0.7808
  653MOL0     H90049   8.303   1.057   0.768  0.8289 -2.5343 -2.7925
  653MOL0     H90050   8.142   1.019   0.827 -0.6058 -0.2318 -0.1192
  653MOL0     H90051   8.081   0.900   0.644  0.8066 -0.5204  3.7216
  653MOL0     H90052   8.196   0.989   0.531  2.4360  1.1905  0.1599
  653MOL0     H90053   8.381   0.869   0.648 -1.3136  3.0271 -1.1643
  653MOL0     H90054   8.261   0.780   0.742  0.0033  0.5347  0.3145
  653MOL0     H90055   8.225   0.761   0.438  3.6353 -0.7220 -1.2917
  653MOL0     H90056   8.185   0.656   0.565 -0.7437  1.0391 -2.1148
  653MOL0     H90057   8.381   0.599   0.399  0.2361 -1.8444  0.4735
  653MOL0     H90058   8.466   0.723   0.484  1.7552 -0.5966  2.0391
  653MOL0     H90059   8.399   0.581   0.697  3.2476  3.3982  0.2173
  653MOL0     H90060   8.529   0.533   0.596 -0.0812 -2.0177  3.5321
  653MOL0     H90061   8.246   0.399   0.557 -0.3517  2.4036 -1.7818
  653MOL0     H90062   8.396   0.358   0.481  1.0024  3.1384 -1.3729
  653MOL0     H90063   8.586   0.229   0.635 -2.2921 -2.0125  0.0821
  653MOL0     H90064   8.724   0.225   0.906  2.6837 -2.8794  1.7116
  653MOL0     H90065   8.665   0.056   0.894 -0.0729 -1.3495  3.1920
  653MOL0     H90066   8.636   0.247   1.127 -1.9821  0.2952  0.4569
  653MOL0     H90067   8.514   0.118   1.095  0.1234  2.1796  3.6667
  653MOL0     H90068   8.682  -0.047   1.088 -1.3216  1.1457 -0.4712
  653MOL0     H90069   8.816   0.070   1.129  0.6394 -1.2475  0.6966
  653MOL0     H90070   8.555   0.001   1.269 -0.5698  0.6610  2.7626
  653MOL0     H90071   8.699  -0.071   1.330  1.4229 -0.2900 -0.2694
  653MOL0     H90072   8.913  -0.007   1.363 -1.4328  0.7894  0.1220
  653MOL0     H90073   9.144  -0.020   1.366 -0.8056 -0.4055  2.3406
  653MOL0     H90074   9.226   0.045   1.507 -1.0179  2.1980  1.7442
  653MOL0     H90075   9.225   0.139   1.351 -1.4720  2.9050  0.5697
  653MOL0     H90076   9.242   0.571   1.875 -1.1129  2.3860  0.7898
  653MOL0     H90077   9.431   0.735   1.874 -0.4180 -1.0713  0.8428
  653MOL0     H90078   9.599   0.904   1.832 -2.3914 -0.4234 -1.3350
  653MOL0     H90079   9.666   0.731   1.829 -0.0872 -1.2126 -1.5748
  653MOL0     H90080   9.793   0.940   1.655  1.9532  0.9729  0.3246
  653MOL0     H90081   9.853   0.894   1.819  0.2278 -0.5355  0.0005
  653MOL0     H90082   9.845   0.718   1.567 -0.0456 -3.8851  1.5965
  653MOL0     H90083   9.868   0.666   1.738  1.0586 -0.7379 -0.6235
  653MOL0     H90084  10.047   0.809   1.764  3.0103 -1.4758 -0.2397
  653MOL0     H90085  10.056   0.848   1.584  0.7461 -1.4548 -0.8942
  653MOL0     H90086  10.039   0.563   1.717  1.8829  0.3166  1.6641
  653MOL0     H90087  10.049   0.603   1.538  1.4729 -0.8768  0.7731
  653MOL0     H90088  10.245   0.717   1.743 -0.8378 -0.3574  0.1497
  653MOL0     H90089  10.270   0.692   1.571  0.7360  0.0352  0.6712
  653MOL0     H90090  10.233   0.467   1.762  0.9842  1.8115  1.8795
  653MOL0     H90091  10.387   0.542   1.725 -0.9220  2.8158  1.4257
  653MOL0     H90092  10.389   0.447   1.494  1.9225 -2.9766  0.0062
  653MOL0     H90093  10.215   0.429   1.489 -0.1092 -1.2802  0.9755
  653MOL0     H90094   9.447   0.720   1.451  0.4496 -1.9576 -0.0054
  653MOL0     H90095   9.263   0.573   1.442  0.0002  1.7914 -0.0557
  653MOL0     H90096   8.918   0.445   1.570  0.3253 -0.2451  2.6626
  653MOL0     H90097   8.720   0.351   1.510  1.1649  0.7959  2.0959
  653MOL0     H90098   8.067   1.232   0.379 -0.1426  2.0383 -2.3913
  653MOL0     H90099   7.983   1.401   0.262 -0.4288  2.2586 -0.6676
  653MOL0     H90100   7.935   1.970   0.435  3.3905  0.0010 -1.6727
  653MOL0     H90101   7.868   2.184   0.333 -0.1065 -1.1836  1.2257
  653MOL0     H90102   7.751   2.324   0.251  0.4378  0.8176 -0.2752
  653MOL0     H90103   7.887   2.358   0.145 -0.8404  3.4323  0.2436
  653MOL0     H90104   7.728   2.530   0.137  1.5778  0.7588 -1.7452
  653MOL0     H90105   7.593   2.408   0.110  1.4080 -1.3073 -0.4762
  653MOL0     H90106   7.816   2.461  -0.093  0.1048 -3.5203 -2.0498
  653MOL0     H90107   7.669   2.360  -0.103  1.4569  0.2763  0.0894
  653MOL0     H90108   7.529   2.569  -0.095 -0.7468  2.0582  1.3414
  653MOL0     H90109   7.644   2.585  -0.227 -0.1958 -4.5392 -0.8417
  653MOL0     H90110   7.724   2.909   0.021 -1.0593  0.1001 -0.8568
  653MOL0     H90111   7.722   1.978   0.001  0.3004 -1.0776 -1.1392
  653MOL0     H90112   7.835   1.747  -0.040 -1.2291  0.5636 -0.1653
  653MOL0     H90113   7.882   1.639   0.094  2.3463  1.8757  1.3613
  653MOL0     H90114   7.709   1.678   0.049 -1.6808  1.7936  2.5082
  654MOL0     O90115   3.923   9.379  11.214 -0.8890  0.2681 -0.2721
  654MOL0     C90116   3.842   9.303  11.272  0.5783  0.8207  0.7365
  654MOL0     O90117   3.865   9.179  11.317 -0.8137  0.8220 -0.4262
  654MOL0     C90118   3.981   9.107  11.268  0.3487  0.4410 -0.4263
  654MOL0     C90119   4.037   9.014  11.355 -0.0413 -0.3919  0.2594
  654MOL0     C90120   4.150   8.939  11.321  0.2656  0.3899  1.4382
  654MOL0     C90121   4.216   8.955  11.191  0.1388  0.2693 -0.5766
  654MOL0     O90122   4.322   8.888  11.150 -0.5495  0.5796  0.5724
  654MOL0     C90123   4.405   8.834  11.253  0.1447  0.8146  0.4774
  654MOL0     C90124   4.542   8.831  11.189 -0.1482 -0.6112  0.1642
  654MOL0     C90125   4.651   8.781  11.282  0.3735 -0.4146  0.0635
  654MOL0     C90126   4.708   8.899  11.372  0.2078 -0.9672  1.0879
  654MOL0     C90127   4.850   8.933  11.325  0.3755 -0.2075  0.6958
  654MOL0     C90128   4.912   9.030  11.415 -0.0634  0.1364  0.5355
  654MOL0     C90129   5.037   9.096  11.351  0.1711 -0.4774  0.6859
  654MOL0     C90130   5.120   9.184  11.448  0.3527  0.2168 -1.1293
  654MOL0     N90131   5.245   9.220  11.381  0.1414 -0.6540 -0.0377
  654MOL0     C90132   5.280   9.344  11.323  0.2786  0.9013  0.6316
  654MOL0     C90133   5.408   9.322  11.268  0.0965  0.3892 -0.0830
  654MOL0     C90134   5.495   9.435  11.227  0.6861  0.5948 -0.8064
  654MOL0     C90135   5.591   9.486  11.324  0.4487  0.0784 -0.1350
  654MOL0     C90136   5.711   9.553  11.254 -0.5499  0.9706 -0.6113
  654MOL0     C90137   5.684   9.690  11.193 -0.5553 -0.0256 -0.1898
  654MOL0     O90138   5.812   9.744  11.157 -0.3683 -0.5455  0.4211
  654MOL0     C90139   5.822   9.876  11.137 -0.5131 -0.6638 -0.8915
  654MOL0     C90140   5.721   9.966  11.154 -0.6736 -0.0533  0.1658
  654MOL0     C90141   5.739  10.107  11.124  0.8764 -0.6550  0.2237
  654MOL0     C90142   5.617  10.193  11.142 -0.9665  0.5241 -0.3215
  654MOL0     C90143   5.869  10.150  11.093  0.1698  0.2894 -0.3201
  654MOL0     C90144   5.905  10.290  11.058  0.2672  0.0446  0.1186
  654MOL0     O90145   5.824  10.388  11.101 -0.5254  0.1104  0.4422
  654MOL0     C90146   5.845  10.516  11.056 -1.6321  1.4630 -0.2828
  654MOL0     C90147   5.858  10.617  11.150  0.1239  0.6669 -0.0268
  654MOL0     C90148   5.899  10.745  11.113  0.7576 -0.2258  0.8574
  654MOL0     C90149   5.924  10.781  10.976 -0.0193  0.2930 -0.8684
  654MOL0     O90150   5.969  10.909  10.951  0.9622 -0.0089 -0.6534
  654MOL0     C90151   6.034  10.937  10.828 -0.1808 -0.8954 -0.2854
  654MOL0     C90152   6.101  11.065  10.832  0.1889 -0.2525 -0.5075
  654MOL0     C90153   6.221  11.071  10.921 -0.7808 -0.5167 -0.3831
  654MOL0     C90154   6.264  11.215  10.951 -0.1860 -0.1434 -0.8499
  654MOL0     C90155   6.411  11.223  10.993 -0.2668 -0.2046  0.6362
  654MOL0     C90156   6.464  11.365  11.020 -0.9279  0.1685 -0.9290
  654MOL0     C90157   6.617  11.344  11.040  0.0273  0.2798  1.1856
  654MOL0     C90158   6.684  11.430  11.139 -0.7486 -0.0266 -0.1883
  654MOL0    Cl90159   6.608  11.394  11.306  0.1242  0.0939  0.3775
  654MOL0     C90160   5.908  10.678  10.880  0.4799 -0.3470 -0.0639
  654MOL0     C90161   5.872  10.550  10.919  0.6860  1.0386 -0.0000
  654MOL0     O90162   6.013  10.306  10.997 -0.2921  0.1999 -0.4466
  654MOL0     C90163   5.971  10.050  11.084 -1.0088 -0.2949  0.2999
  654MOL0     C90164   5.950   9.921  11.097 -0.0504  1.2414  0.9459
  654MOL0     N90165   5.442   9.191  11.293  0.3544 -0.1564 -0.7612
  654MOL0     N90166   5.347   9.132  11.358 -0.5617 -0.2027 -0.5432
  654MOL0     C90167   4.166   9.056  11.108  0.0539 -0.1046 -0.1518
  654MOL0     C90168   4.049   9.129  11.145 -0.0705 -0.1270 -0.3422
  654MOL0     C90169   3.717   9.372  11.318 -0.4053  0.6962  0.0082
  654MOL0     C90170   3.588   9.311  11.304  0.4703 -0.5642  0.3859
  654MOL0     C90171   3.475   9.365  11.354 -0.0077 -0.2749  0.5030
  654MOL0     C90172   3.482   9.489  11.424  0.5766  0.3371 -0.6530
  654MOL0     O90173   3.365   9.545  11.471  0.1341  0.2714 -0.4244
  654MOL0     C90174   3.361   9.664  11.552  0.5253 -0.4439 -0.2015
  654MOL0     C90175   3.427   9.638  11.695  0.3135 -0.4307  0.5534
  654MOL0     C90176   3.320   9.581  11.788 -0.2903  0.3108 -0.1868
  654MOL0     C90177   3.370   9.559  11.937 -0.2915 -0.4328  0.4755
  654MOL0     C90178   3.278   9.456  11.996 -0.0052 -0.7834  0.0781
  654MOL0     C90179   3.209   9.386  12.066  0.6440  1.4299  0.1952
  654MOL0     C90180   3.611   9.552  11.438  0.4074 -0.5843  0.2507
  654MOL0     C90181   3.724   9.503  11.377 -0.2463 -0.3822  0.2913
  654MOL0     C90182   3.858   9.577  11.391 -0.3999 -0.1053  0.1939
  654MOL0     H90183   4.017   9.021  11.462  3.6873 -1.7985  1.2312
  654MOL0     H90184   4.182   8.870  11.398  0.2819 -1.1438  0.0860
  654MOL0     H90185   4.376   8.730  11.264  1.1901  0.4357 -0.2046
  654MOL0     H90186   4.399   8.891  11.346  1.1472 -1.4877  2.0358
  654MOL0     H90187   4.548   8.756  11.109 -0.1018  0.7064 -1.1038
  654MOL0     H90188   4.564   8.927  11.142  0.9191  0.3023  2.3795
  654MOL0     H90189   4.613   8.704  11.350 -0.4747 -1.2634 -1.3285
  654MOL0     H90190   4.729   8.731  11.225  0.4449 -0.7597  0.4632
  654MOL0     H90191   4.642   8.986  11.379 -0.5611 -1.6221  2.4090
  654MOL0     H90192   4.705   8.854  11.471  1.7834  0.4733  1.8317
  654MOL0     H90193   4.845   8.974  11.224  0.2278 -0.8013  0.4602
  654MOL0     H90194   4.906   8.839  11.319 -0.2513 -0.6831  1.8562
  654MOL0     H90195   4.846   9.114  11.442  1.8384  1.1757  2.2155
  654MOL0     H90196   4.940   8.990  11.513  0.2101  1.8374  1.1860
  654MOL0     H90197   5.006   9.159  11.267  2.4238 -0.1886 -0.0152
  654MOL0     H90198   5.100   9.026  11.295 -1.1302 -0.1008 -1.3735
  654MOL0     H90199   5.058   9.268  11.480 -2.3812 -1.3135 -2.0204
  654MOL0     H90200   5.140   9.120  11.534 -2.3275 -1.6333 -1.7306
  654MOL0     H90201   5.226   9.438  11.328 -3.4094 -0.9817 -0.2135
  654MOL0     H90202   5.431   9.522  11.209  1.6660  1.4840 -0.1356
  654MOL0     H90203   5.532   9.411  11.126  0.1096 -4.0403 -0.1318
  654MOL0     H90204   5.550   9.555  11.399  1.0635  3.1142 -2.3920
  654MOL0     H90205   5.630   9.400  11.379  0.4695  0.5418  0.5990
  654MOL0     H90206   5.785   9.574  11.333 -1.8369  0.3807  0.7982
  654MOL0     H90207   5.754   9.478  11.186 -0.6443  0.7338 -0.4108
  654MOL0     H90208   5.626   9.703  11.101  2.2161  2.8210 -1.7226
  654MOL0     H90209   5.647   9.758  11.270 -0.0243  1.8285 -1.5064
  654MOL0     H90210   5.623   9.930  11.186 -2.0255 -0.3986 -3.7177
  654MOL0     H90211   5.644  10.267  11.218  0.3107 -1.7111  1.5518
  654MOL0     H90212   5.534  10.140  11.188  0.3223 -0.4323  0.9922
  654MOL0     H90213   5.597  10.242  11.046  1.5402  0.3712 -0.9868
  654MOL0     H90214   5.835  10.591  11.252 -0.2390 -3.1296 -0.8955
  654MOL0     H90215   5.896  10.817  11.194 -2.9139  3.5828 -2.1753
  654MOL0     H90216   6.101  10.856  10.799  1.1641  0.4674 -1.1128
  654MOL0     H90217   5.952  10.938  10.756 -0.7034  0.3257  0.2849
  654MOL0     H90218   6.132  11.081  10.728 -2.6980  3.0867 -1.0648
  654MOL0     H90219   6.022  11.139  10.847 -2.9505 -2.7916 -3.0110
  654MOL0     H90220   6.305  11.030  10.864 -0.2287 -1.2273  0.9008
  654MOL0     H90221   6.196  11.022  11.016 -3.0130 -0.3138 -0.8112
  654MOL0     H90222   6.200  11.265  11.025 -1.6745 -0.7967 -1.6468
  654MOL0     H90223   6.258  11.283  10.866  0.2793  0.7866 -0.1493
  654MOL0     H90224   6.422  11.171  11.089  1.6143 -2.3444 -0.6365
  654MOL0     H90225   6.469  11.167  10.919 -1.7998 -2.5091  1.0979
  654MOL0     H90226   6.426  11.411  11.112  1.0097  1.2421 -0.6068
  654MOL0     H90227   6.463  11.438  10.940  0.1447 -1.1231 -2.1709
  654MOL0     H90228   6.661  11.359  10.941 -1.2468 -0.7085  0.4399
  654MOL0     H90229   6.629  11.240  11.072 -1.2393  0.4370  2.2136
  654MOL0     H90230   6.679  11.536  11.112  2.2706  0.1319 -0.4994
  654MOL0     H90231   6.792  11.416  11.147 -0.0979  3.7391 -0.5688
  654MOL0     H90232   5.932  10.704  10.778  0.1067  2.7524  0.5445
  654MOL0     H90233   5.866  10.471  10.844  3.6668 -0.7723  1.4851
  654MOL0     H90234   6.073  10.073  11.052 -1.0309 -0.0056  0.4312
  654MOL0     H90235   6.034   9.853  11.096 -1.0274 -0.0263  1.3857
  654MOL0     H90236   4.217   9.078  11.014  0.1578  1.0134  0.1533
  654MOL0     H90237   4.020   9.207  11.075 -3.0175  0.3638  1.2510
  654MOL0     H90238   3.571   9.223  11.242 -1.9204  0.7325 -0.9227
  654MOL0     H90239   3.379   9.324  11.325  1.0813 -0.9098 -2.5529
  654MOL0     H90240   3.418   9.744  11.505 -0.2674  0.2691  0.0370
  654MOL0     H90241   3.262   9.708  11.567 -0.2284 -1.5109 -1.7990
  654MOL0     H90242   3.458   9.732  11.743  0.4966  0.2218 -0.8052
  654MOL0     H90243   3.514   9.571  11.689 -0.5082 -1.5152  0.5478
  654MOL0     H90244   3.234   9.649  11.794  0.1178  0.7058  1.8147
  654MOL0     H90245   3.277   9.489  11.748 -2.3940  1.7470 -1.4219
  654MOL0     H90246   3.385   9.654  11.989  2.0793  0.6448 -1.9397
  654MOL0     H90247   3.470   9.516  11.926 -0.6376 -0.7534 -1.9705
  654MOL0     H90248   3.152   9.319  12.126  2.9042 -0.2368  0.5746
  654MOL0     H90249   3.617   9.652  11.479  0.8196 -0.0470 -1.0869
  654MOL0     H90250   3.935   9.508  11.428 -0.9364  0.2845  2.0982
  654MOL0     H90251   3.907   9.625  11.306  1.3926 -0.6843  0.8416
  654MOL0     H90252   3.848   9.652  11.470  2.7641  0.8533 -0.1519
  655MOL0     O90253   3.869   3.745   9.771  1.1141 -0.0807  0.1225
  655MOL0     C90254   3.829   3.841   9.708 -0.1285  0.1283 -0.6279
  655MOL0     O90255   3.904   3.955   9.690  0.5003  0.1762 -0.9411
  655MOL0     C90256   4.024   3.969   9.762 -0.1776 -0.0143  1.2419
  655MOL0     C90257   4.044   3.967   9.901  0.6046  0.4481 -0.5515
  655MOL0     C90258   4.161   3.987   9.979  1.2919 -0.1991  0.7015
  655MOL0     C90259   4.279   4.013   9.906  0.0908 -0.5590 -0.2693
  655MOL0     O90260   4.401   4.025   9.955 -0.0794  0.3239  0.5861
  655MOL0     C90261   4.451   3.921  10.042 -0.0136  0.4298 -0.1071
  655MOL0     C90262   4.514   3.988  10.179  0.6427 -0.4139  0.4698
  655MOL0     C90263   4.565   3.880  10.283  0.4337 -0.5449  0.2887
  655MOL0     C90264   4.679   3.928  10.377  0.5178  0.8330 -0.4556
  655MOL0     C90265   4.722   3.816  10.467 -0.3560  0.3105 -0.1431
  655MOL0     C90266   4.607   3.786  10.565  0.9777 -0.0654  0.0291
  655MOL0     C90267   4.641   3.686  10.678  0.1941  0.7160 -0.0685
  655MOL0     C90268   4.564   3.721  10.805  0.9758 -0.3761 -0.2191
  655MOL0     N90269   4.412   3.714  10.788 -0.2677  0.0263 -0.6414
  655MOL0     C90270   4.332   3.608  10.823  0.2944  1.1011  0.3794
  655MOL0     C90271   4.202   3.659  10.811 -0.6563  0.5621 -0.1564
  655MOL0     C90272   4.069   3.583  10.829  0.6296 -0.3258  0.2017
  655MOL0     C90273   4.056   3.459  10.742 -0.5764  0.6907 -0.0485
  655MOL0     C90274   4.005   3.497  10.600  0.3646  0.3227  0.3875
  655MOL0     C90275   4.006   3.381  10.499  0.7040  0.4374  0.0562
  655MOL0     O90276   3.897   3.290  10.492 -0.4103 -0.2462  0.3730
  655MOL0     C90277   3.774   3.350  10.484  1.0804 -0.3248  0.6526
  655MOL0     C90278   3.732   3.410  10.363  0.5314 -0.2092  0.0575
  655MOL0     C90279   3.607   3.466  10.342 -0.1580 -0.6428 -0.4945
  655MOL0     C90280   3.572   3.518  10.213 -1.0579  0.1286 -0.0739
  655MOL0     C90281   3.511   3.451  10.450  0.7875 -0.2838  0.8853
  655MOL0     C90282   3.366   3.489  10.441 -0.0927 -0.3464 -0.6785
  655MOL0     O90283   3.291   3.466  10.327 -0.5735 -0.2821 -0.2340
  655MOL0     C90284   3.149   3.480  10.329 -0.5871 -0.2211 -0.3931
  655MOL0     C90285   3.062   3.441  10.436  0.0231 -0.4800  0.5976
  655MOL0     C90286   2.925   3.455  10.428  0.6168  0.1673  0.2330
  655MOL0     C90287   2.872   3.527  10.318  0.1886  0.2137  0.3612
  655MOL0     O90288   2.746   3.555  10.290 -0.0564 -0.6765 -0.0805
  655MOL0     C90289   2.655   3.478  10.352  0.3676  0.2708  0.2680
  655MOL0     C90290   2.518   3.542  10.315 -0.0759  0.1527  0.2619
  655MOL0     C90291   2.424   3.539  10.437 -0.0532  0.2459  0.4313
  655MOL0     C90292   2.313   3.652  10.437  0.0900  0.0997 -0.3982
  655MOL0     C90293   2.181   3.611  10.368 -0.8813  0.0760  1.2890
  655MOL0     C90294   2.074   3.717  10.354 -0.8917 -0.2920  1.4652
  655MOL0     C90295   1.976   3.714  10.470 -0.3276  0.2021 -0.7350
  655MOL0     C90296   1.837   3.758  10.424  0.6174 -0.6796  0.1464
  655MOL0    Cl90297   1.825   3.934  10.387  0.0044  0.6150 -0.2588
  655MOL0     C90298   2.953   3.571  10.216 -0.2622 -0.1832  0.4435
  655MOL0     C90299   3.086   3.548  10.225 -0.9114  0.7269 -0.5608
  655MOL0     O90300   3.321   3.529  10.551 -0.5727  0.0075 -0.4282
  655MOL0     C90301   3.550   3.374  10.564  0.3675 -0.1619  0.6999
  655MOL0     C90302   3.679   3.326  10.582  0.0732  0.3864 -0.1247
  655MOL0     N90303   4.210   3.793  10.764 -0.5847 -0.6778  0.4157
  655MOL0     N90304   4.338   3.825  10.774  0.6342  0.4140 -0.0486
  655MOL0     C90305   4.268   4.020   9.763 -0.1570 -0.1691 -0.3810
  655MOL0     C90306   4.147   3.994   9.693  0.1442  0.0993  0.0149
  655MOL0     C90307   3.689   3.839   9.655  0.2280  0.2538  0.2631
  655MOL0     C90308   3.667   3.866   9.522 -0.5581 -0.1472 -0.0362
  655MOL0     C90309   3.538   3.869   9.463 -0.5795 -0.4371  0.0738
  655MOL0     C90310   3.420   3.855   9.540 -0.1971 -0.3642  0.8468
  655MOL0     O90311   3.296   3.857   9.469 -0.3240  0.0959 -0.3813
  655MOL0     C90312   3.177   3.838   9.552 -0.5197 -0.7857  0.6920
  655MOL0     C90313   3.038   3.840   9.480  0.2694 -0.1891 -0.5186
  655MOL0     C90314   2.915   3.861   9.581  0.0900 -0.0728  0.6800
  655MOL0     C90315   2.897   3.752   9.686 -0.0973 -0.1833  0.0501
  655MOL0     C90316   3.003   3.763   9.790  1.1102  0.3996  0.2210
  655MOL0     C90317   3.082   3.733   9.875 -1.4181 -0.8487  0.1277
  655MOL0     C90318   3.435   3.841   9.672 -0.2138  0.3601 -0.1263
  655MOL0     C90319   3.564   3.818   9.730 -0.2458 -0.3465 -1.2971
  655MOL0     C90320   3.567   3.793   9.879  0.1022  0.0563  1.0383
  655MOL0     H90321   3.955   3.932   9.952 -0.1694  0.5788 -1.7697
  655MOL0     H90322   4.152   3.990  10.087 -0.6257  2.2270  0.5453
  655MOL0     H90323   4.523   3.860   9.986 -1.8492 -2.6463  0.6296
  655MOL0     H90324   4.369   3.853  10.069  0.8958 -0.5112  0.3553
  655MOL0     H90325   4.602   4.050  10.162  0.7996 -0.4692  1.0331
  655MOL0     H90326   4.432   4.046  10.223 -2.5263 -2.1707 -2.6162
  655MOL0     H90327   4.478   3.853  10.344 -0.4889  1.1383 -0.2027
  655MOL0     H90328   4.589   3.784  10.237  3.2785 -0.1172  0.7025
  655MOL0     H90329   4.766   3.954  10.316  0.6018  0.6342 -0.4192
  655MOL0     H90330   4.649   4.023  10.424  1.2205  0.9411 -0.2054
  655MOL0     H90331   4.814   3.848  10.517 -0.8061  0.6872  0.4546
  655MOL0     H90332   4.739   3.722  10.415  0.8166  0.1281  0.5342
  655MOL0     H90333   4.562   3.878  10.602  0.5269  0.4466 -1.7041
  655MOL0     H90334   4.528   3.746  10.502  1.4598  1.0593 -1.3511
  655MOL0     H90335   4.745   3.660  10.697 -1.2515 -4.8225  2.0224
  655MOL0     H90336   4.586   3.596  10.649 -0.0540  0.4447  1.1713
  655MOL0     H90337   4.587   3.662  10.894 -0.8910  1.6752  1.7548
  655MOL0     H90338   4.585   3.826  10.828  1.5531 -1.1020  2.9232
  655MOL0     H90339   4.347   3.507  10.860 -1.4675  0.3713 -0.7585
  655MOL0     H90340   3.986   3.653  10.809 -0.0331 -0.9290  0.8118
  655MOL0     H90341   4.064   3.552  10.933 -0.0922 -2.4466 -0.4102
  655MOL0     H90342   4.155   3.413  10.735 -0.7140  0.0781  1.6277
  655MOL0     H90343   3.992   3.386  10.792  0.9879 -1.3976 -0.9708
  655MOL0     H90344   3.907   3.547  10.602 -1.0213 -2.2228  0.7170
  655MOL0     H90345   4.079   3.572  10.571 -1.1806  1.0505 -2.0255
  655MOL0     H90346   4.018   3.439  10.407 -2.6695  0.7020 -0.3663
  655MOL0     H90347   4.097   3.324  10.518  0.7109  0.4767  0.1463
  655MOL0     H90348   3.796   3.416  10.276  0.3454  0.7621 -0.0175
  655MOL0     H90349   3.585   3.440  10.137 -1.4752  0.9034 -0.9580
  655MOL0     H90350   3.645   3.597  10.195  2.2861 -2.7833 -0.4581
  655MOL0     H90351   3.471   3.559  10.200 -3.0344 -3.7736  1.2139
  655MOL0     H90352   3.094   3.407  10.534 -0.1566  2.0966  1.6104
  655MOL0     H90353   2.854   3.422  10.503 -0.1127  0.9558 -0.0903
  655MOL0     H90354   2.653   3.375  10.314 -0.5975  1.2673 -2.6199
  655MOL0     H90355   2.657   3.478  10.461 -0.7606  3.3280  0.3683
  655MOL0     H90356   2.541   3.644  10.280 -2.3967 -0.4404 -3.6728
  655MOL0     H90357   2.480   3.495  10.223  1.8270 -2.1770  0.5822
  655MOL0     H90358   2.468   3.555  10.536 -1.2941 -1.5692  1.3285
  655MOL0     H90359   2.379   3.440  10.449 -0.4188  0.4852  1.0987
  655MOL0     H90360   2.350   3.748  10.400 -1.3470  0.4741 -0.9413
  655MOL0     H90361   2.292   3.664  10.544  0.0524 -2.3093 -0.0753
  655MOL0     H90362   2.210   3.588  10.264 -4.8031 -0.6938  0.2140
  655MOL0     H90363   2.147   3.520  10.419 -1.6502 -1.4943 -1.7433
  655MOL0     H90364   2.032   3.709  10.253  3.7858  1.0124 -0.8911
  655MOL0     H90365   2.129   3.812  10.356  1.8365 -1.6168 -1.2515
  655MOL0     H90366   2.011   3.779  10.551 -3.8495  0.3363  0.8850
  655MOL0     H90367   1.979   3.616  10.518  3.2777 -0.1899 -1.5092
  655MOL0     H90368   1.766   3.731  10.502  0.7906  1.7382  1.2529
  655MOL0     H90369   1.794   3.708  10.337  0.7719  0.0304 -0.3568
  655MOL0     H90370   2.915   3.629  10.132 -0.3971 -1.4350 -0.3975
  655MOL0     H90371   3.146   3.577  10.139  3.1690  0.4092  1.9122
  655MOL0     H90372   3.480   3.350  10.643 -0.1930  2.1758  0.9871
  655MOL0     H90373   3.706   3.269  10.670  1.2649  0.3788 -0.4666
  655MOL0     H90374   4.351   4.057   9.702 -0.9899  1.1692 -0.7429
  655MOL0     H90375   4.148   4.011   9.586  1.7170 -1.3869 -0.2588
  655MOL0     H90376   3.754   3.901   9.467 -0.3710  0.0452  0.3716
  655MOL0     H90377   3.537   3.892   9.357  6.4688  0.4434 -0.2374
  655MOL0     H90378   3.169   3.744   9.607 -3.1926  0.3617  2.4867
  655MOL0     H90379   3.179   3.923   9.621 -0.1299  0.2150 -0.5195
  655MOL0     H90380   3.033   3.749   9.421  2.0900 -0.3499 -0.4822
  655MOL0     H90381   3.021   3.924   9.412 -4.1843 -2.9295 -3.2750
  655MOL0     H90382   2.925   3.958   9.631 -0.7508  0.9730 -1.0836
  655MOL0     H90383   2.827   3.863   9.516 -0.2990 -3.7234  0.9094
  655MOL0     H90384   2.898   3.654   9.637 -1.4862  0.5708 -1.5799
  655MOL0     H90385   2.805   3.786   9.734 -0.3097  3.5709 -2.5643
  655MOL0     H90386   3.152   3.735   9.956  2.5065 -1.3143 -2.9278
  655MOL0     H90387   3.346   3.827   9.732 -0.4914 -4.2818 -1.1972
  655MOL0     H90388   3.586   3.879   9.943 -0.6326  0.1202  1.1715
  655MOL0     H90389   3.478   3.738   9.911  0.6030  0.7745  3.9772
  655MOL0     H90390   3.651   3.729   9.908  1.1644  0.6311 -0.6421
  656MOL0     O90391   6.434   1.583   3.079 -0.1642 -0.3315  0.4016
  656MOL0     C90392   6.398   1.600   3.195  0.9604  0.1169 -0.2077
  656MOL0     O90393   6.346   1.500   3.264 -0.3533 -0.4143  0.2098
  656MOL0     C90394   6.324   1.379   3.205 -1.1474  0.0742 -1.0090
  656MOL0     C90395   6.417   1.309   3.130 -0.0589 -0.0693  0.7031
  656MOL0     C90396   6.394   1.179   3.082 -0.1695  0.4360  0.6390
  656MOL0     C90397   6.272   1.117   3.107 -0.5251 -0.1641 -0.7179
  656MOL0     O90398   6.226   0.999   3.054 -0.4042 -0.5869  0.2169
  656MOL0     C90399   6.313   0.935   2.964  0.9835  1.1568  0.2235
  656MOL0     C90400   6.243   0.801   2.930 -0.2104 -1.2338  0.0282
  656MOL0     C90401   6.341   0.704   2.878 -0.0721  0.1823 -0.7125
  656MOL0     C90402   6.270   0.567   2.839  0.0743 -0.0038 -0.2923
  656MOL0     C90403   6.374   0.466   2.794 -0.4487  1.5091 -0.0566
  656MOL0     C90404   6.305   0.347   2.710  0.2254  0.1442  0.3331
  656MOL0     C90405   6.407   0.272   2.617 -0.2545 -0.5107 -0.6455
  656MOL0     C90406   6.334   0.165   2.534  0.2004 -0.1805 -0.6728
  656MOL0     N90407   6.437   0.068   2.480 -0.1597 -1.0426  0.2339
  656MOL0     C90408   6.465  -0.057   2.525 -0.1584 -0.6924  0.3025
  656MOL0     C90409   6.550  -0.110   2.428 -0.5065 -0.2714 -0.4399
  656MOL0     C90410   6.590  -0.250   2.423  0.1411  0.9034  0.5610
  656MOL0     C90411   6.544  -0.339   2.307 -0.8576  0.6563 -0.1815
  656MOL0     C90412   6.587  -0.490   2.323 -0.2320 -0.9969  0.6152
  656MOL0     C90413   6.574  -0.560   2.182  0.7584 -0.7231 -0.7257
  656MOL0     O90414   6.538  -0.697   2.215  0.3136  0.3647 -0.3621
  656MOL0     C90415   6.636  -0.795   2.230  0.1459  0.5779  0.0099
  656MOL0     C90416   6.585  -0.913   2.283  1.0751 -0.6337 -0.6331
  656MOL0     C90417   6.653  -1.031   2.277 -0.6356  0.4806 -0.4220
  656MOL0     C90418   6.569  -1.163   2.295 -0.2474  0.0417  0.1517
  656MOL0     C90419   6.792  -1.032   2.244 -0.5385 -0.5863  0.0106
  656MOL0     C90420   6.873  -1.156   2.265 -0.0128  1.5915  0.4757
  656MOL0     O90421   6.836  -1.244   2.367  0.4922  0.1360  0.0468
  656MOL0     C90422   6.860  -1.380   2.357 -0.6535  0.0073  0.1198
  656MOL0     C90423   6.754  -1.472   2.356 -0.6512  0.7434 -0.7502
  656MOL0     C90424   6.783  -1.605   2.318  0.6242 -0.1789 -0.6941
  656MOL0     C90425   6.912  -1.647   2.292 -0.0323 -0.0041 -0.3625
  656MOL0     O90426   6.945  -1.779   2.267 -0.7237  0.4873 -0.5006
  656MOL0     C90427   7.048  -1.797   2.170 -0.4537  0.6123 -0.0057
  656MOL0     C90428   7.014  -1.918   2.088  0.1291  0.6436  0.2563
  656MOL0     C90429   7.105  -1.943   1.976 -0.2148 -0.1249  0.7097
  656MOL0     C90430   7.076  -2.077   1.906  0.5768  0.9321  0.6790
  656MOL0     C90431   7.166  -2.093   1.776 -0.2375  0.1270 -0.6484
  656MOL0     C90432   7.156  -2.239   1.717 -0.1927 -0.2626  0.5047
  656MOL0     C90433   7.017  -2.280   1.676 -0.3300 -0.6910 -0.0140
  656MOL0     C90434   7.025  -2.429   1.613  0.1231 -0.1877 -0.5195
  656MOL0    Cl90435   6.862  -2.503   1.592 -0.3249  0.0041  0.1369
  656MOL0     C90436   7.014  -1.560   2.310 -0.4869 -0.0858 -0.2256
  656MOL0     C90437   6.986  -1.420   2.340  0.4823  0.4293 -0.0018
  656MOL0     O90438   6.959  -1.181   2.180  0.8533 -0.2460 -0.1176
  656MOL0     C90439   6.850  -0.909   2.206 -0.0134  0.7413  0.1710
  656MOL0     C90440   6.773  -0.789   2.190  1.1227  0.0213 -0.1546
  656MOL0     N90441   6.567  -0.018   2.323  0.2594 -0.0644  0.5331
  656MOL0     N90442   6.511   0.094   2.366 -0.5735  0.7704  0.2319
  656MOL0     C90443   6.175   1.199   3.177  0.8935 -0.0235 -0.1705
  656MOL0     C90444   6.200   1.330   3.224 -0.5425 -0.2648  0.3710
  656MOL0     C90445   6.436   1.731   3.266  0.9427  1.0090  0.1307
  656MOL0     C90446   6.430   1.728   3.405  0.8526  0.3688  1.0718
  656MOL0     C90447   6.448   1.840   3.484 -0.0108 -0.1280  0.0004
  656MOL0     C90448   6.442   1.962   3.427  0.2076 -0.8280  0.2580
  656MOL0     O90449   6.467   2.076   3.496  1.0073 -0.0964 -0.7391
  656MOL0     C90450   6.459   2.208   3.433 -0.3712  0.5948 -0.2750
  656MOL0     C90451   6.512   2.318   3.528  0.4511 -0.0597 -1.3237
  656MOL0     C90452   6.495   2.461   3.468 -0.1262 -0.4213 -0.9092
  656MOL0     C90453   6.511   2.573   3.575 -0.4551 -0.0236 -0.0054
  656MOL0     C90454   6.400   2.571   3.673  0.8898 -0.5781 -0.8392
  656MOL0     C90455   6.306   2.545   3.756 -1.1119  0.1377  0.3606
  656MOL0     C90456   6.434   1.969   3.280 -0.5807  0.8070 -0.3484
  656MOL0     C90457   6.423   1.856   3.198 -0.5079  0.7492 -0.2684
  656MOL0     C90458   6.399   1.865   3.043 -0.2751  0.2579 -0.0793
  656MOL0     H90459   6.510   1.361   3.112  0.1422  0.2213  2.3982
  656MOL0     H90460   6.460   1.146   3.003 -2.5236  0.5520 -1.4959
  656MOL0     H90461   6.410   0.912   3.009 -0.5541 -3.3484  1.8048
  656MOL0     H90462   6.327   1.001   2.878 -0.1402  2.1421  0.7618
  656MOL0     H90463   6.191   0.760   3.018 -0.3555 -1.2795 -0.0789
  656MOL0     H90464   6.163   0.833   2.863  0.6967  0.4161 -0.3176
  656MOL0     H90465   6.390   0.740   2.787 -0.2038  1.2462 -0.3673
  656MOL0     H90466   6.416   0.675   2.952 -0.5107 -1.8131 -0.9949
  656MOL0     H90467   6.207   0.532   2.921 -0.5278  1.1557 -0.2391
  656MOL0     H90468   6.197   0.584   2.760 -0.9178 -1.9607  0.1419
  656MOL0     H90469   6.428   0.420   2.878 -2.0164 -0.9049 -0.2623
  656MOL0     H90470   6.450   0.518   2.735  0.1906 -2.0926 -2.7336
  656MOL0     H90471   6.245   0.284   2.777 -1.9160  2.6780  0.9319
  656MOL0     H90472   6.242   0.406   2.643  0.9054 -0.3166 -0.7403
  656MOL0     H90473   6.467   0.222   2.693 -0.8446  4.0052  3.2702
  656MOL0     H90474   6.479   0.332   2.560  0.5834 -0.7903  0.0899
  656MOL0     H90475   6.258   0.113   2.593  3.1643 -3.4642  0.5678
  656MOL0     H90476   6.286   0.217   2.450 -0.7646  0.4617  0.2437
  656MOL0     H90477   6.430  -0.097   2.620  0.8804  3.0094  2.4691
  656MOL0     H90478   6.549  -0.289   2.516  0.7601  0.8926  0.8331
  656MOL0     H90479   6.699  -0.253   2.433  0.1202 -0.9830  0.5740
  656MOL0     H90480   6.436  -0.324   2.297 -0.7454  1.1854 -0.6178
  656MOL0     H90481   6.580  -0.291   2.216  1.5247  0.2384  0.4634
  656MOL0     H90482   6.694  -0.479   2.343 -0.2072  0.5520 -0.1790
  656MOL0     H90483   6.537  -0.545   2.402  1.1091 -1.9787  0.8160
  656MOL0     H90484   6.485  -0.510   2.141 -0.5260  0.3417  2.9444
  656MOL0     H90485   6.670  -0.538   2.136  1.2124 -1.4753 -0.1551
  656MOL0     H90486   6.481  -0.912   2.314  1.4459 -3.3535  1.0368
  656MOL0     H90487   6.460  -1.152   2.297 -0.4448 -0.6002  4.8834
  656MOL0     H90488   6.588  -1.203   2.396  0.4838  2.2229  0.9298
  656MOL0     H90489   6.597  -1.225   2.210 -0.3271  0.1792  0.0250
  656MOL0     H90490   6.655  -1.435   2.382 -0.7917 -0.2189  0.2069
  656MOL0     H90491   6.700  -1.674   2.308  1.1642 -0.6713 -2.0552
  656MOL0     H90492   7.072  -1.706   2.114  1.4731 -0.1749 -0.5173
  656MOL0     H90493   7.144  -1.817   2.217 -0.0540  1.2402 -0.5491
  656MOL0     H90494   7.008  -2.004   2.155 -0.3630  0.6348  0.2088
  656MOL0     H90495   6.915  -1.899   2.045  0.9867 -0.1478 -2.2039
  656MOL0     H90496   7.203  -1.966   2.019  0.3372 -1.2782 -1.0521
  656MOL0     H90497   7.091  -1.862   1.904 -4.0389  0.2876  1.6594
  656MOL0     H90498   6.969  -2.070   1.883  0.7585 -0.2416 -0.6512
  656MOL0     H90499   7.095  -2.162   1.972  2.4929  0.2147 -0.7238
  656MOL0     H90500   7.119  -2.026   1.703 -0.6902  2.0370  1.3344
  656MOL0     H90501   7.270  -2.063   1.785 -1.0692  3.1239 -0.0523
  656MOL0     H90502   7.198  -2.306   1.793  0.0270 -2.2369 -1.2468
  656MOL0     H90503   7.232  -2.266   1.643  1.2900 -0.0656  1.9096
  656MOL0     H90504   6.980  -2.195   1.617 -0.0694  1.3034  2.5133
  656MOL0     H90505   6.950  -2.291   1.761 -1.2928  3.6087  0.0157
  656MOL0     H90506   7.087  -2.495   1.673 -0.8340 -1.5361 -0.9388
  656MOL0     H90507   7.070  -2.418   1.514 -1.2310 -1.6777 -1.3523
  656MOL0     H90508   7.118  -1.591   2.299  0.2954  2.2019  0.0286
  656MOL0     H90509   7.071  -1.353   2.345  0.1844  0.7650  0.5871
  656MOL0     H90510   6.955  -0.920   2.177 -0.0258 -0.6366  0.5722
  656MOL0     H90511   6.808  -0.702   2.136 -0.8120 -0.7378 -2.8459
  656MOL0     H90512   6.072   1.166   3.177  1.4729 -1.9835 -1.4102
  656MOL0     H90513   6.119   1.381   3.275  0.1610  0.4510  0.8007
  656MOL0     H90514   6.420   1.633   3.458  3.1167  0.3650  1.5989
  656MOL0     H90515   6.457   1.834   3.592  2.2672  1.1266 -0.0410
  656MOL0     H90516   6.522   2.215   3.343  1.5483 -1.5704  0.7950
  656MOL0     H90517   6.351   2.207   3.418 -0.9179 -0.3525  2.9241
  656MOL0     H90518   6.620   2.300   3.532  0.2262 -1.2869  0.5520
  656MOL0     H90519   6.474   2.313   3.630 -0.0473 -1.9366 -1.5631
  656MOL0     H90520   6.565   2.481   3.386 -0.0942 -0.9611 -1.0145
  656MOL0     H90521   6.397   2.467   3.420 -1.9072 -1.4910  2.2872
  656MOL0     H90522   6.520   2.675   3.536  0.0911  0.6208  1.7042
  656MOL0     H90523   6.607   2.551   3.622  0.9132  2.1863 -1.5614
  656MOL0     H90524   6.228   2.519   3.825 -1.0421 -0.6493  0.1618
  656MOL0     H90525   6.420   2.059   3.221 -0.9768  1.5513  0.8584
  656MOL0     H90526   6.386   1.967   3.006 -0.0847  0.0382 -0.7630
  656MOL0     H90527   6.482   1.822   2.987 -3.1820 -3.9249 -1.6642
  656MOL0     H90528   6.306   1.812   3.021 -1.0607  1.8855 -0.8429
  657MOL0     O90529   6.013   9.707   0.408  0.1973  0.1743 -0.1500
  657MOL0     C90530   6.068   9.613   0.473  0.1952  0.0292 -0.5693
  657MOL0     O90531   6.150   9.516   0.418 -0.0035  0.3796 -0.2049
  657MOL0     C90532   6.139   9.483   0.286  1.1089  0.7181  0.5048
  657MOL0     C90533   6.250   9.478   0.203 -0.1794 -0.2761  0.3002
  657MOL0     C90534   6.226   9.449   0.064 -1.4049  0.8038 -0.1012
  657MOL0     C90535   6.098   9.422   0.017 -0.6450 -0.4062 -0.1962
  657MOL0     O90536   6.075   9.393  -0.116  0.0248 -0.4623  0.0717
  657MOL0     C90537   6.181   9.379  -0.215  0.2118 -0.8764  0.4326
  657MOL0     C90538   6.260   9.252  -0.225 -0.5053  0.2439  0.1860
  657MOL0     C90539   6.343   9.248  -0.353 -0.1189  0.0565 -0.0909
  657MOL0     C90540   6.442   9.122  -0.359  0.3839  0.3609 -0.3172
  657MOL0     C90541   6.576   9.178  -0.424  0.7018 -0.0622 -0.6064
  657MOL0     C90542   6.677   9.063  -0.418 -1.0763  0.5266 -0.6158
  657MOL0     C90543   6.810   9.074  -0.481  0.1372  0.8146  0.5181
  657MOL0     C90544   6.797   9.055  -0.623  0.0334 -0.1815  0.7209
  657MOL0     N90545   6.934   9.054  -0.675 -0.4549 -0.1061 -1.0647
  657MOL0     C90546   7.022   9.161  -0.667 -1.0370  0.1011 -0.1061
  657MOL0     C90547   7.118   9.124  -0.756  0.4035  0.0782 -0.8872
  657MOL0     C90548   7.248   9.206  -0.784  1.5556  0.8809  0.5269
  657MOL0     C90549   7.336   9.187  -0.669 -0.4918 -0.7208 -0.3659
  657MOL0     C90550   7.477   9.241  -0.697  0.4574  0.2481  1.3776
  657MOL0     C90551   7.574   9.146  -0.770 -0.1697  0.3464  0.5729
  657MOL0     O90552   7.687   9.223  -0.789  0.0970  0.2655  0.7069
  657MOL0     C90553   7.767   9.178  -0.892  0.4553 -0.0835 -0.4478
  657MOL0     C90554   7.857   9.078  -0.851  0.3718 -0.4403  0.2447
  657MOL0     C90555   7.963   9.041  -0.935 -0.6133 -0.1269  0.0148
  657MOL0     C90556   8.043   8.920  -0.890  0.3304 -0.1521 -0.4067
  657MOL0     C90557   7.991   9.120  -1.052 -0.4000  0.5165 -0.0269
  657MOL0     C90558   8.117   9.107  -1.140  0.5957 -0.0879  0.6628
  657MOL0     O90559   8.118   9.187  -1.250 -0.7627 -0.2148 -0.4534
  657MOL0     C90560   8.215   9.156  -1.348  0.3783 -0.0297  0.3938
  657MOL0     C90561   8.351   9.116  -1.335  0.0192 -0.0520 -0.6958
  657MOL0     C90562   8.438   9.102  -1.439  0.2537  0.0767  0.5870
  657MOL0     C90563   8.397   9.130  -1.566 -0.1420 -0.3384 -0.3545
  657MOL0     O90564   8.464   9.104  -1.685  0.0699  0.0436  0.5281
  657MOL0     C90565   8.600   9.076  -1.663  0.0206  0.0907 -0.2140
  657MOL0     C90566   8.666   9.031  -1.788 -0.9738 -0.2676  0.8908
  657MOL0     C90567   8.820   9.013  -1.773  0.3851  0.4336 -0.1248
  657MOL0     C90568   8.863   8.894  -1.677  0.4834 -0.0987 -0.6585
  657MOL0     C90569   9.007   8.909  -1.647 -0.6225 -0.1456  0.5319
  657MOL0     C90570   9.073   8.798  -1.572 -0.2999  0.1020 -0.5231
  657MOL0     C90571   9.229   8.817  -1.592 -0.2216 -1.3720 -1.4087
  657MOL0     C90572   9.282   8.941  -1.527 -0.5988  0.0753 -0.6207
  657MOL0    Cl90573   9.450   8.917  -1.494 -0.0031  0.6016  0.4079
  657MOL0     C90574   8.259   9.159  -1.585 -0.5755 -0.2816 -0.4199
  657MOL0     C90575   8.166   9.172  -1.479 -0.1191 -0.7463  0.0588
  657MOL0     O90576   8.194   9.007  -1.121  0.2699 -0.1151  0.5926
  657MOL0     C90577   7.898   9.221  -1.091  0.0710 -0.0057 -0.7412
  657MOL0     C90578   7.786   9.247  -1.005  0.1327  0.1579 -1.0652
  657MOL0     N90579   7.104   8.987  -0.786 -0.0320 -0.8764 -0.2761
  657MOL0     N90580   6.995   8.951  -0.738  0.3963 -0.1447  0.1703
  657MOL0     C90581   5.988   9.433   0.101 -0.6085  0.7023 -0.1708
  657MOL0     C90582   6.010   9.461   0.234 -0.0289  0.3523 -0.7769
  657MOL0     C90583   6.070   9.615   0.621  0.2344  0.5817  0.3101
  657MOL0     C90584   6.166   9.536   0.687 -0.3754  0.6240  0.4944
  657MOL0     C90585   6.179   9.546   0.824 -0.2064  1.3557 -0.3493
  657MOL0     C90586   6.093   9.620   0.909 -0.2749 -0.5702  1.1334
  657MOL0     O90587   6.140   9.642   1.038  0.5073 -0.9177 -0.2187
  657MOL0     C90588   6.039   9.714   1.113 -0.5739  0.0835  0.2048
  657MOL0     C90589   6.092   9.730   1.254  0.1617  0.0834 -0.4796
  657MOL0     C90590   6.086   9.603   1.342 -0.2384  0.0014 -0.0718
  657MOL0     C90591   5.938   9.583   1.387  0.0370 -0.2851 -0.0792
  657MOL0     C90592   5.889   9.445   1.380  0.3390 -0.2996  0.0534
  657MOL0     C90593   5.833   9.337   1.383 -0.5923  0.6777  0.7714
  657MOL0     C90594   5.985   9.688   0.842 -1.3417 -0.6282 -0.8529
  657MOL0     C90595   5.975   9.686   0.704 -0.5126  0.2110  0.3796
  657MOL0     C90596   5.859   9.765   0.644 -0.1983  0.3010  0.5758
  657MOL0     H90597   6.349   9.498   0.242 -1.2886  3.9339  1.4858
  657MOL0     H90598   6.311   9.441  -0.002  0.6137 -1.3386  2.5726
  657MOL0     H90599   6.248   9.465  -0.208 -2.1762  1.2801 -1.1615
  657MOL0     H90600   6.128   9.401  -0.309  0.6907 -1.2663  0.0672
  657MOL0     H90601   6.312   9.226  -0.132 -0.4252  0.0068  0.0760
  657MOL0     H90602   6.191   9.166  -0.232  0.8323 -0.7919 -0.8014
  657MOL0     H90603   6.277   9.224  -0.437  2.9487  3.5030 -3.9417
  657MOL0     H90604   6.386   9.348  -0.368 -0.5708  0.1352 -0.9171
  657MOL0     H90605   6.456   9.095  -0.254  0.5622  1.1706 -0.1229
  657MOL0     H90606   6.396   9.038  -0.412  1.0543 -1.1483  1.3856
  657MOL0     H90607   6.609   9.250  -0.348 -3.1783 -0.6687  1.9604
  657MOL0     H90608   6.556   9.218  -0.524 -2.1945 -0.8625 -0.4357
  657MOL0     H90609   6.699   9.050  -0.311  0.9479  4.2232 -0.4306
  657MOL0     H90610   6.637   8.968  -0.455 -1.2676  0.9911 -1.6305
  657MOL0     H90611   6.870   8.989  -0.447 -0.1905 -0.7716 -2.5307
  657MOL0     H90612   6.875   9.160  -0.461  0.9087  0.3744 -0.0175
  657MOL0     H90613   6.758   8.953  -0.638 -0.3925  0.1374 -0.4886
  657MOL0     H90614   6.734   9.138  -0.656 -0.7985 -0.3208  1.8882
  657MOL0     H90615   7.025   9.253  -0.610  1.7424 -0.0564  0.1277
  657MOL0     H90616   7.225   9.312  -0.797  0.0789  0.3303 -2.0887
  657MOL0     H90617   7.296   9.172  -0.876  0.0212  0.0251  0.0009
  657MOL0     H90618   7.293   9.245  -0.587 -2.2206  1.6115 -2.7729
  657MOL0     H90619   7.347   9.082  -0.638  0.7054  0.3555  3.3961
  657MOL0     H90620   7.475   9.336  -0.751 -1.6338  0.7345  2.2101
  657MOL0     H90621   7.521   9.274  -0.602  3.3096 -1.0799  0.6287
  657MOL0     H90622   7.593   9.057  -0.710 -1.4901 -0.5059 -0.2315
  657MOL0     H90623   7.531   9.125  -0.868  1.4553  2.3730 -0.6650
  657MOL0     H90624   7.841   9.029  -0.755  0.5658 -0.8166  0.0870
  657MOL0     H90625   8.028   8.843  -0.965 -0.4670  0.5992 -1.0427
  657MOL0     H90626   8.006   8.880  -0.795  1.3434 -1.1805 -0.4272
  657MOL0     H90627   8.143   8.959  -0.870 -0.4302  0.9789  1.5038
  657MOL0     H90628   8.387   9.099  -1.234  0.9977 -0.8736 -1.1658
  657MOL0     H90629   8.533   9.054  -1.417 -0.8994 -2.3133  0.6346
  657MOL0     H90630   8.647   9.171  -1.636 -0.9834  1.4340 -2.8302
  657MOL0     H90631   8.618   8.998  -1.588  1.4823 -0.2852 -0.9205
  657MOL0     H90632   8.611   8.941  -1.816 -1.9393 -0.0413  2.0069
  657MOL0     H90633   8.649   9.110  -1.862  2.5218  0.5947  0.8186
  657MOL0     H90634   8.866   9.100  -1.725  2.8086 -0.8404  0.0566
  657MOL0     H90635   8.871   8.994  -1.868  0.1913 -0.0575 -0.1355
  657MOL0     H90636   8.838   8.800  -1.727 -0.5201  0.4331 -1.1884
  657MOL0     H90637   8.817   8.902  -1.578  1.8773 -0.3564  0.0264
  657MOL0     H90638   9.060   8.918  -1.742 -3.0068 -3.1241 -1.2382
  657MOL0     H90639   9.022   9.005  -1.597 -0.7315 -0.0593  0.3992
  657MOL0     H90640   9.034   8.705  -1.614 -0.5406  0.0423 -0.1780
  657MOL0     H90641   9.048   8.806  -1.465  3.6254 -3.0310  0.8934
  657MOL0     H90642   9.251   8.825  -1.699 -0.9675  0.7140 -1.4528
  657MOL0     H90643   9.279   8.729  -1.552 -2.4696 -1.3995  1.7186
  657MOL0     H90644   9.237   8.961  -1.429 -0.4742  0.4645 -0.6446
  657MOL0     H90645   9.266   9.024  -1.596 -2.9315  1.0458  0.9674
  657MOL0     H90646   8.212   9.158  -1.683  0.3234 -0.6563 -0.8595
  657MOL0     H90647   8.058   9.172  -1.485 -0.0463 -0.3236 -4.1732
  657MOL0     H90648   7.914   9.286  -1.177  2.5480 -0.5850 -0.7993
  657MOL0     H90649   7.713   9.319  -1.038 -0.8997 -0.5069 -0.2683
  657MOL0     H90650   5.888   9.431   0.060 -0.6389 -0.0668 -0.0839
  657MOL0     H90651   5.922   9.483   0.294  0.6895 -1.8354  1.2770
  657MOL0     H90652   6.242   9.475   0.640 -1.4332 -0.7742  0.5369
  657MOL0     H90653   6.267   9.515   0.879  0.6295  1.1217 -1.7874
  657MOL0     H90654   6.028   9.818   1.084  3.7157  1.2033  1.8065
  657MOL0     H90655   5.944   9.659   1.108 -0.2265 -0.8969  2.7562
  657MOL0     H90656   6.051   9.819   1.302  0.0221  1.4988 -3.0327
  657MOL0     H90657   6.197   9.759   1.243 -0.2058  2.7212  1.8456
  657MOL0     H90658   6.129   9.521   1.284 -0.6087 -0.6662  0.5700
  657MOL0     H90659   6.150   9.607   1.431 -2.5594 -3.0724  1.9534
  657MOL0     H90660   5.869   9.644   1.329 -0.3495  1.3960  2.0085
  657MOL0     H90661   5.926   9.617   1.491  0.1489 -2.8196  0.8178
  657MOL0     H90662   5.779   9.245   1.385 -1.7783  1.1641 -2.3760
  657MOL0     H90663   5.916   9.743   0.905  0.9346  0.1727  1.1016
  657MOL0     H90664   5.778   9.782   0.715  1.8109  0.1267  3.0850
  657MOL0     H90665   5.910   9.854   0.606  0.9946 -0.4678  0.3278
  657MOL0     H90666   5.803   9.716   0.564  1.3246  0.3121 -0.5477
  658MOL0     O90667   6.382   8.155   0.655 -0.4759 -0.1563 -0.2532
  658MOL0     C90668   6.440   8.233   0.725 -0.3237 -0.8794 -0.6387
  658MOL0     O90669   6.382   8.312   0.819  0.5149 -0.1763  0.3828
  658MOL0     C90670   6.249   8.323   0.823  0.1716  0.4895  0.2244
  658MOL0     C90671   6.187   8.226   0.913  0.7099  0.5122  0.8122
  658MOL0     C90672   6.047   8.215   0.906 -0.0692 -0.1400 -0.5695
  658MOL0     C90673   5.966   8.290   0.825  0.0970 -0.5140 -0.5356
  658MOL0     O90674   5.832   8.298   0.845 -0.7898  1.3052 -0.3159
  658MOL0     C90675   5.747   8.186   0.815  0.3956 -0.6054  0.4530
  658MOL0     C90676   5.610   8.243   0.791  0.9362 -0.3536 -0.4590
  658MOL0     C90677   5.593   8.313   0.660 -0.0975 -0.1865 -0.2227
  658MOL0     C90678   5.450   8.371   0.639  0.3312 -0.5403  0.5275
  658MOL0     C90679   5.439   8.414   0.501 -0.3337  0.1296  0.6785
  658MOL0     C90680   5.414   8.309   0.388  0.0512 -0.0431 -0.2467
  658MOL0     C90681   5.397   8.358   0.242  0.2855  0.5530 -1.6495
  658MOL0     C90682   5.522   8.427   0.182  0.3863 -0.2699  0.1675
  658MOL0     N90683   5.490   8.477   0.052 -0.2332 -0.4599 -0.4951
  658MOL0     C90684   5.534   8.603   0.005  0.0388  0.9220 -1.0841
  658MOL0     C90685   5.494   8.617  -0.124  0.6256  0.5939  0.2622
  658MOL0     C90686   5.525   8.748  -0.200 -0.0296  0.0332  0.3307
  658MOL0     C90687   5.445   8.772  -0.328 -0.1272  0.3472  0.0118
  658MOL0     C90688   5.514   8.744  -0.454 -0.2879  0.3492  0.1814
  658MOL0     C90689   5.631   8.835  -0.482  0.5890  0.0574  0.1750
  658MOL0     O90690   5.668   8.825  -0.619 -0.7143 -0.6535  0.0514
  658MOL0     C90691   5.784   8.890  -0.663 -0.3379 -0.0524 -0.1101
  658MOL0     C90692   5.865   8.979  -0.584  0.0085  0.0821 -0.4834
  658MOL0     C90693   5.988   9.027  -0.631 -0.2049  0.6141 -0.1857
  658MOL0     C90694   6.077   9.104  -0.528 -0.6848 -0.7138 -0.2143
  658MOL0     C90695   6.034   9.001  -0.764 -0.2057 -0.6602 -0.3711
  658MOL0     C90696   6.170   9.047  -0.811  0.0125  0.3024  1.2685
  658MOL0     O90697   6.212   9.172  -0.770  0.1733 -0.2614 -1.0674
  658MOL0     C90698   6.323   9.246  -0.798 -0.1407 -0.0919 -0.5386
  658MOL0     C90699   6.437   9.178  -0.834  0.3481 -0.7067 -0.5639
  658MOL0     C90700   6.553   9.250  -0.853  0.2450 -0.6792 -0.0694
  658MOL0     C90701   6.557   9.392  -0.850  0.4156 -0.2903  0.1863
  658MOL0     O90702   6.677   9.451  -0.900  0.3742  0.2888  0.4688
  658MOL0     C90703   6.684   9.595  -0.890 -0.2248  0.7352 -0.6340
  658MOL0     C90704   6.835   9.644  -0.913  0.5213  0.6874  0.2854
  658MOL0     C90705   6.846   9.778  -0.841  0.6768 -0.4473 -0.2758
  658MOL0     C90706   6.983   9.845  -0.833 -0.6012 -0.6816  0.9771
  658MOL0     C90707   6.991   9.926  -0.700  0.3126  0.0177  0.0875
  658MOL0     C90708   7.115  10.007  -0.697  0.7873  0.2723  0.2321
  658MOL0     C90709   7.233   9.914  -0.641  0.1906 -0.3735 -0.0216
  658MOL0     C90710   7.245   9.905  -0.488  0.0271 -0.6860  0.1046
  658MOL0    Cl90711   7.245  10.059  -0.417  0.0039  0.2821 -0.2257
  658MOL0     C90712   6.436   9.455  -0.808 -0.3291  0.2514 -0.5463
  658MOL0     C90713   6.328   9.384  -0.789  0.8404  0.1321 -0.4217
  658MOL0     O90714   6.215   8.984  -0.914  0.2264  0.4698 -0.4580
  658MOL0     C90715   5.946   8.929  -0.848  0.9335  0.5925 -0.1141
  658MOL0     C90716   5.825   8.878  -0.801 -0.0830 -0.0066 -0.7795
  658MOL0     N90717   5.421   8.500  -0.165  1.0497  0.1205  0.5350
  658MOL0     N90718   5.420   8.422  -0.051 -0.7456 -0.1795  0.6369
  658MOL0     C90719   6.028   8.390   0.740  0.2030  0.2546 -0.0830
  658MOL0     C90720   6.165   8.410   0.741 -0.0614  0.0414 -0.6230
  658MOL0     C90721   6.590   8.248   0.721 -0.1817  0.8506 -0.6975
  658MOL0     C90722   6.638   8.379   0.728  0.8210  0.3342  0.3239
  658MOL0     C90723   6.771   8.406   0.735 -0.8244  1.1916 -0.0443
  658MOL0     C90724   6.861   8.296   0.717  0.2365 -0.5380 -0.0175
  658MOL0     O90725   6.990   8.341   0.703 -0.0330  0.3889 -0.1688
  658MOL0     C90726   7.082   8.252   0.639  0.5051 -0.1192 -0.6191
  658MOL0     C90727   7.196   8.343   0.593 -0.0164  0.9037 -0.5679
  658MOL0     C90728   7.139   8.438   0.485  0.4335  0.4562 -0.0207
  658MOL0     C90729   7.231   8.548   0.443  0.2488  0.6034 -0.2967
  658MOL0     C90730   7.190   8.594   0.313  0.9277 -0.1377 -0.1750
  658MOL0     C90731   7.147   8.625   0.204 -0.1357 -0.6332  0.0282
  658MOL0     C90732   6.819   8.162   0.709 -0.4845  0.6804  0.0167
  658MOL0     C90733   6.680   8.138   0.721 -0.0664 -0.9871  0.3160
  658MOL0     C90734   6.655   8.003   0.692  0.1739  1.1093  0.2944
  658MOL0     H90735   6.234   8.147   0.970 -0.8730 -0.3711  0.9496
  658MOL0     H90736   5.993   8.135   0.955 -0.7640  0.1847 -0.8022
  658MOL0     H90737   5.738   8.121   0.903 -1.6199  0.7036  1.2896
  658MOL0     H90738   5.778   8.123   0.731 -0.7157 -2.8769  1.6376
  658MOL0     H90739   5.535   8.164   0.778  2.5285 -2.0453  0.2334
  658MOL0     H90740   5.599   8.306   0.879  4.9781 -0.4445  0.3274
  658MOL0     H90741   5.665   8.395   0.655 -1.4095  0.9866 -0.4242
  658MOL0     H90742   5.622   8.238   0.586  4.6120 -0.9468  1.9671
  658MOL0     H90743   5.372   8.298   0.663  1.8093 -2.3553 -0.0137
  658MOL0     H90744   5.440   8.455   0.709 -0.4085  0.5812 -0.8518
  658MOL0     H90745   5.530   8.470   0.478  1.5704 -2.0016  2.5914
  658MOL0     H90746   5.350   8.478   0.491 -1.5253 -1.4462  0.8649
  658MOL0     H90747   5.504   8.247   0.384 -0.1452 -0.2801 -1.3878
  658MOL0     H90748   5.320   8.254   0.402 -1.3366  1.6264 -2.2487
  658MOL0     H90749   5.317   8.433   0.243 -0.4361 -0.1514 -3.0410
  658MOL0     H90750   5.365   8.272   0.182 -0.1812  0.3382 -1.1068
  658MOL0     H90751   5.566   8.509   0.240  0.1862  0.7026 -1.0144
  658MOL0     H90752   5.599   8.350   0.182  0.5855 -0.1192  2.1003
  658MOL0     H90753   5.597   8.669   0.064 -0.2655 -0.8717  1.4234
  658MOL0     H90754   5.634   8.750  -0.214 -0.2720 -2.0062 -2.9616
  658MOL0     H90755   5.495   8.830  -0.134  0.9277  0.4002  0.3305
  658MOL0     H90756   5.350   8.719  -0.335  0.6119 -0.7990 -1.6324
  658MOL0     H90757   5.422   8.879  -0.322  1.7555  0.7408  0.8149
  658MOL0     H90758   5.554   8.643  -0.445 -0.0559  0.3142 -1.0340
  658MOL0     H90759   5.447   8.744  -0.541  0.7388 -2.0207 -0.6917
  658MOL0     H90760   5.613   8.941  -0.460  2.4148  0.6867 -1.1284
  658MOL0     H90761   5.707   8.794  -0.416 -1.3160 -2.6876  0.8530
  658MOL0     H90762   5.829   9.002  -0.485 -1.6457  0.3505 -1.1211
  658MOL0     H90763   6.094   9.207  -0.563  1.4182 -0.8311  0.2971
  658MOL0     H90764   6.179   9.063  -0.523  0.8261  2.5600 -1.2442
  658MOL0     H90765   6.041   9.103  -0.425 -0.2731  2.2678  0.0542
  658MOL0     H90766   6.438   9.071  -0.852  1.1378 -1.2374  2.1208
  658MOL0     H90767   6.645   9.202  -0.885 -2.5939 -4.4057 -3.7651
  658MOL0     H90768   6.619   9.646  -0.962  2.2614  2.9774 -1.4236
  658MOL0     H90769   6.663   9.611  -0.784  3.2464 -3.3920  0.9501
  658MOL0     H90770   6.904   9.570  -0.872 -1.4103 -1.0283  0.5493
  658MOL0     H90771   6.863   9.659  -1.018  2.7794  0.3441  0.7839
  658MOL0     H90772   6.814   9.769  -0.736  2.2988  1.0903  0.4051
  658MOL0     H90773   6.779   9.849  -0.890  0.0870  0.1674  1.3488
  658MOL0     H90774   7.006   9.905  -0.921  1.5933 -2.7553  0.0345
  658MOL0     H90775   7.068   9.778  -0.817  1.4470  1.3630 -0.8042
  658MOL0     H90776   6.904   9.991  -0.689 -1.3727 -2.2822  1.0593
  658MOL0     H90777   6.986   9.862  -0.611  1.3083 -0.0818  0.0900
  658MOL0     H90778   7.111  10.094  -0.631 -0.6796  0.5238 -0.1586
  658MOL0     H90779   7.129  10.049  -0.797  0.6122  1.7931  0.8174
  658MOL0     H90780   7.329   9.955  -0.676  0.9782 -4.0558 -2.8906
  658MOL0     H90781   7.217   9.815  -0.685 -6.2840  0.6286 -0.9684
  658MOL0     H90782   7.333   9.844  -0.468 -0.6368 -1.4120  0.8768
  658MOL0     H90783   7.158   9.859  -0.441 -0.7113  0.8926  0.3492
  658MOL0     H90784   6.425   9.562  -0.793  0.7170  0.3508 -0.4271
  658MOL0     H90785   6.234   9.434  -0.767  1.3630 -0.2091  3.1451
  658MOL0     H90786   5.970   8.907  -0.951 -4.7405 -1.0221 -1.3941
  658MOL0     H90787   5.751   8.825  -0.859 -0.2788 -1.8751  1.0862
  658MOL0     H90788   5.971   8.468   0.690 -0.2658  1.4936  2.2192
  658MOL0     H90789   6.212   8.491   0.686  1.6295 -0.2891  0.2781
  658MOL0     H90790   6.570   8.461   0.746 -1.4593 -1.1351 -1.0425
  658MOL0     H90791   6.802   8.510   0.738 -3.0431  2.0849 -3.0726
  658MOL0     H90792   7.117   8.161   0.690  3.6085  1.4270  0.2768
  658MOL0     H90793   7.040   8.214   0.546  0.2293  2.1829 -1.5081
  658MOL0     H90794   7.280   8.282   0.559 -1.3835 -0.4178 -1.7059
  658MOL0     H90795   7.233   8.402   0.677  0.4249 -1.0182  0.6369
  658MOL0     H90796   7.143   8.384   0.390  1.2212  1.0789 -0.3497
  658MOL0     H90797   7.042   8.480   0.512  0.2545 -0.4054  0.7268
  658MOL0     H90798   7.332   8.509   0.431 -0.3929 -1.6458  0.9998
  658MOL0     H90799   7.226   8.633   0.511 -0.5036 -1.2339  2.0780
  658MOL0     H90800   7.113   8.617   0.102 -0.3537 -1.9952  0.1925
  658MOL0     H90801   6.884   8.081   0.678 -0.5035  1.2238 -1.5503
  658MOL0     H90802   6.742   7.943   0.723  0.6848  0.8256 -1.6042
  658MOL0     H90803   6.564   7.973   0.746 -1.2863  3.7270 -0.5368
  658MOL0     H90804   6.634   7.977   0.588 -0.0192  0.7301  0.4252
  659MOL0     O90805   0.106   6.848   0.217  0.0735 -0.6305 -0.2077
  659MOL0     C90806   0.156   6.885   0.320 -0.0454 -1.2505  0.5458
  659MOL0     O90807   0.128   6.833   0.439 -0.4815  0.0600 -0.4587
  659MOL0     C90808   0.045   6.726   0.467  0.0523 -0.1389 -1.0048
  659MOL0     C90809   0.054   6.603   0.392 -0.3795 -0.6266  0.7948
  659MOL0     C90810  -0.011   6.489   0.428  0.2998  0.1865  1.0879
  659MOL0     C90811  -0.103   6.498   0.533  1.1867  0.2872 -0.1551
  659MOL0     O90812  -0.188   6.389   0.555 -0.7864 -0.1356  0.7200
  659MOL0     C90813  -0.243   6.363   0.683 -0.1045 -0.0947  0.7106
  659MOL0     C90814  -0.357   6.268   0.664  0.0829 -0.2670  0.0529
  659MOL0     C90815  -0.445   6.248   0.792 -0.1877  0.1480  0.5149
  659MOL0     C90816  -0.393   6.145   0.887  0.1591 -0.8775 -0.1899
  659MOL0     C90817  -0.479   6.157   1.008  0.2733  0.2060  0.6385
  659MOL0     C90818  -0.459   6.048   1.118 -1.0200  0.3523  0.8686
  659MOL0     C90819  -0.522   6.078   1.256 -0.3260 -0.1294 -0.3155
  659MOL0     C90820  -0.555   5.951   1.346  0.2549 -0.6200 -0.2737
  659MOL0     N90821  -0.435   5.888   1.399  0.4706 -0.0659  0.6009
  659MOL0     C90822  -0.396   5.915   1.527 -0.3645  0.0430 -0.2211
  659MOL0     C90823  -0.333   5.803   1.564  0.0331  0.5964 -0.6487
  659MOL0     C90824  -0.277   5.788   1.699 -0.7588  0.4884  0.2157
  659MOL0     C90825  -0.336   5.670   1.788  0.0010 -0.2447  1.0467
  659MOL0     C90826  -0.299   5.695   1.931  0.8903 -0.3812  0.1334
  659MOL0     C90827  -0.425   5.731   1.999 -0.1300 -0.2518 -0.3555
  659MOL0     O90828  -0.514   5.612   1.981 -0.4545 -1.1254 -0.3086
  659MOL0     C90829  -0.640   5.614   2.020  0.6267 -0.3352  0.6664
  659MOL0     C90830  -0.683   5.703   2.124  0.1471  0.5853 -0.5837
  659MOL0     C90831  -0.818   5.701   2.161  0.4631  0.5755 -0.4107
  659MOL0     C90832  -0.847   5.818   2.248  0.3123 -0.6579  0.2491
  659MOL0     C90833  -0.909   5.615   2.107 -0.2904 -0.1069 -0.6585
  659MOL0     C90834  -1.053   5.615   2.134 -0.0161 -1.1037 -0.2922
  659MOL0     O90835  -1.123   5.503   2.080  0.2937 -0.4146  0.0349
  659MOL0     C90836  -1.252   5.521   2.073 -0.0678 -0.1211 -0.0063
  659MOL0     C90837  -1.331   5.503   2.182 -0.0800  0.0934 -0.0500
  659MOL0     C90838  -1.468   5.522   2.170 -0.2447  0.2062  0.0582
  659MOL0     C90839  -1.519   5.573   2.051 -0.3193  0.7158 -0.0674
  659MOL0     O90840  -1.657   5.602   2.041  0.5270 -0.2623  0.6495
  659MOL0     C90841  -1.702   5.678   2.150  1.1320 -0.5313 -0.4662
  659MOL0     C90842  -1.833   5.739   2.115 -0.6804  0.0472  0.7208
  659MOL0     C90843  -1.944   5.631   2.113  0.5036 -0.4400 -0.3864
  659MOL0     C90844  -2.080   5.691   2.091 -0.0161 -0.0626  0.2604
  659MOL0     C90845  -2.179   5.588   2.092 -0.6185 -0.7644  0.3860
  659MOL0     C90846  -2.319   5.637   2.128 -0.1510 -0.2376  0.1974
  659MOL0     C90847  -2.425   5.520   2.095 -0.8466  0.3143 -0.5405
  659MOL0     C90848  -2.567   5.585   2.105  0.0874 -0.3723 -0.2381
  659MOL0    Cl90849  -2.701   5.467   2.043 -0.0365  0.4389  0.4496
  659MOL0     C90850  -1.442   5.585   1.938 -0.4132 -0.7832 -0.8517
  659MOL0     C90851  -1.303   5.563   1.952  1.2192 -0.0713  0.5474
  659MOL0     O90852  -1.097   5.705   2.205  0.1392  0.2158 -0.1520
  659MOL0     C90853  -0.863   5.517   2.008  0.3457  0.1927  0.5896
  659MOL0     C90854  -0.725   5.510   1.978  0.6125  0.3027 -0.2754
  659MOL0     N90855  -0.332   5.714   1.456 -0.7884  0.0207  0.3319
  659MOL0     N90856  -0.393   5.763   1.355  0.9023 -0.1227  0.2833
  659MOL0     C90857  -0.113   6.614   0.608  0.0745 -0.3056 -0.1158
  659MOL0     C90858  -0.035   6.722   0.577 -0.2714  0.2336  0.5639
  659MOL0     C90859   0.252   7.000   0.307  0.6071  0.5088  0.5128
  659MOL0     C90860   0.290   7.065   0.426  0.8519  0.8226  0.1804
  659MOL0     C90861   0.379   7.167   0.425  0.0321 -1.2100 -0.0613
  659MOL0     C90862   0.445   7.216   0.314 -0.4294 -0.2277 -0.5337
  659MOL0     O90863   0.549   7.300   0.336 -0.5285 -0.6768 -0.2659
  659MOL0     C90864   0.640   7.328   0.230  0.0543  0.3602 -0.0908
  659MOL0     C90865   0.605   7.469   0.182  0.8442 -0.1150  0.5175
  659MOL0     C90866   0.616   7.572   0.290  0.3232  0.4349  0.3775
  659MOL0     C90867   0.567   7.716   0.262 -0.0341 -0.3170 -0.1898
  659MOL0     C90868   0.423   7.723   0.295 -1.0498 -0.9527 -0.6673
  659MOL0     C90869   0.303   7.706   0.326  0.0109 -1.4572 -0.3882
  659MOL0     C90870   0.401   7.162   0.189 -0.6328  0.6118  1.1507
  659MOL0     C90871   0.309   7.050   0.188 -0.2341 -0.8267  0.7227
  659MOL0     C90872   0.296   6.984   0.049 -0.1870  0.2235 -1.2380
  659MOL0     H90873   0.126   6.601   0.311  1.8738  1.6130  2.5614
  659MOL0     H90874  -0.010   6.390   0.384  0.7402  0.6828 -0.0734
  659MOL0     H90875  -0.292   6.451   0.726 -0.7432 -0.4393  0.6962
  659MOL0     H90876  -0.163   6.331   0.750  2.2285 -1.9354 -2.6562
  659MOL0     H90877  -0.427   6.303   0.588 -1.0459 -2.5941 -0.0591
  659MOL0     H90878  -0.319   6.170   0.632 -1.7727 -1.5689  1.5469
  659MOL0     H90879  -0.440   6.349   0.833  5.2101  1.2616 -1.9691
  659MOL0     H90880  -0.542   6.228   0.745  0.4521 -1.5051 -0.1911
  659MOL0     H90881  -0.410   6.042   0.854  0.8614 -1.2985  0.7189
  659MOL0     H90882  -0.289   6.168   0.910 -0.4877 -0.7863  3.0304
  659MOL0     H90883  -0.579   6.134   0.970  0.9679 -0.9537 -0.5662
  659MOL0     H90884  -0.474   6.253   1.061  1.0950  0.4112  0.1916
  659MOL0     H90885  -0.484   5.945   1.091 -3.8646  0.3140  3.2292
  659MOL0     H90886  -0.352   6.049   1.139 -1.0105  0.9430  0.8092
  659MOL0     H90887  -0.609   6.142   1.238 -1.2010 -1.4848 -1.1081
  659MOL0     H90888  -0.442   6.124   1.314  0.2241 -1.0748 -0.3197
  659MOL0     H90889  -0.613   5.988   1.431  0.2091 -2.5868  0.6033
  659MOL0     H90890  -0.602   5.873   1.286  2.1429 -0.4208 -2.1273
  659MOL0     H90891  -0.435   6.000   1.582 -1.8771  1.1864 -2.8294
  659MOL0     H90892  -0.284   5.882   1.754  1.7033  1.4335 -0.9307
  659MOL0     H90893  -0.168   5.778   1.692 -0.4022  3.2757  0.5830
  659MOL0     H90894  -0.441   5.670   1.757  0.8535  0.6754 -2.2519
  659MOL0     H90895  -0.296   5.575   1.751  0.4757  1.3784 -3.2083
  659MOL0     H90896  -0.255   5.607   1.978 -1.3453 -1.9631 -0.5420
  659MOL0     H90897  -0.231   5.778   1.950  1.6576 -0.5073 -1.8412
  659MOL0     H90898  -0.405   5.735   2.107  1.2126 -1.5944 -0.5156
  659MOL0     H90899  -0.477   5.821   1.967 -1.6751 -0.8744  0.2893
  659MOL0     H90900  -0.621   5.789   2.146  1.5945 -0.5306 -0.1036
  659MOL0     H90901  -0.907   5.787   2.334 -1.8889  2.0810 -0.1208
  659MOL0     H90902  -0.905   5.901   2.205  0.4278 -0.2252  0.9266
  659MOL0     H90903  -0.761   5.868   2.294  2.3951 -0.7169 -3.2313
  659MOL0     H90904  -1.291   5.465   2.275 -4.2567  0.5837  2.2087
  659MOL0     H90905  -1.537   5.506   2.252 -1.3514 -1.7443 -1.1691
  659MOL0     H90906  -1.725   5.616   2.237 -0.9104  0.6302 -0.1108
  659MOL0     H90907  -1.635   5.754   2.191 -1.2515  1.7676 -0.5723
  659MOL0     H90908  -1.853   5.821   2.184 -1.3556 -0.7213  1.4687
  659MOL0     H90909  -1.814   5.770   2.012  2.9801 -3.9176 -0.0609
  659MOL0     H90910  -1.939   5.589   2.214  2.9461  0.3168 -0.1330
  659MOL0     H90911  -1.930   5.569   2.024 -1.2257  1.4585 -2.0770
  659MOL0     H90912  -2.087   5.735   1.991 -1.2578 -1.5649 -0.3447
  659MOL0     H90913  -2.115   5.765   2.163 -1.4075 -0.5010  0.0727
  659MOL0     H90914  -2.179   5.537   1.995 -0.4680  0.7213 -0.4318
  659MOL0     H90915  -2.150   5.510   2.163  2.5392  0.1143  0.2113
  659MOL0     H90916  -2.323   5.726   2.065  1.2576 -0.0039  0.4019
  659MOL0     H90917  -2.335   5.668   2.232 -1.2109 -1.2457  0.3621
  659MOL0     H90918  -2.408   5.440   2.167 -1.4534 -0.1281 -0.8740
  659MOL0     H90919  -2.424   5.482   1.992 -0.9455 -1.6947  0.1607
  659MOL0     H90920  -2.544   5.672   2.044  1.0497  1.1025  2.0693
  659MOL0     H90921  -2.587   5.612   2.209  0.9207 -2.1955  0.4459
  659MOL0     H90922  -1.491   5.622   1.849  1.2770  1.3661 -0.9871
  659MOL0     H90923  -1.244   5.577   1.862 -1.4532  0.0082 -1.3036
  659MOL0     H90924  -0.931   5.443   1.967  1.1816 -0.4804  0.3936
  659MOL0     H90925  -0.675   5.439   1.913  1.0445  0.9365 -0.6397
  659MOL0     H90926  -0.178   6.619   0.694  1.5448  4.5370  1.0277
  659MOL0     H90927  -0.042   6.804   0.647 -1.1419  1.0543 -0.4572
  659MOL0     H90928   0.254   7.031   0.522  0.4776  1.5071  0.2836
  659MOL0     H90929   0.404   7.199   0.525  0.3860  0.5574 -0.6921
  659MOL0     H90930   0.741   7.318   0.270  0.0335 -0.2771 -0.1827
  659MOL0     H90931   0.634   7.256   0.148 -0.7335  2.2076 -1.7402
  659MOL0     H90932   0.511   7.455   0.128  2.2861  0.4557 -2.3622
  659MOL0     H90933   0.676   7.494   0.103  0.9766 -1.0300  0.3284
  659MOL0     H90934   0.558   7.543   0.378 -0.7559  2.8078  0.5116
  659MOL0     H90935   0.722   7.580   0.318  0.0012 -0.7917  2.0905
  659MOL0     H90936   0.586   7.747   0.159  2.0271 -1.6362 -0.2846
  659MOL0     H90937   0.607   7.791   0.332  1.6147 -2.2638  1.1056
  659MOL0     H90938   0.203   7.682   0.357 -0.8185 -1.0915 -2.5456
  659MOL0     H90939   0.446   7.203   0.099 -1.5578 -0.2561  0.2554
  659MOL0     H90940   0.274   7.062  -0.025  0.6397  1.0095 -0.6848
  659MOL0     H90941   0.391   6.935   0.025  0.7402 -0.8752  3.6781
  659MOL0     H90942   0.221   6.906   0.037 -1.3637  1.4129 -1.8683
  660MOL0     O90943   7.792   9.875   8.444 -0.3352 -0.0945 -0.3588
  660MOL0     C90944   7.799   9.967   8.522  0.7871 -0.3866  0.2520
  660MOL0     O90945   7.737   9.977   8.642 -0.0634  0.5277  0.4164
  660MOL0     C90946   7.665   9.858   8.680  0.1863 -0.4129  0.4571
  660MOL0     C90947   7.527   9.882   8.699 -0.7871 -0.1292 -0.4876
  660MOL0     C90948   7.449   9.776   8.736 -0.0412 -0.4360  1.0010
  660MOL0     C90949   7.501   9.644   8.746  0.0683 -0.7181 -0.6030
  660MOL0     O90950   7.424   9.546   8.785  0.0105 -0.2364  0.5176
  660MOL0     C90951   7.305   9.562   8.854 -0.1108 -0.6351  0.1331
  660MOL0     C90952   7.238   9.426   8.880  1.5399 -0.4834 -0.0711
  660MOL0     C90953   7.198   9.366   8.742  0.1351  0.1071  0.9728
  660MOL0     C90954   7.165   9.221   8.758  0.4829  0.8594  0.3381
  660MOL0     C90955   7.038   9.179   8.842 -0.2860  0.2443 -0.5413
  660MOL0     C90956   6.907   9.162   8.769  0.1779  0.0964 -0.6258
  660MOL0     C90957   6.860   9.304   8.730  0.7232  0.5114 -0.2783
  660MOL0     C90958   6.712   9.301   8.725 -0.9830 -0.3490  0.7690
  660MOL0     N90959   6.652   9.425   8.757 -0.2666 -0.1145 -0.6853
  660MOL0     C90960   6.633   9.532   8.678 -0.3976 -0.3122 -0.2640
  660MOL0     C90961   6.565   9.624   8.749  0.1051 -0.1463 -0.2934
  660MOL0     C90962   6.520   9.764   8.716  0.0677  0.6414 -0.5241
  660MOL0     C90963   6.600   9.857   8.804  0.1370 -0.6162  0.0288
  660MOL0     C90964   6.583  10.013   8.762  0.4204  0.4477  0.1803
  660MOL0     C90965   6.697  10.103   8.798  0.0296 -0.2495  0.2840
  660MOL0     O90966   6.736  10.177   8.679  0.4134  0.4739  0.9193
  660MOL0     C90967   6.848  10.253   8.667  0.3390  0.5640 -0.9353
  660MOL0     C90968   6.845  10.367   8.591 -0.7662  0.3484  0.4700
  660MOL0     C90969   6.966  10.438   8.577  0.8241  0.4552 -0.0711
  660MOL0     C90970   6.957  10.555   8.476  0.2970  0.8333  0.4212
  660MOL0     C90971   7.075  10.405   8.647 -0.9715  0.0322  0.4198
  660MOL0     C90972   7.193  10.491   8.649 -0.0512  0.9344  0.4496
  660MOL0     O90973   7.307  10.425   8.646 -0.0404 -0.1296  0.6254
  660MOL0     C90974   7.425  10.506   8.665  0.2906  0.5115  0.0191
  660MOL0     C90975   7.460  10.615   8.583  0.4020  0.1079 -0.2432
  660MOL0     C90976   7.568  10.691   8.606 -0.0096 -0.2685  0.0477
  660MOL0     C90977   7.645  10.669   8.718  0.1407 -0.4794  0.4998
  660MOL0     O90978   7.733  10.766   8.742  0.5802 -0.0321  0.2228
  660MOL0     C90979   7.798  10.761   8.870 -0.4013  0.1611  0.3265
  660MOL0     C90980   7.885  10.878   8.893  0.2756 -0.5947 -1.0236
  660MOL0     C90981   7.942  10.885   9.031  0.1417 -0.9192 -0.2157
  660MOL0     C90982   8.093  10.915   9.022  0.1774  0.2702  0.6679
  660MOL0     C90983   8.125  11.043   8.950  0.5668  1.4395  0.3563
  660MOL0     C90984   8.256  11.101   8.990 -1.4875  0.1074 -1.0018
  660MOL0     C90985   8.378  11.014   9.015 -0.3867 -0.0316 -0.1778
  660MOL0     C90986   8.499  11.094   9.052 -0.1273  0.5371  0.9111
  660MOL0    Cl90987   8.505  11.177   9.204 -0.7108  0.0543  0.3960
  660MOL0     C90988   7.622  10.557   8.794 -1.8582 -0.3725 -0.9052
  660MOL0     C90989   7.519  10.475   8.764  0.0100  0.2934 -0.6516
  660MOL0     O90990   7.183  10.609   8.697 -0.1682 -0.5071  0.1769
  660MOL0     C90991   7.073  10.297   8.736 -0.2718 -0.4110 -0.2561
  660MOL0     C90992   6.965  10.219   8.740  0.1416 -0.7791 -0.5496
  660MOL0     N90993   6.536   9.564   8.874  0.1181  0.0013  0.0012
  660MOL0     N90994   6.584   9.446   8.872  0.4299  0.1620 -0.0345
  660MOL0     C90995   7.637   9.627   8.725  0.8142  0.6184  0.5125
  660MOL0     C90996   7.719   9.729   8.691 -0.4875  0.1078  0.5126
  660MOL0     C90997   7.883  10.079   8.465  0.4148  0.3082 -0.6867
  660MOL0     C90998   7.983  10.049   8.374  0.7955  0.8764 -0.3033
  660MOL0     C90999   8.075  10.149   8.337  0.3615  0.5692  0.4761
  660MOL0     C91000   8.064  10.277   8.382 -0.2259 -1.2742  0.8155
  660MOL0     O91001   8.149  10.373   8.329 -0.1909  0.3581  1.0015
  660MOL0     C91002   8.158  10.506   8.395  0.2024  0.0370 -0.5240
  660MOL0     C91003   8.249  10.594   8.322  0.5859 -0.2374  1.2805
  660MOL0     C91004   8.170  10.679   8.215  0.4800  0.7318 -0.3459
  660MOL0     C91005   8.256  10.777   8.138  0.9922 -0.7720  0.0349
  660MOL0     C91006   8.349  10.710   8.047  0.2722  0.1032  0.6353
  660MOL0     C91007   8.429  10.661   7.977  0.1260 -0.6131  0.8885
  660MOL0     C91008   7.965  10.305   8.478  0.4795 -0.2532  0.3107
  660MOL0     C91009   7.860  10.210   8.511  0.1883 -0.2764  0.8624
  660MOL0     C91010   7.737  10.257   8.582 -0.5333  0.3638 -0.2382
  660MOL0     H91011   7.491   9.983   8.689 -1.5769 -0.5239 -1.8655
  660MOL0     H91012   7.345   9.800   8.755 -0.7253 -0.7108 -1.9389
  660MOL0     H91013   7.232   9.613   8.790 -1.9127 -2.9561  0.2057
  660MOL0     H91014   7.335   9.611   8.947  0.8771 -1.3152  0.1798
  660MOL0     H91015   7.300   9.353   8.934  0.3396 -0.1823  1.7975
  660MOL0     H91016   7.148   9.441   8.940 -0.3991 -2.0293 -2.4008
  660MOL0     H91017   7.120   9.433   8.705  0.4297  1.0577  2.0182
  660MOL0     H91018   7.288   9.380   8.681  1.1974 -2.1354  1.8829
  660MOL0     H91019   7.154   9.169   8.663 -1.8168  0.1805  0.9309
  660MOL0     H91020   7.242   9.167   8.814 -0.0571 -1.7377 -1.2768
  660MOL0     H91021   7.023   9.243   8.929 -2.4825  0.2097 -0.8437
  660MOL0     H91022   7.049   9.082   8.890 -2.9628  0.0037 -0.2631
  660MOL0     H91023   6.910   9.108   8.674  0.1216 -3.9407  1.4441
  660MOL0     H91024   6.835   9.109   8.832  0.3616 -1.3418 -1.5722
  660MOL0     H91025   6.897   9.331   8.631  2.0576 -0.7538 -0.1625
  660MOL0     H91026   6.886   9.384   8.800 -0.6120 -0.8910  1.9713
  660MOL0     H91027   6.686   9.264   8.625 -1.4983 -0.3081  0.8860
  660MOL0     H91028   6.667   9.231   8.797  0.0969  0.0676  1.8888
  660MOL0     H91029   6.669   9.537   8.575 -3.1589 -2.6481 -1.4772
  660MOL0     H91030   6.411   9.770   8.729 -0.3288 -4.3551  0.5145
  660MOL0     H91031   6.541   9.777   8.610  4.2617  1.2495  0.2094
  660MOL0     H91032   6.573   9.850   8.909  1.3805 -0.8333  0.3413
  660MOL0     H91033   6.705   9.827   8.798  0.3741  0.1481  0.2855
  660MOL0     H91034   6.564  10.022   8.655  1.8733 -0.9907 -0.2315
  660MOL0     H91035   6.498  10.055   8.818  0.3600 -0.0128  0.4348
  660MOL0     H91036   6.654  10.171   8.872 -2.8574 -0.6910 -0.8187
  660MOL0     H91037   6.778  10.044   8.842  0.4483  0.2450  0.1792
  660MOL0     H91038   6.749  10.391   8.545 -0.4207  1.3743  0.2763
  660MOL0     H91039   6.874  10.618   8.512 -2.7774 -2.9460  0.5957
  660MOL0     H91040   6.941  10.514   8.376  0.6618  1.4426  0.1065
  660MOL0     H91041   7.055  10.602   8.468  0.2258  0.6962 -1.8467
  660MOL0     H91042   7.400  10.654   8.502 -1.8893 -0.6670  0.9849
  660MOL0     H91043   7.599  10.779   8.549  1.1416  0.9493  2.3913
  660MOL0     H91044   7.719  10.758   8.946 -4.4543  1.5506 -3.4246
  660MOL0     H91045   7.851  10.665   8.865  0.4869  0.6922 -1.5989
  660MOL0     H91046   7.962  10.874   8.816  2.6896 -0.5938  1.2299
  660MOL0     H91047   7.820  10.965   8.881 -2.0426 -1.8871  1.0025
  660MOL0     H91048   7.928  10.788   9.080  1.4734 -0.4353  1.2090
  660MOL0     H91049   7.892  10.946   9.107  1.6539 -1.2925  1.1348
  660MOL0     H91050   8.149  10.838   8.969  2.4787  2.0447  0.3146
  660MOL0     H91051   8.139  10.921   9.122  3.8179 -0.2365 -0.8167
  660MOL0     H91052   8.127  11.028   8.842 -2.8229  0.1719  0.3595
  660MOL0     H91053   8.040  11.110   8.961 -0.6038  0.1146 -0.3104
  660MOL0     H91054   8.227  11.144   9.086 -1.4586  2.0197 -1.8006
  660MOL0     H91055   8.277  11.188   8.927 -1.0715 -0.1792 -1.2682
  660MOL0     H91056   8.403  10.963   8.922 -4.0230 -3.1521  0.3079
  660MOL0     H91057   8.363  10.932   9.086 -0.0334  0.6345  0.6813
  660MOL0     H91058   8.512  11.162   8.968  2.0650 -1.7617 -0.7585
  660MOL0     H91059   8.580  11.020   9.052 -0.9550 -0.4138  1.6166
  660MOL0     H91060   7.670  10.538   8.890 -1.4099  2.7712 -0.3694
  660MOL0     H91061   7.477  10.401   8.832 -1.9037  1.7936 -0.0760
  660MOL0     H91062   7.166  10.276   8.788  1.0313  2.3516 -1.2650
  660MOL0     H91063   6.972  10.131   8.804 -0.5847  1.7572  3.4326
  660MOL0     H91064   7.662   9.521   8.736  2.2685  0.6385 -1.8544
  660MOL0     H91065   7.825   9.712   8.678 -0.3980 -1.1660  2.4552
  660MOL0     H91066   8.000   9.952   8.327 -2.3234  0.1794 -0.1963
  660MOL0     H91067   8.155  10.126   8.268 -0.1583  1.0499 -0.3093
  660MOL0     H91068   8.059  10.551   8.392  0.6239  1.2178 -5.4893
  660MOL0     H91069   8.191  10.500   8.499 -2.0868  2.4904  0.4604
  660MOL0     H91070   8.335  10.548   8.274 -0.0322 -2.5200  2.2375
  660MOL0     H91071   8.289  10.666   8.395  0.5629 -0.7121  1.7660
  660MOL0     H91072   8.120  10.611   8.145  0.6573  1.0896 -0.8260
  660MOL0     H91073   8.087  10.732   8.263 -0.6639 -1.5869  0.3890
  660MOL0     H91074   8.317  10.842   8.201 -1.8275 -0.4182  2.6228
  660MOL0     H91075   8.203  10.836   8.062  4.9823  1.2265 -1.5034
  660MOL0     H91076   8.491  10.611   7.906 -2.0382  0.8557 -2.2630
  660MOL0     H91077   7.948  10.407   8.513  0.5173 -0.0846 -0.1618
  660MOL0     H91078   7.742  10.218   8.685  0.8485  3.0123  0.8104
  660MOL0     H91079   7.733  10.366   8.594 -1.3420  0.2200  1.0894
  660MOL0     H91080   7.641  10.233   8.536 -2.4522  2.1793  2.4504
  661MOL0     O91081   1.612   1.511   4.389  0.6705  0.4274  0.3815
  661MOL0     C91082   1.530   1.507   4.299  0.8754  0.7593  0.7133
  661MOL0     O91083   1.405   1.452   4.306  0.0316  0.3143  0.4467
  661MOL0     C91084   1.353   1.418   4.425 -0.6505  0.3532 -0.2793
  661MOL0     C91085   1.359   1.279   4.447 -1.0805 -0.0268  0.4930
  661MOL0     C91086   1.300   1.214   4.559  0.6084 -0.0462  0.2450
  661MOL0     C91087   1.221   1.294   4.644  0.1685 -0.5130  0.6339
  661MOL0     O91088   1.166   1.228   4.751 -0.2361  0.2579 -0.6781
  661MOL0     C91089   1.116   1.319   4.857 -1.3663 -0.0335  1.2568
  661MOL0     C91090   1.061   1.238   4.979 -0.2656 -0.2282  0.1186
  661MOL0     C91091   1.179   1.167   5.045  0.3839  1.0605  0.0731
  661MOL0     C91092   1.119   1.062   5.136 -0.8975  0.1195  0.6086
  661MOL0     C91093   1.231   1.012   5.230  0.3093  0.5965  0.1406
  661MOL0     C91094   1.198   0.894   5.322 -0.2338  0.0285 -0.8505
  661MOL0     C91095   1.299   0.889   5.438  0.0941 -1.3564 -0.0039
  661MOL0     C91096   1.455   0.896   5.412 -0.1643 -0.4147 -0.4253
  661MOL0     N91097   1.540   0.861   5.527 -0.2474  0.2326  0.5896
  661MOL0     C91098   1.635   0.753   5.529  0.0871 -1.2384 -0.0555
  661MOL0     C91099   1.699   0.769   5.640 -0.3997 -0.2724 -0.5447
  661MOL0     C91100   1.833   0.706   5.687  0.4700  0.0914 -0.4304
  661MOL0     C91101   1.806   0.595   5.786 -0.4606  0.6947 -1.1785
  661MOL0     C91102   1.935   0.504   5.809  0.8368  0.5269  0.1809
  661MOL0     C91103   1.901   0.373   5.894  0.5631  0.5004  0.6867
  661MOL0     O91104   1.976   0.254   5.853 -0.3583 -0.7650  0.3638
  661MOL0     C91105   1.929   0.168   5.759  0.0369 -0.0140  0.0339
  661MOL0     C91106   2.008   0.066   5.718 -0.1001 -0.2276  0.0914
  661MOL0     C91107   1.970  -0.032   5.622 -0.9811 -0.8083  0.5791
  661MOL0     C91108   2.069  -0.136   5.595 -0.2553  0.0715 -0.6201
  661MOL0     C91109   1.845  -0.023   5.565  1.0668  0.8027 -0.3352
  661MOL0     C91110   1.789  -0.120   5.462  0.2260 -0.0640 -0.0116
  661MOL0     O91111   1.876  -0.217   5.417  0.5713 -0.1770 -0.7223
  661MOL0     C91112   1.832  -0.309   5.323  0.6430 -0.6477 -1.0608
  661MOL0     C91113   1.905  -0.319   5.205  0.4420 -0.4749  0.7831
  661MOL0     C91114   1.856  -0.393   5.098  1.0693  1.3185 -0.4061
  661MOL0     C91115   1.740  -0.470   5.114  0.3030 -0.6309  0.6893
  661MOL0     O91116   1.695  -0.559   5.013  0.4872  0.2138  0.5127
  661MOL0     C91117   1.730  -0.540   4.876 -0.2527  0.6707 -0.1540
  661MOL0     C91118   1.664  -0.642   4.784 -0.0810 -0.1365 -0.1349
  661MOL0     C91119   1.717  -0.625   4.638 -0.5026  0.0261 -0.9957
  661MOL0     C91120   1.651  -0.735   4.550 -0.6888 -0.0162  0.3464
  661MOL0     C91121   1.698  -0.701   4.401 -0.5117 -0.6968 -0.7376
  661MOL0     C91122   1.660  -0.805   4.295  0.1635  0.0122 -0.3449
  661MOL0     C91123   1.700  -0.760   4.159  0.1992  0.1717 -0.0447
  661MOL0     C91124   1.779  -0.863   4.078  0.4790  0.4641 -0.0479
  661MOL0    Cl91125   1.945  -0.894   4.144  0.4855 -0.1080 -0.0457
  661MOL0     C91126   1.668  -0.463   5.231  1.2588  0.8790  0.6302
  661MOL0     C91127   1.707  -0.378   5.336  0.3891  0.1318 -0.4696
  661MOL0     O91128   1.671  -0.106   5.425 -0.5897 -0.8260 -0.2810
  661MOL0     C91129   1.769   0.093   5.599 -0.1665 -0.6531  0.0517
  661MOL0     C91130   1.810   0.187   5.689  0.1587 -0.0905  0.9975
  661MOL0     N91131   1.637   0.867   5.714 -0.4255 -0.1616  0.3768
  661MOL0     N91132   1.539   0.918   5.653  0.2641  1.1361  0.7371
  661MOL0     C91133   1.210   1.430   4.615  0.1626 -0.5685 -0.0226
  661MOL0     C91134   1.271   1.493   4.504  0.5322 -0.8439 -0.4328
  661MOL0     C91135   1.573   1.537   4.163 -0.2733  0.1231  0.0477
  661MOL0     C91136   1.589   1.442   4.063 -0.2783  0.0479  0.9191
  661MOL0     C91137   1.660   1.468   3.944 -0.4514 -0.3818  0.5498
  661MOL0     C91138   1.709   1.593   3.913  0.1481  0.4075  0.4807
  661MOL0     O91139   1.783   1.623   3.803 -0.1178  0.3139  0.0883
  661MOL0     C91140   1.807   1.514   3.715 -0.2516  0.8793 -1.0405
  661MOL0     C91141   1.879   1.564   3.594 -0.2832 -0.3509  0.7046
  661MOL0     C91142   1.798   1.667   3.515  0.0464 -0.1174  0.6626
  661MOL0     C91143   1.833   1.696   3.365  0.5714 -0.3645 -0.0582
  661MOL0     C91144   1.937   1.784   3.333 -0.0280 -0.3381 -0.7861
  661MOL0     C91145   2.024   1.860   3.294  0.6852 -0.0217  0.2306
  661MOL0     C91146   1.687   1.695   4.007  0.5503  0.7055  0.0682
  661MOL0     C91147   1.630   1.666   4.139  0.4602  0.3086  0.2467
  661MOL0     C91148   1.621   1.775   4.239  0.4356 -0.0495  0.4184
  661MOL0     H91149   1.431   1.224   4.386  1.5568  1.9861  1.6044
  661MOL0     H91150   1.311   1.107   4.578 -0.0512 -0.5376 -1.7869
  661MOL0     H91151   1.040   1.385   4.814  2.3115  1.9804 -2.9288
  661MOL0     H91152   1.197   1.380   4.897  0.3636  1.5584 -3.8236
  661MOL0     H91153   1.009   1.300   5.052 -1.8458 -1.0685 -0.2589
  661MOL0     H91154   0.993   1.159   4.946 -2.3745  1.7287 -0.4062
  661MOL0     H91155   1.235   1.116   4.966 -0.9920 -3.6413  1.7997
  661MOL0     H91156   1.247   1.235   5.096  1.8423  0.6075 -1.2114
  661MOL0     H91157   1.046   1.108   5.204  0.6915  0.1540  2.3781
  661MOL0     H91158   1.069   0.977   5.088  0.4701 -1.7083  2.2353
  661MOL0     H91159   1.255   1.095   5.297 -2.1200  3.6297 -2.4034
  661MOL0     H91160   1.316   0.988   5.166 -0.1817  2.9733 -1.5536
  661MOL0     H91161   1.098   0.904   5.366  1.0339  2.2742  1.8105
  661MOL0     H91162   1.202   0.798   5.271  1.3157 -0.0062 -0.7104
  661MOL0     H91163   1.278   0.801   5.499  0.5789 -1.5282 -0.0805
  661MOL0     H91164   1.297   0.980   5.499  1.5610 -3.8380  4.2025
  661MOL0     H91165   1.479   0.820   5.337  0.1281  0.7139 -1.4895
  661MOL0     H91166   1.480   0.997   5.380 -2.0442 -0.3239 -1.7231
  661MOL0     H91167   1.658   0.681   5.451  0.2572  0.4350 -1.6400
  661MOL0     H91168   1.895   0.777   5.742 -1.9490  1.9467  0.0883
  661MOL0     H91169   1.879   0.669   5.595 -0.5070 -2.2801 -0.0487
  661MOL0     H91170   1.774   0.639   5.880 -0.7579 -1.1933 -0.3533
  661MOL0     H91171   1.725   0.530   5.750  1.3186 -2.6266  0.3003
  661MOL0     H91172   1.980   0.473   5.714 -1.1796 -0.3183 -0.5503
  661MOL0     H91173   1.998   0.561   5.877 -1.5848  1.8940  1.4211
  661MOL0     H91174   1.911   0.395   6.001 -1.1808 -1.5227  1.3240
  661MOL0     H91175   1.796   0.345   5.883  0.7720  0.4713 -1.7226
  661MOL0     H91176   2.107   0.066   5.763  1.6773 -2.2830 -3.4060
  661MOL0     H91177   2.014  -0.225   5.627 -0.3764  0.9460  1.7863
  661MOL0     H91178   2.146  -0.122   5.672 -1.9196 -1.2740  1.4039
  661MOL0     H91179   2.096  -0.146   5.490  1.5543 -0.5165 -0.1488
  661MOL0     H91180   1.999  -0.268   5.192  0.0031 -0.4142 -3.8719
  661MOL0     H91181   1.920  -0.386   5.010  2.8492 -1.4039  0.5533
  661MOL0     H91182   1.702  -0.442   4.836  1.7610  1.5846  0.5571
  661MOL0     H91183   1.836  -0.563   4.864  1.0052  3.4874  3.5540
  661MOL0     H91184   1.673  -0.746   4.815 -0.3365 -0.7002 -1.8227
  661MOL0     H91185   1.556  -0.624   4.788 -0.6104 -3.0715  0.5717
  661MOL0     H91186   1.825  -0.636   4.646 -0.3020  1.7794 -0.9101
  661MOL0     H91187   1.701  -0.525   4.596 -3.1698  1.2685  2.4960
  661MOL0     H91188   1.542  -0.732   4.547 -0.6514  0.4676 -0.8466
  661MOL0     H91189   1.686  -0.830   4.591  1.7614  1.2143  1.3483
  661MOL0     H91190   1.643  -0.611   4.373  2.2973  0.7226 -2.2014
  661MOL0     H91191   1.801  -0.664   4.394 -1.3653  2.2755  0.7005
  661MOL0     H91192   1.553  -0.825   4.299  0.3969 -1.1188  1.1030
  661MOL0     H91193   1.704  -0.902   4.320  0.7097  0.9204  2.6157
  661MOL0     H91194   1.759  -0.668   4.171 -0.6165  0.5175  1.5337
  661MOL0     H91195   1.613  -0.745   4.094  0.2137 -0.4197 -0.2012
  661MOL0     H91196   1.785  -0.831   3.974 -0.4556  0.6847 -0.0498
  661MOL0     H91197   1.723  -0.956   4.085  2.1185 -0.5459 -0.0008
  661MOL0     H91198   1.587  -0.535   5.231  0.5886  1.4038 -3.0913
  661MOL0     H91199   1.646  -0.374   5.425  1.0028 -2.4162  0.1453
  661MOL0     H91200   1.675   0.114   5.549  0.3451  0.9168 -0.2986
  661MOL0     H91201   1.740   0.269   5.697 -0.8782 -0.4390 -2.8007
  661MOL0     H91202   1.167   1.492   4.693 -0.4021 -3.5397  2.2270
  661MOL0     H91203   1.259   1.600   4.494  2.6535 -0.6284 -1.1530
  661MOL0     H91204   1.538   1.347   4.076 -0.3546  0.0078  0.3621
  661MOL0     H91205   1.678   1.389   3.872  0.9674  1.0457 -0.7407
  661MOL0     H91206   1.868   1.437   3.764 -0.6998  2.0945  1.5934
  661MOL0     H91207   1.711   1.473   3.681 -0.6997  0.0022  1.0828
  661MOL0     H91208   1.902   1.478   3.531  2.2924  0.9357 -0.2764
  661MOL0     H91209   1.974   1.608   3.627 -0.1230  2.5299 -2.9634
  661MOL0     H91210   1.691   1.649   3.525 -0.3296  1.4249 -0.2654
  661MOL0     H91211   1.816   1.760   3.570  1.4519  0.3578 -0.5403
  661MOL0     H91212   1.740   1.734   3.322 -0.3023 -0.6727  1.4810
  661MOL0     H91213   1.855   1.595   3.329 -0.3062 -1.2350  1.7232
  661MOL0     H91214   2.094   1.926   3.246  1.3092 -0.1628  0.9413
  661MOL0     H91215   1.719   1.794   3.976  1.6913  0.5142  0.6012
  661MOL0     H91216   1.707   1.768   4.305 -1.0562  3.1781  3.0147
  661MOL0     H91217   1.618   1.871   4.186 -0.9709 -0.4667 -0.3304
  661MOL0     H91218   1.531   1.768   4.301  2.1205  2.0361  3.3527
  662MOL0     O91219   1.156   1.484   1.933  0.0928  0.3657  0.0260
  662MOL0     C91220   1.131   1.369   1.901 -0.1948  0.7892  0.1951
  662MOL0     O91221   1.118   1.328   1.770  0.7671  0.1444 -0.1540
  662MOL0     C91222   1.098   1.419   1.669  0.5138 -0.1534 -0.5622
  662MOL0     C91223   1.200   1.424   1.572  0.5263  0.6667 -0.0858
  662MOL0     C91224   1.180   1.506   1.461 -0.2448 -0.0166 -0.1104
  662MOL0     C91225   1.057   1.569   1.436 -0.0363 -0.8550  0.1569
  662MOL0     O91226   1.047   1.633   1.325 -0.6043 -0.2616  1.2070
  662MOL0     C91227   0.919   1.645   1.261 -0.9998  0.5374 -0.6719
  662MOL0     C91228   0.937   1.634   1.107 -0.9210  0.3654 -0.6064
  662MOL0     C91229   1.009   1.511   1.060 -0.2341  0.7840 -0.8705
  662MOL0     C91230   1.054   1.516   0.912  0.1826  0.5025  0.2580
  662MOL0     C91231   0.935   1.506   0.811  0.2971 -0.7392 -0.2038
  662MOL0     C91232   0.989   1.510   0.667 -0.8922  0.1243 -0.0851
  662MOL0     C91233   1.076   1.620   0.624  0.6172  0.4088  0.2259
  662MOL0     C91234   1.119   1.619   0.474  0.6527  0.1915 -0.3937
  662MOL0     N91235   1.229   1.711   0.438  0.6771 -0.4673 -0.2870
  662MOL0     C91236   1.365   1.700   0.476  0.4622  0.2207 -0.3532
  662MOL0     C91237   1.428   1.790   0.403  0.4492  0.8243 -0.7098
  662MOL0     C91238   1.573   1.828   0.405  0.0511  0.6856 -0.6826
  662MOL0     C91239   1.660   1.714   0.361  1.2090  0.5371  0.9298
  662MOL0     C91240   1.628   1.680   0.209 -0.2177 -0.4367 -0.6036
  662MOL0     C91241   1.729   1.587   0.152  1.1858 -0.1568 -0.1557
  662MOL0     O91242   1.862   1.629   0.161 -1.0164  0.7374 -0.2326
  662MOL0     C91243   1.957   1.564   0.078  0.3839 -0.2955 -0.2370
  662MOL0     C91244   2.070   1.636   0.054  1.6567 -0.4710 -0.2093
  662MOL0     C91245   2.174   1.588  -0.031  0.8991 -0.5291 -0.3551
  662MOL0     C91246   2.280   1.696  -0.067 -0.1837  0.9480  0.1509
  662MOL0     C91247   2.155   1.464  -0.102  0.2678  0.8021  0.4433
  662MOL0     C91248   2.247   1.404  -0.199  0.6504 -0.2796 -0.2504
  662MOL0     O91249   2.242   1.269  -0.215 -0.1102  0.1794 -0.6576
  662MOL0     C91250   2.290   1.221  -0.335  0.3591  0.2257 -0.1223
  662MOL0     C91251   2.387   1.127  -0.339  0.2742  0.3372 -0.0314
  662MOL0     C91252   2.420   1.057  -0.455  0.0494  0.0229 -0.4973
  662MOL0     C91253   2.338   1.069  -0.567 -0.4945  0.0867  0.0797
  662MOL0     O91254   2.378   0.988  -0.671  0.0961  0.8724 -0.1655
  662MOL0     C91255   2.285   0.991  -0.777 -0.5227  0.4847 -1.0333
  662MOL0     C91256   2.330   0.896  -0.888  0.7229 -0.0331 -0.3210
  662MOL0     C91257   2.484   0.883  -0.907  1.3577  0.1909  0.4780
  662MOL0     C91258   2.511   0.760  -1.008 -1.1646 -0.5518  0.5035
  662MOL0     C91259   2.658   0.774  -1.060  0.3164 -0.5992 -0.4628
  662MOL0     C91260   2.758   0.706  -0.961  0.3568  0.2018 -0.0662
  662MOL0     C91261   2.745   0.545  -0.968 -0.8050 -1.3233 -0.2874
  662MOL0     C91262   2.855   0.475  -0.884  0.4291  0.2430  0.2053
  662MOL0    Cl91263   2.809   0.499  -0.712 -0.3168 -0.0719 -0.0517
  662MOL0     C91264   2.236   1.168  -0.567 -0.4363 -0.7183  0.4536
  662MOL0     C91265   2.215   1.236  -0.448 -0.0769 -0.4198  0.5205
  662MOL0     O91266   2.332   1.481  -0.246  0.3291 -0.1068 -0.2630
  662MOL0     C91267   2.037   1.390  -0.081  0.2419 -0.1763 -0.6757
  662MOL0     C91268   1.938   1.441   0.014  0.5198 -0.3322  0.7469
  662MOL0     N91269   1.338   1.842   0.316  0.3423 -0.9852  0.2043
  662MOL0     N91270   1.212   1.806   0.343 -0.0022  0.8196 -0.0757
  662MOL0     C91271   0.957   1.566   1.537 -0.6579  0.3472 -0.2771
  662MOL0     C91272   0.987   1.499   1.652  0.6445  0.5031  0.5008
  662MOL0     C91273   1.147   1.262   2.007 -0.8830 -0.2301 -0.5425
  662MOL0     C91274   1.161   1.122   1.965  0.4528  0.2862  1.0090
  662MOL0     C91275   1.184   1.020   2.055 -1.3842 -0.7345  0.3021
  662MOL0     C91276   1.191   1.051   2.192 -0.0747 -0.6635  0.2592
  662MOL0     O91277   1.208   0.953   2.289 -0.5187  0.2386  0.4105
  662MOL0     C91278   1.147   0.981   2.422  0.9912 -0.3510 -0.2619
  662MOL0     C91279   1.145   0.852   2.506  0.2808 -0.8001  0.0748
  662MOL0     C91280   1.079   0.872   2.644 -0.3548  0.3143  0.2568
  662MOL0     C91281   1.187   0.877   2.751  0.7641 -0.1252 -0.0327
  662MOL0     C91282   1.123   0.866   2.883 -0.2175  0.2274  0.7754
  662MOL0     C91283   1.079   0.868   2.996  0.5952  0.6035 -0.1976
  662MOL0     C91284   1.187   1.181   2.234 -0.4529 -0.8016  0.7040
  662MOL0     C91285   1.150   1.283   2.151 -1.0593 -0.2751  0.9774
  662MOL0     C91286   1.148   1.414   2.226 -0.7763  0.8079  0.2510
  662MOL0     H91287   1.290   1.365   1.585 -0.1509 -0.5593 -0.6958
  662MOL0     H91288   1.257   1.519   1.387 -0.5280  0.5284 -0.3208
  662MOL0     H91289   0.875   1.743   1.281 -0.2049  0.9876 -1.0751
  662MOL0     H91290   0.841   1.583   1.307 -2.7338  2.7993 -0.3993
  662MOL0     H91291   0.836   1.633   1.066 -1.7926  1.9960  1.3275
  662MOL0     H91292   0.989   1.724   1.075  4.3676 -2.0779 -0.0019
  662MOL0     H91293   1.099   1.493   1.119 -0.8811  0.4815  0.0583
  662MOL0     H91294   0.944   1.428   1.089  0.8234  1.2556  3.5587
  662MOL0     H91295   1.112   1.606   0.886  0.2347  0.4240  0.1030
  662MOL0     H91296   1.115   1.429   0.888  0.5757  1.1565 -1.2417
  662MOL0     H91297   0.881   1.600   0.823 -0.4557 -1.2897  0.9621
  662MOL0     H91298   0.867   1.421   0.824  0.3432 -0.4529  2.4814
  662MOL0     H91299   1.038   1.413   0.651 -0.9371 -0.0720  0.9070
  662MOL0     H91300   0.908   1.499   0.595 -1.7378 -3.0572  1.1678
  662MOL0     H91301   1.164   1.620   0.690 -0.4571 -2.5562  1.8641
  662MOL0     H91302   1.024   1.713   0.649 -2.0668 -0.6551 -1.0519
  662MOL0     H91303   1.165   1.522   0.453 -0.4184 -0.4358  0.0426
  662MOL0     H91304   1.027   1.624   0.414 -0.2873 -2.4135  0.6838
  662MOL0     H91305   1.411   1.632   0.547  0.0305 -0.3813 -0.6416
  662MOL0     H91306   1.592   1.864   0.506  0.8081 -1.9344  0.1714
  662MOL0     H91307   1.597   1.911   0.337  2.4343  1.0739  0.5198
  662MOL0     H91308   1.766   1.735   0.378  1.7682 -2.3690  1.6488
  662MOL0     H91309   1.622   1.629   0.418 -0.3528  0.0789 -0.7049
  662MOL0     H91310   1.533   1.625   0.207 -0.2181 -0.5610  1.2120
  662MOL0     H91311   1.626   1.777   0.158 -1.1732  0.7533  1.5427
  662MOL0     H91312   1.713   1.494   0.208  0.9691  1.1693  2.1174
  662MOL0     H91313   1.704   1.571   0.047  1.2886  5.5203 -1.3921
  662MOL0     H91314   2.072   1.732   0.104  0.4383 -0.9716  0.8640
  662MOL0     H91315   2.376   1.649  -0.091  0.5098  1.3674  1.9391
  662MOL0     H91316   2.297   1.759   0.021 -0.1283  3.0464 -1.2656
  662MOL0     H91317   2.238   1.760  -0.145 -2.2688 -0.0642  0.3807
  662MOL0     H91318   2.450   1.102  -0.254  1.6719  0.4632 -0.9978
  662MOL0     H91319   2.508   0.994  -0.455 -1.2618 -1.9356  0.6710
  662MOL0     H91320   2.183   0.968  -0.744  0.3673 -3.6913 -0.6033
  662MOL0     H91321   2.284   1.087  -0.829 -1.6884  0.5908 -0.8243
  662MOL0     H91322   2.290   0.795  -0.871 -0.3304  0.3477 -0.4516
  662MOL0     H91323   2.291   0.932  -0.983  1.9065  1.2873 -0.3407
  662MOL0     H91324   2.534   0.863  -0.812  0.1824  0.7908  1.2485
  662MOL0     H91325   2.521   0.974  -0.954  0.5032  0.4437  0.2768
  662MOL0     H91326   2.429   0.772  -1.079 -0.6607 -1.4205 -0.2374
  662MOL0     H91327   2.510   0.663  -0.957 -0.5598  1.1354  4.0573
  662MOL0     H91328   2.669   0.731  -1.160  4.2646  0.5372 -0.6939
  662MOL0     H91329   2.677   0.882  -1.064  1.0072 -0.5273  2.7064
  662MOL0     H91330   2.751   0.737  -0.856  0.2557  1.0252 -0.3079
  662MOL0     H91331   2.856   0.726  -1.004  1.9317 -0.0365  3.1042
  662MOL0     H91332   2.768   0.510  -1.069  1.2289 -1.7403  0.2723
  662MOL0     H91333   2.644   0.522  -0.932 -2.2928  2.7821 -1.2228
  662MOL0     H91334   2.947   0.529  -0.910 -0.7730  2.1577 -0.2882
  662MOL0     H91335   2.854   0.369  -0.910 -2.3635 -0.7718  3.6508
  662MOL0     H91336   2.178   1.195  -0.655  0.2245  1.4662  0.6064
  662MOL0     H91337   2.123   1.292  -0.462 -0.2374 -0.6614  0.5798
  662MOL0     H91338   2.020   1.293  -0.126  1.5458  0.8457 -3.6207
  662MOL0     H91339   1.874   1.367   0.061  3.0884 -1.2425  3.0110
  662MOL0     H91340   0.868   1.627   1.525 -1.2189 -0.5388 -0.6591
  662MOL0     H91341   0.901   1.498   1.719 -1.2613 -0.1900 -1.8183
  662MOL0     H91342   1.142   1.109   1.859 -1.1597 -2.9493  1.5792
  662MOL0     H91343   1.199   0.914   2.037  1.9629 -0.4780  0.8236
  662MOL0     H91344   1.217   1.048   2.472  2.4309 -2.3586  0.5661
  662MOL0     H91345   1.046   1.022   2.413  0.4837 -1.7883 -1.7112
  662MOL0     H91346   1.244   0.806   2.514  0.4668 -0.7035 -1.4340
  662MOL0     H91347   1.079   0.786   2.449  1.1436 -2.7229  1.1801
  662MOL0     H91348   1.016   0.961   2.639 -4.0183 -2.0271  0.8541
  662MOL0     H91349   1.016   0.785   2.666 -0.9481  1.0644  1.6038
  662MOL0     H91350   1.248   0.968   2.746  2.6730 -1.2782  1.2109
  662MOL0     H91351   1.253   0.792   2.734 -0.2484 -1.4600  2.3391
  662MOL0     H91352   1.047   0.884   3.097  1.6954  2.0474 -0.0317
  662MOL0     H91353   1.218   1.203   2.335  0.0046  3.2428 -0.1683
  662MOL0     H91354   1.091   1.403   2.319 -0.4865  0.5084  0.3982
  662MOL0     H91355   1.243   1.465   2.247 -0.6077  0.0943  1.3420
  662MOL0     H91356   1.095   1.491   2.171 -0.7850  3.0253  3.1400
  663MOL0     O91357   4.741   2.427   0.262 -0.0244 -0.5568  0.6341
  663MOL0     C91358   4.666   2.334   0.271 -0.8861 -0.4816 -0.2290
  663MOL0     O91359   4.699   2.196   0.291 -0.2141  0.4786  0.1916
  663MOL0     C91360   4.826   2.162   0.327  0.2971  1.0429 -0.0808
  663MOL0     C91361   4.841   2.062   0.425  0.0343  0.7296  0.2995
  663MOL0     C91362   4.968   2.024   0.463  0.2099 -0.0150 -0.1020
  663MOL0     C91363   5.087   2.083   0.397  0.2863  0.6607  0.2408
  663MOL0     O91364   5.209   2.032   0.437  0.7055  0.2250 -0.0994
  663MOL0     C91365   5.297   2.140   0.488 -0.2344 -0.3288 -0.1118
  663MOL0     C91366   5.393   2.076   0.573 -0.7469 -0.4343 -0.9267
  663MOL0     C91367   5.447   2.161   0.686  0.2082  1.1899  0.0329
  663MOL0     C91368   5.560   2.080   0.744 -0.7906  0.1254 -0.7848
  663MOL0     C91369   5.614   2.132   0.881 -0.2929  0.2592  0.1473
  663MOL0     C91370   5.531   2.090   1.005 -0.5249 -0.5950 -0.1938
  663MOL0     C91371   5.602   2.135   1.132 -0.0871 -0.4978 -0.1947
  663MOL0     C91372   5.517   2.100   1.260 -0.0352  0.8111 -0.0829
  663MOL0     N91373   5.599   2.086   1.381  0.6063 -0.8996 -0.0977
  663MOL0     C91374   5.704   2.171   1.406  0.3115 -0.2600  0.1566
  663MOL0     C91375   5.776   2.112   1.499 -0.3849  0.0352  0.5057
  663MOL0     C91376   5.914   2.157   1.550 -0.2518  0.9797  0.9664
  663MOL0     C91377   6.036   2.115   1.460  0.4740 -0.7428 -0.2906
  663MOL0     C91378   6.080   1.966   1.474  0.4403 -0.3915 -0.5936
  663MOL0     C91379   6.170   1.929   1.354  0.1513  0.4085  0.1371
  663MOL0     O91380   6.310   1.952   1.377 -0.5230 -0.3480  0.1198
  663MOL0     C91381   6.390   1.965   1.260  0.8558 -0.0640  0.0630
  663MOL0     C91382   6.351   1.916   1.129 -0.3876  0.0323 -0.2391
  663MOL0     C91383   6.445   1.921   1.020  1.2151  0.1229 -0.0723
  663MOL0     C91384   6.386   1.871   0.890  0.4622  0.3421 -0.3172
  663MOL0     C91385   6.573   1.991   1.036 -1.0750  0.8520  0.5328
  663MOL0     C91386   6.669   2.018   0.927  0.0734 -0.4283 -0.0599
  663MOL0     O91387   6.650   1.955   0.812  0.8671  0.2028 -0.6085
  663MOL0     C91388   6.749   1.936   0.719  0.0469  0.7786 -0.5421
  663MOL0     C91389   6.830   1.822   0.736  0.5264 -0.5781 -0.7868
  663MOL0     C91390   6.931   1.789   0.647 -0.1876  0.7912 -0.0029
  663MOL0     C91391   6.947   1.872   0.538 -0.2862  0.3242 -0.4948
  663MOL0     O91392   7.027   1.842   0.429 -0.4695 -0.3181 -0.1859
  663MOL0     C91393   6.995   1.723   0.359  1.0187 -0.2418 -0.8227
  663MOL0     C91394   7.023   1.726   0.208  0.1234  0.0114 -0.3339
  663MOL0     C91395   7.038   1.592   0.147  0.9490 -0.6130 -0.7358
  663MOL0     C91396   7.183   1.530   0.166 -0.0906  0.5627  0.2356
  663MOL0     C91397   7.289   1.587   0.067 -0.0134  0.7639 -0.7633
  663MOL0     C91398   7.395   1.493   0.045  0.3849  0.3995  0.4276
  663MOL0     C91399   7.476   1.472   0.171  0.5591 -0.6366 -0.4226
  663MOL0     C91400   7.597   1.395   0.139  0.0122  0.1147 -0.4411
  663MOL0    Cl91401   7.548   1.223   0.096  0.4397 -0.0550  0.2548
  663MOL0     C91402   6.864   1.981   0.517  0.1239 -0.1641  0.3154
  663MOL0     C91403   6.756   2.010   0.608  0.1665 -0.7310  0.1816
  663MOL0     O91404   6.760   2.091   0.947 -0.1797  0.1913  0.0552
  663MOL0     C91405   6.595   2.047   1.167  0.6261 -0.3785 -0.6610
  663MOL0     C91406   6.506   2.033   1.271 -0.0216 -0.0625 -0.1981
  663MOL0     N91407   5.722   1.987   1.530 -0.1593 -0.6957  0.5717
  663MOL0     N91408   5.607   1.976   1.468  0.7417 -0.0748 -0.4743
  663MOL0     C91409   5.066   2.187   0.305  1.1282 -1.0106  0.1141
  663MOL0     C91410   4.935   2.220   0.262  0.0935 -0.0041 -0.5515
  663MOL0     C91411   4.517   2.363   0.261 -0.1889  0.0505  0.4505
  663MOL0     C91412   4.439   2.247   0.229 -1.0562  0.4781  0.7948
  663MOL0     C91413   4.301   2.253   0.251  0.3987 -0.3264  0.1519
  663MOL0     C91414   4.232   2.366   0.295 -0.4047 -0.5068 -0.4462
  663MOL0     O91415   4.098   2.382   0.316  0.1602 -0.3596 -0.2694
  663MOL0     C91416   4.043   2.316   0.432  0.3839 -0.4682 -0.0815
  663MOL0     C91417   3.903   2.358   0.450 -0.4719 -0.3122  0.9700
  663MOL0     C91418   3.901   2.513   0.445  0.3913  0.9972 -0.3770
  663MOL0     C91419   3.774   2.579   0.489  0.0634  0.2884 -0.1188
  663MOL0     C91420   3.664   2.530   0.407 -0.8802 -0.2779  0.5616
  663MOL0     C91421   3.585   2.481   0.332 -0.2551  0.4418 -0.8081
  663MOL0     C91422   4.309   2.483   0.305  0.2770  0.5176  0.1696
  663MOL0     C91423   4.450   2.488   0.296 -0.7871  0.2947  0.2490
  663MOL0     C91424   4.516   2.623   0.321 -1.1448 -0.5108 -1.1126
  663MOL0     H91425   4.746   2.029   0.466 -0.4591  1.4744 -0.2215
  663MOL0     H91426   4.975   1.947   0.539  0.7173  1.2417  1.1768
  663MOL0     H91427   5.247   2.214   0.550  0.5789 -0.9342  1.3084
  663MOL0     H91428   5.342   2.200   0.408  2.8343 -1.0826  0.9108
  663MOL0     H91429   5.345   1.987   0.614  0.3725 -0.5759  0.1298
  663MOL0     H91430   5.471   2.034   0.509  1.3375  1.4349  0.2385
  663MOL0     H91431   5.485   2.257   0.649  2.4772 -0.2882 -1.7800
  663MOL0     H91432   5.368   2.184   0.757  1.4093  0.7013  1.5866
  663MOL0     H91433   5.530   1.977   0.764 -0.3468  0.4610  2.1377
  663MOL0     H91434   5.647   2.070   0.678  2.0344 -1.4695  2.7820
  663MOL0     H91435   5.616   2.241   0.874  1.2932  0.2386 -0.0085
  663MOL0     H91436   5.719   2.113   0.901  0.7417  3.9691 -0.9107
  663MOL0     H91437   5.430   2.132   0.995 -0.4427 -0.4025 -0.2264
  663MOL0     H91438   5.529   1.981   1.011 -2.1383 -0.5790  0.1207
  663MOL0     H91439   5.634   2.239   1.128 -0.5816 -0.2731  1.2695
  663MOL0     H91440   5.696   2.080   1.142 -0.8976 -1.8225  0.4078
  663MOL0     H91441   5.442   2.177   1.277  0.6855  2.0171 -1.9634
  663MOL0     H91442   5.459   2.009   1.243 -1.4433  1.9253 -1.5225
  663MOL0     H91443   5.720   2.265   1.354 -4.1507 -0.2286 -1.6047
  663MOL0     H91444   5.933   2.108   1.646 -0.5752 -0.9827  0.0708
  663MOL0     H91445   5.918   2.267   1.556 -0.4924  1.0869 -0.5604
  663MOL0     H91446   6.010   2.125   1.354  1.8356  0.1282 -0.5796
  663MOL0     H91447   6.122   2.181   1.479 -2.6743  3.2287  1.6889
  663MOL0     H91448   6.133   1.956   1.570 -0.8005  1.2894  0.3361
  663MOL0     H91449   5.988   1.910   1.489  0.7049 -0.4294  1.1551
  663MOL0     H91450   6.157   1.821   1.348 -1.7141  0.1823  4.6010
  663MOL0     H91451   6.121   1.968   1.265 -2.0089  0.7181  1.4071
  663MOL0     H91452   6.253   1.873   1.113 -1.2579  1.4160  1.0676
  663MOL0     H91453   6.279   1.847   0.890  0.9546 -2.1480  0.6113
  663MOL0     H91454   6.428   1.771   0.874 -2.0740 -0.7376 -0.6033
  663MOL0     H91455   6.416   1.936   0.807  1.5904  1.9764  1.2610
  663MOL0     H91456   6.809   1.765   0.826 -0.9423  1.0373 -0.0477
  663MOL0     H91457   6.991   1.700   0.665 -3.6191 -1.3134  2.2522
  663MOL0     H91458   7.052   1.642   0.403  0.3904 -0.8252 -1.0690
  663MOL0     H91459   6.888   1.701   0.369  0.3572  2.6066 -0.5108
  663MOL0     H91460   6.948   1.792   0.163  0.4637  2.6137  2.5631
  663MOL0     H91461   7.115   1.782   0.184  0.1073  0.5982  0.8864
  663MOL0     H91462   7.010   1.611   0.043  0.9430  1.6365 -0.3852
  663MOL0     H91463   6.967   1.525   0.196  1.2250  0.6816  1.5823
  663MOL0     H91464   7.181   1.425   0.137  0.9090  0.0737  1.8072
  663MOL0     H91465   7.212   1.540   0.271 -1.9645  2.6650  0.6249
  663MOL0     H91466   7.248   1.608  -0.032 -2.7390  1.2397  0.3956
  663MOL0     H91467   7.324   1.688   0.093  0.2274  0.7891 -1.1614
  663MOL0     H91468   7.439   1.527  -0.049 -0.4600  0.0661 -0.0920
  663MOL0     H91469   7.346   1.398   0.022 -1.1944  1.3833 -0.4384
  663MOL0     H91470   7.412   1.417   0.241  2.8337 -3.4463 -0.3720
  663MOL0     H91471   7.512   1.569   0.206 -1.1257  0.0116 -0.4119
  663MOL0     H91472   7.664   1.399   0.225  0.0872 -0.3709 -0.4756
  663MOL0     H91473   7.647   1.434   0.050 -0.6016  3.4122  0.5313
  663MOL0     H91474   6.871   2.026   0.418  2.4997 -0.0802  0.4785
  663MOL0     H91475   6.684   2.091   0.596  1.7020  0.7453  0.4487
  663MOL0     H91476   6.677   2.113   1.194 -1.7222  1.0542  3.9971
  663MOL0     H91477   6.519   2.078   1.369 -0.3089 -0.1321 -0.1261
  663MOL0     H91478   5.143   2.245   0.254  0.5441  3.5926  3.8118
  663MOL0     H91479   4.937   2.306   0.196  2.5107 -0.2006 -0.8489
  663MOL0     H91480   4.467   2.150   0.189  0.6873  1.6291 -0.9356
  663MOL0     H91481   4.249   2.158   0.238 -2.9412  1.3617 -0.0662
  663MOL0     H91482   4.036   2.213   0.395 -1.1397 -0.6515  0.6668
  663MOL0     H91483   4.109   2.327   0.518  1.2007  1.3516 -0.8976
  663MOL0     H91484   3.858   2.330   0.546 -1.9818  0.4045  0.5109
  663MOL0     H91485   3.846   2.311   0.369 -1.2646 -0.6068  1.6852
  663MOL0     H91486   3.991   2.539   0.502  1.9211 -0.5876 -1.9195
  663MOL0     H91487   3.930   2.539   0.342  1.6974 -0.7890 -0.5025
  663MOL0     H91488   3.784   2.686   0.471  1.4187 -0.1115 -2.0263
  663MOL0     H91489   3.748   2.568   0.595  0.0196 -3.6449 -0.3718
  663MOL0     H91490   3.524   2.440   0.254 -1.7242 -1.1555  1.0656
  663MOL0     H91491   4.256   2.569   0.345  0.5524  1.1966 -0.8699
  663MOL0     H91492   4.530   2.670   0.223  1.1929  0.0454 -0.5624
  663MOL0     H91493   4.454   2.685   0.386 -2.3938 -1.1408 -1.6610
  663MOL0     H91494   4.610   2.607   0.374 -0.6424  0.9569 -1.5184
  664MOL0     O91495   5.388   9.408   8.822  0.1830  0.1055  0.2291
  664MOL0     C91496   5.404   9.507   8.751 -0.3299 -0.5894  1.3955
  664MOL0     O91497   5.316   9.563   8.668 -0.4151  0.8006  0.0179
  664MOL0     C91498   5.192   9.507   8.667  0.3313 -0.0676  0.2374
  664MOL0     C91499   5.123   9.451   8.779  0.0011  0.4260  1.0070
  664MOL0     C91500   4.994   9.402   8.763 -0.2873  0.4789  0.6003
  664MOL0     C91501   4.925   9.402   8.636  0.2004 -1.0478 -0.4217
  664MOL0     O91502   4.795   9.361   8.638 -0.9858  0.3600  0.0842
  664MOL0     C91503   4.786   9.219   8.637  0.0765 -0.3439 -0.2336
  664MOL0     C91504   4.691   9.170   8.746  0.5885 -0.3540  0.2989
  664MOL0     C91505   4.656   9.027   8.760  0.7502 -0.2300 -0.5207
  664MOL0     C91506   4.561   9.019   8.877  0.0863  0.1225 -0.1336
  664MOL0     C91507   4.518   8.870   8.894 -0.0943  0.7575 -1.3351
  664MOL0     C91508   4.441   8.837   9.018  0.4178  0.0634 -0.4461
  664MOL0     C91509   4.361   8.709   9.013  0.5940 -0.0894 -0.1840
  664MOL0     C91510   4.268   8.664   9.129  0.1739 -0.1891 -0.4307
  664MOL0     N91511   4.203   8.534   9.105 -1.1777 -0.0025  0.1352
  664MOL0     C91512   4.150   8.462   9.198 -0.1742  0.6728 -0.4349
  664MOL0     C91513   4.063   8.382   9.132  0.0883  0.7750  0.6618
  664MOL0     C91514   3.972   8.289   9.211 -0.6559  0.1247 -0.5529
  664MOL0     C91515   3.900   8.186   9.114  0.3140  0.0657 -0.4723
  664MOL0     C91516   3.773   8.114   9.174  0.5915 -0.0752 -0.3089
  664MOL0     C91517   3.693   8.021   9.076  0.2755  0.0659  0.9552
  664MOL0     O91518   3.624   7.910   9.149  0.4535  0.4089  0.4171
  664MOL0     C91519   3.645   7.785   9.087 -0.4907  0.1067 -0.6744
  664MOL0     C91520   3.536   7.719   9.035 -0.7605  0.3726  0.4078
  664MOL0     C91521   3.533   7.591   8.982 -0.0690 -0.0785 -0.0984
  664MOL0     C91522   3.399   7.523   8.939  0.4458  0.1803 -0.2663
  664MOL0     C91523   3.658   7.520   8.994  0.0763  0.3017  0.1917
  664MOL0     C91524   3.674   7.370   8.964  0.2934 -0.4554 -0.2133
  664MOL0     O91525   3.791   7.320   9.023 -0.2737 -0.1683 -0.1864
  664MOL0     C91526   3.806   7.186   9.048  0.4958  0.9765  0.3305
  664MOL0     C91527   3.823   7.094   8.948 -0.1859  0.2373  1.1239
  664MOL0     C91528   3.851   6.960   8.978 -0.1587  0.1234 -0.5019
  664MOL0     C91529   3.837   6.912   9.112 -0.0673  0.1792 -0.3582
  664MOL0     O91530   3.839   6.771   9.131 -0.4463 -0.1758  0.5437
  664MOL0     C91531   3.968   6.707   9.105 -0.1484 -0.4725 -0.2937
  664MOL0     C91532   3.950   6.563   9.068 -0.5792  0.5227  0.1828
  664MOL0     C91533   3.872   6.553   8.936  0.0954  0.5047  0.5730
  664MOL0     C91534   3.855   6.400   8.903 -0.3708  0.2864 -0.4397
  664MOL0     C91535   3.765   6.388   8.776 -0.7100 -0.1995  0.4032
  664MOL0     C91536   3.617   6.396   8.811  0.5605 -0.5875  0.0700
  664MOL0     C91537   3.532   6.400   8.684  0.3850  0.0499  0.3924
  664MOL0     C91538   3.395   6.472   8.705 -0.8235 -0.2741 -1.2478
  664MOL0    Cl91539   3.284   6.376   8.805  0.0484  0.1908  0.0658
  664MOL0     C91540   3.810   7.002   9.213 -0.2574 -0.1391 -1.2058
  664MOL0     C91541   3.799   7.137   9.178 -1.6171 -0.7240 -0.2995
  664MOL0     O91542   3.592   7.306   8.897 -0.3575  0.0728  0.1526
  664MOL0     C91543   3.769   7.585   9.056  0.2358 -0.7326 -0.9283
  664MOL0     C91544   3.767   7.713   9.093  1.0746 -0.3781 -0.8207
  664MOL0     N91545   4.086   8.390   8.991 -0.4891 -0.2236 -0.2004
  664MOL0     N91546   4.170   8.493   8.979 -0.2388  0.1690 -0.0112
  664MOL0     C91547   4.992   9.444   8.523  0.4307  0.9196 -0.3663
  664MOL0     C91548   5.119   9.501   8.538 -0.2436 -0.1732 -0.4296
  664MOL0     C91549   5.523   9.580   8.777 -0.8341  0.1389  0.1568
  664MOL0     C91550   5.634   9.507   8.790  0.0461 -0.7775  1.4349
  664MOL0     C91551   5.750   9.563   8.839  0.8547  0.1144 -0.5098
  664MOL0     C91552   5.760   9.704   8.856  0.6618 -0.3340 -0.5144
  664MOL0     O91553   5.873   9.747   8.910 -0.1845 -0.8435 -0.4496
  664MOL0     C91554   5.975   9.773   8.814 -1.4008  0.0855 -0.7457
  664MOL0     C91555   6.107   9.827   8.869  0.2935 -0.6369  0.4102
  664MOL0     C91556   6.180   9.759   8.984 -1.1538 -0.0742  0.5908
  664MOL0     C91557   6.212   9.849   9.108 -0.4962 -0.6602  0.0538
  664MOL0     C91558   6.313   9.954   9.090  0.4453 -0.0233  0.3683
  664MOL0     C91559   6.409  10.028   9.070 -0.0453  0.8109 -0.6308
  664MOL0     C91560   5.649   9.788   8.835 -0.0956  0.4425 -0.1362
  664MOL0     C91561   5.531   9.726   8.785  0.4497 -0.1454  0.1168
  664MOL0     C91562   5.404   9.815   8.753 -0.1338 -0.0159 -0.5345
  664MOL0     H91563   5.168   9.438   8.877 -1.1103 -4.8921  1.0931
  664MOL0     H91564   4.936   9.367   8.848 -2.5447  0.3168 -0.9360
  664MOL0     H91565   4.887   9.177   8.639  0.4099  0.4449 -0.3523
  664MOL0     H91566   4.750   9.183   8.540  1.8218 -2.0669 -0.3003
  664MOL0     H91567   4.733   9.206   8.840 -0.3506  0.6209  0.3642
  664MOL0     H91568   4.599   9.226   8.727  1.0214  0.0187 -0.8099
  664MOL0     H91569   4.600   9.011   8.667 -1.4783  3.9847 -0.1866
  664MOL0     H91570   4.748   8.969   8.762  3.2321  3.2998 -1.7094
  664MOL0     H91571   4.604   9.062   8.968 -0.2224  2.1272 -0.8715
  664MOL0     H91572   4.477   9.088   8.865  1.5386  2.3296  1.5971
  664MOL0     H91573   4.616   8.822   8.897  0.8320  2.5710 -1.0741
  664MOL0     H91574   4.461   8.832   8.809 -0.8078 -2.7656  0.5259
  664MOL0     H91575   4.513   8.831   9.100  1.2198 -0.8931 -1.2051
  664MOL0     H91576   4.380   8.924   9.047  0.3924 -0.2688  0.5317
  664MOL0     H91577   4.436   8.630   9.009  0.9794  0.3099 -0.8565
  664MOL0     H91578   4.311   8.712   8.916 -1.7027  2.1631  0.9275
  664MOL0     H91579   4.315   8.663   9.228 -0.4971  1.3458 -0.0695
  664MOL0     H91580   4.191   8.740   9.146 -0.1278 -0.9549  2.1434
  664MOL0     H91581   4.154   8.453   9.306 -1.7359  2.6578 -0.1667
  664MOL0     H91582   3.905   8.345   9.277 -2.0542 -0.9907 -0.9915
  664MOL0     H91583   4.043   8.235   9.274 -0.5809  0.6618 -0.1692
  664MOL0     H91584   3.868   8.236   9.023  5.1992  3.2868 -0.8129
  664MOL0     H91585   3.981   8.116   9.090  0.8930  0.3418  0.5984
  664MOL0     H91586   3.808   8.037   9.243 -0.4999  1.0376  1.5704
  664MOL0     H91587   3.714   8.195   9.218  0.8277 -0.6690  1.1345
  664MOL0     H91588   3.621   8.090   9.032 -1.2546 -1.4650  0.9424
  664MOL0     H91589   3.764   7.985   9.000  1.5536 -0.7924  2.4768
  664MOL0     H91590   3.434   7.756   9.032 -0.1708  2.0467 -0.7926
  664MOL0     H91591   3.312   7.569   8.986  0.4169  0.4506 -0.5746
  664MOL0     H91592   3.394   7.419   8.970 -1.4737  0.3271 -0.0095
  664MOL0     H91593   3.398   7.539   8.830 -4.1539 -0.0588 -0.4406
  664MOL0     H91594   3.818   7.132   8.846 -3.0891 -2.8585 -0.0836
  664MOL0     H91595   3.863   6.888   8.898 -3.5999  0.2481 -1.2800
  664MOL0     H91596   4.032   6.755   9.031  2.2264 -0.8461  1.3678
  664MOL0     H91597   4.033   6.721   9.192 -0.3481  1.4338 -0.4276
  664MOL0     H91598   4.043   6.505   9.074 -0.9825 -0.0226  1.5025
  664MOL0     H91599   3.889   6.519   9.146  0.0023 -0.8267 -0.1005
  664MOL0     H91600   3.927   6.606   8.858  1.0234 -0.7549  0.3287
  664MOL0     H91601   3.772   6.598   8.936 -1.0530 -1.7768 -1.6780
  664MOL0     H91602   3.810   6.342   8.984 -1.4626 -0.5943 -1.6329
  664MOL0     H91603   3.953   6.361   8.876 -0.6611 -0.1078 -0.9509
  664MOL0     H91604   3.798   6.462   8.703 -1.0437 -0.8573 -0.4233
  664MOL0     H91605   3.774   6.288   8.734  2.3178 -1.0789  2.7311
  664MOL0     H91606   3.604   6.494   8.859  0.2822 -0.5488 -0.0809
  664MOL0     H91607   3.579   6.319   8.878  1.4187  0.1228  1.4229
  664MOL0     H91608   3.517   6.301   8.639 -3.9600  0.5347  0.3426
  664MOL0     H91609   3.587   6.453   8.606 -0.6128 -1.1145 -1.1715
  664MOL0     H91610   3.359   6.495   8.605 -0.0866  0.4010 -1.3689
  664MOL0     H91611   3.386   6.571   8.750 -1.8968  0.3544 -2.7776
  664MOL0     H91612   3.802   6.971   9.317 -3.7128  0.8221 -1.0483
  664MOL0     H91613   3.779   7.208   9.258 -3.0643 -0.4326 -0.8851
  664MOL0     H91614   3.871   7.555   9.077  0.3136  0.8809  1.2118
  664MOL0     H91615   3.841   7.761   9.157 -1.8880  2.5794  0.7291
  664MOL0     H91616   4.943   9.435   8.426 -2.0591  2.6901  0.6259
  664MOL0     H91617   5.165   9.546   8.450 -2.9246  3.4334 -0.2324
  664MOL0     H91618   5.637   9.399   8.776  0.2042 -0.6689  0.5758
  664MOL0     H91619   5.837   9.500   8.852  1.7033  0.2707 -4.3183
  664MOL0     H91620   6.014   9.688   8.758  0.1653  0.6620 -0.6138
  664MOL0     H91621   5.946   9.842   8.734 -0.1076 -2.5488 -3.7077
  664MOL0     H91622   6.091   9.932   8.894  1.1296  0.6256 -3.5236
  664MOL0     H91623   6.183   9.826   8.789 -0.5736 -2.6041 -0.4721
  664MOL0     H91624   6.129   9.673   9.029 -2.2713  1.0053  1.4799
  664MOL0     H91625   6.273   9.728   8.935 -1.5749  0.1329 -0.3525
  664MOL0     H91626   6.252   9.784   9.186  0.2948 -1.5398 -1.0637
  664MOL0     H91627   6.124   9.891   9.157  0.3702 -0.7754  1.7919
  664MOL0     H91628   6.499  10.084   9.061  0.7675 -0.5884 -1.6325
  664MOL0     H91629   5.652   9.896   8.834  0.7072  0.4225 -0.5724
  664MOL0     H91630   5.440   9.917   8.770  0.9995 -0.6357  1.1361
  664MOL0     H91631   5.378   9.809   8.647  2.1021  1.1892 -1.2207
  664MOL0     H91632   5.317   9.793   8.816  0.8563  0.6239  1.1395
  665MOL0     O91633   7.523  10.371   6.356  0.7679  0.0355  0.1588
  665MOL0     C91634   7.572  10.462   6.418 -0.5318 -0.0767  0.0369
  665MOL0     O91635   7.693  10.517   6.386  0.0142 -0.0889  1.4079
  665MOL0     C91636   7.766  10.495   6.271 -0.0882  0.2877 -0.4390
  665MOL0     C91637   7.812  10.370   6.232 -0.3328 -0.3497 -0.6497
  665MOL0     C91638   7.917  10.353   6.142  0.0863  0.3277  0.3501
  665MOL0     C91639   7.970  10.464   6.074 -0.5951 -0.2846 -0.4534
  665MOL0     O91640   8.077  10.462   5.993 -0.1094  0.4417 -0.2851
  665MOL0     C91641   8.141  10.334   5.977 -0.0606  0.3007 -0.7976
  665MOL0     C91642   8.268  10.355   5.889  0.7722  0.3948 -0.0035
  665MOL0     C91643   8.362  10.444   5.976  0.1408 -0.4025 -0.0317
  665MOL0     C91644   8.497  10.480   5.913  0.6651  0.8777 -0.3217
  665MOL0     C91645   8.585  10.553   6.015 -0.3990  0.0397 -0.0302
  665MOL0     C91646   8.564  10.704   6.014 -0.4002  0.0247 -0.1792
  665MOL0     C91647   8.640  10.775   6.129 -0.1494  0.3067  0.6249
  665MOL0     C91648   8.744  10.879   6.087  0.7421 -0.3641 -0.4913
  665MOL0     N91649   8.852  10.900   6.184 -0.3802 -0.0088  0.0620
  665MOL0     C91650   8.963  10.818   6.205 -0.1182 -0.7812 -0.0768
  665MOL0     C91651   9.010  10.849   6.324 -0.2618  1.1264  0.0679
  665MOL0     C91652   9.122  10.785   6.398  1.0247 -0.2132 -0.8386
  665MOL0     C91653   9.106  10.634   6.397 -0.5020  0.3357  0.4857
  665MOL0     C91654   9.244  10.568   6.420 -0.1599 -0.3688 -0.7958
  665MOL0     C91655   9.290  10.573   6.563  0.3198 -0.2778 -0.0853
  665MOL0     O91656   9.319  10.710   6.605 -0.3648 -0.6427  0.7731
  665MOL0     C91657   9.376  10.731   6.734 -0.5538 -0.0054 -0.6832
  665MOL0     C91658   9.428  10.855   6.756 -0.7862  1.4439 -0.2465
  665MOL0     C91659   9.487  10.893   6.872 -0.6009 -0.7716  0.0561
  665MOL0     C91660   9.562  11.025   6.873 -1.0763  0.2371  0.2160
  665MOL0     C91661   9.480  10.803   6.986 -0.1092  0.1756 -1.1517
  665MOL0     C91662   9.545  10.841   7.119 -0.3438 -0.4069  0.5980
  665MOL0     O91663   9.541  10.969   7.174  0.8368 -0.0100  0.7405
  665MOL0     C91664   9.585  10.989   7.304  0.0467  0.2953  0.6303
  665MOL0     C91665   9.711  10.955   7.351  0.9246 -0.2889  0.5233
  665MOL0     C91666   9.762  10.988   7.468 -0.4142 -0.1208 -0.2181
  665MOL0     C91667   9.693  11.064   7.555 -0.8302 -0.1552 -0.0592
  665MOL0     O91668   9.757  11.089   7.679  0.3787  0.0512 -0.3023
  665MOL0     C91669   9.679  11.144   7.779  0.6657 -0.4995 -0.4832
  665MOL0     C91670   9.759  11.160   7.909  0.1262  0.5787  1.4578
  665MOL0     C91671   9.895  11.234   7.906 -0.1053  0.9192  0.1197
  665MOL0     C91672  10.014  11.141   7.871 -0.5726  0.4361  0.6309
  665MOL0     C91673  10.147  11.220   7.862 -0.1871  0.2029 -0.3397
  665MOL0     C91674  10.274  11.125   7.886  0.4154  0.3865 -0.4443
  665MOL0     C91675  10.273  11.017   7.780 -0.0310 -0.3312 -0.8912
  665MOL0     C91676  10.397  10.920   7.796  0.4255 -0.4009 -0.0078
  665MOL0    Cl91677  10.398  10.861   7.963 -0.5326  0.1731  0.3640
  665MOL0     C91678   9.564  11.100   7.512 -0.2097  0.4773 -0.6376
  665MOL0     C91679   9.511  11.063   7.395 -0.1660 -0.2471 -0.2424
  665MOL0     O91680   9.599  10.745   7.169 -0.0904  0.4589 -0.3388
  665MOL0     C91681   9.422  10.674   6.963  0.4946 -0.6784  0.6163
  665MOL0     C91682   9.374  10.640   6.837  0.1420 -0.2695  0.5927
  665MOL0     N91683   8.935  10.953   6.375  1.1337  0.2647 -0.4004
  665MOL0     N91684   8.846  10.987   6.289  0.3255  0.3424  0.9694
  665MOL0     C91685   7.930  10.594   6.108 -0.7810  0.6804 -0.3838
  665MOL0     C91686   7.827  10.608   6.200  0.0219  0.2141 -0.5026
  665MOL0     C91687   7.505  10.516   6.540  0.6950  0.5449 -0.4448
  665MOL0     C91688   7.558  10.631   6.598 -0.4248  0.5376  0.1640
  665MOL0     C91689   7.505  10.681   6.721  0.5150  0.5050 -0.8051
  665MOL0     C91690   7.391  10.626   6.776  0.4821 -0.2596 -0.1344
  665MOL0     O91691   7.332  10.672   6.885 -0.0035 -0.3387  0.5262
  665MOL0     C91692   7.358  10.622   7.012 -0.1696 -0.8815 -0.6674
  665MOL0     C91693   7.320  10.726   7.128  0.3681 -0.4201  0.0054
  665MOL0     C91694   7.410  10.851   7.132  0.2632 -0.1273  0.4748
  665MOL0     C91695   7.371  10.940   7.243  0.5433 -0.4262  0.7528
  665MOL0     C91696   7.383  10.879   7.374 -0.1601 -0.4426  0.0325
  665MOL0     C91697   7.418  10.853   7.485 -1.1209 -0.1685 -0.5378
  665MOL0     C91698   7.337  10.508   6.713 -0.2618 -0.2088 -0.1653
  665MOL0     C91699   7.390  10.456   6.600 -1.0504 -0.4200  0.9574
  665MOL0     C91700   7.329  10.327   6.553  0.2013  0.4500 -0.5394
  665MOL0     H91701   7.763  10.282   6.274  0.1946  0.9906  3.0932
  665MOL0     H91702   7.945  10.250   6.123 -0.9507  0.5348 -2.6768
  665MOL0     H91703   8.066  10.267   5.932 -2.8111  2.8904 -0.3984
  665MOL0     H91704   8.170  10.288   6.072  1.1556  2.0330 -0.2846
  665MOL0     H91705   8.315  10.257   5.876  1.7233  0.4442  2.5096
  665MOL0     H91706   8.247  10.409   5.797  3.5096  2.8275  0.6479
  665MOL0     H91707   8.308  10.537   5.997  2.1822  0.8160  0.1122
  665MOL0     H91708   8.369  10.399   6.075 -0.2829  0.3795  0.3618
  665MOL0     H91709   8.542  10.383   5.889 -0.5453  0.5946 -1.6282
  665MOL0     H91710   8.476  10.522   5.814  2.4893 -0.3447 -1.2786
  665MOL0     H91711   8.680  10.547   5.961 -1.8428 -1.0602 -2.6766
  665MOL0     H91712   8.577  10.500   6.110  0.9290 -0.4213 -0.1617
  665MOL0     H91713   8.581  10.751   5.917 -1.1693 -0.5829 -0.6148
  665MOL0     H91714   8.456  10.701   6.028 -1.5790  2.8967 -5.6814
  665MOL0     H91715   8.695  10.706   6.193 -2.0752  0.1974  2.2654
  665MOL0     H91716   8.572  10.822   6.201  0.2643  1.4931  0.2710
  665MOL0     H91717   8.776  10.852   5.986 -0.1949  0.5778 -1.0608
  665MOL0     H91718   8.690  10.974   6.076  1.6979  0.1368 -1.1201
  665MOL0     H91719   9.002  10.740   6.140  0.8737  0.5338 -1.1422
  665MOL0     H91720   9.125  10.815   6.503 -2.4363  0.9025 -0.9565
  665MOL0     H91721   9.217  10.809   6.350  0.7130 -3.1891 -3.2283
  665MOL0     H91722   9.034  10.602   6.473  0.0029 -0.4486  0.6531
  665MOL0     H91723   9.066  10.599   6.301  1.7774  0.7080 -0.6686
  665MOL0     H91724   9.244  10.462   6.394 -1.0814 -0.6784  0.3868
  665MOL0     H91725   9.324  10.620   6.366  1.0704 -1.2894  0.0698
  665MOL0     H91726   9.220  10.526   6.633  1.2787  0.6216  1.5387
  665MOL0     H91727   9.378  10.509   6.560  0.4107 -0.1240 -1.2731
  665MOL0     H91728   9.436  10.928   6.676  1.2561  3.0786  1.3438
  665MOL0     H91729   9.503  11.113   6.900 -1.6646  1.0593 -3.3633
  665MOL0     H91730   9.609  11.036   6.775  1.0581 -1.8320  0.8994
  665MOL0     H91731   9.649  11.024   6.941  0.1078 -0.0389 -1.2505
  665MOL0     H91732   9.781  10.924   7.274  1.8819  0.7412  0.9535
  665MOL0     H91733   9.863  10.960   7.495 -0.7477  0.2771  1.5483
  665MOL0     H91734   9.617  11.228   7.749 -1.3247 -1.6588  0.2130
  665MOL0     H91735   9.616  11.056   7.794  0.0689 -0.2614 -1.5248
  665MOL0     H91736   9.702  11.215   7.984  1.0143  1.8672  1.2243
  665MOL0     H91737   9.782  11.061   7.950  1.2016  0.6918  1.1635
  665MOL0     H91738   9.911  11.275   8.006 -1.9588 -2.3182  1.9019
  665MOL0     H91739   9.903  11.322   7.841 -0.1447  0.1738 -0.9139
  665MOL0     H91740   9.994  11.102   7.770 -0.1990 -1.1096  1.1200
  665MOL0     H91741  10.027  11.056   7.939  1.0002 -0.9946 -1.3442
  665MOL0     H91742  10.153  11.250   7.757 -0.1604  1.4518  0.0095
  665MOL0     H91743  10.146  11.310   7.923  1.6443  0.4234 -0.5753
  665MOL0     H91744  10.279  11.084   7.987  0.6938 -0.5002 -0.8165
  665MOL0     H91745  10.357  11.193   7.862 -0.7995  0.5670 -5.3466
  665MOL0     H91746  10.263  11.058   7.679 -2.2274 -1.5734 -1.2490
  665MOL0     H91747  10.176  10.969   7.795 -0.5074  1.2943  1.7767
  665MOL0     H91748  10.492  10.971   7.779  0.3505 -0.2817 -0.0759
  665MOL0     H91749  10.401  10.844   7.717  0.0947  0.5618 -0.9735
  665MOL0     H91750   9.507  11.161   7.581 -2.6540 -3.0918  0.8128
  665MOL0     H91751   9.410  11.102   7.388  0.9967  2.9204 -0.9204
  665MOL0     H91752   9.423  10.595   7.037 -1.9735 -0.2024  1.2613
  665MOL0     H91753   9.344  10.539   6.812 -0.0451 -0.2423  0.7063
  665MOL0     H91754   7.986  10.674   6.061 -1.9331  0.8787 -1.4703
  665MOL0     H91755   7.795  10.707   6.230  0.2908 -0.0367  0.6662
  665MOL0     H91756   7.649  10.680   6.566  1.8223 -1.0097  3.4946
  665MOL0     H91757   7.554  10.771   6.759  2.1097  0.6417 -2.9646
  665MOL0     H91758   7.292  10.534   7.013  0.5758 -1.4508  0.0539
  665MOL0     H91759   7.463  10.595   7.028  0.9709  3.6969  1.0534
  665MOL0     H91760   7.323  10.677   7.226  0.6005  1.7419  1.1314
  665MOL0     H91761   7.216  10.752   7.108 -0.1713 -0.9473  1.9098
  665MOL0     H91762   7.515  10.821   7.138  1.0027  2.2101  0.3909
  665MOL0     H91763   7.400  10.911   7.041  2.1456  0.1738  0.4134
  665MOL0     H91764   7.264  10.963   7.240  0.4991 -0.7373 -1.4309
  665MOL0     H91765   7.424  11.035   7.243 -1.0267  0.4821 -0.3841
  665MOL0     H91766   7.458  10.844   7.584 -0.8747 -0.8227 -0.6929
  665MOL0     H91767   7.250  10.463   6.760 -0.1809  1.7728  2.0888
  665MOL0     H91768   7.236  10.313   6.609 -1.1584  2.7408 -2.0540
  665MOL0     H91769   7.313  10.324   6.444 -0.9912 -0.3140 -0.3616
  665MOL0     H91770   7.400  10.249   6.582  1.0018  1.9182  1.5799
  666MOL0     O91771   8.842   6.768  10.736  0.5260 -0.0458  0.1688
  666MOL0     C91772   8.867   6.742  10.856  0.3026  0.7414 -0.6282
  666MOL0     O91773   8.974   6.794  10.922  0.0250  0.0950 -0.9639
  666MOL0     C91774   9.046   6.900  10.874  0.1400 -0.0930 -0.7397
  666MOL0     C91775   9.004   6.988  10.771 -0.1239 -0.6060 -0.6007
  666MOL0     C91776   9.089   7.086  10.727 -1.8416  0.5422  0.2383
  666MOL0     C91777   9.224   7.100  10.775  0.0586 -0.1222  0.3040
  666MOL0     O91778   9.318   7.187  10.723  0.7791  0.0870 -0.3529
  666MOL0     C91779   9.271   7.301  10.648 -0.0870 -0.6541 -0.5316
  666MOL0     C91780   9.390   7.397  10.604 -0.3461 -0.2164  0.0684
  666MOL0     C91781   9.396   7.435  10.449 -0.2942  0.0934 -0.1145
  666MOL0     C91782   9.521   7.517  10.427 -0.3105 -0.0366  0.6891
  666MOL0     C91783   9.550   7.540  10.284  0.1466  0.2988 -0.2285
  666MOL0     C91784   9.579   7.409  10.206 -0.0505  0.1284  0.2136
  666MOL0     C91785   9.621   7.440  10.068 -0.2744  0.1057 -0.2461
  666MOL0     C91786   9.611   7.321   9.973  0.0053  0.3521  0.2062
  666MOL0     N91787   9.611   7.367   9.832  0.7733 -0.4556 -0.1987
  666MOL0     C91788   9.539   7.477   9.796 -0.4534 -0.1792 -0.6380
  666MOL0     C91789   9.590   7.515   9.679  0.6650  0.4686  0.1182
  666MOL0     C91790   9.547   7.624   9.587 -0.0634  0.5091  0.6929
  666MOL0     C91791   9.471   7.572   9.464  0.4767  0.3920  0.2099
  666MOL0     C91792   9.552   7.556   9.335  1.0718  0.0226 -0.3856
  666MOL0     C91793   9.650   7.445   9.330  0.0902 -1.1254  0.6640
  666MOL0     O91794   9.697   7.433   9.196  0.3318  0.3859  0.5222
  666MOL0     C91795   9.803   7.343   9.169  0.2485 -0.6500  0.8134
  666MOL0     C91796   9.864   7.349   9.043  0.5079 -0.4442  0.0939
  666MOL0     C91797   9.979   7.269   9.011 -0.0272 -0.5191  0.3255
  666MOL0     C91798  10.046   7.289   8.879 -0.5648  0.3147  0.2053
  666MOL0     C91799  10.028   7.171   9.097  0.1216 -0.6755  0.6046
  666MOL0     C91800  10.135   7.071   9.063  0.5211  0.0032 -0.6595
  666MOL0     O91801  10.191   7.065   8.938 -0.0921  0.1881 -0.1915
  666MOL0     C91802  10.287   6.973   8.893  0.7945 -0.3797  0.3778
  666MOL0     C91803  10.287   6.948   8.755  0.1741 -0.9059  1.3169
  666MOL0     C91804  10.376   6.863   8.692 -0.7717  0.7567 -0.3589
  666MOL0     C91805  10.474   6.797   8.768 -0.5277 -0.2862 -0.4099
  666MOL0     O91806  10.551   6.703   8.711 -0.0336  0.4020  0.4135
  666MOL0     C91807  10.697   6.714   8.716  0.4392 -0.3311  0.2292
  666MOL0     C91808  10.765   6.598   8.644 -0.6434 -0.0756 -0.7388
  666MOL0     C91809  10.909   6.591   8.683 -0.0227 -1.0041  0.0784
  666MOL0     C91810  10.969   6.487   8.594 -0.6443  0.8455 -0.2312
  666MOL0     C91811  11.114   6.469   8.633  0.5000  0.6329  0.2114
  666MOL0     C91812  11.182   6.352   8.546  0.1845 -0.2392  0.4431
  666MOL0     C91813  11.337   6.346   8.551  0.0555 -0.3927 -0.2533
  666MOL0     C91814  11.415   6.476   8.552  0.5930 -0.5240 -0.3024
  666MOL0    Cl91815  11.577   6.455   8.485 -0.1572  0.1073 -0.4160
  666MOL0     C91816  10.479   6.835   8.903 -0.5035  1.0713 -0.6927
  666MOL0     C91817  10.384   6.910   8.972  0.5353 -0.3537  0.1465
  666MOL0     O91818  10.167   6.997   9.151 -0.2576  0.0730 -0.1793
  666MOL0     C91819   9.966   7.169   9.218  0.2046 -0.4126 -0.5382
  666MOL0     C91820   9.863   7.254   9.253  0.9535 -0.2005  0.2257
  666MOL0     N91821   9.690   7.435   9.648 -0.6960  0.6042 -0.0280
  666MOL0     N91822   9.709   7.347   9.740  0.4924  0.6726 -0.1765
  666MOL0     C91823   9.258   7.013  10.878 -0.1274 -0.2680 -0.4063
  666MOL0     C91824   9.171   6.913  10.928 -0.2823  0.5163 -0.0792
  666MOL0     C91825   8.780   6.655  10.939 -0.5134  0.0439 -0.9495
  666MOL0     C91826   8.798   6.676  11.077 -0.4839  0.5828  0.8652
  666MOL0     C91827   8.733   6.595  11.169 -0.1805 -0.2297  0.3382
  666MOL0     C91828   8.644   6.498  11.130 -0.2673 -0.7906 -0.4229
  666MOL0     O91829   8.585   6.415  11.222 -0.0730  0.6887  0.8480
  666MOL0     C91830   8.628   6.412  11.362 -0.3602 -0.0077 -0.9709
  666MOL0     C91831   8.568   6.533  11.430 -0.1923  0.2463 -1.3068
  666MOL0     C91832   8.582   6.519  11.583 -1.3029  0.0483  0.3249
  666MOL0     C91833   8.523   6.632  11.658 -0.5685  0.6890 -0.0680
  666MOL0     C91834   8.551   6.619  11.802  0.1036  0.4535  0.2096
  666MOL0     C91835   8.593   6.606  11.918 -0.7601  0.2796  0.9095
  666MOL0     C91836   8.620   6.478  10.998 -0.3588 -1.0099 -0.8319
  666MOL0     C91837   8.692   6.558  10.899  0.2283  1.3184 -0.9812
  666MOL0     C91838   8.671   6.510  10.755  0.2027 -0.5750 -0.2540
  666MOL0     H91839   8.909   6.977  10.719 -0.0170 -1.4377 -0.6447
  666MOL0     H91840   9.056   7.151  10.647 -2.4499  2.1210  1.6938
  666MOL0     H91841   9.197   7.359  10.704  1.8829  1.0791  0.3744
  666MOL0     H91842   9.233   7.258  10.554  0.4527 -2.1843 -0.0773
  666MOL0     H91843   9.404   7.494  10.653 -1.5755 -0.3336  0.6955
  666MOL0     H91844   9.472   7.334  10.638 -0.0703 -0.8931 -1.7185
  666MOL0     H91845   9.402   7.340  10.395 -0.8073  1.9535 -3.7384
  666MOL0     H91846   9.302   7.488  10.429 -0.1989 -0.0159 -0.8456
  666MOL0     H91847   9.507   7.616  10.472  1.0357  0.8652 -0.7572
  666MOL0     H91848   9.600   7.469  10.487 -1.1571 -0.5159  1.4393
  666MOL0     H91849   9.629   7.615  10.275  1.1986 -0.9132 -1.7596
  666MOL0     H91850   9.457   7.587  10.250  0.2852  1.6391  1.1646
  666MOL0     H91851   9.661   7.351  10.249  0.2691 -0.7677 -1.4811
  666MOL0     H91852   9.487   7.350  10.203 -0.6378  1.0709 -1.6658
  666MOL0     H91853   9.722   7.480  10.066  0.8579 -2.3239  1.8472
  666MOL0     H91854   9.552   7.520  10.040  0.2399  1.2075  1.5041
  666MOL0     H91855   9.693   7.249   9.978  0.7032  0.9520 -1.5700
  666MOL0     H91856   9.520   7.263   9.989  1.4991 -1.7136  1.6876
  666MOL0     H91857   9.459   7.516   9.857  0.3357  0.0354  0.2755
  666MOL0     H91858   9.639   7.676   9.558  0.7398 -1.9521 -1.6524
  666MOL0     H91859   9.470   7.683   9.638 -0.4204 -0.6666  1.5652
  666MOL0     H91860   9.435   7.470   9.482 -1.0678  0.9822  0.6133
  666MOL0     H91861   9.385   7.639   9.452  1.5454  1.9078  0.7234
  666MOL0     H91862   9.472   7.532   9.264  1.4167  0.3123 -0.8752
  666MOL0     H91863   9.597   7.650   9.305  3.3397 -0.7220  0.5214
  666MOL0     H91864   9.728   7.472   9.401  4.0107 -1.2263 -3.1812
  666MOL0     H91865   9.603   7.356   9.373 -1.8420 -0.8606 -0.7735
  666MOL0     H91866   9.811   7.413   8.972 -1.1084 -0.1918  1.4709
  666MOL0     H91867  10.002   7.368   8.818 -0.8585 -1.1616 -1.6261
  666MOL0     H91868  10.047   7.198   8.817 -0.3273  0.5565 -0.1516
  666MOL0     H91869  10.149   7.324   8.890  0.0960 -1.1631 -0.8454
  666MOL0     H91870  10.219   6.994   8.684 -0.1861 -0.2844  2.0541
  666MOL0     H91871  10.376   6.843   8.585 -1.4764  3.7803 -1.0380
  666MOL0     H91872  10.730   6.805   8.665 -0.1190  0.1313  0.6802
  666MOL0     H91873  10.727   6.714   8.822  1.0947 -2.2705  0.0737
  666MOL0     H91874  10.719   6.508   8.687  1.5986 -0.9913 -0.1089
  666MOL0     H91875  10.747   6.599   8.536  2.8880 -0.1017 -1.4413
  666MOL0     H91876  10.931   6.563   8.786 -0.4303  0.7236  0.6522
  666MOL0     H91877  10.962   6.686   8.680 -2.6200  0.5135 -1.0867
  666MOL0     H91878  10.961   6.519   8.490 -1.0673  0.4684 -0.3193
  666MOL0     H91879  10.928   6.387   8.613  0.0635  0.4743 -0.6016
  666MOL0     H91880  11.151   6.569   8.607 -2.5060  2.0681  1.0430
  666MOL0     H91881  11.138   6.452   8.738  1.4172  0.3983 -0.0250
  666MOL0     H91882  11.149   6.371   8.444 -1.3361  1.8228  1.2520
  666MOL0     H91883  11.151   6.250   8.573  1.8559 -1.0652 -0.5889
  666MOL0     H91884  11.364   6.280   8.468  2.1261  0.5858 -0.4033
  666MOL0     H91885  11.362   6.299   8.646  1.4464  0.9071  0.0518
  666MOL0     H91886  11.413   6.516   8.654 -0.2213  2.5863 -1.4373
  666MOL0     H91887  11.348   6.543   8.497 -1.6933 -1.7449  0.8134
  666MOL0     H91888  10.566   6.803   8.961  1.3377  1.5500 -3.0322
  666MOL0     H91889  10.387   6.921   9.080  1.7394  0.3333  0.0536
  666MOL0     H91890   9.997   7.088   9.283  0.7910  1.9205  2.3255
  666MOL0     H91891   9.825   7.248   9.355 -1.2624  0.6497 -0.4904
  666MOL0     H91892   9.362   7.023  10.910  0.1122 -0.4610 -1.1012
  666MOL0     H91893   9.213   6.840  10.996 -2.2537  0.1418  0.8180
  666MOL0     H91894   8.861   6.756  11.114  1.8257 -0.3155 -0.9310
  666MOL0     H91895   8.749   6.614  11.274  0.3977 -0.8230  0.3661
  666MOL0     H91896   8.581   6.320  11.398 -1.8941  1.0623 -0.0518
  666MOL0     H91897   8.735   6.401  11.377 -0.4508 -0.3688 -0.5707
  666MOL0     H91898   8.461   6.535  11.407 -0.4836 -3.2779 -0.8873
  666MOL0     H91899   8.615   6.630  11.413 -1.7855  1.1878 -0.4729
  666MOL0     H91900   8.525   6.427  11.604  2.3437 -3.3263 -2.8709
  666MOL0     H91901   8.688   6.509  11.608 -1.2631  1.7120  0.8779
  666MOL0     H91902   8.414   6.643  11.663 -0.6083 -0.0770  3.6636
  666MOL0     H91903   8.562   6.728  11.622 -0.2677  0.2536 -0.9272
  666MOL0     H91904   8.642   6.614  12.012  0.2293  2.5462  0.2711
  666MOL0     H91905   8.549   6.405  10.959 -1.7452  0.2414 -0.7210
  666MOL0     H91906   8.768   6.485  10.712  0.8306  1.0314  0.1756
  666MOL0     H91907   8.591   6.436  10.741 -0.8875  0.6547 -0.6662
  666MOL0     H91908   8.636   6.598  10.701  0.4724 -0.0204  0.4511
  667MOL0     O91909   2.139   7.127  10.264  0.2329 -0.1388  0.5748
  667MOL0     C91910   2.208   7.057  10.337  0.3413 -0.3508  0.3472
  667MOL0     O91911   2.291   7.115  10.443 -1.1686 -0.3630 -0.2158
  667MOL0     C91912   2.317   7.250  10.422  0.2935  0.8339  0.6081
  667MOL0     C91913   2.440   7.293  10.360 -0.0927 -0.1320 -0.7422
  667MOL0     C91914   2.459   7.427  10.339  0.3483 -0.4730  0.2774
  667MOL0     C91915   2.365   7.529  10.369 -0.2666 -0.6820 -0.2080
  667MOL0     O91916   2.377   7.657  10.326  0.7089  0.9209 -0.1464
  667MOL0     C91917   2.490   7.690  10.251 -0.4557  0.2737  0.1396
  667MOL0     C91918   2.517   7.844  10.246 -0.3366  0.7231  0.2050
  667MOL0     C91919   2.644   7.889  10.161 -0.1720 -0.4459  0.8020
  667MOL0     C91920   2.659   8.048  10.153  0.0582  0.5554  0.2083
  667MOL0     C91921   2.595   8.122  10.032 -0.1910 -0.9621  0.2282
  667MOL0     C91922   2.614   8.276  10.049 -0.1289  0.2306 -0.3032
  667MOL0     C91923   2.740   8.333   9.998 -0.0269  0.1800  0.1031
  667MOL0     C91924   2.764   8.469  10.061  0.3817  0.3455 -0.0761
  667MOL0     N91925   2.875   8.541  10.000  0.1586 -0.3505 -0.1642
  667MOL0     C91926   2.879   8.578   9.867  0.0296 -0.4470  0.3224
  667MOL0     C91927   2.973   8.675   9.860  1.0877  0.9141  0.0634
  667MOL0     C91928   3.001   8.768   9.740  0.5015  0.3331  0.3720
  667MOL0     C91929   2.903   8.889   9.740  0.2021  1.1875  0.0940
  667MOL0     C91930   2.950   9.008   9.835 -0.2344  0.1564 -0.2631
  667MOL0     C91931   3.039   9.105   9.754  0.1675 -0.4555  0.5676
  667MOL0     O91932   3.166   9.036   9.738  0.2934  0.5191 -0.6072
  667MOL0     C91933   3.255   9.096   9.649  0.1149 -0.2986 -0.1727
  667MOL0     C91934   3.370   9.025   9.615 -0.8658  0.1820 -0.0605
  667MOL0     C91935   3.462   9.074   9.520 -0.4468  0.1637  0.6340
  667MOL0     C91936   3.578   8.989   9.502 -0.2195 -0.8026 -0.1708
  667MOL0     C91937   3.429   9.195   9.453 -0.1301  0.9645  0.2753
  667MOL0     C91938   3.506   9.245   9.336  0.3473 -0.1833  0.3871
  667MOL0     O91939   3.449   9.344   9.257 -0.1195 -0.1209  0.0282
  667MOL0     C91940   3.528   9.411   9.177  0.1958  0.1792  0.1775
  667MOL0     C91941   3.514   9.401   9.040 -0.0808  0.1565 -0.6798
  667MOL0     C91942   3.599   9.479   8.954  0.1561 -0.0978  0.5878
  667MOL0     C91943   3.696   9.563   8.999 -0.5511  0.0448  0.5997
  667MOL0     O91944   3.776   9.627   8.900  0.1237 -0.0002  0.1097
  667MOL0     C91945   3.881   9.724   8.933  0.6921 -0.2932  0.6210
  667MOL0     C91946   3.927   9.804   8.816 -0.1576  0.3294  0.1173
  667MOL0     C91947   3.989   9.719   8.710 -0.3803 -0.5021  0.1554
  667MOL0     C91948   4.003   9.809   8.586  0.1161 -0.7094 -1.4348
  667MOL0     C91949   4.073   9.727   8.475  1.2241  0.1721  1.0121
  667MOL0     C91950   4.011   9.580   8.426  0.0819  0.0284  0.5468
  667MOL0     C91951   3.856   9.594   8.406  0.5776 -0.3781 -0.1553
  667MOL0     C91952   3.806   9.462   8.352  0.1226  0.2494 -0.0666
  667MOL0    Cl91953   3.812   9.332   8.485  0.0406 -0.2786  0.5068
  667MOL0     C91954   3.703   9.582   9.137  0.3926  0.4970 -0.6628
  667MOL0     C91955   3.618   9.502   9.223 -0.1124 -0.1353  0.2515
  667MOL0     O91956   3.620   9.201   9.318 -0.0753 -0.3521  0.1850
  667MOL0     C91957   3.316   9.278   9.503  0.2030 -0.2066  0.7603
  667MOL0     C91958   3.235   9.235   9.611 -0.0699 -0.2454  0.6116
  667MOL0     N91959   3.024   8.686   9.984  0.2811 -0.4051  0.3214
  667MOL0     N91960   2.965   8.620  10.070 -0.0332  0.2226 -0.5726
  667MOL0     C91961   2.254   7.486  10.443  0.2095  0.0913  0.1395
  667MOL0     C91962   2.229   7.349  10.466  0.1210  0.0039 -0.7210
  667MOL0     C91963   2.182   6.912  10.323  0.0688 -0.8264  0.5132
  667MOL0     C91964   2.241   6.836  10.425  0.0214  0.8405  0.2241
  667MOL0     C91965   2.210   6.698  10.433  0.1437 -0.2340 -0.2322
  667MOL0     C91966   2.118   6.635  10.351  0.2787  0.5211  0.0743
  667MOL0     O91967   2.072   6.507  10.361 -0.2863  0.1886  0.4425
  667MOL0     C91968   2.134   6.410  10.442  0.1724 -0.3716 -0.6304
  667MOL0     C91969   2.104   6.426  10.590  0.0411  0.0917 -0.0860
  667MOL0     C91970   1.947   6.453  10.612 -0.1043  0.0005  0.4995
  667MOL0     C91971   1.914   6.470  10.766 -0.1515  1.0722  0.7468
  667MOL0     C91972   1.941   6.606  10.801  0.6763  0.5350  0.0850
  667MOL0     C91973   1.946   6.723  10.837 -0.7282  0.5699 -0.6443
  667MOL0     C91974   2.067   6.712  10.245 -0.4072 -0.7776 -0.0491
  667MOL0     C91975   2.093   6.856  10.230  0.6604  1.0078 -0.6960
  667MOL0     C91976   2.040   6.911  10.103 -0.0551 -0.4163  0.7181
  667MOL0     H91977   2.512   7.226  10.314  0.8584  1.3296 -1.4760
  667MOL0     H91978   2.553   7.447  10.288  0.1961  2.8170  1.0676
  667MOL0     H91979   2.474   7.655  10.149 -2.1540  1.3973 -0.0270
  667MOL0     H91980   2.584   7.649  10.289 -1.0921 -0.5060  0.9468
  667MOL0     H91981   2.424   7.881  10.202 -0.3295  0.2609 -0.2029
  667MOL0     H91982   2.531   7.883  10.347  1.7632 -0.0769  0.2840
  667MOL0     H91983   2.728   7.848  10.218 -2.2529 -1.7737  3.1687
  667MOL0     H91984   2.648   7.839  10.064  0.2335  0.5223  0.2990
  667MOL0     H91985   2.622   8.088  10.248  0.8897 -0.4152  0.9662
  667MOL0     H91986   2.763   8.071  10.132  0.2518  1.4959  2.0098
  667MOL0     H91987   2.487   8.107  10.045 -0.5135  0.4057 -0.7142
  667MOL0     H91988   2.628   8.082   9.936  1.7752  0.9079  0.0627
  667MOL0     H91989   2.528   8.339  10.023 -0.7924 -0.5341  0.0034
  667MOL0     H91990   2.621   8.284  10.157 -2.9388 -1.5089  0.1187
  667MOL0     H91991   2.732   8.341   9.889 -0.6398  2.4296  0.2729
  667MOL0     H91992   2.818   8.261  10.025  0.1943  1.0763  2.0341
  667MOL0     H91993   2.665   8.511  10.038 -0.4020 -1.6579 -0.5328
  667MOL0     H91994   2.777   8.459  10.169  0.4422  0.1633 -0.1007
  667MOL0     H91995   2.813   8.550   9.785 -1.5590 -2.9513  2.3072
  667MOL0     H91996   3.010   8.715   9.645  0.8558  0.3232  0.4085
  667MOL0     H91997   3.102   8.807   9.758 -0.2570  1.4839  2.4219
  667MOL0     H91998   2.904   8.923   9.636 -1.4050 -0.0579 -0.3654
  667MOL0     H91999   2.801   8.854   9.759  0.5049  0.1924 -0.0656
  667MOL0     H92000   2.862   9.063   9.871 -1.8220 -1.9724 -0.6640
  667MOL0     H92001   3.009   8.973   9.919  0.5393 -0.8261 -1.1952
  667MOL0     H92002   2.989   9.129   9.660 -1.6893  2.3858  2.1129
  667MOL0     H92003   3.047   9.205   9.799 -1.3117 -0.6403  1.3031
  667MOL0     H92004   3.379   8.927   9.662 -0.5076  0.7967  1.1978
  667MOL0     H92005   3.673   9.042   9.507 -1.1668  1.1878 -1.8098
  667MOL0     H92006   3.585   8.960   9.396  0.1927  0.6892 -0.5803
  667MOL0     H92007   3.573   8.901   9.566 -3.1962 -1.4097 -1.0642
  667MOL0     H92008   3.444   9.325   9.008 -0.0294 -0.9446  1.6426
  667MOL0     H92009   3.601   9.475   8.845  0.2923  2.7454  0.4277
  667MOL0     H92010   3.844   9.796   9.006 -0.1849  0.3882 -0.4472
  667MOL0     H92011   3.971   9.675   8.971  1.0973  0.1742  0.2828
  667MOL0     H92012   3.847   9.864   8.772  0.7689  1.6775  0.2145
  667MOL0     H92013   4.009   9.867   8.852 -0.3744  0.9913 -0.5231
  667MOL0     H92014   3.918   9.638   8.691 -0.3048 -1.6383  3.9562
  667MOL0     H92015   4.082   9.674   8.744 -0.5227  1.4675  3.5562
  667MOL0     H92016   4.057   9.903   8.603  2.1629 -1.7963 -1.6708
  667MOL0     H92017   3.905   9.834   8.545 -0.5105 -1.1494 -0.2493
  667MOL0     H92018   4.070   9.788   8.385 -1.9086  1.2170  1.7007
  667MOL0     H92019   4.179   9.713   8.500  1.2121 -0.4355  0.7538
  667MOL0     H92020   4.026   9.502   8.502  2.3931 -0.2353 -0.0847
  667MOL0     H92021   4.058   9.562   8.328  0.5784 -0.5431  0.8826
  667MOL0     H92022   3.826   9.678   8.343  1.4666 -0.7282 -1.0706
  667MOL0     H92023   3.808   9.606   8.503 -0.2263  0.6498 -0.6660
  667MOL0     H92024   3.867   9.436   8.265  0.0948  0.7317 -0.2349
  667MOL0     H92025   3.702   9.478   8.324  0.1146  2.7210  1.1421
  667MOL0     H92026   3.779   9.648   9.178  1.9562 -2.1447  0.9819
  667MOL0     H92027   3.624   9.511   9.331  0.1679 -0.1959  0.2421
  667MOL0     H92028   3.303   9.380   9.469 -2.0089  0.2692  2.7785
  667MOL0     H92029   3.155   9.295   9.654  0.0327 -1.3310  2.4003
  667MOL0     H92030   2.185   7.563  10.477  1.9710  1.3406  1.0769
  667MOL0     H92031   2.140   7.331  10.526 -2.6364  3.2557 -3.3692
  667MOL0     H92032   2.303   6.883  10.501  1.7058  2.3420 -1.9602
  667MOL0     H92033   2.253   6.650  10.520  2.4196  2.9800  0.5947
  667MOL0     H92034   2.114   6.307  10.411  1.0711 -1.2206  1.4116
  667MOL0     H92035   2.243   6.403  10.434  0.2179 -3.7190  0.9674
  667MOL0     H92036   2.168   6.489  10.652 -0.0725 -0.1475  0.2839
  667MOL0     H92037   2.116   6.324  10.628 -1.8934  0.1286  0.7476
  667MOL0     H92038   1.926   6.545  10.558 -0.3470 -0.3986 -0.0895
  667MOL0     H92039   1.874   6.382  10.571  0.7196 -1.2300  1.1006
  667MOL0     H92040   1.978   6.405  10.827 -0.7110 -1.2862 -1.0412
  667MOL0     H92041   1.808   6.446  10.784  0.5810 -1.8165  1.7413
  667MOL0     H92042   1.956   6.826  10.862  1.6220  1.2257 -3.5729
  667MOL0     H92043   1.992   6.659  10.188 -2.5354  2.4900 -0.6022
  667MOL0     H92044   2.046   6.845  10.016  2.8111  2.1509 -1.2555
  667MOL0     H92045   1.938   6.949  10.117  0.4000  0.6506  1.2720
  667MOL0     H92046   2.100   6.993  10.062  0.6434 -1.8159 -1.1817
  668MOL0     O92047   1.172   7.080   5.088  0.1434  0.3780 -0.1935
  668MOL0     C92048   1.132   7.158   5.009 -0.5230 -0.1798  0.1217
  668MOL0     O92049   1.189   7.177   4.881 -0.6120 -0.1869  0.4825
  668MOL0     C92050   1.317   7.144   4.849 -1.3235 -0.0104 -0.7036
  668MOL0     C92051   1.390   7.236   4.778 -0.5513 -0.4178 -0.5421
  668MOL0     C92052   1.522   7.208   4.726  0.5550  0.1315  0.3911
  668MOL0     C92053   1.581   7.082   4.756  0.3767 -0.1653  0.4369
  668MOL0     O92054   1.708   7.039   4.721  0.3313  0.1395 -0.3948
  668MOL0     C92055   1.785   7.128   4.639  0.0923 -0.1320 -0.5943
  668MOL0     C92056   1.939   7.091   4.657 -0.1665  0.3649  0.6870
  668MOL0     C92057   1.968   6.962   4.612 -1.7814 -1.0220  0.0277
  668MOL0     C92058   2.114   6.926   4.640 -0.2818 -0.4004 -0.0964
  668MOL0     C92059   2.177   6.813   4.560 -0.0521 -0.0052 -0.3318
  668MOL0     C92060   2.306   6.758   4.637  0.7713 -0.1801  0.3641
  668MOL0     C92061   2.352   6.625   4.575  1.3952  0.5601  1.0484
  668MOL0     C92062   2.483   6.578   4.638  0.6909  0.6024  0.4034
  668MOL0     N92063   2.592   6.675   4.627  0.4013 -0.6268 -0.3338
  668MOL0     C92064   2.657   6.736   4.736  0.0999  0.3920  0.1030
  668MOL0     C92065   2.759   6.806   4.683 -0.2379 -0.2319 -0.5976
  668MOL0     C92066   2.852   6.900   4.759  0.4489  0.4370  0.0711
  668MOL0     C92067   3.000   6.862   4.725  0.7022 -0.9517 -0.2539
  668MOL0     C92068   3.039   6.720   4.769  0.5516 -0.5234  0.2083
  668MOL0     C92069   3.182   6.699   4.739 -0.5045 -0.3624  0.1348
  668MOL0     O92070   3.247   6.804   4.809 -0.2184  0.1404  0.4867
  668MOL0     C92071   3.383   6.814   4.804 -0.8805  0.1701 -0.1799
  668MOL0     C92072   3.445   6.907   4.884  0.1899  0.6710 -0.3069
  668MOL0     C92073   3.589   6.921   4.884  0.5889 -0.3899  0.3747
  668MOL0     C92074   3.642   7.027   4.976  0.1891 -0.5475 -0.6927
  668MOL0     C92075   3.668   6.844   4.796 -0.5558 -0.8704  0.4380
  668MOL0     C92076   3.814   6.858   4.794  0.3628 -0.3965 -0.0398
  668MOL0     O92077   3.887   6.962   4.735 -0.5381  0.7267 -0.5354
  668MOL0     C92078   4.019   6.932   4.701 -0.1398  0.7991  0.7990
  668MOL0     C92079   4.047   6.881   4.584 -0.2529 -0.7431  0.3390
  668MOL0     C92080   4.183   6.858   4.549  0.6275  0.5720 -0.0692
  668MOL0     C92081   4.288   6.888   4.629 -0.7898 -0.1699 -0.5448
  668MOL0     O92082   4.420   6.860   4.586  0.0154 -0.6335  0.3124
  668MOL0     C92083   4.537   6.860   4.677  0.2774 -0.3811  0.0903
  668MOL0     C92084   4.659   6.813   4.613  0.0029 -0.0815  0.2083
  668MOL0     C92085   4.776   6.807   4.717  0.2931 -0.1206 -0.1996
  668MOL0     C92086   4.913   6.816   4.658  0.8861 -0.9238 -0.4509
  668MOL0     C92087   5.017   6.845   4.766  0.3029  0.5811  0.8461
  668MOL0     C92088   5.155   6.799   4.727 -0.7311  0.2191  0.1514
  668MOL0     C92089   5.249   6.857   4.834 -0.6320  0.0611  0.3490
  668MOL0     C92090   5.255   6.761   4.955 -0.5340  0.6997  0.1506
  668MOL0    Cl92091   5.353   6.833   5.084  0.1222 -0.4529 -0.5090
  668MOL0     C92092   4.251   6.947   4.754 -0.6211 -0.2109  0.2431
  668MOL0     C92093   4.120   6.973   4.788  0.7931  1.3550  1.0002
  668MOL0     O92094   3.864   6.748   4.817 -0.4637  0.2541  0.0459
  668MOL0     C92095   3.607   6.748   4.714  1.0257  0.2764 -0.3971
  668MOL0     C92096   3.461   6.730   4.709 -0.8113  0.0393 -0.3112
  668MOL0     N92097   2.751   6.802   4.549 -0.3297  0.7065 -0.4168
  668MOL0     N92098   2.651   6.729   4.522 -0.7447  0.0240 -0.1000
  668MOL0     C92099   1.504   6.989   4.828  0.5787 -0.2880 -0.1501
  668MOL0     C92100   1.376   7.019   4.870 -0.8124 -0.8114  0.5745
  668MOL0     C92101   1.001   7.220   5.034  0.4337  0.8399 -0.1407
  668MOL0     C92102   0.957   7.328   4.956 -0.3063 -0.1687 -0.6119
  668MOL0     C92103   0.833   7.391   4.978 -0.4861 -0.3085 -1.0334
  668MOL0     C92104   0.756   7.349   5.091 -0.2640  0.1748 -0.4529
  668MOL0     O92105   0.640   7.404   5.145  0.0333 -0.0703  0.2208
  668MOL0     C92106   0.599   7.537   5.101 -0.3982  0.3635  1.1078
  668MOL0     C92107   0.677   7.660   5.150 -0.5450 -0.5602  0.4534
  668MOL0     C92108   0.636   7.775   5.061  0.3273 -0.3728 -0.0282
  668MOL0     C92109   0.715   7.903   5.104 -0.8088 -0.0999  1.0777
  668MOL0     C92110   0.662   7.967   5.220  0.8479  0.4822  0.9445
  668MOL0     C92111   0.632   8.021   5.324  0.2116  1.2431  0.2579
  668MOL0     C92112   0.798   7.237   5.163 -0.3095 -0.0952  0.5979
  668MOL0     C92113   0.903   7.160   5.123  0.5532 -0.1358 -0.2593
  668MOL0     C92114   0.921   7.032   5.190 -0.1287 -0.2931 -0.8194
  668MOL0     H92115   1.361   7.340   4.784 -0.9374 -0.5890  0.7495
  668MOL0     H92116   1.575   7.297   4.695  1.0506  0.5163  2.2619
  668MOL0     H92117   1.767   7.227   4.683  0.7268  1.5816 -3.9043
  668MOL0     H92118   1.751   7.115   4.536  0.9172 -1.9349 -0.6844
  668MOL0     H92119   2.001   7.152   4.591 -0.3434 -0.7724 -0.5910
  668MOL0     H92120   1.968   7.094   4.762  2.1735 -1.4200  0.1960
  668MOL0     H92121   1.909   6.891   4.670  0.6118 -2.7566  0.4566
  668MOL0     H92122   1.951   6.956   4.504  0.9403  2.4307 -0.7814
  668MOL0     H92123   2.175   7.012   4.612  0.3223 -1.5053 -2.4564
  668MOL0     H92124   2.124   6.896   4.744 -2.1574 -0.2425  0.1584
  668MOL0     H92125   2.202   6.848   4.459 -0.0138 -0.9479 -0.6602
  668MOL0     H92126   2.101   6.735   4.552 -1.0274  0.5294  2.5192
  668MOL0     H92127   2.386   6.833   4.636 -1.9014  2.9410  2.1179
  668MOL0     H92128   2.287   6.732   4.742 -2.7971 -2.4272 -0.6691
  668MOL0     H92129   2.354   6.627   4.466  0.1600 -1.0073  0.9689
  668MOL0     H92130   2.280   6.547   4.602  1.5415 -0.0118 -0.1505
  668MOL0     H92131   2.452   6.557   4.741 -0.3268  0.4989  0.0902
  668MOL0     H92132   2.518   6.484   4.594 -0.9571 -0.8938  2.0556
  668MOL0     H92133   2.638   6.736   4.843 -1.4418  2.8710 -0.0889
  668MOL0     H92134   2.832   6.905   4.866  0.0146  2.1475 -0.0580
  668MOL0     H92135   2.832   7.003   4.725 -0.1792  0.8809  1.7087
  668MOL0     H92136   3.027   6.868   4.619  5.1062 -0.2284  0.7098
  668MOL0     H92137   3.053   6.933   4.790  0.1559 -2.3261  1.7674
  668MOL0     H92138   3.027   6.722   4.877 -1.6390  0.9182 -0.0048
  668MOL0     H92139   2.982   6.640   4.721 -0.1400  0.8194 -1.3051
  668MOL0     H92140   3.219   6.603   4.775  1.4379  0.5356  0.6510
  668MOL0     H92141   3.200   6.699   4.631  1.2135  1.7747  0.3596
  668MOL0     H92142   3.386   6.950   4.964 -0.9658  0.6161 -1.1058
  668MOL0     H92143   3.706   7.095   4.918  3.3710 -2.3434  0.4368
  668MOL0     H92144   3.712   6.988   5.051  2.1106 -0.0853 -2.1805
  668MOL0     H92145   3.557   7.079   5.022  1.6527 -0.1200  1.7009
  668MOL0     H92146   3.977   6.843   4.511 -1.8504 -0.7490  1.7919
  668MOL0     H92147   4.204   6.798   4.461  1.7046  0.5578  0.1921
  668MOL0     H92148   4.552   6.962   4.715 -0.0012 -0.7930  1.3634
  668MOL0     H92149   4.524   6.800   4.768 -1.6940 -1.5119 -0.8702
  668MOL0     H92150   4.629   6.715   4.575 -0.1703 -0.0251  0.1992
  668MOL0     H92151   4.686   6.876   4.528 -2.5111  4.1427  2.1749
  668MOL0     H92152   4.763   6.717   4.777  1.3105 -0.8015 -0.9721
  668MOL0     H92153   4.752   6.884   4.791 -1.5320 -2.1044  1.4166
  668MOL0     H92154   4.913   6.899   4.586 -3.5277 -0.4021 -0.1204
  668MOL0     H92155   4.930   6.724   4.602 -4.4222 -2.3235 -0.3381
  668MOL0     H92156   5.029   6.954   4.774 -0.1514  0.5419  2.3380
  668MOL0     H92157   4.980   6.793   4.855  1.7819 -1.3492  0.4092
  668MOL0     H92158   5.165   6.834   4.624  2.3579  2.1394  0.9500
  668MOL0     H92159   5.175   6.692   4.736 -2.0848  0.0613  1.6969
  668MOL0     H92160   5.211   6.956   4.861 -0.3866  0.3334 -0.3067
  668MOL0     H92161   5.348   6.880   4.796 -1.2732  1.2257 -0.6687
  668MOL0     H92162   5.303   6.673   4.912 -1.7437  0.8605 -1.6528
  668MOL0     H92163   5.156   6.732   4.990 -1.2484 -1.1123 -3.0086
  668MOL0     H92164   4.326   6.968   4.829 -0.4912  1.9848 -0.4117
  668MOL0     H92165   4.099   7.015   4.885  0.0849 -1.4085  2.1538
  668MOL0     H92166   3.665   6.675   4.658 -3.1250 -2.5923 -1.4217
  668MOL0     H92167   3.418   6.650   4.650  1.2841 -0.9815 -0.5300
  668MOL0     H92168   1.555   6.901   4.867 -0.0953  0.0290  1.5322
  668MOL0     H92169   1.310   6.943   4.910 -4.0921  0.7764 -1.4405
  668MOL0     H92170   1.025   7.353   4.875  1.6197 -1.2830  0.5729
  668MOL0     H92171   0.813   7.481   4.921 -0.7302 -1.0878 -2.2222
  668MOL0     H92172   0.604   7.532   4.991 -0.6906  0.8945  1.0630
  668MOL0     H92173   0.491   7.552   5.111 -1.0466 -0.5537 -2.8312
  668MOL0     H92174   0.784   7.643   5.134 -0.3913  2.1371 -2.1113
  668MOL0     H92175   0.660   7.674   5.257  1.0470 -0.6892  0.7395
  668MOL0     H92176   0.650   7.754   4.954 -1.2291 -0.5561 -0.2277
  668MOL0     H92177   0.530   7.798   5.074 -0.6189 -2.8438 -2.2600
  668MOL0     H92178   0.716   7.976   5.022  1.9406 -0.6088  0.5740
  668MOL0     H92179   0.820   7.884   5.127  0.6972  3.1905 -1.9992
  668MOL0     H92180   0.602   8.063   5.418 -0.0296 -1.1646  1.3242
  668MOL0     H92181   0.725   7.208   5.238 -2.5660  0.6993 -1.1826
  668MOL0     H92182   1.000   7.030   5.266 -0.3843 -1.0072 -0.5638
  668MOL0     H92183   0.818   7.007   5.216  0.3150 -1.2001  0.1698
  668MOL0     H92184   0.946   6.967   5.106  0.0095  0.3703 -1.2966
  669MOL0     O92185   7.099   8.296   6.093 -0.4822 -0.0482  0.0726
  669MOL0     C92186   7.176   8.202   6.080  0.0821  0.2576  0.7039
  669MOL0     O92187   7.305   8.197   6.136 -0.0438 -0.2183  0.2721
  669MOL0     C92188   7.346   8.305   6.201 -0.5567  0.1973  0.1311
  669MOL0     C92189   7.299   8.319   6.336 -0.0488  0.5348  0.6568
  669MOL0     C92190   7.333   8.428   6.412  0.2623 -0.8288 -0.3260
  669MOL0     C92191   7.402   8.538   6.346  0.0185 -1.2964  0.1546
  669MOL0     O92192   7.433   8.660   6.404  0.8405 -0.1604  0.4747
  669MOL0     C92193   7.477   8.662   6.537 -0.0655  1.0981  1.1110
  669MOL0     C92194   7.471   8.808   6.582 -0.1481  0.1530  0.2700
  669MOL0     C92195   7.331   8.864   6.596 -0.6623  0.0587 -1.0135
  669MOL0     C92196   7.347   9.017   6.609 -0.3022  0.5966 -0.3718
  669MOL0     C92197   7.311   9.097   6.474 -0.1079  0.1046  0.6798
  669MOL0     C92198   7.308   9.246   6.494 -1.0157 -0.0446 -1.5427
  669MOL0     C92199   7.227   9.323   6.384  0.7421  1.0917  0.4394
  669MOL0     C92200   7.265   9.301   6.236 -0.8179  0.0613  0.7085
  669MOL0     N92201   7.386   9.378   6.195  0.0979  0.2095  0.4929
  669MOL0     C92202   7.383   9.505   6.144  0.4297 -0.0864  0.1537
  669MOL0     C92203   7.512   9.536   6.149 -1.1257  0.2552 -0.8138
  669MOL0     C92204   7.590   9.654   6.102 -0.1873 -0.6282 -0.5871
  669MOL0     C92205   7.628   9.627   5.953  0.1900  0.5501 -0.0912
  669MOL0     C92206   7.665   9.759   5.886  0.3423 -0.2797 -1.1216
  669MOL0     C92207   7.681   9.766   5.734 -0.5046  0.9303 -0.3521
  669MOL0     O92208   7.556   9.732   5.670 -0.1326  0.5317  0.7236
  669MOL0     C92209   7.450   9.819   5.676 -1.1219 -1.1555  0.1278
  669MOL0     C92210   7.460   9.956   5.700 -0.8416  0.0770 -0.7798
  669MOL0     C92211   7.360  10.045   5.692  1.1286  1.0580  0.0316
  669MOL0     C92212   7.400  10.187   5.719  0.5870  0.0946 -1.0479
  669MOL0     C92213   7.230   9.998   5.644 -0.1755 -0.8369 -0.2291
  669MOL0     C92214   7.113  10.084   5.639  0.2475 -0.0401  0.4898
  669MOL0     O92215   6.999  10.028   5.615 -0.0290 -0.3563 -0.1467
  669MOL0     C92216   6.883  10.098   5.602 -0.7817 -0.9881  0.1746
  669MOL0     C92217   6.857  10.230   5.562  0.3113 -0.1021  0.0466
  669MOL0     C92218   6.724  10.286   5.547  0.7479  0.5188  0.7345
  669MOL0     C92219   6.612  10.202   5.572  0.3635 -0.6820 -0.3466
  669MOL0     O92220   6.479  10.248   5.558 -0.7669 -0.0446 -0.6502
  669MOL0     C92221   6.434  10.340   5.454  0.3844 -0.0741 -0.1527
  669MOL0     C92222   6.489  10.320   5.309 -0.1811  0.0978 -0.2704
  669MOL0     C92223   6.448  10.193   5.252 -0.4494  0.1080  0.0105
  669MOL0     C92224   6.575  10.148   5.181  0.1747  0.4329 -0.2452
  669MOL0     C92225   6.543  10.019   5.101 -0.4855  0.9167 -0.3752
  669MOL0     C92226   6.446  10.037   4.983 -0.7799 -0.1124 -0.2960
  669MOL0     C92227   6.433   9.903   4.906  0.0487 -0.0305  0.2589
  669MOL0     C92228   6.288   9.882   4.836 -0.1179  0.1088  0.4879
  669MOL0    Cl92229   6.315   9.790   4.680  0.1656 -0.1585  0.3582
  669MOL0     C92230   6.639  10.066   5.601 -0.2973  0.1936  0.3004
  669MOL0     C92231   6.771  10.018   5.613  0.5782  0.6340 -0.1133
  669MOL0     O92232   7.130  10.208   5.638 -0.0984 -0.1525  0.1999
  669MOL0     C92233   7.215   9.857   5.606  0.7068 -0.5013 -0.3651
  669MOL0     C92234   7.326   9.771   5.637 -0.0303 -0.6795  0.0837
  669MOL0     N92235   7.587   9.421   6.189  0.2994  0.2161 -0.3077
  669MOL0     N92236   7.510   9.327   6.197 -0.4495 -0.6646 -0.2349
  669MOL0     C92237   7.442   8.527   6.210 -0.0572 -0.5694  0.3625
  669MOL0     C92238   7.416   8.407   6.139 -1.0553 -0.6686 -0.7134
  669MOL0     C92239   7.142   8.094   5.990 -0.7132 -0.0585  0.6318
  669MOL0     C92240   7.230   7.982   5.979  0.2413 -0.6409  0.5537
  669MOL0     C92241   7.197   7.872   5.897  1.0342  0.6683 -0.8622
  669MOL0     C92242   7.077   7.872   5.822  0.8942  0.2070 -0.0079
  669MOL0     O92243   7.037   7.767   5.734  0.3019  0.5458  0.0261
  669MOL0     C92244   7.097   7.640   5.743  0.2082  0.3399 -1.6270
  669MOL0     C92245   7.212   7.640   5.649 -0.0431 -0.9930  0.3931
  669MOL0     C92246   7.156   7.628   5.504 -0.3853 -0.2561  0.7642
  669MOL0     C92247   7.264   7.585   5.399  0.4299  0.2646 -0.0622
  669MOL0     C92248   7.326   7.454   5.426 -0.2684  0.1200 -1.2554
  669MOL0     C92249   7.356   7.336   5.445 -0.4548  0.0774 -0.8360
  669MOL0     C92250   6.997   7.988   5.818 -0.6187  0.6060 -0.7299
  669MOL0     C92251   7.023   8.091   5.913  0.1412 -0.2308  1.0131
  669MOL0     C92252   6.914   8.202   5.910 -0.7327 -0.0236  0.0739
  669MOL0     H92253   7.237   8.244   6.386 -1.6457  0.2827 -1.5499
  669MOL0     H92254   7.307   8.432   6.517  0.6982 -0.7078 -0.2241
  669MOL0     H92255   7.577   8.624   6.558  0.0725 -0.8285 -2.4014
  669MOL0     H92256   7.397   8.616   6.597 -2.4001  5.4181  1.7188
  669MOL0     H92257   7.530   8.810   6.674  2.3399 -0.3900 -1.2191
  669MOL0     H92258   7.521   8.861   6.501  1.3409 -1.4731  0.0806
  669MOL0     H92259   7.260   8.838   6.516  0.1024 -2.7859 -0.8800
  669MOL0     H92260   7.282   8.822   6.684  0.0703 -0.1874 -0.7211
  669MOL0     H92261   7.281   9.047   6.690  0.3386 -0.2835  0.5050
  669MOL0     H92262   7.439   9.054   6.655  0.8094  0.3829 -2.3042
  669MOL0     H92263   7.208   9.073   6.445 -0.8361  1.8008  1.7297
  669MOL0     H92264   7.383   9.073   6.395  0.0759  1.3387  0.4537
  669MOL0     H92265   7.240   9.261   6.578  2.1714  3.0163  0.7518
  669MOL0     H92266   7.408   9.287   6.512 -1.0393  0.2235 -1.9944
  669MOL0     H92267   7.225   9.431   6.402 -2.3293  0.9879  1.2591
  669MOL0     H92268   7.124   9.289   6.383  1.1994 -0.3407  0.2693
  669MOL0     H92269   7.290   9.197   6.215 -2.3322  0.3412 -3.1102
  669MOL0     H92270   7.182   9.336   6.175  0.6878 -0.5769 -1.8468
  669MOL0     H92271   7.299   9.563   6.107 -0.4024 -0.8979  0.7171
  669MOL0     H92272   7.670   9.691   6.168 -1.0331  0.3793 -0.0918
  669MOL0     H92273   7.510   9.729   6.103 -1.5928 -2.0660 -0.7263
  669MOL0     H92274   7.709   9.555   5.937  0.5775  1.3098 -1.7858
  669MOL0     H92275   7.542   9.584   5.901 -1.4171  2.4043  0.9023
  669MOL0     H92276   7.581   9.824   5.912  1.8310  1.4239 -0.3643
  669MOL0     H92277   7.752   9.789   5.946 -0.9913  1.1971  0.1511
  669MOL0     H92278   7.728   9.857   5.695 -1.5645  1.2527 -0.9162
  669MOL0     H92279   7.753   9.692   5.696  1.7027  2.9391 -0.3304
  669MOL0     H92280   7.555   9.990   5.741 -1.6035  1.3556 -0.0059
  669MOL0     H92281   7.475  10.179   5.798  2.4974 -3.2411 -3.0164
  669MOL0     H92282   7.320  10.243   5.769 -2.1522 -3.7777 -0.6621
  669MOL0     H92283   7.434  10.245   5.632  2.2530  0.4759 -0.1842
  669MOL0     H92284   6.939  10.301   5.557  1.5779 -1.4284  0.9347
  669MOL0     H92285   6.697  10.387   5.517 -0.8618  0.4691  1.8740
  669MOL0     H92286   6.326  10.323   5.456  0.5324 -0.9574  1.1105
  669MOL0     H92287   6.451  10.443   5.486 -0.8336 -0.1379  0.7662
  669MOL0     H92288   6.445  10.391   5.239  0.6200 -1.2526 -2.2150
  669MOL0     H92289   6.594  10.347   5.323 -0.5191  0.8040  1.1025
  669MOL0     H92290   6.362  10.203   5.185 -0.5450 -1.9389 -0.2457
  669MOL0     H92291   6.430  10.120   5.331 -0.9878  0.8432  0.5791
  669MOL0     H92292   6.659  10.145   5.250  0.7033  2.1947 -0.7582
  669MOL0     H92293   6.610  10.214   5.101 -3.5168  0.5860 -1.9465
  669MOL0     H92294   6.638   9.982   5.060 -1.3455  0.3237 -1.9349
  669MOL0     H92295   6.494   9.959   5.178 -2.9993  0.8888 -1.9119
  669MOL0     H92296   6.487  10.115   4.919  1.6234  1.3234  2.6929
  669MOL0     H92297   6.349  10.072   5.020 -1.3277 -1.8511  0.0186
  669MOL0     H92298   6.443   9.811   4.966  0.3195 -1.7167 -2.2242
  669MOL0     H92299   6.506   9.906   4.824  1.4297 -1.2486  1.3800
  669MOL0     H92300   6.240   9.980   4.827  1.5697  0.9411 -0.0127
  669MOL0     H92301   6.221   9.822   4.898  0.8745 -1.5527  0.0179
  669MOL0     H92302   6.565   9.994   5.635 -1.5371  2.0396  1.7470
  669MOL0     H92303   6.796   9.917   5.642  3.6051  1.9664  2.5922
  669MOL0     H92304   7.119   9.826   5.566  0.2671  0.5529 -0.1539
  669MOL0     H92305   7.314   9.666   5.612  1.2582  0.1704 -5.3930
  669MOL0     H92306   7.500   8.600   6.155  0.4328 -1.5370 -0.4380
  669MOL0     H92307   7.445   8.386   6.037 -3.1763 -1.4955 -1.1935
  669MOL0     H92308   7.321   7.985   6.039  0.5872  1.9438  0.0177
  669MOL0     H92309   7.266   7.789   5.899 -0.8736 -1.0103  1.4684
  669MOL0     H92310   7.133   7.607   5.841 -0.0187 -1.5590 -2.1573
  669MOL0     H92311   7.026   7.565   5.708  1.1508 -1.9726  1.0649
  669MOL0     H92312   7.273   7.552   5.669  2.2572  0.4220 -0.0154
  669MOL0     H92313   7.275   7.728   5.667 -1.0971  0.1938 -1.3812
  669MOL0     H92314   7.074   7.556   5.495 -0.0992 -0.3747 -1.5212
  669MOL0     H92315   7.114   7.723   5.472  2.1530  0.5006 -0.6453
  669MOL0     H92316   7.337   7.665   5.391 -0.4953  1.0549 -0.9278
  669MOL0     H92317   7.220   7.569   5.300  2.6519  0.1831 -1.1045
  669MOL0     H92318   7.392   7.235   5.449  0.9138  0.5635 -0.3737
  669MOL0     H92319   6.903   7.989   5.765 -1.0531 -0.3648  0.0054
  669MOL0     H92320   6.970   8.287   5.870 -0.5595 -0.4157 -0.5413
  669MOL0     H92321   6.830   8.181   5.844 -0.3983 -1.9970  0.2140
  669MOL0     H92322   6.878   8.210   6.012  0.9378  4.1133  0.5296
  670MOL0     O92323   1.372   5.384   2.949 -0.4797 -0.4796  0.6868
  670MOL0     C92324   1.345   5.268   2.918  0.8720  0.6424 -0.3546
  670MOL0     O92325   1.406   5.157   2.975 -0.6757  0.0681  0.2143
  670MOL0     C92326   1.499   5.166   3.083 -0.5892 -0.3226 -0.1934
  670MOL0     C92327   1.486   5.263   3.188  0.4705  0.4257  0.1459
  670MOL0     C92328   1.586   5.278   3.283 -0.7635  0.2970  0.1124
  670MOL0     C92329   1.701   5.193   3.277  0.4333 -0.3157  0.2034
  670MOL0     O92330   1.801   5.190   3.364  0.2935  0.0270  0.3150
  670MOL0     C92331   1.868   5.311   3.399  0.6273 -0.5548 -0.0624
  670MOL0     C92332   2.003   5.276   3.453 -0.1268  0.3569  0.7473
  670MOL0     C92333   2.100   5.240   3.339  0.4070 -0.8995  0.8223
  670MOL0     C92334   2.241   5.211   3.392 -0.4399 -0.1352  0.0290
  670MOL0     C92335   2.349   5.224   3.281 -0.9245  0.3033 -0.1941
  670MOL0     C92336   2.349   5.102   3.195  0.2074  0.0216  0.4358
  670MOL0     C92337   2.480   5.090   3.120 -0.1145 -0.1709  0.7626
  670MOL0     C92338   2.472   5.000   2.999 -0.6123  0.7167  0.2990
  670MOL0     N92339   2.593   4.989   2.923  0.9009  0.3237 -0.9750
  670MOL0     C92340   2.704   5.074   2.934 -0.1544  0.6056  1.0462
  670MOL0     C92341   2.789   5.022   2.842 -0.0542  0.8709  0.0421
  670MOL0     C92342   2.925   5.075   2.807  0.6778  0.3766  0.5153
  670MOL0     C92343   2.954   5.084   2.657  0.8186  0.5241  0.2625
  670MOL0     C92344   2.905   5.208   2.574  0.4966 -0.3084 -0.2387
  670MOL0     C92345   2.757   5.247   2.577 -0.4232 -0.3088 -0.9883
  670MOL0     O92346   2.742   5.316   2.702  0.4331  0.8158  0.2692
  670MOL0     C92347   2.608   5.325   2.750  0.2571  0.2851 -0.0102
  670MOL0     C92348   2.602   5.406   2.860  0.5109 -0.0614  0.4782
  670MOL0     C92349   2.476   5.438   2.910  0.0072  0.4496  0.3830
  670MOL0     C92350   2.478   5.522   3.039  0.1505 -0.0417  0.6191
  670MOL0     C92351   2.358   5.388   2.861  0.6259 -0.2947  0.2979
  670MOL0     C92352   2.218   5.423   2.914 -0.7482 -0.6876  1.7148
  670MOL0     O92353   2.117   5.348   2.869  0.0208 -0.0575  0.0154
  670MOL0     C92354   1.989   5.400   2.872  0.8548  0.4947 -0.5603
  670MOL0     C92355   1.878   5.340   2.926  0.7500  0.7338 -0.4482
  670MOL0     C92356   1.751   5.399   2.920  0.6741 -1.2359  0.7007
  670MOL0     C92357   1.727   5.527   2.864 -1.1565  0.6008  0.5680
  670MOL0     O92358   1.603   5.581   2.868  0.3691 -0.3637 -1.0638
  670MOL0     C92359   1.570   5.679   2.766 -0.6890  0.7409  0.1496
  670MOL0     C92360   1.425   5.706   2.772 -0.8889 -0.4359  0.2853
  670MOL0     C92361   1.370   5.797   2.664  0.7356 -0.5977  0.1201
  670MOL0     C92362   1.225   5.846   2.672 -0.1552 -0.3406 -0.4431
  670MOL0     C92363   1.117   5.732   2.688 -0.8125 -0.4825 -0.0646
  670MOL0     C92364   0.983   5.795   2.670 -0.1072 -0.8037  0.4598
  670MOL0     C92365   0.877   5.688   2.666  0.2965 -0.9058  0.3204
  670MOL0     C92366   0.744   5.729   2.728 -0.0067 -0.0154 -0.6463
  670MOL0    Cl92367   0.673   5.863   2.630 -0.2206  0.6051 -0.2496
  670MOL0     C92368   1.838   5.582   2.802  0.1735  0.4296 -0.0495
  670MOL0     C92369   1.968   5.527   2.803 -0.1266 -0.1580 -0.7660
  670MOL0     O92370   2.212   5.537   2.960  0.6869  0.0705  1.0891
  670MOL0     C92371   2.374   5.304   2.757  0.4847  0.9427  0.5114
  670MOL0     C92372   2.492   5.258   2.702  0.2135  0.8765 -0.2458
  670MOL0     N92373   2.728   4.917   2.765 -0.0836 -0.1555  0.3451
  670MOL0     N92374   2.607   4.899   2.820  0.1459  0.3675 -0.7881
  670MOL0     C92375   1.705   5.087   3.177  0.0221  0.0766 -0.5650
  670MOL0     C92376   1.598   5.074   3.086  0.0730  0.0771 -0.2864
  670MOL0     C92377   1.238   5.244   2.811  0.0192 -0.5446 -0.1107
  670MOL0     C92378   1.214   5.348   2.721 -0.3294 -0.4371 -0.4742
  670MOL0     C92379   1.107   5.333   2.629 -0.3507 -0.2590  0.8702
  670MOL0     C92380   1.020   5.224   2.626 -0.1704  0.8230 -0.0740
  670MOL0     O92381   0.909   5.211   2.544 -0.2295  0.5508 -0.6917
  670MOL0     C92382   0.926   5.219   2.400  0.3775  0.6207  0.0108
  670MOL0     C92383   1.002   5.097   2.356 -0.8879  0.2333  0.6611
  670MOL0     C92384   0.985   5.068   2.209  0.0269  0.4266  0.3801
  670MOL0     C92385   0.844   5.015   2.177 -0.0531  0.1110 -0.5513
  670MOL0     C92386   0.844   4.923   2.070  0.0109  0.4892  0.8365
  670MOL0     C92387   0.833   4.847   1.980 -0.6561  0.6729 -0.4215
  670MOL0     C92388   1.031   5.128   2.727  0.0899  0.8613 -0.1367
  670MOL0     C92389   1.145   5.130   2.819  0.0730 -0.9281 -0.0044
  670MOL0     C92390   1.153   5.028   2.926 -0.8513 -0.6187 -0.1983
  670MOL0     H92391   1.406   5.334   3.167 -1.6975 -2.5229 -2.8012
  670MOL0     H92392   1.582   5.351   3.363 -1.7683 -0.8568  1.1479
  670MOL0     H92393   1.806   5.368   3.470 -3.7406 -1.2830 -2.8812
  670MOL0     H92394   1.887   5.369   3.309  1.5782  0.2286  0.6178
  670MOL0     H92395   2.038   5.367   3.503  1.5943  1.5581 -2.3674
  670MOL0     H92396   1.976   5.197   3.524  0.8410  0.4347  1.2132
  670MOL0     H92397   2.058   5.159   3.278 -0.4706 -0.8387  1.3140
  670MOL0     H92398   2.103   5.324   3.270  3.8309 -1.4526  0.1204
  670MOL0     H92399   2.250   5.275   3.480 -1.8031 -0.4870  0.4632
  670MOL0     H92400   2.238   5.103   3.411 -1.4095 -0.3054 -0.9731
  670MOL0     H92401   2.449   5.231   3.324 -0.4636  0.2076 -1.2250
  670MOL0     H92402   2.322   5.312   3.222 -0.1681 -0.4398 -1.6789
  670MOL0     H92403   2.347   5.012   3.257 -0.6535 -0.1235  0.1955
  670MOL0     H92404   2.264   5.099   3.127  1.6816 -0.1529 -1.4707
  670MOL0     H92405   2.558   5.068   3.193 -0.9137 -0.0156  1.6891
  670MOL0     H92406   2.487   5.190   3.076 -2.7724 -0.0400  0.4771
  670MOL0     H92407   2.450   4.895   3.021  1.0535 -0.0410 -1.4093
  670MOL0     H92408   2.402   5.051   2.933  0.1403  0.7216 -0.5094
  670MOL0     H92409   2.713   5.171   2.983 -1.5120  0.5786  1.3764
  670MOL0     H92410   3.000   5.012   2.857  0.0381  0.4661  1.6257
  670MOL0     H92411   2.938   5.176   2.847  2.7058  0.5020 -0.3737
  670MOL0     H92412   3.061   5.103   2.645  0.2029  4.4957 -0.2256
  670MOL0     H92413   2.933   4.989   2.607  1.5967  0.6760 -0.3782
  670MOL0     H92414   2.962   5.293   2.613 -0.3550 -0.2005  0.8212
  670MOL0     H92415   2.933   5.183   2.471  0.0938 -0.6613 -0.2630
  670MOL0     H92416   2.734   5.328   2.507  1.9194  3.8175  2.5273
  670MOL0     H92417   2.697   5.155   2.575 -1.2011  0.1113  0.8120
  670MOL0     H92418   2.694   5.445   2.903 -0.3120  1.0016  1.3653
  670MOL0     H92419   2.576   5.569   3.055  0.1975 -0.1985  0.8041
  670MOL0     H92420   2.459   5.461   3.128  1.1130  0.5432  1.2515
  670MOL0     H92421   2.414   5.610   3.037  1.6469  1.1198 -2.4622
  670MOL0     H92422   1.888   5.242   2.971  4.7698  2.1536  2.2860
  670MOL0     H92423   1.665   5.353   2.969 -2.6361  0.5236 -2.8487
  670MOL0     H92424   1.636   5.766   2.772  1.6329 -0.6929 -2.2720
  670MOL0     H92425   1.575   5.638   2.664  0.3201 -1.6037  1.0656
  670MOL0     H92426   1.367   5.615   2.752 -0.3332 -0.7322  0.0038
  670MOL0     H92427   1.401   5.748   2.870 -2.9354 -0.8389  0.0165
  670MOL0     H92428   1.378   5.747   2.567 -2.1997 -1.5053  0.2527
  670MOL0     H92429   1.421   5.894   2.660 -0.4108  0.3100  3.6602
  670MOL0     H92430   1.199   5.911   2.589 -2.2052  0.5426  0.8041
  670MOL0     H92431   1.229   5.903   2.766 -2.0103 -1.3924  0.3433
  670MOL0     H92432   1.135   5.650   2.618  0.6342  1.4278 -2.1057
  670MOL0     H92433   1.123   5.693   2.790  0.3694  0.1382  0.1236
  670MOL0     H92434   0.989   5.861   2.583  0.2090  0.0205  1.0924
  670MOL0     H92435   0.968   5.848   2.764  0.7230 -1.2103  0.8384
  670MOL0     H92436   0.905   5.592   2.710 -1.1601 -0.9209  1.2703
  670MOL0     H92437   0.858   5.667   2.560  1.7760 -1.8897  0.2180
  670MOL0     H92438   0.755   5.763   2.831  1.9440 -1.6247 -0.2626
  670MOL0     H92439   0.690   5.634   2.734  1.4860 -0.8277  0.9626
  670MOL0     H92440   1.848   5.687   2.774 -0.1505  1.5119  3.4422
  670MOL0     H92441   2.050   5.586   2.763  1.4631 -1.1423  0.9088
  670MOL0     H92442   2.293   5.242   2.721  1.2599 -1.8041  3.1464
  670MOL0     H92443   2.499   5.182   2.625 -0.0612 -0.2575  0.8026
  670MOL0     H92444   1.800   5.035   3.169  1.6394  2.4040  1.8172
  670MOL0     H92445   1.608   4.996   3.011  2.7141  0.1422 -0.0960
  670MOL0     H92446   1.280   5.434   2.715 -1.5667  0.4656 -2.4681
  670MOL0     H92447   1.103   5.403   2.547  2.6433  0.9794  1.6706
  670MOL0     H92448   0.824   5.211   2.362  0.7202 -0.6665 -0.7082
  670MOL0     H92449   0.962   5.319   2.375 -1.6505  1.5364  0.5121
  670MOL0     H92450   0.979   5.010   2.418  2.3887 -0.1456  1.5324
  670MOL0     H92451   1.108   5.107   2.381 -0.7228  0.7461 -0.1892
  670MOL0     H92452   1.005   5.158   2.149 -1.4742  0.5110 -0.0429
  670MOL0     H92453   1.053   4.987   2.181 -1.7220 -0.3084 -2.2077
  670MOL0     H92454   0.789   5.108   2.164 -1.1329 -0.2563  1.0153
  670MOL0     H92455   0.796   4.974   2.266 -0.1941 -1.7730 -1.4549
  670MOL0     H92456   0.811   4.797   1.888 -0.6573 -0.6614  0.2821
  670MOL0     H92457   0.966   5.042   2.725 -1.1445  1.7710 -1.9492
  670MOL0     H92458   1.168   5.071   3.026  0.5279 -0.8819 -0.2728
  670MOL0     H92459   1.062   4.968   2.936  0.0203 -1.8001  1.0627
  670MOL0     H92460   1.238   4.962   2.907  0.3618  0.8118  0.1700
  671MOL0     O92461   5.966   6.649   4.628 -0.3761 -0.9633 -0.3251
  671MOL0     C92462   5.886   6.581   4.696  0.1744 -0.0942 -0.5107
  671MOL0     O92463   5.907   6.529   4.820 -0.1343 -0.9158 -0.0568
  671MOL0     C92464   6.027   6.537   4.858 -0.4143 -0.4260 -0.2793
  671MOL0     C92465   6.129   6.463   4.802 -0.6169  0.4376  0.3210
  671MOL0     C92466   6.263   6.466   4.853  0.3713 -0.3958  0.1741
  671MOL0     C92467   6.292   6.561   4.958  0.3087 -0.9130  0.6100
  671MOL0     O92468   6.423   6.567   4.991  0.0291 -0.1837 -0.1613
  671MOL0     C92469   6.453   6.570   5.136 -0.2926 -0.7358  0.6249
  671MOL0     C92470   6.420   6.430   5.202 -0.3807  0.5150  0.0751
  671MOL0     C92471   6.501   6.416   5.330 -0.5525  0.8178  0.5010
  671MOL0     C92472   6.444   6.496   5.446  0.3467  0.6412  0.2865
  671MOL0     C92473   6.536   6.484   5.569 -0.3019  0.6345 -0.1548
  671MOL0     C92474   6.535   6.347   5.645  0.4439 -1.1194  0.2992
  671MOL0     C92475   6.399   6.300   5.720 -0.2735  0.6387 -0.1986
  671MOL0     C92476   6.308   6.227   5.632  0.4627  0.1903  0.7543
  671MOL0     N92477   6.210   6.133   5.697  0.0337 -0.0420  1.0151
  671MOL0     C92478   6.236   6.068   5.818 -0.2260  0.5148  0.9093
  671MOL0     C92479   6.142   5.973   5.828  0.2369  0.1225  0.0968
  671MOL0     C92480   6.132   5.875   5.932  0.1579 -1.1399  1.2139
  671MOL0     C92481   6.105   5.938   6.070  0.9677  0.2043 -0.5379
  671MOL0     C92482   5.962   6.001   6.079 -0.0693  0.4626 -0.8677
  671MOL0     C92483   5.939   6.049   6.223 -0.2557 -0.2663  0.1237
  671MOL0     O92484   5.845   6.161   6.226 -0.6447  0.0059  1.3068
  671MOL0     C92485   5.765   6.143   6.331 -0.4550 -0.2957  0.2883
  671MOL0     C92486   5.805   6.203   6.445 -0.0268  0.5999 -0.2033
  671MOL0     C92487   5.739   6.184   6.562  0.0137  0.0364 -0.1401
  671MOL0     C92488   5.793   6.274   6.672  0.1025  0.8396  0.1063
  671MOL0     C92489   5.622   6.109   6.570 -0.6698  0.5877 -0.0863
  671MOL0     C92490   5.529   6.099   6.679 -0.1300 -0.1001  0.3819
  671MOL0     O92491   5.492   6.221   6.733  0.0329 -0.4770  0.4230
  671MOL0     C92492   5.417   6.225   6.845  0.6429 -1.0638  0.1387
  671MOL0     C92493   5.455   6.313   6.952  0.0960  0.2420 -0.0017
  671MOL0     C92494   5.376   6.332   7.060  0.5260 -0.2827  0.7238
  671MOL0     C92495   5.250   6.267   7.071 -0.6349 -0.3326 -0.2379
  671MOL0     O92496   5.161   6.280   7.180  0.0488 -0.1028  0.2015
  671MOL0     C92497   5.158   6.392   7.259 -0.3529 -0.3722  0.0399
  671MOL0     C92498   5.054   6.377   7.369  0.5799  0.2685  0.5580
  671MOL0     C92499   5.111   6.275   7.470 -0.2575  0.7405 -0.5393
  671MOL0     C92500   5.011   6.274   7.589 -0.2924  0.3390  0.3365
  671MOL0     C92501   5.032   6.167   7.698 -0.0354 -0.4555  1.0510
  671MOL0     C92502   5.002   6.020   7.653  0.3106 -0.8029 -0.1975
  671MOL0     C92503   5.028   5.941   7.778 -0.0369  0.6942  0.4134
  671MOL0     C92504   5.004   5.792   7.770 -0.1855 -0.6315  0.3572
  671MOL0    Cl92505   4.821   5.755   7.770  0.0103 -0.1583  0.5239
  671MOL0     C92506   5.203   6.193   6.962 -0.5842  0.2456  0.3755
  671MOL0     C92507   5.289   6.167   6.858 -0.2423  0.6622 -0.4604
  671MOL0     O92508   5.492   5.987   6.709  0.7881  0.5888 -0.6468
  671MOL0     C92509   5.582   6.043   6.453 -0.6073 -0.1598 -0.1017
  671MOL0     C92510   5.656   6.057   6.331  0.1180 -0.0891  0.5972
  671MOL0     N92511   6.060   5.979   5.718 -0.5761 -0.0117 -1.0097
  671MOL0     N92512   6.117   6.055   5.629 -0.1051  0.3030  0.4783
  671MOL0     C92513   6.193   6.644   5.010 -0.8664 -0.0467 -0.1499
  671MOL0     C92514   6.061   6.620   4.966 -0.0736 -0.2114  0.2987
  671MOL0     C92515   5.762   6.536   4.636 -0.1129 -0.5711  0.6867
  671MOL0     C92516   5.757   6.399   4.619 -0.6530 -0.5421 -0.2552
  671MOL0     C92517   5.640   6.338   4.574 -0.0378  0.3384 -0.2954
  671MOL0     C92518   5.535   6.424   4.529 -1.1895  1.3162  0.3657
  671MOL0     O92519   5.423   6.355   4.473  0.6846  0.3540  0.1781
  671MOL0     C92520   5.288   6.414   4.488  0.8620 -0.1495  0.7864
  671MOL0     C92521   5.179   6.322   4.412 -0.1767  0.7263 -0.4795
  671MOL0     C92522   5.041   6.369   4.414 -0.0800 -0.3094 -0.5677
  671MOL0     C92523   4.980   6.389   4.550 -0.2536  0.4178  0.4857
  671MOL0     C92524   4.840   6.418   4.539 -0.0623  0.5137 -0.5028
  671MOL0     C92525   4.721   6.439   4.527 -0.0705 -0.7096  0.0697
  671MOL0     C92526   5.544   6.558   4.548  0.2936 -0.2190  0.4732
  671MOL0     C92527   5.655   6.619   4.609 -0.5970 -0.6465 -0.2819
  671MOL0     C92528   5.669   6.767   4.634  0.7419 -0.6229 -0.8936
  671MOL0     H92529   6.112   6.389   4.725 -0.9611 -1.4811  2.1324
  671MOL0     H92530   6.339   6.405   4.806  0.7706 -0.7804  1.3013
  671MOL0     H92531   6.397   6.655   5.176  1.5155  0.9319 -0.1771
  671MOL0     H92532   6.560   6.589   5.151 -1.0257  3.5444  1.9570
  671MOL0     H92533   6.314   6.424   5.230 -0.7306  2.3816 -0.6875
  671MOL0     H92534   6.442   6.354   5.126 -0.1006  2.1950 -1.6001
  671MOL0     H92535   6.494   6.312   5.363  1.6958  1.1578  2.2420
  671MOL0     H92536   6.606   6.439   5.310 -0.3381 -0.0546  0.6166
  671MOL0     H92537   6.446   6.598   5.407 -2.2481  1.7166  2.6300
  671MOL0     H92538   6.342   6.460   5.464  0.1423  0.9767 -0.1965
  671MOL0     H92539   6.502   6.561   5.639 -1.3354  0.0490 -0.0035
  671MOL0     H92540   6.636   6.512   5.534 -0.9986  1.1602 -1.8206
  671MOL0     H92541   6.560   6.278   5.564 -2.2935 -0.8905 -0.8125
  671MOL0     H92542   6.623   6.352   5.711  2.7802  1.4541 -2.6754
  671MOL0     H92543   6.355   6.388   5.767  0.3078 -0.0106  1.6550
  671MOL0     H92544   6.429   6.231   5.800 -0.9575  0.8044  0.2082
  671MOL0     H92545   6.250   6.303   5.580 -0.1734 -0.1994  0.8901
  671MOL0     H92546   6.363   6.176   5.552 -1.6029  2.3887 -2.2868
  671MOL0     H92547   6.323   6.087   5.880  0.4444  4.1362 -0.8455
  671MOL0     H92548   6.221   5.812   5.923  0.3439 -0.7697  0.3393
  671MOL0     H92549   6.051   5.806   5.907  3.1928 -4.2674 -0.9272
  671MOL0     H92550   6.121   5.862   6.147  1.7146  1.7115  0.8486
  671MOL0     H92551   6.178   6.012   6.102  0.1967  0.3275  1.0283
  671MOL0     H92552   5.965   6.079   6.002 -1.8607 -1.7896 -3.3936
  671MOL0     H92553   5.891   5.923   6.050 -0.5206  0.7434 -0.5358
  671MOL0     H92554   5.914   5.973   6.298 -0.1303  0.5333  1.0094
  671MOL0     H92555   6.031   6.096   6.259 -0.6023  2.1582 -1.9117
  671MOL0     H92556   5.888   6.274   6.443  0.8568 -0.4249 -2.0048
  671MOL0     H92557   5.902   6.280   6.665  0.1780 -1.1493 -1.1084
  671MOL0     H92558   5.764   6.250   6.775 -0.4235  1.2774  0.0632
  671MOL0     H92559   5.739   6.367   6.650  1.1891  1.4294 -0.1280
  671MOL0     H92560   5.548   6.369   6.947 -1.2711  2.6070 -0.7654
  671MOL0     H92561   5.415   6.416   7.116 -0.4289  0.4922  0.2707
  671MOL0     H92562   5.256   6.416   7.301 -0.5255 -0.1003  0.2923
  671MOL0     H92563   5.119   6.474   7.199 -0.3894 -0.3914  0.0374
  671MOL0     H92564   5.050   6.476   7.415  3.3998  0.3967  0.7172
  671MOL0     H92565   4.955   6.347   7.335  0.6924  1.1294 -0.5707
  671MOL0     H92566   5.216   6.291   7.497 -0.2839 -1.5839  1.3754
  671MOL0     H92567   5.108   6.172   7.431 -0.8263 -0.1238  1.6434
  671MOL0     H92568   4.912   6.260   7.545 -0.0571 -0.9740  0.1949
  671MOL0     H92569   5.020   6.373   7.635  3.2665  0.6085 -0.6879
  671MOL0     H92570   5.139   6.176   7.722  0.2980 -1.6404  0.1025
  671MOL0     H92571   4.967   6.203   7.779  0.9118  0.1004  1.5781
  671MOL0     H92572   5.061   5.991   7.566  3.2650 -1.9076  2.0187
  671MOL0     H92573   4.896   5.997   7.634 -0.8159  2.0929  1.8033
  671MOL0     H92574   4.964   5.971   7.862 -1.0479 -1.7386  0.6143
  671MOL0     H92575   5.128   5.966   7.813  0.8307  1.0491 -2.1563
  671MOL0     H92576   5.059   5.757   7.857  0.1827  1.7496  1.1388
  671MOL0     H92577   5.059   5.747   7.686 -0.7572  1.3621 -1.1549
  671MOL0     H92578   5.107   6.143   6.966 -0.8753  0.6658 -0.9180
  671MOL0     H92579   5.252   6.097   6.784  1.5783  0.3441 -1.1158
  671MOL0     H92580   5.494   5.981   6.461  0.3529 -1.8356 -1.6574
  671MOL0     H92581   5.622   6.009   6.240  0.2422 -0.5996  0.8207
  671MOL0     H92582   6.211   6.714   5.091 -0.3218 -0.4337  0.0648
  671MOL0     H92583   5.990   6.683   5.019  0.0591  0.1685  0.0280
  671MOL0     H92584   5.827   6.319   4.638 -0.4203 -1.1635 -3.2067
  671MOL0     H92585   5.634   6.231   4.553  0.1569  0.2708 -0.0133
  671MOL0     H92586   5.266   6.416   4.596  0.1913  0.8026  0.6450
  671MOL0     H92587   5.278   6.518   4.455  1.2569 -0.8144 -1.5346
  671MOL0     H92588   5.180   6.225   4.463 -1.4152 -0.0737 -1.8661
  671MOL0     H92589   5.219   6.309   4.311  3.3683  0.3473  0.8155
  671MOL0     H92590   5.042   6.457   4.348 -0.7784  0.6750  0.6781
  671MOL0     H92591   4.983   6.287   4.372  3.7065 -2.1806 -2.6678
  671MOL0     H92592   5.027   6.474   4.601  2.4219 -0.0509 -0.9991
  671MOL0     H92593   4.994   6.296   4.607 -0.9239  0.0715  0.0917
  671MOL0     H92594   4.614   6.451   4.527 -0.4431 -3.1616  2.1517
  671MOL0     H92595   5.460   6.611   4.504 -1.1244 -3.1985 -0.6551
  671MOL0     H92596   5.654   6.797   4.738  0.3763  1.2028 -1.4480
  671MOL0     H92597   5.760   6.816   4.598 -0.2818  1.2740 -1.0111
  671MOL0     H92598   5.591   6.822   4.580  0.5474 -2.5594 -2.7743
  672MOL0     O92599   1.387   0.451   3.049 -0.0182 -0.5773  0.6081
  672MOL0     C92600   1.429   0.466   2.933 -0.4690  0.3618 -0.0346
  672MOL0     O92601   1.566   0.478   2.892  0.1849  0.3960 -0.4429
  672MOL0     C92602   1.661   0.487   2.995  0.4792  0.5274 -0.4417
  672MOL0     C92603   1.750   0.384   3.028 -0.1214 -0.6510  0.5941
  672MOL0     C92604   1.844   0.403   3.128  0.6858 -0.1707 -0.8629
  672MOL0     C92605   1.853   0.523   3.211  0.4191 -0.4087  0.3728
  672MOL0     O92606   1.963   0.536   3.293 -0.8150  0.4153  0.2794
  672MOL0     C92607   1.930   0.552   3.439 -0.2001 -0.1702 -0.2690
  672MOL0     C92608   2.062   0.575   3.521  0.3508 -0.8014  0.5483
  672MOL0     C92609   2.143   0.701   3.475 -0.1217 -0.9756  0.7652
  672MOL0     C92610   2.286   0.724   3.542 -0.5727  1.4265  1.1663
  672MOL0     C92611   2.337   0.866   3.487 -0.3192  0.7637 -0.5043
  672MOL0     C92612   2.485   0.884   3.526  0.5231  0.6425 -0.3131
  672MOL0     C92613   2.587   0.785   3.463  0.2947  0.0823 -0.9743
  672MOL0     C92614   2.722   0.846   3.433  0.5241  0.2009 -0.6676
  672MOL0     N92615   2.787   0.727   3.374  0.2965 -0.7003  0.5734
  672MOL0     C92616   2.879   0.637   3.432 -0.2079 -0.7417 -0.6089
  672MOL0     C92617   2.871   0.527   3.352  0.0341 -0.6925  0.0841
  672MOL0     C92618   2.922   0.397   3.377 -0.4973  0.2240  0.2770
  672MOL0     C92619   2.809   0.308   3.452 -0.2696  0.6044  0.1936
  672MOL0     C92620   2.874   0.179   3.509  0.6854 -0.0433  0.4811
  672MOL0     C92621   2.927   0.188   3.651  0.8636 -0.0221 -0.0127
  672MOL0     O92622   3.000   0.072   3.673  0.0878 -0.4101  0.1178
  672MOL0     C92623   3.130   0.069   3.638 -1.1241 -0.6307  1.2370
  672MOL0     C92624   3.189  -0.051   3.679  0.0433  0.1498 -0.7368
  672MOL0     C92625   3.329  -0.066   3.654 -0.0150  1.3790  0.6081
  672MOL0     C92626   3.393  -0.194   3.695 -0.2888 -0.3461  0.6108
  672MOL0     C92627   3.407   0.027   3.578  1.4654 -0.1114 -0.3300
  672MOL0     C92628   3.555   0.028   3.552  0.5243 -0.2949 -0.6701
  672MOL0     O92629   3.625  -0.075   3.618 -0.6229  0.2664  0.0525
  672MOL0     C92630   3.763  -0.086   3.591  0.1363  0.1628 -0.1794
  672MOL0     C92631   3.805  -0.137   3.480 -0.4085  0.8194  0.4679
  672MOL0     C92632   3.941  -0.153   3.447  0.0484 -0.9072 -0.2659
  672MOL0     C92633   4.033  -0.130   3.544  0.2807  0.6071  0.5589
  672MOL0     O92634   4.170  -0.140   3.523 -0.4320 -0.5295  0.5472
  672MOL0     C92635   4.219  -0.241   3.439 -0.5163  0.2304  0.9907
  672MOL0     C92636   4.274  -0.180   3.307  1.3361  0.8565  0.8395
  672MOL0     C92637   4.376  -0.258   3.233 -1.0175  0.1604  0.0529
  672MOL0     C92638   4.309  -0.373   3.163 -0.2412  0.4082 -0.3744
  672MOL0     C92639   4.392  -0.428   3.048 -0.3789 -0.9501  0.2007
  672MOL0     C92640   4.327  -0.557   2.992  0.4178 -0.0693 -0.0816
  672MOL0     C92641   4.394  -0.618   2.869  0.5041 -0.9822 -0.4699
  672MOL0     C92642   4.539  -0.661   2.891 -0.7508  0.5489 -0.2075
  672MOL0    Cl92643   4.546  -0.798   3.001 -0.0879  0.1089  0.4234
  672MOL0     C92644   3.994  -0.083   3.668  0.3315  0.4622 -0.2541
  672MOL0     C92645   3.861  -0.062   3.693  0.4778  0.4645  0.2713
  672MOL0     O92646   3.603   0.114   3.479  0.4650 -0.2148  0.4377
  672MOL0     C92647   3.339   0.142   3.534 -0.0737  0.8523  0.4211
  672MOL0     C92648   3.203   0.165   3.560 -0.7697 -0.1131  0.8120
  672MOL0     N92649   2.808   0.568   3.237  0.2493 -0.1505 -0.1909
  672MOL0     N92650   2.752   0.683   3.252  0.8000  0.1624 -0.1312
  672MOL0     C92651   1.758   0.625   3.183 -0.3824 -0.2403  0.2273
  672MOL0     C92652   1.669   0.602   3.075  0.5756  0.4463 -0.4950
  672MOL0     C92653   1.329   0.467   2.816 -0.2836 -0.8270 -0.3249
  672MOL0     C92654   1.378   0.440   2.686 -0.6262  1.7557  0.1986
  672MOL0     C92655   1.298   0.426   2.569  0.5941  0.0703 -0.4447
  672MOL0     C92656   1.165   0.458   2.573 -0.1004 -0.8997 -0.1353
  672MOL0     O92657   1.086   0.431   2.462 -0.3792 -0.5773 -0.2261
  672MOL0     C92658   0.946   0.477   2.458  0.3732 -0.1160 -0.5418
  672MOL0     C92659   0.891   0.437   2.319  0.8173 -0.3027 -0.6807
  672MOL0     C92660   0.908   0.289   2.283 -0.4429  0.6861 -1.5480
  672MOL0     C92661   0.810   0.194   2.359 -0.5278  0.4296  0.3913
  672MOL0     C92662   0.674   0.210   2.302 -0.3988  0.4286 -0.7192
  672MOL0     C92663   0.560   0.222   2.263  0.2949  0.3476  0.2090
  672MOL0     C92664   1.111   0.503   2.696 -0.2756 -0.1182  0.2921
  672MOL0     C92665   1.191   0.504   2.817 -0.2776 -0.3385  0.3810
  672MOL0     C92666   1.111   0.547   2.938 -0.1988 -0.3729  0.0659
  672MOL0     H92667   1.765   0.293   2.971 -1.3818 -0.4122 -0.1401
  672MOL0     H92668   1.924   0.330   3.121  0.4926 -0.5067  0.1996
  672MOL0     H92669   1.879   0.464   3.478 -0.4264  1.4088  3.4068
  672MOL0     H92670   1.859   0.631   3.464 -2.2386 -3.0605  4.1637
  672MOL0     H92671   2.035   0.585   3.626 -1.9177  2.3059 -0.1754
  672MOL0     H92672   2.116   0.481   3.502 -0.1445 -0.9402 -0.2362
  672MOL0     H92673   2.166   0.700   3.368  2.1284  0.3176  1.1611
  672MOL0     H92674   2.082   0.789   3.494 -0.6213 -0.9144 -0.9849
  672MOL0     H92675   2.276   0.713   3.650  0.9543  0.9088  1.2699
  672MOL0     H92676   2.363   0.654   3.509 -2.4427 -0.3747  0.3806
  672MOL0     H92677   2.269   0.937   3.535 -3.0193 -2.8613  1.5835
  672MOL0     H92678   2.335   0.861   3.378  2.7784 -0.8190 -0.6176
  672MOL0     H92679   2.506   0.981   3.478  0.3013  0.9946  0.3000
  672MOL0     H92680   2.490   0.888   3.635 -2.2006  3.6859 -0.1350
  672MOL0     H92681   2.547   0.749   3.368 -0.3045  1.2555 -1.1789
  672MOL0     H92682   2.592   0.703   3.535  0.2035  0.4892 -0.5027
  672MOL0     H92683   2.718   0.927   3.360  3.4032 -0.3609 -1.5962
  672MOL0     H92684   2.773   0.880   3.523 -0.7594 -0.1018  0.1858
  672MOL0     H92685   2.930   0.658   3.526  1.0069 -0.4021 -1.3200
  672MOL0     H92686   3.023   0.403   3.418 -0.0038 -1.2019 -0.6601
  672MOL0     H92687   2.949   0.341   3.287  0.8489 -1.3071  1.5711
  672MOL0     H92688   2.773   0.371   3.534  0.2596  2.7955 -1.1849
  672MOL0     H92689   2.719   0.289   3.394 -2.1628  4.5366  1.4644
  672MOL0     H92690   2.811   0.090   3.507  1.6826 -0.8096  1.5240
  672MOL0     H92691   2.959   0.157   3.444 -0.5376 -0.2481 -1.1035
  672MOL0     H92692   2.990   0.278   3.650 -0.2471  0.8664  2.1131
  672MOL0     H92693   2.846   0.204   3.723 -3.2568  0.0610 -4.1759
  672MOL0     H92694   3.127  -0.131   3.719  2.0077 -1.3466 -0.5518
  672MOL0     H92695   3.447  -0.251   3.619 -1.5010 -0.0449 -0.5162
  672MOL0     H92696   3.322  -0.267   3.734 -2.9000  1.0345 -1.2664
  672MOL0     H92697   3.469  -0.156   3.764  0.3572 -0.1184 -0.2106
  672MOL0     H92698   3.734  -0.166   3.403 -1.1151  0.4585  1.2389
  672MOL0     H92699   3.984  -0.190   3.355  0.6656  0.7408 -0.6821
  672MOL0     H92700   4.311  -0.280   3.485 -0.1805 -0.2574 -0.0598
  672MOL0     H92701   4.160  -0.332   3.429 -0.9949  0.3407  2.5513
  672MOL0     H92702   4.189  -0.156   3.242  2.4395  1.7376 -0.3162
  672MOL0     H92703   4.311  -0.079   3.324  1.6350  0.4813  2.5614
  672MOL0     H92704   4.458  -0.292   3.297 -1.4792  0.8888  1.0572
  672MOL0     H92705   4.422  -0.194   3.157  0.1617 -1.0303 -0.2815
  672MOL0     H92706   4.207  -0.350   3.131 -1.6955 -2.1625  2.0051
  672MOL0     H92707   4.302  -0.451   3.240  2.2604  1.5102  1.1210
  672MOL0     H92708   4.408  -0.363   2.961  1.0301 -0.7247  0.6083
  672MOL0     H92709   4.493  -0.453   3.082 -1.2588 -5.6903  0.0159
  672MOL0     H92710   4.222  -0.548   2.967  0.6780  0.9176 -0.8809
  672MOL0     H92711   4.335  -0.628   3.076 -0.5242 -3.1316 -2.4186
  672MOL0     H92712   4.389  -0.544   2.788  2.7791 -1.2629 -0.9155
  672MOL0     H92713   4.325  -0.696   2.835 -1.7333  0.8695 -0.4669
  672MOL0     H92714   4.602  -0.578   2.926  1.9994 -1.0177 -1.1180
  672MOL0     H92715   4.579  -0.698   2.797  0.3520  0.5416  0.2469
  672MOL0     H92716   4.073  -0.071   3.742  0.5105 -0.4822 -0.2873
  672MOL0     H92717   3.833  -0.036   3.795  0.0796 -0.8802  0.5286
  672MOL0     H92718   3.391   0.214   3.471  0.2502  1.5647  1.4779
  672MOL0     H92719   3.163   0.257   3.518 -3.8711 -1.6521  0.0963
  672MOL0     H92720   1.756   0.719   3.237  0.0850 -2.5146  4.6497
  672MOL0     H92721   1.590   0.672   3.051 -1.1464 -0.4960  2.0401
  672MOL0     H92722   1.482   0.412   2.677 -1.0740  0.0699 -0.0499
  672MOL0     H92723   1.338   0.397   2.473  1.3227  4.0295 -1.5295
  672MOL0     H92724   0.890   0.427   2.537 -1.8455  2.4777 -0.3243
  672MOL0     H92725   0.935   0.586   2.462 -2.6430 -0.3568 -0.4145
  672MOL0     H92726   0.925   0.512   2.247  0.9629  3.5412  2.9537
  672MOL0     H92727   0.782   0.447   2.325  0.7677 -0.7215 -0.8908
  672MOL0     H92728   0.897   0.281   2.174  1.6852  4.1070 -2.1515
  672MOL0     H92729   1.003   0.250   2.320 -0.1351 -1.8129 -4.5298
  672MOL0     H92730   0.803   0.209   2.467 -0.2251 -3.3969  1.0790
  672MOL0     H92731   0.853   0.095   2.341 -0.9934  0.2797  0.0882
  672MOL0     H92732   0.458   0.232   2.232 -0.6074 -2.5083  1.8274
  672MOL0     H92733   1.006   0.531   2.701 -0.7642 -1.9731  1.4714
  672MOL0     H92734   1.086   0.464   3.005  1.4852  1.2263  2.8627
  672MOL0     H92735   1.163   0.616   3.004 -2.8302  0.7977  1.0449
  672MOL0     H92736   1.031   0.616   2.911  1.6237  1.7657 -0.1679
  673MOL0     O92737   5.930   8.912   0.332 -0.4510 -0.5240  0.3147
  673MOL0     C92738   5.982   8.862   0.437  0.0156  0.3028  0.6377
  673MOL0     O92739   5.978   8.726   0.476 -0.8419  0.1186 -0.0708
  673MOL0     C92740   5.931   8.633   0.383  1.1840 -0.3769  0.1579
  673MOL0     C92741   5.959   8.641   0.241  0.5513  0.0996  0.1909
  673MOL0     C92742   5.933   8.534   0.164  0.8049 -0.6581  0.2964
  673MOL0     C92743   5.869   8.418   0.221 -0.5198  0.3245 -0.4146
  673MOL0     O92744   5.836   8.308   0.144 -0.5693 -0.4086 -0.8493
  673MOL0     C92745   5.900   8.275   0.022  0.2705 -0.8261  0.5538
  673MOL0     C92746   6.041   8.219   0.039  0.2257  0.2798 -0.8558
  673MOL0     C92747   6.073   8.100  -0.052 -0.0149  0.5418  0.2935
  673MOL0     C92748   6.058   8.119  -0.212  0.8093  0.3149 -0.6798
  673MOL0     C92749   6.108   8.006  -0.285 -0.0358 -0.6991 -0.0844
  673MOL0     C92750   6.104   8.040  -0.439  1.0791 -0.0914 -0.0182
  673MOL0     C92751   6.224   8.124  -0.490 -0.2903  0.6404  0.0583
  673MOL0     C92752   6.231   8.162  -0.633 -0.9949 -0.2984 -0.6136
  673MOL0     N92753   6.365   8.211  -0.672  0.3144  0.0281 -0.1175
  673MOL0     C92754   6.415   8.340  -0.654  0.4485 -0.6483  0.5276
  673MOL0     C92755   6.546   8.340  -0.681  0.3725  0.4469  0.4302
  673MOL0     C92756   6.646   8.453  -0.674 -0.4406  0.3641 -0.1355
  673MOL0     C92757   6.649   8.504  -0.534 -0.0747  1.2031  0.2831
  673MOL0     C92758   6.768   8.607  -0.528  0.2139  0.2553 -0.2821
  673MOL0     C92759   6.792   8.642  -0.388 -0.5200  0.5535  0.0667
  673MOL0     O92760   6.891   8.571  -0.327 -0.0791 -0.1852  0.7627
  673MOL0     C92761   7.017   8.610  -0.339 -0.0934 -1.1635  0.1385
  673MOL0     C92762   7.103   8.548  -0.255  0.0857  0.4102 -0.4298
  673MOL0     C92763   7.239   8.573  -0.237  0.4020 -0.3186 -0.2069
  673MOL0     C92764   7.311   8.480  -0.132  0.8601 -0.1645  0.3042
  673MOL0     C92765   7.287   8.687  -0.310 -0.1965  0.6148 -0.5273
  673MOL0     C92766   7.429   8.732  -0.308  0.8270 -0.2232  0.5285
  673MOL0     O92767   7.466   8.793  -0.425  0.4063  0.2796 -0.0323
  673MOL0     C92768   7.586   8.854  -0.444 -0.2848 -0.3073 -0.1940
  673MOL0     C92769   7.707   8.788  -0.466  0.5407  0.1879  0.5973
  673MOL0     C92770   7.824   8.864  -0.497  0.1036  0.0910 -0.2189
  673MOL0     C92771   7.827   9.001  -0.492 -0.2543  0.3600 -0.4057
  673MOL0     O92772   7.952   9.060  -0.512  0.5677  0.1175  0.8586
  673MOL0     C92773   7.951   9.209  -0.505 -1.4662 -0.5147  0.2107
  673MOL0     C92774   8.090   9.268  -0.539  1.0501  0.0782  0.5380
  673MOL0     C92775   8.128   9.253  -0.690 -0.5318 -0.2123  0.2180
  673MOL0     C92776   8.252   9.337  -0.727  0.3697  0.5635  0.3957
  673MOL0     C92777   8.270   9.339  -0.878  0.3352  0.4892 -0.0508
  673MOL0     C92778   8.375   9.431  -0.934  0.0715 -0.0234 -0.2980
  673MOL0     C92779   8.384   9.430  -1.091  0.3915  0.3360 -0.0800
  673MOL0     C92780   8.486   9.528  -1.148 -0.5400  0.1784 -0.2733
  673MOL0    Cl92781   8.653   9.480  -1.098 -0.1880  0.3015  0.2280
  673MOL0     C92782   7.707   9.062  -0.458  0.2269  0.3442 -0.2287
  673MOL0     C92783   7.591   8.988  -0.432 -0.6677 -0.4054 -0.2567
  673MOL0     O92784   7.504   8.717  -0.211 -0.2019 -0.0539 -0.0615
  673MOL0     C92785   7.199   8.757  -0.394  0.0219  0.3660  0.7225
  673MOL0     C92786   7.070   8.722  -0.409 -0.1797  0.1330  0.1299
  673MOL0     N92787   6.578   8.207  -0.720  0.6173 -1.0816  0.2996
  673MOL0     N92788   6.474   8.135  -0.712  0.5867 -0.4103 -0.5505
  673MOL0     C92789   5.827   8.419   0.350  0.4136 -0.1569  0.5686
  673MOL0     C92790   5.862   8.519   0.441 -0.8702  0.1602 -0.4879
  673MOL0     C92791   6.037   8.947   0.539  0.9840 -0.3135 -0.5574
  673MOL0     C92792   6.005   8.922   0.675  0.6203 -0.9549  0.3004
  673MOL0     C92793   6.029   9.006   0.776  0.0553  0.2227 -0.0212
  673MOL0     C92794   6.107   9.123   0.757 -0.3942  0.4510 -0.0455
  673MOL0     O92795   6.144   9.219   0.856 -0.2565  0.6171  0.0679
  673MOL0     C92796   6.070   9.198   0.979  0.4219  0.3768 -0.4885
  673MOL0     C92797   6.145   9.273   1.091 -1.2875 -0.7213  0.5299
  673MOL0     C92798   6.294   9.219   1.113 -0.1193  0.1640  0.3143
  673MOL0     C92799   6.318   9.182   1.256 -0.3142  0.5499  0.8063
  673MOL0     C92800   6.449   9.116   1.266  0.7380 -0.5516  0.3313
  673MOL0     C92801   6.557   9.064   1.295 -0.0812  0.1177  0.6567
  673MOL0     C92802   6.158   9.146   0.627  0.3341  0.3699  0.3569
  673MOL0     C92803   6.125   9.057   0.518  0.0337 -0.0709 -0.3828
  673MOL0     C92804   6.174   9.104   0.389  0.4598  0.3678 -0.9139
  673MOL0     H92805   6.021   8.717   0.194  1.6147  0.8197  2.5542
  673MOL0     H92806   5.935   8.539   0.055 -1.9750 -1.9892  0.0847
  673MOL0     H92807   5.915   8.362  -0.044  0.5692 -0.4571  1.0949
  673MOL0     H92808   5.843   8.202  -0.036 -0.3416 -1.6804  2.1703
  673MOL0     H92809   6.101   8.307   0.012 -0.1543  0.4476 -1.1639
  673MOL0     H92810   6.055   8.188   0.143  1.5031 -1.6508 -1.5524
  673MOL0     H92811   6.176   8.070  -0.029 -0.4002 -1.7336 -0.6245
  673MOL0     H92812   6.019   8.008  -0.027  2.0147 -1.2162 -1.3586
  673MOL0     H92813   5.950   8.121  -0.233  0.2817 -6.0500 -0.6863
  673MOL0     H92814   6.117   8.207  -0.236  1.1188 -0.4448 -2.9756
  673MOL0     H92815   6.046   7.920  -0.259  0.7167 -1.1332  0.2810
  673MOL0     H92816   6.212   7.980  -0.263 -0.1473 -1.1792 -0.1120
  673MOL0     H92817   6.120   7.949  -0.498  3.1268  0.6652 -0.7366
  673MOL0     H92818   6.008   8.086  -0.464  0.4223 -1.3145  0.1782
  673MOL0     H92819   6.312   8.069  -0.456 -2.7278 -1.6772  3.3436
  673MOL0     H92820   6.208   8.214  -0.430  1.0951 -0.3228  2.0018
  673MOL0     H92821   6.198   8.077  -0.694  0.4251 -0.7042 -0.8621
  673MOL0     H92822   6.165   8.247  -0.651 -1.8234 -0.4392  1.5680
  673MOL0     H92823   6.354   8.418  -0.611 -3.4591 -2.7287 -0.7536
  673MOL0     H92824   6.623   8.538  -0.739 -1.4128 -1.0057 -1.6707
  673MOL0     H92825   6.748   8.421  -0.696  0.6732  1.9496  2.3229
  673MOL0     H92826   6.553   8.549  -0.510 -1.0251 -1.4999  2.0486
  673MOL0     H92827   6.663   8.416  -0.470 -0.6348 -2.5169 -4.1005
  673MOL0     H92828   6.854   8.574  -0.587 -2.2079 -0.3352 -3.7607
  673MOL0     H92829   6.727   8.695  -0.578 -1.5874  0.6600  1.7538
  673MOL0     H92830   6.818   8.747  -0.371 -1.6270  0.5260  2.1858
  673MOL0     H92831   6.698   8.635  -0.332 -2.1937  0.2586 -2.5986
  673MOL0     H92832   7.065   8.470  -0.189  2.3347 -0.3721  0.0328
  673MOL0     H92833   7.256   8.386  -0.137  1.2208 -0.3239 -2.6074
  673MOL0     H92834   7.309   8.535  -0.037  1.9197  0.3729  0.0312
  673MOL0     H92835   7.412   8.455  -0.166  1.4202  1.1978  0.8700
  673MOL0     H92836   7.719   8.680  -0.471 -2.6604 -0.2155 -0.6812
  673MOL0     H92837   7.915   8.815  -0.531 -0.6473  0.3659 -2.8461
  673MOL0     H92838   7.881   9.255  -0.575 -2.8105 -1.3746  0.9503
  673MOL0     H92839   7.919   9.245  -0.407  0.4973 -0.8795  1.0259
  673MOL0     H92840   8.105   9.373  -0.510  1.6456  0.1636 -0.0550
  673MOL0     H92841   8.162   9.220  -0.472 -0.1268  0.0651  1.8366
  673MOL0     H92842   8.041   9.286  -0.746 -0.5863  0.4562  0.6766
  673MOL0     H92843   8.142   9.151  -0.728 -0.8208  0.4802 -1.8478
  673MOL0     H92844   8.348   9.302  -0.687  1.2769  1.5980 -0.8082
  673MOL0     H92845   8.249   9.435  -0.678 -0.0503  1.7672 -1.9188
  673MOL0     H92846   8.288   9.237  -0.913 -0.1177  0.5420 -0.4617
  673MOL0     H92847   8.177   9.383  -0.915 -1.5263 -1.4383  2.0388
  673MOL0     H92848   8.471   9.411  -0.884 -2.1362  0.3821  4.6489
  673MOL0     H92849   8.348   9.534  -0.906 -0.6659  0.2297 -1.8338
  673MOL0     H92850   8.283   9.438  -1.130  0.1043 -0.5954  0.4243
  673MOL0     H92851   8.412   9.329  -1.122 -0.1951  0.2438 -0.3173
  673MOL0     H92852   8.452   9.627  -1.117  2.4364  1.8295 -1.8463
  673MOL0     H92853   8.469   9.534  -1.256 -0.0319 -0.4200 -0.3868
  673MOL0     H92854   7.708   9.170  -0.452  2.0470  0.3261  0.6786
  673MOL0     H92855   7.503   9.043  -0.401 -2.1855 -0.9582 -3.2513
  673MOL0     H92856   7.233   8.839  -0.456 -0.6895  0.0490 -0.1097
  673MOL0     H92857   7.023   8.775  -0.492  0.3365 -0.6057 -0.6573
  673MOL0     H92858   5.764   8.333   0.373  0.8853 -0.4913  0.6188
  673MOL0     H92859   5.840   8.512   0.547  0.0009  5.7099  0.3557
  673MOL0     H92860   5.934   8.841   0.688 -2.0741  1.1962 -0.0165
  673MOL0     H92861   5.982   8.982   0.871 -0.4358 -1.8991 -0.7592
  673MOL0     H92862   5.971   9.244   0.971  0.0773 -0.2174  0.3114
  673MOL0     H92863   6.055   9.096   1.014  2.1313  0.9399  2.1824
  673MOL0     H92864   6.086   9.245   1.178  1.7441  2.2467  3.8909
  673MOL0     H92865   6.137   9.381   1.071 -3.3967 -1.2960 -2.3452
  673MOL0     H92866   6.299   9.136   1.043  0.4063 -2.0244  2.7913
  673MOL0     H92867   6.371   9.288   1.077  1.1234 -1.5214 -0.3859
  673MOL0     H92868   6.239   9.115   1.292 -0.6693  0.5682  0.0798
  673MOL0     H92869   6.318   9.278   1.308 -2.8193  0.1284  1.7619
  673MOL0     H92870   6.647   9.022   1.335  1.0440 -2.1842 -3.6974
  673MOL0     H92871   6.219   9.231   0.598  1.0494 -0.2640 -0.0247
  673MOL0     H92872   6.247   9.024   0.371 -0.6287 -1.2544  1.3594
  673MOL0     H92873   6.105   9.114   0.305 -1.7806  2.2738  1.0021
  673MOL0     H92874   6.224   9.201   0.399 -0.7753  1.3221 -3.2125
  674MOL0     O92875   9.725   4.756   0.921 -0.5356 -0.1786 -0.4232
  674MOL0     C92876   9.664   4.663   0.863 -1.2737 -0.5527 -1.1559
  674MOL0     O92877   9.696   4.530   0.874 -0.4077 -0.0943  0.1156
  674MOL0     C92878   9.809   4.499   0.945  0.1725 -0.1125 -0.7856
  674MOL0     C92879   9.814   4.441   1.073  0.2291 -0.1034  0.2760
  674MOL0     C92880   9.933   4.410   1.127 -0.7393  0.2649 -0.0379
  674MOL0     C92881  10.054   4.431   1.080 -0.0863 -0.2700  0.8206
  674MOL0     O92882  10.163   4.384   1.145  0.2909  0.3454 -0.4018
  674MOL0     C92883  10.289   4.422   1.102  0.3230  0.3183  0.7503
  674MOL0     C92884  10.374   4.405   1.221  0.2402  0.2350  0.6380
  674MOL0     C92885  10.518   4.440   1.195 -0.4504 -0.3181 -0.2886
  674MOL0     C92886  10.615   4.409   1.316 -0.7504  0.6678  0.1315
  674MOL0     C92887  10.747   4.479   1.312  0.9832 -0.6882 -0.1364
  674MOL0     C92888  10.801   4.481   1.162 -0.0114 -0.1547  0.0485
  674MOL0     C92889  10.942   4.552   1.142  0.0182 -0.0801 -0.5139
  674MOL0     C92890  10.928   4.702   1.156  0.3437 -0.0399  0.0796
  674MOL0     N92891  11.052   4.772   1.130  0.2204  1.3789  0.5740
  674MOL0     C92892  11.094   4.834   1.012 -0.2973 -0.2116 -0.1217
  674MOL0     C92893  11.228   4.866   1.029 -0.0840  0.5221 -0.9369
  674MOL0     C92894  11.323   4.938   0.953 -0.7207 -0.6906  0.2272
  674MOL0     C92895  11.465   4.887   0.939 -0.1220  0.1504  0.2262
  674MOL0     C92896  11.554   4.976   0.844 -0.0468  0.2277  0.2017
  674MOL0     C92897  11.673   4.917   0.767  0.4377 -0.4467 -0.6543
  674MOL0     O92898  11.631   4.779   0.733  0.3982 -0.3894 -0.4090
  674MOL0     C92899  11.730   4.715   0.660  0.4467 -0.1798  0.0389
  674MOL0     C92900  11.858   4.751   0.646 -0.5165  0.1667  0.5023
  674MOL0     C92901  11.955   4.664   0.597 -0.2647  0.1870 -0.0564
  674MOL0     C92902  12.097   4.712   0.595 -0.6944 -0.6224 -0.1225
  674MOL0     C92903  11.922   4.535   0.541 -0.0996 -0.4817  0.3386
  674MOL0     C92904  12.014   4.444   0.479 -0.1195 -0.2466 -0.7758
  674MOL0     O92905  11.960   4.361   0.376 -0.8072  0.4602  1.1450
  674MOL0     C92906  12.047   4.265   0.331 -0.5551 -0.1567 -0.2032
  674MOL0     C92907  12.156   4.300   0.238  0.9143  0.8881  0.7560
  674MOL0     C92908  12.240   4.194   0.193 -0.6566  0.5328 -0.0868
  674MOL0     C92909  12.226   4.060   0.251  1.3789 -1.2448  0.5319
  674MOL0     O92910  12.314   3.957   0.221  0.8081  0.3164 -0.4069
  674MOL0     C92911  12.433   3.988   0.169 -1.2373  0.0817  0.1401
  674MOL0     C92912  12.537   4.018   0.285 -0.0655  1.2406 -0.3377
  674MOL0     C92913  12.674   4.046   0.225  0.5117  0.0393 -0.2279
  674MOL0     C92914  12.759   3.927   0.176 -0.3754  0.7727 -0.4773
  674MOL0     C92915  12.843   3.870   0.287 -0.3007  0.0270  0.1375
  674MOL0     C92916  12.903   3.738   0.246 -0.0721 -0.1602 -0.4517
  674MOL0     C92917  12.947   3.648   0.372 -1.2216 -0.7448 -0.0243
  674MOL0     C92918  13.013   3.518   0.324  0.3603  0.1578 -1.1299
  674MOL0    Cl92919  13.183   3.557   0.300  0.0231  0.5633 -0.1251
  674MOL0     C92920  12.126   4.042   0.343  0.7296 -0.3749  0.2787
  674MOL0     C92921  12.032   4.139   0.390 -0.2918 -0.4553 -1.4651
  674MOL0     O92922  12.114   4.421   0.552 -0.2615  0.4924 -0.4017
  674MOL0     C92923  11.782   4.505   0.537  0.2323  0.2925  0.1472
  674MOL0     C92924  11.695   4.594   0.604 -0.4151 -0.7246 -0.4879
  674MOL0     N92925  11.250   4.839   1.165 -0.9173  0.5359  0.3226
  674MOL0     N92926  11.155   4.773   1.214  0.2209 -0.0479 -0.0077
  674MOL0     C92927  10.058   4.496   0.956 -0.8310 -0.8963  0.3701
  674MOL0     C92928   9.939   4.528   0.892 -0.2158  0.0398  0.2337
  674MOL0     C92929   9.557   4.708   0.775 -0.1849 -1.3646 -0.3699
  674MOL0     C92930   9.553   4.854   0.753 -0.2534 -0.9695 -0.6529
  674MOL0     C92931   9.456   4.911   0.675  1.0681 -0.3036 -0.0043
  674MOL0     C92932   9.352   4.836   0.616  0.3125  0.1785  0.1001
  674MOL0     O92933   9.235   4.879   0.556 -1.1779 -0.3066  0.0422
  674MOL0     C92934   9.237   5.002   0.483  0.3401 -0.5890  0.6199
  674MOL0     C92935   9.092   5.064   0.493 -0.2070  0.4452 -0.5643
  674MOL0     C92936   8.979   4.977   0.420  0.4003 -0.4630 -0.1860
  674MOL0     C92937   8.839   5.044   0.443  0.2642  0.3879  0.8317
  674MOL0     C92938   8.812   5.156   0.353 -0.1683 -0.2310  0.3161
  674MOL0     C92939   8.798   5.264   0.302  0.3694  0.3859  0.1329
  674MOL0     C92940   9.356   4.699   0.644  0.1924 -0.3489 -0.2249
  674MOL0     C92941   9.454   4.631   0.712  0.8164  0.3041  0.3352
  674MOL0     C92942   9.433   4.483   0.736  0.0175  0.2077 -0.6678
  674MOL0     H92943   9.726   4.420   1.133  1.2585 -0.3564  1.7605
  674MOL0     H92944   9.932   4.365   1.225  2.7759 -1.4385 -0.6379
  674MOL0     H92945  10.291   4.528   1.076 -0.8880  0.3298  0.6451
  674MOL0     H92946  10.314   4.358   1.017 -1.2358  0.8035 -0.1013
  674MOL0     H92947  10.354   4.473   1.305  3.0585  1.4572  0.4417
  674MOL0     H92948  10.378   4.303   1.259  2.3383 -1.3453 -3.2867
  674MOL0     H92949  10.554   4.400   1.100  1.5267  3.0950 -1.1530
  674MOL0     H92950  10.529   4.548   1.183 -0.4388 -0.2961 -0.0817
  674MOL0     H92951  10.568   4.436   1.411 -0.6060 -0.2327  0.4681
  674MOL0     H92952  10.625   4.301   1.322 -3.2083  0.2844 -1.4042
  674MOL0     H92953  10.808   4.420   1.381 -1.7387 -0.2976  2.8717
  674MOL0     H92954  10.733   4.585   1.338 -2.7431 -0.4923 -2.1492
  674MOL0     H92955  10.799   4.377   1.127  1.7224 -0.4131  0.6269
  674MOL0     H92956  10.733   4.528   1.090 -3.6364 -4.9583 -0.1990
  674MOL0     H92957  10.990   4.531   1.046  0.3890  1.9734 -0.8351
  674MOL0     H92958  11.009   4.521   1.223 -3.3155  0.3338  2.6168
  674MOL0     H92959  10.852   4.721   1.080  0.1473 -4.0233 -0.9544
  674MOL0     H92960  10.887   4.738   1.251 -1.1243  1.7181 -1.1531
  674MOL0     H92961  11.032   4.852   0.925  2.0933 -0.0239 -1.8740
  674MOL0     H92962  11.327   5.035   1.003  3.0100 -0.4208 -0.3278
  674MOL0     H92963  11.281   4.945   0.853  2.2257 -0.7856 -1.1222
  674MOL0     H92964  11.499   4.880   1.043 -0.2180 -0.7703  0.2074
  674MOL0     H92965  11.466   4.784   0.902  2.3344  0.2756 -0.1970
  674MOL0     H92966  11.488   5.012   0.764 -1.1401 -1.1683  0.4175
  674MOL0     H92967  11.582   5.063   0.904 -1.7681  1.5613 -0.8185
  674MOL0     H92968  11.700   4.971   0.675 -0.8420 -2.4773 -2.3300
  674MOL0     H92969  11.757   4.909   0.836  1.2613  0.5535 -1.5055
  674MOL0     H92970  11.904   4.839   0.689  1.1194 -1.2476  1.7962
  674MOL0     H92971  12.151   4.677   0.683  3.1214 -1.3714 -2.5426
  674MOL0     H92972  12.096   4.821   0.595 -0.4323 -0.5431 -3.2503
  674MOL0     H92973  12.155   4.680   0.508  0.7141 -2.1908  1.3129
  674MOL0     H92974  12.173   4.396   0.191  0.8928  0.6082  0.1611
  674MOL0     H92975  12.310   4.212   0.112  0.1924  0.5637  0.6272
  674MOL0     H92976  12.481   3.900   0.124 -0.0341  0.7990 -0.0188
  674MOL0     H92977  12.436   4.068   0.094 -1.6594  3.1231  3.1597
  674MOL0     H92978  12.499   4.097   0.351 -0.9639  0.8285 -0.3401
  674MOL0     H92979  12.554   3.928   0.345  2.7976  2.4914  0.9052
  674MOL0     H92980  12.728   4.101   0.303 -1.2881  1.4824  0.0743
  674MOL0     H92981  12.662   4.112   0.138  1.6437  0.5421 -0.0336
  674MOL0     H92982  12.829   3.962   0.100 -1.8754  2.1457 -1.3139
  674MOL0     H92983  12.700   3.849   0.127  0.3962 -1.6598  2.2053
  674MOL0     H92984  12.915   3.946   0.317 -0.0148 -1.1757  2.8774
  674MOL0     H92985  12.773   3.855   0.370 -1.7624 -0.1014 -1.0722
  674MOL0     H92986  12.983   3.760   0.175  1.7778  1.2090  1.8913
  674MOL0     H92987  12.829   3.668   0.206  0.6128 -1.0811 -0.1482
  674MOL0     H92988  12.848   3.637   0.416 -0.7965 -1.8262  0.6905
  674MOL0     H92989  13.015   3.700   0.440 -3.1130 -2.6000  3.5658
  674MOL0     H92990  12.962   3.475   0.237 -2.6298 -1.4638  1.2152
  674MOL0     H92991  12.995   3.455   0.411 -0.0309  1.7188 -0.0254
  674MOL0     H92992  12.130   3.945   0.392  0.2090 -0.1023  0.8809
  674MOL0     H92993  11.952   4.115   0.459  0.0422 -2.0755 -1.5990
  674MOL0     H92994  11.748   4.405   0.512 -0.6895  0.3807  0.9707
  674MOL0     H92995  11.596   4.556   0.627 -0.0846 -1.8863 -0.8719
  674MOL0     H92996  10.146   4.532   0.904 -0.7333  1.5025  1.9788
  674MOL0     H92997   9.946   4.577   0.796 -1.5442 -1.6573 -0.8019
  674MOL0     H92998   9.623   4.924   0.796 -1.4700  0.4369 -0.8752
  674MOL0     H92999   9.463   5.019   0.668  0.3422 -0.3723 -2.8962
  674MOL0     H93000   9.307   5.077   0.520  0.8787 -1.7566  2.0276
  674MOL0     H93001   9.257   4.993   0.376  1.5048  2.8180  0.4129
  674MOL0     H93002   9.105   5.164   0.451 -0.1120  0.4906 -0.4268
  674MOL0     H93003   9.068   5.077   0.599  1.0828  1.5378 -0.3762
  674MOL0     H93004   8.994   4.958   0.313 -2.8969  2.0203 -1.2621
  674MOL0     H93005   8.985   4.882   0.474  0.5786 -0.2067  0.2461
  674MOL0     H93006   8.828   5.077   0.547 -1.3943  0.0790  0.7900
  674MOL0     H93007   8.759   4.971   0.427  1.3438 -0.5635 -0.4155
  674MOL0     H93008   8.772   5.360   0.263 -0.6415  1.5054  3.2883
  674MOL0     H93009   9.267   4.646   0.614  1.7015 -1.0739 -4.0956
  674MOL0     H93010   9.334   4.455   0.699 -0.2757  2.8566 -2.1122
  674MOL0     H93011   9.508   4.429   0.677 -0.6919 -1.1043 -0.4124
  674MOL0     H93012   9.448   4.461   0.842 -0.9624  1.1750 -0.3144
  675MOL0     O93013   8.599   4.953   5.169  0.4789  0.3624  0.1149
  675MOL0     C93014   8.582   5.037   5.079 -0.8853  0.4272  0.0883
  675MOL0     O93015   8.457   5.104   5.063 -0.4776 -0.3846 -0.5641
  675MOL0     C93016   8.371   5.096   5.166 -0.5226 -0.5761  0.3257
  675MOL0     C93017   8.291   4.985   5.184  0.2914  0.3642 -0.3252
  675MOL0     C93018   8.196   4.976   5.293 -0.2903 -0.0971  0.1560
  675MOL0     C93019   8.184   5.088   5.376  0.1672 -0.4491 -0.2815
  675MOL0     O93020   8.105   5.070   5.489 -0.3204  0.0980  0.2266
  675MOL0     C93021   7.995   5.165   5.503  0.1621 -0.3019 -0.0493
  675MOL0     C93022   7.907   5.139   5.627  0.2783  0.3662  0.6122
  675MOL0     C93023   7.817   5.013   5.588 -0.0688 -0.0635  0.7747
  675MOL0     C93024   7.774   4.947   5.714 -0.0758  0.0842  0.0858
  675MOL0     C93025   7.684   4.826   5.697  0.6558  1.0983  0.6323
  675MOL0     C93026   7.760   4.698   5.654 -0.0190  1.3626 -0.0184
  675MOL0     C93027   7.670   4.569   5.668  0.5246 -0.6581  0.0463
  675MOL0     C93028   7.627   4.520   5.798 -1.4286  0.0136 -0.0347
  675MOL0     N93029   7.551   4.394   5.793 -0.1266 -0.8221  0.1831
  675MOL0     C93030   7.417   4.404   5.786  1.0120 -0.6079 -0.8426
  675MOL0     C93031   7.374   4.280   5.785  0.4684  1.4387 -0.0270
  675MOL0     C93032   7.231   4.239   5.793  0.5501 -0.7069 -0.3070
  675MOL0     C93033   7.182   4.244   5.938  0.2230 -0.1352  0.0632
  675MOL0     C93034   7.023   4.234   5.933  0.5284 -0.3229  0.0598
  675MOL0     C93035   6.955   4.193   6.063  0.0167  0.5077 -0.0676
  675MOL0     O93036   7.023   4.085   6.114  0.5124  0.0012 -0.1432
  675MOL0     C93037   6.970   4.036   6.234 -0.6092  0.0032 -0.6774
  675MOL0     C93038   6.992   3.898   6.261  0.3114  0.0466  0.2165
  675MOL0     C93039   6.932   3.842   6.382  0.1019  0.0962 -1.2637
  675MOL0     C93040   6.924   3.696   6.403  0.4977  1.2150 -0.3167
  675MOL0     C93041   6.880   3.926   6.480 -0.1897 -0.1669 -0.8739
  675MOL0     C93042   6.826   3.879   6.615 -0.1361  0.3046 -0.4471
  675MOL0     O93043   6.738   3.967   6.671 -0.6213 -1.1374  0.1612
  675MOL0     C93044   6.692   3.961   6.800  0.4715 -0.0536  0.1912
  675MOL0     C93045   6.645   4.088   6.850 -0.5499  0.7336  0.2579
  675MOL0     C93046   6.598   4.089   6.986  0.1651  0.4157  0.5013
  675MOL0     C93047   6.601   3.969   7.066  0.5243  0.2477 -0.9173
  675MOL0     O93048   6.543   3.946   7.193  0.5374 -0.3381  0.3118
  675MOL0     C93049   6.470   4.055   7.247 -0.2260  0.4859  0.2463
  675MOL0     C93050   6.569   4.153   7.322  0.3815 -0.1566 -0.2824
  675MOL0     C93051   6.639   4.094   7.440 -0.4807 -0.5775 -0.0734
  675MOL0     C93052   6.752   4.175   7.490  0.1638  0.4453  0.8448
  675MOL0     C93053   6.818   4.116   7.616 -0.7289 -0.5073  0.0879
  675MOL0     C93054   6.734   4.152   7.737  0.6368  0.0673 -0.2638
  675MOL0     C93055   6.783   4.051   7.842  1.3495 -0.8444 -0.4003
  675MOL0     C93056   6.740   3.907   7.809  0.0055 -0.1561  0.3040
  675MOL0    Cl93057   6.572   3.871   7.832  0.2159  0.2183 -0.1556
  675MOL0     C93058   6.638   3.843   7.008 -0.4117 -0.5521  0.2378
  675MOL0     C93059   6.674   3.844   6.870 -0.3288  0.3266 -0.4635
  675MOL0     O93060   6.885   3.787   6.674 -0.7423 -0.3744  0.0772
  675MOL0     C93061   6.877   4.064   6.460  0.6643 -0.7713 -0.3515
  675MOL0     C93062   6.921   4.117   6.344 -0.3113  1.1349 -0.4497
  675MOL0     N93063   7.476   4.193   5.757  0.0895 -1.0089 -1.1075
  675MOL0     N93064   7.582   4.272   5.752  0.5620 -1.2565 -0.1437
  675MOL0     C93065   8.268   5.200   5.355  0.3768 -0.3584  0.0637
  675MOL0     C93066   8.367   5.199   5.249  0.3464 -0.2255 -0.9339
  675MOL0     C93067   8.692   5.055   4.982  0.1805  0.7447  0.4691
  675MOL0     C93068   8.820   5.097   5.014  0.8984 -0.2241 -0.4405
  675MOL0     C93069   8.909   5.133   4.922 -0.2195  0.0323 -0.1213
  675MOL0     C93070   8.884   5.128   4.782  0.2422  0.2834 -0.5599
  675MOL0     O93071   8.974   5.165   4.685  0.5449 -0.0147 -0.9850
  675MOL0     C93072   9.094   5.237   4.707 -0.5971  0.3405  0.0066
  675MOL0     C93073   9.115   5.346   4.602 -0.5149  0.0530  0.4230
  675MOL0     C93074   9.007   5.459   4.591 -0.0135 -0.8371 -0.0824
  675MOL0     C93075   9.059   5.582   4.506 -1.2967 -0.0439 -0.0527
  675MOL0     C93076   9.175   5.641   4.570  0.1028  0.0077 -0.8647
  675MOL0     C93077   9.276   5.695   4.627 -0.6634  0.4306  0.2794
  675MOL0     C93078   8.764   5.063   4.749  1.1919 -0.5601  0.1167
  675MOL0     C93079   8.663   5.031   4.847 -0.9666  0.4420  0.4569
  675MOL0     C93080   8.537   4.969   4.790 -0.3338  0.0751  0.6009
  675MOL0     H93081   8.320   4.903   5.120  2.0255  0.0953  0.7423
  675MOL0     H93082   8.134   4.890   5.312 -5.0624  2.5000 -1.7195
  675MOL0     H93083   7.936   5.143   5.413 -2.8530  0.3027  1.6334
  675MOL0     H93084   8.018   5.272   5.508 -3.7607  0.6620  1.2883
  675MOL0     H93085   7.979   5.139   5.710  1.7150  2.5176 -0.5494
  675MOL0     H93086   7.842   5.224   5.650 -0.0679  0.2581  0.0376
  675MOL0     H93087   7.728   5.048   5.535  1.3726  2.8245  0.0689
  675MOL0     H93088   7.875   4.948   5.521  0.7072  0.8699  0.5059
  675MOL0     H93089   7.862   4.916   5.770  0.9377  0.2758 -1.3637
  675MOL0     H93090   7.718   5.016   5.777  1.6794 -0.2686  2.1110
  675MOL0     H93091   7.608   4.855   5.624  0.8861 -0.9022 -0.4709
  675MOL0     H93092   7.643   4.798   5.794  0.1703  1.3942  0.5145
  675MOL0     H93093   7.784   4.707   5.547 -0.5573 -4.8486 -1.0336
  675MOL0     H93094   7.852   4.683   5.710 -1.5983 -1.6032  2.0256
  675MOL0     H93095   7.727   4.490   5.619 -0.2226 -1.3042  0.2031
  675MOL0     H93096   7.574   4.589   5.619 -0.6513  0.1732  2.5087
  675MOL0     H93097   7.717   4.502   5.858 -1.0356 -0.1939 -0.6837
  675MOL0     H93098   7.570   4.592   5.857  0.7094  0.1729  2.0063
  675MOL0     H93099   7.352   4.488   5.802 -1.6385 -2.5576 -0.7475
  675MOL0     H93100   7.212   4.136   5.762 -4.3309 -0.6067  1.6258
  675MOL0     H93101   7.175   4.311   5.733 -1.0417 -0.5480  1.3040
  675MOL0     H93102   7.218   4.163   6.002 -2.8709 -2.3843 -0.7874
  675MOL0     H93103   7.204   4.337   5.991  0.2155 -0.7949  1.2621
  675MOL0     H93104   6.967   4.323   5.903  0.3897 -1.0953 -2.1682
  675MOL0     H93105   6.996   4.161   5.856  0.2131 -0.5308  0.3666
  675MOL0     H93106   6.954   4.283   6.125  0.3656  1.0805 -0.8715
  675MOL0     H93107   6.852   4.159   6.047  0.4340 -0.7751 -0.1377
  675MOL0     H93108   7.050   3.832   6.197  1.6988  0.3706  1.0954
  675MOL0     H93109   6.984   3.659   6.487 -1.6249  1.6885  1.5224
  675MOL0     H93110   6.950   3.644   6.310 -0.2954 -0.6816  0.4656
  675MOL0     H93111   6.821   3.669   6.429  1.1422 -0.1049  1.0173
  675MOL0     H93112   6.647   4.179   6.791 -0.9850  0.5936  0.0281
  675MOL0     H93113   6.568   4.181   7.034 -2.3120 -0.2309  0.3101
  675MOL0     H93114   6.415   4.119   7.177  1.0356  0.1985 -1.0625
  675MOL0     H93115   6.388   4.018   7.309  0.8104 -0.8327  0.8709
  675MOL0     H93116   6.640   4.190   7.247  0.8872 -0.0229  0.2578
  675MOL0     H93117   6.512   4.238   7.361  1.5150  0.0451  1.0126
  675MOL0     H93118   6.682   3.996   7.417 -1.1689 -0.8077 -0.4139
  675MOL0     H93119   6.577   4.073   7.528  2.7609 -1.4798  2.1727
  675MOL0     H93120   6.710   4.276   7.502 -2.2843 -0.3058 -0.4903
  675MOL0     H93121   6.826   4.170   7.409 -0.7582 -2.3419  0.0565
  675MOL0     H93122   6.827   4.009   7.594 -3.3912 -1.3781  2.5247
  675MOL0     H93123   6.918   4.161   7.628 -0.4037 -1.4565  1.1519
  675MOL0     H93124   6.625   4.144   7.729  0.0354  2.7349  3.0603
  675MOL0     H93125   6.772   4.254   7.749  2.5132 -0.4200 -1.6250
  675MOL0     H93126   6.756   4.080   7.943  2.6564  2.0295 -0.7913
  675MOL0     H93127   6.892   4.047   7.839  1.3130 -1.9492 -0.9380
  675MOL0     H93128   6.799   3.853   7.884  4.4182 -1.0314 -3.3183
  675MOL0     H93129   6.773   3.872   7.710 -1.4544  0.3072 -0.3756
  675MOL0     H93130   6.623   3.751   7.064 -0.2119  0.1437  1.4975
  675MOL0     H93131   6.688   3.745   6.830 -2.0937  0.5889 -1.8494
  675MOL0     H93132   6.842   4.147   6.520 -2.5054 -0.0641 -2.8701
  675MOL0     H93133   6.894   4.217   6.311 -0.4138  0.4906 -2.4756
  675MOL0     H93134   8.264   5.286   5.422  3.0747  0.5918 -0.8901
  675MOL0     H93135   8.433   5.285   5.243  2.6239 -1.6041  1.8150
  675MOL0     H93136   8.840   5.102   5.120  1.3055  2.2949 -0.5840
  675MOL0     H93137   8.999   5.166   4.974 -2.2766  0.2709  3.6532
  675MOL0     H93138   9.085   5.287   4.804 -1.7205  2.2410 -1.0036
  675MOL0     H93139   9.171   5.160   4.713 -1.2680 -0.4275 -0.9304
  675MOL0     H93140   9.125   5.307   4.501 -0.8288 -0.0704  0.4406
  675MOL0     H93141   9.214   5.387   4.625  0.1943  0.0887 -2.3700
  675MOL0     H93142   8.916   5.423   4.541  1.2277  0.6227 -3.6976
  675MOL0     H93143   8.985   5.492   4.693  4.0034  2.8846 -0.1688
  675MOL0     H93144   8.983   5.661   4.498 -0.0797  1.0215 -1.8283
  675MOL0     H93145   9.072   5.559   4.400 -0.6961 -1.8606  0.3905
  675MOL0     H93146   9.368   5.733   4.667 -1.7434  1.7612  1.6345
  675MOL0     H93147   8.741   5.058   4.643 -1.2753  4.5162  0.1084
  675MOL0     H93148   8.462   5.044   4.763  0.0624  0.8000  1.4538
  675MOL0     H93149   8.566   4.921   4.696 -1.5868  1.7468 -0.7159
  675MOL0     H93150   8.488   4.898   4.857 -0.2370  1.4348  2.1751
  676MOL0     O93151   9.888   5.669  11.150 -0.4749  0.5893 -0.4418
  676MOL0     C93152   9.836   5.743  11.229  0.4291 -0.5066  1.1246
  676MOL0     O93153   9.866   5.870  11.243  0.3170 -0.2063 -0.0280
  676MOL0     C93154   9.990   5.912  11.211  0.1634  0.5112  0.7636
  676MOL0     C93155  10.115   5.843  11.237 -0.0917  0.0300  0.0738
  676MOL0     C93156  10.243   5.902  11.197  0.2981  0.7024 -0.1551
  676MOL0     C93157  10.251   6.038  11.149 -0.6091 -0.4936  0.0446
  676MOL0     O93158  10.367   6.094  11.100 -0.1820  0.4835 -0.4103
  676MOL0     C93159  10.486   6.067  11.169  0.5341  0.9830 -0.0416
  676MOL0     C93160  10.588   6.187  11.151 -0.3115 -0.6258  0.2916
  676MOL0     C93161  10.640   6.223  11.006  0.5624  0.3738 -0.7836
  676MOL0     C93162  10.750   6.324  11.008  0.3267 -0.1802  0.3558
  676MOL0     C93163  10.821   6.336  10.873  0.0799  0.6677 -0.2125
  676MOL0     C93164  10.750   6.410  10.755  0.5169 -1.0567  0.3174
  676MOL0     C93165  10.702   6.554  10.795 -0.3219  0.8199 -0.2057
  676MOL0     C93166  10.634   6.621  10.677  0.4115 -0.4659  0.3898
  676MOL0     N93167  10.585   6.755  10.726  0.1958 -0.1396 -0.1450
  676MOL0     C93168  10.482   6.776  10.823  0.4221  0.6776 -0.2003
  676MOL0     C93169  10.456   6.910  10.814 -0.3217  0.0026 -0.8421
  676MOL0     C93170  10.354   6.996  10.891 -0.1164  0.9152 -0.2789
  676MOL0     C93171  10.434   7.072  10.990 -0.3379 -0.3289  0.3286
  676MOL0     C93172  10.346   7.183  11.056 -0.3238  0.0410 -0.1941
  676MOL0     C93173  10.234   7.120  11.143  0.3943  0.3533 -0.1168
  676MOL0     O93174  10.296   7.059  11.246 -0.0287  0.0224 -0.5567
  676MOL0     C93175  10.229   7.007  11.357  0.5088  0.1458  0.2647
  676MOL0     C93176  10.296   6.994  11.476  0.3281  0.7684 -0.0227
  676MOL0     C93177  10.245   6.926  11.589  0.1194  0.2183 -0.0756
  676MOL0     C93178  10.349   6.888  11.698 -0.1227 -0.4394  0.2192
  676MOL0     C93179  10.111   6.891  11.583 -0.4264 -0.3939  0.2589
  676MOL0     C93180  10.044   6.828  11.703 -0.0890  0.2731  0.0493
  676MOL0     O93181   9.910   6.786  11.686  0.5008 -0.2696  0.7424
  676MOL0     C93182   9.842   6.768  11.799  0.0055 -0.1226  0.2362
  676MOL0     C93183   9.757   6.860  11.847  0.1835  0.0892  0.6722
  676MOL0     C93184   9.690   6.843  11.969 -0.4026  1.1900  0.5478
  676MOL0     C93185   9.732   6.730  12.049  0.6591  0.2213  0.1133
  676MOL0     O93186   9.681   6.724  12.177  1.2063  0.3632  0.8142
  676MOL0     C93187   9.770   6.728  12.279  0.5572  0.0033  0.5796
  676MOL0     C93188   9.705   6.775  12.410 -0.0708 -0.8709  0.1763
  676MOL0     C93189   9.665   6.918  12.394 -0.3781  1.0997 -0.2024
  676MOL0     C93190   9.617   6.972  12.535 -0.0728 -0.2258 -0.3509
  676MOL0     C93191   9.605   7.124  12.530 -0.5014  0.2324 -0.0891
  676MOL0     C93192   9.582   7.191  12.662 -0.3692  0.0378 -0.3645
  676MOL0     C93193   9.542   7.334  12.655 -0.2425  0.2744  0.4472
  676MOL0     C93194   9.448   7.369  12.761  0.2813  0.1669  0.1162
  676MOL0    Cl93195   9.401   7.533  12.730  0.1407 -0.1556  0.0569
  676MOL0     C93196   9.823   6.636  11.994  0.1459  0.4247 -0.4165
  676MOL0     C93197   9.859   6.650  11.863 -1.1145 -0.4229  0.8037
  676MOL0     O93198  10.101   6.813  11.804 -0.0918  0.2764 -0.4970
  676MOL0     C93199  10.032   6.915  11.467  0.6042 -0.7359 -0.8903
  676MOL0     C93200  10.091   6.984  11.358 -0.3691  1.2258  0.5202
  676MOL0     N93201  10.542   6.970  10.721 -0.8912  0.1492  0.2536
  676MOL0     N93202  10.621   6.879  10.677  0.4444  0.5504 -0.4527
  676MOL0     C93203  10.132   6.107  11.125  0.6221 -0.1162  0.0133
  676MOL0     C93204  10.006   6.046  11.159 -0.2358  0.9789  0.0404
  676MOL0     C93205   9.709   5.698  11.295 -0.1117  0.5855  0.0269
  676MOL0     C93206   9.641   5.586  11.240  0.0148  0.0423 -0.3543
  676MOL0     C93207   9.529   5.534  11.294  0.2553  0.5738 -0.6116
  676MOL0     C93208   9.468   5.592  11.417 -0.3458 -0.5547 -0.7597
  676MOL0     O93209   9.362   5.565  11.486  0.3955 -0.6360  0.4152
  676MOL0     C93210   9.281   5.461  11.430  0.1562 -0.1667  0.6046
  676MOL0     C93211   9.158   5.446  11.520 -0.5828 -0.0813 -0.2815
  676MOL0     C93212   9.058   5.558  11.498  0.0718 -0.5471  0.3918
  676MOL0     C93213   8.934   5.539  11.595 -0.3072 -0.1014  1.1893
  676MOL0     C93214   8.842   5.655  11.591 -0.0187  0.4742  0.8505
  676MOL0     C93215   8.766   5.752  11.590  0.3707  0.0358 -0.8522
  676MOL0     C93216   9.538   5.700  11.467  0.6552  0.1404 -0.0737
  676MOL0     C93217   9.660   5.754  11.416  0.0635 -0.1461  0.2038
  676MOL0     C93218   9.716   5.875  11.480  0.2813  0.7204 -0.9391
  676MOL0     H93219  10.116   5.744  11.283  0.9427 -1.1970 -2.4337
  676MOL0     H93220  10.328   5.837  11.214 -0.0410 -0.4027 -2.3634
  676MOL0     H93221  10.518   5.978  11.115 -1.7491 -0.6233  1.0845
  676MOL0     H93222  10.462   6.037  11.272 -0.1324 -1.6569 -0.9037
  676MOL0     H93223  10.531   6.275  11.184  2.3829  1.0844  0.6859
  676MOL0     H93224  10.672   6.177  11.220  0.4835 -0.4779 -0.6333
  676MOL0     H93225  10.679   6.129  10.965 -0.3021 -0.4324  0.1867
  676MOL0     H93226  10.563   6.255  10.935  2.0587 -1.7679 -3.5870
  676MOL0     H93227  10.711   6.420  11.043 -0.5819 -0.4224  0.0206
  676MOL0     H93228  10.823   6.289  11.082 -0.1754 -0.8647  0.5371
  676MOL0     H93229  10.858   6.241  10.833 -0.6246  0.1846  0.2638
  676MOL0     H93230  10.911   6.393  10.895  1.4919 -1.6394  0.3607
  676MOL0     H93231  10.827   6.421  10.678 -0.4114  0.8888 -0.3787
  676MOL0     H93232  10.671   6.349  10.711 -0.7689  3.2239 -4.1658
  676MOL0     H93233  10.784   6.623  10.816 -2.3260  2.2994  3.7905
  676MOL0     H93234  10.643   6.548  10.887  2.2449 -1.3345  1.4383
  676MOL0     H93235  10.703   6.629  10.592  2.5584 -1.1718  1.9720
  676MOL0     H93236  10.542   6.571  10.645 -0.7936  0.6803  1.8875
  676MOL0     H93237  10.431   6.692  10.869 -0.3216  1.0490 -0.3460
  676MOL0     H93238  10.282   6.932  10.943  1.6975 -1.1589 -0.1656
  676MOL0     H93239  10.292   7.058  10.826 -2.6963 -1.6350 -0.4601
  676MOL0     H93240  10.483   7.009  11.065 -0.7798 -1.9317 -0.6832
  676MOL0     H93241  10.512   7.129  10.938 -0.9547 -0.5601 -0.8889
  676MOL0     H93242  10.410   7.238  11.126 -0.6252 -0.4121  0.4482
  676MOL0     H93243  10.305   7.246  10.977 -1.7553 -3.3201 -2.3482
  676MOL0     H93244  10.163   7.194  11.183 -0.0838 -0.7797  1.1945
  676MOL0     H93245  10.170   7.057  11.081 -0.4663  2.2112 -1.2128
  676MOL0     H93246  10.403   7.015  11.471  0.6485 -0.0656  2.2277
  676MOL0     H93247  10.452   6.919  11.682 -0.4291  0.4747 -0.0133
  676MOL0     H93248  10.345   6.779  11.712  0.9672 -0.4029  0.8995
  676MOL0     H93249  10.326   6.942  11.790  0.6218 -0.3522  0.3571
  676MOL0     H93250   9.734   6.944  11.783 -2.6854  2.8031  4.7647
  676MOL0     H93251   9.611   6.914  11.993 -1.1353  0.9953 -1.1194
  676MOL0     H93252   9.807   6.628  12.304 -2.2802 -1.5644 -0.9639
  676MOL0     H93253   9.855   6.796  12.267 -1.4317  2.9764  2.0251
  676MOL0     H93254   9.619   6.716  12.443 -1.3782  0.5986 -0.5346
  676MOL0     H93255   9.780   6.761  12.489 -0.3448  0.8625  0.7832
  676MOL0     H93256   9.579   6.930  12.328  1.0753  1.7842 -2.0637
  676MOL0     H93257   9.750   6.979  12.363 -1.2082  2.7155  0.5897
  676MOL0     H93258   9.688   6.953  12.617 -1.0199  4.2062  1.7643
  676MOL0     H93259   9.523   6.931  12.573 -1.5337  3.9668  1.0741
  676MOL0     H93260   9.698   7.165  12.491 -0.6624  1.7008  0.9905
  676MOL0     H93261   9.533   7.154  12.454  1.5931 -2.1110 -3.2414
  676MOL0     H93262   9.669   7.183  12.728 -0.2432  2.1620 -0.2072
  676MOL0     H93263   9.492   7.140  12.699 -2.6814  1.0785 -4.0480
  676MOL0     H93264   9.488   7.343  12.560  0.0068 -0.5923  0.2170
  676MOL0     H93265   9.634   7.393  12.657  0.1454 -0.3541  0.9733
  676MOL0     H93266   9.495   7.351  12.858 -1.7399 -1.9769  0.7947
  676MOL0     H93267   9.361   7.303  12.765 -0.0382  0.3942 -1.8861
  676MOL0     H93268   9.872   6.554  12.045  1.0000 -0.2586 -2.2236
  676MOL0     H93269   9.931   6.580  11.821 -0.6597 -0.2915  1.3541
  676MOL0     H93270   9.925   6.896  11.460  0.4040  0.1963 -0.4936
  676MOL0     H93271  10.034   7.008  11.269  1.0114  4.8347  0.4447
  676MOL0     H93272  10.130   6.211  11.092  0.5117 -0.1455 -0.0754
  676MOL0     H93273   9.913   6.099  11.141  1.3957  3.1932 -2.7164
  676MOL0     H93274   9.683   5.539  11.153 -1.0828 -1.5228 -0.0858
  676MOL0     H93275   9.501   5.436  11.258  1.6136  0.2955 -0.9721
  676MOL0     H93276   9.252   5.481  11.326  1.3547 -1.8994 -0.1215
  676MOL0     H93277   9.331   5.364  11.425  0.8028  0.0854  1.8506
  676MOL0     H93278   9.187   5.463  11.624 -1.8022  3.6533 -0.4155
  676MOL0     H93279   9.111   5.350  11.496 -1.6453  0.1722  0.6888
  676MOL0     H93280   9.094   5.657  11.528 -1.4044 -0.2716  1.3315
  676MOL0     H93281   9.021   5.562  11.395 -2.7306  0.3745  1.3338
  676MOL0     H93282   8.975   5.534  11.696  0.8653 -0.1050  0.7266
  676MOL0     H93283   8.864   5.457  11.573 -2.4831  2.0290 -0.3289
  676MOL0     H93284   8.703   5.838  11.598  1.6111  0.7919  1.9305
  676MOL0     H93285   9.501   5.747  11.557  1.4248  0.8806 -0.1403
  676MOL0     H93286   9.664   5.908  11.570  3.1011  0.9453  0.7291
  676MOL0     H93287   9.818   5.854  11.513 -1.2734 -0.0511  4.5298
  676MOL0     H93288   9.713   5.969  11.425 -2.5106  2.2547  1.5431
  677MOL0     O93289  10.484   4.275   0.725 -0.1707  0.8086 -0.1764
  677MOL0     C93290  10.578   4.222   0.784  1.2053 -0.4263  0.7150
  677MOL0     O93291  10.694   4.287   0.821 -0.0841 -0.3551  0.0075
  677MOL0     C93292  10.700   4.425   0.813 -0.3020  0.6375  0.1121
  677MOL0     C93293  10.825   4.481   0.783  0.1533  0.3354 -0.4239
  677MOL0     C93294  10.842   4.612   0.775 -1.2081 -0.9333 -0.4264
  677MOL0     C93295  10.736   4.692   0.796  0.6732  0.7862 -0.1561
  677MOL0     O93296  10.774   4.823   0.784 -0.5529  0.1819 -0.2226
  677MOL0     C93297  10.672   4.922   0.807 -0.0008 -0.8497 -0.5326
  677MOL0     C93298  10.731   5.062   0.854 -0.4373 -0.3580  0.0207
  677MOL0     C93299  10.814   5.134   0.744 -0.0465 -0.6163  0.9741
  677MOL0     C93300  10.875   5.270   0.791  0.0793 -0.1020  0.5368
  677MOL0     C93301  10.981   5.317   0.694  0.1281  1.2709  0.6547
  677MOL0     C93302  11.113   5.249   0.713  0.3672 -0.1954 -0.1839
  677MOL0     C93303  11.226   5.316   0.630 -0.1966 -0.3020  0.7497
  677MOL0     C93304  11.362   5.245   0.667 -0.1069  0.4371  0.0162
  677MOL0     N93305  11.464   5.316   0.597  0.4927  0.0750 -0.1054
  677MOL0     C93306  11.467   5.312   0.460 -1.1369 -0.9184  0.2065
  677MOL0     C93307  11.587   5.378   0.434 -0.3733 -0.4140  0.6472
  677MOL0     C93308  11.649   5.405   0.293 -0.1365  0.1967 -0.9657
  677MOL0     C93309  11.787   5.467   0.299  0.3515  0.3468  0.0969
  677MOL0     C93310  11.840   5.495   0.157  0.2691 -0.3563  0.1523
  677MOL0     C93311  11.954   5.592   0.163  0.3326  0.1432  0.2718
  677MOL0     O93312  12.068   5.545   0.241 -0.5776  0.5005 -0.7336
  677MOL0     C93313  12.178   5.624   0.262  0.3488 -0.4132 -0.3050
  677MOL0     C93314  12.281   5.548   0.320 -0.5530 -0.5010 -0.4131
  677MOL0     C93315  12.397   5.617   0.387 -0.8958  0.0329  0.5942
  677MOL0     C93316  12.498   5.528   0.463  0.1153  0.4660 -0.0775
  677MOL0     C93317  12.407   5.756   0.360  0.4677 -0.6950 -0.4469
  677MOL0     C93318  12.522   5.829   0.396  0.0276 -0.4348  0.5716
  677MOL0     O93319  12.502   5.960   0.425  0.5799  0.5215  0.1785
  677MOL0     C93320  12.612   6.032   0.454  0.9252  0.2486 -1.1265
  677MOL0     C93321  12.661   6.137   0.372 -0.2660  0.1545 -0.1111
  677MOL0     C93322  12.776   6.202   0.425 -0.7138 -0.2651  0.7241
  677MOL0     C93323  12.835   6.174   0.545 -0.4530  0.2275  0.5397
  677MOL0     O93324  12.943   6.242   0.588  0.3459 -0.0640 -0.6358
  677MOL0     C93325  13.049   6.155   0.629  0.7568 -0.1822  0.7606
  677MOL0     C93326  13.164   6.230   0.679  0.4841  0.4039 -0.3984
  677MOL0     C93327  13.296   6.150   0.705  0.9845 -0.5461  0.3754
  677MOL0     C93328  13.414   6.242   0.708 -0.3072  0.0288 -0.1122
  677MOL0     C93329  13.540   6.201   0.796  0.1081  0.0076 -0.5130
  677MOL0     C93330  13.641   6.315   0.799  0.5450 -1.0948 -0.5608
  677MOL0     C93331  13.766   6.283   0.874 -0.3791  0.3988 -0.1321
  677MOL0     C93332  13.864   6.211   0.790  0.0954 -0.0404  0.4274
  677MOL0    Cl93333  14.032   6.262   0.852 -0.0129 -0.1022  0.5513
  677MOL0     C93334  12.777   6.083   0.626  0.3046  0.8313 -0.5025
  677MOL0     C93335  12.667   6.007   0.578 -0.5530  0.4474 -0.2582
  677MOL0     O93336  12.630   5.778   0.396  0.5446 -0.2883 -0.6235
  677MOL0     C93337  12.301   5.820   0.287  0.0627 -0.1995 -0.2387
  677MOL0     C93338  12.187   5.759   0.244  0.4776  0.4457 -0.0127
  677MOL0     N93339  11.652   5.417   0.555  0.3088 -0.0200 -0.2317
  677MOL0     N93340  11.577   5.372   0.647  0.2438  0.0270 -0.5753
  677MOL0     C93341  10.603   4.644   0.816 -0.6945 -0.1155  0.5855
  677MOL0     C93342  10.586   4.511   0.828 -1.1256  0.9987 -0.0682
  677MOL0     C93343  10.554   4.076   0.812 -0.2064  0.3372 -0.1058
  677MOL0     C93344  10.589   4.027   0.940  0.2006  0.0249  1.0356
  677MOL0     C93345  10.555   3.898   0.977  0.4581  0.0166  0.0219
  677MOL0     C93346  10.498   3.803   0.883 -0.6750 -0.5284 -0.2006
  677MOL0     O93347  10.447   3.683   0.921 -0.3838 -0.2379 -0.0739
  677MOL0     C93348  10.442   3.651   1.062 -0.5066  1.1842  0.5947
  677MOL0     C93349  10.362   3.532   1.088 -0.5109  0.8418 -0.5738
  677MOL0     C93350  10.208   3.551   1.059 -0.4382 -0.5810  1.0962
  677MOL0     C93351  10.111   3.465   1.138 -0.8015  0.4318  0.5017
  677MOL0     C93352   9.979   3.519   1.162 -0.4427 -0.5383  0.1551
  677MOL0     C93353   9.872   3.555   1.192  0.4961 -0.0288 -0.7847
  677MOL0     C93354  10.480   3.851   0.750 -0.1631  0.0383  0.4079
  677MOL0     C93355  10.512   3.985   0.713 -0.1408  0.0103  0.3292
  677MOL0     C93356  10.497   4.026   0.568  0.1180 -0.4104 -0.2799
  677MOL0     H93357  10.906   4.410   0.768  3.0341  2.6591  2.5848
  677MOL0     H93358  10.939   4.639   0.735 -1.6069 -2.4319 -2.5660
  677MOL0     H93359  10.604   4.883   0.883  0.7853 -2.1851 -0.4903
  677MOL0     H93360  10.607   4.935   0.720 -1.8884 -0.1450  0.9006
  677MOL0     H93361  10.652   5.133   0.877  0.5730  0.9649 -0.4951
  677MOL0     H93362  10.793   5.051   0.944 -0.2018 -3.0080 -0.3632
  677MOL0     H93363  10.890   5.059   0.722  0.5243  0.2938 -0.2619
  677MOL0     H93364  10.749   5.158   0.659  1.3791  0.2711  0.1005
  677MOL0     H93365  10.802   5.351   0.796  1.1012  0.8240  1.0239
  677MOL0     H93366  10.910   5.262   0.895  1.4744 -1.1108  0.0278
  677MOL0     H93367  10.996   5.424   0.712 -0.7932  1.5812 -0.3432
  677MOL0     H93368  10.937   5.307   0.594 -0.4356 -1.5430  1.1060
  677MOL0     H93369  11.142   5.250   0.819 -1.0749  1.0850  0.2430
  677MOL0     H93370  11.107   5.145   0.681  1.0484 -0.9812  2.0740
  677MOL0     H93371  11.240   5.423   0.647  1.4956 -0.5099  0.7996
  677MOL0     H93372  11.195   5.299   0.526 -2.2683  0.5064  1.1850
  677MOL0     H93373  11.386   5.246   0.774  0.5056 -0.3937 -0.1061
  677MOL0     H93374  11.374   5.141   0.637  0.9503 -0.8466  4.1594
  677MOL0     H93375  11.407   5.261   0.385  1.3536 -0.8878 -1.9676
  677MOL0     H93376  11.584   5.471   0.235 -1.7082 -0.7993 -0.4037
  677MOL0     H93377  11.667   5.313   0.237 -0.0031 -0.7421  0.5562
  677MOL0     H93378  11.782   5.562   0.351 -1.5741  3.2426 -4.7079
  677MOL0     H93379  11.849   5.401   0.361 -3.8033 -1.2297  3.0275
  677MOL0     H93380  11.875   5.404   0.107 -1.8278 -0.3364 -1.4646
  677MOL0     H93381  11.763   5.540   0.095 -0.2497 -1.5175 -0.0623
  677MOL0     H93382  11.985   5.622   0.062  1.9441 -1.6047  0.1888
  677MOL0     H93383  11.900   5.674   0.211 -1.9389 -1.4991  0.6259
  677MOL0     H93384  12.264   5.442   0.336 -2.3911  0.1421  2.8656
  677MOL0     H93385  12.597   5.528   0.418 -0.6016  0.1020 -1.7113
  677MOL0     H93386  12.461   5.425   0.459  1.3692  0.0143 -0.5705
  677MOL0     H93387  12.497   5.550   0.570  4.0606 -2.4982  0.7890
  677MOL0     H93388  12.622   6.165   0.275  0.6750  0.5683 -0.3810
  677MOL0     H93389  12.827   6.268   0.356  1.2466  0.1565  2.4934
  677MOL0     H93390  13.018   6.078   0.700  0.5405 -0.6576  0.1582
  677MOL0     H93391  13.078   6.097   0.541 -2.0219 -1.2170  0.4233
  677MOL0     H93392  13.188   6.314   0.613  1.1697  1.1098  0.7191
  677MOL0     H93393  13.139   6.281   0.773  1.3215 -1.6696  1.0048
  677MOL0     H93394  13.303   6.069   0.632  3.5084  1.2116 -1.4936
  677MOL0     H93395  13.289   6.112   0.807 -1.8621 -2.9519 -0.5812
  677MOL0     H93396  13.379   6.339   0.743  0.7734  0.3518  0.1081
  677MOL0     H93397  13.456   6.248   0.607  1.0839  0.3075  0.4539
  677MOL0     H93398  13.510   6.169   0.896 -3.3658  1.4139 -0.9629
  677MOL0     H93399  13.582   6.112   0.748 -1.0780 -0.7654 -0.1492
  677MOL0     H93400  13.589   6.403   0.839 -1.1359 -1.1748 -2.4344
  677MOL0     H93401  13.662   6.349   0.697 -0.2413 -0.1619 -0.4203
  677MOL0     H93402  13.755   6.226   0.967 -1.3992  1.3030  0.3251
  677MOL0     H93403  13.806   6.380   0.904  0.5967  0.0451 -0.2558
  677MOL0     H93404  13.844   6.233   0.685 -1.5185  0.1995  0.7616
  677MOL0     H93405  13.859   6.102   0.795  0.8539 -0.1762 -1.2059
  677MOL0     H93406  12.807   6.058   0.727 -0.3125  1.5637 -0.1248
  677MOL0     H93407  12.613   5.933   0.636 -0.5349  0.6805  0.0546
  677MOL0     H93408  12.304   5.927   0.270 -1.6923  0.0947  1.0683
  677MOL0     H93409  12.101   5.805   0.196 -0.1636 -1.1500 -0.4543
  677MOL0     H93410  10.516   4.707   0.832  0.3190  0.9556  2.1995
  677MOL0     H93411  10.491   4.477   0.866 -1.6134  0.7566 -1.4781
  677MOL0     H93412  10.615   4.094   1.022 -2.7582 -0.1957  2.2700
  677MOL0     H93413  10.574   3.855   1.075 -1.6061  2.6288  1.7039
  677MOL0     H93414  10.546   3.643   1.097 -0.2177 -1.2381 -0.5914
  677MOL0     H93415  10.387   3.731   1.113 -1.5392  0.7205  0.2190
  677MOL0     H93416  10.369   3.512   1.196 -0.7742  0.4821 -0.6231
  677MOL0     H93417  10.407   3.449   1.034  0.4677 -0.2948  1.8277
  677MOL0     H93418  10.192   3.659   1.063 -2.3521 -0.8000  0.5312
  677MOL0     H93419  10.188   3.518   0.956 -0.0163 -0.0884  0.8559
  677MOL0     H93420  10.156   3.438   1.234  1.8542  3.3283  0.2391
  677MOL0     H93421  10.086   3.376   1.080 -1.4064  2.6089 -2.8581
  677MOL0     H93422   9.773   3.588   1.212  1.1217  0.3997  2.1956
  677MOL0     H93423  10.448   3.779   0.675  0.5779  1.9986 -1.8987
  677MOL0     H93424  10.426   4.109   0.563 -0.3457 -0.4197  3.3019
  677MOL0     H93425  10.598   4.050   0.533  0.3640  0.5337  1.0116
  677MOL0     H93426  10.463   3.942   0.508  1.8855 -0.2704 -1.5646
  678MOL0     O93427   2.118   8.280   1.266  0.5605 -0.2237  0.8870
  678MOL0     C93428   2.038   8.190   1.224 -0.1740 -0.3621  0.5834
  678MOL0     O93429   1.909   8.208   1.202  0.3082  0.3942 -0.1568
  678MOL0     C93430   1.841   8.274   1.291  0.3240  0.0046  0.3797
  678MOL0     C93431   1.857   8.414   1.313  0.0384 -0.0401 -0.0132
  678MOL0     C93432   1.776   8.475   1.410  1.3209  0.1643  0.1849
  678MOL0     C93433   1.664   8.413   1.464  0.5167 -0.2062 -1.0491
  678MOL0     O93434   1.583   8.494   1.548 -0.0431 -0.7188  0.9425
  678MOL0     C93435   1.497   8.438   1.652 -0.8173 -0.6524  0.8565
  678MOL0     C93436   1.457   8.553   1.748 -1.1361  0.2203  0.7650
  678MOL0     C93437   1.388   8.502   1.878  0.0540 -0.2841  0.0667
  678MOL0     C93438   1.256   8.431   1.861 -0.0063  0.3078 -0.1465
  678MOL0     C93439   1.175   8.394   1.994 -0.3687 -0.5242  0.4005
  678MOL0     C93440   1.051   8.316   1.952 -0.5118  0.1981 -0.1265
  678MOL0     C93441   0.920   8.366   2.013  0.2765  0.6157 -0.2465
  678MOL0     C93442   0.803   8.288   1.968 -0.0628 -0.5943 -0.6651
  678MOL0     N93443   0.753   8.343   1.837 -0.4436 -0.1573  0.2227
  678MOL0     C93444   0.620   8.333   1.807 -0.2128  0.1556  0.2369
  678MOL0     C93445   0.609   8.398   1.689 -0.0721 -0.1676  0.1878
  678MOL0     C93446   0.477   8.417   1.619 -0.3915 -0.3521 -0.1130
  678MOL0     C93447   0.415   8.563   1.622  0.8112  0.1539  0.8451
  678MOL0     C93448   0.415   8.619   1.764  0.2424  0.2351  0.7075
  678MOL0     C93449   0.371   8.762   1.777  0.2018 -0.1630  0.1828
  678MOL0     O93450   0.245   8.791   1.697  0.1142  0.3385 -0.0104
  678MOL0     C93451   0.130   8.758   1.760  1.0362 -0.1784  0.6069
  678MOL0     C93452   0.009   8.780   1.689 -0.0441 -0.4088  0.8558
  678MOL0     C93453  -0.120   8.767   1.740  0.2563  0.3558 -0.0869
  678MOL0     C93454  -0.237   8.808   1.643  1.2548  0.0906 -0.0912
  678MOL0     C93455  -0.129   8.723   1.878 -0.3046 -0.3482 -0.1946
  678MOL0     C93456  -0.261   8.719   1.953 -0.0586 -0.1217  0.0640
  678MOL0     O93457  -0.261   8.668   2.086 -0.2502 -0.6572  0.2848
  678MOL0     C93458  -0.374   8.673   2.171 -0.0412 -0.6194  0.2993
  678MOL0     C93459  -0.369   8.602   2.293 -0.3014  0.3127 -0.0972
  678MOL0     C93460  -0.481   8.587   2.379  0.0043  1.2060 -0.1304
  678MOL0     C93461  -0.608   8.627   2.347 -0.6973  0.3181 -0.5953
  678MOL0     O93462  -0.712   8.605   2.435  0.2927 -0.5676  0.3741
  678MOL0     C93463  -0.822   8.530   2.386 -0.1555  0.2289 -0.0230
  678MOL0     C93464  -0.879   8.452   2.501  0.6791 -0.7570 -0.0230
  678MOL0     C93465  -0.937   8.539   2.616  0.6528  0.1957  0.1262
  678MOL0     C93466  -1.076   8.478   2.649  0.4142  0.3811  0.2591
  678MOL0     C93467  -1.060   8.338   2.722  0.2113 -0.3698 -0.1844
  678MOL0     C93468  -1.187   8.257   2.730 -0.7448 -0.1935 -0.4343
  678MOL0     C93469  -1.293   8.314   2.825  0.2541 -0.6467  0.2309
  678MOL0     C93470  -1.445   8.312   2.776 -0.4262  0.3901 -0.0371
  678MOL0    Cl93471  -1.451   8.366   2.610 -0.2625  0.0926 -0.0641
  678MOL0     C93472  -0.615   8.708   2.234  0.1652  0.2703 -0.5266
  678MOL0     C93473  -0.511   8.728   2.147  0.3432  0.2749  0.0423
  678MOL0     O93474  -0.354   8.782   1.903  0.0885  0.0440  0.0031
  678MOL0     C93475  -0.015   8.678   1.942 -0.4652  0.3559 -0.8353
  678MOL0     C93476   0.113   8.709   1.890  0.2895  0.4357  0.1160
  678MOL0     N93477   0.732   8.438   1.643  0.3243  0.1113  0.0136
  678MOL0     N93478   0.815   8.406   1.734 -0.1972  0.8636 -0.4718
  678MOL0     C93479   1.639   8.279   1.443 -0.4361 -0.5628  0.2376
  678MOL0     C93480   1.737   8.206   1.361  0.5306  0.1356  0.0255
  678MOL0     C93481   2.095   8.065   1.165 -0.8155  0.5168  0.0793
  678MOL0     C93482   2.008   7.980   1.085  0.4712  0.3313 -0.3059
  678MOL0     C93483   2.044   7.857   1.039  0.5372  0.1463 -0.9060
  678MOL0     C93484   2.181   7.817   1.052 -0.5958  1.0008  0.1249
  678MOL0     O93485   2.220   7.691   1.013  0.3135 -0.7578 -0.1350
  678MOL0     C93486   2.136   7.632   0.913  0.4338  0.2541  0.2069
  678MOL0     C93487   2.222   7.520   0.857 -0.7150 -0.4635 -0.0014
  678MOL0     C93488   2.343   7.573   0.784 -0.2075  0.3397 -0.3012
  678MOL0     C93489   2.334   7.582   0.631 -0.2760  0.1074 -0.3969
  678MOL0     C93490   2.456   7.664   0.588 -0.8267  0.3779 -0.4453
  678MOL0     C93491   2.545   7.741   0.567 -0.5942 -0.2010 -0.2767
  678MOL0     C93492   2.270   7.902   1.127  0.5044  0.5127 -0.1843
  678MOL0     C93493   2.234   8.023   1.185  0.1806  0.8846 -0.3386
  678MOL0     C93494   2.331   8.094   1.276  0.0228 -0.0537  0.7869
  678MOL0     H93495   1.923   8.481   1.259 -2.3195  2.1492 -0.3907
  678MOL0     H93496   1.788   8.582   1.420  0.5084  0.1662  1.2717
  678MOL0     H93497   1.551   8.359   1.704  1.5606  2.0308  2.7087
  678MOL0     H93498   1.413   8.380   1.611 -0.1130 -0.9101 -0.2672
  678MOL0     H93499   1.541   8.621   1.767 -1.2216  0.2590  1.0091
  678MOL0     H93500   1.383   8.613   1.695 -0.2817  1.6184  1.1051
  678MOL0     H93501   1.460   8.447   1.939 -1.4252 -0.3125  1.8635
  678MOL0     H93502   1.366   8.581   1.950 -0.6749  0.7588 -1.2589
  678MOL0     H93503   1.189   8.487   1.794  0.3627  0.2326 -0.5776
  678MOL0     H93504   1.278   8.340   1.805 -1.6881 -1.5820  2.0967
  678MOL0     H93505   1.149   8.487   2.045  0.3162  0.0504 -0.2829
  678MOL0     H93506   1.238   8.345   2.068 -0.0459 -1.7489 -0.6397
  678MOL0     H93507   1.035   8.325   1.844 -2.2411 -0.1372  0.0754
  678MOL0     H93508   1.066   8.213   1.985 -1.1623 -0.5952 -2.1943
  678MOL0     H93509   0.905   8.469   1.977  2.2839  0.2554 -2.2979
  678MOL0     H93510   0.924   8.363   2.122  2.3006 -1.9671 -0.3166
  678MOL0     H93511   0.833   8.186   1.944 -3.4900 -1.7949 -0.4312
  678MOL0     H93512   0.720   8.276   2.039  1.1435 -1.5893  0.6194
  678MOL0     H93513   0.539   8.298   1.869 -2.7155  2.1388 -1.6860
  678MOL0     H93514   0.398   8.348   1.652  0.0407 -0.3066  1.0602
  678MOL0     H93515   0.496   8.405   1.512 -1.5430  2.1214 -0.6662
  678MOL0     H93516   0.488   8.622   1.566  0.8557  0.4722  1.2359
  678MOL0     H93517   0.324   8.559   1.562  1.8093 -2.4554 -0.6630
  678MOL0     H93518   0.355   8.549   1.823 -0.2339  0.1060  0.0822
  678MOL0     H93519   0.521   8.614   1.789  0.1263 -2.1563  1.0418
  678MOL0     H93520   0.369   8.798   1.880 -2.8362 -0.1758  0.2319
  678MOL0     H93521   0.445   8.814   1.716 -0.0884 -2.1767 -2.0291
  678MOL0     H93522   0.016   8.816   1.587 -1.9362  2.0570  1.5001
  678MOL0     H93523  -0.260   8.912   1.669  1.8092 -0.1273  1.3504
  678MOL0     H93524  -0.319   8.738   1.660  1.4032  0.4767  2.5911
  678MOL0     H93525  -0.211   8.814   1.537  0.9117 -0.1589 -0.1916
  678MOL0     H93526  -0.273   8.570   2.333 -0.5908 -1.7140 -0.8921
  678MOL0     H93527  -0.453   8.538   2.471  1.4126 -2.8740 -2.4559
  678MOL0     H93528  -0.898   8.598   2.347  0.5773  0.9251 -0.2778
  678MOL0     H93529  -0.794   8.463   2.304 -2.2203  1.1758 -1.6078
  678MOL0     H93530  -0.961   8.395   2.458 -2.0575  2.5204  0.4318
  678MOL0     H93531  -0.806   8.380   2.538  1.2265  0.1560  0.7353
  678MOL0     H93532  -0.935   8.642   2.578 -0.3727 -0.6717 -2.4452
  678MOL0     H93533  -0.869   8.539   2.702 -0.2654 -1.0182  0.8822
  678MOL0     H93534  -1.130   8.467   2.555  0.8070 -1.4784  0.2322
  678MOL0     H93535  -1.142   8.543   2.707 -1.4859 -2.0475  0.9855
  678MOL0     H93536  -0.988   8.280   2.664  0.6333  0.2335 -0.2648
  678MOL0     H93537  -1.025   8.354   2.825 -0.5304 -2.1696  0.3987
  678MOL0     H93538  -1.149   8.162   2.768  3.1220  1.6110  0.6546
  678MOL0     H93539  -1.219   8.254   2.625 -0.4352  1.1990 -0.5825
  678MOL0     H93540  -1.273   8.420   2.844 -0.5007 -0.8022  2.0317
  678MOL0     H93541  -1.293   8.256   2.917 -0.4923  1.9985  2.0257
  678MOL0     H93542  -1.512   8.379   2.831 -3.3874 -2.0294 -0.3981
  678MOL0     H93543  -1.478   8.208   2.782 -1.3470  0.7129  0.8052
  678MOL0     H93544  -0.720   8.730   2.216 -0.4577 -0.2102  2.0945
  678MOL0     H93545  -0.532   8.788   2.059  2.2540 -1.0516 -1.4148
  678MOL0     H93546  -0.011   8.625   2.036  1.3099  1.1644 -0.4172
  678MOL0     H93547   0.200   8.688   1.951  0.7472 -1.3373 -1.0499
  678MOL0     H93548   1.557   8.224   1.488 -0.3285 -0.6800  0.2936
  678MOL0     H93549   1.726   8.099   1.348  3.6650 -0.3036  0.0630
  678MOL0     H93550   1.908   8.020   1.071  1.0353  1.8151 -0.2554
  678MOL0     H93551   1.969   7.805   0.980  0.1176  0.3060 -0.5219
  678MOL0     H93552   2.051   7.583   0.963  0.4804  0.2707  0.3023
  678MOL0     H93553   2.113   7.702   0.832  1.4407 -2.3066 -2.4082
  678MOL0     H93554   2.156   7.455   0.799  0.2068 -1.6941  0.2986
  678MOL0     H93555   2.251   7.458   0.942  0.6906 -0.8721 -0.7435
  678MOL0     H93556   2.369   7.676   0.810 -2.7518  1.2593 -1.0715
  678MOL0     H93557   2.425   7.509   0.819 -0.9575  0.3802  1.6622
  678MOL0     H93558   2.238   7.627   0.605 -0.9564 -1.0423  0.0468
  678MOL0     H93559   2.329   7.487   0.577 -1.2042  0.8724 -1.7031
  678MOL0     H93560   2.632   7.791   0.530  1.9413 -3.8123  0.3587
  678MOL0     H93561   2.372   7.873   1.150  0.7342  1.3716 -0.0965
  678MOL0     H93562   2.276   8.111   1.369 -2.0861 -2.3982  0.0886
  678MOL0     H93563   2.424   8.041   1.297  0.5655 -0.1315 -1.5336
  678MOL0     H93564   2.362   8.189   1.234  1.4731 -0.5218  0.7471
  679MOL0     O93565  10.537   6.347   2.076 -0.7023 -0.0022 -0.2637
  679MOL0     C93566  10.475   6.343   2.182  0.6097 -0.5194 -0.0154
  679MOL0     O93567  10.341   6.365   2.195  0.3360 -0.1132 -0.1966
  679MOL0     C93568  10.272   6.400   2.085  0.4321  0.2099  0.8104
  679MOL0     C93569  10.204   6.519   2.075 -0.9149 -0.2507 -0.3843
  679MOL0     C93570  10.113   6.548   1.969 -0.4473 -0.9739 -0.1647
  679MOL0     C93571  10.097   6.454   1.872  0.2021 -0.6901  1.1715
  679MOL0     O93572  10.023   6.479   1.757  0.2728 -0.9667  0.3195
  679MOL0     C93573   9.935   6.594   1.750 -0.1213  0.0276 -0.5768
  679MOL0     C93574   9.832   6.594   1.644  0.0836  0.5334  0.1152
  679MOL0     C93575   9.740   6.472   1.650  0.0022  0.6923  1.0599
  679MOL0     C93576   9.664   6.457   1.516  0.2599 -0.9186  0.1660
  679MOL0     C93577   9.536   6.372   1.533 -0.1403 -0.0033 -0.0399
  679MOL0     C93578   9.489   6.317   1.394  0.4599 -0.0144  0.4622
  679MOL0     C93579   9.456   6.429   1.297  0.4840 -0.2828  0.1913
  679MOL0     C93580   9.359   6.379   1.189  1.2381  0.2860  0.4370
  679MOL0     N93581   9.360   6.453   1.061 -0.4158  0.3416  0.1615
  679MOL0     C93582   9.296   6.568   1.035 -0.2441 -0.2687  0.0064
  679MOL0     C93583   9.303   6.589   0.906 -0.0053 -0.0871  0.3801
  679MOL0     C93584   9.240   6.696   0.828  0.1762 -0.4383 -0.6126
  679MOL0     C93585   9.329   6.765   0.728 -0.8398 -0.1045  0.2787
  679MOL0     C93586   9.269   6.803   0.591  1.2040 -0.3609 -0.0378
  679MOL0     C93587   9.162   6.916   0.610  0.9362 -0.7740 -0.7633
  679MOL0     O93588   9.225   7.037   0.647 -0.3384  0.0538 -0.3974
  679MOL0     C93589   9.179   7.104   0.759 -1.3731 -0.0314  0.1081
  679MOL0     C93590   9.058   7.078   0.822  0.3014  0.7693 -0.0046
  679MOL0     C93591   9.016   7.154   0.932 -0.5021  1.0197 -0.0277
  679MOL0     C93592   8.874   7.144   0.986  0.3213 -0.7559 -0.4678
  679MOL0     C93593   9.106   7.246   0.992 -0.3985 -0.7647  0.0015
  679MOL0     C93594   9.077   7.323   1.118 -0.3166  0.2082 -0.5086
  679MOL0     O93595   9.070   7.462   1.120 -0.1432 -0.3553  0.3372
  679MOL0     C93596   9.052   7.537   1.236 -0.5287  0.0011 -0.1689
  679MOL0     C93597   9.057   7.493   1.372  0.0599  0.5833 -0.5150
  679MOL0     C93598   9.030   7.582   1.478 -0.1140 -0.2795 -0.4781
  679MOL0     C93599   8.984   7.715   1.455  0.1919  0.6606  0.3751
  679MOL0     O93600   8.976   7.812   1.546  0.2374  1.0065 -0.3709
  679MOL0     C93601   8.899   7.772   1.651  0.5008  0.6171  0.3718
  679MOL0     C93602   8.992   7.761   1.777  0.1772 -0.2453  0.9201
  679MOL0     C93603   8.915   7.733   1.900  0.3823  0.3789  0.0961
  679MOL0     C93604   9.008   7.677   2.013  0.8044  0.5639  0.5069
  679MOL0     C93605   8.941   7.687   2.158 -0.5457 -0.2510 -0.3139
  679MOL0     C93606   8.799   7.631   2.150  0.1315 -0.9322 -0.3267
  679MOL0     C93607   8.729   7.663   2.287 -0.3132  0.4900 -0.3324
  679MOL0     C93608   8.743   7.541   2.374 -0.3884 -0.2660 -0.0852
  679MOL0    Cl93609   8.634   7.550   2.502 -0.1067 -0.0831  0.1638
  679MOL0     C93610   8.994   7.763   1.325  0.0487 -0.5748 -0.2708
  679MOL0     C93611   9.013   7.675   1.220  0.2279  0.2104 -0.4453
  679MOL0     O93612   9.053   7.247   1.217 -0.8299 -0.1521 -0.3001
  679MOL0     C93613   9.240   7.251   0.942  0.0427 -1.2291  0.1237
  679MOL0     C93614   9.269   7.195   0.820  0.3783 -0.1080  0.6899
  679MOL0     N93615   9.376   6.476   0.855  0.4342  0.7231 -0.4391
  679MOL0     N93616   9.412   6.396   0.946  0.0708  0.0373  0.7662
  679MOL0     C93617  10.171   6.336   1.873  0.5005  0.4149 -0.0026
  679MOL0     C93618  10.255   6.308   1.978  0.4628  0.3028  0.0994
  679MOL0     C93619  10.548   6.316   2.310 -1.3659  0.2949  0.0889
  679MOL0     C93620  10.490   6.215   2.388 -0.6773 -0.4830  0.0403
  679MOL0     C93621  10.551   6.183   2.509 -0.3810  1.0928  0.4861
  679MOL0     C93622  10.668   6.246   2.565  0.2122 -0.0991  0.1691
  679MOL0     O93623  10.721   6.205   2.684 -0.7967 -0.3210  0.4668
  679MOL0     C93624  10.835   6.277   2.731  0.0777 -0.2437 -0.2979
  679MOL0     C93625  10.852   6.242   2.880  0.0123 -0.0290  0.0434
  679MOL0     C93626  10.944   6.337   2.964 -0.2313 -0.0551  0.7038
  679MOL0     C93627  11.092   6.313   2.939  0.5717  0.4763 -0.2574
  679MOL0     C93628  11.139   6.358   2.807  0.2936 -0.7827 -0.2597
  679MOL0     C93629  11.168   6.391   2.697 -0.0270  0.0408 -0.1121
  679MOL0     C93630  10.725   6.340   2.476  0.1909  0.4809 -0.2689
  679MOL0     C93631  10.671   6.368   2.352 -0.2848  0.0028 -0.5272
  679MOL0     C93632  10.742   6.466   2.263  0.0090  0.3788  0.3102
  679MOL0     H93633  10.209   6.586   2.161 -1.9147  0.5051 -0.8859
  679MOL0     H93634  10.058   6.641   1.963 -1.2078 -1.3348  1.0332
  679MOL0     H93635   9.996   6.684   1.734  3.0693 -1.7335  0.7566
  679MOL0     H93636   9.882   6.612   1.844  1.0980 -4.8607  1.3639
  679MOL0     H93637   9.768   6.680   1.664 -0.5767 -0.0909  0.7489
  679MOL0     H93638   9.880   6.611   1.547  1.9510 -1.2393  0.6417
  679MOL0     H93639   9.803   6.383   1.664  2.6323  1.4461 -3.6811
  679MOL0     H93640   9.664   6.473   1.729 -0.5702 -3.2666  0.7479
  679MOL0     H93641   9.621   6.554   1.490 -0.1767 -0.5822  1.9968
  679MOL0     H93642   9.730   6.415   1.440  2.7489  2.4407  0.2532
  679MOL0     H93643   9.457   6.426   1.585 -0.9382  0.6666 -1.8904
  679MOL0     H93644   9.558   6.283   1.592  1.7796 -0.1000 -0.8346
  679MOL0     H93645   9.563   6.255   1.344  0.3326 -0.5542  0.9317
  679MOL0     H93646   9.399   6.257   1.411 -0.1103  1.1936  2.0786
  679MOL0     H93647   9.547   6.464   1.248  0.9191 -0.4305  0.8915
  679MOL0     H93648   9.406   6.511   1.350 -2.5635 -1.7133 -0.2807
  679MOL0     H93649   9.387   6.275   1.166  1.6196  0.6479 -0.8278
  679MOL0     H93650   9.254   6.373   1.222  0.5557  0.8029 -1.4810
  679MOL0     H93651   9.251   6.636   1.107  1.2552 -0.3420  1.0546
  679MOL0     H93652   9.211   6.777   0.896  1.9369 -1.9282  2.0550
  679MOL0     H93653   9.144   6.663   0.787 -0.2393  0.9217 -0.8140
  679MOL0     H93654   9.365   6.853   0.782  1.5959  0.3627 -1.8764
  679MOL0     H93655   9.413   6.696   0.708 -2.3457 -1.4937 -1.6350
  679MOL0     H93656   9.335   6.850   0.518  0.5969 -0.3641 -0.5932
  679MOL0     H93657   9.228   6.709   0.555  1.9532 -0.5854 -0.3168
  679MOL0     H93658   9.113   6.936   0.514  0.7372 -1.6949 -0.8676
  679MOL0     H93659   9.086   6.882   0.681 -0.0594  2.1493 -0.2794
  679MOL0     H93660   8.989   7.000   0.791  2.4031 -2.0706  1.9284
  679MOL0     H93661   8.824   7.241   0.992 -0.7633 -1.2198 -1.7133
  679MOL0     H93662   8.877   7.099   1.086  1.9448 -0.9681 -0.5782
  679MOL0     H93663   8.811   7.077   0.927 -2.7234  2.2415 -0.8827
  679MOL0     H93664   9.081   7.397   1.416 -0.2472  1.1755  1.0001
  679MOL0     H93665   9.032   7.544   1.580 -0.0827 -0.0760 -0.4033
  679MOL0     H93666   8.826   7.853   1.657  0.3364  0.7308 -2.2139
  679MOL0     H93667   8.843   7.679   1.640  1.0115 -0.4004  4.5429
  679MOL0     H93668   9.063   7.679   1.762 -0.2950 -0.2794 -1.6972
  679MOL0     H93669   9.048   7.854   1.771  3.1719 -1.9345  0.8148
  679MOL0     H93670   8.825   7.676   1.875 -0.7702  2.0560  0.1930
  679MOL0     H93671   8.873   7.829   1.932  1.2834  2.3640 -3.9703
  679MOL0     H93672   9.104   7.729   2.026  2.3320 -0.9302 -3.3941
  679MOL0     H93673   9.029   7.576   1.978  1.1007  0.5648  0.6760
  679MOL0     H93674   9.007   7.637   2.230 -0.6920 -0.6434 -0.4504
  679MOL0     H93675   8.933   7.793   2.186 -5.0930 -0.5815  0.3751
  679MOL0     H93676   8.807   7.524   2.132  1.8749 -1.4906  2.9628
  679MOL0     H93677   8.739   7.670   2.067  1.4640  2.3781  0.0857
  679MOL0     H93678   8.623   7.682   2.271 -1.0103 -2.7530 -0.2309
  679MOL0     H93679   8.786   7.738   2.342 -0.9174  1.3011 -0.8065
  679MOL0     H93680   8.846   7.523   2.407 -0.5079  0.4495  0.6995
  679MOL0     H93681   8.708   7.454   2.318 -2.8194 -0.1279  1.0911
  679MOL0     H93682   8.965   7.864   1.298 -1.2794 -0.2171  2.1651
  679MOL0     H93683   9.006   7.725   1.124  4.5795  0.1150 -1.0092
  679MOL0     H93684   9.309   7.326   0.980 -1.9279  2.5503 -3.0087
  679MOL0     H93685   9.362   7.225   0.772 -0.0930 -1.7058 -1.3675
  679MOL0     H93686  10.164   6.258   1.798 -0.5109 -0.1835  0.6886
  679MOL0     H93687  10.322   6.228   2.005 -2.2020 -0.9920  3.7101
  679MOL0     H93688  10.407   6.155   2.352 -0.8104 -0.2716 -0.0086
  679MOL0     H93689  10.515   6.104   2.573  1.9948  0.5897  1.2950
  679MOL0     H93690  10.922   6.259   2.667 -1.3997 -1.3927 -2.0651
  679MOL0     H93691  10.811   6.383   2.725 -1.1720 -0.3678  1.6307
  679MOL0     H93692  10.895   6.142   2.890 -0.8902 -0.6527 -1.9260
  679MOL0     H93693  10.752   6.241   2.924 -0.8213 -0.0237 -1.7594
  679MOL0     H93694  10.917   6.443   2.955  2.9411  0.9970  1.9877
  679MOL0     H93695  10.931   6.329   3.073 -3.7862  2.5545  0.6297
  679MOL0     H93696  11.129   6.210   2.951 -2.5934 -0.9342 -1.4358
  679MOL0     H93697  11.148   6.365   3.018 -0.1314  1.7865 -0.5994
  679MOL0     H93698  11.194   6.399   2.593 -0.4502 -0.1987 -0.2425
  679MOL0     H93699  10.802   6.409   2.511 -1.1191  2.9173 -1.9456
  679MOL0     H93700  10.831   6.508   2.310 -0.3815  0.7381  0.7466
  679MOL0     H93701  10.779   6.424   2.169  1.1126  1.1795  0.3731
  679MOL0     H93702  10.668   6.546   2.247 -1.1903 -1.0245 -1.7220
  680MOL0     O93703   5.121   8.848   4.118 -0.4676  0.0458 -0.0875
  680MOL0     C93704   5.080   8.815   4.008  0.4369  0.0625  0.3727
  680MOL0     O93705   4.946   8.794   3.977 -0.2672  0.4126 -0.5813
  680MOL0     C93706   4.848   8.806   4.073  0.7795  0.9059 -0.2370
  680MOL0     C93707   4.754   8.704   4.087 -0.5466 -0.0373 -0.8271
  680MOL0     C93708   4.649   8.706   4.175  1.0126 -0.9596  0.1084
  680MOL0     C93709   4.628   8.823   4.253  0.3089 -1.4019 -0.5800
  680MOL0     O93710   4.524   8.850   4.329 -0.0842 -0.2249 -0.2399
  680MOL0     C93711   4.387   8.815   4.305 -0.2430 -0.1183  0.1255
  680MOL0     C93712   4.317   8.906   4.202 -0.1438  0.7025 -0.8166
  680MOL0     C93713   4.212   8.831   4.127  0.4182 -0.1640  0.3955
  680MOL0     C93714   4.082   8.817   4.225  0.1671  0.7624  0.7285
  680MOL0     C93715   3.993   8.703   4.162 -0.4855  0.3847 -0.5983
  680MOL0     C93716   3.860   8.682   4.239  0.7182  0.1866  0.7035
  680MOL0     C93717   3.783   8.568   4.176  0.0605  1.2636 -0.5806
  680MOL0     C93718   3.672   8.540   4.266 -0.2709  0.0788 -0.7496
  680MOL0     N93719   3.710   8.442   4.368 -0.0572 -0.2652 -0.6169
  680MOL0     C93720   3.716   8.300   4.347 -0.1785  0.2503 -0.1559
  680MOL0     C93721   3.707   8.245   4.470 -0.4702  0.4546  0.2017
  680MOL0     C93722   3.695   8.099   4.505 -0.1815  0.1609  0.5191
  680MOL0     C93723   3.822   8.040   4.565  0.2791 -0.7915  0.0080
  680MOL0     C93724   3.808   7.906   4.634 -0.0704 -0.0709 -0.7049
  680MOL0     C93725   3.943   7.853   4.676  0.3192 -0.4669  0.3021
  680MOL0     O93726   3.934   7.748   4.762  0.5130  0.0749  0.3838
  680MOL0     C93727   4.054   7.715   4.830 -0.2401  0.6661 -0.5436
  680MOL0     C93728   4.174   7.674   4.770  1.0242 -0.0890  0.2323
  680MOL0     C93729   4.279   7.631   4.848 -0.3430  1.4370  0.0156
  680MOL0     C93730   4.388   7.560   4.785  0.0035 -0.9085  0.0568
  680MOL0     C93731   4.268   7.641   4.989  0.1529  0.2220  0.0788
  680MOL0     C93732   4.378   7.602   5.076  0.0899 -0.5940  0.4998
  680MOL0     O93733   4.496   7.662   5.057 -0.5244 -0.4886 -0.0341
  680MOL0     C93734   4.610   7.633   5.130  0.3277  0.7092 -0.4243
  680MOL0     C93735   4.705   7.733   5.132 -0.4155  0.4814 -0.1924
  680MOL0     C93736   4.825   7.707   5.199  0.2041 -0.6696  0.6288
  680MOL0     C93737   4.848   7.595   5.275 -0.0606  0.4481  0.0106
  680MOL0     O93738   4.970   7.583   5.335 -0.2765  0.1592 -0.2838
  680MOL0     C93739   4.989   7.512   5.459 -0.4683  0.7380  0.1334
  680MOL0     C93740   5.143   7.515   5.472  0.1568 -0.4573 -0.5491
  680MOL0     C93741   5.193   7.464   5.603 -0.3864  0.4849 -0.2937
  680MOL0     C93742   5.353   7.467   5.602  0.1118  0.2603 -0.2581
  680MOL0     C93743   5.410   7.374   5.711  0.5724 -0.5372  0.5098
  680MOL0     C93744   5.361   7.401   5.851 -0.2722  0.5612 -0.1173
  680MOL0     C93745   5.408   7.529   5.915 -1.1281 -0.2359 -0.0080
  680MOL0     C93746   5.337   7.566   6.042  0.3136 -0.3237  0.0891
  680MOL0    Cl93747   5.174   7.629   5.994 -0.2780  0.1447 -0.2828
  680MOL0     C93748   4.755   7.492   5.264 -0.1524 -0.6754 -0.8441
  680MOL0     C93749   4.641   7.506   5.187  0.3295 -0.5160 -0.6397
  680MOL0     O93750   4.348   7.516   5.156  0.2148 -0.0277 -0.4115
  680MOL0     C93751   4.147   7.673   5.046  0.1445  1.0212 -0.3177
  680MOL0     C93752   4.035   7.710   4.970  0.7918 -0.1695  0.3653
  680MOL0     N93753   3.720   8.346   4.562 -0.0644  0.7114  0.1350
  680MOL0     N93754   3.707   8.456   4.502 -0.6001 -0.6560  0.0734
  680MOL0     C93755   4.716   8.932   4.237  0.5460  0.2703 -0.1770
  680MOL0     C93756   4.826   8.925   4.149 -0.3380 -0.1834 -0.4819
  680MOL0     C93757   5.175   8.806   3.897 -0.0453  0.1141 -0.2495
  680MOL0     C93758   5.128   8.782   3.760  0.7115 -0.6172 -1.0783
  680MOL0     C93759   5.217   8.764   3.652 -0.0170 -0.0592 -0.3159
  680MOL0     C93760   5.353   8.768   3.671 -0.3009 -0.4585  0.7292
  680MOL0     O93761   5.424   8.761   3.561 -0.8367  0.0496  0.3566
  680MOL0     C93762   5.566   8.797   3.560 -0.0917  0.4780  0.9036
  680MOL0     C93763   5.579   8.950   3.568  0.1521 -0.2130 -0.8651
  680MOL0     C93764   5.732   8.993   3.559 -0.1282  0.5849 -0.7581
  680MOL0     C93765   5.819   8.984   3.680 -0.4887 -0.0188 -0.5292
  680MOL0     C93766   5.765   9.026   3.808  0.3419  0.5887 -0.1733
  680MOL0     C93767   5.726   9.052   3.911 -0.5273  0.8275 -0.0209
  680MOL0     C93768   5.405   8.787   3.796 -0.3821  0.0704 -0.2073
  680MOL0     C93769   5.320   8.806   3.912  0.0276 -0.7477 -0.4770
  680MOL0     C93770   5.397   8.829   4.035 -1.0001 -0.4289 -0.9977
  680MOL0     H93771   4.773   8.613   4.031  3.7067  0.4679 -0.5252
  680MOL0     H93772   4.592   8.622   4.212 -1.8670  1.0716  0.6501
  680MOL0     H93773   4.327   8.815   4.396 -1.5541 -0.9271 -0.7083
  680MOL0     H93774   4.387   8.709   4.275  3.8125  0.3301 -2.1950
  680MOL0     H93775   4.276   8.995   4.252  2.2490  1.3278  0.1918
  680MOL0     H93776   4.383   8.933   4.119  2.6113 -3.6103 -0.3278
  680MOL0     H93777   4.181   8.880   4.034  1.4497 -0.7165 -0.2539
  680MOL0     H93778   4.245   8.732   4.097 -1.2263 -1.3465  2.1979
  680MOL0     H93779   4.104   8.794   4.329  0.3168  2.1865  1.0283
  680MOL0     H93780   4.026   8.910   4.234 -2.1871 -0.3944 -0.7508
  680MOL0     H93781   4.047   8.610   4.145  0.2027  0.8367 -0.9354
  680MOL0     H93782   3.956   8.743   4.067 -2.5483  1.6435  0.6393
  680MOL0     H93783   3.868   8.684   4.349 -4.9092 -1.1405  1.4525
  680MOL0     H93784   3.802   8.772   4.215  1.1922 -0.1208 -1.7793
  680MOL0     H93785   3.851   8.483   4.166 -1.9693 -0.4588 -0.5223
  680MOL0     H93786   3.751   8.602   4.076  1.5173  2.6307 -0.6309
  680MOL0     H93787   3.645   8.633   4.317 -1.5983 -0.8534  0.3284
  680MOL0     H93788   3.587   8.499   4.210  0.4198 -0.9573 -1.0534
  680MOL0     H93789   3.723   8.250   4.252 -0.6882  0.8442 -0.5156
  680MOL0     H93790   3.668   8.035   4.420 -0.2392 -2.6478  2.5246
  680MOL0     H93791   3.608   8.086   4.569 -0.7599 -1.3098 -0.5145
  680MOL0     H93792   3.898   8.046   4.486  0.6912  1.2027  0.4823
  680MOL0     H93793   3.869   8.105   4.640  1.7214 -1.3048 -0.4007
  680MOL0     H93794   3.748   7.909   4.725  0.5189 -3.0975 -0.1084
  680MOL0     H93795   3.762   7.834   4.565 -0.3777 -0.1291 -0.4416
  680MOL0     H93796   3.998   7.822   4.587  0.3149  0.1103  0.0962
  680MOL0     H93797   4.006   7.932   4.718 -2.1548  2.6243 -1.3704
  680MOL0     H93798   4.159   7.656   4.664  0.8455 -0.8194  0.3782
  680MOL0     H93799   4.385   7.451   4.794 -3.5519 -0.9949 -0.6903
  680MOL0     H93800   4.487   7.595   4.816  0.3121  2.1991 -3.7106
  680MOL0     H93801   4.392   7.568   4.676 -0.3742 -1.0979  0.0254
  680MOL0     H93802   4.695   7.820   5.068 -0.2772 -1.5021 -3.1223
  680MOL0     H93803   4.907   7.778   5.185  0.7997 -1.0949  1.8325
  680MOL0     H93804   4.946   7.570   5.541 -3.7778 -1.0587 -0.1724
  680MOL0     H93805   4.942   7.413   5.465 -1.7601  1.0192 -3.0690
  680MOL0     H93806   5.177   7.460   5.384 -0.4426  0.4160 -1.3446
  680MOL0     H93807   5.177   7.619   5.469 -0.6202 -0.1261  0.8648
  680MOL0     H93808   5.162   7.361   5.624  2.1647  0.3264  4.0777
  680MOL0     H93809   5.159   7.524   5.688  0.7799 -0.5853  0.9906
  680MOL0     H93810   5.391   7.568   5.622 -0.6475  0.2236  1.6132
  680MOL0     H93811   5.390   7.430   5.506  1.7204  1.0126  0.0353
  680MOL0     H93812   5.370   7.277   5.681  0.0405 -0.2857  0.3783
  680MOL0     H93813   5.519   7.373   5.701  0.5556  1.9419 -0.8568
  680MOL0     H93814   5.370   7.318   5.921  1.0634  0.1077 -0.8030
  680MOL0     H93815   5.251   7.400   5.851 -0.3612 -1.0470  2.9427
  680MOL0     H93816   5.398   7.613   5.845 -0.0642 -0.2668 -0.2109
  680MOL0     H93817   5.514   7.524   5.940 -0.7576  0.1899 -1.3955
  680MOL0     H93818   5.387   7.640   6.105  1.1450 -0.1058 -0.8135
  680MOL0     H93819   5.320   7.480   6.108  2.1693 -0.2734  0.6749
  680MOL0     H93820   4.770   7.403   5.325 -2.1457  0.0848  0.8648
  680MOL0     H93821   4.574   7.420   5.180  1.1512 -1.4666  1.9837
  680MOL0     H93822   4.129   7.671   5.153 -2.3872  0.3572 -0.7058
  680MOL0     H93823   3.938   7.719   5.017  0.0605 -3.2279 -0.2933
  680MOL0     H93824   4.699   9.021   4.297  0.1302  0.2233 -0.2209
  680MOL0     H93825   4.897   9.006   4.141  5.8807 -4.9305 -0.1925
  680MOL0     H93826   5.023   8.777   3.737  0.8359 -0.2820 -1.7164
  680MOL0     H93827   5.187   8.758   3.548 -0.1632  1.6732 -0.4020
  680MOL0     H93828   5.616   8.761   3.650 -0.7599  0.4051  1.2510
  680MOL0     H93829   5.618   8.763   3.470 -2.7263 -0.9038 -0.2229
  680MOL0     H93830   5.540   8.990   3.662  3.0927  1.5932 -0.2761
  680MOL0     H93831   5.525   8.985   3.480 -0.0070 -0.4106 -0.8474
  680MOL0     H93832   5.795   8.955   3.478  2.0360  3.6972 -0.7299
  680MOL0     H93833   5.725   9.100   3.538 -0.5222  0.7778  0.2698
  680MOL0     H93834   5.916   9.035   3.674  2.8590 -5.2568  1.6596
  680MOL0     H93835   5.841   8.877   3.687 -0.6684 -0.0217  0.1067
  680MOL0     H93836   5.695   9.082   4.009 -1.6795  2.2148 -0.7771
  680MOL0     H93837   5.511   8.796   3.818 -0.2623 -0.6387 -0.4726
  680MOL0     H93838   5.354   8.916   4.084 -1.1684 -0.6711 -0.7111
  680MOL0     H93839   5.377   8.745   4.102 -1.9524 -1.2862 -2.3049
  680MOL0     H93840   5.505   8.841   4.024 -0.8936 -0.1141  0.2834
  681MOL0     O93841   2.180   0.760   4.015  0.9065 -0.2899 -0.0022
  681MOL0     C93842   2.246   0.701   4.100  0.1170  1.1259  0.9312
  681MOL0     O93843   2.233   0.566   4.129 -0.4381  0.0390  0.8858
  681MOL0     C93844   2.140   0.495   4.060  0.5764 -0.4600  0.3582
  681MOL0     C93845   2.162   0.459   3.923 -0.3103 -0.8056  0.5471
  681MOL0     C93846   2.063   0.389   3.852  0.5317  0.2017  1.2280
  681MOL0     C93847   1.940   0.362   3.921  0.5517 -0.0459 -0.4166
  681MOL0     O93848   1.850   0.292   3.857 -0.2959  0.4498 -0.0621
  681MOL0     C93849   1.718   0.263   3.907 -0.0922 -0.2820  0.4801
  681MOL0     C93850   1.648   0.178   3.793  0.2292 -0.2661 -0.5334
  681MOL0     C93851   1.505   0.222   3.786 -0.5080  0.6130  1.1196
  681MOL0     C93852   1.443   0.125   3.682 -0.1766  0.1841 -0.2465
  681MOL0     C93853   1.290   0.131   3.691  0.3700 -0.5290 -0.4636
  681MOL0     C93854   1.213   0.007   3.650 -0.0436  0.2621  0.1052
  681MOL0     C93855   1.059   0.026   3.643  1.0130 -0.1625  0.1984
  681MOL0     C93856   0.994  -0.083   3.568  0.3170  0.2996  0.6405
  681MOL0     N93857   0.868  -0.044   3.514 -0.1604  0.6048 -0.2651
  681MOL0     C93858   0.752  -0.051   3.586  0.2621 -0.3990 -0.9676
  681MOL0     C93859   0.655  -0.040   3.494  0.4623 -0.8714 -0.4307
  681MOL0     C93860   0.509  -0.037   3.522  0.5109  0.4607 -0.4359
  681MOL0     C93861   0.454  -0.172   3.470 -0.7907 -0.5325  0.2921
  681MOL0     C93862   0.470  -0.281   3.569 -0.8229  0.5444 -0.0315
  681MOL0     C93863   0.412  -0.412   3.508 -0.0587  0.8588  0.5815
  681MOL0     O93864   0.498  -0.476   3.404  0.3117 -0.0928 -0.7815
  681MOL0     C93865   0.622  -0.489   3.446  0.0036  0.0412  0.1795
  681MOL0     C93866   0.663  -0.580   3.542  0.3231 -0.1065 -0.1146
  681MOL0     C93867   0.799  -0.574   3.586  0.0643 -0.5150 -0.1731
  681MOL0     C93868   0.839  -0.643   3.710 -0.2493 -0.1963 -0.5004
  681MOL0     C93869   0.894  -0.492   3.518 -0.3375 -1.1055 -0.9245
  681MOL0     C93870   1.034  -0.516   3.551 -0.2660  0.2802  0.2232
  681MOL0     O93871   1.117  -0.409   3.530  0.6673 -0.5131 -0.1133
  681MOL0     C93872   1.247  -0.420   3.574 -0.1554  0.6702  0.3179
  681MOL0     C93873   1.332  -0.335   3.506 -0.2980 -0.2190  0.2577
  681MOL0     C93874   1.469  -0.331   3.550 -0.1422  0.0089  0.3186
  681MOL0     C93875   1.516  -0.419   3.658 -1.0297  0.4460  0.6061
  681MOL0     O93876   1.646  -0.427   3.698 -0.9198  0.7119  0.2043
  681MOL0     C93877   1.685  -0.293   3.732 -0.5000 -0.2452  0.0833
  681MOL0     C93878   1.835  -0.293   3.785  0.0244 -0.3521  0.2795
  681MOL0     C93879   1.884  -0.152   3.828 -0.0822 -0.3632 -1.2635
  681MOL0     C93880   2.021  -0.160   3.912  0.3402  1.1918 -0.8075
  681MOL0     C93881   2.044  -0.027   3.988 -0.8417 -0.1775  0.0561
  681MOL0     C93882   2.140  -0.027   4.110  0.1189 -0.0366 -0.4756
  681MOL0     C93883   2.265  -0.100   4.082 -0.2840 -0.2134  0.3543
  681MOL0     C93884   2.385  -0.076   4.176 -0.6569 -0.7020  0.5177
  681MOL0    Cl93885   2.509  -0.195   4.143  0.2009  0.9710 -0.1559
  681MOL0     C93886   1.424  -0.505   3.715  0.1470  0.5920 -0.3971
  681MOL0     C93887   1.292  -0.510   3.678 -0.9269 -0.4397  0.4730
  681MOL0     O93888   1.072  -0.636   3.545 -0.3486 -0.5552  0.4285
  681MOL0     C93889   0.852  -0.407   3.417  0.4914 -0.1708  0.1222
  681MOL0     C93890   0.716  -0.402   3.383  0.3744  0.3533  0.7884
  681MOL0     N93891   0.713  -0.012   3.373 -0.0798 -0.1169 -0.0009
  681MOL0     N93892   0.843  -0.009   3.389 -0.1977  0.2190 -0.0413
  681MOL0     C93893   1.911   0.414   4.044  0.2966 -0.3402 -0.5382
  681MOL0     C93894   2.013   0.479   4.119 -0.4696 -0.2527  0.0306
  681MOL0     C93895   2.345   0.766   4.182  0.2350 -0.1618  0.2745
  681MOL0     C93896   2.365   0.732   4.319 -1.1969 -0.1492 -0.3979
  681MOL0     C93897   2.466   0.798   4.396 -0.1524 -0.0621  0.2727
  681MOL0     C93898   2.538   0.903   4.341 -0.2423  0.4477  0.1456
  681MOL0     O93899   2.650   0.958   4.392 -0.3233 -0.4719  0.5718
  681MOL0     C93900   2.694   0.927   4.520 -0.4646  0.0182  0.1378
  681MOL0     C93901   2.834   0.990   4.515 -0.0166 -0.3567  0.2133
  681MOL0     C93902   2.825   1.148   4.498 -0.4932 -0.1515 -0.4272
  681MOL0     C93903   2.745   1.237   4.603  0.0069  0.3191  0.1415
  681MOL0     C93904   2.808   1.212   4.736  1.2692 -0.1933  0.2761
  681MOL0     C93905   2.834   1.210   4.851 -0.2190 -0.5421  0.1451
  681MOL0     C93906   2.521   0.934   4.212  0.3549 -0.2302 -0.4524
  681MOL0     C93907   2.426   0.867   4.124  0.2606  0.2217 -0.0871
  681MOL0     C93908   2.444   0.901   3.974 -0.2467 -0.2584  0.3727
  681MOL0     H93909   2.261   0.485   3.888 -0.4907  0.9159  1.1912
  681MOL0     H93910   2.081   0.363   3.748 -1.8094 -4.3385  1.6707
  681MOL0     H93911   1.665   0.358   3.909  2.0413  0.9799  0.5595
  681MOL0     H93912   1.712   0.215   4.005  0.8767  0.8270  1.1051
  681MOL0     H93913   1.707   0.203   3.704  0.8710 -1.2742 -0.4126
  681MOL0     H93914   1.661   0.070   3.809 -0.8188 -0.3082  0.0643
  681MOL0     H93915   1.458   0.230   3.885  2.7436 -0.7572  2.9253
  681MOL0     H93916   1.495   0.322   3.743 -2.4729 -0.5119 -1.2693
  681MOL0     H93917   1.472   0.141   3.578 -2.4199 -0.4129 -1.0065
  681MOL0     H93918   1.478   0.029   3.722  1.3249  0.5245 -0.6704
  681MOL0     H93919   1.248   0.215   3.635 -0.6518 -0.9049 -0.2915
  681MOL0     H93920   1.271   0.161   3.795 -0.5603  0.4399 -0.8929
  681MOL0     H93921   1.243  -0.024   3.549  2.8267  1.3009  0.5449
  681MOL0     H93922   1.246  -0.072   3.717 -0.1566  0.2720  0.1715
  681MOL0     H93923   1.044   0.114   3.579  0.9734 -1.1733 -1.2373
  681MOL0     H93924   1.015   0.050   3.740 -0.2601  0.0347 -0.4135
  681MOL0     H93925   1.061  -0.111   3.486 -1.7005  1.9148 -1.6893
  681MOL0     H93926   0.989  -0.168   3.638 -1.9708  0.2528  0.4898
  681MOL0     H93927   0.750  -0.066   3.693  1.9034 -0.4652 -0.9116
  681MOL0     H93928   0.476   0.048   3.462 -0.2987 -0.1603 -0.8849
  681MOL0     H93929   0.495  -0.024   3.630  2.6683 -0.7203  0.0437
  681MOL0     H93930   0.345  -0.165   3.469 -0.9381 -1.5492  2.7318
  681MOL0     H93931   0.508  -0.196   3.378  1.0710  0.9588  0.9177
  681MOL0     H93932   0.572  -0.294   3.605 -1.2787 -1.9280  0.5779
  681MOL0     H93933   0.409  -0.254   3.656 -0.7987 -1.4075  0.6535
  681MOL0     H93934   0.415  -0.484   3.590  5.7492 -0.9406 -0.7449
  681MOL0     H93935   0.313  -0.400   3.464  0.0643 -0.4046 -0.0738
  681MOL0     H93936   0.600  -0.653   3.592 -0.7411 -0.0531 -1.3007
  681MOL0     H93937   0.892  -0.738   3.695 -2.8996 -1.4681 -2.8126
  681MOL0     H93938   0.748  -0.676   3.763  1.2923 -1.0161  1.7841
  681MOL0     H93939   0.900  -0.580   3.774  1.0422 -0.9927 -0.9103
  681MOL0     H93940   1.281  -0.273   3.433  2.5244  0.5545 -1.1866
  681MOL0     H93941   1.534  -0.260   3.500  0.3659 -1.9067 -1.9048
  681MOL0     H93942   1.682  -0.224   3.648 -3.4762 -2.0964 -1.5091
  681MOL0     H93943   1.626  -0.262   3.819  2.2852 -0.1754  2.0755
  681MOL0     H93944   1.850  -0.366   3.865  1.4992 -1.8849 -1.3118
  681MOL0     H93945   1.899  -0.323   3.702 -0.9921  0.0611 -0.6866
  681MOL0     H93946   1.803  -0.109   3.888  1.5438 -0.9331  1.5141
  681MOL0     H93947   1.888  -0.095   3.735  0.2561 -0.7359 -1.4818
  681MOL0     H93948   2.104  -0.182   3.845 -1.5108  2.6050 -3.7834
  681MOL0     H93949   2.010  -0.239   3.987  1.6279 -0.1390 -1.9772
  681MOL0     H93950   2.089   0.044   3.918 -0.4940  0.2403  0.6983
  681MOL0     H93951   1.949   0.023   4.010 -0.1360  3.4527 -3.8162
  681MOL0     H93952   2.088  -0.081   4.190 -1.8717 -0.3880 -1.9373
  681MOL0     H93953   2.157   0.073   4.151  0.1114 -0.6787  1.1655
  681MOL0     H93954   2.301  -0.074   3.982  0.2621 -1.3626  0.2365
  681MOL0     H93955   2.239  -0.206   4.084  1.1723 -0.5724  0.9111
  681MOL0     H93956   2.352  -0.079   4.281  0.2193  0.7736  0.8717
  681MOL0     H93957   2.414   0.028   4.163 -0.0704 -0.8643  0.4912
  681MOL0     H93958   1.453  -0.560   3.804  0.0679  0.9841 -0.1277
  681MOL0     H93959   1.221  -0.580   3.721 -0.5048 -2.3332 -1.7367
  681MOL0     H93960   0.928  -0.344   3.372  1.0678 -2.5044 -2.3774
  681MOL0     H93961   0.697  -0.336   3.299  0.3066 -0.4748  0.1492
  681MOL0     H93962   1.823   0.393   4.104  0.4520 -1.5153 -0.6870
  681MOL0     H93963   2.001   0.525   4.217  0.0805 -0.9094  0.4089
  681MOL0     H93964   2.294   0.673   4.376 -0.1638  0.7571  1.9479
  681MOL0     H93965   2.471   0.783   4.503  1.8574  2.4230  0.6276
  681MOL0     H93966   2.625   0.971   4.593  0.9171  1.7196  0.4966
  681MOL0     H93967   2.712   0.819   4.525 -1.6054 -0.3612 -2.4944
  681MOL0     H93968   2.890   0.951   4.429  0.2005 -0.8531  0.5742
  681MOL0     H93969   2.890   0.962   4.605  0.4759 -0.0332  0.0094
  681MOL0     H93970   2.925   1.193   4.497 -0.8740  0.7496  0.5030
  681MOL0     H93971   2.779   1.175   4.403 -0.2709  0.2293 -0.4274
  681MOL0     H93972   2.637   1.221   4.606 -0.2164  1.8650  2.2715
  681MOL0     H93973   2.761   1.338   4.566 -2.7757  0.8721  0.2557
  681MOL0     H93974   2.863   1.210   4.954 -0.1677  1.5824  0.1790
  681MOL0     H93975   2.580   1.015   4.171  0.0575 -0.4807 -1.4060
  681MOL0     H93976   2.372   0.843   3.916  1.1255 -0.9157 -0.7411
  681MOL0     H93977   2.427   1.007   3.954 -1.0476 -0.4190  0.1648
  681MOL0     H93978   2.542   0.870   3.935 -1.8858  0.9309 -5.8365
  682MOL0     O93979   9.489   9.004   3.060  0.6782 -0.8701 -0.9419
  682MOL0     C93980   9.601   9.028   3.107 -0.0872  0.3570 -0.4134
  682MOL0     O93981   9.715   9.010   3.036  0.0520 -0.2705 -0.1341
  682MOL0     C93982   9.708   8.951   2.912  1.2850  0.6073 -0.0739
  682MOL0     C93983   9.638   8.831   2.877  0.1452  0.0307  0.4789
  682MOL0     C93984   9.626   8.799   2.734 -0.2197 -1.0557  0.4838
  682MOL0     C93985   9.721   8.857   2.642 -0.2500 -0.2622 -0.1689
  682MOL0     O93986   9.746   8.819   2.511  0.6974 -0.1899  0.4625
  682MOL0     C93987   9.675   8.698   2.468 -0.2828  0.1570 -0.2301
  682MOL0     C93988   9.692   8.669   2.316  0.4624 -0.0483 -0.6208
  682MOL0     C93989   9.597   8.766   2.236 -0.0210  0.0470  0.9609
  682MOL0     C93990   9.616   8.773   2.079  0.2201  0.2684 -1.1367
  682MOL0     C93991   9.524   8.875   2.017 -0.2370 -1.0227  1.3320
  682MOL0     C93992   9.387   8.909   2.091 -0.2865 -0.3837 -0.3941
  682MOL0     C93993   9.296   9.004   2.008  0.3426 -0.6953  0.4729
  682MOL0     C93994   9.163   9.030   2.074 -0.3459  1.1417 -0.1242
  682MOL0     N93995   9.057   9.058   1.978  0.5272 -0.9468 -0.6964
  682MOL0     C93996   8.977   9.174   1.981  0.8040  0.5196  0.0328
  682MOL0     C93997   8.900   9.171   1.869 -0.6861 -0.0835  0.3076
  682MOL0     C93998   8.820   9.287   1.810  0.2894  0.2332 -0.0365
  682MOL0     C93999   8.718   9.328   1.925 -0.6025 -0.6226  0.9597
  682MOL0     C94000   8.622   9.429   1.866 -0.3407 -0.8059  0.4750
  682MOL0     C94001   8.694   9.561   1.823 -0.1294  0.3211  0.1259
  682MOL0     O94002   8.735   9.564   1.685 -0.4650  0.6100  0.2594
  682MOL0     C94003   8.829   9.656   1.649  0.2278  0.6611 -0.4975
  682MOL0     C94004   8.922   9.638   1.546  0.2119  0.7623  0.3991
  682MOL0     C94005   9.004   9.739   1.491 -0.3896 -0.2322 -0.1987
  682MOL0     C94006   9.113   9.691   1.402  0.1118 -0.3830  1.1970
  682MOL0     C94007   8.998   9.863   1.559  0.5637 -0.4809  0.3951
  682MOL0     C94008   9.079   9.981   1.523  0.9016  0.1850 -0.7997
  682MOL0     O94009   9.090  10.015   1.387  0.0805  0.6141  0.0373
  682MOL0     C94010   9.183  10.109   1.348 -0.1437  0.2794 -0.2608
  682MOL0     C94011   9.155  10.237   1.304  0.1745 -1.3297  0.0913
  682MOL0     C94012   9.270  10.313   1.256 -0.0931 -0.9103  0.1277
  682MOL0     C94013   9.402  10.272   1.258 -0.8535  0.8969  0.0132
  682MOL0     O94014   9.510  10.343   1.216 -0.6675  0.3611 -0.0598
  682MOL0     C94015   9.485  10.472   1.173 -0.8647 -0.8248 -0.1734
  682MOL0     C94016   9.618  10.531   1.123  0.6676 -0.3226  0.1626
  682MOL0     C94017   9.642  10.476   0.973 -0.6574 -0.2791  0.2373
  682MOL0     C94018   9.679  10.326   0.948 -0.3455  0.0062 -0.3229
  682MOL0     C94019   9.734  10.303   0.802  0.1741 -1.0688 -0.2778
  682MOL0     C94020   9.766  10.160   0.768 -0.1708 -0.0697 -0.1556
  682MOL0     C94021   9.830  10.143   0.632 -0.7680 -0.2984 -0.3055
  682MOL0     C94022   9.945  10.230   0.596  0.4076  0.3397 -0.2658
  682MOL0    Cl94023  10.023  10.175   0.446  0.3974 -0.5338  0.1825
  682MOL0     C94024   9.428  10.136   1.301  0.0811  0.1131  0.4771
  682MOL0     C94025   9.314  10.060   1.347 -0.4038  0.7392 -0.1176
  682MOL0     O94026   9.141  10.038   1.613  0.2370  0.4807 -0.0496
  682MOL0     C94027   8.908   9.883   1.666  0.7745 -0.7814 -0.0517
  682MOL0     C94028   8.826   9.784   1.709 -1.3455 -0.1939  0.4819
  682MOL0     N94029   8.918   9.054   1.807  0.0504  0.0683  0.2614
  682MOL0     N94030   9.008   8.988   1.872  0.5128 -0.4832  0.0345
  682MOL0     C94031   9.794   8.969   2.687  1.1568 -0.2135  0.2141
  682MOL0     C94032   9.775   9.020   2.811  0.2135  0.1702  0.1535
  682MOL0     C94033   9.617   9.087   3.243 -0.1729 -0.1549 -0.0407
  682MOL0     C94034   9.725   9.178   3.255 -0.0325 -0.3600 -0.9136
  682MOL0     C94035   9.748   9.238   3.376  0.4075  0.4669 -0.2748
  682MOL0     C94036   9.672   9.212   3.485  0.0978  0.2142 -0.2842
  682MOL0     O94037   9.689   9.280   3.607  0.5403 -0.2420 -0.1896
  682MOL0     C94038   9.793   9.375   3.634  0.1863  0.4981  1.1599
  682MOL0     C94039   9.749   9.488   3.717 -0.1778 -0.0784  0.1689
  682MOL0     C94040   9.628   9.571   3.649 -0.3561  0.5338 -0.2121
  682MOL0     C94041   9.636   9.601   3.500  0.1390  0.6801 -0.2546
  682MOL0     C94042   9.752   9.687   3.468  0.4315  0.5599 -0.4609
  682MOL0     C94043   9.857   9.748   3.454  0.4110  0.2038 -1.0171
  682MOL0     C94044   9.579   9.106   3.484 -0.4627  0.2017 -0.3607
  682MOL0     C94045   9.551   9.048   3.360  0.5006  0.0452 -0.1538
  682MOL0     C94046   9.438   8.946   3.371 -0.5009 -0.7147 -0.6695
  682MOL0     H94047   9.570   8.787   2.949 -0.8210  0.0716 -0.3780
  682MOL0     H94048   9.555   8.720   2.714 -0.5072 -0.3830 -1.2765
  682MOL0     H94049   9.569   8.710   2.490 -0.3939  1.0411 -1.1557
  682MOL0     H94050   9.720   8.617   2.526 -2.0752  1.5699  3.4501
  682MOL0     H94051   9.797   8.692   2.297  0.2431  1.6654  0.0547
  682MOL0     H94052   9.660   8.568   2.289  0.9859  0.0894 -1.8265
  682MOL0     H94053   9.497   8.730   2.262  0.1127  0.8512  2.7278
  682MOL0     H94054   9.602   8.869   2.272 -0.7125  0.2889  0.3852
  682MOL0     H94055   9.720   8.789   2.048  1.0559 -0.2799  1.1374
  682MOL0     H94056   9.595   8.681   2.024 -0.8252 -0.1523 -0.0563
  682MOL0     H94057   9.493   8.839   1.918  0.0522  3.1082 -0.4596
  682MOL0     H94058   9.580   8.968   2.005  0.1593 -1.3273  0.7453
  682MOL0     H94059   9.341   8.811   2.103  2.3273 -1.6163  0.3762
  682MOL0     H94060   9.403   8.958   2.187  3.9243 -1.3180 -0.4063
  682MOL0     H94061   9.278   8.952   1.913 -1.6044 -1.8614  1.4290
  682MOL0     H94062   9.344   9.100   1.984 -1.0992  0.4121  1.7803
  682MOL0     H94063   9.143   8.938   2.129 -0.5032 -0.0419 -2.0793
  682MOL0     H94064   9.164   9.109   2.150 -3.0559  4.0668 -2.8416
  682MOL0     H94065   8.975   9.262   2.044 -2.2467 -0.5098  1.5826
  682MOL0     H94066   8.775   9.253   1.717 -3.5674  2.9098  0.6216
  682MOL0     H94067   8.885   9.373   1.792  0.7130 -0.1948 -0.6111
  682MOL0     H94068   8.653   9.243   1.945 -1.6718 -0.3376 -1.0228
  682MOL0     H94069   8.765   9.364   2.016  1.9825 -0.2371 -0.4335
  682MOL0     H94070   8.568   9.385   1.782  0.6973 -1.1017 -0.0480
  682MOL0     H94071   8.542   9.444   1.939 -0.8841  1.4538 -0.4992
  682MOL0     H94072   8.623   9.644   1.830 -1.5229 -0.9085  1.0395
  682MOL0     H94073   8.774   9.583   1.896 -2.1977  3.2878  1.7231
  682MOL0     H94074   8.934   9.540   1.501 -1.5927  1.1313 -0.9988
  682MOL0     H94075   9.076   9.666   1.302  0.2810 -1.3762  1.3689
  682MOL0     H94076   9.154   9.602   1.451 -1.0356 -1.4975  0.1943
  682MOL0     H94077   9.179   9.775   1.380 -0.4355  0.2185  1.8029
  682MOL0     H94078   9.054  10.276   1.298 -0.0805 -1.7534  1.3906
  682MOL0     H94079   9.228  10.405   1.218  0.3943  0.8455  3.4712
  682MOL0     H94080   9.410  10.482   1.094 -2.6613  2.7130  1.7248
  682MOL0     H94081   9.452  10.537   1.255  0.4628  0.2047 -0.4157
  682MOL0     H94082   9.610  10.640   1.127  2.7323 -0.0919 -1.0923
  682MOL0     H94083   9.709  10.515   1.181  0.1358  0.4007  1.2240
  682MOL0     H94084   9.719  10.541   0.930 -1.5544  0.8785  0.3496
  682MOL0     H94085   9.542  10.501   0.934 -0.2291  1.3885  0.1200
  682MOL0     H94086   9.587  10.268   0.959 -0.5643  0.2786 -0.7287
  682MOL0     H94087   9.750  10.296   1.026 -2.8771 -3.3326  0.9715
  682MOL0     H94088   9.665  10.354   0.734  1.4763  1.4355  0.1334
  682MOL0     H94089   9.823  10.365   0.789 -0.8089 -0.0830 -2.9889
  682MOL0     H94090   9.673  10.102   0.767 -0.4682  0.3987 -1.9639
  682MOL0     H94091   9.829  10.133   0.853 -3.2143 -1.3279  1.8927
  682MOL0     H94092   9.748  10.142   0.560 -2.8771 -1.7584  1.9416
  682MOL0     H94093   9.872  10.042   0.631 -0.7029 -0.3604  2.0759
  682MOL0     H94094  10.022  10.220   0.673 -0.5598  0.8960  0.8112
  682MOL0     H94095   9.903  10.331   0.593 -0.8374  0.0046  2.5062
  682MOL0     H94096   9.533  10.107   1.308  0.0119 -0.2952 -0.1626
  682MOL0     H94097   9.330   9.958   1.381 -2.5295  0.7852  1.2214
  682MOL0     H94098   8.892   9.982   1.706  0.3193 -0.8088 -0.1552
  682MOL0     H94099   8.769   9.815   1.796 -1.1879  0.0755  0.4899
  682MOL0     H94100   9.846   9.033   2.617  0.4468  0.4973  0.3209
  682MOL0     H94101   9.821   9.118   2.822  1.0347 -0.0736 -0.8796
  682MOL0     H94102   9.773   9.209   3.163  0.6794  1.4848  0.0292
  682MOL0     H94103   9.828   9.311   3.371  1.1059  0.0773  3.0867
  682MOL0     H94104   9.867   9.305   3.675  0.6734 -1.8249 -3.1577
  682MOL0     H94105   9.846   9.416   3.547  1.1707 -0.2414  1.3909
  682MOL0     H94106   9.832   9.557   3.731 -0.7579  0.2932  2.0376
  682MOL0     H94107   9.716   9.465   3.819  0.3885  1.8185  0.8073
  682MOL0     H94108   9.548   9.497   3.661  2.7036 -3.5362 -2.3708
  682MOL0     H94109   9.611   9.660   3.710 -1.9185  0.3968 -0.4154
  682MOL0     H94110   9.542   9.647   3.468 -0.0935  0.8462  0.6377
  682MOL0     H94111   9.658   9.507   3.450  2.1172  0.3266  1.1349
  682MOL0     H94112   9.951   9.798   3.443  0.9439 -0.2889  0.9386
  682MOL0     H94113   9.528   9.085   3.578  0.4213 -2.8829 -0.4649
  682MOL0     H94114   9.478   8.853   3.414 -0.8767  0.1467  1.7393
  682MOL0     H94115   9.351   8.974   3.431 -0.2332  1.0528 -1.0693
  682MOL0     H94116   9.392   8.927   3.274 -2.5054 -0.4072  0.1835
  683MOL0     O94117   6.819   0.822   3.998  0.2762  0.4855 -0.6962
  683MOL0     C94118   6.780   0.728   3.924 -0.1542 -0.1994  1.1405
  683MOL0     O94119   6.856   0.648   3.848 -0.6378 -0.7647  0.7238
  683MOL0     C94120   6.992   0.683   3.821  0.4078 -0.3222  0.5085
  683MOL0     C94121   7.052   0.809   3.812 -1.5921 -0.8363 -0.2469
  683MOL0     C94122   7.198   0.826   3.788  0.5495 -1.0757 -0.3460
  683MOL0     C94123   7.277   0.711   3.767  0.7946 -0.6632 -0.5266
  683MOL0     O94124   7.400   0.701   3.714  0.0707 -0.3254  0.1697
  683MOL0     C94125   7.456   0.817   3.649 -0.4976  0.0832 -0.1750
  683MOL0     C94126   7.589   0.781   3.580 -0.1737  0.4586  0.1209
  683MOL0     C94127   7.711   0.782   3.674  1.1864  0.5123 -0.2953
  683MOL0     C94128   7.818   0.876   3.631  0.4991  1.7237  1.3534
  683MOL0     C94129   7.923   0.901   3.745 -0.2257 -0.2240 -0.3704
  683MOL0     C94130   8.031   0.984   3.678  0.5323 -0.1931 -0.8744
  683MOL0     C94131   8.154   0.997   3.774  0.6883  0.3406  0.4043
  683MOL0     C94132   8.121   1.103   3.892 -0.4461  0.5186 -0.8460
  683MOL0     N94133   8.085   1.235   3.838  0.2150 -0.3574 -0.8207
  683MOL0     C94134   8.162   1.316   3.753 -0.7171  1.0981 -0.5165
  683MOL0     C94135   8.083   1.412   3.728 -0.0185 -0.0298 -0.1451
  683MOL0     C94136   8.105   1.530   3.640  0.1814  0.0417  0.5036
  683MOL0     C94137   8.208   1.629   3.694 -0.1668  0.1650  0.9748
  683MOL0     C94138   8.230   1.740   3.584  0.9221  0.8379  0.3666
  683MOL0     C94139   8.339   1.836   3.632  0.5112  0.4955 -0.3845
  683MOL0     O94140   8.299   1.912   3.745  0.0555  0.5689  0.1954
  683MOL0     C94141   8.396   1.924   3.845 -0.5026 -0.7686  0.1626
  683MOL0     C94142   8.454   1.813   3.913 -0.6813 -0.0869  0.8873
  683MOL0     C94143   8.555   1.827   4.007 -0.5145  0.0727  0.2754
  683MOL0     C94144   8.613   1.705   4.074  0.0694  0.3653  0.0832
  683MOL0     C94145   8.594   1.953   4.038 -0.5205 -0.6014  1.4530
  683MOL0     C94146   8.716   1.983   4.130  0.5365 -0.7133  1.1619
  683MOL0     O94147   8.776   2.113   4.118 -0.3056 -0.4670  0.5690
  683MOL0     C94148   8.889   2.137   4.193  0.1590 -0.0819 -0.0478
  683MOL0     C94149   8.988   2.038   4.207  0.5967  0.4764 -0.3809
  683MOL0     C94150   9.099   2.067   4.280 -0.3396  0.3191  0.2426
  683MOL0     C94151   9.123   2.182   4.344 -0.2826 -0.3815  1.0628
  683MOL0     O94152   9.243   2.207   4.408 -0.7289 -0.1689 -0.4944
  683MOL0     C94153   9.223   2.284   4.533  0.0224 -1.1537  0.3601
  683MOL0     C94154   9.165   2.185   4.638  0.9875 -0.1463 -0.2617
  683MOL0     C94155   9.165   2.228   4.779  0.7004 -0.0400  0.0292
  683MOL0     C94156   9.141   2.111   4.873  0.5786  0.2918  0.0152
  683MOL0     C94157   9.143   2.157   5.020 -0.6968 -0.2096 -0.3041
  683MOL0     C94158   9.105   2.036   5.112 -1.3334 -0.1901  0.0558
  683MOL0     C94159   9.115   2.068   5.262 -0.1331  0.8012 -0.3272
  683MOL0     C94160   8.989   2.052   5.344 -0.3033  0.0151  0.2370
  683MOL0    Cl94161   8.942   1.875   5.348  0.2490  0.3265  0.1744
  683MOL0     C94162   9.034   2.292   4.322  0.3930  0.1961 -0.4537
  683MOL0     C94163   8.914   2.264   4.254 -0.5634 -0.2328 -0.3454
  683MOL0     O94164   8.743   1.911   4.227  0.6401  0.5973  1.1783
  683MOL0     C94165   8.545   2.065   3.965 -0.4567  0.6966  1.0504
  683MOL0     C94166   8.450   2.051   3.867  0.6976  1.0759 -0.0351
  683MOL0     N94167   7.961   1.392   3.785 -0.1769 -0.0090 -0.7108
  683MOL0     N94168   7.963   1.282   3.850  0.1140  0.2516 -0.3784
  683MOL0     C94169   7.209   0.587   3.776  1.0071  0.3630  0.1818
  683MOL0     C94170   7.070   0.583   3.797 -0.1290  0.4675  1.1268
  683MOL0     C94171   6.637   0.700   3.910  0.5590  0.6463 -0.1746
  683MOL0     C94172   6.584   0.650   3.785 -0.1482  0.3936 -0.2632
  683MOL0     C94173   6.452   0.627   3.766  1.3086 -0.2440  0.2063
  683MOL0     C94174   6.358   0.637   3.874  0.5713  0.2109  0.0041
  683MOL0     O94175   6.217   0.638   3.865 -0.6028  0.2143  0.5855
  683MOL0     C94176   6.156   0.624   3.741 -0.7141 -0.1549  0.2100
  683MOL0     C94177   6.005   0.663   3.751  0.1469  0.1391  0.2648
  683MOL0     C94178   5.893   0.547   3.764  0.5667 -0.3501 -0.6974
  683MOL0     C94179   5.845   0.499   3.632 -1.1414 -0.0404 -0.4048
  683MOL0     C94180   5.938   0.410   3.561 -0.6040  0.4126 -0.2605
  683MOL0     C94181   6.030   0.337   3.526 -0.0703 -0.3536 -0.8566
  683MOL0     C94182   6.407   0.665   3.999  0.2548 -0.0873 -0.3133
  683MOL0     C94183   6.545   0.697   4.018  0.2566 -0.0126 -0.0987
  683MOL0     C94184   6.588   0.741   4.158 -1.4110  0.4034 -0.6016
  683MOL0     H94185   7.002   0.903   3.836  0.9841  0.3507  0.8956
  683MOL0     H94186   7.246   0.923   3.791  2.7549 -2.1210  2.3418
  683MOL0     H94187   7.477   0.889   3.727 -3.1487  1.0114 -0.2125
  683MOL0     H94188   7.385   0.857   3.576  0.2797  2.1740  0.1585
  683MOL0     H94189   7.574   0.689   3.522  1.2955  1.6712 -2.3800
  683MOL0     H94190   7.602   0.864   3.510  0.3181  2.3856  2.3942
  683MOL0     H94191   7.682   0.829   3.769 -0.5237 -0.5393 -0.2549
  683MOL0     H94192   7.736   0.677   3.692 -1.4449 -0.4140 -1.5935
  683MOL0     H94193   7.865   0.837   3.540  1.0429 -0.7491  2.6022
  683MOL0     H94194   7.772   0.972   3.605 -2.5452 -0.1570 -0.8703
  683MOL0     H94195   7.975   0.809   3.775  2.4623  0.4087 -2.6767
  683MOL0     H94196   7.892   0.949   3.838  2.5264 -0.1760  0.6278
  683MOL0     H94197   8.074   0.937   3.589  3.0046 -2.2990  1.2568
  683MOL0     H94198   7.993   1.082   3.647 -1.1755  0.0464  1.7278
  683MOL0     H94199   8.244   1.022   3.717  1.2159 -1.1370  0.5528
  683MOL0     H94200   8.178   0.901   3.820  3.5590  0.6454 -0.2656
  683MOL0     H94201   8.051   1.064   3.968  2.0411 -1.5911  0.5244
  683MOL0     H94202   8.209   1.124   3.953 -2.1560  1.3994  1.4693
  683MOL0     H94203   8.264   1.306   3.718 -0.8214 -3.9806 -0.1180
  683MOL0     H94204   8.002   1.568   3.636 -0.9879 -2.7936  0.7225
  683MOL0     H94205   8.135   1.495   3.541  0.4000 -0.0990  0.6206
  683MOL0     H94206   8.169   1.670   3.787 -2.9502  0.5516 -0.2658
  683MOL0     H94207   8.303   1.577   3.703 -0.5938 -0.6091  1.0846
  683MOL0     H94208   8.249   1.703   3.483 -0.3257  3.0152 -0.7280
  683MOL0     H94209   8.131   1.784   3.569  0.6068 -0.3249 -1.2810
  683MOL0     H94210   8.432   1.781   3.651 -0.8074 -1.1209  1.9552
  683MOL0     H94211   8.349   1.907   3.550 -0.8872  0.6636 -0.4322
  683MOL0     H94212   8.421   1.714   3.883  1.1400  0.1212 -2.3297
  683MOL0     H94213   8.565   1.614   4.039  2.3517 -0.2085 -1.8722
  683MOL0     H94214   8.602   1.707   4.182  1.4751 -0.7428  0.2811
  683MOL0     H94215   8.721   1.699   4.053  0.4517  0.0744  1.9513
  683MOL0     H94216   8.991   1.953   4.140  3.8911 -1.0663  1.4814
  683MOL0     H94217   9.175   1.990   4.293 -0.4613  0.3508  1.1871
  683MOL0     H94218   9.322   2.314   4.571  1.0851 -3.3054 -0.5391
  683MOL0     H94219   9.159   2.373   4.527 -0.3848 -1.3843  1.1614
  683MOL0     H94220   9.062   2.159   4.609  1.8291 -1.0373 -2.7830
  683MOL0     H94221   9.219   2.090   4.636  1.2872  0.0299 -2.0572
  683MOL0     H94222   9.083   2.298   4.797 -0.7708 -1.0919 -2.1815
  683MOL0     H94223   9.264   2.270   4.797  0.0523  1.9876 -0.8202
  683MOL0     H94224   9.216   2.035   4.855  1.0911  0.1529  2.4230
  683MOL0     H94225   9.041   2.068   4.865  0.7118  0.0162 -0.1385
  683MOL0     H94226   9.244   2.195   5.037 -0.4309 -0.9626 -0.1972
  683MOL0     H94227   9.076   2.243   5.033  1.5421  1.7745 -1.1578
  683MOL0     H94228   9.169   1.952   5.085 -1.3041 -0.7427  1.7211
  683MOL0     H94229   9.004   2.003   5.091 -1.3157 -1.4912  1.8155
  683MOL0     H94230   9.155   2.169   5.269  0.1646  0.7003 -0.5813
  683MOL0     H94231   9.185   2.001   5.313 -0.5196  1.3183  0.9295
  683MOL0     H94232   8.912   2.110   5.291  2.4006  1.5066 -2.3477
  683MOL0     H94233   8.998   2.088   5.447 -0.5868 -1.4997  0.8176
  683MOL0     H94234   9.049   2.394   4.354  1.6666 -0.2397  0.4263
  683MOL0     H94235   8.861   2.356   4.228  0.5658 -0.0596 -2.2302
  683MOL0     H94236   8.586   2.164   3.988  0.7325  0.8631 -1.4643
  683MOL0     H94237   8.405   2.133   3.812 -2.9072 -0.4495  0.3333
  683MOL0     H94238   7.266   0.495   3.780 -0.7232 -0.7611 -0.2604
  683MOL0     H94239   7.018   0.488   3.802  1.3380 -0.5353 -1.0048
  683MOL0     H94240   6.651   0.642   3.701  0.9295  1.3079  0.4840
  683MOL0     H94241   6.414   0.580   3.676 -2.6385 -0.8470  1.9765
  683MOL0     H94242   6.215   0.692   3.678  1.5372 -1.8828  0.3140
  683MOL0     H94243   6.171   0.524   3.699  3.0708  0.5628 -0.4904
  683MOL0     H94244   5.981   0.738   3.675  0.2779  3.5698  3.3530
  683MOL0     H94245   5.985   0.731   3.834  0.8335  0.4696  0.1684
  683MOL0     H94246   5.933   0.462   3.820  1.6055  0.9628  0.6512
  683MOL0     H94247   5.804   0.582   3.818  0.2035 -0.7186 -1.0509
  683MOL0     H94248   5.828   0.585   3.566  4.2044  0.8834 -1.0034
  683MOL0     H94249   5.758   0.435   3.655 -0.0715 -2.4904 -2.6427
  683MOL0     H94250   6.103   0.274   3.480  0.8943 -0.9060  1.3153
  683MOL0     H94251   6.333   0.660   4.078 -0.6743 -0.5357 -1.1862
  683MOL0     H94252   6.692   0.715   4.178 -2.2672 -1.8225  1.4697
  683MOL0     H94253   6.566   0.847   4.175 -0.5586  0.4754  0.1143
  683MOL0     H94254   6.524   0.692   4.232  0.4332 -0.7282  0.3308
  684MOL0     O94255   7.688   3.135   3.206  0.0822  0.2102 -0.3420
  684MOL0     C94256   7.736   3.080   3.303  0.5665  1.2432 -0.3421
  684MOL0     O94257   7.875   3.072   3.349  0.5851  0.0716 -0.1020
  684MOL0     C94258   7.973   3.087   3.257 -0.4562  0.1066 -0.8633
  684MOL0     C94259   7.953   3.044   3.131  0.0750 -0.2288  0.0191
  684MOL0     C94260   8.058   3.069   3.037  0.5063  0.5372  0.3372
  684MOL0     C94261   8.176   3.131   3.063 -0.2326 -0.2674 -0.2214
  684MOL0     O94262   8.265   3.138   2.957  0.5035 -0.0678 -0.0657
  684MOL0     C94263   8.370   3.240   2.980 -0.1834 -0.0587  0.6728
  684MOL0     C94264   8.412   3.292   2.840 -0.1528  0.2296 -0.5161
  684MOL0     C94265   8.504   3.413   2.851 -0.5111  0.8436 -0.4491
  684MOL0     C94266   8.604   3.425   2.731 -0.9971 -0.0168  0.5302
  684MOL0     C94267   8.700   3.543   2.739  0.7706 -0.6182 -0.4643
  684MOL0     C94268   8.732   3.582   2.596  1.4692 -0.6428  0.3291
  684MOL0     C94269   8.824   3.714   2.581  0.4296  0.4378 -0.0488
  684MOL0     C94270   8.931   3.729   2.696 -0.2882 -1.5375  0.1293
  684MOL0     N94271   9.023   3.838   2.658  0.6333 -0.3340 -0.1204
  684MOL0     C94272   9.115   3.834   2.554  0.1820  0.3275  0.6278
  684MOL0     C94273   9.192   3.946   2.563  0.2258 -0.0700 -0.4260
  684MOL0     C94274   9.319   3.979   2.487 -0.3190  0.3914  0.0207
  684MOL0     C94275   9.444   3.950   2.571  1.1580 -0.4286 -0.4924
  684MOL0     C94276   9.566   3.994   2.489 -0.4289  0.4792 -0.6816
  684MOL0     C94277   9.690   3.990   2.575  0.3720 -0.2646  1.0659
  684MOL0     O94278   9.790   4.040   2.481  0.6213 -0.3301  0.3305
  684MOL0     C94279   9.923   4.045   2.518 -0.3144  0.1125 -0.6262
  684MOL0     C94280  10.015   4.084   2.422  0.8843  0.0372 -0.2651
  684MOL0     C94281  10.153   4.076   2.442 -0.9207 -1.5165 -0.2862
  684MOL0     C94282  10.249   4.109   2.322  0.7212  0.3795  0.6002
  684MOL0     C94283  10.205   4.055   2.569  0.3407  0.3032 -0.1471
  684MOL0     C94284  10.353   4.059   2.602 -0.0296 -0.0218 -0.3358
  684MOL0     O94285  10.413   4.168   2.556 -0.8374 -0.2300  1.1558
  684MOL0     C94286  10.550   4.173   2.554 -0.1082  0.1401  0.0719
  684MOL0     C94287  10.634   4.177   2.668  0.3236 -0.2408 -0.1382
  684MOL0     C94288  10.772   4.170   2.645  0.0999 -0.1481  0.5644
  684MOL0     C94289  10.832   4.148   2.518  0.1109  0.4169  0.4938
  684MOL0     O94290  10.969   4.134   2.514  0.2849  0.3560 -0.1107
  684MOL0     C94291  11.019   4.025   2.436 -0.0919 -0.6928 -0.0315
  684MOL0     C94292  11.126   4.077   2.349  0.0339  0.2143 -0.4804
  684MOL0     C94293  11.238   4.130   2.434 -0.5568  0.5256 -0.0939
  684MOL0     C94294  11.372   4.127   2.356  0.5129  0.1286  0.0629
  684MOL0     C94295  11.487   4.205   2.429 -0.0277 -0.0030  0.3451
  684MOL0     C94296  11.631   4.180   2.374 -1.0182 -0.2177  0.1209
  684MOL0     C94297  11.730   4.240   2.472 -0.0438 -0.6573 -0.4469
  684MOL0     C94298  11.753   4.390   2.487 -0.6349  0.7631 -0.0075
  684MOL0    Cl94299  11.878   4.429   2.606 -0.0745  0.1597  0.1983
  684MOL0     C94300  10.748   4.144   2.412 -0.0605 -0.4329 -0.2304
  684MOL0     C94301  10.606   4.153   2.426 -0.3956  0.5431  0.8234
  684MOL0     O94302  10.387   3.981   2.692  0.0717  0.4878  0.6881
  684MOL0     C94303  10.108   4.048   2.677 -0.5836 -0.1476  0.4931
  684MOL0     C94304   9.969   4.035   2.649 -0.0619  0.2174  0.4530
  684MOL0     N94305   9.131   4.016   2.664 -0.2711  0.1789 -0.3698
  684MOL0     N94306   9.042   3.951   2.729  0.0099 -0.1795 -0.0166
  684MOL0     C94307   8.195   3.172   3.199 -0.0981 -0.0448 -0.5983
  684MOL0     C94308   8.098   3.148   3.298 -0.0326  0.2935  0.0239
  684MOL0     C94309   7.635   3.021   3.405 -0.0655  0.9361 -0.1930
  684MOL0     C94310   7.687   2.945   3.522  0.3977 -0.2811  0.4911
  684MOL0     C94311   7.605   2.885   3.618 -0.1666 -0.5282  0.2749
  684MOL0     C94312   7.469   2.907   3.607  0.3519  0.7089 -0.3379
  684MOL0     O94313   7.379   2.846   3.704 -0.1241  0.1605 -0.3439
  684MOL0     C94314   7.418   2.864   3.836 -0.1730 -0.4086 -0.9067
  684MOL0     C94315   7.369   2.995   3.906 -0.5645  0.6574  0.3338
  684MOL0     C94316   7.218   3.000   3.917  0.2658  0.3132  0.4236
  684MOL0     C94317   7.148   3.028   3.778  1.0390 -1.2052 -0.6521
  684MOL0     C94318   7.005   3.079   3.785 -0.9816 -0.3204 -0.7045
  684MOL0     C94319   6.892   3.109   3.816  0.4739  0.3882 -0.6741
  684MOL0     C94320   7.409   2.969   3.491 -0.1284 -0.6433 -0.0035
  684MOL0     C94321   7.491   3.028   3.392 -0.8610 -0.8530 -0.4129
  684MOL0     C94322   7.411   3.109   3.289  0.0505 -0.1532  0.0409
  684MOL0     H94323   7.859   2.998   3.104  0.6688 -1.6621  0.3283
  684MOL0     H94324   8.033   3.033   2.938 -1.5213 -0.2070  1.0654
  684MOL0     H94325   8.468   3.200   3.007  0.8385  0.8964 -1.3918
  684MOL0     H94326   8.337   3.323   3.042  0.9158  0.9731 -0.0847
  684MOL0     H94327   8.467   3.221   2.777  2.0311 -0.2838  1.7867
  684MOL0     H94328   8.326   3.318   2.777 -1.7919 -4.4361 -0.6271
  684MOL0     H94329   8.439   3.500   2.854 -1.3287  0.2325  0.0172
  684MOL0     H94330   8.561   3.404   2.945 -1.0921 -0.2485 -0.1772
  684MOL0     H94331   8.652   3.331   2.701 -0.4232  1.2436 -3.1223
  684MOL0     H94332   8.537   3.443   2.646 -0.4920  0.8656  0.3082
  684MOL0     H94333   8.791   3.511   2.789  0.8453 -1.1418 -0.9274
  684MOL0     H94334   8.656   3.632   2.786 -0.1818 -1.6806  0.7225
  684MOL0     H94335   8.770   3.492   2.547  0.7353 -1.5904  1.4709
  684MOL0     H94336   8.633   3.611   2.560  1.3835 -1.7872 -0.3848
  684MOL0     H94337   8.754   3.798   2.591  1.7028  1.3657  1.7503
  684MOL0     H94338   8.882   3.712   2.488  0.2410 -0.9257 -0.1528
  684MOL0     H94339   8.888   3.752   2.794  3.7383 -0.1219  1.7598
  684MOL0     H94340   8.992   3.640   2.707  3.7820  1.1663  1.7616
  684MOL0     H94341   9.134   3.753   2.485  0.2516 -0.0969  1.1427
  684MOL0     H94342   9.321   4.085   2.459  1.0312  0.7174  1.2231
  684MOL0     H94343   9.316   3.922   2.394  2.1623  0.8302 -0.4218
  684MOL0     H94344   9.441   4.007   2.664 -1.2956  0.3780 -0.9736
  684MOL0     H94345   9.445   3.843   2.592 -1.0640 -0.0108  2.4541
  684MOL0     H94346   9.570   3.916   2.412 -0.4544 -3.6363  3.0984
  684MOL0     H94347   9.536   4.092   2.450 -0.6143  1.0709  0.8904
  684MOL0     H94348   9.684   4.065   2.654 -0.4240  0.1849  0.5869
  684MOL0     H94349   9.699   3.890   2.620  0.5826  0.1076  1.8713
  684MOL0     H94350   9.976   4.114   2.325 -1.9555 -2.8132 -0.1862
  684MOL0     H94351  10.337   4.044   2.323  0.6260  0.0970 -1.9408
  684MOL0     H94352  10.277   4.213   2.307  2.2108 -0.1948 -0.8647
  684MOL0     H94353  10.200   4.085   2.227 -2.7984  3.6617  1.3391
  684MOL0     H94354  10.589   4.207   2.762  0.3731 -0.5544 -0.0114
  684MOL0     H94355  10.845   4.175   2.725 -0.2121  0.5075  0.8098
  684MOL0     H94356  11.070   3.961   2.507 -0.2788 -0.0604  0.6793
  684MOL0     H94357  10.940   3.978   2.377  1.0157 -2.3714 -0.2317
  684MOL0     H94358  11.141   3.992   2.282 -2.6140 -1.5972  1.0836
  684MOL0     H94359  11.089   4.159   2.286 -1.0541 -1.6375 -2.3770
  684MOL0     H94360  11.244   4.068   2.524 -3.6409  1.0037  0.5672
  684MOL0     H94361  11.225   4.229   2.479  1.8638  0.6260  0.4944
  684MOL0     H94362  11.357   4.168   2.255 -0.0498  1.1454  0.5516
  684MOL0     H94363  11.404   4.023   2.340  0.4613 -0.3793  2.8493
  684MOL0     H94364  11.469   4.313   2.428  1.5309  0.3190 -2.1560
  684MOL0     H94365  11.481   4.164   2.530  2.4495 -3.9308 -0.8934
  684MOL0     H94366  11.632   4.234   2.278 -0.7957 -1.6110 -0.6897
  684MOL0     H94367  11.651   4.076   2.347  1.1866  0.1098  0.3763
  684MOL0     H94368  11.831   4.207   2.444  0.0452  0.5710 -1.6383
  684MOL0     H94369  11.721   4.195   2.572  3.2310  3.6071  2.1201
  684MOL0     H94370  11.663   4.445   2.517  0.1426  2.2084 -0.2485
  684MOL0     H94371  11.796   4.420   2.392  0.3548 -1.4863 -0.3429
  684MOL0     H94372  10.784   4.137   2.310 -2.6314  2.6328 -1.4887
  684MOL0     H94373  10.535   4.137   2.346 -2.0998 -1.5826  2.6393
  684MOL0     H94374  10.150   4.037   2.776  2.1452  0.8062 -0.4554
  684MOL0     H94375   9.902   3.990   2.721  0.5222 -0.9985  0.2589
  684MOL0     H94376   8.294   3.204   3.230  0.9053 -2.2499 -1.3191
  684MOL0     H94377   8.111   3.171   3.403  1.3963  2.2903 -0.5255
  684MOL0     H94378   7.793   2.922   3.527  0.1399 -1.3943  1.2114
  684MOL0     H94379   7.652   2.815   3.686  1.3721  0.3881  0.2076
  684MOL0     H94380   7.363   2.780   3.880 -0.2536  0.4612  0.7225
  684MOL0     H94381   7.524   2.846   3.854  0.2645  0.0140 -2.9124
  684MOL0     H94382   7.414   3.079   3.853 -1.2011  0.7577 -0.0452
  684MOL0     H94383   7.399   3.005   4.011 -0.0681  1.8730  0.0892
  684MOL0     H94384   7.176   2.906   3.954 -2.6979  1.4675  0.3154
  684MOL0     H94385   7.187   3.074   3.991 -3.3256 -1.0998  0.5376
  684MOL0     H94386   7.154   2.927   3.735  3.4774 -1.5045  0.2851
  684MOL0     H94387   7.189   3.105   3.712 -1.9733  0.8983 -0.2722
  684MOL0     H94388   6.785   3.111   3.815  0.4509 -0.4945 -0.8570
  684MOL0     H94389   7.303   2.986   3.478 -0.4855 -1.9935  0.9354
  684MOL0     H94390   7.449   3.085   3.189  1.2611  1.5214  0.0662
  684MOL0     H94391   7.303   3.092   3.288 -0.2330  1.4273  0.8118
  684MOL0     H94392   7.417   3.216   3.313 -1.7621 -0.5086  2.4677
  685MOL0     O94393   2.901  11.025   9.759  0.8606  0.0163  0.5993
  685MOL0     C94394   2.954  11.125   9.719 -0.5789 -0.9606 -0.5387
  685MOL0     O94395   2.937  11.249   9.782 -0.9302  0.0400 -0.3490
  685MOL0     C94396   2.831  11.269   9.868  0.5764  0.4412  0.2562
  685MOL0     C94397   2.705  11.295   9.816  0.1108 -0.8887  0.0492
  685MOL0     C94398   2.595  11.325   9.909  0.5119 -0.1889  0.5176
  685MOL0     C94399   2.616  11.321  10.043 -0.1954  0.1493  0.4127
  685MOL0     O94400   2.509  11.327  10.124  0.2729 -0.2976  0.8478
  685MOL0     C94401   2.518  11.286  10.260  0.2565  1.1516 -0.4160
  685MOL0     C94402   2.500  11.124  10.279  0.8945  0.4379  1.0713
  685MOL0     C94403   2.358  11.078  10.261 -0.2029  0.0994 -0.3518
  685MOL0     C94404   2.352  10.927  10.287  0.9008 -0.0238 -0.4437
  685MOL0     C94405   2.212  10.877  10.228 -0.3160  0.2565 -0.5273
  685MOL0     C94406   2.228  10.721  10.244  0.0980 -0.0657  0.7731
  685MOL0     C94407   2.096  10.659  10.212 -0.5206 -0.0686 -1.0104
  685MOL0     C94408   2.074  10.528  10.288 -0.3861 -0.4545 -0.1827
  685MOL0     N94409   2.027  10.544  10.423  0.4416  0.2261 -0.2590
  685MOL0     C94410   1.921  10.474  10.471 -0.4021  0.2577  0.8600
  685MOL0     C94411   1.918  10.506  10.601 -0.6900 -0.4354 -0.9814
  685MOL0     C94412   1.799  10.470  10.691 -0.7972  0.5852 -0.0657
  685MOL0     C94413   1.719  10.599  10.741 -0.4328  0.7318 -0.7378
  685MOL0     C94414   1.569  10.586  10.778 -0.6810 -0.4709  0.5172
  685MOL0     C94415   1.537  10.493  10.899 -1.1857  0.0430  0.7636
  685MOL0     O94416   1.518  10.357  10.853 -0.5035  0.2226  0.6368
  685MOL0     C94417   1.396  10.307  10.824  0.3329 -0.2189  0.2533
  685MOL0     C94418   1.383  10.169  10.794 -0.0927  0.7899 -0.6208
  685MOL0     C94419   1.255  10.110  10.766 -0.3928  0.3405 -1.0391
  685MOL0     C94420   1.257   9.953  10.744  0.7142 -0.0876  0.0214
  685MOL0     C94421   1.139  10.186  10.775 -0.3469  0.1526 -0.6343
  685MOL0     C94422   0.994  10.133  10.756 -0.8580 -0.0874  0.4392
  685MOL0     O94423   0.890  10.224  10.723  0.1695 -0.4184  0.3476
  685MOL0     C94424   0.765  10.176  10.664 -0.4740 -0.2636 -0.0301
  685MOL0     C94425   0.728  10.205  10.537  0.6073  0.2371 -0.4171
  685MOL0     C94426   0.610  10.154  10.477  0.3063  1.2112  0.1787
  685MOL0     C94427   0.531  10.058  10.544  0.3238 -0.4525  0.7004
  685MOL0     O94428   0.421  10.014  10.473 -0.3643 -0.3278  0.7787
  685MOL0     C94429   0.395   9.874  10.459  0.6487  0.5281 -0.7603
  685MOL0     C94430   0.252   9.847  10.399 -0.3373  0.0545 -0.1127
  685MOL0     C94431   0.269   9.872  10.244  1.6338  0.1533 -0.3415
  685MOL0     C94432   0.160   9.790  10.182  0.0999 -0.5842  0.0831
  685MOL0     C94433   0.178   9.783  10.029 -0.7384  0.2382  0.4996
  685MOL0     C94434   0.090   9.666   9.976 -0.2954 -0.4419  0.5599
  685MOL0     C94435   0.037   9.675   9.835 -0.6334 -0.1589  0.3071
  685MOL0     C94436   0.167   9.643   9.754 -0.5011  0.4220 -0.9875
  685MOL0    Cl94437   0.148   9.603   9.579 -0.0670 -0.2450  0.1715
  685MOL0     C94438   0.566  10.035  10.680 -0.0548 -0.2439  0.4018
  685MOL0     C94439   0.682  10.087  10.735 -0.1336 -0.5345 -0.7992
  685MOL0     O94440   0.975  10.013  10.767 -0.6328 -0.2511  0.1135
  685MOL0     C94441   1.159  10.325  10.794  0.2036  0.4689 -0.2511
  685MOL0     C94442   1.280  10.387  10.806 -0.4305  0.0394  0.2343
  685MOL0     N94443   2.021  10.591  10.630 -0.5710  0.0300 -0.4401
  685MOL0     N94444   2.083  10.617  10.524  0.1807  0.0212 -0.5848
  685MOL0     C94445   2.748  11.300  10.089  0.4565  0.0500 -0.0180
  685MOL0     C94446   2.857  11.272  10.002  0.7494  0.2398 -0.6276
  685MOL0     C94447   3.032  11.118   9.597 -0.2523  0.2782  0.3741
  685MOL0     C94448   3.086  10.988   9.557  0.6513 -0.5573  0.7734
  685MOL0     C94449   3.166  10.975   9.451 -0.0936 -0.1992  0.6275
  685MOL0     C94450   3.198  11.077   9.351  0.1855  0.1686 -0.3286
  685MOL0     O94451   3.265  11.049   9.231  0.1538  0.4377 -0.5593
  685MOL0     C94452   3.289  10.916   9.187  0.1952 -0.4589 -0.2039
  685MOL0     C94453   3.428  10.866   9.236  0.3090  0.3526  0.2394
  685MOL0     C94454   3.550  10.939   9.169  0.0602 -0.0042  0.4308
  685MOL0     C94455   3.570  10.917   9.022  0.7849  0.3373 -0.2214
  685MOL0     C94456   3.697  10.992   8.986  0.1591 -0.1149  0.7931
  685MOL0     C94457   3.793  11.051   8.938  0.4215 -0.4875  0.7999
  685MOL0     C94458   3.160  11.205   9.399 -0.6561  0.0143  0.6181
  685MOL0     C94459   3.068  11.221   9.502 -0.3080  0.3241  0.4104
  685MOL0     C94460   3.008  11.362   9.516  0.3215  0.2744 -0.4478
  685MOL0     H94461   2.686  11.297   9.709  1.7151 -0.1044 -0.2362
  685MOL0     H94462   2.498  11.341   9.863  0.0757 -2.1317  0.6930
  685MOL0     H94463   2.430  11.327  10.311 -2.2788 -2.3544 -1.5726
  685MOL0     H94464   2.609  11.317  10.313  2.5924 -0.1240 -3.4163
  685MOL0     H94465   2.569  11.077  10.209  0.8309  3.4614 -1.2623
  685MOL0     H94466   2.524  11.107  10.385  1.0141 -2.6104  0.6381
  685MOL0     H94467   2.284  11.144  10.308 -1.6188  2.0096 -4.7913
  685MOL0     H94468   2.340  11.095  10.155  1.0883  2.1361 -0.3009
  685MOL0     H94469   2.434  10.880  10.232 -0.4667  0.3206 -2.9605
  685MOL0     H94470   2.368  10.910  10.394 -2.6844  0.4155  0.2930
  685MOL0     H94471   2.203  10.907  10.123 -0.0680  2.4779  0.0389
  685MOL0     H94472   2.125  10.915  10.282 -0.9483 -1.5380 -0.2266
  685MOL0     H94473   2.304  10.685  10.175 -0.4421  0.9273 -0.3804
  685MOL0     H94474   2.252  10.697  10.348 -0.6330 -1.7987  0.5691
  685MOL0     H94475   2.082  10.637  10.106  1.2140  1.8148 -1.6776
  685MOL0     H94476   2.011  10.725  10.235 -0.5841 -0.6253  0.4339
  685MOL0     H94477   2.002  10.462  10.237  0.8366 -0.6487 -1.7466
  685MOL0     H94478   2.166  10.468  10.285  0.0802 -0.0929  3.3042
  685MOL0     H94479   1.849  10.412  10.418 -0.9756 -0.7592  2.7600
  685MOL0     H94480   1.843  10.418  10.777 -2.3509 -1.6385 -0.5283
  685MOL0     H94481   1.723  10.408  10.645  0.1605 -1.1476  0.6026
  685MOL0     H94482   1.771  10.633  10.832  1.5154  0.1968 -1.6086
  685MOL0     H94483   1.731  10.681  10.670 -0.8016  0.9390 -0.5645
  685MOL0     H94484   1.537  10.690  10.789  0.6007  0.1183 -0.8792
  685MOL0     H94485   1.512  10.553  10.691 -0.5081  1.1954 -0.2547
  685MOL0     H94486   1.622  10.504  10.967  1.0368  0.9252 -1.9408
  685MOL0     H94487   1.452  10.547  10.939 -0.3869  0.8024  1.4794
  685MOL0     H94488   1.478  10.117  10.783 -0.2028  0.4631 -0.0260
  685MOL0     H94489   1.225   9.901  10.834 -1.7610  1.2278 -0.0138
  685MOL0     H94490   1.358   9.923  10.714  1.4682 -1.1707  3.2416
  685MOL0     H94491   1.178   9.937  10.670  1.6457  1.4052 -1.3818
  685MOL0     H94492   0.793  10.262  10.471  0.3747 -0.6851 -1.4827
  685MOL0     H94493   0.584  10.171  10.373  0.2186 -1.0286 -0.2191
  685MOL0     H94494   0.469   9.816  10.402 -0.0881 -0.7649 -0.4577
  685MOL0     H94495   0.396   9.834  10.561  0.8041  1.3512 -0.4343
  685MOL0     H94496   0.219   9.746  10.427 -0.5404  0.1302 -0.0807
  685MOL0     H94497   0.174   9.919  10.425 -1.4939 -0.6841 -1.3750
  685MOL0     H94498   0.366   9.843  10.202  2.1730  3.2113 -1.5078
  685MOL0     H94499   0.240   9.975  10.220  0.3234 -0.3574 -1.0525
  685MOL0     H94500   0.070   9.838  10.223  0.7858  2.1708 -1.3773
  685MOL0     H94501   0.174   9.687  10.215  1.1882 -1.1808 -2.0931
  685MOL0     H94502   0.141   9.875   9.985  2.6270  1.6143  0.2301
  685MOL0     H94503   0.279   9.779   9.987 -2.0725  3.2273 -3.6064
  685MOL0     H94504  -0.000   9.677  10.037 -0.5409  1.1652 -0.0296
  685MOL0     H94505   0.133   9.570  10.004  0.5979 -0.0506  0.5718
  685MOL0     H94506   0.017   9.780   9.812  1.6527 -0.1325 -1.9563
  685MOL0     H94507  -0.041   9.600   9.821  0.0130 -0.3803 -2.6954
  685MOL0     H94508   0.204   9.549   9.796  2.6763  1.3368 -1.5143
  685MOL0     H94509   0.244   9.717   9.774  0.3593 -0.1727 -1.9844
  685MOL0     H94510   0.511   9.962  10.739 -1.2138 -0.4780 -0.9075
  685MOL0     H94511   0.714  10.066  10.837 -0.0685 -1.0517 -0.9226
  685MOL0     H94512   1.072  10.390  10.800 -0.6170 -0.7210  1.2402
  685MOL0     H94513   1.279  10.493  10.828 -0.8156 -0.1696  1.2887
  685MOL0     H94514   2.776  11.295  10.193  0.1524  3.0645  0.2988
  685MOL0     H94515   2.959  11.253  10.034 -0.2406  2.1272  4.8843
  685MOL0     H94516   3.048  10.902   9.611 -1.5307  0.7791  1.5143
  685MOL0     H94517   3.197  10.873   9.431  1.4061  0.3589 -0.0255
  685MOL0     H94518   3.219  10.841   9.226 -2.6422  1.8181 -0.5714
  685MOL0     H94519   3.285  10.911   9.078  1.7098 -0.7263 -0.2619
  685MOL0     H94520   3.446  10.761   9.212  1.0233  0.0945  1.7577
  685MOL0     H94521   3.432  10.878   9.345 -0.3772 -1.4761  0.4989
  685MOL0     H94522   3.553  11.047   9.185 -1.4257  0.3367 -1.2992
  685MOL0     H94523   3.635  10.892   9.219  1.4184 -0.5975 -2.2546
  685MOL0     H94524   3.485  10.968   8.975  1.2356 -0.0259 -1.4760
  685MOL0     H94525   3.574  10.813   8.987 -2.8935  0.4025 -1.2947
  685MOL0     H94526   3.880  11.099   8.897  1.4585 -0.7183  2.6238
  685MOL0     H94527   3.200  11.280   9.332 -1.0367  1.7213  2.2324
  685MOL0     H94528   3.060  11.413   9.598  1.8702 -1.8801  0.0050
  685MOL0     H94529   3.016  11.406   9.416  0.6457  0.3771 -0.3772
  685MOL0     H94530   2.900  11.358   9.534  0.2668  1.3387 -0.4607
  686MOL0     O94531   7.576   7.822  10.672 -0.1750 -0.1591 -0.5494
  686MOL0     C94532   7.555   7.781  10.789  0.2648 -0.2066 -0.8652
  686MOL0     O94533   7.635   7.810  10.903  0.3355 -0.1582  0.0624
  686MOL0     C94534   7.746   7.894  10.904  0.2125 -0.1521 -0.7576
  686MOL0     C94535   7.804   7.980  10.807 -0.6928 -0.2332 -0.0967
  686MOL0     C94536   7.936   8.032  10.828 -0.4415  0.0261  0.7344
  686MOL0     C94537   8.002   8.018  10.948 -0.3223 -0.5115  0.7566
  686MOL0     O94538   8.115   8.094  10.968 -0.0156 -0.0664  0.4471
  686MOL0     C94539   8.207   8.050  11.061 -0.2027 -0.5865 -0.3066
  686MOL0     C94540   8.334   8.126  11.055  0.8302 -0.6312  0.4194
  686MOL0     C94541   8.334   8.231  11.166  0.6426  0.2247  0.4566
  686MOL0     C94542   8.470   8.310  11.172 -0.8022  0.9746 -0.1511
  686MOL0     C94543   8.459   8.413  11.289  0.4301  0.2408 -0.1610
  686MOL0     C94544   8.600   8.457  11.323  1.2157  0.1960  0.0065
  686MOL0     C94545   8.584   8.577  11.424  0.2107 -0.3683  0.1374
  686MOL0     C94546   8.710   8.648  11.447  0.2713  0.1332  0.3312
  686MOL0     N94547   8.775   8.708  11.332 -0.6783 -0.5534 -0.0785
  686MOL0     C94548   8.713   8.734  11.211  0.0874 -0.3241 -0.2662
  686MOL0     C94549   8.799   8.772  11.132  0.3018 -0.0038 -0.1445
  686MOL0     C94550   8.802   8.791  10.978  0.2618 -0.7118 -0.2114
  686MOL0     C94551   8.663   8.773  10.920  0.4485 -0.1678  0.0945
  686MOL0     C94552   8.612   8.623  10.905  0.8285 -1.1903  0.4454
  686MOL0     C94553   8.465   8.618  10.838 -0.6693 -0.0973  0.1856
  686MOL0     O94554   8.364   8.613  10.934  0.5750  0.4111  0.1149
  686MOL0     C94555   8.238   8.595  10.895  0.1187 -0.9033 -0.8580
  686MOL0     C94556   8.146   8.551  10.995  0.8184  0.0182  0.1153
  686MOL0     C94557   8.005   8.519  10.959 -0.6078  0.5111 -0.2066
  686MOL0     C94558   7.931   8.468  11.079  0.6574  0.0387 -0.3573
  686MOL0     C94559   7.969   8.522  10.827 -0.0043  0.0109 -0.4380
  686MOL0     C94560   7.832   8.488  10.774 -0.1616  0.6976 -0.3066
  686MOL0     O94561   7.735   8.461  10.866  0.7683  0.5513  0.7973
  686MOL0     C94562   7.610   8.440  10.812 -0.1942 -0.2191 -0.2324
  686MOL0     C94563   7.576   8.332  10.735  0.4295  0.5832  0.0227
  686MOL0     C94564   7.440   8.310  10.706  0.5107 -0.0702  0.5597
  686MOL0     C94565   7.335   8.399  10.744  0.4665  0.2446  0.3441
  686MOL0     O94566   7.199   8.389  10.715 -0.6747  0.4152 -0.0295
  686MOL0     C94567   7.162   8.266  10.649  0.5372 -0.1286 -0.2807
  686MOL0     C94568   7.004   8.265  10.657  0.1638  0.7666 -0.6792
  686MOL0     C94569   6.956   8.142  10.587  0.1520 -0.6761  0.3495
  686MOL0     C94570   6.955   8.011  10.677  0.3272 -1.2044  0.7053
  686MOL0     C94571   6.830   8.019  10.764  0.3016 -0.4697  0.5627
  686MOL0     C94572   6.833   7.911  10.864 -0.5157  0.7966 -0.2553
  686MOL0     C94573   6.819   7.774  10.798 -0.1540 -0.8950 -0.2053
  686MOL0     C94574   6.805   7.672  10.912  0.2503 -0.4388 -0.1920
  686MOL0    Cl94575   6.756   7.532  10.826  0.3438 -0.3775  0.0813
  686MOL0     C94576   7.371   8.509  10.817  0.2389  0.5265  0.1956
  686MOL0     C94577   7.510   8.535  10.845 -0.2246 -0.2866  0.8033
  686MOL0     O94578   7.809   8.490  10.657 -0.2419  0.7182  0.6185
  686MOL0     C94579   8.061   8.573  10.736 -0.0885  0.8844  1.6168
  686MOL0     C94580   8.195   8.601  10.766  0.4237 -0.6544  0.6723
  686MOL0     N94581   8.920   8.771  11.193 -0.0212 -0.0522  0.0285
  686MOL0     N94582   8.910   8.730  11.315 -0.5646 -0.2827 -0.0079
  686MOL0     C94583   7.949   7.930  11.041 -1.0566 -0.2415 -0.0907
  686MOL0     C94584   7.824   7.880  11.020  0.6230  0.3584  0.6875
  686MOL0     C94585   7.442   7.690  10.822 -1.1785 -0.6401 -0.0014
  686MOL0     C94586   7.458   7.576  10.903 -0.0203 -1.2849 -1.4387
  686MOL0     C94587   7.348   7.479  10.910 -0.0580  0.8800 -0.1856
  686MOL0     C94588   7.229   7.496  10.844 -0.4068 -0.7580  0.5255
  686MOL0     O94589   7.115   7.422  10.868 -0.3577  0.7697 -0.2025
  686MOL0     C94590   7.093   7.362  10.993 -0.4881 -0.5941  0.5279
  686MOL0     C94591   7.032   7.225  10.967  0.3674 -0.5192 -0.0876
  686MOL0     C94592   6.894   7.230  10.898  0.5228 -0.6343 -0.0948
  686MOL0     C94593   6.838   7.093  10.849 -0.2229  0.2506 -0.5965
  686MOL0     C94594   6.792   7.006  10.958  0.8233 -0.3630  0.4781
  686MOL0     C94595   6.746   6.929  11.041 -0.8698 -0.8723  0.6542
  686MOL0     C94596   7.221   7.617  10.761 -0.2547 -0.2665 -0.3923
  686MOL0     C94597   7.322   7.711  10.751  1.0451 -0.1822 -1.0051
  686MOL0     C94598   7.285   7.830  10.671  0.4214 -0.7947  1.2612
  686MOL0     H94599   7.749   7.993  10.714 -0.4038  0.3105 -0.1935
  686MOL0     H94600   7.967   8.109  10.758  0.5648  0.2503  1.4026
  686MOL0     H94601   8.230   7.944  11.045  0.6882 -0.7714  1.8963
  686MOL0     H94602   8.173   8.056  11.165  0.9143  1.8403  0.0045
  686MOL0     H94603   8.424   8.064  11.056  1.7615  0.2103 -4.8309
  686MOL0     H94604   8.331   8.181  10.960 -2.3324 -1.5759 -0.1435
  686MOL0     H94605   8.256   8.302  11.136 -2.5268 -3.2310 -0.2891
  686MOL0     H94606   8.326   8.182  11.263  2.5793 -0.3535  0.3510
  686MOL0     H94607   8.549   8.237  11.196  0.6282  2.5143  0.0580
  686MOL0     H94608   8.501   8.352  11.076 -0.5377 -1.6096 -1.2903
  686MOL0     H94609   8.426   8.359  11.378 -0.2133 -0.3909 -0.7684
  686MOL0     H94610   8.391   8.498  11.271  0.4667  1.0487  2.9981
  686MOL0     H94611   8.677   8.385  11.352  5.2983  2.9925 -2.7159
  686MOL0     H94612   8.653   8.492  11.234 -0.3796  2.2659 -0.2102
  686MOL0     H94613   8.532   8.541  11.513 -0.2235  1.8261  0.8338
  686MOL0     H94614   8.511   8.633  11.365  0.7131 -2.7660 -3.0739
  686MOL0     H94615   8.690   8.727  11.520  1.4870  1.1945 -0.4443
  686MOL0     H94616   8.788   8.584  11.489 -0.6835 -1.8715 -0.8157
  686MOL0     H94617   8.607   8.731  11.188  0.0884 -3.3351 -0.3633
  686MOL0     H94618   8.868   8.712  10.940  0.6740  0.2324 -1.5405
  686MOL0     H94619   8.839   8.886  10.938 -0.9687 -0.4397 -0.7599
  686MOL0     H94620   8.604   8.840  10.983  4.0241 -0.6217  4.4773
  686MOL0     H94621   8.657   8.823  10.823  1.2170 -2.6899 -1.3358
  686MOL0     H94622   8.675   8.549  10.854  2.0087 -0.4512  0.7895
  686MOL0     H94623   8.604   8.585  11.007  1.5120 -0.3046  0.8380
  686MOL0     H94624   8.450   8.708  10.779  0.0046  1.8555  2.8174
  686MOL0     H94625   8.459   8.531  10.771  0.4864  0.0559 -0.1309
  686MOL0     H94626   8.198   8.542  11.090  0.1833 -1.4911  0.3526
  686MOL0     H94627   7.955   8.361  11.079  2.1833  0.2702  3.0262
  686MOL0     H94628   7.826   8.499  11.082  0.3899 -0.8939  0.2977
  686MOL0     H94629   7.971   8.503  11.174 -2.3692 -0.3745  1.1824
  686MOL0     H94630   7.649   8.261  10.698  0.6749  0.9998 -0.3020
  686MOL0     H94631   7.412   8.224  10.646  0.8922 -0.8660  1.5105
  686MOL0     H94632   7.185   8.278  10.542 -1.7338  0.8360 -0.7148
  686MOL0     H94633   7.203   8.177  10.698  2.8096  1.1676  0.2840
  686MOL0     H94634   6.977   8.276  10.763  1.8979 -0.2162 -0.0960
  686MOL0     H94635   6.983   8.354  10.597  3.8785  1.6418 -0.8910
  686MOL0     H94636   7.023   8.133  10.501  0.3988 -2.9252  0.7033
  686MOL0     H94637   6.852   8.158  10.556 -0.1705  0.4467  1.8965
  686MOL0     H94638   7.048   8.001  10.734 -0.1844 -2.2358  1.3986
  686MOL0     H94639   6.946   7.929  10.605 -2.8370 -0.7527  0.4366
  686MOL0     H94640   6.827   8.118  10.812  0.5019 -0.3768  0.3879
  686MOL0     H94641   6.738   8.018  10.705  1.2700  3.1799 -1.2985
  686MOL0     H94642   6.745   7.934  10.925 -0.2598 -0.6639  0.7159
  686MOL0     H94643   6.923   7.919  10.925 -0.1731 -0.4829 -0.5759
  686MOL0     H94644   6.905   7.750  10.734  2.7669 -0.0349  3.0996
  686MOL0     H94645   6.733   7.772  10.730 -1.1098 -0.6236  0.9774
  686MOL0     H94646   6.737   7.719  10.984 -0.7681 -0.3337 -1.1893
  686MOL0     H94647   6.905   7.651  10.950  0.2437  0.3752  0.3011
  686MOL0     H94648   7.300   8.579  10.860  0.0691  1.6843 -1.8113
  686MOL0     H94649   7.531   8.624  10.905  3.1002 -0.6799  0.3985
  686MOL0     H94650   8.034   8.585  10.631 -2.5271  0.0674  2.0922
  686MOL0     H94651   8.261   8.632  10.686 -2.8188  2.3251 -1.1207
  686MOL0     H94652   8.003   7.916  11.134  0.6597 -0.2432 -1.0440
  686MOL0     H94653   7.795   7.812  11.101  0.0295 -0.7828 -0.4492
  686MOL0     H94654   7.553   7.549  10.948  0.1775 -2.0401 -2.2790
  686MOL0     H94655   7.372   7.385  10.959  2.6980 -0.0421 -2.9181
  686MOL0     H94656   7.186   7.356  11.051  0.7471  0.1550 -1.2419
  686MOL0     H94657   7.024   7.424  11.051  0.9852  1.5724  0.0910
  686MOL0     H94658   7.030   7.166  11.059  4.9430  3.1184  2.8064
  686MOL0     H94659   7.094   7.170  10.896 -1.8432 -0.8074 -1.9186
  686MOL0     H94660   6.821   7.272  10.967 -0.6113  2.4723 -2.9141
  686MOL0     H94661   6.891   7.298  10.813  1.2685 -0.4008  0.0521
  686MOL0     H94662   6.918   7.036  10.802 -1.9928 -0.2863 -3.1997
  686MOL0     H94663   6.757   7.112  10.777 -1.1447  0.7673  0.5365
  686MOL0     H94664   6.710   6.868  11.121 -0.7256 -0.1504  1.2712
  686MOL0     H94665   7.122   7.634  10.720  0.2338  0.6892 -1.2289
  686MOL0     H94666   7.291   7.810  10.564  0.3978 -0.7205  1.2459
  686MOL0     H94667   7.181   7.858  10.688  0.4266  2.2370 -2.3879
  686MOL0     H94668   7.351   7.916  10.682 -1.6531  1.1109 -0.3217
  687MOL0     O94669   4.620   2.454  11.190 -0.3878 -0.4207  0.1246
  687MOL0     C94670   4.573   2.472  11.298  0.0791  0.0843 -0.5281
  687MOL0     O94671   4.608   2.408  11.414  0.0106 -0.3045  0.6740
  687MOL0     C94672   4.680   2.293  11.386 -0.8128  0.1446  0.9417
  687MOL0     C94673   4.807   2.279  11.313  0.4804 -0.8404  0.1562
  687MOL0     C94674   4.847   2.162  11.252 -0.4443 -0.2100 -0.4258
  687MOL0     C94675   4.792   2.044  11.287 -0.3088  0.5738  0.3462
  687MOL0     O94676   4.850   1.924  11.229  1.0800 -0.0540 -0.0845
  687MOL0     C94677   4.853   1.810  11.317  0.6114  0.0774  0.1535
  687MOL0     C94678   4.956   1.696  11.287  0.4467 -0.5733  0.0625
  687MOL0     C94679   5.084   1.769  11.276  0.1905 -1.2593 -0.4645
  687MOL0     C94680   5.189   1.679  11.221 -0.2889 -0.0998  0.2265
  687MOL0     C94681   5.335   1.707  11.259 -1.2409  0.1393  0.2126
  687MOL0     C94682   5.447   1.624  11.188  0.3839  0.1520  0.5228
  687MOL0     C94683   5.587   1.670  11.237 -0.4935 -0.3686 -0.7021
  687MOL0     C94684   5.707   1.609  11.171 -0.2771 -0.9950  0.8051
  687MOL0     N94685   5.716   1.664  11.030  0.1077  0.3288 -0.9843
  687MOL0     C94686   5.695   1.580  10.918 -0.0374  0.3170 -0.3989
  687MOL0     C94687   5.696   1.666  10.813  0.1637  0.7308  0.5725
  687MOL0     C94688   5.655   1.623  10.678  0.3681  0.0274  0.3555
  687MOL0     C94689   5.545   1.710  10.606 -0.7107 -0.3480 -1.0157
  687MOL0     C94690   5.406   1.682  10.659  0.2957  0.0410  0.0952
  687MOL0     C94691   5.380   1.733  10.801  0.1911 -0.7627  1.0120
  687MOL0     O94692   5.245   1.726  10.849  0.2921 -0.2637 -0.3091
  687MOL0     C94693   5.152   1.830  10.824  0.3467  1.0141  0.9860
  687MOL0     C94694   5.170   1.937  10.731 -0.3368  0.4446  0.7869
  687MOL0     C94695   5.069   2.029  10.695 -0.1729 -1.0154 -0.9014
  687MOL0     C94696   5.111   2.133  10.589 -0.1424  0.6589 -0.1722
  687MOL0     C94697   4.940   2.003  10.749  0.9441  0.4457 -0.1787
  687MOL0     C94698   4.813   2.079  10.701 -0.6065  0.6046  0.1315
  687MOL0     O94699   4.711   2.039  10.771  0.7362 -0.7383 -0.2866
  687MOL0     C94700   4.588   2.103  10.750 -0.2383 -0.3976  0.9989
  687MOL0     C94701   4.530   2.196  10.847  0.4355 -0.0783 -0.2327
  687MOL0     C94702   4.409   2.258  10.826  0.1134  0.1441 -0.3367
  687MOL0     C94703   4.334   2.226  10.712  0.1375  0.0905 -0.1474
  687MOL0     O94704   4.223   2.305  10.708  0.5210 -0.2303  0.1852
  687MOL0     C94705   4.138   2.294  10.588  0.0529 -0.0093 -0.5859
  687MOL0     C94706   4.195   2.386  10.479 -0.2623 -0.1033  0.3655
  687MOL0     C94707   4.155   2.350  10.333 -0.1592 -0.0929 -0.5792
  687MOL0     C94708   4.125   2.470  10.253 -0.8021 -0.3514  0.0317
  687MOL0     C94709   4.098   2.468  10.101 -0.3077  0.6201 -0.0186
  687MOL0     C94710   3.948   2.435  10.063 -0.7044  0.6212 -0.2258
  687MOL0     C94711   3.913   2.290  10.089  0.5277 -0.2206 -0.7915
  687MOL0     C94712   3.808   2.230  10.005  0.0983 -0.4571 -0.6100
  687MOL0    Cl94713   3.668   2.340   9.997  0.2662 -0.2217 -0.9148
  687MOL0     C94714   4.392   2.147  10.612  0.5866  0.5514  0.2995
  687MOL0     C94715   4.512   2.077  10.635  0.7312 -0.4390  0.3958
  687MOL0     O94716   4.814   2.149  10.600  0.0529  0.1477  0.5966
  687MOL0     C94717   4.924   1.899  10.850  0.5171 -0.1116  0.9516
  687MOL0     C94718   5.027   1.816  10.882 -0.5736  0.0020 -0.6254
  687MOL0     N94719   5.695   1.793  10.866 -0.6917  0.0513  1.0183
  687MOL0     N94720   5.700   1.796  10.991 -0.6493  0.2136  0.0110
  687MOL0     C94721   4.676   2.054  11.370  0.2299  0.7763  0.2258
  687MOL0     C94722   4.619   2.174  11.404  0.1226 -0.0032  0.2128
  687MOL0     C94723   4.453   2.559  11.310 -0.1552 -0.0899 -0.6714
  687MOL0     C94724   4.377   2.545  11.425  0.3711 -0.4059 -0.2080
  687MOL0     C94725   4.253   2.605  11.439 -0.5295  0.5029  0.0675
  687MOL0     C94726   4.194   2.671  11.336  0.3254  0.3439 -0.1855
  687MOL0     O94727   4.071   2.728  11.349  0.3936 -0.4232  0.1358
  687MOL0     C94728   3.995   2.728  11.474  0.4305  0.2429 -0.9731
  687MOL0     C94729   3.936   2.588  11.496 -0.4414 -0.1573  0.2966
  687MOL0     C94730   3.815   2.572  11.405 -0.4075 -0.0666  0.1071
  687MOL0     C94731   3.700   2.633  11.471  0.5911 -0.5011 -0.0777
  687MOL0     C94732   3.580   2.634  11.385  0.4345 -0.5951  0.1274
  687MOL0     C94733   3.478   2.634  11.312 -1.1801  0.3455  0.4959
  687MOL0     C94734   4.269   2.697  11.223  0.7422  0.8825 -0.1021
  687MOL0     C94735   4.403   2.642  11.206  0.0035  0.6353  0.1571
  687MOL0     C94736   4.475   2.666  11.074  0.1632  0.1171 -0.5592
  687MOL0     H94737   4.849   2.371  11.274  1.0679 -0.8916  0.6556
  687MOL0     H94738   4.927   2.156  11.179 -2.6043 -1.6853 -2.8467
  687MOL0     H94739   4.755   1.762  11.306  1.2491 -1.1943 -0.1429
  687MOL0     H94740   4.866   1.852  11.417 -0.1508  0.0489  0.2743
  687MOL0     H94741   4.947   1.619  11.364 -1.3098 -1.9746 -1.4502
  687MOL0     H94742   4.934   1.663  11.185  3.4151  2.6019 -1.8301
  687MOL0     H94743   5.075   1.854  11.208  1.4577  0.5779  1.5492
  687MOL0     H94744   5.116   1.816  11.369  1.8934  0.1567 -1.7139
  687MOL0     H94745   5.177   1.575  11.254 -1.5297  0.8558  3.1077
  687MOL0     H94746   5.185   1.688  11.112  0.3079  0.9655  0.2852
  687MOL0     H94747   5.346   1.680  11.364 -0.9401 -1.9710 -0.3159
  687MOL0     H94748   5.373   1.807  11.236  0.9779 -0.0003  2.7679
  687MOL0     H94749   5.418   1.518  11.188 -2.0030  0.7420  1.3373
  687MOL0     H94750   5.446   1.659  11.085  3.4187 -0.9407  0.0262
  687MOL0     H94751   5.600   1.644  11.342  2.1925  0.2570 -0.8045
  687MOL0     H94752   5.606   1.778  11.236  0.6186 -0.5515 -0.8508
  687MOL0     H94753   5.792   1.657  11.219 -0.9462  0.8586  0.2213
  687MOL0     H94754   5.715   1.500  11.181  1.5669 -0.7704  2.2994
  687MOL0     H94755   5.674   1.474  10.914 -1.3239  0.5935 -1.8304
  687MOL0     H94756   5.618   1.520  10.685  0.4928 -0.1529 -1.1770
  687MOL0     H94757   5.748   1.619  10.620  1.1261 -2.2986  1.5822
  687MOL0     H94758   5.582   1.811  10.622  0.0516 -1.1728  4.5102
  687MOL0     H94759   5.543   1.679  10.501 -3.8791 -3.9750 -0.1278
  687MOL0     H94760   5.329   1.732  10.599  1.0654 -0.4827 -1.3926
  687MOL0     H94761   5.382   1.575  10.654  0.1761  0.0988 -0.6791
  687MOL0     H94762   5.440   1.670  10.868  0.0980  0.0040  1.8339
  687MOL0     H94763   5.420   1.834  10.805  2.0581 -1.4419  0.3481
  687MOL0     H94764   5.267   1.937  10.680  0.1757 -1.9147  1.6268
  687MOL0     H94765   5.220   2.144  10.588 -0.2496  1.7829 -1.0827
  687MOL0     H94766   5.069   2.228  10.621 -0.7143  1.2008 -2.3850
  687MOL0     H94767   5.072   2.111  10.489  2.6908  1.6647 -1.6144
  687MOL0     H94768   4.583   2.211  10.941 -1.5396 -2.0632  1.3431
  687MOL0     H94769   4.363   2.322  10.901  0.0026 -1.7119  1.2863
  687MOL0     H94770   4.142   2.190  10.556 -1.8716  0.3194 -2.0802
  687MOL0     H94771   4.034   2.307  10.620  0.2662 -1.7092  0.9830
  687MOL0     H94772   4.178   2.491  10.503  1.6104  0.8100 -1.9568
  687MOL0     H94773   4.303   2.374  10.477 -0.3882 -1.3687  0.0621
  687MOL0     H94774   4.061   2.297  10.353  0.7055 -0.7820  2.1398
  687MOL0     H94775   4.224   2.279  10.286 -0.6354 -1.4193  0.6301
  687MOL0     H94776   4.210   2.536  10.271  0.2407 -1.9353  1.2143
  687MOL0     H94777   4.044   2.526  10.301  0.0686 -0.1226  1.2851
  687MOL0     H94778   4.137   2.561  10.061 -0.8229  1.3000  1.0054
  687MOL0     H94779   4.156   2.380  10.071  0.9575  2.1102 -2.1464
  687MOL0     H94780   3.930   2.456   9.957 -1.7917 -1.0055 -0.4072
  687MOL0     H94781   3.884   2.505  10.118  0.6316 -0.6154  3.1756
  687MOL0     H94782   3.881   2.291  10.194 -2.0712 -0.1308 -1.5242
  687MOL0     H94783   3.997   2.221  10.078 -0.3899 -1.3921 -0.6364
  687MOL0     H94784   3.780   2.135  10.050 -3.7278 -0.3337 -2.3700
  687MOL0     H94785   3.861   2.202   9.914  1.6911 -1.8350  0.6623
  687MOL0     H94786   4.342   2.125  10.518  2.1196  0.5834 -0.5554
  687MOL0     H94787   4.550   2.011  10.558  2.2162  1.4504 -0.5847
  687MOL0     H94788   4.831   1.886  10.905 -1.5107  1.2801 -1.8777
  687MOL0     H94789   5.015   1.744  10.962 -0.8431  0.0724 -0.6029
  687MOL0     H94790   4.614   1.967  11.390 -2.8468  2.9658  1.0828
  687MOL0     H94791   4.525   2.171  11.458 -0.2373  1.4253 -0.2827
  687MOL0     H94792   4.410   2.477  11.503  3.2975  2.7943  1.6164
  687MOL0     H94793   4.204   2.588  11.535  0.9305  2.2348  1.1833
  687MOL0     H94794   4.053   2.759  11.562 -1.4437  2.5438 -0.4495
  687MOL0     H94795   3.906   2.790  11.460 -1.7404 -2.0501  1.5844
  687MOL0     H94796   3.909   2.569  11.600 -2.7496  0.0063 -0.2295
  687MOL0     H94797   4.008   2.508  11.474 -1.2770 -0.2139 -2.5399
  687MOL0     H94798   3.831   2.605  11.302  0.9814 -3.3492 -0.8463
  687MOL0     H94799   3.789   2.467  11.387  0.6040  0.2401 -4.1830
  687MOL0     H94800   3.717   2.737  11.502  1.8744 -0.8845  0.5574
  687MOL0     H94801   3.682   2.574  11.561  3.6920  0.3695  1.2294
  687MOL0     H94802   3.393   2.638  11.247 -2.5750 -1.8918  2.0404
  687MOL0     H94803   4.226   2.767  11.153  0.3760  0.9272  0.1641
  687MOL0     H94804   4.584   2.668  11.084  0.3379 -0.8592 -2.0383
  687MOL0     H94805   4.450   2.582  11.009  1.0362 -0.0943 -0.6366
  687MOL0     H94806   4.453   2.767  11.037  1.0903  1.5027  2.3388
  688MOL0     O94807   4.021   4.447   5.655  0.7488 -0.4940 -0.3290
  688MOL0     C94808   3.952   4.432   5.750  1.0601  0.2243  0.4906
  688MOL0     O94809   3.978   4.442   5.877 -0.1536 -0.1809 -0.1219
  688MOL0     C94810   4.096   4.498   5.916 -0.3977  0.1459 -0.1115
  688MOL0     C94811   4.125   4.637   5.907  0.3364 -0.2785  0.4465
  688MOL0     C94812   4.242   4.691   5.955 -1.2022 -0.2701  0.1698
  688MOL0     C94813   4.337   4.605   6.014 -0.2222 -1.1791 -0.3550
  688MOL0     O94814   4.459   4.666   6.030 -0.1302  0.4640  0.5503
  688MOL0     C94815   4.570   4.572   6.030 -0.2205 -0.7668  0.7030
  688MOL0     C94816   4.703   4.618   5.983 -1.4110 -0.9581  0.3706
  688MOL0     C94817   4.744   4.748   6.043  0.6201 -0.7407  0.2828
  688MOL0     C94818   4.871   4.820   5.990 -0.1508  0.7207  0.1812
  688MOL0     C94819   4.906   4.954   6.064  0.1781  0.5793  0.3116
  688MOL0     C94820   5.036   5.019   6.008  0.0468 -0.0431  0.1240
  688MOL0     C94821   5.171   4.959   6.073 -0.9688 -0.5942  0.2809
  688MOL0     C94822   5.204   5.021   6.207 -0.3802 -0.3490 -0.5138
  688MOL0     N94823   5.217   5.171   6.193  0.2372 -0.1090 -0.6090
  688MOL0     C94824   5.143   5.271   6.266  0.8905  0.0299 -0.2131
  688MOL0     C94825   5.205   5.391   6.238 -0.2517  0.4052  0.0395
  688MOL0     C94826   5.143   5.508   6.294  1.8205 -0.4247 -1.0844
  688MOL0     C94827   4.989   5.516   6.300  0.0267 -0.1052 -0.5881
  688MOL0     C94828   4.941   5.654   6.323  0.0595 -0.8707  0.4825
  688MOL0     C94829   4.787   5.670   6.306  0.3974  0.9327  0.1590
  688MOL0     O94830   4.756   5.633   6.168 -0.6045 -0.1962 -0.3494
  688MOL0     C94831   4.636   5.671   6.123  0.8698  0.0768  0.5296
  688MOL0     C94832   4.564   5.570   6.060 -0.0238 -0.6295 -0.0879
  688MOL0     C94833   4.432   5.586   6.013 -0.6696  0.1339  0.7284
  688MOL0     C94834   4.360   5.473   5.939  0.3144  0.5335 -0.1865
  688MOL0     C94835   4.376   5.708   6.025 -0.2717 -0.1588 -0.0078
  688MOL0     C94836   4.241   5.747   5.979  0.2788 -0.1626  0.0696
  688MOL0     O94837   4.185   5.855   6.044 -0.9215  0.6120  0.0354
  688MOL0     C94838   4.053   5.885   6.009 -0.6760 -0.8598 -0.1889
  688MOL0     C94839   3.954   5.822   6.090  0.4468 -0.6924  0.2156
  688MOL0     C94840   3.819   5.867   6.071 -0.6122 -0.1915  0.2414
  688MOL0     C94841   3.786   5.946   5.952 -0.2106 -0.0004 -0.5208
  688MOL0     O94842   3.657   5.961   5.908 -0.3636 -0.1820 -0.7803
  688MOL0     C94843   3.547   5.946   5.998  0.1254 -0.5405  0.1490
  688MOL0     C94844   3.429   6.007   5.926  0.0771 -1.3631 -0.0884
  688MOL0     C94845   3.441   6.163   5.899  0.3272  0.2159 -0.5202
  688MOL0     C94846   3.318   6.222   5.846  0.4390  1.1189  0.3462
  688MOL0     C94847   3.324   6.370   5.873  0.3196 -0.0020 -0.1309
  688MOL0     C94848   3.205   6.443   5.810 -0.5984  0.2114 -0.2035
  688MOL0     C94849   3.190   6.570   5.881  0.0650 -0.4431  0.2097
  688MOL0     C94850   3.100   6.678   5.804 -1.0703  0.9193  0.6872
  688MOL0    Cl94851   2.929   6.615   5.773 -0.1202 -0.0012 -0.1211
  688MOL0     C94852   3.887   5.982   5.866  0.8414 -0.6416 -0.5257
  688MOL0     C94853   4.021   5.963   5.896 -0.0978  0.9833 -0.0807
  688MOL0     O94854   4.198   5.701   5.874  0.3651 -0.3416  0.7985
  688MOL0     C94855   4.455   5.822   6.075  0.3124  0.0096  0.4429
  688MOL0     C94856   4.580   5.801   6.126 -0.4110  0.4062  0.0061
  688MOL0     N94857   5.324   5.365   6.168 -0.8724 -0.7323 -0.0058
  688MOL0     N94858   5.330   5.238   6.149 -0.2629 -0.8037 -0.3120
  688MOL0     C94859   4.298   4.471   6.046 -0.0277  0.3601  0.1619
  688MOL0     C94860   4.176   4.420   5.997  0.7734 -0.2407  0.1021
  688MOL0     C94861   3.811   4.387   5.722  0.6563  0.2565 -0.2351
  688MOL0     C94862   3.767   4.256   5.758 -0.2028 -0.1208 -0.2163
  688MOL0     C94863   3.633   4.218   5.731 -0.5710  0.1126 -0.1218
  688MOL0     C94864   3.544   4.298   5.664  0.4306  1.1806 -0.8704
  688MOL0     O94865   3.420   4.262   5.614 -0.1908  0.2769 -0.7829
  688MOL0     C94866   3.362   4.154   5.676 -0.3380 -0.2465 -0.2443
  688MOL0     C94867   3.226   4.125   5.627  0.1866  0.2419  0.1713
  688MOL0     C94868   3.180   4.002   5.698 -0.0917  0.1555 -1.1866
  688MOL0     C94869   3.072   3.925   5.618 -0.6363  0.7316  0.3173
  688MOL0     C94870   2.971   3.868   5.709  0.1135  1.3477  0.0674
  688MOL0     C94871   2.892   3.810   5.783  0.1003  0.3024  0.7899
  688MOL0     C94872   3.590   4.423   5.626  0.2148  0.9980  0.5564
  688MOL0     C94873   3.722   4.473   5.655 -0.5753 -0.1580 -0.0561
  688MOL0     C94874   3.756   4.611   5.604  0.8976  0.2634  0.3781
  688MOL0     H94875   4.054   4.703   5.859  2.1808  0.6216 -1.1629
  688MOL0     H94876   4.265   4.795   5.935  1.7647 -1.1577 -1.8215
  688MOL0     H94877   4.551   4.479   5.975  0.7747 -1.5216  1.6046
  688MOL0     H94878   4.573   4.545   6.136  1.3084  1.3065  1.2467
  688MOL0     H94879   4.787   4.547   5.993  2.5126  2.6288 -3.0829
  688MOL0     H94880   4.693   4.635   5.876 -0.2145 -0.3568  0.3279
  688MOL0     H94881   4.668   4.820   6.012  1.2372 -1.3817 -3.1475
  688MOL0     H94882   4.748   4.729   6.150  2.2422  1.3366  0.6767
  688MOL0     H94883   4.946   4.740   6.000 -1.3946 -0.5532 -0.2847
  688MOL0     H94884   4.849   4.851   5.887 -1.0753  1.4739  0.5994
  688MOL0     H94885   4.891   4.937   6.171 -2.6116  0.8066  0.0307
  688MOL0     H94886   4.826   5.023   6.037 -1.5244 -1.1157  0.7465
  688MOL0     H94887   5.038   5.003   5.900 -2.3512 -0.6293  0.1018
  688MOL0     H94888   5.026   5.127   6.022 -0.4807  0.5595 -3.9210
  688MOL0     H94889   5.249   4.991   6.003  0.5797  0.0694  2.2166
  688MOL0     H94890   5.177   4.851   6.086 -2.1978 -0.8543 -1.0739
  688MOL0     H94891   5.125   4.988   6.275 -1.0138  1.7651 -0.1380
  688MOL0     H94892   5.300   4.978   6.236 -1.0234 -1.4652  0.0122
  688MOL0     H94893   5.062   5.254   6.335  1.2189  0.5095  0.2923
  688MOL0     H94894   5.179   5.600   6.246 -0.9928  0.3915 -1.8375
  688MOL0     H94895   5.159   5.500   6.402  2.9524 -0.2815 -1.2338
  688MOL0     H94896   4.945   5.464   6.214 -1.8349 -0.2935  0.4356
  688MOL0     H94897   4.960   5.458   6.388 -1.0834  0.1946 -0.7495
  688MOL0     H94898   4.954   5.687   6.426  0.6348 -0.4034  0.2695
  688MOL0     H94899   4.986   5.735   6.264 -0.4867  0.2752  1.5982
  688MOL0     H94900   4.743   5.598   6.375  1.9398  1.1566  1.4266
  688MOL0     H94901   4.748   5.771   6.323 -2.3725  0.3927 -2.0908
  688MOL0     H94902   4.608   5.472   6.050  0.5422 -0.3800 -0.0805
  688MOL0     H94903   4.362   5.479   5.829  4.8881  2.2431 -0.2298
  688MOL0     H94904   4.260   5.464   5.981 -0.1765  2.9594 -0.6891
  688MOL0     H94905   4.409   5.376   5.953 -2.0400 -0.7433 -0.3518
  688MOL0     H94906   3.977   5.755   6.172 -1.0956  0.2533  1.4727
  688MOL0     H94907   3.744   5.835   6.143  2.4249 -3.5059  2.2698
  688MOL0     H94908   3.528   5.839   6.004 -1.0963 -0.3591 -0.2290
  688MOL0     H94909   3.569   5.993   6.095 -3.4927  2.4628 -0.2871
  688MOL0     H94910   3.421   5.956   5.829  1.5335 -1.7137 -0.0469
  688MOL0     H94911   3.343   5.993   5.992 -0.6523  1.7487 -0.2168
  688MOL0     H94912   3.525   6.195   5.837 -0.5931  2.1106 -0.8963
  688MOL0     H94913   3.461   6.212   5.995  1.0011 -0.5145 -0.2878
  688MOL0     H94914   3.236   6.170   5.896 -0.1490 -0.8116 -2.3978
  688MOL0     H94915   3.300   6.198   5.741 -1.9148 -0.8088  1.1031
  688MOL0     H94916   3.325   6.391   5.981 -0.5971 -0.5305 -0.0124
  688MOL0     H94917   3.419   6.406   5.832  2.3954 -0.1940  3.9720
  688MOL0     H94918   3.110   6.393   5.831  0.4451 -2.5280 -1.5372
  688MOL0     H94919   3.225   6.449   5.702 -1.1658 -1.7552 -0.4608
  688MOL0     H94920   3.285   6.613   5.916 -0.7789  0.9994  0.8286
  688MOL0     H94921   3.131   6.557   5.972 -0.0754 -1.4644 -0.0218
  688MOL0     H94922   3.139   6.694   5.703  0.3059  1.5919  1.2965
  688MOL0     H94923   3.090   6.768   5.864 -0.7595  1.2085  0.3130
  688MOL0     H94924   3.867   6.044   5.779  1.8641  0.5217  0.0396
  688MOL0     H94925   4.099   5.993   5.827  0.4488  2.1491  1.0044
  688MOL0     H94926   4.418   5.923   6.092 -1.3807 -0.6348  0.7417
  688MOL0     H94927   4.631   5.883   6.177 -0.6714  0.9869 -0.6513
  688MOL0     H94928   4.370   4.401   6.086  1.1259  0.2685 -1.9514
  688MOL0     H94929   4.149   4.316   6.011  3.5654 -1.2310 -1.0505
  688MOL0     H94930   3.833   4.186   5.809 -0.5720  1.5598  2.7950
  688MOL0     H94931   3.627   4.110   5.740 -0.2045  0.1087  0.0942
  688MOL0     H94932   3.435   4.077   5.648 -1.7266 -1.1083 -1.7217
  688MOL0     H94933   3.367   4.170   5.784  2.8919 -2.9567  0.1997
  688MOL0     H94934   3.229   4.108   5.519 -1.9237  3.7139 -0.5932
  688MOL0     H94935   3.165   4.213   5.651  3.9666  3.3979 -0.8018
  688MOL0     H94936   3.260   3.933   5.724 -0.0857 -0.2657 -2.2700
  688MOL0     H94937   3.125   4.030   5.789 -2.9802 -2.3180 -1.9919
  688MOL0     H94938   3.113   3.851   5.549  0.2739  0.2597  1.3340
  688MOL0     H94939   3.021   3.988   5.545  1.3065 -0.9627 -2.7148
  688MOL0     H94940   2.825   3.762   5.852 -1.0358  0.4398 -0.1731
  688MOL0     H94941   3.533   4.490   5.562  0.1098  2.4864  2.1211
  688MOL0     H94942   3.822   4.645   5.684 -0.9028 -3.2639  3.6484
  688MOL0     H94943   3.793   4.597   5.502 -0.7259 -0.9471 -0.0829
  688MOL0     H94944   3.669   4.677   5.601 -0.7418 -1.8149  0.0199
  689MOL0     O94945   0.671   5.929   6.681  0.2119  0.0733 -0.1647
  689MOL0     C94946   0.662   5.808   6.692  0.3447 -1.1164 -0.0012
  689MOL0     O94947   0.769   5.730   6.669  0.6749 -0.0160 -1.0678
  689MOL0     C94948   0.890   5.794   6.684 -0.1043  0.4037 -0.2488
  689MOL0     C94949   0.968   5.798   6.792 -0.5788 -0.1997 -0.9567
  689MOL0     C94950   1.092   5.870   6.794  0.6237  0.3792  0.1748
  689MOL0     C94951   1.144   5.936   6.684 -0.7941 -0.8169 -0.6976
  689MOL0     O94952   1.253   6.011   6.707  0.5394 -1.1491  0.2849
  689MOL0     C94953   1.276   6.134   6.616  0.3741 -0.7743 -0.2523
  689MOL0     C94954   1.409   6.141   6.556 -0.0828  1.0819 -0.3673
  689MOL0     C94955   1.510   6.174   6.657 -0.3585 -0.2677  0.6524
  689MOL0     C94956   1.659   6.177   6.610  0.6699  0.5029 -1.2082
  689MOL0     C94957   1.735   6.282   6.705  0.2141  0.0145  0.4326
  689MOL0     C94958   1.740   6.248   6.853  0.3282 -0.0775 -0.2803
  689MOL0     C94959   1.689   6.355   6.950 -0.1218 -0.4082  0.3402
  689MOL0     C94960   1.704   6.334   7.100  0.8204 -0.5238 -0.7138
  689MOL0     N94961   1.596   6.412   7.164  0.2680 -0.6304 -0.0176
  689MOL0     C94962   1.593   6.555   7.149 -0.4899 -0.0377 -0.8470
  689MOL0     C94963   1.471   6.587   7.207 -0.4441 -0.0200  0.3763
  689MOL0     C94964   1.409   6.727   7.213  0.1548  0.5417  1.3460
  689MOL0     C94965   1.311   6.752   7.325 -0.7847 -0.0174  0.7653
  689MOL0     C94966   1.225   6.874   7.324  0.5048  0.0021  0.1450
  689MOL0     C94967   1.128   6.861   7.208  0.6938 -0.0770  0.0715
  689MOL0     O94968   1.045   6.987   7.209  0.1246  0.7584 -1.5255
  689MOL0     C94969   0.919   6.994   7.156 -0.1686  0.0464 -0.9412
  689MOL0     C94970   0.861   6.894   7.082 -0.0017  0.1519 -0.7801
  689MOL0     C94971   0.736   6.914   7.022  0.2773 -0.1960  0.0162
  689MOL0     C94972   0.690   6.809   6.920 -0.1159  0.0992  0.0750
  689MOL0     C94973   0.667   7.040   7.039  0.4065 -0.8262  0.2789
  689MOL0     C94974   0.538   7.078   6.968 -0.0815  0.3863 -0.5229
  689MOL0     O94975   0.496   7.205   6.978 -0.2422  0.2077  0.0436
  689MOL0     C94976   0.369   7.244   6.947  1.1898  0.1733 -0.8275
  689MOL0     C94977   0.340   7.318   6.829 -0.2005 -0.6041  0.0742
  689MOL0     C94978   0.205   7.346   6.781 -0.3974  0.8759 -0.5780
  689MOL0     C94979   0.097   7.297   6.861 -0.3771  1.0169  0.3553
  689MOL0     O94980  -0.040   7.314   6.825 -0.4637  0.4358 -0.1160
  689MOL0     C94981  -0.055   7.293   6.689 -0.2604  0.3286  1.4158
  689MOL0     C94982  -0.191   7.353   6.637  0.6859 -0.7932 -0.7347
  689MOL0     C94983  -0.219   7.326   6.488  0.2258  0.4201 -0.0761
  689MOL0     C94984  -0.360   7.358   6.444  0.3144  0.4856  0.2792
  689MOL0     C94985  -0.383   7.329   6.289 -0.2297 -0.5982  0.6666
  689MOL0     C94986  -0.525   7.379   6.263 -0.5427  1.0911  0.3266
  689MOL0     C94987  -0.579   7.341   6.125  0.2318  0.4519 -0.0598
  689MOL0     C94988  -0.719   7.394   6.115 -0.5651  0.0326 -0.7194
  689MOL0    Cl94989  -0.781   7.339   5.954 -0.1575  0.1027  0.7343
  689MOL0     C94990   0.130   7.236   6.981 -0.2046  0.5470 -0.5510
  689MOL0     C94991   0.260   7.207   7.028  0.6125 -0.1437  0.9712
  689MOL0     O94992   0.473   6.991   6.913  0.1803 -0.1837 -0.0377
  689MOL0     C94993   0.735   7.141   7.111 -0.2814  0.0562 -0.4776
  689MOL0     C94994   0.861   7.110   7.178  0.2252  0.1198 -0.2479
  689MOL0     N94995   1.409   6.468   7.249 -0.0434 -0.4018 -0.0959
  689MOL0     N94996   1.483   6.365   7.229  0.3143 -0.2055 -0.6118
  689MOL0     C94997   1.074   5.909   6.567 -0.7209 -0.2541 -0.3604
  689MOL0     C94998   0.948   5.837   6.566  0.4836 -0.1256  0.0340
  689MOL0     C94999   0.526   5.737   6.704  0.4323 -1.2526 -0.7832
  689MOL0     C95000   0.523   5.595   6.697 -0.0920  0.0524  0.1364
  689MOL0     C95001   0.404   5.516   6.708 -0.2905 -0.6557 -0.2218
  689MOL0     C95002   0.287   5.580   6.755 -0.6878  0.1954  1.7309
  689MOL0     O95003   0.181   5.505   6.783 -0.2562  0.6909  0.1071
  689MOL0     C95004   0.052   5.557   6.821 -0.0108 -0.3765 -0.0636
  689MOL0     C95005   0.057   5.592   6.966 -0.2493  0.0359 -1.0680
  689MOL0     C95006   0.074   5.463   7.049  0.1158 -0.9579  0.0462
  689MOL0     C95007  -0.032   5.351   7.039 -0.0109 -0.1287  0.9890
  689MOL0     C95008  -0.157   5.399   7.104  0.0274  0.2194 -0.0910
  689MOL0     C95009  -0.248   5.435   7.176  0.0791  0.7087  0.0644
  689MOL0     C95010   0.283   5.724   6.750  0.0485 -0.1615 -0.1460
  689MOL0     C95011   0.397   5.797   6.724  0.6359  0.2067 -0.6564
  689MOL0     C95012   0.381   5.939   6.754 -0.1331 -0.8784 -0.8937
  689MOL0     H95013   0.930   5.757   6.885 -0.5317 -0.1514 -0.9158
  689MOL0     H95014   1.142   5.871   6.891 -0.6548 -1.0713  0.8732
  689MOL0     H95015   1.265   6.218   6.685  3.5731 -0.9456  0.6250
  689MOL0     H95016   1.203   6.127   6.535 -1.4139 -1.2371  1.2955
  689MOL0     H95017   1.435   6.041   6.520  0.0088  0.6469  0.8725
  689MOL0     H95018   1.410   6.212   6.473 -2.4341  0.7513 -0.7453
  689MOL0     H95019   1.489   6.274   6.694 -0.5651  0.3478 -1.0323
  689MOL0     H95020   1.508   6.100   6.738 -0.2382 -0.1762  0.7385
  689MOL0     H95021   1.710   6.081   6.601  0.9860 -0.1526  4.2552
  689MOL0     H95022   1.648   6.223   6.511  0.0458  2.5309 -0.2553
  689MOL0     H95023   1.693   6.383   6.699  3.0963  1.2257 -1.7601
  689MOL0     H95024   1.838   6.289   6.670  0.5555 -2.1437  0.8807
  689MOL0     H95025   1.708   6.148   6.884  0.5866 -0.6468 -1.7802
  689MOL0     H95026   1.848   6.241   6.868  0.8582 -1.3433 -3.8871
  689MOL0     H95027   1.583   6.362   6.923  0.0251  1.6700  0.1168
  689MOL0     H95028   1.734   6.452   6.926 -2.7953  0.9337  0.3510
  689MOL0     H95029   1.689   6.228   7.124  0.5426 -0.3215  0.0536
  689MOL0     H95030   1.803   6.361   7.138  0.6753 -1.0048  0.0334
  689MOL0     H95031   1.654   6.626   7.095 -0.3622 -1.7678 -3.0959
  689MOL0     H95032   1.355   6.741   7.120  1.8100 -3.6386 -0.4842
  689MOL0     H95033   1.491   6.800   7.214  0.4840  0.2087  0.0029
  689MOL0     H95034   1.243   6.667   7.337  0.2512 -1.1760 -1.1086
  689MOL0     H95035   1.364   6.747   7.420  0.9613 -2.7743 -0.1999
  689MOL0     H95036   1.181   6.880   7.424  4.5624 -1.0566  2.2366
  689MOL0     H95037   1.293   6.959   7.314  1.8631 -1.1399 -0.7918
  689MOL0     H95038   1.179   6.859   7.110  0.6553 -0.5109  0.0579
  689MOL0     H95039   1.072   6.767   7.210  1.0003 -0.2674 -0.0272
  689MOL0     H95040   0.902   6.794   7.076 -2.5889 -0.9269 -2.2556
  689MOL0     H95041   0.774   6.741   6.901  0.7775  0.1278  3.3055
  689MOL0     H95042   0.656   6.858   6.829 -1.9166 -1.1626 -0.0019
  689MOL0     H95043   0.611   6.745   6.961  1.1658 -3.6402 -2.7410
  689MOL0     H95044   0.416   7.369   6.772 -0.7659 -0.7526 -0.8287
  689MOL0     H95045   0.191   7.411   6.695 -1.3765  1.5903  0.1012
  689MOL0     H95046   0.019   7.329   6.617 -3.1210  2.3337 -0.7672
  689MOL0     H95047  -0.049   7.188   6.659 -3.1859  0.4132  0.2462
  689MOL0     H95048  -0.271   7.315   6.702  2.5412 -3.0172  0.3770
  689MOL0     H95049  -0.188   7.461   6.654  0.3911 -1.0345  0.9612
  689MOL0     H95050  -0.209   7.218   6.471 -1.2656  0.2176  0.1841
  689MOL0     H95051  -0.153   7.381   6.421 -0.1161  0.5548 -0.3053
  689MOL0     H95052  -0.366   7.465   6.465 -1.2165 -0.2964  4.9728
  689MOL0     H95053  -0.430   7.306   6.511  1.9238  0.4786  2.0337
  689MOL0     H95054  -0.319   7.393   6.229 -3.8803  0.6348 -2.2968
  689MOL0     H95055  -0.374   7.226   6.253 -0.9215  0.8330 -4.3626
  689MOL0     H95056  -0.523   7.489   6.269  1.4403  1.0106  2.6617
  689MOL0     H95057  -0.590   7.338   6.340  1.4814 -2.2708  0.4401
  689MOL0     H95058  -0.574   7.232   6.113 -0.3660  0.3951  0.2126
  689MOL0     H95059  -0.524   7.391   6.045  0.3519 -0.5840 -0.6424
  689MOL0     H95060  -0.709   7.502   6.097 -2.4344  0.2170 -0.8134
  689MOL0     H95061  -0.785   7.370   6.199  0.5917  1.1368  0.5726
  689MOL0     H95062   0.060   7.207   7.058 -2.7803  6.2238 -0.2047
  689MOL0     H95063   0.263   7.161   7.127 -0.2531  2.3525  2.2498
  689MOL0     H95064   0.681   7.234   7.129 -0.3304  0.4065 -2.2591
  689MOL0     H95065   0.909   7.188   7.236  1.4783 -2.0162  1.7436
  689MOL0     H95066   1.104   5.944   6.469 -1.2833 -0.9487 -0.7866
  689MOL0     H95067   0.895   5.823   6.473  1.1156  2.5639 -0.8220
  689MOL0     H95068   0.620   5.548   6.691  0.7434  1.5805  1.1972
  689MOL0     H95069   0.413   5.408   6.701 -2.3635 -1.0143  1.5636
  689MOL0     H95070   0.007   5.637   6.760  0.0714  0.5255  1.0220
  689MOL0     H95071  -0.019   5.474   6.816 -0.8310  0.0876  2.5959
  689MOL0     H95072  -0.033   5.648   6.991 -0.8506 -0.9260 -1.0152
  689MOL0     H95073   0.145   5.651   6.991  0.1375  0.3480 -2.9794
  689MOL0     H95074   0.167   5.411   7.027 -0.4361 -1.6554 -0.6805
  689MOL0     H95075   0.072   5.506   7.150 -2.1009  0.1167 -0.3842
  689MOL0     H95076  -0.002   5.260   7.092 -0.7548 -2.0274 -1.6131
  689MOL0     H95077  -0.054   5.314   6.938 -0.6751  1.6929  0.4299
  689MOL0     H95078  -0.330   5.469   7.236 -1.2908  1.2625 -1.9985
  689MOL0     H95079   0.201   5.778   6.797  1.2179  1.6733 -0.1225
  689MOL0     H95080   0.281   5.982   6.747  0.1332 -0.0504  0.1572
  689MOL0     H95081   0.432   5.965   6.847 -1.2790  4.6066 -1.4266
  689MOL0     H95082   0.437   5.992   6.676 -1.4805 -0.0135 -1.3123
  690MOL0     O95083   5.768   0.364   9.223  0.8113 -0.0414  0.5637
  690MOL0     C95084   5.833   0.297   9.295  0.3115  0.0137  0.1601
  690MOL0     O95085   5.908   0.189   9.255 -0.2402  0.2944 -0.0482
  690MOL0     C95086   5.882   0.128   9.126  0.2012 -0.0370 -0.1288
  690MOL0     C95087   5.927   0.192   9.011 -0.6690  0.5816 -0.7740
  690MOL0     C95088   5.902   0.128   8.891  0.4949 -0.4070 -0.0513
  690MOL0     C95089   5.840   0.007   8.885 -0.4712 -0.4487  0.0827
  690MOL0     O95090   5.825  -0.064   8.763 -0.3939  0.5290  0.0903
  690MOL0     C95091   5.912  -0.017   8.657 -0.4044  0.3296 -0.1431
  690MOL0     C95092   5.903  -0.118   8.539  0.3452  0.2531 -0.4283
  690MOL0     C95093   5.749  -0.142   8.501 -1.4172 -0.1299 -0.0749
  690MOL0     C95094   5.751  -0.209   8.367  0.1513  0.0644  0.4944
  690MOL0     C95095   5.606  -0.261   8.336 -0.6323  0.7157 -0.5345
  690MOL0     C95096   5.608  -0.365   8.231 -0.9526 -0.7289  1.4392
  690MOL0     C95097   5.643  -0.310   8.092 -0.6432 -0.0269  0.3265
  690MOL0     C95098   5.669  -0.429   7.990 -0.0225  0.4073 -0.0305
  690MOL0     N95099   5.767  -0.388   7.886  0.8157 -0.2271  0.3941
  690MOL0     C95100   5.903  -0.357   7.900 -0.0355  0.2871 -0.7079
  690MOL0     C95101   5.949  -0.351   7.776 -0.2032  0.4996  0.5972
  690MOL0     C95102   6.086  -0.317   7.740  0.4208 -0.0633 -0.1348
  690MOL0     C95103   6.154  -0.459   7.759  0.4402 -0.5942 -0.7233
  690MOL0     C95104   6.303  -0.437   7.744  0.3148  0.0280  0.5172
  690MOL0     C95105   6.379  -0.351   7.853 -0.2974  0.6529  0.4246
  690MOL0     O95106   6.353  -0.410   7.984 -0.2666  0.3041 -0.3617
  690MOL0     C95107   6.314  -0.342   8.092 -0.1415 -0.3978 -0.7084
  690MOL0     C95108   6.307  -0.204   8.094  0.6092 -0.2670 -0.9326
  690MOL0     C95109   6.274  -0.131   8.208 -0.0592  0.2382 -0.5189
  690MOL0     C95110   6.278   0.014   8.191  1.1086 -0.2181  0.1315
  690MOL0     C95111   6.282  -0.194   8.338  0.0537 -0.0928 -0.1374
  690MOL0     C95112   6.262  -0.125   8.458  0.0965 -0.2758  0.1032
  690MOL0     O95113   6.300  -0.207   8.574 -0.0356 -0.0042 -0.1956
  690MOL0     C95114   6.321  -0.134   8.691 -0.6676  1.0173 -0.4563
  690MOL0     C95115   6.230  -0.133   8.788  0.4483 -0.1276  0.2793
  690MOL0     C95116   6.243  -0.068   8.909  0.6850  0.0946 -0.1869
  690MOL0     C95117   6.362   0.007   8.934 -0.1008  0.4137  0.4135
  690MOL0     O95118   6.386   0.085   9.038 -0.1649  0.3031 -0.3267
  690MOL0     C95119   6.271   0.162   9.082 -0.1319 -0.3893  0.5024
  690MOL0     C95120   6.318   0.226   9.218 -0.3265  0.6249  0.2917
  690MOL0     C95121   6.237   0.339   9.266  0.5823  0.3061 -0.3611
  690MOL0     C95122   6.288   0.381   9.404  0.3047  0.2063 -0.1331
  690MOL0     C95123   6.256   0.533   9.427  0.0370 -0.3660 -0.3185
  690MOL0     C95124   6.111   0.569   9.441  0.3472  0.1627 -0.7401
  690MOL0     C95125   6.088   0.724   9.423 -0.1359  0.2746 -0.4052
  690MOL0     C95126   5.937   0.766   9.388 -1.1195 -0.0970  0.5433
  690MOL0    Cl95127   5.859   0.801   9.538  0.0371 -0.8323  0.3040
  690MOL0     C95128   6.466   0.013   8.834  0.4488 -0.5794 -0.5305
  690MOL0     C95129   6.440  -0.065   8.718  0.0609 -0.6198  1.0718
  690MOL0     O95130   6.229  -0.007   8.468 -0.5883  0.4960 -0.4739
  690MOL0     C95131   6.314  -0.331   8.330 -0.1340 -1.6237 -0.2596
  690MOL0     C95132   6.318  -0.398   8.216 -0.7969  0.3318 -0.3042
  690MOL0     N95133   5.851  -0.376   7.679 -0.5392 -0.0879 -0.6790
  690MOL0     N95134   5.737  -0.393   7.748  0.6342  0.1703  0.2288
  690MOL0     C95135   5.799  -0.050   9.006 -0.1005  0.1100 -0.4145
  690MOL0     C95136   5.813   0.005   9.129  0.4421  0.3684 -0.0909
  690MOL0     C95137   5.839   0.337   9.441  0.0783  1.0723  0.4348
  690MOL0     C95138   5.936   0.273   9.517  0.1139 -0.5445  0.2349
  690MOL0     C95139   5.944   0.284   9.656  0.2992 -0.3781  0.8850
  690MOL0     C95140   5.850   0.359   9.724 -0.1713 -0.0124  0.1613
  690MOL0     O95141   5.855   0.375   9.859  0.2399  0.5692  0.0605
  690MOL0     C95142   5.940   0.300   9.945  0.0898  1.3024 -0.4847
  690MOL0     C95143   5.898   0.164   9.978  0.5152 -0.3542 -0.1829
  690MOL0     C95144   6.004   0.102  10.072  0.3534  1.4012  0.3721
  690MOL0     C95145   6.097  -0.009  10.028 -0.1352  0.0417  0.4118
  690MOL0     C95146   6.212   0.037   9.946 -0.2718 -0.4576 -0.3065
  690MOL0     C95147   6.318   0.065   9.894 -0.0675  0.3412 -0.4428
  690MOL0     C95148   5.750   0.417   9.655 -0.2238  0.8702 -0.4654
  690MOL0     C95149   5.736   0.408   9.509 -0.5679  0.2067 -0.2204
  690MOL0     C95150   5.627   0.485   9.454  0.0713 -0.0381 -0.1449
  690MOL0     H95151   5.971   0.291   9.018 -0.6052  0.5301 -0.4154
  690MOL0     H95152   5.928   0.177   8.797  1.7997 -1.4411 -0.2619
  690MOL0     H95153   6.011   0.005   8.697 -0.9440 -1.9832  2.8851
  690MOL0     H95154   5.866   0.076   8.624 -1.4244 -0.1750 -0.2010
  690MOL0     H95155   5.970  -0.078   8.462 -0.0068  0.1520 -0.7887
  690MOL0     H95156   5.949  -0.214   8.565  0.1265  0.2504 -0.0452
  690MOL0     H95157   5.698  -0.211   8.568 -0.5985 -0.4419  0.2422
  690MOL0     H95158   5.705  -0.041   8.496  0.7810  0.9372  0.6528
  690MOL0     H95159   5.794  -0.154   8.283  0.5657 -4.2086 -2.3864
  690MOL0     H95160   5.816  -0.296   8.382  0.6767  0.3119 -0.2955
  690MOL0     H95161   5.547  -0.176   8.302  1.9897  1.5852 -3.4106
  690MOL0     H95162   5.557  -0.305   8.423 -1.1228  0.0508 -1.1395
  690MOL0     H95163   5.685  -0.435   8.264 -0.1310  0.2392  1.6127
  690MOL0     H95164   5.509  -0.411   8.224 -1.7445  0.8431  1.7447
  690MOL0     H95165   5.736  -0.252   8.098 -0.1329 -0.4775 -2.0989
  690MOL0     H95166   5.564  -0.243   8.056 -1.0340 -0.1660  0.9224
  690MOL0     H95167   5.702  -0.521   8.039 -3.4450  0.0427  1.9708
  690MOL0     H95168   5.578  -0.461   7.939 -0.9581  1.2692  1.0158
  690MOL0     H95169   5.955  -0.348   7.995 -1.0232 -0.0000 -0.1326
  690MOL0     H95170   6.111  -0.236   7.809 -2.5649 -1.9325  3.5254
  690MOL0     H95171   6.095  -0.302   7.632  2.6991 -0.5925 -0.0807
  690MOL0     H95172   6.127  -0.501   7.856 -2.7335 -1.9649 -2.0599
  690MOL0     H95173   6.116  -0.527   7.682 -2.0521 -1.6319  1.2869
  690MOL0     H95174   6.346  -0.537   7.757  0.2695 -0.0937 -0.2249
  690MOL0     H95175   6.322  -0.389   7.648 -3.3517 -0.0150 -0.3892
  690MOL0     H95176   6.484  -0.364   7.827 -0.9704 -3.9252 -0.9783
  690MOL0     H95177   6.335  -0.252   7.840 -0.5868  0.3423 -1.1546
  690MOL0     H95178   6.329  -0.138   8.012  0.1617  1.1412  0.0440
  690MOL0     H95179   6.366   0.051   8.245  1.1709 -1.7513  1.1369
  690MOL0     H95180   6.194   0.063   8.242  3.7912  1.6380  3.1704
  690MOL0     H95181   6.272   0.062   8.093  1.4929  2.5455  1.3562
  690MOL0     H95182   6.133  -0.178   8.767 -0.0215  0.5989  0.8148
  690MOL0     H95183   6.159  -0.079   8.977  0.2150  2.9564 -0.1467
  690MOL0     H95184   6.254   0.249   9.017  1.4069  0.7711  1.5920
  690MOL0     H95185   6.186   0.096   9.101 -1.5998  1.5142  0.8230
  690MOL0     H95186   6.320   0.135   9.280  0.7141  1.5032  1.5989
  690MOL0     H95187   6.421   0.256   9.199 -0.0229 -0.5173 -0.0013
  690MOL0     H95188   6.134   0.304   9.277  1.0107 -0.9959 -0.2591
  690MOL0     H95189   6.229   0.422   9.195  2.7278 -0.0529 -1.1107
  690MOL0     H95190   6.395   0.363   9.408  0.1716 -0.6751 -0.3532
  690MOL0     H95191   6.234   0.338   9.489 -0.1246  0.5997 -0.1980
  690MOL0     H95192   6.300   0.575   9.518 -3.1424  2.3588  0.1444
  690MOL0     H95193   6.291   0.587   9.339 -0.9025 -0.3027 -0.6601
  690MOL0     H95194   6.078   0.534   9.540  3.0681 -2.6263 -0.6685
  690MOL0     H95195   6.059   0.527   9.355  1.3905  0.0451 -1.3274
  690MOL0     H95196   6.145   0.762   9.337  0.1738 -1.0104 -0.7787
  690MOL0     H95197   6.118   0.782   9.511 -1.9663  1.6132 -0.6172
  690MOL0     H95198   5.883   0.686   9.337  2.2828 -1.9546 -0.4213
  690MOL0     H95199   5.932   0.861   9.333 -3.4977  0.8847  2.3121
  690MOL0     H95200   6.558   0.069   8.840  1.2756 -2.0027  0.8454
  690MOL0     H95201   6.518  -0.047   8.645 -2.0734  0.7123 -1.0125
  690MOL0     H95202   6.312  -0.387   8.424 -1.8755 -1.4647 -0.1626
  690MOL0     H95203   6.344  -0.503   8.205 -2.0780  0.1234 -1.6205
  690MOL0     H95204   5.789  -0.157   8.993  3.1551 -0.0116 -3.4912
  690MOL0     H95205   5.805  -0.050   9.222 -0.4274  1.3344  0.4291
  690MOL0     H95206   6.019   0.229   9.463  1.9369  1.9670  0.8249
  690MOL0     H95207   6.021   0.231   9.710  1.2442 -0.2467 -0.2911
  690MOL0     H95208   6.043   0.300   9.910 -0.6121 -1.3181 -2.9156
  690MOL0     H95209   5.946   0.352  10.041 -0.2833 -0.2928  0.4381
  690MOL0     H95210   5.904   0.106   9.885 -2.3116  0.1613 -0.7677
  690MOL0     H95211   5.800   0.163  10.026 -0.0801  3.2098 -1.0522
  690MOL0     H95212   6.073   0.179  10.108  0.3787  0.8684  1.5071
  690MOL0     H95213   5.948   0.076  10.162 -1.0230  1.6838 -0.3644
  690MOL0     H95214   6.030  -0.074   9.970 -1.3945  1.5718  0.0791
  690MOL0     H95215   6.133  -0.059  10.119  2.4008  0.9148 -0.0238
  690MOL0     H95216   6.407   0.081   9.836  1.2776 -1.3845  1.0063
  690MOL0     H95217   5.668   0.464   9.709 -0.7472  2.0788 -2.2149
  690MOL0     H95218   5.572   0.415   9.391 -0.4555  1.2358 -1.1332
  690MOL0     H95219   5.569   0.540   9.529 -1.9059  1.0917 -2.3812
  690MOL0     H95220   5.661   0.557   9.379 -2.4022  0.7975 -0.5494
  691MOL0     O95221  11.023   4.135   1.096 -0.1109 -0.0676  0.6502
  691MOL0     C95222  11.104   4.076   1.160 -0.1406 -0.4806  0.2223
  691MOL0     O95223  11.079   3.971   1.248  0.1821  0.7964  0.4070
  691MOL0     C95224  10.950   3.940   1.286  0.1587  0.8395 -0.0565
  691MOL0     C95225  10.915   3.802   1.295 -0.2111 -1.1362 -1.0408
  691MOL0     C95226  10.794   3.760   1.352 -0.0431  0.0728  0.5006
  691MOL0     C95227  10.696   3.864   1.392 -0.1518  0.5977 -0.1861
  691MOL0     O95228  10.584   3.840   1.459 -0.3599  0.1004  0.0990
  691MOL0     C95229  10.553   3.705   1.493 -0.2048  0.5558 -0.4585
  691MOL0     C95230  10.420   3.694   1.572  0.3588 -1.0110 -0.0182
  691MOL0     C95231  10.287   3.721   1.502  0.4388  0.1410  0.7569
  691MOL0     C95232  10.182   3.643   1.584  0.0247 -0.6997  0.7086
  691MOL0     C95233  10.039   3.671   1.537 -0.4192  0.2149  0.3272
  691MOL0     C95234   9.942   3.572   1.587  0.1063 -0.5365 -0.5280
  691MOL0     C95235   9.966   3.420   1.547 -0.0796  1.0782 -0.8604
  691MOL0     C95236   9.864   3.322   1.612 -0.0303  0.9007 -1.0779
  691MOL0     N95237   9.891   3.312   1.761 -0.4656  0.1474  0.0507
  691MOL0     C95238  10.000   3.249   1.817 -0.4052  0.0798  0.1040
  691MOL0     C95239   9.993   3.275   1.948 -0.5688  0.2006 -0.1889
  691MOL0     C95240  10.071   3.224   2.071  0.5947 -0.0693 -0.0141
  691MOL0     C95241  10.208   3.290   2.099 -0.2296  0.5327 -0.1751
  691MOL0     C95242  10.311   3.229   2.004  0.1504 -0.2803 -0.0966
  691MOL0     C95243  10.434   3.322   2.002 -0.4328  0.5124  0.8900
  691MOL0     O95244  10.402   3.430   1.914  0.0499  0.0392 -0.0059
  691MOL0     C95245  10.478   3.542   1.921  0.7128  0.1961  0.2623
  691MOL0     C95246  10.413   3.660   1.941 -0.4906  0.4025  0.0861
  691MOL0     C95247  10.485   3.777   1.976  0.1489  0.3327 -1.9560
  691MOL0     C95248  10.396   3.894   1.981  0.7338 -0.4828  0.7248
  691MOL0     C95249  10.625   3.772   1.987 -0.3610  0.3331  0.6826
  691MOL0     C95250  10.706   3.886   2.016  0.2454 -0.5130  0.7269
  691MOL0     O95251  10.849   3.864   2.003 -0.3717 -0.2714 -0.2982
  691MOL0     C95252  10.940   3.969   2.004  0.0326  0.2005  0.2558
  691MOL0     C95253  11.073   3.929   1.983 -0.0144  0.3445  0.2496
  691MOL0     C95254  11.176   4.024   1.986 -0.1966  0.4767 -0.9277
  691MOL0     C95255  11.143   4.157   2.002 -0.4966 -0.2531  0.1684
  691MOL0     O95256  11.257   4.232   2.008 -0.5343 -0.4239 -0.7503
  691MOL0     C95257  11.254   4.375   2.000  0.7132 -0.5763  0.4718
  691MOL0     C95258  11.389   4.416   2.027 -0.3690 -0.3878  0.2376
  691MOL0     C95259  11.399   4.567   2.013 -0.2857 -0.0784 -0.0076
  691MOL0     C95260  11.540   4.623   2.034 -0.3126  0.9914 -0.3089
  691MOL0     C95261  11.556   4.767   2.005  0.4851  0.0903  0.1296
  691MOL0     C95262  11.495   4.867   2.108  0.1173 -0.6198  0.3508
  691MOL0     C95263  11.571   4.880   2.235  0.4871 -0.1100 -0.6584
  691MOL0     C95264  11.510   4.985   2.327 -0.2272  0.3800  0.1529
  691MOL0    Cl95265  11.621   5.031   2.455 -0.1226 -0.1957  0.4445
  691MOL0     C95266  11.010   4.197   2.005 -0.2616 -0.1133 -0.6645
  691MOL0     C95267  10.905   4.104   2.012  0.1486  0.1718 -0.1807
  691MOL0     O95268  10.651   3.993   2.053 -0.1944  0.0266 -0.2685
  691MOL0     C95269  10.697   3.648   1.953 -0.0120  0.5991 -0.7970
  691MOL0     C95270  10.621   3.528   1.931 -0.2106 -0.5521  0.4959
  691MOL0     N95271   9.872   3.343   1.961  0.1676 -0.2765 -1.0242
  691MOL0     N95272   9.818   3.379   1.857  0.0511 -0.3444  0.0560
  691MOL0     C95273  10.725   3.993   1.359  0.0632 -0.0470 -0.4632
  691MOL0     C95274  10.850   4.029   1.312 -0.3012 -0.8514  0.1337
  691MOL0     C95275  11.242   4.126   1.153  1.1967 -0.5340 -0.2688
  691MOL0     C95276  11.252   4.270   1.161  0.7506 -0.2766 -0.1457
  691MOL0     C95277  11.375   4.343   1.141  0.5429 -0.0024 -0.7783
  691MOL0     C95278  11.492   4.279   1.109  1.0423  0.5164 -0.1029
  691MOL0     O95279  11.619   4.332   1.094  0.2246  0.1908  0.3159
  691MOL0     C95280  11.639   4.475   1.066 -0.1808 -0.2202 -0.1532
  691MOL0     C95281  11.788   4.504   1.065  0.4987 -0.0583 -0.4619
  691MOL0     C95282  11.851   4.461   0.930 -0.6206  0.2973  0.7924
  691MOL0     C95283  11.999   4.406   0.943  0.0432  0.8038  0.5279
  691MOL0     C95284  12.105   4.486   1.004 -0.5182  0.2692 -0.4891
  691MOL0     C95285  12.184   4.556   1.063 -0.2089  0.0655  1.4545
  691MOL0     C95286  11.483   4.132   1.111 -0.1965 -0.6007  0.4423
  691MOL0     C95287  11.360   4.060   1.130 -0.7425 -0.8827  0.8388
  691MOL0     C95288  11.369   3.907   1.127 -0.0065 -0.0383 -0.1340
  691MOL0     H95289  10.984   3.727   1.260 -0.2124 -1.9394  0.6118
  691MOL0     H95290  10.770   3.655   1.367  0.3678  0.3965  4.7353
  691MOL0     H95291  10.639   3.675   1.553 -0.2901 -2.6867 -1.7618
  691MOL0     H95292  10.542   3.648   1.400  0.5903  1.2738 -1.0227
  691MOL0     H95293  10.415   3.593   1.613 -1.2262 -1.5147 -1.3616
  691MOL0     H95294  10.426   3.771   1.650 -0.8248 -1.4534  0.5415
  691MOL0     H95295  10.262   3.827   1.490  1.0065  0.6172  3.2625
  691MOL0     H95296  10.274   3.672   1.405  0.9648  0.1326  0.6883
  691MOL0     H95297  10.205   3.536   1.580 -0.3390 -0.7421 -0.4763
  691MOL0     H95298  10.195   3.682   1.686 -1.4695 -0.4022  0.8038
  691MOL0     H95299  10.037   3.664   1.428  0.6323  1.3694  0.2170
  691MOL0     H95300  10.001   3.766   1.574  0.6731  1.0516 -0.6307
  691MOL0     H95301   9.935   3.569   1.696 -4.2980 -0.2934 -0.6573
  691MOL0     H95302   9.841   3.607   1.566 -1.7774 -0.2439  6.6665
  691MOL0     H95303  10.064   3.394   1.587 -0.9192 -1.2766 -0.1833
  691MOL0     H95304   9.968   3.414   1.437  1.3153  1.1781 -0.8546
  691MOL0     H95305   9.760   3.351   1.598 -0.4813  1.5322  2.6004
  691MOL0     H95306   9.875   3.219   1.576 -0.1452  0.6348 -0.3694
  691MOL0     H95307  10.073   3.192   1.759  0.3540 -1.6662  2.6290
  691MOL0     H95308  10.084   3.118   2.047 -2.7753 -0.6319  0.1547
  691MOL0     H95309  10.009   3.233   2.161  2.0131 -0.7905  1.0603
  691MOL0     H95310  10.203   3.397   2.078 -2.2090  0.9953  2.2193
  691MOL0     H95311  10.241   3.281   2.203  0.9517 -2.0117 -0.6941
  691MOL0     H95312  10.332   3.129   2.043  1.1480  0.1335  0.4656
  691MOL0     H95313  10.266   3.223   1.904  2.2576  1.0519 -1.1955
  691MOL0     H95314  10.460   3.355   2.103  2.2081  0.1508  0.4096
  691MOL0     H95315  10.529   3.274   1.976  2.0409  3.1569  4.1542
  691MOL0     H95316  10.305   3.662   1.928 -0.4882 -0.5903 -0.1524
  691MOL0     H95317  10.428   3.973   1.912 -0.7181  0.1165  0.6895
  691MOL0     H95318  10.402   3.944   2.078  0.7421  0.4936  0.2305
  691MOL0     H95319  10.294   3.864   1.954  0.8525  0.4469 -0.8696
  691MOL0     H95320  11.072   3.824   1.955 -0.3611  0.6627 -0.9856
  691MOL0     H95321  11.278   3.990   1.971  0.2963  1.4795  0.0056
  691MOL0     H95322  11.213   4.420   1.909  2.8800  0.5409 -0.0430
  691MOL0     H95323  11.195   4.410   2.085 -2.1760  0.3227 -1.7383
  691MOL0     H95324  11.415   4.384   2.128 -0.7938  1.1149  0.8582
  691MOL0     H95325  11.453   4.377   1.948 -0.8038  2.0418 -1.4542
  691MOL0     H95326  11.328   4.607   2.086  0.5469 -0.6779  1.1606
  691MOL0     H95327  11.357   4.592   1.915 -1.7414 -0.9389  0.3574
  691MOL0     H95328  11.603   4.562   1.968 -0.1969  2.5618 -1.7252
  691MOL0     H95329  11.582   4.599   2.132  2.9755 -1.8512 -2.2147
  691MOL0     H95330  11.662   4.795   2.000  0.2675  0.8305 -0.5292
  691MOL0     H95331  11.513   4.782   1.906 -0.2110  0.0838  0.4239
  691MOL0     H95332  11.393   4.834   2.129 -0.6944 -0.4630 -2.8239
  691MOL0     H95333  11.483   4.963   2.056 -2.1406 -1.5213 -0.8997
  691MOL0     H95334  11.667   4.919   2.200 -0.6228  0.5456 -3.1502
  691MOL0     H95335  11.582   4.783   2.286  0.8191  0.2778  0.0265
  691MOL0     H95336  11.411   4.954   2.363  0.0956 -0.6217  0.2051
  691MOL0     H95337  11.497   5.069   2.258 -0.7126 -0.1375 -0.3921
  691MOL0     H95338  10.977   4.300   1.996 -3.7805 -1.0647 -0.4212
  691MOL0     H95339  10.812   4.159   2.015 -0.7928 -1.2983 -1.1827
  691MOL0     H95340  10.805   3.652   1.946 -0.0081  1.8778 -0.2868
  691MOL0     H95341  10.668   3.434   1.903 -0.6741  0.1887 -3.4554
  691MOL0     H95342  10.657   4.067   1.399 -0.1663 -0.5170  0.0345
  691MOL0     H95343  10.858   4.136   1.295 -0.0049 -0.8953 -0.0076
  691MOL0     H95344  11.166   4.330   1.188  2.5135  1.8166  1.1983
  691MOL0     H95345  11.377   4.451   1.155  1.6063 -0.3994  3.5681
  691MOL0     H95346  11.585   4.515   0.980  0.0422  0.1583 -0.1205
  691MOL0     H95347  11.590   4.534   1.145 -1.7117 -0.1032 -1.1455
  691MOL0     H95348  11.841   4.460   1.150  1.4057 -0.1847 -1.0800
  691MOL0     H95349  11.797   4.613   1.073 -1.0601  0.0269  0.5953
  691MOL0     H95350  11.794   4.378   0.889 -0.5762  0.5054  0.3043
  691MOL0     H95351  11.849   4.533   0.848 -4.9890 -0.4168  0.0573
  691MOL0     H95352  12.022   4.377   0.840 -0.4477  0.4092  0.5237
  691MOL0     H95353  11.984   4.309   0.991 -2.1850  0.4062 -0.8190
  691MOL0     H95354  12.243   4.630   1.114 -1.9488  1.9752  0.8709
  691MOL0     H95355  11.572   4.076   1.082  0.3733  0.7785 -0.5909
  691MOL0     H95356  11.469   3.874   1.156 -0.4539 -0.6853  0.7082
  691MOL0     H95357  11.293   3.854   1.184 -1.9305  1.6521 -1.0123
  691MOL0     H95358  11.353   3.877   1.023 -0.7200 -0.7514  0.1799
  692MOL0     O95359   4.307   2.006   4.940  0.0089  0.4906 -0.2335
  692MOL0     C95360   4.421   1.964   4.920 -0.2939  0.0262 -0.4304
  692MOL0     O95361   4.533   2.050   4.910 -1.2188 -0.1617 -0.9291
  692MOL0     C95362   4.498   2.176   4.864 -0.0358 -0.0579  0.4776
  692MOL0     C95363   4.493   2.202   4.728  0.4608 -0.9994  0.4812
  692MOL0     C95364   4.464   2.334   4.691  0.1969 -0.6192 -0.4893
  692MOL0     C95365   4.431   2.440   4.779 -0.4822 -0.6703 -0.0946
  692MOL0     O95366   4.402   2.553   4.721  0.0143 -0.1126 -0.0158
  692MOL0     C95367   4.415   2.670   4.795 -0.2578  0.7220  0.1579
  692MOL0     C95368   4.397   2.780   4.686  0.6382 -0.7704 -0.9149
  692MOL0     C95369   4.526   2.844   4.627  0.8124 -0.0606 -0.7076
  692MOL0     C95370   4.595   2.742   4.547  0.2685  0.4115  0.9090
  692MOL0     C95371   4.522   2.702   4.421 -0.7100  0.7301  0.1957
  692MOL0     C95372   4.611   2.631   4.317  0.6676  0.2256  0.5925
  692MOL0     C95373   4.649   2.487   4.364 -0.3138 -0.4177 -0.4396
  692MOL0     C95374   4.761   2.407   4.292  0.0929 -0.1521 -0.3326
  692MOL0     N95375   4.775   2.272   4.351  0.4897  0.1855  0.2141
  692MOL0     C95376   4.781   2.228   4.482 -0.6078 -0.3758 -0.0804
  692MOL0     C95377   4.771   2.096   4.477 -0.6431 -0.6242 -0.2667
  692MOL0     C95378   4.789   1.999   4.588  0.0881  0.0117  0.0626
  692MOL0     C95379   4.825   1.857   4.538 -0.1242  0.4201 -0.6242
  692MOL0     C95380   4.825   1.773   4.665 -0.2061 -0.2469  0.4552
  692MOL0     C95381   4.896   1.647   4.635  0.2327  0.8246  1.0335
  692MOL0     O95382   4.887   1.563   4.745  0.3272  0.1590 -0.2384
  692MOL0     C95383   4.963   1.444   4.740  0.8707  0.2570 -0.5942
  692MOL0     C95384   4.988   1.387   4.864 -0.0098 -0.6563  0.3004
  692MOL0     C95385   5.060   1.271   4.879 -0.1593  0.4895 -0.6056
  692MOL0     C95386   5.095   1.250   5.025 -0.2969 -0.5962  0.1394
  692MOL0     C95387   5.106   1.196   4.766  0.4561  0.0805 -1.1428
  692MOL0     C95388   5.170   1.058   4.772  0.5240 -0.4627 -0.1833
  692MOL0     O95389   5.249   1.028   4.675 -0.1520 -0.1710 -1.0558
  692MOL0     C95390   5.266   0.897   4.637 -0.7348  0.0084  0.1508
  692MOL0     C95391   5.161   0.808   4.642 -0.2252  0.8349  1.2323
  692MOL0     C95392   5.185   0.669   4.598  0.2998  0.4677 -0.7908
  692MOL0     C95393   5.309   0.626   4.543  0.6164  0.0415  0.3060
  692MOL0     O95394   5.340   0.508   4.476 -0.0930  0.0951  0.6972
  692MOL0     C95395   5.312   0.384   4.546  0.0385 -0.3828 -0.6326
  692MOL0     C95396   5.165   0.336   4.520  0.0631 -0.5451 -0.1581
  692MOL0     C95397   5.139   0.326   4.377 -0.1142 -1.5640 -0.6161
  692MOL0     C95398   5.014   0.248   4.375  0.8436  0.0969  0.1736
  692MOL0     C95399   4.976   0.201   4.232  0.1429  0.6484 -0.1227
  692MOL0     C95400   4.859   0.095   4.236 -0.8059  0.2519 -0.0237
  692MOL0     C95401   4.731   0.163   4.279  0.3614 -0.2038 -0.0026
  692MOL0     C95402   4.616   0.069   4.235 -0.1223 -0.4339  0.0304
  692MOL0    Cl95403   4.619  -0.079   4.328  0.0110  0.1475  0.2976
  692MOL0     C95404   5.411   0.727   4.533  0.5826 -1.2718 -0.3506
  692MOL0     C95405   5.389   0.859   4.582 -0.2185 -0.3780 -0.0164
  692MOL0     O95406   5.150   0.983   4.873  0.3845 -0.4383  0.8676
  692MOL0     C95407   5.084   1.255   4.639 -0.1677 -0.3238 -0.2541
  692MOL0     C95408   5.017   1.383   4.630 -0.2672 -0.1619  0.0951
  692MOL0     N95409   4.754   2.061   4.346  0.1997 -0.1999 -0.7651
  692MOL0     N95410   4.759   2.167   4.269 -0.0289 -0.3831  0.1393
  692MOL0     C95411   4.428   2.412   4.912 -0.4722 -0.1469  0.0750
  692MOL0     C95412   4.470   2.282   4.956  0.0570 -0.4778 -0.0137
  692MOL0     C95413   4.457   1.815   4.927  0.1845 -0.8328 -0.6414
  692MOL0     C95414   4.591   1.773   4.943  0.3016  0.1891  0.4116
  692MOL0     C95415   4.634   1.643   4.956 -0.1260 -0.0959 -0.2113
  692MOL0     C95416   4.545   1.539   4.922  0.5962 -0.4186  0.2825
  692MOL0     O95417   4.589   1.408   4.925  0.3281  0.0370  0.0549
  692MOL0     C95418   4.518   1.318   4.829 -0.5095 -0.1992 -0.4701
  692MOL0     C95419   4.610   1.206   4.769 -0.1791  0.3637  0.0927
  692MOL0     C95420   4.662   1.117   4.880  0.1437 -0.6087  0.4811
  692MOL0     C95421   4.755   1.008   4.837  0.7244 -0.4583  1.6434
  692MOL0     C95422   4.814   0.959   4.960 -0.2584 -0.1226 -0.6141
  692MOL0     C95423   4.847   0.923   5.075 -0.5209  0.4285  0.5859
  692MOL0     C95424   4.411   1.568   4.908  0.1309 -0.6672 -0.3692
  692MOL0     C95425   4.364   1.704   4.912  0.8675  0.1708  0.3995
  692MOL0     C95426   4.212   1.721   4.925  0.2868 -1.0528 -0.3341
  692MOL0     H95427   4.518   2.118   4.664  1.4518  0.6604 -1.4225
  692MOL0     H95428   4.459   2.358   4.586  1.8845  4.3579  0.2794
  692MOL0     H95429   4.513   2.672   4.842 -0.8492  0.1714  1.4562
  692MOL0     H95430   4.325   2.680   4.856 -0.3509 -0.4779  0.2418
  692MOL0     H95431   4.347   2.741   4.597 -0.6573  0.3797 -0.7386
  692MOL0     H95432   4.338   2.861   4.731  1.5777 -0.2134 -0.6565
  692MOL0     H95433   4.495   2.931   4.569  0.8917 -0.6452 -1.6457
  692MOL0     H95434   4.595   2.889   4.699 -0.6983  0.4921  0.4561
  692MOL0     H95435   4.684   2.795   4.514  0.5120 -0.6972 -0.3161
  692MOL0     H95436   4.624   2.652   4.603  2.8886 -0.3479 -1.4208
  692MOL0     H95437   4.474   2.784   4.366  2.8810  2.2515 -0.9922
  692MOL0     H95438   4.440   2.635   4.446 -1.5392  1.8067  0.4663
  692MOL0     H95439   4.570   2.631   4.215  4.0993  1.0664 -0.9166
  692MOL0     H95440   4.703   2.687   4.298  1.4991 -0.2028  3.0336
  692MOL0     H95441   4.561   2.422   4.369 -0.1528 -0.5611  1.5017
  692MOL0     H95442   4.692   2.492   4.465 -0.1892 -2.0936 -0.3845
  692MOL0     H95443   4.741   2.403   4.184 -1.1724  1.6711 -0.2320
  692MOL0     H95444   4.858   2.456   4.298  0.3688 -0.9160  2.6142
  692MOL0     H95445   4.780   2.289   4.572  0.9921 -0.9869  0.3931
  692MOL0     H95446   4.702   1.989   4.653 -0.8372  0.0859 -1.1211
  692MOL0     H95447   4.874   2.025   4.652 -0.8388  2.3030  0.4641
  692MOL0     H95448   4.745   1.829   4.468 -4.8906  3.5085  2.9486
  692MOL0     H95449   4.927   1.868   4.500 -0.2077  0.9364 -0.7029
  692MOL0     H95450   4.882   1.828   4.740  0.7149  3.9012 -2.8769
  692MOL0     H95451   4.727   1.734   4.694 -1.2751 -0.4809 -3.0538
  692MOL0     H95452   4.847   1.600   4.549 -1.4104  0.5552  2.0640
  692MOL0     H95453   4.999   1.671   4.608  0.5538 -0.5364  0.9712
  692MOL0     H95454   4.947   1.434   4.954  0.7764 -0.7506  0.7215
  692MOL0     H95455   5.185   1.187   5.025 -0.2108 -0.5330  1.7548
  692MOL0     H95456   5.022   1.191   5.082  0.5080 -0.8708  0.9184
  692MOL0     H95457   5.123   1.346   5.070 -2.7716  0.3816 -0.2756
  692MOL0     H95458   5.068   0.845   4.683  0.8126  3.7137  1.2195
  692MOL0     H95459   5.096   0.606   4.605 -0.5489  1.5358 -1.6572
  692MOL0     H95460   5.376   0.302   4.513  0.6692 -0.6022  1.0430
  692MOL0     H95461   5.330   0.417   4.649  1.6309  0.6408 -1.1798
  692MOL0     H95462   5.154   0.242   4.575 -0.4193 -0.2009  0.3408
  692MOL0     H95463   5.090   0.403   4.563 -1.2428 -0.4582 -2.4043
  692MOL0     H95464   5.214   0.277   4.314  1.5758  0.7259 -0.4892
  692MOL0     H95465   5.126   0.431   4.350  0.8639 -1.1283  0.5121
  692MOL0     H95466   4.928   0.308   4.409 -0.3801 -0.1456 -2.2736
  692MOL0     H95467   5.011   0.158   4.437  2.0257 -0.9816 -1.2702
  692MOL0     H95468   4.940   0.286   4.173 -1.9332 -0.3795 -0.4094
  692MOL0     H95469   5.063   0.146   4.195 -0.4253 -0.4448  0.1220
  692MOL0     H95470   4.885   0.006   4.294  0.4409  1.0828  0.7275
  692MOL0     H95471   4.843   0.053   4.136  0.5348 -1.3986  0.4190
  692MOL0     H95472   4.722   0.265   4.240 -0.4253 -0.7984 -1.4453
  692MOL0     H95473   4.732   0.183   4.386  2.2602 -0.8248  0.1399
  692MOL0     H95474   4.638   0.049   4.130  2.8774 -1.1941  0.7379
  692MOL0     H95475   4.517   0.116   4.247 -0.1335 -0.8683  2.0852
  692MOL0     H95476   5.510   0.699   4.498  2.7751  4.4956  0.0667
  692MOL0     H95477   5.463   0.937   4.568 -0.6344 -0.3282 -2.4237
  692MOL0     H95478   5.098   1.204   4.544 -1.8962  1.8347 -1.7629
  692MOL0     H95479   5.008   1.419   4.528  0.3933 -0.1846  0.0245
  692MOL0     H95480   4.404   2.490   4.983  0.6713  1.6230 -1.4015
  692MOL0     H95481   4.476   2.269   5.064  1.1362  0.9500  0.1189
  692MOL0     H95482   4.669   1.847   4.961 -1.4794  3.0486 -2.5781
  692MOL0     H95483   4.739   1.621   4.976  0.4432 -0.2243 -2.9948
  692MOL0     H95484   4.441   1.270   4.890  0.1138  0.2308  0.6811
  692MOL0     H95485   4.464   1.374   4.752 -0.8386  0.4651  0.2257
  692MOL0     H95486   4.695   1.244   4.712 -0.8980 -1.8831 -2.6970
  692MOL0     H95487   4.550   1.151   4.697  0.3265  1.0679 -0.8822
  692MOL0     H95488   4.714   1.187   4.946  2.2204  0.1899 -1.8415
  692MOL0     H95489   4.580   1.064   4.929 -2.3213  1.4892 -1.1360
  692MOL0     H95490   4.829   1.045   4.766 -1.1068 -0.6290 -0.5030
  692MOL0     H95491   4.694   0.932   4.787  0.8003 -0.1310  1.0455
  692MOL0     H95492   4.877   0.900   5.175  0.9655  0.9848  0.2832
  692MOL0     H95493   4.347   1.480   4.898 -1.3523  0.3536 -0.2669
  692MOL0     H95494   4.175   1.808   4.980  0.2366  0.9108 -3.2611
  692MOL0     H95495   4.157   1.727   4.831 -1.8937 -2.2463  0.7716
  692MOL0     H95496   4.180   1.625   4.966  6.2198 -2.9211  0.9433
  693MOL0     O95497   3.329   6.419   4.086  0.1185 -0.5653  0.3841
  693MOL0     C95498   3.290   6.422   4.199  0.1292 -0.5968 -0.5598
  693MOL0     O95499   3.359   6.474   4.309 -0.0922 -0.2715 -0.0301
  693MOL0     C95500   3.498   6.471   4.313 -0.1093  1.7148  0.2601
  693MOL0     C95501   3.568   6.570   4.369  0.9084 -0.1926  1.2568
  693MOL0     C95502   3.702   6.555   4.380 -0.2173  0.2407 -0.0578
  693MOL0     C95503   3.778   6.443   4.338 -0.4985 -0.6081 -0.4337
  693MOL0     O95504   3.911   6.426   4.364  0.6651  0.7070  0.4185
  693MOL0     C95505   3.991   6.523   4.432 -0.2290  0.2245 -0.3535
  693MOL0     C95506   4.125   6.447   4.458 -0.2248  0.5341  0.1864
  693MOL0     C95507   4.230   6.522   4.541  0.1956 -0.2418 -0.6800
  693MOL0     C95508   4.326   6.427   4.623  0.4416 -0.4514  0.2203
  693MOL0     C95509   4.422   6.511   4.714 -0.3436  0.4376 -0.2034
  693MOL0     C95510   4.359   6.559   4.848 -0.2863 -0.4431  0.3386
  693MOL0     C95511   4.466   6.592   4.961  0.6487  0.2107  0.6671
  693MOL0     C95512   4.514   6.471   5.038 -0.2593 -0.5951  0.8133
  693MOL0     N95513   4.416   6.365   5.064  0.3260 -0.1435 -0.9482
  693MOL0     C95514   4.356   6.271   4.985  0.0346 -0.4697  0.6315
  693MOL0     C95515   4.267   6.202   5.058  0.0019  0.0238 -0.4502
  693MOL0     C95516   4.174   6.093   5.007  0.0048 -0.4384  0.1559
  693MOL0     C95517   4.040   6.142   4.959 -0.5983  0.3783  0.5095
  693MOL0     C95518   4.038   6.258   4.855 -0.0376  0.2609  0.0114
  693MOL0     C95519   3.892   6.298   4.839 -0.2694 -0.2981 -0.3319
  693MOL0     O95520   3.801   6.205   4.778 -0.7160  0.9542 -0.1099
  693MOL0     C95521   3.675   6.242   4.770  0.6212  0.1474  0.0807
  693MOL0     C95522   3.585   6.193   4.861  0.4541  0.0843  0.4967
  693MOL0     C95523   3.443   6.196   4.849  0.0424  0.6750  0.0289
  693MOL0     C95524   3.357   6.128   4.953 -0.2329  1.0417  0.8138
  693MOL0     C95525   3.392   6.277   4.745 -0.0504  0.7808  0.2517
  693MOL0     C95526   3.250   6.293   4.712 -0.2728 -0.2611  0.2919
  693MOL0     O95527   3.154   6.214   4.764  0.4513 -0.4162  1.0245
  693MOL0     C95528   3.027   6.236   4.720  0.1498 -0.5959  0.0231
  693MOL0     C95529   2.974   6.149   4.617  0.1551 -0.3784 -0.3345
  693MOL0     C95530   2.835   6.151   4.592 -0.4728  0.4619  0.2127
  693MOL0     C95531   2.752   6.254   4.648  0.5247  0.3299  0.1348
  693MOL0     O95532   2.625   6.271   4.592  0.0130 -0.2526 -0.6578
  693MOL0     C95533   2.529   6.192   4.650 -0.2157 -0.3114 -0.0060
  693MOL0     C95534   2.418   6.199   4.548 -0.3520 -0.6875 -0.6160
  693MOL0     C95535   2.329   6.074   4.568  0.0643 -0.5039  1.6391
  693MOL0     C95536   2.250   6.071   4.696  0.2150  0.7144 -0.1612
  693MOL0     C95537   2.170   5.942   4.712 -0.1007  0.5788 -0.6162
  693MOL0     C95538   2.117   5.926   4.851 -0.0912  0.7814  0.1776
  693MOL0     C95539   2.066   5.771   4.861 -1.1848 -0.0011 -1.0212
  693MOL0     C95540   1.985   5.750   4.987  0.3971  0.0746  0.2404
  693MOL0    Cl95541   2.094   5.811   5.112 -0.0729 -0.0922 -0.4597
  693MOL0     C95542   2.820   6.351   4.730 -0.2944  0.5404  0.0554
  693MOL0     C95543   2.948   6.344   4.771  0.0820 -0.0649  0.7004
  693MOL0     O95544   3.228   6.388   4.638  0.6504 -0.6815 -0.0720
  693MOL0     C95545   3.487   6.343   4.665 -0.3157 -0.4984  0.4891
  693MOL0     C95546   3.625   6.329   4.672 -0.8649  0.1743  0.2449
  693MOL0     N95547   4.260   6.265   5.183  0.4042  0.0882  0.0819
  693MOL0     N95548   4.354   6.349   5.193  0.7211 -0.1767  0.4233
  693MOL0     C95549   3.705   6.332   4.289  0.8428 -0.7017 -0.6279
  693MOL0     C95550   3.562   6.351   4.265 -0.3274  0.2421 -0.3113
  693MOL0     C95551   3.136   6.398   4.223  0.3854  0.3636 -0.7156
  693MOL0     C95552   3.080   6.447   4.339 -1.2638 -0.0877  0.0704
  693MOL0     C95553   2.942   6.435   4.366 -0.4516  0.5204 -0.0188
  693MOL0     C95554   2.859   6.367   4.278  0.2253 -0.3685  0.1812
  693MOL0     O95555   2.723   6.337   4.301 -0.3602  0.5955  0.7687
  693MOL0     C95556   2.624   6.422   4.268 -0.0692  0.1618  1.0721
  693MOL0     C95557   2.659   6.552   4.191 -0.2439  0.2695 -0.7595
  693MOL0     C95558   2.539   6.624   4.141  0.4909  0.7494 -0.3175
  693MOL0     C95559   2.564   6.761   4.073 -0.1353  0.3134 -0.0705
  693MOL0     C95560   2.623   6.755   3.937 -0.5067  0.0847  0.1852
  693MOL0     C95561   2.676   6.740   3.832  0.4573  0.1401  0.4603
  693MOL0     C95562   2.920   6.308   4.166  0.0534  0.4522  0.9213
  693MOL0     C95563   3.058   6.321   4.139 -0.6165  0.6210 -0.3296
  693MOL0     C95564   3.105   6.244   4.022  0.3221  0.2400 -0.4632
  693MOL0     H95565   3.518   6.661   4.399 -1.1639 -0.7701 -0.2558
  693MOL0     H95566   3.765   6.636   4.415 -0.5535  0.5408 -0.1385
  693MOL0     H95567   3.946   6.551   4.528  1.9658 -0.8933  1.0999
  693MOL0     H95568   4.002   6.618   4.379  0.7550  2.8924  4.1354
  693MOL0     H95569   4.102   6.352   4.506 -0.0984  0.3260 -0.1647
  693MOL0     H95570   4.168   6.431   4.359 -0.3664  3.9222 -0.5408
  693MOL0     H95571   4.273   6.577   4.457 -0.4603 -0.8567 -1.4184
  693MOL0     H95572   4.177   6.591   4.608 -2.5184 -1.3740 -1.5295
  693MOL0     H95573   4.259   6.364   4.683  0.4495 -0.6101  0.0652
  693MOL0     H95574   4.372   6.361   4.550  0.1138 -0.5509  0.1012
  693MOL0     H95575   4.459   6.604   4.672  2.5561 -0.3391  0.3732
  693MOL0     H95576   4.512   6.453   4.736 -0.4947  0.5910  0.8850
  693MOL0     H95577   4.301   6.651   4.836 -1.9121 -0.8019  4.0119
  693MOL0     H95578   4.286   6.488   4.888 -1.5417 -1.1412 -2.9340
  693MOL0     H95579   4.417   6.665   5.026  0.2913  3.6876 -3.1124
  693MOL0     H95580   4.551   6.652   4.927 -1.0643  2.6882  0.4737
  693MOL0     H95581   4.584   6.423   4.970 -0.3342  0.5984 -0.1353
  693MOL0     H95582   4.542   6.499   5.140  0.1459  0.6786  0.3723
  693MOL0     H95583   4.360   6.245   4.879 -1.1418 -1.0351  0.7084
  693MOL0     H95584   4.179   6.007   5.074 -2.0796 -1.1008 -0.4575
  693MOL0     H95585   4.222   6.060   4.914 -2.1293 -0.3338 -1.0510
  693MOL0     H95586   3.989   6.057   4.914 -4.9651  2.0674  1.6896
  693MOL0     H95587   3.972   6.166   5.042  1.8325 -4.3054  4.3053
  693MOL0     H95588   4.097   6.339   4.897  2.5086  0.4608 -3.5324
  693MOL0     H95589   4.085   6.208   4.770  1.5585 -0.5554  1.3230
  693MOL0     H95590   3.848   6.317   4.937  2.6371 -1.3604  1.3275
  693MOL0     H95591   3.892   6.382   4.769 -0.9869 -0.8841 -1.0648
  693MOL0     H95592   3.624   6.131   4.940 -1.1923  0.0365  1.3159
  693MOL0     H95593   3.426   6.085   5.025  0.3393 -0.0941 -0.3660
  693MOL0     H95594   3.289   6.059   4.901  0.1605  1.0609  0.2595
  693MOL0     H95595   3.297   6.199   5.011 -3.0066  0.2246 -0.8294
  693MOL0     H95596   3.023   6.065   4.568  1.0567 -0.1955  0.2291
  693MOL0     H95597   2.783   6.071   4.541 -0.6676 -1.0559  2.6235
  693MOL0     H95598   2.567   6.090   4.666  1.2614  0.2790  0.4797
  693MOL0     H95599   2.508   6.232   4.750 -0.0477  2.3503 -0.9647
  693MOL0     H95600   2.362   6.293   4.544  0.0987 -0.4171 -0.6695
  693MOL0     H95601   2.470   6.190   4.452  4.3073 -2.8393  1.7705
  693MOL0     H95602   2.389   5.983   4.557 -1.0219 -0.9369 -4.3448
  693MOL0     H95603   2.261   6.067   4.482  1.1311 -1.8121  0.8712
  693MOL0     H95604   2.182   6.156   4.698 -0.6127  0.0698 -0.3859
  693MOL0     H95605   2.320   6.087   4.779  2.5910  2.3614 -2.3524
  693MOL0     H95606   2.085   5.933   4.643  0.4370  1.8264 -1.4918
  693MOL0     H95607   2.232   5.853   4.693 -0.2594  0.6397 -1.4909
  693MOL0     H95608   2.032   5.992   4.871  1.2241  2.7973 -0.6651
  693MOL0     H95609   2.204   5.947   4.914  1.7540 -0.5589 -1.7681
  693MOL0     H95610   2.151   5.702   4.859 -1.9255 -1.2404  2.6298
  693MOL0     H95611   2.007   5.738   4.775 -2.3037 -3.5315  0.8911
  693MOL0     H95612   1.968   5.643   5.005 -1.5084  0.2076 -0.4981
  693MOL0     H95613   1.888   5.800   4.992 -0.4779 -1.6404  1.9830
  693MOL0     H95614   2.762   6.431   4.774 -0.4557 -0.1618  1.1577
  693MOL0     H95615   2.988   6.404   4.852  1.3846  1.5738 -1.0819
  693MOL0     H95616   3.461   6.407   4.581  0.5315 -0.0956  0.5174
  693MOL0     H95617   3.684   6.373   4.593 -1.1377  1.5822  0.7812
  693MOL0     H95618   3.763   6.240   4.276  1.6091 -0.4307  0.6530
  693MOL0     H95619   3.515   6.276   4.202  2.7653  0.1415 -2.7704
  693MOL0     H95620   3.154   6.502   4.395 -2.1063  1.1342  0.0311
  693MOL0     H95621   2.900   6.478   4.457 -3.1897 -0.5232 -0.6957
  693MOL0     H95622   2.566   6.374   4.189  0.9998 -0.4144  0.6199
  693MOL0     H95623   2.554   6.435   4.351 -2.9792  3.4623 -1.5458
  693MOL0     H95624   2.727   6.537   4.107  3.2367 -1.6347  2.1523
  693MOL0     H95625   2.717   6.601   4.269 -0.2072  0.6742 -1.0403
  693MOL0     H95626   2.477   6.551   4.089 -2.4394  1.3534  2.0342
  693MOL0     H95627   2.482   6.644   4.233  0.4776 -0.9808  0.0815
  693MOL0     H95628   2.619   6.824   4.143  1.0032  1.9936 -2.3530
  693MOL0     H95629   2.467   6.811   4.071 -0.0164  0.6071  0.8358
  693MOL0     H95630   2.724   6.748   3.737  1.5351 -0.4029  0.9317
  693MOL0     H95631   2.861   6.234   4.113 -0.9687  1.0455  1.1882
  693MOL0     H95632   3.051   6.150   4.013 -0.2926  0.6768 -1.5068
  693MOL0     H95633   3.077   6.302   3.933  0.4842  0.7581 -0.1809
  693MOL0     H95634   3.212   6.221   4.021  0.8667  2.4764  0.6129
  694MOL0     O95635   5.310   8.274   6.680  0.1420  0.3100 -0.3869
  694MOL0     C95636   5.230   8.278   6.590 -0.3167 -0.8054  0.2266
  694MOL0     O95637   5.259   8.308   6.459 -0.1907  0.0768 -0.2248
  694MOL0     C95638   5.392   8.329   6.430  0.8640 -0.2642  0.8485
  694MOL0     C95639   5.455   8.234   6.341  0.2046  0.1985  0.3018
  694MOL0     C95640   5.583   8.253   6.294  0.3466 -0.2319 -0.2501
  694MOL0     C95641   5.656   8.361   6.345 -0.0766 -0.0426  0.9363
  694MOL0     O95642   5.787   8.372   6.290 -0.2983 -0.4264  0.0245
  694MOL0     C95643   5.867   8.252   6.284 -0.1269 -0.1408  0.1997
  694MOL0     C95644   6.009   8.273   6.240  0.4180  0.3256  0.8620
  694MOL0     C95645   6.084   8.142   6.213 -1.1926  0.0052  0.0790
  694MOL0     C95646   6.229   8.186   6.169 -0.2094  0.0053 -0.3644
  694MOL0     C95647   6.289   8.054   6.129 -0.7368  0.2235  0.1294
  694MOL0     C95648   6.436   8.068   6.088 -0.1299  0.4300 -0.2903
  694MOL0     C95649   6.481   7.931   6.018  0.5348 -0.8219  0.3355
  694MOL0     C95650   6.636   7.937   5.991 -0.1686  0.9340  0.7949
  694MOL0     N95651   6.675   7.807   5.931 -0.4121 -0.4443 -0.4244
  694MOL0     C95652   6.725   7.703   6.017 -0.1794 -1.6216 -0.0107
  694MOL0     C95653   6.786   7.625   5.935  1.1165 -0.3047  0.2780
  694MOL0     C95654   6.855   7.499   5.964  0.1805  0.8765 -0.9066
  694MOL0     C95655   6.940   7.493   6.096 -0.4195  0.8883  0.5010
  694MOL0     C95656   7.026   7.618   6.128 -0.8770  0.8162 -0.1547
  694MOL0     C95657   7.071   7.617   6.273  0.5702  0.8350  0.5672
  694MOL0     O95658   7.121   7.744   6.285  0.3189 -0.0989 -0.3500
  694MOL0     C95659   7.147   7.790   6.414 -0.1132  0.9273 -0.2185
  694MOL0     C95660   7.077   7.894   6.472 -0.4312 -0.6053  0.9232
  694MOL0     C95661   7.093   7.930   6.609  1.0030 -0.0832 -0.1113
  694MOL0     C95662   7.026   8.062   6.658 -0.3609  0.0466 -0.0763
  694MOL0     C95663   7.178   7.855   6.689  0.6794 -0.2370 -0.4366
  694MOL0     C95664   7.216   7.884   6.830  0.2757  0.2953  0.0892
  694MOL0     O95665   7.199   8.006   6.872 -0.1351 -0.7460  0.6503
  694MOL0     C95666   7.228   8.049   6.999 -0.0279 -0.2532  0.0608
  694MOL0     C95667   7.175   8.001   7.121 -0.0610  0.3923  0.3664
  694MOL0     C95668   7.208   8.046   7.248  0.4943 -0.2511  0.3997
  694MOL0     C95669   7.304   8.146   7.257  0.0176 -0.2043  0.2566
  694MOL0     O95670   7.344   8.174   7.386  0.6089 -0.1460  0.0840
  694MOL0     C95671   7.364   8.071   7.472  0.0090  0.1655 -0.1257
  694MOL0     C95672   7.402   8.124   7.610  0.1539  0.6844  1.4124
  694MOL0     C95673   7.283   8.182   7.690  0.5261 -0.9003  0.3789
  694MOL0     C95674   7.335   8.300   7.774 -0.7695 -0.9504  0.1384
  694MOL0     C95675   7.214   8.379   7.834  0.0774 -0.1805  1.0054
  694MOL0     C95676   7.162   8.321   7.966  0.3996  0.5194  0.6300
  694MOL0     C95677   7.077   8.421   8.038 -0.4050 -0.3691 -0.4477
  694MOL0     C95678   6.927   8.392   8.065 -1.0490 -0.0956 -0.8135
  694MOL0    Cl95679   6.928   8.241   8.163  0.4806  0.0598 -0.3819
  694MOL0     C95680   7.359   8.202   7.140 -0.0232 -0.4222 -0.0181
  694MOL0     C95681   7.327   8.152   7.014  0.2331 -0.6186 -0.5001
  694MOL0     O95682   7.254   7.796   6.901 -0.5535  0.7284 -0.1189
  694MOL0     C95683   7.242   7.743   6.627 -0.2288 -0.3071  0.4400
  694MOL0     C95684   7.235   7.716   6.490 -0.1444  0.4139 -1.7177
  694MOL0     N95685   6.764   7.669   5.804 -0.8569 -0.2214  0.9394
  694MOL0     N95686   6.711   7.784   5.808  0.5728 -0.2011 -0.7361
  694MOL0     C95687   5.600   8.458   6.425  0.3247 -0.1073 -0.2347
  694MOL0     C95688   5.466   8.442   6.468 -0.2044  0.5537 -0.6662
  694MOL0     C95689   5.090   8.239   6.621  0.4847 -0.2656 -0.5053
  694MOL0     C95690   4.989   8.296   6.554 -0.0044  0.1600 -0.1117
  694MOL0     C95691   4.855   8.257   6.568 -0.1373 -0.2966 -0.2669
  694MOL0     C95692   4.826   8.162   6.664 -0.2237  0.2867 -0.5628
  694MOL0     O95693   4.700   8.120   6.702  0.8991  0.1175 -0.2898
  694MOL0     C95694   4.598   8.142   6.609  0.7065 -0.0677 -0.1589
  694MOL0     C95695   4.528   8.011   6.565 -0.3270 -0.2988 -0.0342
  694MOL0     C95696   4.383   8.036   6.532 -0.8996 -0.9369  0.1886
  694MOL0     C95697   4.358   8.135   6.410  0.7122  0.7254 -1.1019
  694MOL0     C95698   4.434   8.096   6.293  0.2699 -0.3428 -1.4653
  694MOL0     C95699   4.496   8.083   6.189  0.1194  0.8364  0.3615
  694MOL0     C95700   4.928   8.098   6.731 -0.1972  0.4273  0.3718
  694MOL0     C95701   5.064   8.140   6.717  0.8932 -0.3769  0.3433
  694MOL0     C95702   5.173   8.060   6.789  0.6273  0.3137  0.0067
  694MOL0     H95703   5.388   8.155   6.310  0.3554  0.7425 -1.5688
  694MOL0     H95704   5.615   8.178   6.223 -0.2653 -1.7904  1.0764
  694MOL0     H95705   5.819   8.180   6.217  2.1583  1.8725 -4.0511
  694MOL0     H95706   5.880   8.219   6.387 -0.5321 -0.9005  0.0138
  694MOL0     H95707   6.000   8.327   6.146  0.0551 -0.9708  0.1291
  694MOL0     H95708   6.062   8.336   6.312 -0.1870  1.7654  0.0669
  694MOL0     H95709   6.066   8.086   6.306 -2.7976 -0.4329 -0.4464
  694MOL0     H95710   6.037   8.091   6.128 -1.4797  1.4564 -0.6766
  694MOL0     H95711   6.225   8.264   6.092  0.5759 -0.2631 -0.6927
  694MOL0     H95712   6.290   8.216   6.254  1.2446 -0.8327 -1.0631
  694MOL0     H95713   6.231   8.011   6.046 -1.4127  0.7048  0.3392
  694MOL0     H95714   6.282   7.984   6.213 -0.8225 -0.0831 -0.1312
  694MOL0     H95715   6.447   8.153   6.020  0.0857  1.6144  1.1973
  694MOL0     H95716   6.508   8.088   6.167  0.9369 -2.3889 -0.4375
  694MOL0     H95717   6.442   7.922   5.916  0.7204 -2.7803  0.3832
  694MOL0     H95718   6.454   7.851   6.088  1.6578  0.7298  2.6511
  694MOL0     H95719   6.641   8.010   5.910 -2.2913 -1.8977 -2.1557
  694MOL0     H95720   6.687   7.966   6.084 -2.4399 -1.2853  2.8951
  694MOL0     H95721   6.717   7.710   6.125  0.8342  1.2762 -0.0108
  694MOL0     H95722   6.919   7.474   5.879 -1.1953 -1.5626 -1.3278
  694MOL0     H95723   6.783   7.417   5.962 -1.2849  1.9602  1.6840
  694MOL0     H95724   6.856   7.474   6.164 -1.4153  0.2286 -0.8716
  694MOL0     H95725   7.002   7.403   6.096 -0.7491  0.6092 -1.7606
  694MOL0     H95726   7.109   7.612   6.058 -0.9018 -2.4260 -0.0705
  694MOL0     H95727   6.979   7.716   6.114 -0.0868  0.9122 -2.4037
  694MOL0     H95728   6.980   7.618   6.333 -0.0215  3.8805 -0.2251
  694MOL0     H95729   7.139   7.535   6.297 -2.1018 -1.6199  0.3647
  694MOL0     H95730   7.010   7.947   6.405 -1.4241 -1.8381  0.9076
  694MOL0     H95731   6.948   8.037   6.731  1.8688 -1.7798  1.8701
  694MOL0     H95732   6.985   8.122   6.577 -0.0865 -0.7483 -0.8197
  694MOL0     H95733   7.099   8.129   6.705  1.7638 -1.5791 -0.8977
  694MOL0     H95734   7.099   7.926   7.102 -0.0756  0.7888 -1.2924
  694MOL0     H95735   7.152   7.995   7.326  1.9519 -2.3794  0.1336
  694MOL0     H95736   7.271   8.020   7.497  1.4266 -2.2953  0.4659
  694MOL0     H95737   7.440   8.001   7.436 -1.0993 -1.2620  0.2026
  694MOL0     H95738   7.447   8.039   7.661  2.9891  0.5853 -0.9776
  694MOL0     H95739   7.473   8.205   7.596  0.8721 -0.0650  0.5899
  694MOL0     H95740   7.253   8.098   7.753 -1.5694 -0.4515  0.0630
  694MOL0     H95741   7.199   8.209   7.626  1.1389 -0.8733 -0.4312
  694MOL0     H95742   7.396   8.376   7.724  0.1062 -1.1153  0.9385
  694MOL0     H95743   7.393   8.264   7.859  0.9101 -1.3766 -1.1284
  694MOL0     H95744   7.244   8.484   7.835 -0.2649 -0.0539 -0.3520
  694MOL0     H95745   7.140   8.383   7.753  3.0732 -0.5020 -1.9691
  694MOL0     H95746   7.251   8.289   8.021 -0.2218 -0.7021  0.9774
  694MOL0     H95747   7.108   8.227   7.949  2.1056  0.0655 -3.4710
  694MOL0     H95748   7.083   8.520   7.992  1.4545  0.2343  0.9483
  694MOL0     H95749   7.130   8.428   8.134  1.4481  0.8177 -1.4920
  694MOL0     H95750   6.877   8.357   7.975 -0.2903 -0.5677 -1.0623
  694MOL0     H95751   6.873   8.473   8.114 -0.3282 -0.8723  1.4456
  694MOL0     H95752   7.433   8.282   7.144 -0.2957 -0.1945  0.7251
  694MOL0     H95753   7.370   8.186   6.921 -0.5711 -1.5053 -1.2185
  694MOL0     H95754   7.307   7.675   6.681  1.0285 -0.7850 -1.5633
  694MOL0     H95755   7.285   7.631   6.444  2.1866  0.5607  0.3627
  694MOL0     H95756   5.655   8.549   6.448 -1.8406  0.6357  2.5061
  694MOL0     H95757   5.414   8.518   6.526  0.8626  1.5613 -0.9899
  694MOL0     H95758   5.025   8.378   6.491  0.9860  0.9569  1.4162
  694MOL0     H95759   4.779   8.311   6.513  1.0955  1.0604 -0.7041
  694MOL0     H95760   4.529   8.215   6.652  0.7386  1.7750 -2.9883
  694MOL0     H95761   4.622   8.188   6.513  1.2216 -1.0773 -0.5212
  694MOL0     H95762   4.544   7.944   6.650 -1.1462  0.0151  0.3832
  694MOL0     H95763   4.579   7.967   6.479 -2.3216  0.9385 -1.9333
  694MOL0     H95764   4.339   7.939   6.505  1.0004 -1.9572  0.5051
  694MOL0     H95765   4.329   8.068   6.621  0.3868  0.1286  0.6162
  694MOL0     H95766   4.389   8.234   6.444  0.2583  0.4282  0.2810
  694MOL0     H95767   4.253   8.144   6.382  0.0660  0.1624  0.9766
  694MOL0     H95768   4.551   8.066   6.099 -1.8981  1.5252 -1.0571
  694MOL0     H95769   4.908   8.012   6.795  1.4005 -0.5899 -0.4169
  694MOL0     H95770   5.243   8.014   6.719 -1.4874 -5.2755  1.0133
  694MOL0     H95771   5.225   8.116   6.867 -0.0051  2.3438 -0.9616
  694MOL0     H95772   5.134   7.968   6.835 -1.0082  0.4733 -0.9855
  695MOL0     O95773   3.224  10.949   2.382 -0.6838  0.4521  0.8070
  695MOL0     C95774   3.273  10.960   2.266 -0.2660  0.0695 -0.1701
  695MOL0     O95775   3.406  10.928   2.235  0.1003 -0.0232 -0.1372
  695MOL0     C95776   3.478  10.864   2.332  0.3732 -0.1746  0.6422
  695MOL0     C95777   3.550  10.928   2.432 -0.6715  0.6250  0.7152
  695MOL0     C95778   3.616  10.852   2.527 -0.0014 -0.9607 -0.5314
  695MOL0     C95779   3.617  10.720   2.523 -0.2916  0.8678 -0.9947
  695MOL0     O95780   3.680  10.667   2.624  0.1778 -0.3560  0.6260
  695MOL0     C95781   3.740  10.538   2.606 -0.5923 -1.3463  1.0939
  695MOL0     C95782   3.850  10.528   2.710 -0.1860  0.1311  0.0364
  695MOL0     C95783   3.948  10.405   2.715  0.1912  0.1614 -0.4850
  695MOL0     C95784   3.885  10.275   2.735  0.4516 -0.5617  0.0628
  695MOL0     C95785   3.889  10.236   2.877  0.5184  0.9036  0.2298
  695MOL0     C95786   3.813  10.096   2.897 -1.6446  0.4668 -0.3259
  695MOL0     C95787   3.843  10.050   3.039  0.3247 -1.3080  0.3189
  695MOL0     C95788   3.759   9.923   3.063 -0.5666  0.7536 -0.1034
  695MOL0     N95789   3.790   9.861   3.191 -1.0909 -0.4697 -0.1964
  695MOL0     C95790   3.901   9.778   3.219 -0.8089  0.5201 -0.4393
  695MOL0     C95791   3.898   9.752   3.357 -0.1644 -0.4760 -0.6145
  695MOL0     C95792   3.988   9.657   3.431 -0.5505  0.0361  0.2578
  695MOL0     C95793   3.914   9.519   3.420 -0.1435 -0.1971 -0.1922
  695MOL0     C95794   3.981   9.422   3.514 -0.1317  0.7730 -0.0454
  695MOL0     C95795   3.900   9.292   3.505  0.6354  0.2359 -0.2203
  695MOL0     O95796   3.795   9.273   3.602  0.4341  0.3305  0.4300
  695MOL0     C95797   3.726   9.151   3.595 -1.0122  0.6346  0.7336
  695MOL0     C95798   3.612   9.155   3.671 -0.1449  0.3796  0.1031
  695MOL0     C95799   3.523   9.046   3.673  0.1841 -0.3905 -0.6317
  695MOL0     C95800   3.403   9.055   3.756  0.2089  0.9062 -0.2363
  695MOL0     C95801   3.552   8.937   3.586 -0.3754 -0.5539 -0.8999
  695MOL0     C95802   3.485   8.811   3.590  0.8236  0.8373  0.3324
  695MOL0     O95803   3.415   8.775   3.466 -0.9442 -0.0188 -0.9817
  695MOL0     C95804   3.398   8.642   3.442 -0.0249  0.3548 -1.1656
  695MOL0     C95805   3.499   8.551   3.459 -0.2237 -0.0718  1.0130
  695MOL0     C95806   3.471   8.418   3.443  0.0789 -0.8993 -0.5993
  695MOL0     C95807   3.348   8.379   3.405  0.6947  0.8984  0.0051
  695MOL0     O95808   3.334   8.240   3.381  0.1220 -0.6167  0.2125
  695MOL0     C95809   3.431   8.147   3.434 -0.2320 -0.4959 -0.2158
  695MOL0     C95810   3.550   8.109   3.339  0.3323 -0.4397  0.0908
  695MOL0     C95811   3.656   8.038   3.414 -0.6317 -0.4916  0.1836
  695MOL0     C95812   3.755   8.137   3.488 -0.1656 -0.8913  0.7068
  695MOL0     C95813   3.853   8.052   3.573  0.7569 -0.2010  0.2698
  695MOL0     C95814   3.997   8.094   3.531  0.7230  0.3014  0.2589
  695MOL0     C95815   4.109   7.995   3.581 -0.1039  0.6470  0.5224
  695MOL0     C95816   4.253   8.032   3.550  0.8836 -0.0147  0.2590
  695MOL0    Cl95817   4.306   8.179   3.626 -0.0170 -0.0746  0.0969
  695MOL0     C95818   3.242   8.469   3.387  0.2068  0.4733 -0.3098
  695MOL0     C95819   3.268   8.600   3.410 -0.2075 -0.2790 -0.5038
  695MOL0     O95820   3.512   8.742   3.687  0.3544  0.4162  0.2371
  695MOL0     C95821   3.669   8.939   3.511  0.6156  0.0109 -0.9576
  695MOL0     C95822   3.757   9.044   3.507 -0.2161 -0.3570 -0.6192
  695MOL0     N95823   3.792   9.830   3.407  0.4694 -0.1800  0.3178
  695MOL0     N95824   3.734   9.895   3.312  0.4960  0.5935 -0.1370
  695MOL0     C95825   3.542  10.646   2.426 -0.1473 -0.6160 -0.1523
  695MOL0     C95826   3.469  10.725   2.337 -0.6234 -0.5824  0.8049
  695MOL0     C95827   3.201  11.034   2.160  0.3099  0.6063 -0.6743
  695MOL0     C95828   3.177  10.969   2.039 -1.0220 -0.9592 -0.4881
  695MOL0     C95829   3.099  11.038   1.940  0.7573 -0.2678 -0.8683
  695MOL0     C95830   3.053  11.168   1.964  0.1067 -0.1486  0.2377
  695MOL0     O95831   2.959  11.244   1.905 -0.1444  0.0092 -0.0932
  695MOL0     C95832   2.914  11.205   1.779 -0.4911  0.6813 -0.5739
  695MOL0     C95833   2.870  11.320   1.690 -0.1462  0.5011 -1.1605
  695MOL0     C95834   2.818  11.276   1.553  0.3345 -0.0702 -0.3387
  695MOL0     C95835   2.696  11.178   1.554  0.8916  0.4882 -0.0123
  695MOL0     C95836   2.620  11.170   1.432  0.0130 -0.2872  0.2217
  695MOL0     C95837   2.560  11.176   1.324 -0.6037  0.8091 -0.7698
  695MOL0     C95838   3.080  11.233   2.091 -0.0614  0.9745  0.3219
  695MOL0     C95839   3.158  11.165   2.186  0.2093 -0.2791  0.0771
  695MOL0     C95840   3.168  11.245   2.315 -0.4725 -0.3172  0.6507
  695MOL0     H95841   3.536  11.035   2.420 -1.1850  0.3014 -2.9234
  695MOL0     H95842   3.649  10.909   2.613 -1.7641  0.2559 -0.6031
  695MOL0     H95843   3.772  10.529   2.502  0.6182  0.4700  1.2728
  695MOL0     H95844   3.665  10.462   2.628  0.3323 -2.5765  0.1575
  695MOL0     H95845   3.916  10.611   2.685  1.7506 -1.6307 -0.9723
  695MOL0     H95846   3.807  10.559   2.806 -2.3973 -1.7622 -0.2291
  695MOL0     H95847   3.996  10.408   2.617 -0.4743  1.5665 -0.7899
  695MOL0     H95848   4.028  10.427   2.787  1.2337 -1.6390 -1.0285
  695MOL0     H95849   3.781  10.278   2.702 -0.3515 -0.8428  2.4011
  695MOL0     H95850   3.940  10.203   2.673  0.7161 -2.0312  1.8925
  695MOL0     H95851   3.838  10.311   2.938  0.8062  0.1087  1.4982
  695MOL0     H95852   3.991  10.228   2.917  0.6069 -1.8899 -0.3518
  695MOL0     H95853   3.705  10.092   2.884 -1.9454 -2.1415  2.1496
  695MOL0     H95854   3.859  10.029   2.823 -1.7490 -0.0218  0.0459
  695MOL0     H95855   3.811  10.133   3.102 -1.5580 -1.7801  0.0555
  695MOL0     H95856   3.946  10.016   3.055  0.1294 -0.9870  2.6001
  695MOL0     H95857   3.659   9.966   3.067  0.1599  2.5509 -0.4864
  695MOL0     H95858   3.773   9.847   2.985 -0.3667 -0.7802  1.3617
  695MOL0     H95859   3.970   9.730   3.150 -0.0828 -1.3906  1.5056
  695MOL0     H95860   4.009   9.686   3.534 -2.2311 -2.0687  1.2707
  695MOL0     H95861   4.073   9.646   3.363 -2.0472 -0.7285 -1.5945
  695MOL0     H95862   3.816   9.544   3.463 -0.3291  0.3141 -0.8755
  695MOL0     H95863   3.916   9.488   3.315 -1.5009  1.5027 -0.7767
  695MOL0     H95864   4.081   9.390   3.484 -0.2547 -0.2651  0.6123
  695MOL0     H95865   3.992   9.460   3.616  1.1576 -2.6248  1.2256
  695MOL0     H95866   3.842   9.296   3.412  0.3895  0.1785 -0.0698
  695MOL0     H95867   3.961   9.202   3.513 -1.7520 -1.7522 -2.2824
  695MOL0     H95868   3.592   9.246   3.727  0.7434  0.7753 -0.2121
  695MOL0     H95869   3.401   9.154   3.804  0.5793  1.3309 -1.0704
  695MOL0     H95870   3.409   8.974   3.829  1.2305  1.8475  0.7640
  695MOL0     H95871   3.311   9.047   3.697  0.4286  2.5155 -0.8798
  695MOL0     H95872   3.595   8.592   3.488 -1.3567  2.9621  0.8140
  695MOL0     H95873   3.555   8.349   3.441  1.0142  0.2269 -1.1054
  695MOL0     H95874   3.480   8.191   3.522  0.3493  2.2522 -1.8097
  695MOL0     H95875   3.364   8.061   3.438 -1.2707 -0.0965 -4.4815
  695MOL0     H95876   3.522   8.047   3.253 -1.4482 -0.1445  0.4121
  695MOL0     H95877   3.594   8.200   3.298  1.2521 -0.3593  1.2166
  695MOL0     H95878   3.715   7.988   3.336 -0.1282  1.1206 -0.5038
  695MOL0     H95879   3.625   7.964   3.489  0.1286  0.5486  1.5604
  695MOL0     H95880   3.692   8.197   3.554  0.4663  0.7031 -0.0763
  695MOL0     H95881   3.802   8.199   3.412  0.2379 -2.7102 -0.6015
  695MOL0     H95882   3.836   8.060   3.681  1.3539 -1.0751  0.4390
  695MOL0     H95883   3.832   7.947   3.554 -2.6220  0.5552 -0.8628
  695MOL0     H95884   4.009   8.198   3.564  3.2076 -0.7131  3.0466
  695MOL0     H95885   4.012   8.083   3.423  1.5552 -3.0725  0.6073
  695MOL0     H95886   4.079   7.909   3.521  0.7654  0.5578  0.1983
  695MOL0     H95887   4.099   7.970   3.688  1.6645 -0.0061  0.5639
  695MOL0     H95888   4.256   8.049   3.442 -0.9281 -2.6120 -0.2906
  695MOL0     H95889   4.312   7.945   3.581  0.0087 -0.4902  0.6118
  695MOL0     H95890   3.137   8.443   3.374  0.0978 -1.6880  3.4152
  695MOL0     H95891   3.192   8.674   3.385 -0.4149  0.4789  2.0813
  695MOL0     H95892   3.691   8.859   3.441  2.4479  2.5250 -3.4894
  695MOL0     H95893   3.849   9.036   3.449 -1.0065  1.6166 -2.3012
  695MOL0     H95894   3.542  10.538   2.408 -0.1328 -0.5938 -0.2857
  695MOL0     H95895   3.401  10.676   2.268 -0.2729  1.2779 -0.9705
  695MOL0     H95896   3.202  10.864   2.038 -2.2256 -1.3479  1.9951
  695MOL0     H95897   3.076  10.992   1.844  0.9112 -0.9105 -0.6006
  695MOL0     H95898   2.987  11.160   1.710 -1.2566 -0.0304 -0.9379
  695MOL0     H95899   2.836  11.133   1.804 -0.6635  1.3457  0.8905
  695MOL0     H95900   2.962  11.378   1.678 -0.1324  1.2739  1.8717
  695MOL0     H95901   2.801  11.383   1.747  2.6569 -0.5039  4.0088
  695MOL0     H95902   2.785  11.365   1.499  3.3942  2.0410  0.9562
  695MOL0     H95903   2.896  11.234   1.490 -0.2798 -2.8751  0.6430
  695MOL0     H95904   2.619  11.194   1.630  0.2185 -0.4779 -0.4682
  695MOL0     H95905   2.742  11.084   1.589 -0.7674  0.2394  1.6937
  695MOL0     H95906   2.503  11.180   1.234 -2.0911 -5.3535 -0.5580
  695MOL0     H95907   3.028  11.323   2.122  2.2134  1.1014  4.5692
  695MOL0     H95908   3.168  11.352   2.291  2.3782  0.0220  1.8481
  695MOL0     H95909   3.077  11.229   2.374 -2.6627  0.9188 -2.1350
  695MOL0     H95910   3.259  11.219   2.369  0.0752 -0.3321 -0.2492
  696MOL0     O95911   6.204   5.016   8.974  0.3449 -0.0890 -0.0729
  696MOL0     C95912   6.188   5.004   8.851  0.2021  0.1013 -1.1464
  696MOL0     O95913   6.225   4.884   8.786  0.5972 -0.0952  0.6611
  696MOL0     C95914   6.333   4.810   8.837 -0.6617 -0.6545  1.0661
  696MOL0     C95915   6.447   4.886   8.876  0.0327  0.0350 -1.1465
  696MOL0     C95916   6.562   4.814   8.913 -0.6902  0.6587  0.7655
  696MOL0     C95917   6.564   4.672   8.919 -0.7300  0.3994 -0.1324
  696MOL0     O95918   6.686   4.616   8.956 -0.4895 -0.3957  0.6914
  696MOL0     C95919   6.682   4.478   9.012 -0.7294 -0.9461  0.0869
  696MOL0     C95920   6.828   4.447   9.062  0.7298 -0.2068  0.2326
  696MOL0     C95921   6.894   4.557   9.149  0.1550 -0.4391 -0.5412
  696MOL0     C95922   7.020   4.503   9.210  0.0482  0.3490 -0.1691
  696MOL0     C95923   7.090   4.620   9.280  0.2262 -0.5578  0.4555
  696MOL0     C95924   7.212   4.579   9.361  0.8971 -0.2974  0.6170
  696MOL0     C95925   7.277   4.699   9.420  0.2734  0.1262  0.9248
  696MOL0     C95926   7.366   4.658   9.547  0.0339 -1.1375  0.3739
  696MOL0     N95927   7.285   4.590   9.650 -0.1273 -0.5968 -1.2658
  696MOL0     C95928   7.304   4.456   9.677  0.0113  0.1587 -0.0428
  696MOL0     C95929   7.245   4.433   9.796  0.2598 -0.6060 -0.6290
  696MOL0     C95930   7.225   4.305   9.867 -0.0538  0.5353 -0.5146
  696MOL0     C95931   7.359   4.272   9.938 -0.1423 -0.5476 -0.9347
  696MOL0     C95932   7.359   4.129   9.994 -0.3242 -0.7299 -0.6718
  696MOL0     C95933   7.238   4.084  10.081  0.0429 -0.4162 -0.2642
  696MOL0     O95934   7.253   3.950  10.123 -0.6084 -0.1362  0.4774
  696MOL0     C95935   7.337   3.921  10.226 -0.0571 -0.6234  0.2083
  696MOL0     C95936   7.339   3.791  10.269  0.6318 -0.2481  0.5293
  696MOL0     C95937   7.414   3.749  10.384 -0.3154  0.4410 -0.0003
  696MOL0     C95938   7.406   3.606  10.437 -0.3476  0.6766 -0.6294
  696MOL0     C95939   7.500   3.838  10.456  0.6721 -0.6684 -0.6467
  696MOL0     C95940   7.600   3.814  10.568  0.8357  0.0868  0.9068
  696MOL0     O95941   7.621   3.922  10.648 -1.1020  0.0512 -0.7871
  696MOL0     C95942   7.724   3.904  10.742  0.2395 -0.0686  0.3058
  696MOL0     C95943   7.711   3.812  10.845  1.7346 -0.9479  0.3779
  696MOL0     C95944   7.816   3.782  10.929  0.1964  0.3379  0.1992
  696MOL0     C95945   7.935   3.843  10.924 -0.8137 -1.0569 -0.7263
  696MOL0     O95946   8.038   3.806  11.012  0.4766 -0.1349  0.3308
  696MOL0     C95947   8.056   3.902  11.118  0.6456  0.3946 -0.4033
  696MOL0     C95948   8.198   3.900  11.175 -0.3598 -0.2622 -0.4991
  696MOL0     C95949   8.291   3.986  11.107 -0.7089 -0.5364  0.0769
  696MOL0     C95950   8.433   3.952  11.157  0.2948  0.0193  0.6344
  696MOL0     C95951   8.545   4.025  11.081  0.1770  0.1344 -0.3487
  696MOL0     C95952   8.678   3.984  11.156  0.1811  0.7716 -0.1263
  696MOL0     C95953   8.793   4.031  11.073 -0.2610  0.3124  0.2778
  696MOL0     C95954   8.938   4.019  11.122  0.8610  0.5681  0.2232
  696MOL0    Cl95955   8.969   3.867  11.214  0.5845 -0.7537  0.0021
  696MOL0     C95956   7.952   3.946  10.829 -0.1984 -0.4618 -0.0967
  696MOL0     C95957   7.848   3.972  10.734  0.6288  0.2272 -0.0974
  696MOL0     O95958   7.645   3.703  10.576  0.6085 -0.1590 -0.1399
  696MOL0     C95959   7.481   3.974  10.423 -0.3540 -0.3209  0.4608
  696MOL0     C95960   7.400   4.011  10.311 -1.0551  0.6980 -0.0322
  696MOL0     N95961   7.212   4.556   9.853 -1.1895 -0.2618 -0.4498
  696MOL0     N95962   7.226   4.649   9.766  0.0074 -0.1599  0.9277
  696MOL0     C95963   6.441   4.602   8.887 -0.8993 -1.0974 -0.2390
  696MOL0     C95964   6.322   4.672   8.848 -0.6939  0.1307 -1.0156
  696MOL0     C95965   6.105   5.099   8.767 -1.2236 -0.4359 -0.8047
  696MOL0     C95966   6.051   5.070   8.648  0.2742  0.9703 -1.0113
  696MOL0     C95967   5.968   5.160   8.585  0.8462 -0.2698  0.0316
  696MOL0     C95968   5.947   5.290   8.623 -0.9496  0.1318 -0.8660
  696MOL0     O95969   5.862   5.380   8.572 -0.0975  0.2728  0.4161
  696MOL0     C95970   5.782   5.342   8.462  0.4738 -0.0625  0.0375
  696MOL0     C95971   5.852   5.349   8.327 -0.2957 -0.2426 -0.4145
  696MOL0     C95972   5.764   5.303   8.218  0.5233  0.2516 -0.3494
  696MOL0     C95973   5.826   5.260   8.084  0.6461  0.3497  1.3327
  696MOL0     C95974   5.872   5.376   8.012 -0.8506  0.5685 -0.1437
  696MOL0     C95975   5.918   5.465   7.945 -0.4999 -0.7164  0.7925
  696MOL0     C95976   6.011   5.322   8.740  0.2468 -0.2356  0.5490
  696MOL0     C95977   6.095   5.235   8.814 -0.5501 -1.1721 -0.0439
  696MOL0     C95978   6.157   5.296   8.937 -0.3011 -0.2466  0.2465
  696MOL0     H95979   6.444   4.994   8.869  1.1126  0.2541  1.0399
  696MOL0     H95980   6.656   4.861   8.939 -0.6542 -0.0642  2.0601
  696MOL0     H95981   6.654   4.398   8.943 -0.8207 -0.3783 -0.5482
  696MOL0     H95982   6.612   4.469   9.095  0.0118 -1.2698  0.6931
  696MOL0     H95983   6.829   4.347   9.108  1.9953  1.0226  3.0643
  696MOL0     H95984   6.886   4.439   8.969  1.3329 -1.1057  0.6739
  696MOL0     H95985   6.906   4.649   9.091 -1.2868  0.8802  1.1396
  696MOL0     H95986   6.821   4.574   9.229 -0.8155  1.3640 -1.7384
  696MOL0     H95987   6.991   4.425   9.281 -0.7360  2.7751  2.3579
  696MOL0     H95988   7.088   4.471   9.130 -1.7589  1.1734 -2.1433
  696MOL0     H95989   7.017   4.651   9.355  0.6552  0.4276  0.4794
  696MOL0     H95990   7.104   4.707   9.215 -0.6534 -0.9566 -0.2907
  696MOL0     H95991   7.176   4.504   9.431  0.2486  0.4469  1.1091
  696MOL0     H95992   7.278   4.527   9.291  2.3046  1.2476  0.7515
  696MOL0     H95993   7.214   4.785   9.444  1.3261  1.2209 -0.0873
  696MOL0     H95994   7.343   4.735   9.341  1.6561 -2.9596  0.4919
  696MOL0     H95995   7.439   4.590   9.501  1.6391  1.9924 -2.0858
  696MOL0     H95996   7.412   4.749   9.585 -2.3891 -0.6261  2.3557
  696MOL0     H95997   7.360   4.377   9.627 -0.3566 -2.3923  3.2367
  696MOL0     H95998   7.200   4.220   9.803  0.9142 -1.4607  1.5786
  696MOL0     H95999   7.145   4.309   9.941 -0.8054 -0.3476 -1.2440
  696MOL0     H96000   7.440   4.279   9.865  0.5688 -0.7528 -0.1793
  696MOL0     H96001   7.374   4.342  10.021  1.3277 -2.5066  0.5306
  696MOL0     H96002   7.361   4.054   9.914  1.3156 -0.5996 -0.7819
  696MOL0     H96003   7.448   4.106  10.053 -0.2407 -1.7745 -1.1787
  696MOL0     H96004   7.232   4.146  10.170  0.5119  0.4032 -0.7951
  696MOL0     H96005   7.143   4.092  10.027  0.3005  0.5825 -0.5917
  696MOL0     H96006   7.284   3.712  10.219 -0.2329  0.4098  0.4187
  696MOL0     H96007   7.307   3.566  10.415 -1.2477  2.9735 -1.0188
  696MOL0     H96008   7.401   3.628  10.544 -1.8895 -0.0004 -0.5394
  696MOL0     H96009   7.489   3.538  10.418 -0.4456 -0.4099  2.4100
  696MOL0     H96010   7.615   3.762  10.853  1.3401 -0.0243  1.8741
  696MOL0     H96011   7.791   3.705  11.001  0.9616 -0.4762 -0.3760
  696MOL0     H96012   8.013   4.001  11.101  0.8968  0.9153  1.6729
  696MOL0     H96013   8.003   3.871  11.209  1.7492  0.8382  0.4157
  696MOL0     H96014   8.200   3.920  11.283 -1.5847  1.1062 -0.7087
  696MOL0     H96015   8.237   3.798  11.165  1.0374  0.1993 -0.0214
  696MOL0     H96016   8.270   4.090  11.135  1.2462  0.4181 -1.6930
  696MOL0     H96017   8.276   3.965  11.001  0.6193 -2.7949  0.2600
  696MOL0     H96018   8.447   3.844  11.156 -1.0508 -0.1848  0.9477
  696MOL0     H96019   8.445   3.982  11.261  2.1160 -2.7393  1.3145
  696MOL0     H96020   8.549   3.991  10.977 -1.6999  3.5530 -1.7285
  696MOL0     H96021   8.536   4.135  11.081  0.7976  0.1947  0.5632
  696MOL0     H96022   8.675   3.876  11.168 -1.7143  0.6721 -1.0144
  696MOL0     H96023   8.692   4.034  11.253  4.9515  0.3367 -0.3555
  696MOL0     H96024   8.796   4.140  11.059  1.8870  0.3071  0.3116
  696MOL0     H96025   8.782   3.979  10.977 -4.4901  1.3641 -0.0092
  696MOL0     H96026   8.970   4.100  11.189 -1.2194  0.8173  0.9680
  696MOL0     H96027   9.006   4.014  11.036  4.3695  0.5606  2.7751
  696MOL0     H96028   8.035   4.015  10.817  0.0211 -0.7024  0.0114
  696MOL0     H96029   7.869   4.040  10.652 -1.7960  4.0945  2.1282
  696MOL0     H96030   7.542   4.052  10.468 -1.2425  0.0557  1.0261
  696MOL0     H96031   7.392   4.118  10.292  0.9409  1.5660  3.1153
  696MOL0     H96032   6.441   4.493   8.884 -1.7738 -1.1289  0.5054
  696MOL0     H96033   6.230   4.621   8.820 -0.0594  0.0799 -3.1718
  696MOL0     H96034   6.062   4.974   8.599 -4.7101  0.5885 -1.9571
  696MOL0     H96035   5.911   5.136   8.495  0.3452 -0.3093  0.3528
  696MOL0     H96036   5.737   5.243   8.472 -2.3350  1.2556  1.8287
  696MOL0     H96037   5.691   5.401   8.450 -0.0563  0.2444  4.1244
  696MOL0     H96038   5.942   5.286   8.325  0.4414  0.8028 -0.6545
  696MOL0     H96039   5.888   5.451   8.317  1.0307 -0.8426 -2.4054
  696MOL0     H96040   5.718   5.209   8.251  0.4413  0.2098 -0.5774
  696MOL0     H96041   5.684   5.374   8.194  0.8100  0.8390  0.3958
  696MOL0     H96042   5.753   5.210   8.020  3.3096 -0.6624 -1.1594
  696MOL0     H96043   5.898   5.179   8.075 -0.4099 -0.4393 -0.7494
  696MOL0     H96044   5.955   5.543   7.881 -2.8208 -1.5843 -1.8178
  696MOL0     H96045   5.985   5.421   8.775 -0.5197  0.4876 -1.8374
  696MOL0     H96046   6.118   5.235   9.020 -2.2445 -2.5618 -2.1622
  696MOL0     H96047   6.265   5.285   8.939 -0.1402  0.6444 -1.7219
  696MOL0     H96048   6.133   5.401   8.955 -4.7391 -1.4773  3.6665
  697MOL0     O96049   0.171   6.660   8.221  0.7943  0.8558 -0.6802
  697MOL0     C96050   0.294   6.682   8.243 -0.4527  0.0346  0.4920
  697MOL0     O96051   0.346   6.800   8.213 -0.4065  0.5102 -0.6008
  697MOL0     C96052   0.262   6.899   8.175 -0.5751 -0.1349  0.0187
  697MOL0     C96053   0.246   7.001   8.261  0.2813  0.3060  0.0927
  697MOL0     C96054   0.165   7.108   8.235  0.1095  0.2283 -0.4977
  697MOL0     C96055   0.089   7.098   8.117  0.0234 -1.3906 -0.7219
  697MOL0     O96056   0.005   7.211   8.107  0.6461 -0.0089  0.4642
  697MOL0     C96057   0.041   7.292   7.999  0.2090 -0.5473  0.4907
  697MOL0     C96058   0.172   7.359   8.029 -0.4234 -0.4038  0.0085
  697MOL0     C96059   0.290   7.301   7.943  0.6619 -1.0023 -0.6311
  697MOL0     C96060   0.410   7.396   7.950 -0.5933  0.2372  0.3160
  697MOL0     C96061   0.530   7.334   7.870  0.1954  0.3304  0.8444
  697MOL0     C96062   0.601   7.207   7.936  0.4129 -0.2192 -0.1985
  697MOL0     C96063   0.739   7.187   7.873 -0.0719 -0.0253  0.1570
  697MOL0     C96064   0.744   7.157   7.730  0.5416 -0.0463  0.1088
  697MOL0     N96065   0.840   7.241   7.653  0.5353  0.0570 -0.2434
  697MOL0     C96066   0.973   7.271   7.686 -0.1888  0.1501  0.5719
  697MOL0     C96067   1.009   7.341   7.574 -0.3435 -0.4688  0.1134
  697MOL0     C96068   1.151   7.384   7.528  0.6627  1.0040  0.7026
  697MOL0     C96069   1.206   7.284   7.418 -0.2552 -0.1584  0.3950
  697MOL0     C96070   1.352   7.311   7.379  0.7285 -0.1407  0.4318
  697MOL0     C96071   1.425   7.208   7.298 -0.0775  0.2506 -1.1202
  697MOL0     O96072   1.545   7.266   7.247  0.0859 -0.0581 -0.7286
  697MOL0     C96073   1.629   7.177   7.181 -0.2606 -0.9972  0.1097
  697MOL0     C96074   1.596   7.064   7.117  0.7233  0.2343  0.7925
  697MOL0     C96075   1.689   6.995   7.034 -0.0885 -0.2533 -0.5274
  697MOL0     C96076   1.629   6.876   6.956 -0.7638  0.1898  0.2564
  697MOL0     C96077   1.828   7.026   7.041 -0.2875 -0.7033  0.1774
  697MOL0     C96078   1.931   6.958   6.973 -0.7169  0.2012 -0.4518
  697MOL0     O96079   1.903   6.833   6.929 -0.0123  0.3409 -0.4352
  697MOL0     C96080   2.010   6.764   6.873  0.9416  0.3721 -0.0147
  697MOL0     C96081   2.040   6.629   6.921  0.4396  0.2674  0.7020
  697MOL0     C96082   2.145   6.554   6.864 -0.2566 -0.0394 -0.1159
  697MOL0     C96083   2.227   6.616   6.770 -0.0719  0.6565 -0.0396
  697MOL0     O96084   2.341   6.547   6.752 -0.7609 -0.0290  0.3108
  697MOL0     C96085   2.429   6.582   6.652 -0.5322 -0.0684 -0.4268
  697MOL0     C96086   2.563   6.505   6.671  0.2128  0.6541 -0.3397
  697MOL0     C96087   2.676   6.553   6.577  0.2715  0.4968 -0.3167
  697MOL0     C96088   2.803   6.470   6.606  0.0040  0.4998  0.3629
  697MOL0     C96089   2.808   6.329   6.553 -0.2022 -0.4616 -0.1271
  697MOL0     C96090   2.942   6.294   6.483 -0.6406 -0.1196  0.2291
  697MOL0     C96091   2.917   6.177   6.374 -0.0596 -0.1121  0.3518
  697MOL0     C96092   3.057   6.142   6.318  0.3442 -0.0292  0.3790
  697MOL0    Cl96093   3.117   6.282   6.208 -0.5628 -0.4203 -0.3255
  697MOL0     C96094   2.196   6.739   6.723  0.4115 -0.0688 -0.1071
  697MOL0     C96095   2.091   6.811   6.774 -0.7985 -0.4150  0.3746
  697MOL0     O96096   2.039   7.007   6.972  0.3084 -0.5074 -0.4577
  697MOL0     C96097   1.865   7.145   7.108  0.3320 -0.5497 -0.7607
  697MOL0     C96098   1.767   7.219   7.180 -0.5865  1.1224  0.3691
  697MOL0     N96099   0.902   7.368   7.492 -0.5999 -0.2117  0.5082
  697MOL0     N96100   0.809   7.297   7.541  0.1439  0.0123  0.7832
  697MOL0     C96101   0.101   6.992   8.032 -0.0596  0.2441  0.5921
  697MOL0     C96102   0.191   6.896   8.057 -0.9768  0.5446 -0.1898
  697MOL0     C96103   0.381   6.583   8.297 -0.1885 -0.1739  0.0475
  697MOL0     C96104   0.498   6.628   8.360  0.7400 -0.8787 -0.8382
  697MOL0     C96105   0.577   6.539   8.422 -0.3518 -0.5448 -0.7040
  697MOL0     C96106   0.566   6.401   8.411  0.2470 -0.5331  1.2866
  697MOL0     O96107   0.655   6.328   8.487 -0.2042 -0.4576  0.3200
  697MOL0     C96108   0.666   6.185   8.462  0.6076 -0.6861  0.2874
  697MOL0     C96109   0.557   6.112   8.542  0.8699  0.1523  0.2333
  697MOL0     C96110   0.575   6.111   8.694 -0.6440 -0.9614  0.0585
  697MOL0     C96111   0.473   6.025   8.772  0.3039  0.4589  0.6422
  697MOL0     C96112   0.347   6.104   8.782  0.0669  0.1317 -0.1165
  697MOL0     C96113   0.239   6.163   8.792 -0.5017 -0.0119 -0.2582
  697MOL0     C96114   0.469   6.359   8.321  0.4884  0.2221 -0.8827
  697MOL0     C96115   0.362   6.436   8.279  0.5526  0.0928 -0.3737
  697MOL0     C96116   0.263   6.372   8.190 -1.0418  0.0748 -0.1000
  697MOL0     H96117   0.292   6.991   8.359 -2.3878 -1.1532  1.3214
  697MOL0     H96118   0.138   7.177   8.314  0.1867  0.6809 -0.8674
  697MOL0     H96119  -0.031   7.373   7.986  1.4543  0.6365  0.6941
  697MOL0     H96120   0.043   7.232   7.908  1.6165  1.4265 -0.8576
  697MOL0     H96121   0.164   7.464   7.999 -1.7921 -1.0119 -2.0158
  697MOL0     H96122   0.200   7.352   8.134 -0.4965 -0.6336  0.0135
  697MOL0     H96123   0.316   7.200   7.975 -2.7626 -1.0783  2.6245
  697MOL0     H96124   0.267   7.301   7.836 -1.9340 -1.6510 -0.1459
  697MOL0     H96125   0.390   7.496   7.912  0.6980 -0.2897 -1.8889
  697MOL0     H96126   0.428   7.416   8.056 -0.5348  1.8653  0.0253
  697MOL0     H96127   0.606   7.411   7.854 -0.6213  1.3874  1.8475
  697MOL0     H96128   0.499   7.315   7.766  0.9786 -3.5609  1.1744
  697MOL0     H96129   0.614   7.229   8.043  2.5381  2.5347 -0.8967
  697MOL0     H96130   0.533   7.122   7.934 -0.9695  0.6405  3.0705
  697MOL0     H96131   0.792   7.104   7.921 -0.9595 -1.6224 -1.4967
  697MOL0     H96132   0.807   7.271   7.894 -1.1402  0.8797  0.0988
  697MOL0     H96133   0.755   7.050   7.711 -1.9763 -0.1951 -0.8737
  697MOL0     H96134   0.647   7.178   7.685  0.6217  2.1520  0.8401
  697MOL0     H96135   1.031   7.245   7.774 -1.4280 -2.0693  0.7940
  697MOL0     H96136   1.217   7.375   7.615 -0.7146  0.2379  1.7059
  697MOL0     H96137   1.153   7.486   7.490 -0.3173  0.2714 -1.4922
  697MOL0     H96138   1.195   7.180   7.450 -0.5021  0.1453  1.3232
  697MOL0     H96139   1.135   7.303   7.337 -0.3369  1.4899  0.8160
  697MOL0     H96140   1.376   7.397   7.315 -0.2491 -0.2375 -0.0932
  697MOL0     H96141   1.409   7.330   7.471 -1.7881  0.8755  1.8826
  697MOL0     H96142   1.435   7.115   7.355 -1.4378 -0.3276 -1.7696
  697MOL0     H96143   1.354   7.179   7.219  0.1626 -4.8538  0.1480
  697MOL0     H96144   1.492   7.038   7.106  0.1010  1.6397  2.8501
  697MOL0     H96145   1.636   6.905   6.850  3.4566 -2.8353 -0.5789
  697MOL0     H96146   1.523   6.862   6.981 -0.6844  1.9976  1.8051
  697MOL0     H96147   1.687   6.785   6.971 -0.3622 -0.1285 -2.6519
  697MOL0     H96148   1.969   6.580   6.987 -1.8928 -0.5083 -2.1780
  697MOL0     H96149   2.183   6.468   6.920 -1.1962  0.1421  0.8398
  697MOL0     H96150   2.388   6.546   6.557 -3.0667  1.0643  0.1753
  697MOL0     H96151   2.446   6.690   6.650 -1.0302  0.0453  0.8304
  697MOL0     H96152   2.592   6.528   6.774 -0.1325 -0.0861 -0.0698
  697MOL0     H96153   2.542   6.398   6.671 -1.4234  0.9525 -0.2262
  697MOL0     H96154   2.710   6.655   6.592  1.2646 -0.0305  1.2459
  697MOL0     H96155   2.642   6.541   6.473  1.1572  0.0340 -0.5617
  697MOL0     H96156   2.821   6.483   6.713  1.7211  0.3916  0.1034
  697MOL0     H96157   2.871   6.534   6.550 -2.2412  0.6406 -2.4365
  697MOL0     H96158   2.781   6.262   6.635 -5.1152 -1.3440 -2.1392
  697MOL0     H96159   2.742   6.313   6.467  0.2190  0.8818 -0.7349
  697MOL0     H96160   3.016   6.258   6.556  2.0609  1.1293 -1.7046
  697MOL0     H96161   2.982   6.386   6.438 -0.8115  1.3239  2.8794
  697MOL0     H96162   2.844   6.201   6.296  0.3599 -3.0494 -1.0727
  697MOL0     H96163   2.882   6.087   6.426 -0.1693  0.7566  1.8465
  697MOL0     H96164   3.052   6.049   6.260 -1.8004 -0.5549  1.2975
  697MOL0     H96165   3.124   6.133   6.403  0.1238  1.5535  0.7406
  697MOL0     H96166   2.256   6.781   6.643 -0.4074 -0.4964 -0.9670
  697MOL0     H96167   2.079   6.912   6.735 -4.5101 -0.9209 -0.2255
  697MOL0     H96168   1.964   7.184   7.088 -0.1005 -0.7736 -3.7696
  697MOL0     H96169   1.806   7.310   7.225 -1.5676  2.5261 -1.4787
  697MOL0     H96170   0.048   6.982   7.938  1.0869  0.2997 -0.0710
  697MOL0     H96171   0.185   6.814   7.986  1.1560 -0.2817  0.5341
  697MOL0     H96172   0.517   6.735   8.362 -0.9226 -0.5474  1.7141
  697MOL0     H96173   0.663   6.581   8.474 -2.6835  1.0993  2.1033
  697MOL0     H96174   0.651   6.166   8.355  0.1446 -1.0769  0.4151
  697MOL0     H96175   0.769   6.155   8.484  0.4839 -0.5864  1.0007
  697MOL0     H96176   0.545   6.014   8.495 -0.9261 -0.2133  1.3471
  697MOL0     H96177   0.466   6.172   8.529  1.1801  0.2968 -1.4810
  697MOL0     H96178   0.676   6.072   8.711  1.0651  3.5031  1.4513
  697MOL0     H96179   0.568   6.215   8.726 -1.0797 -1.0835  0.3765
  697MOL0     H96180   0.502   6.003   8.875 -2.9792 -1.8037  1.2459
  697MOL0     H96181   0.447   5.924   8.740 -2.1168  0.8860  1.0171
  697MOL0     H96182   0.158   6.231   8.807  0.9874  2.5877 -2.8775
  697MOL0     H96183   0.455   6.251   8.313 -0.4167  0.2423  0.2553
  697MOL0     H96184   0.265   6.444   8.108  1.7195  1.4718  1.0739
  697MOL0     H96185   0.298   6.277   8.149  2.9020  0.8612  1.0422
  697MOL0     H96186   0.165   6.368   8.239 -0.6546  1.4609  0.8450
  698MOL0     O96187   7.038   7.224   1.143  0.2641 -0.9372  0.4196
  698MOL0     C96188   7.093   7.143   1.076  0.8037 -0.0747 -0.8615
  698MOL0     O96189   7.058   7.018   1.079  0.2530 -0.2115 -0.5539
  698MOL0     C96190   6.972   6.972   1.175  0.1892  0.2239 -0.3859
  698MOL0     C96191   7.006   6.963   1.317  0.0405 -0.5219  0.5847
  698MOL0     C96192   6.925   6.902   1.405 -0.3647 -0.1425 -1.1618
  698MOL0     C96193   6.812   6.830   1.357 -0.6919  0.2167 -0.6354
  698MOL0     O96194   6.732   6.765   1.447 -0.3413  0.3869 -0.2010
  698MOL0     C96195   6.648   6.657   1.403 -0.8769 -0.0028 -1.0698
  698MOL0     C96196   6.548   6.651   1.518  0.1440  0.3909  0.4657
  698MOL0     C96197   6.609   6.584   1.652  0.6823 -0.4129 -0.5922
  698MOL0     C96198   6.545   6.447   1.676 -0.0622  0.5664  0.5918
  698MOL0     C96199   6.564   6.403   1.821 -0.2176  0.0251  0.3132
  698MOL0     C96200   6.702   6.336   1.831  1.0144  0.9309 -0.0959
  698MOL0     C96201   6.730   6.271   1.955 -0.3464  0.0679 -0.4775
  698MOL0     C96202   6.860   6.183   1.931  0.1705  0.6836  0.3619
  698MOL0     N96203   6.885   6.115   2.057 -0.5670  0.5636 -0.0341
  698MOL0     C96204   6.944   6.165   2.173  0.3057 -0.2639  0.1194
  698MOL0     C96205   6.949   6.063   2.261 -0.3160  0.1559  0.4120
  698MOL0     C96206   7.025   6.064   2.392 -0.3396 -0.0012  0.0729
  698MOL0     C96207   7.169   6.026   2.384  0.1650 -0.5864 -0.4450
  698MOL0     C96208   7.254   6.113   2.294 -0.4429 -0.5052 -0.2469
  698MOL0     C96209   7.386   6.044   2.247  0.0215  1.0652 -0.8724
  698MOL0     O96210   7.478   6.148   2.195 -0.0529  0.9027  0.6020
  698MOL0     C96211   7.614   6.131   2.208 -0.2764  0.1138  0.5989
  698MOL0     C96212   7.677   6.032   2.279 -1.1992  0.1880  0.0889
  698MOL0     C96213   7.823   6.025   2.290 -0.1502  0.9024  0.4787
  698MOL0     C96214   7.876   5.914   2.374  0.1081 -0.0263 -1.0079
  698MOL0     C96215   7.898   6.129   2.231  0.3233  0.6531 -0.5512
  698MOL0     C96216   8.049   6.127   2.233  0.6103  0.5640 -0.0827
  698MOL0     O96217   8.119   6.234   2.275 -0.3728  0.2108  0.1147
  698MOL0     C96218   8.259   6.239   2.268  0.4280  0.2649 -1.0616
  698MOL0     C96219   8.344   6.299   2.364  0.3092 -0.4709  0.0058
  698MOL0     C96220   8.482   6.301   2.353 -0.1457  0.0019 -0.5391
  698MOL0     C96221   8.542   6.238   2.239 -0.4694  0.4702  0.4017
  698MOL0     O96222   8.681   6.225   2.233 -0.6010  0.8235  0.2634
  698MOL0     C96223   8.774   6.334   2.271  0.0042  0.5469 -0.8354
  698MOL0     C96224   8.875   6.330   2.152  0.4945 -0.0406 -0.6754
  698MOL0     C96225   8.957   6.456   2.132 -0.5670 -0.2328  0.1170
  698MOL0     C96226   9.045   6.452   2.008  0.7362  0.4587  0.0663
  698MOL0     C96227   9.131   6.570   1.979 -0.0017  0.9114 -0.2983
  698MOL0     C96228   9.219   6.548   1.858  0.6026  0.0119  0.7133
  698MOL0     C96229   9.310   6.666   1.839 -0.2657 -0.1713  0.6819
  698MOL0     C96230   9.242   6.788   1.775 -0.4213 -0.1235 -0.2676
  698MOL0    Cl96231   9.364   6.923   1.791  0.1643 -0.2907  0.6885
  698MOL0     C96232   8.460   6.200   2.136  0.6813 -0.6937  0.2243
  698MOL0     C96233   8.316   6.203   2.143 -0.8135 -1.0744  0.6454
  698MOL0     O96234   8.101   6.028   2.186  0.9672 -0.1824  0.0926
  698MOL0     C96235   7.830   6.238   2.166  0.2193  0.0937 -0.3720
  698MOL0     C96236   7.690   6.226   2.147  0.3813 -0.1394 -0.5207
  698MOL0     N96237   6.899   5.950   2.197 -0.7992  0.5358 -0.4786
  698MOL0     N96238   6.866   5.980   2.074 -0.2981  0.1770 -0.2575
  698MOL0     C96239   6.783   6.825   1.224 -0.0866 -0.4488 -0.6938
  698MOL0     C96240   6.853   6.909   1.139  0.6733 -0.5162  0.1782
  698MOL0     C96241   7.204   7.188   0.993 -0.6744 -0.4535 -0.4804
  698MOL0     C96242   7.325   7.115   0.992 -0.1543  0.5279  0.4753
  698MOL0     C96243   7.439   7.153   0.926  1.1064  0.2489  0.7798
  698MOL0     C96244   7.448   7.275   0.848 -0.2204  0.5842  0.2380
  698MOL0     O96245   7.558   7.276   0.762 -0.2510 -0.6180 -0.1296
  698MOL0     C96246   7.630   7.399   0.741  0.4576 -0.5447 -0.3021
  698MOL0     C96247   7.748   7.393   0.654 -0.5073  1.0073 -0.0025
  698MOL0     C96248   7.848   7.276   0.695  0.3582 -0.1299 -0.3116
  698MOL0     C96249   7.872   7.272   0.846 -0.2837  0.1883 -1.0258
  698MOL0     C96250   8.001   7.199   0.857  0.6547 -0.0685 -0.9436
  698MOL0     C96251   8.109   7.148   0.856 -0.1297  0.2519 -0.1943
  698MOL0     C96252   7.337   7.354   0.854 -0.3780  0.4040  0.1803
  698MOL0     C96253   7.211   7.317   0.923 -0.4671 -0.7292  0.3145
  698MOL0     C96254   7.092   7.410   0.895  0.3662  0.2754 -0.2525
  698MOL0     H96255   7.098   7.009   1.349  0.4370 -2.2552  2.0805
  698MOL0     H96256   6.943   6.895   1.512 -1.1107 -1.2315 -1.0866
  698MOL0     H96257   6.709   6.567   1.396 -0.1561  0.3508  0.2952
  698MOL0     H96258   6.584   6.669   1.315 -0.1234 -0.8723 -1.7482
  698MOL0     H96259   6.506   6.750   1.538  0.4441  1.0680 -1.8657
  698MOL0     H96260   6.458   6.601   1.482  0.1921 -0.9376  2.0785
  698MOL0     H96261   6.718   6.577   1.649  0.6374 -1.6361  0.0844
  698MOL0     H96262   6.579   6.650   1.734  2.2445  0.4313 -0.6648
  698MOL0     H96263   6.439   6.459   1.651  0.1481 -1.7718 -1.9811
  698MOL0     H96264   6.595   6.386   1.600  1.3592  2.8177 -0.3704
  698MOL0     H96265   6.484   6.336   1.853  0.7183 -1.2458  0.0803
  698MOL0     H96266   6.569   6.484   1.894  0.3075 -0.9372  1.3634
  698MOL0     H96267   6.699   6.259   1.753  3.6038  3.8941 -3.4441
  698MOL0     H96268   6.786   6.403   1.809  1.6345  1.3123  2.9721
  698MOL0     H96269   6.645   6.207   1.983 -2.2244  1.2737 -3.0627
  698MOL0     H96270   6.742   6.342   2.037  0.3009 -2.9740  2.3127
  698MOL0     H96271   6.843   6.106   1.856 -0.3059 -1.5543  2.6304
  698MOL0     H96272   6.939   6.252   1.899  1.1477 -1.6612 -2.7249
  698MOL0     H96273   6.991   6.263   2.174 -1.5118  0.6472  0.0432
  698MOL0     H96274   6.985   5.993   2.464 -0.2040  0.3178  0.4642
  698MOL0     H96275   7.007   6.160   2.441  2.3076 -0.3674  2.0056
  698MOL0     H96276   7.202   6.030   2.488 -0.3676 -1.1088 -0.2540
  698MOL0     H96277   7.185   5.923   2.353 -1.4108 -0.8613 -0.3875
  698MOL0     H96278   7.209   6.146   2.200  1.6003  2.4101 -0.3638
  698MOL0     H96279   7.280   6.203   2.352 -1.5277  0.3979 -1.1216
  698MOL0     H96280   7.430   6.003   2.338  1.1620  0.4953 -1.6615
  698MOL0     H96281   7.366   5.961   2.178  0.4673 -0.2147  0.4957
  698MOL0     H96282   7.619   5.950   2.321 -3.0996 -0.4706 -3.4335
  698MOL0     H96283   7.795   5.845   2.402 -0.1662  0.9064  0.6678
  698MOL0     H96284   7.934   5.947   2.461 -0.6765 -0.6201 -0.2272
  698MOL0     H96285   7.947   5.853   2.317  3.5269  1.6123  1.1676
  698MOL0     H96286   8.291   6.340   2.449 -0.1508 -5.2902  2.3844
  698MOL0     H96287   8.545   6.336   2.434  0.6823  0.6914 -1.4547
  698MOL0     H96288   8.729   6.434   2.279 -0.4893  0.3792 -1.3854
  698MOL0     H96289   8.824   6.323   2.368 -2.7899  0.1394  0.6603
  698MOL0     H96290   8.936   6.241   2.165 -2.3417 -2.1735 -1.0317
  698MOL0     H96291   8.824   6.317   2.056  2.7815  0.1406 -1.9805
  698MOL0     H96292   9.013   6.471   2.225 -2.6827  0.1114  1.3846
  698MOL0     H96293   8.890   6.542   2.129  0.6930  0.7743 -0.5371
  698MOL0     H96294   8.976   6.430   1.926 -0.3046  2.7093  0.2476
  698MOL0     H96295   9.103   6.361   2.022 -0.0625 -0.3022 -1.3533
  698MOL0     H96296   9.066   6.657   1.966  0.9744  1.6730 -0.2266
  698MOL0     H96297   9.198   6.594   2.062  3.2379 -0.1126 -2.4093
  698MOL0     H96298   9.161   6.529   1.767  2.7404  0.0474 -0.7307
  698MOL0     H96299   9.281   6.459   1.873 -0.4319 -0.4729  2.5077
  698MOL0     H96300   9.395   6.637   1.776 -0.1583 -1.4418  1.4014
  698MOL0     H96301   9.352   6.702   1.933  3.0285  0.5297 -0.8927
  698MOL0     H96302   9.155   6.826   1.829 -0.6365 -0.4137 -0.4059
  698MOL0     H96303   9.225   6.769   1.668  2.3703  3.4225 -1.5356
  698MOL0     H96304   8.502   6.149   2.049  0.5669 -0.9600  0.3239
  698MOL0     H96305   8.273   6.170   2.049  2.5400  1.6373 -2.1276
  698MOL0     H96306   7.890   6.322   2.135  1.0227 -0.4089 -0.2093
  698MOL0     H96307   7.635   6.300   2.089 -1.8160  0.5897  2.2593
  698MOL0     H96308   6.704   6.778   1.166  0.1756  1.1031 -2.4263
  698MOL0     H96309   6.831   6.916   1.033  0.8599  0.8374  0.2191
  698MOL0     H96310   7.324   7.018   1.041  3.1806 -0.5510 -1.2764
  698MOL0     H96311   7.529   7.093   0.924  0.1833 -1.3357 -3.5104
  698MOL0     H96312   7.555   7.462   0.692 -1.6339 -3.6480 -1.3645
  698MOL0     H96313   7.651   7.432   0.843 -1.3983  0.5188 -0.2133
  698MOL0     H96314   7.802   7.488   0.662  2.2329 -0.5643  2.3591
  698MOL0     H96315   7.723   7.387   0.548  0.1990  2.3222 -0.2576
  698MOL0     H96316   7.807   7.181   0.656 -0.1563 -0.9700  2.1152
  698MOL0     H96317   7.947   7.291   0.652  0.9768 -1.7019  0.4858
  698MOL0     H96318   7.794   7.208   0.887  0.1222 -0.5419 -1.3709
  698MOL0     H96319   7.867   7.370   0.894 -1.5935  0.3818 -1.5210
  698MOL0     H96320   8.204   7.099   0.870 -1.1303 -1.1166  2.7205
  698MOL0     H96321   7.349   7.442   0.791  1.5690 -2.5632 -4.1091
  698MOL0     H96322   7.083   7.471   0.986  1.2364 -0.1793  0.1547
  698MOL0     H96323   7.102   7.472   0.806 -1.7811  4.1044  1.9363
  698MOL0     H96324   7.002   7.348   0.886  1.2164 -0.7311 -2.7680
  699MOL0     O96325  10.794   7.621   1.635  0.0652  0.2577  0.2818
  699MOL0     C96326  10.770   7.505   1.659  0.9358 -0.2079  0.1800
  699MOL0     O96327  10.840   7.391   1.615  0.0318 -0.2021  0.4374
  699MOL0     C96328  10.942   7.415   1.529  0.7136 -0.0067 -0.0579
  699MOL0     C96329  11.045   7.513   1.539  0.0183  0.1690 -0.1354
  699MOL0     C96330  11.142   7.528   1.446  0.0562 -0.2940 -0.0533
  699MOL0     C96331  11.140   7.449   1.333 -0.3145 -0.2210 -0.0246
  699MOL0     O96332  11.238   7.452   1.240 -0.2374 -0.4551  0.2172
  699MOL0     C96333  11.369   7.439   1.297 -0.6232  0.0935 -0.6635
  699MOL0     C96334  11.485   7.391   1.208 -0.3911 -0.0474 -1.0096
  699MOL0     C96335  11.519   7.486   1.098  0.4093  0.2526  0.5152
  699MOL0     C96336  11.625   7.431   1.010 -0.3769 -0.1619  1.1877
  699MOL0     C96337  11.640   7.517   0.888 -0.3071 -0.7675  1.0899
  699MOL0     C96338  11.781   7.493   0.824  0.9259  0.2528  0.3789
  699MOL0     C96339  11.814   7.564   0.689  0.4371  0.6479  0.3343
  699MOL0     C96340  11.818   7.715   0.705 -0.4236 -0.3430  0.2648
  699MOL0     N96341  11.961   7.754   0.750  0.0454 -0.4476  0.2979
  699MOL0     C96342  11.993   7.770   0.886 -0.9607 -0.0906  0.9494
  699MOL0     C96343  12.127   7.792   0.893  0.0956  0.2724 -0.7483
  699MOL0     C96344  12.199   7.835   1.025  0.0450  0.6218  0.2462
  699MOL0     C96345  12.331   7.914   0.981 -0.7314 -1.1160  0.3184
  699MOL0     C96346  12.443   7.809   0.986  0.8931  0.0715  0.8470
  699MOL0     C96347  12.526   7.803   1.110  0.2966  0.6157  0.0726
  699MOL0     O96348  12.436   7.763   1.216 -0.6380 -0.6399  0.5330
  699MOL0     C96349  12.492   7.709   1.336 -0.3137 -0.2687  0.6095
  699MOL0     C96350  12.400   7.636   1.412 -0.1092 -0.3591  0.0970
  699MOL0     C96351  12.435   7.596   1.540 -1.3233  0.2981  0.4041
  699MOL0     C96352  12.335   7.529   1.626 -0.3355 -0.2715 -0.4355
  699MOL0     C96353  12.578   7.600   1.579  0.2648 -1.0707 -0.7801
  699MOL0     C96354  12.623   7.545   1.713 -0.1454 -1.0195 -0.4554
  699MOL0     O96355  12.725   7.609   1.764 -0.0519 -0.4371 -0.5153
  699MOL0     C96356  12.808   7.557   1.873  0.8298  0.0264 -0.6510
  699MOL0     C96357  12.746   7.509   1.998 -0.9566  0.3316  0.4298
  699MOL0     C96358  12.835   7.468   2.097  0.8295 -0.2838 -0.6599
  699MOL0     C96359  12.974   7.470   2.081  0.6886 -0.1719  0.8044
  699MOL0     O96360  13.054   7.426   2.180 -0.4417  0.9318  0.5149
  699MOL0     C96361  13.077   7.502   2.291  0.4207  0.1583  0.1249
  699MOL0     C96362  13.202   7.453   2.367 -1.1162 -0.8877 -0.5727
  699MOL0     C96363  13.336   7.463   2.293  0.0722  0.0461 -0.1458
  699MOL0     C96364  13.352   7.586   2.208 -0.2703  0.3681  0.3882
  699MOL0     C96365  13.499   7.608   2.165 -0.1990  0.4095 -0.4871
  699MOL0     C96366  13.511   7.702   2.043 -0.5931  0.1950 -0.8324
  699MOL0     C96367  13.641   7.772   2.025 -0.4047 -0.0571  0.6741
  699MOL0     C96368  13.757   7.677   1.984  0.7232 -0.2626  0.1589
  699MOL0    Cl96369  13.908   7.756   2.024  0.0915  0.3549 -0.1242
  699MOL0     C96370  13.027   7.522   1.961  1.1335 -0.5693  1.4110
  699MOL0     C96371  12.943   7.565   1.852 -0.4104 -0.4245  0.6158
  699MOL0     O96372  12.577   7.443   1.760  0.2931  0.3342  0.1436
  699MOL0     C96373  12.667   7.654   1.487  0.8860  0.1608 -0.3981
  699MOL0     C96374  12.627   7.709   1.369  0.3239 -0.0539  0.8131
  699MOL0     N96375  12.167   7.787   0.757 -0.5312  0.4068  0.0373
  699MOL0     N96376  12.072   7.768   0.674  0.4596 -0.2995 -0.2703
  699MOL0     C96377  11.053   7.343   1.319  0.7823  0.0617 -0.3520
  699MOL0     C96378  10.962   7.322   1.424  0.0306 -0.2657 -0.4834
  699MOL0     C96379  10.672   7.480   1.762 -0.9955  0.3433  0.0098
  699MOL0     C96380  10.633   7.277   1.818  0.4249 -0.7209 -0.1640
  699MOL0     C96381  10.492   7.236   1.967 -0.2011  0.2652 -0.9994
  699MOL0     C96382  10.405   7.398   2.076  0.8445 -0.0483  0.0020
  699MOL0     O96383  10.316   7.380   2.179 -0.1202  0.4845 -0.2466
  699MOL0     C96384  10.294   7.246   2.232  0.8641  1.0619  0.9330
  699MOL0     C96385  10.404   7.209   2.338 -0.0890  0.8551 -0.6952
  699MOL0     C96386  10.365   7.072   2.400 -0.7777  0.5477 -0.0094
  699MOL0     C96387  10.239   7.079   2.479  0.3748 -0.0333 -0.0771
  699MOL0     C96388  10.240   6.987   2.594  0.2106  0.3350  0.0163
  699MOL0     C96389  10.246   6.929   2.702  0.5839 -0.0867 -0.0739
  699MOL0     C96390  10.455   7.598   2.027 -0.7319 -0.2681 -0.3553
  699MOL0     C96391  10.583   7.638   1.870 -0.3229 -0.5930  0.0880
  699MOL0     C96392  10.605   7.784   1.832 -0.2034  0.9853 -0.6634
  699MOL0     H96393  11.045   7.565   1.634 -0.0544  1.0779 -0.6276
  699MOL0     H96394  11.225   7.595   1.468 -1.5593  1.5199  0.8332
  699MOL0     H96395  11.355   7.371   1.382 -3.7010 -0.7215 -1.7053
  699MOL0     H96396  11.384   7.543   1.329 -2.8049 -0.3285  2.1123
  699MOL0     H96397  11.575   7.373   1.268 -0.5006  0.5261 -0.6662
  699MOL0     H96398  11.459   7.293   1.168  1.4704  0.3019 -3.3114
  699MOL0     H96399  11.432   7.500   1.033  0.6439  1.3217  0.4180
  699MOL0     H96400  11.537   7.587   1.135 -2.3294  1.4338 -1.0822
  699MOL0     H96401  11.721   7.433   1.063 -0.1759 -0.4327  0.8371
  699MOL0     H96402  11.622   7.327   0.977  3.0764  0.1621 -0.6641
  699MOL0     H96403  11.633   7.625   0.906 -0.4773 -0.3950 -0.9850
  699MOL0     H96404  11.570   7.488   0.809  1.3335  0.8824 -1.0795
  699MOL0     H96405  11.849   7.532   0.900  0.2423  2.1876  0.0337
  699MOL0     H96406  11.796   7.384   0.818 -0.8894 -0.0721  1.0181
  699MOL0     H96407  11.752   7.522   0.609  2.0973  0.1936 -0.7499
  699MOL0     H96408  11.912   7.524   0.663 -0.2708  0.4309 -2.3067
  699MOL0     H96409  11.814   7.761   0.605  0.3870  0.4946  0.6004
  699MOL0     H96410  11.746   7.767   0.768  0.4047  0.8170  0.2932
  699MOL0     H96411  11.917   7.761   0.963  0.2298 -0.2913  2.1300
  699MOL0     H96412  12.224   7.749   1.088 -1.4944 -0.4727 -0.5679
  699MOL0     H96413  12.144   7.904   1.090 -0.0383  0.0594  0.7835
  699MOL0     H96414  12.318   7.956   0.881  2.6214  0.6243  0.4619
  699MOL0     H96415  12.351   8.002   1.044  2.3515 -2.0608  0.8231
  699MOL0     H96416  12.403   7.709   0.967  0.4405  0.4739 -0.4383
  699MOL0     H96417  12.514   7.824   0.904  0.4701 -3.2774 -0.3133
  699MOL0     H96418  12.602   7.724   1.108 -1.4518 -1.2878  2.5539
  699MOL0     H96419  12.579   7.897   1.129  0.3604  1.0283 -1.8781
  699MOL0     H96420  12.296   7.630   1.382  0.4378 -0.7442 -1.8118
  699MOL0     H96421  12.355   7.563   1.728  0.0497 -1.0026 -0.2589
  699MOL0     H96422  12.352   7.421   1.632  1.8387  0.0951  1.6699
  699MOL0     H96423  12.236   7.562   1.593  0.2067  3.0398  0.8220
  699MOL0     H96424  12.639   7.494   2.001 -0.8672 -1.3673 -1.9505
  699MOL0     H96425  12.780   7.436   2.185  0.2593  1.1334 -0.4615
  699MOL0     H96426  13.100   7.607   2.267  0.1252  0.2559  0.2605
  699MOL0     H96427  12.987   7.503   2.352  1.0682 -1.1448  1.1354
  699MOL0     H96428  13.223   7.511   2.457  1.6369 -1.4835 -0.7448
  699MOL0     H96429  13.190   7.350   2.402  4.7370 -1.2792  1.3555
  699MOL0     H96430  13.336   7.375   2.228 -0.0863 -0.6148  0.7290
  699MOL0     H96431  13.422   7.456   2.360 -0.2640 -1.4123  0.1649
  699MOL0     H96432  13.332   7.672   2.272  2.1504 -0.6786  2.7243
  699MOL0     H96433  13.280   7.586   2.125 -1.0706 -1.5634  1.0431
  699MOL0     H96434  13.550   7.624   2.261  2.0417 -1.3957 -1.2790
  699MOL0     H96435  13.553   7.519   2.130  2.1636  0.9711  1.4425
  699MOL0     H96436  13.432   7.777   2.034 -2.1882 -1.2169  0.8735
  699MOL0     H96437  13.490   7.640   1.955  2.1390 -1.0756 -0.7132
  699MOL0     H96438  13.656   7.824   2.120 -3.0057 -1.9457  2.2356
  699MOL0     H96439  13.623   7.842   1.943 -2.9822  2.3113  3.0597
  699MOL0     H96440  13.759   7.651   1.878  1.8963  1.4345 -0.2843
  699MOL0     H96441  13.741   7.583   2.038  1.5681  1.3438  3.4685
  699MOL0     H96442  13.133   7.521   1.937  1.2128  2.7624  1.1473
  699MOL0     H96443  12.989   7.605   1.763 -0.8218 -1.7738 -0.2303
  699MOL0     H96444  12.773   7.652   1.512  1.7759  0.8150 -3.6176
  699MOL0     H96445  12.708   7.759   1.316 -0.1679 -2.2143 -2.2125
  699MOL0     H96446  11.065   7.268   1.242 -0.9843  0.8764 -1.4945
  699MOL0     H96447  10.900   7.233   1.425  0.5654 -0.6697 -1.4649
  699MOL0     H96448  10.686   7.193   1.774  1.3162 -0.2126 -0.0745
  699MOL0     H96449  10.468   7.132   1.983 -1.4951  0.7776  0.7428
  699MOL0     H96450  10.199   7.225   2.281  2.8891 -0.8054  4.4070
  699MOL0     H96451  10.294   7.173   2.150 -2.8264  0.0188  1.7189
  699MOL0     H96452  10.399   7.292   2.409  1.7885  0.2884  0.1770
  699MOL0     H96453  10.508   7.196   2.305 -0.1477  0.3441 -0.6866
  699MOL0     H96454  10.362   6.995   2.322 -2.5597  1.2310 -0.6537
  699MOL0     H96455  10.449   7.052   2.467 -1.5231  1.1782  1.1495
  699MOL0     H96456  10.155   7.047   2.416  0.7634 -0.8483 -0.1938
  699MOL0     H96457  10.217   7.176   2.524 -2.1405  0.2179 -1.6348
  699MOL0     H96458  10.254   6.900   2.805 -0.7947  0.0664  0.0896
  699MOL0     H96459  10.405   7.678   2.081 -2.8339 -1.0307 -1.0760
  699MOL0     H96460  10.612   7.833   1.929 -0.7979  1.7147 -0.9813
  699MOL0     H96461  10.689   7.800   1.764  0.7391 -0.8303  0.0124
  699MOL0     H96462  10.514   7.812   1.778 -3.0032 -3.5134  1.1587
  700MOL0     O96463   6.949  10.963   9.241 -0.3731 -1.1203 -0.7660
  700MOL0     C96464   6.965  10.929   9.123 -0.7147  0.3438 -0.3951
  700MOL0     O96465   7.034  10.994   9.024 -0.1668 -0.2302  0.0891
  700MOL0     C96466   7.110  11.110   9.039  0.0839 -0.4248 -0.1293
  700MOL0     C96467   7.144  11.164   9.161  0.8622 -0.4535  0.5273
  700MOL0     C96468   7.234  11.274   9.156  0.4357  0.2236  0.0528
  700MOL0     C96469   7.287  11.329   9.041  0.1357 -0.0016  0.5746
  700MOL0     O96470   7.371  11.439   9.033  0.4838 -0.3996 -0.0047
  700MOL0     C96471   7.378  11.542   9.140  0.0527  0.4126  0.6305
  700MOL0     C96472   7.422  11.689   9.094  0.8027 -0.1565 -0.1747
  700MOL0     C96473   7.435  11.781   9.208  0.4337 -0.1937  0.1209
  700MOL0     C96474   7.479  11.908   9.137  0.1584  0.0868  0.5734
  700MOL0     C96475   7.498  12.023   9.242  0.3193 -0.0228 -0.1542
  700MOL0     C96476   7.549  12.152   9.182 -0.2155 -0.0981 -0.0351
  700MOL0     C96477   7.447  12.220   9.087  0.2484  0.2045 -0.3342
  700MOL0     C96478   7.488  12.368   9.068  1.1311 -0.6762  0.3931
  700MOL0     N96479   7.635  12.388   9.035 -0.3349  0.2685 -0.5193
  700MOL0     C96480   7.691  12.353   8.917  0.1295 -0.0792 -1.0804
  700MOL0     C96481   7.824  12.347   8.946  0.6474  0.0711 -0.9476
  700MOL0     C96482   7.915  12.260   8.859 -0.4567 -0.6686  0.2423
  700MOL0     C96483   7.887  12.117   8.831  1.1093 -0.2279 -0.4008
  700MOL0     C96484   8.004  12.033   8.769  0.6284  0.0019 -0.8637
  700MOL0     C96485   7.959  11.917   8.678  1.0388 -0.6610  1.0472
  700MOL0     O96486   7.864  11.852   8.759 -0.7690 -0.6757 -0.5780
  700MOL0     C96487   7.763  11.790   8.689  0.6471  0.0254  0.0178
  700MOL0     C96488   7.760  11.746   8.553 -0.4596  0.1824  0.6313
  700MOL0     C96489   7.645  11.691   8.491 -0.3988  0.4135 -0.0307
  700MOL0     C96490   7.661  11.674   8.344  0.0872 -0.1569  0.4805
  700MOL0     C96491   7.536  11.640   8.573  0.8953  0.5834 -0.3720
  700MOL0     C96492   7.412  11.565   8.527  0.6770  0.2103 -0.2127
  700MOL0     O96493   7.332  11.530   8.625 -0.0876  0.3445 -0.1701
  700MOL0     C96494   7.212  11.478   8.600  0.3924 -0.6538 -0.4958
  700MOL0     C96495   7.110  11.535   8.676  0.1967  0.7152 -0.3954
  700MOL0     C96496   6.982  11.462   8.683  0.4257 -0.7434 -0.4337
  700MOL0     C96497   6.963  11.342   8.616 -0.1808  1.1046 -0.3234
  700MOL0     O96498   6.850  11.263   8.647 -0.5810  0.1335  0.9119
  700MOL0     C96499   6.845  11.129   8.610 -0.0669  0.3149  0.1771
  700MOL0     C96500   6.706  11.050   8.626  0.7687 -0.3522 -0.7778
  700MOL0     C96501   6.713  10.896   8.593  1.0253  0.1229  0.3788
  700MOL0     C96502   6.573  10.829   8.576  0.6553  0.1709 -0.6299
  700MOL0     C96503   6.566  10.730   8.455  0.1571  0.7627 -0.7487
  700MOL0     C96504   6.429  10.658   8.471 -0.3467 -0.2355 -0.6349
  700MOL0     C96505   6.382  10.596   8.337 -0.1639  0.0442  0.0688
  700MOL0     C96506   6.444  10.460   8.298  0.0162  0.4694 -0.6582
  700MOL0    Cl96507   6.416  10.351   8.437  1.0003  0.3996  0.1802
  700MOL0     C96508   7.070  11.288   8.530 -0.5492 -1.1635 -0.1672
  700MOL0     C96509   7.185  11.369   8.520  0.3493  0.0336  1.2634
  700MOL0     O96510   7.382  11.565   8.407  0.2400  0.1628  0.3588
  700MOL0     C96511   7.548  11.663   8.706  0.6204  0.4120 -0.6499
  700MOL0     C96512   7.654  11.742   8.758  0.2035 -0.5312 -0.3162
  700MOL0     N96513   7.845  12.389   9.075  0.7198 -0.2211 -0.0585
  700MOL0     N96514   7.725  12.427   9.121 -0.0280  0.5124 -1.0326
  700MOL0     C96515   7.253  11.275   8.919 -0.6994  0.1909 -0.3728
  700MOL0     C96516   7.158  11.165   8.919  0.4481  0.7123 -0.5292
  700MOL0     C96517   6.906  10.806   9.073  0.2977  0.3021 -0.0217
  700MOL0     C96518   6.923  10.775   8.933 -0.5230  0.3200 -0.2625
  700MOL0     C96519   6.858  10.667   8.877  0.2582 -0.1352  0.2947
  700MOL0     C96520   6.779  10.581   8.945  0.1509 -0.9456 -0.5252
  700MOL0     O96521   6.725  10.465   8.889 -0.8092 -0.0809 -0.4286
  700MOL0     C96522   6.582  10.462   8.857 -0.0200  0.5556 -0.5632
  700MOL0     C96523   6.485  10.462   8.982 -0.4607  0.2073 -1.0047
  700MOL0     C96524   6.356  10.499   8.925  0.1823  0.6831 -0.5012
  700MOL0     C96525   6.257  10.537   9.037  0.6833  0.4921 -0.3928
  700MOL0     C96526   6.119  10.562   8.986 -0.0887 -0.4901  0.3652
  700MOL0     C96527   6.010  10.559   8.933  0.0033  0.4315 -0.8526
  700MOL0     C96528   6.766  10.608   9.085 -0.2823  0.1946 -0.1144
  700MOL0     C96529   6.832  10.714   9.153 -0.6120 -0.1849  0.8007
  700MOL0     C96530   6.815  10.709   9.302  0.0726  0.3902  0.2174
  700MOL0     H96531   7.098  11.129   9.252  1.6604 -0.7632  0.8165
  700MOL0     H96532   7.271  11.327   9.242 -1.0496  0.6306  0.4695
  700MOL0     H96533   7.446  11.514   9.221  0.7486  0.7543  0.1705
  700MOL0     H96534   7.281  11.544   9.191 -0.2110 -0.5324  0.2026
  700MOL0     H96535   7.516  11.687   9.037 -0.5230 -3.4690 -2.5596
  700MOL0     H96536   7.356  11.722   9.013  0.5874 -1.1958 -0.4270
  700MOL0     H96537   7.336  11.790   9.254 -0.0262  0.7155 -1.0146
  700MOL0     H96538   7.507  11.752   9.286  1.7665  2.1566 -0.1517
  700MOL0     H96539   7.576  11.897   9.086  0.8250 -0.3045  1.8959
  700MOL0     H96540   7.418  11.937   9.050 -0.7305 -1.1609  0.7683
  700MOL0     H96541   7.580  11.996   9.310  1.7783 -0.1086 -1.8879
  700MOL0     H96542   7.406  12.044   9.297  1.2573  0.9425  1.1208
  700MOL0     H96543   7.554  12.227   9.262 -4.0003  0.8527 -0.4914
  700MOL0     H96544   7.646  12.128   9.138 -0.8362 -2.4680 -0.2337
  700MOL0     H96545   7.346  12.212   9.128  1.1635 -1.3397  1.7937
  700MOL0     H96546   7.445  12.163   8.993  1.2890 -1.3665  0.5353
  700MOL0     H96547   7.428  12.408   8.985 -0.6860  0.3356  2.1141
  700MOL0     H96548   7.464  12.434   9.151 -1.7699 -1.8245  0.5827
  700MOL0     H96549   7.640  12.321   8.826 -2.4319 -0.4699  0.3803
  700MOL0     H96550   8.007  12.267   8.918 -0.8174 -0.5098  0.7973
  700MOL0     H96551   7.935  12.319   8.769  1.3158 -2.1125 -0.3673
  700MOL0     H96552   7.863  12.063   8.923  0.4130  1.1417  0.2500
  700MOL0     H96553   7.798  12.116   8.768 -1.7698 -1.1938  3.3157
  700MOL0     H96554   8.061  12.106   8.712 -0.0442 -0.5115 -2.2259
  700MOL0     H96555   8.067  11.989   8.847 -0.0787 -0.9844 -0.8268
  700MOL0     H96556   7.916  11.969   8.592 -1.2073 -1.8889  1.3694
  700MOL0     H96557   8.037  11.848   8.644 -1.7263 -1.6802 -4.3176
  700MOL0     H96558   7.848  11.770   8.495 -1.9482 -0.2913 -1.9390
  700MOL0     H96559   7.703  11.762   8.293 -2.3790 -1.0106 -3.3898
  700MOL0     H96560   7.571  11.648   8.288  1.5195 -0.4696 -1.8130
  700MOL0     H96561   7.738  11.598   8.325  1.6837  1.9954 -2.6971
  700MOL0     H96562   7.134  11.607   8.754  0.4486 -1.3353  1.5114
  700MOL0     H96563   6.894  11.501   8.734 -1.1069 -4.8654  0.4851
  700MOL0     H96564   6.869  11.110   8.505  0.9946 -1.4692  0.6964
  700MOL0     H96565   6.923  11.082   8.671  1.2500 -0.3564 -1.9172
  700MOL0     H96566   6.669  11.061   8.728 -0.9979  0.0144 -1.4294
  700MOL0     H96567   6.632  11.104   8.565 -1.8737 -1.5052  1.2075
  700MOL0     H96568   6.772  10.857   8.677 -0.3298 -0.6797  1.0053
  700MOL0     H96569   6.758  10.889   8.494 -1.6323  2.2033 -1.1247
  700MOL0     H96570   6.497  10.907   8.575 -0.3809 -0.5832  3.2732
  700MOL0     H96571   6.560  10.772   8.668  1.5518  1.7775  0.5249
  700MOL0     H96572   6.569  10.789   8.363 -1.1139  1.4582 -0.3603
  700MOL0     H96573   6.642  10.651   8.461  0.7408  1.1808 -2.2533
  700MOL0     H96574   6.363  10.739   8.505 -0.8122 -1.0281  0.3844
  700MOL0     H96575   6.421  10.587   8.553  0.2332 -0.4300 -0.7369
  700MOL0     H96576   6.406  10.673   8.263 -3.3044  1.1652  0.0438
  700MOL0     H96577   6.276  10.571   8.350  0.1192 -0.1287  2.5423
  700MOL0     H96578   6.551  10.457   8.277  0.3408 -2.1182  0.8971
  700MOL0     H96579   6.390  10.419   8.213 -0.2517  2.6269 -1.5847
  700MOL0     H96580   7.075  11.198   8.471  1.6731 -1.2347  0.0168
  700MOL0     H96581   7.271  11.337   8.463 -0.3702  2.0084 -1.0968
  700MOL0     H96582   7.467  11.636   8.773  1.5729  0.4567  0.5460
  700MOL0     H96583   7.654  11.768   8.863  0.8684  0.5045 -0.5574
  700MOL0     H96584   7.297  11.315   8.828 -0.5837  2.7461  0.7088
  700MOL0     H96585   7.131  11.132   8.819  2.5486  1.4349 -1.4019
  700MOL0     H96586   6.984  10.838   8.869  2.7484 -1.5692  0.7812
  700MOL0     H96587   6.898  10.644   8.778  1.7088  0.4445  0.7146
  700MOL0     H96588   6.563  10.542   8.785  2.9069  2.9932  1.1033
  700MOL0     H96589   6.567  10.371   8.798 -0.7828  0.9499 -0.9944
  700MOL0     H96590   6.514  10.551   9.039  1.4793  1.2503 -3.4263
  700MOL0     H96591   6.484  10.375   9.048  0.6695 -0.0470 -1.2881
  700MOL0     H96592   6.370  10.591   8.866 -0.6957  0.9258 -0.3490
  700MOL0     H96593   6.306  10.426   8.861 -2.8544  2.2131 -0.0841
  700MOL0     H96594   6.277  10.630   9.091  1.0619  0.1195  0.1112
  700MOL0     H96595   6.252  10.461   9.115  0.3662  0.3833 -0.5185
  700MOL0     H96596   5.911  10.584   8.900 -0.0166  1.3569 -0.1289
  700MOL0     H96597   6.731  10.526   9.148  2.2769 -0.2908  0.7735
  700MOL0     H96598   6.754  10.795   9.332  1.7417  1.4212  0.8073
  700MOL0     H96599   6.759  10.626   9.346 -1.4123  2.7720  3.2472
  700MOL0     H96600   6.916  10.717   9.341  0.2253 -0.0203 -0.0878
  701MOL0     O96601   4.764   3.027   7.407  0.0712 -0.1177  0.4323
  701MOL0     C96602   4.871   3.011   7.339 -0.5180  0.7480  0.1073
  701MOL0     O96603   4.993   3.004   7.404 -0.1436 -0.1972 -0.1064
  701MOL0     C96604   5.007   2.999   7.542 -0.6421 -0.1481  0.1442
  701MOL0     C96605   4.926   3.079   7.630 -0.3505  0.5358  0.3381
  701MOL0     C96606   4.964   3.090   7.766  0.0680 -1.4297  0.1317
  701MOL0     C96607   5.076   3.012   7.812  0.7096 -0.3884  0.1227
  701MOL0     O96608   5.124   3.026   7.942  1.2630  0.3144 -0.2144
  701MOL0     C96609   5.026   3.072   8.038 -0.2119  0.2071  0.6392
  701MOL0     C96610   5.079   3.047   8.180 -0.4032 -0.2068 -0.0312
  701MOL0     C96611   5.120   2.898   8.193  0.4615  0.3404  0.6196
  701MOL0     C96612   5.201   2.863   8.319  0.3097  0.1792  0.4708
  701MOL0     C96613   5.189   2.710   8.333 -0.0784 -0.2142 -0.9735
  701MOL0     C96614   5.265   2.656   8.459 -0.0179 -0.6301 -0.5485
  701MOL0     C96615   5.240   2.511   8.466 -0.8691  0.3763  0.9393
  701MOL0     C96616   5.279   2.457   8.605 -0.8998  0.4294  0.2001
  701MOL0     N96617   5.404   2.491   8.661 -0.4235 -0.7178  0.0732
  701MOL0     C96618   5.528   2.459   8.613  0.5180 -0.4978 -0.4102
  701MOL0     C96619   5.611   2.493   8.719 -0.6433 -0.0695 -1.0720
  701MOL0     C96620   5.753   2.455   8.726  0.6349  0.1323 -0.1969
  701MOL0     C96621   5.848   2.571   8.710 -0.2524  0.5624  0.8673
  701MOL0     C96622   5.992   2.524   8.717  0.1808 -0.6843 -0.0753
  701MOL0     C96623   6.087   2.612   8.642  0.1621  0.4440 -0.2276
  701MOL0     O96624   6.052   2.588   8.505  0.4640 -0.8996 -0.4428
  701MOL0     C96625   6.106   2.673   8.415  0.8828  0.1071  0.1327
  701MOL0     C96626   6.207   2.761   8.433  0.5698 -0.3526 -0.7977
  701MOL0     C96627   6.259   2.847   8.337 -0.4516  0.4833  0.6846
  701MOL0     C96628   6.386   2.920   8.372  0.2679 -0.1395  0.6235
  701MOL0     C96629   6.199   2.842   8.204 -0.9808  0.2682  0.2016
  701MOL0     C96630   6.242   2.923   8.085 -0.4454 -0.1343  0.6380
  701MOL0     O96631   6.229   2.868   7.959  0.5136  0.4817  0.5384
  701MOL0     C96632   6.302   2.936   7.860  0.5762 -0.0741  0.1321
  701MOL0     C96633   6.239   3.021   7.767 -0.1174  0.3300 -0.8451
  701MOL0     C96634   6.314   3.074   7.660 -0.0062  0.2983  0.0054
  701MOL0     C96635   6.452   3.053   7.649  0.3461  0.1055  0.2279
  701MOL0     O96636   6.529   3.115   7.558 -0.6758 -0.6774 -0.0970
  701MOL0     C96637   6.471   3.191   7.450  0.0186  0.2127 -0.4574
  701MOL0     C96638   6.585   3.244   7.360 -0.1823 -0.6394  0.1517
  701MOL0     C96639   6.528   3.287   7.218  0.0911  0.1292 -0.2130
  701MOL0     C96640   6.401   3.372   7.238  1.3736  0.0778 -0.5417
  701MOL0     C96641   6.321   3.411   7.112 -1.0544  0.0586 -0.4166
  701MOL0     C96642   6.264   3.293   7.030 -0.1922  0.6746  0.5064
  701MOL0     C96643   6.174   3.189   7.106  0.2178 -0.3683  0.5399
  701MOL0     C96644   6.157   3.058   7.029  0.2424  0.2193  0.0734
  701MOL0    Cl96645   6.325   2.993   6.995 -0.5939  0.0452 -0.6620
  701MOL0     C96646   6.512   2.971   7.747 -1.0363 -0.0643  0.2125
  701MOL0     C96647   6.439   2.919   7.849 -0.8053 -0.0834 -0.0197
  701MOL0     O96648   6.294   3.032   8.110  0.5843 -0.0917 -0.2668
  701MOL0     C96649   6.079   2.762   8.192 -0.7415  0.5755  0.2210
  701MOL0     C96650   6.036   2.675   8.294  0.4872 -0.4409  0.4936
  701MOL0     N96651   5.546   2.577   8.808 -0.2351 -1.0677  0.4244
  701MOL0     N96652   5.421   2.561   8.770  0.0774  0.5067 -0.0060
  701MOL0     C96653   5.152   2.932   7.727 -0.9721  0.7122  1.1840
  701MOL0     C96654   5.119   2.923   7.590  0.2409 -1.0057 -0.0848
  701MOL0     C96655   4.870   2.986   7.198 -0.2045  1.0180 -0.0191
  701MOL0     C96656   4.995   2.985   7.124  0.5682 -0.0251 -0.2657
  701MOL0     C96657   4.996   2.973   6.984  0.4541  0.2342  0.5495
  701MOL0     C96658   4.882   2.945   6.914 -0.4324  0.4669  0.1953
  701MOL0     O96659   4.894   2.904   6.784 -0.3217 -0.5492  0.4431
  701MOL0     C96660   4.883   3.014   6.691 -0.6084  0.3738  1.1720
  701MOL0     C96661   4.888   2.973   6.543 -0.3777 -0.0620  0.0581
  701MOL0     C96662   5.026   2.995   6.474 -0.3952  1.0573  0.5675
  701MOL0     C96663   5.034   2.952   6.330  0.5270  0.6215  0.4455
  701MOL0     C96664   5.000   2.808   6.317 -0.1154  0.3093  0.5873
  701MOL0     C96665   4.985   2.688   6.338 -0.2107 -0.1240  0.4583
  701MOL0     C96666   4.761   2.951   6.978 -0.5930  0.5879  0.3021
  701MOL0     C96667   4.750   2.975   7.124  0.4157  0.1808 -0.7143
  701MOL0     C96668   4.607   2.968   7.182  0.4951  0.9249 -0.1262
  701MOL0     H96669   4.856   3.156   7.600 -0.0554  0.1083 -1.5787
  701MOL0     H96670   4.919   3.160   7.836  0.2588  0.5090 -1.5845
  701MOL0     H96671   4.935   3.012   8.028 -1.3510  1.9836 -0.2646
  701MOL0     H96672   5.003   3.179   8.027 -1.0345  0.0621  0.8750
  701MOL0     H96673   5.167   3.109   8.197 -1.0722  0.7312  0.0859
  701MOL0     H96674   5.002   3.071   8.253 -0.2383 -1.9554  0.7678
  701MOL0     H96675   5.033   2.831   8.197  0.8372 -0.1772  0.1700
  701MOL0     H96676   5.181   2.869   8.107  3.1157 -1.1735  2.8578
  701MOL0     H96677   5.306   2.890   8.307  0.3973 -0.9196 -1.9135
  701MOL0     H96678   5.160   2.913   8.407 -1.7048  2.0184 -1.3699
  701MOL0     H96679   5.225   2.670   8.238 -0.0875  0.5844 -1.3204
  701MOL0     H96680   5.086   2.674   8.331 -0.3507  0.3137  1.1895
  701MOL0     H96681   5.372   2.680   8.464 -0.5724  2.0865 -0.4790
  701MOL0     H96682   5.223   2.703   8.548 -2.1870 -0.1100 -1.7692
  701MOL0     H96683   5.298   2.466   8.385 -1.1369  0.8819  0.4629
  701MOL0     H96684   5.134   2.494   8.441 -1.1928  3.1341  0.1632
  701MOL0     H96685   5.208   2.497   8.678 -0.3506  0.1703  0.9004
  701MOL0     H96686   5.274   2.348   8.608  1.6198  0.2519  0.1624
  701MOL0     H96687   5.552   2.406   8.522 -0.0372 -0.0748 -0.8099
  701MOL0     H96688   5.775   2.372   8.658 -1.6116 -1.4402  0.8358
  701MOL0     H96689   5.765   2.410   8.826  2.7758  0.1086 -0.4182
  701MOL0     H96690   5.829   2.618   8.613 -0.6589  2.1370  1.6704
  701MOL0     H96691   5.837   2.641   8.794  0.9763  1.2095  0.5227
  701MOL0     H96692   6.023   2.532   8.821 -0.2636  3.3141 -0.1105
  701MOL0     H96693   6.012   2.424   8.677  0.8484  0.1393 -1.9371
  701MOL0     H96694   6.062   2.708   8.688 -0.1716 -1.0734  3.0861
  701MOL0     H96695   6.194   2.590   8.652  1.3744  4.4273 -2.1880
  701MOL0     H96696   6.249   2.775   8.532  1.0149  0.1394 -1.0527
  701MOL0     H96697   6.458   2.840   8.393  1.1311 -0.0179 -1.6343
  701MOL0     H96698   6.369   2.982   8.461 -0.2682  2.1153 -0.9452
  701MOL0     H96699   6.437   2.983   8.298 -2.4246 -0.3557 -1.5678
  701MOL0     H96700   6.132   3.037   7.759 -0.9338 -2.5416  2.2457
  701MOL0     H96701   6.264   3.130   7.581  0.2271  0.7951  0.2018
  701MOL0     H96702   6.406   3.115   7.406  0.3540 -0.6842  0.5385
  701MOL0     H96703   6.423   3.277   7.497 -0.4092 -0.1951 -0.1329
  701MOL0     H96704   6.633   3.322   7.420 -0.7515 -1.0600  1.1727
  701MOL0     H96705   6.659   3.164   7.351  0.0720 -0.2847 -1.1037
  701MOL0     H96706   6.496   3.194   7.172 -0.8374  0.3694 -0.0824
  701MOL0     H96707   6.599   3.343   7.157 -0.7872  2.7675  0.9805
  701MOL0     H96708   6.428   3.462   7.294  2.6824  0.3113 -1.5109
  701MOL0     H96709   6.338   3.317   7.309  2.5832  1.0379  1.3442
  701MOL0     H96710   6.237   3.475   7.143 -1.0558  0.6441 -1.5786
  701MOL0     H96711   6.376   3.467   7.036 -0.2470  3.1938  2.2453
  701MOL0     H96712   6.338   3.248   6.964 -1.2724 -1.2464  0.5323
  701MOL0     H96713   6.190   3.338   6.963 -1.9857 -0.9489  1.3004
  701MOL0     H96714   6.076   3.233   7.130  0.9257  1.8497 -0.3621
  701MOL0     H96715   6.219   3.159   7.201  0.2352  0.5606  0.8436
  701MOL0     H96716   6.101   3.062   6.934  1.5104 -1.1533 -0.7761
  701MOL0     H96717   6.103   2.986   7.091  0.0930  1.3691  1.3182
  701MOL0     H96718   6.617   2.948   7.729 -1.1579  0.0297 -0.6717
  701MOL0     H96719   6.493   2.861   7.924 -2.2348 -0.1703  0.9660
  701MOL0     H96720   6.026   2.767   8.097 -0.7912 -2.9467 -0.0655
  701MOL0     H96721   5.949   2.618   8.265  0.7057  1.1506 -4.2355
  701MOL0     H96722   5.239   2.879   7.765 -0.3674 -0.9630 -2.1406
  701MOL0     H96723   5.184   2.857   7.532  0.9920 -0.5311  0.2027
  701MOL0     H96724   5.088   2.995   7.180 -0.7861  0.9088  1.9213
  701MOL0     H96725   5.084   2.961   6.922 -1.0133 -1.8969 -1.2835
  701MOL0     H96726   4.783   3.052   6.710 -1.0076 -0.3921  0.6399
  701MOL0     H96727   4.953   3.094   6.720 -0.3407 -0.0874  1.8233
  701MOL0     H96728   4.809   3.033   6.498 -1.7733 -0.5640  1.7264
  701MOL0     H96729   4.861   2.867   6.532 -0.3113 -0.2599  1.5922
  701MOL0     H96730   5.044   3.103   6.472  2.4057  1.0415  5.7817
  701MOL0     H96731   5.107   2.947   6.529 -0.8310  2.1502  2.2542
  701MOL0     H96732   5.138   2.972   6.303  0.3212 -0.6430 -1.4674
  701MOL0     H96733   4.982   3.016   6.259  0.1798  1.6768  1.6048
  701MOL0     H96734   4.976   2.583   6.356  0.7130 -0.2334  0.3561
  701MOL0     H96735   4.673   2.936   6.916 -1.0063  1.6680  0.6031
  701MOL0     H96736   4.589   2.897   7.263 -0.6111 -0.2689 -1.3805
  701MOL0     H96737   4.584   3.070   7.216 -1.1351  1.0497 -1.4418
  701MOL0     H96738   4.524   2.953   7.112  0.3725 -2.1067  0.5441
  702MOL0     O96739   4.555   8.036   5.019 -0.6595  0.2837 -0.4991
  702MOL0     C96740   4.470   7.988   5.091 -0.3574  0.0972  0.1686
  702MOL0     O96741   4.336   7.970   5.062 -0.2480  0.6700  0.2498
  702MOL0     C96742   4.296   8.028   4.940 -0.0655 -0.4634 -0.2859
  702MOL0     C96743   4.344   7.999   4.818  0.1494  0.2960 -0.1811
  702MOL0     C96744   4.304   8.075   4.705  0.3717  0.7343  0.2088
  702MOL0     C96745   4.195   8.166   4.708  0.0601  1.0991  0.1365
  702MOL0     O96746   4.156   8.228   4.590  0.4625  1.1119  0.5063
  702MOL0     C96747   4.037   8.314   4.584  0.2728 -0.1485  0.1274
  702MOL0     C96748   4.066   8.470   4.569  0.3373  0.4808 -0.3171
  702MOL0     C96749   4.146   8.536   4.679 -0.2180  0.2120 -0.3333
  702MOL0     C96750   4.302   8.531   4.667  0.8241 -0.5738 -0.0665
  702MOL0     C96751   4.366   8.635   4.762 -0.3508 -0.0761  0.3766
  702MOL0     C96752   4.372   8.573   4.903  0.6630 -0.0480 -0.1575
  702MOL0     C96753   4.460   8.447   4.909 -0.9677  0.6199  0.1918
  702MOL0     C96754   4.531   8.402   5.043 -0.4061  0.5552  0.3371
  702MOL0     N96755   4.649   8.484   5.066 -0.3144  0.5849 -0.9798
  702MOL0     C96756   4.776   8.436   5.033  0.5661 -0.0219  0.1208
  702MOL0     C96757   4.864   8.504   5.106  0.9495  0.1757 -0.8649
  702MOL0     C96758   5.013   8.489   5.119  0.0331 -0.5385  0.8401
  702MOL0     C96759   5.056   8.460   5.261  0.8414  0.0522  0.9294
  702MOL0     C96760   5.209   8.461   5.275  0.7282 -0.6468  0.7345
  702MOL0     C96761   5.279   8.604   5.280  0.4963 -0.8437  0.6603
  702MOL0     O96762   5.422   8.591   5.283 -0.0559 -0.0163 -0.1444
  702MOL0     C96763   5.496   8.692   5.243 -0.4393 -0.3619  0.0795
  702MOL0     C96764   5.626   8.657   5.242 -0.3161  0.5431  0.3884
  702MOL0     C96765   5.726   8.755   5.206  0.3694  0.2156 -0.5498
  702MOL0     C96766   5.878   8.721   5.215  0.3076  0.2310  0.1780
  702MOL0     C96767   5.688   8.886   5.181 -0.0930 -0.2761 -0.5953
  702MOL0     C96768   5.779   8.995   5.167 -0.7101 -0.3078 -0.2111
  702MOL0     O96769   5.823   9.006   5.041  0.2797  0.7589 -0.0669
  702MOL0     C96770   5.932   9.092   5.019  0.0977  0.3493 -0.0892
  702MOL0     C96771   5.934   9.188   4.919  0.4225  0.2318 -0.3504
  702MOL0     C96772   6.040   9.273   4.896 -0.2896  0.5451 -0.2261
  702MOL0     C96773   6.157   9.261   4.972 -0.6891  0.1321  0.1297
  702MOL0     O96774   6.258   9.350   4.941  0.5333 -0.0947  0.4527
  702MOL0     C96775   6.300   9.428   5.052 -0.5385 -0.6547  0.0315
  702MOL0     C96776   6.421   9.524   5.011  0.7238 -1.0599  0.0933
  702MOL0     C96777   6.556   9.454   5.008  0.7578 -0.2670  0.1198
  702MOL0     C96778   6.667   9.550   5.017 -0.1613 -0.1152 -0.2107
  702MOL0     C96779   6.795   9.482   5.059 -0.4696 -0.7045 -0.0793
  702MOL0     C96780   6.831   9.342   5.008 -0.0419 -0.1708 -0.3725
  702MOL0     C96781   6.981   9.311   5.046 -0.1598  0.3522  0.5949
  702MOL0     C96782   7.010   9.168   4.992  0.2280 -0.6252 -1.1863
  702MOL0    Cl96783   7.177   9.125   5.048  0.5614 -0.6713  0.0056
  702MOL0     C96784   6.167   9.162   5.068  0.0830  0.4791  0.6447
  702MOL0     C96785   6.055   9.079   5.087 -0.1827  0.0676 -0.2877
  702MOL0     O96786   5.784   9.090   5.246  0.9489  0.4135  0.4568
  702MOL0     C96787   5.549   8.922   5.184 -0.6882  0.1260 -0.4595
  702MOL0     C96788   5.453   8.825   5.219  0.5640  0.1360  0.3688
  702MOL0     N96789   4.780   8.591   5.182  0.1315 -0.1088 -0.4510
  702MOL0     N96790   4.660   8.575   5.168 -0.1863  1.8480 -0.4360
  702MOL0     C96791   4.145   8.191   4.834  0.7408 -0.5967 -0.3289
  702MOL0     C96792   4.192   8.127   4.948  0.5548 -0.3882 -1.1170
  702MOL0     C96793   4.509   7.976   5.237  0.0229 -0.4157 -0.1549
  702MOL0     C96794   4.417   7.914   5.329  0.0385 -0.8338  0.5251
  702MOL0     C96795   4.430   7.907   5.469 -0.0787 -0.3881  0.4839
  702MOL0     C96796   4.555   7.962   5.527  0.3642  0.2182 -1.1056
  702MOL0     O96797   4.580   7.961   5.662 -0.3452  0.7240 -0.3493
  702MOL0     C96798   4.566   7.834   5.732  0.4950 -0.0576  0.8317
  702MOL0     C96799   4.606   7.855   5.882 -0.5758 -0.2988 -0.3106
  702MOL0     C96800   4.750   7.915   5.900 -0.2948  0.2169 -0.6145
  702MOL0     C96801   4.872   7.845   5.843  0.1829  0.6640 -0.8017
  702MOL0     C96802   4.881   7.827   5.701 -0.1915 -0.6534 -1.0309
  702MOL0     C96803   4.900   7.819   5.584  0.1322 -0.4686  0.1564
  702MOL0     C96804   4.652   8.014   5.441 -0.1653  0.2898 -0.3327
  702MOL0     C96805   4.630   8.030   5.301 -0.1304 -0.7995  0.6566
  702MOL0     C96806   4.738   8.114   5.230  0.0872 -0.9305  0.0045
  702MOL0     H96807   4.424   7.925   4.814 -0.7645 -0.6556 -1.6631
  702MOL0     H96808   4.339   8.056   4.604 -3.0600 -1.2740 -0.7486
  702MOL0     H96809   3.962   8.284   4.657 -1.8876 -1.4737 -2.4477
  702MOL0     H96810   3.974   8.288   4.498 -1.1711 -0.1248  1.1413
  702MOL0     H96811   4.096   8.490   4.466 -1.6139 -0.2202 -1.0817
  702MOL0     H96812   3.972   8.523   4.586  0.3041  0.3062  0.0329
  702MOL0     H96813   4.103   8.637   4.679 -3.1797 -0.8452 -3.6468
  702MOL0     H96814   4.123   8.488   4.774 -1.0219  1.2503  0.0208
  702MOL0     H96815   4.340   8.431   4.692 -0.8643 -1.0818  0.6404
  702MOL0     H96816   4.339   8.543   4.565  0.8166 -1.0335 -0.1257
  702MOL0     H96817   4.309   8.728   4.763 -1.3208 -0.6071 -1.4218
  702MOL0     H96818   4.468   8.664   4.734 -1.2853  4.3902  0.7986
  702MOL0     H96819   4.410   8.652   4.968  0.3613  1.4334 -1.7155
  702MOL0     H96820   4.273   8.538   4.935 -0.4173  1.8791 -1.2376
  702MOL0     H96821   4.535   8.456   4.830 -2.1226  1.8245 -0.8144
  702MOL0     H96822   4.400   8.360   4.883  0.2442  0.5059 -2.6364
  702MOL0     H96823   4.471   8.398   5.135 -0.8975 -0.2805 -0.0127
  702MOL0     H96824   4.574   8.302   5.030 -1.0135  0.5492 -1.8924
  702MOL0     H96825   4.793   8.349   4.970 -2.6735  0.3546 -1.4685
  702MOL0     H96826   5.058   8.579   5.075  1.9483 -0.9202  1.9130
  702MOL0     H96827   5.045   8.411   5.051  3.7525  2.3487 -1.0934
  702MOL0     H96828   5.007   8.540   5.317 -2.1206 -2.7253  2.6653
  702MOL0     H96829   5.016   8.362   5.291 -0.0890  0.0570 -0.2089
  702MOL0     H96830   5.220   8.413   5.373  2.3178 -0.1764  0.8116
  702MOL0     H96831   5.252   8.397   5.198  2.6087  2.7848 -1.3092
  702MOL0     H96832   5.269   8.651   5.181  1.0270 -0.2009  0.8994
  702MOL0     H96833   5.249   8.672   5.360  0.5122 -2.8857  2.4815
  702MOL0     H96834   5.657   8.553   5.246  0.4338  0.7776  0.9569
  702MOL0     H96835   5.898   8.617   5.242 -1.2600 -0.4362 -1.0265
  702MOL0     H96836   5.916   8.783   5.296  0.5540 -1.2472  1.2387
  702MOL0     H96837   5.941   8.757   5.133  2.1233 -1.5406  0.7245
  702MOL0     H96838   5.844   9.211   4.862  0.4096  1.4113  0.1170
  702MOL0     H96839   6.046   9.349   4.818 -0.2706 -0.2629 -1.0316
  702MOL0     H96840   6.218   9.491   5.087 -2.4372 -2.3009 -1.1576
  702MOL0     H96841   6.347   9.364   5.127  2.2991 -0.6232 -1.5781
  702MOL0     H96842   6.404   9.596   4.931 -1.5507  3.2397  4.0041
  702MOL0     H96843   6.429   9.587   5.100  2.2193  1.7128 -1.8482
  702MOL0     H96844   6.556   9.385   4.923 -2.9366  1.0443 -1.1673
  702MOL0     H96845   6.559   9.398   5.102  0.0184  1.9122  1.5331
  702MOL0     H96846   6.648   9.623   5.097  0.6587  1.4255 -1.3750
  702MOL0     H96847   6.673   9.613   4.928 -1.5463 -1.0302 -0.9863
  702MOL0     H96848   6.880   9.549   5.043 -1.3445  0.3684 -0.3499
  702MOL0     H96849   6.777   9.465   5.166  0.7901 -3.7077 -0.2554
  702MOL0     H96850   6.816   9.342   4.900 -1.0205 -2.2429 -0.2922
  702MOL0     H96851   6.781   9.256   5.053  1.0380 -0.8887 -0.5005
  702MOL0     H96852   6.988   9.322   5.155 -0.7835  2.3670  0.4599
  702MOL0     H96853   7.050   9.380   4.998 -0.4080  0.0264 -0.2575
  702MOL0     H96854   7.006   9.154   4.883  1.4285 -1.5122 -1.1371
  702MOL0     H96855   6.952   9.094   5.047 -0.5401  3.5432  4.5436
  702MOL0     H96856   6.253   9.138   5.129  0.6642  1.1798  0.1113
  702MOL0     H96857   6.056   9.004   5.165 -2.5644  0.8864  0.6104
  702MOL0     H96858   5.516   9.023   5.165 -1.5079 -0.2382 -1.0305
  702MOL0     H96859   5.355   8.869   5.235  0.0908 -0.1978 -1.4144
  702MOL0     H96860   4.068   8.265   4.851 -0.2636 -1.4117 -1.2231
  702MOL0     H96861   4.171   8.154   5.051  2.2449 -1.6762 -0.3772
  702MOL0     H96862   4.324   7.869   5.294 -0.2923 -1.9781  2.7001
  702MOL0     H96863   4.349   7.870   5.531  0.5263  0.2662  1.7141
  702MOL0     H96864   4.460   7.807   5.730 -0.4360  3.0597  1.3935
  702MOL0     H96865   4.620   7.750   5.688 -1.9208 -0.4352 -1.6855
  702MOL0     H96866   4.590   7.763   5.939 -0.8815  1.0545  1.9086
  702MOL0     H96867   4.537   7.928   5.924 -2.4537 -1.7325 -0.7601
  702MOL0     H96868   4.763   8.017   5.863  1.7909 -1.0507 -3.7340
  702MOL0     H96869   4.770   7.919   6.008  2.1168  3.5099 -1.0101
  702MOL0     H96870   4.884   7.747   5.890 -0.7323  0.5413 -0.8047
  702MOL0     H96871   4.959   7.907   5.867  0.8540 -0.8671  0.9601
  702MOL0     H96872   4.914   7.809   5.479 -0.4156 -1.6688  0.1802
  702MOL0     H96873   4.744   8.047   5.488  1.0727  1.1037 -3.1252
  702MOL0     H96874   4.795   8.049   5.163  0.3073 -1.2524  0.4965
  702MOL0     H96875   4.686   8.185   5.165 -2.9353 -3.2674 -0.3141
  702MOL0     H96876   4.797   8.171   5.303 -1.4760 -0.1620  0.7122
  703MOL0     O96877   7.011   4.825   7.990 -0.0922 -0.5477 -0.7682
  703MOL0     C96878   7.002   4.814   7.871  0.5156 -0.6160  0.8005
  703MOL0     O96879   6.949   4.700   7.809  0.4602 -0.0977 -0.2922
  703MOL0     C96880   6.930   4.595   7.895 -0.0300 -0.0316 -0.5738
  703MOL0     C96881   6.995   4.474   7.880 -0.0402 -0.2813 -0.1228
  703MOL0     C96882   6.973   4.364   7.972  0.0282  1.0984 -0.2841
  703MOL0     C96883   6.885   4.375   8.077  0.1107  0.6948  0.4481
  703MOL0     O96884   6.841   4.266   8.162 -0.0361 -0.9076 -0.3238
  703MOL0     C96885   6.956   4.197   8.223  0.4278 -0.0835 -0.1315
  703MOL0     C96886   6.924   4.117   8.353 -0.2311  0.1670  0.2752
  703MOL0     C96887   6.792   4.044   8.351  0.9422 -0.3122  0.6389
  703MOL0     C96888   6.790   3.917   8.269  0.2308 -0.3072  0.5651
  703MOL0     C96889   6.653   3.908   8.199 -0.1198  0.0929  1.0060
  703MOL0     C96890   6.528   3.908   8.286 -1.2591  0.2143  0.7412
  703MOL0     C96891   6.497   3.767   8.356  0.5092  1.4171 -0.4417
  703MOL0     C96892   6.362   3.759   8.409  0.8851 -0.1302  0.3466
  703MOL0     N96893   6.329   3.627   8.458 -0.4913 -0.1668 -0.1845
  703MOL0     C96894   6.244   3.533   8.405 -0.1667  0.7313  0.1096
  703MOL0     C96895   6.270   3.412   8.471 -0.0830 -0.3370 -0.2092
  703MOL0     C96896   6.184   3.282   8.443  0.3022 -0.3301  0.0489
  703MOL0     C96897   6.045   3.302   8.489 -0.5482 -0.3698  1.3296
  703MOL0     C96898   5.963   3.176   8.430  0.3902 -1.0924  0.1351
  703MOL0     C96899   5.949   3.160   8.274  0.4610 -1.1979  0.2153
  703MOL0     O96900   5.921   3.292   8.217 -0.2830 -0.1597 -0.4314
  703MOL0     C96901   5.798   3.339   8.210 -0.4424  0.3879 -0.2806
  703MOL0     C96902   5.679   3.281   8.260 -0.5592 -0.3575  0.1241
  703MOL0     C96903   5.553   3.337   8.227 -0.4858  0.0880  0.0008
  703MOL0     C96904   5.441   3.249   8.289  0.4241 -0.7177  0.1597
  703MOL0     C96905   5.535   3.451   8.142 -0.6590 -0.8138  0.2213
  703MOL0     C96906   5.412   3.522   8.098  0.8810  0.6914 -0.2609
  703MOL0     O96907   5.420   3.619   8.003  0.0722 -0.0719 -0.3498
  703MOL0     C96908   5.311   3.650   7.923 -0.7087 -0.0238  0.6206
  703MOL0     C96909   5.208   3.557   7.891  0.9530 -0.5787  0.6652
  703MOL0     C96910   5.090   3.594   7.818 -0.0315 -1.0654  0.5627
  703MOL0     C96911   5.079   3.729   7.774 -0.2209  0.1887 -0.3470
  703MOL0     O96912   4.968   3.767   7.702  0.1568  0.1255  0.2509
  703MOL0     C96913   4.941   3.907   7.682  0.9533  0.1997 -0.3479
  703MOL0     C96914   4.791   3.932   7.654 -0.1917 -0.1442  0.3695
  703MOL0     C96915   4.691   3.918   7.770 -0.8336 -0.4138  0.9372
  703MOL0     C96916   4.542   3.928   7.729 -0.3234 -0.4512  0.2805
  703MOL0     C96917   4.459   3.898   7.852 -0.4364 -0.2456  0.6408
  703MOL0     C96918   4.464   3.999   7.957 -0.6242  0.0597 -0.5234
  703MOL0     C96919   4.460   3.931   8.096  0.2097 -0.1478 -0.4065
  703MOL0     C96920   4.473   4.021   8.210  0.4993 -0.6085 -0.6166
  703MOL0    Cl96921   4.652   4.054   8.221 -0.0358 -0.2538  0.2014
  703MOL0     C96922   5.191   3.817   7.800  0.4829  0.8678  0.1792
  703MOL0     C96923   5.293   3.779   7.880  0.3220 -0.3364  1.3236
  703MOL0     O96924   5.311   3.483   8.148  0.3135 -0.0983  0.2039
  703MOL0     C96925   5.658   3.513   8.112 -0.4641 -0.3055  0.1367
  703MOL0     C96926   5.782   3.454   8.134  0.2469  0.4321  0.0143
  703MOL0     N96927   6.376   3.441   8.557  0.3715  0.7885 -0.9067
  703MOL0     N96928   6.401   3.564   8.554 -0.5510  1.0504 -0.2089
  703MOL0     C96929   6.806   4.492   8.084  0.3796  0.3968  0.0668
  703MOL0     C96930   6.830   4.598   7.997 -0.6616 -0.7806  0.1501
  703MOL0     C96931   7.069   4.925   7.780 -0.6125 -0.0186 -0.5388
  703MOL0     C96932   7.095   4.887   7.647 -0.6142  0.0170 -0.9476
  703MOL0     C96933   7.152   4.990   7.563  0.3456  0.2864 -0.2389
  703MOL0     C96934   7.189   5.114   7.607 -0.3406 -0.3489 -0.5275
  703MOL0     O96935   7.230   5.205   7.509 -0.3129 -0.2095  0.4844
  703MOL0     C96936   7.307   5.312   7.553 -0.7838 -0.4349 -0.1344
  703MOL0     C96937   7.353   5.392   7.435 -0.5571 -0.4385  0.6689
  703MOL0     C96938   7.457   5.325   7.348 -0.2970  0.3006 -1.1607
  703MOL0     C96939   7.498   5.417   7.234 -0.6869  0.5420 -0.0270
  703MOL0     C96940   7.616   5.370   7.164  0.2419  0.2224 -0.4909
  703MOL0     C96941   7.709   5.332   7.097  0.1491  0.3833  0.0003
  703MOL0     C96942   7.153   5.151   7.734  0.1494  0.2879 -0.3315
  703MOL0     C96943   7.101   5.058   7.823  1.2536 -0.3338  0.0123
  703MOL0     C96944   7.091   5.106   7.974  0.0549  0.6144 -0.5398
  703MOL0     H96945   7.079   4.471   7.811 -0.9423 -2.8299 -1.2287
  703MOL0     H96946   7.037   4.277   7.964  2.6716  2.2525  4.7096
  703MOL0     H96947   7.035   4.270   8.244 -2.6799  3.6404 -0.2221
  703MOL0     H96948   6.990   4.118   8.156  0.9564 -0.4579  0.5683
  703MOL0     H96949   7.016   4.059   8.363  2.1945  3.0193 -2.9898
  703MOL0     H96950   6.933   4.187   8.437  1.1419 -0.1319  0.4043
  703MOL0     H96951   6.777   4.016   8.455  1.0402  2.5060  1.4912
  703MOL0     H96952   6.714   4.117   8.330  0.6061 -0.1614  2.2982
  703MOL0     H96953   6.863   3.908   8.188  1.2655 -0.6805  1.5208
  703MOL0     H96954   6.815   3.831   8.330 -0.2492 -2.1066 -1.6223
  703MOL0     H96955   6.660   3.816   8.141  0.4305  2.0442 -2.2313
  703MOL0     H96956   6.648   3.991   8.128  3.0589 -0.8902 -0.5748
  703MOL0     H96957   6.533   3.991   8.357  1.8476  1.7855 -1.1243
  703MOL0     H96958   6.444   3.934   8.221 -1.8189 -0.4199  1.1838
  703MOL0     H96959   6.569   3.751   8.436 -1.5068  1.9654  1.5722
  703MOL0     H96960   6.497   3.695   8.273  0.5245 -1.8967  2.2270
  703MOL0     H96961   6.356   3.830   8.493  2.7635  0.5533 -0.0582
  703MOL0     H96962   6.288   3.784   8.333  0.8874 -2.8024 -0.6406
  703MOL0     H96963   6.190   3.549   8.312  2.6541 -0.2618 -1.8206
  703MOL0     H96964   6.226   3.192   8.489  0.1513 -1.2055 -1.4722
  703MOL0     H96965   6.189   3.266   8.335  0.8683 -0.2027  0.0511
  703MOL0     H96966   6.038   3.304   8.598  1.5356  1.4533  1.5045
  703MOL0     H96967   6.003   3.394   8.447  1.1170  0.1023  0.6128
  703MOL0     H96968   5.996   3.082   8.473  2.2461 -0.9092 -0.7919
  703MOL0     H96969   5.861   3.194   8.465  0.2859  0.9838 -1.0314
  703MOL0     H96970   6.042   3.121   8.231 -0.3031 -2.5512 -0.2825
  703MOL0     H96971   5.866   3.099   8.237  0.8937 -1.3018 -0.5978
  703MOL0     H96972   5.674   3.192   8.322  2.8901  0.5399  1.9237
  703MOL0     H96973   5.359   3.249   8.216  2.9639  1.5588 -2.9879
  703MOL0     H96974   5.412   3.305   8.378 -1.2437 -0.5495 -0.4596
  703MOL0     H96975   5.460   3.145   8.317 -2.5459 -0.6200  3.2571
  703MOL0     H96976   5.218   3.452   7.917  3.7210 -1.3647 -2.7962
  703MOL0     H96977   5.014   3.528   7.777  0.1571 -0.4661 -0.8025
  703MOL0     H96978   4.963   3.970   7.769  1.6233  2.9389 -2.3899
  703MOL0     H96979   5.000   3.957   7.606  1.6946  1.0562  0.7536
  703MOL0     H96980   4.785   4.038   7.627  0.4585 -0.3890 -0.7676
  703MOL0     H96981   4.751   3.883   7.565 -1.0939  0.3763  0.4729
  703MOL0     H96982   4.720   3.992   7.844  0.5364  2.0712 -1.8862
  703MOL0     H96983   4.700   3.822   7.823  1.3454 -1.8349 -1.7011
  703MOL0     H96984   4.523   3.847   7.659 -0.0056  0.5247 -0.9701
  703MOL0     H96985   4.522   4.029   7.692 -1.8682 -0.3772  1.2067
  703MOL0     H96986   4.359   3.881   7.813  1.5309 -1.9301 -4.4054
  703MOL0     H96987   4.499   3.805   7.895  0.8005 -1.3764 -2.6786
  703MOL0     H96988   4.378   4.066   7.947 -1.4224 -0.7836  0.5132
  703MOL0     H96989   4.556   4.059   7.952 -2.2667  2.6727 -1.0803
  703MOL0     H96990   4.546   3.862   8.098  0.0758 -0.4074 -2.0596
  703MOL0     H96991   4.365   3.878   8.108 -0.2875  0.8826  0.3618
  703MOL0     H96992   4.423   3.981   8.299 -0.8149  0.7676 -0.6890
  703MOL0     H96993   4.424   4.119   8.204 -1.0493 -1.1827  1.4343
  703MOL0     H96994   5.188   3.919   7.765 -1.3744  0.6464 -0.4248
  703MOL0     H96995   5.364   3.855   7.910 -0.2181  1.8911 -2.3829
  703MOL0     H96996   5.663   3.613   8.071 -2.3140 -0.3149 -0.1978
  703MOL0     H96997   5.872   3.492   8.089 -1.0633  1.1822 -2.1060
  703MOL0     H96998   6.731   4.503   8.162 -0.7242  0.7267 -1.0082
  703MOL0     H96999   6.779   4.692   8.016 -0.4530 -0.8353  1.0415
  703MOL0     H97000   7.095   4.786   7.606  1.5563  0.0424 -1.1310
  703MOL0     H97001   7.159   4.967   7.458 -0.2068 -2.3041  0.2178
  703MOL0     H97002   7.237   5.381   7.601 -0.0845 -0.9178  1.6589
  703MOL0     H97003   7.396   5.292   7.614 -0.9385 -1.3732 -0.2138
  703MOL0     H97004   7.392   5.486   7.477  0.0446 -1.2259  1.9335
  703MOL0     H97005   7.265   5.422   7.378 -0.8575 -0.0158  1.3440
  703MOL0     H97006   7.543   5.292   7.406 -1.5744  0.9784  1.2254
  703MOL0     H97007   7.410   5.240   7.299 -1.5866 -1.3607  2.6371
  703MOL0     H97008   7.531   5.511   7.280  0.2532  0.9349 -1.4482
  703MOL0     H97009   7.419   5.441   7.162 -0.9995 -2.0093 -0.6342
  703MOL0     H97010   7.789   5.280   7.048  0.3304 -1.4582  2.0684
  703MOL0     H97011   7.185   5.252   7.759 -1.9029  1.0722 -0.6646
  703MOL0     H97012   7.134   5.205   7.990 -1.3351  1.0695  0.5680
  703MOL0     H97013   6.987   5.120   8.006 -0.1558  2.7418 -1.9662
  703MOL0     H97014   7.141   5.035   8.040 -1.3043  0.4510  0.3635
  704MOL0     O97015  11.383   1.908   7.688  0.1236 -0.3210 -0.0159
  704MOL0     C97016  11.354   1.935   7.804  0.6473  1.4247  0.7741
  704MOL0     O97017  11.438   2.003   7.892  0.2974  1.0436  0.5441
  704MOL0     C97018  11.560   2.035   7.850 -0.0644  0.5990 -0.1191
  704MOL0     C97019  11.590   2.116   7.738  1.0376  0.3288 -1.1541
  704MOL0     C97020  11.723   2.141   7.703  0.0547 -0.5920 -0.4447
  704MOL0     C97021  11.825   2.081   7.778  0.1975  0.6713  0.8805
  704MOL0     O97022  11.960   2.094   7.758 -0.4202  0.5337  0.1079
  704MOL0     C97023  12.012   2.209   7.688 -0.5297 -0.9827 -0.4627
  704MOL0     C97024  11.975   2.357   7.720  0.4330  0.7703  0.3793
  704MOL0     C97025  12.071   2.419   7.816 -0.7918  0.1936  0.1574
  704MOL0     C97026  12.209   2.458   7.757 -0.4432  0.0128 -0.8153
  704MOL0     C97027  12.291   2.545   7.853  0.9240 -0.0564 -0.3837
  704MOL0     C97028  12.446   2.555   7.826  0.3692  0.8877  0.5077
  704MOL0     C97029  12.468   2.664   7.710 -0.0070  0.0724 -0.0830
  704MOL0     C97030  12.448   2.809   7.768 -0.3077  0.0988  0.9649
  704MOL0     N97031  12.572   2.864   7.807  0.5006  0.5686  0.2648
  704MOL0     C97032  12.628   2.964   7.737  0.1107  0.0395 -0.1770
  704MOL0     C97033  12.734   3.003   7.815  0.1733 -0.0777 -0.4383
  704MOL0     C97034  12.826   3.116   7.776 -0.3257 -0.8250  0.0858
  704MOL0     C97035  12.903   3.174   7.901  0.3823 -1.0405 -0.5965
  704MOL0     C97036  12.807   3.245   7.995  0.7740  0.4320  1.2751
  704MOL0     C97037  12.877   3.298   8.115  0.3821  0.8465 -0.8912
  704MOL0     O97038  12.935   3.208   8.205 -0.4084  0.4456 -0.2800
  704MOL0     C97039  12.972   3.244   8.326  0.3295 -0.1310 -0.1075
  704MOL0     C97040  13.010   3.144   8.415 -0.0096  0.0624 -0.3809
  704MOL0     C97041  13.069   3.168   8.536 -0.2503 -0.1600 -0.2821
  704MOL0     C97042  13.119   3.053   8.616  0.4094 -0.1841  0.0957
  704MOL0     C97043  13.091   3.306   8.576 -0.0748 -0.9587 -0.5995
  704MOL0     C97044  13.156   3.344   8.704 -0.2110 -0.3982  0.0114
  704MOL0     O97045  13.194   3.251   8.792 -0.3190 -0.3452 -0.1078
  704MOL0     C97046  13.240   3.292   8.917 -0.0407  0.0352 -0.7053
  704MOL0     C97047  13.377   3.252   8.940  0.2646 -0.1975  0.4503
  704MOL0     C97048  13.430   3.309   9.059 -0.2524 -0.2118  0.7294
  704MOL0     C97049  13.363   3.413   9.132  1.4091 -0.2688 -0.4241
  704MOL0     O97050  13.434   3.488   9.219 -0.4196 -0.2796  0.1587
  704MOL0     C97051  13.550   3.551   9.169 -1.0161  0.0103 -0.7269
  704MOL0     C97052  13.640   3.597   9.280 -0.0750  0.4365 -0.3010
  704MOL0     C97053  13.744   3.697   9.243 -0.9073 -0.3327  1.0418
  704MOL0     C97054  13.695   3.826   9.187 -0.9234 -0.5905 -0.5970
  704MOL0     C97055  13.806   3.927   9.179  0.7998  0.0170 -0.5817
  704MOL0     C97056  13.907   3.907   9.068  0.0405  0.8154 -0.0931
  704MOL0     C97057  13.845   3.908   8.928  0.1035  0.1959 -0.8817
  704MOL0     C97058  13.945   3.954   8.823 -0.0579 -1.0517  0.6193
  704MOL0    Cl97059  13.864   3.996   8.661 -0.3718 -0.0430  0.0753
  704MOL0     C97060  13.228   3.430   9.113  0.0973  0.5066  0.0419
  704MOL0     C97061  13.168   3.372   9.005  0.4928 -0.6216 -0.5776
  704MOL0     O97062  13.190   3.463   8.707 -0.5120  0.3701  0.7212
  704MOL0     C97063  13.050   3.407   8.489 -0.0904 -0.0002  0.5812
  704MOL0     C97064  12.989   3.373   8.371 -0.4188  0.4358 -0.7393
  704MOL0     N97065  12.736   2.915   7.923 -0.0793  0.3352 -0.1090
  704MOL0     N97066  12.627   2.835   7.923 -0.6419  0.7218 -0.5818
  704MOL0     C97067  11.802   1.995   7.888 -0.0397 -0.5992 -0.6497
  704MOL0     C97068  11.668   1.981   7.927 -1.0581 -0.8546 -0.3939
  704MOL0     C97069  11.224   1.884   7.860 -0.3076  1.0905 -0.3162
  704MOL0     C97070  11.174   1.947   7.970 -0.7583 -0.3633  0.9484
  704MOL0     C97071  11.064   1.901   8.033 -0.4566  0.8924  0.0446
  704MOL0     C97072  10.975   1.806   7.972 -0.6252 -0.1167 -0.4328
  704MOL0     O97073  10.862   1.768   8.042  0.0660 -0.0395  0.5470
  704MOL0     C97074  10.772   1.685   7.957  0.0078 -0.1818 -0.7398
  704MOL0     C97075  10.648   1.652   8.036  0.0192  0.7465  0.4377
  704MOL0     C97076  10.570   1.780   8.074 -0.8875  0.1692  0.3226
  704MOL0     C97077  10.444   1.734   8.151  0.6229  0.3283  0.4680
  704MOL0     C97078  10.387   1.858   8.205  1.1946  0.0340  0.4965
  704MOL0     C97079  10.360   1.968   8.247  0.7590  0.5786  0.6131
  704MOL0     C97080  11.024   1.741   7.865 -0.5269 -0.0924  0.7317
  704MOL0     C97081  11.152   1.777   7.810 -0.1873 -0.2214 -0.2146
  704MOL0     C97082  11.190   1.696   7.690 -0.2039  0.5490  0.0579
  704MOL0     H97083  11.515   2.180   7.694  1.4004  0.3290 -1.7792
  704MOL0     H97084  11.740   2.207   7.619 -0.4728  0.4801  0.2627
  704MOL0     H97085  11.981   2.185   7.586 -0.5308  0.2989 -0.7940
  704MOL0     H97086  12.121   2.206   7.675 -0.5736  0.3869 -1.4974
  704MOL0     H97087  11.972   2.415   7.628 -0.6590 -3.8588 -2.8254
  704MOL0     H97088  11.874   2.362   7.762  0.1292  2.3883 -0.4858
  704MOL0     H97089  12.035   2.519   7.845  0.4210  0.1079  2.1670
  704MOL0     H97090  12.082   2.357   7.906  0.6617  0.5078  0.2207
  704MOL0     H97091  12.261   2.363   7.745 -0.0241 -0.3412  2.6481
  704MOL0     H97092  12.197   2.505   7.659  2.1153 -0.3619 -1.3870
  704MOL0     H97093  12.275   2.511   7.955 -0.7070  0.8175 -0.3168
  704MOL0     H97094  12.236   2.638   7.837 -1.8997 -1.8956 -2.3929
  704MOL0     H97095  12.511   2.576   7.911 -1.6463  2.0051  1.8557
  704MOL0     H97096  12.477   2.456   7.790  1.5390  1.2552  0.4711
  704MOL0     H97097  12.393   2.650   7.632 -0.6347  0.6042  0.4127
  704MOL0     H97098  12.566   2.651   7.663  0.4763  0.4017  0.8041
  704MOL0     H97099  12.414   2.870   7.684  0.0559 -0.8357  0.1120
  704MOL0     H97100  12.381   2.809   7.855  0.7889  1.8462  1.8522
  704MOL0     H97101  12.593   3.006   7.644  1.2093 -1.0580 -1.1166
  704MOL0     H97102  12.766   3.191   7.724 -0.2368 -1.1837 -0.5412
  704MOL0     H97103  12.900   3.076   7.707 -1.2232 -1.0419 -0.7710
  704MOL0     H97104  12.937   3.086   7.956  0.4445 -1.3273 -1.0906
  704MOL0     H97105  12.988   3.242   7.886 -0.9079  0.5366 -1.0699
  704MOL0     H97106  12.760   3.325   7.937  0.8643  0.4298  1.1979
  704MOL0     H97107  12.722   3.183   8.024  0.9171 -1.0015 -1.1242
  704MOL0     H97108  12.959   3.357   8.073  1.9975  0.7823  1.9423
  704MOL0     H97109  12.795   3.356   8.159 -1.9454 -2.2315 -0.8084
  704MOL0     H97110  12.992   3.046   8.373 -0.7374  0.4570 -1.0241
  704MOL0     H97111  13.056   3.037   8.704  1.5610 -0.2468  0.9326
  704MOL0     H97112  13.221   3.069   8.654  0.5102 -1.7354  0.5436
  704MOL0     H97113  13.131   2.966   8.550 -1.7582  1.5911 -2.8764
  704MOL0     H97114  13.435   3.187   8.875  0.1347  0.1818 -0.0477
  704MOL0     H97115  13.534   3.281   9.073 -0.5006 -1.5504  0.0295
  704MOL0     H97116  13.611   3.505   9.091  2.3378  4.0732 -0.8975
  704MOL0     H97117  13.515   3.636   9.109  1.7324 -0.1412 -2.7755
  704MOL0     H97118  13.566   3.637   9.349  0.6155  1.4773 -0.1499
  704MOL0     H97119  13.684   3.506   9.321 -3.8447 -0.2756  2.7245
  704MOL0     H97120  13.806   3.651   9.165  0.0722 -2.6817  3.0814
  704MOL0     H97121  13.809   3.701   9.331  1.1826 -4.3600 -0.0557
  704MOL0     H97122  13.633   3.852   9.273  0.1287 -3.1897  1.1050
  704MOL0     H97123  13.636   3.823   9.096  2.7279 -0.2724 -3.1967
  704MOL0     H97124  13.778   4.032   9.167  2.3010  0.9525  2.9104
  704MOL0     H97125  13.855   3.917   9.276  0.8571  1.9084 -0.3688
  704MOL0     H97126  13.953   3.812   9.097  0.0151  1.3164  1.7154
  704MOL0     H97127  13.981   3.988   9.069 -0.7362  1.5568 -1.3180
  704MOL0     H97128  13.756   3.972   8.917 -0.2343 -0.1107 -0.0333
  704MOL0     H97129  13.801   3.811   8.903 -3.8391  2.0975 -2.2968
  704MOL0     H97130  14.025   3.884   8.796  1.6347  1.2090 -0.6452
  704MOL0     H97131  13.987   4.047   8.863 -3.8875  1.2251 -0.0773
  704MOL0     H97132  13.167   3.496   9.175  1.8292 -1.8437  4.7561
  704MOL0     H97133  13.062   3.387   8.994  0.2488  0.2536  2.1103
  704MOL0     H97134  13.057   3.510   8.521  0.7688 -0.7990  3.2357
  704MOL0     H97135  12.948   3.455   8.311  0.0492  2.1597  1.1936
  704MOL0     H97136  11.883   1.977   7.958 -0.1280 -0.1048 -0.4131
  704MOL0     H97137  11.625   1.922   8.007 -2.0842 -1.0809 -1.0933
  704MOL0     H97138  11.223   2.032   8.017 -2.3555 -0.4057  2.8383
  704MOL0     H97139  11.034   1.955   8.122 -0.9689  1.7302 -0.6217
  704MOL0     H97140  10.735   1.733   7.865 -2.0040 -0.6381 -0.2285
  704MOL0     H97141  10.813   1.588   7.929  1.5618 -0.7052  2.8904
  704MOL0     H97142  10.684   1.597   8.123 -3.0650 -0.4966  1.0910
  704MOL0     H97143  10.581   1.582   7.985 -2.0632  0.0580  3.7672
  704MOL0     H97144  10.624   1.852   8.137 -1.3999 -0.3178  1.3466
  704MOL0     H97145  10.545   1.835   7.983  2.5279  0.3852 -0.6374
  704MOL0     H97146  10.457   1.682   8.246 -2.3381  2.0907  2.0016
  704MOL0     H97147  10.367   1.687   8.088 -0.6001  2.1812  0.4834
  704MOL0     H97148  10.342   2.067   8.286 -2.2886 -1.0315  3.8806
  704MOL0     H97149  10.977   1.658   7.813  3.5476 -1.7964 -0.6891
  704MOL0     H97150  11.160   1.590   7.692  4.7030 -1.2283 -2.4096
  704MOL0     H97151  11.168   1.733   7.590  0.8519 -0.7177 -0.6841
  704MOL0     H97152  11.299   1.681   7.693 -0.0708 -1.5175 -4.8361
  705MOL0     O97153   2.033   1.218   5.871 -0.1611  1.2436  0.1096
  705MOL0     C97154   1.957   1.141   5.935 -0.0695 -0.4156  0.2759
  705MOL0     O97155   1.824   1.156   5.946 -0.5435 -0.1359 -0.0519
  705MOL0     C97156   1.779   1.255   5.866 -0.7065 -0.0295 -0.6950
  705MOL0     C97157   1.719   1.225   5.749 -0.0266  0.4541  0.4539
  705MOL0     C97158   1.668   1.325   5.663  0.3249 -0.5654  0.1070
  705MOL0     C97159   1.680   1.458   5.702 -0.6948 -0.7752  0.2128
  705MOL0     O97160   1.625   1.565   5.636 -0.2644  0.3117 -0.3039
  705MOL0     C97161   1.578   1.549   5.500 -0.2338  1.0288 -0.7037
  705MOL0     C97162   1.683   1.542   5.396 -0.3622  0.1062 -0.1637
  705MOL0     C97163   1.658   1.453   5.274  0.1595 -0.7684  0.0695
  705MOL0     C97164   1.767   1.491   5.172 -0.9643  0.1521 -0.4257
  705MOL0     C97165   1.872   1.380   5.167 -0.2394  0.4446  0.4111
  705MOL0     C97166   1.949   1.350   5.293 -0.2409 -1.2156  0.2911
  705MOL0     C97167   2.063   1.434   5.328 -0.2261 -0.8169 -0.0877
  705MOL0     C97168   2.131   1.380   5.452  0.7393  0.6351  0.1693
  705MOL0     N97169   2.253   1.457   5.466  0.0765  0.1379 -0.3522
  705MOL0     C97170   2.266   1.590   5.510 -0.2881  0.0960  0.6321
  705MOL0     C97171   2.404   1.609   5.509 -0.0157  0.8277  0.3800
  705MOL0     C97172   2.474   1.741   5.537  0.1366  1.3369 -0.1842
  705MOL0     C97173   2.458   1.841   5.415  0.2830  0.6003  0.1438
  705MOL0     C97174   2.556   1.818   5.303  0.0450 -1.4359 -0.2415
  705MOL0     C97175   2.507   1.729   5.187 -0.5092  0.2835 -1.1611
  705MOL0     O97176   2.443   1.818   5.110  0.7356 -0.3573  0.0870
  705MOL0     C97177   2.387   1.759   5.000  0.4876  0.1935 -0.1718
  705MOL0     C97178   2.260   1.709   5.003 -0.1999 -0.7088  0.0690
  705MOL0     C97179   2.218   1.634   4.887  0.4185 -0.1489 -0.0217
  705MOL0     C97180   2.074   1.576   4.894 -0.7650 -0.1222  0.2790
  705MOL0     C97181   2.294   1.640   4.766  0.6963 -0.8918  0.2863
  705MOL0     C97182   2.271   1.567   4.646 -0.0969 -0.2136  1.6174
  705MOL0     O97183   2.349   1.605   4.536 -0.7438 -0.4508  0.2463
  705MOL0     C97184   2.376   1.515   4.436 -0.5771  0.0988  0.3579
  705MOL0     C97185   2.401   1.376   4.452  0.1604  0.3062  0.0005
  705MOL0     C97186   2.424   1.289   4.345  0.0967 -1.0961  0.7171
  705MOL0     C97187   2.420   1.339   4.212  0.6657  0.0214  0.0502
  705MOL0     O97188   2.443   1.258   4.109  0.9906 -0.6365 -0.2240
  705MOL0     C97189   2.382   1.286   3.982 -1.2395  0.1601  0.2988
  705MOL0     C97190   2.245   1.244   3.950  0.3447 -0.7748  0.3477
  705MOL0     C97191   2.211   1.240   3.797 -0.4758  0.2671 -0.8105
  705MOL0     C97192   2.069   1.204   3.780  0.5691 -0.3625 -1.0619
  705MOL0     C97193   2.038   1.175   3.631  0.4934  0.9087  0.1604
  705MOL0     C97194   1.887   1.174   3.587 -0.7569  0.1208  0.4975
  705MOL0     C97195   1.880   1.168   3.438 -0.1368 -0.8363 -0.2552
  705MOL0     C97196   1.901   1.022   3.380 -0.3276  0.4714  0.7402
  705MOL0    Cl97197   1.739   0.928   3.381 -0.1635  0.0362  0.3917
  705MOL0     C97198   2.406   1.473   4.200  0.1195  0.0729 -0.0788
  705MOL0     C97199   2.388   1.563   4.307  0.3947 -0.1232  0.7722
  705MOL0     O97200   2.206   1.467   4.646  0.9611 -0.3307  0.1349
  705MOL0     C97201   2.419   1.702   4.771 -0.2860  0.4153  0.3452
  705MOL0     C97202   2.461   1.766   4.878 -0.0691 -0.5579 -0.1403
  705MOL0     N97203   2.461   1.490   5.472 -0.2824 -0.1246  0.4298
  705MOL0     N97204   2.375   1.403   5.443 -0.1324  0.3966  0.2749
  705MOL0     C97205   1.741   1.488   5.821 -0.4773  0.1913  0.0490
  705MOL0     C97206   1.792   1.386   5.904 -0.1919  0.5472 -0.9834
  705MOL0     C97207   2.014   1.032   6.020 -0.3540 -1.0970 -0.4508
  705MOL0     C97208   1.959   0.907   6.003  1.0591  1.0268  0.6185
  705MOL0     C97209   2.008   0.794   6.070 -0.0867  0.2027 -0.6681
  705MOL0     C97210   2.119   0.807   6.158 -0.1632 -0.2026  0.4249
  705MOL0     O97211   2.155   0.683   6.214  0.2602 -0.8021 -0.3885
  705MOL0     C97212   2.272   0.625   6.163  0.1181  0.2204  0.0039
  705MOL0     C97213   2.213   0.491   6.133 -1.1264  0.9450  0.0995
  705MOL0     C97214   2.302   0.381   6.086 -0.3251 -0.0933  0.1771
  705MOL0     C97215   2.403   0.321   6.191 -0.3883 -0.7296 -0.0778
  705MOL0     C97216   2.345   0.266   6.312 -0.6777  0.0649  0.2603
  705MOL0     C97217   2.293   0.214   6.406 -0.2740 -0.2147 -0.6816
  705MOL0     C97218   2.173   0.931   6.177  0.6697  0.3339 -0.1604
  705MOL0     C97219   2.122   1.039   6.113  0.8134 -0.3762  0.0541
  705MOL0     C97220   2.188   1.170   6.135 -0.6121 -0.2409  0.6106
  705MOL0     H97221   1.707   1.122   5.716  1.2311  0.0853  1.0824
  705MOL0     H97222   1.624   1.292   5.570 -0.5604 -0.3723  0.4479
  705MOL0     H97223   1.508   1.632   5.487 -0.9182  0.8058  1.1303
  705MOL0     H97224   1.524   1.454   5.485 -0.0916  1.1533 -2.0760
  705MOL0     H97225   1.688   1.647   5.365  1.7694  0.6573  1.7840
  705MOL0     H97226   1.775   1.520   5.450 -0.6410  4.2565  2.5195
  705MOL0     H97227   1.664   1.350   5.309 -2.0445 -0.2338  2.3643
  705MOL0     H97228   1.563   1.477   5.226  0.3969  0.3558  0.1176
  705MOL0     H97229   1.721   1.497   5.073 -1.4767 -0.2121 -0.2156
  705MOL0     H97230   1.818   1.584   5.200 -2.1348  0.2772  1.5583
  705MOL0     H97231   1.951   1.393   5.092 -2.6233 -2.5866 -3.0169
  705MOL0     H97232   1.812   1.295   5.131 -0.7872  2.0892 -2.9825
  705MOL0     H97233   1.887   1.342   5.383  0.4312  0.0070  0.8974
  705MOL0     H97234   1.991   1.252   5.272 -0.3593 -0.8193 -2.0890
  705MOL0     H97235   2.041   1.539   5.348  3.3276 -0.0396  0.3347
  705MOL0     H97236   2.132   1.431   5.243 -1.4530  2.4123 -1.3465
  705MOL0     H97237   2.072   1.375   5.544  2.7914 -1.6814  1.4824
  705MOL0     H97238   2.162   1.278   5.427 -1.1361 -0.2666  1.3446
  705MOL0     H97239   2.184   1.658   5.536 -0.4505 -0.0134  0.4060
  705MOL0     H97240   2.579   1.727   5.561 -0.5951  0.1298  2.7226
  705MOL0     H97241   2.422   1.781   5.625  0.7924 -1.3953  1.5585
  705MOL0     H97242   2.359   1.838   5.370  0.3006  1.4598  0.0386
  705MOL0     H97243   2.483   1.939   5.456  1.3088 -0.3508  1.9542
  705MOL0     H97244   2.594   1.912   5.264 -2.3962  0.4132  1.5472
  705MOL0     H97245   2.648   1.773   5.341  0.5063 -2.1374 -2.0667
  705MOL0     H97246   2.590   1.697   5.124 -0.6059  0.9911 -1.6634
  705MOL0     H97247   2.457   1.641   5.229  0.0884 -0.1372 -1.3256
  705MOL0     H97248   2.211   1.721   5.098 -1.3476 -0.8332 -0.4908
  705MOL0     H97249   2.083   1.468   4.908  1.6300 -0.1931 -1.2262
  705MOL0     H97250   2.017   1.593   4.802  0.8424 -0.5932 -0.8439
  705MOL0     H97251   2.018   1.612   4.981  1.8194  1.2461  1.5068
  705MOL0     H97252   2.388   1.334   4.552 -1.4408 -2.6215 -1.2975
  705MOL0     H97253   2.427   1.181   4.354 -1.9024 -1.4659 -1.8742
  705MOL0     H97254   2.404   1.387   3.947 -1.3336  1.0030  2.5111
  705MOL0     H97255   2.448   1.229   3.916  2.3124  4.8774 -0.8106
  705MOL0     H97256   2.206   1.163   4.012 -1.8633 -0.8302 -1.0073
  705MOL0     H97257   2.183   1.328   3.982  0.5775  0.3331 -1.9272
  705MOL0     H97258   2.280   1.171   3.747  0.9555 -0.0357  1.4834
  705MOL0     H97259   2.236   1.340   3.761 -0.7441 -0.2339 -2.5284
  705MOL0     H97260   2.015   1.287   3.827  0.7075 -0.1397 -1.2971
  705MOL0     H97261   2.042   1.121   3.846 -0.2506  1.5083  1.0933
  705MOL0     H97262   2.089   1.242   3.562 -0.6300  0.3387 -1.2554
  705MOL0     H97263   2.071   1.073   3.609 -1.4305  0.6632 -1.8692
  705MOL0     H97264   1.839   1.267   3.618 -1.1063 -0.0460  0.4611
  705MOL0     H97265   1.841   1.089   3.638 -2.2198  1.2416  1.1187
  705MOL0     H97266   1.962   1.233   3.406  0.7354  0.5787  4.1726
  705MOL0     H97267   1.786   1.217   3.410  0.0777 -0.3721 -0.1713
  705MOL0     H97268   1.975   0.965   3.438 -0.7637 -0.0828  0.7668
  705MOL0     H97269   1.935   1.025   3.276 -0.8228 -1.1393  0.5049
  705MOL0     H97270   2.393   1.524   4.105 -0.9523  1.9106  0.9966
  705MOL0     H97271   2.375   1.668   4.284  0.7983 -0.4943 -1.3809
  705MOL0     H97272   2.494   1.704   4.692  1.3821  0.3049  1.8833
  705MOL0     H97273   2.547   1.832   4.876 -1.5016  1.6447  3.3221
  705MOL0     H97274   1.752   1.595   5.832 -0.4170  0.2878 -0.8935
  705MOL0     H97275   1.848   1.413   5.993 -1.9787 -0.2947  0.4671
  705MOL0     H97276   1.871   0.893   5.941  2.0398 -1.0012 -0.4055
  705MOL0     H97277   1.968   0.695   6.050  2.8267 -1.3210  0.4444
  705MOL0     H97278   2.302   0.668   6.066 -1.2033  3.8754  1.0325
  705MOL0     H97279   2.352   0.628   6.237 -2.3145 -0.8472  2.8358
  705MOL0     H97280   2.132   0.493   6.059  0.1662  0.2534 -1.3819
  705MOL0     H97281   2.162   0.456   6.224 -0.3822  1.8114  0.8709
  705MOL0     H97282   2.247   0.303   6.032 -0.2155  0.4091 -0.6914
  705MOL0     H97283   2.358   0.429   6.005 -2.3897  0.9784 -0.6991
  705MOL0     H97284   2.477   0.396   6.221 -1.2514  0.1135 -0.0099
  705MOL0     H97285   2.463   0.241   6.147 -0.8414 -1.8240  1.2237
  705MOL0     H97286   2.246   0.163   6.488  1.2846  1.7044  1.5366
  705MOL0     H97287   2.254   0.941   6.250  0.1729 -1.0388  0.6110
  705MOL0     H97288   2.270   1.165   6.063  0.3284 -0.6303  1.6827
  705MOL0     H97289   2.127   1.258   6.112 -2.7542 -1.0846  2.6621
  705MOL0     H97290   2.230   1.184   6.235 -0.8016  0.1742  0.6332
  706MOL0     O97291   5.151   2.243  10.118  0.1583  0.7155  0.1120
  706MOL0     C97292   5.222   2.181  10.040  0.3719  1.1394 -0.8616
  706MOL0     O97293   5.334   2.243   9.980  0.6050  0.7052  0.3489
  706MOL0     C97294   5.357   2.382   9.996 -1.1880  0.3939 -0.4833
  706MOL0     C97295   5.471   2.424  10.063  0.1056 -0.0470  0.4144
  706MOL0     C97296   5.499   2.563  10.080  0.0778 -0.4185 -0.7118
  706MOL0     C97297   5.400   2.660  10.058 -0.3263  0.2075 -0.1640
  706MOL0     O97298   5.411   2.795  10.081 -0.0843  0.1471 -0.5016
  706MOL0     C97299   5.546   2.846  10.096 -0.6491 -0.1713 -0.2711
  706MOL0     C97300   5.536   3.000  10.101 -0.8805  0.8856  0.0968
  706MOL0     C97301   5.631   3.079  10.015  0.8924  0.6414  0.0450
  706MOL0     C97302   5.756   3.132  10.098  0.5623  0.6991  0.6658
  706MOL0     C97303   5.866   3.165   9.993 -0.2154 -0.3891 -0.3408
  706MOL0     C97304   5.982   3.248  10.064  0.6995  0.0307 -0.2655
  706MOL0     C97305   6.101   3.266   9.976  0.3493 -0.1158  0.1708
  706MOL0     C97306   6.193   3.380  10.014 -0.1253  0.0677  0.5749
  706MOL0     N97307   6.261   3.366  10.139  0.4128 -0.3750  0.4827
  706MOL0     C97308   6.324   3.251  10.185  0.0878 -0.4273 -0.3823
  706MOL0     C97309   6.391   3.291  10.295  0.6352 -1.6179  0.0546
  706MOL0     C97310   6.478   3.205  10.380 -0.4051 -0.0579  1.1581
  706MOL0     C97311   6.623   3.252  10.371 -1.2568 -0.0075  0.2654
  706MOL0     C97312   6.702   3.180  10.478 -0.3348 -0.9747 -0.0008
  706MOL0     C97313   6.853   3.211  10.465 -0.3179  0.0596 -0.1239
  706MOL0     O97314   6.922   3.118  10.549 -0.4183  0.6240  0.3587
  706MOL0     C97315   7.058   3.158  10.582 -0.3409 -0.6566  0.9119
  706MOL0     C97316   7.114   3.082  10.690  0.1224 -0.1964  0.2201
  706MOL0     C97317   7.243   3.101  10.743  0.2338 -0.4246  0.9536
  706MOL0     C97318   7.281   3.032  10.871 -0.7492 -1.0091 -0.8068
  706MOL0     C97319   7.314   3.200  10.677 -0.0067  0.7284 -0.7253
  706MOL0     C97320   7.457   3.226  10.717  0.3764 -0.4141  0.6387
  706MOL0     O97321   7.498   3.352  10.694 -0.1092  0.4723  0.3855
  706MOL0     C97322   7.619   3.386  10.749  0.1265 -1.1695  1.7885
  706MOL0     C97323   7.732   3.393  10.665 -0.8380 -0.3897  0.1250
  706MOL0     C97324   7.859   3.429  10.722 -0.2847 -0.0884  0.5821
  706MOL0     C97325   7.872   3.452  10.858  0.3606  0.5322 -0.3547
  706MOL0     O97326   8.005   3.467  10.905  0.7432  0.5258 -0.6367
  706MOL0     C97327   8.044   3.429  11.036  0.0065 -0.3743  0.2904
  706MOL0     C97328   8.198   3.407  11.044  0.1525 -0.0838  0.3226
  706MOL0     C97329   8.266   3.540  11.005  1.0084 -0.1346  0.5530
  706MOL0     C97330   8.417   3.532  11.005 -0.7678  0.2310  0.4071
  706MOL0     C97331   8.478   3.642  10.921  0.4756  0.1926  0.2794
  706MOL0     C97332   8.627   3.671  10.951  0.2351  0.7482  0.2008
  706MOL0     C97333   8.724   3.558  10.919  1.1923  0.0250  0.3203
  706MOL0     C97334   8.852   3.576  10.994 -0.5317 -0.4167  0.0365
  706MOL0    Cl97335   8.813   3.545  11.167 -0.5342 -0.2389 -0.3482
  706MOL0     C97336   7.757   3.446  10.935 -0.5366  0.1201 -0.5594
  706MOL0     C97337   7.637   3.410  10.883 -0.0613  1.0908  0.0779
  706MOL0     O97338   7.531   3.136  10.744 -0.3173  0.2618 -1.0665
  706MOL0     C97339   7.268   3.266  10.560 -0.3669  0.3783  0.6376
  706MOL0     C97340   7.131   3.264  10.518  0.5257  0.7752 -0.5038
  706MOL0     N97341   6.367   3.429  10.306 -0.1761 -0.4035 -0.1718
  706MOL0     N97342   6.296   3.475  10.212  0.1262  0.7000 -0.6813
  706MOL0     C97343   5.281   2.613   9.980  0.0067 -0.2813  0.5117
  706MOL0     C97344   5.267   2.474   9.954 -0.3023 -0.5260 -0.6739
  706MOL0     C97345   5.197   2.036  10.021  0.1428  0.2061  0.7586
  706MOL0     C97346   5.152   1.959  10.128  0.6859  0.3347  0.3835
  706MOL0     C97347   5.119   1.820  10.101  0.0879 -0.4009 -1.0517
  706MOL0     C97348   5.143   1.765   9.977 -0.4222  0.0991 -1.4221
  706MOL0     O97349   5.127   1.629   9.969 -0.7913  0.5529  0.6284
  706MOL0     C97350   5.252   1.558   9.956  0.1132  1.0816  0.1856
  706MOL0     C97351   5.335   1.563  10.082 -0.2191 -0.4203 -0.2146
  706MOL0     C97352   5.457   1.475  10.074  0.8345 -0.2319  0.5582
  706MOL0     C97353   5.428   1.328  10.051  0.5399  0.3878 -0.5575
  706MOL0     C97354   5.562   1.271  10.041  0.7860 -0.4081  0.1789
  706MOL0     C97355   5.675   1.249  10.031 -0.9458  0.5359  0.6965
  706MOL0     C97356   5.185   1.835   9.873 -0.2636 -0.0875 -0.5474
  706MOL0     C97357   5.207   1.976   9.893 -0.5661  0.0175  0.6210
  706MOL0     C97358   5.216   2.054   9.749 -0.9520  0.8689 -0.9214
  706MOL0     H97359   5.545   2.347  10.084  0.0299 -0.7416 -1.6045
  706MOL0     H97360   5.599   2.592  10.112  0.7238 -3.1725  0.0220
  706MOL0     H97361   5.606   2.821  10.008 -0.3198 -0.9242  0.1584
  706MOL0     H97362   5.596   2.796  10.179 -1.3089 -1.7095 -0.7480
  706MOL0     H97363   5.435   3.012  10.062 -1.0199 -0.4934 -0.0112
  706MOL0     H97364   5.528   3.038  10.203 -2.7352  2.3231 -0.5277
  706MOL0     H97365   5.664   3.023   9.926 -0.8701  3.3148 -2.4835
  706MOL0     H97366   5.573   3.161   9.973  0.6441 -0.7710 -2.5805
  706MOL0     H97367   5.718   3.218  10.153 -1.3329  0.7796 -0.6462
  706MOL0     H97368   5.793   3.067  10.177 -1.1974  0.2925  1.2018
  706MOL0     H97369   5.824   3.225   9.912  1.7651 -1.1014 -1.9787
  706MOL0     H97370   5.900   3.073   9.944 -4.7123 -2.8498  0.6020
  706MOL0     H97371   5.925   3.338  10.090 -1.7619 -1.5393  0.0776
  706MOL0     H97372   6.013   3.196  10.155 -0.6655  1.1252  0.8569
  706MOL0     H97373   6.070   3.294   9.875  2.1156 -2.4726 -1.0998
  706MOL0     H97374   6.163   3.177   9.968  2.0448  0.7652  2.4608
  706MOL0     H97375   6.276   3.396   9.945 -1.7128  0.6376 -1.2982
  706MOL0     H97376   6.134   3.472  10.013 -1.5257 -0.7445  2.0747
  706MOL0     H97377   6.313   3.149  10.149 -1.0880 -1.6750  3.1335
  706MOL0     H97378   6.473   3.099  10.352  0.7156  0.6711 -2.1658
  706MOL0     H97379   6.430   3.204  10.479  0.3842 -3.3365  1.6390
  706MOL0     H97380   6.664   3.251  10.270  1.4179  0.0340  1.2789
  706MOL0     H97381   6.627   3.358  10.395 -1.0876 -0.4059  2.1504
  706MOL0     H97382   6.662   3.208  10.576  2.3907 -2.0320  1.4985
  706MOL0     H97383   6.694   3.072  10.463  2.5020 -0.8803 -3.3607
  706MOL0     H97384   6.892   3.186  10.366  3.3699  4.0414  0.0347
  706MOL0     H97385   6.882   3.317  10.473 -0.4666 -0.0021  1.6448
  706MOL0     H97386   7.058   2.997  10.727 -1.4958  0.8935  0.3631
  706MOL0     H97387   7.301   3.099  10.956 -0.6407 -5.1436  2.7764
  706MOL0     H97388   7.364   2.970  10.836 -1.7782 -3.0105  0.1058
  706MOL0     H97389   7.207   2.962  10.912  2.2198 -3.4223  0.8529
  706MOL0     H97390   7.728   3.372  10.559  1.8658 -1.9731  0.2300
  706MOL0     H97391   7.941   3.451  10.655 -0.4538  0.0925  0.4315
  706MOL0     H97392   8.016   3.512  11.101 -3.5710 -1.7714  0.7990
  706MOL0     H97393   7.989   3.340  11.069  1.1830 -0.2414  2.8352
  706MOL0     H97394   8.233   3.370  11.141  1.7320 -1.8400 -0.8429
  706MOL0     H97395   8.221   3.330  10.970  2.6514 -0.2075  1.1626
  706MOL0     H97396   8.223   3.624  11.060 -0.3993  0.8366 -1.8248
  706MOL0     H97397   8.235   3.557  10.901  3.3707 -0.1531 -0.2209
  706MOL0     H97398   8.459   3.443  10.958  0.6089 -0.0453  2.0357
  706MOL0     H97399   8.446   3.535  11.111  0.7930 -0.1430  0.0185
  706MOL0     H97400   8.465   3.634  10.812  4.0889  1.5578 -0.3842
  706MOL0     H97401   8.421   3.734  10.930  2.2704  1.4194 -0.3274
  706MOL0     H97402   8.630   3.701  11.056 -1.9316  1.6421  0.0460
  706MOL0     H97403   8.655   3.755  10.888 -1.6507  0.7102 -0.7343
  706MOL0     H97404   8.730   3.550  10.810  0.0774  2.5436  0.0213
  706MOL0     H97405   8.686   3.462  10.957  2.5823 -0.9373 -0.6173
  706MOL0     H97406   8.889   3.679  10.982 -0.3026 -0.2703  1.7759
  706MOL0     H97407   8.927   3.514  10.944 -0.7752 -0.4248 -0.3175
  706MOL0     H97408   7.768   3.454  11.043  2.8032 -1.3340 -0.6778
  706MOL0     H97409   7.560   3.382  10.954 -0.6078  1.5359 -0.3302
  706MOL0     H97410   7.350   3.323  10.518 -0.6998  0.4028 -0.0031
  706MOL0     H97411   7.094   3.338  10.447 -0.5904  1.9414  1.1934
  706MOL0     H97412   5.208   2.690   9.961  0.7697 -0.0727 -1.9514
  706MOL0     H97413   5.192   2.430   9.889 -2.0043 -1.3185  1.6691
  706MOL0     H97414   5.136   2.000  10.228  0.8448  0.9234  0.1721
  706MOL0     H97415   5.084   1.749  10.175 -4.0971 -0.2779 -2.6716
  706MOL0     H97416   5.216   1.455   9.943  1.5901  0.3796  1.3422
  706MOL0     H97417   5.302   1.576   9.861  4.0297  0.3286  1.8965
  706MOL0     H97418   5.274   1.529  10.166  0.0354 -0.3703 -0.0078
  706MOL0     H97419   5.366   1.667  10.102  0.1664 -0.2660 -1.5425
  706MOL0     H97420   5.510   1.521   9.990 -1.7717  0.8930 -0.5970
  706MOL0     H97421   5.516   1.487  10.165  1.2748  1.0796  0.1293
  706MOL0     H97422   5.390   1.312   9.949  0.5941  0.6491 -0.6179
  706MOL0     H97423   5.375   1.292  10.140 -0.4142  2.9858  0.0021
  706MOL0     H97424   5.782   1.242  10.040 -1.1273 -2.0152  1.5710
  706MOL0     H97425   5.200   1.793   9.774  2.9829  0.1386 -0.2699
  706MOL0     H97426   5.302   2.121   9.751 -0.8715  0.7427 -0.0450
  706MOL0     H97427   5.213   1.980   9.668  0.5462  1.4866 -1.5708
  706MOL0     H97428   5.126   2.117   9.744 -1.7439 -0.0994  0.3439
  707MOL0     O97429  11.355  10.597   5.194  0.4310 -0.2536  0.4916
  707MOL0     C97430  11.343  10.546   5.083 -0.5593 -0.3192 -0.3694
  707MOL0     O97431  11.399  10.582   4.971 -0.4994  0.5972 -0.1548
  707MOL0     C97432  11.471  10.702   4.964 -0.4754  0.5702  1.1290
  707MOL0     C97433  11.414  10.806   4.883  0.5376 -0.1127  0.2174
  707MOL0     C97434  11.480  10.927   4.864 -0.3393 -0.1057  0.1906
  707MOL0     C97435  11.598  10.953   4.932  0.0583 -0.1194  0.2817
  707MOL0     O97436  11.668  11.070   4.911 -0.0720  0.0238  0.3604
  707MOL0     C97437  11.724  11.077   4.777 -0.1358  0.5171 -0.2056
  707MOL0     C97438  11.834  10.974   4.753  0.5329  0.2471  0.3300
  707MOL0     C97439  11.961  10.984   4.837  0.2359  0.4652 -0.1247
  707MOL0     C97440  12.059  11.100   4.802 -0.4401  0.1601  1.0905
  707MOL0     C97441  12.205  11.084   4.844  0.0010  0.9590 -0.1098
  707MOL0     C97442  12.272  11.207   4.790 -0.2230 -0.6645  0.2975
  707MOL0     C97443  12.420  11.174   4.782 -0.6080 -0.2335 -0.2160
  707MOL0     C97444  12.501  11.300   4.748  1.2221  0.7301 -0.0639
  707MOL0     N97445  12.549  11.371   4.867 -0.1714 -0.1869 -0.5746
  707MOL0     C97446  12.503  11.368   4.999  0.2818 -0.0387  0.2982
  707MOL0     C97447  12.594  11.437   5.065 -0.4114 -0.0502 -0.4300
  707MOL0     C97448  12.588  11.434   5.222 -0.3785 -0.2623 -1.7584
  707MOL0     C97449  12.506  11.560   5.268  0.1919  0.0227  0.1924
  707MOL0     C97450  12.482  11.571   5.418  0.3306 -0.4620  0.4500
  707MOL0     C97451  12.370  11.675   5.445 -0.8677 -0.2644  0.0755
  707MOL0     O97452  12.237  11.639   5.397 -0.3577 -0.3248  0.2387
  707MOL0     C97453  12.125  11.700   5.449 -0.0966 -0.2151  0.8002
  707MOL0     C97454  11.996  11.646   5.446  0.3966  0.2555 -0.2385
  707MOL0     C97455  11.885  11.702   5.518 -0.4183 -0.0617 -0.0533
  707MOL0     C97456  11.758  11.627   5.527  0.7928  0.7845 -0.0437
  707MOL0     C97457  11.902  11.831   5.571  0.5889  1.5395 -0.9505
  707MOL0     C97458  11.796  11.897   5.640  0.2075 -0.9520  0.0344
  707MOL0     O97459  11.767  12.032   5.597 -0.3395 -0.5600  0.0833
  707MOL0     C97460  11.644  12.075   5.645 -0.9114 -0.8915  0.5492
  707MOL0     C97461  11.634  12.162   5.756 -0.4844 -0.8054  0.0325
  707MOL0     C97462  11.509  12.214   5.786  0.1893 -0.2759 -1.0447
  707MOL0     C97463  11.392  12.175   5.718  0.9969  0.2334  0.0800
  707MOL0     O97464  11.260  12.212   5.737 -0.6716  0.1269 -0.1399
  707MOL0     C97465  11.223  12.262   5.869  0.0732  0.4496  0.0878
  707MOL0     C97466  11.073  12.266   5.881  0.0042 -0.4897  0.6136
  707MOL0     C97467  11.001  12.126   5.895  1.0997  0.2484  0.4481
  707MOL0     C97468  11.007  12.066   6.033  0.1024 -0.3194  0.0546
  707MOL0     C97469  10.939  11.934   6.019  0.0694  0.0417 -0.3070
  707MOL0     C97470  10.930  11.861   6.152  0.7023  1.4332 -0.4054
  707MOL0     C97471  10.916  11.706   6.140  1.0938  0.6544 -0.1890
  707MOL0     C97472  10.776  11.689   6.101 -0.4992  0.2880 -0.3082
  707MOL0    Cl97473  10.743  11.513   6.109  0.3604  0.0859  0.2568
  707MOL0     C97474  11.405  12.083   5.615 -0.4630  0.2617  0.0604
  707MOL0     C97475  11.528  12.037   5.571  0.0018 -1.0920 -0.0741
  707MOL0     O97476  11.743  11.841   5.732 -0.0466  0.7847 -0.2627
  707MOL0     C97477  12.028  11.897   5.559  0.4876  0.0688  0.8511
  707MOL0     C97478  12.129  11.829   5.495 -0.1995 -0.6970 -0.6748
  707MOL0     N97479  12.688  11.488   4.979  0.1600 -0.0329 -0.0610
  707MOL0     N97480  12.657  11.452   4.862 -0.7242 -0.8084  0.1195
  707MOL0     C97481  11.646  10.857   5.024  0.2730 -0.0274 -0.5721
  707MOL0     C97482  11.589  10.736   5.032  1.0386  0.1360  0.6841
  707MOL0     C97483  11.269  10.413   5.073 -0.5977 -0.0611  0.4395
  707MOL0     C97484  11.331  10.303   5.002  0.3340 -0.2586  0.2267
  707MOL0     C97485  11.266  10.183   4.998  0.0530  0.5217 -0.1351
  707MOL0     C97486  11.148  10.156   5.062  0.7772  0.3796  0.3482
  707MOL0     O97487  11.092  10.030   5.041  0.0855  0.2721  0.0076
  707MOL0     C97488  11.005   9.968   5.138 -0.6417 -0.0907 -0.7284
  707MOL0     C97489  11.099   9.887   5.229  0.0342 -0.2023 -0.3746
  707MOL0     C97490  11.036   9.817   5.334  0.3065  0.5058 -1.2578
  707MOL0     C97491  11.119   9.693   5.384 -0.6658 -1.6715  0.1480
  707MOL0     C97492  11.088   9.644   5.518 -0.3249 -0.7668 -0.9932
  707MOL0     C97493  11.089   9.612   5.642  0.2843  0.2327  1.0362
  707MOL0     C97494  11.097  10.261   5.152 -0.3966  0.8393 -0.0817
  707MOL0     C97495  11.163  10.384   5.159  0.7864 -0.1301 -0.2158
  707MOL0     C97496  11.099  10.482   5.248  0.4723  0.1080  0.1875
  707MOL0     H97497  11.321  10.766   4.842  1.3413 -2.8766  0.8625
  707MOL0     H97498  11.442  10.996   4.789  3.6632  2.2205  0.0665
  707MOL0     H97499  11.769  11.174   4.752  1.2261 -0.4497 -1.7017
  707MOL0     H97500  11.649  11.071   4.697  0.2931  3.1072 -0.8892
  707MOL0     H97501  11.792  10.873   4.760 -0.8032  0.8280  1.0198
  707MOL0     H97502  11.866  10.990   4.649 -0.4585  0.5068  0.0594
  707MOL0     H97503  11.934  10.981   4.943 -2.1928 -0.3789 -0.7043
  707MOL0     H97504  12.016  10.893   4.814 -1.3181 -0.3354 -0.8376
  707MOL0     H97505  12.057  11.129   4.696 -2.8698  0.5227  1.1747
  707MOL0     H97506  12.019  11.186   4.857 -0.2962  0.7922  0.2350
  707MOL0     H97507  12.246  10.991   4.805  0.4444  0.8244  0.6426
  707MOL0     H97508  12.230  11.072   4.950  3.2991 -2.2938 -1.0444
  707MOL0     H97509  12.237  11.232   4.689  2.2435 -0.0361 -0.4709
  707MOL0     H97510  12.257  11.283   4.867  0.0821  0.1742 -0.4533
  707MOL0     H97511  12.429  11.116   4.690  0.3033  1.5208 -1.2819
  707MOL0     H97512  12.470  11.117   4.861 -0.6193  0.4965  0.3316
  707MOL0     H97513  12.596  11.282   4.696  1.0797 -0.3914  0.0403
  707MOL0     H97514  12.442  11.372   4.690  0.0998  0.8195  1.1372
  707MOL0     H97515  12.416  11.308   5.026 -0.0157  0.3609  0.2286
  707MOL0     H97516  12.689  11.451   5.263 -0.2260  0.2181 -2.3240
  707MOL0     H97517  12.546  11.340   5.258  0.1484  0.4168  0.8888
  707MOL0     H97518  12.556  11.653   5.242 -0.6129 -0.3383 -3.0643
  707MOL0     H97519  12.409  11.554   5.217  0.7641  0.0233 -0.9116
  707MOL0     H97520  12.450  11.478   5.467  1.1561  0.8563  3.7727
  707MOL0     H97521  12.577  11.598   5.464  2.0923 -1.2444 -2.4659
  707MOL0     H97522  12.373  11.704   5.551 -0.0879 -1.7757  0.4838
  707MOL0     H97523  12.394  11.771   5.398 -1.4345 -0.0728  0.1648
  707MOL0     H97524  11.978  11.549   5.402 -1.2940  0.1944  0.4823
  707MOL0     H97525  11.766  11.548   5.452 -0.1987  0.0927  0.5415
  707MOL0     H97526  11.672  11.689   5.501 -0.5582 -1.4652 -1.2748
  707MOL0     H97527  11.741  11.580   5.624 -3.7344 -0.4382 -1.1893
  707MOL0     H97528  11.731  12.175   5.805 -0.7309  1.6563 -0.0328
  707MOL0     H97529  11.491  12.298   5.853 -0.8785 -0.1789 -1.4373
  707MOL0     H97530  11.263  12.203   5.951  0.5870  1.0441  0.2725
  707MOL0     H97531  11.260  12.365   5.879 -1.1862  1.4572 -3.6075
  707MOL0     H97532  11.051  12.329   5.968  1.5245 -2.1371  2.2708
  707MOL0     H97533  11.043  12.323   5.792  0.9741 -0.0263  0.5693
  707MOL0     H97534  11.038  12.055   5.820 -1.5614 -1.3408  0.4935
  707MOL0     H97535  10.900  12.142   5.857  2.2166  0.1817 -2.8896
  707MOL0     H97536  10.953  12.131   6.102  1.6691  1.8588 -0.6683
  707MOL0     H97537  11.107  12.046   6.072 -0.8384 -2.4934  1.5971
  707MOL0     H97538  10.839  11.936   5.975  1.1287 -2.0372 -3.1698
  707MOL0     H97539  11.000  11.882   5.944  2.9233  1.3090  0.9882
  707MOL0     H97540  10.848  11.905   6.209  1.7128  2.4663  0.2925
  707MOL0     H97541  11.022  11.886   6.205  0.3262  1.6195  0.1735
  707MOL0     H97542  10.940  11.665   6.238 -0.4596  1.9444  0.7748
  707MOL0     H97543  10.979  11.667   6.060  2.4344  0.4228  0.9477
  707MOL0     H97544  10.780  11.726   5.998 -0.6003  2.0338  0.2847
  707MOL0     H97545  10.705  11.746   6.160 -1.3924  0.7984 -1.8118
  707MOL0     H97546  11.315  12.040   5.572  1.7605 -1.5434 -3.2381
  707MOL0     H97547  11.515  11.976   5.482 -0.7141  1.7773 -2.0781
  707MOL0     H97548  12.026  12.001   5.590 -0.7144 -0.1584  1.6213
  707MOL0     H97549  12.222  11.884   5.499 -1.1512  1.1477 -2.3504
  707MOL0     H97550  11.728  10.886   5.090  1.1336 -4.2757  0.4847
  707MOL0     H97551  11.635  10.672   5.106  1.8538  1.9629  1.8023
  707MOL0     H97552  11.424  10.322   4.951  0.1460 -0.7230 -0.3001
  707MOL0     H97553  11.298  10.099   4.937 -0.6318 -1.0259  1.5398
  707MOL0     H97554  10.943  10.032   5.201  0.0951 -0.1849  0.1266
  707MOL0     H97555  10.947   9.892   5.086 -1.1309 -0.2029 -0.0322
  707MOL0     H97556  11.173   9.955   5.273  1.5792 -2.5908  0.9243
  707MOL0     H97557  11.158   9.817   5.169  0.6259  0.4777 -0.6011
  707MOL0     H97558  11.011   9.872   5.424  1.0999 -1.3177  0.1454
  707MOL0     H97559  10.954   9.761   5.287  0.1068 -0.2431 -0.0585
  707MOL0     H97560  11.226   9.715   5.394 -0.3260 -3.5402  1.1208
  707MOL0     H97561  11.100   9.625   5.301 -1.7036 -0.0827 -0.9600
  707MOL0     H97562  11.073   9.590   5.745  1.0811  1.2406  1.3788
  707MOL0     H97563  11.011  10.242   5.215  0.1413 -1.8524 -0.0552
  707MOL0     H97564  10.999  10.455   5.283  0.7648 -2.4467 -0.7255
  707MOL0     H97565  11.158  10.506   5.337 -0.4744  3.1426  0.1210
  707MOL0     H97566  11.089  10.580   5.199 -0.4580 -0.0290  0.0985
  708MOL0     O97567   6.842   1.946   8.674  0.1558 -0.1853 -0.1386
  708MOL0     C97568   6.955   1.978   8.700  0.0402 -0.6230 -0.6888
  708MOL0     O97569   6.996   2.013   8.825 -0.3004 -0.8365 -0.3598
  708MOL0     C97570   6.901   2.018   8.931 -0.2429  0.5276  0.5657
  708MOL0     C97571   6.804   1.923   8.964 -0.3740  0.7398 -0.7319
  708MOL0     C97572   6.715   1.957   9.064  1.0037 -0.3146 -0.5654
  708MOL0     C97573   6.735   2.065   9.148  0.1230 -0.9328 -0.2139
  708MOL0     O97574   6.646   2.099   9.247  0.2117 -0.8421 -0.5711
  708MOL0     C97575   6.512   2.031   9.258 -0.6469 -0.1240 -0.4476
  708MOL0     C97576   6.413   2.076   9.143 -0.6498 -0.1839 -0.1602
  708MOL0     C97577   6.273   2.045   9.174 -0.5223 -0.1337 -0.0177
  708MOL0     C97578   6.188   2.108   9.065  0.3870  0.0310 -0.2300
  708MOL0     C97579   6.043   2.059   9.063  0.5407 -0.7770 -0.3259
  708MOL0     C97580   6.022   1.923   9.011  0.9787 -0.0092 -0.5615
  708MOL0     C97581   5.879   1.868   9.058  0.4517 -0.1315 -0.8156
  708MOL0     C97582   5.838   1.722   9.025 -0.1205 -0.7589 -0.2693
  708MOL0     N97583   5.851   1.685   8.880  0.5682 -0.2032  0.3454
  708MOL0     C97584   5.957   1.616   8.814 -0.0700  0.3586 -0.5248
  708MOL0     C97585   5.930   1.603   8.681  0.4525  0.2288 -0.5893
  708MOL0     C97586   6.015   1.522   8.586 -0.3354 -0.0057  0.7252
  708MOL0     C97587   6.112   1.608   8.488 -0.1871 -0.1417 -0.8247
  708MOL0     C97588   6.036   1.645   8.360 -0.1881 -0.0178  0.1398
  708MOL0     C97589   6.128   1.697   8.247  0.0501 -1.0008  0.4786
  708MOL0     O97590   6.046   1.760   8.150 -0.0635  0.0010  0.3733
  708MOL0     C97591   6.099   1.778   8.026  0.1419 -0.5870  0.2102
  708MOL0     C97592   6.014   1.846   7.936  0.7274  0.3703 -0.3344
  708MOL0     C97593   6.049   1.873   7.805 -0.0997 -0.3659  0.7711
  708MOL0     C97594   5.944   1.926   7.715  0.9263 -0.5995 -0.0361
  708MOL0     C97595   6.187   1.844   7.767 -0.4304 -0.7449 -0.3895
  708MOL0     C97596   6.243   1.872   7.635  1.2856  0.6652  0.8770
  708MOL0     O97597   6.358   1.810   7.596  0.5440 -0.9103 -0.2435
  708MOL0     C97598   6.414   1.811   7.469 -0.3422 -0.2549 -0.1630
  708MOL0     C97599   6.550   1.770   7.450  0.4120 -0.2054  0.7402
  708MOL0     C97600   6.612   1.767   7.327 -0.7842  0.4641 -0.9169
  708MOL0     C97601   6.541   1.805   7.213  0.3496  0.6810 -0.3442
  708MOL0     O97602   6.610   1.816   7.101 -0.2157  1.0376 -0.0752
  708MOL0     C97603   6.529   1.790   6.991 -0.1861 -0.1343 -0.2791
  708MOL0     C97604   6.622   1.758   6.878 -0.4109  0.3301 -0.6659
  708MOL0     C97605   6.722   1.642   6.918  0.2028  1.0940  0.3826
  708MOL0     C97606   6.820   1.617   6.799  0.0032  0.6462 -0.2152
  708MOL0     C97607   6.912   1.501   6.835 -0.1786  0.0817  0.1939
  708MOL0     C97608   7.023   1.505   6.721 -0.2582 -0.6833  0.0820
  708MOL0     C97609   7.118   1.389   6.727 -0.0456  0.7663  0.2198
  708MOL0     C97610   7.041   1.258   6.710  0.5613 -0.0446  0.2389
  708MOL0    Cl97611   6.951   1.246   6.553 -0.0135  0.2025 -0.0804
  708MOL0     C97612   6.402   1.838   7.226  0.4956  0.0381  0.9739
  708MOL0     C97613   6.339   1.830   7.352  0.4262  0.5269  0.9417
  708MOL0     O97614   6.175   1.942   7.563 -0.3625  0.7562  0.3363
  708MOL0     C97615   6.277   1.788   7.865  0.4599 -0.5926 -0.1168
  708MOL0     C97616   6.233   1.755   7.992 -0.1774  0.6657  0.1380
  708MOL0     N97617   5.794   1.629   8.674 -0.4712  0.1956  0.0739
  708MOL0     N97618   5.756   1.686   8.777  0.6979  0.4562 -0.0790
  708MOL0     C97619   6.845   2.147   9.130  0.0078 -0.1163  0.4265
  708MOL0     C97620   6.926   2.118   9.021 -0.0924 -0.1672 -0.5654
  708MOL0     C97621   7.051   1.987   8.592  0.0635 -0.7727 -1.0357
  708MOL0     C97622   7.193   1.984   8.628 -0.2448  0.9849  0.0290
  708MOL0     C97623   7.295   2.008   8.528 -0.2153 -0.1779 -0.5932
  708MOL0     C97624   7.255   2.028   8.388 -0.1226 -0.1629  0.1202
  708MOL0     O97625   7.343   2.040   8.284  0.5439 -0.0278  0.6040
  708MOL0     C97626   7.476   2.073   8.309 -0.3474  0.0312 -0.3799
  708MOL0     C97627   7.544   2.115   8.178  0.4976  0.5089  0.7941
  708MOL0     C97628   7.486   2.239   8.115 -0.5844  0.3183  0.7190
  708MOL0     C97629   7.575   2.275   8.004 -0.0296 -0.4784  0.0985
  708MOL0     C97630   7.531   2.383   7.915  0.0479 -0.4880  0.2852
  708MOL0     C97631   7.511   2.479   7.850 -0.3402  0.5585 -0.1689
  708MOL0     C97632   7.118   2.031   8.348  0.3539  0.1436 -0.0755
  708MOL0     C97633   7.019   2.020   8.449  0.4972  0.4968  0.0051
  708MOL0     C97634   6.879   2.037   8.389 -0.3540  0.2044 -0.2067
  708MOL0     H97635   6.795   1.835   8.901  4.3542  1.3305 -2.6295
  708MOL0     H97636   6.624   1.900   9.077 -0.4652  2.2879  1.7049
  708MOL0     H97637   6.463   2.045   9.355 -2.3106  2.2221 -1.5608
  708MOL0     H97638   6.527   1.922   9.260  4.2912  0.3065  1.7050
  708MOL0     H97639   6.416   2.185   9.143 -0.2045 -0.1769 -1.3350
  708MOL0     H97640   6.429   2.039   9.041  0.4107  0.8024 -0.3739
  708MOL0     H97641   6.270   1.936   9.168 -1.5942 -0.0407 -3.0237
  708MOL0     H97642   6.229   2.074   9.270 -1.4463 -3.8300  0.8114
  708MOL0     H97643   6.193   2.217   9.059  0.4125  0.3137  3.1306
  708MOL0     H97644   6.232   2.069   8.972 -3.1851  0.6428 -2.3824
  708MOL0     H97645   5.989   2.134   9.004  2.0887  0.3821 -0.3501
  708MOL0     H97646   6.004   2.071   9.165  1.2859 -1.5260  0.0571
  708MOL0     H97647   6.045   1.900   8.906 -1.1240 -3.0653 -0.5038
  708MOL0     H97648   6.100   1.859   9.053  0.7126 -1.4226 -2.0694
  708MOL0     H97649   5.819   1.943   9.006  0.6725  0.1420 -0.6820
  708MOL0     H97650   5.871   1.891   9.164  3.1444 -0.7943 -0.3891
  708MOL0     H97651   5.900   1.646   9.075 -1.0066 -0.5842  1.1461
  708MOL0     H97652   5.737   1.696   9.059 -0.5431 -1.2027 -1.8130
  708MOL0     H97653   6.045   1.578   8.866  1.0929  2.5943 -0.6905
  708MOL0     H97654   5.946   1.461   8.527  1.7856  1.0923 -3.2515
  708MOL0     H97655   6.073   1.458   8.653 -0.4897  1.2344  2.1234
  708MOL0     H97656   6.147   1.701   8.533 -3.9624  0.1630  2.0008
  708MOL0     H97657   6.199   1.548   8.461  0.0448  0.9426 -2.5812
  708MOL0     H97658   5.978   1.561   8.320  0.5905 -1.3493  1.6909
  708MOL0     H97659   5.965   1.724   8.384 -0.7398 -0.7821  1.1263
  708MOL0     H97660   6.205   1.762   8.291 -1.0851 -1.9535  4.2475
  708MOL0     H97661   6.169   1.603   8.209 -0.2586 -1.7123  1.8578
  708MOL0     H97662   5.911   1.847   7.969  0.8090 -1.8581  0.1953
  708MOL0     H97663   5.850   1.945   7.769  0.3808 -2.6431 -0.1842
  708MOL0     H97664   5.922   1.857   7.633 -0.9004  0.7292 -0.7442
  708MOL0     H97665   5.971   2.027   7.683 -0.2066 -0.4118 -0.4717
  708MOL0     H97666   6.602   1.741   7.540 -0.3356 -0.8357  0.9859
  708MOL0     H97667   6.718   1.746   7.313 -0.6038 -2.4267  3.1845
  708MOL0     H97668   6.474   1.698   7.010 -1.0895  0.5973  0.8158
  708MOL0     H97669   6.470   1.879   6.965  0.6951  0.8132  0.8731
  708MOL0     H97670   6.564   1.742   6.787 -2.0017  1.9191 -0.0051
  708MOL0     H97671   6.683   1.847   6.862 -0.6092  0.4677 -0.6726
  708MOL0     H97672   6.660   1.552   6.926  1.4012  0.1142 -0.9200
  708MOL0     H97673   6.780   1.672   7.006  0.1662 -3.9121  2.4192
  708MOL0     H97674   6.884   1.702   6.774  0.2390  0.2454 -1.0028
  708MOL0     H97675   6.769   1.598   6.705 -0.3562 -0.5147  0.1965
  708MOL0     H97676   6.954   1.497   6.935 -1.4391 -1.0143  0.7047
  708MOL0     H97677   6.852   1.410   6.827  1.1667 -0.6917 -2.8617
  708MOL0     H97678   7.081   1.597   6.732  0.9181 -1.4321  0.2972
  708MOL0     H97679   6.977   1.519   6.623  1.2752  1.0880 -0.4364
  708MOL0     H97680   7.177   1.392   6.819 -1.2943  1.5228  1.0196
  708MOL0     H97681   7.192   1.396   6.647 -1.8856  0.6987 -1.5646
  708MOL0     H97682   6.986   1.232   6.802  1.4377 -1.3084  0.4226
  708MOL0     H97683   7.104   1.169   6.711 -0.4694 -0.7963  0.5199
  708MOL0     H97684   6.346   1.873   7.140 -1.3477  1.2541  2.5758
  708MOL0     H97685   6.236   1.864   7.352  0.2747  0.0957  0.2905
  708MOL0     H97686   6.381   1.769   7.843  1.2905  2.9524  0.1400
  708MOL0     H97687   6.290   1.704   8.069 -1.2828 -2.0258 -0.7115
  708MOL0     H97688   6.866   2.237   9.187 -0.9309  1.5623 -1.7366
  708MOL0     H97689   7.010   2.179   8.988 -0.8743  0.7935 -0.8423
  708MOL0     H97690   7.212   1.948   8.729 -1.5820  0.8932  0.2565
  708MOL0     H97691   7.400   1.992   8.550 -0.0735 -0.9865 -1.7501
  708MOL0     H97692   7.470   2.166   8.365  2.0700  2.2088 -3.4182
  708MOL0     H97693   7.528   1.989   8.356 -0.9392  0.7906  1.7507
  708MOL0     H97694   7.539   2.030   8.110  1.0675  1.1273 -0.0333
  708MOL0     H97695   7.649   2.137   8.200  0.0963  2.2741  1.1122
  708MOL0     H97696   7.383   2.232   8.078 -0.7213  2.3580  0.6025
  708MOL0     H97697   7.491   2.320   8.188 -2.5319  2.9343 -1.8104
  708MOL0     H97698   7.594   2.195   7.932 -0.7634 -0.0067 -0.6390
  708MOL0     H97699   7.675   2.297   8.042  0.0946  1.9048 -1.3457
  708MOL0     H97700   7.507   2.566   7.787  0.5513  1.3301  0.8032
  708MOL0     H97701   7.093   2.063   8.248  2.2892  2.0653 -0.0452
  708MOL0     H97702   6.818   2.082   8.468 -1.3457 -0.3034 -0.6717
  708MOL0     H97703   6.883   2.102   8.302 -1.6367  3.5698  2.0532
  708MOL0     H97704   6.827   1.943   8.368  1.2493 -0.6294 -0.5805
  709MOL0     O97705   8.085  11.344  10.178 -0.4120 -0.4459  0.4056
  709MOL0     C97706   8.094  11.456  10.231  0.1369 -0.2761 -0.0119
  709MOL0     O97707   8.188  11.554  10.211 -0.3897  0.0627  0.6864
  709MOL0     C97708   8.282  11.521  10.123  0.3243  0.4722  0.0139
  709MOL0     C97709   8.251  11.528   9.989 -0.6195  0.2761  0.0821
  709MOL0     C97710   8.332  11.494   9.888  0.4140  0.4203 -0.6996
  709MOL0     C97711   8.462  11.461   9.907 -0.0474  1.1789 -0.1420
  709MOL0     O97712   8.556  11.441   9.801  0.2978 -0.2401  0.1181
  709MOL0     C97713   8.543  11.503   9.668  0.1638 -0.0967 -0.6485
  709MOL0     C97714   8.668  11.467   9.592 -0.4250 -0.1131 -0.1637
  709MOL0     C97715   8.668  11.489   9.441  0.6845  0.1718 -0.2488
  709MOL0     C97716   8.604  11.615   9.398  0.1159 -0.7510 -0.1741
  709MOL0     C97717   8.584  11.608   9.240 -0.0468  0.0627 -0.8330
  709MOL0     C97718   8.528  11.745   9.204  0.1530  0.0715  0.3222
  709MOL0     C97719   8.519  11.762   9.056  0.6212  0.0196  0.3852
  709MOL0     C97720   8.504  11.918   9.016 -0.3925  0.0910  0.4715
  709MOL0     N97721   8.410  11.996   9.087  0.4188 -0.2735  0.7218
  709MOL0     C97722   8.429  12.112   9.152 -0.4690 -0.1714  0.9105
  709MOL0     C97723   8.310  12.152   9.193  0.3793  0.3052  0.6987
  709MOL0     C97724   8.279  12.263   9.284 -0.1942  0.1802  0.4674
  709MOL0     C97725   8.218  12.398   9.226  0.3189  0.0700 -0.3635
  709MOL0     C97726   8.208  12.499   9.343  0.2682 -0.6040  0.0224
  709MOL0     C97727   8.141  12.635   9.295  0.5904 -0.1881  0.2497
  709MOL0     O97728   8.066  12.708   9.400 -0.8629  0.2328 -0.1517
  709MOL0     C97729   7.967  12.647   9.467 -0.2282  0.5345 -0.1177
  709MOL0     C97730   7.923  12.700   9.583 -0.7676 -0.0927  0.3060
  709MOL0     C97731   7.821  12.648   9.663  0.5849  0.2687 -0.4221
  709MOL0     C97732   7.775  12.737   9.779 -0.6626 -0.0301 -0.1271
  709MOL0     C97733   7.755  12.532   9.627  0.9941 -0.4235 -0.0717
  709MOL0     C97734   7.646  12.465   9.707 -0.7382 -0.0307 -1.2591
  709MOL0     O97735   7.616  12.340   9.662 -0.1361  0.1377 -0.0686
  709MOL0     C97736   7.517  12.253   9.714 -1.1084 -0.6217 -0.1177
  709MOL0     C97737   7.461  12.261   9.844 -0.2011  0.0435  0.3732
  709MOL0     C97738   7.352  12.181   9.883 -0.0609  0.1994 -0.1718
  709MOL0     C97739   7.295  12.089   9.792  0.1939  0.1601  0.4947
  709MOL0     O97740   7.201  11.997   9.822  0.9897  0.1787 -0.0044
  709MOL0     C97741   7.074  12.065   9.827  0.0678 -0.6329 -0.4246
  709MOL0     C97742   6.978  11.978   9.760 -0.8367 -0.2122  0.2476
  709MOL0     C97743   6.840  12.026   9.752  0.3336  0.0074 -0.7504
  709MOL0     C97744   6.764  11.989   9.884  0.2014  0.7235 -0.5779
  709MOL0     C97745   6.686  11.856   9.857 -0.0858 -0.7835  0.0087
  709MOL0     C97746   6.640  11.793   9.989 -0.3401 -0.1125  0.3823
  709MOL0     C97747   6.541  11.868  10.063  0.0315 -0.5492  0.3808
  709MOL0     C97748   6.496  11.801  10.193 -0.5582 -0.1068  0.4087
  709MOL0    Cl97749   6.621  11.707  10.268  0.5732 -0.2962  0.2026
  709MOL0     C97750   7.355  12.080   9.667  1.2019  1.0753 -0.6350
  709MOL0     C97751   7.459  12.162   9.623 -0.2585  0.8403  0.7570
  709MOL0     O97752   7.606  12.513   9.813  0.0045 -0.2070 -0.0853
  709MOL0     C97753   7.802  12.464   9.510 -0.1548 -1.4990  0.6226
  709MOL0     C97754   7.906  12.518   9.434  0.6699  0.2950  0.5884
  709MOL0     N97755   8.217  12.063   9.153 -0.2828  0.2030  0.2189
  709MOL0     N97756   8.281  11.974   9.084  0.0858 -0.0897  0.8598
  709MOL0     C97757   8.506  11.456  10.050 -0.2149  0.4439  0.6141
  709MOL0     C97758   8.411  11.477  10.151  0.0228 -0.2396 -0.1256
  709MOL0     C97759   7.995  11.484  10.329  0.2921 -0.8024 -0.3470
  709MOL0     C97760   8.034  11.579  10.440  0.3435  0.2024  0.1319
  709MOL0     C97761   7.946  11.600  10.543  0.4621  0.3559  0.1070
  709MOL0     C97762   7.831  11.528  10.558  0.3814  0.4873 -0.1010
  709MOL0     O97763   7.746  11.540  10.664  0.2926  0.4195  0.6490
  709MOL0     C97764   7.794  11.515  10.800  0.9263 -0.2135  0.3286
  709MOL0     C97765   7.711  11.614  10.881  0.7386  0.7316  0.4616
  709MOL0     C97766   7.747  11.622  11.028 -0.1365  0.1269  0.0600
  709MOL0     C97767   7.677  11.748  11.092  0.0482  0.3692  0.0400
  709MOL0     C97768   7.725  11.783  11.231 -0.9549  0.9169  0.2639
  709MOL0     C97769   7.799  11.815  11.325  0.0471  0.1674 -0.2441
  709MOL0     C97770   7.801  11.435  10.461  0.0739 -0.8807 -0.5294
  709MOL0     C97771   7.873  11.414  10.343 -0.1111 -0.1046  0.0210
  709MOL0     C97772   7.829  11.303  10.255 -0.8788  0.6105  0.5339
  709MOL0     H97773   8.156  11.565   9.951  1.2689  0.6676 -4.8839
  709MOL0     H97774   8.294  11.502   9.787 -0.4420 -2.3110 -0.6942
  709MOL0     H97775   8.558  11.611   9.674  4.0541 -0.5668  1.9052
  709MOL0     H97776   8.453  11.472   9.614 -0.0732  0.7964 -0.7865
  709MOL0     H97777   8.756  11.507   9.644  0.0451 -0.0081 -1.0176
  709MOL0     H97778   8.680  11.358   9.599 -2.2678 -0.3533 -0.2946
  709MOL0     H97779   8.768  11.472   9.400  0.8487  1.9572 -0.6594
  709MOL0     H97780   8.610  11.407   9.398 -3.0365  0.9281  2.7774
  709MOL0     H97781   8.501  11.629   9.434 -0.4592  0.4690 -2.1497
  709MOL0     H97782   8.667  11.697   9.433 -1.0306  1.2443 -2.4974
  709MOL0     H97783   8.519  11.522   9.222  2.1883 -1.8458 -0.2248
  709MOL0     H97784   8.684  11.595   9.197  0.8666 -2.2606  1.7592
  709MOL0     H97785   8.434  11.763   9.257 -0.3216 -1.8902  0.2357
  709MOL0     H97786   8.603  11.812   9.248  1.0239 -1.0451  0.6015
  709MOL0     H97787   8.432  11.704   9.025  0.1612  1.1419 -0.4954
  709MOL0     H97788   8.606  11.710   9.014 -1.4153 -1.2498 -2.6789
  709MOL0     H97789   8.605  11.958   9.029 -0.1618 -0.5961  0.8756
  709MOL0     H97790   8.477  11.923   8.910 -0.2854 -3.3199  0.1763
  709MOL0     H97791   8.522  12.167   9.169  0.9787 -2.2094  0.0475
  709MOL0     H97792   8.370  12.289   9.340 -1.0274  2.8961  0.7206
  709MOL0     H97793   8.202  12.225   9.352  1.3096 -1.3346  1.3946
  709MOL0     H97794   8.278  12.440   9.145  1.8098  0.7070  1.0140
  709MOL0     H97795   8.117  12.368   9.197 -0.3684  1.5809  0.3721
  709MOL0     H97796   8.154  12.457   9.427 -1.4810  0.5211 -0.4755
  709MOL0     H97797   8.309  12.525   9.377 -0.1077  1.2584 -0.1286
  709MOL0     H97798   8.220  12.699   9.256  0.2418  0.3465  0.4189
  709MOL0     H97799   8.069  12.620   9.213 -0.3224 -1.5315  1.2520
  709MOL0     H97800   7.957  12.801   9.606  0.6948 -0.0147 -1.8872
  709MOL0     H97801   7.777  12.686   9.876  3.6743 -0.7066 -0.3330
  709MOL0     H97802   7.674  12.777   9.777 -0.1708  1.3197  0.7437
  709MOL0     H97803   7.845  12.822   9.785  0.3495 -0.9291  1.8518
  709MOL0     H97804   7.509  12.320   9.921  1.0867 -0.9580  0.3660
  709MOL0     H97805   7.319  12.186   9.986  1.3262  0.8831  0.2675
  709MOL0     H97806   7.045  12.076   9.931  1.2092  1.3269 -0.2543
  709MOL0     H97807   7.081  12.164   9.780  1.5633  0.2741  1.5864
  709MOL0     H97808   7.014  11.965   9.657  3.5276  0.8396  1.4432
  709MOL0     H97809   6.985  11.879   9.805 -1.4699 -0.9539 -1.2226
  709MOL0     H97810   6.793  11.984   9.662 -0.1735 -1.0435 -0.0243
  709MOL0     H97811   6.849  12.134   9.744  0.5320  0.0474 -0.0061
  709MOL0     H97812   6.699  12.070   9.919  1.4473  1.5162 -0.0300
  709MOL0     H97813   6.834  11.973   9.966 -0.4090 -0.5803 -0.2818
  709MOL0     H97814   6.605  11.870   9.785 -0.6653  1.4376  1.0051
  709MOL0     H97815   6.752  11.784   9.808 -1.2886  1.4081 -5.6039
  709MOL0     H97816   6.730  11.769  10.046  0.5375  0.5792 -0.6761
  709MOL0     H97817   6.599  11.698   9.953  0.6682 -0.0560 -1.0239
  709MOL0     H97818   6.458  11.870   9.992  1.7937 -2.2616 -1.8404
  709MOL0     H97819   6.573  11.969  10.091  2.8959 -1.2454 -0.0401
  709MOL0     H97820   6.414  11.729  10.188  1.0887 -2.1584  1.3552
  709MOL0     H97821   6.469  11.875  10.269 -1.1124  0.5412 -0.4010
  709MOL0     H97822   7.312  12.005   9.601  1.5764 -0.5856  0.9304
  709MOL0     H97823   7.490  12.157   9.519 -1.3875  3.2983  0.2017
  709MOL0     H97824   7.760  12.371   9.474 -0.3725 -1.0517 -0.3122
  709MOL0     H97825   7.929  12.466   9.341 -0.6411 -0.1472  0.4990
  709MOL0     H97826   8.612  11.448  10.069  0.4046  0.2724 -2.4073
  709MOL0     H97827   8.442  11.490  10.254 -2.2645  0.8231  0.5030
  709MOL0     H97828   8.135  11.618  10.431  1.2634 -2.1069 -0.3104
  709MOL0     H97829   7.952  11.677  10.619  0.4878 -0.6825  1.1869
  709MOL0     H97830   7.770  11.410  10.818 -2.9925  0.3656 -0.4012
  709MOL0     H97831   7.897  11.544  10.817  0.5928  0.9247  0.4744
  709MOL0     H97832   7.605  11.588  10.874  0.5896  0.2528  3.1997
  709MOL0     H97833   7.717  11.716  10.844  0.5222  0.7571  0.4941
  709MOL0     H97834   7.724  11.528  11.079  0.8331 -2.0232 -3.1281
  709MOL0     H97835   7.854  11.638  11.047  0.1058  0.6984 -1.6431
  709MOL0     H97836   7.568  11.747  11.092  0.0253  1.6766 -0.3256
  709MOL0     H97837   7.701  11.833  11.028  0.4881  1.8608  2.0780
  709MOL0     H97838   7.868  11.846  11.401  0.6356 -0.9897 -0.2861
  709MOL0     H97839   7.706  11.390  10.489 -2.2491  4.1735  1.0455
  709MOL0     H97840   7.740  11.260  10.301 -0.3351 -3.1252 -1.5679
  709MOL0     H97841   7.813  11.332  10.150 -0.7145  0.5982  0.5047
  709MOL0     H97842   7.907  11.227  10.245 -0.8029  0.8056 -0.4923
  710MOL0     O97843   1.854   5.808   0.745  0.0642  0.9899 -0.4080
  710MOL0     C97844   1.799   5.769   0.853 -0.7048  0.2404  1.1427
  710MOL0     O97845   1.861   5.753   0.977 -0.1615 -0.2960  0.4522
  710MOL0     C97846   1.992   5.782   0.981 -0.2809  0.0273  0.8541
  710MOL0     C97847   2.092   5.710   0.908 -0.5794  0.1214 -0.0470
  710MOL0     C97848   2.230   5.746   0.940 -0.6880  0.1701  0.7206
  710MOL0     C97849   2.265   5.851   1.028  0.3567 -0.5568 -0.1339
  710MOL0     O97850   2.398   5.894   1.051  0.6990  0.2170  1.3392
  710MOL0     C97851   2.443   5.876   1.181  0.7655  0.5854  0.4106
  710MOL0     C97852   2.587   5.864   1.178 -0.8186  0.2535 -0.9708
  710MOL0     C97853   2.644   5.988   1.114 -0.4252 -0.0207  0.3579
  710MOL0     C97854   2.801   5.986   1.116  1.1299 -0.3784  1.1616
  710MOL0     C97855   2.853   6.113   1.045  0.1378 -0.7031 -0.5464
  710MOL0     C97856   3.006   6.113   1.037 -0.7106 -0.1500 -0.1326
  710MOL0     C97857   3.093   6.147   1.161 -0.4652 -0.1389 -0.4073
  710MOL0     C97858   3.243   6.178   1.132 -0.0440  0.7099 -0.4438
  710MOL0     N97859   3.312   6.234   1.247 -1.3871 -0.2417 -0.0181
  710MOL0     C97860   3.430   6.177   1.295 -0.7130 -0.6990  0.7046
  710MOL0     C97861   3.455   6.259   1.396  0.1203 -0.0472  0.2206
  710MOL0     C97862   3.563   6.225   1.496 -0.2866 -1.0251  0.0936
  710MOL0     C97863   3.522   6.226   1.639 -0.5139 -0.7054  0.9990
  710MOL0     C97864   3.427   6.107   1.676 -0.3090 -0.0885  0.1646
  710MOL0     C97865   3.478   5.970   1.673  0.4643 -0.3259  0.2178
  710MOL0     O97866   3.402   5.888   1.763  0.4571 -0.7224  0.7805
  710MOL0     C97867   3.274   5.848   1.725 -0.7153 -0.4543 -0.2908
  710MOL0     C97868   3.217   5.862   1.598 -0.3860  0.1452  0.4202
  710MOL0     C97869   3.095   5.813   1.562  0.6074 -0.3949  0.1885
  710MOL0     C97870   3.065   5.817   1.410 -0.3747  0.0924 -0.3544
  710MOL0     C97871   3.017   5.749   1.662 -0.0890 -1.3463  0.4086
  710MOL0     C97872   2.889   5.685   1.635  0.3724  0.1635  0.2844
  710MOL0     O97873   2.833   5.623   1.739 -0.4624  0.4046 -1.0140
  710MOL0     C97874   2.709   5.564   1.724 -0.0248 -0.6564  0.1273
  710MOL0     C97875   2.604   5.609   1.654 -0.0082 -0.0711 -0.1185
  710MOL0     C97876   2.480   5.541   1.638  1.1045 -0.9820  0.3935
  710MOL0     C97877   2.458   5.435   1.728 -0.1094  0.1084  0.5356
  710MOL0     O97878   2.348   5.369   1.732  0.0007  0.3463  0.2842
  710MOL0     C97879   2.231   5.452   1.774  0.8892  0.5426  0.8226
  710MOL0     C97880   2.134   5.359   1.851  0.0474  0.3346 -0.1021
  710MOL0     C97881   1.996   5.427   1.881  0.2528  0.1843 -0.1625
  710MOL0     C97882   1.963   5.400   2.037  0.6907  0.1822 -0.0796
  710MOL0     C97883   1.838   5.482   2.076  0.6585 -0.8569 -0.1063
  710MOL0     C97884   1.828   5.503   2.229  0.7585 -0.4216  0.7771
  710MOL0     C97885   1.831   5.369   2.302 -0.0125  1.3415 -0.4346
  710MOL0     C97886   1.798   5.374   2.452  0.6377  1.3738 -0.4351
  710MOL0    Cl97887   1.638   5.447   2.485 -0.5726 -0.7137  0.2632
  710MOL0     C97888   2.563   5.393   1.809  0.0042 -0.1393 -0.0716
  710MOL0     C97889   2.685   5.456   1.805 -0.1457  0.7252  0.2767
  710MOL0     O97890   2.846   5.683   1.520  0.2140 -0.4646 -0.1708
  710MOL0     C97891   3.065   5.750   1.796  0.4145  0.3908  0.7757
  710MOL0     C97892   3.196   5.792   1.826  0.7227 -0.0388 -0.3886
  710MOL0     N97893   3.364   6.365   1.399  0.3923  0.2337 -0.1237
  710MOL0     N97894   3.275   6.351   1.313  0.3879  1.2673 -0.6436
  710MOL0     C97895   2.161   5.917   1.090 -0.5482 -0.1229  0.1232
  710MOL0     C97896   2.027   5.879   1.074 -0.6312 -0.5017 -0.7401
  710MOL0     C97897   1.648   5.759   0.863 -0.7055 -0.4571  0.3059
  710MOL0     C97898   1.574   5.781   0.746  0.6073 -0.5914  0.6611
  710MOL0     C97899   1.431   5.776   0.739 -0.3447 -0.1460 -0.1495
  710MOL0     C97900   1.358   5.765   0.867  0.2112  0.7138  0.6849
  710MOL0     O97901   1.224   5.750   0.872  0.5687 -0.3325 -0.3628
  710MOL0     C97902   1.175   5.631   0.804 -0.3277  0.9268 -0.5681
  710MOL0     C97903   1.064   5.560   0.880 -0.8110 -0.0830  0.2416
  710MOL0     C97904   0.927   5.629   0.886 -0.3587 -0.3498  0.5948
  710MOL0     C97905   0.815   5.522   0.865 -0.0188  0.1217 -0.7603
  710MOL0     C97906   0.738   5.554   0.740  0.0098 -0.4790 -0.9358
  710MOL0     C97907   0.673   5.569   0.637 -1.1867 -0.5331 -0.3156
  710MOL0     C97908   1.436   5.742   0.979 -0.1487 -0.0734 -0.5910
  710MOL0     C97909   1.572   5.740   0.984  0.0251  0.1954  0.5645
  710MOL0     C97910   1.631   5.721   1.127 -0.0020 -0.6612  0.3820
  710MOL0     H97911   2.078   5.632   0.834  0.0491 -0.1901  0.1540
  710MOL0     H97912   2.311   5.705   0.881 -3.2086 -2.8921 -0.9414
  710MOL0     H97913   2.402   5.781   1.218 -2.2276  0.5679 -2.4817
  710MOL0     H97914   2.408   5.966   1.232 -0.4056  1.2372 -1.4370
  710MOL0     H97915   2.626   5.848   1.279  1.9722  2.6721 -1.5541
  710MOL0     H97916   2.608   5.766   1.133 -1.4141 -0.2051 -0.2753
  710MOL0     H97917   2.606   6.004   1.013 -1.8662  1.9722  1.1373
  710MOL0     H97918   2.614   6.078   1.168  0.1881  0.9461 -0.8583
  710MOL0     H97919   2.831   5.991   1.221  1.2872 -0.4643  1.1222
  710MOL0     H97920   2.845   5.896   1.072  1.7077 -0.8010  2.5632
  710MOL0     H97921   2.814   6.204   1.091  3.4826  1.1186 -1.0415
  710MOL0     H97922   2.814   6.109   0.943  0.7150  3.0668 -1.0433
  710MOL0     H97923   3.032   6.011   1.005 -1.6506 -0.0759 -1.1840
  710MOL0     H97924   3.028   6.182   0.955  1.2622 -2.1032 -1.3955
  710MOL0     H97925   3.082   6.063   1.229 -1.3380  0.6187  0.4120
  710MOL0     H97926   3.040   6.229   1.210  1.8513  0.5153  1.1602
  710MOL0     H97927   3.295   6.083   1.115 -2.3243 -1.4097  3.1026
  710MOL0     H97928   3.242   6.241   1.043  2.5594  0.7446 -0.5293
  710MOL0     H97929   3.476   6.083   1.267 -1.1055 -0.5762 -0.4218
  710MOL0     H97930   3.647   6.293   1.484 -2.6338  1.8084 -2.0443
  710MOL0     H97931   3.598   6.123   1.477  0.0302 -1.5877  3.2082
  710MOL0     H97932   3.616   6.223   1.694 -0.8825  2.1581  1.9353
  710MOL0     H97933   3.483   6.325   1.662  3.4809  0.7426  2.3648
  710MOL0     H97934   3.399   6.133   1.779 -2.9141  1.6545 -0.8888
  710MOL0     H97935   3.337   6.124   1.616 -1.9984  0.4698  2.6743
  710MOL0     H97936   3.489   5.937   1.570  4.2398  0.1776  0.3094
  710MOL0     H97937   3.581   5.975   1.712  0.5319  0.6463 -0.0558
  710MOL0     H97938   3.276   5.912   1.522 -4.3305 -0.6051 -3.4822
  710MOL0     H97939   3.135   5.879   1.354  2.3603 -3.5627 -1.3744
  710MOL0     H97940   2.963   5.845   1.383 -0.6498 -0.9077 -0.3987
  710MOL0     H97941   3.082   5.716   1.373  2.8463  1.4056 -2.9326
  710MOL0     H97942   2.627   5.692   1.589  2.0335  0.3892  1.1280
  710MOL0     H97943   2.402   5.577   1.573  1.2935 -2.7287 -0.8745
  710MOL0     H97944   2.266   5.537   1.834  0.5092  3.0821 -2.2795
  710MOL0     H97945   2.185   5.491   1.683  1.7842 -0.4577 -0.0858
  710MOL0     H97946   2.114   5.267   1.795 -0.3484  0.9828 -1.0622
  710MOL0     H97947   2.181   5.337   1.947 -1.3541 -1.1597  0.3024
  710MOL0     H97948   1.909   5.399   1.821  2.0728 -0.7378 -2.5101
  710MOL0     H97949   2.008   5.536   1.874 -0.3622  0.2639 -0.0595
  710MOL0     H97950   2.043   5.429   2.106  2.1502 -1.7690 -0.8589
  710MOL0     H97951   1.954   5.293   2.056  0.5070 -0.0640 -1.4590
  710MOL0     H97952   1.845   5.582   2.032 -1.3702 -1.5423 -2.1747
  710MOL0     H97953   1.747   5.428   2.048  0.4393 -0.0330 -1.0464
  710MOL0     H97954   1.729   5.547   2.245  0.4858 -0.5785 -0.4045
  710MOL0     H97955   1.905   5.568   2.271  0.8873  0.1559 -0.3212
  710MOL0     H97956   1.931   5.325   2.297 -0.1264  0.7783  1.3977
  710MOL0     H97957   1.763   5.297   2.256 -0.3261  0.2689  1.6036
  710MOL0     H97958   1.875   5.427   2.508  1.9138  0.5008 -1.3053
  710MOL0     H97959   1.795   5.268   2.481  2.5798  1.2806 -0.4551
  710MOL0     H97960   2.552   5.301   1.866 -0.1407 -1.3410 -1.9660
  710MOL0     H97961   2.773   5.415   1.854 -0.8712 -1.1315  0.0995
  710MOL0     H97962   3.013   5.695   1.874 -0.7674 -0.8509 -0.8349
  710MOL0     H97963   3.226   5.785   1.930 -1.2999  3.7767  0.6274
  710MOL0     H97964   2.174   6.003   1.155 -0.7071 -0.5488  0.7227
  710MOL0     H97965   1.953   5.942   1.123  1.0224  0.0593  1.1569
  710MOL0     H97966   1.629   5.804   0.655 -0.4566  0.6800  0.3003
  710MOL0     H97967   1.377   5.787   0.645 -1.1794 -2.0844  0.0646
  710MOL0     H97968   1.148   5.661   0.703  1.1201  0.1635 -1.2256
  710MOL0     H97969   1.256   5.558   0.790 -0.6315  0.0979  1.6399
  710MOL0     H97970   1.102   5.547   0.982 -0.0253 -1.0646 -0.1542
  710MOL0     H97971   1.061   5.460   0.835 -1.3330 -0.7257  1.6461
  710MOL0     H97972   0.925   5.666   0.989  1.2911 -0.4769  0.6880
  710MOL0     H97973   0.915   5.716   0.822  1.9756 -0.1596  0.3369
  710MOL0     H97974   0.746   5.515   0.949  0.0534 -1.0929 -0.7826
  710MOL0     H97975   0.854   5.420   0.860  0.5928  0.4038 -2.3947
  710MOL0     H97976   0.633   5.588   0.540  0.4554  2.2135 -0.5906
  710MOL0     H97977   1.374   5.720   1.065 -0.2264 -2.4000 -1.1882
  710MOL0     H97978   1.547   5.700   1.194 -0.3720 -0.6971 -0.0891
  710MOL0     H97979   1.701   5.637   1.137  0.6397 -0.0758  0.9605
  710MOL0     H97980   1.661   5.812   1.179  0.5268 -1.7205  2.0156
  711MOL0     O97981   2.418   9.865   3.712  0.2450 -0.6672  0.7671
  711MOL0     C97982   2.423   9.885   3.825 -0.3710 -0.6337 -1.1546
  711MOL0     O97983   2.319   9.914   3.908 -0.6430  0.4881 -0.2550
  711MOL0     C97984   2.195   9.944   3.852 -0.4806  0.5454  0.4133
  711MOL0     C97985   2.080   9.858   3.863  0.0742 -0.1313 -0.0777
  711MOL0     C97986   1.954   9.892   3.811  0.8062 -0.4060  0.1268
  711MOL0     C97987   1.931  10.017   3.741  0.5623  0.2142 -0.3431
  711MOL0     O97988   1.811  10.025   3.669  0.1049  0.4693 -0.1953
  711MOL0     C97989   1.792  10.112   3.565 -0.3700 -0.1369  0.1365
  711MOL0     C97990   1.662  10.076   3.487  0.1733  0.2301  0.9087
  711MOL0     C97991   1.639  10.179   3.382 -0.4323 -0.4124 -0.3740
  711MOL0     C97992   1.558  10.124   3.255 -0.4952  0.2983  0.0310
  711MOL0     C97993   1.495  10.237   3.178  0.0978  0.5731 -0.0921
  711MOL0     C97994   1.382  10.184   3.082  0.1186 -1.2272 -0.0169
  711MOL0     C97995   1.315  10.299   2.999  0.2056 -0.2415  0.2404
  711MOL0     C97996   1.227  10.391   3.086  0.6954 -0.0673 -0.4962
  711MOL0     N97997   1.142  10.476   3.001  0.7546 -0.2826  0.4174
  711MOL0     C97998   1.024  10.443   2.938 -1.4017  0.2457 -0.7977
  711MOL0     C97999   0.972  10.554   2.884  0.3497  0.2544 -0.6858
  711MOL0     C98000   0.853  10.554   2.796  0.1580 -0.1662  0.0093
  711MOL0     C98001   0.730  10.627   2.857 -0.2417 -0.4598  0.1340
  711MOL0     C98002   0.637  10.640   2.738 -0.6837  0.8105 -0.7010
  711MOL0     C98003   0.498  10.668   2.793  0.0657 -0.0402 -0.8128
  711MOL0     O98004   0.409  10.708   2.687 -1.1882  0.4033 -0.9166
  711MOL0     C98005   0.274  10.704   2.718  0.1401  0.0995 -0.1867
  711MOL0     C98006   0.215  10.730   2.835 -0.2126 -1.4576  0.5452
  711MOL0     C98007   0.077  10.728   2.857  0.2822 -0.0973 -0.6994
  711MOL0     C98008   0.033  10.761   3.003 -0.3534  0.0186  0.5478
  711MOL0     C98009  -0.004  10.700   2.748  0.1411 -1.3346 -0.5043
  711MOL0     C98010  -0.149  10.707   2.757  0.0832  0.3547  1.2342
  711MOL0     O98011  -0.203  10.714   2.876  0.8178  0.2099 -0.1776
  711MOL0     C98012  -0.340  10.750   2.886  0.5782  0.1438 -0.0156
  711MOL0     C98013  -0.434  10.669   2.820  0.1345 -0.3271 -0.9245
  711MOL0     C98014  -0.572  10.700   2.849 -0.6344 -0.0933  0.0241
  711MOL0     C98015  -0.615  10.811   2.935 -0.1332  0.1476 -0.3631
  711MOL0     O98016  -0.740  10.849   2.977 -0.8151 -0.2374  0.5903
  711MOL0     C98017  -0.849  10.779   2.912  0.2047 -0.1306  0.4211
  711MOL0     C98018  -0.975  10.869   2.924  0.3229 -0.0736  0.4426
  711MOL0     C98019  -1.104  10.816   2.864 -0.6887  0.1355 -0.1181
  711MOL0     C98020  -1.180  10.716   2.961  0.0594  0.4109  0.2557
  711MOL0     C98021  -1.303  10.650   2.903 -0.0819  1.2094  0.7324
  711MOL0     C98022  -1.407  10.738   2.837 -0.4939 -0.1378 -0.2561
  711MOL0     C98023  -1.540  10.664   2.834 -0.2750  0.1230  0.8933
  711MOL0     C98024  -1.647  10.773   2.821  0.8154 -0.7195  0.6759
  711MOL0    Cl98025  -1.801  10.692   2.781  0.1598  0.5711  0.2394
  711MOL0     C98026  -0.504  10.882   2.995  0.3665  0.1003 -0.2529
  711MOL0     C98027  -0.365  10.848   2.976 -0.0167 -0.1921 -0.1891
  711MOL0     O98028  -0.202  10.713   2.648  0.3986 -0.6495 -0.0285
  711MOL0     C98029   0.054  10.674   2.624  0.8399 -0.5655  0.7659
  711MOL0     C98030   0.189  10.676   2.610 -0.4797 -0.0030 -0.5068
  711MOL0     N98031   1.046  10.663   2.937 -0.5643  0.1523 -0.0151
  711MOL0     N98032   1.145  10.612   3.006  0.4977  0.1166  1.1880
  711MOL0     C98033   2.041  10.106   3.730  1.1117  0.5521  0.9924
  711MOL0     C98034   2.168  10.069   3.787  0.5615  0.5297  0.3667
  711MOL0     C98035   2.548   9.858   3.900 -0.4716 -0.3942  0.5571
  711MOL0     C98036   2.552   9.883   4.034 -0.4966  0.7415  0.3688
  711MOL0     C98037   2.662   9.842   4.107 -0.1076  0.5651 -0.1810
  711MOL0     C98038   2.782   9.787   4.046  0.7535  0.5090  0.2264
  711MOL0     O98039   2.887   9.745   4.124 -0.2970  0.0871 -0.3956
  711MOL0     C98040   2.865   9.681   4.251 -0.4110 -0.0891  0.2391
  711MOL0     C98041   2.780   9.554   4.224  0.7413  0.0125  0.0662
  711MOL0     C98042   2.851   9.456   4.125 -0.8767  0.8095 -0.7541
  711MOL0     C98043   2.985   9.410   4.180 -0.6545  0.0224  0.5896
  711MOL0     C98044   3.030   9.295   4.104  0.3106  0.6990  0.1529
  711MOL0     C98045   3.074   9.204   4.053 -0.0220  1.0716  0.1263
  711MOL0     C98046   2.777   9.770   3.910  0.8823  0.8206  0.0740
  711MOL0     C98047   2.663   9.800   3.836 -0.2067 -0.2097  0.6817
  711MOL0     C98048   2.686   9.792   3.677 -0.4218 -0.8409 -0.1135
  711MOL0     H98049   2.103   9.771   3.924  0.7341  0.9002  1.1998
  711MOL0     H98050   1.873   9.824   3.833  0.9591 -0.4003  0.7377
  711MOL0     H98051   1.883  10.094   3.507 -1.1728 -2.5936 -0.4880
  711MOL0     H98052   1.781  10.217   3.596 -2.1975  0.6944 -2.8097
  711MOL0     H98053   1.690   9.975   3.454  1.4189  1.4273 -2.0659
  711MOL0     H98054   1.571  10.057   3.544  1.2882  1.0510  3.0767
  711MOL0     H98055   1.577  10.261   3.418  0.0347  0.2347 -1.0170
  711MOL0     H98056   1.740  10.213   3.357 -0.2182 -0.1042  0.8419
  711MOL0     H98057   1.621  10.069   3.185 -1.0172  0.1529 -0.3249
  711MOL0     H98058   1.483  10.052   3.287  1.4788 -1.1618  1.6394
  711MOL0     H98059   1.572  10.294   3.124  0.0090  0.2341 -0.5880
  711MOL0     H98060   1.457  10.304   3.256  2.2825 -1.9742  3.4522
  711MOL0     H98061   1.427  10.111   3.015  1.3366  1.2363 -2.0469
  711MOL0     H98062   1.302  10.144   3.145 -0.4178  0.1837  0.2392
  711MOL0     H98063   1.254  10.253   2.921 -1.1349  3.3276 -0.9957
  711MOL0     H98064   1.382  10.365   2.943  0.8895  0.2251  1.5537
  711MOL0     H98065   1.166  10.326   3.149  2.7687  0.1753  1.9258
  711MOL0     H98066   1.292  10.449   3.152 -1.8905  1.1782  1.1141
  711MOL0     H98067   0.985  10.343   2.923 -2.1051  0.4603 -0.4091
  711MOL0     H98068   0.825  10.452   2.766 -1.1547 -0.5838  2.3722
  711MOL0     H98069   0.887  10.607   2.707  0.4406 -4.1773 -2.5008
  711MOL0     H98070   0.689  10.572   2.942  0.5661 -1.5431 -0.1546
  711MOL0     H98071   0.742  10.731   2.890 -3.2787 -0.3394  1.1909
  711MOL0     H98072   0.667  10.721   2.670  0.1379  0.1594 -1.1359
  711MOL0     H98073   0.626  10.543   2.688 -1.9674 -0.3395  1.6460
  711MOL0     H98074   0.465  10.569   2.827  2.0674 -0.7934 -0.9493
  711MOL0     H98075   0.495  10.748   2.868  0.0551 -1.1691  0.4355
  711MOL0     H98076   0.283  10.759   2.914  2.0047 -1.4896 -1.2418
  711MOL0     H98077   0.108  10.796   3.074 -1.3884 -3.1316  3.4927
  711MOL0     H98078  -0.009  10.671   3.050  0.4033 -1.1674 -0.9590
  711MOL0     H98079  -0.047  10.835   2.990 -0.0754  0.0176 -1.3713
  711MOL0     H98080  -0.411  10.575   2.772 -1.4290 -2.0170  1.4667
  711MOL0     H98081  -0.643  10.628   2.809 -1.9608  1.6633 -0.9329
  711MOL0     H98082  -0.836  10.763   2.804 -0.0278  0.9406  0.2229
  711MOL0     H98083  -0.858  10.683   2.964  3.0555 -0.2667  0.8103
  711MOL0     H98084  -0.980  10.910   3.025  3.0440  0.3639  0.4983
  711MOL0     H98085  -0.942  10.958   2.869  2.5061 -1.0099  0.0934
  711MOL0     H98086  -1.083  10.771   2.766  0.9173 -1.2209  0.8111
  711MOL0     H98087  -1.177  10.896   2.846 -1.9418  0.1131  3.9999
  711MOL0     H98088  -1.185  10.759   3.061  0.0003 -2.4755  1.5863
  711MOL0     H98089  -1.107  10.636   2.981 -1.7599 -1.6316 -0.9006
  711MOL0     H98090  -1.277  10.573   2.830 -1.3677 -0.0051  1.5068
  711MOL0     H98091  -1.353  10.599   2.986 -2.9715  3.1437  0.3177
  711MOL0     H98092  -1.365  10.753   2.737  3.2908 -1.6891  0.9117
  711MOL0     H98093  -1.419  10.829   2.897 -0.8301 -0.7182  0.5791
  711MOL0     H98094  -1.568  10.604   2.921 -2.6539 -0.9957 -0.5349
  711MOL0     H98095  -1.546  10.592   2.751 -2.3903  3.8218 -2.5480
  711MOL0     H98096  -1.625  10.848   2.745  0.6088  0.8337  2.0729
  711MOL0     H98097  -1.663  10.832   2.912 -3.9606  0.1686 -0.4812
  711MOL0     H98098  -0.516  10.962   3.067  2.0041 -2.0392  2.6066
  711MOL0     H98099  -0.289  10.898   3.034 -1.0788 -1.6251  2.5988
  711MOL0     H98100  -0.008  10.629   2.546  0.6085 -0.7220  1.0345
  711MOL0     H98101   0.233  10.679   2.511 -0.9456  1.9940 -0.6977
  711MOL0     H98102   2.031  10.195   3.669  1.4172 -2.0864 -3.3554
  711MOL0     H98103   2.253  10.136   3.772  2.5537 -1.8180  0.4720
  711MOL0     H98104   2.474   9.938   4.085 -3.5395 -0.9251 -2.1243
  711MOL0     H98105   2.659   9.875   4.211 -1.2958  0.8600 -0.2951
  711MOL0     H98106   2.955   9.658   4.308 -0.3512 -2.4490 -0.7007
  711MOL0     H98107   2.812   9.750   4.318  0.1190 -0.5220  1.1165
  711MOL0     H98108   2.677   9.577   4.193  1.2050  0.8640 -0.9068
  711MOL0     H98109   2.775   9.499   4.318 -0.4300 -3.0004 -1.6028
  711MOL0     H98110   2.785   9.370   4.113  0.9531 -0.7460 -0.1415
  711MOL0     H98111   2.862   9.515   4.034 -5.1719  0.9775 -1.3763
  711MOL0     H98112   2.981   9.383   4.285  4.0576 -2.2416  0.4527
  711MOL0     H98113   3.060   9.490   4.178 -2.0796  1.3897 -0.7346
  711MOL0     H98114   3.118   9.115   4.013 -3.6729 -0.0747 -1.7624
  711MOL0     H98115   2.866   9.731   3.860  0.8136 -1.8487  1.8643
  711MOL0     H98116   2.784   9.751   3.653  0.3487  2.0327 -2.4639
  711MOL0     H98117   2.609   9.734   3.624 -0.3342 -0.0925 -1.0928
  711MOL0     H98118   2.685   9.893   3.636 -3.2345 -1.3661 -1.6051
  712MOL0     O98119   7.899   8.029   2.742 -0.4072 -0.3456 -0.0601
  712MOL0     C98120   7.854   8.118   2.664  1.1536  0.3155 -0.3341
  712MOL0     O98121   7.748   8.106   2.584  0.3637  0.1846 -0.7934
  712MOL0     C98122   7.667   7.992   2.588  0.7551 -0.2772  0.1385
  712MOL0     C98123   7.530   8.021   2.602 -0.5047 -0.0648  0.3978
  712MOL0     C98124   7.428   7.916   2.617  0.1749 -0.2401 -0.5410
  712MOL0     C98125   7.467   7.782   2.629 -0.3189  0.0814 -0.3307
  712MOL0     O98126   7.379   7.679   2.663 -0.4933 -0.0832  0.1217
  712MOL0     C98127   7.273   7.706   2.759 -0.3271  0.1769 -0.5618
  712MOL0     C98128   7.231   7.579   2.827  0.1647  1.1759 -1.3924
  712MOL0     C98129   7.132   7.602   2.949 -0.6305 -0.0312  0.2645
  712MOL0     C98130   7.091   7.461   3.001  0.5837 -0.0452 -0.4974
  712MOL0     C98131   7.033   7.479   3.139 -0.2084 -0.0453  0.1919
  712MOL0     C98132   7.013   7.342   3.204  0.1083  0.1087 -0.1927
  712MOL0     C98133   6.976   7.378   3.346  0.0148 -0.4627 -0.2496
  712MOL0     C98134   6.928   7.265   3.434 -0.5266 -0.0609  0.3047
  712MOL0     N98135   6.792   7.220   3.410  0.5257  0.2431 -0.5159
  712MOL0     C98136   6.726   7.133   3.497  0.0257 -0.7878  0.2917
  712MOL0     C98137   6.611   7.091   3.435  0.3677  0.4755  0.0175
  712MOL0     C98138   6.518   7.008   3.524 -0.7449  0.0364  0.3391
  712MOL0     C98139   6.420   6.929   3.439 -0.2717 -0.2441  1.4568
  712MOL0     C98140   6.314   6.863   3.515 -0.2265  0.2058  0.6429
  712MOL0     C98141   6.377   6.773   3.627 -0.2389 -0.2478 -0.4236
  712MOL0     O98142   6.271   6.692   3.680  0.0520  0.0568  0.0703
  712MOL0     C98143   6.292   6.585   3.765 -0.1782  0.2321  0.5201
  712MOL0     C98144   6.184   6.496   3.785  0.3041  0.2662 -0.2156
  712MOL0     C98145   6.203   6.392   3.878 -0.3457 -0.5418 -0.2014
  712MOL0     C98146   6.068   6.323   3.919 -0.3660 -0.4170  0.1294
  712MOL0     C98147   6.324   6.373   3.950 -0.1913 -0.6928  0.6679
  712MOL0     C98148   6.343   6.289   4.070 -0.4539 -0.6512  0.6935
  712MOL0     O98149   6.456   6.313   4.139  0.0345 -0.0236 -0.0300
  712MOL0     C98150   6.460   6.287   4.277 -0.3151 -0.7907  1.0660
  712MOL0     C98151   6.591   6.294   4.324 -0.3888  0.2764  0.7261
  712MOL0     C98152   6.620   6.275   4.460 -0.2552 -0.2718 -0.5658
  712MOL0     C98153   6.514   6.257   4.545  0.1764 -0.2556  0.8160
  712MOL0     O98154   6.526   6.238   4.673 -0.6998 -0.2532 -0.3660
  712MOL0     C98155   6.609   6.329   4.741 -0.0724 -0.0114  0.3119
  712MOL0     C98156   6.622   6.301   4.886 -0.0559 -1.0599 -0.0173
  712MOL0     C98157   6.724   6.181   4.906 -0.2668 -0.3333  0.9117
  712MOL0     C98158   6.758   6.144   5.049  0.2045 -0.1467  0.7782
  712MOL0     C98159   6.867   6.036   5.051 -0.3679  0.3736  0.2610
  712MOL0     C98160   6.920   6.023   5.190 -0.2161 -0.6519 -0.6880
  712MOL0     C98161   6.820   5.980   5.301  0.0869 -0.5153  0.1586
  712MOL0     C98162   6.870   5.962   5.443  0.1738  0.1157  0.0967
  712MOL0    Cl98163   6.765   5.866   5.554 -0.4034  0.0400  0.1560
  712MOL0     C98164   6.378   6.265   4.495  0.1406 -0.2837 -0.5933
  712MOL0     C98165   6.357   6.292   4.364  0.4107  0.2047 -0.2567
  712MOL0     O98166   6.260   6.201   4.094 -0.6432  0.1980 -0.0569
  712MOL0     C98167   6.429   6.460   3.909  0.6166  1.1072  0.2117
  712MOL0     C98168   6.410   6.564   3.817 -0.4415  1.5522  0.3619
  712MOL0     N98169   6.588   7.169   3.320  0.3148 -0.7307 -0.3700
  712MOL0     N98170   6.698   7.231   3.308 -0.1533  0.4486 -0.5454
  712MOL0     C98171   7.607   7.759   2.610 -0.5447 -0.0142  0.4332
  712MOL0     C98172   7.707   7.860   2.579 -0.0614  0.4115  0.6425
  712MOL0     C98173   7.921   8.249   2.657 -0.0559 -0.8847 -0.9987
  712MOL0     C98174   8.015   8.262   2.560 -0.0184  0.1616 -0.6746
  712MOL0     C98175   8.097   8.375   2.557 -0.2264  0.0100 -0.4661
  712MOL0     C98176   8.068   8.483   2.647 -0.8582 -0.1850  0.2548
  712MOL0     O98177   8.125   8.608   2.648 -0.5120 -0.1241  0.3155
  712MOL0     C98178   8.224   8.642   2.543  0.5422  0.7392  0.0899
  712MOL0     C98179   8.142   8.669   2.420 -0.3236  0.1812 -0.1308
  712MOL0     C98180   8.219   8.708   2.285  1.2600 -0.2043  0.4752
  712MOL0     C98181   8.345   8.629   2.250  0.0727 -0.9690  1.0029
  712MOL0     C98182   8.372   8.649   2.107  1.6065  0.0834  0.5741
  712MOL0     C98183   8.398   8.680   1.994 -0.6260  0.0091  0.3203
  712MOL0     C98184   7.961   8.473   2.734 -0.1614  0.2037 -0.4251
  712MOL0     C98185   7.886   8.359   2.739 -0.1959  0.6551 -0.7776
  712MOL0     C98186   7.776   8.346   2.847 -0.6362  0.1715  0.4499
  712MOL0     H98187   7.500   8.123   2.579 -1.8461 -0.6510 -0.5071
  712MOL0     H98188   7.322   7.933   2.606 -0.1118 -2.7520 -2.5600
  712MOL0     H98189   7.188   7.763   2.721 -2.0910 -2.9795 -1.6896
  712MOL0     H98190   7.321   7.772   2.832 -1.5793  0.7988 -0.2719
  712MOL0     H98191   7.186   7.515   2.751 -0.2800  1.1478 -1.1112
  712MOL0     H98192   7.312   7.524   2.876 -1.8791 -0.9616 -0.2123
  712MOL0     H98193   7.186   7.663   3.022  2.1831 -0.4948 -1.2861
  712MOL0     H98194   7.046   7.661   2.915 -0.3977 -0.4141 -1.0556
  712MOL0     H98195   7.020   7.409   2.937  0.0209 -0.7594  0.6717
  712MOL0     H98196   7.173   7.391   3.020  0.8635  1.0867  3.2298
  712MOL0     H98197   6.931   7.515   3.124 -1.1812 -1.2173  3.1450
  712MOL0     H98198   7.096   7.542   3.202 -0.9106  0.3976  0.4749
  712MOL0     H98199   6.944   7.275   3.152  1.4743  0.6426 -2.8346
  712MOL0     H98200   7.103   7.280   3.210  0.1366  0.2045  0.4066
  712MOL0     H98201   6.900   7.455   3.331 -1.1404 -1.6387 -0.5156
  712MOL0     H98202   7.069   7.426   3.380 -0.0087  1.2766 -2.4377
  712MOL0     H98203   6.999   7.182   3.425  0.5781  0.7368  1.3451
  712MOL0     H98204   6.915   7.301   3.536 -3.4311  1.3504 -0.4546
  712MOL0     H98205   6.770   7.083   3.583  0.0476  1.0082  1.3783
  712MOL0     H98206   6.455   7.072   3.585 -1.1264 -1.1548  1.2470
  712MOL0     H98207   6.584   6.944   3.583 -1.1780 -2.6038 -1.7965
  712MOL0     H98208   6.367   6.998   3.373  0.9008  0.4001  1.1535
  712MOL0     H98209   6.464   6.844   3.386  3.5353  0.4377  3.1443
  712MOL0     H98210   6.245   6.940   3.551  0.2309  0.2036  1.5528
  712MOL0     H98211   6.256   6.803   3.444 -1.5280  0.1754  1.7105
  712MOL0     H98212   6.456   6.707   3.589  1.2850  0.5097  1.3269
  712MOL0     H98213   6.416   6.829   3.712  0.3539 -1.6791  0.2945
  712MOL0     H98214   6.084   6.505   3.744  0.7296 -0.6395 -1.5173
  712MOL0     H98215   5.985   6.365   3.862 -1.0183  0.4706  1.6833
  712MOL0     H98216   6.049   6.354   4.022  2.0614 -1.3979  0.9511
  712MOL0     H98217   6.069   6.214   3.914 -1.3128 -0.6853  3.4665
  712MOL0     H98218   6.679   6.285   4.261 -2.1280 -3.7503 -1.5193
  712MOL0     H98219   6.722   6.269   4.496 -1.7470 -2.5580  4.0011
  712MOL0     H98220   6.712   6.338   4.704  0.2765 -0.6676  1.0735
  712MOL0     H98221   6.561   6.426   4.726 -3.2715 -1.9218 -3.9769
  712MOL0     H98222   6.641   6.393   4.942 -1.7058  0.6831 -2.1284
  712MOL0     H98223   6.524   6.268   4.922  0.2135 -0.6676  1.1127
  712MOL0     H98224   6.816   6.214   4.856 -1.3819 -1.7659 -2.3880
  712MOL0     H98225   6.690   6.098   4.843 -3.0507 -1.3595  3.5438
  712MOL0     H98226   6.666   6.103   5.091 -0.1522  0.4009  0.5431
  712MOL0     H98227   6.784   6.224   5.119  1.7506  0.5581 -0.5391
  712MOL0     H98228   6.826   5.942   5.012  1.3495 -0.6848  0.9248
  712MOL0     H98229   6.950   6.057   4.983  0.3977  0.1832  1.1251
  712MOL0     H98230   6.968   6.118   5.212  2.6588 -1.5006 -2.7090
  712MOL0     H98231   7.008   5.959   5.194 -0.8792 -1.5355  0.9075
  712MOL0     H98232   6.771   5.892   5.259  1.9867 -2.3196  1.5613
  712MOL0     H98233   6.739   6.053   5.301 -1.2633 -1.9398 -0.8250
  712MOL0     H98234   6.908   6.052   5.493  0.2342 -0.1514  0.5333
  712MOL0     H98235   6.959   5.899   5.451 -1.0447 -1.7233 -0.3253
  712MOL0     H98236   6.291   6.261   4.560  0.5420  3.6261  0.4055
  712MOL0     H98237   6.253   6.296   4.332  0.8858  1.9834 -1.7413
  712MOL0     H98238   6.528   6.467   3.954  2.3230  0.7969 -3.1462
  712MOL0     H98239   6.492   6.631   3.795  0.6686 -0.0675 -0.6866
  712MOL0     H98240   7.646   7.657   2.610 -2.0249 -0.6489 -1.4748
  712MOL0     H98241   7.811   7.835   2.558  0.4492 -1.0730  4.1764
  712MOL0     H98242   8.028   8.179   2.492 -0.3392  0.7580 -1.4838
  712MOL0     H98243   8.177   8.389   2.485  1.9882  1.9944  2.1421
  712MOL0     H98244   8.282   8.733   2.559 -0.3894  1.5433 -0.9680
  712MOL0     H98245   8.299   8.562   2.540 -0.6323 -0.3728 -0.7548
  712MOL0     H98246   8.080   8.757   2.439 -0.0096  0.1797  0.9312
  712MOL0     H98247   8.074   8.587   2.393 -1.1152  0.4643  0.9432
  712MOL0     H98248   8.148   8.704   2.203  1.5721  1.1488  0.1130
  712MOL0     H98249   8.244   8.814   2.294 -1.9790  0.6452  0.4047
  712MOL0     H98250   8.340   8.521   2.267  0.5124 -1.3258 -0.9551
  712MOL0     H98251   8.432   8.662   2.309  2.4760 -2.5224 -1.4386
  712MOL0     H98252   8.435   8.711   1.899  1.9301 -2.2224  0.4517
  712MOL0     H98253   7.949   8.559   2.799  2.3179  0.8355 -0.6821
  712MOL0     H98254   7.691   8.411   2.826 -0.2047  0.5139 -0.2651
  712MOL0     H98255   7.735   8.245   2.857 -2.8017  0.9408 -0.0748
  712MOL0     H98256   7.831   8.368   2.939 -2.1540 -0.2035  1.4790
  713MOL0     O98257   7.067   5.689  11.025 -0.1025  0.1210  0.3136
  713MOL0     C98258   7.122   5.757  10.935  0.7201  0.2260  0.0036
  713MOL0     O98259   7.057   5.794  10.816 -0.1933 -0.2406 -0.1130
  713MOL0     C98260   6.940   5.748  10.765 -0.4812  1.0753 -0.0316
  713MOL0     C98261   6.820   5.723  10.836 -0.1362 -0.0498  0.0080
  713MOL0     C98262   6.707   5.688  10.768 -0.0450 -0.9905  1.1077
  713MOL0     C98263   6.709   5.678  10.626  0.3807  0.2274  0.1961
  713MOL0     O98264   6.602   5.652  10.545 -0.5247 -0.4147  0.8759
  713MOL0     C98265   6.475   5.637  10.611  0.0572 -0.7136 -0.6789
  713MOL0     C98266   6.375   5.648  10.500 -0.7209  0.4524 -0.1585
  713MOL0     C98267   6.236   5.576  10.513 -0.4663  0.4647 -0.8127
  713MOL0     C98268   6.158   5.604  10.388 -0.6914  0.0352 -0.6413
  713MOL0     C98269   6.009   5.575  10.420  0.4797  0.1305  0.9556
  713MOL0     C98270   5.912   5.600  10.315 -0.1102 -0.2898  0.0111
  713MOL0     C98271   5.779   5.531  10.338  0.0511  0.1563 -0.0734
  713MOL0     C98272   5.701   5.512  10.209 -0.1279 -0.6269 -0.0959
  713MOL0     N98273   5.567   5.462  10.241  0.5811  0.1981 -0.2832
  713MOL0     C98274   5.529   5.334  10.217 -0.0067 -0.7824 -0.9387
  713MOL0     C98275   5.396   5.335  10.227 -0.3390 -0.9385 -0.0758
  713MOL0     C98276   5.306   5.216  10.211  0.0505  0.2525  0.0384
  713MOL0     C98277   5.214   5.223  10.095  0.1049 -0.6481  0.6102
  713MOL0     C98278   5.066   5.229  10.134 -0.6072 -0.1010 -0.3945
  713MOL0     C98279   5.025   5.346  10.226 -0.0853 -0.0729 -0.5180
  713MOL0     O98280   4.896   5.398  10.198 -0.1538  0.0504 -0.3148
  713MOL0     C98281   4.821   5.471  10.281 -0.5984 -0.2496  0.7867
  713MOL0     C98282   4.868   5.552  10.385  0.4639  0.1586 -0.1818
  713MOL0     C98283   4.786   5.618  10.475  0.6819  0.7645 -0.1685
  713MOL0     C98284   4.860   5.714  10.575 -0.3881 -0.1171 -0.1927
  713MOL0     C98285   4.648   5.600  10.467  0.6628 -0.2354  0.0133
  713MOL0     C98286   4.546   5.664  10.550 -0.6634  1.0373  0.2381
  713MOL0     O98287   4.580   5.699  10.675  0.8904 -0.4033  0.4459
  713MOL0     C98288   4.495   5.777  10.753 -0.3744 -0.4556 -0.5538
  713MOL0     C98289   4.491   5.763  10.896 -0.7117  0.1123  0.3487
  713MOL0     C98290   4.399   5.829  10.981 -0.9240 -0.1263  0.8575
  713MOL0     C98291   4.310   5.931  10.930 -0.0354  0.3586  0.4365
  713MOL0     O98292   4.235   6.019  11.010  0.0434 -0.2764 -0.8171
  713MOL0     C98293   4.188   5.966  11.137 -0.8900 -1.1846 -0.2033
  713MOL0     C98294   4.112   6.075  11.196  0.8208 -0.2486 -0.5019
  713MOL0     C98295   3.959   6.079  11.157 -0.3187 -0.0444  0.0099
  713MOL0     C98296   3.909   6.220  11.162 -0.5085 -0.6379  0.3116
  713MOL0     C98297   3.770   6.224  11.224  1.0427  1.0051 -0.4881
  713MOL0     C98298   3.675   6.168  11.122  0.2838  0.1141 -0.0057
  713MOL0     C98299   3.528   6.221  11.129 -0.0059  0.6952  0.4552
  713MOL0     C98300   3.435   6.142  11.032  0.3527 -0.9615  0.6846
  713MOL0    Cl98301   3.490   6.114  10.859  0.4225  0.0183  0.0462
  713MOL0     C98302   4.317   5.952  10.784 -0.8915 -0.4585 -0.3132
  713MOL0     C98303   4.413   5.885  10.707 -1.2770  0.3802 -0.4053
  713MOL0     O98304   4.439   5.678  10.499  0.1107  0.8982  0.1049
  713MOL0     C98305   4.604   5.529  10.353 -0.2164  0.6797 -0.2370
  713MOL0     C98306   4.688   5.467  10.264  0.2391  0.5005 -0.0742
  713MOL0     N98307   5.358   5.462  10.266  0.2411  0.0704 -0.1942
  713MOL0     N98308   5.465   5.531  10.285 -0.4041 -0.5643 -0.4478
  713MOL0     C98309   6.827   5.691  10.558 -1.3001  0.4506 -1.6292
  713MOL0     C98310   6.946   5.716  10.626 -0.1578 -0.0475 -0.4808
  713MOL0     C98311   7.267   5.799  10.938  0.1881 -0.1499  0.4142
  713MOL0     C98312   7.297   5.918  10.874  0.4142 -0.6243 -0.1722
  713MOL0     C98313   7.422   5.975  10.899  0.6581  0.1602  0.3005
  713MOL0     C98314   7.511   5.908  10.983  0.1710  1.2514  0.5924
  713MOL0     O98315   7.638   5.946  11.004  0.0113 -1.1483  0.4280
  713MOL0     C98316   7.649   6.085  11.030  0.3052  0.2144  0.4416
  713MOL0     C98317   7.782   6.123  11.099 -0.1591  0.5527  0.2777
  713MOL0     C98318   7.911   6.139  11.011 -0.2753 -0.5194 -0.1338
  713MOL0     C98319   8.029   6.166  11.105 -1.0593  1.2043 -0.3636
  713MOL0     C98320   8.164   6.151  11.052 -0.2586  0.5174 -0.4759
  713MOL0     C98321   8.280   6.130  11.027  0.0946  0.7052  0.5410
  713MOL0     C98322   7.479   5.783  11.033  0.1628  0.8119  0.1228
  713MOL0     C98323   7.356   5.717  11.008  0.7453  0.5354  0.1864
  713MOL0     C98324   7.336   5.571  11.054 -0.0679  0.2499 -1.3513
  713MOL0     H98325   6.824   5.736  10.944  0.3006  1.6446 -0.1847
  713MOL0     H98326   6.617   5.692  10.829  0.1706  0.3816  1.3471
  713MOL0     H98327   6.448   5.717  10.680 -2.0402 -0.4832 -1.6841
  713MOL0     H98328   6.473   5.542  10.663 -1.6397  0.4975  1.6240
  713MOL0     H98329   6.371   5.750  10.462  2.0281 -0.5219 -3.6200
  713MOL0     H98330   6.419   5.603  10.410  0.6541  3.0082 -0.8748
  713MOL0     H98331   6.245   5.467  10.518 -3.2097  0.2598  2.3113
  713MOL0     H98332   6.190   5.629  10.597 -1.3259 -0.2488 -0.8244
  713MOL0     H98333   6.178   5.703  10.347  0.0779  0.9814  1.8130
  713MOL0     H98334   6.194   5.537  10.309  1.7644  0.3775  0.0926
  713MOL0     H98335   5.972   5.629  10.508 -0.9849 -1.6900  1.5316
  713MOL0     H98336   6.006   5.467  10.436 -4.0812 -0.1045 -0.0701
  713MOL0     H98337   5.905   5.707  10.292  2.5645  0.4301  2.0963
  713MOL0     H98338   5.965   5.547  10.236  3.0764  1.0483  1.1175
  713MOL0     H98339   5.712   5.589  10.401 -0.6477  2.1572 -2.5001
  713MOL0     H98340   5.794   5.433  10.383  3.1764  0.2116 -0.7443
  713MOL0     H98341   5.680   5.615  10.180  0.3419  0.3272  2.6238
  713MOL0     H98342   5.749   5.453  10.131 -0.3873 -2.5640  1.1384
  713MOL0     H98343   5.590   5.251  10.184  2.7310  0.2084  1.2448
  713MOL0     H98344   5.253   5.201  10.306 -1.0550 -3.1893 -0.9555
  713MOL0     H98345   5.367   5.127  10.191 -0.1136  0.2159 -0.2931
  713MOL0     H98346   5.218   5.318  10.041 -0.6708  0.3716  2.2662
  713MOL0     H98347   5.242   5.147  10.022 -0.0902  0.1396 -0.3031
  713MOL0     H98348   4.996   5.226  10.051 -0.9938  1.7471 -0.1781
  713MOL0     H98349   5.052   5.138  10.194 -1.0415 -0.4667 -1.0345
  713MOL0     H98350   5.011   5.302  10.325  0.7028  1.2277  0.1963
  713MOL0     H98351   5.101   5.424  10.218 -0.4269  0.1397 -1.9771
  713MOL0     H98352   4.976   5.567  10.380  0.2565  1.8893 -0.0074
  713MOL0     H98353   4.939   5.661  10.628  1.2871  2.1958 -0.2011
  713MOL0     H98354   4.808   5.753  10.663 -1.0575  0.4393 -0.8210
  713MOL0     H98355   4.903   5.797  10.518 -1.7384  1.1180  0.5310
  713MOL0     H98356   4.564   5.694  10.938 -0.6154  0.4470  0.7434
  713MOL0     H98357   4.422   5.827  11.087  0.2712  2.1631  0.7000
  713MOL0     H98358   4.119   5.882  11.128 -0.0980 -2.4430  3.6700
  713MOL0     H98359   4.264   5.935  11.209  0.5242 -1.6598 -1.8279
  713MOL0     H98360   4.102   6.067  11.304 -2.5524  1.1451 -0.6033
  713MOL0     H98361   4.155   6.174  11.178 -0.1280  0.1397 -0.6438
  713MOL0     H98362   3.911   6.008  11.226 -1.2583  0.3020 -0.2714
  713MOL0     H98363   3.951   6.039  11.056 -1.1527 -1.0490  0.4542
  713MOL0     H98364   3.911   6.270  11.065  2.6544 -0.0731  0.5919
  713MOL0     H98365   3.969   6.293  11.217  1.4604 -2.2156  0.3385
  713MOL0     H98366   3.788   6.158  11.309  1.1929 -0.5685 -1.6886
  713MOL0     H98367   3.737   6.324  11.254 -0.2465  0.3953  0.2209
  713MOL0     H98368   3.677   6.060  11.140  0.8614  0.0309 -0.5087
  713MOL0     H98369   3.701   6.178  11.016  2.3115  0.6959  0.5046
  713MOL0     H98370   3.509   6.325  11.101 -4.2607  1.3227  4.3502
  713MOL0     H98371   3.492   6.207  11.231 -1.3475 -0.0214 -0.0939
  713MOL0     H98372   3.344   6.203  11.039 -0.2969 -1.7437 -0.4262
  713MOL0     H98373   3.411   6.043  11.072  0.2354 -0.7838  1.0561
  713MOL0     H98374   4.259   6.039  10.758  1.9030  1.2371 -1.3889
  713MOL0     H98375   4.424   5.919  10.604  1.7222  0.8595 -0.0078
  713MOL0     H98376   4.498   5.509  10.348  0.2074 -2.2962  0.8811
  713MOL0     H98377   4.639   5.417  10.181 -2.0022  1.6957  0.4621
  713MOL0     H98378   6.847   5.673  10.453  2.0438 -2.3567 -0.6984
  713MOL0     H98379   7.042   5.714  10.574 -1.6003 -1.1958 -3.3080
  713MOL0     H98380   7.219   5.966  10.817  1.4231  1.2955 -0.0113
  713MOL0     H98381   7.459   6.059  10.841  0.5842  0.1913  0.2975
  713MOL0     H98382   7.656   6.147  10.941  1.5224  1.6245  1.4780
  713MOL0     H98383   7.564   6.114  11.093  1.6016  1.0837  1.8494
  713MOL0     H98384   7.809   6.045  11.170  3.8129  0.9174 -0.5960
  713MOL0     H98385   7.765   6.220  11.146 -0.7275  0.2433  0.7260
  713MOL0     H98386   7.922   6.054  10.943 -1.0082 -1.0891  0.4405
  713MOL0     H98387   7.898   6.227  10.947  3.9348  0.4327  0.0779
  713MOL0     H98388   8.021   6.098  11.190  1.4714 -0.2609 -1.1954
  713MOL0     H98389   8.014   6.271  11.132 -0.1277  2.3322 -3.8343
  713MOL0     H98390   8.386   6.133  11.008 -0.0172  0.4913 -0.1178
  713MOL0     H98391   7.556   5.731  11.089  0.7495  0.6684 -0.8002
  713MOL0     H98392   7.269   5.509  10.994  0.9818 -0.5148 -1.7545
  713MOL0     H98393   7.429   5.514  11.048 -1.4877 -2.5284  0.6756
  713MOL0     H98394   7.311   5.568  11.161  2.0057  2.8107 -0.6721
  714MOL0     O98395   7.141   7.072   9.834  0.0371 -0.8800 -0.1421
  714MOL0     C98396   7.128   7.063   9.959  0.3514  0.0753  0.0899
  714MOL0     O98397   7.131   7.169  10.048  0.1776  0.6743 -0.0347
  714MOL0     C98398   7.133   7.292   9.998 -0.7882 -0.1975 -0.1607
  714MOL0     C98399   7.261   7.356   9.976 -0.0753  0.6314 -0.0903
  714MOL0     C98400   7.270   7.489   9.934 -0.1869  0.0352  0.1373
  714MOL0     C98401   7.149   7.557   9.906 -0.6819  0.0516 -0.8885
  714MOL0     O98402   7.152   7.686   9.857  0.0991  0.0645  0.6567
  714MOL0     C98403   7.245   7.776   9.910  0.1793 -0.0509  0.1608
  714MOL0     C98404   7.183   7.915   9.889  0.2878  0.7352  0.3052
  714MOL0     C98405   7.081   7.951   9.998  0.3360  0.3795  0.3405
  714MOL0     C98406   7.010   8.079   9.961  1.1889  0.1238 -0.2354
  714MOL0     C98407   7.103   8.196   9.910 -0.2476  0.2284 -0.9166
  714MOL0     C98408   7.030   8.318   9.854 -0.3838  0.1334  0.5134
  714MOL0     C98409   7.101   8.442   9.919  1.2213 -0.2099  1.1141
  714MOL0     C98410   7.097   8.579   9.834  0.6013 -0.2896 -0.8034
  714MOL0     N98411   7.113   8.558   9.688 -0.0252  0.5639  0.6432
  714MOL0     C98412   7.237   8.550   9.623 -0.8414  0.1762 -0.7116
  714MOL0     C98413   7.207   8.551   9.490 -0.4034 -0.6945  0.4553
  714MOL0     C98414   7.288   8.554   9.370  0.0810 -0.1988  0.2357
  714MOL0     C98415   7.435   8.604   9.398  0.1021 -0.1276  0.6371
  714MOL0     C98416   7.505   8.657   9.266 -1.1028 -0.0291  0.1028
  714MOL0     C98417   7.648   8.702   9.296  0.2091 -0.3098  0.1560
  714MOL0     O98418   7.730   8.604   9.346 -0.3824 -0.0338  0.5024
  714MOL0     C98419   7.853   8.639   9.392 -0.7419  0.8845 -0.0392
  714MOL0     C98420   7.947   8.537   9.429 -0.4477  0.1604 -0.1750
  714MOL0     C98421   8.087   8.563   9.449 -0.3673 -0.1811  0.1041
  714MOL0     C98422   8.178   8.448   9.449 -0.2167 -0.0293 -0.3233
  714MOL0     C98423   8.127   8.698   9.463 -0.4043 -0.1081 -0.3795
  714MOL0     C98424   8.262   8.752   9.489 -0.0163 -0.1830 -0.6789
  714MOL0     O98425   8.363   8.660   9.483  0.4188  0.3827  0.0264
  714MOL0     C98426   8.492   8.694   9.484 -1.0226 -0.0717  0.8545
  714MOL0     C98427   8.549   8.797   9.401  0.4228  0.4965 -0.9709
  714MOL0     C98428   8.688   8.826   9.408 -0.1897  0.9415 -0.0397
  714MOL0     C98429   8.769   8.747   9.492 -0.3155  0.1820 -0.4283
  714MOL0     O98430   8.906   8.774   9.484  0.1046 -0.0292 -0.1769
  714MOL0     C98431   8.987   8.669   9.534 -0.9293  0.3115 -0.2761
  714MOL0     C98432   9.128   8.717   9.522 -0.2272 -0.4541  0.1574
  714MOL0     C98433   9.228   8.607   9.547  0.5829 -0.4422  0.7800
  714MOL0     C98434   9.357   8.645   9.484 -0.4363  0.2988  0.1464
  714MOL0     C98435   9.469   8.551   9.517 -0.1893  0.5673 -0.1683
  714MOL0     C98436   9.471   8.426   9.431 -0.5205  0.1678  0.6956
  714MOL0     C98437   9.495   8.465   9.281  0.2393  0.2495 -0.4412
  714MOL0     C98438   9.490   8.351   9.179  0.7459  0.6838  0.6600
  714MOL0    Cl98439   9.524   8.420   9.016 -0.4750 -0.1820 -0.1081
  714MOL0     C98440   8.713   8.648   9.571  0.3403  0.1764  0.4516
  714MOL0     C98441   8.578   8.625   9.563 -0.4247  0.5144  0.3357
  714MOL0     O98442   8.277   8.876   9.521 -0.5138 -0.2817  0.0761
  714MOL0     C98443   8.028   8.802   9.439  0.2424  0.2953  0.4272
  714MOL0     C98444   7.901   8.773   9.403  0.1189 -1.3039 -0.5422
  714MOL0     N98445   7.067   8.562   9.480 -0.4855  0.3622  0.6054
  714MOL0     N98446   7.017   8.544   9.594  0.3950 -0.1687  0.1508
  714MOL0     C98447   7.019   7.501   9.934 -0.2323 -0.5766 -0.2932
  714MOL0     C98448   7.014   7.367   9.990  0.0415 -0.7085 -0.1954
  714MOL0     C98449   7.110   6.926  10.015  1.0108  0.2736  0.5749
  714MOL0     C98450   7.056   6.912  10.150 -0.3201  0.0715  0.1666
  714MOL0     C98451   7.030   6.787  10.199 -0.1747 -0.4423 -0.7147
  714MOL0     C98452   7.071   6.671  10.141 -0.0279 -0.7156  0.3949
  714MOL0     O98453   7.050   6.551  10.207 -0.9148 -0.4455  0.3629
  714MOL0     C98454   7.164   6.462  10.207  0.7885  1.0976 -0.2022
  714MOL0     C98455   7.125   6.319  10.147 -0.6879 -0.4912 -0.5492
  714MOL0     C98456   7.069   6.346  10.005  0.1702  0.2176 -0.3099
  714MOL0     C98457   7.010   6.218   9.950 -0.3151 -0.0380 -0.3741
  714MOL0     C98458   7.102   6.111   9.924 -0.0508  0.3221 -0.7533
  714MOL0     C98459   7.186   6.031   9.898 -0.1169  0.3295  0.0702
  714MOL0     C98460   7.112   6.683  10.008 -0.1417  0.5189 -0.3083
  714MOL0     C98461   7.133   6.804   9.940  0.9096  0.1347  0.0754
  714MOL0     C98462   7.172   6.796   9.791  0.1288 -0.5372  1.6320
  714MOL0     H98463   7.351   7.297   9.992 -0.3379  0.2247 -0.1094
  714MOL0     H98464   7.364   7.539   9.915  0.5627 -0.6014  1.9957
  714MOL0     H98465   7.343   7.752   9.868 -0.5277  1.3756 -2.5407
  714MOL0     H98466   7.251   7.766  10.019 -0.1158  0.9885  0.2829
  714MOL0     H98467   7.268   7.982   9.874  0.4211  0.1313 -2.1181
  714MOL0     H98468   7.130   7.917   9.793 -0.6297  1.8801  0.8076
  714MOL0     H98469   7.009   7.869  10.004  0.7871 -0.4941 -3.6605
  714MOL0     H98470   7.128   7.963  10.096  0.8111  1.5003 -0.0095
  714MOL0     H98471   6.933   8.071   9.883  2.3597  0.2849 -1.4532
  714MOL0     H98472   6.962   8.112  10.053  0.0542 -1.1557 -0.3340
  714MOL0     H98473   7.169   8.160   9.831  2.1641 -0.0940  1.0936
  714MOL0     H98474   7.168   8.221   9.995 -0.8582  0.2508 -0.4512
  714MOL0     H98475   7.062   8.318   9.750  0.6385  0.8544  0.8147
  714MOL0     H98476   6.922   8.324   9.873 -0.2808  1.0848  0.8592
  714MOL0     H98477   7.206   8.410   9.921  1.5027  0.3212 -1.6092
  714MOL0     H98478   7.065   8.457  10.021  2.9676 -2.7188  2.2069
  714MOL0     H98479   7.006   8.635   9.856 -0.2542 -1.8740 -0.2044
  714MOL0     H98480   7.180   8.644   9.864  1.5205 -1.6953 -0.1629
  714MOL0     H98481   7.332   8.542   9.675 -0.2009 -3.4312 -2.1533
  714MOL0     H98482   7.239   8.605   9.286  1.2917 -1.6286 -1.3966
  714MOL0     H98483   7.298   8.449   9.343  0.2785 -0.8627  2.6556
  714MOL0     H98484   7.432   8.688   9.468 -1.2741 -1.7740  2.6708
  714MOL0     H98485   7.497   8.520   9.431 -0.4029 -1.0808 -0.7762
  714MOL0     H98486   7.505   8.589   9.181  0.0594  1.8715 -1.5005
  714MOL0     H98487   7.455   8.747   9.230  0.0664 -0.0559 -1.6911
  714MOL0     H98488   7.709   8.734   9.211  0.3394  0.0564  0.3840
  714MOL0     H98489   7.642   8.787   9.365  4.5178  0.1358  0.2313
  714MOL0     H98490   7.913   8.435   9.418 -2.4706  0.8354 -0.7176
  714MOL0     H98491   8.251   8.444   9.530  0.1968  0.7911 -0.6537
  714MOL0     H98492   8.240   8.440   9.359  0.0985  0.4318 -0.1490
  714MOL0     H98493   8.110   8.362   9.453  0.2779 -0.5136 -1.5863
  714MOL0     H98494   8.482   8.852   9.336 -2.2688 -0.1778  1.0388
  714MOL0     H98495   8.730   8.907   9.349  0.2797  0.6236 -0.1480
  714MOL0     H98496   8.957   8.642   9.635 -0.0112 -0.3034 -0.1477
  714MOL0     H98497   8.980   8.580   9.471  2.0890 -0.7236  0.6497
  714MOL0     H98498   9.141   8.743   9.416 -1.3303  2.3263  0.6141
  714MOL0     H98499   9.147   8.793   9.598  0.9159 -3.2032  2.8204
  714MOL0     H98500   9.198   8.510   9.507 -1.5048 -0.4077  2.1214
  714MOL0     H98501   9.231   8.603   9.657  1.1357  0.0463  0.7869
  714MOL0     H98502   9.387   8.741   9.529  1.0678  0.0715 -0.3209
  714MOL0     H98503   9.347   8.675   9.380  2.7994  1.2102 -0.0030
  714MOL0     H98504   9.569   8.591   9.532  0.1455 -0.1152 -0.5308
  714MOL0     H98505   9.448   8.515   9.619 -2.0191 -0.3350 -0.8066
  714MOL0     H98506   9.381   8.365   9.442  2.6504 -6.3141 -2.9971
  714MOL0     H98507   9.556   8.360   9.454  0.4648  2.0303  2.8149
  714MOL0     H98508   9.591   8.516   9.269  0.2156  0.7656  1.3071
  714MOL0     H98509   9.418   8.534   9.243 -2.1404 -2.5546 -1.0483
  714MOL0     H98510   9.389   8.309   9.176  0.7506  0.7457 -1.5695
  714MOL0     H98511   9.555   8.268   9.207  1.7972  0.9380 -0.9237
  714MOL0     H98512   8.772   8.596   9.645 -0.7789 -1.2633  0.3812
  714MOL0     H98513   8.531   8.551   9.627 -2.0216  3.3135  2.6541
  714MOL0     H98514   8.059   8.906   9.443  3.5618 -0.5842  0.0337
  714MOL0     H98515   7.837   8.857   9.378  1.4504 -0.1628 -0.1666
  714MOL0     H98516   6.928   7.558   9.924  0.3607  0.2947 -0.9568
  714MOL0     H98517   6.919   7.321  10.017  0.6724 -1.3778  0.9664
  714MOL0     H98518   7.030   7.000  10.207  1.1992  0.7235 -0.1015
  714MOL0     H98519   6.993   6.778  10.301  2.9863 -0.5878  0.5486
  714MOL0     H98520   7.245   6.508  10.148 -1.7845  3.4351 -2.1814
  714MOL0     H98521   7.200   6.447  10.309  1.9075  1.9061 -0.4474
  714MOL0     H98522   7.045   6.276  10.209  0.3320  0.8269  1.7753
  714MOL0     H98523   7.207   6.247  10.141  0.8989  1.2649 -0.5615
  714MOL0     H98524   6.988   6.418  10.023  0.4517  0.8750 -1.5967
  714MOL0     H98525   7.146   6.391   9.943  0.9760  1.1455  1.2916
  714MOL0     H98526   6.974   6.250   9.851  0.1746  0.9664 -0.2389
  714MOL0     H98527   6.923   6.193  10.011  1.9944 -1.6406  2.4854
  714MOL0     H98528   7.263   5.966   9.860  0.2844  1.8390 -1.8251
  714MOL0     H98529   7.138   6.594   9.951  1.3376  0.2232  0.7639
  714MOL0     H98530   7.278   6.822   9.797 -0.3434  1.7490  1.1612
  714MOL0     H98531   7.147   6.701   9.743 -2.3669 -0.7157  3.1171
  714MOL0     H98532   7.107   6.868   9.740  1.5859  0.1662  0.7020
  715MOL0     O98533   7.228   1.753   4.812 -0.1863  0.3470 -0.4992
  715MOL0     C98534   7.278   1.767   4.703 -0.4187 -0.6607  0.0503
  715MOL0     O98535   7.215   1.819   4.587 -0.7513  0.2552  0.2803
  715MOL0     C98536   7.080   1.850   4.596  0.3492 -0.0266 -0.8626
  715MOL0     C98537   7.044   1.975   4.547  0.3157  0.2041  0.2084
  715MOL0     C98538   6.907   2.011   4.544 -0.1426 -0.5697  0.1285
  715MOL0     C98539   6.805   1.924   4.564 -0.0338  0.3216  0.6751
  715MOL0     O98540   6.683   1.982   4.548  0.5046 -0.2872 -0.2566
  715MOL0     C98541   6.570   1.921   4.610  0.4288 -0.3779 -0.5612
  715MOL0     C98542   6.437   1.996   4.597 -0.0647 -0.2895  0.1136
  715MOL0     C98543   6.460   2.140   4.625 -0.3802  0.2055  0.4885
  715MOL0     C98544   6.325   2.211   4.627  0.6471 -0.4950 -0.2530
  715MOL0     C98545   6.324   2.345   4.699  0.9642 -0.2430 -0.3613
  715MOL0     C98546   6.177   2.392   4.713 -0.7175 -0.0116  0.2738
  715MOL0     C98547   6.126   2.484   4.604  0.0725 -1.1070 -0.4068
  715MOL0     C98548   5.981   2.528   4.631 -0.8441  0.0100 -0.8265
  715MOL0     N98549   5.974   2.604   4.761 -0.4079  0.0846  0.2209
  715MOL0     C98550   6.049   2.718   4.800  0.2025  0.3970  0.0040
  715MOL0     C98551   6.011   2.749   4.924  0.9741 -0.3578 -0.3020
  715MOL0     C98552   6.081   2.856   5.009  0.9072 -0.6585  0.7492
  715MOL0     C98553   6.039   2.855   5.158 -0.4429  0.9165 -0.4670
  715MOL0     C98554   6.152   2.905   5.263  0.8055 -0.2677  0.3908
  715MOL0     C98555   6.242   2.783   5.298  0.7179 -0.4622 -0.2021
  715MOL0     O98556   6.369   2.842   5.338  0.0938  0.5249 -0.5353
  715MOL0     C98557   6.377   2.870   5.473 -0.8176  0.4629 -0.5499
  715MOL0     C98558   6.353   3.004   5.528  1.0086  0.2620  0.0802
  715MOL0     C98559   6.363   3.017   5.670 -0.4310 -0.3105 -0.5348
  715MOL0     C98560   6.348   3.154   5.729 -0.1785 -0.0001  0.9943
  715MOL0     C98561   6.385   2.900   5.761 -0.4671  0.0410 -0.3108
  715MOL0     C98562   6.379   2.907   5.910  0.0520 -0.1910  0.8248
  715MOL0     O98563   6.351   3.028   5.979  0.2727 -0.1526 -0.4953
  715MOL0     C98564   6.371   3.037   6.120  0.2894 -0.1090  0.3370
  715MOL0     C98565   6.321   3.145   6.179  0.1827 -0.4046 -0.0080
  715MOL0     C98566   6.327   3.162   6.313 -0.2983 -0.1640  0.0543
  715MOL0     C98567   6.395   3.066   6.397  0.4323  0.4981 -0.7515
  715MOL0     O98568   6.421   3.101   6.531  0.3281  0.8030  0.8427
  715MOL0     C98569   6.477   2.998   6.620 -0.0368 -0.0118 -0.5474
  715MOL0     C98570   6.628   2.976   6.595 -0.6174  0.9885  0.2673
  715MOL0     C98571   6.659   2.832   6.632  0.4981  0.0731  1.0187
  715MOL0     C98572   6.652   2.812   6.775 -0.0154  0.2231 -0.5040
  715MOL0     C98573   6.744   2.896   6.864 -0.0960 -0.1810  0.4829
  715MOL0     C98574   6.783   2.830   7.000  0.5048 -0.0460  0.7034
  715MOL0     C98575   6.858   2.935   7.090  0.7456 -0.7972  0.9196
  715MOL0     C98576   6.920   2.873   7.212 -0.1678  1.0222  0.2648
  715MOL0    Cl98577   6.974   2.991   7.329 -0.2033  0.6139  0.3131
  715MOL0     C98578   6.442   2.957   6.334  0.2418  0.3762 -0.4101
  715MOL0     C98579   6.434   2.940   6.201 -0.0198 -0.4184  0.8913
  715MOL0     O98580   6.382   2.802   5.963  1.0511  0.7550  0.0858
  715MOL0     C98581   6.396   2.775   5.699 -0.0776 -0.5212  0.3051
  715MOL0     C98582   6.399   2.759   5.561  0.6957  0.0820  0.1061
  715MOL0     N98583   5.903   2.654   4.955  0.3326  0.6468 -0.6535
  715MOL0     N98584   5.895   2.567   4.864 -0.5258  0.3463  0.3433
  715MOL0     C98585   6.840   1.796   4.613  0.6713  0.1750  0.8761
  715MOL0     C98586   6.975   1.766   4.642 -0.5517 -0.5012 -0.9305
  715MOL0     C98587   7.428   1.741   4.690  0.6790  0.5133  1.0102
  715MOL0     C98588   7.487   1.753   4.560  0.3667  0.5529 -0.5910
  715MOL0     C98589   7.624   1.739   4.551 -0.8123  0.5205  0.2323
  715MOL0     C98590   7.707   1.685   4.650  0.0083  0.2393 -0.0066
  715MOL0     O98591   7.845   1.658   4.641  0.3002  0.0076 -0.6610
  715MOL0     C98592   7.924   1.772   4.628 -0.2506  0.2987 -1.0656
  715MOL0     C98593   8.047   1.732   4.552 -0.4425  0.1971  0.8192
  715MOL0     C98594   8.145   1.665   4.649  0.2407  1.0502 -0.1343
  715MOL0     C98595   8.272   1.605   4.586 -1.0258  0.2118  0.1299
  715MOL0     C98596   8.343   1.703   4.503  1.5157  0.6474 -0.0541
  715MOL0     C98597   8.413   1.779   4.442 -0.5566 -0.1996  0.7370
  715MOL0     C98598   7.651   1.675   4.778  0.0451  0.1831 -0.0197
  715MOL0     C98599   7.516   1.707   4.801  0.1304  0.1820  0.1778
  715MOL0     C98600   7.471   1.691   4.953 -0.4387  0.1667  0.2314
  715MOL0     H98601   7.122   2.041   4.512 -1.3352  2.6627  0.9047
  715MOL0     H98602   6.890   2.110   4.501 -1.1964 -1.5945 -1.9453
  715MOL0     H98603   6.592   1.897   4.714 -0.0035 -1.3008 -0.6755
  715MOL0     H98604   6.544   1.833   4.550  0.3375 -1.2848  0.7752
  715MOL0     H98605   6.389   1.980   4.500  1.8068 -1.2498 -0.7040
  715MOL0     H98606   6.388   1.948   4.683  3.0214 -0.2968  2.0080
  715MOL0     H98607   6.516   2.166   4.715  0.8530  0.6317 -0.3807
  715MOL0     H98608   6.518   2.186   4.544 -0.9398 -2.6432 -1.6990
  715MOL0     H98609   6.280   2.223   4.528  2.9298  0.6277 -1.2109
  715MOL0     H98610   6.253   2.149   4.681 -0.6087  0.8305 -0.3467
  715MOL0     H98611   6.374   2.431   4.654  0.5159  1.4954  2.2186
  715MOL0     H98612   6.367   2.340   4.800  0.6162  1.6024 -0.0833
  715MOL0     H98613   6.116   2.301   4.712 -1.0267 -0.1995  5.5628
  715MOL0     H98614   6.177   2.442   4.810 -0.7263 -0.5964  0.5812
  715MOL0     H98615   6.137   2.438   4.505  0.9336  0.5741 -1.1262
  715MOL0     H98616   6.189   2.573   4.599  0.1235 -1.1302 -0.1849
  715MOL0     H98617   5.958   2.597   4.549  2.5234  0.3932 -1.6407
  715MOL0     H98618   5.910   2.446   4.635 -1.4493  0.5520 -0.2950
  715MOL0     H98619   6.131   2.770   4.751  1.5823 -1.3870  0.2803
  715MOL0     H98620   6.074   2.958   4.972 -0.0761 -1.4437 -1.4110
  715MOL0     H98621   6.190   2.848   5.013  1.2371  1.3071 -1.8458
  715MOL0     H98622   5.950   2.918   5.154 -1.5154 -0.3733  1.4091
  715MOL0     H98623   6.012   2.758   5.200  2.3093  0.8515  1.4720
  715MOL0     H98624   6.207   2.987   5.218  0.1294 -0.0963 -0.1436
  715MOL0     H98625   6.109   2.944   5.355  2.9665  0.9372  0.9575
  715MOL0     H98626   6.203   2.724   5.381  1.8164 -0.8016  0.0819
  715MOL0     H98627   6.266   2.719   5.213  5.0193  1.2642 -0.5582
  715MOL0     H98628   6.338   3.087   5.459 -2.1939  0.5769  0.9720
  715MOL0     H98629   6.436   3.150   5.794  2.0359 -0.4766 -1.8329
  715MOL0     H98630   6.253   3.161   5.783 -0.5386 -2.3141  0.7540
  715MOL0     H98631   6.362   3.239   5.661 -4.5543 -0.0848 -0.3013
  715MOL0     H98632   6.260   3.207   6.114 -0.3909 -0.9015  0.0499
  715MOL0     H98633   6.290   3.252   6.361  0.8590  0.3392  0.0265
  715MOL0     H98634   6.465   3.034   6.723  1.9130  1.7717 -0.8712
  715MOL0     H98635   6.426   2.903   6.601  2.1855 -1.1739 -1.0126
  715MOL0     H98636   6.652   3.012   6.495 -3.7834  4.3678  0.5203
  715MOL0     H98637   6.690   3.044   6.654 -0.3816 -1.5922  3.2433
  715MOL0     H98638   6.762   2.810   6.602  0.1160  0.1777 -0.4797
  715MOL0     H98639   6.603   2.760   6.571  1.9952  0.5779 -1.0598
  715MOL0     H98640   6.684   2.707   6.782 -1.2710 -0.1583 -0.1381
  715MOL0     H98641   6.550   2.814   6.817 -0.8352 -0.1925 -2.3892
  715MOL0     H98642   6.836   2.923   6.810 -0.6262 -2.0685 -1.5364
  715MOL0     H98643   6.688   2.986   6.891  1.9113  1.8205 -1.5263
  715MOL0     H98644   6.850   2.746   6.981 -1.3721 -1.3526 -0.5687
  715MOL0     H98645   6.687   2.799   7.044 -1.0111  1.0475 -1.5953
  715MOL0     H98646   6.789   3.014   7.121 -0.2835 -0.8474 -1.0875
  715MOL0     H98647   6.938   2.977   7.030 -2.6754  2.1418 -2.0415
  715MOL0     H98648   7.003   2.809   7.183 -2.0642 -0.8189 -1.4323
  715MOL0     H98649   6.857   2.803   7.268  2.0276  0.7349  2.5624
  715MOL0     H98650   6.487   2.875   6.388  0.7805  0.2597 -1.0327
  715MOL0     H98651   6.485   2.852   6.163  1.3750  1.0394 -0.7746
  715MOL0     H98652   6.405   2.683   5.756  1.2249 -1.4103 -1.2218
  715MOL0     H98653   6.401   2.659   5.518  2.9004  0.5754 -1.0967
  715MOL0     H98654   6.765   1.721   4.634  1.2331 -0.7809 -0.3997
  715MOL0     H98655   6.997   1.674   4.695  0.6605 -1.1175 -2.4124
  715MOL0     H98656   7.422   1.787   4.481 -2.3511  0.8037  1.5946
  715MOL0     H98657   7.675   1.741   4.455 -1.0523 -3.7968 -0.1488
  715MOL0     H98658   7.881   1.858   4.575 -1.6064  1.1058  1.2229
  715MOL0     H98659   7.949   1.800   4.730 -1.1201 -3.3998  0.3048
  715MOL0     H98660   8.095   1.822   4.512  0.5827 -0.0574  1.4352
  715MOL0     H98661   8.013   1.673   4.467 -0.4956  2.0185 -0.4705
  715MOL0     H98662   8.172   1.735   4.728  0.5677  1.2018 -0.3806
  715MOL0     H98663   8.085   1.583   4.690  2.6164 -2.7206 -3.4997
  715MOL0     H98664   8.253   1.513   4.530  0.3736  0.5638 -0.9919
  715MOL0     H98665   8.340   1.574   4.666 -2.4108 -2.2164  0.4591
  715MOL0     H98666   8.479   1.847   4.391 -0.6128 -0.1273  0.7617
  715MOL0     H98667   7.714   1.643   4.860 -1.8223 -2.7511  0.4429
  715MOL0     H98668   7.377   1.637   4.967  1.4198 -2.9626  1.5678
  715MOL0     H98669   7.537   1.641   5.024 -0.3497  1.9941  1.5063
  715MOL0     H98670   7.443   1.787   4.997  0.1958 -0.8190  3.0047
  716MOL0     O98671   0.083   0.862   8.540 -0.2788  0.0453 -0.1868
  716MOL0     C98672   0.122   0.899   8.430 -1.0249  0.0022  0.7000
  716MOL0     O98673   0.093   1.016   8.371 -0.3814 -0.0934  0.6730
  716MOL0     C98674  -0.015   1.083   8.429  0.3477 -0.1768 -0.4479
  716MOL0     C98675  -0.145   1.022   8.441 -0.4075 -0.4127  0.0060
  716MOL0     C98676  -0.255   1.093   8.498  0.4911 -0.1491  0.1894
  716MOL0     C98677  -0.245   1.231   8.534  0.1712 -0.0262 -0.4658
  716MOL0     O98678  -0.334   1.314   8.591 -0.3963 -0.2528  0.1214
  716MOL0     C98679  -0.453   1.249   8.621  0.9217 -0.0457  0.9245
  716MOL0     C98680  -0.536   1.358   8.700 -0.1647 -0.3259  0.6406
  716MOL0     C98681  -0.562   1.486   8.620 -0.9456 -0.3045  0.4286
  716MOL0     C98682  -0.473   1.603   8.652  0.0325 -0.2060 -0.2312
  716MOL0     C98683  -0.536   1.730   8.584 -0.2269 -0.1578 -0.3593
  716MOL0     C98684  -0.458   1.869   8.605 -0.0905 -0.4326 -0.2003
  716MOL0     C98685  -0.488   1.924   8.747  0.4108  0.2950  0.4000
  716MOL0     C98686  -0.639   1.973   8.774  0.3768 -0.0429  0.4846
  716MOL0     N98687  -0.699   1.907   8.888  0.1671  0.4536 -0.1474
  716MOL0     C98688  -0.684   1.941   9.015  1.0733 -0.0262  0.4417
  716MOL0     C98689  -0.777   1.865   9.081  0.4092  0.1535 -0.2715
  716MOL0     C98690  -0.795   1.873   9.231  0.0989  0.3882 -0.3707
  716MOL0     C98691  -0.685   1.791   9.296  0.3239 -1.1688 -0.1775
  716MOL0     C98692  -0.716   1.773   9.446 -0.3403  1.2476 -0.5427
  716MOL0     C98693  -0.600   1.703   9.510 -0.1353  0.1494  0.2590
  716MOL0     O98694  -0.475   1.776   9.524  0.5394 -0.2113  0.2028
  716MOL0     C98695  -0.471   1.889   9.589  0.8251  0.2491  0.6507
  716MOL0     C98696  -0.383   1.985   9.542  0.4142  0.0803 -0.0374
  716MOL0     C98697  -0.364   2.111   9.609 -0.1196 -0.0234 -0.1347
  716MOL0     C98698  -0.263   2.206   9.544 -0.9605 -0.4882 -0.4492
  716MOL0     C98699  -0.443   2.133   9.726 -1.1756 -0.8286  0.0747
  716MOL0     C98700  -0.463   2.264   9.799 -1.3236  0.0102  0.0814
  716MOL0     O98701  -0.564   2.269   9.890 -0.1459 -0.7105 -0.4227
  716MOL0     C98702  -0.556   2.364   9.988  0.5154 -1.1121  0.5782
  716MOL0     C98703  -0.680   2.415  10.020 -0.2846 -0.4513 -0.2493
  716MOL0     C98704  -0.700   2.497  10.124 -0.3770 -0.5039  0.4985
  716MOL0     C98705  -0.592   2.553  10.201  0.7537  0.0792  0.4411
  716MOL0     O98706  -0.591   2.647  10.307  0.0801 -0.4374  0.1146
  716MOL0     C98707  -0.723   2.706  10.343  0.0898 -0.4435 -1.0704
  716MOL0     C98708  -0.731   2.735  10.492  0.5872  1.1443 -0.6150
  716MOL0     C98709  -0.599   2.787  10.535 -0.6369  0.7840 -0.2293
  716MOL0     C98710  -0.617   2.862  10.670  0.1356  0.5339  0.1273
  716MOL0     C98711  -0.492   2.943  10.703  0.1811 -0.3521 -0.4376
  716MOL0     C98712  -0.512   3.097  10.678  0.2359  0.3087 -0.2981
  716MOL0     C98713  -0.589   3.134  10.546  0.7749 -0.3388  0.5734
  716MOL0     C98714  -0.552   3.280  10.515 -0.2906  0.7577  0.4756
  716MOL0    Cl98715  -0.599   3.373  10.656 -0.0111 -0.2678 -0.1220
  716MOL0     C98716  -0.465   2.520  10.159  1.0154  0.6195  1.1106
  716MOL0     C98717  -0.441   2.418  10.062  1.3655 -0.1591  0.7035
  716MOL0     O98718  -0.391   2.361   9.776  0.0263 -0.2624 -0.2829
  716MOL0     C98719  -0.519   2.029   9.777 -0.5420  1.1890 -0.5296
  716MOL0     C98720  -0.537   1.907   9.713 -0.4932  0.7268  0.7182
  716MOL0     N98721  -0.859   1.805   8.983  0.6499 -0.4342  0.6921
  716MOL0     N98722  -0.805   1.834   8.870 -0.3140  0.4344  0.5389
  716MOL0     C98723  -0.111   1.284   8.517  0.1097  0.1668 -0.5325
  716MOL0     C98724  -0.003   1.219   8.461 -0.6290 -0.0328 -0.4857
  716MOL0     C98725   0.216   0.814   8.347  0.3290  1.4042 -0.4848
  716MOL0     C98726   0.242   0.868   8.224  0.6071  0.2612 -1.3659
  716MOL0     C98727   0.328   0.810   8.129  0.4681  0.6247 -0.7590
  716MOL0     C98728   0.381   0.686   8.155 -0.5288  0.0944 -0.1912
  716MOL0     O98729   0.454   0.638   8.050  0.4324  0.1979  0.2083
  716MOL0     C98730   0.539   0.526   8.065  0.0794  0.4473 -0.1998
  716MOL0     C98731   0.473   0.387   8.054  0.3960 -0.0302 -0.8268
  716MOL0     C98732   0.436   0.358   7.903  0.0551 -0.6543  0.1767
  716MOL0     C98733   0.417   0.213   7.859 -0.0061  0.6757 -0.4808
  716MOL0     C98734   0.548   0.145   7.866  0.0952  0.7479 -0.3065
  716MOL0     C98735   0.660   0.100   7.862  0.7377 -0.3804 -0.4218
  716MOL0     C98736   0.368   0.634   8.284  0.4943 -0.0904 -0.5733
  716MOL0     C98737   0.284   0.697   8.383 -0.2379 -0.6404 -0.4216
  716MOL0     C98738   0.271   0.640   8.526  0.0606  0.3909  0.1462
  716MOL0     H98739  -0.158   0.917   8.419 -0.7999 -0.0191 -1.8660
  716MOL0     H98740  -0.340   1.027   8.514 -1.8464  2.3645 -1.0568
  716MOL0     H98741  -0.446   1.160   8.684 -2.1784  0.5563  2.3218
  716MOL0     H98742  -0.511   1.220   8.532  1.4935  1.2583  0.0869
  716MOL0     H98743  -0.637   1.320   8.720 -0.9761  0.0245 -2.3636
  716MOL0     H98744  -0.486   1.370   8.797  1.1704  0.7963 -0.1531
  716MOL0     H98745  -0.573   1.462   8.514 -1.4269 -0.5865  0.5391
  716MOL0     H98746  -0.663   1.521   8.644 -2.0276 -1.8759 -1.5369
  716MOL0     H98747  -0.451   1.619   8.758 -0.6443 -1.0386  0.0555
  716MOL0     H98748  -0.377   1.573   8.610 -0.2851 -1.8078  0.0982
  716MOL0     H98749  -0.639   1.737   8.619  0.7054 -0.7269  2.8247
  716MOL0     H98750  -0.523   1.705   8.478  4.4548  0.0796 -0.0825
  716MOL0     H98751  -0.349   1.864   8.595  0.3844  2.2170  2.0876
  716MOL0     H98752  -0.486   1.933   8.521  1.2264  0.5952  0.1091
  716MOL0     H98753  -0.433   2.014   8.775 -0.6959  0.7796  1.0855
  716MOL0     H98754  -0.458   1.854   8.826  1.0990  1.5784  1.3008
  716MOL0     H98755  -0.652   2.080   8.788 -4.1418 -0.4378  0.7415
  716MOL0     H98756  -0.698   1.954   8.684  0.5367  2.7427 -0.2844
  716MOL0     H98757  -0.619   2.012   9.064 -1.1362  0.1316  3.4523
  716MOL0     H98758  -0.893   1.829   9.253  1.5144 -1.6880  2.4636
  716MOL0     H98759  -0.790   1.979   9.258  2.7362  0.4993 -1.0109
  716MOL0     H98760  -0.668   1.697   9.241 -1.8385 -1.9234  0.3461
  716MOL0     H98761  -0.589   1.843   9.287  0.6891 -1.5169  1.3597
  716MOL0     H98762  -0.746   1.870   9.486 -0.0395  1.3473 -0.5622
  716MOL0     H98763  -0.805   1.709   9.451 -0.1085  1.0195  1.7010
  716MOL0     H98764  -0.641   1.671   9.607 -2.8948  0.5352 -0.6874
  716MOL0     H98765  -0.579   1.609   9.459 -2.3900 -0.6429  0.6432
  716MOL0     H98766  -0.315   1.958   9.462  1.7787  0.5510  0.9293
  716MOL0     H98767  -0.211   2.269   9.616 -1.7595  0.5537 -0.7595
  716MOL0     H98768  -0.309   2.270   9.468  1.0854  1.6206 -0.0029
  716MOL0     H98769  -0.188   2.153   9.484  0.0488  1.9079 -1.4223
  716MOL0     H98770  -0.766   2.367   9.974 -1.4629  0.6164  0.7865
  716MOL0     H98771  -0.802   2.524  10.152 -1.1260 -0.8675 -1.6336
  716MOL0     H98772  -0.748   2.802  10.297 -2.9854 -0.4744  0.2529
  716MOL0     H98773  -0.804   2.636  10.321 -1.5250  0.6228  1.0399
  716MOL0     H98774  -0.815   2.803  10.508  0.1816  1.2992 -3.0295
  716MOL0     H98775  -0.746   2.643  10.550  1.9667 -0.5079 -2.7191
  716MOL0     H98776  -0.563   2.854  10.457  2.5411 -0.9140 -0.3777
  716MOL0     H98777  -0.531   2.701  10.538 -0.9174  0.5967  1.4289
  716MOL0     H98778  -0.640   2.783  10.742 -4.0630 -0.8505 -2.3885
  716MOL0     H98779  -0.713   2.913  10.677 -1.2727 -2.1824  3.7730
  716MOL0     H98780  -0.467   2.945  10.810 -3.5353  4.8554  0.7749
  716MOL0     H98781  -0.411   2.890  10.653  1.1671  1.2574 -0.6001
  716MOL0     H98782  -0.410   3.138  10.673  0.9924 -1.6137 -2.4890
  716MOL0     H98783  -0.569   3.134  10.764  1.7952 -2.0730  1.9143
  716MOL0     H98784  -0.697   3.122  10.543  0.7811 -0.6423 -3.1820
  716MOL0     H98785  -0.551   3.067  10.468 -2.6758  0.3434 -1.9314
  716MOL0     H98786  -0.610   3.318  10.430 -0.8583 -1.2345 -0.0841
  716MOL0     H98787  -0.445   3.297  10.496  0.0485 -1.6803 -0.0987
  716MOL0     H98788  -0.375   2.566  10.199 -0.3214  4.5217  0.0552
  716MOL0     H98789  -0.339   2.383  10.048  1.1293 -0.3888 -0.5446
  716MOL0     H98790  -0.585   2.031   9.864 -1.0147 -0.2584 -0.8282
  716MOL0     H98791  -0.588   1.819   9.751  1.2405 -0.8676 -0.4484
  716MOL0     H98792  -0.108   1.388   8.546 -2.0296  0.4618 -1.1324
  716MOL0     H98793   0.092   1.267   8.438  0.0756 -1.3065 -0.3064
  716MOL0     H98794   0.185   0.952   8.186 -0.7387  0.2398  0.4899
  716MOL0     H98795   0.335   0.846   8.027 -3.1645 -0.4411 -1.5144
  716MOL0     H98796   0.624   0.542   7.998  2.2583  1.4872  2.6170
  716MOL0     H98797   0.587   0.530   8.163  2.5513 -0.7976 -1.2482
  716MOL0     H98798   0.391   0.389   8.125  2.4496  1.5657  1.6667
  716MOL0     H98799   0.544   0.313   8.093 -0.8549  1.1310  4.3228
  716MOL0     H98800   0.348   0.420   7.887  2.3566  2.5003 -1.2938
  716MOL0     H98801   0.513   0.409   7.844  2.0370  0.1034  3.1272
  716MOL0     H98802   0.377   0.218   7.758 -0.7939  2.8215 -0.1285
  716MOL0     H98803   0.345   0.157   7.920  0.4667  4.2130  3.8540
  716MOL0     H98804   0.761   0.062   7.864  1.5905  1.7296  1.0393
  716MOL0     H98805   0.425   0.545   8.307  0.0671 -0.0025  0.9268
  716MOL0     H98806   0.178   0.582   8.531  0.7993 -0.7501  2.0214
  716MOL0     H98807   0.348   0.566   8.548 -0.5214  0.2750  2.0241
  716MOL0     H98808   0.263   0.710   8.610 -3.5340 -3.2745  3.3582
  717MOL0     O98809  10.476   6.036   9.441 -0.9610 -0.0361 -0.0658
  717MOL0     C98810  10.382   5.980   9.389 -0.1701  0.2477 -0.3749
  717MOL0     O98811  10.378   5.843   9.386  0.4776 -0.8142  0.4362
  717MOL0     C98812  10.495   5.772   9.394  0.1844 -0.3899  0.0969
  717MOL0     C98813  10.579   5.763   9.282  1.2561 -0.1705  0.4332
  717MOL0     C98814  10.693   5.693   9.277  0.7435 -0.4695 -0.2193
  717MOL0     C98815  10.733   5.613   9.383  0.7731  0.3237 -0.4229
  717MOL0     O98816  10.837   5.525   9.383 -0.2783 -0.6195  0.1779
  717MOL0     C98817  10.890   5.486   9.260 -0.6558 -0.0980 -0.1308
  717MOL0     C98818  11.033   5.421   9.286 -0.5507 -0.2857 -0.0818
  717MOL0     C98819  11.027   5.288   9.223  0.0040 -0.2678 -0.2359
  717MOL0     C98820  11.162   5.219   9.257  0.7867  0.2160 -0.8468
  717MOL0     C98821  11.169   5.074   9.207  1.0266  0.2115  0.5738
  717MOL0     C98822  11.287   5.001   9.263 -0.5248  0.6578 -0.1853
  717MOL0     C98823  11.321   4.875   9.192 -0.2163  0.2680 -0.0760
  717MOL0     C98824  11.441   4.796   9.239 -0.4687 -0.6063 -0.1715
  717MOL0     N98825  11.565   4.840   9.177 -0.6191  0.1381 -0.1528
  717MOL0     C98826  11.624   4.965   9.160  0.1207 -0.9528  0.1869
  717MOL0     C98827  11.730   4.954   9.080 -0.7857  0.3281  0.6926
  717MOL0     C98828  11.817   5.076   9.032  0.6374  0.0311  0.7567
  717MOL0     C98829  11.723   5.184   8.984  0.1178 -0.5791  0.1132
  717MOL0     C98830  11.659   5.160   8.848 -0.1018  0.0650 -0.1268
  717MOL0     C98831  11.541   5.253   8.827 -0.3358 -0.5951 -0.1136
  717MOL0     O98832  11.450   5.231   8.931 -0.7313  0.0338  0.0276
  717MOL0     C98833  11.337   5.315   8.927 -0.0164  0.3583  0.6523
  717MOL0     C98834  11.339   5.447   8.974  0.3014  0.5246 -0.0294
  717MOL0     C98835  11.228   5.534   8.956  1.6732 -0.4144 -0.4465
  717MOL0     C98836  11.249   5.674   9.015  0.2416  0.0671 -0.1467
  717MOL0     C98837  11.101   5.486   8.907 -0.0483  0.6401 -0.5911
  717MOL0     C98838  10.979   5.570   8.902 -0.0544 -0.1474 -0.1451
  717MOL0     O98839  10.865   5.495   8.913  0.4954  0.3394 -0.8519
  717MOL0     C98840  10.748   5.568   8.898 -1.1069  0.6826 -0.5549
  717MOL0     C98841  10.637   5.551   8.978 -0.9687 -0.6212 -0.0400
  717MOL0     C98842  10.520   5.627   8.953 -0.0298  0.8093  1.1579
  717MOL0     C98843  10.508   5.722   8.849 -0.5853 -0.4343  0.6238
  717MOL0     O98844  10.403   5.816   8.829 -0.2785  0.1716 -0.1875
  717MOL0     C98845  10.292   5.814   8.916 -0.1217 -1.1059  0.3904
  717MOL0     C98846  10.218   5.952   8.905  0.4596 -0.3448  0.0742
  717MOL0     C98847  10.311   6.073   8.933 -0.0338 -0.6337 -0.9033
  717MOL0     C98848  10.230   6.202   8.935 -0.5563 -0.6721  0.5977
  717MOL0     C98849  10.324   6.328   8.947  0.6705 -0.7075 -0.3573
  717MOL0     C98850  10.270   6.443   8.867 -0.0798  0.0270  0.4053
  717MOL0     C98851  10.130   6.478   8.915  0.5366  0.1720 -0.2644
  717MOL0     C98852  10.084   6.621   8.864 -0.5767 -0.0687 -0.0576
  717MOL0    Cl98853   9.901   6.629   8.843 -0.1755  0.1233 -0.1556
  717MOL0     C98854  10.617   5.721   8.760 -0.3767  0.0408 -0.2569
  717MOL0     C98855  10.738   5.652   8.781  0.5175 -0.2443 -0.1163
  717MOL0     O98856  10.992   5.688   8.898 -0.2170 -0.4936 -0.4940
  717MOL0     C98857  11.098   5.352   8.867 -0.7298  0.6857  0.3695
  717MOL0     C98858  11.217   5.267   8.875  0.0026  0.3326  0.4511
  717MOL0     N98859  11.742   4.812   9.042 -0.0360 -0.3242  0.5995
  717MOL0     N98860  11.639   4.754   9.111 -0.1592  0.3615 -0.1373
  717MOL0     C98861  10.637   5.612   9.491  0.5495 -0.8666 -0.4806
  717MOL0     C98862  10.515   5.685   9.499 -0.6928  0.5236  0.9598
  717MOL0     C98863  10.266   6.065   9.348  0.4014 -0.0009  0.3313
  717MOL0     C98864  10.276   6.207   9.359 -0.0421  0.2310 -0.1432
  717MOL0     C98865  10.165   6.295   9.331 -0.6122  1.5244 -0.2634
  717MOL0     C98866  10.041   6.233   9.290 -0.2075 -0.2522 -0.0118
  717MOL0     O98867   9.952   6.326   9.249 -0.3522 -0.9133  0.2632
  717MOL0     C98868   9.821   6.291   9.220 -0.6273  0.4115 -0.3950
  717MOL0     C98869   9.811   6.262   9.071 -1.0996  1.0275  0.4817
  717MOL0     C98870   9.667   6.241   9.027  0.1875  0.4050 -0.1479
  717MOL0     C98871   9.670   6.219   8.874  0.2994 -0.3174  1.2767
  717MOL0     C98872   9.547   6.162   8.829  0.0911  0.3327 -0.5627
  717MOL0     C98873   9.439   6.131   8.790  0.9010  0.0073  0.4461
  717MOL0     C98874  10.031   6.097   9.278 -0.2787  0.1031 -0.3898
  717MOL0     C98875  10.139   6.007   9.310  0.6604 -0.1832 -0.7834
  717MOL0     C98876  10.112   5.869   9.279 -0.2784  0.7540  0.4986
  717MOL0     H98877  10.542   5.817   9.195  0.1609 -1.0688  0.3167
  717MOL0     H98878  10.740   5.702   9.179 -1.1241 -0.1541 -1.1477
  717MOL0     H98879  10.904   5.575   9.200  1.7424  0.3123  0.9091
  717MOL0     H98880  10.824   5.413   9.212  1.3089  0.2945 -3.7713
  717MOL0     H98881  11.107   5.492   9.249 -1.6565  1.3676  0.7397
  717MOL0     H98882  11.050   5.420   9.394 -1.5024 -2.5944  0.1094
  717MOL0     H98883  10.952   5.224   9.270  1.5134 -1.5905  0.4521
  717MOL0     H98884  11.012   5.289   9.114 -0.0099 -1.2049 -0.2491
  717MOL0     H98885  11.246   5.271   9.211  1.7149  1.2663  1.8171
  717MOL0     H98886  11.176   5.229   9.365 -2.2299  3.9636 -0.5646
  717MOL0     H98887  11.168   5.074   9.097 -2.8107  0.2465  0.4727
  717MOL0     H98888  11.081   5.020   9.244  3.9852 -3.7688  2.6282
  717MOL0     H98889  11.373   5.064   9.239  0.2705 -0.2253  0.3072
  717MOL0     H98890  11.284   4.980   9.370 -0.9616  0.1309 -0.2968
  717MOL0     H98891  11.323   4.886   9.083  0.4727  0.8274 -0.0166
  717MOL0     H98892  11.238   4.806   9.209 -1.3829  1.0052 -2.3900
  717MOL0     H98893  11.452   4.813   9.347 -0.0636  3.0232 -0.6555
  717MOL0     H98894  11.428   4.692   9.209  6.3257 -1.6375 -1.2195
  717MOL0     H98895  11.581   5.054   9.206 -1.3448 -1.3963 -0.2648
  717MOL0     H98896  11.887   5.036   8.958 -0.9895 -3.0082  0.7033
  717MOL0     H98897  11.888   5.111   9.107  2.6173 -3.1576  0.5653
  717MOL0     H98898  11.655   5.218   9.063  0.8495  2.1442 -0.3072
  717MOL0     H98899  11.782   5.275   8.970  1.5466 -1.2397  1.4429
  717MOL0     H98900  11.725   5.188   8.765 -0.4770  1.2360 -0.0511
  717MOL0     H98901  11.623   5.057   8.839 -2.0893  0.7065 -0.1037
  717MOL0     H98902  11.571   5.358   8.833  0.7288 -0.9632  1.5762
  717MOL0     H98903  11.494   5.251   8.728 -2.0757  0.3545  0.6412
  717MOL0     H98904  11.427   5.476   9.030 -0.4022 -1.4304  2.2811
  717MOL0     H98905  11.343   5.677   9.070 -0.1231 -3.1539  0.8090
  717MOL0     H98906  11.172   5.703   9.087  0.9166  0.2752  0.5040
  717MOL0     H98907  11.249   5.749   8.935 -0.1981  0.2051 -0.0208
  717MOL0     H98908  10.658   5.481   9.058 -0.0449 -1.5443 -1.0633
  717MOL0     H98909  10.447   5.607   9.031 -0.1286 -0.1641  0.8295
  717MOL0     H98910  10.218   5.743   8.880 -3.4491  1.2006  2.2133
  717MOL0     H98911  10.316   5.793   9.021 -1.6978 -0.5832  0.8822
  717MOL0     H98912  10.171   5.962   8.807 -2.9003 -2.8982  1.2472
  717MOL0     H98913  10.134   5.945   8.974 -0.5796 -1.8601 -1.2590
  717MOL0     H98914  10.391   6.078   8.858  2.3230 -1.2274  1.3957
  717MOL0     H98915  10.352   6.053   9.033  1.1208 -1.3170 -1.4881
  717MOL0     H98916  10.163   6.194   9.021 -0.7458 -0.4098  0.4762
  717MOL0     H98917  10.174   6.206   8.842 -0.7099  0.6264  0.7320
  717MOL0     H98918  10.324   6.360   9.052  0.7619  1.1488 -0.8724
  717MOL0     H98919  10.426   6.299   8.922  0.3029 -2.1794 -0.2175
  717MOL0     H98920  10.263   6.418   8.761 -4.4035  1.7061  0.0819
  717MOL0     H98921  10.330   6.534   8.881 -0.2223 -0.2734  4.0072
  717MOL0     H98922  10.112   6.466   9.022  0.3528  1.7664 -0.0955
  717MOL0     H98923  10.055   6.416   8.865  0.0856  0.0466  0.5590
  717MOL0     H98924  10.135   6.648   8.771 -2.1395  0.6223 -0.7446
  717MOL0     H98925  10.121   6.697   8.935  1.9283  0.1661 -1.4799
  717MOL0     H98926  10.599   5.783   8.674 -1.4143 -0.3805 -0.3502
  717MOL0     H98927  10.820   5.674   8.714  2.3523  1.6461  2.5654
  717MOL0     H98928  11.003   5.312   8.836 -2.4194  2.5050  2.8096
  717MOL0     H98929  11.200   5.166   8.838 -2.1234  1.7543 -2.8915
  717MOL0     H98930  10.665   5.551   9.576  1.3208 -1.2734 -1.0155
  717MOL0     H98931  10.454   5.679   9.588  0.0617 -0.1251  1.4446
  717MOL0     H98932  10.371   6.254   9.384  0.1512 -1.0966  1.7823
  717MOL0     H98933  10.178   6.402   9.343 -0.1488  1.4953 -0.4788
  717MOL0     H98934   9.772   6.207   9.270 -0.8980 -1.0114 -2.8976
  717MOL0     H98935   9.754   6.373   9.246 -1.4783  1.4235 -4.9588
  717MOL0     H98936   9.861   6.166   9.053  0.1473  1.8858 -0.7988
  717MOL0     H98937   9.863   6.334   9.007  1.7615 -3.3425 -2.7453
  717MOL0     H98938   9.634   6.162   9.094  1.4969 -0.0224  0.0076
  717MOL0     H98939   9.600   6.320   9.064  0.1286 -0.5082  1.7958
  717MOL0     H98940   9.755   6.152   8.856  0.0065 -0.6615  1.1581
  717MOL0     H98941   9.685   6.313   8.820 -4.6805  0.2779  0.4567
  717MOL0     H98942   9.347   6.112   8.740  0.9076  1.0667 -0.0084
  717MOL0     H98943   9.942   6.050   9.237  2.0722 -6.2167  0.6390
  717MOL0     H98944  10.105   5.815   9.374 -0.4327  2.0218  1.2443
  717MOL0     H98945  10.012   5.852   9.240 -1.2284 -1.6108  3.6041
  717MOL0     H98946  10.194   5.828   9.219  0.9643  4.5778 -0.7173
  718MOL0     O98947   3.302   1.844   5.228  0.1998 -0.6013  0.2021
  718MOL0     C98948   3.300   1.964   5.201  0.3621  0.4810  0.4103
  718MOL0     O98949   3.405   2.053   5.213  0.0468  0.1047 -0.0239
  718MOL0     C98950   3.511   2.019   5.295 -0.4839  0.3823 -0.4135
  718MOL0     C98951   3.501   1.970   5.429 -0.1052  0.7010  0.7176
  718MOL0     C98952   3.615   1.931   5.493 -0.1997  0.9368 -0.2712
  718MOL0     C98953   3.742   1.936   5.433 -0.8413  0.3191 -0.1307
  718MOL0     O98954   3.858   1.895   5.505 -0.0275 -0.8487  0.2269
  718MOL0     C98955   3.843   1.825   5.633 -0.3307  0.0021 -0.5436
  718MOL0     C98956   3.952   1.867   5.735  0.0660 -0.0371 -0.0998
  718MOL0     C98957   3.972   1.784   5.856 -0.6170 -0.0210  0.1527
  718MOL0     C98958   4.092   1.692   5.845  0.0286  0.2510  0.3556
  718MOL0     C98959   4.115   1.627   5.980 -0.3629 -0.1627 -0.6550
  718MOL0     C98960   4.226   1.511   5.986  0.6549  0.2388  0.3309
  718MOL0     C98961   4.211   1.420   6.097 -0.0031  0.4715 -0.1371
  718MOL0     C98962   4.305   1.300   6.114 -0.6529 -0.2182 -0.0947
  718MOL0     N98963   4.263   1.187   6.027 -0.5292 -0.2819 -0.1655
  718MOL0     C98964   4.267   1.198   5.894 -0.1139  0.7265  0.3503
  718MOL0     C98965   4.185   1.101   5.851 -0.4092 -0.0716  0.0521
  718MOL0     C98966   4.158   1.056   5.718  0.8362  0.2581  0.1593
  718MOL0     C98967   4.269   0.957   5.681 -0.1371  0.3527 -0.4328
  718MOL0     C98968   4.230   0.808   5.713 -0.4227 -0.4138  0.0704
  718MOL0     C98969   4.106   0.760   5.626  0.1276  0.0281  0.8622
  718MOL0     O98970   4.084   0.617   5.624  0.4927 -0.2729 -0.1263
  718MOL0     C98971   3.989   0.565   5.543 -0.3339  0.0277 -0.3529
  718MOL0     C98972   4.013   0.427   5.517 -0.6079  0.2572 -0.6303
  718MOL0     C98973   3.942   0.349   5.431  0.0531 -0.2351 -0.2325
  718MOL0     C98974   3.998   0.214   5.400 -0.1977 -0.0192  0.1574
  718MOL0     C98975   3.830   0.412   5.377 -0.3412 -0.2037 -0.0841
  718MOL0     C98976   3.739   0.325   5.304 -0.6306  0.9026  0.0042
  718MOL0     O98977   3.609   0.321   5.346 -0.5524 -0.2689 -0.1133
  718MOL0     C98978   3.522   0.237   5.287  0.7994  1.0241  0.7165
  718MOL0     C98979   3.518   0.208   5.146  0.2901 -0.9399 -0.9015
  718MOL0     C98980   3.434   0.109   5.093  0.2056  0.0376  0.3948
  718MOL0     C98981   3.337   0.054   5.178  0.6628  1.3953 -0.2356
  718MOL0     O98982   3.252  -0.034   5.118  0.4096  0.2446  0.0791
  718MOL0     C98983   3.132   0.039   5.080 -0.2930  0.0776  0.3013
  718MOL0     C98984   3.016  -0.001   5.170 -0.2091 -0.3746 -0.1741
  718MOL0     C98985   2.877   0.070   5.150  0.4544  0.8248  0.4917
  718MOL0     C98986   2.808   0.066   5.018  0.0943  0.6441  0.0400
  718MOL0     C98987   2.689   0.163   5.010  0.2972 -0.6677  0.4920
  718MOL0     C98988   2.737   0.295   4.940 -0.0200  0.8113 -0.4470
  718MOL0     C98989   2.638   0.404   4.942 -0.3190 -0.8219  0.1007
  718MOL0     C98990   2.676   0.532   4.882  0.4069  0.2265 -0.0654
  718MOL0    Cl98991   2.681   0.515   4.707 -0.1114 -0.0823  0.2789
  718MOL0     C98992   3.335   0.085   5.315  0.3215 -0.5367  0.3529
  718MOL0     C98993   3.431   0.177   5.370  0.5646 -0.0162  0.0549
  718MOL0     O98994   3.789   0.264   5.212  0.2024 -0.0556  0.5159
  718MOL0     C98995   3.802   0.550   5.398 -0.1506  0.5031  0.5025
  718MOL0     C98996   3.884   0.620   5.481 -0.7895 -0.2982 -0.3547
  718MOL0     N98997   4.123   1.043   5.960 -0.3335  0.3892 -0.3640
  718MOL0     N98998   4.181   1.088   6.068 -0.1475  0.1646 -0.1222
  718MOL0     C98999   3.745   1.994   5.303 -1.0152 -0.0741 -1.2882
  718MOL0     C99000   3.636   2.042   5.231  0.7497  0.0361  0.8047
  718MOL0     C99001   3.173   2.010   5.132 -0.1193  0.3325 -0.8497
  718MOL0     C99002   3.183   2.133   5.067  0.8244 -0.4490 -0.4065
  718MOL0     C99003   3.089   2.179   4.981  0.2473 -0.2037  0.5067
  718MOL0     C99004   2.964   2.109   4.982  0.5753 -0.6285 -0.4654
  718MOL0     O99005   2.859   2.175   4.930  0.2841  0.8867 -0.4277
  718MOL0     C99006   2.821   2.106   4.808  0.6186 -0.9098 -0.1654
  718MOL0     C99007   2.757   2.222   4.715  0.0867  0.9429 -0.1006
  718MOL0     C99008   2.865   2.323   4.664  0.4119  0.6096  0.2014
  718MOL0     C99009   2.995   2.269   4.601  0.0713 -0.7181 -0.4664
  718MOL0     C99010   2.963   2.175   4.499 -0.0750  0.9583 -0.8674
  718MOL0     C99011   2.932   2.090   4.414 -0.1193  0.3921 -0.2690
  718MOL0     C99012   2.945   1.992   5.056  0.0263 -0.8216  0.2907
  718MOL0     C99013   3.051   1.942   5.132 -0.2578  0.2920  0.6483
  718MOL0     C99014   3.017   1.810   5.197  0.1334 -0.4685  0.0162
  718MOL0     H99015   3.403   1.971   5.476 -0.7600 -1.1514 -0.4989
  718MOL0     H99016   3.596   1.905   5.596  0.7660 -0.0482 -0.3188
  718MOL0     H99017   3.845   1.719   5.606  3.9332  0.2993 -2.1069
  718MOL0     H99018   3.746   1.838   5.683 -0.1074 -2.1418  0.5771
  718MOL0     H99019   4.048   1.862   5.683  0.3676 -2.7946  0.5767
  718MOL0     H99020   3.927   1.967   5.771 -2.1255 -0.7882  0.6187
  718MOL0     H99021   3.974   1.842   5.949  3.9545 -2.4870  1.9397
  718MOL0     H99022   3.878   1.732   5.875 -1.2631  1.5948  1.7748
  718MOL0     H99023   4.064   1.625   5.763 -0.4584  2.7480 -1.6468
  718MOL0     H99024   4.181   1.750   5.822 -0.4649  0.3801 -1.4129
  718MOL0     H99025   4.025   1.588   6.029  0.6329 -3.5088 -1.2356
  718MOL0     H99026   4.151   1.708   6.045 -0.6984 -0.5411  0.0138
  718MOL0     H99027   4.209   1.454   5.894 -0.7782  0.8946  0.1573
  718MOL0     H99028   4.318   1.569   5.975  0.3239  1.2172  2.3395
  718MOL0     H99029   4.109   1.383   6.108  1.1404 -3.4443 -1.1949
  718MOL0     H99030   4.212   1.477   6.190  1.4159 -0.1543  0.2772
  718MOL0     H99031   4.408   1.336   6.102 -0.7697  1.0753  2.2617
  718MOL0     H99032   4.313   1.273   6.220  3.3319 -0.9241 -0.4168
  718MOL0     H99033   4.329   1.262   5.833 -0.5600  0.9784  0.1620
  718MOL0     H99034   4.165   1.143   5.652 -0.1180  0.4170  0.2448
  718MOL0     H99035   4.055   1.023   5.702  0.6348  1.5087 -1.4159
  718MOL0     H99036   4.299   0.974   5.577 -1.3101  1.1332 -0.6730
  718MOL0     H99037   4.360   0.980   5.737  1.2654  3.9447 -3.7411
  718MOL0     H99038   4.315   0.741   5.692 -0.8014 -0.6873 -0.6161
  718MOL0     H99039   4.197   0.806   5.817  0.9864  0.4378  0.5520
  718MOL0     H99040   4.028   0.816   5.678  0.2650  2.4487 -1.3509
  718MOL0     H99041   4.117   0.803   5.526  2.0155 -1.0174  0.5576
  718MOL0     H99042   4.098   0.393   5.574 -0.8754 -0.1771 -0.4842
  718MOL0     H99043   3.923   0.138   5.424 -0.8487 -0.3728 -2.5789
  718MOL0     H99044   4.092   0.192   5.452  1.4714  1.6177 -1.9793
  718MOL0     H99045   4.042   0.192   5.302  0.0805 -0.8359  0.4639
  718MOL0     H99046   3.588   0.262   5.082 -0.5643  2.2163  0.6309
  718MOL0     H99047   3.453   0.083   4.990 -1.9419  1.3672 -0.3991
  718MOL0     H99048   3.133   0.148   5.076 -5.0072  0.3471 -3.9143
  718MOL0     H99049   3.101   0.011   4.979 -3.6187  0.4145  1.0886
  718MOL0     H99050   3.001  -0.109   5.167 -0.5771 -0.3111 -0.6864
  718MOL0     H99051   3.046   0.012   5.274 -1.2963 -0.5291  0.1653
  718MOL0     H99052   2.884   0.174   5.184  0.8228  0.9053  0.1716
  718MOL0     H99053   2.817   0.019   5.227  0.5125  0.6364  0.4134
  718MOL0     H99054   2.783  -0.040   5.005 -2.6008  1.5021 -2.8515
  718MOL0     H99055   2.881   0.086   4.939 -1.0302  0.6972 -0.9980
  718MOL0     H99056   2.609   0.111   4.956 -0.8308 -0.4616  1.9194
  718MOL0     H99057   2.649   0.194   5.107  0.2341  1.8889 -0.2693
  718MOL0     H99058   2.776   0.279   4.839  1.5388  1.1812  0.0639
  718MOL0     H99059   2.824   0.334   4.994  0.6914 -0.2168 -0.8038
  718MOL0     H99060   2.598   0.423   5.042  0.5510  0.2687  0.2551
  718MOL0     H99061   2.556   0.363   4.882 -0.9369  1.8250 -0.9957
  718MOL0     H99062   2.777   0.555   4.917 -0.0069  1.5184  0.3101
  718MOL0     H99063   2.598   0.607   4.897  1.4352  2.1183 -3.2438
  718MOL0     H99064   3.272   0.042   5.392  1.3002 -1.0450  0.8922
  718MOL0     H99065   3.433   0.214   5.472  3.5800  1.0742 -0.2955
  718MOL0     H99066   3.711   0.594   5.359 -0.1900 -0.5931 -0.7028
  718MOL0     H99067   3.863   0.726   5.485  1.1894  0.1078  3.0185
  718MOL0     H99068   3.844   2.010   5.262  0.7190  0.6628  2.6863
  718MOL0     H99069   3.650   2.075   5.129  0.8534  1.5710  1.2867
  718MOL0     H99070   3.275   2.190   5.054 -0.4167  1.2010 -2.6825
  718MOL0     H99071   3.098   2.264   4.914  1.9622 -0.9107 -0.2146
  718MOL0     H99072   2.896   2.044   4.757 -0.0021 -1.3769 -0.5272
  718MOL0     H99073   2.745   2.036   4.843  0.5641 -0.7097  0.1254
  718MOL0     H99074   2.679   2.275   4.771 -0.4873 -1.7044  1.8147
  718MOL0     H99075   2.719   2.176   4.623 -1.2096  1.6995  0.0236
  718MOL0     H99076   2.821   2.397   4.597  2.1237  0.5493 -1.0625
  718MOL0     H99077   2.906   2.386   4.744  0.0431  2.0173 -0.6805
  718MOL0     H99078   3.052   2.221   4.681 -0.9757 -1.7879 -0.3447
  718MOL0     H99079   3.061   2.347   4.562  3.1076 -1.9502  1.7878
  718MOL0     H99080   2.899   2.015   4.345  2.1777  0.4196 -1.4596
  718MOL0     H99081   2.844   1.953   5.063 -0.8431  0.8708 -1.7635
  718MOL0     H99082   2.911   1.781   5.189 -0.4065  1.1741  0.7906
  718MOL0     H99083   3.081   1.729   5.160  4.1650  1.1129  2.8397
  718MOL0     H99084   3.035   1.819   5.304 -2.0938  3.0663  0.2663
  719MOL0     O99085   6.657   3.965   4.554  0.6827 -0.1381  0.1498
  719MOL0     C99086   6.700   4.079   4.554 -0.7762 -0.7548 -0.0548
  719MOL0     O99087   6.711   4.157   4.442 -0.5686 -0.7661 -0.4437
  719MOL0     C99088   6.678   4.107   4.320  0.2026 -0.7450  0.3327
  719MOL0     C99089   6.570   4.020   4.291 -0.5595  0.0054 -0.1760
  719MOL0     C99090   6.552   3.975   4.155 -1.3487 -1.3485  0.5835
  719MOL0     C99091   6.643   4.018   4.057  0.3022 -1.0413  0.9869
  719MOL0     O99092   6.629   3.954   3.941 -0.5686  0.0339  0.1963
  719MOL0     C99093   6.720   3.992   3.837  0.7530 -0.0775  0.0677
  719MOL0     C99094   6.654   3.941   3.708  0.3605  0.1496 -0.0765
  719MOL0     C99095   6.630   3.789   3.694 -0.4521  0.5305  0.4784
  719MOL0     C99096   6.766   3.730   3.653 -0.3389  0.0863 -1.0959
  719MOL0     C99097   6.769   3.580   3.633 -0.1015 -0.6244  0.2921
  719MOL0     C99098   6.878   3.537   3.528  1.0467  0.4753 -0.1339
  719MOL0     C99099   6.863   3.378   3.517  0.3362  0.1051  0.4767
  719MOL0     C99100   6.968   3.329   3.421 -0.2641 -0.6654 -0.3448
  719MOL0     N99101   7.102   3.370   3.452 -0.2291  0.5537 -0.5661
  719MOL0     C99102   7.196   3.290   3.513  0.0310  0.2322 -0.6816
  719MOL0     C99103   7.308   3.360   3.542  0.9888 -0.2967 -0.1778
  719MOL0     C99104   7.428   3.299   3.615 -1.0039  0.2765 -0.0016
  719MOL0     C99105   7.564   3.378   3.597 -0.3703  0.1050 -0.2168
  719MOL0     C99106   7.692   3.324   3.653 -0.0498  0.1901  0.3277
  719MOL0     C99107   7.824   3.403   3.614  0.0866  0.0907 -0.0059
  719MOL0     O99108   7.835   3.379   3.471 -0.8639  0.3521 -0.4186
  719MOL0     C99109   7.941   3.431   3.398  0.2252 -0.5347  0.6217
  719MOL0     C99110   7.929   3.425   3.260 -0.5059  0.0919 -0.8213
  719MOL0     C99111   8.029   3.464   3.168 -0.2364 -0.0836  1.0482
  719MOL0     C99112   8.009   3.456   3.021  0.8115 -0.7748 -0.3932
  719MOL0     C99113   8.139   3.516   3.224 -0.1088  0.8025 -0.0712
  719MOL0     C99114   8.260   3.565   3.156  0.1079 -0.7525  0.9534
  719MOL0     O99115   8.381   3.523   3.202 -0.2861 -1.0855 -0.0223
  719MOL0     C99116   8.497   3.592   3.176  0.0260  0.0481  0.2596
  719MOL0     C99117   8.609   3.523   3.209 -0.7356 -0.1109 -0.5307
  719MOL0     C99118   8.740   3.579   3.191  0.9452  1.0026  0.6014
  719MOL0     C99119   8.752   3.709   3.134 -0.0872  0.1185 -0.3904
  719MOL0     O99120   8.867   3.775   3.110 -0.2150  0.1752 -0.2986
  719MOL0     C99121   8.966   3.689   3.066 -0.6065 -0.4180  0.6932
  719MOL0     C99122   9.084   3.785   3.025 -0.6093 -0.1092  0.5564
  719MOL0     C99123   9.167   3.845   3.143 -0.0765 -0.8988  0.8030
  719MOL0     C99124   9.273   3.937   3.089 -0.8206 -1.5139  0.0703
  719MOL0     C99125   9.321   4.016   3.211 -0.0695  0.2078  0.2251
  719MOL0     C99126   9.410   4.143   3.175 -0.1184 -0.2229 -0.2192
  719MOL0     C99127   9.531   4.101   3.083  0.1785  0.0349 -0.0416
  719MOL0     C99128   9.634   4.205   3.070 -1.0834 -0.4570  0.0330
  719MOL0    Cl99129   9.578   4.376   3.045  0.2262  0.1072  0.0102
  719MOL0     C99130   8.637   3.772   3.096  0.5993  0.2368  0.2154
  719MOL0     C99131   8.508   3.726   3.121 -0.5080 -0.7395 -0.0669
  719MOL0     O99132   8.237   3.627   3.058  0.0009  0.2512 -0.2055
  719MOL0     C99133   8.152   3.520   3.357  0.4244 -0.0499 -1.5313
  719MOL0     C99134   8.058   3.491   3.453  0.1783  0.4460  0.6278
  719MOL0     N99135   7.287   3.488   3.486  0.2713  0.8698  0.8276
  719MOL0     N99136   7.168   3.489   3.428 -0.2864  0.4090 -0.5859
  719MOL0     C99137   6.743   4.114   4.086  0.8356 -1.2718  0.6406
  719MOL0     C99138   6.753   4.161   4.220 -0.2279 -0.7447 -0.2580
  719MOL0     C99139   6.742   4.133   4.698 -0.2882 -1.1721 -0.2763
  719MOL0     C99140   6.705   4.046   4.801 -0.8827 -0.4081  0.1655
  719MOL0     C99141   6.731   4.085   4.934 -0.1716  0.2841  0.2618
  719MOL0     C99142   6.761   4.221   4.966  0.2727  0.0166 -0.3239
  719MOL0     O99143   6.751   4.251   5.099 -0.1416  0.0414 -0.0334
  719MOL0     C99144   6.760   4.382   5.138 -0.2450 -0.1917  0.8128
  719MOL0     C99145   6.716   4.398   5.277  1.0821 -0.5937 -1.5173
  719MOL0     C99146   6.567   4.437   5.300 -1.0437  0.7855 -0.2886
  719MOL0     C99147   6.475   4.317   5.268  0.7096  0.6328  0.0265
  719MOL0     C99148   6.332   4.364   5.249 -0.4395  0.4124 -0.3005
  719MOL0     C99149   6.221   4.399   5.213 -0.5703  0.0530  0.7408
  719MOL0     C99150   6.797   4.305   4.858 -0.1348  0.2680  0.1559
  719MOL0     C99151   6.797   4.259   4.723  0.1734 -0.0625 -0.4810
  719MOL0     C99152   6.866   4.343   4.616  0.7451 -0.3414 -0.7169
  719MOL0     H99153   6.502   3.968   4.359 -3.2315  1.8538 -1.2462
  719MOL0     H99154   6.477   3.899   4.138  0.1163 -2.4871 -1.1741
  719MOL0     H99155   6.821   3.953   3.850  0.8256 -0.3902 -1.2621
  719MOL0     H99156   6.726   4.101   3.826  3.2688 -0.3678 -2.8064
  719MOL0     H99157   6.557   3.993   3.705  1.3156  2.0259  0.1378
  719MOL0     H99158   6.703   3.981   3.619  0.9115 -1.5702 -0.5730
  719MOL0     H99159   6.591   3.740   3.784 -1.3171 -0.7969 -0.5930
  719MOL0     H99160   6.565   3.766   3.610  1.7064 -3.0196 -0.3864
  719MOL0     H99161   6.818   3.779   3.570 -2.3461  0.7841 -1.9904
  719MOL0     H99162   6.827   3.752   3.742 -1.8326  2.0775 -0.4804
  719MOL0     H99163   6.670   3.550   3.598 -0.7571 -0.7606  2.1622
  719MOL0     H99164   6.797   3.528   3.725 -1.0537 -0.5013  0.6599
  719MOL0     H99165   6.861   3.578   3.428 -0.8694 -1.4680 -0.6740
  719MOL0     H99166   6.979   3.555   3.566  1.2338  0.3990 -0.5916
  719MOL0     H99167   6.767   3.353   3.469  1.1257 -3.3631  0.4649
  719MOL0     H99168   6.869   3.322   3.610 -0.7399 -1.2469 -0.2274
  719MOL0     H99169   6.973   3.220   3.409 -0.0229 -0.6478 -0.4103
  719MOL0     H99170   6.944   3.366   3.320 -0.6667  1.6572  0.5511
  719MOL0     H99171   7.172   3.186   3.534  2.2718 -0.4161 -1.0614
  719MOL0     H99172   7.452   3.201   3.573  0.0967  1.5094 -2.4102
  719MOL0     H99173   7.394   3.294   3.719 -0.6854  3.8362  0.3873
  719MOL0     H99174   7.564   3.391   3.489 -0.5291 -0.0432 -0.2350
  719MOL0     H99175   7.557   3.479   3.638 -3.6843  0.7917 -2.1336
  719MOL0     H99176   7.674   3.329   3.760  1.1803  0.2493  0.5418
  719MOL0     H99177   7.690   3.217   3.629 -0.8510  0.9281 -3.7599
  719MOL0     H99178   7.805   3.505   3.651 -2.9247  0.0526 -1.1502
  719MOL0     H99179   7.904   3.353   3.670 -1.2076 -2.2984 -0.1709
  719MOL0     H99180   7.832   3.397   3.220 -1.3619  0.6611  0.7697
  719MOL0     H99181   7.934   3.381   2.994  0.1523  1.0873 -4.6353
  719MOL0     H99182   8.105   3.429   2.976  0.8806 -2.4883  0.7172
  719MOL0     H99183   7.971   3.553   2.987  2.4611 -0.5918 -1.8811
  719MOL0     H99184   8.607   3.417   3.232  1.0690 -0.0153  0.1619
  719MOL0     H99185   8.822   3.511   3.211  1.4628  1.7497  1.0679
  719MOL0     H99186   9.006   3.613   3.133  0.1010 -0.5753  0.1141
  719MOL0     H99187   8.925   3.647   2.973  1.4041  0.9778 -0.9198
  719MOL0     H99188   9.147   3.736   2.951 -3.5054 -1.7050 -1.0708
  719MOL0     H99189   9.033   3.870   2.979 -1.1986 -0.7307  0.0387
  719MOL0     H99190   9.218   3.764   3.196  1.6457  1.5814  3.1661
  719MOL0     H99191   9.090   3.896   3.202 -0.6386 -0.6232 -0.1448
  719MOL0     H99192   9.241   4.012   3.016  2.2938  0.6995  0.7425
  719MOL0     H99193   9.351   3.878   3.039  1.1304  1.3823 -0.6092
  719MOL0     H99194   9.237   4.052   3.272  0.5838  0.4530  0.9977
  719MOL0     H99195   9.382   3.945   3.267  1.0863  0.6659 -0.4226
  719MOL0     H99196   9.449   4.182   3.270  0.4193  0.6615 -0.7931
  719MOL0     H99197   9.350   4.220   3.126 -0.0568 -0.9621 -1.4868
  719MOL0     H99198   9.487   4.078   2.986 -1.5338 -0.0074  0.7008
  719MOL0     H99199   9.582   4.013   3.122 -2.9148 -1.3807  1.1389
  719MOL0     H99200   9.698   4.178   2.985  1.2948 -3.2489  2.4742
  719MOL0     H99201   9.707   4.206   3.151  1.3758 -0.4035 -2.0362
  719MOL0     H99202   8.642   3.870   3.050 -2.0595  1.3955  2.1658
  719MOL0     H99203   8.421   3.783   3.091 -0.2970 -0.5902 -0.4019
  719MOL0     H99204   8.247   3.550   3.400 -0.7997  1.1369  0.5409
  719MOL0     H99205   8.069   3.481   3.560 -0.1689  2.2294  0.8674
  719MOL0     H99206   6.820   4.139   4.014 -1.9663  0.9326 -1.8831
  719MOL0     H99207   6.832   4.220   4.267 -0.3322 -0.8964  0.1156
  719MOL0     H99208   6.666   3.946   4.785  2.6702 -2.0837  0.8416
  719MOL0     H99209   6.716   4.017   5.017 -3.9380 -0.6750 -0.9943
  719MOL0     H99210   6.867   4.404   5.142 -0.6110  1.6411  2.9655
  719MOL0     H99211   6.707   4.451   5.072  0.8190 -1.0675 -1.0136
  719MOL0     H99212   6.779   4.471   5.328 -0.2559 -1.4752  1.6455
  719MOL0     H99213   6.730   4.301   5.327 -0.5736  0.0895  0.4292
  719MOL0     H99214   6.546   4.475   5.401 -2.0675 -2.2952  0.7848
  719MOL0     H99215   6.533   4.514   5.231 -1.3247  0.5729 -0.3898
  719MOL0     H99216   6.479   4.242   5.348  1.5564  0.0747 -0.5214
  719MOL0     H99217   6.507   4.264   5.178  0.2435 -2.2825  1.4252
  719MOL0     H99218   6.129   4.425   5.165 -0.2152  1.1690  0.6390
  719MOL0     H99219   6.842   4.403   4.863 -0.7180  0.5457  0.1107
  719MOL0     H99220   6.949   4.410   4.642 -0.1791  0.7689 -0.5217
  719MOL0     H99221   6.905   4.271   4.544 -0.1644  0.1164 -1.6749
  719MOL0     H99222   6.785   4.401   4.571  0.5261  1.6434  1.9342
  720MOL0     O99223   8.598   8.961   4.058  0.4236  0.2908 -0.0049
  720MOL0     C99224   8.494   9.024   4.035 -0.4434  0.4768 -0.1725
  720MOL0     O99225   8.468   9.103   3.924 -0.4688  0.5153  0.2860
  720MOL0     C99226   8.575   9.141   3.845 -0.1000 -0.4852  0.3523
  720MOL0     C99227   8.713   9.143   3.868 -1.3909 -0.2326  0.0122
  720MOL0     C99228   8.802   9.190   3.770  0.2990  0.2074  0.0004
  720MOL0     C99229   8.758   9.223   3.644  0.3147  0.1181  0.6343
  720MOL0     O99230   8.857   9.246   3.555 -0.3441  0.4085  0.6720
  720MOL0     C99231   8.852   9.197   3.418 -0.4184 -0.5299  0.4507
  720MOL0     C99232   8.883   9.045   3.411  0.3449  0.5527  0.7721
  720MOL0     C99233   8.842   8.997   3.269  0.5937  0.2564 -0.1501
  720MOL0     C99234   8.917   8.871   3.229  0.4953  0.3567 -0.3072
  720MOL0     C99235   8.839   8.748   3.294  0.4142  0.7460  0.6879
  720MOL0     C99236   8.895   8.611   3.238 -0.9730  0.3947 -0.1313
  720MOL0     C99237   8.815   8.486   3.283 -0.2030 -0.4622  0.0698
  720MOL0     C99238   8.811   8.376   3.181  0.3012 -0.0324  0.3040
  720MOL0     N99239   8.929   8.303   3.189 -1.3918  0.5280  0.7552
  720MOL0     C99240   9.017   8.293   3.079  0.2362 -1.0171 -0.2922
  720MOL0     C99241   9.119   8.215   3.132 -0.9343  0.0162  0.0935
  720MOL0     C99242   9.249   8.185   3.066  0.1858  0.7292  0.2501
  720MOL0     C99243   9.281   8.290   2.958 -0.1666 -0.9077  0.2068
  720MOL0     C99244   9.404   8.277   2.874  0.7646 -0.6682  0.4931
  720MOL0     C99245   9.426   8.415   2.800  0.1577 -0.3640 -1.1353
  720MOL0     O99246   9.546   8.430   2.725  0.3138 -0.1446  0.0196
  720MOL0     C99247   9.555   8.369   2.602 -0.6897 -0.4883 -0.1132
  720MOL0     C99248   9.453   8.374   2.509  0.2173  0.5880 -0.1333
  720MOL0     C99249   9.464   8.344   2.372  0.1793 -0.2097  0.3244
  720MOL0     C99250   9.339   8.363   2.296 -0.3704  0.3981  0.3421
  720MOL0     C99251   9.596   8.305   2.338  0.3011 -0.2136 -0.0396
  720MOL0     C99252   9.641   8.281   2.202 -0.0637 -0.5410  0.7679
  720MOL0     O99253   9.719   8.176   2.159  0.1271  0.0327 -0.2556
  720MOL0     C99254   9.724   8.152   2.025 -0.6096  0.1067 -0.2651
  720MOL0     C99255   9.833   8.080   1.973  0.3839 -0.0232 -0.4570
  720MOL0     C99256   9.855   8.045   1.837  0.6649 -1.1389  0.6291
  720MOL0     C99257   9.765   8.090   1.739 -0.2036 -0.4368  0.1984
  720MOL0     O99258   9.800   8.054   1.613 -0.2282  0.5726 -0.6133
  720MOL0     C99259   9.826   8.170   1.539 -0.0261 -0.2401 -0.8317
  720MOL0     C99260   9.947   8.172   1.444  0.1722 -0.2671  0.4551
  720MOL0     C99261   9.946   8.060   1.340 -0.0037 -0.1956 -0.5184
  720MOL0     C99262  10.058   8.060   1.236 -0.2665  0.0118 -0.0469
  720MOL0     C99263  10.032   8.174   1.126  0.5709  0.3342  0.2667
  720MOL0     C99264  10.147   8.162   1.030  0.5297 -0.0580  0.0933
  720MOL0     C99265  10.151   8.279   0.923 -0.0175  1.9740  0.5259
  720MOL0     C99266  10.267   8.254   0.827  0.4511  0.7586 -0.1520
  720MOL0    Cl99267  10.215   8.138   0.701  0.1414 -0.2498  0.0560
  720MOL0     C99268   9.651   8.154   1.783  0.7047  0.1614 -0.2018
  720MOL0     C99269   9.628   8.190   1.919  0.6933  0.7452 -0.8375
  720MOL0     O99270   9.606   8.374   2.129  0.5362 -0.1857 -0.7335
  720MOL0     C99271   9.700   8.302   2.438  0.8092  1.0053 -0.3970
  720MOL0     C99272   9.682   8.337   2.567  0.1274 -0.3654  0.9817
  720MOL0     N99273   9.089   8.169   3.259  1.0219  0.2806  0.1072
  720MOL0     N99274   8.973   8.226   3.291  0.4253  0.1431 -0.1022
  720MOL0     C99275   8.620   9.229   3.622 -0.3582 -0.6370  0.5023
  720MOL0     C99276   8.533   9.185   3.724 -0.0881 -0.1397 -0.3008
  720MOL0     C99277   8.387   9.019   4.141  1.1706 -0.1668  0.1188
  720MOL0     C99278   8.297   9.125   4.153 -0.5803 -0.1297 -0.8897
  720MOL0     C99279   8.213   9.141   4.268  0.5873 -0.5363 -0.0015
  720MOL0     C99280   8.216   9.047   4.366  0.9124  0.2561 -1.3893
  720MOL0     O99281   8.142   9.049   4.478  0.1928  0.9811  0.1265
  720MOL0     C99282   8.002   9.060   4.464 -0.5168  0.9017 -0.1316
  720MOL0     C99283   7.925   9.119   4.576  0.2475  0.5725 -0.3905
  720MOL0     C99284   7.776   9.112   4.524  0.3430  0.6228 -1.9262
  720MOL0     C99285   7.684   9.172   4.630  1.0037 -0.6218 -0.6084
  720MOL0     C99286   7.549   9.177   4.591  0.1810  0.7835 -0.1702
  720MOL0     C99287   7.431   9.195   4.564  0.1853  0.8809 -0.8101
  720MOL0     C99288   8.303   8.943   4.362 -0.0534 -0.4606 -0.1660
  720MOL0     C99289   8.377   8.921   4.244 -0.3241  0.1180 -0.1023
  720MOL0     C99290   8.461   8.791   4.252  0.8389 -1.2108  0.0485
  720MOL0     H99291   8.751   9.121   3.967  2.8057 -0.4267 -1.4512
  720MOL0     H99292   8.907   9.176   3.792  0.0549 -2.5445 -0.2236
  720MOL0     H99293   8.917   9.269   3.368 -0.6380  0.5320  1.6166
  720MOL0     H99294   8.755   9.208   3.370 -0.0823  1.6939  0.1897
  720MOL0     H99295   8.991   9.032   3.421  0.4733  2.5844  3.1297
  720MOL0     H99296   8.838   8.997   3.499  0.3131 -0.6118  0.1409
  720MOL0     H99297   8.733   8.987   3.263  0.6516 -0.7346  0.2520
  720MOL0     H99298   8.875   9.067   3.192  3.1347 -0.2377  0.4121
  720MOL0     H99299   8.904   8.863   3.120 -2.0301 -0.0722 -0.0449
  720MOL0     H99300   9.023   8.879   3.253  0.2813 -1.3625  1.4650
  720MOL0     H99301   8.731   8.747   3.279  0.7492 -1.1761 -2.8788
  720MOL0     H99302   8.848   8.738   3.402  1.0828  1.5695  0.7182
  720MOL0     H99303   8.907   8.608   3.130  2.2254 -1.5877  0.1605
  720MOL0     H99304   8.998   8.591   3.267 -1.2229  0.3346  0.7742
  720MOL0     H99305   8.716   8.529   3.300  1.6383  4.3754  0.1379
  720MOL0     H99306   8.849   8.457   3.382  1.7350  2.3018  0.3159
  720MOL0     H99307   8.727   8.308   3.196  0.9387 -2.6305 -5.3290
  720MOL0     H99308   8.788   8.415   3.081 -0.5248  1.1834  0.9429
  720MOL0     H99309   9.014   8.341   2.982 -0.1748 -0.2354  0.0952
  720MOL0     H99310   9.242   8.085   3.023 -0.6826 -0.4349  2.8786
  720MOL0     H99311   9.339   8.189   3.128  1.0629  3.6665 -1.0029
  720MOL0     H99312   9.205   8.293   2.878 -0.5456 -1.0254  0.5595
  720MOL0     H99313   9.280   8.390   3.002 -2.4211 -0.1934 -1.2747
  720MOL0     H99314   9.492   8.247   2.931  0.2559  0.1636  1.7386
  720MOL0     H99315   9.398   8.205   2.792 -0.3574  0.7402 -0.7191
  720MOL0     H99316   9.332   8.422   2.745  0.5533  1.1715 -1.6769
  720MOL0     H99317   9.424   8.488   2.881 -1.9563 -0.4413 -1.0506
  720MOL0     H99318   9.354   8.398   2.544 -0.9494 -5.8575  2.3535
  720MOL0     H99319   9.333   8.470   2.275 -2.0845  0.7491  2.3076
  720MOL0     H99320   9.249   8.337   2.353  0.0516 -0.1872  0.7565
  720MOL0     H99321   9.340   8.297   2.208 -0.0520  1.0067 -0.1167
  720MOL0     H99322   9.902   8.075   2.057 -2.7137 -3.0081  2.2028
  720MOL0     H99323   9.945   7.990   1.811 -0.1881 -2.1742 -0.2287
  720MOL0     H99324   9.733   8.172   1.481 -0.1283 -0.8881 -0.6923
  720MOL0     H99325   9.830   8.265   1.592  2.8831  1.7381 -4.1283
  720MOL0     H99326   9.953   8.266   1.388 -0.4467 -0.3726  0.2120
  720MOL0     H99327  10.035   8.162   1.509 -0.9678  0.9851  2.2747
  720MOL0     H99328   9.850   8.069   1.288  0.4588  0.5105 -1.2832
  720MOL0     H99329   9.931   7.967   1.395  0.7082  0.6910  1.2209
  720MOL0     H99330  10.073   7.958   1.200 -1.3354 -1.9111  4.2465
  720MOL0     H99331  10.149   8.080   1.294 -0.6087 -3.1836  1.8502
  720MOL0     H99332   9.935   8.164   1.076 -0.5389  1.8153  2.0241
  720MOL0     H99333  10.033   8.272   1.174 -2.6713  0.9858 -0.7497
  720MOL0     H99334  10.153   8.063   0.983  2.5220  0.7361 -1.4522
  720MOL0     H99335  10.237   8.163   1.091  0.0313 -1.3219  0.8893
  720MOL0     H99336  10.170   8.378   0.965  2.0558  1.7127  0.3264
  720MOL0     H99337  10.053   8.298   0.878 -0.2058  0.3503  0.1903
  720MOL0     H99338  10.352   8.204   0.874  1.6262  2.9586  0.1945
  720MOL0     H99339  10.311   8.337   0.770  2.1693 -1.1953 -1.8131
  720MOL0     H99340   9.567   8.181   1.719 -1.7091 -0.7678  2.4046
  720MOL0     H99341   9.535   8.237   1.949  0.1165 -0.8623  0.0251
  720MOL0     H99342   9.801   8.271   2.414  1.1434 -0.1484  2.1317
  720MOL0     H99343   9.762   8.327   2.639 -1.2713 -2.7227  2.3656
  720MOL0     H99344   8.571   9.257   3.530 -0.3052  1.6851  1.1171
  720MOL0     H99345   8.427   9.204   3.707 -0.1029  1.3755  1.2533
  720MOL0     H99346   8.301   9.202   4.077 -0.4603  2.1628  1.3210
  720MOL0     H99347   8.147   9.227   4.265 -0.4741 -1.1670  2.6572
  720MOL0     H99348   7.977   9.119   4.375 -0.1810 -0.2550 -1.0091
  720MOL0     H99349   7.963   8.961   4.441 -2.9788  1.9450 -0.7508
  720MOL0     H99350   7.959   9.217   4.610 -0.3529  0.2919  1.1176
  720MOL0     H99351   7.935   9.062   4.669 -1.7205 -0.3367 -0.6700
  720MOL0     H99352   7.762   9.163   4.429 -1.1314  1.3407 -1.3621
  720MOL0     H99353   7.753   9.005   4.516  3.3732 -0.3732  0.5882
  720MOL0     H99354   7.717   9.275   4.645 -0.8015 -0.1592  0.4943
  720MOL0     H99355   7.699   9.120   4.725  0.6677  1.6525  0.7569
  720MOL0     H99356   7.325   9.209   4.556 -0.1609 -0.3449  0.9721
  720MOL0     H99357   8.304   8.875   4.446 -0.3165 -1.1959 -0.7556
  720MOL0     H99358   8.422   8.713   4.317 -0.8248 -1.0727 -0.7411
  720MOL0     H99359   8.460   8.749   4.151  3.4861 -1.7004  0.1502
  720MOL0     H99360   8.565   8.823   4.266 -0.2000  1.7311  2.0536
  721MOL0     O99361   7.388   5.467   0.474  0.3129 -0.0488 -0.7163
  721MOL0     C99362   7.338   5.494   0.584 -0.0857  0.3553  0.6333
  721MOL0     O99363   7.246   5.585   0.606  0.5969  0.5867  0.5585
  721MOL0     C99364   7.222   5.675   0.503  1.1681 -0.0776  0.2092
  721MOL0     C99365   7.268   5.799   0.515  0.7024 -0.6092 -0.1993
  721MOL0     C99366   7.230   5.891   0.416 -0.0155 -0.3801  0.0356
  721MOL0     C99367   7.134   5.867   0.318  0.7834 -0.4159 -0.4177
  721MOL0     O99368   7.070   5.964   0.242 -0.2627 -0.1642  0.3780
  721MOL0     C99369   7.002   6.066   0.310 -0.5197 -0.1455  0.5221
  721MOL0     C99370   6.959   6.170   0.218  0.0095  0.0435  0.9234
  721MOL0     C99371   7.074   6.237   0.132 -1.1774  1.0059  0.3545
  721MOL0     C99372   7.041   6.371   0.072 -0.1276 -0.1200  0.2267
  721MOL0     C99373   7.174   6.443   0.054  0.5020 -0.4857  0.8279
  721MOL0     C99374   7.270   6.365  -0.038 -0.8398 -0.3919  0.1622
  721MOL0     C99375   7.386   6.449  -0.101 -0.2332  0.2129  0.7619
  721MOL0     C99376   7.491   6.494  -0.005 -0.6589 -0.0233 -0.9108
  721MOL0     N99377   7.612   6.409  -0.028  0.3080  0.5521 -0.5995
  721MOL0     C99378   7.654   6.323   0.073 -0.4870 -0.5861 -0.0217
  721MOL0     C99379   7.772   6.275   0.021 -0.3188 -0.3729  0.5674
  721MOL0     C99380   7.844   6.155   0.089 -0.3354 -0.4231  0.2911
  721MOL0     C99381   7.786   6.018   0.061 -0.1450 -0.0054 -0.4033
  721MOL0     C99382   7.849   5.909  -0.032  0.1474 -0.6490 -1.2056
  721MOL0     C99383   7.954   5.833   0.040 -0.3688  0.2398  1.1793
  721MOL0     O99384   7.991   5.722  -0.046 -0.4159  0.4595 -0.7450
  721MOL0     C99385   8.104   5.650  -0.012 -0.4140  1.2200 -0.0196
  721MOL0     C99386   8.180   5.676   0.105  0.5598 -1.0127 -0.6873
  721MOL0     C99387   8.306   5.621   0.114 -0.0169  0.3527 -0.8293
  721MOL0     C99388   8.372   5.636   0.248  0.9045  0.6456 -0.4587
  721MOL0     C99389   8.357   5.533   0.007 -0.3148 -0.3507  0.5019
  721MOL0     C99390   8.483   5.453   0.022  0.0846  0.6439 -0.6656
  721MOL0     O99391   8.493   5.359  -0.077 -0.2417  0.2247  0.0508
  721MOL0     C99392   8.607   5.285  -0.076 -1.2907  0.3241 -0.7662
  721MOL0     C99393   8.616   5.155  -0.030  0.1213 -0.0906  0.5595
  721MOL0     C99394   8.731   5.087  -0.051  0.6331  0.2826  0.1394
  721MOL0     C99395   8.853   5.149  -0.108  0.8672 -1.2057  0.1844
  721MOL0     O99396   8.977   5.105  -0.111 -0.8916  0.6157  0.0791
  721MOL0     C99397   9.015   5.039   0.013 -0.3871 -0.1632  0.8747
  721MOL0     C99398   9.163   5.016   0.030 -1.3296 -0.4646 -0.1934
  721MOL0     C99399   9.213   4.907  -0.067 -0.2886 -0.5235 -0.4446
  721MOL0     C99400   9.200   4.923  -0.215 -0.2911 -0.3567 -0.0110
  721MOL0     C99401   9.283   5.044  -0.272  0.3439  0.0276  0.6129
  721MOL0     C99402   9.305   5.031  -0.425 -0.5391 -0.3441 -0.2637
  721MOL0     C99403   9.400   5.146  -0.461 -0.4928 -0.0554 -0.1125
  721MOL0     C99404   9.545   5.114  -0.439  0.8562 -0.7749 -0.6721
  721MOL0    Cl99405   9.649   5.242  -0.507  0.2934 -0.1722 -0.3041
  721MOL0     C99406   8.836   5.279  -0.161 -0.0922  1.0202 -0.1472
  721MOL0     C99407   8.711   5.343  -0.151  1.0725  0.4280  0.2579
  721MOL0     O99408   8.565   5.465   0.111 -0.4778 -0.5241  0.3999
  721MOL0     C99409   8.270   5.501  -0.105 -0.5382  0.2811  0.8509
  721MOL0     C99410   8.147   5.563  -0.114 -0.5327 -0.2255  0.1521
  721MOL0     N99411   7.807   6.345  -0.095  0.3344 -0.4733  0.4652
  721MOL0     N99412   7.708   6.419  -0.126 -0.6334 -0.4711 -0.6067
  721MOL0     C99413   7.086   5.735   0.311 -0.7162 -0.0032  0.4373
  721MOL0     C99414   7.134   5.636   0.403  0.2446  0.1245 -1.1905
  721MOL0     C99415   7.378   5.407   0.697  0.0731  0.1085  0.2020
  721MOL0     C99416   7.408   5.273   0.657 -0.1957 -0.0952  0.2947
  721MOL0     C99417   7.440   5.175   0.745  0.3116 -0.7284  0.3436
  721MOL0     C99418   7.459   5.216   0.878 -0.6718  0.0055  0.1850
  721MOL0     O99419   7.519   5.115   0.946 -0.5061  0.5637 -0.0921
  721MOL0     C99420   7.599   5.154   1.058  0.3092  0.2717  0.4302
  721MOL0     C99421   7.624   5.023   1.135 -0.8213 -0.4949  0.8375
  721MOL0     C99422   7.695   4.922   1.047  0.3601 -0.9892 -0.4865
  721MOL0     C99423   7.793   4.820   1.115 -0.0080 -1.0590  0.2544
  721MOL0     C99424   7.908   4.898   1.161 -0.9800  0.0061 -0.3883
  721MOL0     C99425   8.014   4.959   1.176  0.5494 -0.0426 -0.3060
  721MOL0     C99426   7.421   5.346   0.916  0.2997  0.2493  0.5871
  721MOL0     C99427   7.376   5.442   0.827 -0.1208 -0.8507 -0.7875
  721MOL0     C99428   7.360   5.583   0.879 -0.0706 -0.3830 -0.0098
  721MOL0     H99429   7.343   5.830   0.587 -1.7723  1.5461  1.6694
  721MOL0     H99430   7.285   5.985   0.411 -0.8431  0.0406 -2.7039
  721MOL0     H99431   7.067   6.108   0.387  2.6501  1.8777 -2.9144
  721MOL0     H99432   6.918   6.014   0.357  0.9009 -2.0040  1.1121
  721MOL0     H99433   6.883   6.129   0.151 -0.9337  2.6671  0.2571
  721MOL0     H99434   6.911   6.248   0.278 -0.7387  0.0515  0.3302
  721MOL0     H99435   7.160   6.253   0.198  0.0870  1.8995 -1.4461
  721MOL0     H99436   7.112   6.166   0.058  1.3550 -1.0736  3.3860
  721MOL0     H99437   6.994   6.361  -0.026  2.7472 -2.7413 -1.0248
  721MOL0     H99438   6.974   6.434   0.133 -0.6698  1.7499 -2.1706
  721MOL0     H99439   7.220   6.454   0.153 -2.2975 -0.9698  2.2828
  721MOL0     H99440   7.148   6.539   0.008 -2.5732 -1.4824  0.2189
  721MOL0     H99441   7.315   6.279   0.012 -0.0820 -0.2366 -0.2241
  721MOL0     H99442   7.215   6.327  -0.124 -0.6053 -1.4782  0.4782
  721MOL0     H99443   7.341   6.533  -0.156 -0.7818 -0.6913 -0.2070
  721MOL0     H99444   7.427   6.384  -0.179 -2.1427  0.2651 -0.3578
  721MOL0     H99445   7.520   6.597  -0.024 -1.2269 -0.2951 -3.5687
  721MOL0     H99446   7.442   6.488   0.093  0.5408  1.8138 -0.1524
  721MOL0     H99447   7.614   6.298   0.171  0.5649 -1.5629  0.1723
  721MOL0     H99448   7.834   6.172   0.196  0.1383  0.9166  0.1439
  721MOL0     H99449   7.949   6.144   0.062 -0.7621 -1.4964 -1.0794
  721MOL0     H99450   7.788   5.987   0.166 -0.7335  1.7708  0.1698
  721MOL0     H99451   7.682   6.026   0.027 -0.0997 -0.5431 -0.6783
  721MOL0     H99452   7.764   5.845  -0.056 -2.3208  2.6109 -1.7450
  721MOL0     H99453   7.884   5.952  -0.126  1.6730 -3.0140 -1.8081
  721MOL0     H99454   8.047   5.889   0.056  2.2560 -3.1561 -0.6117
  721MOL0     H99455   7.924   5.794   0.138  0.8185 -0.2927  1.3506
  721MOL0     H99456   8.146   5.748   0.179  0.5061  0.9839 -2.5532
  721MOL0     H99457   8.458   5.702   0.241  1.1434  0.1586 -2.7084
  721MOL0     H99458   8.407   5.541   0.292  0.3316  1.2900  1.4630
  721MOL0     H99459   8.299   5.676   0.319 -0.3833 -2.5825  0.2351
  721MOL0     H99460   8.537   5.094   0.014 -0.9121  0.0829 -0.9707
  721MOL0     H99461   8.732   4.984  -0.017 -2.5966  0.2685  0.4665
  721MOL0     H99462   8.975   5.092   0.099  0.4377 -0.3587  1.3882
  721MOL0     H99463   8.963   4.943   0.017 -1.4546  0.2443 -1.5024
  721MOL0     H99464   9.226   5.105   0.023 -0.1821 -1.0237  2.1013
  721MOL0     H99465   9.193   4.994   0.133  1.1011  0.9337 -0.5409
  721MOL0     H99466   9.171   4.809  -0.040 -1.7619  0.2797  0.2961
  721MOL0     H99467   9.321   4.906  -0.052  0.0495 -1.2903 -2.5596
  721MOL0     H99468   9.095   4.937  -0.240 -0.6185 -2.2940  0.1473
  721MOL0     H99469   9.227   4.828  -0.262 -0.4082  0.5377 -1.9814
  721MOL0     H99470   9.220   5.130  -0.248  0.3606  0.2929 -0.2628
  721MOL0     H99471   9.380   5.033  -0.221 -0.4776 -0.1437  2.1932
  721MOL0     H99472   9.213   5.063  -0.473 -0.9489 -0.4386  0.4449
  721MOL0     H99473   9.335   4.931  -0.459 -1.1926 -1.1781  1.4868
  721MOL0     H99474   9.384   5.234  -0.399  1.2041  0.5926 -0.5522
  721MOL0     H99475   9.383   5.171  -0.566 -1.6071 -1.6929 -0.3494
  721MOL0     H99476   9.569   5.018  -0.484  1.2502 -2.1211  2.2249
  721MOL0     H99477   9.562   5.108  -0.331 -0.5365 -1.0150 -0.4429
  721MOL0     H99478   8.921   5.320  -0.215 -1.7480  4.3994 -0.4161
  721MOL0     H99479   8.702   5.444  -0.190 -0.3993 -0.6796 -2.6014
  721MOL0     H99480   8.292   5.420  -0.173  0.7770  0.4023  1.1159
  721MOL0     H99481   8.084   5.527  -0.195  0.2932 -1.1870 -0.0855
  721MOL0     H99482   6.992   5.722   0.259 -1.0697 -2.7427  1.5918
  721MOL0     H99483   7.097   5.534   0.413  0.6909  0.1399  1.2050
  721MOL0     H99484   7.421   5.260   0.550  0.0468 -3.3984  0.6375
  721MOL0     H99485   7.462   5.073   0.712  1.2684 -0.6683  0.7547
  721MOL0     H99486   7.694   5.201   1.032 -0.0414  1.9616  2.0521
  721MOL0     H99487   7.540   5.217   1.125  0.9397  1.8240 -0.4175
  721MOL0     H99488   7.535   4.986   1.187 -0.8264 -1.4345  0.1867
  721MOL0     H99489   7.696   5.056   1.211  0.4131  2.6884 -1.4720
  721MOL0     H99490   7.618   4.860   0.999 -2.6290  1.2913  1.0346
  721MOL0     H99491   7.732   4.980   0.962 -2.7513 -0.4393 -1.5824
  721MOL0     H99492   7.822   4.736   1.051  1.6246 -0.3723  0.0462
  721MOL0     H99493   7.750   4.774   1.205  2.2361  0.4942  2.2390
  721MOL0     H99494   8.112   5.003   1.185  0.1729  0.5844  0.9681
  721MOL0     H99495   7.418   5.382   1.019 -0.2829  3.0190 -0.3108
  721MOL0     H99496   7.417   5.599   0.971 -0.4554 -1.7361  0.4948
  721MOL0     H99497   7.386   5.665   0.813 -3.2970  0.6284 -0.1926
  721MOL0     H99498   7.254   5.592   0.907  0.2397  0.1928  1.0257
  722MOL0     O99499   0.385   7.461   2.672 -0.6734  0.1152  0.1380
  722MOL0     C99500   0.460   7.384   2.735 -0.7682  0.2785 -0.2225
  722MOL0     O99501   0.592   7.406   2.745 -0.1167  0.6414 -0.1320
  722MOL0     C99502   0.649   7.483   2.649  0.1490  0.3966 -0.7217
  722MOL0     C99503   0.684   7.424   2.529 -0.3599 -0.5499  0.3686
  722MOL0     C99504   0.758   7.499   2.443 -0.3498 -0.3930  0.6718
  722MOL0     C99505   0.782   7.636   2.468 -0.5799  0.5022 -0.0443
  722MOL0     O99506   0.870   7.713   2.407 -0.1365 -0.2006  0.1422
  722MOL0     C99507   0.912   7.682   2.276  0.1028  0.0405 -0.0334
  722MOL0     C99508   0.999   7.779   2.198  0.0592 -0.3523  0.2032
  722MOL0     C99509   1.133   7.824   2.268 -0.7492  0.2945  0.5393
  722MOL0     C99510   1.227   7.908   2.180 -0.3400  0.2073  0.1429
  722MOL0     C99511   1.367   7.933   2.236  0.2818  0.2151 -0.0035
  722MOL0     C99512   1.443   8.029   2.146  0.2544 -1.0190  1.1810
  722MOL0     C99513   1.482   7.964   2.009  0.2736 -0.1041 -0.1255
  722MOL0     C99514   1.558   8.060   1.920 -0.1083  0.4001  0.2089
  722MOL0     N99515   1.621   7.991   1.798 -0.4931 -0.8597 -1.1447
  722MOL0     C99516   1.722   8.041   1.718  0.5601 -0.5253 -0.5830
  722MOL0     C99517   1.767   7.932   1.646 -0.9576  0.5594 -0.0058
  722MOL0     C99518   1.881   7.931   1.546  0.1522  1.0500 -0.1021
  722MOL0     C99519   2.006   7.865   1.613  1.3527  0.5954  0.3200
  722MOL0     C99520   2.123   7.848   1.516 -0.8795 -0.1198  0.2277
  722MOL0     C99521   2.252   7.829   1.596 -0.5581 -0.3400 -0.5153
  722MOL0     O99522   2.270   7.690   1.612  0.0602 -0.2726  0.1736
  722MOL0     C99523   2.392   7.649   1.576  0.1408 -0.0821  0.0781
  722MOL0     C99524   2.455   7.683   1.459 -0.3757  0.3493  0.0249
  722MOL0     C99525   2.592   7.660   1.425  1.1944  0.3799 -0.5802
  722MOL0     C99526   2.634   7.705   1.286 -0.6889 -0.1189 -0.1846
  722MOL0     C99527   2.676   7.607   1.531  0.5256  1.0140  0.8011
  722MOL0     C99528   2.819   7.572   1.528  0.0908  0.2018 -0.6836
  722MOL0     O99529   2.881   7.520   1.638  0.4642 -0.7516 -0.2594
  722MOL0     C99530   2.992   7.450   1.628 -0.2623  0.4189 -0.1031
  722MOL0     C99531   3.107   7.513   1.576 -0.2132  0.9362  0.1397
  722MOL0     C99532   3.224   7.447   1.578 -0.3834  0.4134  0.0442
  722MOL0     C99533   3.241   7.315   1.632  0.1055  0.0114 -0.5480
  722MOL0     O99534   3.361   7.251   1.630  0.0518  1.0225 -0.2651
  722MOL0     C99535   3.423   7.234   1.763  0.5327 -0.3205  0.1592
  722MOL0     C99536   3.566   7.182   1.749 -0.5319 -0.6119 -0.5496
  722MOL0     C99537   3.608   7.163   1.894 -0.3989 -0.1500  0.9196
  722MOL0     C99538   3.729   7.073   1.902 -0.1654 -0.1194  0.1662
  722MOL0     C99539   3.857   7.144   1.864 -1.1006 -0.1061 -0.2898
  722MOL0     C99540   3.975   7.062   1.921  0.0586  0.1911  0.1139
  722MOL0     C99541   3.998   6.931   1.840  0.5564  0.0632 -0.0377
  722MOL0     C99542   4.038   6.950   1.702  0.7255 -0.8568  0.9549
  722MOL0    Cl99543   4.187   7.045   1.701  0.0618 -0.0380 -0.6255
  722MOL0     C99544   3.128   7.253   1.685 -0.7552  0.0047 -0.0418
  722MOL0     C99545   3.004   7.320   1.680  0.6372 -0.7536 -0.0203
  722MOL0     O99546   2.872   7.593   1.423  0.8170 -0.3357  1.0253
  722MOL0     C99547   2.609   7.566   1.652  0.3021 -0.1773  0.7325
  722MOL0     C99548   2.474   7.588   1.668  0.5893 -0.4146 -0.5542
  722MOL0     N99549   1.681   7.828   1.676 -0.1994 -0.4539  0.3523
  722MOL0     N99550   1.594   7.865   1.762 -1.0007 -0.8942  0.0040
  722MOL0     C99551   0.735   7.689   2.585 -0.7588  0.4575  0.2496
  722MOL0     C99552   0.666   7.617   2.672  0.8730  0.4703  0.0934
  722MOL0     C99553   0.407   7.257   2.796 -0.7280 -0.4060  0.2955
  722MOL0     C99554   0.495   7.149   2.812 -0.4929 -0.7837  0.8590
  722MOL0     C99555   0.444   7.026   2.856 -0.0497 -0.2502  0.6350
  722MOL0     C99556   0.314   7.021   2.911  0.4753 -0.1280  0.5234
  722MOL0     O99557   0.287   6.895   2.955 -1.1556  0.7496  0.4456
  722MOL0     C99558   0.170   6.869   3.031 -0.0953  0.3267  0.9859
  722MOL0     C99559   0.171   6.716   3.052  0.2002  0.3728 -0.3354
  722MOL0     C99560   0.049   6.698   3.141  0.3313  1.1080 -0.2489
  722MOL0     C99561   0.036   6.554   3.181  0.1175 -0.5720 -0.9390
  722MOL0     C99562   0.001   6.460   3.070 -0.3565  0.4883 -0.4510
  722MOL0     C99563  -0.029   6.392   2.973  0.5679  0.0033  0.6673
  722MOL0     C99564   0.226   7.130   2.898  0.4584  0.4341 -0.5628
  722MOL0     C99565   0.274   7.249   2.845 -0.3745  0.2888 -0.2837
  722MOL0     C99566   0.181   7.366   2.843 -0.2274  0.0334  0.4798
  722MOL0     H99567   0.657   7.319   2.519 -0.6994 -0.8241  3.3203
  722MOL0     H99568   0.785   7.464   2.344 -2.0543  0.8141 -0.2791
  722MOL0     H99569   0.830   7.660   2.208  0.1757 -0.6168  0.0795
  722MOL0     H99570   0.974   7.592   2.291 -1.2893 -0.6800  1.7638
  722MOL0     H99571   1.023   7.735   2.101  2.4264 -2.5259  1.6366
  722MOL0     H99572   0.949   7.873   2.174  0.6268 -0.3830 -1.2300
  722MOL0     H99573   1.122   7.885   2.358  2.9024 -0.5543  1.7208
  722MOL0     H99574   1.176   7.730   2.303 -4.1827 -1.9634 -0.7152
  722MOL0     H99575   1.246   7.870   2.079 -1.4234  0.1376 -0.0405
  722MOL0     H99576   1.168   7.998   2.164 -0.1688  0.4641  0.9033
  722MOL0     H99577   1.418   7.837   2.247 -1.3227 -0.3427  4.6891
  722MOL0     H99578   1.359   7.973   2.337  0.8215  0.0224  0.1194
  722MOL0     H99579   1.383   8.119   2.127 -3.0211 -3.4532 -1.2526
  722MOL0     H99580   1.537   8.065   2.190 -0.0801 -2.0943  2.8484
  722MOL0     H99581   1.401   7.935   1.941  2.5009  0.3348 -3.1633
  722MOL0     H99582   1.528   7.866   2.023 -4.5802 -3.0172 -2.0318
  722MOL0     H99583   1.483   8.132   1.886  1.9464  2.1751 -0.7722
  722MOL0     H99584   1.630   8.111   1.984  0.8510 -0.1102 -0.4417
  722MOL0     H99585   1.758   8.142   1.726  0.6916 -0.7019  1.7017
  722MOL0     H99586   1.901   8.034   1.514 -1.9305  1.2108 -1.0857
  722MOL0     H99587   1.846   7.876   1.458  3.9908 -3.7498  0.9488
  722MOL0     H99588   2.028   7.917   1.706  0.6636  1.8996 -0.2249
  722MOL0     H99589   1.986   7.760   1.639  1.8750  1.0316  2.7163
  722MOL0     H99590   2.109   7.759   1.454 -1.6101 -0.0184  0.2384
  722MOL0     H99591   2.127   7.939   1.456 -3.4165 -0.1154 -0.0143
  722MOL0     H99592   2.328   7.879   1.535 -2.7199  3.0687 -0.7097
  722MOL0     H99593   2.251   7.896   1.683  2.1741  1.4951 -1.7274
  722MOL0     H99594   2.400   7.735   1.382 -1.5292 -2.3055 -1.0517
  722MOL0     H99595   2.581   7.795   1.253  1.1415  0.2695 -2.3426
  722MOL0     H99596   2.608   7.625   1.216 -1.8958  0.7801 -0.8147
  722MOL0     H99597   2.740   7.730   1.277 -0.7054 -0.5464 -2.0537
  722MOL0     H99598   3.103   7.613   1.534 -1.2658  0.6284 -0.5394
  722MOL0     H99599   3.315   7.481   1.528 -0.5030  0.2904 -0.2600
  722MOL0     H99600   3.421   7.331   1.813 -2.4406  1.5511 -3.1220
  722MOL0     H99601   3.367   7.154   1.813 -0.5789 -0.5785 -1.4260
  722MOL0     H99602   3.564   7.084   1.701 -0.5295 -1.6362  1.4614
  722MOL0     H99603   3.630   7.253   1.695 -1.3117  0.4201 -0.1595
  722MOL0     H99604   3.523   7.113   1.941 -2.6017  0.9946 -1.5731
  722MOL0     H99605   3.620   7.260   1.943 -0.1833  0.4515 -0.2688
  722MOL0     H99606   3.707   6.987   1.839 -1.2830 -0.4967  1.0355
  722MOL0     H99607   3.731   7.035   2.005 -0.0992 -1.9939 -0.4955
  722MOL0     H99608   3.867   7.175   1.759 -0.0743 -1.2081 -0.5397
  722MOL0     H99609   3.850   7.233   1.927  0.8069 -0.8334  1.0400
  722MOL0     H99610   3.968   7.042   2.028  2.3063 -2.4655 -0.1018
  722MOL0     H99611   4.068   7.120   1.921 -0.3063  0.8222 -1.0431
  722MOL0     H99612   3.907   6.872   1.852  0.5893 -0.6116 -2.6349
  722MOL0     H99613   4.073   6.867   1.888  0.7795  0.2599 -0.1196
  722MOL0     H99614   3.976   7.015   1.639 -1.0745 -4.2934 -1.1217
  722MOL0     H99615   4.044   6.849   1.661 -1.5067 -1.1036  1.0705
  722MOL0     H99616   3.118   7.154   1.728 -0.0101 -0.7224 -1.4564
  722MOL0     H99617   2.905   7.286   1.706 -2.7026  5.3530 -2.7122
  722MOL0     H99618   2.662   7.525   1.737  2.2915 -2.7508 -1.5487
  722MOL0     H99619   2.439   7.573   1.770  3.1466 -0.1614  0.4339
  722MOL0     H99620   0.751   7.793   2.612  3.3967 -0.3194  1.4011
  722MOL0     H99621   0.657   7.645   2.776 -1.5481 -1.2544  0.4018
  722MOL0     H99622   0.600   7.171   2.793 -1.3405  1.8230 -1.5423
  722MOL0     H99623   0.512   6.944   2.877  1.1796  0.5695 -0.0648
  722MOL0     H99624   0.185   6.929   3.121 -0.3759  0.1792  1.1322
  722MOL0     H99625   0.081   6.899   2.975  1.0045 -1.4898 -2.0108
  722MOL0     H99626   0.265   6.688   3.102  0.3433 -0.0527 -0.8426
  722MOL0     H99627   0.159   6.667   2.955 -4.5912  1.7186 -0.6362
  722MOL0     H99628   0.066   6.756   3.232 -1.3431  0.1709  0.7165
  722MOL0     H99629  -0.041   6.726   3.086  1.9339  2.7149 -2.2152
  722MOL0     H99630  -0.047   6.549   3.252  0.5034 -3.9376 -0.5418
  722MOL0     H99631   0.118   6.526   3.248 -2.8411 -1.1380  2.8200
  722MOL0     H99632  -0.056   6.335   2.887  2.8335 -0.1936  0.0285
  722MOL0     H99633   0.124   7.134   2.936  0.5043 -1.4507 -0.1749
  722MOL0     H99634   0.091   7.362   2.904 -0.4663 -0.5739  0.1075
  722MOL0     H99635   0.236   7.451   2.886  2.2215 -2.0842  1.8566
  722MOL0     H99636   0.154   7.388   2.739 -0.9076 -3.1822 -0.1340
  723MOL0     O99637   3.658   4.222   8.344  0.0195  0.4717  0.3688
  723MOL0     C99638   3.618   4.135   8.423  0.0545 -0.3931 -0.2401
  723MOL0     O99639   3.603   4.154   8.556 -0.6909 -0.6088 -0.5027
  723MOL0     C99640   3.616   4.271   8.620  0.1197 -1.2019  0.2752
  723MOL0     C99641   3.551   4.282   8.746 -0.3120 -1.0446 -0.3359
  723MOL0     C99642   3.560   4.396   8.834 -0.5971 -0.0302 -0.7921
  723MOL0     C99643   3.630   4.512   8.791 -0.5667  0.6988 -0.1985
  723MOL0     O99644   3.633   4.629   8.864  0.6874 -0.0217  0.5680
  723MOL0     C99645   3.648   4.758   8.799  0.1533  0.6977 -0.1424
  723MOL0     C99646   3.602   4.880   8.870 -0.4583 -0.6296  0.0157
  723MOL0     C99647   3.598   5.019   8.803 -0.1965  0.5529  0.2974
  723MOL0     C99648   3.545   5.107   8.901  0.2084 -0.8813 -0.9009
  723MOL0     C99649   3.499   5.240   8.835 -0.6345 -0.5053 -0.0340
  723MOL0     C99650   3.627   5.327   8.819  0.4965  1.4840  0.4261
  723MOL0     C99651   3.599   5.469   8.768  0.1790 -0.5954 -0.2668
  723MOL0     C99652   3.531   5.482   8.633  0.6397 -0.4130 -0.2856
  723MOL0     N99653   3.528   5.615   8.578 -0.0918  0.9473 -0.1623
  723MOL0     C99654   3.623   5.662   8.498 -1.3837  0.5568 -0.5996
  723MOL0     C99655   3.612   5.798   8.493 -0.0774 -0.6813 -0.4916
  723MOL0     C99656   3.707   5.899   8.433  0.8426  0.7796  0.4531
  723MOL0     C99657   3.836   5.886   8.510 -0.1677 -0.4482 -0.8025
  723MOL0     C99658   3.885   6.011   8.580 -0.4371  0.4924 -0.5414
  723MOL0     C99659   3.928   6.118   8.487 -0.0022 -0.8127 -0.6351
  723MOL0     O99660   3.818   6.189   8.421 -0.6736  0.6144  0.2278
  723MOL0     C99661   3.844   6.317   8.373  0.2486 -0.1616  0.0962
  723MOL0     C99662   3.727   6.400   8.362 -0.7683  0.3427  1.1277
  723MOL0     C99663   3.738   6.535   8.316 -0.8560  1.4437 -0.2672
  723MOL0     C99664   3.610   6.625   8.336 -0.7095  0.5057  0.2084
  723MOL0     C99665   3.868   6.581   8.283 -0.8755 -0.7937 -0.4478
  723MOL0     C99666   3.884   6.717   8.224 -0.7857 -0.5116 -0.0034
  723MOL0     O99667   4.014   6.753   8.187 -0.2038 -0.4248 -0.5203
  723MOL0     C99668   4.030   6.884   8.153 -0.1022  0.4632 -0.6898
  723MOL0     C99669   4.096   6.982   8.223  0.1251  0.1573  0.1896
  723MOL0     C99670   4.111   7.111   8.170  0.1238 -0.0738  0.6853
  723MOL0     C99671   4.075   7.149   8.039  0.6865 -0.1498 -0.1545
  723MOL0     O99672   4.099   7.273   7.983 -0.0858 -0.3509 -0.3270
  723MOL0     C99673   4.236   7.305   7.968  0.8715  1.1980 -0.3753
  723MOL0     C99674   4.236   7.417   7.870  0.1897  0.4408  0.2501
  723MOL0     C99675   4.383   7.451   7.843 -0.6466  0.3638 -0.2043
  723MOL0     C99676   4.411   7.570   7.756  0.0038 -0.8575 -0.4659
  723MOL0     C99677   4.555   7.584   7.713 -0.4995  0.0508  0.1822
  723MOL0     C99678   4.571   7.704   7.614  0.0814  0.5189 -0.2327
  723MOL0     C99679   4.716   7.761   7.630 -0.4135 -0.4448  0.0698
  723MOL0     C99680   4.751   7.854   7.514  0.2180  0.7793 -1.0390
  723MOL0    Cl99681   4.743   7.753   7.369 -0.1594  0.2433 -0.1323
  723MOL0     C99682   4.010   7.049   7.964 -0.4746 -0.4447 -0.3565
  723MOL0     C99683   3.982   6.921   8.021  0.0072  0.4234  0.6020
  723MOL0     O99684   3.791   6.790   8.204  0.7604 -0.5918  0.7877
  723MOL0     C99685   3.981   6.497   8.281  0.8496  0.3760 -0.5372
  723MOL0     C99686   3.966   6.361   8.321 -0.8731  0.2717  0.2235
  723MOL0     N99687   3.502   5.830   8.571 -0.2367  0.5790 -0.1861
  723MOL0     N99688   3.450   5.719   8.622 -0.5941 -0.1737 -0.3255
  723MOL0     C99689   3.688   4.499   8.661 -0.6235  0.0872  0.0679
  723MOL0     C99690   3.684   4.388   8.579  0.4874 -0.4418 -0.6397
  723MOL0     C99691   3.611   3.993   8.370  0.1830  0.0217  0.6523
  723MOL0     C99692   3.571   3.898   8.463 -0.2981 -0.1134 -0.8024
  723MOL0     C99693   3.556   3.764   8.435 -0.1712  0.0288 -1.5153
  723MOL0     C99694   3.563   3.716   8.300 -0.3971 -0.3604 -0.3469
  723MOL0     O99695   3.541   3.578   8.286 -0.0664  0.4934 -0.3225
  723MOL0     C99696   3.494   3.528   8.162 -0.2566  0.0103  0.2391
  723MOL0     C99697   3.447   3.388   8.189  0.0070 -0.1698 -0.2816
  723MOL0     C99698   3.405   3.320   8.061  0.7030 -0.2448 -0.7526
  723MOL0     C99699   3.256   3.338   8.001  0.4909  0.2466  0.6747
  723MOL0     C99700   3.158   3.327   8.109 -0.0623  0.0494 -0.6924
  723MOL0     C99701   3.058   3.313   8.179 -0.0153  0.4286 -0.4049
  723MOL0     C99702   3.588   3.816   8.199 -0.5840 -0.2051  0.0757
  723MOL0     C99703   3.627   3.951   8.230 -0.4334  0.0584  0.0313
  723MOL0     C99704   3.647   4.054   8.123  0.6943  0.2647  0.1529
  723MOL0     H99705   3.503   4.198   8.794 -1.5942 -0.5525 -0.6847
  723MOL0     H99706   3.506   4.390   8.928  0.4412 -4.8892 -0.2030
  723MOL0     H99707   3.582   4.745   8.713  2.3903  0.4829 -1.9484
  723MOL0     H99708   3.750   4.779   8.763 -0.4070  3.3836 -0.3582
  723MOL0     H99709   3.501   4.854   8.905 -0.5692 -1.1092 -0.6323
  723MOL0     H99710   3.659   4.887   8.963 -5.2477  0.9843  3.2142
  723MOL0     H99711   3.699   5.046   8.769  0.1058 -0.2199  0.5649
  723MOL0     H99712   3.528   5.022   8.719 -1.4761 -1.1480  1.2426
  723MOL0     H99713   3.452   5.072   8.946  1.0389 -1.0911  0.7317
  723MOL0     H99714   3.613   5.124   8.985 -1.9111  2.1013  0.4089
  723MOL0     H99715   3.434   5.277   8.915 -0.3403 -3.0772  1.5052
  723MOL0     H99716   3.448   5.213   8.742 -2.4226  0.9255  0.4653
  723MOL0     H99717   3.689   5.323   8.909  0.3899 -0.8483  0.4598
  723MOL0     H99718   3.697   5.276   8.752 -2.4190 -4.0831  1.0383
  723MOL0     H99719   3.698   5.514   8.760 -0.1166 -0.2186 -2.2344
  723MOL0     H99720   3.546   5.530   8.841  0.0332 -2.6929  1.5047
  723MOL0     H99721   3.573   5.408   8.564 -0.5031 -1.1787 -0.1964
  723MOL0     H99722   3.426   5.452   8.649  1.0399 -0.8905  1.7428
  723MOL0     H99723   3.699   5.609   8.441 -1.6332 -0.0045 -0.4243
  723MOL0     H99724   3.661   5.998   8.438 -1.8582 -0.4127  0.5025
  723MOL0     H99725   3.712   5.877   8.326  0.1951  0.6519  0.4474
  723MOL0     H99726   3.836   5.802   8.580 -2.0507  0.0494 -0.1413
  723MOL0     H99727   3.907   5.863   8.431  1.8091 -1.8632  1.2641
  723MOL0     H99728   3.819   6.050   8.658  0.7725 -0.1882  0.8775
  723MOL0     H99729   3.977   5.980   8.631 -0.2313  0.4592 -0.9307
  723MOL0     H99730   3.988   6.193   8.539 -0.4617  0.4609 -1.8715
  723MOL0     H99731   3.991   6.064   8.414  3.0398 -0.2896  1.4342
  723MOL0     H99732   3.635   6.356   8.401  1.0288 -1.6712  3.3542
  723MOL0     H99733   3.594   6.677   8.241 -0.7549  1.1418  0.5624
  723MOL0     H99734   3.634   6.706   8.406 -0.6915 -1.2739  2.3853
  723MOL0     H99735   3.517   6.575   8.367 -0.0423  0.2651  1.9393
  723MOL0     H99736   4.127   6.961   8.325 -0.2815  0.1320  0.3126
  723MOL0     H99737   4.169   7.180   8.231  2.7834  1.8461 -3.5532
  723MOL0     H99738   4.276   7.349   8.059  2.2852 -2.3431  0.8684
  723MOL0     H99739   4.297   7.218   7.945  1.6006  1.5160  0.2990
  723MOL0     H99740   4.181   7.405   7.777  2.8954 -1.1213 -1.2650
  723MOL0     H99741   4.194   7.503   7.923  0.3190  0.1437  0.8513
  723MOL0     H99742   4.426   7.363   7.796  2.1613  2.7046 -2.3845
  723MOL0     H99743   4.426   7.465   7.943 -0.9873 -0.9390  0.1374
  723MOL0     H99744   4.366   7.664   7.790  2.0794 -0.0907  0.2945
  723MOL0     H99745   4.346   7.551   7.670 -0.3227  0.8836 -0.6363
  723MOL0     H99746   4.626   7.577   7.796  0.1409 -3.4329 -0.5337
  723MOL0     H99747   4.578   7.498   7.651 -0.6227  0.6997 -0.7917
  723MOL0     H99748   4.499   7.779   7.648 -1.1704 -1.6216  2.2313
  723MOL0     H99749   4.543   7.672   7.513 -0.1685 -0.3347  0.0963
  723MOL0     H99750   4.800   7.691   7.628  0.2755  0.3043 -3.4538
  723MOL0     H99751   4.713   7.822   7.721 -0.1969 -0.0122 -0.2100
  723MOL0     H99752   4.850   7.893   7.539 -0.4997  1.6705  0.5777
  723MOL0     H99753   4.685   7.942   7.504 -1.8487 -0.2885  1.9646
  723MOL0     H99754   4.004   7.062   7.856  3.3789  3.4945 -0.3990
  723MOL0     H99755   3.953   6.839   7.956  0.7425 -0.7575  1.7145
  723MOL0     H99756   4.070   6.524   8.225  0.7184 -1.5843 -1.7971
  723MOL0     H99757   4.047   6.291   8.304 -1.6517  0.0270 -2.9686
  723MOL0     H99758   3.743   4.583   8.619 -0.0689 -0.8779 -1.2114
  723MOL0     H99759   3.746   4.390   8.490 -1.1385 -0.1589 -1.8106
  723MOL0     H99760   3.565   3.923   8.568 -0.2973 -0.1584 -0.7920
  723MOL0     H99761   3.566   3.690   8.514  2.3001  0.7043 -1.1207
  723MOL0     H99762   3.417   3.591   8.116  0.5123  1.6469  1.1289
  723MOL0     H99763   3.579   3.527   8.093 -0.8828 -0.1666 -0.5585
  723MOL0     H99764   3.378   3.379   8.274  0.8778 -1.5051  0.3352
  723MOL0     H99765   3.534   3.326   8.213  1.1655  0.1391 -3.3849
  723MOL0     H99766   3.469   3.349   7.977  1.8561 -2.1614 -0.5925
  723MOL0     H99767   3.423   3.214   8.080 -2.7032 -0.8573 -0.2630
  723MOL0     H99768   3.243   3.261   7.924  4.1219 -3.0773  2.9929
  723MOL0     H99769   3.248   3.439   7.961  2.7141 -0.4189 -1.7238
  723MOL0     H99770   2.968   3.305   8.235  0.4892 -0.7449  0.2565
  723MOL0     H99771   3.592   3.783   8.096 -0.2053 -0.5113  0.1890
  723MOL0     H99772   3.676   4.010   8.026  2.1406 -0.1220  0.7293
  723MOL0     H99773   3.555   4.110   8.105  0.6617  0.0586 -0.3520
  723MOL0     H99774   3.732   4.122   8.135  1.9619 -1.0518 -0.9615
  724MOL0     O99775   7.867   5.411   9.953 -0.5102 -0.7486 -0.6544
  724MOL0     C99776   7.828   5.311   9.899 -0.6709  0.0704  1.4568
  724MOL0     O99777   7.898   5.235   9.810  1.1445  0.0049  0.6755
  724MOL0     C99778   8.014   5.283   9.747  0.2442 -0.1578 -0.8698
  724MOL0     C99779   8.006   5.397   9.665  0.1237  0.0653  0.1244
  724MOL0     C99780   8.105   5.422   9.567  0.2788 -1.0351  0.5003
  724MOL0     C99781   8.217   5.334   9.548  1.3861 -0.9249  0.2855
  724MOL0     O99782   8.307   5.371   9.457 -0.4652 -0.1820 -0.0167
  724MOL0     C99783   8.424   5.294   9.453  1.0256 -0.4813  0.2669
  724MOL0     C99784   8.512   5.346   9.351 -0.1942 -0.1155 -0.3660
  724MOL0     C99785   8.649   5.266   9.348  0.0853 -0.4961  0.2841
  724MOL0     C99786   8.756   5.347   9.282  0.8345 -0.1184 -0.6556
  724MOL0     C99787   8.878   5.264   9.242  0.9066 -0.2998  0.0479
  724MOL0     C99788   8.956   5.190   9.356  0.3404  0.7196  0.6362
  724MOL0     C99789   9.092   5.129   9.299  0.7972 -0.1140  0.2457
  724MOL0     C99790   9.186   5.081   9.413 -0.5861  0.6238  1.0163
  724MOL0     N99791   9.332   5.069   9.372 -0.0771 -0.1073  0.7310
  724MOL0     C99792   9.418   5.170   9.326  0.6242  0.1813  0.1974
  724MOL0     C99793   9.536   5.123   9.319 -0.7182 -0.0739 -0.0621
  724MOL0     C99794   9.658   5.199   9.264  0.9188  0.6678 -0.4791
  724MOL0     C99795   9.724   5.300   9.366  0.7074 -0.1849 -0.1055
  724MOL0     C99796   9.851   5.368   9.306 -0.0918  0.5161 -1.2320
  724MOL0     C99797   9.923   5.438   9.427  0.7454  0.1171  0.0226
  724MOL0     O99798  10.006   5.544   9.363  0.8729 -0.3554  0.1348
  724MOL0     C99799  10.105   5.497   9.282  0.7072  0.3212  0.4614
  724MOL0     C99800  10.106   5.496   9.136  0.0496  1.5483  0.0355
  724MOL0     C99801  10.195   5.425   9.063  0.3476 -0.4566 -0.1028
  724MOL0     C99802  10.159   5.434   8.918 -0.6931  0.4890  0.3049
  724MOL0     C99803  10.296   5.354   9.122  0.0172  0.0362  0.3648
  724MOL0     C99804  10.398   5.268   9.049 -0.5862  0.5647  0.6716
  724MOL0     O99805  10.520   5.263   9.096 -0.7187 -0.1039  0.1790
  724MOL0     C99806  10.615   5.176   9.042  0.2919  0.1882 -0.1052
  724MOL0     C99807  10.663   5.200   8.913 -0.2464  0.4590  0.3900
  724MOL0     C99808  10.772   5.134   8.873 -0.4585  0.5836 -0.5080
  724MOL0     C99809  10.828   5.031   8.948  0.3622  0.2787  1.1514
  724MOL0     O99810  10.940   4.974   8.892  0.1602  0.1329 -0.2977
  724MOL0     C99811  10.975   4.848   8.937 -0.6461  0.4808 -0.2738
  724MOL0     C99812  11.062   4.796   8.831 -0.3356 -0.0328  0.5284
  724MOL0     C99813  11.137   4.664   8.884 -0.5868 -0.0043  0.9070
  724MOL0     C99814  11.040   4.535   8.868  0.5235  0.2078  0.6504
  724MOL0     C99815  11.040   4.472   8.721 -0.9672 -0.6143  0.4244
  724MOL0     C99816  10.962   4.339   8.724 -0.0632  0.8030 -0.4973
  724MOL0     C99817  10.976   4.259   8.593  0.1812  0.0181 -0.2738
  724MOL0     C99818  10.909   4.123   8.591  0.3984  0.2397 -1.3951
  724MOL0    Cl99819  10.992   4.022   8.707  0.1227 -0.1965  0.0220
  724MOL0     C99820  10.777   5.007   9.069  0.0777 -0.5989  0.9310
  724MOL0     C99821  10.669   5.079   9.130 -0.1472  0.4267 -0.3199
  724MOL0     O99822  10.364   5.226   8.939  0.0828 -0.0961  0.1143
  724MOL0     C99823  10.306   5.369   9.260  0.4930  0.9064 -0.2165
  724MOL0     C99824  10.210   5.433   9.346  1.6098 -0.3486  0.3062
  724MOL0     N99825   9.539   4.994   9.355  0.2644  0.1276  0.4902
  724MOL0     N99826   9.415   4.963   9.390 -0.2209 -0.8896  0.0805
  724MOL0     C99827   8.219   5.218   9.631 -0.4054 -0.1921 -0.3359
  724MOL0     C99828   8.122   5.194   9.732  1.0018 -0.5774  0.1066
  724MOL0     C99829   7.700   5.240   9.936 -0.6548 -0.8291  0.4027
  724MOL0     C99830   7.631   5.178   9.828  0.2154  0.0523  0.0560
  724MOL0     C99831   7.496   5.130   9.848 -0.5707  0.2904 -0.8059
  724MOL0     C99832   7.436   5.141   9.966  0.3850  0.5834  0.0211
  724MOL0     O99833   7.309   5.085   9.995 -0.0834  0.3392  0.0604
  724MOL0     C99834   7.235   5.002   9.904 -0.6163 -0.2770 -0.4120
  724MOL0     C99835   7.099   4.966   9.960  1.4591  0.7999  0.8808
  724MOL0     C99836   6.997   4.928   9.852 -0.4342 -0.4935 -0.5130
  724MOL0     C99837   6.861   4.886   9.912 -0.0296  0.1762  0.2173
  724MOL0     C99838   6.805   4.978  10.005 -0.3091 -0.1622 -0.1723
  724MOL0     C99839   6.750   5.040  10.096  0.6837 -0.4201 -0.5549
  724MOL0     C99840   7.490   5.218  10.067 -0.2104 -0.3357 -0.0002
  724MOL0     C99841   7.624   5.268  10.059  0.4697 -0.6322 -0.1506
  724MOL0     C99842   7.683   5.333  10.180  0.3065  0.7271 -0.3890
  724MOL0     H99843   7.925   5.469   9.674  0.2060  0.1163  0.4834
  724MOL0     H99844   8.095   5.514   9.510 -1.8717 -0.9301  0.9537
  724MOL0     H99845   8.393   5.195   9.417 -0.1696  0.3096 -0.9681
  724MOL0     H99846   8.475   5.294   9.550  1.7889 -0.1054 -0.1292
  724MOL0     H99847   8.458   5.346   9.256 -0.3470  1.0978 -0.2980
  724MOL0     H99848   8.524   5.452   9.373 -0.3502  0.5423 -3.0526
  724MOL0     H99849   8.689   5.229   9.443  1.4251  0.1028 -0.0302
  724MOL0     H99850   8.631   5.184   9.278 -0.2860 -2.3690  2.4568
  724MOL0     H99851   8.711   5.393   9.194  0.9417  0.9564 -0.1581
  724MOL0     H99852   8.787   5.425   9.352 -0.5917 -1.1687  1.2421
  724MOL0     H99853   8.948   5.333   9.194  1.2618 -0.4883  0.2868
  724MOL0     H99854   8.851   5.198   9.160  0.0423 -1.7173  1.4222
  724MOL0     H99855   8.982   5.256   9.439 -0.0467  1.7643 -0.0581
  724MOL0     H99856   8.886   5.114   9.392  0.8954 -0.0730  0.0675
  724MOL0     H99857   9.143   5.207   9.242 -2.6495  2.7757  0.7461
  724MOL0     H99858   9.078   5.047   9.228  0.2593 -1.6091  1.9961
  724MOL0     H99859   9.171   5.147   9.500 -3.0537  1.3707  0.1153
  724MOL0     H99860   9.150   4.981   9.440 -0.3099  0.6058  1.3344
  724MOL0     H99861   9.388   5.261   9.275 -1.2050 -2.3459 -3.7095
  724MOL0     H99862   9.629   5.272   9.188 -0.6051  1.3588  0.7097
  724MOL0     H99863   9.729   5.126   9.225 -2.7995 -3.2736 -0.5616
  724MOL0     H99864   9.663   5.383   9.403  1.7646 -0.2954  2.0879
  724MOL0     H99865   9.741   5.253   9.464 -1.7109  1.0742  1.0005
  724MOL0     H99866   9.920   5.299   9.257 -0.8712  0.2433 -1.9730
  724MOL0     H99867   9.828   5.448   9.236  0.3650  2.7083  0.9673
  724MOL0     H99868   9.848   5.488   9.488  2.2124  1.6955  0.6058
  724MOL0     H99869   9.980   5.370   9.491  3.0457  0.4627 -1.5346
  724MOL0     H99870  10.024   5.534   9.077  1.1027  1.7652 -1.3415
  724MOL0     H99871  10.071   5.370   8.909  0.0656 -1.0414  2.8090
  724MOL0     H99872  10.244   5.420   8.850 -0.8102  1.2792 -0.0070
  724MOL0     H99873  10.126   5.533   8.884 -2.0783 -0.4375 -1.2279
  724MOL0     H99874  10.617   5.278   8.853  2.9495  0.1868 -2.7102
  724MOL0     H99875  10.815   5.158   8.776 -2.0298 -0.8174 -1.6151
  724MOL0     H99876  11.025   4.864   9.033  0.0157 -2.3696 -0.0475
  724MOL0     H99877  10.885   4.785   8.940 -1.0407  0.8500 -2.6361
  724MOL0     H99878  11.009   4.781   8.736  2.0667  0.7105 -0.9995
  724MOL0     H99879  11.135   4.870   8.799  0.0345 -0.0310  1.3572
  724MOL0     H99880  11.179   4.673   8.985  0.3561 -3.1443  0.8921
  724MOL0     H99881  11.224   4.649   8.819 -1.5265 -0.5899 -0.2423
  724MOL0     H99882  10.938   4.570   8.882  0.3265  1.0069 -2.0807
  724MOL0     H99883  11.061   4.460   8.944 -1.6198  1.4777  2.6201
  724MOL0     H99884  10.999   4.547   8.653  0.5891 -1.2552 -1.3040
  724MOL0     H99885  11.144   4.453   8.691 -0.3830  3.8860 -1.1901
  724MOL0     H99886  10.855   4.352   8.747  0.3814  0.0779  2.4284
  724MOL0     H99887  11.003   4.282   8.808 -1.3183  3.2085  1.9351
  724MOL0     H99888  11.080   4.240   8.567  0.0930  0.3202 -0.8800
  724MOL0     H99889  10.945   4.326   8.512 -1.2991 -0.0114  0.2365
  724MOL0     H99890  10.910   4.071   8.495 -1.6544 -0.1479 -1.2670
  724MOL0     H99891  10.804   4.139   8.618  0.4429 -1.9149  0.2490
  724MOL0     H99892  10.829   4.936   9.133  1.9626  0.0686  0.2033
  724MOL0     H99893  10.621   5.057   9.225  0.6450 -1.6167 -0.3348
  724MOL0     H99894  10.389   5.329   9.317 -1.4085 -0.1246  1.9988
  724MOL0     H99895  10.220   5.421   9.454  0.6554 -3.1549  0.1683
  724MOL0     H99896   8.293   5.141   9.613 -2.0862 -1.7861 -0.7818
  724MOL0     H99897   8.108   5.095   9.775 -0.9447 -0.8066 -0.9201
  724MOL0     H99898   7.670   5.160   9.729  0.3812  0.8922 -0.0378
  724MOL0     H99899   7.457   5.077   9.761 -0.3808  0.5212 -1.0362
  724MOL0     H99900   7.214   5.064   9.816 -4.8388  1.6882  1.6668
  724MOL0     H99901   7.297   4.916   9.878  0.9224 -0.1256  2.3246
  724MOL0     H99902   7.059   5.048  10.020  0.0265 -1.6980  3.5995
  724MOL0     H99903   7.116   4.881  10.027 -2.3758 -2.1295 -1.4550
  724MOL0     H99904   6.977   5.013   9.786  2.1779 -0.6244 -1.5915
  724MOL0     H99905   7.054   4.854   9.796  1.9816  1.5967 -1.0142
  724MOL0     H99906   6.853   4.781   9.938  0.7275 -0.6037 -2.3711
  724MOL0     H99907   6.794   4.890   9.825 -0.7015  2.4824  0.7676
  724MOL0     H99908   6.730   5.090  10.189 -0.8644 -1.5765 -0.2290
  724MOL0     H99909   7.436   5.253  10.153  0.6455  1.7359 -0.2423
  724MOL0     H99910   7.691   5.442  10.170 -2.1035  0.9450 -0.6177
  724MOL0     H99911   7.619   5.308  10.265  0.2065 -0.8000 -0.8868
  724MOL0     H99912   7.785   5.297  10.193  0.5333  0.5488 -2.3596
  725MOL0     O99913   1.984   6.989   8.562 -0.0314 -0.4984 -0.2553
  725MOL0     C99914   2.065   6.907   8.616 -0.5998 -0.0558  0.4430
  725MOL0     O99915   2.133   6.812   8.551  0.5040  0.1660  0.5040
  725MOL0     C99916   2.121   6.798   8.410  0.0740  0.5491  0.2095
  725MOL0     C99917   2.106   6.677   8.353  0.2874 -0.0831 -0.0293
  725MOL0     C99918   2.097   6.667   8.210  0.4844 -0.3074  0.2334
  725MOL0     C99919   2.104   6.782   8.125 -0.0379  0.5171 -1.1171
  725MOL0     O99920   2.088   6.776   7.992  0.1282 -0.6345  0.2471
  725MOL0     C99921   2.201   6.704   7.941 -0.2886 -0.2440  0.1751
  725MOL0     C99922   2.238   6.740   7.795 -0.1059 -0.4187 -0.4608
  725MOL0     C99923   2.383   6.705   7.763  0.7527  0.6695  0.6350
  725MOL0     C99924   2.405   6.640   7.624  0.4490  0.5193  0.0906
  725MOL0     C99925   2.363   6.488   7.631 -0.5111  1.0114 -0.8439
  725MOL0     C99926   2.449   6.408   7.741  0.1252  0.2792  0.2450
  725MOL0     C99927   2.435   6.254   7.736  0.3684  1.4332  0.5593
  725MOL0     C99928   2.541   6.179   7.820  0.2205  0.2305  0.2331
  725MOL0     N99929   2.676   6.205   7.764 -0.0909  0.6837  0.0489
  725MOL0     C99930   2.774   6.267   7.835 -0.7854 -0.7360 -0.3443
  725MOL0     C99931   2.885   6.256   7.762 -0.6631  0.4292 -0.4271
  725MOL0     C99932   3.027   6.289   7.809 -0.4482 -0.4748 -0.3971
  725MOL0     C99933   3.087   6.401   7.728 -0.2217 -0.4121 -0.1280
  725MOL0     C99934   3.234   6.423   7.742 -0.0049 -0.4245  0.2796
  725MOL0     C99935   3.288   6.557   7.663  0.0436  0.7155  0.4166
  725MOL0     O99936   3.431   6.551   7.662  0.1612  0.2525  0.4864
  725MOL0     C99937   3.495   6.658   7.610  0.5279  0.2126 -0.6979
  725MOL0     C99938   3.578   6.719   7.704 -0.2333  0.9587 -0.1811
  725MOL0     C99939   3.626   6.847   7.686  0.1152  0.4151  1.0773
  725MOL0     C99940   3.703   6.900   7.801 -0.6300 -0.0481  0.4891
  725MOL0     C99941   3.596   6.913   7.559 -0.9081 -0.5889 -0.5797
  725MOL0     C99942   3.652   7.043   7.518  0.1432 -0.2290  0.3500
  725MOL0     O99943   3.603   7.091   7.394 -0.5155  0.3207  0.6963
  725MOL0     C99944   3.686   7.181   7.325  0.3314 -0.0554  0.3858
  725MOL0     C99945   3.716   7.307   7.373  0.8301  0.5121  0.4287
  725MOL0     C99946   3.807   7.385   7.299 -0.7984 -0.1559  0.3673
  725MOL0     C99947   3.870   7.342   7.181 -0.1813 -0.5151  0.6778
  725MOL0     O99948   3.960   7.411   7.096 -0.3490  0.5632 -0.1090
  725MOL0     C99949   4.016   7.532   7.157  0.6349 -0.2406 -0.7676
  725MOL0     C99950   4.155   7.573   7.109 -0.1266  0.0890  0.4636
  725MOL0     C99951   4.214   7.690   7.187  0.2519  0.0519 -0.2803
  725MOL0     C99952   4.333   7.759   7.117 -0.7336 -0.8897  0.5072
  725MOL0     C99953   4.459   7.684   7.112 -0.3375  0.8039  0.8193
  725MOL0     C99954   4.559   7.766   7.030  0.9148  0.1196  0.0045
  725MOL0     C99955   4.542   7.779   6.884  0.4054 -0.0884  0.1359
  725MOL0     C99956   4.525   7.651   6.810  0.3881 -0.5663  0.7203
  725MOL0    Cl99957   4.516   7.682   6.634  0.0488  0.1395  0.5277
  725MOL0     C99958   3.832   7.213   7.131 -0.7139  0.1350 -0.0151
  725MOL0     C99959   3.741   7.135   7.213  0.1046 -0.3824  0.5595
  725MOL0     O99960   3.741   7.094   7.592 -0.4649 -0.3523  0.8280
  725MOL0     C99961   3.506   6.849   7.470 -0.0125  0.1850  0.0304
  725MOL0     C99962   3.464   6.720   7.488  0.8657 -0.1510 -0.0573
  725MOL0     N99963   2.857   6.178   7.646  0.6358 -0.2085 -0.3848
  725MOL0     N99964   2.728   6.150   7.648  0.4506 -0.2955 -0.1983
  725MOL0     C99965   2.115   6.909   8.190  0.1686 -0.0419  0.8866
  725MOL0     C99966   2.127   6.906   8.328 -0.4454 -1.1754 -0.9298
  725MOL0     C99967   2.090   6.900   8.757 -0.3176  0.3060 -0.4664
  725MOL0     C99968   2.123   6.776   8.815  0.0451 -0.7748 -0.0379
  725MOL0     C99969   2.100   6.770   8.951  0.2204 -0.1128  0.3790
  725MOL0     C99970   2.092   6.880   9.037 -0.2329  1.0983 -0.5762
  725MOL0     O99971   2.085   6.870   9.176  0.5210  0.4464  0.6808
  725MOL0     C99972   2.212   6.857   9.237 -0.3661  0.8464  0.2352
  725MOL0     C99973   2.243   7.003   9.275  0.1870 -0.1015 -0.6743
  725MOL0     C99974   2.379   7.030   9.331 -0.3865  0.0166  0.5087
  725MOL0     C99975   2.397   7.167   9.386 -0.0244 -0.2919 -0.0519
  725MOL0     C99976   2.338   7.176   9.522 -0.6871 -0.4186 -0.7297
  725MOL0     C99977   2.287   7.160   9.625  0.2982 -0.7291 -1.1809
  725MOL0     C99978   2.077   7.006   8.975 -0.2523 -0.6409  0.8490
  725MOL0     C99979   2.075   7.016   8.833  0.1361  0.2721  0.1254
  725MOL0     C99980   2.039   7.150   8.774 -0.5912  0.3398 -0.2966
  725MOL0     H99981   2.102   6.588   8.415  0.6219  0.9467  1.5500
  725MOL0     H99982   2.065   6.575   8.163 -2.0793  0.1462  0.9651
  725MOL0     H99983   2.170   6.599   7.943 -2.0944  0.2576  1.7603
  725MOL0     H99984   2.290   6.726   8.002 -0.3691  0.9034 -0.1019
  725MOL0     H99985   2.172   6.676   7.735  0.7737 -3.5981  1.6734
  725MOL0     H99986   2.220   6.845   7.773 -1.1858 -1.2601 -4.2205
  725MOL0     H99987   2.434   6.802   7.761  3.1330 -0.4516  2.1419
  725MOL0     H99988   2.439   6.644   7.836 -0.0776 -3.4253 -1.8155
  725MOL0     H99989   2.344   6.693   7.550  0.7238  0.3945 -0.2305
  725MOL0     H99990   2.509   6.652   7.593  0.0784  0.3901 -1.2877
  725MOL0     H99991   2.374   6.435   7.536  0.9445 -0.3631  0.0394
  725MOL0     H99992   2.256   6.487   7.655 -0.2703  2.8460  0.5479
  725MOL0     H99993   2.555   6.430   7.725  0.2958  0.0261  1.0059
  725MOL0     H99994   2.419   6.442   7.841  1.2088  0.5771  0.4845
  725MOL0     H99995   2.450   6.221   7.633 -2.6014  2.5614 -0.3583
  725MOL0     H99996   2.333   6.223   7.762  0.8829  0.6487  1.7087
  725MOL0     H99997   2.540   6.231   7.916 -2.6320 -1.9453  1.5451
  725MOL0     H99998   2.523   6.071   7.830  0.3506  0.1374 -0.4515
  725MOL0     H99999   2.750   6.321   7.926 -0.3544  1.6806 -1.5803
  725MOL0     H    0   3.082   6.196   7.792 -1.3497 -1.1211  0.1647
  725MOL0     H    1   3.015   6.328   7.911 -1.3783  2.3414 -1.4772
  725MOL0     H    2   3.059   6.380   7.625  2.6422 -2.4455 -0.6277
  725MOL0     H    3   3.041   6.490   7.773  0.5192 -0.8186  1.5233
  725MOL0     H    4   3.257   6.427   7.849  0.1683 -0.3788  0.2424
  725MOL0     H    5   3.290   6.338   7.700 -1.1919 -0.7266 -0.7454
  725MOL0     H    6   3.246   6.560   7.562  2.1926  2.7999 -0.5134
  725MOL0     H    7   3.258   6.651   7.708 -5.1126  0.1078 -1.1362
  725MOL0     H    8   3.578   6.661   7.796 -1.2363  0.0431 -0.7284
  725MOL0     H    9   3.792   6.942   7.754 -1.2958  1.7270  0.7519
  725MOL0     H   10   3.732   6.823   7.873 -0.9983 -0.1690  0.5124
  725MOL0     H   11   3.635   6.967   7.853 -2.4665 -2.0488  0.8103
  725MOL0     H   12   3.668   7.347   7.462 -1.4812 -1.0126 -0.0411
  725MOL0     H   13   3.827   7.488   7.328  1.7729 -0.4189 -0.2399
  725MOL0     H   14   3.948   7.617   7.159  0.4318 -0.4066 -0.6458
  725MOL0     H   15   4.036   7.506   7.262  1.0123 -0.8816 -0.9920
  725MOL0     H   16   4.221   7.487   7.129 -0.0917  0.1680  0.6941
  725MOL0     H   17   4.152   7.595   7.002  1.3574  0.6972  0.5193
  725MOL0     H   18   4.249   7.658   7.285 -1.0215 -0.5196  0.0148
  725MOL0     H   19   4.131   7.761   7.199 -0.2731 -0.4130 -1.1179
  725MOL0     H   20   4.347   7.858   7.160  0.0745 -1.4776  1.6313
  725MOL0     H   21   4.315   7.776   7.010  1.3985  0.5290  0.3146
  725MOL0     H   22   4.507   7.688   7.210  2.8304 -0.4633 -0.5508
  725MOL0     H   23   4.449   7.576   7.097  1.7145  0.4212  1.8923
  725MOL0     H   24   4.661   7.726   7.038  0.1219 -2.2032 -0.7395
  725MOL0     H   25   4.554   7.867   7.073 -1.3455 -1.2706  3.3938
  725MOL0     H   26   4.628   7.829   6.838 -0.3892  1.2672  0.0828
  725MOL0     H   27   4.461   7.847   6.856 -0.7393 -2.3382 -2.4753
  725MOL0     H   28   4.433   7.601   6.844 -1.0269  0.9971 -0.6366
  725MOL0     H   29   4.613   7.590   6.833 -0.5100 -1.4157  2.0348
  725MOL0     H   30   3.871   7.175   7.037  1.3291 -0.8380  1.1597
  725MOL0     H   31   3.715   7.039   7.170  0.7422 -0.0939 -0.5168
  725MOL0     H   32   3.474   6.897   7.378  1.1461  0.6519 -0.1364
  725MOL0     H   33   3.403   6.656   7.426  0.6192 -0.2112  0.2438
  725MOL0     H   34   2.101   7.006   8.144  0.1523  0.6022  2.2179
  725MOL0     H   35   2.144   7.004   8.370 -0.2846 -1.6074  0.0370
  725MOL0     H   36   2.136   6.684   8.760  3.0713 -0.2561 -0.3426
  725MOL0     H   37   2.102   6.673   9.001  1.6279  0.0645  0.7228
  725MOL0     H   38   2.214   6.785   9.319  3.4567 -0.0188 -0.4364
  725MOL0     H   39   2.294   6.821   9.174  1.8224  0.6464  3.0017
  725MOL0     H   40   2.174   7.042   9.350 -1.9399 -0.8506 -2.1366
  725MOL0     H   41   2.221   7.064   9.187 -2.2925  0.6754  0.3795
  725MOL0     H   42   2.420   6.955   9.399 -0.6199 -1.0111 -0.4551
  725MOL0     H   43   2.443   7.024   9.242  1.1225  0.6777  1.4981
  725MOL0     H   44   2.341   7.234   9.319  0.2182  2.0510  1.9256
  725MOL0     H   45   2.504   7.189   9.388 -0.0713 -0.0711  0.3756
  725MOL0     H   46   2.219   7.176   9.706 -2.0457  3.9028 -3.6266
  725MOL0     H   47   2.060   7.094   9.035  1.4588  0.4002 -0.1268
  725MOL0     H   48   1.945   7.131   8.721 -0.2862 -2.2336 -0.0143
  725MOL0     H   49   2.024   7.237   8.838  1.2080  0.5382 -0.0922
  725MOL0     H   50   2.117   7.174   8.701  0.1381  0.9812  0.6656
  726MOL0     O   51   8.019   3.290   8.282 -0.0209 -0.0110 -0.1709
  726MOL0     C   52   8.052   3.380   8.206 -0.1891  0.1233 -0.8929
  726MOL0     O   53   8.170   3.451   8.213  0.2538  0.0118  0.3423
  726MOL0     C   54   8.263   3.416   8.303 -0.1775  0.4759 -0.0107
  726MOL0     C   55   8.391   3.360   8.273 -0.1647 -0.6212  1.1706
  726MOL0     C   56   8.487   3.339   8.366 -0.6989  1.1202 -0.6419
  726MOL0     C   57   8.465   3.356   8.504  0.3646  0.0487 -0.2791
  726MOL0     O   58   8.555   3.331   8.601 -0.0239 -0.3951  0.8116
  726MOL0     C   59   8.695   3.315   8.582 -0.2774  0.1678  0.1562
  726MOL0     C   60   8.764   3.251   8.703  0.2036  0.8551  0.3496
  726MOL0     C   61   8.909   3.226   8.669 -0.7260 -0.2165  0.1018
  726MOL0     C   62   8.985   3.242   8.796  0.1090  0.1963  0.4144
  726MOL0     C   63   9.140   3.216   8.785  0.2861  0.0965  0.2833
  726MOL0     C   64   9.187   3.069   8.803  0.2651 -0.1276 -0.5719
  726MOL0     C   65   9.335   3.054   8.751  0.4981 -0.5180 -0.0142
  726MOL0     C   66   9.430   3.134   8.839 -0.3808  0.2243 -0.1037
  726MOL0     N   67   9.554   3.074   8.850 -0.1408 -0.2226 -0.1357
  726MOL0     C   68   9.670   3.059   8.770  0.6046 -0.7789  0.1768
  726MOL0     C   69   9.764   3.001   8.846 -0.0335 -0.6791  0.6752
  726MOL0     C   70   9.906   2.953   8.808 -0.4398  0.1760  0.3179
  726MOL0     C   71  10.011   3.065   8.838  0.0758  0.2153  0.5172
  726MOL0     C   72  10.069   3.040   8.973 -0.3491 -0.4607  0.8573
  726MOL0     C   73  10.200   3.103   8.995  0.1852  0.5265 -0.2743
  726MOL0     O   74  10.246   3.054   9.124 -0.0785  0.7683 -0.5407
  726MOL0     C   75  10.372   3.058   9.172  0.1089 -0.6134  1.4495
  726MOL0     C   76  10.474   3.140   9.105 -0.0233 -0.6582 -0.9074
  726MOL0     C   77  10.603   3.154   9.157  0.0003 -0.8737 -0.1100
  726MOL0     C   78  10.705   3.243   9.075 -0.2240 -0.2294 -0.3796
  726MOL0     C   79  10.635   3.082   9.273 -0.5436  1.6237  0.3200
  726MOL0     C   80  10.765   3.092   9.337 -0.1911  0.0261 -0.8521
  726MOL0     O   81  10.855   2.989   9.349 -0.3552 -0.2170  0.3013
  726MOL0     C   82  10.836   2.876   9.275  0.6612  0.0249 -0.5469
  726MOL0     C   83  10.855   2.883   9.139  0.5473 -1.3086  0.6036
  726MOL0     C   84  10.845   2.767   9.055 -0.5968 -0.3572  0.4126
  726MOL0     C   85  10.801   2.641   9.104  0.3614  0.0011  0.9319
  726MOL0     O   86  10.800   2.530   9.018  0.0748 -0.0582 -0.0534
  726MOL0     C   87  10.673   2.465   9.006  0.1190  0.0325 -0.6075
  726MOL0     C   88  10.712   2.331   8.940  0.8019 -0.1785 -0.2216
  726MOL0     C   89  10.596   2.276   8.847  0.1279 -0.2534 -0.5581
  726MOL0     C   90  10.464   2.260   8.914  0.4852  0.2221 -0.2573
  726MOL0     C   91  10.469   2.155   9.024  0.9855 -0.2427  0.3602
  726MOL0     C   92  10.323   2.125   9.057 -0.5059  0.5240 -0.3209
  726MOL0     C   93  10.319   2.027   9.182  0.4177  0.0192  0.7382
  726MOL0     C   94  10.182   2.032   9.238  0.5382 -0.7889 -0.2087
  726MOL0    Cl   95  10.161   2.180   9.346 -0.0546  0.0657 -0.1154
  726MOL0     C   96  10.762   2.642   9.247  0.0860  0.5004  0.4467
  726MOL0     C   97  10.778   2.757   9.322 -0.2569 -0.0550  0.4104
  726MOL0     O   98  10.773   3.195   9.400 -0.0017 -0.1121  0.0583
  726MOL0     C   99  10.539   3.003   9.336  0.5003  0.3445 -0.1763
  726MOL0     C  100  10.408   2.991   9.285  0.6142 -0.0521 -0.7014
  726MOL0     N  101   9.709   2.973   8.968  0.9688  0.1772 -0.3616
  726MOL0     N  102   9.596   3.004   8.963  0.0478 -0.0664  0.2085
  726MOL0     C  103   8.338   3.410   8.540 -0.3815 -0.1183 -0.3659
  726MOL0     C  104   8.236   3.435   8.442 -0.0389  0.6326  0.1035
  726MOL0     C  105   7.952   3.427   8.116 -0.2146 -0.5595  1.3949
  726MOL0     C  106   7.951   3.568   8.085 -0.5428  0.6127  0.1788
  726MOL0     C  107   7.891   3.620   7.975  0.5325 -0.2491 -0.7395
  726MOL0     C  108   7.799   3.538   7.908  0.0313 -0.0464  0.5685
  726MOL0     O  109   7.718   3.597   7.812 -0.4103 -0.5190  0.1222
  726MOL0     C  110   7.664   3.724   7.839  0.5501 -0.5712  0.1516
  726MOL0     C  111   7.569   3.741   7.720 -0.0325  0.1187  0.0953
  726MOL0     C  112   7.482   3.613   7.690  0.1914  0.6020  0.0004
  726MOL0     C  113   7.359   3.638   7.602  0.1794  0.9506  0.1529
  726MOL0     C  114   7.322   3.513   7.542  0.4081  1.1814  0.7586
  726MOL0     C  115   7.276   3.407   7.492 -0.3046 -1.2487  0.3027
  726MOL0     C  116   7.794   3.406   7.943 -0.0498  0.5720 -0.5438
  726MOL0     C  117   7.858   3.343   8.045 -1.2477 -1.0135 -0.5357
  726MOL0     C  118   7.850   3.196   8.078 -0.0495 -0.4146 -0.4092
  726MOL0     H  119   8.404   3.345   8.166  0.1782  0.5399  1.0433
  726MOL0     H  120   8.586   3.301   8.344 -0.5822  1.7780 -1.3007
  726MOL0     H  121   8.733   3.413   8.552 -0.2049 -0.0972 -0.6328
  726MOL0     H  122   8.703   3.244   8.500 -0.1752  1.4569 -0.9899
  726MOL0     H  123   8.756   3.322   8.786  0.2786 -0.3007  1.3756
  726MOL0     H  124   8.714   3.155   8.716 -1.3752  1.3506 -1.5239
  726MOL0     H  125   8.931   3.127   8.628 -0.5019  0.4275 -1.3918
  726MOL0     H  126   8.938   3.305   8.598 -0.9328 -1.9051 -1.9637
  726MOL0     H  127   8.972   3.347   8.825 -0.9292  0.7358 -1.8060
  726MOL0     H  128   8.951   3.174   8.875  0.2371  0.5983  0.8189
  726MOL0     H  129   9.183   3.267   8.873 -0.6602 -1.3501  1.6317
  726MOL0     H  130   9.173   3.264   8.693 -3.4478  2.6747  0.0591
  726MOL0     H  131   9.181   3.048   8.910 -2.1397  1.0626 -0.4142
  726MOL0     H  132   9.121   2.998   8.752  3.1340 -1.6629 -2.4539
  726MOL0     H  133   9.346   3.093   8.650 -0.8150 -2.5802 -1.0245
  726MOL0     H  134   9.370   2.950   8.749  1.7169 -0.2064  2.0283
  726MOL0     H  135   9.444   3.238   8.806  0.2166  0.6196  1.3157
  726MOL0     H  136   9.401   3.134   8.945 -2.5742  0.7664 -0.6540
  726MOL0     H  137   9.690   3.088   8.668  2.5992  0.3630  0.8262
  726MOL0     H  138   9.913   2.920   8.704  0.7788 -0.2777  0.5374
  726MOL0     H  139   9.929   2.865   8.869  1.6326 -0.2576 -1.0119
  726MOL0     H  140  10.090   3.049   8.765  0.1275 -1.0544  0.8281
  726MOL0     H  141   9.972   3.165   8.819  0.8065  0.1986 -1.2312
  726MOL0     H  142   9.999   3.071   9.051  0.4798  1.2939  0.9412
  726MOL0     H  143  10.072   2.932   8.990 -0.4643 -0.7452 -0.7829
  726MOL0     H  144  10.276   3.066   8.927  1.2147 -1.8332  2.0094
  726MOL0     H  145  10.195   3.212   8.996 -0.7123  0.5075 -1.1809
  726MOL0     H  146  10.456   3.192   9.012 -3.1495 -2.1472 -1.2545
  726MOL0     H  147  10.784   3.179   9.035  0.2790  0.0468  0.1412
  726MOL0     H  148  10.754   3.323   9.132  1.9940 -1.2379 -0.7711
  726MOL0     H  149  10.653   3.297   8.996 -1.1174 -0.1290  0.2579
  726MOL0     H  150  10.886   2.978   9.096  0.1920 -1.2922  0.3837
  726MOL0     H  151  10.872   2.761   8.950 -1.7680  2.0198 -0.0893
  726MOL0     H  152  10.613   2.443   9.094  1.5452  0.2656  0.4550
  726MOL0     H  153  10.612   2.527   8.939  2.6458  1.6744 -1.5494
  726MOL0     H  154  10.804   2.337   8.880 -0.0954  1.8902 -1.5123
  726MOL0     H  155  10.725   2.261   9.023 -1.8746 -2.6229 -1.6840
  726MOL0     H  156  10.621   2.180   8.801 -1.4924 -1.3478  0.7594
  726MOL0     H  157  10.583   2.343   8.762  0.1560 -1.9555 -1.9628
  726MOL0     H  158  10.399   2.229   8.831  0.0882  2.2194 -0.7382
  726MOL0     H  159  10.429   2.353   8.960 -1.0651 -1.1239  1.4547
  726MOL0     H  160  10.516   2.062   8.990 -2.1441 -1.3766 -1.2113
  726MOL0     H  161  10.524   2.191   9.112  3.3775  0.0413 -1.1651
  726MOL0     H  162  10.262   2.087   8.975 -2.5802 -1.3834  1.9366
  726MOL0     H  163  10.283   2.222   9.086  3.1376  1.4112  2.6011
  726MOL0     H  164  10.391   2.057   9.258 -0.3382 -0.0266  1.4815
  726MOL0     H  165  10.338   1.923   9.156  1.1817  0.2790  0.1919
  726MOL0     H  166  10.184   1.937   9.292 -0.5648 -1.2100 -0.8602
  726MOL0     H  167  10.105   2.017   9.161 -0.9057 -1.5563  1.3160
  726MOL0     H  168  10.732   2.553   9.302  1.1178  0.6171  1.2329
  726MOL0     H  169  10.745   2.759   9.425  2.0572  1.7454  1.2091
  726MOL0     H  170  10.583   2.953   9.421 -0.2896  0.1127  0.1033
  726MOL0     H  171  10.330   2.935   9.335 -1.7463  2.9388 -0.7275
  726MOL0     H  172   8.315   3.424   8.646  1.6990 -0.9484  0.2538
  726MOL0     H  173   8.135   3.454   8.477 -0.2475 -0.8844  0.4096
  726MOL0     H  174   8.020   3.620   8.150 -1.4544  0.1591  1.5436
  726MOL0     H  175   7.903   3.724   7.948 -0.7599 -0.2365 -1.3691
  726MOL0     H  176   7.608   3.716   7.933 -0.7811  1.0588 -0.4594
  726MOL0     H  177   7.739   3.804   7.841 -1.6575  1.6332  2.6829
  726MOL0     H  178   7.634   3.757   7.633  1.8117 -1.5204  1.0683
  726MOL0     H  179   7.501   3.824   7.735 -0.2368 -0.4731  3.1634
  726MOL0     H  180   7.548   3.538   7.644  2.0001  2.4565 -0.5492
  726MOL0     H  181   7.452   3.569   7.786 -0.4316  1.7874  0.3582
  726MOL0     H  182   7.376   3.718   7.529 -1.9108  3.4958  2.2265
  726MOL0     H  183   7.277   3.681   7.660  2.2600  3.3786  1.5146
  726MOL0     H  184   7.218   3.327   7.450  0.3177 -1.8371  0.5401
  726MOL0     H  185   7.729   3.345   7.882  1.3258  1.1967 -2.7455
  726MOL0     H  186   7.949   3.151   8.066  1.9018  3.1366  0.8792
  726MOL0     H  187   7.824   3.185   8.183 -1.2018  1.1755 -0.4949
  726MOL0     H  188   7.779   3.142   8.015 -2.0579 -0.6737  1.9607
  727MOL0     O  189   8.262  10.074  10.648  0.1526 -0.8927 -0.1239
  727MOL0     C  190   8.211   9.963  10.649 -0.6709 -1.1157  1.3485
  727MOL0     O  191   8.247   9.864  10.569  0.3233  0.0953  0.1649
  727MOL0     C  192   8.371   9.884  10.514 -0.1900  1.3249 -0.4331
  727MOL0     C  193   8.485   9.839  10.583 -0.1976 -0.3892 -0.0055
  727MOL0     C  194   8.614   9.832  10.516  0.3008  0.8490  0.6031
  727MOL0     C  195   8.619   9.874  10.382 -0.3802  0.0597  0.2751
  727MOL0     O  196   8.730   9.857  10.314  0.0778  0.0624  0.6392
  727MOL0     C  197   8.832   9.763  10.350  0.2130 -0.2817  0.1742
  727MOL0     C  198   8.938   9.778  10.242  0.3340 -0.8190  0.4439
  727MOL0     C  199   9.072   9.705  10.280  0.2731  0.5776 -0.1847
  727MOL0     C  200   9.180   9.757  10.185 -0.2257 -0.8121  0.0997
  727MOL0     C  201   9.314   9.687  10.221  0.0699 -1.0033 -0.6803
  727MOL0     C  202   9.438   9.732  10.139  0.0853  0.8409  0.0502
  727MOL0     C  203   9.443   9.677   9.991 -0.3021 -0.5149 -0.3448
  727MOL0     C  204   9.506   9.535   9.988 -0.0818 -0.4693  0.1620
  727MOL0     N  205   9.405   9.435  10.015 -0.4351 -0.6283  0.2906
  727MOL0     C  206   9.281   9.430   9.946 -0.5289 -0.6808 -0.3120
  727MOL0     C  207   9.211   9.337  10.015 -0.2111 -0.6944  0.4921
  727MOL0     C  208   9.083   9.300   9.952  1.1626  0.2687 -0.0442
  727MOL0     C  209   8.963   9.263  10.051 -0.3316 -1.2325 -0.1239
  727MOL0     C  210   8.884   9.385  10.103  0.5439 -0.7866 -0.0194
  727MOL0     C  211   8.766   9.407  10.008  1.2096 -0.8657 -0.2735
  727MOL0     O  212   8.732   9.543  10.025 -0.4617 -0.1686  0.2525
  727MOL0     C  213   8.610   9.593  10.006  0.1062  0.8703 -0.4526
  727MOL0     C  214   8.485   9.521   9.986  0.5042  0.3714 -0.0342
  727MOL0     C  215   8.366   9.595   9.968  0.3890  0.5677 -0.0064
  727MOL0     C  216   8.241   9.513   9.953 -0.2085  0.0862  0.0642
  727MOL0     C  217   8.372   9.730   9.958 -0.0605 -0.1183 -0.0803
  727MOL0     C  218   8.267   9.823   9.893 -0.3167 -0.0302 -0.5416
  727MOL0     O  219   8.275   9.951   9.925  0.1662  0.5243 -0.2422
  727MOL0     C  220   8.151  10.012   9.942 -0.4126 -0.5626 -0.0767
  727MOL0     C  221   8.098   9.986  10.071 -0.2239 -0.9073 -0.5388
  727MOL0     C  222   7.975  10.042  10.095  0.2294  0.4191  0.3275
  727MOL0     C  223   7.894  10.098   9.990 -0.5704  0.0276 -0.3866
  727MOL0     O  224   7.765  10.129  10.033 -0.0952  0.0203 -0.1174
  727MOL0     C  225   7.665  10.129   9.933  0.3193 -0.0267 -0.1850
  727MOL0     C  226   7.656  10.272   9.874 -0.4088 -0.3695 -0.3506
  727MOL0     C  227   7.563  10.288   9.754 -0.3527 -0.6913  0.3697
  727MOL0     C  228   7.572  10.429   9.693  0.0860  0.6445 -0.2344
  727MOL0     C  229   7.466  10.444   9.585  1.1572 -0.6457 -0.2945
  727MOL0     C  230   7.471  10.587   9.524  0.1816  1.1410 -0.7514
  727MOL0     C  231   7.588  10.618   9.420 -0.1839 -0.2422  0.1622
  727MOL0     C  232   7.600  10.505   9.322 -1.4153 -1.0519  0.4385
  727MOL0    Cl  233   7.729  10.565   9.209 -0.5359  0.0152  0.2294
  727MOL0     C  234   7.947  10.114   9.863 -0.3896 -0.0324  0.5550
  727MOL0     C  235   8.080  10.082   9.844  0.3862 -0.7367  0.6276
  727MOL0     O  236   8.186   9.777   9.812 -0.8417  0.6293  0.3620
  727MOL0     C  237   8.494   9.803   9.989  0.2856  0.4346  0.1239
  727MOL0     C  238   8.605   9.729  10.016  0.6966  0.8955  0.4967
  727MOL0     N  239   9.288   9.281  10.110  0.3748  0.2213  0.0139
  727MOL0     N  240   9.408   9.333  10.105  0.0346 -0.2551 -0.1057
  727MOL0     C  241   8.501   9.924  10.318  0.8432 -0.4021 -0.0835
  727MOL0     C  242   8.377   9.930  10.387  0.5649  0.0446 -0.0099
  727MOL0     C  243   8.098   9.944  10.745  0.3206  0.5145  0.9109
  727MOL0     C  244   8.082  10.043  10.842 -0.6784 -0.1150  0.0038
  727MOL0     C  245   7.981  10.035  10.936  0.5764 -0.6254 -0.8689
  727MOL0     C  246   7.885   9.939  10.924  0.3263 -0.1592  0.6439
  727MOL0     O  247   7.769   9.922  11.006 -0.3158 -0.2706  0.3603
  727MOL0     C  248   7.725  10.016  11.100  0.1570  0.8041  0.2433
  727MOL0     C  249   7.710   9.940  11.228 -0.5475 -1.0437 -0.4028
  727MOL0     C  250   7.571   9.892  11.252  0.5771  0.4439 -0.2242
  727MOL0     C  251   7.552   9.834  11.388 -0.1661 -0.0638 -0.8312
  727MOL0     C  252   7.420   9.786  11.405 -0.0553 -0.2524 -0.1303
  727MOL0     C  253   7.313   9.750  11.436  1.0804 -0.3788 -0.5529
  727MOL0     C  254   7.889   9.854  10.819  0.1116  0.3612  0.4409
  727MOL0     C  255   7.994   9.843  10.735  0.0001  0.1927 -0.3038
  727MOL0     C  256   7.975   9.736  10.619 -0.1713  0.4149 -0.0090
  727MOL0     H  257   8.465   9.796  10.680 -0.4214  0.5616  0.3819
  727MOL0     H  258   8.697   9.793  10.574 -1.3273 -2.4102  0.9544
  727MOL0     H  259   8.791   9.662  10.348 -1.8868  0.5113 -0.9913
  727MOL0     H  260   8.871   9.798  10.446  0.5684  3.3335 -1.1220
  727MOL0     H  261   8.895   9.732  10.153 -2.3811  1.6505  0.3447
  727MOL0     H  262   8.948   9.885  10.225 -1.6305 -0.7155 -0.3285
  727MOL0     H  263   9.098   9.720  10.386  0.5438 -1.2358  0.0227
  727MOL0     H  264   9.050   9.598  10.277  3.8028 -0.2394 -0.8805
  727MOL0     H  265   9.178   9.719  10.082  2.9267 -0.4068 -0.1956
  727MOL0     H  266   9.166   9.864  10.169  1.0151 -1.0922 -3.8338
  727MOL0     H  267   9.294   9.580  10.216 -1.8263 -0.6736 -1.0471
  727MOL0     H  268   9.324   9.703  10.328 -0.7260 -0.7235 -0.6456
  727MOL0     H  269   9.439   9.841  10.138 -0.7436  0.8953  1.6716
  727MOL0     H  270   9.521   9.696  10.200 -3.5001  0.0800  5.1762
  727MOL0     H  271   9.498   9.751   9.931  0.8708 -1.2266 -0.1803
  727MOL0     H  272   9.341   9.677   9.952 -0.3256  3.1801 -0.6337
  727MOL0     H  273   9.536   9.520   9.884 -1.9575  1.5480 -0.7624
  727MOL0     H  274   9.593   9.522  10.053  0.6802 -0.9754 -0.9369
  727MOL0     H  275   9.249   9.489   9.861  1.2597 -0.1388 -0.6466
  727MOL0     H  276   9.098   9.214   9.886 -0.9192 -0.1251 -0.0797
  727MOL0     H  277   9.042   9.380   9.890 -3.0776 -1.2716  0.4222
  727MOL0     H  278   8.886   9.194  10.013  0.8851 -2.9844  0.4543
  727MOL0     H  279   9.010   9.204  10.130 -0.6764 -1.9530 -0.4448
  727MOL0     H  280   8.867   9.356  10.207  1.3848 -0.0265  0.3469
  727MOL0     H  281   8.944   9.477  10.106 -1.9398  0.9630 -0.6441
  727MOL0     H  282   8.788   9.404   9.900 -3.6633  0.1166 -1.5302
  727MOL0     H  283   8.689   9.332  10.027  2.6942 -2.8328 -1.5780
  727MOL0     H  284   8.478   9.413   9.981 -2.4619  0.5452 -1.0961
  727MOL0     H  285   8.250   9.493   9.846  2.2143 -0.1690  0.2751
  727MOL0     H  286   8.150   9.566   9.982  0.8118 -0.8350  6.1254
  727MOL0     H  287   8.253   9.415   9.999  0.3795  0.6947  1.2332
  727MOL0     H  288   8.150   9.930  10.147  1.5456 -0.2956 -1.2572
  727MOL0     H  289   7.940  10.022  10.195  2.0860 -1.4790  0.6902
  727MOL0     H  290   7.684  10.056   9.854  0.9985  1.4708 -1.4635
  727MOL0     H  291   7.570  10.113   9.983 -1.4421 -1.3458 -3.6350
  727MOL0     H  292   7.633  10.349   9.949 -0.1055  0.5446 -1.1740
  727MOL0     H  293   7.755  10.311   9.852 -0.7805  2.2024  2.0608
  727MOL0     H  294   7.460  10.270   9.787 -0.2767  0.0944  1.0804
  727MOL0     H  295   7.584  10.229   9.665  2.6043  1.1930 -0.3076
  727MOL0     H  296   7.674  10.430   9.654  0.6906  1.1063  1.2917
  727MOL0     H  297   7.564  10.503   9.773  1.4060 -0.6432  1.1537
  727MOL0     H  298   7.478  10.363   9.513 -2.4845  0.6219 -2.6098
  727MOL0     H  299   7.362  10.437   9.620  0.9984 -3.0393 -1.0889
  727MOL0     H  300   7.475  10.661   9.605 -0.1867 -1.7737  2.1333
  727MOL0     H  301   7.369  10.615   9.493 -0.2827  1.4228  0.9448
  727MOL0     H  302   7.678  10.629   9.481  0.3294 -3.1908  0.1032
  727MOL0     H  303   7.566  10.709   9.363 -0.3152 -1.6233 -2.0992
  727MOL0     H  304   7.512  10.490   9.259 -0.5914 -0.4209 -0.9064
  727MOL0     H  305   7.635  10.411   9.365 -1.8746 -1.0930  0.7336
  727MOL0     H  306   7.888  10.162   9.785 -1.5167 -0.8237  0.9044
  727MOL0     H  307   8.138  10.096   9.753 -0.1998  2.4065  0.6065
  727MOL0     H  308   8.502   9.909  10.009 -0.0437  0.1943  1.6978
  727MOL0     H  309   8.701   9.768  10.050  2.1784  0.3029 -2.6360
  727MOL0     H  310   8.506   9.958  10.215 -2.5354  1.6625  0.3005
  727MOL0     H  311   8.284   9.959  10.337  0.6014  0.2219  0.0257
  727MOL0     H  312   8.150  10.126  10.855 -0.2767 -0.4842  0.3167
  727MOL0     H  313   7.959  10.122  10.998 -4.3263 -0.4472 -2.4198
  727MOL0     H  314   7.802  10.092  11.119  2.3516 -1.6508  1.8833
  727MOL0     H  315   7.638  10.072  11.064  0.8825  2.1122  0.4810
  727MOL0     H  316   7.728  10.015  11.307  1.6195  1.1216 -2.7855
  727MOL0     H  317   7.788   9.864  11.243  1.4965  0.6807 -1.7620
  727MOL0     H  318   7.501   9.976  11.253  0.1463  0.1360 -1.7240
  727MOL0     H  319   7.537   9.810  11.188  1.5193 -1.2872  1.3881
  727MOL0     H  320   7.562   9.914  11.462 -0.1869  0.4531 -1.3856
  727MOL0     H  321   7.619   9.749  11.402 -2.2848 -2.7075 -4.8029
  727MOL0     H  322   7.210   9.723  11.451  0.4336  1.4175 -1.4131
  727MOL0     H  323   7.805   9.788  10.800 -3.0666  4.0869  0.3466
  727MOL0     H  324   8.045   9.755  10.538  1.5070 -1.5681  0.8837
  727MOL0     H  325   7.994   9.634  10.654  0.9183  1.0641  1.4121
  727MOL0     H  326   7.876   9.746  10.573 -0.0497  0.9314 -0.1572
  728MOL0     O  327   7.473   1.167   3.490 -0.9962  0.2496  0.4802
  728MOL0     C  328   7.518   1.164   3.372 -1.2746  0.3555 -0.2268
  728MOL0     O  329   7.453   1.098   3.266  0.3111  0.0846  0.2126
  728MOL0     C  330   7.328   1.051   3.286  0.0203  0.8562 -0.2993
  728MOL0     C  331   7.317   0.910   3.278  0.1414  0.6867  0.1559
  728MOL0     C  332   7.193   0.861   3.295 -0.6772  0.7464 -0.4383
  728MOL0     C  333   7.081   0.933   3.319  1.2154 -0.4312 -0.0546
  728MOL0     O  334   6.950   0.885   3.328  0.6357 -0.8096 -0.4191
  728MOL0     C  335   6.947   0.764   3.416 -0.2503  0.2194  0.6750
  728MOL0     C  336   6.796   0.734   3.445 -0.4756  0.0215 -0.5208
  728MOL0     C  337   6.707   0.742   3.319  0.0505 -0.7312 -0.0188
  728MOL0     C  338   6.569   0.713   3.349  0.0429 -0.1183  0.2736
  728MOL0     C  339   6.466   0.751   3.239  0.3321 -0.0523 -0.6712
  728MOL0     C  340   6.318   0.746   3.279 -0.1696 -0.0744 -0.9193
  728MOL0     C  341   6.258   0.608   3.253 -0.3076 -0.2713  0.1336
  728MOL0     C  342   6.108   0.608   3.289 -0.6613  0.5249  0.2663
  728MOL0     N  343   6.040   0.496   3.221  0.0034 -0.4873 -0.1089
  728MOL0     C  344   5.914   0.447   3.247 -0.1466  0.4295  0.0871
  728MOL0     C  345   5.898   0.344   3.159 -0.7608  0.5574 -0.1090
  728MOL0     C  346   5.776   0.259   3.155  0.3111  0.5039 -0.3491
  728MOL0     C  347   5.789   0.142   3.268  0.9494 -0.1757 -1.1138
  728MOL0     C  348   5.663   0.082   3.337 -0.0427 -0.6429  0.2421
  728MOL0     C  349   5.595   0.176   3.447 -0.6579  0.3306  0.0715
  728MOL0     O  350   5.540   0.294   3.390 -0.2329  0.1892 -0.4674
  728MOL0     C  351   5.425   0.290   3.325 -0.4842  0.2839  0.0492
  728MOL0     C  352   5.315   0.222   3.369 -0.4651 -0.8674 -0.7488
  728MOL0     C  353   5.192   0.236   3.315 -0.5875  0.0776  0.9652
  728MOL0     C  354   5.077   0.161   3.387 -0.1839 -0.6730  0.2233
  728MOL0     C  355   5.171   0.321   3.207  0.6212 -0.5073 -0.1111
  728MOL0     C  356   5.040   0.344   3.126 -1.4098 -0.1457  0.3219
  728MOL0     O  357   5.043   0.422   3.010  0.2028 -0.1606 -0.4071
  728MOL0     C  358   4.926   0.445   2.945 -0.5100  0.0944 -0.7489
  728MOL0     C  359   4.904   0.397   2.816 -0.1956  0.1020 -0.0993
  728MOL0     C  360   4.790   0.447   2.743 -0.3524 -0.5859  0.6350
  728MOL0     C  361   4.696   0.535   2.805  0.2320  0.2901 -0.0194
  728MOL0     O  362   4.614   0.591   2.719  0.3143  0.1302 -0.6263
  728MOL0     C  363   4.496   0.520   2.680  0.3433 -0.3432 -0.0064
  728MOL0     C  364   4.390   0.542   2.790  0.7963  0.5407 -0.9417
  728MOL0     C  365   4.258   0.511   2.710  0.5883 -0.3004 -0.4286
  728MOL0     C  366   4.146   0.495   2.815 -0.4107 -0.1823 -0.8246
  728MOL0     C  367   4.033   0.415   2.746 -0.0903 -0.5571  0.3724
  728MOL0     C  368   3.930   0.407   2.855  0.5364  0.5888  0.3408
  728MOL0     C  369   3.800   0.325   2.815 -0.0540  0.8730 -0.0642
  728MOL0     C  370   3.685   0.358   2.905  0.2959  0.3119  0.0407
  728MOL0    Cl  371   3.615   0.518   2.882  0.0412  0.2115 -0.3003
  728MOL0     C  372   4.726   0.584   2.930 -0.8010  0.3157  0.0925
  728MOL0     C  373   4.838   0.536   3.001 -0.5267  0.9718 -0.7219
  728MOL0     O  374   4.937   0.302   3.178  0.0819 -0.2161  0.2674
  728MOL0     C  375   5.281   0.397   3.154 -0.0966  0.6292  0.0050
  728MOL0     C  376   5.398   0.384   3.222 -0.4585  0.2232  0.1172
  728MOL0     N  377   6.009   0.342   3.077 -0.2233  0.4296  0.2126
  728MOL0     N  378   6.093   0.425   3.114  0.9531  0.7128  0.2926
  728MOL0     C  379   7.090   1.077   3.342 -0.1897  0.1894 -0.8872
  728MOL0     C  380   7.217   1.138   3.314 -0.2521  0.5066  0.9729
  728MOL0     C  381   7.656   1.205   3.360  0.3993 -0.4000  0.5151
  728MOL0     C  382   7.726   1.141   3.256  1.3153  0.9622  0.2565
  728MOL0     C  383   7.866   1.156   3.237  0.1352 -0.4872 -0.6234
  728MOL0     C  384   7.925   1.245   3.326  0.2311  0.6735 -0.5519
  728MOL0     O  385   8.054   1.275   3.315 -0.2862 -0.3373  0.2186
  728MOL0     C  386   8.116   1.270   3.185 -0.2267 -0.2171  0.1788
  728MOL0     C  387   8.064   1.377   3.084 -0.5220  0.7310 -0.8776
  728MOL0     C  388   8.092   1.522   3.138  1.0040  0.4939  0.3428
  728MOL0     C  389   8.132   1.624   3.024 -0.3065  0.4185 -0.1981
  728MOL0     C  390   8.176   1.744   3.091 -0.0891  0.4208 -1.2129
  728MOL0     C  391   8.193   1.842   3.160 -0.7610 -0.1100 -0.2055
  728MOL0     C  392   7.858   1.309   3.430  0.3367  0.0598 -0.1294
  728MOL0     C  393   7.722   1.301   3.445 -1.0078  0.5901  0.5324
  728MOL0     C  394   7.650   1.381   3.554 -0.3115 -0.3828  0.1242
  728MOL0     H  395   7.401   0.842   3.267  1.4211  2.4418 -1.9037
  728MOL0     H  396   7.180   0.758   3.263 -0.9157  0.2541  1.1323
  728MOL0     H  397   6.998   0.777   3.512 -1.1161  0.2769  1.1381
  728MOL0     H  398   6.982   0.685   3.348 -0.4926  0.8057 -0.1490
  728MOL0     H  399   6.795   0.637   3.494  1.0091  1.6909  3.2006
  728MOL0     H  400   6.748   0.805   3.513  0.5589 -0.2703  0.5442
  728MOL0     H  401   6.719   0.843   3.276  3.6894 -1.3034 -0.6641
  728MOL0     H  402   6.752   0.668   3.252 -0.4972 -0.7986 -0.3200
  728MOL0     H  403   6.565   0.605   3.366 -1.2259 -0.3987 -1.4364
  728MOL0     H  404   6.529   0.758   3.440 -2.1097  3.9097 -2.3555
  728MOL0     H  405   6.482   0.698   3.145  0.2476 -0.8094 -0.2707
  728MOL0     H  406   6.483   0.858   3.226  0.3694  0.1189  0.6395
  728MOL0     H  407   6.301   0.763   3.385 -1.4017 -1.7032 -0.8170
  728MOL0     H  408   6.255   0.821   3.229 -1.6712 -0.2625  0.5982
  728MOL0     H  409   6.315   0.525   3.296  1.2901  1.2734  1.1405
  728MOL0     H  410   6.277   0.594   3.146  0.1102  0.3275  0.1233
  728MOL0     H  411   6.106   0.591   3.398  0.1342 -0.2918  0.1636
  728MOL0     H  412   6.073   0.701   3.245  0.0194  0.6049 -0.1237
  728MOL0     H  413   5.849   0.460   3.333  0.3618 -1.9564  0.9011
  728MOL0     H  414   5.771   0.215   3.055  0.2186  0.9426 -0.5419
  728MOL0     H  415   5.686   0.320   3.166  1.5093  2.3469 -0.3886
  728MOL0     H  416   5.841   0.057   3.222  0.0223 -2.2638  1.4402
  728MOL0     H  417   5.859   0.184   3.340  2.6738  0.9568 -3.3047
  728MOL0     H  418   5.591   0.061   3.257  1.7409  2.0860 -2.3276
  728MOL0     H  419   5.695  -0.013   3.380  1.8821  0.6534  1.8372
  728MOL0     H  420   5.537   0.124   3.524  0.1348  0.5093  0.8031
  728MOL0     H  421   5.681   0.209   3.505  1.2671 -1.2419 -1.6978
  728MOL0     H  422   5.317   0.148   3.449 -0.9510  1.1808  1.2688
  728MOL0     H  423   4.991   0.221   3.418 -0.6656 -1.8974  1.3850
  728MOL0     H  424   5.103   0.111   3.481 -0.3999  0.4596  0.9039
  728MOL0     H  425   5.039   0.096   3.308  2.0666  0.9865 -2.3750
  728MOL0     H  426   4.983   0.343   2.764 -1.3089 -0.8431 -0.8661
  728MOL0     H  427   4.794   0.400   2.646  3.5032  0.1116  0.2835
  728MOL0     H  428   4.469   0.563   2.583 -1.2603 -0.9026  0.1684
  728MOL0     H  429   4.519   0.414   2.663  1.1679 -0.1647 -0.0808
  728MOL0     H  430   4.411   0.468   2.868 -0.6688  0.4045 -0.6500
  728MOL0     H  431   4.380   0.640   2.837 -1.9407 -0.2201  0.2650
  728MOL0     H  432   4.262   0.416   2.657 -0.8286  0.2576 -1.5900
  728MOL0     H  433   4.228   0.591   2.642 -0.7645 -0.1308  0.3429
  728MOL0     H  434   4.109   0.594   2.845  1.4562  1.4862 -3.5657
  728MOL0     H  435   4.194   0.439   2.896  3.0388 -0.8221 -3.1196
  728MOL0     H  436   3.993   0.464   2.657  1.4167 -1.4689 -0.8672
  728MOL0     H  437   4.079   0.322   2.711  0.0894  0.0456 -1.0461
  728MOL0     H  438   3.910   0.512   2.880  0.0636  0.5661  0.0789
  728MOL0     H  439   3.975   0.367   2.946 -1.9315 -2.1784  0.4956
  728MOL0     H  440   3.820   0.218   2.825 -0.5016  0.5930 -1.8366
  728MOL0     H  441   3.772   0.342   2.711 -1.0090  1.1360  0.2277
  728MOL0     H  442   3.718   0.353   3.009 -5.2033  0.3933  2.0893
  728MOL0     H  443   3.603   0.286   2.910 -1.7575  2.6192  1.9752
  728MOL0     H  444   4.658   0.652   2.980 -0.1886  0.9911  0.0241
  728MOL0     H  445   4.853   0.565   3.104  0.3880 -0.2841 -0.4644
  728MOL0     H  446   5.272   0.466   3.070 -0.4010 -0.3381 -0.7694
  728MOL0     H  447   5.479   0.452   3.198  0.2330 -0.8876 -0.7855
  728MOL0     H  448   6.999   1.128   3.373 -2.3831 -1.7803 -3.5877
  728MOL0     H  449   7.222   1.246   3.315 -1.5994  0.6228 -1.0272
  728MOL0     H  450   7.683   1.076   3.180 -1.3453  2.2198  0.5792
  728MOL0     H  451   7.912   1.100   3.156  3.1048  1.4311 -0.4106
  728MOL0     H  452   8.222   1.283   3.208 -0.6776 -0.3952  2.5595
  728MOL0     H  453   8.095   1.173   3.138 -0.5646  0.3781 -0.9481
  728MOL0     H  454   7.957   1.365   3.067 -0.6068  0.5206 -0.2363
  728MOL0     H  455   8.113   1.361   2.988 -0.7255  0.5775 -0.9539
  728MOL0     H  456   8.002   1.563   3.184 -0.5082 -3.6572  1.5509
  728MOL0     H  457   8.174   1.516   3.210  1.4713  2.9966  0.1080
  728MOL0     H  458   8.040   1.643   2.968  0.2685  1.7796 -0.7284
  728MOL0     H  459   8.213   1.583   2.963 -1.0078 -0.8554 -0.2977
  728MOL0     H  460   8.215   1.928   3.221 -1.6114 -0.2897  0.3828
  728MOL0     H  461   7.910   1.371   3.501 -0.0495 -1.0708  1.1857
  728MOL0     H  462   7.623   1.319   3.641 -0.3865 -0.6138 -0.0610
  728MOL0     H  463   7.719   1.463   3.575 -0.2190 -0.4055 -0.0897
  728MOL0     H  464   7.556   1.423   3.520  1.0899  2.1818 -0.7875
  729MOL0     O  465   4.535   0.162   4.782 -0.1125 -0.6777 -0.0390
  729MOL0     C  466   4.452   0.192   4.863 -0.4273  0.9890  1.3038
  729MOL0     O  467   4.324   0.233   4.832 -0.4642  0.1788  0.1564
  729MOL0     C  468   4.283   0.251   4.702  0.4543  0.1941 -0.1818
  729MOL0     C  469   4.317   0.169   4.593  0.3256  0.4217  0.4521
  729MOL0     C  470   4.264   0.193   4.464  0.1618 -0.4869 -0.6808
  729MOL0     C  471   4.197   0.316   4.444 -0.0262  0.2913 -0.5111
  729MOL0     O  472   4.169   0.364   4.320 -0.1185  0.4659 -0.5032
  729MOL0     C  473   4.271   0.351   4.223 -0.1240 -0.1966 -0.3800
  729MOL0     C  474   4.377   0.459   4.259  0.3057 -0.4764  0.4135
  729MOL0     C  475   4.473   0.460   4.142  0.1361 -0.9719 -0.4588
  729MOL0     C  476   4.562   0.580   4.153 -0.9332 -0.2656 -0.3150
  729MOL0     C  477   4.641   0.609   4.026  0.8560 -0.4321 -0.2812
  729MOL0     C  478   4.723   0.734   4.032 -0.0836 -0.2000 -0.5633
  729MOL0     C  479   4.767   0.774   3.890  0.1511  0.1807  0.2196
  729MOL0     C  480   4.784   0.928   3.871  0.7672 -0.7849  0.9739
  729MOL0     N  481   4.659   1.001   3.894  1.0506  0.5578  0.3375
  729MOL0     C  482   4.536   0.973   3.838  0.2299  0.3822  0.0112
  729MOL0     C  483   4.452   1.048   3.907  0.0337 -0.8858  0.1183
  729MOL0     C  484   4.302   1.048   3.885  0.0390 -0.3028  0.9092
  729MOL0     C  485   4.223   0.950   3.972  0.7018 -0.7078  0.0502
  729MOL0     C  486   4.237   0.797   3.925  0.0967  0.8010 -0.0684
  729MOL0     C  487   4.139   0.700   3.983 -0.0637  1.0910  0.5169
  729MOL0     O  488   4.100   0.736   4.122  0.0615  0.3062 -0.1128
  729MOL0     C  489   4.016   0.657   4.186  0.1043  0.6416  0.3914
  729MOL0     C  490   3.979   0.682   4.319 -1.1256 -1.0309 -0.2357
  729MOL0     C  491   3.899   0.597   4.402 -0.2205 -0.4097 -0.5465
  729MOL0     C  492   3.874   0.636   4.547  0.0735  0.1734 -0.0181
  729MOL0     C  493   3.865   0.474   4.348 -0.7958  1.6184  0.6210
  729MOL0     C  494   3.797   0.370   4.425 -0.0245  0.4631 -0.6000
  729MOL0     O  495   3.840   0.231   4.387  0.0766 -0.0846 -0.0675
  729MOL0     C  496   3.765   0.135   4.456 -0.3717 -1.2368  0.3978
  729MOL0     C  497   3.636   0.109   4.413  1.1627 -0.1850  0.1476
  729MOL0     C  498   3.563   0.014   4.490 -0.2775 -0.3005 -0.4393
  729MOL0     C  499   3.619  -0.051   4.601 -0.2888  0.0243  0.5974
  729MOL0     O  500   3.561  -0.144   4.676 -0.2950 -0.5033  0.5971
  729MOL0     C  501   3.424  -0.140   4.682  0.0613 -0.1176 -0.9890
  729MOL0     C  502   3.389  -0.237   4.788  0.9303  0.8053  0.7836
  729MOL0     C  503   3.246  -0.218   4.843 -0.2668  0.6800 -0.0481
  729MOL0     C  504   3.134  -0.295   4.772 -0.7116 -0.3263  0.1004
  729MOL0     C  505   2.995  -0.282   4.841 -0.1986 -0.0338  0.2680
  729MOL0     C  506   2.910  -0.419   4.845  0.0174  0.1914 -0.3074
  729MOL0     C  507   2.759  -0.381   4.827  0.2339  0.3270 -0.5151
  729MOL0     C  508   2.668  -0.504   4.791  0.5661  0.2950 -0.0068
  729MOL0    Cl  509   2.496  -0.465   4.728 -0.3261 -0.0280  0.1434
  729MOL0     C  510   3.747  -0.009   4.645  0.6769 -1.0220 -0.4838
  729MOL0     C  511   3.815   0.084   4.574  0.5234 -1.1083 -1.0951
  729MOL0     O  512   3.726   0.396   4.525  0.1532 -0.6505  0.2312
  729MOL0     C  513   3.893   0.439   4.207 -0.6441 -0.8077  0.3819
  729MOL0     C  514   3.962   0.533   4.133 -0.3784  0.2842  0.1568
  729MOL0     N  515   4.526   1.122   3.997  0.0678 -0.7122 -0.4340
  729MOL0     N  516   4.646   1.085   3.994 -0.0873  0.0525 -0.0978
  729MOL0     C  517   4.154   0.387   4.552 -0.9240  0.5232  0.5078
  729MOL0     C  518   4.190   0.353   4.682  0.3171  0.7290 -0.7105
  729MOL0     C  519   4.474   0.180   5.005 -0.5622  0.2529  0.2262
  729MOL0     C  520   4.428   0.285   5.084  0.0906  0.5834  0.9866
  729MOL0     C  521   4.455   0.286   5.224 -0.5177 -0.4344 -0.2685
  729MOL0     C  522   4.536   0.186   5.274  0.1713  1.2764  0.1086
  729MOL0     O  523   4.577   0.201   5.405 -0.3810 -0.1714  0.2229
  729MOL0     C  524   4.583   0.090   5.500  0.3242  0.1784  0.8558
  729MOL0     C  525   4.512   0.144   5.627 -0.2665  0.5555 -0.4806
  729MOL0     C  526   4.509   0.027   5.721 -0.0780 -0.2908 -0.4789
  729MOL0     C  527   4.411  -0.087   5.693 -0.0802  0.2370  0.3119
  729MOL0     C  528   4.279  -0.043   5.650  0.0664  0.5115  0.1539
  729MOL0     C  529   4.166  -0.016   5.621 -0.9456  0.8832  0.1542
  729MOL0     C  530   4.574   0.079   5.191 -0.5361  0.0909  0.2188
  729MOL0     C  531   4.537   0.072   5.062  0.2563  0.2043  0.1874
  729MOL0     C  532   4.591  -0.047   4.977  0.3491 -0.4731 -1.3252
  729MOL0     H  533   4.368   0.076   4.615  0.9133  1.0474  1.9287
  729MOL0     H  534   4.293   0.121   4.388  4.2594 -0.7037  0.8010
  729MOL0     H  535   4.212   0.365   4.132 -2.2845  1.0929  1.1229
  729MOL0     H  536   4.314   0.251   4.213  2.3108  0.1794  4.0410
  729MOL0     H  537   4.326   0.550   4.292 -2.0292 -2.0453  1.4324
  729MOL0     H  538   4.427   0.419   4.348 -0.8710 -0.7999  0.9416
  729MOL0     H  539   4.519   0.361   4.134 -0.9942 -1.5065 -0.5174
  729MOL0     H  540   4.411   0.481   4.055  0.3047  1.1954 -0.1035
  729MOL0     H  541   4.496   0.662   4.182 -2.7567 -1.4237 -0.9993
  729MOL0     H  542   4.632   0.559   4.234 -1.9203  0.5812  0.7772
  729MOL0     H  543   4.573   0.609   3.941 -0.7389  1.7105  0.9147
  729MOL0     H  544   4.708   0.526   4.003 -2.2864 -3.0257 -0.7950
  729MOL0     H  545   4.663   0.809   4.084  2.4915  1.8766 -0.3242
  729MOL0     H  546   4.812   0.715   4.093 -0.3643  2.5612  0.8832
  729MOL0     H  547   4.685   0.749   3.822  1.3679 -1.5823 -0.6661
  729MOL0     H  548   4.864   0.735   3.858  0.6503  0.9340  0.7750
  729MOL0     H  549   4.856   0.974   3.939 -0.6645  2.0573  0.7491
  729MOL0     H  550   4.810   0.941   3.765 -1.2896 -1.9598  0.2470
  729MOL0     H  551   4.507   0.908   3.757  2.5714  1.3715 -1.7244
  729MOL0     H  552   4.287   1.025   3.779  0.4922 -0.6803  0.9254
  729MOL0     H  553   4.271   1.152   3.903  0.7811  0.0883  0.0471
  729MOL0     H  554   4.255   0.962   4.077  0.2624  0.3539  0.0702
  729MOL0     H  555   4.119   0.980   3.959  1.5614  1.2446 -3.5568
  729MOL0     H  556   4.224   0.800   3.816 -1.4147  0.1772  0.0658
  729MOL0     H  557   4.339   0.765   3.944 -0.9132 -3.5259 -0.9496
  729MOL0     H  558   4.052   0.705   3.917  0.8822  2.7350 -0.7004
  729MOL0     H  559   4.185   0.601   3.982 -2.3438 -0.0154 -0.3768
  729MOL0     H  560   4.005   0.780   4.359  0.4405 -2.8180  3.6381
  729MOL0     H  561   3.949   0.709   4.578  1.9035 -1.1088 -1.2227
  729MOL0     H  562   3.877   0.552   4.618 -1.7575  0.8694  0.9482
  729MOL0     H  563   3.770   0.668   4.551  0.2026  0.5523  3.2049
  729MOL0     H  564   3.584   0.163   4.335  1.9086 -0.4684 -0.5521
  729MOL0     H  565   3.460  -0.014   4.467 -0.8747  0.1691  1.4500
  729MOL0     H  566   3.394  -0.043   4.721  2.9581  0.7588 -0.7227
  729MOL0     H  567   3.360  -0.147   4.594 -2.1395  1.2958  0.4140
  729MOL0     H  568   3.402  -0.340   4.756  0.3937  0.3411  1.9983
  729MOL0     H  569   3.456  -0.211   4.870  0.6897 -0.3268  1.3505
  729MOL0     H  570   3.214  -0.114   4.839 -0.9485  0.4898  0.3177
  729MOL0     H  571   3.261  -0.249   4.947  4.4607  2.9955  0.2417
  729MOL0     H  572   3.165  -0.399   4.760  0.1215 -0.1827  0.8442
  729MOL0     H  573   3.116  -0.257   4.671  1.2534  2.2406  0.5969
  729MOL0     H  574   3.002  -0.245   4.944 -0.6807 -0.6720  0.5379
  729MOL0     H  575   2.941  -0.205   4.786  0.6497 -0.9864 -2.0124
  729MOL0     H  576   2.935  -0.467   4.940  3.4608  1.3923 -0.4494
  729MOL0     H  577   2.943  -0.485   4.763  1.8197  0.0617  0.4612
  729MOL0     H  578   2.740  -0.307   4.750 -3.0916  0.8023  0.6138
  729MOL0     H  579   2.720  -0.358   4.927  4.6561 -1.6421  1.9896
  729MOL0     H  580   2.653  -0.563   4.882 -0.0402 -0.0001 -0.2897
  729MOL0     H  581   2.717  -0.567   4.717  2.0110  2.5007 -1.0504
  729MOL0     H  582   3.775  -0.061   4.736  0.9335 -0.2977 -0.1476
  729MOL0     H  583   3.916   0.099   4.610  0.3027 -1.0323 -0.4849
  729MOL0     H  584   3.877   0.342   4.159  0.7895  0.1662 -2.2665
  729MOL0     H  585   3.975   0.511   4.028  2.6258  1.3170  0.2187
  729MOL0     H  586   4.103   0.481   4.537  1.4872  1.6473 -1.2067
  729MOL0     H  587   4.157   0.416   4.764  0.7313  1.1035 -0.8291
  729MOL0     H  588   4.367   0.358   5.031 -0.2350 -1.7729 -2.2069
  729MOL0     H  589   4.421   0.365   5.290  0.6685  0.2637 -0.4879
  729MOL0     H  590   4.528   0.000   5.471 -1.6793  2.2553 -2.4515
  729MOL0     H  591   4.690   0.073   5.515  0.1837 -1.1007  0.5221
  729MOL0     H  592   4.416   0.197   5.616  0.0322  2.2829  3.5930
  729MOL0     H  593   4.581   0.215   5.674  0.0593 -1.0706  1.6035
  729MOL0     H  594   4.605  -0.022   5.737 -0.0080  0.1912  0.6730
  729MOL0     H  595   4.481   0.069   5.818  3.2016  1.3353 -0.1004
  729MOL0     H  596   4.407  -0.154   5.779  1.6332 -2.3886 -1.4929
  729MOL0     H  597   4.442  -0.155   5.613  2.0648  1.5488 -0.0482
  729MOL0     H  598   4.061  -0.002   5.605 -0.9468 -0.5901 -1.4870
  729MOL0     H  599   4.638  -0.004   5.220 -1.0770  0.2183  1.8938
  729MOL0     H  600   4.588  -0.133   5.044 -0.3620  1.2470  0.9723
  729MOL0     H  601   4.514  -0.080   4.907 -0.6286 -4.7308  1.4061
  729MOL0     H  602   4.687  -0.021   4.930  0.4164 -1.0641 -1.5218
  730MOL0     O  603  10.260   6.644   7.064 -0.2565 -0.0914 -0.0123
  730MOL0     C  604  10.377   6.600   7.067  0.3066  0.6295  0.5816
  730MOL0     O  605  10.481   6.673   7.015 -0.2456  0.8206 -0.6071
  730MOL0     C  606  10.471   6.796   6.978  0.9662 -0.5175 -0.5192
  730MOL0     C  607  10.530   6.888   7.064 -0.1870  0.2540 -0.6243
  730MOL0     C  608  10.548   7.022   7.026 -0.6134  0.4833  0.1131
  730MOL0     C  609  10.488   7.070   6.902 -0.6516 -0.0968 -0.0797
  730MOL0     O  610  10.496   7.205   6.864 -0.0308 -0.4767  0.5268
  730MOL0     C  611  10.487   7.308   6.963  0.6032  0.6714 -0.1698
  730MOL0     C  612  10.353   7.306   7.045  0.6830 -0.1724 -0.7850
  730MOL0     C  613  10.227   7.290   6.951  0.1978 -0.2259 -0.2014
  730MOL0     C  614  10.209   7.423   6.880 -1.0127  0.8597  0.0295
  730MOL0     C  615  10.128   7.414   6.758 -0.6565  0.4427 -0.2972
  730MOL0     C  616   9.978   7.410   6.786  0.1914 -0.2030 -0.1748
  730MOL0     C  617   9.911   7.435   6.649  0.1079  0.3378 -0.4279
  730MOL0     C  618   9.763   7.395   6.646  0.3868  0.6854 -0.1324
  730MOL0     N  619   9.715   7.362   6.516  0.2034  0.2022 -0.3012
  730MOL0     C  620   9.692   7.455   6.415 -0.8885  0.4630 -0.3358
  730MOL0     C  621   9.661   7.375   6.311  0.4366 -0.2382 -0.3668
  730MOL0     C  622   9.622   7.427   6.180  0.1337 -0.0177  0.2231
  730MOL0     C  623   9.694   7.340   6.078  0.0972 -0.8007 -0.1303
  730MOL0     C  624   9.669   7.385   5.929 -0.3600 -0.2948  0.5870
  730MOL0     C  625   9.717   7.263   5.833  0.3517 -0.6743  0.0984
  730MOL0     O  626   9.698   7.313   5.703  0.4948 -0.4491 -0.3592
  730MOL0     C  627   9.591   7.271   5.627  0.2044  0.6513  0.3474
  730MOL0     C  628   9.473   7.193   5.660  0.1913 -0.6204  0.2207
  730MOL0     C  629   9.372   7.171   5.563  0.1521 -0.7123  0.5156
  730MOL0     C  630   9.252   7.091   5.604  0.1497  0.5375  0.2301
  730MOL0     C  631   9.392   7.238   5.439 -0.3859 -0.6668  0.1054
  730MOL0     C  632   9.282   7.242   5.329  0.1402  0.1552  0.8899
  730MOL0     O  633   9.325   7.298   5.210 -0.3040  0.2834  0.5395
  730MOL0     C  634   9.251   7.322   5.099  0.4501 -0.3063  0.0558
  730MOL0     C  635   9.289   7.435   5.031 -0.7081 -1.4353  0.3198
  730MOL0     C  636   9.214   7.482   4.925  0.3384  0.4714 -0.3170
  730MOL0     C  637   9.107   7.408   4.873  0.5651  0.3699 -0.3265
  730MOL0     O  638   9.043   7.468   4.761  0.3172 -0.3211 -0.5398
  730MOL0     C  639   8.957   7.383   4.684  0.2986  0.3503  0.3243
  730MOL0     C  640   8.928   7.435   4.547 -0.6895 -0.3134  0.3754
  730MOL0     C  641   9.059   7.459   4.463 -0.4146 -0.5975  0.3010
  730MOL0     C  642   9.026   7.489   4.319 -0.3419 -0.0710 -0.9122
  730MOL0     C  643   9.148   7.547   4.246 -0.4384 -0.0928 -0.4059
  730MOL0     C  644   9.141   7.558   4.094  0.6521 -0.3765  0.2523
  730MOL0     C  645   9.059   7.689   4.060 -0.7197  0.4067  0.2273
  730MOL0     C  646   9.079   7.725   3.909 -0.0340 -0.4763 -0.8555
  730MOL0    Cl  647   9.250   7.764   3.867 -0.4574 -0.0767 -0.0657
  730MOL0     C  648   9.063   7.293   4.942 -0.3087  0.4707 -0.5570
  730MOL0     C  649   9.132   7.256   5.059 -0.3540  0.4201  0.7282
  730MOL0     O  650   9.173   7.205   5.354  0.7265 -0.3940 -0.4564
  730MOL0     C  651   9.505   7.310   5.411 -0.5136 -0.1443 -0.2938
  730MOL0     C  652   9.604   7.332   5.502  0.3577  0.2216 -0.7141
  730MOL0     N  653   9.654   7.241   6.351  1.2531  0.2608 -0.4657
  730MOL0     N  654   9.684   7.233   6.474 -0.6682  0.1013 -0.0607
  730MOL0     C  655  10.421   6.977   6.824 -0.3819  0.1182  0.1907
  730MOL0     C  656  10.415   6.842   6.860  0.9232 -0.4674  0.1760
  730MOL0     C  657  10.416   6.472   7.126  0.5614 -0.4638  0.4043
  730MOL0     C  658  10.345   6.446   7.250  0.7178  0.6078 -0.0063
  730MOL0     C  659  10.360   6.325   7.302  0.5586  0.1305 -0.2269
  730MOL0     C  660  10.439   6.222   7.241  0.0381 -0.5674 -0.0530
  730MOL0     O  661  10.460   6.111   7.314  0.1787 -0.7176 -0.5453
  730MOL0     C  662  10.507   5.992   7.245 -0.1587  0.6138 -0.1475
  730MOL0     C  663  10.384   5.901   7.243  0.0846 -0.3427 -0.1208
  730MOL0     C  664  10.418   5.776   7.156 -0.4772  0.5501 -0.0848
  730MOL0     C  665  10.290   5.676   7.155 -0.4416 -1.2481  0.2928
  730MOL0     C  666  10.296   5.601   7.031 -0.3308  0.1266 -0.6356
  730MOL0     C  667  10.314   5.559   6.916  0.7995  0.3739 -0.0244
  730MOL0     C  668  10.508   6.254   7.129  0.4459 -0.1867  0.3708
  730MOL0     C  669  10.493   6.378   7.055 -0.9735  0.3958 -0.3968
  730MOL0     C  670  10.542   6.399   6.917  0.3774  0.3525  0.2518
  730MOL0     H  671  10.577   6.857   7.157 -1.8741  0.2146  0.2631
  730MOL0     H  672  10.605   7.087   7.091 -0.5207 -1.2965  1.8970
  730MOL0     H  673  10.499   7.410   6.926 -0.5834  1.0978  0.5566
  730MOL0     H  674  10.565   7.301   7.040  0.8301 -1.9696 -0.5518
  730MOL0     H  675  10.356   7.228   7.121 -0.6168  1.5990  1.2072
  730MOL0     H  676  10.324   7.391   7.108  0.9999 -0.3035 -0.4560
  730MOL0     H  677  10.242   7.212   6.877 -1.5175  0.8835 -1.8346
  730MOL0     H  678  10.138   7.272   7.012  0.8795  0.8518  1.1709
  730MOL0     H  679  10.175   7.499   6.951 -0.5967  0.6448  0.4696
  730MOL0     H  680  10.311   7.450   6.853 -1.0984  0.4532 -0.7296
  730MOL0     H  681  10.158   7.325   6.702 -1.6192 -1.1946  1.6804
  730MOL0     H  682  10.155   7.504   6.702 -0.7640  1.2722  0.9417
  730MOL0     H  683   9.946   7.313   6.824 -0.6485 -0.9695 -2.6200
  730MOL0     H  684   9.951   7.489   6.856 -2.7451 -0.8838 -0.4323
  730MOL0     H  685   9.960   7.368   6.578  3.5449 -1.4712  3.2905
  730MOL0     H  686   9.930   7.536   6.610  3.0456  0.7372  1.6934
  730MOL0     H  687   9.747   7.308   6.711  2.1951  1.0912  0.9259
  730MOL0     H  688   9.699   7.470   6.693 -2.4994 -0.5897 -1.7309
  730MOL0     H  689   9.693   7.563   6.419 -1.0308  0.4220  1.4456
  730MOL0     H  690   9.650   7.533   6.170  0.7740 -0.0929  1.1191
  730MOL0     H  691   9.515   7.410   6.164  0.0718 -1.5332  1.9627
  730MOL0     H  692   9.802   7.353   6.083  0.2410 -1.5555 -0.9827
  730MOL0     H  693   9.669   7.234   6.091 -4.9631  0.0613 -0.7500
  730MOL0     H  694   9.562   7.395   5.912 -0.6220 -2.0341  0.9676
  730MOL0     H  695   9.718   7.478   5.898  0.4198 -0.8510  0.1023
  730MOL0     H  696   9.821   7.232   5.842  0.9949  0.8210 -1.5289
  730MOL0     H  697   9.667   7.167   5.850  1.2949 -1.2832 -0.4893
  730MOL0     H  698   9.461   7.162   5.764 -0.3198  2.2635  1.0975
  730MOL0     H  699   9.150   7.102   5.567 -0.6969 -2.5386  1.3174
  730MOL0     H  700   9.237   7.105   5.711 -1.4398  0.9620 -0.0217
  730MOL0     H  701   9.278   6.990   5.571  1.0947  1.2620 -1.3858
  730MOL0     H  702   9.379   7.486   5.064 -2.4651  0.0284  3.2467
  730MOL0     H  703   9.236   7.570   4.866  0.8531 -0.2796 -1.2685
  730MOL0     H  704   9.001   7.283   4.683  0.0420  0.2317 -0.9340
  730MOL0     H  705   8.860   7.378   4.735  0.6949  0.8287  1.1379
  730MOL0     H  706   8.869   7.359   4.496  0.0915  0.3164 -1.5822
  730MOL0     H  707   8.870   7.527   4.558  0.7022  1.1926 -3.3311
  730MOL0     H  708   9.108   7.361   4.466  0.3143 -0.2757 -0.6673
  730MOL0     H  709   9.120   7.537   4.509  1.0291 -1.0507 -0.7798
  730MOL0     H  710   8.946   7.564   4.325 -0.8368 -0.7062  0.7402
  730MOL0     H  711   8.987   7.396   4.276 -2.5937  1.8473 -3.4115
  730MOL0     H  712   9.173   7.642   4.294 -0.7840 -0.7144  1.0762
  730MOL0     H  713   9.237   7.486   4.266 -0.6156 -0.1159  0.3500
  730MOL0     H  714   9.105   7.468   4.044  0.1726  0.6556 -1.3418
  730MOL0     H  715   9.246   7.572   4.067  0.4212  1.3742  0.1110
  730MOL0     H  716   9.104   7.771   4.117  3.6189 -0.7957 -1.0638
  730MOL0     H  717   8.953   7.669   4.078 -1.2784  1.9930 -1.0182
  730MOL0     H  718   9.007   7.800   3.872 -2.0050 -2.1272 -0.5455
  730MOL0     H  719   9.050   7.637   3.851 -1.3223  0.1249 -1.1773
  730MOL0     H  720   8.973   7.237   4.914 -0.2911  0.2494 -0.1722
  730MOL0     H  721   9.092   7.167   5.105  0.9668 -0.1907  0.7193
  730MOL0     H  722   9.526   7.366   5.320  3.3650 -2.6589 -1.1945
  730MOL0     H  723   9.692   7.390   5.478  1.0481  0.2380  1.6705
  730MOL0     H  724  10.370   6.998   6.731  0.0215 -1.1714 -0.3317
  730MOL0     H  725  10.346   6.779   6.804  0.3598 -0.5422  0.9207
  730MOL0     H  726  10.280   6.525   7.286 -1.4032 -0.9722 -0.1233
  730MOL0     H  727  10.313   6.304   7.398  0.1922  1.9755  0.0471
  730MOL0     H  728  10.538   6.009   7.142  1.6821  1.0989  0.4499
  730MOL0     H  729  10.588   5.941   7.298  1.0676  1.9957 -0.6371
  730MOL0     H  730  10.300   5.960   7.203  1.0415  0.7514 -0.5847
  730MOL0     H  731  10.352   5.876   7.344 -0.0298 -0.9004 -0.2940
  730MOL0     H  732  10.444   5.800   7.052 -0.6314 -0.1448 -0.2908
  730MOL0     H  733  10.506   5.728   7.200 -0.1994  1.5492  0.4814
  730MOL0     H  734  10.196   5.732   7.140  0.7499  0.0414 -3.7445
  730MOL0     H  735  10.294   5.617   7.247 -1.3864 -1.6266  0.1104
  730MOL0     H  736  10.338   5.519   6.820  0.4823  0.0756  0.0188
  730MOL0     H  737  10.572   6.184   7.077 -1.1874  0.1182 -2.2349
  730MOL0     H  738  10.523   6.310   6.857  1.5286  0.1605  0.1538
  730MOL0     H  739  10.488   6.475   6.860 -0.1169  0.3191  0.6673
  730MOL0     H  740  10.647   6.430   6.917  0.2190  0.9287  1.0703
  731MOL0     O  741   2.288   5.439   8.961  0.1365  0.1585 -0.6380
  731MOL0     C  742   2.336   5.326   8.981 -0.3992  0.5320  0.6687
  731MOL0     O  743   2.451   5.280   8.931 -0.3364 -0.4900  0.3188
  731MOL0     C  744   2.510   5.358   8.833  0.8456  1.0943  0.7904
  731MOL0     C  745   2.451   5.379   8.711  0.2836  0.0130 -0.4589
  731MOL0     C  746   2.522   5.462   8.617 -0.7600 -0.0275 -1.3841
  731MOL0     C  747   2.656   5.502   8.637 -0.8380  0.3137 -0.4820
  731MOL0     O  748   2.733   5.578   8.548  0.2222  0.8169  1.0265
  731MOL0     C  749   2.696   5.571   8.411 -0.8261 -0.0368  0.3221
  731MOL0     C  750   2.813   5.621   8.319  0.2869  1.7163 -0.6823
  731MOL0     C  751   2.931   5.538   8.363 -0.2291  0.8733  0.3166
  731MOL0     C  752   3.041   5.572   8.263 -0.5484  0.0237  1.1820
  731MOL0     C  753   3.173   5.518   8.319  0.0208  0.6789 -1.2872
  731MOL0     C  754   3.302   5.597   8.264  0.0184  0.2622 -0.5641
  731MOL0     C  755   3.343   5.563   8.126  0.0409 -0.1636 -0.0428
  731MOL0     C  756   3.463   5.647   8.072  0.7424  0.1994  0.5363
  731MOL0     N  757   3.588   5.605   8.114 -0.5932  0.0265  0.7371
  731MOL0     C  758   3.642   5.480   8.087  0.2193 -0.3783  0.1557
  731MOL0     C  759   3.765   5.479   8.134  0.2926  0.1980 -0.2137
  731MOL0     C  760   3.868   5.372   8.121 -0.1186 -0.3392  0.5254
  731MOL0     C  761   3.998   5.415   8.195  0.1606 -0.4998 -0.0340
  731MOL0     C  762   4.119   5.352   8.142  0.3265 -0.5044  1.0118
  731MOL0     C  763   4.240   5.425   8.184 -0.6286  0.3507 -0.2608
  731MOL0     O  764   4.365   5.355   8.144 -0.3011 -0.0365 -0.3727
  731MOL0     C  765   4.403   5.340   8.013 -0.0659 -0.4258  0.8029
  731MOL0     C  766   4.340   5.410   7.908 -0.6603 -0.0073 -0.5014
  731MOL0     C  767   4.363   5.390   7.777 -0.5885  0.1703 -0.0405
  731MOL0     C  768   4.308   5.481   7.677  0.0750  0.2987  0.0750
  731MOL0     C  769   4.454   5.284   7.738  0.7221  0.3196 -0.0678
  731MOL0     C  770   4.480   5.243   7.593  0.0240  0.4835  1.0538
  731MOL0     O  771   4.488   5.113   7.574 -0.3127 -0.4990 -0.1394
  731MOL0     C  772   4.450   5.075   7.449 -0.3467 -0.3320  0.3255
  731MOL0     C  773   4.542   5.025   7.359  0.2958 -0.0825 -0.5633
  731MOL0     C  774   4.508   4.972   7.241  0.6657  1.0418  0.8451
  731MOL0     C  775   4.374   4.954   7.206 -0.5379 -0.0376  1.5621
  731MOL0     O  776   4.357   4.868   7.096  0.1195  0.2927  0.2436
  731MOL0     C  777   4.280   4.754   7.126 -0.5457 -0.3241  0.4651
  731MOL0     C  778   4.299   4.655   7.008 -0.0411  0.0903 -0.4217
  731MOL0     C  779   4.173   4.583   6.973  0.4402  0.9464  0.7545
  731MOL0     C  780   4.141   4.502   7.102  0.4352  0.0597 -0.3444
  731MOL0     C  781   4.057   4.374   7.077  1.0065  0.0574 -0.4879
  731MOL0     C  782   4.005   4.321   7.211 -0.4166 -0.5625  0.6331
  731MOL0     C  783   3.888   4.227   7.199 -0.5545 -0.2499  0.3631
  731MOL0     C  784   3.922   4.097   7.120 -0.2380 -0.3530  0.3089
  731MOL0    Cl  785   3.942   3.969   7.246 -0.0923 -0.4203 -0.1484
  731MOL0     C  786   4.276   4.994   7.304 -0.1406 -0.0604  0.2551
  731MOL0     C  787   4.316   5.061   7.428  0.4705  0.2380 -0.1590
  731MOL0     O  788   4.513   5.325   7.505 -0.3603  0.1989 -0.3456
  731MOL0     C  789   4.513   5.208   7.841  0.2643 -0.3565 -0.1308
  731MOL0     C  790   4.493   5.249   7.976  0.1827  1.5986 -0.7529
  731MOL0     N  791   3.785   5.607   8.181 -0.8671  1.2290 -0.7595
  731MOL0     N  792   3.688   5.678   8.167  0.0054 -0.0409  0.1037
  731MOL0     C  793   2.707   5.473   8.760  0.2296  0.0598  0.5328
  731MOL0     C  794   2.645   5.388   8.856  0.0112  1.1359  0.1404
  731MOL0     C  795   2.283   5.234   9.081 -0.2137 -0.8623  0.0985
  731MOL0     C  796   2.382   5.056   9.138  0.3453 -0.0454  0.3274
  731MOL0     C  797   2.293   4.932   9.288 -0.9126 -1.0793 -0.3420
  731MOL0     C  798   2.109   4.991   9.377  0.2083  0.2789 -0.1530
  731MOL0     O  799   2.057   4.907   9.468 -0.8997  0.2896  0.0218
  731MOL0     C  800   1.953   4.959   9.548  0.5613  0.1431 -0.7777
  731MOL0     C  801   2.013   5.067   9.645 -0.4266  0.3789  0.5622
  731MOL0     C  802   1.898   5.130   9.725 -0.4034  0.4248 -0.0169
  731MOL0     C  803   1.956   5.198   9.846  0.3465  0.2900 -0.4132
  731MOL0     C  804   2.014   5.106   9.934  0.3978 -0.2108 -1.6239
  731MOL0     C  805   2.067   5.038  10.018  0.2651  0.6612  0.4450
  731MOL0     C  806   2.018   5.173   9.317 -0.7700 -1.0948  0.9207
  731MOL0     C  807   2.103   5.293   9.167  0.4402 -0.1871 -0.3287
  731MOL0     C  808   2.020   5.424   9.130 -1.3500 -0.4131 -0.1284
  731MOL0     H  809   2.350   5.360   8.676  0.4557  0.3601 -1.1660
  731MOL0     H  810   2.470   5.495   8.528 -0.1332  1.2678 -1.2910
  731MOL0     H  811   2.608   5.632   8.390 -0.3371  0.4780 -0.2715
  731MOL0     H  812   2.671   5.466   8.391 -0.7253  0.3277 -1.9321
  731MOL0     H  813   2.796   5.602   8.213  5.3108  2.1145 -1.8043
  731MOL0     H  814   2.840   5.726   8.339  2.4499  0.7576  2.1660
  731MOL0     H  815   2.961   5.558   8.466 -1.4541 -0.1153  0.9001
  731MOL0     H  816   2.904   5.432   8.353  1.9459  0.4501 -1.8603
  731MOL0     H  817   3.021   5.530   8.164 -0.7174 -1.6776  1.9067
  731MOL0     H  818   3.050   5.681   8.261  0.8123 -0.0434  2.3060
  731MOL0     H  819   3.177   5.410   8.305  0.1089  0.0951  2.3557
  731MOL0     H  820   3.170   5.515   8.428  0.5238 -1.0365 -1.2954
  731MOL0     H  821   3.299   5.706   8.271  1.5981  0.2606  0.8429
  731MOL0     H  822   3.389   5.568   8.324  0.0593 -2.9615 -1.9963
  731MOL0     H  823   3.257   5.579   8.061  1.1542  0.0229 -1.5336
  731MOL0     H  824   3.361   5.455   8.128 -3.0538 -0.7735  2.3691
  731MOL0     H  825   3.462   5.644   7.963  1.2523  1.1657  0.4928
  731MOL0     H  826   3.454   5.751   8.106  3.6144 -0.3580  3.5354
  731MOL0     H  827   3.598   5.397   8.032 -1.3751  0.4428  0.1293
  731MOL0     H  828   3.882   5.346   8.016 -0.1369 -2.4918  1.0098
  731MOL0     H  829   3.825   5.282   8.165 -1.1359 -0.9666 -1.6326
  731MOL0     H  830   4.010   5.524   8.196 -2.0869 -0.1914  1.2368
  731MOL0     H  831   3.991   5.394   8.302 -0.5613  0.7228  0.1822
  731MOL0     H  832   4.110   5.244   8.159  0.8520 -0.7656 -0.2399
  731MOL0     H  833   4.113   5.362   8.033 -1.1996  2.0776  1.2487
  731MOL0     H  834   4.246   5.523   8.136  1.1640 -0.0075 -0.8717
  731MOL0     H  835   4.235   5.441   8.292  2.2029 -1.3049  0.2335
  731MOL0     H  836   4.266   5.484   7.938 -1.2886 -0.7831 -0.0822
  731MOL0     H  837   4.382   5.559   7.656 -1.8667  1.7755 -1.6541
  731MOL0     H  838   4.212   5.528   7.698 -1.4793 -1.6738 -2.0860
  731MOL0     H  839   4.279   5.424   7.588 -0.3319  1.5378 -0.6038
  731MOL0     H  840   4.648   5.022   7.382  0.3403  0.0311 -0.7552
  731MOL0     H  841   4.579   4.941   7.165  0.1401  1.0353  0.3499
  731MOL0     H  842   4.307   4.718   7.226  1.0576  0.8642  0.5032
  731MOL0     H  843   4.174   4.780   7.126 -0.1877  1.4861 -2.3211
  731MOL0     H  844   4.333   4.713   6.921  4.6790  2.2022  2.4235
  731MOL0     H  845   4.380   4.588   7.037 -0.6699 -0.6028 -0.2421
  731MOL0     H  846   4.179   4.524   6.880  0.8992  2.5141 -0.2438
  731MOL0     H  847   4.091   4.648   6.942 -1.4957 -1.8299 -0.4673
  731MOL0     H  848   4.096   4.565   7.180  0.3208 -2.3090  1.6378
  731MOL0     H  849   4.223   4.460   7.161  0.1272  1.2152  0.9640
  731MOL0     H  850   3.971   4.391   7.012  0.5064  1.1177  0.4260
  731MOL0     H  851   4.122   4.301   7.029  1.9770  1.0997 -0.7963
  731MOL0     H  852   3.976   4.410   7.266  1.4466  1.6243 -1.6863
  731MOL0     H  853   4.089   4.274   7.264  1.6079  2.7683  0.6725
  731MOL0     H  854   3.802   4.283   7.162  0.1337  1.1058  0.7416
  731MOL0     H  855   3.873   4.192   7.301  0.6779 -3.0863 -0.3508
  731MOL0     H  856   4.007   4.107   7.052 -0.8950 -0.7763 -0.6051
  731MOL0     H  857   3.836   4.069   7.057 -0.9138  0.6057  0.7859
  731MOL0     H  858   4.168   4.990   7.293 -0.4801  3.9691  0.8719
  731MOL0     H  859   4.250   5.114   7.495  0.7897  1.2063 -0.5972
  731MOL0     H  860   4.572   5.119   7.819 -0.5918 -0.9492 -0.0899
  731MOL0     H  861   4.527   5.183   8.056 -1.1477  1.2632 -0.4517
  731MOL0     H  862   2.810   5.504   8.780 -0.2437  0.0354  3.5153
  731MOL0     H  863   2.681   5.350   8.951 -0.6175 -1.6817 -0.6425
  731MOL0     H  864   2.482   5.040   9.101  1.0596  1.7247  1.3978
  731MOL0     H  865   2.345   4.837   9.300  0.4758 -0.3701 -0.5973
  731MOL0     H  866   1.874   5.003   9.487 -0.4288 -1.7448 -0.9438
  731MOL0     H  867   1.901   4.880   9.604 -0.9458  3.1635  2.4690
  731MOL0     H  868   2.076   5.146   9.602 -1.0809  0.6987  0.1736
  731MOL0     H  869   2.082   5.013   9.711  2.6690  2.9613 -0.2884
  731MOL0     H  870   1.843   5.201   9.662 -0.6747  1.6859  1.5676
  731MOL0     H  871   1.826   5.055   9.758 -0.3393 -0.1188 -1.0966
  731MOL0     H  872   1.878   5.256   9.897 -2.1660 -1.9799 -1.4155
  731MOL0     H  873   2.038   5.270   9.838  0.6920  0.3371  2.5133
  731MOL0     H  874   2.098   4.960  10.084 -2.9567 -0.4763  0.8017
  731MOL0     H  875   1.920   5.193   9.358 -1.2927  1.0193 -1.1246
  731MOL0     H  876   1.952   5.411   9.046 -0.5216 -0.6392 -0.7733
  731MOL0     H  877   1.968   5.457   9.221 -0.9019 -1.2957  0.4641
  731MOL0     H  878   2.099   5.493   9.098 -0.1192 -0.6837  2.0477
  732MOL0     O  879   8.195   2.612   6.535  0.1561 -0.2027 -0.8805
  732MOL0     C  880   8.200   2.719   6.602  0.8016  0.4070 -0.1065
  732MOL0     O  881   8.263   2.743   6.724  0.3112  0.0574  0.1198
  732MOL0     C  882   8.326   2.634   6.793 -0.1297 -0.2957 -0.9662
  732MOL0     C  883   8.427   2.670   6.880 -0.0387 -0.0359 -0.1363
  732MOL0     C  884   8.508   2.572   6.948  0.5652  0.7634 -0.3752
  732MOL0     C  885   8.475   2.439   6.944 -0.2457 -0.0345 -0.2751
  732MOL0     O  886   8.553   2.351   7.020  0.5661 -0.0854  0.1556
  732MOL0     C  887   8.499   2.223   7.029 -0.0149 -0.0542  0.3653
  732MOL0     C  888   8.557   2.142   7.142 -0.4353  0.4392 -0.4185
  732MOL0     C  889   8.705   2.118   7.138  0.2013  0.0686 -0.4292
  732MOL0     C  890   8.757   2.043   7.265 -0.4897  1.2598 -0.7418
  732MOL0     C  891   8.908   2.057   7.268  0.4894  0.3309 -0.7632
  732MOL0     C  892   8.983   2.009   7.389 -0.0386 -0.2277 -0.1332
  732MOL0     C  893   9.134   2.010   7.356 -0.2101 -0.1386  0.4323
  732MOL0     C  894   9.232   1.979   7.466 -0.1500  0.2581 -0.4386
  732MOL0     N  895   9.251   2.094   7.560 -0.4781 -0.5349 -0.3419
  732MOL0     C  896   9.313   2.222   7.520 -1.3492  0.5259 -0.1467
  732MOL0     C  897   9.329   2.284   7.647  1.1261  1.2055  0.5875
  732MOL0     C  898   9.397   2.412   7.685  0.2531  0.2069  0.6187
  732MOL0     C  899   9.549   2.394   7.688  0.5556  0.0939 -0.5361
  732MOL0     C  900   9.630   2.512   7.721 -0.3446 -0.3767  0.1091
  732MOL0     C  901   9.620   2.632   7.619 -0.0729 -0.0384  0.2081
  732MOL0     O  902   9.618   2.586   7.481  0.1830 -0.3950 -0.0815
  732MOL0     C  903   9.696   2.651   7.387 -0.5263 -0.2743 -0.3968
  732MOL0     C  904   9.771   2.577   7.294  0.6967 -0.2117 -0.0869
  732MOL0     C  905   9.851   2.637   7.195 -1.4392  0.6222 -0.2372
  732MOL0     C  906   9.916   2.537   7.103  0.3260 -0.0900  0.7987
  732MOL0     C  907   9.863   2.775   7.187  0.2915 -0.4711  0.6175
  732MOL0     C  908   9.956   2.842   7.091 -0.1106 -1.1518 -0.1307
  732MOL0     O  909   9.966   2.981   7.108 -0.4288 -0.1751 -0.1787
  732MOL0     C  910  10.049   3.059   7.033 -0.5992  0.7078 -0.1729
  732MOL0     C  911  10.193   3.055   7.025  0.1297  0.0746  0.1333
  732MOL0     C  912  10.267   3.139   6.951  0.3451 -0.5540  0.7361
  732MOL0     C  913  10.196   3.241   6.882 -0.6343  0.1816  0.9587
  732MOL0     O  914  10.276   3.324   6.805 -0.1825 -0.4739  0.1084
  732MOL0     C  915  10.216   3.453   6.759  0.1328  1.0234  0.6383
  732MOL0     C  916  10.322   3.534   6.681 -0.3458 -0.1162 -0.6557
  732MOL0     C  917  10.445   3.577   6.770  0.2456 -0.6390 -0.3494
  732MOL0     C  918  10.551   3.642   6.688 -1.2925 -1.0744  0.5489
  732MOL0     C  919  10.657   3.692   6.787 -0.0123  0.9796 -0.1738
  732MOL0     C  920  10.773   3.770   6.720 -0.2506  0.1236  0.2111
  732MOL0     C  921  10.728   3.878   6.614 -0.1984 -1.1912  0.3070
  732MOL0     C  922  10.843   3.977   6.578 -1.3525 -0.2139  0.5438
  732MOL0    Cl  923  10.790   4.093   6.448 -0.5690 -0.3385  0.3326
  732MOL0     C  924  10.048   3.253   6.889  0.3176  0.0361 -0.0196
  732MOL0     C  925   9.982   3.155   6.969 -0.8008 -0.5318  0.9964
  732MOL0     O  926  10.027   2.778   7.013 -0.0029 -0.0819  0.0534
  732MOL0     C  927   9.793   2.854   7.283 -0.4384  0.1398  0.0884
  732MOL0     C  928   9.710   2.790   7.373  0.7643 -0.7643 -0.0672
  732MOL0     N  929   9.267   2.203   7.737  0.0877 -0.0108 -0.6792
  732MOL0     N  930   9.214   2.097   7.688 -0.1213 -0.0381 -0.3886
  732MOL0     C  931   8.374   2.406   6.848  0.8007  0.0942 -0.4264
  732MOL0     C  932   8.301   2.501   6.780  1.2870  0.4598 -0.1016
  732MOL0     C  933   8.133   2.833   6.543 -0.2903  0.5064  1.1218
  732MOL0     C  934   8.160   2.863   6.409 -0.3135  0.2362  0.1507
  732MOL0     C  935   8.097   2.970   6.344  0.1729 -0.8237  0.1768
  732MOL0     C  936   8.001   3.050   6.415  0.2818 -0.0972 -0.0710
  732MOL0     O  937   7.934   3.158   6.369 -0.1013  0.0471  0.4406
  732MOL0     C  938   8.012   3.266   6.320  0.9875  0.6542  0.1172
  732MOL0     C  939   7.912   3.375   6.282 -0.3288 -0.3222  1.1913
  732MOL0     C  940   7.807   3.326   6.178  0.4190 -0.1588 -0.2625
  732MOL0     C  941   7.866   3.271   6.045 -0.2680  0.6818  0.5845
  732MOL0     C  942   7.989   3.347   5.997  0.6469 -1.1810  0.4267
  732MOL0     C  943   8.093   3.393   5.959 -0.7233 -0.0753  0.2271
  732MOL0     C  944   7.975   3.020   6.544 -0.3304 -0.4438 -0.6426
  732MOL0     C  945   8.031   2.911   6.611  0.5710  0.2152 -0.4192
  732MOL0     C  946   7.988   2.888   6.748 -1.0655  0.0035  0.0309
  732MOL0     H  947   8.461   2.773   6.886  0.6487 -0.2916  0.5103
  732MOL0     H  948   8.591   2.598   7.012 -0.4687  0.1844  1.2634
  732MOL0     H  949   8.539   2.172   6.941 -2.5953 -4.5088  1.4986
  732MOL0     H  950   8.391   2.216   7.038  0.2609 -3.2221  3.1844
  732MOL0     H  951   8.524   2.186   7.236 -1.4355  1.4050 -1.1951
  732MOL0     H  952   8.509   2.044   7.132  2.5890 -1.1174 -0.8015
  732MOL0     H  953   8.727   2.059   7.049 -3.8590 -2.3259 -0.1249
  732MOL0     H  954   8.753   2.216   7.144  1.0499 -0.0663 -3.4161
  732MOL0     H  955   8.722   2.080   7.362  0.3662  0.2051 -0.0042
  732MOL0     H  956   8.727   1.937   7.265 -0.8512  1.3448  0.6023
  732MOL0     H  957   8.932   2.162   7.247 -2.0176  1.1209 -0.0702
  732MOL0     H  958   8.947   2.000   7.183  2.3074 -0.8200  0.7749
  732MOL0     H  959   8.961   2.076   7.473  1.1611  0.5439 -0.4152
  732MOL0     H  960   8.949   1.906   7.408  0.0427 -0.1514  0.4406
  732MOL0     H  961   9.151   2.114   7.326  1.0126  0.0841  1.8443
  732MOL0     H  962   9.143   1.948   7.266 -1.6463 -0.1764  0.2906
  732MOL0     H  963   9.206   1.884   7.514  0.1002  0.6915  0.5800
  732MOL0     H  964   9.331   1.964   7.422  0.0460  0.6394 -0.1343
  732MOL0     H  965   9.353   2.245   7.422  1.0388 -1.4223  0.2716
  732MOL0     H  966   9.357   2.448   7.780 -1.8902  2.0412 -0.8682
  732MOL0     H  967   9.372   2.491   7.613  0.9574  0.1342  0.2897
  732MOL0     H  968   9.572   2.317   7.763 -0.8791 -0.4444 -0.6290
  732MOL0     H  969   9.579   2.364   7.587 -0.4912  2.1681 -1.5195
  732MOL0     H  970   9.625   2.544   7.826 -2.1763 -0.3968  0.0633
  732MOL0     H  971   9.728   2.465   7.710  0.0179  0.3232  0.2906
  732MOL0     H  972   9.533   2.697   7.629 -0.0624  0.0912 -0.4949
  732MOL0     H  973   9.702   2.699   7.648 -1.6776  1.1013  2.3952
  732MOL0     H  974   9.777   2.471   7.317  0.1036 -1.0041 -3.1181
  732MOL0     H  975   9.878   2.543   7.001  0.5039  2.1009  0.8089
  732MOL0     H  976   9.911   2.434   7.140  1.0588 -0.2168  0.5571
  732MOL0     H  977  10.020   2.569   7.109 -0.0826  1.3673  6.7238
  732MOL0     H  978  10.242   2.970   7.071 -0.2324 -0.4049 -0.3683
  732MOL0     H  979  10.375   3.142   6.941  0.1971 -1.5729 -2.1640
  732MOL0     H  980  10.124   3.423   6.708  1.8106 -0.5198 -1.6273
  732MOL0     H  981  10.182   3.517   6.841  0.4917  1.2810  0.5914
  732MOL0     H  982  10.361   3.463   6.607 -0.3084 -2.1331  1.1932
  732MOL0     H  983  10.277   3.626   6.642  2.3176  1.2475 -0.7657
  732MOL0     H  984  10.488   3.486   6.813  0.0751 -1.6715 -2.2315
  732MOL0     H  985  10.410   3.640   6.852 -2.3748 -3.2348  0.7073
  732MOL0     H  986  10.503   3.722   6.631 -5.7514 -1.8589  2.7992
  732MOL0     H  987  10.595   3.569   6.619 -1.3968  1.5288 -2.5033
  732MOL0     H  988  10.610   3.770   6.848 -1.5563  1.0864 -1.4469
  732MOL0     H  989  10.700   3.609   6.842  1.2655  0.8935 -1.2413
  732MOL0     H  990  10.841   3.696   6.678 -0.1567 -1.4988  2.9225
  732MOL0     H  991  10.822   3.824   6.802 -0.1627 -0.5234  0.6019
  732MOL0     H  992  10.652   3.935   6.668  1.3314  0.2380  1.0526
  732MOL0     H  993  10.681   3.817   6.537  1.2159  2.0748 -3.4853
  732MOL0     H  994  10.926   3.918   6.538 -0.5618  1.8919 -1.0771
  732MOL0     H  995  10.873   4.030   6.669 -1.3888  0.2029  0.3106
  732MOL0     H  996   9.982   3.324   6.840 -0.4972 -2.9631 -3.7741
  732MOL0     H  997   9.876   3.170   6.982 -1.2050 -2.0666 -0.3021
  732MOL0     H  998   9.810   2.961   7.275 -2.2287  0.4553  0.2507
  732MOL0     H  999   9.648   2.847   7.443 -2.9066 -2.2167 -1.8662
  732MOL0     H 1000   8.350   2.301   6.845 -2.0636  0.5609  1.8144
  732MOL0     H 1001   8.214   2.482   6.718 -0.1899  2.3772  1.2537
  732MOL0     H 1002   8.214   2.790   6.350 -1.1856 -1.1463  1.0112
  732MOL0     H 1003   8.117   2.982   6.239 -1.0751 -0.7286 -0.0729
  732MOL0     H 1004   8.060   3.316   6.405  1.7169  1.0798 -0.5327
  732MOL0     H 1005   8.088   3.252   6.243  1.3447  0.9931  0.4001
  732MOL0     H 1006   7.965   3.457   6.233 -2.2744 -0.5267 -1.4742
  732MOL0     H 1007   7.854   3.412   6.367  0.3469  0.5948  1.2714
  732MOL0     H 1008   7.736   3.262   6.231  1.5946 -0.6903  0.7376
  732MOL0     H 1009   7.749   3.417   6.162  1.2736  0.2724 -1.0117
  732MOL0     H 1010   7.786   3.267   5.970  1.8565 -2.3427 -1.7456
  732MOL0     H 1011   7.900   3.171   6.070 -0.9637  1.1101  3.6459
  732MOL0     H 1012   8.192   3.423   5.930  0.2022 -2.3719  0.7575
  732MOL0     H 1013   7.903   3.077   6.602 -3.0182 -0.6993 -3.4387
  732MOL0     H 1014   7.898   2.945   6.772 -0.3768  0.2995  2.0781
  732MOL0     H 1015   7.970   2.781   6.766  1.3567 -1.0567 -2.9314
  732MOL0     H 1016   8.059   2.919   6.826 -2.4490  0.1382  1.2720
  733MOL0     O 1017   9.866   7.114   3.375  0.2487  0.2578  0.2081
  733MOL0     C 1018   9.763   7.061   3.428 -0.7731 -0.4857  0.7973
  733MOL0     O 1019   9.753   6.930   3.460 -0.2405 -0.2627 -0.8793
  733MOL0     C 1020   9.868   6.861   3.467  0.5538  0.3108 -0.2054
  733MOL0     C 1021   9.871   6.723   3.437  0.8693  0.5332 -0.0148
  733MOL0     C 1022   9.973   6.642   3.478 -0.3854  0.0236 -0.6687
  733MOL0     C 1023  10.091   6.699   3.537  0.2584 -0.0513 -0.5905
  733MOL0     O 1024  10.195   6.626   3.584 -0.7609  1.1109 -0.2070
  733MOL0     C 1025  10.180   6.480   3.599  0.4195 -1.0117 -0.5541
  733MOL0     C 1026  10.305   6.429   3.665  1.3400 -0.3711  0.3576
  733MOL0     C 1027  10.282   6.294   3.750  0.4111 -0.2120 -0.5214
  733MOL0     C 1028  10.403   6.272   3.845 -0.0550  0.6488 -0.7797
  733MOL0     C 1029  10.380   6.150   3.921 -0.0836 -0.0468 -0.0704
  733MOL0     C 1030  10.516   6.123   4.001  0.5807 -0.3083  0.1976
  733MOL0     C 1031  10.510   5.990   4.084 -0.1383 -0.0044 -0.1027
  733MOL0     C 1032  10.608   5.982   4.208  0.6076  0.6417 -0.1673
  733MOL0     N 1033  10.569   5.875   4.297  0.4096  0.4107  0.0333
  733MOL0     C 1034  10.571   5.740   4.261 -0.7181  0.2529 -0.7597
  733MOL0     C 1035  10.563   5.669   4.377  0.7951 -0.5555 -0.0860
  733MOL0     C 1036  10.573   5.519   4.384  0.5461 -0.8522  0.2974
  733MOL0     C 1037  10.691   5.470   4.290 -1.3680 -0.4594 -0.2255
  733MOL0     C 1038  10.734   5.327   4.306  0.2737  0.1934  0.4127
  733MOL0     C 1039  10.780   5.279   4.436  0.4925 -0.5298  0.0500
  733MOL0     O 1040  10.871   5.375   4.499  0.4983 -0.0877  0.4989
  733MOL0     C 1041  10.987   5.414   4.443  0.3886 -0.7913  0.3857
  733MOL0     C 1042  11.073   5.505   4.503 -0.2382 -0.2068  0.8695
  733MOL0     C 1043  11.203   5.538   4.467 -0.5715  0.9297  0.8845
  733MOL0     C 1044  11.302   5.619   4.550  0.0441  0.2244 -0.2706
  733MOL0     C 1045  11.247   5.493   4.336 -0.3808 -0.1907  0.5431
  733MOL0     C 1046  11.366   5.549   4.259  0.4247  0.2989  0.2719
  733MOL0     O 1047  11.396   5.678   4.288 -0.6020  0.2147 -0.5759
  733MOL0     C 1048  11.485   5.760   4.224  0.7187 -0.4606 -0.6264
  733MOL0     C 1049  11.578   5.725   4.128  0.3663 -0.5042 -0.7533
  733MOL0     C 1050  11.670   5.830   4.089  0.3883  0.7501  0.3577
  733MOL0     C 1051  11.659   5.961   4.125 -0.2919  0.0948 -0.3727
  733MOL0     O 1052  11.745   6.058   4.072  0.2518  0.4356  0.7662
  733MOL0     C 1053  11.866   6.031   4.004 -1.0567 -0.4415 -0.1591
  733MOL0     C 1054  11.935   6.171   3.989  1.2447 -0.0376 -1.3909
  733MOL0     C 1055  12.074   6.168   3.923  0.0884  0.5279  0.6215
  733MOL0     C 1056  12.187   6.201   4.023 -0.3399  0.2329  0.5268
  733MOL0     C 1057  12.316   6.218   3.941  0.4151  0.2369 -0.5464
  733MOL0     C 1058  12.432   6.269   4.028  0.2735  0.0596  0.0268
  733MOL0     C 1059  12.549   6.335   3.954 -0.0476  0.4325 -0.2631
  733MOL0     C 1060  12.663   6.372   4.051 -0.8018 -0.6785  0.0269
  733MOL0    Cl 1061  12.816   6.385   3.960 -0.0005  0.2339 -0.0930
  733MOL0     C 1062  11.565   5.991   4.224  0.9865 -0.0431 -0.8035
  733MOL0     C 1063  11.487   5.888   4.281 -0.4861  0.2280 -0.5879
  733MOL0     O 1064  11.413   5.486   4.174 -0.3156 -0.5626  0.9356
  733MOL0     C 1065  11.164   5.395   4.277  0.3707 -0.7602  0.4227
  733MOL0     C 1066  11.042   5.342   4.334  0.2228 -0.3452  0.6017
  733MOL0     N 1067  10.558   5.760   4.482 -0.4556  0.0460 -0.4806
  733MOL0     N 1068  10.558   5.881   4.433  0.1214 -0.4802 -0.7064
  733MOL0     C 1069  10.086   6.829   3.574 -0.2546  0.7753 -0.1501
  733MOL0     C 1070   9.983   6.915   3.534  0.3092  0.4752  0.2528
  733MOL0     C 1071   9.641   7.145   3.464  0.2791  0.1907 -0.1165
  733MOL0     C 1072   9.557   7.099   3.574 -0.3913  0.3418  0.8365
  733MOL0     C 1073   9.454   7.185   3.619 -0.4882 -0.2954 -0.5100
  733MOL0     C 1074   9.416   7.301   3.553  0.3934 -0.4806 -0.0660
  733MOL0     O 1075   9.324   7.381   3.616  0.0470  0.4325 -0.4099
  733MOL0     C 1076   9.211   7.417   3.542 -0.5368  0.8258  0.1298
  733MOL0     C 1077   9.098   7.331   3.600  0.2831 -0.2411  1.0644
  733MOL0     C 1078   8.967   7.327   3.511 -0.7988  0.6013  0.2228
  733MOL0     C 1079   8.930   7.461   3.442 -0.2421 -0.6597 -0.5694
  733MOL0     C 1080   8.898   7.570   3.537 -0.6081 -0.1983  0.2264
  733MOL0     C 1081   8.856   7.669   3.580  0.0883  1.1423  0.2426
  733MOL0     C 1082   9.488   7.341   3.438 -0.5160  0.6430  0.1180
  733MOL0     C 1083   9.596   7.266   3.398  0.3449 -0.2610  0.3443
  733MOL0     C 1084   9.653   7.317   3.265 -0.7155  1.2688 -0.1216
  733MOL0     H 1085   9.780   6.683   3.392 -0.0249  1.4512  0.9276
  733MOL0     H 1086   9.963   6.534   3.470 -1.5519  0.2591 -3.1044
  733MOL0     H 1087  10.151   6.425   3.509 -2.3054  0.9647 -0.9978
  733MOL0     H 1088  10.103   6.468   3.676  1.3977 -1.1585  0.4237
  733MOL0     H 1089  10.369   6.406   3.579 -0.9839 -1.9756 -1.0606
  733MOL0     H 1090  10.355   6.500   3.732  1.9062  0.3055 -0.7513
  733MOL0     H 1091  10.192   6.313   3.809  0.8898  1.5654 -0.2812
  733MOL0     H 1092  10.272   6.214   3.676 -2.1494  1.6261 -2.3317
  733MOL0     H 1093  10.490   6.261   3.780  2.4718  0.3712  2.4006
  733MOL0     H 1094  10.416   6.359   3.910  0.3135 -0.0383  0.0845
  733MOL0     H 1095  10.350   6.071   3.852  2.5615  0.3735 -1.8337
  733MOL0     H 1096  10.296   6.168   3.990  0.5100 -3.9853  1.9905
  733MOL0     H 1097  10.594   6.107   3.926 -0.0765 -1.1501 -0.3342
  733MOL0     H 1098  10.543   6.206   4.067  0.2209  0.1600 -0.2342
  733MOL0     H 1099  10.532   5.900   4.026  0.1008  0.4201 -0.6823
  733MOL0     H 1100  10.407   5.983   4.122  0.8260 -0.8122  2.5670
  733MOL0     H 1101  10.711   5.961   4.178 -0.4103 -2.8717 -1.7187
  733MOL0     H 1102  10.615   6.072   4.270  0.9349 -1.0820  2.4667
  733MOL0     H 1103  10.591   5.693   4.166  0.1510 -1.1613  0.0803
  733MOL0     H 1104  10.483   5.471   4.346  2.3158 -1.3206 -3.8852
  733MOL0     H 1105  10.588   5.480   4.485  2.3161  0.4419  0.5919
  733MOL0     H 1106  10.674   5.493   4.185  2.3355 -0.4509 -0.9556
  733MOL0     H 1107  10.780   5.529   4.316 -0.2061 -1.8449 -0.9546
  733MOL0     H 1108  10.646   5.266   4.283 -2.4515  3.4576  1.3594
  733MOL0     H 1109  10.809   5.290   4.236 -0.0828 -1.2383  0.7522
  733MOL0     H 1110  10.698   5.278   4.508  0.6952 -1.9398  0.3029
  733MOL0     H 1111  10.830   5.182   4.422  3.2252  1.1531 -3.2860
  733MOL0     H 1112  11.031   5.543   4.595 -3.0207  0.0980 -0.4006
  733MOL0     H 1113  11.394   5.560   4.556  0.2373  0.6571  1.4349
  733MOL0     H 1114  11.275   5.630   4.656  2.0758  0.7169  0.2392
  733MOL0     H 1115  11.315   5.722   4.517 -2.3889  1.5568  2.4673
  733MOL0     H 1116  11.573   5.629   4.077 -2.2940 -1.5705  1.2879
  733MOL0     H 1117  11.738   5.794   4.012 -0.8555  2.4552 -1.6073
  733MOL0     H 1118  11.919   5.959   4.068 -0.8083  0.8495  1.1527
  733MOL0     H 1119  11.853   5.992   3.903  1.9288  1.0012 -1.2329
  733MOL0     H 1120  11.866   6.213   3.915 -1.0540 -1.4320 -0.1677
  733MOL0     H 1121  11.909   6.227   4.079 -1.9357 -3.3983  0.0083
  733MOL0     H 1122  12.081   6.219   3.827  2.3065 -2.4214 -0.9535
  733MOL0     H 1123  12.097   6.070   3.879  1.0486  1.6931 -1.5889
  733MOL0     H 1124  12.210   6.116   4.089 -0.4436 -0.8136 -0.7300
  733MOL0     H 1125  12.156   6.288   4.081  0.1358  0.1115  0.9692
  733MOL0     H 1126  12.354   6.131   3.885  2.7677  1.6646 -1.3213
  733MOL0     H 1127  12.304   6.301   3.871  0.6248  0.3016 -0.5063
  733MOL0     H 1128  12.467   6.185   4.090  1.7648 -0.9006 -2.0054
  733MOL0     H 1129  12.385   6.344   4.092 -1.9302 -0.2199 -1.1733
  733MOL0     H 1130  12.517   6.426   3.903 -2.4446  0.6737  1.4646
  733MOL0     H 1131  12.598   6.259   3.893  2.1694  0.5992  1.1927
  733MOL0     H 1132  12.662   6.292   4.126  0.9321 -0.4445  0.3445
  733MOL0     H 1133  12.641   6.472   4.089 -0.2877 -0.0785 -1.1861
  733MOL0     H 1134  11.571   6.094   4.257 -2.5405  0.2795 -0.7186
  733MOL0     H 1135  11.425   5.915   4.366  3.2106  1.1510  2.1117
  733MOL0     H 1136  11.192   5.356   4.179 -2.7344 -2.5364  0.1116
  733MOL0     H 1137  10.996   5.256   4.287  0.5888 -0.6815  0.8510
  733MOL0     H 1138  10.170   6.859   3.635 -1.3104 -0.4777  2.0578
  733MOL0     H 1139   9.997   7.017   3.567 -2.8986  1.3204 -0.6296
  733MOL0     H 1140   9.576   7.008   3.629  0.1188 -1.3961 -2.0151
  733MOL0     H 1141   9.409   7.152   3.712  1.1550 -1.8966 -0.2275
  733MOL0     H 1142   9.183   7.523   3.547 -1.6972  0.5369  0.0703
  733MOL0     H 1143   9.226   7.399   3.435 -0.3111 -0.1790  0.3206
  733MOL0     H 1144   9.085   7.379   3.697  3.9233  2.7676  0.3163
  733MOL0     H 1145   9.134   7.228   3.612  2.6516  0.6800  2.5488
  733MOL0     H 1146   8.998   7.254   3.436  4.4554  0.7682  1.8206
  733MOL0     H 1147   8.887   7.293   3.577 -1.1383  2.2148  0.6955
  733MOL0     H 1148   8.842   7.438   3.383  1.0313 -0.2565 -2.7302
  733MOL0     H 1149   9.009   7.489   3.372  2.2171 -0.5237  2.0711
  733MOL0     H 1150   8.825   7.758   3.631  2.0647  0.9488  1.9052
  733MOL0     H 1151   9.477   7.438   3.391 -1.2025  0.5796  0.1341
  733MOL0     H 1152   9.576   7.351   3.195 -1.1445  1.1001  0.2648
  733MOL0     H 1153   9.709   7.407   3.292 -0.5004  1.0070  0.3083
  733MOL0     H 1154   9.720   7.237   3.233 -0.3465  0.2168  2.9723
  734MOL0     O 1155   5.911   6.626   9.100  0.3064 -0.3903  0.5989
  734MOL0     C 1156   5.963   6.581   9.210  0.5116 -0.2713  0.1145
  734MOL0     O 1157   6.079   6.517   9.215 -0.1385 -0.2274 -0.0271
  734MOL0     C 1158   6.095   6.418   9.125 -0.1992 -0.1511  0.0790
  734MOL0     C 1159   6.212   6.398   9.056  0.1650  0.6476  0.1124
  734MOL0     C 1160   6.233   6.289   8.970  1.2408 -0.2229 -0.3280
  734MOL0     C 1161   6.129   6.197   8.944  0.0120  0.2071  0.0577
  734MOL0     O 1162   6.138   6.105   8.840 -0.0111  0.0742  0.7018
  734MOL0     C 1163   6.018   6.058   8.778 -0.0669 -0.4034 -1.5490
  734MOL0     C 1164   6.054   5.960   8.662 -0.3230  0.9321 -0.7444
  734MOL0     C 1165   6.148   5.852   8.715  0.1122  0.3607  0.1777
  734MOL0     C 1166   6.150   5.727   8.629  0.7080 -0.5468 -0.1886
  734MOL0     C 1167   6.242   5.610   8.679  1.0063 -0.6301  0.2978
  734MOL0     C 1168   6.268   5.504   8.565 -0.0318 -0.5342  0.6603
  734MOL0     C 1169   6.366   5.399   8.609  0.1083 -0.4717  0.8381
  734MOL0     C 1170   6.400   5.314   8.488 -0.0411 -0.3552  0.3933
  734MOL0     N 1171   6.487   5.197   8.523 -0.3787 -0.9370 -0.6567
  734MOL0     C 1172   6.439   5.067   8.524 -0.1547 -0.8764 -0.5057
  734MOL0     C 1173   6.551   4.987   8.524  0.1539 -0.4578 -0.6425
  734MOL0     C 1174   6.559   4.835   8.526 -0.2465 -0.2292 -0.6398
  734MOL0     C 1175   6.466   4.768   8.418 -0.1076  0.1017  0.7133
  734MOL0     C 1176   6.362   4.684   8.488 -0.1895  0.2229 -0.7506
  734MOL0     C 1177   6.283   4.600   8.394 -0.8189 -0.2034 -0.5718
  734MOL0     O 1178   6.361   4.521   8.303 -0.1941 -0.7206 -0.0063
  734MOL0     C 1179   6.299   4.450   8.200  0.3773 -0.1521  0.2744
  734MOL0     C 1180   6.383   4.360   8.131  0.6400 -1.1792  0.5728
  734MOL0     C 1181   6.335   4.293   8.012 -0.4663 -0.1209  0.4102
  734MOL0     C 1182   6.430   4.199   7.936  0.3498  0.7701  0.0067
  734MOL0     C 1183   6.203   4.302   7.975  0.1836 -0.7141 -0.7128
  734MOL0     C 1184   6.133   4.229   7.856 -0.0988 -0.3361  0.3377
  734MOL0     O 1185   6.201   4.169   7.752 -0.1937 -0.5691 -0.2386
  734MOL0     C 1186   6.149   4.128   7.634 -0.2208 -1.2299 -0.3050
  734MOL0     C 1187   6.063   4.200   7.543 -0.2523 -0.0545 -0.2549
  734MOL0     C 1188   6.049   4.160   7.416 -0.3865  0.1508 -0.0612
  734MOL0     C 1189   6.094   4.037   7.365 -0.6528  0.5237  0.1792
  734MOL0     O 1190   6.066   3.996   7.237  0.7310 -0.6777  1.4293
  734MOL0     C 1191   6.093   3.866   7.168  1.3848 -0.2908 -0.6614
  734MOL0     C 1192   6.156   3.874   7.025 -0.2406  0.3392  0.3485
  734MOL0     C 1193   6.166   3.732   6.956  0.7296  1.2977  0.4965
  734MOL0     C 1194   6.244   3.741   6.829  0.7889 -0.5095 -0.3400
  734MOL0     C 1195   6.294   3.613   6.778  0.0981 -0.5345 -0.8697
  734MOL0     C 1196   6.188   3.513   6.736  0.6908 -0.0392  0.3264
  734MOL0     C 1197   6.241   3.380   6.662  0.5385  0.5614 -0.0430
  734MOL0     C 1198   6.138   3.264   6.642  0.2327  0.0882 -0.0311
  734MOL0    Cl 1199   5.994   3.320   6.561  0.3772 -0.2704  0.0357
  734MOL0     C 1200   6.148   3.950   7.457  0.2392 -0.2103  0.3743
  734MOL0     C 1201   6.183   4.001   7.587  0.0187  0.4509  0.4751
  734MOL0     O 1202   6.013   4.207   7.874  0.6842 -0.4712  0.2866
  734MOL0     C 1203   6.120   4.387   8.049 -0.1378 -0.1333  0.0937
  734MOL0     C 1204   6.168   4.469   8.152  0.0145  0.0737 -0.5333
  734MOL0     N 1205   6.658   5.073   8.526 -0.7954  0.3880  0.8789
  734MOL0     N 1206   6.619   5.198   8.546  0.2160 -0.3148  0.9680
  734MOL0     C 1207   6.023   6.198   9.038 -0.1723 -0.6916  0.1038
  734MOL0     C 1208   6.003   6.310   9.120  0.0384 -0.0646  0.6186
  734MOL0     C 1209   5.928   6.665   9.328 -0.9352  0.9572 -1.4182
  734MOL0     C 1210   6.026   6.672   9.429  0.1975 -0.2451  0.0294
  734MOL0     C 1211   6.014   6.749   9.546  0.1542 -0.3760 -0.1135
  734MOL0     C 1212   5.903   6.833   9.552 -0.5720 -0.8169 -0.2160
  734MOL0     O 1213   5.891   6.910   9.663 -0.0673 -0.5609  0.0084
  734MOL0     C 1214   5.782   6.911   9.756 -0.1897 -0.0739  0.7296
  734MOL0     C 1215   5.830   6.947   9.899  0.3754 -0.3326  0.1811
  734MOL0     C 1216   5.934   6.853   9.967  0.6197 -0.0915  0.2659
  734MOL0     C 1217   5.893   6.703   9.964  0.4897 -0.8099 -0.1331
  734MOL0     C 1218   5.987   6.613   9.903 -0.3054  0.1133  0.3442
  734MOL0     C 1219   6.067   6.543   9.842 -0.0502  0.3394 -0.6827
  734MOL0     C 1220   5.810   6.834   9.457  0.0330 -0.0729  0.1614
  734MOL0     C 1221   5.814   6.751   9.342  1.1353 -0.0613 -0.6152
  734MOL0     C 1222   5.707   6.763   9.238  0.2183 -0.0255  0.1111
  734MOL0     H 1223   6.292   6.468   9.074  1.8999 -1.6565  2.0251
  734MOL0     H 1224   6.329   6.282   8.919  1.7834  1.8646  0.3071
  734MOL0     H 1225   5.971   6.147   8.737  2.0773  0.6710 -1.8419
  734MOL0     H 1226   5.948   6.002   8.841 -2.0293 -0.4424 -3.6605
  734MOL0     H 1227   5.959   5.913   8.638  0.1417 -0.7964  0.6283
  734MOL0     H 1228   6.102   6.018   8.582 -1.8728  0.2072 -2.2559
  734MOL0     H 1229   6.249   5.894   8.723 -0.0227  0.9870 -1.1707
  734MOL0     H 1230   6.127   5.829   8.820  0.9796  0.6712  0.4300
  734MOL0     H 1231   6.048   5.688   8.618  0.8133 -1.1168  0.8242
  734MOL0     H 1232   6.175   5.762   8.528  0.9337 -1.1027 -0.3281
  734MOL0     H 1233   6.212   5.563   8.773  1.2279  4.2466  3.1586
  734MOL0     H 1234   6.341   5.647   8.708  0.8511 -1.0628  1.4255
  734MOL0     H 1235   6.173   5.460   8.533 -0.1091 -1.1634  1.6891
  734MOL0     H 1236   6.313   5.545   8.475 -0.2290 -1.6384  0.0435
  734MOL0     H 1237   6.323   5.346   8.694  1.4682 -1.2385  1.0740
  734MOL0     H 1238   6.465   5.435   8.638  0.7654 -0.4824 -1.2209
  734MOL0     H 1239   6.306   5.278   8.443 -0.8559  2.8080 -0.7613
  734MOL0     H 1240   6.446   5.369   8.406  0.9420 -0.5094  0.8307
  734MOL0     H 1241   6.337   5.031   8.514 -0.2758 -1.0595  1.1198
  734MOL0     H 1242   6.533   4.801   8.626 -2.5236  1.2906 -0.6481
  734MOL0     H 1243   6.663   4.805   8.509  0.1892  1.0069 -0.2716
  734MOL0     H 1244   6.414   4.851   8.369  1.0327 -0.4983 -1.6293
  734MOL0     H 1245   6.526   4.716   8.343  1.5475  0.7947  1.4972
  734MOL0     H 1246   6.404   4.612   8.559 -0.6461 -1.2637 -1.9504
  734MOL0     H 1247   6.299   4.757   8.541  3.1603  1.9737  1.1094
  734MOL0     H 1248   6.228   4.528   8.455  1.0240 -1.3816 -0.2137
  734MOL0     H 1249   6.209   4.664   8.345 -0.5907  0.5440  0.0456
  734MOL0     H 1250   6.487   4.344   8.155  1.2873 -0.0162 -1.2929
  734MOL0     H 1251   6.393   4.099   7.913 -2.3132  1.7397 -0.1705
  734MOL0     H 1252   6.531   4.188   7.978  0.2759  1.3165  0.3474
  734MOL0     H 1253   6.463   4.240   7.840 -0.4839 -1.0212 -1.0883
  734MOL0     H 1254   6.024   4.301   7.554  0.3025  0.3116 -1.5053
  734MOL0     H 1255   5.984   4.219   7.352 -1.0286 -0.5956 -0.1173
  734MOL0     H 1256   6.163   3.803   7.224  1.0578 -0.5013 -0.4856
  734MOL0     H 1257   6.007   3.799   7.159  0.5603  0.3669  1.4782
  734MOL0     H 1258   6.098   3.928   6.949 -1.1239 -1.1710 -0.0880
  734MOL0     H 1259   6.250   3.929   7.028 -1.0318  2.0064 -2.1569
  734MOL0     H 1260   6.067   3.693   6.930  0.2286  1.4243  2.0821
  734MOL0     H 1261   6.219   3.668   7.027 -2.5978 -1.0569  1.0850
  734MOL0     H 1262   6.326   3.809   6.852 -0.0157  0.3029  0.1806
  734MOL0     H 1263   6.179   3.786   6.754  1.0417 -1.5584 -1.2179
  734MOL0     H 1264   6.355   3.636   6.690  0.7573  0.1071 -0.2556
  734MOL0     H 1265   6.366   3.579   6.854  1.8631  0.8264 -1.8554
  734MOL0     H 1266   6.125   3.556   6.658  0.6199 -0.3966  0.1844
  734MOL0     H 1267   6.124   3.491   6.822 -2.9588 -1.6170 -2.5072
  734MOL0     H 1268   6.315   3.334   6.729 -0.9779 -0.0323  1.3092
  734MOL0     H 1269   6.293   3.405   6.569  0.3917  0.8724 -0.0447
  734MOL0     H 1270   6.107   3.211   6.733  0.8728 -0.3842 -0.0742
  734MOL0     H 1271   6.180   3.193   6.570 -2.0462 -1.0250 -0.3662
  734MOL0     H 1272   6.166   3.849   7.422  3.6000  0.6375 -0.7562
  734MOL0     H 1273   6.231   3.927   7.650 -0.7825 -1.5450 -1.1512
  734MOL0     H 1274   6.016   4.404   8.023  0.1006 -0.5559 -1.2056
  734MOL0     H 1275   6.107   4.548   8.195  1.8770  0.2358  2.0649
  734MOL0     H 1276   5.949   6.120   9.055 -1.0517  0.4071  1.5878
  734MOL0     H 1277   5.908   6.326   9.170 -0.2287  2.7073 -0.6267
  734MOL0     H 1278   6.124   6.624   9.427  1.2346  1.7910 -0.2531
  734MOL0     H 1279   6.087   6.737   9.625 -0.2603 -1.1554  0.1590
  734MOL0     H 1280   5.697   6.972   9.724 -0.3766 -0.4683  0.4590
  734MOL0     H 1281   5.739   6.811   9.769 -0.1786 -0.1381  0.2863
  734MOL0     H 1282   5.731   6.967   9.941 -0.4439  3.1337 -2.7893
  734MOL0     H 1283   5.879   7.045   9.892 -0.8280  0.5238  2.8193
  734MOL0     H 1284   6.026   6.855   9.909 -0.0771 -2.5259 -1.0960
  734MOL0     H 1285   5.951   6.882  10.071 -1.2387  1.3023  0.2382
  734MOL0     H 1286   5.798   6.691   9.912  0.2197  0.4162  0.0465
  734MOL0     H 1287   5.877   6.671  10.067 -1.6604  2.0059  0.5284
  734MOL0     H 1288   6.122   6.470   9.787  1.1836  1.6708 -1.2658
  734MOL0     H 1289   5.717   6.890   9.465 -0.6115 -0.8117 -1.6324
  734MOL0     H 1290   5.630   6.833   9.271 -0.1835  0.7946 -2.3843
  734MOL0     H 1291   5.741   6.804   9.143 -2.9764 -0.7523 -1.4563
  734MOL0     H 1292   5.656   6.670   9.212 -0.0907  0.1096  0.2319
  735MOL0     O 1293   0.166   7.873  10.035 -0.2264  0.4096  0.4234
  735MOL0     C 1294   0.092   7.889  10.137  0.3589  0.3954 -0.8646
  735MOL0     O 1295  -0.020   7.958  10.135  0.5379  0.3402  0.5328
  735MOL0     C 1296  -0.068   8.004  10.019 -0.1766 -0.1197 -0.5391
  735MOL0     C 1297  -0.145   7.925   9.930 -0.2311 -0.9143  0.1953
  735MOL0     C 1298  -0.194   7.989   9.810 -0.6676  0.3277 -0.1583
  735MOL0     C 1299  -0.169   8.128   9.787 -0.2185 -0.4502  0.5411
  735MOL0     O 1300  -0.202   8.202   9.678  0.1527  0.2787 -0.3808
  735MOL0     C 1301  -0.121   8.188   9.561  0.1314 -0.5045  0.2218
  735MOL0     C 1302  -0.118   8.327   9.499 -0.3716 -0.0352 -0.2795
  735MOL0     C 1303  -0.005   8.403   9.566  0.4016  0.6237 -0.8093
  735MOL0     C 1304   0.011   8.546   9.516  0.3275 -0.3829  0.3631
  735MOL0     C 1305   0.106   8.628   9.605  0.4260 -0.5620  1.3226
  735MOL0     C 1306   0.071   8.631   9.752 -0.0152 -0.9603 -1.0323
  735MOL0     C 1307   0.140   8.749   9.826  0.0040  0.3864  0.0564
  735MOL0     C 1308   0.134   8.738   9.980  0.5890  0.9464 -0.3302
  735MOL0     N 1309   0.210   8.627  10.034 -0.4055  0.4508  0.2764
  735MOL0     C 1310   0.190   8.515  10.111  0.1310 -0.5702  0.2806
  735MOL0     C 1311   0.300   8.440  10.109 -0.2503 -0.5007  0.8033
  735MOL0     C 1312   0.330   8.305  10.177 -0.2742 -0.4556 -0.4095
  735MOL0     C 1313   0.475   8.300  10.224  0.1706  0.5126  1.7179
  735MOL0     C 1314   0.495   8.360  10.351  0.5847  0.0001  0.7531
  735MOL0     C 1315   0.643   8.350  10.402 -0.2257  0.1005 -0.8086
  735MOL0     O 1316   0.645   8.386  10.541  0.4263 -0.0560 -0.1508
  735MOL0     C 1317   0.764   8.364  10.607  0.4663 -0.7735  0.1532
  735MOL0     C 1318   0.872   8.290  10.568 -0.3038  0.5629 -0.2672
  735MOL0     C 1319   0.990   8.281  10.646 -0.4836  0.3768  0.8808
  735MOL0     C 1320   1.117   8.215  10.584  0.1970  0.2013 -0.0925
  735MOL0     C 1321   0.985   8.327  10.775 -0.3150 -0.2404 -0.2924
  735MOL0     C 1322   1.103   8.311  10.865 -0.0016 -0.2716  0.5928
  735MOL0     O 1323   1.158   8.418  10.915  0.1517 -0.5975  0.4437
  735MOL0     C 1324   1.272   8.415  10.994  0.3526 -0.2868  0.6650
  735MOL0     C 1325   1.395   8.347  10.968 -0.2217  0.0899 -0.1167
  735MOL0     C 1326   1.503   8.337  11.048 -0.8420 -0.1854 -0.3516
  735MOL0     C 1327   1.494   8.390  11.177  0.2632 -0.5373  0.6745
  735MOL0     O 1328   1.598   8.394  11.267  0.0284  0.7947 -0.6601
  735MOL0     C 1329   1.739   8.377  11.223 -0.4782  0.4792  0.8272
  735MOL0     C 1330   1.781   8.506  11.171 -0.0215 -0.4613  0.6127
  735MOL0     C 1331   1.916   8.492  11.105 -0.1565  0.9140  1.4657
  735MOL0     C 1332   1.920   8.435  10.958  0.5420  0.0291  0.2692
  735MOL0     C 1333   2.064   8.424  10.909  0.0041 -0.0655 -1.4897
  735MOL0     C 1334   2.142   8.312  10.988  0.0126 -0.7099 -0.3003
  735MOL0     C 1335   2.278   8.290  10.921 -0.1702  0.6426  0.3011
  735MOL0     C 1336   2.382   8.228  11.022 -0.0038  0.4157  0.3680
  735MOL0    Cl 1337   2.337   8.071  11.098 -0.0029 -0.4730 -0.1340
  735MOL0     C 1338   1.377   8.461  11.210 -0.8997 -0.3787 -1.1776
  735MOL0     C 1339   1.269   8.479  11.121 -0.2175  0.0504 -0.2567
  735MOL0     O 1340   1.130   8.195  10.897 -0.1598  0.1062 -0.0606
  735MOL0     C 1341   0.873   8.401  10.816 -0.5176  0.0460 -0.0982
  735MOL0     C 1342   0.763   8.416  10.732  0.2039 -0.1327  0.2557
  735MOL0     N 1343   0.395   8.517  10.040 -0.2777 -0.2928  0.1235
  735MOL0     N 1344   0.343   8.623  10.004  0.5671  0.3826  0.6864
  735MOL0     C 1345  -0.093   8.198   9.883  1.0929 -0.6023  0.1458
  735MOL0     C 1346  -0.038   8.141   9.993  0.8265  0.0689 -0.5048
  735MOL0     C 1347   0.136   7.851  10.271  0.2283  1.0115  0.4607
  735MOL0     C 1348   0.070   7.903  10.379  0.7008 -0.3517 -0.6560
  735MOL0     C 1349   0.121   7.868  10.505  1.4696 -0.3151 -0.9609
  735MOL0     C 1350   0.219   7.780  10.519 -1.1294  0.7434 -0.7230
  735MOL0     O 1351   0.226   7.733  10.650  0.2218 -0.0212  0.3916
  735MOL0     C 1352   0.365   7.723  10.697  0.2937 -0.7758 -0.4656
  735MOL0     C 1353   0.401   7.577  10.714 -0.3397 -0.1091 -0.3371
  735MOL0     C 1354   0.539   7.566  10.776 -0.7289 -0.3081 -0.3146
  735MOL0     C 1355   0.587   7.422  10.767  0.4062  0.0462  0.4296
  735MOL0     C 1356   0.710   7.392  10.843 -0.6486 -0.5915  0.6689
  735MOL0     C 1357   0.801   7.386  10.918 -1.1640 -0.0295  0.1706
  735MOL0     C 1358   0.275   7.718  10.414 -0.0664  0.2060  0.4241
  735MOL0     C 1359   0.232   7.745  10.285  0.1575 -0.7111  0.3523
  735MOL0     C 1360   0.283   7.665  10.172 -0.5165 -0.0244 -0.9031
  735MOL0     H 1361  -0.154   7.820   9.956 -0.1029 -0.8972  0.3088
  735MOL0     H 1362  -0.251   7.925   9.744 -3.3159  1.8672  0.4779
  735MOL0     H 1363  -0.182   8.115   9.506 -3.2090  2.2152 -0.0338
  735MOL0     H 1364  -0.021   8.149   9.582  0.5668 -0.5028 -1.6392
  735MOL0     H 1365  -0.107   8.322   9.390 -0.5675  0.3001 -0.3127
  735MOL0     H 1366  -0.207   8.381   9.531 -0.5634 -0.5736  0.1183
  735MOL0     H 1367  -0.029   8.404   9.673 -0.2343 -1.2398 -0.8985
  735MOL0     H 1368   0.090   8.348   9.561  0.4882  0.5926  0.6522
  735MOL0     H 1369   0.050   8.547   9.413  2.0241 -1.1875  0.9693
  735MOL0     H 1370  -0.089   8.591   9.516  1.0606  1.3552  1.3237
  735MOL0     H 1371   0.096   8.732   9.572  0.4675 -0.4744  1.5869
  735MOL0     H 1372   0.206   8.587   9.589  0.1348 -1.0054  0.5736
  735MOL0     H 1373  -0.037   8.650   9.754  0.1511 -0.0353 -0.2562
  735MOL0     H 1374   0.096   8.537   9.802  1.0717  0.7423  1.8808
  735MOL0     H 1375   0.103   8.850   9.808  2.0027  0.8254 -2.1265
  735MOL0     H 1376   0.244   8.752   9.792 -0.3524 -1.0658 -1.2886
  735MOL0     H 1377   0.170   8.831  10.024  1.7044  0.2457  0.2811
  735MOL0     H 1378   0.029   8.726  10.008  0.5274 -0.6484 -1.1328
  735MOL0     H 1379   0.093   8.493  10.154 -0.4298  1.6631  0.2508
  735MOL0     H 1380   0.313   8.214  10.119 -1.1681 -0.9940  0.6584
  735MOL0     H 1381   0.260   8.303  10.261  0.6360 -1.0697  0.3535
  735MOL0     H 1382   0.505   8.195  10.232  1.0672  0.5559 -0.2929
  735MOL0     H 1383   0.547   8.343  10.154 -1.0102 -2.2106 -1.4868
  735MOL0     H 1384   0.480   8.468  10.340  2.8403  0.2037 -1.1240
  735MOL0     H 1385   0.426   8.313  10.422  1.1784 -2.2673 -0.0891
  735MOL0     H 1386   0.672   8.244  10.399  0.3638  0.2735 -1.6134
  735MOL0     H 1387   0.702   8.417  10.339 -2.0846  1.2292 -1.4366
  735MOL0     H 1388   0.881   8.285  10.460  1.6655  3.5195 -0.3550
  735MOL0     H 1389   1.204   8.234  10.648 -0.7180  0.1936  1.1945
  735MOL0     H 1390   1.144   8.257  10.486  0.0457  0.3735 -0.0612
  735MOL0     H 1391   1.083   8.113  10.566  2.3202 -0.5019 -0.4370
  735MOL0     H 1392   1.411   8.319  10.864 -2.0042  1.8969 -0.9589
  735MOL0     H 1393   1.594   8.289  11.014 -1.0030 -0.2351 -0.7179
  735MOL0     H 1394   1.789   8.368  11.320 -0.4469  0.9448  0.8543
  735MOL0     H 1395   1.751   8.291  11.156 -1.9933  0.5042  0.4925
  735MOL0     H 1396   1.714   8.534  11.089  1.2609  0.3902 -0.1825
  735MOL0     H 1397   1.772   8.590  11.241  1.7644 -0.9207  1.4676
  735MOL0     H 1398   1.962   8.408  11.159 -2.0711 -1.8172 -0.8003
  735MOL0     H 1399   1.979   8.580  11.116 -1.1052  1.5148  2.2492
  735MOL0     H 1400   1.851   8.493  10.895 -1.4244 -1.2874  1.1197
  735MOL0     H 1401   1.869   8.338  10.956 -1.1017  0.8484  0.3907
  735MOL0     H 1402   2.071   8.384  10.807 -1.8201  0.6631 -1.9284
  735MOL0     H 1403   2.113   8.521  10.911  0.7400 -0.4364 -0.5473
  735MOL0     H 1404   2.084   8.221  10.970  2.4719 -2.0200 -2.2062
  735MOL0     H 1405   2.152   8.313  11.097  1.8372 -2.3993 -0.3898
  735MOL0     H 1406   2.310   8.389  10.888 -1.3034  0.5943 -1.0051
  735MOL0     H 1407   2.257   8.221  10.838 -1.1323  1.1604  0.0979
  735MOL0     H 1408   2.402   8.297  11.105  1.5673  0.0168  0.3494
  735MOL0     H 1409   2.475   8.223  10.966  1.3215  2.7685  2.2105
  735MOL0     H 1410   1.378   8.511  11.306  0.0452 -2.9620  0.2551
  735MOL0     H 1411   1.184   8.534  11.160  0.2196 -0.6329  1.7734
  735MOL0     H 1412   0.858   8.451  10.911 -5.7662 -1.7734  0.3564
  735MOL0     H 1413   0.681   8.484  10.755  0.2453  0.1520 -0.4279
  735MOL0     H 1414  -0.078   8.306   9.890  0.8353 -0.6425  1.5644
  735MOL0     H 1415   0.014   8.204  10.064 -0.9820  0.3824  0.6122
  735MOL0     H 1416  -0.018   7.965  10.369  0.5441  0.0696  2.3088
  735MOL0     H 1417   0.082   7.893  10.603  3.4206 -1.4024  0.1741
  735MOL0     H 1418   0.446   7.771  10.640  0.5638  2.2660  2.1994
  735MOL0     H 1419   0.360   7.771  10.795  4.2761  0.0292 -0.5071
  735MOL0     H 1420   0.410   7.520  10.621 -3.3370 -2.6257  0.7275
  735MOL0     H 1421   0.326   7.526  10.775  1.0606 -0.8605  0.8209
  735MOL0     H 1422   0.612   7.616  10.712 -2.7220  1.6542 -1.1607
  735MOL0     H 1423   0.532   7.609  10.876 -1.9106 -0.9836 -0.0866
  735MOL0     H 1424   0.614   7.395  10.664  1.4307 -0.3168  0.7781
  735MOL0     H 1425   0.498   7.364  10.793  0.2583 -2.6236 -4.6954
  735MOL0     H 1426   0.881   7.385  10.990  1.4604  3.8372 -2.3164
  735MOL0     H 1427   0.331   7.626  10.429  0.0331 -0.2777 -2.3315
  735MOL0     H 1428   0.346   7.721  10.103 -1.7470  0.1121 -1.9672
  735MOL0     H 1429   0.348   7.583  10.202  0.6380  1.7418  1.7580
  735MOL0     H 1430   0.204   7.609  10.121 -0.6078 -1.8886  1.1659
  736MOL0     O 1431  10.186   1.110   3.616 -0.4457  0.4589 -0.1067
  736MOL0     C 1432  10.251   1.091   3.515 -0.7399  0.6737 -0.6460
  736MOL0     O 1433  10.372   1.151   3.490  0.1158  0.1341  0.5391
  736MOL0     C 1434  10.415   1.246   3.579  0.5097 -0.6234 -0.5857
  736MOL0     C 1435  10.478   1.203   3.703 -1.0246  0.8234  0.7411
  736MOL0     C 1436  10.531   1.300   3.794 -0.2725  0.1002  0.4032
  736MOL0     C 1437  10.508   1.437   3.774 -0.1002  0.8226 -0.4228
  736MOL0     O 1438  10.546   1.538   3.850  0.4512  0.2613 -0.2189
  736MOL0     C 1439  10.648   1.502   3.939 -0.0796 -0.0469 -0.5295
  736MOL0     C 1440  10.742   1.613   3.967 -0.0139 -0.7850  0.3957
  736MOL0     C 1441  10.836   1.657   3.865 -0.5026 -0.7440 -0.2092
  736MOL0     C 1442  10.764   1.723   3.748 -0.5642  0.5016 -0.2644
  736MOL0     C 1443  10.860   1.794   3.657 -0.6201 -0.1300  0.6564
  736MOL0     C 1444  10.883   1.936   3.723  0.3842 -0.1395  0.4963
  736MOL0     C 1445  10.954   2.044   3.629  0.7409 -0.0566  0.3631
  736MOL0     C 1446  11.104   2.015   3.596  0.1572 -0.8064  0.0665
  736MOL0     N 1447  11.186   2.059   3.714  0.6461 -0.4429 -0.6027
  736MOL0     C 1448  11.189   2.188   3.763  0.3044  0.2406  1.0166
  736MOL0     C 1449  11.278   2.177   3.865  0.3443 -0.4490  0.4466
  736MOL0     C 1450  11.297   2.295   3.956 -0.4057 -0.2020 -0.1872
  736MOL0     C 1451  11.245   2.249   4.094 -0.3171 -1.0346  0.5397
  736MOL0     C 1452  11.270   2.360   4.197  0.0765 -0.1619 -0.0962
  736MOL0     C 1453  11.239   2.318   4.341  0.0779 -0.8033 -0.0019
  736MOL0     O 1454  11.099   2.338   4.367  0.4406 -0.1885 -0.0192
  736MOL0     C 1455  11.014   2.235   4.399  0.5908  0.7725  0.2058
  736MOL0     C 1456  10.887   2.272   4.444  0.5318  1.0077 -0.3072
  736MOL0     C 1457  10.793   2.176   4.490  0.1049  0.1207 -1.1112
  736MOL0     C 1458  10.675   2.235   4.550  0.1947  0.9699  0.2922
  736MOL0     C 1459  10.832   2.038   4.489 -0.2931  1.0199 -0.2454
  736MOL0     C 1460  10.734   1.938   4.505 -0.0755  0.0256  0.0845
  736MOL0     O 1461  10.748   1.843   4.414  0.2648 -0.2399 -0.2676
  736MOL0     C 1462  10.648   1.749   4.414 -0.2884 -0.0975  0.5596
  736MOL0     C 1463  10.621   1.663   4.519  1.0384 -0.5644 -0.2213
  736MOL0     C 1464  10.519   1.566   4.512  0.1840 -0.2877  0.3391
  736MOL0     C 1465  10.443   1.551   4.396  0.0085  0.5423  0.4334
  736MOL0     O 1466  10.347   1.453   4.378  0.1395 -0.2682 -0.2287
  736MOL0     C 1467  10.304   1.389   4.497  0.9605  0.4308 -0.9330
  736MOL0     C 1468  10.194   1.302   4.459 -0.0072  0.1712  0.1315
  736MOL0     C 1469  10.246   1.168   4.398 -1.4795 -0.4991  0.5098
  736MOL0     C 1470  10.314   1.186   4.263 -0.5513 -0.1689  0.3200
  736MOL0     C 1471  10.347   1.039   4.205  0.6887 -0.2665  0.4256
  736MOL0     C 1472  10.394   1.046   4.060  0.3492  0.2019  0.0201
  736MOL0     C 1473  10.391   0.918   3.975  0.8270 -0.3274 -0.0990
  736MOL0     C 1474  10.244   0.905   3.924 -0.0233 -0.3827  0.4426
  736MOL0    Cl 1475  10.152   0.792   4.025  0.0313 -0.2019 -0.3525
  736MOL0     C 1476  10.479   1.629   4.286  0.0600 -0.2679  0.6785
  736MOL0     C 1477  10.574   1.731   4.294  0.1652 -1.2353 -1.3860
  736MOL0     O 1478  10.673   1.934   4.616 -0.2498  0.5539  0.3988
  736MOL0     C 1479  10.967   2.005   4.452  0.3996 -1.0379 -1.1092
  736MOL0     C 1480  11.056   2.102   4.402 -0.0309 -0.2576 -0.6063
  736MOL0     N 1481  11.322   2.049   3.881 -0.3690 -0.4969  0.0270
  736MOL0     N 1482  11.267   1.976   3.789 -0.3865  0.9169  0.0409
  736MOL0     C 1483  10.442   1.468   3.658 -0.2421 -0.2045  0.3320
  736MOL0     C 1484  10.397   1.380   3.559 -0.4307  0.7529  0.2843
  736MOL0     C 1485  10.203   0.994   3.414  0.4495 -0.7001  0.5767
  736MOL0     C 1486  10.145   0.874   3.460  0.3563 -0.0868 -0.6190
  736MOL0     C 1487  10.089   0.780   3.375  0.3804 -0.2864 -0.5626
  736MOL0     C 1488  10.108   0.795   3.239 -0.0369 -0.3225  0.0232
  736MOL0     O 1489  10.070   0.678   3.176 -0.5539 -0.4427  0.2134
  736MOL0     C 1490  10.016   0.691   3.048  0.7564  0.6738 -0.5479
  736MOL0     C 1491   9.950   0.551   3.006  0.2505  0.7194  0.0750
  736MOL0     C 1492   9.819   0.528   3.079 -0.9489 -0.3467  0.0486
  736MOL0     C 1493   9.702   0.611   3.033 -0.1862 -0.5923 -0.6156
  736MOL0     C 1494   9.575   0.557   3.089 -0.3547 -1.0190  0.5781
  736MOL0     C 1495   9.474   0.505   3.131  0.3310  0.9060  0.4000
  736MOL0     C 1496  10.157   0.913   3.192  0.6161 -0.0130 -0.4589
  736MOL0     C 1497  10.208   1.013   3.274  0.9201 -0.0051 -0.3442
  736MOL0     C 1498  10.261   1.132   3.204  0.0702 -1.0294 -0.0613
  736MOL0     H 1499  10.495   1.098   3.723 -1.0207  0.2684 -1.8266
  736MOL0     H 1500  10.581   1.265   3.884 -0.2432 -0.6680  0.0985
  736MOL0     H 1501  10.718   1.427   3.903  0.4974 -1.9388  3.8484
  736MOL0     H 1502  10.611   1.470   4.037 -0.0270  0.2416 -0.4149
  736MOL0     H 1503  10.673   1.691   4.002 -0.6233 -1.3547  0.4894
  736MOL0     H 1504  10.802   1.597   4.057  1.2209 -0.2236 -0.3032
  736MOL0     H 1505  10.892   1.740   3.909 -4.0731  1.8230 -0.0775
  736MOL0     H 1506  10.908   1.579   3.838  0.8881 -0.5557  2.6027
  736MOL0     H 1507  10.728   1.644   3.681 -0.7822  0.6268 -0.2948
  736MOL0     H 1508  10.681   1.788   3.776 -0.4048  0.1322  1.1229
  736MOL0     H 1509  10.812   1.821   3.562 -1.7856 -3.5791  0.1287
  736MOL0     H 1510  10.958   1.748   3.644 -1.2951 -1.5570  0.5144
  736MOL0     H 1511  10.789   1.970   3.766  0.2717  1.3612 -0.8302
  736MOL0     H 1512  10.958   1.921   3.802  0.4139 -0.0939  0.4767
  736MOL0     H 1513  10.933   2.143   3.671 -1.0890 -1.2037  2.3689
  736MOL0     H 1514  10.901   2.037   3.534 -0.5392  1.2607  0.9356
  736MOL0     H 1515  11.119   1.907   3.588 -1.6920 -0.9674 -2.3407
  736MOL0     H 1516  11.133   2.067   3.504 -4.7003 -1.6665 -2.2913
  736MOL0     H 1517  11.136   2.274   3.725 -0.0365  0.6547  2.3788
  736MOL0     H 1518  11.250   2.389   3.926  0.2522 -0.6097 -2.7236
  736MOL0     H 1519  11.399   2.332   3.959 -0.8703  1.1133  2.4915
  736MOL0     H 1520  11.138   2.234   4.084 -0.3372 -2.2024  2.1932
  736MOL0     H 1521  11.294   2.155   4.120 -1.5322 -1.7328  0.3615
  736MOL0     H 1522  11.375   2.389   4.183 -0.7272  1.8384 -2.7989
  736MOL0     H 1523  11.197   2.431   4.158  0.2926 -2.4529 -5.4747
  736MOL0     H 1524  11.284   2.221   4.361 -1.1729 -1.2296  0.9109
  736MOL0     H 1525  11.297   2.385   4.406 -2.6861 -0.1366  1.9864
  736MOL0     H 1526  10.859   2.377   4.444 -1.7510  0.4498  0.6288
  736MOL0     H 1527  10.591   2.165   4.546  2.8731 -2.4526 -1.5734
  736MOL0     H 1528  10.649   2.329   4.500 -2.7360  0.2536  0.3042
  736MOL0     H 1529  10.697   2.258   4.654  0.8493  1.5789  0.0292
  736MOL0     H 1530  10.665   1.680   4.616  1.0696  1.7564 -0.5893
  736MOL0     H 1531  10.501   1.504   4.599  0.6206 -0.7966  0.0665
  736MOL0     H 1532  10.382   1.332   4.551  0.6939 -0.0021 -0.9977
  736MOL0     H 1533  10.259   1.454   4.572  1.8306 -0.9551  0.8962
  736MOL0     H 1534  10.124   1.287   4.542  0.0331 -0.5211  0.0481
  736MOL0     H 1535  10.138   1.360   4.385 -0.7920  1.6874  1.8415
  736MOL0     H 1536  10.157   1.105   4.391 -2.6458  1.1420 -0.1345
  736MOL0     H 1537  10.328   1.134   4.461  0.3945 -1.3753 -2.2315
  736MOL0     H 1538  10.410   1.240   4.263  0.4566 -1.8166 -1.6395
  736MOL0     H 1539  10.234   1.239   4.210 -1.9908  0.7375  3.2007
  736MOL0     H 1540  10.415   0.979   4.266  0.5331 -4.2122 -2.8416
  736MOL0     H 1541  10.251   0.988   4.215  0.1663  0.3897 -0.9854
  736MOL0     H 1542  10.501   1.070   4.066  0.0892  1.0919  1.6738
  736MOL0     H 1543  10.334   1.121   4.006  1.1735 -0.9841 -2.7293
  736MOL0     H 1544  10.430   0.831   4.029  0.5294  0.8070  2.0806
  736MOL0     H 1545  10.452   0.942   3.888  0.1633 -4.6882 -2.0416
  736MOL0     H 1546  10.252   0.878   3.818  2.3033  1.0511  0.1713
  736MOL0     H 1547  10.185   0.998   3.924 -1.4921 -1.2765  0.9480
  736MOL0     H 1548  10.427   1.614   4.192 -0.1117 -0.0211  0.7320
  736MOL0     H 1549  10.604   1.799   4.215 -1.4762  2.0093  0.5423
  736MOL0     H 1550  11.001   1.902   4.454 -1.8373 -1.8778 -2.0730
  736MOL0     H 1551  11.156   2.066   4.384  1.5548  3.4761 -0.2321
  736MOL0     H 1552  10.413   1.571   3.641  1.2271  0.1231 -0.3296
  736MOL0     H 1553  10.362   1.417   3.464 -1.6499 -2.3469 -0.6086
  736MOL0     H 1554  10.143   0.874   3.569  2.0115 -1.7704 -0.5353
  736MOL0     H 1555  10.053   0.681   3.400  0.3188 -1.0215 -3.2277
  736MOL0     H 1556   9.950   0.777   3.036 -0.5389 -0.2850 -0.5535
  736MOL0     H 1557  10.105   0.707   2.986  0.5831 -0.3327 -1.0803
  736MOL0     H 1558  10.011   0.468   3.043 -1.7631 -0.4148  1.0440
  736MOL0     H 1559   9.946   0.533   2.898  2.4257 -3.0671  0.4336
  736MOL0     H 1560   9.789   0.426   3.052 -1.6539  0.3418 -1.9539
  736MOL0     H 1561   9.840   0.543   3.185 -0.4719 -1.1025  0.0660
  736MOL0     H 1562   9.698   0.614   2.924  0.5114  1.7842 -0.6293
  736MOL0     H 1563   9.718   0.713   3.066  1.1083 -0.6751 -0.9371
  736MOL0     H 1564   9.379   0.460   3.152  0.4295  0.4784 -0.0506
  736MOL0     H 1565  10.182   0.919   3.086  0.6676  0.1006 -0.4400
  736MOL0     H 1566  10.185   1.209   3.216 -0.1328 -1.4647  1.7262
  736MOL0     H 1567  10.354   1.172   3.246  1.0455 -1.5524 -1.6463
  736MOL0     H 1568  10.279   1.120   3.097  0.2740 -2.2469  0.0919
  737MOL0     O 1569   9.098   8.560   2.845  0.0561  0.3171 -0.0992
  737MOL0     C 1570   9.118   8.558   2.721  0.3040 -0.9259 -0.6388
  737MOL0     O 1571   9.073   8.456   2.634 -0.7305 -0.9126 -0.2621
  737MOL0     C 1572   8.994   8.364   2.687 -0.0481  0.7251 -0.0432
  737MOL0     C 1573   8.866   8.380   2.743 -0.6224  0.3392  0.5708
  737MOL0     C 1574   8.789   8.268   2.782 -1.0170 -0.3208 -0.3815
  737MOL0     C 1575   8.853   8.142   2.765 -0.3443 -0.3708  0.1698
  737MOL0     O 1576   8.790   8.032   2.827  0.4079 -0.1186 -0.5913
  737MOL0     C 1577   8.765   7.932   2.726  0.2545  0.5607  0.1497
  737MOL0     C 1578   8.620   7.891   2.728  0.4166 -0.5155 -0.8530
  737MOL0     C 1579   8.605   7.780   2.841  0.3038  0.1858 -0.7257
  737MOL0     C 1580   8.469   7.712   2.859  0.7200 -0.5032 -0.0703
  737MOL0     C 1581   8.363   7.824   2.896  0.7210  1.1056  0.5112
  737MOL0     C 1582   8.219   7.770   2.888  0.0956 -0.1881  0.3931
  737MOL0     C 1583   8.188   7.630   2.942  0.2402  0.1250 -0.1842
  737MOL0     C 1584   8.049   7.586   2.917 -0.7652  0.2224 -0.3953
  737MOL0     N 1585   8.020   7.456   2.970  0.1175  0.3101 -0.0158
  737MOL0     C 1586   7.997   7.426   3.101 -0.2042  0.1833 -0.3426
  737MOL0     C 1587   7.967   7.293   3.105  0.1819 -0.0095 -0.4094
  737MOL0     C 1588   7.931   7.217   3.218 -0.9343  0.3054  0.0821
  737MOL0     C 1589   8.052   7.199   3.305 -0.5287  0.4366 -0.0872
  737MOL0     C 1590   8.021   7.123   3.439  0.2510 -0.5335  0.6533
  737MOL0     C 1591   8.013   6.982   3.403  0.7262  0.7800 -0.2653
  737MOL0     O 1592   8.061   6.914   3.518  0.1122  0.6261 -0.1687
  737MOL0     C 1593   8.061   6.772   3.520 -0.4361  0.5894  1.2556
  737MOL0     C 1594   8.160   6.693   3.456 -0.7932 -0.1444  0.1227
  737MOL0     C 1595   8.160   6.556   3.451 -0.6336  0.5428  1.0793
  737MOL0     C 1596   8.267   6.483   3.371 -0.8202 -0.1402  0.4044
  737MOL0     C 1597   8.054   6.486   3.517 -1.4536  0.8567  1.0812
  737MOL0     C 1598   8.049   6.336   3.533 -0.7667  0.9538 -0.1116
  737MOL0     O 1599   7.928   6.281   3.555 -0.0220 -0.0461  0.6732
  737MOL0     C 1600   7.931   6.147   3.572 -0.1218 -0.2183 -0.4526
  737MOL0     C 1601   7.998   6.085   3.684 -0.3634  0.0484  0.2274
  737MOL0     C 1602   7.981   5.952   3.709 -0.1832  0.3352  0.3864
  737MOL0     C 1603   7.909   5.880   3.620  1.1321  0.4389  0.5401
  737MOL0     O 1604   7.877   5.749   3.631  0.1611 -0.1669  0.0033
  737MOL0     C 1605   7.891   5.687   3.762 -0.0360 -0.6687 -0.5380
  737MOL0     C 1606   7.813   5.559   3.778 -0.1381  0.1382 -0.5079
  737MOL0     C 1607   7.827   5.493   3.917 -0.3089 -0.0053 -0.0820
  737MOL0     C 1608   7.713   5.527   4.024  0.2907  0.7803  0.4691
  737MOL0     C 1609   7.693   5.681   4.040  0.1921  0.1272 -0.3532
  737MOL0     C 1610   7.802   5.751   4.124  0.2508 -0.1154  0.1222
  737MOL0     C 1611   7.788   5.906   4.092  0.0108  0.6036 -0.0683
  737MOL0     C 1612   7.651   5.967   4.134 -0.7134 -0.1243  0.2837
  737MOL0    Cl 1613   7.640   6.112   4.046 -0.3625 -0.0077  0.6972
  737MOL0     C 1614   7.851   5.937   3.506  0.2802  0.1005 -1.2171
  737MOL0     C 1615   7.846   6.075   3.485 -0.3190  0.6971  0.5515
  737MOL0     O 1616   8.152   6.272   3.527  0.1139 -0.6471  0.1675
  737MOL0     C 1617   7.951   6.555   3.582  0.4039  0.8088 -0.0379
  737MOL0     C 1618   7.953   6.700   3.575  0.5840 -0.3133  0.1606
  737MOL0     N 1619   7.954   7.249   2.982 -1.1243 -0.5189 -0.1358
  737MOL0     N 1620   7.983   7.346   2.893 -0.3002  0.1326 -0.7790
  737MOL0     C 1621   8.983   8.130   2.706  0.1928  0.3223  0.5806
  737MOL0     C 1622   9.051   8.240   2.662  1.4424 -0.2177 -1.0021
  737MOL0     C 1623   9.192   8.671   2.655  0.6700  0.2915  0.3410
  737MOL0     C 1624   9.207   8.668   2.513  0.4450  0.2210 -0.3305
  737MOL0     C 1625   9.273   8.767   2.443 -0.0248  1.0370 -0.7279
  737MOL0     C 1626   9.332   8.874   2.507  0.3999  0.6730  0.5137
  737MOL0     O 1627   9.376   8.981   2.423  0.3182 -0.2231  0.2868
  737MOL0     C 1628   9.477   9.068   2.484  0.0593 -1.7545 -0.0843
  737MOL0     C 1629   9.421   9.195   2.555 -0.4170 -0.1311 -0.1819
  737MOL0     C 1630   9.491   9.212   2.686  0.6774  0.5119 -0.3191
  737MOL0     C 1631   9.473   9.363   2.736  0.5142 -0.6801  0.2587
  737MOL0     C 1632   9.533   9.401   2.868  0.5366  0.1245 -0.5458
  737MOL0     C 1633   9.600   9.403   2.973 -1.0415  0.6878  0.3319
  737MOL0     C 1634   9.322   8.873   2.649 -1.3319  0.0284 -0.3875
  737MOL0     C 1635   9.253   8.781   2.724  0.1150  0.2533  0.2641
  737MOL0     C 1636   9.254   8.799   2.876 -1.4168 -0.0504  0.2306
  737MOL0     H 1637   8.824   8.480   2.752  1.7772  1.6030 -0.9839
  737MOL0     H 1638   8.697   8.277   2.840 -0.1306 -3.4501  1.7102
  737MOL0     H 1639   8.826   7.843   2.711 -2.7517 -1.0777 -5.1474
  737MOL0     H 1640   8.775   7.982   2.630  4.0426  0.9952  0.6381
  737MOL0     H 1641   8.546   7.970   2.742  0.8285 -0.2851  0.1013
  737MOL0     H 1642   8.599   7.846   2.631  0.6089 -2.3792 -0.0662
  737MOL0     H 1643   8.676   7.700   2.818  1.9867  0.4738  2.8276
  737MOL0     H 1644   8.633   7.828   2.935  0.7224 -2.3518  0.5345
  737MOL0     H 1645   8.438   7.660   2.768 -0.6507 -0.1901  0.2032
  737MOL0     H 1646   8.468   7.637   2.938 -0.0272  0.7540  1.1392
  737MOL0     H 1647   8.363   7.910   2.829  0.6965  1.1903  0.6208
  737MOL0     H 1648   8.383   7.856   2.999 -3.7011  1.3421  1.5345
  737MOL0     H 1649   8.158   7.840   2.945  1.6330  1.9426 -0.4515
  737MOL0     H 1650   8.192   7.784   2.782  0.6041  0.8840  0.3909
  737MOL0     H 1651   8.202   7.621   3.050  1.2191 -1.5129 -0.4123
  737MOL0     H 1652   8.260   7.561   2.896 -0.2004 -1.0006  0.8035
  737MOL0     H 1653   7.987   7.663   2.963  1.2105  1.5440  0.2183
  737MOL0     H 1654   8.033   7.587   2.809 -0.1563 -0.0406 -0.4919
  737MOL0     H 1655   8.025   7.483   3.189  0.2113 -2.4920  1.3828
  737MOL0     H 1656   7.903   7.116   3.187 -1.3297 -0.3695  2.4489
  737MOL0     H 1657   7.848   7.257   3.278  0.2229  0.0842  1.9013
  737MOL0     H 1658   8.122   7.142   3.242 -0.7428 -0.3730  0.3898
  737MOL0     H 1659   8.096   7.294   3.336  0.5974  1.4262 -4.0414
  737MOL0     H 1660   8.088   7.151   3.520 -0.4471  1.8297  0.4980
  737MOL0     H 1661   7.918   7.153   3.462 -0.1446 -1.4510  0.1277
  737MOL0     H 1662   7.914   6.942   3.382  1.8842 -2.1250 -0.6233
  737MOL0     H 1663   8.069   6.963   3.311 -0.6153  0.5650 -1.0701
  737MOL0     H 1664   8.225   6.759   3.398 -0.8211 -1.8752 -1.9780
  737MOL0     H 1665   8.344   6.425   3.423 -0.0794  0.0558 -0.4458
  737MOL0     H 1666   8.325   6.555   3.313  0.5733 -0.0290  1.8633
  737MOL0     H 1667   8.223   6.435   3.283 -0.0924  2.5797 -1.5483
  737MOL0     H 1668   8.053   6.147   3.754 -1.5188  1.2942  0.0767
  737MOL0     H 1669   8.009   5.896   3.797 -2.7986 -2.9113 -0.6345
  737MOL0     H 1670   7.996   5.666   3.782  0.4184  2.8613  1.7187
  737MOL0     H 1671   7.851   5.757   3.837 -0.0400  0.3159 -1.4288
  737MOL0     H 1672   7.710   5.583   3.752 -0.1327  1.0201  0.2289
  737MOL0     H 1673   7.851   5.482   3.710  1.6409  1.1475 -0.7274
  737MOL0     H 1674   7.928   5.505   3.958  0.3106 -5.0616  0.4549
  737MOL0     H 1675   7.823   5.384   3.907  2.7046 -0.2152  0.1021
  737MOL0     H 1676   7.735   5.474   4.117 -1.1079 -2.7575 -1.0306
  737MOL0     H 1677   7.616   5.487   3.992  1.3672 -0.2863 -1.6577
  737MOL0     H 1678   7.671   5.721   3.940  0.2273 -1.1300 -0.8806
  737MOL0     H 1679   7.597   5.689   4.092  0.6331 -2.1443  0.9207
  737MOL0     H 1680   7.898   5.717   4.084  0.8547 -1.3637  2.4367
  737MOL0     H 1681   7.794   5.733   4.232 -2.9170  0.0920  0.0318
  737MOL0     H 1682   7.805   5.928   3.986  1.8459 -0.5695 -0.0518
  737MOL0     H 1683   7.868   5.955   4.148  1.0582 -0.8888 -0.1982
  737MOL0     H 1684   7.653   5.979   4.243 -0.6870  0.8558  0.1913
  737MOL0     H 1685   7.567   5.908   4.096 -1.2178  1.6868 -1.6368
  737MOL0     H 1686   7.795   5.872   3.439 -0.3105  1.1137 -1.7341
  737MOL0     H 1687   7.780   6.129   3.418  0.6211  0.3018 -0.7209
  737MOL0     H 1688   7.871   6.509   3.638  1.0050 -0.6775 -0.3488
  737MOL0     H 1689   7.872   6.757   3.618  0.0910  1.3333 -2.6549
  737MOL0     H 1690   9.030   8.032   2.701  2.1895  1.2930 -0.9907
  737MOL0     H 1691   9.146   8.235   2.609  1.3444 -3.4866 -1.1003
  737MOL0     H 1692   9.175   8.584   2.452 -0.2168 -0.0758  0.4209
  737MOL0     H 1693   9.289   8.763   2.336  2.5814 -0.8745 -0.3668
  737MOL0     H 1694   9.536   9.008   2.554 -0.1944 -0.1599  1.5569
  737MOL0     H 1695   9.544   9.106   2.407 -1.4118 -1.1714 -1.1315
  737MOL0     H 1696   9.313   9.187   2.569 -0.4456 -1.1566 -0.9055
  737MOL0     H 1697   9.449   9.288   2.504  2.7273 -0.0894  1.4044
  737MOL0     H 1698   9.449   9.138   2.754 -0.2318 -1.2068 -2.6215
  737MOL0     H 1699   9.596   9.188   2.663  0.3921 -0.7944 -0.3400
  737MOL0     H 1700   9.367   9.389   2.746 -0.3039 -2.2991 -2.8939
  737MOL0     H 1701   9.524   9.435   2.671 -1.6066  0.7435  0.0764
  737MOL0     H 1702   9.652   9.399   3.066  2.9039  2.2460 -1.5633
  737MOL0     H 1703   9.375   8.957   2.692 -2.9589  2.0640 -2.1437
  737MOL0     H 1704   9.305   8.713   2.920 -1.8828 -0.5517 -0.1941
  737MOL0     H 1705   9.309   8.890   2.902 -1.8895  0.1554  0.5105
  737MOL0     H 1706   9.154   8.807   2.919 -1.5330 -2.2089  0.4475
  738MOL0     O 1707   8.604   0.076   8.616  0.0128 -0.2268 -0.3098
  738MOL0     C 1708   8.632   0.182   8.659 -0.2327 -0.6528 -0.2113
  738MOL0     O 1709   8.704   0.206   8.768  0.0055 -0.1846  0.2077
  738MOL0     C 1710   8.778   0.100   8.821  0.0083 -0.0272 -0.6242
  738MOL0     C 1711   8.723  -0.019   8.876 -0.2800 -0.5333 -0.2168
  738MOL0     C 1712   8.797  -0.116   8.935  0.6733  0.0402  0.0417
  738MOL0     C 1713   8.929  -0.093   8.953 -0.1029 -0.1623  0.3016
  738MOL0     O 1714   9.019  -0.183   9.001 -0.3303 -0.5073 -0.0234
  738MOL0     C 1715   8.980  -0.293   9.076  0.6743 -0.2705  0.0558
  738MOL0     C 1716   8.903  -0.255   9.203  0.5937  0.6351 -0.2998
  738MOL0     C 1717   8.869  -0.396   9.253  0.1101 -0.1109 -0.0320
  738MOL0     C 1718   8.830  -0.396   9.407 -0.3147  0.4609 -0.8442
  738MOL0     C 1719   8.750  -0.521   9.431  0.7431 -0.1779  0.5093
  738MOL0     C 1720   8.690  -0.515   9.576  0.6969 -0.1436 -0.1101
  738MOL0     C 1721   8.781  -0.510   9.696  0.5204 -0.0019 -0.6411
  738MOL0     C 1722   8.797  -0.366   9.742 -0.8480  0.5065  0.2348
  738MOL0     N 1723   8.889  -0.351   9.857 -0.0122  0.2854 -0.3898
  738MOL0     C 1724   8.918  -0.444   9.967 -0.8433 -0.7978  0.3273
  738MOL0     C 1725   9.004  -0.380  10.038 -0.7009 -0.1044 -0.0445
  738MOL0     C 1726   9.040  -0.425  10.172 -0.7596  0.4957  0.5047
  738MOL0     C 1727   8.934  -0.388  10.281  0.0750  0.9868  0.3446
  738MOL0     C 1728   8.884  -0.235  10.271  0.2167 -0.1856  1.3830
  738MOL0     C 1729   8.792  -0.196  10.387  0.0470  0.4510  0.2262
  738MOL0     O 1730   8.722  -0.070  10.374 -0.4120 -0.2434  0.1810
  738MOL0     C 1731   8.628  -0.034  10.467 -0.0030 -0.7192 -0.8337
  738MOL0     C 1732   8.568  -0.112  10.569 -1.1999  1.3029  0.0309
  738MOL0     C 1733   8.463  -0.079  10.650 -0.3800 -0.2710 -1.1442
  738MOL0     C 1734   8.427  -0.168  10.764  0.6614 -0.1019 -0.3459
  738MOL0     C 1735   8.400   0.045  10.629  0.1839  0.2262  1.2256
  738MOL0     C 1736   8.280   0.099  10.703 -0.3424 -0.3894 -0.4592
  738MOL0     O 1737   8.271   0.236  10.697  0.2989 -0.7124  0.3050
  738MOL0     C 1738   8.172   0.306  10.767 -0.2162 -0.4932  0.5499
  738MOL0     C 1739   8.172   0.308  10.909  0.1793 -0.1338 -0.9841
  738MOL0     C 1740   8.089   0.389  10.986 -0.0740  0.1485  0.5438
  738MOL0     C 1741   7.994   0.471  10.922  0.4429 -0.0860  0.1002
  738MOL0     O 1742   7.913   0.560  10.990 -0.8619  0.2166 -0.4815
  738MOL0     C 1743   7.983   0.672  11.042  0.0720  0.0858 -0.1909
  738MOL0     C 1744   7.891   0.769  11.120  0.1362  0.1730  0.8005
  738MOL0     C 1745   7.817   0.703  11.234  0.6817 -0.5620 -0.0139
  738MOL0     C 1746   7.709   0.806  11.284 -0.4467 -0.1588  0.2840
  738MOL0     C 1747   7.622   0.730  11.381 -0.9517  0.0974  0.5167
  738MOL0     C 1748   7.522   0.846  11.434  0.0444  0.5005 -0.0993
  738MOL0     C 1749   7.433   0.807  11.552 -0.0293 -0.1224 -0.6148
  738MOL0     C 1750   7.294   0.761  11.523 -0.2137 -0.0260  0.5260
  738MOL0    Cl 1751   7.199   0.768  11.676 -0.2023  0.4212 -0.2147
  738MOL0     C 1752   7.989   0.472  10.784  0.9546  0.4367 -0.0692
  738MOL0     C 1753   8.076   0.398  10.708  0.2375  0.0686  0.9062
  738MOL0     O 1754   8.199   0.029  10.759  0.2762  0.3502  0.0197
  738MOL0     C 1755   8.462   0.131  10.529  0.3122 -0.1192 -0.7954
  738MOL0     C 1756   8.577   0.094  10.450 -0.0710  0.7864  0.4188
  738MOL0     N 1757   9.039  -0.258   9.979  0.1004  0.8113  0.3010
  738MOL0     N 1758   8.968  -0.251   9.871 -0.4958  0.8269 -0.0815
  738MOL0     C 1759   8.991   0.023   8.904  0.1934 -0.1373 -0.3860
  738MOL0     C 1760   8.914   0.121   8.847  0.8965  0.3695  0.3934
  738MOL0     C 1761   8.562   0.301   8.612  0.2488  0.0712  0.5661
  738MOL0     C 1762   8.445   0.335   8.668 -0.6513 -0.1123  0.1151
  738MOL0     C 1763   8.374   0.446   8.609 -0.6761  0.2881 -0.3572
  738MOL0     C 1764   8.426   0.530   8.506  0.4407 -0.3233  0.0453
  738MOL0     O 1765   8.351   0.636   8.461  0.2102 -0.1386 -0.4566
  738MOL0     C 1766   8.363   0.699   8.331 -0.4412  0.8907 -0.0747
  738MOL0     C 1767   8.467   0.808   8.333  0.1207 -0.2699 -0.7533
  738MOL0     C 1768   8.448   0.894   8.211  0.3604  0.7570  0.9036
  738MOL0     C 1769   8.567   0.982   8.178 -0.7103 -0.4968 -0.0344
  738MOL0     C 1770   8.557   1.056   8.052  0.0946 -0.1425 -0.4995
  738MOL0     C 1771   8.534   1.111   7.945 -0.1274 -0.4785 -1.3853
  738MOL0     C 1772   8.552   0.492   8.459  0.1091 -0.2579  0.3505
  738MOL0     C 1773   8.615   0.374   8.506  0.7305 -0.3461  0.5349
  738MOL0     C 1774   8.728   0.326   8.408 -0.1071  0.2640 -0.3669
  738MOL0     H 1775   8.616  -0.034   8.863 -0.4222  0.9038 -0.9525
  738MOL0     H 1776   8.742  -0.204   8.968 -1.1688  0.1067 -2.4907
  738MOL0     H 1777   9.070  -0.350   9.104  2.3358  1.5776 -1.2592
  738MOL0     H 1778   8.915  -0.361   9.019 -1.9544  2.2392 -0.1651
  738MOL0     H 1779   8.963  -0.202   9.277 -1.5887  1.3663  1.0254
  738MOL0     H 1780   8.811  -0.198   9.185 -0.6057 -0.2241  2.5554
  738MOL0     H 1781   8.786  -0.437   9.194 -0.3759  0.5043  0.2124
  738MOL0     H 1782   8.953  -0.464   9.236  0.9450  0.5342  1.3880
  738MOL0     H 1783   8.924  -0.404   9.462 -1.3838 -0.0398  1.0019
  738MOL0     H 1784   8.798  -0.297   9.443 -0.5485  1.1333 -2.8204
  738MOL0     H 1785   8.805  -0.614   9.415  0.1684 -0.6297  1.1136
  738MOL0     H 1786   8.666  -0.522   9.362  0.0666 -0.4155  1.3154
  738MOL0     H 1787   8.608  -0.444   9.590  2.1854  1.9741 -1.6278
  738MOL0     H 1788   8.630  -0.607   9.585  1.8463 -0.7047  2.7930
  738MOL0     H 1789   8.881  -0.550   9.675  2.3678  4.2631 -0.8766
  738MOL0     H 1790   8.730  -0.563   9.778 -0.5147  1.3045 -0.4110
  738MOL0     H 1791   8.838  -0.315   9.654 -1.0344 -1.3729 -0.9847
  738MOL0     H 1792   8.697  -0.329   9.769  0.1397  2.8396  0.9564
  738MOL0     H 1793   8.875  -0.541   9.990 -1.8377 -0.5078 -0.2407
  738MOL0     H 1794   9.138  -0.384  10.198  0.2180  0.1183 -2.2487
  738MOL0     H 1795   9.057  -0.533  10.176 -1.1413  0.4805  2.2077
  738MOL0     H 1796   8.854  -0.462  10.268  1.1123 -0.1274  0.0854
  738MOL0     H 1797   8.977  -0.404  10.381 -1.1753 -1.3614  0.5803
  738MOL0     H 1798   8.963  -0.160  10.272  0.6229 -0.5946  0.7799
  738MOL0     H 1799   8.824  -0.231  10.179  0.8041 -3.2334  0.7629
  738MOL0     H 1800   8.719  -0.277  10.399  2.7889 -2.0194  1.5021
  738MOL0     H 1801   8.848  -0.194  10.481 -0.1129  1.3258  0.3089
  738MOL0     H 1802   8.620  -0.208  10.575 -0.2831  1.6967 -1.1785
  738MOL0     H 1803   8.321  -0.194  10.755  0.6111  0.1263 -0.4195
  738MOL0     H 1804   8.437  -0.100  10.849 -6.6638  4.0257 -1.9502
  738MOL0     H 1805   8.492  -0.255  10.774  2.1548  0.5471 -3.3132
  738MOL0     H 1806   8.252   0.248  10.952 -0.5176 -2.3780 -2.6287
  738MOL0     H 1807   8.094   0.377  11.094 -0.4916  0.7220  0.6322
  738MOL0     H 1808   8.064   0.635  11.105  1.7975  1.1672 -1.6933
  738MOL0     H 1809   8.019   0.722  10.952 -0.3705  0.3175 -0.2427
  738MOL0     H 1810   7.938   0.859  11.162  0.7908  0.7176 -0.9799
  738MOL0     H 1811   7.822   0.803  11.042  0.8070  1.2603  0.6629
  738MOL0     H 1812   7.875   0.683  11.325 -1.3338 -0.2001  1.4405
  738MOL0     H 1813   7.771   0.610  11.198 -0.9520  0.1372  0.1658
  738MOL0     H 1814   7.662   0.838  11.190 -1.5953  3.2612  1.8471
  738MOL0     H 1815   7.766   0.891  11.323 -0.3903  1.2860 -2.6307
  738MOL0     H 1816   7.570   0.665  11.310  1.5648 -2.0251  0.4557
  738MOL0     H 1817   7.679   0.673  11.455 -2.2883  0.8205  2.1796
  738MOL0     H 1818   7.469   0.874  11.343  2.3105 -4.0411 -3.1895
  738MOL0     H 1819   7.583   0.931  11.464 -1.1237  1.1619  0.4661
  738MOL0     H 1820   7.428   0.900  11.610 -0.7872  0.3294 -1.3659
  738MOL0     H 1821   7.475   0.728  11.613 -0.1646  3.0136  4.0371
  738MOL0     H 1822   7.300   0.659  11.485 -0.6677  1.2481 -3.3733
  738MOL0     H 1823   7.243   0.813  11.442 -0.3911  1.6249  1.6485
  738MOL0     H 1824   7.919   0.535  10.730 -0.6676 -1.8937 -0.8666
  738MOL0     H 1825   8.083   0.408  10.600  1.6601  0.8166  1.0395
  738MOL0     H 1826   8.424   0.231  10.513 -2.8548 -0.5690  2.4644
  738MOL0     H 1827   8.616   0.152  10.366 -0.8764 -0.0510 -0.5670
  738MOL0     H 1828   9.098   0.036   8.916  0.0764 -0.3676  1.1008
  738MOL0     H 1829   8.960   0.217   8.827 -0.0624  1.1722  1.8730
  738MOL0     H 1830   8.402   0.267   8.740 -3.7802  0.1558 -1.3079
  738MOL0     H 1831   8.273   0.475   8.639  0.2250  2.6112  0.7529
  738MOL0     H 1832   8.378   0.615   8.262 -0.6156  1.6622 -1.0879
  738MOL0     H 1833   8.264   0.745   8.317 -0.0005  2.6430  2.0189
  738MOL0     H 1834   8.563   0.756   8.342 -0.1925 -1.0664 -1.8798
  738MOL0     H 1835   8.461   0.867   8.425  0.5129 -1.9361  0.3897
  738MOL0     H 1836   8.435   0.825   8.127  3.0243  1.6926 -0.4130
  738MOL0     H 1837   8.358   0.956   8.207 -2.2070 -2.7505  0.1883
  738MOL0     H 1838   8.665   0.935   8.164 -0.4812 -1.3566  3.5051
  738MOL0     H 1839   8.573   1.048   8.265  0.7173  0.3606 -0.7369
  738MOL0     H 1840   8.532   1.179   7.862 -3.0520  3.1411  1.2967
  738MOL0     H 1841   8.589   0.558   8.381 -1.7354  1.0529  0.5107
  738MOL0     H 1842   8.817   0.390   8.413 -0.2732  0.6246 -1.7020
  738MOL0     H 1843   8.767   0.225   8.422  4.6380  1.9447  0.4915
  738MOL0     H 1844   8.700   0.347   8.304  1.4894 -0.6332 -1.0172
  739MOL0     O 1845   0.056   1.764   1.556  0.3755  0.1469  0.6790
  739MOL0     C 1846   0.073   1.830   1.659  1.0294  0.2512 -0.3941
  739MOL0     O 1847   0.154   1.943   1.669  0.7647 -0.5831 -0.3726
  739MOL0     C 1848   0.242   1.978   1.572 -0.1633  0.4348  0.1695
  739MOL0     C 1849   0.347   1.887   1.533 -0.6183 -0.1701  0.1375
  739MOL0     C 1850   0.447   1.922   1.439  0.6739 -0.0736 -0.1985
  739MOL0     C 1851   0.448   2.052   1.389  0.1764  0.4747  0.4308
  739MOL0     O 1852   0.535   2.102   1.293 -0.3428  0.1222  0.1458
  739MOL0     C 1853   0.640   2.017   1.242  0.1340 -0.6782  0.3921
  739MOL0     C 1854   0.717   2.080   1.123 -1.1906  0.1274  0.2288
  739MOL0     C 1855   0.838   1.995   1.088  0.5141 -0.6304  0.8799
  739MOL0     C 1856   0.939   2.068   0.995  0.7768 -0.7944 -0.5804
  739MOL0     C 1857   1.047   1.982   0.960 -0.4426 -0.3286 -0.5569
  739MOL0     C 1858   1.129   2.065   0.849  0.4205 -1.0102  0.2073
  739MOL0     C 1859   1.248   1.984   0.799  0.1329  0.8187 -0.3353
  739MOL0     C 1860   1.332   1.917   0.908  0.0269 -0.7072  1.1131
  739MOL0     N 1861   1.444   1.851   0.844 -0.1556 -0.5078  0.2363
  739MOL0     C 1862   1.559   1.905   0.803  0.2469 -0.3172 -0.2426
  739MOL0     C 1863   1.635   1.801   0.757  0.0380  0.5619  0.7087
  739MOL0     C 1864   1.774   1.816   0.723 -0.5332  0.0732  0.8296
  739MOL0     C 1865   1.854   1.686   0.731 -0.4593 -0.2532 -0.8055
  739MOL0     C 1866   1.874   1.610   0.866  0.1683 -0.9176 -0.3480
  739MOL0     C 1867   1.969   1.680   0.961  0.0934  0.9483  0.4303
  739MOL0     O 1868   1.926   1.809   0.989 -0.3373  0.0816 -1.3167
  739MOL0     C 1869   1.808   1.843   1.048 -0.3458  0.1059 -0.4473
  739MOL0     C 1870   1.720   1.762   1.119  0.2783  0.7028 -0.2959
  739MOL0     C 1871   1.597   1.808   1.183 -0.8930 -0.3904 -0.3712
  739MOL0     C 1872   1.517   1.706   1.269  0.0472  0.6555  1.0822
  739MOL0     C 1873   1.585   1.952   1.177  0.5479 -0.4596  0.4324
  739MOL0     C 1874   1.477   2.019   1.250  0.1475 -0.0717 -0.2909
  739MOL0     O 1875   1.353   1.958   1.247  0.1147 -0.1787 -0.0481
  739MOL0     C 1876   1.243   2.027   1.308  0.3526  0.7990  0.3501
  739MOL0     C 1877   1.183   2.154   1.269 -0.4321  0.3890 -0.7252
  739MOL0     C 1878   1.054   2.199   1.313 -0.1417 -0.2857 -0.1217
  739MOL0     C 1879   0.985   2.123   1.403  0.2498  0.2393  0.3257
  739MOL0     O 1880   0.864   2.161   1.442 -0.2245  0.4232  0.3215
  739MOL0     C 1881   0.795   2.096   1.560  1.0812 -0.0623 -0.4063
  739MOL0     C 1882   0.684   2.198   1.596 -0.6920  0.4157 -0.4576
  739MOL0     C 1883   0.599   2.152   1.716  0.9324  0.2561  0.0154
  739MOL0     C 1884   0.507   2.256   1.777 -1.0319 -0.3445  0.0296
  739MOL0     C 1885   0.442   2.194   1.901  0.3375  0.0463 -0.8970
  739MOL0     C 1886   0.362   2.296   1.979  0.2809  0.0375 -0.0368
  739MOL0     C 1887   0.242   2.331   1.897  0.0230  0.0934  0.5566
  739MOL0     C 1888   0.145   2.415   1.974  0.1970 -0.6760 -0.5341
  739MOL0    Cl 1889   0.217   2.576   2.008  0.0767 -0.3451  0.0862
  739MOL0     C 1890   1.050   2.002   1.456  0.0024 -0.5738 -0.0511
  739MOL0     C 1891   1.168   1.955   1.402  0.5881 -0.2955  0.4583
  739MOL0     O 1892   1.501   2.123   1.298  0.0977 -0.6816  0.7105
  739MOL0     C 1893   1.677   2.034   1.115  0.0934 -0.1364 -0.5097
  739MOL0     C 1894   1.793   1.981   1.050 -0.4452  0.4464 -1.3026
  739MOL0     N 1895   1.559   1.685   0.756 -0.5889  0.6509 -0.3287
  739MOL0     N 1896   1.443   1.722   0.812 -0.2264  0.2152 -0.4331
  739MOL0     C 1897   0.345   2.146   1.424 -0.5077  0.6888  1.1395
  739MOL0     C 1898   0.244   2.109   1.515 -0.5605  0.6026  0.1336
  739MOL0     C 1899  -0.001   1.780   1.776 -0.3471 -0.0789 -0.0085
  739MOL0     C 1900  -0.131   1.731   1.752 -0.4898  0.1556 -0.0841
  739MOL0     C 1901  -0.202   1.687   1.865  0.0291  0.1005  0.5788
  739MOL0     C 1902  -0.149   1.702   1.994 -0.6144 -0.2812 -0.2383
  739MOL0     O 1903  -0.235   1.660   2.094 -1.1046 -0.2228  0.1030
  739MOL0     C 1904  -0.219   1.721   2.224 -0.2829  1.2041 -0.5471
  739MOL0     C 1905  -0.354   1.731   2.283 -0.3768  0.5981  0.0548
  739MOL0     C 1906  -0.422   1.844   2.205  0.2204 -0.5629 -0.6451
  739MOL0     C 1907  -0.565   1.858   2.256  0.3274  0.4477  0.6954
  739MOL0     C 1908  -0.623   1.991   2.223  0.3342  0.9550 -0.5874
  739MOL0     C 1909  -0.671   2.098   2.196  0.2926 -0.9708 -0.2580
  739MOL0     C 1910  -0.010   1.737   2.013 -0.6174  0.1916  0.8598
  739MOL0     C 1911   0.068   1.774   1.901 -0.0808 -0.1136  0.5507
  739MOL0     C 1912   0.210   1.819   1.919 -0.8571  0.3267 -0.2905
  739MOL0     H 1913   0.344   1.788   1.578 -0.2713 -0.4121 -0.3666
  739MOL0     H 1914   0.531   1.857   1.418  1.7456 -0.6782  4.8334
  739MOL0     H 1915   0.604   1.919   1.211  1.3360 -1.0993  0.2905
  739MOL0     H 1916   0.700   2.000   1.332  1.2610 -2.1217 -0.5771
  739MOL0     H 1917   0.646   2.085   1.040  1.4061  2.4328 -2.0550
  739MOL0     H 1918   0.756   2.181   1.139  1.0190 -0.8794  1.5627
  739MOL0     H 1919   0.903   1.983   1.175 -1.2933 -2.4082  2.0519
  739MOL0     H 1920   0.816   1.900   1.038 -1.2383  0.4677 -0.5315
  739MOL0     H 1921   0.876   2.100   0.912 -0.4851 -0.0525  0.6111
  739MOL0     H 1922   0.972   2.161   1.041 -0.7252 -1.3095  1.7489
  739MOL0     H 1923   1.020   1.888   0.911  0.5764  0.1018 -2.0312
  739MOL0     H 1924   1.095   1.954   1.054 -1.9632 -0.0822  0.3271
  739MOL0     H 1925   1.065   2.105   0.770  1.4823  1.6130  0.5792
  739MOL0     H 1926   1.167   2.160   0.888  0.5038 -1.3464  0.9674
  739MOL0     H 1927   1.315   2.049   0.742  1.8206 -2.2155 -2.0740
  739MOL0     H 1928   1.205   1.904   0.738 -3.6140  0.8640  1.9558
  739MOL0     H 1929   1.372   1.989   0.981  3.6290 -2.1069  0.7360
  739MOL0     H 1930   1.262   1.847   0.953 -2.3495  1.0684  0.3528
  739MOL0     H 1931   1.587   2.010   0.812 -2.7085  0.5325  0.1619
  739MOL0     H 1932   1.814   1.890   0.793  1.6770 -1.5598  1.3967
  739MOL0     H 1933   1.770   1.855   0.621 -1.6871  2.6976  1.8034
  739MOL0     H 1934   1.806   1.614   0.665 -1.0181 -0.4425 -0.2004
  739MOL0     H 1935   1.953   1.704   0.688  1.8513  0.7517  4.2099
  739MOL0     H 1936   1.772   1.598   0.905  0.2180 -2.1142 -0.5298
  739MOL0     H 1937   1.915   1.509   0.853  1.0729 -0.4788 -1.0471
  739MOL0     H 1938   1.984   1.612   1.045 -0.1986 -2.6613 -2.1894
  739MOL0     H 1939   2.062   1.692   0.904 -0.2427  0.6192 -0.2077
  739MOL0     H 1940   1.738   1.655   1.126 -1.9366  0.3672  1.4785
  739MOL0     H 1941   1.428   1.693   1.208  0.3553  0.1449  0.7350
  739MOL0     H 1942   1.506   1.737   1.373 -1.9741  0.5602  0.9251
  739MOL0     H 1943   1.555   1.604   1.280  0.8109  0.7268 -0.5730
  739MOL0     H 1944   1.229   2.217   1.194 -1.1015  1.5752 -0.1709
  739MOL0     H 1945   1.022   2.294   1.270  1.2686 -1.4049 -4.1242
  739MOL0     H 1946   0.753   1.997   1.543  0.3722  0.2577 -0.5705
  739MOL0     H 1947   0.862   2.098   1.647 -0.4366  5.1985  1.0320
  739MOL0     H 1948   0.727   2.296   1.615 -1.4368  0.5145  0.7860
  739MOL0     H 1949   0.622   2.206   1.506  1.2813 -2.4169 -2.2616
  739MOL0     H 1950   0.665   2.108   1.791  1.5336 -0.6785 -1.0392
  739MOL0     H 1951   0.521   2.083   1.681 -1.4506  2.4960  0.5417
  739MOL0     H 1952   0.438   2.297   1.703  1.4021  1.7698 -1.2384
  739MOL0     H 1953   0.576   2.339   1.794  0.1611 -0.7816 -2.2791
  739MOL0     H 1954   0.385   2.115   1.852 -0.5080  0.5821 -0.7915
  739MOL0     H 1955   0.502   2.133   1.968 -3.2667 -0.8566  1.8339
  739MOL0     H 1956   0.429   2.381   1.991  3.1021 -1.7069 -2.1954
  739MOL0     H 1957   0.318   2.253   2.069 -1.6855  1.1328 -0.4147
  739MOL0     H 1958   0.182   2.245   1.864 -0.7887  0.7150  0.3647
  739MOL0     H 1959   0.266   2.394   1.811 -1.5835 -1.4628 -1.1494
  739MOL0     H 1960   0.102   2.379   2.068  2.5618 -0.0094  0.8951
  739MOL0     H 1961   0.064   2.427   1.902  0.5013 -0.1794 -0.7978
  739MOL0     H 1962   1.003   1.937   1.530 -0.8481 -1.2308 -1.1486
  739MOL0     H 1963   1.197   1.856   1.435 -2.6334 -1.8250 -0.8983
  739MOL0     H 1964   1.670   2.142   1.119 -0.0334 -0.1880  2.7234
  739MOL0     H 1965   1.863   2.046   0.999  0.4529  0.3944 -0.1742
  739MOL0     H 1966   0.340   2.252   1.402  0.4001  0.6865  0.8730
  739MOL0     H 1967   0.177   2.188   1.550 -1.6987 -0.9891  1.6965
  739MOL0     H 1968  -0.159   1.710   1.649  1.7342  3.5468 -1.5554
  739MOL0     H 1969  -0.305   1.654   1.858  0.2091 -0.1283 -1.3887
  739MOL0     H 1970  -0.172   1.640   2.281  0.7961  1.0270 -1.6446
  739MOL0     H 1971  -0.161   1.811   2.244  2.2736 -1.0027  3.2555
  739MOL0     H 1972  -0.345   1.760   2.388 -4.5210  1.1194  0.4647
  739MOL0     H 1973  -0.416   1.641   2.282 -1.4657  1.1509  3.5240
  739MOL0     H 1974  -0.354   1.929   2.216 -0.7234  0.1110  0.2045
  739MOL0     H 1975  -0.432   1.823   2.098 -0.9601 -3.0213 -0.1213
  739MOL0     H 1976  -0.568   1.848   2.365 -3.5554 -0.3407  0.6634
  739MOL0     H 1977  -0.635   1.778   2.229 -2.1362  2.4693  0.6742
  739MOL0     H 1978  -0.718   2.188   2.162  0.3578 -1.6601 -2.2941
  739MOL0     H 1979   0.037   1.747   2.111  0.9382  1.7593  0.0109
  739MOL0     H 1980   0.248   1.799   2.019 -2.1179  3.0537  0.8210
  739MOL0     H 1981   0.268   1.748   1.858 -0.2200 -0.2677  0.9829
  739MOL0     H 1982   0.211   1.925   1.893  2.1265 -0.3037 -3.5626
  740MOL0     O 1983   4.506   8.918   6.609 -0.8246  0.0078  0.0202
  740MOL0     C 1984   4.482   9.033   6.621 -0.1003 -0.6277  0.2681
  740MOL0     O 1985   4.580   9.130   6.653  0.5380 -0.0277 -0.5713
  740MOL0     C 1986   4.707   9.099   6.618 -0.3200 -0.5785  0.8962
  740MOL0     C 1987   4.775   8.994   6.679 -0.0334  0.0572 -0.8733
  740MOL0     C 1988   4.903   8.972   6.634  0.2893 -0.2418 -0.0225
  740MOL0     C 1989   4.974   9.051   6.546 -0.5554  0.0428  0.7784
  740MOL0     O 1990   5.103   9.016   6.515  0.1376 -0.1748  0.2345
  740MOL0     C 1991   5.199   9.119   6.500 -0.2027 -0.1369 -0.3052
  740MOL0     C 1992   5.218   9.193   6.639 -1.0263  0.5379  0.4300
  740MOL0     C 1993   5.346   9.283   6.616  0.5505 -0.8820 -0.2390
  740MOL0     C 1994   5.407   9.289   6.749  0.4831  0.3108 -0.8020
  740MOL0     C 1995   5.552   9.336   6.757  0.1905 -0.8751  0.3226
  740MOL0     C 1996   5.600   9.343   6.902 -0.0578  0.0134 -0.2406
  740MOL0     C 1997   5.755   9.353   6.904 -0.4499  0.2181 -1.0478
  740MOL0     C 1998   5.825   9.480   6.835  0.1082 -0.0599 -0.3826
  740MOL0     N 1999   5.967   9.475   6.871 -0.2028  0.3039 -0.1260
  740MOL0     C 2000   6.055   9.574   6.829  0.5812  0.0033 -0.4436
  740MOL0     C 2001   6.182   9.521   6.839 -0.8700 -0.4120 -0.2389
  740MOL0     C 2002   6.306   9.603   6.816 -0.1029  0.0992 -0.7404
  740MOL0     C 2003   6.426   9.536   6.738  0.2817 -0.1573 -0.8485
  740MOL0     C 2004   6.384   9.459   6.615  0.7637 -0.1536  0.6155
  740MOL0     C 2005   6.348   9.557   6.501 -0.1729 -0.4997 -0.0656
  740MOL0     O 2006   6.382   9.517   6.366  0.7774  0.5652 -0.6849
  740MOL0     C 2007   6.501   9.521   6.315  0.6924  0.1925  0.4064
  740MOL0     C 2008   6.609   9.589   6.362 -0.3221 -0.6448  0.6108
  740MOL0     C 2009   6.732   9.594   6.291 -0.0845  1.1106  0.3086
  740MOL0     C 2010   6.852   9.673   6.351  0.4152  0.0954 -0.4220
  740MOL0     C 2011   6.750   9.520   6.175  0.2712  1.4348 -0.2477
  740MOL0     C 2012   6.875   9.508   6.095  0.3312  0.3668  0.8908
  740MOL0     O 2013   6.870   9.426   5.992 -0.7068 -0.1565 -0.6760
  740MOL0     C 2014   6.990   9.390   5.930  0.3398  0.9144 -0.6610
  740MOL0     C 2015   7.060   9.469   5.833 -0.8844  0.1832  0.1651
  740MOL0     C 2016   7.184   9.430   5.786 -0.6295  0.2205  1.5167
  740MOL0     C 2017   7.238   9.307   5.814  0.2113 -0.7760  0.0029
  740MOL0     O 2018   7.362   9.251   5.786 -0.1454 -0.1999 -0.6613
  740MOL0     C 2019   7.440   9.325   5.691  0.0438  0.0430  0.3820
  740MOL0     C 2020   7.590   9.298   5.703  0.3407  0.5374  0.0047
  740MOL0     C 2021   7.619   9.154   5.664  1.1142 -0.0810  0.4353
  740MOL0     C 2022   7.764   9.119   5.662 -0.5053 -0.4785  0.1584
  740MOL0     C 2023   7.792   8.979   5.605 -0.4316  0.7347 -0.1797
  740MOL0     C 2024   7.941   8.934   5.619 -0.1181  0.0352 -0.5084
  740MOL0     C 2025   8.031   9.014   5.515  0.4554  0.6578 -0.0450
  740MOL0     C 2026   8.163   8.923   5.513  0.8917  0.0917  0.0507
  740MOL0    Cl 2027   8.132   8.760   5.444  0.5549  0.1125 -0.2784
  740MOL0     C 2028   7.167   9.229   5.908 -0.4040 -0.3542 -0.4916
  740MOL0     C 2029   7.048   9.265   5.965 -0.3874 -1.1966  0.6166
  740MOL0     O 2030   6.980   9.556   6.135 -0.4398 -0.4566 -0.0806
  740MOL0     C 2031   6.639   9.442   6.131 -1.0067  0.5812  0.5651
  740MOL0     C 2032   6.517   9.447   6.197 -0.6270  0.9821  0.6953
  740MOL0     N 2033   6.170   9.394   6.889 -0.3450  0.1397 -0.2803
  740MOL0     N 2034   6.044   9.369   6.901  0.0464 -0.7412 -0.0492
  740MOL0     C 2035   4.906   9.157   6.485  0.1758 -0.0793 -0.5186
  740MOL0     C 2036   4.765   9.176   6.522 -0.7453 -0.4023 -0.3071
  740MOL0     C 2037   4.346   9.082   6.623  0.1612  0.3614 -0.3972
  740MOL0     C 2038   4.249   8.985   6.664  0.1396 -1.1893  0.6302
  740MOL0     C 2039   4.110   9.015   6.679 -0.1483 -0.5687  0.1980
  740MOL0     C 2040   4.070   9.144   6.648  0.6684 -0.4426  1.8951
  740MOL0     O 2041   3.937   9.187   6.656  0.4817 -0.4552 -0.0163
  740MOL0     C 2042   3.835   9.103   6.684  0.6554 -0.2892  0.2976
  740MOL0     C 2043   3.710   9.199   6.695 -0.4269  0.0796  0.6868
  740MOL0     C 2044   3.668   9.262   6.559  0.3014  0.6484 -0.3943
  740MOL0     C 2045   3.522   9.312   6.555 -0.2095  0.1821  0.6797
  740MOL0     C 2046   3.508   9.423   6.649  0.3767 -0.5385  0.3496
  740MOL0     C 2047   3.488   9.514   6.725  0.6005  0.7907  0.3395
  740MOL0     C 2048   4.165   9.246   6.614 -0.0646 -0.0141  0.0532
  740MOL0     C 2049   4.304   9.225   6.616 -0.2381  0.1893  0.0384
  740MOL0     C 2050   4.386   9.341   6.567 -0.4133 -0.2470  0.3890
  740MOL0     H 2051   4.728   8.940   6.760 -1.0389  4.0611  1.5166
  740MOL0     H 2052   4.955   8.887   6.677  1.8403 -0.1532 -1.6108
  740MOL0     H 2053   5.191   9.190   6.418  2.0928 -0.3321 -0.7536
  740MOL0     H 2054   5.288   9.066   6.467 -2.8189 -3.9653 -1.9807
  740MOL0     H 2055   5.129   9.251   6.663  0.3114  2.6478  0.5742
  740MOL0     H 2056   5.212   9.114   6.714 -1.4456 -0.2866 -0.4649
  740MOL0     H 2057   5.407   9.234   6.540 -0.2914  1.3505 -2.4806
  740MOL0     H 2058   5.315   9.384   6.588 -1.6569 -1.0771  1.2938
  740MOL0     H 2059   5.336   9.341   6.813 -0.6029  0.4241 -2.0612
  740MOL0     H 2060   5.407   9.189   6.792 -1.1976  0.6616  0.0847
  740MOL0     H 2061   5.555   9.434   6.708 -2.0311 -0.3569  1.1322
  740MOL0     H 2062   5.620   9.272   6.701  0.7304  0.4944 -0.6519
  740MOL0     H 2063   5.560   9.428   6.958  5.0390  2.1076  0.7760
  740MOL0     H 2064   5.585   9.249   6.955  3.2364  0.3169  1.5215
  740MOL0     H 2065   5.796   9.263   6.855  0.7078  0.1503  0.0101
  740MOL0     H 2066   5.792   9.355   7.007  1.6996  1.7289 -1.7735
  740MOL0     H 2067   5.802   9.465   6.729  0.5603  2.5860 -0.9340
  740MOL0     H 2068   5.786   9.572   6.879 -0.5911  0.4101 -1.9225
  740MOL0     H 2069   6.019   9.668   6.788  1.4524 -0.0505 -1.3660
  740MOL0     H 2070   6.349   9.622   6.915  4.0661 -0.1516 -2.2991
  740MOL0     H 2071   6.282   9.685   6.747 -1.2421  2.9299  2.7295
  740MOL0     H 2072   6.509   9.599   6.708 -0.0445  0.2709 -0.8568
  740MOL0     H 2073   6.464   9.469   6.816  2.0642  0.2473 -1.3436
  740MOL0     H 2074   6.464   9.392   6.585  0.2237 -1.3642  1.7656
  740MOL0     H 2075   6.304   9.386   6.629  2.4103 -2.0014  0.8516
  740MOL0     H 2076   6.239   9.571   6.493  0.1635  3.7055  0.4523
  740MOL0     H 2077   6.385   9.659   6.517 -0.6063 -0.3630  0.1031
  740MOL0     H 2078   6.612   9.643   6.456  3.4023  1.3807 -0.4582
  740MOL0     H 2079   6.832   9.719   6.449  2.9995 -0.8407  0.6237
  740MOL0     H 2080   6.886   9.752   6.284  0.0154 -1.7106 -2.8635
  740MOL0     H 2081   6.937   9.608   6.370  1.9851  1.9628 -0.7078
  740MOL0     H 2082   7.003   9.548   5.784  1.6369  1.0813 -1.5364
  740MOL0     H 2083   7.235   9.500   5.720 -0.6841 -0.0691  1.1615
  740MOL0     H 2084   7.400   9.305   5.591  0.5203  0.7474  0.0484
  740MOL0     H 2085   7.435   9.432   5.710 -0.3788  0.5733 -2.3387
  740MOL0     H 2086   7.643   9.367   5.637 -2.9750  2.2665 -1.0315
  740MOL0     H 2087   7.626   9.322   5.804 -2.3347  2.2481  0.6460
  740MOL0     H 2088   7.577   9.143   5.563  1.6692  5.0490 -0.6439
  740MOL0     H 2089   7.561   9.079   5.717 -0.6040  0.2612 -0.8369
  740MOL0     H 2090   7.810   9.142   5.759  1.6057 -0.9273 -0.6851
  740MOL0     H 2091   7.814   9.174   5.582  0.9701 -2.6882 -0.5283
  740MOL0     H 2092   7.727   8.916   5.668  0.6101 -0.0462  0.1359
  740MOL0     H 2093   7.771   8.963   5.499 -3.5332 -0.2145  0.4620
  740MOL0     H 2094   7.934   8.825   5.614  1.5039 -0.0316 -2.7498
  740MOL0     H 2095   7.984   8.965   5.715 -0.7738  0.7083 -0.4250
  740MOL0     H 2096   8.065   9.113   5.546  2.1601 -0.2575  1.1539
  740MOL0     H 2097   7.978   9.016   5.419  0.4345 -2.3833 -0.2055
  740MOL0     H 2098   8.205   8.921   5.614 -2.0504 -0.7920  1.3611
  740MOL0     H 2099   8.243   8.977   5.461  4.2102 -0.8744  3.6659
  740MOL0     H 2100   7.199   9.129   5.936  0.2150 -0.0244 -0.0127
  740MOL0     H 2101   6.990   9.194   6.022 -0.2497 -1.0460  0.9463
  740MOL0     H 2102   6.662   9.372   6.051  3.0201  1.2969  0.8690
  740MOL0     H 2103   6.438   9.388   6.153  0.8523  0.5114 -1.4572
  740MOL0     H 2104   4.952   9.221   6.410  0.3823  0.4173  0.0207
  740MOL0     H 2105   4.695   9.238   6.468 -0.2752 -2.0073 -2.9817
  740MOL0     H 2106   4.280   8.884   6.689  1.0436 -1.0849 -0.0006
  740MOL0     H 2107   4.039   8.937   6.704 -0.9927  0.1471  0.1073
  740MOL0     H 2108   3.818   9.024   6.610 -2.1748 -0.1531  0.6915
  740MOL0     H 2109   3.845   9.058   6.783  1.8157  1.0219  0.8149
  740MOL0     H 2110   3.738   9.285   6.756  1.5059  2.1608 -2.8276
  740MOL0     H 2111   3.633   9.137   6.743 -0.1922 -1.4730 -0.8254
  740MOL0     H 2112   3.738   9.344   6.537  1.3169 -0.6608 -2.3574
  740MOL0     H 2113   3.672   9.185   6.481 -0.2568  0.5024 -0.2823
  740MOL0     H 2114   3.459   9.225   6.575  1.5661 -0.9901  1.3400
  740MOL0     H 2115   3.498   9.346   6.453 -2.4284 -1.5398  0.5474
  740MOL0     H 2116   3.471   9.600   6.786 -0.0570  1.2367 -0.4607
  740MOL0     H 2117   4.121   9.344   6.598  1.1632  0.7580  1.1425
  740MOL0     H 2118   4.426   9.386   6.658 -1.6644 -0.0300  0.8477
  740MOL0     H 2119   4.466   9.319   6.496 -0.8102 -1.4523  0.2865
  740MOL0     H 2120   4.329   9.412   6.508 -2.8773 -1.7032  0.8818
  741MOL0     O 2121   3.009   8.306   7.850 -0.2175 -0.7632 -0.9217
  741MOL0     C 2122   2.967   8.381   7.939 -0.0869 -0.4317 -0.4029
  741MOL0     O 2123   2.878   8.343   8.040  0.0992  0.5865 -0.4865
  741MOL0     C 2124   2.840   8.220   8.050 -0.6919  0.7150  0.5815
  741MOL0     C 2125   2.713   8.184   8.008 -0.9742 -0.7535  0.8079
  741MOL0     C 2126   2.664   8.055   8.034 -0.1319  0.2561  1.1965
  741MOL0     C 2127   2.740   7.956   8.096 -1.0351  0.2281  1.1753
  741MOL0     O 2128   2.680   7.830   8.096 -0.2028 -0.8297 -0.4922
  741MOL0     C 2129   2.767   7.721   8.095  0.1503  0.1583 -0.7438
  741MOL0     C 2130   2.694   7.584   8.074 -0.2746 -1.2994  0.4720
  741MOL0     C 2131   2.751   7.464   8.151 -0.7478 -0.7102  0.3675
  741MOL0     C 2132   2.896   7.422   8.114  0.5000 -0.2983 -1.0644
  741MOL0     C 2133   2.905   7.354   7.975 -0.1809 -0.2812 -0.7281
  741MOL0     C 2134   3.027   7.275   7.946 -0.9161 -0.9187 -0.4467
  741MOL0     C 2135   3.162   7.355   7.956 -0.2778  0.3759 -0.3705
  741MOL0     C 2136   3.164   7.452   7.846  0.2409 -1.1463  0.6148
  741MOL0     N 2137   3.105   7.583   7.869  0.5072  0.5768  0.4493
  741MOL0     C 2138   3.014   7.644   7.784 -0.0209 -0.3635  0.5792
  741MOL0     C 2139   3.017   7.767   7.829  0.1370  0.4652  0.8143
  741MOL0     C 2140   2.965   7.891   7.754  0.2984 -0.1104 -0.9412
  741MOL0     C 2141   2.808   7.884   7.742 -0.2634  0.7608  0.7279
  741MOL0     C 2142   2.760   8.023   7.689 -0.0202 -0.2905 -0.1663
  741MOL0     C 2143   2.607   8.034   7.681 -0.1823 -0.0439  0.2252
  741MOL0     O 2144   2.537   7.909   7.705 -0.1625  0.0731 -0.7531
  741MOL0     C 2145   2.427   7.908   7.778  0.3891  1.0356 -0.0259
  741MOL0     C 2146   2.394   7.786   7.835  0.0634 -0.1030  0.3473
  741MOL0     C 2147   2.272   7.765   7.895  0.4637 -0.9465  1.0961
  741MOL0     C 2148   2.249   7.619   7.937  0.5892 -0.0493 -0.3236
  741MOL0     C 2149   2.187   7.878   7.915  0.6245 -0.2204  0.0447
  741MOL0     C 2150   2.056   7.856   7.984  0.3939 -0.2727 -0.3776
  741MOL0     O 2151   1.962   7.960   7.965 -0.8441 -0.2195 -0.0360
  741MOL0     C 2152   1.834   7.946   8.019  0.1575  0.3349  0.4318
  741MOL0     C 2153   1.811   7.981   8.155 -0.3096 -0.1820  0.6665
  741MOL0     C 2154   1.679   7.982   8.209  0.2776 -0.2364 -0.2752
  741MOL0     C 2155   1.569   7.920   8.135  0.7165 -0.2477  0.0736
  741MOL0     O 2156   1.442   7.907   8.178  0.2665  0.2572 -0.2405
  741MOL0     C 2157   1.416   7.911   8.317 -0.6541 -0.7707 -1.1921
  741MOL0     C 2158   1.272   7.900   8.348  0.5561 -0.0508  0.3108
  741MOL0     C 2159   1.230   7.758   8.329  0.2336 -0.6285  0.6022
  741MOL0     C 2160   1.078   7.748   8.344  0.0590 -0.6356 -0.4482
  741MOL0     C 2161   1.043   7.601   8.336  0.2815  0.2066 -0.0835
  741MOL0     C 2162   0.893   7.571   8.310 -0.4522  0.2438  0.2521
  741MOL0     C 2163   0.858   7.430   8.279 -0.3949 -0.0589  0.7922
  741MOL0     C 2164   0.956   7.342   8.200 -0.2512 -0.2336 -0.6202
  741MOL0    Cl 2165   0.876   7.176   8.177 -0.2481 -0.0541  0.1948
  741MOL0     C 2166   1.602   7.873   8.005  0.5515 -0.3398 -0.2463
  741MOL0     C 2167   1.725   7.889   7.956 -0.0453  0.3695 -0.3315
  741MOL0     O 2168   2.030   7.758   8.055  1.0065 -0.0838  0.8728
  741MOL0     C 2169   2.226   8.003   7.868 -0.3548  0.5636 -0.3508
  741MOL0     C 2170   2.344   8.015   7.795  0.3466 -0.0460 -0.2230
  741MOL0     N 2171   3.094   7.783   7.936 -0.0263  0.2614  0.2055
  741MOL0     N 2172   3.150   7.675   7.957  0.3267 -0.0554  0.9820
  741MOL0     C 2173   2.871   7.988   8.130 -0.3149  0.2443  0.3776
  741MOL0     C 2174   2.914   8.118   8.116  1.5072  0.3121  0.7155
  741MOL0     C 2175   3.024   8.520   7.952 -0.9197 -0.4818 -0.4256
  741MOL0     C 2176   2.954   8.611   8.036 -0.1723 -1.0606  0.0971
  741MOL0     C 2177   3.007   8.735   8.064 -0.4151  0.7488  1.0331
  741MOL0     C 2178   3.128   8.770   8.024  0.5359 -0.0042 -0.1589
  741MOL0     O 2179   3.168   8.904   8.054  0.0603  0.5329 -0.4806
  741MOL0     C 2180   3.303   8.945   8.012  0.8758  0.5693  0.0171
  741MOL0     C 2181   3.351   9.057   8.100  0.1549  0.4738  0.6371
  741MOL0     C 2182   3.502   9.102   8.074  0.3001 -0.2432 -0.1123
  741MOL0     C 2183   3.558   9.193   8.182 -0.2638  0.1691 -0.2290
  741MOL0     C 2184   3.524   9.330   8.145  0.3156 -0.4882 -0.4194
  741MOL0     C 2185   3.489   9.450   8.133  0.0977  0.0873 -0.9276
  741MOL0     C 2186   3.211   8.684   7.946 -0.4571  0.3734 -0.7319
  741MOL0     C 2187   3.154   8.561   7.899  0.2981 -1.0889  0.9494
  741MOL0     C 2188   3.233   8.484   7.790  0.3419 -0.7385  0.8021
  741MOL0     H 2189   2.669   8.269   7.956  4.0586  1.9103  0.2425
  741MOL0     H 2190   2.567   8.023   7.997 -1.4666  1.9410  3.0466
  741MOL0     H 2191   2.822   7.712   8.189  1.5328 -1.2610 -1.6447
  741MOL0     H 2192   2.840   7.734   8.015  0.9045  0.1441 -0.0624
  741MOL0     H 2193   2.593   7.589   8.116 -0.4581  0.1730 -0.0828
  741MOL0     H 2194   2.689   7.567   7.966 -1.5819 -0.0256  0.2989
  741MOL0     H 2195   2.752   7.487   8.258 -0.8178  1.3052 -0.0207
  741MOL0     H 2196   2.680   7.382   8.136 -0.9611 -1.0002  2.6675
  741MOL0     H 2197   2.966   7.506   8.114  0.0960  0.1114  1.5665
  741MOL0     H 2198   2.931   7.357   8.195  0.2552  2.5956  1.5243
  741MOL0     H 2199   2.898   7.439   7.906 -0.0555  0.3636  0.0255
  741MOL0     H 2200   2.815   7.294   7.960 -1.0876  1.1713 -1.3254
  741MOL0     H 2201   3.035   7.180   8.000 -0.7801 -0.6075  0.0941
  741MOL0     H 2202   3.017   7.237   7.844 -3.2234 -1.8257  0.0635
  741MOL0     H 2203   3.242   7.281   7.951 -1.1146 -0.6538  0.8902
  741MOL0     H 2204   3.173   7.408   8.051 -0.5026 -2.9389  1.6572
  741MOL0     H 2205   3.271   7.475   7.835  0.0425  0.0439  1.0225
  741MOL0     H 2206   3.122   7.411   7.754  1.0075 -1.5230  0.4223
  741MOL0     H 2207   2.977   7.605   7.690  1.5041 -2.4501  0.7688
  741MOL0     H 2208   3.004   7.902   7.653 -1.6831  2.0535 -1.5455
  741MOL0     H 2209   2.994   7.983   7.806  0.6667 -0.7169 -0.0403
  741MOL0     H 2210   2.781   7.803   7.674  1.4123  0.9983 -0.2700
  741MOL0     H 2211   2.755   7.856   7.833 -1.8594  3.1115  0.5969
  741MOL0     H 2212   2.787   8.098   7.764 -1.4848 -0.4875  0.5985
  741MOL0     H 2213   2.802   8.064   7.596 -1.0666 -0.7652 -0.8687
  741MOL0     H 2214   2.582   8.102   7.763  0.8716 -0.8657  1.2523
  741MOL0     H 2215   2.584   8.068   7.579  1.9419 -2.0112 -1.0034
  741MOL0     H 2216   2.472   7.713   7.817  2.0573  2.0512 -0.3738
  741MOL0     H 2217   2.321   7.593   8.015  0.5391 -1.7037 -0.7919
  741MOL0     H 2218   2.268   7.556   7.850  1.1800 -1.5144  0.8236
  741MOL0     H 2219   2.147   7.593   7.969  0.7933 -0.3953  0.0566
  741MOL0     H 2220   1.880   8.019   8.230 -2.4531  1.6710  1.8086
  741MOL0     H 2221   1.661   8.036   8.302 -0.8488 -1.6662  0.3860
  741MOL0     H 2222   1.469   7.825   8.359 -1.9655 -0.6936  0.7930
  741MOL0     H 2223   1.448   8.006   8.361 -3.2254  1.0639 -3.0081
  741MOL0     H 2224   1.258   7.921   8.455 -0.1619 -0.0053  0.2078
  741MOL0     H 2225   1.217   7.965   8.280  0.4824  0.7787  1.1378
  741MOL0     H 2226   1.280   7.691   8.400  0.2465 -2.2691 -0.8936
  741MOL0     H 2227   1.253   7.728   8.227 -1.6666 -2.1876  0.5611
  741MOL0     H 2228   1.013   7.796   8.269 -2.3467 -1.7050  0.8429
  741MOL0     H 2229   1.042   7.788   8.439  0.1401 -1.8844  0.1155
  741MOL0     H 2230   1.093   7.560   8.247  0.6745 -0.8846  0.6148
  741MOL0     H 2231   1.081   7.554   8.427  0.1976  0.5581  0.1313
  741MOL0     H 2232   0.860   7.625   8.220 -1.6765  0.1895  0.6483
  741MOL0     H 2233   0.826   7.605   8.390  0.0604  0.8975  0.4118
  741MOL0     H 2234   0.767   7.429   8.218  1.7944 -0.2125 -2.7884
  741MOL0     H 2235   0.852   7.364   8.366  1.1845  0.8136  1.6093
  741MOL0     H 2236   1.057   7.334   8.241  0.3021  0.3672 -1.8115
  741MOL0     H 2237   0.988   7.381   8.103  0.7134 -0.0516 -0.2439
  741MOL0     H 2238   1.531   7.815   7.946  0.8291  0.1288 -1.0516
  741MOL0     H 2239   1.744   7.850   7.856  0.7280 -0.1988  0.0251
  741MOL0     H 2240   2.182   8.101   7.876  2.0168  1.7122 -0.5132
  741MOL0     H 2241   2.361   8.111   7.747 -1.7168  0.6196  0.2691
  741MOL0     H 2242   2.936   7.916   8.179 -2.6395 -1.3404  1.3381
  741MOL0     H 2243   3.002   8.158   8.166  1.4015  2.4125 -0.6382
  741MOL0     H 2244   2.849   8.595   8.061 -0.2189 -1.0931 -0.1199
  741MOL0     H 2245   2.947   8.809   8.116  2.1381  1.3404  3.3992
  741MOL0     H 2246   3.377   8.867   8.033  0.8184  0.8668  1.3678
  741MOL0     H 2247   3.309   8.970   7.905 -2.5209  0.6149 -0.2808
  741MOL0     H 2248   3.326   9.031   8.203 -1.6399  0.0769  0.1347
  741MOL0     H 2249   3.295   9.143   8.062  0.8102  1.2651  1.4183
  741MOL0     H 2250   3.564   9.012   8.076  0.2806 -0.2556 -0.0752
  741MOL0     H 2251   3.518   9.142   7.973 -1.5954  0.4758 -0.1851
  741MOL0     H 2252   3.667   9.186   8.177 -0.3351 -0.2115 -1.9245
  741MOL0     H 2253   3.513   9.173   8.280 -0.2303  2.0056  0.1872
  741MOL0     H 2254   3.460   9.552   8.141 -1.8224 -0.2918 -2.3912
  741MOL0     H 2255   3.306   8.711   7.899 -1.8207  3.5581 -1.9488
  741MOL0     H 2256   3.226   8.378   7.814  3.0404 -0.7435  1.9680
  741MOL0     H 2257   3.202   8.493   7.686  1.0521 -0.2678  0.6196
  741MOL0     H 2258   3.338   8.516   7.790  1.5910 -4.1400 -1.9515
  742MOL0     O 2259   3.749  11.263   7.303 -0.2604 -0.2710  0.2997
  742MOL0     C 2260   3.735  11.278   7.180  0.7599  0.6370  0.7072
  742MOL0     O 2261   3.744  11.398   7.113 -0.2406 -0.1986 -0.3542
  742MOL0     C 2262   3.769  11.511   7.184 -0.1621 -0.5016 -1.1851
  742MOL0     C 2263   3.684  11.618   7.163  0.3693 -0.0019  0.0462
  742MOL0     C 2264   3.696  11.730   7.245 -0.5116 -0.2050  0.3316
  742MOL0     C 2265   3.792  11.742   7.336  0.5231  0.2422 -1.0008
  742MOL0     O 2266   3.825  11.852   7.417  0.7850 -0.1197 -0.5866
  742MOL0     C 2267   3.729  11.958   7.453  0.2250 -0.4464  0.0726
  742MOL0     C 2268   3.823  12.073   7.490 -0.7535 -0.6584 -0.2770
  742MOL0     C 2269   3.752  12.187   7.564  0.3892  0.1165 -0.0327
  742MOL0     C 2270   3.861  12.288   7.598 -0.2591 -0.4450 -0.2525
  742MOL0     C 2271   3.798  12.402   7.677  0.3696  0.5885  0.0045
  742MOL0     C 2272   3.744  12.512   7.582  0.1786  0.4017 -0.7209
  742MOL0     C 2273   3.705  12.634   7.674 -0.0609 -0.3548  0.8765
  742MOL0     C 2274   3.594  12.620   7.781  0.8666  0.1989  0.5815
  742MOL0     N 2275   3.647  12.568   7.907 -0.0344  0.0345 -0.5060
  742MOL0     C 2276   3.738  12.629   7.978 -0.6084  0.7225  0.3102
  742MOL0     C 2277   3.752  12.554   8.093  0.0768  0.1597  0.2022
  742MOL0     C 2278   3.808  12.596   8.223  0.5782 -0.2558  0.1172
  742MOL0     C 2279   3.951  12.636   8.217  0.5279 -0.8387  0.5251
  742MOL0     C 2280   3.998  12.691   8.356 -0.4543  0.1067 -0.7496
  742MOL0     C 2281   4.156  12.709   8.350 -0.7694 -0.3270 -0.7258
  742MOL0     O 2282   4.192  12.804   8.250  0.5695  0.0483 -0.3404
  742MOL0     C 2283   4.316  12.785   8.196  0.2863 -0.2670  0.6258
  742MOL0     C 2284   4.330  12.837   8.067 -0.0950  0.3591  0.3211
  742MOL0     C 2285   4.447  12.831   7.994 -0.0720  0.4241  0.3676
  742MOL0     C 2286   4.450  12.897   7.854  0.1357  0.3410  0.1585
  742MOL0     C 2287   4.560  12.763   8.048  0.7377 -0.6851  0.4109
  742MOL0     C 2288   4.696  12.761   7.991 -0.0386  0.0017  0.6277
  742MOL0     O 2289   4.798  12.733   8.083  0.2399  0.2178 -0.1678
  742MOL0     C 2290   4.931  12.728   8.029  0.3662 -1.1582 -0.0965
  742MOL0     C 2291   5.022  12.819   8.071  0.1843 -0.8156  0.6826
  742MOL0     C 2292   5.160  12.817   8.015  0.5919 -0.3832  0.4105
  742MOL0     C 2293   5.200  12.721   7.922 -0.2979 -0.4573  0.3171
  742MOL0     O 2294   5.323  12.705   7.881 -0.6343  0.1819  0.0155
  742MOL0     C 2295   5.415  12.812   7.885 -0.4317  0.2892  0.5319
  742MOL0     C 2296   5.541  12.757   7.821 -0.5829  0.1503  0.5706
  742MOL0     C 2297   5.505  12.728   7.670 -0.3620 -0.2743  0.8847
  742MOL0     C 2298   5.573  12.590   7.621  0.0037 -0.3535 -0.4001
  742MOL0     C 2299   5.547  12.546   7.478  0.6210 -0.5640  0.4929
  742MOL0     C 2300   5.406  12.488   7.461 -1.0139 -0.1126  0.2829
  742MOL0     C 2301   5.399  12.333   7.461 -0.3691  0.2356 -0.2818
  742MOL0     C 2302   5.267  12.270   7.405 -0.3829 -0.0633 -0.0360
  742MOL0    Cl 2303   5.280  12.091   7.445 -0.2043 -0.4806 -0.1167
  742MOL0     C 2304   5.108  12.624   7.888  0.8384 -0.4670  0.2199
  742MOL0     C 2305   4.976  12.627   7.938 -0.3911  0.6092 -0.2573
  742MOL0     O 2306   4.717  12.784   7.869  0.2562  0.5435 -0.3977
  742MOL0     C 2307   4.535  12.701   8.178 -1.1198 -0.0579  1.1248
  742MOL0     C 2308   4.426  12.719   8.255  0.5083 -0.2360  0.4377
  742MOL0     N 2309   3.649  12.455   8.089 -1.1150 -0.0334  0.3824
  742MOL0     N 2310   3.590  12.461   7.975 -0.5736 -0.4343 -0.1867
  742MOL0     C 2311   3.877  11.630   7.361 -0.7130  0.5014  0.0330
  742MOL0     C 2312   3.876  11.521   7.281  1.6427 -0.1674  0.5437
  742MOL0     C 2313   3.672  11.163   7.106 -0.4536  0.5574 -0.0613
  742MOL0     C 2314   3.580  11.188   7.009 -0.0504 -0.4920  0.7199
  742MOL0     C 2315   3.504  11.092   6.948  0.2543 -0.2600  0.4945
  742MOL0     C 2316   3.513  10.958   6.988 -0.5305 -0.9104  0.0273
  742MOL0     O 2317   3.435  10.857   6.945 -0.7944  0.4518 -0.0731
  742MOL0     C 2318   3.332  10.874   6.841 -0.5055 -0.0407 -0.0172
  742MOL0     C 2319   3.237  10.755   6.826  0.3868 -0.1623 -0.3022
  742MOL0     C 2320   3.139  10.722   6.939  0.0012 -0.1318  0.5445
  742MOL0     C 2321   3.050  10.602   6.905  0.3804  0.1337 -0.6568
  742MOL0     C 2322   3.099  10.467   6.935  0.3252  0.4949  1.0941
  742MOL0     C 2323   3.133  10.353   6.954  0.7097 -0.6573 -1.6345
  742MOL0     C 2324   3.611  10.932   7.084 -1.2699  0.3047 -0.7320
  742MOL0     C 2325   3.690  11.032   7.140 -0.6146  1.3864 -0.1541
  742MOL0     C 2326   3.804  10.992   7.226 -0.5479 -0.1938 -0.2251
  742MOL0     H 2327   3.600  11.621   7.093  0.9000 -0.1936 -0.6085
  742MOL0     H 2328   3.616  11.800   7.225 -0.0052  0.0653 -0.8355
  742MOL0     H 2329   3.659  11.934   7.534 -1.1162  2.4783 -0.1117
  742MOL0     H 2330   3.678  12.001   7.367  2.1009  1.8551  0.0073
  742MOL0     H 2331   3.905  12.034   7.551  0.8314  2.9106  0.0761
  742MOL0     H 2332   3.871  12.116   7.402  1.0335  2.2665  1.9316
  742MOL0     H 2333   3.675  12.235   7.503  1.3537 -1.7103 -2.9234
  742MOL0     H 2334   3.704  12.144   7.652  0.2508 -1.3715 -0.8017
  742MOL0     H 2335   3.942  12.250   7.661  1.1143  3.3663  0.6081
  742MOL0     H 2336   3.893  12.329   7.502 -0.5451 -2.2086 -1.1466
  742MOL0     H 2337   3.870  12.442   7.749 -2.1452 -0.6958  3.4893
  742MOL0     H 2338   3.722  12.356   7.740  3.3476  0.1662  3.6521
  742MOL0     H 2339   3.822  12.539   7.511  1.5336 -1.0676  0.1449
  742MOL0     H 2340   3.660  12.484   7.517 -0.7638  0.5107  0.4042
  742MOL0     H 2341   3.676  12.721   7.614  0.3102 -0.0603  1.1206
  742MOL0     H 2342   3.800  12.659   7.723 -0.9372 -1.0433  2.9911
  742MOL0     H 2343   3.561  12.721   7.809  0.0939  0.9080 -2.5223
  742MOL0     H 2344   3.503  12.570   7.746 -1.4222  3.1890  1.7467
  742MOL0     H 2345   3.790  12.719   7.948 -0.7116  1.6788  2.7468
  742MOL0     H 2346   3.800  12.505   8.283 -5.6896 -1.7969 -2.2962
  742MOL0     H 2347   3.737  12.669   8.264  1.9644  1.1232  0.1366
  742MOL0     H 2348   4.021  12.557   8.187 -0.3754 -2.7440  3.0417
  742MOL0     H 2349   3.957  12.721   8.148 -2.0887  0.3738  1.6961
  742MOL0     H 2350   3.962  12.793   8.366 -0.2157 -0.0080  1.9616
  742MOL0     H 2351   3.979  12.625   8.441  1.7293  0.2679 -0.0712
  742MOL0     H 2352   4.192  12.742   8.447 -0.9832  0.6557 -0.9725
  742MOL0     H 2353   4.199  12.609   8.342 -2.5203 -1.3213  1.2232
  742MOL0     H 2354   4.238  12.874   8.024 -1.3840  0.7651  3.2052
  742MOL0     H 2355   4.482  12.821   7.781  2.1539  0.2076  1.1291
  742MOL0     H 2356   4.528  12.972   7.841  1.5016 -1.4382 -3.5303
  742MOL0     H 2357   4.351  12.939   7.835 -0.1919 -1.4049 -2.5997
  742MOL0     H 2358   4.993  12.893   8.145  0.2029 -1.6889  1.5917
  742MOL0     H 2359   5.234  12.886   8.054 -2.1445  3.2443 -0.2392
  742MOL0     H 2360   5.384  12.901   7.830 -2.8467 -0.9227 -0.1700
  742MOL0     H 2361   5.443  12.833   7.989  2.8367  1.7499 -0.5186
  742MOL0     H 2362   5.632  12.817   7.824 -0.5615  0.0616  2.4854
  742MOL0     H 2363   5.566  12.665   7.875  3.6495 -0.2563 -1.6708
  742MOL0     H 2364   5.543  12.805   7.603  0.9322 -1.3981  0.2845
  742MOL0     H 2365   5.398  12.711   7.651 -1.0090  3.9851 -0.1914
  742MOL0     H 2366   5.550  12.520   7.702 -0.8578 -0.7881 -1.0094
  742MOL0     H 2367   5.681  12.608   7.623  0.1446 -1.2096  1.3297
  742MOL0     H 2368   5.565  12.626   7.405  0.6275 -0.7445  0.2957
  742MOL0     H 2369   5.615  12.464   7.455 -0.4434 -0.8454 -1.9617
  742MOL0     H 2370   5.391  12.521   7.358 -1.4038  0.6870  0.5864
  742MOL0     H 2371   5.338  12.541   7.529 -2.3678 -2.2087  0.6548
  742MOL0     H 2372   5.400  12.314   7.569 -2.7125 -0.2834 -0.2873
  742MOL0     H 2373   5.489  12.287   7.420  2.3773  1.5693  3.6381
  742MOL0     H 2374   5.263  12.280   7.296  0.3645 -1.8192 -0.2702
  742MOL0     H 2375   5.183  12.317   7.455  0.4276  0.5385  0.7960
  742MOL0     H 2376   5.133  12.546   7.816 -0.0160 -0.2344 -0.3347
  742MOL0     H 2377   4.913  12.551   7.894  0.5256 -0.4809  0.2408
  742MOL0     H 2378   4.620  12.651   8.222 -0.2045 -1.2889 -1.8335
  742MOL0     H 2379   4.406  12.672   8.351 -1.3984  0.9024  0.6400
  742MOL0     H 2380   3.950  11.629   7.441  1.3878 -0.0975 -1.7952
  742MOL0     H 2381   3.944  11.437   7.290  0.3119 -1.4107 -0.4827
  742MOL0     H 2382   3.569  11.293   6.985  1.4541 -1.0633 -3.3068
  742MOL0     H 2383   3.429  11.124   6.876  0.3831 -0.6811  0.1651
  742MOL0     H 2384   3.272  10.962   6.867 -0.4877  0.4497 -1.5088
  742MOL0     H 2385   3.392  10.902   6.754  0.7528 -1.5969  0.2972
  742MOL0     H 2386   3.311  10.674   6.821 -0.1511 -0.6201 -1.2220
  742MOL0     H 2387   3.191  10.747   6.727  2.7512  0.8953 -1.5553
  742MOL0     H 2388   3.204  10.694   7.022  0.6619 -2.7323 -0.7344
  742MOL0     H 2389   3.076  10.810   6.956 -1.7918 -1.5700  1.5945
  742MOL0     H 2390   3.008  10.604   6.804  1.4064  3.5168 -1.1538
  742MOL0     H 2391   2.970  10.619   6.977  2.3771  1.1693  1.4597
  742MOL0     H 2392   3.181  10.257   6.952  4.9558  0.9468  2.6609
  742MOL0     H 2393   3.624  10.830   7.116  0.2605  0.9583  0.8907
  742MOL0     H 2394   3.785  11.003   7.333  0.1846 -2.5461  0.2178
  742MOL0     H 2395   3.821  10.885   7.210  3.4773  0.3952 -0.9204
  742MOL0     H 2396   3.895  11.045   7.198 -0.7213 -0.9380 -2.3849
  743MOL0     O 2397   1.096   5.439   5.604 -0.1807  0.6138  0.4627
  743MOL0     C 2398   1.032   5.366   5.680 -0.7639 -0.0358 -0.5258
  743MOL0     O 2399   0.928   5.287   5.645  0.3549  0.3530 -0.5182
  743MOL0     C 2400   0.893   5.289   5.511 -0.1364 -0.1772  0.2930
  743MOL0     C 2401   0.767   5.334   5.466 -0.5852  0.1542 -0.0109
  743MOL0     C 2402   0.729   5.320   5.333  0.1764 -0.3368  0.2022
  743MOL0     C 2403   0.816   5.265   5.237 -0.6176  0.4058 -1.0624
  743MOL0     O 2404   0.772   5.268   5.104  0.2060  1.7495 -0.4817
  743MOL0     C 2405   0.830   5.169   5.020  0.4631 -0.1922  0.7184
  743MOL0     C 2406   0.723   5.128   4.913  0.0292  0.5046  0.4534
  743MOL0     C 2407   0.776   5.001   4.851  0.5456 -0.6571  0.2893
  743MOL0     C 2408   0.683   4.963   4.735 -0.6683 -0.4176 -1.3668
  743MOL0     C 2409   0.761   4.842   4.668  0.4865 -0.3379  0.3934
  743MOL0     C 2410   0.753   4.720   4.753  0.1056  0.3980  0.1522
  743MOL0     C 2411   0.781   4.592   4.682 -0.1271 -0.4634  0.4500
  743MOL0     C 2412   0.926   4.578   4.647 -0.3964 -0.6599 -0.0854
  743MOL0     N 2413   0.968   4.449   4.599 -0.6562 -0.4378 -0.4659
  743MOL0     C 2414   1.089   4.428   4.540 -0.3230 -0.1846 -1.3768
  743MOL0     C 2415   1.094   4.295   4.518 -0.2201 -0.3250 -0.0851
  743MOL0     C 2416   1.202   4.216   4.448 -0.0601  0.1978 -0.6005
  743MOL0     C 2417   1.262   4.114   4.545 -0.6854  0.4044 -0.4753
  743MOL0     C 2418   1.319   4.176   4.676 -0.1854 -0.1429 -0.1436
  743MOL0     C 2419   1.372   4.071   4.769 -0.4370  0.0146  0.1853
  743MOL0     O 2420   1.477   3.990   4.714  0.1589  0.7205  0.1762
  743MOL0     C 2421   1.612   4.021   4.730  0.8109  0.0325 -0.1806
  743MOL0     C 2422   1.677   4.057   4.847 -0.0978  0.0847  0.1451
  743MOL0     C 2423   1.808   4.094   4.850  0.3747  0.2046 -0.1066
  743MOL0     C 2424   1.871   4.117   4.993  0.8282  0.3065  0.1142
  743MOL0     C 2425   1.884   4.096   4.728  0.1751 -0.1085 -1.2072
  743MOL0     C 2426   2.025   4.134   4.727  0.9662 -0.2982 -0.0060
  743MOL0     O 2427   2.065   4.240   4.803 -0.2254 -0.6442 -0.2839
  743MOL0     C 2428   2.199   4.248   4.837  0.1882 -0.2379  0.2903
  743MOL0     C 2429   2.236   4.225   4.967  0.3000  0.1517  0.4640
  743MOL0     C 2430   2.365   4.241   5.006 -0.6414  0.2357 -0.1497
  743MOL0     C 2431   2.468   4.277   4.918 -0.5558  0.1372 -0.6433
  743MOL0     O 2432   2.605   4.285   4.959 -0.3867 -0.7624  0.5866
  743MOL0     C 2433   2.694   4.356   4.869  0.9394 -0.4061  0.3289
  743MOL0     C 2434   2.824   4.379   4.932 -0.0419 -1.0643  0.3948
  743MOL0     C 2435   2.935   4.415   4.832  0.1301  0.0022 -0.7553
  743MOL0     C 2436   2.918   4.562   4.785  0.1828  0.4279 -0.0283
  743MOL0     C 2437   3.047   4.601   4.706  0.5507  0.4101 -0.0503
  743MOL0     C 2438   3.048   4.536   4.565  0.1449  0.7383 -0.5278
  743MOL0     C 2439   3.171   4.578   4.485  1.4684 -0.3699  0.2752
  743MOL0     C 2440   3.150   4.532   4.346  0.1158  0.4902  0.2509
  743MOL0    Cl 2441   3.293   4.560   4.245  0.4703 -0.1832  0.4346
  743MOL0     C 2442   2.428   4.303   4.785  0.4053  0.0377 -0.1251
  743MOL0     C 2443   2.294   4.295   4.746 -0.5850 -0.5078 -1.0990
  743MOL0     O 2444   2.097   4.050   4.666 -0.5651 -0.2808  0.7039
  743MOL0     C 2445   1.813   4.068   4.606  1.5195 -0.1271  0.9913
  743MOL0     C 2446   1.685   4.018   4.609  0.1635  0.2243 -0.6704
  743MOL0     N 2447   0.968   4.250   4.553 -0.2541 -0.0594  0.1773
  743MOL0     N 2448   0.890   4.340   4.598 -0.3848  0.6677  0.0393
  743MOL0     C 2449   0.947   5.228   5.282  0.8874  0.1232 -0.2827
  743MOL0     C 2450   0.982   5.238   5.417 -0.1537  0.4039 -0.1175
  743MOL0     C 2451   1.074   5.363   5.823 -0.1831  0.2168  0.0817
  743MOL0     C 2452   0.994   5.299   5.916 -0.1116  0.4335 -0.2296
  743MOL0     C 2453   1.045   5.263   6.043 -0.2493 -0.1883  0.5830
  743MOL0     C 2454   1.166   5.316   6.090  0.4472 -0.6170  0.7786
  743MOL0     O 2455   1.218   5.300   6.212 -0.1578  0.0181 -0.1462
  743MOL0     C 2456   1.138   5.238   6.316 -0.1363  0.5814 -0.4851
  743MOL0     C 2457   1.221   5.255   6.446  0.0043  0.0643  0.4844
  743MOL0     C 2458   1.357   5.176   6.452  0.5507 -0.0742  0.2286
  743MOL0     C 2459   1.424   5.168   6.580 -0.2882  0.5960  0.0876
  743MOL0     C 2460   1.546   5.092   6.567  0.2837 -0.3300  0.0824
  743MOL0     C 2461   1.656   5.044   6.559  0.4933  0.3955  0.4526
  743MOL0     C 2462   1.241   5.399   6.002  0.5224 -0.3281 -0.5690
  743MOL0     C 2463   1.197   5.426   5.868 -0.5720 -0.2597 -0.0667
  743MOL0     C 2464   1.296   5.507   5.795 -0.1191  0.3832  0.1368
  743MOL0     H 2465   0.690   5.372   5.532 -3.0583  0.9843 -3.1242
  743MOL0     H 2466   0.632   5.363   5.310  1.1281  1.5203 -0.5232
  743MOL0     H 2467   0.875   5.081   5.067  0.8316  0.8748  2.4396
  743MOL0     H 2468   0.904   5.221   4.958 -0.7761  1.6303  0.6911
  743MOL0     H 2469   0.634   5.099   4.970  1.9068 -2.8715  2.0247
  743MOL0     H 2470   0.710   5.215   4.849 -2.0532 -1.2036 -1.5921
  743MOL0     H 2471   0.877   5.014   4.811  0.8559 -2.1207  0.5632
  743MOL0     H 2472   0.776   4.927   4.932 -1.2139 -1.2790 -0.2286
  743MOL0     H 2473   0.589   4.920   4.770 -0.3926 -0.6809 -0.9515
  743MOL0     H 2474   0.673   5.039   4.656  1.7563 -0.7643 -2.0886
  743MOL0     H 2475   0.860   4.882   4.647 -0.1644  2.5779  2.2851
  743MOL0     H 2476   0.711   4.823   4.573  1.7187 -3.0456  0.1931
  743MOL0     H 2477   0.824   4.731   4.836  1.5910  2.1091 -1.2508
  743MOL0     H 2478   0.653   4.705   4.794  0.1368  2.5578  1.1719
  743MOL0     H 2479   0.718   4.584   4.593 -0.5845 -0.0146  0.7314
  743MOL0     H 2480   0.752   4.512   4.751 -2.0142  0.2078  0.4705
  743MOL0     H 2481   0.931   4.650   4.565 -2.0007  1.3202  1.4343
  743MOL0     H 2482   0.988   4.608   4.732 -1.0946  0.2395  0.1173
  743MOL0     H 2483   1.167   4.504   4.536 -1.0358  1.1503  3.6472
  743MOL0     H 2484   1.280   4.284   4.413  1.2129 -0.2531  1.2300
  743MOL0     H 2485   1.173   4.150   4.365  2.2328 -1.3477 -0.2553
  743MOL0     H 2486   1.200   4.026   4.564  1.7304 -1.0173  1.5681
  743MOL0     H 2487   1.349   4.061   4.507 -0.9033 -3.0580  3.1810
  743MOL0     H 2488   1.403   4.241   4.651 -0.0992 -0.4329 -0.6267
  743MOL0     H 2489   1.250   4.243   4.727 -0.3895 -0.3294 -0.1706
  743MOL0     H 2490   1.405   4.108   4.867  1.3741 -0.5211 -0.1823
  743MOL0     H 2491   1.281   4.012   4.782 -0.8450  0.6759  0.3834
  743MOL0     H 2492   1.614   4.070   4.935  3.7424 -0.5186  3.2987
  743MOL0     H 2493   1.883   4.225   5.011 -2.3247  0.3840  2.5062
  743MOL0     H 2494   1.967   4.065   5.003 -0.7317 -3.0613 -1.2357
  743MOL0     H 2495   1.807   4.098   5.079  0.0350  1.8683 -0.0932
  743MOL0     H 2496   2.158   4.195   5.036 -1.4669  0.7486 -1.1826
  743MOL0     H 2497   2.392   4.228   5.110 -2.9746  2.3036  0.8015
  743MOL0     H 2498   2.709   4.301   4.776 -0.2335 -0.3283  0.0727
  743MOL0     H 2499   2.646   4.448   4.835  0.9472 -0.7198 -0.5518
  743MOL0     H 2500   2.827   4.451   5.013 -1.8143 -0.0692 -0.3653
  743MOL0     H 2501   2.856   4.282   4.971  0.9318 -1.6331 -1.6795
  743MOL0     H 2502   2.938   4.343   4.750 -2.8691 -0.3627 -0.6741
  743MOL0     H 2503   3.031   4.396   4.880 -0.6035  0.8990  1.1994
  743MOL0     H 2504   2.906   4.637   4.863  0.9595  0.9000 -0.3544
  743MOL0     H 2505   2.829   4.571   4.722  0.1025  1.0546  0.1645
  743MOL0     H 2506   3.042   4.709   4.685 -2.1027  0.7703  1.7916
  743MOL0     H 2507   3.136   4.574   4.763  1.2923  0.0690 -1.3633
  743MOL0     H 2508   2.956   4.561   4.511 -0.7600 -2.3967 -0.6699
  743MOL0     H 2509   3.055   4.427   4.569  0.1887  0.7474 -0.3418
  743MOL0     H 2510   3.261   4.546   4.539  1.4299  0.7507  1.0341
  743MOL0     H 2511   3.181   4.687   4.475  1.5510 -0.5831 -4.9788
  743MOL0     H 2512   3.067   4.590   4.305 -1.3818 -2.7285 -1.6849
  743MOL0     H 2513   3.122   4.427   4.349  3.0759 -0.3925  0.3603
  743MOL0     H 2514   2.503   4.336   4.714  4.2718 -0.0968  3.5071
  743MOL0     H 2515   2.249   4.313   4.649 -0.9967 -0.9143 -0.9854
  743MOL0     H 2516   1.844   4.080   4.503  2.2465  0.7494  1.3046
  743MOL0     H 2517   1.635   3.992   4.516 -1.0623  1.9372 -0.5506
  743MOL0     H 2518   1.013   5.181   5.209 -0.3900  0.8707 -1.9903
  743MOL0     H 2519   1.074   5.188   5.443  0.3718  0.5786 -1.5706
  743MOL0     H 2520   0.895   5.257   5.898 -0.9918  2.3401 -0.0692
  743MOL0     H 2521   0.982   5.193   6.097 -0.6926 -0.6855 -0.5668
  743MOL0     H 2522   1.037   5.281   6.319 -0.7473 -0.4368 -3.1693
  743MOL0     H 2523   1.125   5.132   6.296 -1.6726  0.4436  1.0121
  743MOL0     H 2524   1.157   5.226   6.530  1.2691  0.1852  1.5211
  743MOL0     H 2525   1.248   5.361   6.455  1.0840  0.0900 -2.1741
  743MOL0     H 2526   1.338   5.068   6.445 -0.8273  0.2349 -1.1871
  743MOL0     H 2527   1.427   5.212   6.375  0.5449  2.4688  1.3456
  743MOL0     H 2528   1.369   5.113   6.657 -0.1330  0.1544 -0.1168
  743MOL0     H 2529   1.443   5.270   6.614 -1.3311  1.3093 -1.3628
  743MOL0     H 2530   1.748   4.990   6.546  0.6589  1.1179 -2.0508
  743MOL0     H 2531   1.330   5.445   6.044 -0.6835  2.4135 -0.8200
  743MOL0     H 2532   1.248   5.591   5.743  1.4200  0.1654 -1.7308
  743MOL0     H 2533   1.373   5.550   5.859  0.3395  1.0482 -0.8478
  743MOL0     H 2534   1.332   5.455   5.706 -1.8765 -0.5629 -0.0783
  744MOL0     O 2535   4.760   4.842  11.385 -0.3804 -0.1479 -0.0306
  744MOL0     C 2536   4.734   4.916  11.292  0.0524  0.1043  0.0116
  744MOL0     O 2537   4.612   4.978  11.264  0.2619  0.3476 -0.6910
  744MOL0     C 2538   4.492   4.974  11.338  0.4865  0.4076  0.3409
  744MOL0     C 2539   4.389   5.061  11.304 -0.1612  0.1835 -0.3618
  744MOL0     C 2540   4.268   5.049  11.375  0.3102 -0.4706  0.1011
  744MOL0     C 2541   4.253   4.974  11.491 -0.6760 -0.1425  0.7234
  744MOL0     O 2542   4.128   4.980  11.554 -0.0752  0.2339  0.5586
  744MOL0     C 2543   4.071   4.852  11.599  0.0150 -0.9770 -0.2009
  744MOL0     C 2544   3.949   4.903  11.683 -0.6475 -0.8602  0.1723
  744MOL0     C 2545   3.875   4.769  11.743 -0.7912 -0.3156  0.1186
  744MOL0     C 2546   3.754   4.794  11.832  0.5720  0.7827 -1.4747
  744MOL0     C 2547   3.638   4.827  11.739  1.1305  0.5374  0.0520
  744MOL0     C 2548   3.503   4.857  11.818  0.1761  0.0973  1.0811
  744MOL0     C 2549   3.393   4.898  11.711  0.5295  0.0948 -0.1705
  744MOL0     C 2550   3.249   4.882  11.757 -0.3605  0.1634 -0.0876
  744MOL0     N 2551   3.221   4.978  11.867  0.3949 -0.3838 -0.0782
  744MOL0     C 2552   3.142   5.090  11.852 -0.1983  0.7012 -0.1653
  744MOL0     C 2553   3.092   5.122  11.978  0.0347 -0.2836  0.3367
  744MOL0     C 2554   3.027   5.243  12.034  0.3228 -0.5738  0.1939
  744MOL0     C 2555   3.114   5.363  12.023  0.3939 -0.1775  0.3851
  744MOL0     C 2556   3.232   5.367  12.134 -0.4509 -0.0555  0.6685
  744MOL0     C 2557   3.352   5.306  12.069  0.5940 -0.4549 -0.0250
  744MOL0     O 2558   3.391   5.378  11.952 -1.2772 -0.1722 -1.1298
  744MOL0     C 2559   3.509   5.342  11.893  0.0404  1.3346  0.3592
  744MOL0     C 2560   3.528   5.345  11.751  0.1146 -0.2147  0.1839
  744MOL0     C 2561   3.652   5.331  11.685  0.3857 -0.9813  0.5414
  744MOL0     C 2562   3.657   5.361  11.537  0.4587 -0.5436  0.4910
  744MOL0     C 2563   3.768   5.310  11.757 -0.1130  0.8537  0.0020
  744MOL0     C 2564   3.904   5.290  11.698 -0.3113  0.3799  0.5660
  744MOL0     O 2565   4.008   5.345  11.766  0.3676 -0.2893  0.0114
  744MOL0     C 2566   4.135   5.293  11.753 -0.6219 -0.0276 -0.2423
  744MOL0     C 2567   4.164   5.177  11.823  0.2977 -0.6238  0.0719
  744MOL0     C 2568   4.299   5.135  11.818 -0.2997 -0.1031  0.0715
  744MOL0     C 2569   4.397   5.203  11.755  0.1243  0.0397  1.3350
  744MOL0     O 2570   4.521   5.142  11.747  0.0320 -0.7729  0.6650
  744MOL0     C 2571   4.624   5.213  11.672 -0.3898  0.5162 -0.0196
  744MOL0     C 2572   4.750   5.130  11.642 -0.2497 -0.4621 -0.2009
  744MOL0     C 2573   4.863   5.219  11.593  0.6160  0.4517 -0.2306
  744MOL0     C 2574   4.985   5.134  11.575 -0.5785  0.0136  0.1078
  744MOL0     C 2575   5.082   5.216  11.495 -0.0594  0.4200 -0.0532
  744MOL0     C 2576   5.222   5.171  11.504  0.4344  0.1071  0.1264
  744MOL0     C 2577   5.246   5.031  11.441 -0.6821  1.0099 -0.0356
  744MOL0     C 2578   5.375   4.966  11.495  0.0882  0.8438 -0.8406
  744MOL0    Cl 2579   5.370   4.798  11.434 -0.3118  0.1977  0.2226
  744MOL0     C 2580   4.367   5.321  11.697  0.3766 -0.8468 -0.8441
  744MOL0     C 2581   4.237   5.370  11.704 -0.3553  0.6001  0.0641
  744MOL0     O 2582   3.923   5.238  11.594 -0.3613  1.3071  1.0679
  744MOL0     C 2583   3.755   5.314  11.901 -0.3861  0.1850 -0.0510
  744MOL0     C 2584   3.632   5.332  11.964  0.1782  0.3174  0.8312
  744MOL0     N 2585   3.134   5.019  12.063 -0.0976 -0.4639 -0.6048
  744MOL0     N 2586   3.213   4.944  11.995 -0.1897  0.6565 -0.0755
  744MOL0     C 2587   4.366   4.896  11.530  0.1587  0.2943  0.9050
  744MOL0     C 2588   4.472   4.882  11.446 -0.0415 -0.0706 -0.3470
  744MOL0     C 2589   4.855   4.973  11.226 -0.0113 -0.0027 -0.4785
  744MOL0     C 2590   4.834   5.103  11.174 -0.0786 -0.1559  0.3261
  744MOL0     C 2591   4.932   5.163  11.103  0.3068 -0.2603 -0.0850
  744MOL0     C 2592   5.054   5.097  11.096 -0.0562  0.2348  0.3397
  744MOL0     O 2593   5.148   5.157  11.010  0.2519 -0.4024 -0.6917
  744MOL0     C 2594   5.281   5.116  11.018  0.5473 -0.2320 -0.6340
  744MOL0     C 2595   5.379   5.214  10.935  0.2091  0.1900  0.0776
  744MOL0     C 2596   5.523   5.178  10.911 -0.2031 -0.3348  0.0746
  744MOL0     C 2597   5.586   5.099  11.022 -0.0157  0.0239  0.2950
  744MOL0     C 2598   5.733   5.092  11.037  0.0359  0.5588 -0.7851
  744MOL0     C 2599   5.853   5.085  11.036  0.0437 -0.3170  0.4873
  744MOL0     C 2600   5.074   4.967  11.152  0.5241  0.7635  0.2586
  744MOL0     C 2601   4.978   4.902  11.218 -0.3432 -0.2192  0.3448
  744MOL0     C 2602   5.019   4.771  11.276  0.2677 -0.4793  0.0943
  744MOL0     H 2603   4.397   5.119  11.212  3.0226  0.9322  0.2864
  744MOL0     H 2604   4.185   5.111  11.344  1.7826  0.1557 -2.9882
  744MOL0     H 2605   4.133   4.791  11.666 -2.1962 -1.1970  1.7776
  744MOL0     H 2606   4.038   4.785  11.519 -0.8319 -1.8971  0.8817
  744MOL0     H 2607   3.988   4.968  11.761 -0.7096 -0.7001  0.0691
  744MOL0     H 2608   3.884   4.964  11.619 -1.2902 -0.0267  1.5739
  744MOL0     H 2609   3.839   4.706  11.661 -2.3153  2.1354 -1.1856
  744MOL0     H 2610   3.954   4.720  11.800  1.2018  1.4465 -1.0104
  744MOL0     H 2611   3.729   4.707  11.894 -1.3598  3.0394  1.1301
  744MOL0     H 2612   3.774   4.885  11.888  1.3320 -0.9598  1.2711
  744MOL0     H 2613   3.615   4.743  11.673  0.3775  0.8494 -0.0939
  744MOL0     H 2614   3.652   4.908  11.667 -1.9681  0.2336 -1.0638
  744MOL0     H 2615   3.472   4.767  11.872 -1.2139 -0.5518 -0.7231
  744MOL0     H 2616   3.532   4.944  11.877  3.9222  2.2947 -3.2949
  744MOL0     H 2617   3.409   4.829  11.628 -1.8238 -1.7853  0.7971
  744MOL0     H 2618   3.406   4.998  11.670 -1.0382 -0.7418 -2.9661
  744MOL0     H 2619   3.192   4.907  11.667 -2.2299 -3.9027 -0.2241
  744MOL0     H 2620   3.223   4.781  11.790 -0.6186  0.5442  0.9041
  744MOL0     H 2621   3.131   5.141  11.757 -3.3315 -3.4638 -2.3467
  744MOL0     H 2622   3.008   5.230  12.141 -4.5512 -0.9829 -0.4592
  744MOL0     H 2623   2.937   5.259  11.973  0.0172  0.3768  0.8626
  744MOL0     H 2624   3.154   5.361  11.922 -0.9546  0.9583 -0.2042
  744MOL0     H 2625   3.049   5.451  12.032  1.1248  0.5830 -1.3651
  744MOL0     H 2626   3.244   5.471  12.164  3.4132 -0.2911  0.3730
  744MOL0     H 2627   3.198   5.297  12.211 -4.7639 -1.3238 -2.0040
  744MOL0     H 2628   3.433   5.296  12.142 -0.3939 -1.2342  1.0031
  744MOL0     H 2629   3.327   5.206  12.030  0.1798 -0.5038  0.3589
  744MOL0     H 2630   3.440   5.372  11.694  0.6726  0.7342 -0.2476
  744MOL0     H 2631   3.670   5.265  11.487 -1.8590 -1.4865  1.5348
  744MOL0     H 2632   3.739   5.431  11.516  0.4787 -1.0209 -1.1936
  744MOL0     H 2633   3.567   5.412  11.501  1.3620 -0.4962 -1.9130
  744MOL0     H 2634   4.088   5.124  11.879  0.2650 -1.0590 -0.3826
  744MOL0     H 2635   4.328   5.039  11.858  0.1819  0.0308  0.0504
  744MOL0     H 2636   4.592   5.233  11.569  3.2464 -0.6550 -1.5562
  744MOL0     H 2637   4.656   5.304  11.722 -1.7345  1.6470 -1.1407
  744MOL0     H 2638   4.779   5.093  11.741  1.0005 -2.1596 -1.1385
  744MOL0     H 2639   4.722   5.041  11.585 -2.6030 -0.7136  1.1900
  744MOL0     H 2640   4.881   5.297  11.667 -0.2429  0.3610  0.0802
  744MOL0     H 2641   4.833   5.274  11.504 -0.6926 -0.4675 -0.3911
  744MOL0     H 2642   4.957   5.039  11.528  1.4920 -0.7781  0.3690
  744MOL0     H 2643   5.020   5.120  11.677 -3.0118 -2.3314  0.7192
  744MOL0     H 2644   5.060   5.203  11.388  1.4172 -0.4822 -0.2705
  744MOL0     H 2645   5.072   5.325  11.500 -1.6037  0.5575 -3.3223
  744MOL0     H 2646   5.268   5.180  11.603  0.0703  3.4700  0.0865
  744MOL0     H 2647   5.281   5.241  11.444  1.6212 -1.0414 -0.1022
  744MOL0     H 2648   5.252   5.050  11.333 -1.9925  1.0169 -0.1290
  744MOL0     H 2649   5.164   4.966  11.473 -1.0711  2.9759  3.3906
  744MOL0     H 2650   5.359   4.963  11.603 -0.4236 -0.1108 -0.9264
  744MOL0     H 2651   5.469   5.015  11.469  1.8865 -1.5782  0.6454
  744MOL0     H 2652   4.437   5.381  11.640 -0.7565  2.0806  0.6207
  744MOL0     H 2653   4.207   5.467  11.667 -2.9212  0.5505  1.7692
  744MOL0     H 2654   3.844   5.316  11.963 -0.2275  0.2706 -0.2817
  744MOL0     H 2655   3.612   5.332  12.070 -3.9509  0.4170  0.2008
  744MOL0     H 2656   4.359   4.836  11.619 -0.4580 -1.0699 -0.0245
  744MOL0     H 2657   4.542   4.802  11.469  1.2003  0.9504 -0.4942
  744MOL0     H 2658   4.739   5.155  11.171  0.0863  0.1125 -0.9514
  744MOL0     H 2659   4.922   5.258  11.052  1.9017 -0.5448 -0.9769
  744MOL0     H 2660   5.315   5.102  11.121  0.4845  0.8339 -0.4515
  744MOL0     H 2661   5.281   5.017  10.972 -2.4463  0.6356 -2.7799
  744MOL0     H 2662   5.367   5.317  10.970  2.8725  0.5774  0.0647
  744MOL0     H 2663   5.328   5.221  10.839 -1.5964  3.2316  1.1077
  744MOL0     H 2664   5.534   5.112  10.824  2.0273 -1.7323  1.3165
  744MOL0     H 2665   5.583   5.263  10.877  0.6933 -0.2137  1.8777
  744MOL0     H 2666   5.542   4.999  11.018 -2.5871  1.0125  1.7174
  744MOL0     H 2667   5.543   5.142  11.113 -1.5299 -4.5087  2.0274
  744MOL0     H 2668   5.959   5.104  11.030  0.0251 -0.6743 -2.1884
  744MOL0     H 2669   5.171   4.919  11.147 -0.0594 -0.7730  2.3156
  744MOL0     H 2670   4.943   4.694  11.260  0.7484 -0.8573 -0.4376
  744MOL0     H 2671   5.117   4.734  11.242  0.3082 -0.5817  0.3213
  744MOL0     H 2672   5.027   4.798  11.382 -1.2961  1.7901 -0.2801
  745MOL0     O 2673   0.843   4.869   1.192 -0.6855 -0.3084 -0.1554
  745MOL0     C 2674   0.870   4.968   1.125  0.2159 -0.4726  0.1425
  745MOL0     O 2675   0.958   4.960   1.013  0.6925 -0.6173  0.3529
  745MOL0     C 2676   0.989   4.834   0.976 -0.6405 -0.3683 -0.0083
  745MOL0     C 2677   0.903   4.763   0.897  0.3713 -0.0983 -1.2083
  745MOL0     C 2678   0.924   4.630   0.847 -0.3052 -0.4094 -0.9495
  745MOL0     C 2679   1.032   4.569   0.899 -0.1821 -0.9310  0.5097
  745MOL0     O 2680   1.055   4.439   0.875  0.3291 -0.0984  0.0768
  745MOL0     C 2681   0.965   4.346   0.946 -0.6175  0.6866  1.0407
  745MOL0     C 2682   1.001   4.209   0.892 -0.6772 -0.0258 -0.2028
  745MOL0     C 2683   0.945   4.193   0.750  0.8800  0.5300 -0.2055
  745MOL0     C 2684   0.899   4.044   0.719 -0.1062 -0.3267  0.4602
  745MOL0     C 2685   0.785   3.993   0.794  0.4294  1.0951  0.0756
  745MOL0     C 2686   0.663   4.087   0.828  0.4110 -0.6232 -0.0925
  745MOL0     C 2687   0.538   4.020   0.893 -0.1572  0.0025  0.9276
  745MOL0     C 2688   0.549   3.988   1.038 -0.0695 -0.4373 -0.6065
  745MOL0     N 2689   0.435   3.911   1.089  0.8545 -0.0050 -0.8118
  745MOL0     C 2690   0.428   3.775   1.127 -0.6376  0.0696 -0.7227
  745MOL0     C 2691   0.304   3.755   1.175  1.0859  0.9613 -0.2832
  745MOL0     C 2692   0.251   3.624   1.238 -0.3597  0.3710  0.7621
  745MOL0     C 2693   0.212   3.625   1.389 -0.6262 -0.3683  0.0482
  745MOL0     C 2694   0.324   3.587   1.485 -0.0096 -0.4341  1.0797
  745MOL0     C 2695   0.461   3.650   1.447 -0.2074  0.0797 -0.5487
  745MOL0     O 2696   0.565   3.635   1.545  0.6125  1.0168  0.2525
  745MOL0     C 2697   0.693   3.654   1.505 -0.3037 -0.4357  0.0275
  745MOL0     C 2698   0.799   3.567   1.538  0.7035 -0.1878  0.6856
  745MOL0     C 2699   0.926   3.587   1.477 -0.1940 -0.9804  0.1690
  745MOL0     C 2700   1.028   3.478   1.479 -0.4821  0.5671 -0.6626
  745MOL0     C 2701   0.954   3.696   1.398  0.6612 -1.0705 -0.1363
  745MOL0     C 2702   1.076   3.731   1.341 -0.9252  1.0897  0.6628
  745MOL0     O 2703   1.091   3.858   1.310  0.5799  0.1138  0.5526
  745MOL0     C 2704   1.185   3.903   1.221 -0.1088 -0.2537 -0.3351
  745MOL0     C 2705   1.211   3.848   1.098 -0.4844  0.4372 -0.4800
  745MOL0     C 2706   1.271   3.925   0.997 -0.1616  0.2087  0.5274
  745MOL0     C 2707   1.314   4.051   1.029  0.1140 -0.0439 -0.0570
  745MOL0     O 2708   1.386   4.107   0.928 -0.3666 -0.3259 -0.6695
  745MOL0     C 2709   1.395   4.252   0.929 -0.3759  0.2338  0.2855
  745MOL0     C 2710   1.408   4.304   0.785 -0.2012  0.6046  0.1572
  745MOL0     C 2711   1.512   4.226   0.695  1.0496  0.0232 -0.6458
  745MOL0     C 2712   1.535   4.299   0.562  0.2350  0.4305  1.2181
  745MOL0     C 2713   1.583   4.208   0.446  0.6485  0.1183 -0.3542
  745MOL0     C 2714   1.658   4.289   0.333 -0.1230  0.0700 -0.3960
  745MOL0     C 2715   1.571   4.319   0.208  0.2774 -0.7805 -0.2678
  745MOL0     C 2716   1.653   4.387   0.104 -0.0567  0.2186 -0.0523
  745MOL0    Cl 2717   1.587   4.331  -0.047 -0.2413 -0.1825  0.2390
  745MOL0     C 2718   1.291   4.110   1.160 -0.0852  0.1433 -0.3161
  745MOL0     C 2719   1.232   4.034   1.259  0.6206  0.3040 -0.2994
  745MOL0     O 2720   1.163   3.639   1.308 -0.0208  0.5583 -0.8333
  745MOL0     C 2721   0.847   3.787   1.372 -0.2478 -0.1490 -0.0842
  745MOL0     C 2722   0.724   3.764   1.428 -0.4214 -0.3566 -0.0170
  745MOL0     N 2723   0.231   3.874   1.163 -0.2132  0.1051  0.8128
  745MOL0     N 2724   0.308   3.968   1.117 -0.7169  0.3793 -0.7805
  745MOL0     C 2725   1.123   4.633   0.979 -0.0903  0.1200  0.7541
  745MOL0     C 2726   1.103   4.767   1.014 -0.1824  0.0178 -0.2956
  745MOL0     C 2727   0.821   5.102   1.168 -0.4612  0.2148 -0.6274
  745MOL0     C 2728   0.886   5.213   1.113 -1.2988  0.4701 -0.3154
  745MOL0     C 2729   0.855   5.344   1.159 -0.7238  0.4267 -1.0433
  745MOL0     C 2730   0.753   5.363   1.250  0.0299 -0.2460  0.0712
  745MOL0     O 2731   0.729   5.484   1.306 -0.0386 -0.0804  0.4380
  745MOL0     C 2732   0.598   5.528   1.296  0.8961  0.9912  0.4786
  745MOL0     C 2733   0.553   5.537   1.151 -0.2870 -0.5136  0.6528
  745MOL0     C 2734   0.412   5.585   1.148  0.7467 -0.5389  0.0765
  745MOL0     C 2735   0.353   5.578   1.010 -0.0520  0.4045  0.4332
  745MOL0     C 2736   0.399   5.687   0.928 -0.1906 -0.1116 -0.3524
  745MOL0     C 2737   0.442   5.773   0.855 -0.4074  0.2859  0.3135
  745MOL0     C 2738   0.697   5.245   1.311  0.4048  0.3480  0.1102
  745MOL0     C 2739   0.722   5.120   1.265 -0.4329  1.0006  0.8680
  745MOL0     C 2740   0.639   5.005   1.329  0.0197  0.2921  0.3818
  745MOL0     H 2741   0.805   4.808   0.882  1.5726  3.6974  1.0824
  745MOL0     H 2742   0.860   4.585   0.772  0.3545 -0.4862 -1.4773
  745MOL0     H 2743   0.859   4.370   0.934 -0.5034  0.4868 -0.6119
  745MOL0     H 2744   0.993   4.356   1.051 -3.2177 -2.4332  2.2135
  745MOL0     H 2745   1.110   4.207   0.882 -0.7061  1.4719 -1.1015
  745MOL0     H 2746   0.957   4.140   0.965  1.0337 -2.5313 -1.3784
  745MOL0     H 2747   0.858   4.258   0.735 -1.8443 -3.0762 -1.5364
  745MOL0     H 2748   1.025   4.215   0.679  1.0273  0.8985  0.0753
  745MOL0     H 2749   0.882   4.047   0.611 -3.5484 -0.5139  0.8678
  745MOL0     H 2750   0.978   3.969   0.735  0.0525 -0.1220  0.6446
  745MOL0     H 2751   0.824   3.959   0.891 -1.4893  0.9561  0.8451
  745MOL0     H 2752   0.746   3.907   0.740  0.1947  0.9180  0.5221
  745MOL0     H 2753   0.699   4.163   0.897  1.4814  1.9784 -3.2731
  745MOL0     H 2754   0.639   4.149   0.742 -0.0246  0.5038  0.8141
  745MOL0     H 2755   0.530   3.919   0.851 -1.4775  0.6940 -0.5800
  745MOL0     H 2756   0.452   4.080   0.862 -0.4612  0.5376  2.6971
  745MOL0     H 2757   0.638   3.928   1.060 -1.3032 -1.2852  2.5446
  745MOL0     H 2758   0.563   4.083   1.092 -1.7492 -1.4256  1.7328
  745MOL0     H 2759   0.512   3.708   1.114 -1.1180 -0.2287 -2.4915
  745MOL0     H 2760   0.327   3.546   1.230 -1.0333 -1.1154  5.5815
  745MOL0     H 2761   0.167   3.600   1.173  0.8781  1.6103 -1.3906
  745MOL0     H 2762   0.172   3.723   1.417 -0.8966 -0.4757  0.0423
  745MOL0     H 2763   0.138   3.546   1.408  1.4492 -2.4953 -0.2251
  745MOL0     H 2764   0.291   3.605   1.588  0.6169  1.4801  0.9804
  745MOL0     H 2765   0.342   3.480   1.468 -0.3127 -0.0813 -2.1032
  745MOL0     H 2766   0.510   3.590   1.370  3.1800 -0.1904  1.6022
  745MOL0     H 2767   0.450   3.756   1.423  0.7980  0.1093 -0.8973
  745MOL0     H 2768   0.776   3.483   1.603 -2.2752  0.4106  0.5326
  745MOL0     H 2769   1.037   3.445   1.375 -3.0598 -1.6686 -0.2871
  745MOL0     H 2770   0.993   3.392   1.536  0.3685  1.0057  0.5598
  745MOL0     H 2771   1.121   3.520   1.520 -0.7168  2.9443 -2.3218
  745MOL0     H 2772   1.179   3.746   1.079  2.0418 -0.5760  0.3109
  745MOL0     H 2773   1.285   3.876   0.901  1.6663 -0.2457  0.9883
  745MOL0     H 2774   1.312   4.303   0.977  0.5854  2.0142  0.1443
  745MOL0     H 2775   1.487   4.280   0.981  0.9593  0.1817 -1.8773
  745MOL0     H 2776   1.311   4.299   0.734  0.2476 -2.1415 -0.6021
  745MOL0     H 2777   1.441   4.408   0.787 -0.2683  0.6241  1.6796
  745MOL0     H 2778   1.476   4.123   0.693 -1.7298  0.9085 -0.3962
  745MOL0     H 2779   1.614   4.224   0.735  1.0868 -1.2427 -0.7510
  745MOL0     H 2780   1.604   4.382   0.579 -0.8569  1.1347  2.3392
  745MOL0     H 2781   1.441   4.334   0.519 -0.1914 -4.1544 -2.5037
  745MOL0     H 2782   1.651   4.136   0.492 -2.0323 -0.0502  3.8635
  745MOL0     H 2783   1.503   4.148   0.402  1.4864 -1.1671 -0.1870
  745MOL0     H 2784   1.736   4.221   0.297  2.0004  1.1726  1.8269
  745MOL0     H 2785   1.718   4.369   0.377 -0.8337  1.0116 -1.0995
  745MOL0     H 2786   1.499   4.399   0.231  0.3019 -0.9421  0.3898
  745MOL0     H 2787   1.528   4.224   0.174 -1.0611  0.2970 -1.7575
  745MOL0     H 2788   1.761   4.369   0.104 -0.5083 -3.1873 -1.0558
  745MOL0     H 2789   1.648   4.495   0.124  2.1496 -0.0729  2.6575
  745MOL0     H 2790   1.340   4.204   1.185 -0.5953 -0.5317  3.8801
  745MOL0     H 2791   1.212   4.071   1.359 -2.7370  0.3167 -0.8584
  745MOL0     H 2792   0.854   3.869   1.302  2.9376  1.2864  1.7274
  745MOL0     H 2793   0.643   3.831   1.401 -1.1392 -1.3263 -0.2970
  745MOL0     H 2794   1.203   4.582   1.032 -0.0766  0.4818  1.0862
  745MOL0     H 2795   1.176   4.818   1.077  0.3872 -0.4120 -0.5960
  745MOL0     H 2796   0.965   5.206   1.039  0.6024  2.2067  1.4311
  745MOL0     H 2797   0.926   5.420   1.131  1.2786 -2.4384 -4.6219
  745MOL0     H 2798   0.533   5.454   1.345  0.5730 -0.2151 -1.6703
  745MOL0     H 2799   0.583   5.618   1.356 -1.3924 -1.3191  3.7949
  745MOL0     H 2800   0.553   5.438   1.103  1.7420  0.4245 -1.4528
  745MOL0     H 2801   0.621   5.600   1.092  1.3978 -1.6579  1.2878
  745MOL0     H 2802   0.354   5.529   1.222  1.9380 -3.1683 -0.8538
  745MOL0     H 2803   0.399   5.689   1.180 -0.5262 -1.0896  1.4598
  745MOL0     H 2804   0.244   5.585   1.009 -0.5554 -4.0733 -0.2333
  745MOL0     H 2805   0.368   5.481   0.960  0.3621 -0.1034  1.4990
  745MOL0     H 2806   0.480   5.853   0.794  1.4909 -2.1284 -1.8718
  745MOL0     H 2807   0.624   5.254   1.390  0.8010  0.8415  0.4219
  745MOL0     H 2808   0.596   4.935   1.257  2.0949 -2.0882  1.2765
  745MOL0     H 2809   0.713   4.953   1.391  1.0649  4.0070  2.5190
  745MOL0     H 2810   0.556   5.036   1.394  1.0443 -0.2436  2.0272
  746MOL0     O 2811   0.948  10.256  10.291  0.0323  0.4461  1.1595
  746MOL0     C 2812   0.993  10.148  10.346  0.1935 -0.3020 -0.0540
  746MOL0     O 2813   1.094  10.148  10.438 -0.0740 -0.5376 -0.6100
  746MOL0     C 2814   1.165  10.269  10.450  0.1199  0.4079  0.0181
  746MOL0     C 2815   1.111  10.391  10.491  0.9512 -0.4460  0.0638
  746MOL0     C 2816   1.187  10.505  10.498  0.0197 -0.3196  0.0246
  746MOL0     C 2817   1.322  10.509  10.467 -0.0490  0.5331  0.2396
  746MOL0     O 2818   1.379  10.635  10.469 -0.5708 -0.3506 -0.1674
  746MOL0     C 2819   1.505  10.662  10.400 -0.2947  0.7119 -0.6896
  746MOL0     C 2820   1.563  10.798  10.439 -0.0037 -0.0313  0.9393
  746MOL0     C 2821   1.531  10.913  10.337  0.4389 -1.1089  0.0497
  746MOL0     C 2822   1.578  11.045  10.401  0.3806  0.3820  0.5957
  746MOL0     C 2823   1.518  11.166  10.329 -0.3025  0.7640  0.5256
  746MOL0     C 2824   1.551  11.290  10.402 -0.6076 -0.0327  0.0657
  746MOL0     C 2825   1.473  11.405  10.342  0.9251 -0.2191 -0.0363
  746MOL0     C 2826   1.473  11.519  10.446  0.3397 -0.5514 -0.1432
  746MOL0     N 2827   1.611  11.547  10.489  0.1766 -0.6537 -0.2217
  746MOL0     C 2828   1.673  11.511  10.605  0.0118 -0.0758  0.4946
  746MOL0     C 2829   1.802  11.538  10.587  0.7236  0.1882  0.0666
  746MOL0     C 2830   1.909  11.511  10.689  0.5720 -1.1837  0.1275
  746MOL0     C 2831   2.028  11.453  10.616  0.3244 -0.5007  0.4607
  746MOL0     C 2832   2.121  11.565  10.562  1.0824  0.6457 -0.8650
  746MOL0     C 2833   2.257  11.491  10.511 -0.5428 -0.0916 -0.6207
  746MOL0     O 2834   2.314  11.404  10.607  0.2441 -0.2109  0.7240
  746MOL0     C 2835   2.449  11.363  10.607  0.8544  0.1178 -0.3465
  746MOL0     C 2836   2.559  11.443  10.560  0.5888  0.0609  0.4864
  746MOL0     C 2837   2.690  11.411  10.593 -0.0263 -0.2849  0.2148
  746MOL0     C 2838   2.787  11.522  10.548  0.2643 -0.2748 -1.6805
  746MOL0     C 2839   2.721  11.292  10.661  0.1104  0.1113 -0.1226
  746MOL0     C 2840   2.861  11.239  10.695  1.2473 -0.0738 -0.8809
  746MOL0     O 2841   2.875  11.171  10.813 -1.0345 -0.3218 -0.2308
  746MOL0     C 2842   2.993  11.111  10.826 -0.0997  0.0951 -0.1576
  746MOL0     C 2843   3.082  11.144  10.926 -0.6465  0.0337  0.3113
  746MOL0     C 2844   3.195  11.074  10.945 -0.0284  0.4578  0.4997
  746MOL0     C 2845   3.233  10.983  10.850 -0.5415 -0.2950 -0.6411
  746MOL0     O 2846   3.358  10.932  10.855 -0.7664 -0.0102 -0.2701
  746MOL0     C 2847   3.465  11.024  10.821 -0.0393 -0.3555 -0.7718
  746MOL0     C 2848   3.592  10.951  10.862  0.9242  0.1075 -0.7246
  746MOL0     C 2849   3.590  10.913  11.014  0.5822 -0.5733 -0.1338
  746MOL0     C 2850   3.567  11.030  11.114 -0.3826  0.0385 -0.1535
  746MOL0     C 2851   3.696  11.112  11.114 -0.8361 -0.7136  0.5388
  746MOL0     C 2852   3.684  11.248  11.194 -0.1217 -0.2763 -0.1418
  746MOL0     C 2853   3.812  11.340  11.186 -0.0325 -0.7397 -0.6913
  746MOL0     C 2854   3.812  11.434  11.306 -0.8004  0.3198 -0.9411
  746MOL0    Cl 2855   3.667  11.536  11.310 -0.0863 -0.2312 -0.0026
  746MOL0     C 2856   3.147  10.949  10.744 -0.6572  0.1184 -0.4079
  746MOL0     C 2857   3.021  11.007  10.739 -1.3083  0.3485  0.5900
  746MOL0     O 2858   2.949  11.270  10.610  0.1436  0.3014  0.1475
  746MOL0     C 2859   2.616  11.215  10.715  0.3647 -0.6211  0.2665
  746MOL0     C 2860   2.482  11.247  10.678  0.3407 -0.1456 -0.0260
  746MOL0     N 2861   1.811  11.609  10.467 -0.7518 -0.9749  0.8249
  746MOL0     N 2862   1.699  11.602  10.408 -0.1992  0.0397 -0.1447
  746MOL0     C 2863   1.382  10.384  10.424  0.3104 -0.7881  0.1969
  746MOL0     C 2864   1.305  10.272  10.427  0.5524  0.4535  0.7798
  746MOL0     C 2865   0.940  10.013  10.308  0.3338  1.1918 -0.4632
  746MOL0     C 2866   0.998   9.910  10.383  0.1310 -0.6688 -0.0245
  746MOL0     C 2867   0.966   9.775  10.340  0.2963  0.0964  0.6081
  746MOL0     C 2868   0.877   9.749  10.239  0.0635  0.0436  0.7651
  746MOL0     O 2869   0.867   9.614  10.208 -0.0299 -0.3675 -0.0954
  746MOL0     C 2870   0.873   9.578  10.072  0.4010  0.3412  0.5696
  746MOL0     C 2871   1.013   9.520  10.032 -0.0959 -0.4893 -0.5173
  746MOL0     C 2872   1.113   9.626  10.018  0.1837 -0.2230 -0.3833
  746MOL0     C 2873   1.255   9.598   9.964  0.3981 -1.2617 -0.2993
  746MOL0     C 2874   1.338   9.721   9.947 -0.8284  0.3676  0.9888
  746MOL0     C 2875   1.401   9.829   9.935 -0.2164  0.0645  0.2939
  746MOL0     C 2876   0.822   9.859  10.169  0.0282  0.0200 -0.2124
  746MOL0     C 2877   0.840   9.989  10.208  0.1317  0.3682  0.1667
  746MOL0     C 2878   0.761  10.093  10.141 -0.1888 -0.8630 -0.5866
  746MOL0     H 2879   1.003  10.392  10.505  0.6779  2.4884 -1.3875
  746MOL0     H 2880   1.132  10.594  10.527  1.3556  0.5344  0.0181
  746MOL0     H 2881   1.494  10.650  10.292  2.0126 -1.6953 -0.7586
  746MOL0     H 2882   1.583  10.599  10.444 -0.2988  1.2512  0.1043
  746MOL0     H 2883   1.531  10.825  10.540  0.7918  0.0716  1.1656
  746MOL0     H 2884   1.670  10.777  10.448  0.9947  3.1974 -1.5591
  746MOL0     H 2885   1.574  10.891  10.239 -1.9362 -2.4393 -0.7750
  746MOL0     H 2886   1.423  10.918  10.322  0.4768 -0.9341 -0.1796
  746MOL0     H 2887   1.549  11.044  10.506 -2.0668 -0.5033 -0.0183
  746MOL0     H 2888   1.687  11.058  10.391 -0.0630  2.4591 -3.8122
  746MOL0     H 2889   1.410  11.149  10.324 -0.4266  0.9290  2.0835
  746MOL0     H 2890   1.567  11.173  10.232 -1.9793  0.9518 -0.3507
  746MOL0     H 2891   1.531  11.280  10.509 -1.9395  2.7746  0.1729
  746MOL0     H 2892   1.658  11.314  10.396 -0.1342 -1.1367  2.7305
  746MOL0     H 2893   1.369  11.381  10.319  0.1114  3.6126 -1.1603
  746MOL0     H 2894   1.524  11.438  10.251 -1.4652  0.4007 -1.2406
  746MOL0     H 2895   1.420  11.605  10.404  0.1091 -1.7753 -2.5215
  746MOL0     H 2896   1.424  11.496  10.541  1.1350  0.0393  0.4254
  746MOL0     H 2897   1.639  11.470  10.700  1.9805  1.2394  1.8448
  746MOL0     H 2898   1.870  11.435  10.758  3.1004 -2.8014 -0.0972
  746MOL0     H 2899   1.944  11.594  10.751  1.4727 -0.6023 -1.1247
  746MOL0     H 2900   2.082  11.396  10.692 -1.3073 -1.8523  0.6854
  746MOL0     H 2901   1.994  11.393  10.532 -0.5007  0.4483  0.0907
  746MOL0     H 2902   2.076  11.617  10.477  0.4365 -2.3814 -2.5408
  746MOL0     H 2903   2.138  11.640  10.640  1.7980  1.1991 -1.5464
  746MOL0     H 2904   2.251  11.440  10.414  0.8917 -1.9458  0.2008
  746MOL0     H 2905   2.324  11.576  10.495 -1.4772  1.1975  1.7973
  746MOL0     H 2906   2.534  11.538  10.514 -1.2553 -0.7122 -0.2191
  746MOL0     H 2907   2.750  11.624  10.560  1.3819  0.0151 -0.4431
  746MOL0     H 2908   2.819  11.504  10.445  2.9905 -1.8243 -0.6909
  746MOL0     H 2909   2.881  11.523  10.605 -1.5645  3.0604  1.7603
  746MOL0     H 2910   3.069  11.232  10.987  0.3818  0.8959 -0.6676
  746MOL0     H 2911   3.254  11.103  11.031 -2.0629  1.0727  1.7467
  746MOL0     H 2912   3.471  11.043  10.713  2.2205  0.9636 -0.4773
  746MOL0     H 2913   3.447  11.123  10.864 -1.3790  0.0917 -2.2505
  746MOL0     H 2914   3.614  10.864  10.800  3.5088 -0.7037  1.1923
  746MOL0     H 2915   3.677  11.018  10.847  0.3993  0.6128 -1.5655
  746MOL0     H 2916   3.692  10.879  11.037  0.7843  0.9362  1.3957
  746MOL0     H 2917   3.521  10.831  11.037 -0.1172  0.1009  0.2330
  746MOL0     H 2918   3.549  10.996  11.217  0.8300  1.8799  0.7218
  746MOL0     H 2919   3.489  11.099  11.081  1.0684  0.8854 -1.9785
  746MOL0     H 2920   3.787  11.072  11.158  0.2744  3.0098  2.0519
  746MOL0     H 2921   3.720  11.149  11.014  2.6752  0.7156  1.7460
  746MOL0     H 2922   3.668  11.213  11.296  0.9376  1.7084  0.7594
  746MOL0     H 2923   3.588  11.290  11.164 -0.7932 -1.2552  0.5950
  746MOL0     H 2924   3.835  11.397  11.096  1.2207  3.2378  1.8824
  746MOL0     H 2925   3.899  11.274  11.200  2.0523  1.7151 -1.4273
  746MOL0     H 2926   3.893  11.508  11.304 -1.6802  1.5143  2.1010
  746MOL0     H 2927   3.810  11.375  11.397  0.7230  0.7791 -0.5781
  746MOL0     H 2928   3.194  10.888  10.668 -1.6954 -0.5179 -0.5619
  746MOL0     H 2929   2.951  10.982  10.659 -1.6109  1.7778  0.3828
  746MOL0     H 2930   2.645  11.126  10.769  1.3752  1.0141  2.5949
  746MOL0     H 2931   2.405  11.179  10.712  0.5601 -0.2235  0.3263
  746MOL0     H 2932   1.487  10.385  10.397  0.0297 -1.2479 -1.0110
  746MOL0     H 2933   1.362  10.186  10.393  0.5219  1.1277 -1.0437
  746MOL0     H 2934   1.062   9.920  10.470  0.1258 -2.4140  0.2213
  746MOL0     H 2935   1.009   9.691  10.393  0.7629 -0.5515 -0.7619
  746MOL0     H 2936   0.790   9.507  10.065  0.8513 -0.2758  1.3063
  746MOL0     H 2937   0.843   9.657  10.003  1.0130 -1.3406 -1.7482
  746MOL0     H 2938   0.997   9.469   9.936 -2.5680  1.9348 -1.5178
  746MOL0     H 2939   1.055   9.450  10.105  3.4882  0.8630 -1.0639
  746MOL0     H 2940   1.072   9.706   9.955 -0.6562  0.1105  0.5613
  746MOL0     H 2941   1.119   9.686  10.109 -0.7279  1.0463 -1.1317
  746MOL0     H 2942   1.248   9.557   9.863  0.2255  2.2525 -1.8826
  746MOL0     H 2943   1.303   9.525  10.030  0.2978  0.3519  1.6676
  746MOL0     H 2944   1.456   9.916   9.904  2.3984 -0.2646  3.4149
  746MOL0     H 2945   0.769   9.847  10.076  0.8204  0.7593 -0.7708
  746MOL0     H 2946   0.835  10.149  10.083 -0.3677 -0.9610 -0.9177
  746MOL0     H 2947   0.697  10.039  10.070 -0.6329 -4.8962  2.5064
  746MOL0     H 2948   0.701  10.159  10.205 -0.1468 -0.1366 -1.2762
  747MOL0     O 2949   2.537   9.250   1.104  0.3309 -0.1537  0.7129
  747MOL0     C 2950   2.495   9.135   1.081 -0.6386 -0.0402  0.0911
  747MOL0     O 2951   2.557   9.017   1.115  0.4829  0.1777  0.3760
  747MOL0     C 2952   2.677   9.019   1.176 -0.5253  0.4517 -0.0344
  747MOL0     C 2953   2.696   8.985   1.308 -0.3128 -0.1763  0.0273
  747MOL0     C 2954   2.827   8.970   1.361 -0.4000  0.5851 -0.7462
  747MOL0     C 2955   2.940   8.999   1.286 -0.4305  0.1975  0.3956
  747MOL0     O 2956   3.063   8.985   1.347 -0.4715 -0.2892  0.2849
  747MOL0     C 2957   3.185   8.989   1.263 -0.3416 -0.6982 -0.5592
  747MOL0     C 2958   3.219   8.860   1.191  0.6901 -0.1576  0.2568
  747MOL0     C 2959   3.337   8.884   1.096  0.0247  0.3453  0.2664
  747MOL0     C 2960   3.303   8.944   0.962  0.6625 -0.1496 -0.1483
  747MOL0     C 2961   3.425   8.981   0.890 -0.1721  0.1407 -0.2232
  747MOL0     C 2962   3.386   9.030   0.746 -0.2257  0.7693 -1.2746
  747MOL0     C 2963   3.493   9.040   0.645  0.0231 -0.9306  0.0773
  747MOL0     C 2964   3.428   9.073   0.499 -0.4331 -0.6800 -0.1414
  747MOL0     N 2965   3.527   9.146   0.416 -0.9168  0.5328  0.2867
  747MOL0     C 2966   3.578   9.087   0.310  0.3784  0.1469 -0.1636
  747MOL0     C 2967   3.638   9.197   0.249 -1.0317  0.5749  0.7205
  747MOL0     C 2968   3.732   9.187   0.128  0.5185  0.1533  0.1129
  747MOL0     C 2969   3.870   9.159   0.192  0.0324 -0.0978  0.8035
  747MOL0     C 2970   3.928   9.249   0.308 -0.1108 -0.6117 -0.1715
  747MOL0     C 2971   3.959   9.393   0.271  1.2038 -0.4740  0.5006
  747MOL0     O 2972   4.041   9.392   0.159  0.5008  0.1006  0.1472
  747MOL0     C 2973   4.175   9.368   0.168  0.0708 -0.5630 -0.3602
  747MOL0     C 2974   4.239   9.329   0.054 -0.1451  0.1162 -0.3740
  747MOL0     C 2975   4.372   9.277   0.052  0.0488  0.2760  0.1313
  747MOL0     C 2976   4.418   9.238  -0.087  0.7936  1.1265  0.0730
  747MOL0     C 2977   4.445   9.276   0.171 -0.1965 -0.5394 -0.2288
  747MOL0     C 2978   4.582   9.224   0.168 -0.0202 -0.4487  0.6775
  747MOL0     O 2979   4.642   9.204   0.290  0.2303 -0.2409  0.6161
  747MOL0     C 2980   4.774   9.164   0.289  0.1636 -0.2491 -0.5372
  747MOL0     C 2981   4.805   9.026   0.261 -0.1379  0.0925  1.2901
  747MOL0     C 2982   4.934   8.995   0.278  0.0521 -0.3368  0.6967
  747MOL0     C 2983   5.041   9.088   0.299 -0.1526 -0.1202  0.0563
  747MOL0     O 2984   5.179   9.062   0.313  0.0348  0.6366  0.3987
  747MOL0     C 2985   5.236   8.926   0.296  0.2540 -0.3032 -0.7515
  747MOL0     C 2986   5.382   8.912   0.304 -0.3913  0.1692 -0.3895
  747MOL0     C 2987   5.424   8.956   0.453 -0.7333 -0.1651  0.6426
  747MOL0     C 2988   5.510   8.841   0.511  0.0362 -0.7864 -0.5965
  747MOL0     C 2989   5.549   8.862   0.659 -0.0809 -1.1016 -0.5457
  747MOL0     C 2990   5.618   8.737   0.717  0.4991 -0.4832 -0.7606
  747MOL0     C 2991   5.665   8.754   0.863  0.3487 -0.2465 -0.0879
  747MOL0     C 2992   5.735   8.634   0.914 -0.2403 -0.1652 -1.0362
  747MOL0    Cl 2993   5.753   8.639   1.099  0.0660  0.2246  0.2370
  747MOL0     C 2994   5.002   9.219   0.326  0.7664 -0.1250 -0.5623
  747MOL0     C 2995   4.870   9.256   0.318 -0.0763 -0.4630 -0.9455
  747MOL0     O 2996   4.637   9.198   0.058  0.5657  0.2638 -0.6533
  747MOL0     C 2997   4.383   9.315   0.296  0.2529 -0.7842 -0.2554
  747MOL0     C 2998   4.247   9.362   0.295  0.5963  0.3326  0.4239
  747MOL0     N 2999   3.619   9.312   0.325  0.6417  0.1711 -0.1825
  747MOL0     N 3000   3.558   9.279   0.434  0.5658  0.0316  0.2512
  747MOL0     C 3001   2.915   9.030   1.151 -1.2000 -0.2655  0.1537
  747MOL0     C 3002   2.792   9.042   1.099 -0.1003 -0.0018  0.6030
  747MOL0     C 3003   2.363   9.118   1.009 -1.1735 -0.3882  0.5195
  747MOL0     C 3004   2.324   8.987   0.985  1.0785  0.3881  0.6314
  747MOL0     C 3005   2.193   8.957   0.938 -0.2536 -0.3541  0.7347
  747MOL0     C 3006   2.098   9.053   0.910 -0.7996  0.3150  0.3226
  747MOL0     O 3007   1.972   9.024   0.862 -0.1101 -0.2662  0.5010
  747MOL0     C 3008   1.855   9.052   0.944  0.3389 -1.1839  1.0655
  747MOL0     C 3009   1.747   8.957   0.900 -0.3425 -0.3789 -0.3900
  747MOL0     C 3010   1.612   9.008   0.952 -0.7340 -0.5276  0.3340
  747MOL0     C 3011   1.506   8.903   0.931 -0.3061 -0.3865 -0.3851
  747MOL0     C 3012   1.395   8.925   1.022  1.1674  0.9314 -0.3431
  747MOL0     C 3013   1.288   8.938   1.073 -1.0421  0.2484 -0.9557
  747MOL0     C 3014   2.130   9.186   0.947  0.1258  0.1852  0.6137
  747MOL0     C 3015   2.259   9.214   1.003 -0.1581 -1.1009  0.2803
  747MOL0     C 3016   2.270   9.359   1.043  0.9277 -0.8529 -1.1935
  747MOL0     H 3017   2.607   8.960   1.364  0.0186 -2.7719 -0.4544
  747MOL0     H 3018   2.820   8.946   1.467 -0.1964  2.7351 -0.1839
  747MOL0     H 3019   3.268   9.018   1.328  0.6259 -1.4337 -1.4294
  747MOL0     H 3020   3.178   9.071   1.192 -2.3313 -0.4290 -0.1040
  747MOL0     H 3021   3.250   8.778   1.257  2.6764  0.0226 -0.3878
  747MOL0     H 3022   3.139   8.815   1.131  2.4414 -2.5186 -0.4607
  747MOL0     H 3023   3.413   8.941   1.150 -0.6548  0.3331  1.2768
  747MOL0     H 3024   3.371   8.782   1.073  0.2590  0.7982 -1.5102
  747MOL0     H 3025   3.234   8.883   0.902 -0.8534  0.2979  1.0603
  747MOL0     H 3026   3.255   9.041   0.977  0.5961  0.1182 -1.8725
  747MOL0     H 3027   3.489   8.894   0.873 -0.7617  0.0601 -2.3889
  747MOL0     H 3028   3.478   9.062   0.941 -0.9840 -0.9009  2.4034
  747MOL0     H 3029   3.326   8.949   0.704  2.4861 -3.4401  2.0798
  747MOL0     H 3030   3.332   9.124   0.751  1.8979  1.9778  1.3537
  747MOL0     H 3031   3.542   8.942   0.633 -0.3196 -0.8841 -2.3231
  747MOL0     H 3032   3.566   9.114   0.679  0.1491 -1.6840  1.5329
  747MOL0     H 3033   3.420   8.975   0.449 -0.0482  0.5780 -2.8523
  747MOL0     H 3034   3.337   9.133   0.507  0.4929  0.5345  1.8908
  747MOL0     H 3035   3.548   8.988   0.278  0.3499 -0.0529  0.4577
  747MOL0     H 3036   3.732   9.280   0.069  2.9233  0.0608 -0.1239
  747MOL0     H 3037   3.719   9.100   0.064  1.7242 -0.2654  0.4299
  747MOL0     H 3038   3.862   9.058   0.234 -1.6835  0.4091  1.8121
  747MOL0     H 3039   3.947   9.159   0.115  0.6798 -1.0774  1.4316
  747MOL0     H 3040   3.871   9.243   0.401  2.6177 -0.2993  1.6435
  747MOL0     H 3041   4.024   9.207   0.340 -0.3297 -1.5919 -0.7653
  747MOL0     H 3042   3.873   9.449   0.232  2.2029  1.5232  0.9855
  747MOL0     H 3043   3.996   9.450   0.357  0.9542  2.8246 -1.3962
  747MOL0     H 3044   4.184   9.344  -0.039  1.3161  2.0424 -1.0021
  747MOL0     H 3045   4.341   9.262  -0.161  0.8012 -1.2584 -0.7826
  747MOL0     H 3046   4.443   9.132  -0.089 -1.6378  0.4567  1.4598
  747MOL0     H 3047   4.507   9.296  -0.116 -0.1289  2.1995 -0.7296
  747MOL0     H 3048   4.727   8.954   0.237  1.6693 -1.8028  0.7621
  747MOL0     H 3049   4.955   8.889   0.264  2.8843  0.3109 -0.7137
  747MOL0     H 3050   5.194   8.851   0.364  1.2203 -0.2447 -0.0671
  747MOL0     H 3051   5.208   8.911   0.191 -3.0678  0.7879 -0.1468
  747MOL0     H 3052   5.416   8.811   0.281  1.3707  0.5667  0.2454
  747MOL0     H 3053   5.429   8.985   0.238 -0.6261  1.2932  0.6471
  747MOL0     H 3054   5.335   8.948   0.516  0.0895 -4.7040  1.6030
  747MOL0     H 3055   5.469   9.056   0.453 -1.6501  0.3783  3.9919
  747MOL0     H 3056   5.603   8.838   0.453  1.1626  2.3640  0.7832
  747MOL0     H 3057   5.457   8.747   0.496 -3.3667  0.3500  2.5847
  747MOL0     H 3058   5.611   8.952   0.659 -2.3860  0.6025 -0.9769
  747MOL0     H 3059   5.454   8.877   0.713 -1.6847 -1.3147 -3.1217
  747MOL0     H 3060   5.700   8.708   0.650  1.4300  0.6536 -0.1436
  747MOL0     H 3061   5.552   8.650   0.710 -1.8974  0.7744  3.2894
  747MOL0     H 3062   5.584   8.781   0.931  0.8034 -0.2783  0.4764
  747MOL0     H 3063   5.740   8.833   0.876 -0.5173  0.5359  0.2580
  747MOL0     H 3064   5.833   8.621   0.866 -0.9306 -0.0304 -2.5373
  747MOL0     H 3065   5.678   8.543   0.892 -1.6019 -0.0793  1.7600
  747MOL0     H 3066   5.075   9.297   0.347  1.3959  0.3525 -3.9104
  747MOL0     H 3067   4.835   9.356   0.339  0.5692 -0.4801  0.2903
  747MOL0     H 3068   4.434   9.320   0.392 -2.3519 -2.5369  1.3302
  747MOL0     H 3069   4.187   9.381   0.383 -2.1592 -1.2254 -0.9611
  747MOL0     H 3070   2.992   9.043   1.076  0.4168  1.7761  2.0244
  747MOL0     H 3071   2.777   9.080   0.998 -2.7340 -0.5956  0.6853
  747MOL0     H 3072   2.395   8.907   1.003  0.4228 -0.5624 -0.8410
  747MOL0     H 3073   2.172   8.853   0.914  0.1299 -0.2517 -0.0827
  747MOL0     H 3074   1.883   9.043   1.049  3.7720  1.1806  0.5080
  747MOL0     H 3075   1.830   9.157   0.926  0.5671 -0.8362  2.6403
  747MOL0     H 3076   1.762   8.858   0.944 -0.9942 -0.5476 -0.5427
  747MOL0     H 3077   1.749   8.951   0.791  1.7350  0.5113 -0.4419
  747MOL0     H 3078   1.632   9.026   1.058  1.3492  0.9470 -0.2471
  747MOL0     H 3079   1.589   9.101   0.900  0.6040  0.1507  0.8992
  747MOL0     H 3080   1.553   8.807   0.953 -0.4650 -0.1659  1.0662
  747MOL0     H 3081   1.472   8.898   0.828  0.5038 -2.0650 -0.5972
  747MOL0     H 3082   1.195   8.948   1.126 -1.3406  1.3213 -1.6459
  747MOL0     H 3083   2.043   9.251   0.948  0.4406  0.6553 -0.5343
  747MOL0     H 3084   2.180   9.413   1.013 -0.0522 -2.1736 -0.7269
  747MOL0     H 3085   2.277   9.361   1.152  0.6874 -3.3973 -1.0737
  747MOL0     H 3086   2.359   9.413   1.008 -0.4255  0.7817 -2.3189
  748MOL0     O 3087   4.341   4.026   6.723 -0.2515 -0.0569  0.5650
  748MOL0     C 3088   4.230   3.982   6.708 -0.2721  0.2133  0.5301
  748MOL0     O 3089   4.200   3.842   6.693  0.1736  0.2884 -0.3306
  748MOL0     C 3090   4.276   3.736   6.660 -0.1499 -0.0967 -0.5295
  748MOL0     C 3091   4.206   3.618   6.669  0.2374  0.5416 -0.1269
  748MOL0     C 3092   4.264   3.495   6.623 -0.3507 -0.3202 -0.0733
  748MOL0     C 3093   4.403   3.494   6.587 -0.8647  0.2164  0.0249
  748MOL0     O 3094   4.453   3.370   6.541  0.3265 -0.0927  0.1368
  748MOL0     C 3095   4.592   3.375   6.502 -0.2980  0.2410 -0.3914
  748MOL0     C 3096   4.636   3.235   6.483  0.6783 -0.6395 -0.4072
  748MOL0     C 3097   4.546   3.146   6.395 -0.2128 -0.6814  0.2910
  748MOL0     C 3098   4.596   3.009   6.354  0.5874 -0.0468  0.3011
  748MOL0     C 3099   4.501   2.945   6.259  0.9080 -0.1467 -0.1773
  748MOL0     C 3100   4.553   2.824   6.174  0.3746 -0.7835 -0.0708
  748MOL0     C 3101   4.676   2.847   6.090 -0.2358 -0.5318  0.5076
  748MOL0     C 3102   4.716   2.721   6.001 -0.2115 -0.5693 -0.6590
  748MOL0     N 3103   4.839   2.747   5.922  0.3784  0.6927  0.3894
  748MOL0     C 3104   4.963   2.744   5.966  0.4884 -0.4908 -0.6788
  748MOL0     C 3105   5.034   2.795   5.861  0.1985  0.2839 -0.0193
  748MOL0     C 3106   5.185   2.789   5.858 -0.3612 -0.3731  0.2489
  748MOL0     C 3107   5.245   2.890   5.960  0.6205  0.1027  0.1900
  748MOL0     C 3108   5.256   3.033   5.895  0.6287 -1.1434 -1.6522
  748MOL0     C 3109   5.277   3.149   5.996  0.0657  0.1641 -0.8591
  748MOL0     O 3110   5.151   3.175   6.050 -0.3693  0.4471  0.0848
  748MOL0     C 3111   5.134   3.275   6.140  0.1819  0.1261  0.8664
  748MOL0     C 3112   5.242   3.352   6.186 -0.7287 -1.2064  0.5202
  748MOL0     C 3113   5.229   3.460   6.273 -0.2392 -0.2616  0.1394
  748MOL0     C 3114   5.347   3.541   6.307 -0.3707  1.0489 -0.4881
  748MOL0     C 3115   5.097   3.484   6.329 -0.6159 -0.3075 -0.1876
  748MOL0     C 3116   5.062   3.593   6.420  0.3436  0.3640 -0.1548
  748MOL0     O 3117   4.934   3.602   6.475 -0.3313  0.0717 -0.7452
  748MOL0     C 3118   4.916   3.715   6.552 -0.0496  0.0256 -0.1376
  748MOL0     C 3119   4.964   3.742   6.679  0.1461  0.3849  0.5150
  748MOL0     C 3120   4.921   3.860   6.740  0.1144 -0.6814 -0.4865
  748MOL0     C 3121   4.819   3.946   6.698 -1.1182 -0.7324  0.0943
  748MOL0     O 3122   4.782   4.053   6.779 -0.1811 -0.5621 -0.2237
  748MOL0     C 3123   4.680   4.134   6.734  0.2198  0.0819  0.0647
  748MOL0     C 3124   4.639   4.244   6.829  0.3262  0.2702  0.2208
  748MOL0     C 3125   4.744   4.358   6.838 -0.9670  0.0502  0.0548
  748MOL0     C 3126   4.862   4.329   6.931 -0.1276  0.0763 -0.0614
  748MOL0     C 3127   4.953   4.454   6.968 -0.3417 -1.1069 -0.3197
  748MOL0     C 3128   4.877   4.564   7.043 -0.5867  0.5002  1.0058
  748MOL0     C 3129   4.963   4.691   7.057  1.3010 -0.3945 -0.1687
  748MOL0     C 3130   4.899   4.784   7.160  0.6644 -0.0030  0.2016
  748MOL0    Cl 3131   4.889   4.715   7.322  0.0105  0.4861  0.2708
  748MOL0     C 3132   4.763   3.913   6.578  0.0463 -0.1891  1.5392
  748MOL0     C 3133   4.811   3.803   6.504 -0.3847  0.8659  0.4168
  748MOL0     O 3134   5.140   3.688   6.424  0.0284 -0.2792 -0.1830
  748MOL0     C 3135   4.991   3.400   6.283 -0.0760 -0.6799  0.2243
  748MOL0     C 3136   5.005   3.302   6.191  0.4003 -0.1573 -0.0010
  748MOL0     N 3137   4.950   2.848   5.762 -0.1774 -0.3712  0.8117
  748MOL0     N 3138   4.834   2.809   5.799  0.2277 -0.6419 -0.1487
  748MOL0     C 3139   4.469   3.619   6.578 -0.7240 -1.1209  0.0580
  748MOL0     C 3140   4.405   3.742   6.616  0.2007  0.0334 -0.4163
  748MOL0     C 3141   4.116   4.073   6.734  0.1085 -0.0253 -1.9195
  748MOL0     C 3142   3.995   4.015   6.756  0.6153  0.6095 -0.2352
  748MOL0     C 3143   3.888   4.092   6.791 -0.5680  0.1781 -0.5874
  748MOL0     C 3144   3.892   4.234   6.795 -0.2520 -0.1835  0.3053
  748MOL0     O 3145   3.777   4.305   6.839 -0.9837  0.1093  0.3008
  748MOL0     C 3146   3.771   4.448   6.831 -0.7544  0.2122 -0.1975
  748MOL0     C 3147   3.646   4.499   6.916  0.4674 -0.5365  0.2639
  748MOL0     C 3148   3.521   4.438   6.860  0.1874  0.7491 -0.0818
  748MOL0     C 3149   3.389   4.503   6.904  0.0438  0.2338  0.2167
  748MOL0     C 3150   3.263   4.439   6.859 -0.7708 -0.5343  0.2672
  748MOL0     C 3151   3.160   4.389   6.825  0.6092  1.1476 -0.2610
  748MOL0     C 3152   4.007   4.295   6.756  0.1856 -0.4338 -0.0664
  748MOL0     C 3153   4.120   4.217   6.732  0.0429  0.1076 -0.4505
  748MOL0     C 3154   4.252   4.302   6.722  0.1605 -1.3162  0.3746
  748MOL0     H 3155   4.101   3.622   6.696 -0.1963 -2.2004 -1.0902
  748MOL0     H 3156   4.209   3.402   6.634  2.2346 -1.8785  0.3723
  748MOL0     H 3157   4.666   3.421   6.568  2.4775 -0.1304 -3.0051
  748MOL0     H 3158   4.618   3.427   6.409 -1.2565  0.6207 -0.4602
  748MOL0     H 3159   4.734   3.252   6.438  1.9604 -1.5204  1.9368
  748MOL0     H 3160   4.654   3.180   6.576 -2.1962 -2.4790 -0.8006
  748MOL0     H 3161   4.462   3.131   6.464  0.0720 -3.0074  0.1794
  748MOL0     H 3162   4.514   3.191   6.301  0.8992  0.6323  0.5069
  748MOL0     H 3163   4.696   3.020   6.311  0.7900 -0.4234  0.6725
  748MOL0     H 3164   4.599   2.951   6.447 -2.8110 -1.5412 -0.3901
  748MOL0     H 3165   4.485   3.018   6.179  0.5119  0.5952  0.5713
  748MOL0     H 3166   4.411   2.923   6.317  1.9645 -0.7642  1.2762
  748MOL0     H 3167   4.583   2.741   6.240  0.8802 -1.3969 -1.0504
  748MOL0     H 3168   4.472   2.789   6.110 -0.5792 -1.5856  1.4946
  748MOL0     H 3169   4.760   2.873   6.155  0.7154  0.5345 -1.1003
  748MOL0     H 3170   4.666   2.936   6.028 -2.0989  0.6907  2.4064
  748MOL0     H 3171   4.737   2.633   6.062 -0.5707 -0.2374 -0.0526
  748MOL0     H 3172   4.633   2.690   5.936  0.5677  1.3014 -2.6649
  748MOL0     H 3173   4.993   2.691   6.056  1.7343 -1.2964 -1.5363
  748MOL0     H 3174   5.230   2.800   5.759  4.3153 -0.2341  2.1169
  748MOL0     H 3175   5.206   2.686   5.889 -0.3747 -0.4621 -0.0403
  748MOL0     H 3176   5.194   2.891   6.056 -6.8868 -0.2965 -3.0827
  748MOL0     H 3177   5.349   2.857   5.973  0.4141 -0.8009 -0.3276
  748MOL0     H 3178   5.337   3.039   5.823  1.5009  2.5722 -0.5719
  748MOL0     H 3179   5.170   3.060   5.832 -1.2963  3.7024  2.3940
  748MOL0     H 3180   5.341   3.111   6.077 -0.1011  2.1022  0.2528
  748MOL0     H 3181   5.320   3.239   5.951 -1.5141  1.6375  0.4145
  748MOL0     H 3182   5.346   3.353   6.157 -1.0807  2.2489 -1.1876
  748MOL0     H 3183   5.363   3.539   6.415  2.3534  0.2251 -0.8161
  748MOL0     H 3184   5.329   3.643   6.272 -1.0483  1.6059  1.3812
  748MOL0     H 3185   5.444   3.501   6.274 -0.8796 -2.8446  2.0363
  748MOL0     H 3186   5.045   3.679   6.713  0.6552 -0.5818 -2.2617
  748MOL0     H 3187   4.952   3.885   6.841 -1.6300  3.5590 -0.8048
  748MOL0     H 3188   4.710   4.176   6.637  1.1875 -2.1297 -0.6591
  748MOL0     H 3189   4.595   4.067   6.716  1.5258 -2.3072  2.1192
  748MOL0     H 3190   4.545   4.291   6.798 -1.0553 -1.1739  1.9430
  748MOL0     H 3191   4.618   4.192   6.924  3.0933 -0.5979  0.4357
  748MOL0     H 3192   4.693   4.449   6.870 -1.5300 -0.2993  0.1654
  748MOL0     H 3193   4.785   4.365   6.736 -0.2041 -0.1108  0.3407
  748MOL0     H 3194   4.925   4.251   6.886  1.7243 -0.5101  3.1295
  748MOL0     H 3195   4.830   4.290   7.028  0.1935  1.1067  0.4727
  748MOL0     H 3196   5.037   4.418   7.027 -0.4991 -0.7589  0.1212
  748MOL0     H 3197   4.997   4.500   6.879  1.2048  0.7170  1.3099
  748MOL0     H 3198   4.845   4.525   7.140 -0.5138 -0.2820  0.7200
  748MOL0     H 3199   4.795   4.598   6.980 -0.1200 -0.1416  0.0177
  748MOL0     H 3200   4.981   4.729   6.956 -1.6378 -2.5741 -1.6487
  748MOL0     H 3201   5.063   4.671   7.098  1.7231 -0.5391 -1.2371
  748MOL0     H 3202   4.799   4.811   7.124 -0.3840 -2.0057  1.4158
  748MOL0     H 3203   4.958   4.876   7.165 -1.5251  1.4263  2.2068
  748MOL0     H 3204   4.696   3.980   6.525  2.6641  0.8884 -0.6911
  748MOL0     H 3205   4.780   3.788   6.401 -0.8855 -2.8402  0.9852
  748MOL0     H 3206   4.887   3.403   6.312 -0.6737 -2.9392 -1.4872
  748MOL0     H 3207   4.925   3.237   6.155  1.5557 -1.4719 -0.3040
  748MOL0     H 3208   4.570   3.634   6.539  0.0413 -2.2041  1.5148
  748MOL0     H 3209   4.443   3.840   6.590 -0.0660  0.3397  0.3090
  748MOL0     H 3210   3.979   3.909   6.777 -2.3269  1.2050  0.9399
  748MOL0     H 3211   3.791   4.049   6.814 -1.8646  2.7438 -0.9298
  748MOL0     H 3212   3.863   4.497   6.864 -0.1148 -0.4086 -1.0084
  748MOL0     H 3213   3.767   4.467   6.723  2.0361 -1.3465 -0.6800
  748MOL0     H 3214   3.640   4.608   6.914 -2.0774 -0.6201 -0.0023
  748MOL0     H 3215   3.662   4.462   7.017  0.9360  2.6007  1.4518
  748MOL0     H 3216   3.536   4.432   6.752 -0.3223 -1.4273 -0.0773
  748MOL0     H 3217   3.512   4.335   6.896 -0.8296  1.0444  0.5693
  748MOL0     H 3218   3.379   4.603   6.861  0.2404 -0.6398 -1.9783
  748MOL0     H 3219   3.376   4.495   7.013  1.1956  0.8681  0.4247
  748MOL0     H 3220   3.074   4.334   6.792  0.8480  0.9009 -0.4798
  748MOL0     H 3221   4.006   4.403   6.750 -2.1120 -0.3714  0.5357
  748MOL0     H 3222   4.314   4.255   6.645  0.3161 -2.8767  1.3961
  748MOL0     H 3223   4.228   4.406   6.701  2.3126  0.3971  4.9379
  748MOL0     H 3224   4.314   4.290   6.812  0.4979 -2.7004 -0.0185
  749MOL0     O 3225   6.377   4.224   3.455  0.6623  0.4003 -0.7766
  749MOL0     C 3226   6.350   4.323   3.398  0.0877 -0.4460  0.0764
  749MOL0     O 3227   6.449   4.399   3.334 -0.0055 -0.6777  0.5326
  749MOL0     C 3228   6.570   4.348   3.297 -0.0406  0.0076  0.1039
  749MOL0     C 3229   6.675   4.415   3.340 -1.1750  0.1043 -0.2748
  749MOL0     C 3230   6.807   4.379   3.309 -0.2203 -0.7483  0.4900
  749MOL0     C 3231   6.826   4.255   3.246 -0.4722  0.4438  0.0811
  749MOL0     O 3232   6.943   4.195   3.227 -0.9637  0.4871  0.1109
  749MOL0     C 3233   7.034   4.262   3.144  0.0149 -0.6291 -0.1517
  749MOL0     C 3234   7.154   4.170   3.097  0.7286  0.0671 -0.0933
  749MOL0     C 3235   7.140   4.107   2.947  0.3681 -0.6407 -0.0932
  749MOL0     C 3236   7.015   4.022   2.927  0.2271  0.2678 -0.0587
  749MOL0     C 3237   7.044   3.919   2.817 -0.0330  0.5808 -0.1294
  749MOL0     C 3238   7.018   3.980   2.681  0.4039  0.1262 -0.3360
  749MOL0     C 3239   7.007   3.875   2.567 -0.8754  0.5345 -0.0646
  749MOL0     C 3240   7.126   3.797   2.535 -0.0766 -0.3136  0.0583
  749MOL0     N 3241   7.233   3.882   2.469  0.2853  0.5933 -0.0377
  749MOL0     C 3242   7.334   3.946   2.536 -0.0772  1.1185 -0.3254
  749MOL0     C 3243   7.419   3.986   2.447 -0.4632 -0.3400  0.5295
  749MOL0     C 3244   7.555   4.034   2.475 -0.0350 -0.1082  0.6404
  749MOL0     C 3245   7.646   3.922   2.420 -0.5033 -0.5479 -0.3922
  749MOL0     C 3246   7.794   3.968   2.440 -0.2299 -0.4894 -0.4150
  749MOL0     C 3247   7.894   3.845   2.439 -0.5037  0.4382 -0.0293
  749MOL0     O 3248   7.894   3.797   2.303 -0.4265  0.6572  0.3660
  749MOL0     C 3249   7.979   3.844   2.211 -0.6957 -0.1796 -0.1761
  749MOL0     C 3250   8.071   3.953   2.231  0.1915 -1.5431  0.9211
  749MOL0     C 3251   8.172   3.995   2.144 -0.3234  0.1270  0.0221
  749MOL0     C 3252   8.250   4.123   2.181  0.0491  0.6444 -0.6690
  749MOL0     C 3253   8.188   3.920   2.030  0.3514 -0.2921  0.4904
  749MOL0     C 3254   8.299   3.933   1.942  0.0113 -0.7801  0.3312
  749MOL0     O 3255   8.294   3.910   1.807  0.0846  0.0964  0.1836
  749MOL0     C 3256   8.383   3.955   1.713 -0.4222 -0.3168  0.5584
  749MOL0     C 3257   8.371   3.894   1.583  0.7872  0.2666 -0.0054
  749MOL0     C 3258   8.453   3.941   1.486 -0.1370 -0.0047  0.7361
  749MOL0     C 3259   8.568   4.029   1.508 -0.0677  0.6071  0.6993
  749MOL0     O 3260   8.656   4.074   1.414 -1.1076  0.1305 -0.0213
  749MOL0     C 3261   8.663   4.001   1.287  0.1179 -0.6930 -0.1462
  749MOL0     C 3262   8.592   4.089   1.189 -0.6553  0.3614 -0.1385
  749MOL0     C 3263   8.690   4.187   1.118 -0.3711  0.8604  0.5847
  749MOL0     C 3264   8.612   4.305   1.062  0.2701 -0.2878 -0.0849
  749MOL0     C 3265   8.692   4.401   0.970 -0.0925  1.0664 -0.4066
  749MOL0     C 3266   8.601   4.478   0.866  0.1291  0.3621  0.0746
  749MOL0     C 3267   8.690   4.568   0.783  0.2480 -0.4414 -0.6970
  749MOL0     C 3268   8.608   4.663   0.695  0.1610  0.1889  0.4346
  749MOL0    Cl 3269   8.724   4.778   0.625 -0.5383  0.4221  0.3673
  749MOL0     C 3270   8.581   4.090   1.635  0.4443  0.2336 -0.7413
  749MOL0     C 3271   8.489   4.048   1.735  0.6442  0.0468 -0.2980
  749MOL0     O 3272   8.405   3.948   2.007 -0.1607  0.3373 -0.1315
  749MOL0     C 3273   8.101   3.810   2.006  1.3601 -0.7662 -0.6222
  749MOL0     C 3274   8.000   3.763   2.099 -0.0792 -0.7662  0.8454
  749MOL0     N 3275   7.361   3.969   2.322  1.2108 -0.8520  0.0818
  749MOL0     N 3276   7.264   3.891   2.337  0.8863  0.1574 -0.7752
  749MOL0     C 3277   6.720   4.180   3.210 -0.0703 -0.2613 -0.7255
  749MOL0     C 3278   6.594   4.228   3.236  0.4991  0.2293 -1.2821
  749MOL0     C 3279   6.217   4.395   3.440 -0.1974 -0.2114 -0.4790
  749MOL0     C 3280   6.112   4.305   3.454  1.1538 -0.5081 -0.2951
  749MOL0     C 3281   5.983   4.363   3.473  0.9804  0.1804 -0.3296
  749MOL0     C 3282   5.959   4.500   3.496  0.0333 -0.7615  0.1622
  749MOL0     O 3283   5.836   4.555   3.514 -0.2037 -0.4805 -0.4124
  749MOL0     C 3284   5.721   4.466   3.518 -0.2252  0.9324  0.1364
  749MOL0     C 3285   5.602   4.550   3.564  0.0339  0.0099 -0.1343
  749MOL0     C 3286   5.555   4.662   3.465 -0.5874  0.1033 -0.0813
  749MOL0     C 3287   5.422   4.723   3.508 -0.1135 -0.4081  0.3944
  749MOL0     C 3288   5.443   4.840   3.598  0.3035  0.3823  0.2321
  749MOL0     C 3289   5.472   4.934   3.677  0.0924 -0.2361 -0.0353
  749MOL0     C 3290   6.072   4.582   3.479  0.3128 -0.1097 -0.1704
  749MOL0     C 3291   6.203   4.536   3.440  0.1663 -0.2986 -1.3474
  749MOL0     C 3292   6.312   4.639   3.429 -0.6681 -0.5253  0.6486
  749MOL0     H 3293   6.649   4.502   3.400 -0.4140 -0.9754  1.7236
  749MOL0     H 3294   6.896   4.436   3.333  0.9267 -1.6375 -1.4368
  749MOL0     H 3295   7.069   4.348   3.202 -0.3878  0.6395 -1.7088
  749MOL0     H 3296   6.991   4.302   3.052  1.8219 -0.7611 -1.1089
  749MOL0     H 3297   7.242   4.235   3.098  0.7915  0.0481 -1.6489
  749MOL0     H 3298   7.163   4.086   3.165  1.1707  0.6450  0.5676
  749MOL0     H 3299   7.152   4.186   2.873  0.5649 -0.4037  0.1876
  749MOL0     H 3300   7.224   4.037   2.933  0.4042 -1.1255  2.0493
  749MOL0     H 3301   7.001   3.966   3.020 -1.6708  1.3087  0.3416
  749MOL0     H 3302   6.924   4.083   2.919 -0.8145 -0.6028  3.3062
  749MOL0     H 3303   6.968   3.843   2.836 -1.9107  2.7080  1.3944
  749MOL0     H 3304   7.142   3.870   2.817  1.9388  4.0932 -1.6272
  749MOL0     H 3305   6.931   4.045   2.680  1.5792  1.7711 -1.1633
  749MOL0     H 3306   7.104   4.041   2.650 -0.9831  2.2969 -0.1201
  749MOL0     H 3307   6.985   3.926   2.472 -0.0750 -0.6352 -0.9049
  749MOL0     H 3308   6.933   3.798   2.589  1.0704 -1.4806 -0.2157
  749MOL0     H 3309   7.171   3.754   2.625  0.0747  2.5392  1.4658
  749MOL0     H 3310   7.098   3.716   2.467  0.3628 -0.7705  0.4160
  749MOL0     H 3311   7.344   3.946   2.644  2.0949  0.9432 -0.4767
  749MOL0     H 3312   7.576   4.049   2.581  0.9455 -0.0058  0.4462
  749MOL0     H 3313   7.572   4.132   2.429 -1.9518  0.0674  0.2234
  749MOL0     H 3314   7.635   3.832   2.482  0.4729  0.2148  0.9384
  749MOL0     H 3315   7.632   3.887   2.317 -3.2200 -0.9570  0.0338
  749MOL0     H 3316   7.819   4.028   2.353  3.5485  0.1660  0.9230
  749MOL0     H 3317   7.798   4.014   2.540  2.1189 -1.8003  0.1793
  749MOL0     H 3318   7.986   3.869   2.492  0.6919 -1.1942 -1.2463
  749MOL0     H 3319   7.842   3.770   2.500  0.2251  0.8217  1.1052
  749MOL0     H 3320   8.066   4.005   2.326 -0.6244 -1.1057  0.6440
  749MOL0     H 3321   8.205   4.170   2.269 -0.1671 -1.8141  0.6142
  749MOL0     H 3322   8.240   4.180   2.088 -0.7695 -0.1917 -1.1092
  749MOL0     H 3323   8.355   4.096   2.194 -0.4780 -0.6877  1.2318
  749MOL0     H 3324   8.292   3.824   1.558 -0.0887  1.7708 -1.7277
  749MOL0     H 3325   8.435   3.892   1.391 -1.5784  1.0439  0.4306
  749MOL0     H 3326   8.769   3.992   1.260  0.3023  0.1704  0.2620
  749MOL0     H 3327   8.624   3.900   1.300 -2.2525  0.3025  1.0551
  749MOL0     H 3328   8.548   4.026   1.111  3.3325 -0.0439 -2.3457
  749MOL0     H 3329   8.502   4.136   1.228  0.2596  1.7914  0.3425
  749MOL0     H 3330   8.736   4.146   1.027 -1.6289 -0.6075  0.5661
  749MOL0     H 3331   8.756   4.227   1.195 -0.3925  0.9825  0.5397
  749MOL0     H 3332   8.568   4.362   1.144  5.2756  1.8972  1.5231
  749MOL0     H 3333   8.528   4.268   1.003  1.5795 -2.9664 -0.4445
  749MOL0     H 3334   8.736   4.485   1.025 -1.2702  1.1422  0.4340
  749MOL0     H 3335   8.768   4.342   0.916 -0.7084  1.3318 -1.6037
  749MOL0     H 3336   8.528   4.540   0.919 -4.5397 -0.9613 -4.0271
  749MOL0     H 3337   8.536   4.418   0.801 -0.8720 -2.1939  3.1740
  749MOL0     H 3338   8.775   4.514   0.741 -0.2268 -2.8828  1.2303
  749MOL0     H 3339   8.734   4.644   0.848  1.7973  0.2389 -2.4370
  749MOL0     H 3340   8.544   4.725   0.758 -1.7258  1.5282 -2.5813
  749MOL0     H 3341   8.553   4.612   0.615  1.4574 -0.1051 -0.2973
  749MOL0     H 3342   8.656   4.168   1.636 -0.5803  1.2594  0.8086
  749MOL0     H 3343   8.506   4.089   1.834 -2.7868 -0.9647  0.8594
  749MOL0     H 3344   8.112   3.745   1.920 -1.0213  0.3818 -1.9045
  749MOL0     H 3345   7.937   3.684   2.060 -2.3736  1.6299 -0.5961
  749MOL0     H 3346   6.733   4.081   3.169  1.0836 -1.4492  2.2090
  749MOL0     H 3347   6.505   4.172   3.210 -0.6050  0.3349  1.8374
  749MOL0     H 3348   6.123   4.200   3.429 -2.0701 -0.7056 -1.3202
  749MOL0     H 3349   5.903   4.290   3.486  1.4277 -0.0526  1.4435
  749MOL0     H 3350   5.713   4.423   3.418  3.0537  0.3622  0.0119
  749MOL0     H 3351   5.735   4.377   3.580  0.6758  0.9771  0.0156
  749MOL0     H 3352   5.617   4.591   3.664 -0.1094 -1.2081  0.3970
  749MOL0     H 3353   5.519   4.479   3.565  1.6915 -2.0726  2.7289
  749MOL0     H 3354   5.627   4.744   3.453  0.1395 -0.3842  0.7815
  749MOL0     H 3355   5.546   4.630   3.361 -1.6911  2.2630 -0.7081
  749MOL0     H 3356   5.353   4.648   3.549 -1.1617 -1.0833 -2.3260
  749MOL0     H 3357   5.372   4.766   3.421 -1.4073 -2.3289  0.1207
  749MOL0     H 3358   5.482   5.015   3.746  0.3993 -1.0569  0.9024
  749MOL0     H 3359   6.064   4.689   3.495  2.9404  0.0925  0.3648
  749MOL0     H 3360   6.274   4.741   3.440 -2.1732 -0.6634 -2.1654
  749MOL0     H 3361   6.389   4.624   3.505 -1.7748 -1.9509  1.5404
  749MOL0     H 3362   6.358   4.633   3.329  0.0846  1.0497  0.8764
  750MOL0     O 3363  10.645   2.762   8.691  0.4966  0.8342  0.2130
  750MOL0     C 3364  10.580   2.665   8.647  0.3541 -0.1594  0.4785
  750MOL0     O 3365  10.616   2.587   8.537 -0.3278 -0.6160 -0.4060
  750MOL0     C 3366  10.736   2.623   8.468  0.1627 -0.5018 -0.6898
  750MOL0     C 3367  10.873   2.621   8.525 -0.2165  0.4408  0.1935
  750MOL0     C 3368  10.985   2.658   8.447 -0.0280 -0.0452 -0.3634
  750MOL0     C 3369  10.968   2.707   8.317 -0.0774 -0.0106 -0.0028
  750MOL0     O 3370  11.067   2.745   8.233  0.1312  0.3131  0.2508
  750MOL0     C 3371  11.193   2.763   8.285 -0.5652 -0.3661  0.2149
  750MOL0     C 3372  11.305   2.807   8.186  1.1068 -0.2618  0.3741
  750MOL0     C 3373  11.332   2.697   8.086  0.3479  1.5057  0.1895
  750MOL0     C 3374  11.423   2.748   7.978 -0.1287 -0.0273  0.6231
  750MOL0     C 3375  11.432   2.641   7.873 -1.2669  0.2420 -0.0322
  750MOL0     C 3376  11.430   2.694   7.738 -0.2755 -0.3509  0.3778
  750MOL0     C 3377  11.543   2.794   7.702  0.3813  0.2903  0.5653
  750MOL0     C 3378  11.524   2.839   7.548  0.0257 -0.2432 -0.0911
  750MOL0     N 3379  11.593   2.973   7.533 -0.1469  0.1115  0.4000
  750MOL0     C 3380  11.688   2.993   7.431 -0.5363  0.1883  0.6421
  750MOL0     C 3381  11.728   3.116   7.437  0.8199 -0.7560 -0.3502
  750MOL0     C 3382  11.832   3.175   7.351  0.4815  0.8333 -0.9585
  750MOL0     C 3383  11.959   3.093   7.352 -0.7772  0.0510 -0.6256
  750MOL0     C 3384  12.078   3.184   7.320 -0.5878 -0.6877  0.0135
  750MOL0     C 3385  12.198   3.096   7.290  0.1693  0.2093  0.8162
  750MOL0     O 3386  12.275   3.055   7.406  0.3923 -0.3334 -0.6280
  750MOL0     C 3387  12.356   3.145   7.469 -0.0726  0.1666  0.1401
  750MOL0     C 3388  12.355   3.172   7.607  0.4439  0.3515  0.3213
  750MOL0     C 3389  12.439   3.266   7.672 -0.4189 -0.1240 -0.2834
  750MOL0     C 3390  12.424   3.279   7.823 -0.1686 -0.0164  0.1012
  750MOL0     C 3391  12.525   3.342   7.591 -1.0137  0.0242 -0.2043
  750MOL0     C 3392  12.619   3.449   7.646 -0.3618  0.3910  0.2302
  750MOL0     O 3393  12.674   3.529   7.552 -0.6745 -0.2405  0.5418
  750MOL0     C 3394  12.781   3.607   7.583 -0.3128 -0.5866  0.3856
  750MOL0     C 3395  12.775   3.748   7.566  0.3522  0.5126 -0.7930
  750MOL0     C 3396  12.891   3.822   7.609 -0.2438  0.2229  0.0250
  750MOL0     C 3397  13.009   3.755   7.664 -0.2665 -0.4186  0.2181
  750MOL0     O 3398  13.113   3.827   7.710  0.3022  0.4962 -0.1108
  750MOL0     C 3399  13.212   3.775   7.804 -1.0784 -0.6815 -0.3340
  750MOL0     C 3400  13.270   3.894   7.882  0.8603 -0.9939 -0.5374
  750MOL0     C 3401  13.178   3.935   7.995 -0.0234 -0.3886 -0.6263
  750MOL0     C 3402  13.244   4.054   8.068  0.3350  0.3911  0.0816
  750MOL0     C 3403  13.171   4.071   8.194  0.1418 -0.4352  0.4975
  750MOL0     C 3404  13.236   3.977   8.306  0.2565  0.6951  0.0559
  750MOL0     C 3405  13.126   3.975   8.425 -1.0447  0.1921 -0.6488
  750MOL0     C 3406  13.086   3.839   8.460 -0.2337 -0.3807 -1.2217
  750MOL0    Cl 3407  12.965   3.791   8.325 -0.4664  0.3332  0.4273
  750MOL0     C 3408  13.014   3.622   7.666 -0.0156 -0.0962 -0.0799
  750MOL0     C 3409  12.898   3.548   7.628  0.1873  0.1623  0.5155
  750MOL0     O 3410  12.651   3.451   7.764 -0.1338  0.2288  0.6391
  750MOL0     C 3411  12.534   3.310   7.455  0.9342  0.2091  0.7833
  750MOL0     C 3412  12.459   3.206   7.395 -1.3127  0.2478 -0.0830
  750MOL0     N 3413  11.654   3.180   7.537 -0.4529  0.1193 -0.4651
  750MOL0     N 3414  11.573   3.098   7.593 -0.2192  0.6073 -0.8736
  750MOL0     C 3415  10.840   2.705   8.256 -1.0686  0.0489  0.4139
  750MOL0     C 3416  10.726   2.669   8.334 -0.2459  0.7500  0.6202
  750MOL0     C 3417  10.461   2.619   8.718  0.6150 -0.7717 -0.4442
  750MOL0     C 3418  10.411   2.498   8.664  0.0797 -0.7297 -0.1293
  750MOL0     C 3419  10.293   2.449   8.712 -0.6747  0.1833 -0.5217
  750MOL0     C 3420  10.231   2.508   8.820  0.3084 -0.4562 -0.8117
  750MOL0     O 3421  10.118   2.456   8.881 -0.0365  0.0030 -0.1356
  750MOL0     C 3422  10.096   2.320   8.853  0.0529  0.1651 -0.2493
  750MOL0     C 3423  10.003   2.250   8.945 -0.4228 -0.8082  0.1362
  750MOL0     C 3424   9.861   2.312   8.954 -0.0702  0.1090  0.6651
  750MOL0     C 3425   9.765   2.227   9.042 -0.0946 -0.2608 -0.3340
  750MOL0     C 3426   9.802   2.252   9.186  0.2433  0.6139  1.3224
  750MOL0     C 3427   9.831   2.242   9.305 -0.5739  0.0167 -0.9338
  750MOL0     C 3428  10.280   2.626   8.876 -0.0175 -0.2259  0.6165
  750MOL0     C 3429  10.406   2.678   8.837 -0.3833  1.4301  0.6901
  750MOL0     C 3430  10.459   2.812   8.891  0.5934  0.0608 -1.0527
  750MOL0     H 3431  10.900   2.591   8.626 -1.2715  1.5882  0.8362
  750MOL0     H 3432  11.083   2.668   8.494  0.6815 -2.9107 -1.0063
  750MOL0     H 3433  11.224   2.665   8.323  2.0277  1.6835  4.0284
  750MOL0     H 3434  11.194   2.845   8.357  1.0183  1.8101 -2.1270
  750MOL0     H 3435  11.264   2.897   8.139  0.6872 -0.0623  1.1042
  750MOL0     H 3436  11.400   2.836   8.232  0.2306 -0.0915  2.1409
  750MOL0     H 3437  11.376   2.612   8.139  2.6269  0.6812 -2.7861
  750MOL0     H 3438  11.241   2.658   8.039 -1.3620  2.5798  2.3797
  750MOL0     H 3439  11.372   2.835   7.935  1.8798 -0.2170 -2.5135
  750MOL0     H 3440  11.524   2.771   8.016  0.4579 -0.3189 -0.7034
  750MOL0     H 3441  11.357   2.562   7.879 -1.0761  0.0862  0.3558
  750MOL0     H 3442  11.520   2.582   7.897  1.3526  2.5852 -2.9156
  750MOL0     H 3443  11.425   2.612   7.667  0.4669  1.3131 -1.6967
  750MOL0     H 3444  11.333   2.745   7.741 -0.4938 -0.3584 -3.1094
  750MOL0     H 3445  11.646   2.761   7.720  0.5889 -0.8396 -2.1657
  750MOL0     H 3446  11.527   2.887   7.757 -1.7349  4.1091 -5.3949
  750MOL0     H 3447  11.565   2.768   7.476 -1.5133 -1.6431  0.3600
  750MOL0     H 3448  11.419   2.843   7.517  0.3926  0.1837 -1.3550
  750MOL0     H 3449  11.737   2.914   7.374  0.0875 -0.4292  1.9649
  750MOL0     H 3450  11.859   3.273   7.391  1.5569 -1.0340  3.4107
  750MOL0     H 3451  11.787   3.192   7.252  0.8730 -0.5529 -1.4067
  750MOL0     H 3452  11.982   3.054   7.452  1.1180  2.3692 -0.0826
  750MOL0     H 3453  11.961   3.002   7.291  1.2145 -0.4591  0.1121
  750MOL0     H 3454  12.064   3.247   7.231  0.0786  0.3452  0.6264
  750MOL0     H 3455  12.094   3.246   7.408  1.3525 -1.1204  0.0185
  750MOL0     H 3456  12.170   3.006   7.235  0.9712  0.3005  0.2531
  750MOL0     H 3457  12.263   3.141   7.214 -1.3732 -2.6445 -2.4649
  750MOL0     H 3458  12.270   3.121   7.652  0.2456 -0.9358 -1.3895
  750MOL0     H 3459  12.354   3.204   7.862  1.4535  0.1258  3.6257
  750MOL0     H 3460  12.388   3.377   7.855 -1.6244  0.3777 -2.4325
  750MOL0     H 3461  12.517   3.251   7.874  1.1340 -1.0414 -2.6384
  750MOL0     H 3462  12.690   3.810   7.541  0.9378  1.9612  0.5774
  750MOL0     H 3463  12.885   3.930   7.609  3.0711  0.5691  2.3694
  750MOL0     H 3464  13.166   3.711   7.880  0.9473 -2.2074 -0.3325
  750MOL0     H 3465  13.290   3.711   7.762 -1.1711 -2.6720  2.2429
  750MOL0     H 3466  13.367   3.877   7.930  1.2759  0.9083 -0.6123
  750MOL0     H 3467  13.284   3.973   7.807  0.1384 -2.4356 -2.2613
  750MOL0     H 3468  13.159   3.850   8.061  3.1969  0.7885  2.1066
  750MOL0     H 3469  13.086   3.973   7.949 -0.6276 -0.5263  0.4397
  750MOL0     H 3470  13.232   4.148   8.013 -2.4208 -0.5865 -1.1589
  750MOL0     H 3471  13.350   4.031   8.086 -0.0144 -0.7282  0.8152
  750MOL0     H 3472  13.182   4.175   8.225 -0.1278 -0.0842 -0.5590
  750MOL0     H 3473  13.067   4.046   8.173  0.2494 -0.2532 -0.2782
  750MOL0     H 3474  13.321   4.033   8.346 -1.3644  2.7486  0.7700
  750MOL0     H 3475  13.272   3.881   8.266  0.7083  0.6652  0.5180
  750MOL0     H 3476  13.036   4.035   8.410 -1.7794 -0.8882 -0.6622
  750MOL0     H 3477  13.177   4.011   8.515 -2.9659  2.5704 -0.3889
  750MOL0     H 3478  13.035   3.830   8.556 -0.0496  3.2007 -0.6598
  750MOL0     H 3479  13.171   3.770   8.454  0.6481  0.6057 -0.5206
  750MOL0     H 3480  13.099   3.566   7.704 -1.2564 -0.5660  2.1803
  750MOL0     H 3481  12.910   3.446   7.663  1.5537 -0.2174 -0.9288
  750MOL0     H 3482  12.591   3.369   7.384 -1.4726  1.1647 -0.4817
  750MOL0     H 3483  12.491   3.195   7.292 -1.0382 -0.7155  0.0981
  750MOL0     H 3484  10.837   2.744   8.154  1.8555 -0.9436 -0.1400
  750MOL0     H 3485  10.626   2.682   8.292 -1.0274  0.6650  2.3654
  750MOL0     H 3486  10.445   2.457   8.570 -0.5649  0.5941 -0.9790
  750MOL0     H 3487  10.253   2.364   8.657 -0.1352  1.4012 -2.9576
  750MOL0     H 3488  10.065   2.302   8.750 -0.9500  1.6988 -0.2545
  750MOL0     H 3489  10.190   2.265   8.863 -1.5559 -2.9290 -0.9096
  750MOL0     H 3490  10.049   2.247   9.044  1.3206 -1.3192 -0.6550
  750MOL0     H 3491  10.000   2.148   8.906  0.0762 -1.3524  1.4568
  750MOL0     H 3492   9.862   2.417   8.983 -0.2776  0.8737 -1.8538
  750MOL0     H 3493   9.812   2.308   8.857 -3.3961  0.1236  2.1995
  750MOL0     H 3494   9.796   2.130   9.004 -0.1997 -0.2203 -0.5250
  750MOL0     H 3495   9.657   2.240   9.034 -0.0959 -0.6269 -0.9040
  750MOL0     H 3496   9.847   2.237   9.411 -3.2042  0.1239 -0.4653
  750MOL0     H 3497  10.224   2.670   8.958 -0.7740 -1.6896  0.9132
  750MOL0     H 3498  10.435   2.896   8.826 -0.3802 -0.5307 -1.5010
  750MOL0     H 3499  10.409   2.821   8.988 -0.4671 -0.8428 -1.4929
  750MOL0     H 3500  10.564   2.816   8.920  0.1459  0.5959  0.6494
  751MOL0     O 3501   6.829  10.266   0.299 -0.5546 -0.0670 -0.1106
  751MOL0     C 3502   6.777  10.374   0.259  0.1396  0.4636 -0.4303
  751MOL0     O 3503   6.830  10.458   0.161 -0.0154 -0.3066  0.0226
  751MOL0     C 3504   6.959  10.442   0.124  0.1618  0.7284 -0.3720
  751MOL0     C 3505   7.053  10.535   0.168 -0.7671 -0.7953  0.9711
  751MOL0     C 3506   7.192  10.512   0.134  0.1485  0.6770  0.2206
  751MOL0     C 3507   7.224  10.398   0.047  0.4376 -0.2104 -0.1639
  751MOL0     O 3508   7.355  10.355   0.010  0.0720 -0.6857  0.1024
  751MOL0     C 3509   7.458  10.457   0.017  0.2208 -0.2508  0.3144
  751MOL0     C 3510   7.434  10.565  -0.088  0.1504 -0.2583 -0.5294
  751MOL0     C 3511   7.507  10.503  -0.208  0.4430 -0.5237  0.0712
  751MOL0     C 3512   7.474  10.582  -0.331  0.8111 -1.6172 -0.5441
  751MOL0     C 3513   7.534  10.528  -0.462  0.5508  1.2050 -0.0991
  751MOL0     C 3514   7.437  10.428  -0.522  0.9886  0.5381 -0.7321
  751MOL0     C 3515   7.489  10.368  -0.650 -0.5335 -0.7105  0.6419
  751MOL0     C 3516   7.371  10.315  -0.731 -0.0838 -0.5536 -0.5402
  751MOL0     N 3517   7.416  10.261  -0.849  0.0384 -0.0175 -0.0007
  751MOL0     C 3518   7.468  10.328  -0.963  1.0166  0.4194  0.0955
  751MOL0     C 3519   7.492  10.228  -1.051 -1.1966  0.4726 -1.0645
  751MOL0     C 3520   7.538  10.246  -1.192  0.0371 -0.2786  0.2673
  751MOL0     C 3521   7.638  10.363  -1.208  0.4147  0.2939 -1.2071
  751MOL0     C 3522   7.779  10.322  -1.150 -0.4101  0.7333 -0.1273
  751MOL0     C 3523   7.879  10.430  -1.174 -0.0239  0.0365 -0.0364
  751MOL0     O 3524   7.857  10.554  -1.105 -0.5457  0.2923  0.2806
  751MOL0     C 3525   7.855  10.558  -0.963  0.6030  0.8858  0.9425
  751MOL0     C 3526   7.781  10.666  -0.912  1.3113  0.0806  0.1407
  751MOL0     C 3527   7.783  10.692  -0.777  0.2720  0.5744 -0.7485
  751MOL0     C 3528   7.716  10.826  -0.737 -0.1156  1.0218 -0.2279
  751MOL0     C 3529   7.854  10.599  -0.692 -0.8535 -0.0593 -0.5801
  751MOL0     C 3530   7.875  10.626  -0.543  0.3020 -0.5963  0.2415
  751MOL0     O 3531   7.908  10.522  -0.460 -0.0059  0.2613 -0.1992
  751MOL0     C 3532   7.908  10.522  -0.319  0.7657 -1.1790  0.0996
  751MOL0     C 3533   7.879  10.640  -0.233  0.7794 -0.0779 -0.8022
  751MOL0     C 3534   7.872  10.626  -0.097 -0.4724  0.5176  0.7800
  751MOL0     C 3535   7.894  10.499  -0.031  0.4177 -0.0976 -0.3059
  751MOL0     O 3536   7.880  10.498   0.107  0.0431 -0.2481  0.2204
  751MOL0     C 3537   7.902  10.373   0.181 -0.5926 -0.6393 -0.3775
  751MOL0     C 3538   8.058  10.340   0.195 -0.1751 -0.4977 -0.2760
  751MOL0     C 3539   8.089  10.189   0.190  0.6069  0.3067  0.8105
  751MOL0     C 3540   8.235  10.160   0.192  0.7501  0.4857 -0.1462
  751MOL0     C 3541   8.252  10.015   0.146 -0.3318 -0.0725 -0.6643
  751MOL0     C 3542   8.398   9.976   0.136  0.5210 -0.0350  0.1220
  751MOL0     C 3543   8.468  10.021   0.009 -0.1054 -0.3153  0.7056
  751MOL0     C 3544   8.620  10.003   0.020 -0.0053  0.1880  0.3365
  751MOL0    Cl 3545   8.684   9.833   0.019  0.3259 -0.1958  0.2527
  751MOL0     C 3546   7.922  10.389  -0.115  0.0393  0.3396 -0.2049
  751MOL0     C 3547   7.931  10.399  -0.254 -0.0054  0.9351  0.4828
  751MOL0     O 3548   7.860  10.746  -0.510 -0.8686 -0.2233  0.3199
  751MOL0     C 3549   7.916  10.473  -0.745  0.1525 -0.6362 -0.3116
  751MOL0     C 3550   7.918  10.465  -0.880  0.4802  0.4738  1.0342
  751MOL0     N 3551   7.467  10.108  -0.981  0.2688  0.3742 -0.0396
  751MOL0     N 3552   7.416  10.127  -0.868 -0.3545  0.5667 -0.3506
  751MOL0     C 3553   7.118  10.309  -0.001  0.1061  0.0289  0.6460
  751MOL0     C 3554   6.989  10.330   0.043 -0.7979  0.3639 -0.1150
  751MOL0     C 3555   6.648  10.426   0.319 -0.1343 -0.9218 -0.0890
  751MOL0     C 3556   6.591  10.549   0.277 -0.2990  0.1254  1.1181
  751MOL0     C 3557   6.466  10.601   0.319  0.1449  0.1165 -0.2956
  751MOL0     C 3558   6.405  10.542   0.427  0.0151  0.5262  0.1611
  751MOL0     O 3559   6.296  10.588   0.487  0.1938  0.0029  0.0494
  751MOL0     C 3560   6.219  10.522   0.587  0.5801  0.1822 -0.3848
  751MOL0     C 3561   6.143  10.411   0.523  0.5942  0.6296 -0.7767
  751MOL0     C 3562   6.061  10.338   0.635  0.4683  0.2393 -0.9880
  751MOL0     C 3563   5.938  10.264   0.584  0.9671 -0.5210  0.3741
  751MOL0     C 3564   5.976  10.174   0.469 -0.6876 -0.0324  0.0843
  751MOL0     C 3565   6.020  10.118   0.369 -0.0251  0.8668  0.5691
  751MOL0     C 3566   6.457  10.417   0.469 -0.3849 -0.7665 -0.1482
  751MOL0     C 3567   6.572  10.363   0.420  0.1462  1.3803 -0.5179
  751MOL0     C 3568   6.607  10.226   0.463 -0.2613  0.2449  0.0712
  751MOL0     H 3569   7.024  10.624   0.223  1.2135 -0.9242  2.3405
  751MOL0     H 3570   7.263  10.584   0.173 -2.0608  1.1363  3.9242
  751MOL0     H 3571   7.553  10.405   0.004  1.7353  2.5181 -0.6763
  751MOL0     H 3572   7.468  10.511   0.112 -2.4419  0.3606  0.3212
  751MOL0     H 3573   7.326  10.575  -0.101 -0.8228  1.9472  5.8030
  751MOL0     H 3574   7.484  10.657  -0.059 -1.3716  0.1021  1.1359
  751MOL0     H 3575   7.613  10.477  -0.197  0.3326 -0.7563  0.6596
  751MOL0     H 3576   7.463  10.403  -0.217  1.9957 -1.3489  1.1149
  751MOL0     H 3577   7.368  10.594  -0.355  0.2833  0.0172  2.2139
  751MOL0     H 3578   7.506  10.686  -0.323 -1.6847 -0.8571  0.1328
  751MOL0     H 3579   7.622  10.464  -0.458 -0.6339 -0.6186 -1.7358
  751MOL0     H 3580   7.550  10.606  -0.537 -0.6683  2.3653  0.8016
  751MOL0     H 3581   7.399  10.348  -0.458 -4.2149  0.3984 -3.5156
  751MOL0     H 3582   7.352  10.493  -0.546  0.5805  0.8425  1.3578
  751MOL0     H 3583   7.549  10.281  -0.620  0.8853  0.1458  0.3954
  751MOL0     H 3584   7.547  10.446  -0.700  0.3714 -3.4086 -2.9651
  751MOL0     H 3585   7.305  10.251  -0.670 -2.3973  0.8786 -1.4028
  751MOL0     H 3586   7.317  10.404  -0.763 -0.0174 -0.4343 -0.3172
  751MOL0     H 3587   7.484  10.434  -0.978 -0.4764  0.5079 -1.1220
  751MOL0     H 3588   7.448  10.271  -1.249  0.7755  0.5286 -0.5879
  751MOL0     H 3589   7.576  10.151  -1.231 -0.0178 -0.5685  0.9148
  751MOL0     H 3590   7.644  10.381  -1.315 -2.4461 -0.0857 -1.5130
  751MOL0     H 3591   7.606  10.459  -1.165  3.6158  0.0508  2.2769
  751MOL0     H 3592   7.776  10.299  -1.043 -0.5725 -0.2519 -0.3424
  751MOL0     H 3593   7.815  10.238  -1.209 -1.2649  1.2836 -1.4792
  751MOL0     H 3594   7.978  10.398  -1.141 -0.2297  0.7883  1.3936
  751MOL0     H 3595   7.879  10.447  -1.282  1.9456 -1.9504 -0.4163
  751MOL0     H 3596   7.734  10.731  -0.985  1.4812 -0.1624 -0.1837
  751MOL0     H 3597   7.623  10.849  -0.789 -2.1337 -0.6112  2.3732
  751MOL0     H 3598   7.787  10.907  -0.754  1.7520 -0.5511 -0.3166
  751MOL0     H 3599   7.682  10.815  -0.634 -1.7420  1.1572 -0.7233
  751MOL0     H 3600   7.869  10.738  -0.279 -1.0062 -1.5600 -3.8950
  751MOL0     H 3601   7.854  10.709  -0.031  0.9447  1.0655  0.5304
  751MOL0     H 3602   7.853  10.384   0.278  0.5367  1.8236  0.0054
  751MOL0     H 3603   7.860  10.287   0.129  0.5804 -1.2017 -0.4301
  751MOL0     H 3604   8.112  10.392   0.115 -2.3455  0.6043 -1.0989
  751MOL0     H 3605   8.095  10.372   0.293 -0.2348 -2.6562  0.5033
  751MOL0     H 3606   8.034  10.134   0.113  2.0637 -1.7908  1.1924
  751MOL0     H 3607   8.054  10.137   0.280 -2.8725 -2.3010 -1.7572
  751MOL0     H 3608   8.283  10.174   0.290  3.4735  2.2446 -1.6046
  751MOL0     H 3609   8.286  10.225   0.120 -2.0977  2.6064 -0.4088
  751MOL0     H 3610   8.212   9.950   0.225  1.8608 -0.3289  0.2926
  751MOL0     H 3611   8.201   9.987   0.053 -1.0339 -1.5972  0.1495
  751MOL0     H 3612   8.409   9.868   0.142 -2.3295 -0.3156  2.9951
  751MOL0     H 3613   8.454  10.009   0.224 -0.1659  0.9745  0.2036
  751MOL0     H 3614   8.446  10.127  -0.007 -2.7787 -0.7445  1.0808
  751MOL0     H 3615   8.435   9.972  -0.082  2.4110  1.5409 -1.3619
  751MOL0     H 3616   8.663  10.046   0.111  3.0839 -2.2527  0.2090
  751MOL0     H 3617   8.666  10.048  -0.069 -1.9239  0.7992 -0.3944
  751MOL0     H 3618   7.927  10.295  -0.060 -0.4461  1.8494  2.6105
  751MOL0     H 3619   7.952  10.309  -0.311  0.0183 -1.5255  3.9905
  751MOL0     H 3620   7.968  10.407  -0.676  2.0325 -0.6817 -1.6982
  751MOL0     H 3621   7.978  10.392  -0.934 -0.8462  0.8461 -1.0177
  751MOL0     H 3622   7.148  10.235  -0.075 -1.5183 -1.9441  1.8216
  751MOL0     H 3623   6.906  10.276  -0.002  0.5782 -1.7745 -0.2590
  751MOL0     H 3624   6.637  10.616   0.205 -3.3259  2.0717  0.8459
  751MOL0     H 3625   6.420  10.684   0.267  0.9016 -0.4220 -1.8840
  751MOL0     H 3626   6.284  10.491   0.669  1.8167  3.7399  0.1427
  751MOL0     H 3627   6.152  10.595   0.634 -1.5440 -3.1831  2.3954
  751MOL0     H 3628   6.212  10.350   0.465  0.5397 -1.5352  1.3172
  751MOL0     H 3629   6.073  10.462   0.456 -1.8124 -1.0923  0.2763
  751MOL0     H 3630   6.135  10.269   0.677  1.2129  1.2802 -0.5652
  751MOL0     H 3631   6.036  10.403   0.720 -1.9980 -1.6841 -0.1307
  751MOL0     H 3632   5.862  10.331   0.541  0.0173 -2.6032 -1.3660
  751MOL0     H 3633   5.906  10.202   0.668  0.7849 -0.3475  0.4338
  751MOL0     H 3634   6.057  10.059   0.288 -1.7036  1.6013 -0.7727
  751MOL0     H 3635   6.406  10.354   0.542 -1.5838  0.1672 -0.1554
  751MOL0     H 3636   6.600  10.164   0.373 -0.8209 -1.6864  1.3904
  751MOL0     H 3637   6.705  10.217   0.511 -0.6393  1.4978  1.1480
  751MOL0     H 3638   6.540  10.188   0.540  0.1767 -2.5308 -0.8172
  752MOL0     O 3639   5.059   9.776  11.057  0.4552  0.0841 -0.1621
  752MOL0     C 3640   5.137   9.701  11.006 -0.8373  0.1332  0.2230
  752MOL0     O 3641   5.124   9.565  10.985  0.1336  0.2444  0.4162
  752MOL0     C 3642   4.997   9.519  10.958  0.1430 -0.1261  0.4231
  752MOL0     C 3643   4.902   9.587  10.879 -0.9334  0.0362 -1.5516
  752MOL0     C 3644   4.776   9.532  10.868 -0.4697  0.6820 -0.5016
  752MOL0     C 3645   4.737   9.420  10.940 -0.7369 -0.2623 -0.6224
  752MOL0     O 3646   4.618   9.360  10.906 -0.2677  0.1379 -0.8395
  752MOL0     C 3647   4.541   9.307  11.013  0.2357  0.4766 -0.6410
  752MOL0     C 3648   4.412   9.379  11.043  0.5371 -0.6195 -0.0456
  752MOL0     C 3649   4.436   9.493  11.143 -0.1880 -0.0871  0.2086
  752MOL0     C 3650   4.301   9.554  11.175  0.2149  0.2959  0.8504
  752MOL0     C 3651   4.328   9.629  11.306  0.3720  0.4239 -0.0508
  752MOL0     C 3652   4.235   9.738  11.364 -0.5714  0.3294  0.4106
  752MOL0     C 3653   4.292   9.797  11.498 -0.6590  0.1587  0.7956
  752MOL0     C 3654   4.201   9.901  11.562  1.2955  0.1236 -0.5132
  752MOL0     N 3655   4.062   9.849  11.573  0.6045  0.3737 -0.0141
  752MOL0     C 3656   4.015   9.777  11.672 -0.8921 -0.4169 -0.3382
  752MOL0     C 3657   3.878   9.785  11.675  0.2757  0.1917 -0.7975
  752MOL0     C 3658   3.778   9.743  11.786  0.8117 -0.1745  0.4091
  752MOL0     C 3659   3.729   9.873  11.848 -0.3139 -0.9715  0.0441
  752MOL0     C 3660   3.840   9.925  11.948 -0.1724  0.3288  0.4646
  752MOL0     C 3661   3.815  10.067  11.988 -0.3180 -0.6685 -0.5834
  752MOL0     O 3662   3.910  10.123  12.088  0.2300  0.1616 -0.0860
  752MOL0     C 3663   4.026  10.190  12.056 -0.7734 -0.3205 -0.5020
  752MOL0     C 3664   4.087  10.187  11.929 -0.6333 -0.3478 -0.2513
  752MOL0     C 3665   4.207  10.250  11.896 -1.4049 -0.1504 -0.4611
  752MOL0     C 3666   4.268  10.224  11.763 -0.0459 -0.2954  0.2902
  752MOL0     C 3667   4.257  10.331  12.002  0.1585 -0.4533 -0.1267
  752MOL0     C 3668   4.372  10.422  11.985 -0.1418  0.1701 -1.2082
  752MOL0     O 3669   4.434  10.461  12.100 -0.4152  0.8664  0.3783
  752MOL0     C 3670   4.529  10.560  12.096 -1.0448  0.0498 -0.2069
  752MOL0     C 3671   4.642  10.577  12.012 -0.2170 -0.0321  0.4214
  752MOL0     C 3672   4.721  10.695  12.010  0.0435 -0.1545 -0.3741
  752MOL0     C 3673   4.686  10.796  12.100 -0.0105 -0.8553 -0.2706
  752MOL0     O 3674   4.750  10.918  12.114 -0.2039  0.0655  0.6359
  752MOL0     C 3675   4.841  10.958  12.006  0.8117 -0.4555  0.1069
  752MOL0     C 3676   4.981  10.931  12.037 -0.0395 -0.2440 -0.2577
  752MOL0     C 3677   5.057  10.970  11.911  0.3078 -0.3730  0.1461
  752MOL0     C 3678   5.204  10.950  11.955  0.1208  1.1262  1.1410
  752MOL0     C 3679   5.310  10.961  11.842  0.6784  0.1685 -0.2670
  752MOL0     C 3680   5.455  10.985  11.896 -0.4591 -0.3805  0.8844
  752MOL0     C 3681   5.568  10.983  11.781  0.8955 -0.2384 -0.2256
  752MOL0     C 3682   5.589  11.116  11.716  0.1141 -0.7988  0.0677
  752MOL0    Cl 3683   5.448  11.173  11.618 -0.0145  0.0055  0.3402
  752MOL0     C 3684   4.585  10.780  12.187 -0.0868  0.7865 -0.2593
  752MOL0     C 3685   4.507  10.664  12.190 -0.4772  0.0854 -0.2055
  752MOL0     O 3686   4.408  10.448  11.875  0.1423 -0.4316  0.1530
  752MOL0     C 3687   4.197  10.343  12.132 -0.9760  1.3318  1.2588
  752MOL0     C 3688   4.089  10.269  12.156  0.1698  0.1903 -0.7174
  752MOL0     N 3689   3.849   9.871  11.570 -0.1201  0.0383  1.2444
  752MOL0     N 3690   3.953   9.907  11.509  0.1087 -0.0168 -0.0113
  752MOL0     C 3691   4.832   9.358  11.026 -0.6642  0.0731  0.6760
  752MOL0     C 3692   4.965   9.403  11.025 -0.3570 -0.7659  0.5251
  752MOL0     C 3693   5.270   9.755  10.945 -0.9968 -0.0950 -0.8292
  752MOL0     C 3694   5.371   9.662  10.903 -0.2492  0.7150  0.1243
  752MOL0     C 3695   5.489   9.704  10.857 -0.7970 -1.1308  1.0221
  752MOL0     C 3696   5.522   9.842  10.853  0.3573  0.9889  0.2380
  752MOL0     O 3697   5.647   9.875  10.804 -0.2328  0.3994  0.4089
  752MOL0     C 3698   5.685  10.005  10.773  0.2096 -0.6782  0.5925
  752MOL0     C 3699   5.795   9.986  10.670  0.0740 -0.0313  1.2362
  752MOL0     C 3700   5.833  10.118  10.595  1.1057 -0.3602 -0.6880
  752MOL0     C 3701   5.941  10.199  10.673  0.2316  0.0812  0.7990
  752MOL0     C 3702   5.975  10.326  10.620  0.9514  0.5468  0.2131
  752MOL0     C 3703   6.002  10.428  10.565  0.9814  0.0454  0.9704
  752MOL0     C 3704   5.430   9.933  10.895  0.5838  0.6329  0.9406
  752MOL0     C 3705   5.303   9.896  10.938  0.1646 -0.3997 -0.4992
  752MOL0     C 3706   5.228  10.008  11.009  0.9412  0.4578  0.3379
  752MOL0     H 3707   4.920   9.679  10.823 -1.1940  0.7659 -0.4605
  752MOL0     H 3708   4.699   9.547  10.792 -2.0935 -2.6805  0.2848
  752MOL0     H 3709   4.588   9.302  11.111  0.0131  0.3808 -0.5389
  752MOL0     H 3710   4.528   9.201  10.986 -0.2598  0.3424  0.0910
  752MOL0     H 3711   4.374   9.431  10.954 -0.3322  1.9966  1.7383
  752MOL0     H 3712   4.339   9.313  11.091 -1.1110  2.1413  1.5281
  752MOL0     H 3713   4.470   9.454  11.240 -1.9791 -1.0935  0.4844
  752MOL0     H 3714   4.516   9.560  11.111  0.0820 -1.4094 -2.1367
  752MOL0     H 3715   4.269   9.628  11.101  0.1454 -0.8778 -0.3338
  752MOL0     H 3716   4.226   9.475  11.166  0.7292  0.0591 -2.6809
  752MOL0     H 3717   4.426   9.676  11.292  2.4809 -2.7241  2.7831
  752MOL0     H 3718   4.344   9.550  11.379 -1.9972 -0.9256 -0.8999
  752MOL0     H 3719   4.221   9.823  11.297 -1.2502 -0.9801 -1.1756
  752MOL0     H 3720   4.140   9.689  11.386 -0.6719 -0.6875 -1.9727
  752MOL0     H 3721   4.380   9.856  11.471  0.1778 -0.5011  1.9855
  752MOL0     H 3722   4.337   9.725  11.566  1.0537  0.9870  0.6071
  752MOL0     H 3723   4.240   9.927  11.661 -2.3187 -0.1751  1.1495
  752MOL0     H 3724   4.197   9.986  11.493  2.2743  0.0785 -0.6433
  752MOL0     H 3725   4.092   9.729  11.732 -1.5334 -1.7755 -0.5469
  752MOL0     H 3726   3.821   9.690  11.872 -0.2161  1.4101  1.9788
  752MOL0     H 3727   3.696   9.679  11.753  2.4858 -2.0061 -0.3651
  752MOL0     H 3728   3.693   9.950  11.779 -1.0824 -1.0703  0.3247
  752MOL0     H 3729   3.644   9.852  11.913  0.5985  0.9755  2.0083
  752MOL0     H 3730   3.862   9.863  12.036  2.0963 -1.0141 -0.9498
  752MOL0     H 3731   3.937   9.918  11.898  0.3303 -0.4597  1.5031
  752MOL0     H 3732   3.793  10.127  11.900 -0.4359 -0.4270 -0.3922
  752MOL0     H 3733   3.726  10.071  12.051  1.5169 -2.3373  2.3762
  752MOL0     H 3734   4.040  10.135  11.846 -1.9964  1.3437 -0.6044
  752MOL0     H 3735   4.242  10.312  11.704 -2.2413 -1.6332 -0.8349
  752MOL0     H 3736   4.229  10.134  11.715  0.9965 -1.0222  0.7591
  752MOL0     H 3737   4.376  10.213  11.780  0.1192 -0.1928 -0.6490
  752MOL0     H 3738   4.662  10.507  11.932  0.5117 -0.8916  1.3222
  752MOL0     H 3739   4.806  10.707  11.944  0.3398 -1.2392 -0.2091
  752MOL0     H 3740   4.823  10.914  11.908  3.5911  0.6381 -0.9949
  752MOL0     H 3741   4.824  11.064  11.989 -0.8880 -1.0553 -2.4877
  752MOL0     H 3742   5.021  10.987  12.122 -1.6444 -1.3339  1.3008
  752MOL0     H 3743   4.986  10.825  12.064 -0.2859 -0.6606 -1.7356
  752MOL0     H 3744   5.041  11.075  11.884 -1.1057 -1.1524 -2.3339
  752MOL0     H 3745   5.028  10.919  11.819  4.3818 -1.5654 -0.6818
  752MOL0     H 3746   5.219  10.847  11.989  0.6293 -0.3918 -3.0654
  752MOL0     H 3747   5.210  11.035  12.024 -3.2350  2.0742  0.4358
  752MOL0     H 3748   5.325  10.872  11.780  0.0399  0.5773 -1.0163
  752MOL0     H 3749   5.278  11.045  11.780 -2.6415  0.2765  1.4049
  752MOL0     H 3750   5.478  10.917  11.978 -1.1545  0.2320  1.6112
  752MOL0     H 3751   5.462  11.082  11.947  2.5807 -0.2844  0.4939
  752MOL0     H 3752   5.543  10.910  11.705  0.3851 -0.3468  0.0393
  752MOL0     H 3753   5.652  10.950  11.842 -0.8705 -1.1441  1.8688
  752MOL0     H 3754   5.681  11.090  11.662 -0.3063  0.0392 -1.0733
  752MOL0     H 3755   5.606  11.180  11.803  0.3064 -3.6451  2.2818
  752MOL0     H 3756   4.561  10.867  12.248  0.0450  0.4012  0.3559
  752MOL0     H 3757   4.424  10.659  12.260 -0.2017 -1.3386  0.0425
  752MOL0     H 3758   4.238  10.411  12.206  0.5054  2.3422 -0.4124
  752MOL0     H 3759   4.046  10.276  12.256  1.0299 -0.2247 -0.3113
  752MOL0     H 3760   4.807   9.269  11.082  0.3564  0.0726  1.1453
  752MOL0     H 3761   5.044   9.352  11.080  0.2630 -0.1339  0.2397
  752MOL0     H 3762   5.353   9.555  10.901 -1.1013  0.8494 -2.7129
  752MOL0     H 3763   5.560   9.631  10.819 -0.9823  0.7223 -3.5405
  752MOL0     H 3764   5.600  10.051  10.722  0.7889  2.4579  2.2120
  752MOL0     H 3765   5.712  10.059  10.864 -1.8771 -0.1348  0.9414
  752MOL0     H 3766   5.746   9.918  10.599  0.6010 -1.0866  1.8529
  752MOL0     H 3767   5.882   9.935  10.713 -1.9305 -3.8563  1.1969
  752MOL0     H 3768   5.870  10.102  10.493  2.5805 -0.7878 -0.1057
  752MOL0     H 3769   5.747  10.185  10.584  1.5322 -0.0011 -2.0447
  752MOL0     H 3770   6.031  10.140  10.693  0.8668  0.0630 -1.7570
  752MOL0     H 3771   5.892  10.220  10.768  0.1139 -0.8072  0.9436
  752MOL0     H 3772   6.021  10.520  10.513  1.2340 -1.9263 -2.7664
  752MOL0     H 3773   5.452  10.039  10.895  0.1204  0.7902  3.4844
  752MOL0     H 3774   5.223   9.978  11.114  3.4400  1.1719  0.7285
  752MOL0     H 3775   5.278  10.106  11.010 -1.0288  1.5526  2.2485
  752MOL0     H 3776   5.130  10.012  10.962  0.7391 -2.1551  0.3904
  753MOL0     O 3777  10.187  10.605   5.425  0.6266 -0.7093  0.2042
  753MOL0     C 3778  10.165  10.686   5.510  0.1326 -0.1615  0.1816
  753MOL0     O 3779  10.076  10.789   5.497  0.4729  0.1821  0.1041
  753MOL0     C 3780  10.051  10.823   5.371 -0.1310  0.2837 -0.4854
  753MOL0     C 3781  10.141  10.906   5.300  0.3262  0.6324  0.3029
  753MOL0     C 3782  10.122  10.933   5.164 -0.4587  0.8241 -0.6427
  753MOL0     C 3783  10.005  10.892   5.097 -1.0569 -0.5363 -0.7481
  753MOL0     O 3784   9.974  10.919   4.964 -0.0403 -0.6116 -0.5337
  753MOL0     C 3785  10.079  11.000   4.893  1.9466 -0.2144  0.0060
  753MOL0     C 3786  10.035  11.002   4.749 -0.4785  0.4651 -0.3554
  753MOL0     C 3787  10.139  11.096   4.681  0.8858  0.1806  0.8076
  753MOL0     C 3788  10.099  11.109   4.536  0.1805  0.0575 -0.1918
  753MOL0     C 3789  10.208  11.155   4.436  0.1669  0.1419 -0.1623
  753MOL0     C 3790  10.227  11.309   4.462 -0.1804  0.7513 -0.2452
  753MOL0     C 3791  10.354  11.348   4.377 -0.6326  0.0009 -0.7977
  753MOL0     C 3792  10.367  11.500   4.376 -0.5531 -0.2865  0.1399
  753MOL0     N 3793  10.396  11.557   4.504  0.8897 -0.4201  0.0807
  753MOL0     C 3794  10.514  11.568   4.572 -0.4540  0.5278 -1.1977
  753MOL0     C 3795  10.473  11.648   4.674  0.1786 -0.0350  0.1017
  753MOL0     C 3796  10.574  11.713   4.775 -0.0347  0.4428 -0.0471
  753MOL0     C 3797  10.647  11.831   4.719  0.0407  0.0906  0.5117
  753MOL0     C 3798  10.722  11.910   4.830 -0.1205 -0.1593 -0.5337
  753MOL0     C 3799  10.818  12.013   4.779 -0.0364 -1.0341 -1.4143
  753MOL0     O 3800  10.748  12.102   4.685 -0.3395  0.9130 -0.0329
  753MOL0     C 3801  10.810  12.212   4.636 -0.8183 -1.0229  0.1889
  753MOL0     C 3802  10.724  12.308   4.579  0.4881 -0.6715  0.3778
  753MOL0     C 3803  10.765  12.438   4.542 -0.1569 -0.7580  0.2764
  753MOL0     C 3804  10.662  12.531   4.485 -0.3200  0.2573 -0.5162
  753MOL0     C 3805  10.904  12.474   4.553  0.0249  0.2454 -0.4432
  753MOL0     C 3806  10.962  12.604   4.523  0.8698 -0.6689 -0.0389
  753MOL0     O 3807  10.895  12.695   4.442 -0.4391  0.0162 -0.1719
  753MOL0     C 3808  10.941  12.818   4.406  0.0869  0.8235 -0.5903
  753MOL0     C 3809  11.072  12.868   4.416 -0.4781  0.4929 -0.0683
  753MOL0     C 3810  11.113  12.989   4.362  0.1617  0.1289  0.5707
  753MOL0     C 3811  11.020  13.079   4.323 -0.4063 -0.5408  0.9750
  753MOL0     O 3812  11.075  13.206   4.297 -0.1699 -0.0962  0.0440
  753MOL0     C 3813  11.032  13.275   4.178  0.9162 -0.6439 -0.4522
  753MOL0     C 3814  11.156  13.338   4.110  0.5973  0.4426 -1.4347
  753MOL0     C 3815  11.268  13.232   4.068  0.7124 -1.4830  0.9358
  753MOL0     C 3816  11.205  13.137   3.961 -0.2032  0.9266 -0.3871
  753MOL0     C 3817  11.311  13.044   3.888  0.2557  0.9450  0.4558
  753MOL0     C 3818  11.232  12.923   3.829 -0.3099 -0.0163  0.0018
  753MOL0     C 3819  11.229  12.804   3.925 -0.1894  0.2615 -0.2434
  753MOL0     C 3820  11.127  12.703   3.876 -0.3899 -0.9583 -0.7013
  753MOL0    Cl 3821  10.962  12.776   3.901 -0.1373  0.6415 -0.5515
  753MOL0     C 3822  10.892  13.039   4.312  0.0713 -0.9592 -1.1275
  753MOL0     C 3823  10.851  12.911   4.354 -0.0318  0.1507 -0.0827
  753MOL0     O 3824  11.074  12.631   4.576  0.0161 -0.4469 -0.3321
  753MOL0     C 3825  10.987  12.376   4.609  0.3009  0.1690  0.9655
  753MOL0     C 3826  10.943  12.250   4.651 -0.4015  0.3692  0.2354
  753MOL0     N 3827  10.339  11.665   4.672 -0.3357  0.0992  0.1386
  753MOL0     N 3828  10.289  11.608   4.576 -0.2118  0.2904  0.2101
  753MOL0     C 3829   9.915  10.822   5.174 -0.3458 -0.7950  0.0766
  753MOL0     C 3830   9.937  10.782   5.309  0.6242 -0.6454 -0.0496
  753MOL0     C 3831  10.219  10.672   5.644  0.8929 -0.7031  0.6004
  753MOL0     C 3832  10.278  10.782   5.704  0.4102 -0.5155 -0.2343
  753MOL0     C 3833  10.334  10.777   5.827  0.0691 -0.2569 -0.7862
  753MOL0     C 3834  10.333  10.662   5.905  0.2355 -0.0895  0.7629
  753MOL0     O 3835  10.392  10.648   6.028 -0.1480  0.2970 -0.5112
  753MOL0     C 3836  10.530  10.701   6.052  0.2151  0.3093 -0.1593
  753MOL0     C 3837  10.538  10.799   6.166 -0.0053 -0.1700 -0.7893
  753MOL0     C 3838  10.523  10.717   6.293  0.8837 -0.7557  0.7136
  753MOL0     C 3839  10.648  10.673   6.369  0.8543  0.0781  0.9939
  753MOL0     C 3840  10.730  10.574   6.297  0.2760 -0.4264 -0.6335
  753MOL0     C 3841  10.784  10.480   6.238 -0.0112  0.1196 -0.5995
  753MOL0     C 3842  10.265  10.557   5.857 -0.5379  0.4327  0.2524
  753MOL0     C 3843  10.202  10.555   5.725 -1.0073 -0.1543  0.3252
  753MOL0     C 3844  10.128  10.431   5.680 -0.8855 -0.1354 -0.6555
  753MOL0     H 3845  10.237  10.931   5.344  0.3388  1.3051 -0.0940
  753MOL0     H 3846  10.201  10.986   5.111  0.8704 -2.2597 -1.9919
  753MOL0     H 3847  10.171  10.944   4.909  1.7158 -0.2336  1.3483
  753MOL0     H 3848  10.094  11.102   4.926  1.2570  0.7827 -2.4880
  753MOL0     H 3849  10.024  10.900   4.711 -0.0203  0.6336 -0.9534
  753MOL0     H 3850   9.937  11.049   4.751 -0.0447  1.4054 -0.6820
  753MOL0     H 3851  10.136  11.198   4.719  0.2483  0.1061  0.9672
  753MOL0     H 3852  10.240  11.057   4.700  0.4031 -0.9742  1.1258
  753MOL0     H 3853  10.088  11.004   4.506  3.5789 -0.7944  1.0881
  753MOL0     H 3854  10.007  11.166   4.520  0.7355  0.7026 -1.2312
  753MOL0     H 3855  10.191  11.133   4.331  3.2306  2.8778 -1.4204
  753MOL0     H 3856  10.300  11.099   4.452  1.0243  0.6934 -2.8260
  753MOL0     H 3857  10.140  11.357   4.416  2.1392  1.5758 -4.1433
  753MOL0     H 3858  10.236  11.337   4.568 -0.2524 -0.4022  0.0808
  753MOL0     H 3859  10.335  11.323   4.272  4.5647  0.3589 -2.1483
  753MOL0     H 3860  10.444  11.296   4.412 -2.5268 -3.2179 -0.3304
  753MOL0     H 3861  10.443  11.534   4.305  0.6397 -0.3283  1.3476
  753MOL0     H 3862  10.274  11.533   4.330 -0.1708 -0.6126 -0.8922
  753MOL0     H 3863  10.621  11.562   4.560  0.8867  1.9567  5.7856
  753MOL0     H 3864  10.646  11.637   4.805 -1.4595  0.0400  2.6284
  753MOL0     H 3865  10.535  11.731   4.876  3.6106  0.7476  1.4554
  753MOL0     H 3866  10.713  11.798   4.638 -2.0572  1.1971 -1.7782
  753MOL0     H 3867  10.573  11.893   4.668 -0.3050 -2.0556 -1.7560
  753MOL0     H 3868  10.649  11.961   4.895 -0.0737 -0.6883 -0.0577
  753MOL0     H 3869  10.784  11.838   4.885  1.7984  1.3194 -0.6536
  753MOL0     H 3870  10.842  12.077   4.865 -0.3523  0.7316 -2.5847
  753MOL0     H 3871  10.908  11.964   4.741 -1.2939 -2.2767 -2.9314
  753MOL0     H 3872  10.618  12.289   4.565  0.4991  0.3318 -1.2974
  753MOL0     H 3873  10.559  12.496   4.474 -1.3363  2.3866  1.4153
  753MOL0     H 3874  10.688  12.565   4.385 -1.0501  4.9013  0.6188
  753MOL0     H 3875  10.654  12.624   4.542 -1.4518 -0.6624  0.8974
  753MOL0     H 3876  11.152  12.803   4.448 -1.0291  0.0464  0.4413
  753MOL0     H 3877  11.220  13.009   4.362  0.3269 -0.4922  2.5897
  753MOL0     H 3878  10.989  13.202   4.109  1.2612  0.5940 -2.0272
  753MOL0     H 3879  10.971  13.359   4.210  1.6386 -0.5599  0.7739
  753MOL0     H 3880  11.128  13.403   4.027  3.6558  1.7551 -1.5487
  753MOL0     H 3881  11.207  13.410   4.174  1.2667 -2.0636  1.0738
  753MOL0     H 3882  11.289  13.172   4.157  0.3345  0.8078  2.6620
  753MOL0     H 3883  11.358  13.280   4.028 -1.8037  3.5193  0.4676
  753MOL0     H 3884  11.143  13.193   3.890  0.3241  0.6870 -1.0507
  753MOL0     H 3885  11.124  13.085   4.013  0.1771  2.1451  1.4982
  753MOL0     H 3886  11.363  13.091   3.804  1.1274 -2.7470 -1.2999
  753MOL0     H 3887  11.387  13.020   3.962  0.8417  3.3789  0.7386
  753MOL0     H 3888  11.296  12.900   3.744  1.9478  0.8985  1.3459
  753MOL0     H 3889  11.134  12.960   3.798 -0.1602  0.9827  0.6805
  753MOL0     H 3890  11.208  12.831   4.028  0.6607 -1.3755  0.3885
  753MOL0     H 3891  11.324  12.751   3.935  0.0504  0.6815 -0.2502
  753MOL0     H 3892  11.133  12.609   3.932  2.0591 -0.7584 -0.5066
  753MOL0     H 3893  11.141  12.694   3.768  1.2852 -0.8963 -0.5265
  753MOL0     H 3894  10.817  13.115   4.293 -2.4676 -2.9806  0.1754
  753MOL0     H 3895  10.748  12.886   4.378  0.2974  2.1364  4.2614
  753MOL0     H 3896  11.091  12.403   4.623  0.1748 -0.2686  3.2726
  753MOL0     H 3897  11.001  12.172   4.699 -1.1899  1.0161  2.3984
  753MOL0     H 3898   9.825  10.788   5.123 -0.3575 -0.6004 -0.0317
  753MOL0     H 3899   9.866  10.721   5.364 -0.8689  0.3485 -0.8021
  753MOL0     H 3900  10.288  10.868   5.638 -0.9750  0.7370  1.0955
  753MOL0     H 3901  10.370  10.864   5.880 -2.0517 -0.1822  0.6822
  753MOL0     H 3902  10.597  10.616   6.070  0.2080  0.1582 -0.8113
  753MOL0     H 3903  10.564  10.742   5.956 -0.3791 -1.0120 -0.9605
  753MOL0     H 3904  10.457  10.872   6.158  1.3255  1.2684 -1.6802
  753MOL0     H 3905  10.631  10.853   6.151 -0.8714  2.3103  1.9587
  753MOL0     H 3906  10.472  10.787   6.359  1.0091  1.5329 -1.4889
  753MOL0     H 3907  10.464  10.627   6.272 -0.0917  0.2695 -1.0609
  753MOL0     H 3908  10.616  10.622   6.460  1.4305  1.0812  1.7827
  753MOL0     H 3909  10.709  10.762   6.390 -1.7437  2.4870 -0.8511
  753MOL0     H 3910  10.826  10.391   6.196 -1.1081 -0.6376 -0.1543
  753MOL0     H 3911  10.267  10.462   5.909 -0.6010 -0.5014 -1.3883
  753MOL0     H 3912  10.208  10.363   5.649  2.1135  3.0113 -0.4604
  753MOL0     H 3913  10.069  10.391   5.764 -0.1302 -0.9027 -0.4840
  753MOL0     H 3914  10.059  10.454   5.599 -3.2982  3.3941  2.0684
  754MOL0     O 3915   0.122   5.770   9.038 -0.6054  1.0437  0.0500
  754MOL0     C 3916   0.158   5.850   9.123  0.3592  1.0837  0.2914
  754MOL0     O 3917   0.119   5.987   9.120  1.0188  0.1646  0.2645
  754MOL0     C 3918  -0.018   6.025   9.105 -0.1565  0.3669  0.5382
  754MOL0     C 3919  -0.066   6.077   8.981  0.9328 -0.3517  0.4728
  754MOL0     C 3920  -0.206   6.088   8.959 -0.5815  0.8843 -0.3321
  754MOL0     C 3921  -0.299   6.057   9.060 -0.6216  0.2999  0.7740
  754MOL0     O 3922  -0.433   6.058   9.029 -0.1067 -0.2529 -0.3724
  754MOL0     C 3923  -0.511   5.951   9.077  0.2818 -0.1745  0.0979
  754MOL0     C 3924  -0.651   5.992   9.119 -0.6298 -0.2555  1.5310
  754MOL0     C 3925  -0.744   6.036   9.002 -0.3263  0.7916 -0.6670
  754MOL0     C 3926  -0.815   6.161   9.049 -0.7526 -0.6360 -0.7784
  754MOL0     C 3927  -0.713   6.288   9.046  0.7244  0.4916  0.7013
  754MOL0     C 3928  -0.799   6.426   9.030 -0.8676  0.1778 -0.4303
  754MOL0     C 3929  -0.883   6.450   9.151  0.4164 -0.0447 -0.5486
  754MOL0     C 3930  -0.950   6.583   9.157  0.4308  0.4056 -1.3020
  754MOL0     N 3931  -1.058   6.588   9.258 -0.2100  0.7300 -0.4082
  754MOL0     C 3932  -1.164   6.669   9.241 -0.1123 -0.5164  0.2831
  754MOL0     C 3933  -1.234   6.660   9.358 -1.1654  0.2429  0.1827
  754MOL0     C 3934  -1.363   6.720   9.391  0.6641 -0.3582 -0.8873
  754MOL0     C 3935  -1.484   6.636   9.332  1.2028  0.0716 -0.7140
  754MOL0     C 3936  -1.609   6.719   9.323 -0.1903  0.4621  0.9973
  754MOL0     C 3937  -1.609   6.802   9.196 -0.6909 -0.2237  0.1965
  754MOL0     O 3938  -1.735   6.864   9.178  0.5259  0.1960 -0.3522
  754MOL0     C 3939  -1.760   6.948   9.069  0.4943 -1.0305 -0.8986
  754MOL0     C 3940  -1.861   7.045   9.069  0.4022 -0.1201 -0.2088
  754MOL0     C 3941  -1.894   7.122   8.959 -0.5586  1.0295  0.0970
  754MOL0     C 3942  -2.019   7.200   8.959  1.2998 -0.1466  0.5671
  754MOL0     C 3943  -1.810   7.121   8.845 -0.2222  0.0359 -0.2283
  754MOL0     C 3944  -1.831   7.208   8.730  0.3259  0.5780 -0.1648
  754MOL0     O 3945  -1.788   7.168   8.606 -0.3758 -0.5161 -0.7350
  754MOL0     C 3946  -1.848   7.214   8.489 -0.1066  0.4970  0.1962
  754MOL0     C 3947  -1.980   7.269   8.466  0.0620  0.0518 -0.2187
  754MOL0     C 3948  -2.028   7.279   8.334 -0.6774  0.2789 -0.2163
  754MOL0     C 3949  -1.946   7.249   8.228 -0.5016  0.6482  0.3546
  754MOL0     O 3950  -1.974   7.265   8.093  0.6234  0.2426 -0.4419
  754MOL0     C 3951  -2.117   7.268   8.062  0.2291 -0.5004  0.2226
  754MOL0     C 3952  -2.132   7.285   7.912 -1.7761  0.8904  0.2059
  754MOL0     C 3953  -2.276   7.304   7.885  0.1101  0.7595 -0.8129
  754MOL0     C 3954  -2.303   7.327   7.733 -0.2291 -0.0283 -1.1143
  754MOL0     C 3955  -2.440   7.384   7.707 -0.2611  0.3535 -0.2872
  754MOL0     C 3956  -2.436   7.406   7.551 -0.2090 -0.1218  0.0473
  754MOL0     C 3957  -2.565   7.472   7.501 -0.4515  0.4098 -0.3269
  754MOL0     C 3958  -2.549   7.505   7.351  0.2072  0.2040 -0.8389
  754MOL0    Cl 3959  -2.709   7.542   7.287  0.0988 -0.1060 -0.0208
  754MOL0     C 3960  -1.817   7.197   8.247 -0.4470  0.1103 -0.3344
  754MOL0     C 3961  -1.773   7.183   8.375  0.3003  0.6799  0.3412
  754MOL0     O 3962  -1.883   7.317   8.741 -0.1162  0.1168  0.0764
  754MOL0     C 3963  -1.700   7.027   8.848  0.3832 -0.6377 -0.5871
  754MOL0     C 3964  -1.680   6.936   8.955  0.0571 -0.3586  0.0016
  754MOL0     N 3965  -1.152   6.581   9.444  0.7858 -0.6364  1.0743
  754MOL0     N 3966  -1.049   6.533   9.387 -0.2035  0.2980  0.8521
  754MOL0     C 3967  -0.248   6.032   9.189 -0.1650  0.3491  0.2635
  754MOL0     C 3968  -0.114   6.012   9.205 -0.5158 -0.6646 -1.1074
  754MOL0     C 3969   0.273   5.813   9.207 -0.0065  0.3102 -0.3474
  754MOL0     C 3970   0.280   5.684   9.254 -0.1197  0.4302  0.5313
  754MOL0     C 3971   0.382   5.638   9.339  0.5824  0.4110 -0.3170
  754MOL0     C 3972   0.482   5.729   9.382 -0.0036  0.4918 -0.8582
  754MOL0     O 3973   0.575   5.684   9.471 -0.7347  0.9887 -0.0861
  754MOL0     C 3974   0.569   5.567   9.556 -0.5863 -0.1600 -0.1183
  754MOL0     C 3975   0.696   5.557   9.644 -1.0187 -0.1690 -0.0515
  754MOL0     C 3976   0.674   5.428   9.714  0.9253  0.3591  0.6525
  754MOL0     C 3977   0.804   5.368   9.772 -0.2384 -0.0170  0.7867
  754MOL0     C 3978   0.779   5.265   9.879 -0.4131  0.2182 -0.2954
  754MOL0     C 3979   0.758   5.182   9.966  0.7547 -0.1793 -0.3351
  754MOL0     C 3980   0.481   5.862   9.329  0.1236  0.2062  0.2969
  754MOL0     C 3981   0.375   5.901   9.241 -0.0193 -0.1598  0.6697
  754MOL0     C 3982   0.381   6.045   9.191 -0.2370  1.2914 -0.0019
  754MOL0     H 3983  -0.005   6.089   8.892 -2.3921  0.2918 -1.9166
  754MOL0     H 3984  -0.247   6.096   8.859 -2.3295  1.8584  0.4190
  754MOL0     H 3985  -0.464   5.880   9.146 -0.7565 -1.9402 -0.9372
  754MOL0     H 3986  -0.529   5.892   8.987 -0.0756  1.5942 -1.0421
  754MOL0     H 3987  -0.686   5.894   9.151  0.6027 -1.2191  0.0889
  754MOL0     H 3988  -0.647   6.058   9.206  2.1682 -0.1707  1.4291
  754MOL0     H 3989  -0.691   6.047   8.907 -0.6327  0.2196 -0.9030
  754MOL0     H 3990  -0.818   5.956   8.990 -1.8839  2.1774 -0.6960
  754MOL0     H 3991  -0.904   6.180   8.987 -1.3687 -0.7829  0.0439
  754MOL0     H 3992  -0.837   6.144   9.155  2.1346 -0.1207 -0.0234
  754MOL0     H 3993  -0.661   6.280   8.950  2.0323  0.5698  1.3907
  754MOL0     H 3994  -0.658   6.286   9.140  1.7628 -2.2193  0.1142
  754MOL0     H 3995  -0.724   6.505   9.024 -2.3017  1.5840 -0.5740
  754MOL0     H 3996  -0.858   6.423   8.938 -0.1193  1.4347 -0.9810
  754MOL0     H 3997  -0.804   6.443   9.227  0.0764  0.5214 -0.1368
  754MOL0     H 3998  -0.942   6.367   9.192 -0.1117  1.6756  2.5199
  754MOL0     H 3999  -0.879   6.666   9.170 -0.4475  1.0048 -0.1581
  754MOL0     H 4000  -0.999   6.605   9.062  0.8798 -1.5083 -2.0189
  754MOL0     H 4001  -1.201   6.730   9.160  1.8051 -0.9721 -0.9995
  754MOL0     H 4002  -1.377   6.815   9.337  0.1871 -0.2342 -0.5487
  754MOL0     H 4003  -1.370   6.732   9.499 -1.5939  0.6447 -1.0960
  754MOL0     H 4004  -1.468   6.590   9.234  1.8736 -0.8083 -0.2057
  754MOL0     H 4005  -1.510   6.549   9.393 -3.7770 -0.7125 -3.3682
  754MOL0     H 4006  -1.687   6.643   9.311  0.1978  0.2435 -0.2770
  754MOL0     H 4007  -1.638   6.793   9.399 -2.0893  0.6781  0.1323
  754MOL0     H 4008  -1.535   6.881   9.208 -1.9406  0.6487  2.7955
  754MOL0     H 4009  -1.580   6.749   9.105  1.1538 -1.8647  1.6590
  754MOL0     H 4010  -1.926   7.039   9.156  0.1497  1.4418 -0.2679
  754MOL0     H 4011  -2.061   7.193   8.858  1.0000  0.8710  0.6137
  754MOL0     H 4012  -2.005   7.307   8.976 -2.5650  0.6083  0.0741
  754MOL0     H 4013  -2.089   7.159   9.033 -1.8085  2.3835 -0.7300
  754MOL0     H 4014  -2.045   7.300   8.546 -0.4679  3.8068 -1.9194
  754MOL0     H 4015  -2.129   7.315   8.318  0.4765  2.3986 -3.9458
  754MOL0     H 4016  -2.161   7.175   8.100 -0.3997 -0.3894 -0.2124
  754MOL0     H 4017  -2.162   7.352   8.116  1.2780  1.0974 -1.3023
  754MOL0     H 4018  -2.075   7.369   7.873 -0.9472  0.0029 -0.5731
  754MOL0     H 4019  -2.101   7.191   7.865 -1.4279  1.0171  0.1731
  754MOL0     H 4020  -2.309   7.395   7.936  1.2343  1.9254 -2.1143
  754MOL0     H 4021  -2.334   7.216   7.916  1.2565 -0.8027 -2.8460
  754MOL0     H 4022  -2.293   7.229   7.685  1.1926  0.4448 -1.8594
  754MOL0     H 4023  -2.237   7.397   7.682 -0.4982  0.5851 -0.6390
  754MOL0     H 4024  -2.511   7.310   7.746  2.1592 -1.1576  1.5180
  754MOL0     H 4025  -2.448   7.481   7.756 -3.1281  0.2187 -0.3008
  754MOL0     H 4026  -2.418   7.311   7.500 -1.0096  0.1282 -0.7404
  754MOL0     H 4027  -2.350   7.470   7.530 -0.2179  0.2858  1.1776
  754MOL0     H 4028  -2.587   7.564   7.555  1.8288  2.4709 -2.6020
  754MOL0     H 4029  -2.645   7.399   7.518 -1.7871  1.1138 -3.0155
  754MOL0     H 4030  -2.504   7.423   7.294 -0.7197  1.7250 -3.9568
  754MOL0     H 4031  -2.479   7.586   7.329  2.3642 -0.9295  1.3632
  754MOL0     H 4032  -1.758   7.160   8.164  1.9750 -0.5542  1.5938
  754MOL0     H 4033  -1.672   7.145   8.385  0.6220  1.0839 -1.0850
  754MOL0     H 4034  -1.640   7.033   8.757  2.4150 -0.8912  0.6671
  754MOL0     H 4035  -1.594   6.870   8.946  1.0327  0.3412  3.0507
  754MOL0     H 4036  -0.315   6.008   9.270  2.0183  0.8538  2.3512
  754MOL0     H 4037  -0.067   5.957   9.286 -1.6910  2.3128  1.8321
  754MOL0     H 4038   0.199   5.613   9.241 -2.2299  2.1985  2.8873
  754MOL0     H 4039   0.365   5.539   9.381  1.4137  0.0240 -0.8509
  754MOL0     H 4040   0.481   5.592   9.617  1.6594  0.8749  2.8962
  754MOL0     H 4041   0.555   5.476   9.496  1.0692 -0.3479 -0.2638
  754MOL0     H 4042   0.710   5.639   9.715 -3.6226  0.4788 -0.1804
  754MOL0     H 4043   0.786   5.559   9.583 -2.1174 -0.0171 -1.7364
  754MOL0     H 4044   0.614   5.447   9.803  3.1021  0.4499  2.1573
  754MOL0     H 4045   0.630   5.350   9.651  0.1221  0.3954  1.1543
  754MOL0     H 4046   0.873   5.443   9.811 -0.0964 -0.4806  1.4317
  754MOL0     H 4047   0.850   5.330   9.680 -3.5624  0.6709 -1.3579
  754MOL0     H 4048   0.738   5.114  10.047 -1.2900 -3.4377 -3.3049
  754MOL0     H 4049   0.556   5.937   9.351 -2.0676  1.4285  4.6121
  754MOL0     H 4050   0.339   6.114   9.264 -0.9092 -0.0241  0.8984
  754MOL0     H 4051   0.488   6.058   9.171 -0.1300 -2.7674 -3.7339
  754MOL0     H 4052   0.341   6.064   9.091  0.0108  0.0669 -0.3548
  755MOL0     O 4053   9.675   6.470  11.383 -0.4800  0.0928 -0.2779
  755MOL0     C 4054   9.749   6.372  11.357  0.9536 -0.5236 -0.5202
  755MOL0     O 4055   9.716   6.240  11.391  0.4631  0.0826 -0.2260
  755MOL0     C 4056   9.588   6.219  11.437  0.2629  0.3006 -0.6358
  755MOL0     C 4057   9.562   6.191  11.575 -0.7564  1.1249  0.3830
  755MOL0     C 4058   9.432   6.171  11.624  0.0110  1.0271  0.6658
  755MOL0     C 4059   9.329   6.174  11.536  0.6978 -0.1558 -0.9184
  755MOL0     O 4060   9.213   6.149  11.601 -0.3605  0.0965  0.2703
  755MOL0     C 4061   9.115   6.075  11.527 -0.7457 -0.3651 -0.9858
  755MOL0     C 4062   8.992   6.034  11.609 -0.4378 -1.2954 -0.6006
  755MOL0     C 4063   8.937   6.147  11.693  0.2425 -0.3376  0.4567
  755MOL0     C 4064   8.828   6.089  11.783 -0.2174  0.1336 -0.4458
  755MOL0     C 4065   8.725   6.196  11.822 -0.7288  0.0192  0.4831
  755MOL0     C 4066   8.611   6.139  11.907 -0.4071  0.7367  1.1124
  755MOL0     C 4067   8.494   6.233  11.914  0.1572  0.9089 -0.0162
  755MOL0     C 4068   8.403   6.187  12.038 -0.2622 -0.2642 -0.2015
  755MOL0     N 4069   8.267   6.227  12.010  0.7419  0.5561 -0.7141
  755MOL0     C 4070   8.216   6.350  11.985  0.3405  0.5333 -0.0587
  755MOL0     C 4071   8.093   6.333  11.922 -1.0637  0.3383  0.4999
  755MOL0     C 4072   8.015   6.441  11.863  0.3610 -0.1036 -0.0460
  755MOL0     C 4073   7.936   6.530  11.972 -0.1728 -0.3274 -0.7534
  755MOL0     C 4074   7.829   6.468  12.065 -0.3016 -0.4540  0.1433
  755MOL0     C 4075   7.710   6.411  11.995  0.3817  0.4157 -0.9000
  755MOL0     O 4076   7.619   6.518  11.976 -0.3708  0.1280 -0.0932
  755MOL0     C 4077   7.484   6.511  11.969  0.4848  0.1967  0.6528
  755MOL0     C 4078   7.409   6.620  11.922  0.4775  1.0067 -0.2572
  755MOL0     C 4079   7.271   6.619  11.909  0.0863 -0.2031 -0.9162
  755MOL0     C 4080   7.216   6.744  11.834 -0.6746 -0.1723 -0.0794
  755MOL0     C 4081   7.196   6.511  11.959  0.6210 -0.4874  0.1059
  755MOL0     C 4082   7.052   6.488  11.950 -0.8760  0.6030  0.9393
  755MOL0     O 4083   6.988   6.409  12.043  0.0255 -0.3922  0.0193
  755MOL0     C 4084   6.852   6.392  12.036  0.4926 -0.4779  0.0061
  755MOL0     C 4085   6.810   6.261  12.041  0.1801 -1.1714  0.1711
  755MOL0     C 4086   6.672   6.235  12.036  0.5542  0.3893 -0.0407
  755MOL0     C 4087   6.574   6.341  12.038 -0.4894 -0.3754  0.9058
  755MOL0     O 4088   6.443   6.310  12.027  0.3359 -0.5502 -0.3424
  755MOL0     C 4089   6.345   6.382  12.098  1.1331 -0.0632  0.3275
  755MOL0     C 4090   6.208   6.316  12.064  0.6680  1.3239  0.1636
  755MOL0     C 4091   6.096   6.344  12.155  1.3250  0.7039 -0.2188
  755MOL0     C 4092   5.982   6.259  12.140  0.4892  0.8238 -0.0037
  755MOL0     C 4093   5.861   6.307  12.230 -0.2407  0.7288 -0.6478
  755MOL0     C 4094   5.751   6.209  12.248 -0.6665 -0.6835  0.4716
  755MOL0     C 4095   5.700   6.133  12.116  0.4652 -0.4552 -0.2888
  755MOL0     C 4096   5.574   6.044  12.143 -0.0970  0.4444  0.4482
  755MOL0    Cl 4097   5.441   6.138  12.071  0.0545  0.1643 -0.1271
  755MOL0     C 4098   6.623   6.472  12.044 -0.1667 -0.1759  0.2454
  755MOL0     C 4099   6.757   6.494  12.038 -0.1255  0.6393  0.0597
  755MOL0     O 4100   6.992   6.534  11.856  0.3314 -0.2538 -0.2193
  755MOL0     C 4101   7.262   6.399  12.008 -0.3766 -0.0678  0.0193
  755MOL0     C 4102   7.406   6.398  12.019  0.6738 -0.3040  0.1291
  755MOL0     N 4103   8.065   6.203  11.922 -0.3171  0.3783  0.5848
  755MOL0     N 4104   8.169   6.144  11.970  0.7893  0.2011  0.1397
  755MOL0     C 4105   9.347   6.207  11.406 -0.5097 -0.2854 -0.1786
  755MOL0     C 4106   9.481   6.233  11.355  0.2208  0.0312 -0.8634
  755MOL0     C 4107   9.883   6.418  11.323 -0.2186 -0.2819 -0.6320
  755MOL0     C 4108   9.984   6.325  11.350 -0.3352  0.0334  0.3270
  755MOL0     C 4109  10.123   6.349  11.341 -0.0978  0.3458  0.6941
  755MOL0     C 4110  10.164   6.475  11.280 -1.6165  0.8573  0.0537
  755MOL0     O 4111  10.301   6.478  11.260 -0.0358 -0.9967 -0.6455
  755MOL0     C 4112  10.351   6.609  11.221  0.6720  0.1935  0.2624
  755MOL0     C 4113  10.502   6.609  11.207  1.1164  0.2915 -0.1045
  755MOL0     C 4114  10.560   6.586  11.347  0.0294  0.0665  0.1663
  755MOL0     C 4115  10.513   6.674  11.463 -0.4453  0.3187  0.0142
  755MOL0     C 4116  10.572   6.637  11.590  0.5843 -0.1357 -0.9138
  755MOL0     C 4117  10.636   6.617  11.690  0.1113 -0.4873  0.9228
  755MOL0     C 4118  10.069   6.571  11.261 -0.6854 -0.1728  0.9306
  755MOL0     C 4119   9.923   6.550  11.273 -0.0241  0.7705 -0.1496
  755MOL0     C 4120   9.831   6.661  11.208 -0.6997  0.0827 -0.4819
  755MOL0     H 4121   9.647   6.185  11.642 -1.4806  1.8708  1.4129
  755MOL0     H 4122   9.406   6.146  11.726  1.2257 -0.7556  0.5763
  755MOL0     H 4123   9.164   5.984  11.491  0.0083  0.3158 -1.7344
  755MOL0     H 4124   9.073   6.142  11.451 -2.2191  2.8432  2.3173
  755MOL0     H 4125   8.910   5.992  11.550 -1.4356 -0.9882  0.5175
  755MOL0     H 4126   9.027   5.960  11.681  0.1660  0.5683  1.1083
  755MOL0     H 4127   9.002   6.190  11.770  0.6594  0.8716 -0.5402
  755MOL0     H 4128   8.895   6.220  11.623  4.2398  2.3887  0.5628
  755MOL0     H 4129   8.780   6.002  11.737  0.0944 -0.5344  0.4599
  755MOL0     H 4130   8.882   6.043  11.867  0.6725  0.4996 -0.8068
  755MOL0     H 4131   8.683   6.220  11.723  0.1300  1.9534  0.5474
  755MOL0     H 4132   8.770   6.290  11.854 -0.2355  0.1075 -0.4264
  755MOL0     H 4133   8.578   6.050  11.853  1.0902  1.9837 -2.1344
  755MOL0     H 4134   8.644   6.117  12.008 -0.4896 -0.0647  0.9700
  755MOL0     H 4135   8.435   6.235  11.821  0.7424  3.2148 -0.4024
  755MOL0     H 4136   8.530   6.335  11.924  1.9179  0.2709  0.4066
  755MOL0     H 4137   8.399   6.078  12.043 -1.5131 -0.4240 -3.0619
  755MOL0     H 4138   8.442   6.232  12.130  1.9719 -3.0817  0.3710
  755MOL0     H 4139   8.264   6.440  12.021 -0.0342  0.4773  0.5867
  755MOL0     H 4140   7.941   6.393  11.797  1.1467 -0.0697 -0.9639
  755MOL0     H 4141   8.073   6.506  11.798  0.7566  1.4010  1.7235
  755MOL0     H 4142   8.012   6.575  12.036 -2.3933  1.7375  0.6306
  755MOL0     H 4143   7.894   6.613  11.915 -1.7992 -1.1985 -0.8891
  755MOL0     H 4144   7.876   6.392  12.127 -0.4129 -0.3350  0.3770
  755MOL0     H 4145   7.779   6.541  12.130 -2.7228 -0.3211 -1.7067
  755MOL0     H 4146   7.737   6.387  11.892  1.0822 -2.0947 -0.2080
  755MOL0     H 4147   7.675   6.320  12.045  2.0118 -0.0270 -0.4862
  755MOL0     H 4148   7.471   6.705  11.893  1.9202  0.4713  1.0636
  755MOL0     H 4149   7.297   6.753  11.761  0.6547  0.0421  1.3685
  755MOL0     H 4150   7.211   6.836  11.892 -0.2086  1.0759 -1.9146
  755MOL0     H 4151   7.123   6.732  11.778  0.4838 -1.6233 -1.8056
  755MOL0     H 4152   6.887   6.188  12.064  3.0123  2.2206  2.6667
  755MOL0     H 4153   6.636   6.133  12.032  3.5690 -0.7597 -0.1100
  755MOL0     H 4154   6.359   6.367  12.205  2.4739 -2.7717 -0.1376
  755MOL0     H 4155   6.345   6.489  12.073  0.7694 -0.1937 -0.2629
  755MOL0     H 4156   6.172   6.334  11.962 -0.1277 -0.1102  0.1709
  755MOL0     H 4157   6.235   6.210  12.073  1.7674  1.4706 -1.0755
  755MOL0     H 4158   6.054   6.443  12.137 -3.0316 -1.5445 -4.9480
  755MOL0     H 4159   6.139   6.324  12.253  0.2102  0.9981  0.3442
  755MOL0     H 4160   6.002   6.156  12.171  2.1058  1.2767  0.5178
  755MOL0     H 4161   5.951   6.266  12.035 -0.9537 -1.4979  0.1995
  755MOL0     H 4162   5.900   6.333  12.329  0.4209 -0.7389 -0.4966
  755MOL0     H 4163   5.828   6.402  12.187  1.5059  2.7266  2.0978
  755MOL0     H 4164   5.659   6.250  12.290 -1.1393 -0.5928 -0.6178
  755MOL0     H 4165   5.790   6.136  12.319  0.3279 -0.0075  0.6380
  755MOL0     H 4166   5.779   6.065  12.082 -1.3822 -2.1832 -1.3055
  755MOL0     H 4167   5.676   6.203  12.035 -0.1879 -2.1025 -1.5515
  755MOL0     H 4168   5.556   6.028  12.250 -1.4823 -1.8403 -0.0396
  755MOL0     H 4169   5.564   5.946  12.094 -0.0553 -0.5311  2.3033
  755MOL0     H 4170   6.569   6.565  12.033  1.2981  0.4845 -2.1694
  755MOL0     H 4171   6.783   6.599  12.036  1.0986  0.3435 -0.2197
  755MOL0     H 4172   7.217   6.307  12.044 -1.5346  0.7083  0.6478
  755MOL0     H 4173   7.447   6.310  12.068  0.9842 -0.7126 -0.8421
  755MOL0     H 4174   9.262   6.208  11.338 -3.4979  2.1460  3.1524
  755MOL0     H 4175   9.486   6.273  11.255 -3.1187  0.3916 -1.0042
  755MOL0     H 4176   9.947   6.230  11.388  0.8160 -0.3310  0.5698
  755MOL0     H 4177  10.191   6.269  11.370  0.9191  1.4361  1.3939
  755MOL0     H 4178  10.314   6.623  11.119  1.4285  0.1771 -0.0210
  755MOL0     H 4179  10.312   6.685  11.290  1.1465  1.3615 -0.7305
  755MOL0     H 4180  10.538   6.706  11.173  0.0543  1.4411  1.8935
  755MOL0     H 4181  10.532   6.528  11.139 -2.8585 -1.3179 -0.1793
  755MOL0     H 4182  10.523   6.485  11.368 -0.4343  0.3712  0.8319
  755MOL0     H 4183  10.668   6.588  11.326  0.2911  4.3000  1.0037
  755MOL0     H 4184  10.404   6.673  11.472 -0.4631  0.5852 -0.1518
  755MOL0     H 4185  10.537   6.779  11.445 -1.2697  0.2582 -1.6125
  755MOL0     H 4186  10.685   6.574  11.775  0.5765 -0.8833  0.4531
  755MOL0     H 4187  10.108   6.657  11.207 -0.8327 -0.4191  0.4353
  755MOL0     H 4188   9.851   6.756  11.257  2.0176  0.1292 -1.5380
  755MOL0     H 4189   9.871   6.672  11.107 -0.5037  0.9028 -0.3162
  755MOL0     H 4190   9.722   6.649  11.205 -0.7268 -0.6709  1.6506
  756MOL0     O 4191   2.268   6.453   2.129 -0.0840  0.4255  0.1471
  756MOL0     C 4192   2.169   6.480   2.196 -1.1311 -0.1380  0.4515
  756MOL0     O 4193   2.162   6.454   2.334  0.1666  0.1689 -0.3171
  756MOL0     C 4194   2.262   6.378   2.386  0.3718 -0.1077  0.6962
  756MOL0     C 4195   2.251   6.240   2.398 -0.4444 -0.0138 -1.1050
  756MOL0     C 4196   2.357   6.174   2.453 -0.0213  0.6119 -0.8202
  756MOL0     C 4197   2.478   6.238   2.492  1.1839  0.1326  0.3416
  756MOL0     O 4198   2.591   6.175   2.532 -0.0759 -0.3144  0.1166
  756MOL0     C 4199   2.625   6.076   2.431  0.1286 -0.0835  0.6911
  756MOL0     C 4200   2.767   6.040   2.440 -0.3179 -0.0691  0.6506
  756MOL0     C 4201   2.841   6.162   2.405  0.3832 -0.2163 -0.0217
  756MOL0     C 4202   2.988   6.166   2.444  0.4025  0.6459  0.1535
  756MOL0     C 4203   3.056   6.291   2.390 -0.0964 -0.2862 -0.1046
  756MOL0     C 4204   3.205   6.276   2.422 -0.4222 -0.0607  0.2588
  756MOL0     C 4205   3.263   6.283   2.566  0.3767  0.4219 -0.1209
  756MOL0     C 4206   3.240   6.412   2.643  0.5885  1.0329  0.9178
  756MOL0     N 4207   3.255   6.390   2.781 -0.0889 -0.1391 -0.1466
  756MOL0     C 4208   3.368   6.338   2.840 -0.7440 -0.4346 -0.0712
  756MOL0     C 4209   3.350   6.364   2.974  0.0194 -0.1713 -0.2638
  756MOL0     C 4210   3.449   6.341   3.079 -0.0218  0.7406  0.3603
  756MOL0     C 4211   3.582   6.414   3.057 -0.0957 -0.1638  0.9941
  756MOL0     C 4212   3.664   6.406   3.190 -0.0289  0.1987 -0.1068
  756MOL0     C 4213   3.806   6.450   3.164 -0.0389 -0.0514 -0.1042
  756MOL0     O 4214   3.875   6.454   3.291  0.9275  0.0100 -0.0114
  756MOL0     C 4215   4.011   6.478   3.293  0.0660 -0.0583 -0.2566
  756MOL0     C 4216   4.089   6.476   3.181 -0.4023 -0.8279  0.4307
  756MOL0     C 4217   4.226   6.498   3.190 -0.3694 -0.1851 -0.1754
  756MOL0     C 4218   4.304   6.509   3.064  0.1864  1.0342 -0.1572
  756MOL0     C 4219   4.289   6.523   3.317 -0.2957  0.3650  0.0594
  756MOL0     C 4220   4.432   6.564   3.334 -0.2220  0.0738 -0.3695
  756MOL0     O 4221   4.465   6.622   3.450 -0.1576 -0.3323 -0.3288
  756MOL0     C 4222   4.598   6.627   3.485 -0.0685  0.1369  0.3920
  756MOL0     C 4223   4.634   6.536   3.598  0.7246  0.1307 -0.0665
  756MOL0     C 4224   4.763   6.550   3.654  0.6851 -0.4513 -0.7100
  756MOL0     C 4225   4.853   6.643   3.611  0.6199  0.7196  0.0537
  756MOL0     O 4226   4.973   6.638   3.675  0.0165 -0.6399 -0.1209
  756MOL0     C 4227   5.066   6.752   3.666  0.5281 -0.7643  0.0413
  756MOL0     C 4228   5.174   6.731   3.762 -0.1053  0.8239 -0.1715
  756MOL0     C 4229   5.289   6.831   3.733  0.8538  0.5665  0.6927
  756MOL0     C 4230   5.412   6.810   3.824  1.0148  0.6774  0.2362
  756MOL0     C 4231   5.496   6.937   3.834 -0.5751  0.5881 -0.2098
  756MOL0     C 4232   5.582   6.948   3.964  0.6012 -0.0896  0.0903
  756MOL0     C 4233   5.675   7.067   3.963  0.2022 -0.3541 -0.8339
  756MOL0     C 4234   5.726   7.092   4.104  0.2955 -1.0681 -0.0581
  756MOL0    Cl 4235   5.805   6.951   4.174 -0.0835 -0.0865  0.0336
  756MOL0     C 4236   4.818   6.730   3.506 -0.1926  0.9016  0.5877
  756MOL0     C 4237   4.695   6.718   3.440 -0.2313  0.3456  0.2431
  756MOL0     O 4238   4.529   6.524   3.258 -0.3545  0.8442 -0.2464
  756MOL0     C 4239   4.203   6.521   3.422  0.1509 -0.6947 -0.3587
  756MOL0     C 4240   4.069   6.513   3.415  0.2036  0.2306  0.2444
  756MOL0     N 4241   3.224   6.419   3.000  0.3127  0.3610  0.4700
  756MOL0     N 4242   3.174   6.437   2.879 -0.0047 -0.5156 -0.3124
  756MOL0     C 4243   2.483   6.379   2.480 -0.1812 -0.3688 -0.2448
  756MOL0     C 4244   2.377   6.452   2.437  1.5320  0.5821 -0.1329
  756MOL0     C 4245   2.062   6.556   2.120  0.3097  0.4164 -0.7195
  756MOL0     C 4246   2.066   6.558   1.980 -0.1776 -0.8126  0.5269
  756MOL0     C 4247   1.971   6.624   1.897 -0.6948 -1.0064 -0.1462
  756MOL0     C 4248   1.866   6.688   1.966  0.4881  0.6198  0.3735
  756MOL0     O 4249   1.769   6.754   1.897  0.0669 -0.9559  0.2491
  756MOL0     C 4250   1.795   6.800   1.767 -1.0304 -0.7023  0.3458
  756MOL0     C 4251   1.681   6.887   1.733  0.0082 -0.0211  0.0551
  756MOL0     C 4252   1.539   6.816   1.737  0.4180  0.2402 -0.3580
  756MOL0     C 4253   1.424   6.891   1.669  0.2822 -0.4792 -0.3050
  756MOL0     C 4254   1.422   7.033   1.697 -0.1907 -0.6480  0.2884
  756MOL0     C 4255   1.414   7.148   1.731  0.5842  0.7298 -0.4998
  756MOL0     C 4256   1.863   6.694   2.107 -0.7177 -0.6287 -0.7815
  756MOL0     C 4257   1.959   6.629   2.183  0.2762  0.5802  0.7424
  756MOL0     C 4258   1.963   6.668   2.331 -1.3792 -0.7532 -0.8965
  756MOL0     H 4259   2.157   6.195   2.366 -3.3048  2.0503  3.4025
  756MOL0     H 4260   2.358   6.065   2.451  0.3066  0.6236 -1.6653
  756MOL0     H 4261   2.599   6.117   2.333  0.3758  0.6890  0.9327
  756MOL0     H 4262   2.575   5.979   2.436  1.5492 -1.2146 -3.2597
  756MOL0     H 4263   2.793   6.005   2.540 -0.2347 -0.4684  0.4935
  756MOL0     H 4264   2.785   5.957   2.371 -0.2467  1.1111 -0.7892
  756MOL0     H 4265   2.822   6.179   2.299  1.9791 -0.6189 -0.3933
  756MOL0     H 4266   2.796   6.242   2.466  1.7069 -0.4364  1.3090
  756MOL0     H 4267   2.990   6.168   2.554 -0.4999 -0.7203  0.2207
  756MOL0     H 4268   3.031   6.075   2.401 -0.3292  1.5882 -2.7910
  756MOL0     H 4269   3.010   6.377   2.440 -2.2576 -1.3951 -0.0599
  756MOL0     H 4270   3.057   6.308   2.281 -0.6269  2.0339  0.1981
  756MOL0     H 4271   3.243   6.182   2.380 -0.8922  0.7061 -2.0523
  756MOL0     H 4272   3.253   6.356   2.364  3.6625 -1.8781  0.7992
  756MOL0     H 4273   3.372   6.283   2.567  0.5302  4.3331  1.5472
  756MOL0     H 4274   3.226   6.195   2.620  1.3780  0.4814  0.6699
  756MOL0     H 4275   3.308   6.491   2.610  0.0937  0.6156 -1.2100
  756MOL0     H 4276   3.138   6.440   2.616  0.7944 -0.0867 -1.1969
  756MOL0     H 4277   3.458   6.303   2.791  0.4924  1.3718  0.7656
  756MOL0     H 4278   3.470   6.234   3.070  1.2019  0.9128  0.8771
  756MOL0     H 4279   3.407   6.369   3.176 -0.5351 -2.3412  1.1100
  756MOL0     H 4280   3.637   6.371   2.973 -0.2463  0.6877  0.4424
  756MOL0     H 4281   3.566   6.520   3.034  3.1790  0.0474 -0.9179
  756MOL0     H 4282   3.613   6.458   3.272 -1.4320 -1.4147  0.1185
  756MOL0     H 4283   3.669   6.301   3.221 -3.3264  0.5572  2.1537
  756MOL0     H 4284   3.843   6.374   3.094 -1.4010  2.1232 -3.3702
  756MOL0     H 4285   3.813   6.546   3.112  1.0323  1.2149  2.2061
  756MOL0     H 4286   4.048   6.463   3.081  2.5786 -3.1574 -0.6241
  756MOL0     H 4287   4.351   6.608   3.066 -1.2834  1.7612 -0.6448
  756MOL0     H 4288   4.244   6.501   2.973  0.0957 -0.0352 -0.0117
  756MOL0     H 4289   4.375   6.426   3.066  0.9964  1.4611  5.8077
  756MOL0     H 4290   4.565   6.459   3.633 -0.1766  0.5938 -0.7668
  756MOL0     H 4291   4.790   6.482   3.734  0.8568  1.6266  1.0932
  756MOL0     H 4292   5.100   6.762   3.562  1.6345 -0.9001  0.3827
  756MOL0     H 4293   5.022   6.845   3.701 -0.0623 -1.0770  0.1526
  756MOL0     H 4294   5.135   6.760   3.860  1.4067  2.4418  0.0169
  756MOL0     H 4295   5.211   6.628   3.763 -0.9329  0.5185 -0.1008
  756MOL0     H 4296   5.245   6.931   3.746 -2.5036 -0.6452 -0.3312
  756MOL0     H 4297   5.328   6.819   3.632 -0.6401  0.0705  0.1331
  756MOL0     H 4298   5.472   6.726   3.789 -2.2578 -1.3575 -1.0556
  756MOL0     H 4299   5.376   6.787   3.925  2.2663  1.9686  1.0078
  756MOL0     H 4300   5.564   6.946   3.749  1.1134  0.7382  1.0881
  756MOL0     H 4301   5.426   7.020   3.826  0.8431  1.8374 -0.2089
  756MOL0     H 4302   5.640   6.855   3.965 -1.8691 -1.7523 -0.8110
  756MOL0     H 4303   5.509   6.954   4.046 -2.8821  1.8705 -2.8785
  756MOL0     H 4304   5.621   7.152   3.921 -1.0539 -0.6371  0.1142
  756MOL0     H 4305   5.759   7.058   3.894  0.2471  1.9816 -1.1529
  756MOL0     H 4306   5.641   7.117   4.168 -1.0278  0.6660 -2.3280
  756MOL0     H 4307   5.796   7.176   4.095 -2.1590  1.0195 -0.8933
  756MOL0     H 4308   4.878   6.804   3.454 -3.1072  2.9410 -0.1645
  756MOL0     H 4309   4.687   6.784   3.354  1.6467 -1.1491 -1.1690
  756MOL0     H 4310   4.245   6.523   3.522 -1.1708  1.7108  0.2128
  756MOL0     H 4311   4.021   6.509   3.512  0.3746 -4.4648  0.3760
  756MOL0     H 4312   2.575   6.423   2.517  1.3837 -3.9074  0.4707
  756MOL0     H 4313   2.384   6.559   2.423 -0.1711  0.3770 -3.5753
  756MOL0     H 4314   2.150   6.532   1.916  1.5458  1.3369  1.7351
  756MOL0     H 4315   1.987   6.618   1.790 -0.0807  1.0823 -0.2105
  756MOL0     H 4316   1.888   6.854   1.748 -1.6728 -0.4788 -2.7081
  756MOL0     H 4317   1.795   6.710   1.704 -0.0280  0.9464 -2.1412
  756MOL0     H 4318   1.696   6.925   1.632  2.8535  1.1091  0.8188
  756MOL0     H 4319   1.679   6.977   1.795  0.0131  0.3752 -0.5186
  756MOL0     H 4320   1.537   6.718   1.688 -1.6429  0.7493 -1.3743
  756MOL0     H 4321   1.511   6.802   1.842  1.3101  0.5207 -0.0708
  756MOL0     H 4322   1.331   6.850   1.711  0.5855 -0.8017  0.0637
  756MOL0     H 4323   1.435   6.889   1.560 -1.7927  0.3564 -0.5749
  756MOL0     H 4324   1.405   7.254   1.743 -1.8219  0.5537 -0.1651
  756MOL0     H 4325   1.789   6.755   2.157 -0.5799 -0.7832 -0.3767
  756MOL0     H 4326   1.919   6.765   2.352  2.2498  0.8208  0.2132
  756MOL0     H 4327   1.917   6.586   2.388 -1.2977  0.8826  1.6800
  756MOL0     H 4328   2.068   6.673   2.360 -1.0995 -1.0676 -1.8110
  757MOL0     O 4329   7.884   0.629   1.372  0.5683  0.2349  0.8802
  757MOL0     C 4330   8.004   0.606   1.389 -0.3247 -0.3354 -0.3429
  757MOL0     O 4331   8.069   0.487   1.376  0.4055 -0.6213  0.9464
  757MOL0     C 4332   7.991   0.375   1.371  0.0385 -0.2759  0.3224
  757MOL0     C 4333   7.948   0.327   1.491  0.1485 -0.4347 -0.3417
  757MOL0     C 4334   7.853   0.225   1.506 -0.7689  0.1014  0.6891
  757MOL0     C 4335   7.798   0.170   1.394  0.2503 -0.1783 -0.9028
  757MOL0     O 4336   7.697   0.080   1.410  0.1059  0.7024  0.4825
  757MOL0     C 4337   7.724  -0.053   1.358 -0.4121  0.2623 -0.0844
  757MOL0     C 4338   7.804  -0.128   1.467  0.7580 -0.0366 -0.4058
  757MOL0     C 4339   7.733  -0.143   1.605 -0.4736 -0.3719  0.4121
  757MOL0     C 4340   7.831  -0.207   1.709  0.1395  0.1383  0.2381
  757MOL0     C 4341   7.766  -0.265   1.829  0.3241  0.6133 -0.1138
  757MOL0     C 4342   7.688  -0.169   1.927  0.1425 -0.3681  0.5793
  757MOL0     C 4343   7.636  -0.234   2.051 -0.0572  0.0994  0.4458
  757MOL0     C 4344   7.754  -0.224   2.150 -0.2912 -0.2859  0.2438
  757MOL0     N 4345   7.711  -0.226   2.290  0.4087 -0.4655  1.0103
  757MOL0     C 4346   7.774  -0.191   2.403  0.3127  1.1175 -0.4967
  757MOL0     C 4347   7.699  -0.216   2.503  0.7731 -0.0051  0.1529
  757MOL0     C 4348   7.735  -0.183   2.639 -0.1152  0.4901  0.0665
  757MOL0     C 4349   7.819  -0.294   2.711  0.1647 -0.3522 -0.0884
  757MOL0     C 4350   7.878  -0.280   2.856 -0.3028  0.6525  0.4320
  757MOL0     C 4351   8.023  -0.235   2.839  0.1404 -0.2543 -0.4764
  757MOL0     O 4352   8.017  -0.093   2.785 -0.5660  0.4849 -0.1454
  757MOL0     C 4353   8.138  -0.024   2.776 -0.1319  0.0950 -0.1839
  757MOL0     C 4354   8.128   0.096   2.711 -0.4510  0.1092  0.4728
  757MOL0     C 4355   8.241   0.186   2.692 -0.0014  0.3257  0.7459
  757MOL0     C 4356   8.211   0.306   2.602 -0.0186  0.2765 -0.0689
  757MOL0     C 4357   8.359   0.165   2.773 -0.9737 -0.1788 -0.3177
  757MOL0     C 4358   8.472   0.257   2.787 -0.3284  1.2212  0.0221
  757MOL0     O 4359   8.587   0.205   2.837 -0.2438  1.1084  0.6355
  757MOL0     C 4360   8.705   0.279   2.851  0.7642  0.0789  0.4606
  757MOL0     C 4361   8.773   0.306   2.726 -0.0866  0.5020 -0.7100
  757MOL0     C 4362   8.891   0.381   2.732 -0.3382  0.5655 -0.4445
  757MOL0     C 4363   8.947   0.419   2.851  0.5957 -0.4605  0.3849
  757MOL0     O 4364   9.079   0.474   2.862  0.8232 -0.4692  0.2086
  757MOL0     C 4365   9.180   0.415   2.784  0.5557  0.1426  1.0204
  757MOL0     C 4366   9.303   0.501   2.810  0.4580 -0.3094 -0.3873
  757MOL0     C 4367   9.431   0.453   2.738  0.3246 -0.6797 -0.3093
  757MOL0     C 4368   9.534   0.570   2.714 -1.2344 -0.3682  0.1480
  757MOL0     C 4369   9.670   0.517   2.689 -0.1663 -0.0905  1.6249
  757MOL0     C 4370   9.760   0.631   2.640  0.1644 -0.0819 -0.9883
  757MOL0     C 4371   9.899   0.592   2.597 -0.3894 -0.5087 -0.0963
  757MOL0     C 4372   9.996   0.712   2.590  0.3973  0.3554  0.6832
  757MOL0    Cl 4373  10.164   0.655   2.586  0.1627 -0.0706 -0.6274
  757MOL0     C 4374   8.880   0.391   2.968  0.5234 -1.8103  0.1859
  757MOL0     C 4375   8.762   0.322   2.974 -0.1970  0.6762 -0.5768
  757MOL0     O 4376   8.462   0.363   2.724 -0.2842  1.0117  0.3629
  757MOL0     C 4377   8.363   0.043   2.842  1.3698  0.5932  0.4523
  757MOL0     C 4378   8.263  -0.051   2.844 -0.1381 -0.3396  0.0038
  757MOL0     N 4379   7.578  -0.258   2.462  0.4831 -0.3589 -0.6030
  757MOL0     N 4380   7.588  -0.257   2.334 -0.1415 -0.3779  0.4477
  757MOL0     C 4381   7.837   0.217   1.271  0.0355 -0.0059  0.0258
  757MOL0     C 4382   7.928   0.321   1.260  0.2824  0.3785  0.0247
  757MOL0     C 4383   8.084   0.714   1.441  0.3225  0.1794  0.3152
  757MOL0     C 4384   8.202   0.678   1.509 -1.2949 -0.0548  0.0989
  757MOL0     C 4385   8.281   0.770   1.579 -0.5007  0.0863  0.9336
  757MOL0     C 4386   8.243   0.907   1.579 -0.9742 -1.3930 -0.9910
  757MOL0     O 4387   8.324   1.002   1.650  0.5465  0.0457 -0.1950
  757MOL0     C 4388   8.458   1.004   1.621 -0.2886  0.2803 -0.5892
  757MOL0     C 4389   8.489   1.121   1.520  0.4076  0.4091 -0.4159
  757MOL0     C 4390   8.391   1.138   1.407  0.0966 -0.2777 -0.3916
  757MOL0     C 4391   8.458   1.161   1.269  0.4251 -0.1919  0.1710
  757MOL0     C 4392   8.352   1.163   1.173 -0.9943  0.2514  0.3459
  757MOL0     C 4393   8.269   1.167   1.090 -0.4570 -0.2656  0.0130
  757MOL0     C 4394   8.124   0.946   1.517 -0.0404  0.4567 -0.3654
  757MOL0     C 4395   8.042   0.848   1.452  0.1418 -0.4003 -0.2569
  757MOL0     C 4396   7.929   0.899   1.365  0.5081 -0.3955 -0.0990
  757MOL0     H 4397   7.988   0.377   1.579 -1.8176  1.3075 -0.3611
  757MOL0     H 4398   7.836   0.173   1.599 -0.1255  2.0273  1.9353
  757MOL0     H 4399   7.783  -0.048   1.266  0.8895  0.1006  0.7189
  757MOL0     H 4400   7.630  -0.106   1.338 -0.9104  1.1639 -0.1757
  757MOL0     H 4401   7.828  -0.229   1.434  1.1259  0.2102 -0.9111
  757MOL0     H 4402   7.901  -0.078   1.471 -0.2380  1.9151  1.5763
  757MOL0     H 4403   7.702  -0.044   1.639  1.3765  0.0627  0.9593
  757MOL0     H 4404   7.647  -0.209   1.589 -0.7036 -0.0885  0.4882
  757MOL0     H 4405   7.887  -0.287   1.659  1.5415 -0.6339  2.8597
  757MOL0     H 4406   7.910  -0.137   1.734  1.0354 -0.4388 -0.8643
  757MOL0     H 4407   7.840  -0.314   1.892 -1.7251  0.5653  2.4316
  757MOL0     H 4408   7.699  -0.345   1.798  1.3302 -0.8404  1.2944
  757MOL0     H 4409   7.748  -0.079   1.942 -3.6658  2.8069 -1.4097
  757MOL0     H 4410   7.592  -0.142   1.881 -0.5769 -1.9727  1.0419
  757MOL0     H 4411   7.614  -0.340   2.032  1.1241  0.2960 -2.7029
  757MOL0     H 4412   7.555  -0.183   2.103 -0.1159 -1.0920  1.5849
  757MOL0     H 4413   7.821  -0.310   2.144 -0.1195 -0.0764 -2.6020
  757MOL0     H 4414   7.814  -0.136   2.124  2.5549 -1.9686  0.7931
  757MOL0     H 4415   7.879  -0.173   2.427 -0.5400  2.5949  2.6063
  757MOL0     H 4416   7.641  -0.157   2.689  0.3438  0.7985  0.7810
  757MOL0     H 4417   7.796  -0.092   2.632 -1.5455  1.3666 -2.6563
  757MOL0     H 4418   7.745  -0.371   2.733 -0.6604  0.0374 -1.3822
  757MOL0     H 4419   7.890  -0.341   2.642 -0.7495  0.0662 -1.3531
  757MOL0     H 4420   7.804  -0.225   2.916 -2.8464  1.8606 -3.4040
  757MOL0     H 4421   7.879  -0.372   2.914  2.2412  0.2034 -0.2060
  757MOL0     H 4422   8.067  -0.231   2.939  1.5965 -1.7259 -1.0105
  757MOL0     H 4423   8.080  -0.306   2.779 -0.7623 -2.7485  1.4332
  757MOL0     H 4424   8.036   0.134   2.669 -0.1595  0.1837 -0.1106
  757MOL0     H 4425   8.295   0.333   2.537 -1.6072  2.9084 -1.2153
  757MOL0     H 4426   8.185   0.391   2.666 -0.7383 -1.2197  1.7285
  757MOL0     H 4427   8.123   0.280   2.543  0.4486 -0.0639 -0.6271
  757MOL0     H 4428   8.736   0.266   2.632 -3.1599  0.4290  0.4308
  757MOL0     H 4429   8.948   0.415   2.646  1.7620 -1.3364  0.0679
  757MOL0     H 4430   9.195   0.311   2.814  1.0693 -0.3653 -0.8663
  757MOL0     H 4431   9.162   0.412   2.676 -0.5780 -0.6159  1.2135
  757MOL0     H 4432   9.276   0.606   2.792 -2.5734 -0.8985  0.2153
  757MOL0     H 4433   9.316   0.486   2.917 -1.9256  0.2125  0.0370
  757MOL0     H 4434   9.412   0.419   2.635  1.3564 -2.1512 -0.0461
  757MOL0     H 4435   9.473   0.366   2.789  0.0566  0.2290  1.5396
  757MOL0     H 4436   9.532   0.643   2.796 -1.8907 -1.1079  0.8062
  757MOL0     H 4437   9.502   0.615   2.619 -1.5645 -2.3805 -0.7346
  757MOL0     H 4438   9.718   0.468   2.774 -0.2010 -0.3661  1.4891
  757MOL0     H 4439   9.682   0.446   2.606 -0.0280  2.7201 -0.9510
  757MOL0     H 4440   9.757   0.706   2.719 -2.1397 -0.1179 -0.9749
  757MOL0     H 4441   9.710   0.669   2.550  0.0597 -0.4607 -1.0946
  757MOL0     H 4442   9.891   0.527   2.509 -1.0475 -1.3575  0.5703
  757MOL0     H 4443   9.935   0.532   2.682  0.9065  1.2381  0.6381
  757MOL0     H 4444   9.979   0.786   2.669  2.4475  2.2449 -0.5279
  757MOL0     H 4445   9.992   0.772   2.499  0.8974 -0.2030  0.2837
  757MOL0     H 4446   8.919   0.433   3.060  1.1331 -2.1207  0.0719
  757MOL0     H 4447   8.713   0.303   3.069  1.2455 -1.4570 -0.2013
  757MOL0     H 4448   8.447   0.018   2.906  0.0749  1.4196  2.5634
  757MOL0     H 4449   8.273  -0.143   2.901 -1.6471 -0.0754  0.7490
  757MOL0     H 4450   7.800   0.168   1.182 -0.7105  1.0069 -0.2407
  757MOL0     H 4451   7.962   0.348   1.161 -1.0902 -4.6072 -2.1706
  757MOL0     H 4452   8.231   0.574   1.506  0.1830  0.3425  0.0766
  757MOL0     H 4453   8.369   0.732   1.629 -0.5928 -1.0835  0.2317
  757MOL0     H 4454   8.514   1.025   1.712  2.2820 -0.4710 -1.9058
  757MOL0     H 4455   8.513   0.917   1.587  0.1807 -0.5510  2.0948
  757MOL0     H 4456   8.590   1.106   1.480  1.0532  0.8643  1.0065
  757MOL0     H 4457   8.489   1.218   1.570 -0.6626  0.3515 -0.2779
  757MOL0     H 4458   8.327   1.049   1.403  0.8551 -0.8670  0.4467
  757MOL0     H 4459   8.336   1.231   1.426  1.2857  0.2545  0.5735
  757MOL0     H 4460   8.528   1.081   1.242 -0.8013 -1.8436  1.6039
  757MOL0     H 4461   8.503   1.260   1.270 -0.2249  0.1084  0.5008
  757MOL0     H 4462   8.193   1.158   1.015 -1.5598 -2.0486  1.2573
  757MOL0     H 4463   8.085   1.046   1.533 -1.1781 -0.0817  0.3752
  757MOL0     H 4464   7.917   1.007   1.367  1.0316 -0.2622  3.7853
  757MOL0     H 4465   7.941   0.863   1.263  1.6452  1.4344 -0.6539
  757MOL0     H 4466   7.837   0.872   1.418  1.5009 -1.1624  1.3249
  758MOL0     O 4467   1.392  11.497  11.423  0.1295 -0.0974 -0.1968
  758MOL0     C 4468   1.294  11.536  11.492  0.6814 -1.2686  0.3123
  758MOL0     O 4469   1.269  11.514  11.624 -1.4947 -0.4297  0.6225
  758MOL0     C 4470   1.376  11.476  11.705  0.1953 -0.3037 -0.8423
  758MOL0     C 4471   1.350  11.376  11.797 -0.1951  0.3420 -0.0365
  758MOL0     C 4472   1.439  11.361  11.909  0.2857 -0.0209  0.5455
  758MOL0     C 4473   1.559  11.435  11.923  0.8010 -0.1267  0.1410
  758MOL0     O 4474   1.634  11.418  12.036 -0.4067 -0.3623 -0.1506
  758MOL0     C 4475   1.748  11.501  12.046 -0.2080  0.2287  0.6086
  758MOL0     C 4476   1.812  11.509  12.186 -0.0974 -0.9895 -0.3116
  758MOL0     C 4477   1.823  11.376  12.250 -0.5468 -0.0357  0.5631
  758MOL0     C 4478   1.961  11.349  12.309 -0.0589 -0.3750  0.1490
  758MOL0     C 4479   1.995  11.423  12.444  0.6710  0.2530 -0.4965
  758MOL0     C 4480   2.049  11.563  12.427  0.1419  0.2544 -0.4546
  758MOL0     C 4481   2.093  11.626  12.563 -0.6654  1.1769 -0.2179
  758MOL0     C 4482   2.123  11.781  12.544  1.0690  0.1480 -0.4961
  758MOL0     N 4483   2.220  11.819  12.446 -0.3617  0.2918  0.2082
  758MOL0     C 4484   2.202  11.839  12.312 -0.1744 -0.2873 -0.3770
  758MOL0     C 4485   2.329  11.858  12.260 -0.0308  0.7827  0.0762
  758MOL0     C 4486   2.358  11.904  12.119 -0.5760  0.1795 -0.6631
  758MOL0     C 4487   2.421  11.798  12.043  0.0050 -0.0252  0.0532
  758MOL0     C 4488   2.326  11.683  12.008  0.2104  0.0173  0.0963
  758MOL0     C 4489   2.213  11.731  11.927  0.6441  0.4818 -0.8271
  758MOL0     O 4490   2.105  11.765  12.013 -0.5096 -0.3039 -0.7274
  758MOL0     C 4491   1.984  11.802  11.959 -0.0831 -0.4248 -0.1456
  758MOL0     C 4492   1.886  11.843  12.050  0.7468 -0.8701 -0.4749
  758MOL0     C 4493   1.758  11.891  12.010 -0.3917  0.9839  0.8249
  758MOL0     C 4494   1.653  11.909  12.116  0.2994 -0.0602  0.2837
  758MOL0     C 4495   1.728  11.902  11.872 -0.4017 -0.1694 -0.4030
  758MOL0     C 4496   1.595  11.938  11.806  0.3884  0.2036  0.8334
  758MOL0     O 4497   1.489  11.995  11.886 -0.0779 -0.2769  0.9689
  758MOL0     C 4498   1.359  11.997  11.845  0.3810  0.2246  0.2031
  758MOL0     C 4499   1.303  11.898  11.758  0.9558 -0.2204 -1.2964
  758MOL0     C 4500   1.172  11.911  11.713  0.0328  0.2075  0.0116
  758MOL0     C 4501   1.098  12.024  11.743 -0.4898  0.7245 -0.6007
  758MOL0     O 4502   0.971  12.050  11.703  0.2157  0.2283  0.7199
  758MOL0     C 4503   0.910  11.947  11.619  0.8581 -1.1585 -0.9113
  758MOL0     C 4504   0.758  11.984  11.607 -0.3898  0.9195 -0.4789
  758MOL0     C 4505   0.669  11.873  11.671 -0.2073  0.1430 -0.4037
  758MOL0     C 4506   0.517  11.893  11.637 -0.8151  0.3823  0.0931
  758MOL0     C 4507   0.493  11.879  11.482 -0.3540 -1.0213  0.0992
  758MOL0     C 4508   0.354  11.936  11.454  1.4147  0.6957 -0.2792
  758MOL0     C 4509   0.323  11.944  11.306  0.6954  0.3391 -0.4632
  758MOL0     C 4510   0.395  12.048  11.225 -0.3480 -0.2900 -0.3485
  758MOL0    Cl 4511   0.341  12.034  11.064 -0.6452 -0.2481 -0.2371
  758MOL0     C 4512   1.157  12.120  11.833  0.2030  0.6636  0.2945
  758MOL0     C 4513   1.283  12.110  11.885 -0.8026 -0.0992 -0.0776
  758MOL0     O 4514   1.578  11.908  11.691  0.2018 -0.4411  1.3886
  758MOL0     C 4515   1.830  11.854  11.786  0.1291 -0.5721  0.1891
  758MOL0     C 4516   1.957  11.818  11.827 -1.0668 -0.1044  0.1577
  758MOL0     N 4517   2.422  11.844  12.361  0.8226  0.0180 -0.2617
  758MOL0     N 4518   2.353  11.814  12.468  0.0343 -0.4388 -0.2749
  758MOL0     C 4519   1.590  11.532  11.820  0.3301 -0.2021  0.4797
  758MOL0     C 4520   1.501  11.548  11.712  1.2479 -0.0762 -0.1375
  758MOL0     C 4521   1.189  11.619  11.420  0.1828  0.1327  0.1691
  758MOL0     C 4522   1.056  11.576  11.434 -0.2727  0.5151 -0.3761
  758MOL0     C 4523   0.952  11.642  11.357  0.2014 -0.3058 -0.7586
  758MOL0     C 4524   0.978  11.742  11.273 -0.1993  0.6353  0.9345
  758MOL0     O 4525   0.889  11.819  11.198 -0.2236  0.7405 -0.2891
  758MOL0     C 4526   0.753  11.770  11.189  0.0571  0.1658  0.4797
  758MOL0     C 4527   0.750  11.708  11.049  0.3457  0.5927 -0.2094
  758MOL0     C 4528   0.631  11.615  11.032  1.1284  0.0373  0.3200
  758MOL0     C 4529   0.504  11.703  11.002 -0.0269 -0.3924  0.0536
  758MOL0     C 4530   0.390  11.641  10.930  0.2880 -0.2374 -0.3206
  758MOL0     C 4531   0.296  11.603  10.860 -0.2388  0.0815 -1.3584
  758MOL0     C 4532   1.107  11.795  11.269  0.2294 -0.0624 -0.2122
  758MOL0     C 4533   1.214  11.727  11.335  0.1084  1.2680 -0.5040
  758MOL0     C 4534   1.342  11.804  11.333  0.2327  0.2471  0.4939
  758MOL0     H 4535   1.266  11.308  11.787  1.1172 -1.3669  0.0419
  758MOL0     H 4536   1.415  11.290  11.987 -4.5001  1.6513  0.9232
  758MOL0     H 4537   1.705  11.597  12.013 -0.4800 -1.2099 -3.9890
  758MOL0     H 4538   1.812  11.458  11.968 -2.0125 -2.8314  0.6525
  758MOL0     H 4539   1.909  11.559  12.184  0.1226 -1.4478 -1.2628
  758MOL0     H 4540   1.744  11.558  12.257  2.7148  0.1060  1.8500
  758MOL0     H 4541   1.746  11.375  12.328  0.0802  1.9147  1.2967
  758MOL0     H 4542   1.800  11.292  12.184  0.7177  0.1329 -0.1343
  758MOL0     H 4543   1.961  11.241  12.330 -1.9878 -0.6247 -0.9295
  758MOL0     H 4544   2.033  11.377  12.231  1.2601  1.0543  1.7924
  758MOL0     H 4545   2.058  11.355  12.503  1.2286 -0.0823 -1.4453
  758MOL0     H 4546   1.902  11.422  12.502  0.4202 -0.2691 -0.8953
  758MOL0     H 4547   2.132  11.559  12.356  0.2974 -3.4386 -0.2549
  758MOL0     H 4548   1.966  11.621  12.386 -0.9915 -1.7901 -1.1810
  758MOL0     H 4549   2.188  11.582  12.596 -0.6145 -0.0043 -1.7982
  758MOL0     H 4550   2.017  11.607  12.638  2.1063 -1.8358  2.1543
  758MOL0     H 4551   2.028  11.826  12.513  0.7063 -0.8456 -0.8825
  758MOL0     H 4552   2.140  11.825  12.642  1.9261  0.0584 -0.6004
  758MOL0     H 4553   2.106  11.849  12.264 -1.2009  3.9227  1.9986
  758MOL0     H 4554   2.435  11.979  12.139 -0.4019 -0.1091 -0.2285
  758MOL0     H 4555   2.266  11.944  12.075 -1.1835  2.5552  2.4205
  758MOL0     H 4556   2.459  11.837  11.948  3.2381  0.1139  1.2636
  758MOL0     H 4557   2.508  11.744  12.081  0.2126  0.3952  0.1865
  758MOL0     H 4558   2.373  11.619  11.933  0.2163 -0.4742  0.5100
  758MOL0     H 4559   2.299  11.621  12.095  0.0967 -2.5873 -1.6796
  758MOL0     H 4560   2.244  11.820  11.871  0.8354  1.0457  0.1620
  758MOL0     H 4561   2.180  11.655  11.856  2.7159 -1.9323  0.6030
  758MOL0     H 4562   1.907  11.837  12.156  1.2796  1.0196 -0.4385
  758MOL0     H 4563   1.566  11.857  12.076  0.5390  0.3009 -0.7319
  758MOL0     H 4564   1.617  12.010  12.139  0.0530 -0.5037  1.9861
  758MOL0     H 4565   1.685  11.874  12.215  1.2965 -1.5424 -0.5325
  758MOL0     H 4566   1.354  11.808  11.726  0.3074 -1.4292  0.8684
  758MOL0     H 4567   1.147  11.838  11.636  0.3389  1.8341 -1.7122
  758MOL0     H 4568   0.957  11.943  11.520  0.7610  1.8284 -1.1819
  758MOL0     H 4569   0.907  11.851  11.672 -1.1139  0.7533  2.8861
  758MOL0     H 4570   0.726  12.078  11.653  0.3792  1.0144 -0.1224
  758MOL0     H 4571   0.749  12.000  11.499 -1.9344 -2.3298 -0.9402
  758MOL0     H 4572   0.686  11.878  11.779  0.4121  2.2386 -0.5690
  758MOL0     H 4573   0.702  11.777  11.631  2.2117  1.2345 -1.1879
  758MOL0     H 4574   0.482  11.990  11.673  0.4898  1.2819 -0.9543
  758MOL0     H 4575   0.447  11.820  11.679  0.1099  0.6872  2.2854
  758MOL0     H 4576   0.561  11.942  11.424 -0.0291 -0.6779  0.8477
  758MOL0     H 4577   0.506  11.773  11.457  2.7177 -0.9332  0.9267
  758MOL0     H 4578   0.345  12.036  11.497 -0.5328 -0.3302  1.8706
  758MOL0     H 4579   0.278  11.874  11.503 -0.9575  2.4252 -1.5477
  758MOL0     H 4580   0.216  11.968  11.300  0.8528  1.7244  1.3087
  758MOL0     H 4581   0.339  11.841  11.274 -1.1745  0.3962 -1.7930
  758MOL0     H 4582   0.501  12.026  11.212 -0.6175 -0.9592 -1.5123
  758MOL0     H 4583   0.397  12.150  11.266  3.1465 -0.9932  1.6259
  758MOL0     H 4584   1.088  12.199  11.860  3.4316  3.2917  1.4958
  758MOL0     H 4585   1.325  12.186  11.950 -1.7773 -0.4215  0.9807
  758MOL0     H 4586   1.808  11.854  11.680  0.8324 -0.2186  0.0384
  758MOL0     H 4587   2.036  11.824  11.753 -0.0816  1.3664  1.2856
  758MOL0     H 4588   1.680  11.592  11.829  0.7735 -0.7502 -0.1682
  758MOL0     H 4589   1.520  11.632  11.645 -0.2794 -0.5758 -1.2504
  758MOL0     H 4590   1.026  11.499  11.505 -1.8193  1.7323  0.3607
  758MOL0     H 4591   0.847  11.630  11.384 -0.5819  3.5407 -1.5029
  758MOL0     H 4592   0.707  11.695  11.254 -1.4817  0.1346 -0.5978
  758MOL0     H 4593   0.691  11.860  11.190  1.8404  1.4860  2.8578
  758MOL0     H 4594   0.839  11.648  11.025  0.1720  0.8451 -1.5739
  758MOL0     H 4595   0.756  11.791  10.978 -0.1367 -0.0510 -1.0106
  758MOL0     H 4596   0.654  11.543  10.952 -3.6136 -0.2250 -1.1333
  758MOL0     H 4597   0.606  11.550  11.117 -2.9439 -0.7519 -1.2536
  758MOL0     H 4598   0.537  11.786  10.940 -2.1622  2.6110  2.6489
  758MOL0     H 4599   0.481  11.755  11.096  1.5254  0.2739  0.0890
  758MOL0     H 4600   0.205  11.592  10.804 -1.3179  0.2902  0.2804
  758MOL0     H 4601   1.122  11.876  11.199 -0.3428  0.4195  0.2136
  758MOL0     H 4602   1.423  11.740  11.296  1.5775 -0.0921  3.7045
  758MOL0     H 4603   1.331  11.889  11.265 -0.4323 -0.9840 -1.0300
  758MOL0     H 4604   1.360  11.840  11.434  2.8644  3.8144 -1.0203
  759MOL0     O 4605   3.695   3.948   5.012 -0.3288  0.3295 -0.0715
  759MOL0     C 4606   3.720   3.832   5.004 -0.2429 -0.3639 -0.0321
  759MOL0     O 4607   3.831   3.771   4.965 -0.1757 -1.1027  0.0164
  759MOL0     C 4608   3.946   3.840   4.923 -0.0371  0.2631 -0.0885
  759MOL0     C 4609   3.949   3.977   4.888 -0.0917  0.7349 -0.8114
  759MOL0     C 4610   4.078   4.031   4.866 -0.4302 -0.1400  0.6655
  759MOL0     C 4611   4.197   3.958   4.855  0.6750 -0.0235 -0.7618
  759MOL0     O 4612   4.324   3.990   4.829 -0.2275 -0.5496 -1.4599
  759MOL0     C 4613   4.338   4.132   4.823 -0.2297 -0.6750  0.1707
  759MOL0     C 4614   4.476   4.177   4.779 -0.5605 -0.1406 -0.7426
  759MOL0     C 4615   4.586   4.130   4.862 -0.4005 -0.2745  0.3489
  759MOL0     C 4616   4.686   4.051   4.778 -0.3891 -0.2871 -0.4865
  759MOL0     C 4617   4.794   3.988   4.868  0.5533  0.5163  0.1230
  759MOL0     C 4618   4.856   3.867   4.810 -0.2812 -0.2465  0.1426
  759MOL0     C 4619   4.965   3.814   4.914  0.1477  0.0349 -0.1612
  759MOL0     C 4620   5.023   3.683   4.864 -0.0620 -0.3514  0.4912
  759MOL0     N 4621   5.157   3.710   4.822 -0.1654 -0.2876  0.3071
  759MOL0     C 4622   5.194   3.770   4.707 -0.0068  0.3940  0.3046
  759MOL0     C 4623   5.329   3.758   4.707 -0.3760  0.6031  0.1854
  759MOL0     C 4624   5.417   3.790   4.587 -0.6878  0.9452 -0.7908
  759MOL0     C 4625   5.493   3.665   4.532  0.2615 -0.0342 -0.0256
  759MOL0     C 4626   5.438   3.604   4.398 -0.0687  0.7824  0.4551
  759MOL0     C 4627   5.531   3.489   4.340 -0.6413 -0.5977 -0.2011
  759MOL0     O 4628   5.666   3.539   4.311  0.2354 -0.0518  0.5934
  759MOL0     C 4629   5.770   3.455   4.284  0.3154 -0.2499 -0.3646
  759MOL0     C 4630   5.894   3.513   4.262 -0.0384 -0.3485  0.6135
  759MOL0     C 4631   5.999   3.441   4.206 -0.2089  0.6306 -0.1591
  759MOL0     C 4632   6.133   3.507   4.167 -0.5441  0.2288 -1.3506
  759MOL0     C 4633   5.984   3.299   4.197 -0.5050 -0.6117 -0.0131
  759MOL0     C 4634   6.091   3.214   4.140  0.7429 -0.0725  0.2632
  759MOL0     O 4635   6.118   3.095   4.194  0.3572 -0.2911  0.0143
  759MOL0     C 4636   6.210   3.017   4.129  0.4626 -0.4274  0.2791
  759MOL0     C 4637   6.340   3.050   4.152  0.1449  0.0585 -0.5930
  759MOL0     C 4638   6.448   2.979   4.096 -0.1680 -0.1799  1.1579
  759MOL0     C 4639   6.421   2.878   4.005 -0.2383  0.7732  0.3459
  759MOL0     O 4640   6.513   2.791   3.944  0.2119 -0.6487  0.2606
  759MOL0     C 4641   6.649   2.833   3.926  0.7702  0.3108 -0.2999
  759MOL0     C 4642   6.731   2.717   3.877 -0.4303 -0.2520 -0.8066
  759MOL0     C 4643   6.837   2.753   3.771  0.6005  0.6758 -0.0740
  759MOL0     C 4644   6.903   2.633   3.703 -0.0193  0.6068 -1.0443
  759MOL0     C 4645   6.993   2.662   3.592 -0.1075  0.1612 -0.1359
  759MOL0     C 4646   7.090   2.541   3.581 -0.0994 -0.5361  0.5064
  759MOL0     C 4647   7.165   2.552   3.447  0.7625 -0.4726  0.2577
  759MOL0     C 4648   7.242   2.684   3.432  0.1315 -0.2479  0.4673
  759MOL0    Cl 4649   7.134   2.800   3.344  0.3410 -0.2659 -0.7375
  759MOL0     C 4650   6.281   2.843   3.977 -0.3260  1.0980  0.6271
  759MOL0     C 4651   6.182   2.921   4.031  0.6050  1.2657  0.1782
  759MOL0     O 4652   6.134   3.248   4.032 -0.1156 -0.3996 -0.7644
  759MOL0     C 4653   5.870   3.240   4.254 -0.0949 -0.0400  0.7629
  759MOL0     C 4654   5.767   3.315   4.289  0.4396 -0.3855 -0.3918
  759MOL0     N 4655   5.370   3.714   4.842 -0.7270  0.6607  0.7216
  759MOL0     N 4656   5.261   3.680   4.901  0.7439  0.0796  0.0764
  759MOL0     C 4657   4.184   3.822   4.881 -0.5792 -0.2491 -0.0593
  759MOL0     C 4658   4.058   3.764   4.920  0.4601 -0.0786 -1.2480
  759MOL0     C 4659   3.601   3.749   5.025  0.2157  0.3428 -0.8388
  759MOL0     C 4660   3.472   3.811   5.011 -0.7439  0.5458  0.6225
  759MOL0     C 4661   3.354   3.743   5.030  0.3614  0.1300 -0.8915
  759MOL0     C 4662   3.362   3.613   5.049  0.9337  0.2581 -0.0167
  759MOL0     O 4663   3.237   3.547   5.046  0.4008 -0.1864 -0.7270
  759MOL0     C 4664   3.208   3.413   5.080  0.6431 -0.6426  0.9866
  759MOL0     C 4665   3.137   3.342   4.966 -0.9826  0.5190 -0.4817
  759MOL0     C 4666   3.002   3.403   4.928 -0.1801  0.2038 -0.1062
  759MOL0     C 4667   3.002   3.551   4.870 -0.3328  1.0020  0.1462
  759MOL0     C 4668   2.873   3.572   4.795 -0.4391 -0.1001 -1.1519
  759MOL0     C 4669   2.776   3.601   4.726  0.4152  0.0239  0.1346
  759MOL0     C 4670   3.481   3.540   5.055 -0.3359  0.3264  0.3431
  759MOL0     C 4671   3.604   3.608   5.053  0.1544 -0.5756 -0.9654
  759MOL0     C 4672   3.731   3.524   5.087  0.0092  0.2147  0.3232
  759MOL0     H 4673   3.862   4.042   4.888 -0.2828  0.4926  0.1262
  759MOL0     H 4674   4.080   4.140   4.869 -1.4880  0.0454 -1.9743
  759MOL0     H 4675   4.312   4.184   4.916  0.0268  0.0139 -0.1382
  759MOL0     H 4676   4.278   4.162   4.737  1.6633 -1.8849 -1.6605
  759MOL0     H 4677   4.488   4.159   4.671  1.6488  0.0390 -0.5789
  759MOL0     H 4678   4.463   4.283   4.800 -1.6752 -1.1480  5.5275
  759MOL0     H 4679   4.643   4.221   4.884 -0.7302  0.2427 -0.8247
  759MOL0     H 4680   4.553   4.067   4.945  1.6371 -3.1345 -0.8545
  759MOL0     H 4681   4.649   3.964   4.723 -1.7657  1.9147 -3.3335
  759MOL0     H 4682   4.728   4.126   4.711 -2.2692 -0.4953 -1.9890
  759MOL0     H 4683   4.741   3.967   4.961  0.4683  2.9415  0.6753
  759MOL0     H 4684   4.869   4.064   4.891  0.8162 -0.3797  2.5163
  759MOL0     H 4685   4.786   3.789   4.780  1.9264 -2.2086 -0.1709
  759MOL0     H 4686   4.908   3.899   4.719 -0.0756 -0.4226  0.1974
  759MOL0     H 4687   4.910   3.792   5.006 -1.7650 -0.7470 -1.4363
  759MOL0     H 4688   5.041   3.891   4.930  1.7933 -1.5138 -0.0305
  759MOL0     H 4689   5.026   3.608   4.943  0.2286 -1.1737 -0.2937
  759MOL0     H 4690   4.967   3.637   4.783 -0.3351  0.4020  0.2389
  759MOL0     H 4691   5.129   3.815   4.633 -1.3253 -1.1968  0.4440
  759MOL0     H 4692   5.490   3.862   4.627  0.7898 -0.3155 -1.1330
  759MOL0     H 4693   5.364   3.839   4.505 -1.1463  0.3438 -0.8603
  759MOL0     H 4694   5.593   3.705   4.512 -0.8059  3.3007  0.6884
  759MOL0     H 4695   5.496   3.597   4.618  4.8382  0.9001  0.8418
  759MOL0     H 4696   5.334   3.570   4.405 -0.0273 -0.2620 -2.5016
  759MOL0     H 4697   5.440   3.687   4.327 -0.7245 -1.8439 -2.8633
  759MOL0     H 4698   5.532   3.411   4.417  0.9979  0.7142  1.2089
  759MOL0     H 4699   5.485   3.462   4.244  0.3133  0.1769 -0.8879
  759MOL0     H 4700   5.893   3.621   4.274  0.0590 -0.2923  0.1328
  759MOL0     H 4701   6.153   3.602   4.217 -2.8544  0.4643 -0.7263
  759MOL0     H 4702   6.132   3.528   4.060  0.3689  0.4138 -1.3276
  759MOL0     H 4703   6.215   3.441   4.196 -0.8231  1.0188  1.5811
  759MOL0     H 4704   6.363   3.115   4.235  0.1727  2.3405 -2.3058
  759MOL0     H 4705   6.546   3.024   4.102 -1.7219  3.4987  1.1978
  759MOL0     H 4706   6.660   2.917   3.856  0.4275  0.7956  0.2194
  759MOL0     H 4707   6.681   2.865   4.026 -0.5399 -0.5361  0.4142
  759MOL0     H 4708   6.773   2.668   3.965 -0.0342  3.1135  1.0557
  759MOL0     H 4709   6.653   2.651   3.839 -2.4781  0.4628  1.9126
  759MOL0     H 4710   6.916   2.824   3.799 -0.6993  3.0053 -1.9537
  759MOL0     H 4711   6.781   2.815   3.700  1.0790  0.7229 -0.4112
  759MOL0     H 4712   6.834   2.554   3.673  1.7003 -1.9648  1.2651
  759MOL0     H 4713   6.966   2.595   3.784 -0.3686  2.3965  0.1250
  759MOL0     H 4714   6.936   2.682   3.500  1.0915  0.5705 -0.8185
  759MOL0     H 4715   7.053   2.752   3.612 -0.6069  0.9652 -2.0220
  759MOL0     H 4716   7.041   2.443   3.583 -0.1488 -0.5540 -0.6384
  759MOL0     H 4717   7.162   2.543   3.663 -0.3363  0.0372  0.7080
  759MOL0     H 4718   7.090   2.539   3.368  2.8617  1.3765 -2.2128
  759MOL0     H 4719   7.242   2.475   3.435  0.4704 -0.3341 -4.0992
  759MOL0     H 4720   7.338   2.675   3.380  0.9086  0.5125  1.7030
  759MOL0     H 4721   7.263   2.734   3.527 -1.0908  3.0536 -0.8389
  759MOL0     H 4722   6.269   2.760   3.908 -0.2139  2.4306 -1.0659
  759MOL0     H 4723   6.075   2.918   4.014  0.1650 -0.1339  2.7397
  759MOL0     H 4724   5.874   3.131   4.253  2.0257 -0.1471 -3.4687
  759MOL0     H 4725   5.679   3.260   4.321 -0.0924 -0.8574 -2.4648
  759MOL0     H 4726   4.277   3.767   4.867 -0.7097 -0.6912  0.7314
  759MOL0     H 4727   4.051   3.657   4.941 -2.6353  0.6661  2.4981
  759MOL0     H 4728   3.462   3.911   4.970  1.9968  0.5553 -0.2093
  759MOL0     H 4729   3.259   3.794   5.011  0.4611  1.1304  1.0986
  759MOL0     H 4730   3.286   3.347   5.120  0.1519 -1.8508  0.0290
  759MOL0     H 4731   3.140   3.426   5.165  0.1375 -0.4574  0.5568
  759MOL0     H 4732   3.111   3.239   4.990 -3.1796  1.2729  0.7191
  759MOL0     H 4733   3.204   3.332   4.881 -0.5024  0.6111 -0.1158
  759MOL0     H 4734   2.957   3.336   4.854 -1.3937 -0.5696  1.2764
  759MOL0     H 4735   2.943   3.394   5.020  1.4818 -3.3918  0.7820
  759MOL0     H 4736   3.085   3.582   4.806 -2.1852  0.8124 -2.5536
  759MOL0     H 4737   3.011   3.620   4.954 -0.0679  0.5173  0.5199
  759MOL0     H 4738   2.702   3.628   4.653  0.2975  0.3933  0.3856
  759MOL0     H 4739   3.462   3.433   5.061 -1.2381  0.4503 -0.1733
  759MOL0     H 4740   3.827   3.557   5.047  0.8308 -0.0122  2.0436
  759MOL0     H 4741   3.754   3.518   5.194  1.5103  1.5592  0.1132
  759MOL0     H 4742   3.715   3.427   5.038 -1.1901  0.2926  0.5294
  760MOL0     O 4743  10.246   6.640   5.020  0.1370  1.1365  0.0600
  760MOL0     C 4744  10.159   6.723   5.009  0.0308  0.5197  0.7008
  760MOL0     O 4745  10.169   6.834   4.938  0.1056 -0.5655  0.2229
  760MOL0     C 4746  10.286   6.885   4.888 -0.2487 -0.4842  1.0162
  760MOL0     C 4747  10.273   6.940   4.755 -0.0740  0.1123  0.6804
  760MOL0     C 4748  10.384   6.981   4.676 -1.0131 -0.3021 -0.4731
  760MOL0     C 4749  10.511   6.949   4.721  1.0643 -0.5099  0.1069
  760MOL0     O 4750  10.623   6.958   4.647  0.1519 -0.3144 -0.0803
  760MOL0     C 4751  10.623   6.999   4.512 -0.2234  0.2915 -0.4198
  760MOL0     C 4752  10.764   6.980   4.441 -0.1354  0.7836 -0.5465
  760MOL0     C 4753  10.890   7.006   4.529 -0.3020 -0.5907  1.0473
  760MOL0     C 4754  11.013   7.007   4.439 -0.5504 -0.5974 -0.6710
  760MOL0     C 4755  11.087   6.876   4.423 -0.4764 -1.0781  0.5403
  760MOL0     C 4756  11.050   6.811   4.287 -0.3885  0.3776  0.5710
  760MOL0     C 4757  11.128   6.678   4.260 -0.2860  0.7688  0.2187
  760MOL0     C 4758  11.086   6.618   4.132  0.0059 -0.3141  0.5223
  760MOL0     N 4759  11.106   6.705   4.014  0.4941  0.5666  0.6488
  760MOL0     C 4760  11.190   6.695   3.915 -0.2572  0.0298 -0.1302
  760MOL0     C 4761  11.145   6.775   3.812 -0.4682 -1.5763 -0.1887
  760MOL0     C 4762  11.198   6.816   3.684  0.6638  0.5771  0.3754
  760MOL0     C 4763  11.279   6.949   3.683 -0.6885 -0.2585 -0.3158
  760MOL0     C 4764  11.285   7.023   3.543 -0.5222  0.0312  0.0709
  760MOL0     C 4765  11.364   6.943   3.428 -0.4195  0.2140  0.5423
  760MOL0     O 4766  11.499   6.911   3.469 -0.2727 -0.0994  0.0933
  760MOL0     C 4767  11.601   6.984   3.417 -0.0949  0.3780  0.2499
  760MOL0     C 4768  11.722   6.928   3.398 -0.5505  1.1075 -0.2584
  760MOL0     C 4769  11.834   6.981   3.333  1.5258  0.3103 -0.7257
  760MOL0     C 4770  11.951   6.875   3.304 -0.8175 -0.1241 -0.3584
  760MOL0     C 4771  11.832   7.113   3.287  0.4446  0.3336 -0.2390
  760MOL0     C 4772  11.950   7.175   3.222 -0.2042  0.4712  0.1066
  760MOL0     O 4773  11.916   7.300   3.182 -0.7787  0.1058 -0.3136
  760MOL0     C 4774  12.018   7.385   3.185  0.2448  0.5460 -0.3602
  760MOL0     C 4775  12.039   7.455   3.307  0.1255  0.0847 -0.1212
  760MOL0     C 4776  12.124   7.564   3.319  1.2406 -0.4150 -0.8589
  760MOL0     C 4777  12.204   7.602   3.217 -0.1133 -1.2086  0.4715
  760MOL0     O 4778  12.305   7.695   3.225 -0.0245 -0.3536 -0.4879
  760MOL0     C 4779  12.289   7.797   3.327 -0.7490  0.9895  0.2389
  760MOL0     C 4780  12.330   7.934   3.266 -0.6660  0.1327  0.4671
  760MOL0     C 4781  12.327   8.038   3.371 -0.2229  0.5670  0.6559
  760MOL0     C 4782  12.388   8.170   3.319  0.6377  0.7107 -0.1774
  760MOL0     C 4783  12.420   8.277   3.423 -0.2004 -0.4862  0.2956
  760MOL0     C 4784  12.447   8.416   3.367 -0.4683  0.5381  0.3300
  760MOL0     C 4785  12.468   8.507   3.483 -0.4264 -0.3058  0.2051
  760MOL0     C 4786  12.458   8.652   3.437 -0.3891 -0.4467  0.4170
  760MOL0    Cl 4787  12.456   8.751   3.600 -0.0341  0.1994 -0.2420
  760MOL0     C 4788  12.186   7.538   3.097  0.1396  0.5134 -0.1946
  760MOL0     C 4789  12.097   7.428   3.084  0.2269 -0.8770 -0.2212
  760MOL0     O 4790  12.064   7.116   3.222  0.2622  0.0892  0.7257
  760MOL0     C 4791  11.705   7.169   3.308  0.0077  0.5548  0.5904
  760MOL0     C 4792  11.602   7.109   3.372 -0.0203  0.5372  0.2014
  760MOL0     N 4793  11.021   6.826   3.852 -0.7011  0.6955 -0.4635
  760MOL0     N 4794  11.006   6.791   3.974 -0.1189  0.2826 -0.4221
  760MOL0     C 4795  10.530   6.896   4.853 -0.0922 -1.1138 -0.6650
  760MOL0     C 4796  10.417   6.868   4.932  0.0511  0.5902 -0.1769
  760MOL0     C 4797  10.015   6.687   5.050 -1.2565 -0.1043 -0.5519
  760MOL0     C 4798   9.991   6.561   5.107  0.8970  0.4022  0.3691
  760MOL0     C 4799   9.867   6.518   5.151 -0.6358  0.7507  0.1099
  760MOL0     C 4800   9.757   6.592   5.123  0.9088 -0.4407 -0.0200
  760MOL0     O 4801   9.644   6.528   5.166 -0.2262  0.6391  0.2715
  760MOL0     C 4802   9.511   6.579   5.150 -0.1725  0.0917 -0.0821
  760MOL0     C 4803   9.410   6.465   5.124  0.1378 -1.6256 -0.3100
  760MOL0     C 4804   9.463   6.331   5.057  0.6094  0.7680 -0.3234
  760MOL0     C 4805   9.566   6.348   4.941  0.6392 -0.5476 -0.9176
  760MOL0     C 4806   9.518   6.450   4.850 -0.3751  0.4415  0.5431
  760MOL0     C 4807   9.458   6.523   4.771 -1.0954  0.6163  0.1187
  760MOL0     C 4808   9.772   6.725   5.072 -0.5219  0.7916 -1.0096
  760MOL0     C 4809   9.897   6.771   5.028 -0.1953  0.5101 -0.1413
  760MOL0     C 4810   9.909   6.910   4.971  0.6262  0.8405 -0.6486
  760MOL0     H 4811  10.179   6.960   4.705  1.1696  0.7271 -1.5465
  760MOL0     H 4812  10.356   7.018   4.577 -3.8882 -0.8780  0.0396
  760MOL0     H 4813  10.604   7.106   4.513 -0.7224  0.2201  1.3658
  760MOL0     H 4814  10.564   6.928   4.453  0.6647  1.4807 -2.8548
  760MOL0     H 4815  10.765   6.876   4.407  0.3458  0.1133  1.3741
  760MOL0     H 4816  10.772   7.053   4.361 -1.8929  1.2975 -0.3011
  760MOL0     H 4817  10.879   7.102   4.579  2.2534 -0.8168  2.2356
  760MOL0     H 4818  10.902   6.934   4.611 -2.7245 -1.7364  0.4954
  760MOL0     H 4819  10.990   7.042   4.338 -0.7627  1.3984  0.0319
  760MOL0     H 4820  11.077   7.082   4.486  1.7775 -3.4117  1.0096
  760MOL0     H 4821  11.066   6.801   4.500 -0.4183 -1.6713 -0.0127
  760MOL0     H 4822  11.194   6.896   4.409 -1.0896  1.3588 -1.3219
  760MOL0     H 4823  10.942   6.795   4.291 -0.4331  0.8304  3.2185
  760MOL0     H 4824  11.082   6.879   4.207  2.3702  0.3313  1.5300
  760MOL0     H 4825  11.112   6.610   4.344  1.8230  1.6017  1.3799
  760MOL0     H 4826  11.233   6.707   4.249  0.7403 -2.6896 -0.4595
  760MOL0     H 4827  11.138   6.523   4.112 -0.9571 -0.4805 -1.3421
  760MOL0     H 4828  10.983   6.583   4.139  0.1724 -0.6821  1.3268
  760MOL0     H 4829  11.287   6.646   3.928  0.5583  1.6035 -0.0965
  760MOL0     H 4830  11.118   6.816   3.609  3.0803 -1.2042 -2.4683
  760MOL0     H 4831  11.256   6.735   3.638 -0.9809 -0.8060  0.6350
  760MOL0     H 4832  11.237   7.019   3.756 -2.7436  0.5911 -2.1926
  760MOL0     H 4833  11.379   6.932   3.724 -0.9574  2.8089  1.9382
  760MOL0     H 4834  11.183   7.042   3.507 -1.0409  2.3495  2.4119
  760MOL0     H 4835  11.329   7.121   3.562  1.0450 -0.4628 -0.8367
  760MOL0     H 4836  11.318   6.845   3.411  3.4943 -1.9328  1.1152
  760MOL0     H 4837  11.355   7.001   3.335 -2.3772 -1.6307 -0.5196
  760MOL0     H 4838  11.724   6.823   3.428 -0.8611  1.0559 -0.4082
  760MOL0     H 4839  11.998   6.881   3.206 -0.6245  1.2218 -0.2041
  760MOL0     H 4840  11.899   6.781   3.321 -1.2460  0.2761  0.6186
  760MOL0     H 4841  12.027   6.894   3.381 -2.6870 -1.0191  1.8137
  760MOL0     H 4842  11.985   7.431   3.398  1.6379 -1.5652  0.3759
  760MOL0     H 4843  12.122   7.612   3.416 -1.0795  0.4075 -1.2488
  760MOL0     H 4844  12.189   7.792   3.372 -1.6803 -0.1171 -1.8031
  760MOL0     H 4845  12.364   7.783   3.405 -1.2696 -0.6002  0.5018
  760MOL0     H 4846  12.431   7.934   3.222 -0.7681  1.3456  0.1953
  760MOL0     H 4847  12.265   7.959   3.182  0.8031 -0.0781 -0.7732
  760MOL0     H 4848  12.385   8.009   3.459 -0.5877 -0.1990  0.6555
  760MOL0     H 4849  12.228   8.051   3.416 -0.9938 -0.5103 -0.6413
  760MOL0     H 4850  12.316   8.213   3.249 -0.1731 -0.5750 -0.1674
  760MOL0     H 4851  12.482   8.158   3.264  3.8599 -0.7904  4.9682
  760MOL0     H 4852  12.330   8.292   3.483  0.2657 -0.0309  0.8986
  760MOL0     H 4853  12.506   8.246   3.483 -1.1622 -2.1736  0.8753
  760MOL0     H 4854  12.357   8.443   3.312 -0.5981 -0.2775  0.1358
  760MOL0     H 4855  12.534   8.409   3.301  0.9321 -3.9678  2.2487
  760MOL0     H 4856  12.573   8.502   3.512  0.1598 -4.4231 -1.8197
  760MOL0     H 4857  12.398   8.491   3.566 -0.1211 -1.5127  0.2475
  760MOL0     H 4858  12.364   8.659   3.382 -0.5233  2.0592  0.8750
  760MOL0     H 4859  12.536   8.683   3.367  0.3749 -0.5757  1.1907
  760MOL0     H 4860  12.243   7.556   3.006  1.2513 -1.3221  0.0805
  760MOL0     H 4861  12.079   7.382   2.987 -0.1849 -0.8941 -0.1379
  760MOL0     H 4862  11.686   7.266   3.263 -1.4821  0.4820  1.0182
  760MOL0     H 4863  11.511   7.167   3.367 -2.7882 -3.4718 -0.6741
  760MOL0     H 4864  10.635   6.899   4.883 -0.5321  3.0907  1.1520
  760MOL0     H 4865  10.443   6.831   5.030  1.3822  1.9660  0.0181
  760MOL0     H 4866  10.073   6.493   5.130  0.1831 -0.9345 -0.8642
  760MOL0     H 4867   9.856   6.412   5.171 -1.4913  0.6395 -0.8775
  760MOL0     H 4868   9.467   6.633   5.234  1.1885 -1.7366  1.9345
  760MOL0     H 4869   9.504   6.643   5.062 -0.7145 -0.9946 -0.8548
  760MOL0     H 4870   9.327   6.503   5.064  0.4215 -1.4684 -0.6063
  760MOL0     H 4871   9.370   6.441   5.223  0.5238  0.9570  0.5507
  760MOL0     H 4872   9.513   6.279   5.140  0.1795  0.3013 -0.3551
  760MOL0     H 4873   9.379   6.267   5.029  0.1196 -2.0153  5.8178
  760MOL0     H 4874   9.572   6.249   4.894 -0.7744  0.0597 -2.5219
  760MOL0     H 4875   9.661   6.382   4.983 -1.3825  1.9224  2.1164
  760MOL0     H 4876   9.423   6.609   4.717  3.5452  1.5355 -1.8707
  760MOL0     H 4877   9.678   6.779   5.074 -0.1146  1.5005 -0.9891
  760MOL0     H 4878   9.981   6.927   4.890  0.6911 -0.8442 -0.9752
  760MOL0     H 4879   9.806   6.929   4.939  0.5479 -0.1850 -1.0329
  760MOL0     H 4880   9.934   6.989   5.044  1.0086 -1.8838  2.4012
  761MOL0     O 4881   1.362   7.186   3.479  0.6570 -0.0501  0.2974
  761MOL0     C 4882   1.331   7.304   3.466 -0.7614 -0.4377 -0.0957
  761MOL0     O 4883   1.414   7.395   3.410 -0.2466 -0.5482 -0.3280
  761MOL0     C 4884   1.531   7.353   3.358 -0.2417  0.4173  0.4900
  761MOL0     C 4885   1.548   7.233   3.280 -0.3408 -0.1688 -0.3408
  761MOL0     C 4886   1.669   7.213   3.209 -0.3053  0.0094  0.3319
  761MOL0     C 4887   1.773   7.300   3.210 -0.4586  0.3301  0.5549
  761MOL0     O 4888   1.886   7.266   3.139 -0.0689  0.3190  0.0416
  761MOL0     C 4889   2.004   7.316   3.205  0.8795 -0.6958  0.8688
  761MOL0     C 4890   2.127   7.238   3.174  0.1914 -0.0304  0.5754
  761MOL0     C 4891   2.137   7.087   3.201  0.4665 -0.5636 -0.4935
  761MOL0     C 4892   2.157   7.060   3.346  0.7101 -0.1344  0.1596
  761MOL0     C 4893   2.220   6.921   3.364 -0.0634 -0.8253 -0.5007
  761MOL0     C 4894   2.223   6.878   3.507  0.1509  0.8244  0.5693
  761MOL0     C 4895   2.284   6.735   3.512  0.6904 -0.0990 -0.1932
  761MOL0     C 4896   2.234   6.651   3.631  1.0056  0.1898  0.1907
  761MOL0     N 4897   2.265   6.507   3.622 -1.2667 -0.0677  0.4685
  761MOL0     C 4898   2.180   6.401   3.639  0.1416 -0.2786 -1.0105
  761MOL0     C 4899   2.257   6.290   3.647 -0.9875 -1.0736 -0.5358
  761MOL0     C 4900   2.215   6.154   3.686  0.4708  0.4945 -0.4443
  761MOL0     C 4901   2.071   6.132   3.733  0.0094 -0.7668  0.0111
  761MOL0     C 4902   2.053   5.988   3.754  0.2431 -0.2459 -0.3037
  761MOL0     C 4903   1.903   5.958   3.787  0.6987  1.3157 -0.0971
  761MOL0     O 4904   1.883   5.819   3.834  0.0185  0.1615  0.2850
  761MOL0     C 4905   1.915   5.788   3.969 -0.3206 -0.5167  0.0194
  761MOL0     C 4906   1.989   5.865   4.064 -0.6547 -0.3581  0.7535
  761MOL0     C 4907   2.013   5.812   4.188 -0.7465 -0.4769  0.0743
  761MOL0     C 4908   2.107   5.881   4.275 -0.8569 -0.8162  0.3057
  761MOL0     C 4909   1.957   5.687   4.233  0.5231  0.3135 -0.5267
  761MOL0     C 4910   1.962   5.636   4.372  1.0917 -0.5202 -0.0988
  761MOL0     O 4911   1.936   5.505   4.394 -0.0170 -0.3464 -0.3951
  761MOL0     C 4912   1.889   5.457   4.515  0.1988 -0.0519  0.4594
  761MOL0     C 4913   1.753   5.425   4.520 -0.2302  0.3593 -0.5172
  761MOL0     C 4914   1.696   5.388   4.635 -0.1031 -0.1560 -0.3717
  761MOL0     C 4915   1.776   5.378   4.753  0.0720 -0.2459  0.5560
  761MOL0     O 4916   1.726   5.322   4.872 -0.0624 -0.4918  0.2240
  761MOL0     C 4917   1.585   5.328   4.900  0.0474  0.3840 -0.0340
  761MOL0     C 4918   1.534   5.466   4.953 -0.5191  0.1359  0.1258
  761MOL0     C 4919   1.609   5.526   5.082  0.3555 -0.8125 -0.8279
  761MOL0     C 4920   1.637   5.421   5.186 -0.1686  0.3725  0.9522
  761MOL0     C 4921   1.732   5.472   5.296 -0.6363  0.4299  0.5591
  761MOL0     C 4922   1.662   5.572   5.387  0.0152 -0.3074  0.7556
  761MOL0     C 4923   1.747   5.578   5.514  0.3413  0.0981 -0.8343
  761MOL0     C 4924   1.660   5.527   5.634 -0.3299 -0.9124 -0.1265
  761MOL0    Cl 4925   1.761   5.468   5.781  0.3119 -0.2188 -0.0310
  761MOL0     C 4926   1.908   5.417   4.754 -0.8948 -0.1063  0.5279
  761MOL0     C 4927   1.963   5.465   4.638 -0.1442  0.4736  0.0287
  761MOL0     O 4928   1.967   5.719   4.465 -0.3904  0.4232 -0.5367
  761MOL0     C 4929   1.887   5.614   4.133 -0.0974 -0.0633 -0.5387
  761MOL0     C 4930   1.867   5.659   4.007 -0.0759  0.0809  0.1827
  761MOL0     N 4931   2.390   6.336   3.641  0.2076  0.1521 -0.6393
  761MOL0     N 4932   2.399   6.468   3.616 -0.8110  0.3929  0.4712
  761MOL0     C 4933   1.756   7.416   3.291  0.1191  1.4545  0.6939
  761MOL0     C 4934   1.639   7.444   3.353  0.1323  0.1852  0.6713
  761MOL0     C 4935   1.203   7.347   3.521  0.9219 -0.3575  0.0957
  761MOL0     C 4936   1.153   7.475   3.486  0.9888  0.3038 -0.1483
  761MOL0     C 4937   1.023   7.517   3.527 -0.2988 -0.3384 -0.2259
  761MOL0     C 4938   0.942   7.442   3.609  0.8372  0.7592  0.7315
  761MOL0     O 4939   0.815   7.491   3.640  0.1769 -0.6811  0.5074
  761MOL0     C 4940   0.762   7.461   3.767  0.9659 -0.6977 -0.4676
  761MOL0     C 4941   0.662   7.564   3.812  0.2969 -0.8752 -0.0351
  761MOL0     C 4942   0.706   7.714   3.831  0.4474 -0.0414 -0.8641
  761MOL0     C 4943   0.736   7.792   3.697  0.1164 -0.3227  0.0366
  761MOL0     C 4944   0.758   7.937   3.730 -0.1139  0.4383 -0.0297
  761MOL0     C 4945   0.783   8.052   3.752  0.1508 -0.8243  0.1730
  761MOL0     C 4946   0.991   7.316   3.645  0.5431 -0.9841  0.0773
  761MOL0     C 4947   1.121   7.276   3.610  0.6946 -0.4248 -0.1407
  761MOL0     C 4948   1.178   7.160   3.690 -0.8841  0.4722  0.4472
  761MOL0     H 4949   1.460   7.170   3.271 -1.6640  0.7471  3.8921
  761MOL0     H 4950   1.675   7.126   3.144  0.5549  0.3260 -0.0275
  761MOL0     H 4951   1.999   7.319   3.314 -1.1043  0.0993  0.8014
  761MOL0     H 4952   2.019   7.420   3.175  1.8777 -1.0337  0.1332
  761MOL0     H 4953   2.126   7.240   3.064 -3.5477 -2.0251  0.4026
  761MOL0     H 4954   2.207   7.287   3.230  1.2812  1.7389 -2.2588
  761MOL0     H 4955   2.044   7.038   3.169 -0.5353 -1.4414  3.2854
  761MOL0     H 4956   2.219   7.045   3.143  1.2511 -0.0895  0.2501
  761MOL0     H 4957   2.217   7.139   3.392 -0.5167  0.7556  0.3110
  761MOL0     H 4958   2.063   7.052   3.402  0.5798 -0.6725 -0.1306
  761MOL0     H 4959   2.326   6.924   3.337  0.3933  1.6664  1.1774
  761MOL0     H 4960   2.172   6.843   3.304 -1.4584  0.0222 -0.5317
  761MOL0     H 4961   2.273   6.952   3.570 -1.2282  2.1736  0.1391
  761MOL0     H 4962   2.121   6.872   3.546  0.8603 -1.4859  2.2257
  761MOL0     H 4963   2.393   6.733   3.508  0.7416 -0.5430  1.0227
  761MOL0     H 4964   2.250   6.679   3.423  1.0266 -1.2122  0.3567
  761MOL0     H 4965   2.287   6.686   3.720  1.3703 -0.2168  0.1369
  761MOL0     H 4966   2.126   6.659   3.649  1.1089 -1.7067  2.0475
  761MOL0     H 4967   2.072   6.405   3.649 -0.0287 -1.9486 -1.8961
  761MOL0     H 4968   2.270   6.134   3.778 -0.4683 -3.2964 -0.5283
  761MOL0     H 4969   2.242   6.090   3.602 -0.0867 -1.6900  0.9632
  761MOL0     H 4970   2.062   6.189   3.826  1.4871 -0.2213 -0.1487
  761MOL0     H 4971   1.991   6.158   3.664  0.9625  2.4909 -0.0059
  761MOL0     H 4972   2.074   5.926   3.666 -1.1182 -1.0125 -0.1181
  761MOL0     H 4973   2.126   5.953   3.827  1.4784  2.1551 -0.2884
  761MOL0     H 4974   1.868   6.028   3.864  1.5378 -0.3415  1.8608
  761MOL0     H 4975   1.840   5.964   3.697  0.6118 -3.2960 -0.5672
  761MOL0     H 4976   2.048   5.952   4.039  1.4955 -1.3812  1.9470
  761MOL0     H 4977   2.067   5.923   4.368  0.7933  2.7448 -0.4076
  761MOL0     H 4978   2.152   5.975   4.241 -0.5516 -0.9297  0.3892
  761MOL0     H 4979   2.181   5.805   4.301 -2.6252 -2.9696 -0.7201
  761MOL0     H 4980   1.684   5.436   4.437 -1.4536 -1.6018  0.1770
  761MOL0     H 4981   1.589   5.369   4.636 -0.8250  3.3334  0.9649
  761MOL0     H 4982   1.521   5.288   4.821 -2.4329 -1.5581  2.6840
  761MOL0     H 4983   1.564   5.258   4.982 -1.4968  0.2950 -0.4728
  761MOL0     H 4984   1.549   5.536   4.869  1.9429 -1.6120 -1.0391
  761MOL0     H 4985   1.431   5.435   4.972 -0.4197 -0.9704 -0.9509
  761MOL0     H 4986   1.546   5.605   5.125  2.7524 -0.6729  2.8119
  761MOL0     H 4987   1.706   5.569   5.058 -0.3639  2.3341  1.2998
  761MOL0     H 4988   1.687   5.339   5.133  2.6337  2.2445  0.4657
  761MOL0     H 4989   1.542   5.380   5.220 -0.2943  0.2214  0.4335
  761MOL0     H 4990   1.777   5.388   5.350  1.2674  0.9910 -0.0704
  761MOL0     H 4991   1.820   5.528   5.262 -1.1327  2.3241  2.2130
  761MOL0     H 4992   1.559   5.553   5.421  0.1841  2.2179  2.9124
  761MOL0     H 4993   1.664   5.671   5.341 -3.3224  1.2896  3.5738
  761MOL0     H 4994   1.766   5.681   5.544 -1.9367  0.8899 -1.9120
  761MOL0     H 4995   1.840   5.520   5.522  0.6800  0.7989  0.7303
  761MOL0     H 4996   1.595   5.446   5.599  0.7503 -1.4131 -1.0377
  761MOL0     H 4997   1.598   5.608   5.674  1.8509  0.7235  0.1490
  761MOL0     H 4998   1.958   5.413   4.851  0.3056  0.5350 -0.0555
  761MOL0     H 4999   2.064   5.506   4.639 -0.0480  0.2380  0.6818
  761MOL0     H 5000   1.834   5.523   4.161 -3.7026  1.5056 -1.7371
  761MOL0     H 5001   1.815   5.587   3.945 -0.7580 -0.7529  1.6424
  761MOL0     H 5002   1.832   7.494   3.286 -0.1436  1.9621  3.1954
  761MOL0     H 5003   1.621   7.534   3.410 -3.7118 -0.7097  1.1667
  761MOL0     H 5004   1.206   7.530   3.408  2.9143  0.3405  1.1102
  761MOL0     H 5005   0.979   7.604   3.479 -0.4956 -2.2015 -3.7289
  761MOL0     H 5006   0.712   7.364   3.764  1.1791 -1.0512  3.2389
  761MOL0     H 5007   0.835   7.459   3.849 -2.8077  0.9367  3.3003
  761MOL0     H 5008   0.633   7.528   3.911  2.0865  0.6447  1.0819
  761MOL0     H 5009   0.575   7.557   3.745  1.0752 -2.8295 -0.9296
  761MOL0     H 5010   0.620   7.771   3.867 -0.0483  0.0017 -2.0756
  761MOL0     H 5011   0.787   7.722   3.905  0.2278  1.7059 -0.7586
  761MOL0     H 5012   0.660   7.776   3.620 -0.1457  0.6972  0.0642
  761MOL0     H 5013   0.831   7.749   3.663  0.0560 -0.8956  0.5711
  761MOL0     H 5014   0.805   8.154   3.774 -2.0067  0.1514 -1.7489
  761MOL0     H 5015   0.918   7.256   3.697 -1.8215  2.2219  0.7575
  761MOL0     H 5016   1.125   7.158   3.786 -0.9166  1.1745  0.4483
  761MOL0     H 5017   1.169   7.065   3.637 -2.6322 -1.5520  4.0304
  761MOL0     H 5018   1.286   7.175   3.701 -0.7411  0.9022 -1.3137
  762MOL0     O 5019   8.982   5.934   7.444  0.3827 -0.6038 -0.1461
  762MOL0     C 5020   8.920   6.035   7.473  0.4612 -0.8593 -0.6258
  762MOL0     O 5021   8.952   6.112   7.577  0.0258  0.1792  0.2747
  762MOL0     C 5022   9.039   6.057   7.666 -0.2506 -0.3357 -0.4416
  762MOL0     C 5023   9.031   5.935   7.736  0.3019  0.8558  0.6050
  762MOL0     C 5024   9.140   5.886   7.817 -0.1983 -0.6858  0.3040
  762MOL0     C 5025   9.265   5.966   7.820  0.5405 -0.5630 -0.6047
  762MOL0     O 5026   9.373   5.925   7.891  0.2042 -0.0753  0.4122
  762MOL0     C 5027   9.465   5.853   7.803  0.2823  0.0828 -0.8613
  762MOL0     C 5028   9.594   5.822   7.872  0.4970 -0.7934  0.4000
  762MOL0     C 5029   9.662   5.937   7.934  0.8908  0.1759 -0.6436
  762MOL0     C 5030   9.732   6.027   7.828  0.6432 -0.1615 -0.5392
  762MOL0     C 5031   9.827   6.134   7.890  0.0680 -0.5837  0.2499
  762MOL0     C 5032   9.906   6.204   7.775 -0.2162 -0.6166 -0.3504
  762MOL0     C 5033   9.996   6.323   7.829  0.2808 -0.3109 -0.1521
  762MOL0     C 5034  10.087   6.386   7.717 -0.3472  0.0035 -0.7571
  762MOL0     N 5035  10.024   6.442   7.593 -0.2154 -0.1585  0.1138
  762MOL0     C 5036   9.901   6.510   7.581  0.2233 -0.7492 -0.4796
  762MOL0     C 5037   9.903   6.570   7.463 -0.4538 -0.1773 -0.8559
  762MOL0     C 5038   9.799   6.672   7.419  0.9146 -0.5961  0.1921
  762MOL0     C 5039   9.860   6.789   7.339 -0.4407 -0.6588 -0.4326
  762MOL0     C 5040   9.939   6.880   7.438  0.3567 -0.0310  0.7584
  762MOL0     C 5041   9.990   7.005   7.356 -0.2215 -0.5458  0.1670
  762MOL0     O 5042   9.881   7.076   7.294 -0.0638  0.2033  0.3695
  762MOL0     C 5043   9.903   7.203   7.253 -0.2576  0.0320  0.0479
  762MOL0     C 5044   9.798   7.266   7.184 -0.0752 -0.1463  0.0411
  762MOL0     C 5045   9.810   7.396   7.130 -0.0172 -0.4017  0.7963
  762MOL0     C 5046   9.679   7.457   7.071  0.0367 -0.1305  0.2379
  762MOL0     C 5047   9.931   7.467   7.153 -1.5760 -0.1556 -0.5991
  762MOL0     C 5048   9.966   7.604   7.090  0.2593 -0.2644  0.3380
  762MOL0     O 5049  10.081   7.667   7.122 -0.0915  0.2324 -0.6769
  762MOL0     C 5050  10.105   7.788   7.069 -0.1072 -0.1250  0.0320
  762MOL0     C 5051  10.154   7.824   6.941 -0.3156 -0.4412 -0.0064
  762MOL0     C 5052  10.166   7.953   6.900  0.0592  0.4505 -0.4161
  762MOL0     C 5053  10.143   8.062   6.979  0.0782  0.0271 -0.3158
  762MOL0     O 5054  10.185   8.185   6.930  0.0184  0.6000 -0.0653
  762MOL0     C 5055  10.202   8.295   7.017  0.4622 -0.3724  0.1806
  762MOL0     C 5056  10.323   8.271   7.107  1.0155 -0.1759  0.2278
  762MOL0     C 5057  10.449   8.222   7.046 -0.0347  0.3670  0.1372
  762MOL0     C 5058  10.558   8.171   7.147 -0.5112  0.4183  0.7017
  762MOL0     C 5059  10.696   8.160   7.074 -0.2970  0.0953 -0.3107
  762MOL0     C 5060  10.804   8.085   7.148  0.0308 -0.6523  0.5343
  762MOL0     C 5061  10.952   8.076   7.098  0.3460 -0.1214 -0.5047
  762MOL0     C 5062  11.012   7.940   7.158 -0.0835 -0.3842  0.1812
  762MOL0    Cl 5063  11.055   7.965   7.330 -0.2209 -0.0086 -0.1890
  762MOL0     C 5064  10.085   8.035   7.102  0.2956 -0.6127  1.3673
  762MOL0     C 5065  10.070   7.899   7.144  0.1009  0.7379 -0.9714
  762MOL0     O 5066   9.876   7.660   7.036  0.4292 -0.2437  0.4357
  762MOL0     C 5067  10.036   7.406   7.228 -0.0201 -0.2177  0.4947
  762MOL0     C 5068  10.023   7.279   7.275 -0.6293  0.2789 -1.1145
  762MOL0     N 5069  10.014   6.520   7.394  0.3359  0.3378 -0.0586
  762MOL0     N 5070  10.082   6.451   7.477  0.3773 -0.2873  0.0459
  762MOL0     C 5071   9.265   6.089   7.755 -1.1682  0.7678 -0.0716
  762MOL0     C 5072   9.157   6.134   7.687  0.6073  0.1178 -0.0168
  762MOL0     C 5073   8.797   6.074   7.398 -0.3977  0.8311 -0.1745
  762MOL0     C 5074   8.718   6.173   7.450  0.6442  0.2345 -0.5125
  762MOL0     C 5075   8.609   6.212   7.382  0.8947  0.4443 -1.0104
  762MOL0     C 5076   8.561   6.154   7.269 -0.6952 -0.0908  0.2038
  762MOL0     O 5077   8.448   6.186   7.196  0.1031 -0.4911 -0.1039
  762MOL0     C 5078   8.369   6.301   7.235  0.2461 -0.1847 -0.1049
  762MOL0     C 5079   8.232   6.297   7.174 -0.0688  0.1041  0.0110
  762MOL0     C 5080   8.135   6.395   7.235  0.5324  0.6922  0.4938
  762MOL0     C 5081   8.017   6.407   7.144  0.4630  0.4919  0.1363
  762MOL0     C 5082   7.920   6.294   7.159 -0.2458 -0.3189  0.1845
  762MOL0     C 5083   7.832   6.209   7.166  0.1602  0.0825 -0.1608
  762MOL0     C 5084   8.638   6.043   7.220 -0.2435 -0.3850  0.1438
  762MOL0     C 5085   8.756   5.999   7.283  0.1727  0.0107 -0.4986
  762MOL0     C 5086   8.826   5.879   7.223  0.4578 -0.5214 -0.5493
  762MOL0     H 5087   8.935   5.885   7.732  1.5766 -1.7155 -0.3968
  762MOL0     H 5088   9.144   5.785   7.858 -1.5989 -1.0289 -0.3628
  762MOL0     H 5089   9.487   5.907   7.710  1.0555 -1.2256 -1.4649
  762MOL0     H 5090   9.427   5.752   7.782 -3.4350  0.6582  2.0659
  762MOL0     H 5091   9.582   5.740   7.944  0.2217  0.2948  1.6474
  762MOL0     H 5092   9.670   5.783   7.804  3.0125  1.6255  1.6219
  762MOL0     H 5093   9.586   5.999   7.983 -0.7095 -1.8245 -0.4507
  762MOL0     H 5094   9.730   5.911   8.016  1.1578  0.5087 -0.7557
  762MOL0     H 5095   9.784   5.970   7.751  2.1607  1.0097 -0.4262
  762MOL0     H 5096   9.651   6.079   7.775  0.5953 -1.4703 -1.8312
  762MOL0     H 5097   9.897   6.078   7.953  0.7272 -0.2807 -0.1981
  762MOL0     H 5098   9.761   6.200   7.947 -0.1768  0.4340 -1.1584
  762MOL0     H 5099   9.973   6.137   7.720  1.2135  1.8514 -1.8295
  762MOL0     H 5100   9.841   6.238   7.693  0.6763  1.9281 -0.0890
  762MOL0     H 5101  10.058   6.274   7.905  0.2563  0.2215  0.2105
  762MOL0     H 5102   9.926   6.394   7.874  1.1545  1.7911 -1.9176
  762MOL0     H 5103  10.141   6.460   7.777 -1.2735 -2.3892  3.4535
  762MOL0     H 5104  10.165   6.318   7.684  1.0469  1.2297 -0.1242
  762MOL0     H 5105   9.830   6.524   7.662  0.4387  1.1889 -0.5724
  762MOL0     H 5106   9.734   6.714   7.497 -1.8176 -1.4671 -1.4822
  762MOL0     H 5107   9.718   6.622   7.366 -0.1213 -0.9215  1.9982
  762MOL0     H 5108   9.932   6.761   7.262  1.6164  2.7234  0.0321
  762MOL0     H 5109   9.774   6.841   7.297 -0.4415  0.3680  0.7830
  762MOL0     H 5110   9.877   6.911   7.522  1.3673  0.8529  1.1944
  762MOL0     H 5111  10.020   6.818   7.476  1.1672  0.5635  0.0443
  762MOL0     H 5112  10.046   7.061   7.431 -0.7162 -0.4322  0.4543
  762MOL0     H 5113  10.056   6.971   7.275 -1.7850 -0.8825 -1.0152
  762MOL0     H 5114   9.714   7.203   7.156  0.6593 -1.8387  1.4246
  762MOL0     H 5115   9.656   7.552   7.120  2.2930  1.6723 -1.8854
  762MOL0     H 5116   9.598   7.385   7.082  1.0084 -1.3194 -0.1084
  762MOL0     H 5117   9.697   7.488   6.967  1.1812  5.6373  1.7674
  762MOL0     H 5118  10.196   7.739   6.888 -0.0920 -1.3717  1.5964
  762MOL0     H 5119  10.213   7.979   6.805 -0.1173  0.2631 -0.5559
  762MOL0     H 5120  10.220   8.383   6.954 -1.2592  0.5061  0.8371
  762MOL0     H 5121  10.117   8.321   7.081  1.8387  1.2049  1.4944
  762MOL0     H 5122  10.342   8.361   7.165  0.1835  0.0199  0.2139
  762MOL0     H 5123  10.289   8.193   7.175 -0.8913 -0.1692 -0.6503
  762MOL0     H 5124  10.490   8.300   6.981 -0.1397  0.8982  0.7000
  762MOL0     H 5125  10.420   8.141   6.978  2.3450  0.6281 -1.3047
  762MOL0     H 5126  10.521   8.075   7.186  0.1299 -0.0104  0.2811
  762MOL0     H 5127  10.564   8.242   7.229  0.0187  0.8631  0.2794
  762MOL0     H 5128  10.681   8.101   6.983 -0.5728 -0.0839 -0.1524
  762MOL0     H 5129  10.728   8.260   7.045 -0.5753  0.5462  0.9012
  762MOL0     H 5130  10.761   7.984   7.158 -2.0030 -0.2742 -2.8409
  762MOL0     H 5131  10.806   8.128   7.248  3.0144  0.9135 -0.0849
  762MOL0     H 5132  11.009   8.162   7.136 -1.9180  1.6571 -0.9369
  762MOL0     H 5133  10.959   8.083   6.989 -0.9214  0.9265 -0.5306
  762MOL0     H 5134  11.101   7.902   7.108  1.3529  1.4998  1.2005
  762MOL0     H 5135  10.930   7.867   7.156 -0.2847 -0.1473 -0.3817
  762MOL0     H 5136  10.085   8.105   7.186  2.1871 -1.2331  1.9414
  762MOL0     H 5137  10.045   7.869   7.246  0.3862  3.0966 -0.1643
  762MOL0     H 5138  10.127   7.465   7.224 -1.1659  1.5113 -2.2780
  762MOL0     H 5139  10.110   7.247   7.331 -0.6310  1.5363 -0.3677
  762MOL0     H 5140   9.355   6.148   7.767  0.8653 -1.6633 -2.0652
  762MOL0     H 5141   9.159   6.221   7.622  2.5289  2.3393  2.7684
  762MOL0     H 5142   8.745   6.214   7.547  0.9818 -3.6937  1.2389
  762MOL0     H 5143   8.562   6.306   7.409  3.8888  1.7264  0.1586
  762MOL0     H 5144   8.344   6.293   7.341 -2.4038 -3.7784 -0.8161
  762MOL0     H 5145   8.407   6.400   7.207 -0.5559  0.8474  2.1514
  762MOL0     H 5146   8.184   6.200   7.178 -2.0910  0.9523 -1.7076
  762MOL0     H 5147   8.247   6.318   7.067  0.1740 -0.2533 -0.0262
  762MOL0     H 5148   8.098   6.356   7.331  1.1224 -1.9888 -0.2760
  762MOL0     H 5149   8.183   6.492   7.244  0.0446  0.7867  2.6173
  762MOL0     H 5150   8.046   6.416   7.039  0.3659  3.1834  0.2684
  762MOL0     H 5151   7.977   6.502   7.181 -0.3060 -0.5455  2.0707
  762MOL0     H 5152   7.761   6.129   7.159 -0.8358  0.9965 -0.6219
  762MOL0     H 5153   8.599   5.995   7.131  0.3397  2.0918 -1.5761
  762MOL0     H 5154   8.828   5.805   7.303 -0.0987 -0.6936 -0.6896
  762MOL0     H 5155   8.768   5.831   7.144 -0.4277 -1.7016  0.7570
  762MOL0     H 5156   8.925   5.910   7.190 -1.2499  5.2124 -1.4167
  763MOL0     O 5157   7.520   4.241   4.345 -1.0138 -0.3831  0.2206
  763MOL0     C 5158   7.570   4.351   4.364  0.2182 -0.5541 -0.0083
  763MOL0     O 5159   7.698   4.390   4.354 -0.1844  0.2858 -0.1004
  763MOL0     C 5160   7.779   4.280   4.319 -0.9002 -0.5674 -0.2659
  763MOL0     C 5161   7.800   4.248   4.181 -0.0168 -0.2940  0.4935
  763MOL0     C 5162   7.888   4.143   4.144  0.2123  0.7812 -0.2525
  763MOL0     C 5163   7.971   4.071   4.244  0.5345  0.6623 -0.4037
  763MOL0     O 5164   8.053   3.969   4.213 -0.9157  0.4732 -0.5963
  763MOL0     C 5165   8.167   3.944   4.300 -0.6289 -0.1664  0.3498
  763MOL0     C 5166   8.271   4.053   4.255  0.1322  0.8438  0.2030
  763MOL0     C 5167   8.313   4.047   4.108 -0.4166  0.2826  0.6427
  763MOL0     C 5168   8.407   4.161   4.069 -0.0011  0.0631  0.3182
  763MOL0     C 5169   8.438   4.169   3.913 -0.7050  1.6220  0.2384
  763MOL0     C 5170   8.534   4.284   3.877  0.5235  0.0759 -0.4496
  763MOL0     C 5171   8.667   4.272   3.956 -0.1457  0.9103 -0.2065
  763MOL0     C 5172   8.774   4.357   3.892 -0.2778  0.3094 -0.3410
  763MOL0     N 5173   8.884   4.376   3.986 -0.5089  0.4355 -0.0055
  763MOL0     C 5174   9.019   4.346   3.970  1.0305  1.1215  0.0680
  763MOL0     C 5175   9.076   4.361   4.095 -0.0010 -0.1324  0.4298
  763MOL0     C 5176   9.221   4.339   4.122 -0.1358  0.3507  0.2910
  763MOL0     C 5177   9.305   4.465   4.125 -0.5026  0.2109 -0.0584
  763MOL0     C 5178   9.248   4.578   4.215 -0.0531 -0.3553  0.6510
  763MOL0     C 5179   9.354   4.694   4.217  0.0815  0.3777  0.2823
  763MOL0     O 5180   9.488   4.670   4.265 -0.5778 -0.5314  0.8298
  763MOL0     C 5181   9.578   4.773   4.248 -0.0848 -0.5078  0.3947
  763MOL0     C 5182   9.554   4.912   4.224 -0.1368  0.7332 -0.4188
  763MOL0     C 5183   9.655   5.007   4.228  0.8337  0.1201  0.7362
  763MOL0     C 5184   9.609   5.151   4.202  0.6698 -1.0935 -0.4407
  763MOL0     C 5185   9.781   4.967   4.256 -1.0727 -0.0849  0.0324
  763MOL0     C 5186   9.898   5.060   4.256 -0.4858 -0.4910 -0.0802
  763MOL0     O 5187   9.891   5.179   4.185  0.0089  0.3566 -0.0871
  763MOL0     C 5188   9.985   5.280   4.185  0.5986  0.6080  1.0810
  763MOL0     C 5189   9.979   5.374   4.082  1.4614  1.0991  0.4425
  763MOL0     C 5190  10.061   5.486   4.072 -0.6054  0.6121 -0.1460
  763MOL0     C 5191  10.168   5.502   4.160  0.4383 -0.3397 -0.5552
  763MOL0     O 5192  10.256   5.608   4.149 -0.7157 -0.2634 -0.1824
  763MOL0     C 5193  10.220   5.741   4.097  0.7583 -0.0603  0.5351
  763MOL0     C 5194  10.139   5.824   4.196  0.1182  0.6834 -0.1932
  763MOL0     C 5195  10.227   5.855   4.318  0.5703  0.2275 -0.2067
  763MOL0     C 5196  10.149   5.901   4.449  0.0374 -0.3787 -0.5947
  763MOL0     C 5197  10.043   6.024   4.425  0.1215  0.5050 -0.0899
  763MOL0     C 5198  10.118   6.156   4.395  0.1452  0.1838  0.3280
  763MOL0     C 5199  10.022   6.268   4.363  0.5637  0.6000  0.1531
  763MOL0     C 5200   9.943   6.246   4.234  0.4744 -0.3533 -0.6023
  763MOL0    Cl 5201  10.059   6.193   4.103  0.4997 -0.1415  0.2354
  763MOL0     C 5202  10.182   5.410   4.257 -0.1377 -0.3100 -0.5227
  763MOL0     C 5203  10.098   5.297   4.273  0.0990 -0.1244  0.2974
  763MOL0     O 5204   9.991   5.030   4.336  0.8192 -1.1559 -0.3781
  763MOL0     C 5205   9.813   4.832   4.288  0.2543  0.0599 -0.8967
  763MOL0     C 5206   9.712   4.741   4.274 -0.1819 -0.3182 -0.0291
  763MOL0     N 5207   8.982   4.414   4.172  1.2040 -0.0624 -1.0899
  763MOL0     N 5208   8.874   4.430   4.112  0.2444  0.7747 -1.0378
  763MOL0     C 5209   7.944   4.110   4.381  0.4556 -0.2048  0.0155
  763MOL0     C 5210   7.849   4.210   4.420  0.6414  0.7180  0.1658
  763MOL0     C 5211   7.479   4.456   4.406 -0.5604  0.5977  0.2178
  763MOL0     C 5212   7.490   4.572   4.334 -0.8896 -0.2736 -0.3541
  763MOL0     C 5213   7.445   4.691   4.388  0.0318 -0.3173  0.2636
  763MOL0     C 5214   7.380   4.689   4.508  0.1342  0.6158 -0.3079
  763MOL0     O 5215   7.340   4.801   4.577 -0.0222  0.6158 -0.0789
  763MOL0     C 5216   7.279   4.898   4.491  0.4399  0.0027  0.0080
  763MOL0     C 5217   7.221   5.015   4.569  0.6278 -0.5717 -0.0524
  763MOL0     C 5218   7.072   5.037   4.539  0.6881  0.5136 -0.3738
  763MOL0     C 5219   7.005   5.105   4.658  0.2181 -1.1331 -0.5767
  763MOL0     C 5220   7.032   5.248   4.665  0.3421 -0.9017  0.2353
  763MOL0     C 5221   7.061   5.366   4.652  0.6330 -0.6434  0.1276
  763MOL0     C 5222   7.352   4.565   4.573  0.6043 -0.7433 -0.2280
  763MOL0     C 5223   7.405   4.446   4.526  0.1809 -0.0230  0.0475
  763MOL0     C 5224   7.370   4.310   4.597 -0.6284  0.5334 -0.4554
  763MOL0     H 5225   7.745   4.307   4.109 -1.3957 -0.2448  1.5591
  763MOL0     H 5226   7.898   4.109   4.041 -1.3441 -1.8458  0.3508
  763MOL0     H 5227   8.194   3.840   4.285  1.8324  0.8004 -3.4196
  763MOL0     H 5228   8.140   3.940   4.406 -0.4996 -1.7056  0.3449
  763MOL0     H 5229   8.226   4.152   4.268 -0.9759  0.5984 -1.5052
  763MOL0     H 5230   8.366   4.038   4.309  1.0046  1.5293 -1.0958
  763MOL0     H 5231   8.360   3.949   4.098 -2.4581 -0.7293  0.3990
  763MOL0     H 5232   8.215   4.056   4.061  0.4217  1.8300 -0.9324
  763MOL0     H 5233   8.361   4.257   4.092  2.3555  1.1920  0.6007
  763MOL0     H 5234   8.500   4.144   4.123  0.3372 -1.0335 -0.5608
  763MOL0     H 5235   8.342   4.170   3.860 -1.9240 -1.9740  2.1179
  763MOL0     H 5236   8.490   4.078   3.884 -0.0893  1.6015  1.3701
  763MOL0     H 5237   8.551   4.304   3.771  2.6857  2.0248  0.1963
  763MOL0     H 5238   8.479   4.367   3.922 -0.6756 -1.1868  0.5499
  763MOL0     H 5239   8.720   4.176   3.949  2.0031  1.9241  1.1521
  763MOL0     H 5240   8.644   4.292   4.060  2.0144  1.0930  0.2927
  763MOL0     H 5241   8.803   4.310   3.798  0.5754 -1.6897  0.8644
  763MOL0     H 5242   8.737   4.458   3.869 -2.6655 -0.7284 -1.4334
  763MOL0     H 5243   9.077   4.326   3.880 -1.0095  0.9079 -1.2548
  763MOL0     H 5244   9.268   4.257   4.065 -0.5286  0.6472 -0.4622
  763MOL0     H 5245   9.229   4.297   4.224 -0.9981 -1.2655 -0.2656
  763MOL0     H 5246   9.405   4.436   4.156  1.2290  1.9258 -3.4731
  763MOL0     H 5247   9.316   4.497   4.021  0.0729 -1.6425 -0.5979
  763MOL0     H 5248   9.161   4.624   4.167 -0.4027  0.5290  2.0934
  763MOL0     H 5249   9.229   4.553   4.319  3.9211 -1.2865  1.3233
  763MOL0     H 5250   9.360   4.744   4.121  3.7814  3.4498  1.8560
  763MOL0     H 5251   9.328   4.761   4.299  0.3139  0.8816 -0.0548
  763MOL0     H 5252   9.450   4.942   4.211 -0.1584  0.7339 -0.2487
  763MOL0     H 5253   9.503   5.172   4.182  1.4070  1.2392 -2.3467
  763MOL0     H 5254   9.669   5.201   4.127  2.8775 -1.9485  0.6621
  763MOL0     H 5255   9.636   5.205   4.293  0.9727 -1.2656 -0.4275
  763MOL0     H 5256   9.906   5.359   4.003  1.1785  1.8406  0.5571
  763MOL0     H 5257  10.057   5.556   3.989  1.0796  1.9247  0.7905
  763MOL0     H 5258  10.317   5.788   4.076  0.7666  0.5190  1.8188
  763MOL0     H 5259  10.162   5.742   4.004 -1.1595 -0.6284  1.6592
  763MOL0     H 5260  10.109   5.920   4.154 -1.5533 -0.0614 -0.7768
  763MOL0     H 5261  10.042   5.777   4.215 -0.7726  1.3196 -2.7633
  763MOL0     H 5262  10.297   5.933   4.287  1.6041 -1.2526 -1.6997
  763MOL0     H 5263  10.284   5.763   4.338  0.8767 -0.6092 -4.1817
  763MOL0     H 5264  10.226   5.942   4.516 -0.3526  0.1918 -0.4822
  763MOL0     H 5265  10.090   5.823   4.498  0.6597 -1.9452 -2.2328
  763MOL0     H 5266   9.974   6.011   4.341 -0.8450  2.1177  0.4093
  763MOL0     H 5267   9.973   6.040   4.507 -0.1582 -2.1133  0.2432
  763MOL0     H 5268  10.186   6.151   4.310  0.1783  3.5066  0.0331
  763MOL0     H 5269  10.178   6.171   4.485  1.5211  2.3664 -0.8571
  763MOL0     H 5270  10.090   6.352   4.351  0.7284  0.8377  2.3167
  763MOL0     H 5271   9.952   6.277   4.447  0.1707  1.1467 -0.2298
  763MOL0     H 5272   9.888   6.334   4.200 -2.5111 -2.3098 -1.2102
  763MOL0     H 5273   9.871   6.164   4.248 -1.2932  1.2936  0.5173
  763MOL0     H 5274  10.264   5.413   4.329 -0.3459  0.2935 -0.3075
  763MOL0     H 5275  10.117   5.240   4.362 -2.1174  0.8310  1.4692
  763MOL0     H 5276   9.916   4.804   4.308 -0.2409 -1.2382 -0.0150
  763MOL0     H 5277   9.740   4.640   4.304 -1.0788  0.1776  2.7512
  763MOL0     H 5278   7.995   4.055   4.460  0.4604 -0.9533 -0.4994
  763MOL0     H 5279   7.847   4.235   4.526 -0.7306 -1.6165  0.7645
  763MOL0     H 5280   7.548   4.571   4.243  0.5556 -0.5634  0.5437
  763MOL0     H 5281   7.465   4.785   4.338  1.9162 -0.2769  1.0187
  763MOL0     H 5282   7.340   4.919   4.403 -0.3625 -0.6259 -0.7213
  763MOL0     H 5283   7.196   4.839   4.450  0.1101  1.0315 -0.8472
  763MOL0     H 5284   7.278   5.102   4.532 -0.7547  1.7652  2.9190
  763MOL0     H 5285   7.240   4.999   4.675 -1.1073 -0.0541  0.3675
  763MOL0     H 5286   7.074   5.102   4.451 -3.2172  0.2435 -0.8377
  763MOL0     H 5287   7.014   4.945   4.534 -3.5720  2.8945  0.2491
  763MOL0     H 5288   7.039   5.052   4.747  1.3707  0.3188 -0.1124
  763MOL0     H 5289   6.896   5.097   4.656  0.1000 -1.4293  2.4470
  763MOL0     H 5290   7.079   5.471   4.641 -2.7971  0.0041 -0.5383
  763MOL0     H 5291   7.285   4.554   4.659 -0.6340 -1.3659 -1.2360
  763MOL0     H 5292   7.455   4.253   4.636  0.2601  0.3531 -2.5192
  763MOL0     H 5293   7.310   4.329   4.687 -0.9002 -1.0633 -0.2798
  763MOL0     H 5294   7.312   4.242   4.534 -0.7553  0.9941 -0.8400
  764MOL0     O 5295   0.468   6.793  11.238  0.1792  0.3086 -0.3853
  764MOL0     C 5296   0.561   6.728  11.190 -1.2393 -0.4689  0.9023
  764MOL0     O 5297   0.592   6.730  11.056 -0.5267  0.1991  0.6036
  764MOL0     C 5298   0.537   6.828  10.973  1.0224  0.5517 -0.2808
  764MOL0     C 5299   0.572   6.963  10.978  0.1075  0.5502  0.3123
  764MOL0     C 5300   0.531   7.047  10.877 -0.3300  0.9318 -0.0084
  764MOL0     C 5301   0.431   7.002  10.787  0.5894 -0.3382  0.5251
  764MOL0     O 5302   0.386   7.099  10.703  0.3605 -0.1028 -0.1905
  764MOL0     C 5303   0.289   7.062  10.596  0.1064 -0.2879  1.0167
  764MOL0     C 5304   0.260   7.188  10.517  0.3800  0.8564 -0.1134
  764MOL0     C 5305   0.161   7.150  10.403  0.6911 -0.0290 -0.0630
  764MOL0     C 5306   0.133   7.271  10.321  0.1717 -0.0402 -0.2871
  764MOL0     C 5307  -0.004   7.273  10.237  0.2391  0.8966 -1.3110
  764MOL0     C 5308  -0.026   7.404  10.154  0.7763 -0.3862 -0.2305
  764MOL0     C 5309  -0.174   7.428  10.107 -0.1215  0.2593  0.2154
  764MOL0     C 5310  -0.283   7.430  10.214  0.2832  0.7293 -0.3640
  764MOL0     N 5311  -0.269   7.533  10.312 -0.4454 -0.0543  0.4151
  764MOL0     C 5312  -0.175   7.531  10.414  0.2184  0.9026 -0.2830
  764MOL0     C 5313  -0.191   7.638  10.492  0.6215 -0.1644 -0.5970
  764MOL0     C 5314  -0.114   7.668  10.619  0.2683  0.8601  0.5942
  764MOL0     C 5315  -0.171   7.596  10.747 -0.5473 -0.3194 -0.6619
  764MOL0     C 5316  -0.095   7.631  10.882  0.6574  0.0626  0.1365
  764MOL0     C 5317  -0.106   7.516  10.974 -1.2343  0.7631 -0.5778
  764MOL0     O 5318  -0.033   7.542  11.091  0.0776 -0.5262  0.2324
  764MOL0     C 5319   0.095   7.484  11.102  0.1090 -0.3335 -1.0695
  764MOL0     C 5320   0.159   7.519  11.222  0.6721  0.1896 -0.6444
  764MOL0     C 5321   0.279   7.455  11.259  0.0006  0.4396 -0.3354
  764MOL0     C 5322   0.355   7.506  11.385 -0.1716 -0.3206  1.2082
  764MOL0     C 5323   0.339   7.351  11.174 -0.1738  1.0964  0.6557
  764MOL0     C 5324   0.468   7.283  11.195  0.2281  0.0122 -0.4371
  764MOL0     O 5325   0.500   7.253  11.323 -0.6792 -0.7971 -0.0671
  764MOL0     C 5326   0.623   7.190  11.347 -0.2191 -0.1197  0.4838
  764MOL0     C 5327   0.634   7.053  11.367  0.6840  0.5604 -1.2692
  764MOL0     C 5328   0.746   6.988  11.395 -0.4081  0.0232 -0.6427
  764MOL0     C 5329   0.866   7.063  11.410  0.3274 -0.0194 -0.2234
  764MOL0     O 5330   0.996   7.015  11.421 -0.1872 -0.2041 -0.2565
  764MOL0     C 5331   1.017   6.877  11.391 -0.6342  0.1132 -0.3557
  764MOL0     C 5332   1.157   6.836  11.434  0.3272  0.4111  0.5319
  764MOL0     C 5333   1.204   6.703  11.366  0.1116 -0.1526 -0.4778
  764MOL0     C 5334   1.354   6.692  11.370 -0.2116 -0.5161  0.0758
  764MOL0     C 5335   1.411   6.567  11.314  0.1833 -0.1164  0.1409
  764MOL0     C 5336   1.556   6.568  11.255 -0.0934 -0.2670 -0.2848
  764MOL0     C 5337   1.535   6.566  11.107  0.1333 -0.7054  0.2231
  764MOL0     C 5338   1.677   6.561  11.040 -0.1720 -0.3588  0.0406
  764MOL0    Cl 5339   1.728   6.397  11.080  0.0150  0.1436 -0.0156
  764MOL0     C 5340   0.862   7.202  11.403  1.0877  0.2390  0.1126
  764MOL0     C 5341   0.735   7.267  11.370 -1.5834  0.4137  0.3128
  764MOL0     O 5342   0.538   7.263  11.094 -0.7484  0.2933 -0.0724
  764MOL0     C 5343   0.271   7.327  11.053  0.5978  0.3169  0.1806
  764MOL0     C 5344   0.153   7.394  11.016 -0.2572  0.4693  0.2601
  764MOL0     N 5345  -0.289   7.711  10.429 -0.3789 -0.7429 -0.2536
  764MOL0     N 5346  -0.337   7.647  10.321  0.9554  0.1675  0.7797
  764MOL0     C 5347   0.396   6.865  10.782  0.8290  0.2009  0.0583
  764MOL0     C 5348   0.447   6.779  10.880 -0.3505 -0.0120  0.2568
  764MOL0     C 5349   0.649   6.648  11.284  0.5600 -0.5126 -0.6056
  764MOL0     C 5350   0.772   6.617  11.233 -0.2092 -0.2993  0.3651
  764MOL0     C 5351   0.859   6.533  11.305  0.0723  0.1913  0.5511
  764MOL0     C 5352   0.833   6.496  11.436  0.1452  0.5897 -0.5983
  764MOL0     O 5353   0.931   6.433  11.511 -0.7179  0.1342 -0.0740
  764MOL0     C 5354   0.887   6.361  11.633 -0.3170  0.0992  0.9952
  764MOL0     C 5355   0.794   6.244  11.595 -0.5853  0.3696 -0.3427
  764MOL0     C 5356   0.840   6.164  11.466 -0.2101 -0.3691  0.0569
  764MOL0     C 5357   0.765   6.036  11.464  0.8670 -0.5056 -0.4593
  764MOL0     C 5358   0.618   6.067  11.485 -0.4493  1.2032 -0.2383
  764MOL0     C 5359   0.500   6.078  11.520  0.4069 -0.0573  0.5697
  764MOL0     C 5360   0.707   6.536  11.487 -0.3206  0.1874  0.5516
  764MOL0     C 5361   0.626   6.621  11.417 -0.1560  0.6968 -0.0818
  764MOL0     C 5362   0.507   6.665  11.496 -0.2465 -0.5789 -0.3055
  764MOL0     H 5363   0.639   7.003  11.053  1.4521  0.6611 -0.8973
  764MOL0     H 5364   0.572   7.147  10.883  1.2463  0.3154 -0.0868
  764MOL0     H 5365   0.197   7.025  10.642 -0.9379  0.0039 -0.7278
  764MOL0     H 5366   0.323   6.987  10.524  0.9501 -0.9597  2.0810
  764MOL0     H 5367   0.228   7.265  10.588  1.5587 -0.4078  1.8828
  764MOL0     H 5368   0.350   7.225  10.466  0.1416 -0.6030 -1.6837
  764MOL0     H 5369   0.195   7.066  10.343 -1.3565 -1.3408  0.4799
  764MOL0     H 5370   0.062   7.114  10.434 -0.4891  0.4248 -2.9643
  764MOL0     H 5371   0.130   7.364  10.379  0.7678 -0.1409 -0.0862
  764MOL0     H 5372   0.212   7.288  10.247 -2.2329 -0.7762 -3.1923
  764MOL0     H 5373  -0.088   7.251  10.304 -0.6645 -0.5214 -2.8160
  764MOL0     H 5374  -0.003   7.189  10.166  0.0875  0.1114 -0.4116
  764MOL0     H 5375   0.002   7.492  10.212 -3.0138  0.3155  0.8160
  764MOL0     H 5376   0.048   7.403  10.073  1.4619 -2.6230  0.3332
  764MOL0     H 5377  -0.206   7.349  10.039 -0.8600  1.3861 -0.7930
  764MOL0     H 5378  -0.179   7.520  10.049  0.4015 -1.1445 -2.1749
  764MOL0     H 5379  -0.379   7.451  10.165  0.2663  3.3001  0.6185
  764MOL0     H 5380  -0.282   7.332  10.261  2.5727  0.4501 -0.8656
  764MOL0     H 5381  -0.119   7.441  10.435 -1.8510 -0.6545 -1.1147
  764MOL0     H 5382  -0.116   7.775  10.639  1.6993  1.4544 -2.0785
  764MOL0     H 5383  -0.012   7.634  10.600 -0.2947 -1.0848  0.8444
  764MOL0     H 5384  -0.277   7.624  10.751 -0.6417 -0.6176 -0.9855
  764MOL0     H 5385  -0.156   7.490  10.727 -1.1543 -0.4717 -0.3459
  764MOL0     H 5386   0.010   7.645  10.857  0.9510 -2.8570 -0.6176
  764MOL0     H 5387  -0.138   7.724  10.921 -0.3715 -0.0727 -0.6030
  764MOL0     H 5388  -0.213   7.515  10.994 -2.2148 -0.5014 -4.9345
  764MOL0     H 5389  -0.089   7.421  10.923 -2.9588 -0.3456  0.8087
  764MOL0     H 5390   0.102   7.600  11.267 -0.6320 -1.1075  0.1047
  764MOL0     H 5391   0.456   7.532  11.354 -0.7291 -0.1726 -0.5710
  764MOL0     H 5392   0.364   7.419  11.451 -0.1331 -1.2735 -0.0083
  764MOL0     H 5393   0.297   7.592  11.420 -0.2671 -0.4193  1.2940
  764MOL0     H 5394   0.535   7.010  11.370 -0.7744  3.7018 -0.2082
  764MOL0     H 5395   0.741   6.883  11.423 -2.5906  0.2262 -0.0111
  764MOL0     H 5396   0.942   6.815  11.442  0.8200 -1.4034  0.0205
  764MOL0     H 5397   1.002   6.875  11.283  1.2061  1.0313 -0.6604
  764MOL0     H 5398   1.227   6.912  11.399  0.1460 -0.2958 -1.5482
  764MOL0     H 5399   1.160   6.835  11.543  1.7050  1.2696  0.5297
  764MOL0     H 5400   1.168   6.699  11.263 -0.8047 -0.1791 -0.1612
  764MOL0     H 5401   1.163   6.616  11.417  1.5577 -0.9060 -0.5490
  764MOL0     H 5402   1.397   6.709  11.470 -1.7568  3.5238  0.2620
  764MOL0     H 5403   1.397   6.778  11.317  1.3511 -0.7143  0.9719
  764MOL0     H 5404   1.399   6.499  11.399 -3.8434 -1.5893 -1.3499
  764MOL0     H 5405   1.335   6.534  11.242 -0.5196  0.2370  0.7164
  764MOL0     H 5406   1.597   6.472  11.285 -2.1969 -1.6112 -1.4487
  764MOL0     H 5407   1.612   6.652  11.297  2.9509 -2.5824  0.5797
  764MOL0     H 5408   1.485   6.656  11.071  1.5967  0.6986  1.5368
  764MOL0     H 5409   1.475   6.480  11.077 -1.8197  0.1495  1.4963
  764MOL0     H 5410   1.752   6.628  11.084  1.1536 -1.9996  0.4002
  764MOL0     H 5411   1.675   6.561  10.931  0.6625 -0.7582  0.0157
  764MOL0     H 5412   0.945   7.272  11.395 -0.1115  1.6251 -0.8584
  764MOL0     H 5413   0.735   7.375  11.370 -0.9913  0.5039  3.5275
  764MOL0     H 5414   0.310   7.254  10.982 -1.8098 -0.0612 -0.8551
  764MOL0     H 5415   0.120   7.376  10.914  3.1280 -4.2195 -0.2885
  764MOL0     H 5416   0.332   6.835  10.700 -0.9501 -0.5753  1.6405
  764MOL0     H 5417   0.426   6.673  10.871  0.5041 -0.1769  0.1635
  764MOL0     H 5418   0.798   6.636  11.129 -1.5087  0.0108  0.0815
  764MOL0     H 5419   0.954   6.523  11.253 -0.6920 -1.1700 -0.6269
  764MOL0     H 5420   0.977   6.315  11.674 -2.9885 -2.5858  4.4188
  764MOL0     H 5421   0.847   6.420  11.715 -2.0781 -1.2195  1.1449
  764MOL0     H 5422   0.686   6.264  11.594 -0.7642 -0.4996 -1.7068
  764MOL0     H 5423   0.796   6.167  11.673  0.7437 -0.3492 -1.0441
  764MOL0     H 5424   0.818   6.224  11.377  0.7428  1.7554  1.1690
  764MOL0     H 5425   0.943   6.136  11.486 -0.7710 -2.5323  0.0983
  764MOL0     H 5426   0.794   5.971  11.546 -1.7389  1.4203  2.2141
  764MOL0     H 5427   0.762   5.981  11.370  0.7828 -2.3779  0.5951
  764MOL0     H 5428   0.404   6.082  11.566  0.3183 -1.1619  0.5183
  764MOL0     H 5429   0.681   6.522  11.592  1.4943  2.1166  1.3258
  764MOL0     H 5430   0.498   6.614  11.592 -0.9677 -0.8923 -0.5285
  764MOL0     H 5431   0.532   6.766  11.528  1.2443 -1.2049  0.5773
  764MOL0     H 5432   0.411   6.664  11.444  0.4955  0.6526 -1.7697
  765MOL0     O 5433   6.992   4.897   4.210 -0.8910  0.3712 -0.0275
  765MOL0     C 5434   6.996   4.919   4.093  0.2065 -0.2007  1.0683
  765MOL0     O 5435   7.007   4.829   3.998  0.5696 -0.7473  0.7468
  765MOL0     C 5436   7.026   4.699   4.028 -0.4976 -0.1230 -0.3439
  765MOL0     C 5437   7.143   4.656   4.095 -0.1262  0.4610 -0.1780
  765MOL0     C 5438   7.158   4.526   4.130 -0.2465 -0.1308  0.0449
  765MOL0     C 5439   7.055   4.428   4.109 -0.4221 -0.1587 -0.3464
  765MOL0     O 5440   7.069   4.295   4.150 -0.3646  0.6963 -0.5073
  765MOL0     C 5441   7.159   4.252   4.246 -0.2491  0.7857 -1.1923
  765MOL0     C 5442   7.103   4.120   4.310 -0.1952  0.2486  0.1549
  765MOL0     C 5443   7.086   4.004   4.213  0.2371 -0.7468 -0.7551
  765MOL0     C 5444   7.080   3.863   4.276 -0.3750 -0.1764 -0.3095
  765MOL0     C 5445   7.001   3.765   4.192  0.2971 -0.1599  0.5814
  765MOL0     C 5446   7.096   3.702   4.086  0.0551 -0.1850  0.1208
  765MOL0     C 5447   7.023   3.606   3.988  0.3407 -0.3575 -0.0744
  765MOL0     C 5448   7.116   3.564   3.869 -0.5473 -0.0319 -0.2911
  765MOL0     N 5449   7.232   3.483   3.917  0.2742  0.0973 -0.1429
  765MOL0     C 5450   7.243   3.371   3.998  0.2638 -0.1593 -0.4083
  765MOL0     C 5451   7.365   3.366   4.054 -0.1137 -0.9911  0.4167
  765MOL0     C 5452   7.415   3.286   4.169  0.3150 -0.3462  0.3331
  765MOL0     C 5453   7.394   3.382   4.289  0.4138  0.0800  0.1600
  765MOL0     C 5454   7.443   3.312   4.413 -0.9282 -0.3498  0.8426
  765MOL0     C 5455   7.453   3.397   4.538  0.3399 -0.2591 -0.6575
  765MOL0     O 5456   7.508   3.314   4.635  0.3455 -0.7539  0.1179
  765MOL0     C 5457   7.440   3.322   4.758  0.0527 -0.7369  0.5698
  765MOL0     C 5458   7.421   3.202   4.825 -0.2090  0.2595  1.0191
  765MOL0     C 5459   7.333   3.201   4.933 -0.6924  1.0337  0.3951
  765MOL0     C 5460   7.289   3.060   4.969 -0.8936 -0.1320  0.2973
  765MOL0     C 5461   7.290   3.326   4.991 -0.2272 -0.7248 -1.1690
  765MOL0     C 5462   7.241   3.333   5.130  0.2874 -0.5605  0.0060
  765MOL0     O 5463   7.233   3.460   5.178 -0.0291  0.4037 -0.8939
  765MOL0     C 5464   7.208   3.477   5.314 -0.5467  0.3695  0.2757
  765MOL0     C 5465   7.293   3.423   5.416 -0.3817  0.6085 -0.1711
  765MOL0     C 5466   7.255   3.423   5.556  0.0038 -0.6431  0.7982
  765MOL0     C 5467   7.134   3.494   5.582 -0.6339  0.1787 -0.6198
  765MOL0     O 5468   7.076   3.512   5.701  1.0640  0.2211  0.1892
  765MOL0     C 5469   7.102   3.410   5.801  0.2481  0.4385  0.9088
  765MOL0     C 5470   7.025   3.431   5.934  0.1159  0.0640 -0.2204
  765MOL0     C 5471   7.041   3.305   6.027 -0.4277 -0.3576  0.2351
  765MOL0     C 5472   6.953   3.310   6.158 -0.1515  0.8597  0.6646
  765MOL0     C 5473   6.803   3.300   6.115 -0.6446  0.0570 -0.8986
  765MOL0     C 5474   6.717   3.287   6.242  0.3290 -0.6661 -0.0337
  765MOL0     C 5475   6.698   3.417   6.322 -0.9032  1.0036 -0.2783
  765MOL0     C 5476   6.585   3.389   6.429 -0.0578  0.7421 -0.1283
  765MOL0    Cl 5477   6.577   3.544   6.523  0.4401 -0.0492  0.5646
  765MOL0     C 5478   7.057   3.552   5.480  0.1108 -0.1228 -0.8715
  765MOL0     C 5479   7.098   3.551   5.348  0.2968 -0.1776 -0.6008
  765MOL0     O 5480   7.220   3.234   5.196 -0.9090  1.0826  0.8214
  765MOL0     C 5481   7.330   3.447   4.932  0.9579  0.5698  0.7372
  765MOL0     C 5482   7.397   3.439   4.812  0.9348 -0.4183  0.4998
  765MOL0     N 5483   7.442   3.460   3.978  0.5260  0.3703  0.0177
  765MOL0     N 5484   7.354   3.523   3.903 -0.4590 -0.5891  0.4287
  765MOL0     C 5485   6.942   4.473   4.040  0.0071 -0.3731 -0.3453
  765MOL0     C 5486   6.930   4.606   3.995  0.0613 -0.1486 -0.9083
  765MOL0     C 5487   6.993   5.061   4.050 -0.3968  0.8913 -1.1255
  765MOL0     C 5488   6.942   5.155   4.146  0.3474 -0.6354 -0.0657
  765MOL0     C 5489   6.932   5.290   4.121  0.0000  0.5411 -0.2942
  765MOL0     C 5490   6.951   5.333   3.995  0.2422 -0.3075 -0.5900
  765MOL0     O 5491   6.948   5.470   3.986 -0.4985 -0.4732 -1.1638
  765MOL0     C 5492   6.962   5.527   3.853 -0.1766 -0.5166  0.4747
  765MOL0     C 5493   7.000   5.675   3.861 -0.5126  0.5760  0.2638
  765MOL0     C 5494   7.008   5.744   3.728  1.1387  0.7243  0.5832
  765MOL0     C 5495   7.079   5.881   3.736  0.4573  0.1529  0.1399
  765MOL0     C 5496   7.053   5.956   3.608  0.1604  0.1457 -0.4247
  765MOL0     C 5497   7.032   6.010   3.503  0.4193  0.1298  1.0306
  765MOL0     C 5498   6.994   5.246   3.896 -1.0814 -0.1577 -0.3583
  765MOL0     C 5499   7.015   5.113   3.918 -0.4666 -0.2099 -0.2801
  765MOL0     C 5500   7.067   5.026   3.816  0.6994 -0.6445  0.0631
  765MOL0     H 5501   7.225   4.723   4.115  0.6573  0.7653 -3.7351
  765MOL0     H 5502   7.254   4.500   4.175  1.5096 -0.3374 -3.5200
  765MOL0     H 5503   7.173   4.317   4.332  0.3673 -0.1366 -0.5688
  765MOL0     H 5504   7.253   4.223   4.198 -0.2651  2.0068 -2.0126
  765MOL0     H 5505   7.189   4.091   4.371 -0.2129 -3.5461 -1.3506
  765MOL0     H 5506   7.016   4.130   4.375  0.1733 -1.4897  0.9795
  765MOL0     H 5507   6.991   4.013   4.159  0.6790 -1.9913 -1.8092
  765MOL0     H 5508   7.171   4.008   4.144  0.0627  0.7374 -0.8981
  765MOL0     H 5509   7.182   3.824   4.290  0.3642  1.5031 -0.8037
  765MOL0     H 5510   7.030   3.860   4.373  0.9081 -0.5845  0.3678
  765MOL0     H 5511   6.912   3.812   4.150  0.8157 -0.0055 -0.3693
  765MOL0     H 5512   6.958   3.688   4.257 -1.1297 -0.3978 -0.5669
  765MOL0     H 5513   7.140   3.786   4.032 -2.7555 -0.2032 -2.4341
  765MOL0     H 5514   7.174   3.652   4.145 -0.9611  2.4386  4.1175
  765MOL0     H 5515   6.936   3.660   3.950 -0.3905 -1.4864 -0.0311
  765MOL0     H 5516   6.972   3.526   4.042 -2.8848  0.3255 -1.8554
  765MOL0     H 5517   7.066   3.499   3.797 -0.3327 -0.5216  0.0004
  765MOL0     H 5518   7.141   3.657   3.817 -1.8479  0.9704  0.7840
  765MOL0     H 5519   7.161   3.316   4.043  0.9394 -2.3834 -1.7412
  765MOL0     H 5520   7.520   3.269   4.143 -0.4106  0.1228 -3.5905
  765MOL0     H 5521   7.356   3.193   4.172 -0.5167 -0.2057 -4.2485
  765MOL0     H 5522   7.439   3.480   4.274 -2.2726  1.4514  0.3889
  765MOL0     H 5523   7.287   3.392   4.310  0.6275 -1.3528  2.1997
  765MOL0     H 5524   7.366   3.239   4.436 -0.2197 -2.2769 -2.2455
  765MOL0     H 5525   7.537   3.257   4.400  0.2893  1.0725  2.9987
  765MOL0     H 5526   7.510   3.490   4.531 -0.0093 -0.0114 -0.2622
  765MOL0     H 5527   7.356   3.441   4.561  0.4578 -0.9947  1.4291
  765MOL0     H 5528   7.478   3.122   4.780 -1.6581 -0.9506  1.2628
  765MOL0     H 5529   7.191   3.054   5.017 -0.9405 -0.7050  0.1407
  765MOL0     H 5530   7.363   3.023   5.040  0.3346 -0.2332 -0.9851
  765MOL0     H 5531   7.287   2.998   4.878 -2.6277 -1.4513  1.1859
  765MOL0     H 5532   7.388   3.372   5.402 -0.2040  0.8809  0.0162
  765MOL0     H 5533   7.330   3.387   5.626  3.8222  1.6675 -1.6680
  765MOL0     H 5534   7.088   3.306   5.770  2.8899  0.1860  0.3255
  765MOL0     H 5535   7.210   3.409   5.821  0.4542  2.8108  0.1414
  765MOL0     H 5536   7.081   3.503   5.995  0.6724  1.7720 -2.5916
  765MOL0     H 5537   6.922   3.457   5.910  0.9602  2.3273 -1.7721
  765MOL0     H 5538   7.149   3.293   6.045 -0.2438  1.1920  0.3009
  765MOL0     H 5539   7.022   3.217   5.966  1.2838 -0.3545 -0.3740
  765MOL0     H 5540   6.979   3.386   6.232  2.0386  1.5067 -0.6774
  765MOL0     H 5541   6.977   3.217   6.210 -0.5406  1.6723  2.3498
  765MOL0     H 5542   6.782   3.386   6.051 -2.9551 -0.5066 -0.9855
  765MOL0     H 5543   6.772   3.221   6.046 -0.3857 -0.6222 -0.2595
  765MOL0     H 5544   6.769   3.212   6.302  1.2834 -0.6370 -0.7936
  765MOL0     H 5545   6.617   3.249   6.220 -0.6018  0.7452  1.5141
  765MOL0     H 5546   6.676   3.506   6.262 -0.6596  0.4646 -1.1885
  765MOL0     H 5547   6.789   3.441   6.376  0.3099 -2.2505 -0.7102
  765MOL0     H 5548   6.612   3.320   6.509 -2.5050  1.8245  1.7601
  765MOL0     H 5549   6.486   3.374   6.384  0.5499  1.5318 -1.8434
  765MOL0     H 5550   6.984   3.618   5.525  2.7797  1.3598  1.6106
  765MOL0     H 5551   7.042   3.607   5.273  1.1974 -0.6580 -1.6529
  765MOL0     H 5552   7.297   3.544   4.967 -2.3661  0.0078 -0.4616
  765MOL0     H 5553   7.410   3.538   4.770 -1.7727 -0.2375 -0.1393
  765MOL0     H 5554   6.863   4.400   4.027  2.4456 -3.2332 -0.0946
  765MOL0     H 5555   6.840   4.635   3.942  0.3230 -0.8844 -1.7877
  765MOL0     H 5556   6.920   5.118   4.245 -0.5580 -4.3102 -1.4802
  765MOL0     H 5557   6.900   5.358   4.199  0.1238  0.5025 -0.2103
  765MOL0     H 5558   7.046   5.489   3.794  0.5662  1.4462  0.2114
  765MOL0     H 5559   6.872   5.506   3.794  0.9079  0.5387 -1.6473
  765MOL0     H 5560   7.104   5.678   3.893  0.0643 -1.2815 -1.1926
  765MOL0     H 5561   6.940   5.733   3.931 -0.7746  0.0123  0.5173
  765MOL0     H 5562   7.075   5.686   3.663  0.0437  0.1721 -0.0901
  765MOL0     H 5563   6.906   5.753   3.689  1.8444  0.1019 -1.5185
  765MOL0     H 5564   7.187   5.885   3.754  0.5569  1.6444 -0.6575
  765MOL0     H 5565   7.028   5.935   3.816  2.6583  0.5184  1.3891
  765MOL0     H 5566   7.011   6.060   3.410 -3.3641 -1.8261  0.6358
  765MOL0     H 5567   7.018   5.290   3.800 -1.4865  0.2729 -0.2689
  765MOL0     H 5568   7.145   4.958   3.851  1.2482  0.6532  1.4674
  765MOL0     H 5569   6.982   4.964   3.784  0.2132 -1.6984  3.0939
  765MOL0     H 5570   7.112   5.078   3.731 -0.1672  0.4823  0.2669
  766MOL0     O 5571   5.653   2.381   4.376 -0.0608  0.3635 -0.1817
  766MOL0     C 5572   5.596   2.275   4.399 -1.6852 -0.2877 -0.7442
  766MOL0     O 5573   5.512   2.251   4.503 -0.4880 -0.4729  0.3867
  766MOL0     C 5574   5.483   2.356   4.582  0.1171 -0.3402  0.1748
  766MOL0     C 5575   5.344   2.390   4.600 -0.4382 -0.9084  0.4007
  766MOL0     C 5576   5.309   2.488   4.690 -0.1453 -0.1693  0.5385
  766MOL0     C 5577   5.409   2.572   4.755  0.7993  0.1451 -0.4292
  766MOL0     O 5578   5.379   2.670   4.843  0.2329 -0.1823 -0.2106
  766MOL0     C 5579   5.271   2.751   4.801  0.0275 -0.5545  0.2251
  766MOL0     C 5580   5.214   2.862   4.897  0.3724 -0.4289  0.4323
  766MOL0     C 5581   5.175   2.781   5.025  0.7755 -0.3264  0.0291
  766MOL0     C 5582   5.127   2.878   5.125 -0.0896 -0.5336  0.6459
  766MOL0     C 5583   5.024   2.814   5.225 -0.4163  0.4064 -1.0810
  766MOL0     C 5584   5.086   2.737   5.340 -0.4452 -0.6144  1.5792
  766MOL0     C 5585   4.994   2.638   5.414 -0.4527 -0.3483 -1.0312
  766MOL0     C 5586   5.079   2.558   5.515  0.1242  0.4643 -0.5393
  766MOL0     N 5587   4.993   2.452   5.585  0.2020  0.0479  0.0866
  766MOL0     C 5588   4.889   2.479   5.665  0.4249 -0.6215 -0.3703
  766MOL0     C 5589   4.844   2.362   5.712 -0.5946 -0.4139 -0.0843
  766MOL0     C 5590   4.735   2.333   5.808  0.5190 -0.1543  0.7704
  766MOL0     C 5591   4.786   2.273   5.941  0.9025  1.2383 -0.1879
  766MOL0     C 5592   4.903   2.344   5.997  0.1783  0.5178  0.0535
  766MOL0     C 5593   4.940   2.298   6.142 -0.1136 -0.2531  0.4009
  766MOL0     O 5594   4.827   2.267   6.222  0.9558 -0.2281  0.6137
  766MOL0     C 5595   4.828   2.220   6.347  0.4084  0.5689  0.6760
  766MOL0     C 5596   4.718   2.153   6.406  0.3732  0.2623 -0.1149
  766MOL0     C 5597   4.718   2.109   6.539  0.3774 -0.5023  0.1369
  766MOL0     C 5598   4.633   1.984   6.576 -0.2981 -0.6519 -0.2795
  766MOL0     C 5599   4.816   2.160   6.629  0.4089  0.4498  0.1478
  766MOL0     C 5600   4.824   2.127   6.779 -1.0755  0.0066 -0.3906
  766MOL0     O 5601   4.711   2.103   6.856  0.3004 -0.3750 -0.4692
  766MOL0     C 5602   4.728   2.090   6.995  0.6572  0.6420 -0.5194
  766MOL0     C 5603   4.793   2.194   7.073 -0.1630  0.5437  0.0240
  766MOL0     C 5604   4.804   2.169   7.215 -0.6667  0.6835  0.5055
  766MOL0     C 5605   4.770   2.044   7.266 -0.3327 -0.1389 -0.5195
  766MOL0     O 5606   4.783   2.035   7.398 -0.3239  0.0758 -0.4692
  766MOL0     C 5607   4.818   1.908   7.462  0.4055 -0.0767 -0.0047
  766MOL0     C 5608   4.889   1.934   7.598 -0.5275 -0.0311  0.4929
  766MOL0     C 5609   4.921   1.794   7.653  0.2537 -0.0363  0.2468
  766MOL0     C 5610   5.027   1.808   7.765 -0.2462 -0.4522  0.5783
  766MOL0     C 5611   5.097   1.676   7.788  0.5712 -0.1141  0.0786
  766MOL0     C 5612   5.214   1.688   7.879 -0.3023 -0.5162 -0.3548
  766MOL0     C 5613   5.348   1.707   7.810  0.3166  0.3435  0.0717
  766MOL0     C 5614   5.405   1.840   7.792 -0.1056 -0.4543 -0.5012
  766MOL0    Cl 5615   5.565   1.832   7.755 -0.2016  0.1730 -0.3084
  766MOL0     C 5616   4.721   1.940   7.188 -0.5582  0.5252  0.3445
  766MOL0     C 5617   4.698   1.966   7.056 -0.3909 -0.4086 -0.1786
  766MOL0     O 5618   4.934   2.156   6.828 -0.0040 -0.1967  0.2203
  766MOL0     C 5619   4.923   2.237   6.571 -0.6996  0.5786 -0.0536
  766MOL0     C 5620   4.934   2.252   6.432  0.1458  0.0080  0.3419
  766MOL0     N 5621   4.915   2.267   5.642 -0.2553  0.6056  0.2703
  766MOL0     N 5622   5.009   2.323   5.576  0.5812  1.1340  0.3620
  766MOL0     C 5623   5.547   2.538   4.733  0.7033 -0.8860 -0.8872
  766MOL0     C 5624   5.581   2.430   4.653 -0.6514  0.0063 -0.8815
  766MOL0     C 5625   5.642   2.139   4.331 -0.6699 -0.2736 -0.5646
  766MOL0     C 5626   5.599   2.013   4.375 -0.0869  0.6180  0.3738
  766MOL0     C 5627   5.647   1.893   4.334  0.2748  0.1503  0.2170
  766MOL0     C 5628   5.738   1.896   4.229 -0.3776  0.5464 -0.0592
  766MOL0     O 5629   5.786   1.768   4.201  0.5553 -0.4679  0.4384
  766MOL0     C 5630   5.882   1.754   4.096  0.0501  0.6125  0.3533
  766MOL0     C 5631   5.834   1.747   3.948 -0.2728  0.5186 -0.1913
  766MOL0     C 5632   5.751   1.611   3.917 -0.2036  0.5616  0.2785
  766MOL0     C 5633   5.670   1.603   3.783 -0.2443 -0.5734 -0.1392
  766MOL0     C 5634   5.573   1.489   3.779  0.0775  0.6691 -0.7833
  766MOL0     C 5635   5.500   1.393   3.790 -0.3496  0.5490 -0.6817
  766MOL0     C 5636   5.771   2.013   4.162  0.1868  0.1147  0.2070
  766MOL0     C 5637   5.722   2.133   4.208 -0.2252  0.3216  0.9220
  766MOL0     C 5638   5.741   2.255   4.117  0.2585  0.3198 -0.3804
  766MOL0     H 5639   5.263   2.337   4.550  0.6114 -0.2841 -2.0767
  766MOL0     H 5640   5.203   2.496   4.713  0.2758  0.0705  2.6484
  766MOL0     H 5641   5.181   2.691   4.784 -1.5148  1.2098  1.6985
  766MOL0     H 5642   5.296   2.792   4.703  0.3265 -0.4849  0.3292
  766MOL0     H 5643   5.287   2.943   4.909 -1.7316  1.3606  1.9032
  766MOL0     H 5644   5.124   2.895   4.845  0.6492  3.0408  1.8457
  766MOL0     H 5645   5.104   2.703   4.996  2.3974 -1.0805 -2.2461
  766MOL0     H 5646   5.261   2.728   5.068  0.3364 -0.8539  0.2777
  766MOL0     H 5647   5.215   2.927   5.166 -0.5759  4.6896 -3.4575
  766MOL0     H 5648   5.079   2.956   5.065  1.4233 -1.2358 -1.6005
  766MOL0     H 5649   4.965   2.742   5.168  0.7581 -0.9149 -0.6876
  766MOL0     H 5650   4.964   2.897   5.263  1.2748  2.4169 -2.5438
  766MOL0     H 5651   5.168   2.680   5.297 -1.1487  0.5174 -1.5292
  766MOL0     H 5652   5.130   2.817   5.400 -0.0477  0.8737 -0.5572
  766MOL0     H 5653   4.961   2.553   5.353 -3.6680 -0.5932  0.8116
  766MOL0     H 5654   4.913   2.693   5.463  1.0239  0.3049  0.8030
  766MOL0     H 5655   5.169   2.513   5.471  0.6135  1.0005 -0.1080
  766MOL0     H 5656   5.116   2.627   5.592  2.4627  2.1039 -2.9704
  766MOL0     H 5657   4.836   2.570   5.691  0.3722 -0.4545 -1.0265
  766MOL0     H 5658   4.671   2.259   5.759 -0.9818  0.8058  1.2027
  766MOL0     H 5659   4.671   2.420   5.821 -0.0478 -0.2427 -1.1123
  766MOL0     H 5660   4.696   2.287   6.001  1.1692  0.9841  0.2765
  766MOL0     H 5661   4.808   2.169   5.917  0.6786  1.0746  0.3058
  766MOL0     H 5662   4.988   2.327   5.931  0.7101 -0.5191  0.9822
  766MOL0     H 5663   4.886   2.451   5.982 -2.4866 -0.1157 -2.3026
  766MOL0     H 5664   4.994   2.203   6.130 -1.4881 -0.8664 -1.5690
  766MOL0     H 5665   5.005   2.371   6.190  0.6272 -0.6399  0.0090
  766MOL0     H 5666   4.641   2.126   6.334 -0.7201  2.7258  0.0205
  766MOL0     H 5667   4.663   1.901   6.511  0.2056 -1.0382  0.4434
  766MOL0     H 5668   4.527   2.011   6.566  0.1640  0.8316 -1.6270
  766MOL0     H 5669   4.655   1.940   6.673  2.6074  2.3163  0.5878
  766MOL0     H 5670   4.817   2.286   7.021  1.8244 -0.4469 -0.9578
  766MOL0     H 5671   4.836   2.240   7.291  0.8663  0.6174 -0.0420
  766MOL0     H 5672   4.730   1.853   7.494 -0.3159 -1.5199 -3.9014
  766MOL0     H 5673   4.870   1.841   7.394 -1.1936 -0.8337 -0.5265
  766MOL0     H 5674   4.982   1.991   7.591 -0.2730 -0.5406 -0.3589
  766MOL0     H 5675   4.820   1.990   7.663 -1.2257 -1.4913  1.0466
  766MOL0     H 5676   4.958   1.730   7.572  0.7349 -0.6359  0.9261
  766MOL0     H 5677   4.834   1.742   7.695 -0.0278 -1.4693 -1.9899
  766MOL0     H 5678   4.971   1.855   7.846 -0.1228  1.3149 -0.3077
  766MOL0     H 5679   5.103   1.883   7.739  0.2715 -0.8459  0.9318
  766MOL0     H 5680   5.029   1.604   7.833 -0.9174 -0.9213 -3.1419
  766MOL0     H 5681   5.119   1.627   7.692 -2.7631 -1.3007 -0.2030
  766MOL0     H 5682   5.222   1.595   7.936 -1.5316 -1.4358 -1.6247
  766MOL0     H 5683   5.198   1.762   7.958 -0.4081 -1.5328  0.6019
  766MOL0     H 5684   5.347   1.648   7.718 -4.2086 -0.7149  0.5615
  766MOL0     H 5685   5.421   1.648   7.866  2.6459 -1.6683 -4.5746
  766MOL0     H 5686   5.388   1.904   7.880  0.1122  1.0932 -1.5461
  766MOL0     H 5687   5.355   1.882   7.704 -1.2468 -3.3088 -1.3466
  766MOL0     H 5688   4.727   1.835   7.214  2.4081  0.3914 -0.4952
  766MOL0     H 5689   4.678   1.884   6.987  3.1106 -0.4260 -1.4080
  766MOL0     H 5690   5.007   2.261   6.636 -1.6776 -1.1046  1.9222
  766MOL0     H 5691   5.014   2.312   6.390  0.2259  0.6820  1.4221
  766MOL0     H 5692   5.626   2.582   4.793 -0.5637  0.0653  0.1397
  766MOL0     H 5693   5.687   2.408   4.646 -0.2534  2.0924 -2.3807
  766MOL0     H 5694   5.530   2.029   4.457  0.4707  2.6773  0.5137
  766MOL0     H 5695   5.611   1.796   4.368 -3.5181  1.6884  1.1517
  766MOL0     H 5696   5.958   1.832   4.101  0.4822  0.1398  1.1427
  766MOL0     H 5697   5.933   1.658   4.108 -1.3788 -0.0886  1.0077
  766MOL0     H 5698   5.918   1.752   3.878  0.0647 -0.7964  0.0968
  766MOL0     H 5699   5.767   1.832   3.931 -0.5559  0.5012  0.8208
  766MOL0     H 5700   5.822   1.529   3.905 -2.0411 -1.2913  1.3595
  766MOL0     H 5701   5.685   1.586   4.001  1.2023 -0.2076  1.1892
  766MOL0     H 5702   5.736   1.598   3.697 -1.1011  1.0454 -0.9378
  766MOL0     H 5703   5.616   1.699   3.787 -0.1129 -0.5134  0.2688
  766MOL0     H 5704   5.451   1.298   3.800 -1.8514  0.9218 -3.4203
  766MOL0     H 5705   5.828   2.016   4.069  0.7419  3.2623  0.5183
  766MOL0     H 5706   5.708   2.351   4.160 -1.3725 -1.9993  4.2067
  766MOL0     H 5707   5.847   2.269   4.095  0.8861 -0.8481  1.6627
  766MOL0     H 5708   5.686   2.239   4.024 -0.9747  0.4542  0.2966
  767MOL0     O 5709   4.536   2.728   9.555  0.3248  0.5184 -0.1196
  767MOL0     C 5710   4.429   2.665   9.571  0.6400  0.9951 -0.2088
  767MOL0     O 5711   4.411   2.533   9.545  0.5557 -0.0016 -0.1631
  767MOL0     C 5712   4.491   2.457   9.463 -0.5426 -0.0831  0.8332
  767MOL0     C 5713   4.589   2.497   9.368  0.3886 -0.5848  0.5563
  767MOL0     C 5714   4.657   2.399   9.283  0.2826  0.8992 -0.4597
  767MOL0     C 5715   4.643   2.268   9.295  0.5191 -0.3551 -0.8650
  767MOL0     O 5716   4.707   2.179   9.222 -0.0946  0.3989 -0.2824
  767MOL0     C 5717   4.642   2.049   9.205  0.6488 -0.5964 -0.9443
  767MOL0     C 5718   4.697   2.000   9.069 -0.8313  0.1797 -0.3618
  767MOL0     C 5719   4.666   1.863   9.033  0.0354 -0.2580  0.4366
  767MOL0     C 5720   4.740   1.765   9.118 -0.1682  0.7394  0.2931
  767MOL0     C 5721   4.670   1.634   9.108  1.7366  0.2593 -0.3922
  767MOL0     C 5722   4.723   1.528   9.201  0.3858 -0.4575  0.3506
  767MOL0     C 5723   4.689   1.545   9.351 -0.2769 -0.0123 -0.2184
  767MOL0     C 5724   4.537   1.555   9.378 -0.3457  0.5513  0.1439
  767MOL0     N 5725   4.479   1.690   9.393  0.3030  0.2841  0.1224
  767MOL0     C 5726   4.377   1.742   9.308 -0.1345  0.3243 -0.7090
  767MOL0     C 5727   4.346   1.858   9.371 -0.2732 -1.1297 -0.7317
  767MOL0     C 5728   4.246   1.962   9.324 -0.7537  0.7648  0.1173
  767MOL0     C 5729   4.116   1.962   9.397  0.4418 -0.1456  0.0412
  767MOL0     C 5730   4.053   1.817   9.396 -0.3159 -0.1023  0.6283
  767MOL0     C 5731   3.903   1.829   9.423  0.1411 -0.3722  0.3357
  767MOL0     O 5732   3.856   1.701   9.463  0.1161 -0.4196  0.6821
  767MOL0     C 5733   3.861   1.595   9.376  0.3597 -0.0692  0.6850
  767MOL0     C 5734   3.808   1.604   9.246  0.1903  0.4549 -0.2010
  767MOL0     C 5735   3.791   1.493   9.156 -0.0509  1.0805 -0.1547
  767MOL0     C 5736   3.739   1.521   9.016  0.3057 -0.4157  0.9330
  767MOL0     C 5737   3.824   1.364   9.209 -0.1602 -0.6045  0.2295
  767MOL0     C 5738   3.816   1.251   9.113 -0.9520  0.4039 -0.4936
  767MOL0     O 5739   3.758   1.135   9.155 -0.9837 -0.2956 -0.2930
  767MOL0     C 5740   3.718   1.033   9.064  0.7021 -0.3720 -0.4451
  767MOL0     C 5741   3.749   0.908   9.106  0.2850 -0.3613 -0.7544
  767MOL0     C 5742   3.728   0.806   9.005  0.0410  0.3917  0.2081
  767MOL0     C 5743   3.669   0.828   8.879  0.8160  0.7003  0.6827
  767MOL0     O 5744   3.666   0.727   8.788 -0.3243  0.6674  0.3163
  767MOL0     C 5745   3.592   0.739   8.670 -0.2111 -0.2243  0.0574
  767MOL0     C 5746   3.586   0.591   8.622 -0.2253  0.1127  0.7532
  767MOL0     C 5747   3.509   0.588   8.484 -0.2046  0.1256  0.1250
  767MOL0     C 5748   3.581   0.677   8.388 -0.5987 -0.5321  0.7201
  767MOL0     C 5749   3.540   0.637   8.246 -0.0272 -0.0199 -0.1065
  767MOL0     C 5750   3.394   0.640   8.215 -0.4771  0.3516 -0.5637
  767MOL0     C 5751   3.345   0.581   8.084  0.5869 -1.0863  0.3887
  767MOL0     C 5752   3.222   0.660   8.042 -0.8788 -0.5385 -0.7017
  767MOL0    Cl 5753   3.092   0.658   8.167  0.5459  0.0383  0.1988
  767MOL0     C 5754   3.613   0.958   8.850  0.9141  0.6823 -0.2365
  767MOL0     C 5755   3.637   1.056   8.948  0.4976  0.6475  0.6466
  767MOL0     O 5756   3.861   1.264   9.002  0.0038 -0.3457  0.2570
  767MOL0     C 5757   3.880   1.347   9.336 -0.7579 -0.1016  0.0061
  767MOL0     C 5758   3.894   1.464   9.419  0.8216  0.6549 -0.0094
  767MOL0     N 5759   4.432   1.882   9.478 -0.3081 -0.0595 -0.4316
  767MOL0     N 5760   4.511   1.786   9.493 -0.7672 -0.4932 -0.7239
  767MOL0     C 5761   4.553   2.227   9.397  0.6850  0.0206 -0.9295
  767MOL0     C 5762   4.475   2.327   9.476 -0.1066  0.6521 -0.2457
  767MOL0     C 5763   4.324   2.729   9.650 -0.0051  0.1270  0.6589
  767MOL0     C 5764   4.196   2.667   9.663  0.3200  1.1099  0.1626
  767MOL0     C 5765   4.089   2.716   9.741 -1.9239 -0.4391 -0.9130
  767MOL0     C 5766   4.107   2.838   9.813  0.1359 -0.3194  0.2106
  767MOL0     O 5767   4.005   2.874   9.892  0.3520 -0.8575  0.2728
  767MOL0     C 5768   4.039   2.941  10.016  0.8906  0.1190  0.7441
  767MOL0     C 5769   4.104   2.847  10.107 -0.3527  0.4533  0.3516
  767MOL0     C 5770   4.103   2.890  10.252 -0.6498 -0.0917  0.4347
  767MOL0     C 5771   4.153   3.029  10.283  0.5703  0.4778  0.2147
  767MOL0     C 5772   4.086   3.147  10.230  0.0179 -0.3386  0.6935
  767MOL0     C 5773   4.025   3.240  10.172 -0.1910  0.6618  0.0784
  767MOL0     C 5774   4.228   2.900   9.799 -0.0827 -0.5419  0.4591
  767MOL0     C 5775   4.335   2.852   9.722 -0.0744  0.8406 -0.4719
  767MOL0     C 5776   4.468   2.943   9.721 -0.3643 -0.1244  0.0617
  767MOL0     H 5777   4.612   2.602   9.358  2.9381 -1.0037  1.3377
  767MOL0     H 5778   4.743   2.433   9.227  1.9377 -2.2505 -0.0809
  767MOL0     H 5779   4.533   2.061   9.202  0.6259  0.3165  1.5441
  767MOL0     H 5780   4.668   1.996   9.297 -2.7828  0.4863  0.8159
  767MOL0     H 5781   4.674   2.073   8.991  1.0319  2.0970  0.7595
  767MOL0     H 5782   4.806   1.998   9.078 -0.4759  1.2553 -3.2667
  767MOL0     H 5783   4.561   1.862   9.063 -0.1382  1.8792 -0.0038
  767MOL0     H 5784   4.668   1.824   8.930 -1.8203 -1.1195  0.6905
  767MOL0     H 5785   4.838   1.754   9.071 -0.9875 -0.3010 -1.2652
  767MOL0     H 5786   4.748   1.799   9.221 -0.6531  2.5041 -0.2159
  767MOL0     H 5787   4.660   1.593   9.007 -2.4119 -1.7789  0.6260
  767MOL0     H 5788   4.565   1.657   9.130  1.1467 -3.1873  1.1037
  767MOL0     H 5789   4.701   1.425   9.174  1.2969 -1.2778  2.5528
  767MOL0     H 5790   4.832   1.524   9.187  0.6129 -0.4793  1.9205
  767MOL0     H 5791   4.735   1.638   9.384 -4.6874  2.0896  0.6909
  767MOL0     H 5792   4.730   1.456   9.401  0.3548 -0.1903 -1.0365
  767MOL0     H 5793   4.482   1.499   9.302  2.3069 -0.7861 -0.9140
  767MOL0     H 5794   4.511   1.514   9.476 -1.5661 -0.1013 -0.4271
  767MOL0     H 5795   4.328   1.706   9.218 -1.2284 -1.3100  0.4902
  767MOL0     H 5796   4.239   1.941   9.217  1.1490 -0.0400  0.1097
  767MOL0     H 5797   4.290   2.062   9.330 -1.0990  0.8829  0.8126
  767MOL0     H 5798   4.143   1.996   9.497  1.1596  1.8263 -0.7714
  767MOL0     H 5799   4.051   2.041   9.357  1.9875  0.6321 -1.0113
  767MOL0     H 5800   4.067   1.775   9.296  0.5114 -1.4896  1.3050
  767MOL0     H 5801   4.109   1.756   9.467  0.0908  0.0825  0.4700
  767MOL0     H 5802   3.871   1.907   9.492 -1.5348 -1.2482  0.6045
  767MOL0     H 5803   3.866   1.854   9.323 -1.0491 -3.5794 -0.1452
  767MOL0     H 5804   3.781   1.704   9.211  1.5788  0.8704 -0.1218
  767MOL0     H 5805   3.823   1.532   8.948 -0.0473 -1.0409  0.3911
  767MOL0     H 5806   3.663   1.600   9.004  0.1492 -0.4528  1.6190
  767MOL0     H 5807   3.681   1.436   8.979 -0.3946  1.6349 -3.2280
  767MOL0     H 5808   3.791   0.893   9.204 -2.9397  3.5596  1.5486
  767MOL0     H 5809   3.747   0.700   9.019 -1.4655 -0.1885 -1.7454
  767MOL0     H 5810   3.493   0.775   8.697 -0.3031 -1.2168  1.1058
  767MOL0     H 5811   3.636   0.807   8.596 -1.2305  0.3431 -0.0496
  767MOL0     H 5812   3.687   0.554   8.600 -1.0415 -1.3519 -0.7807
  767MOL0     H 5813   3.540   0.523   8.694  2.4862 -2.9095 -0.1002
  767MOL0     H 5814   3.412   0.632   8.510 -0.5957 -1.0898  0.7822
  767MOL0     H 5815   3.505   0.486   8.446  0.3704 -0.1356  0.7523
  767MOL0     H 5816   3.688   0.656   8.377 -0.8720 -1.3195 -0.6703
  767MOL0     H 5817   3.562   0.784   8.402  2.8264  0.5762 -1.6736
  767MOL0     H 5818   3.601   0.691   8.172 -0.5931 -1.3666 -1.6364
  767MOL0     H 5819   3.566   0.531   8.235 -2.2850 -0.7050  0.5581
  767MOL0     H 5820   3.367   0.746   8.221 -2.0266  0.0192 -1.1386
  767MOL0     H 5821   3.346   0.584   8.295 -0.6277  1.1993 -0.0499
  767MOL0     H 5822   3.308   0.478   8.094  1.9226 -1.7769 -1.2710
  767MOL0     H 5823   3.427   0.585   8.011  2.1951 -1.5243  2.0823
  767MOL0     H 5824   3.186   0.632   7.942 -0.4899  2.8674 -1.9184
  767MOL0     H 5825   3.252   0.764   8.027 -2.3129 -0.1815 -1.2049
  767MOL0     H 5826   3.547   0.977   8.766 -0.7833  0.8572  1.0758
  767MOL0     H 5827   3.597   1.154   8.925  0.3812  0.7191  1.1567
  767MOL0     H 5828   3.925   1.251   9.359  0.3532 -0.3131 -2.7224
  767MOL0     H 5829   3.937   1.451   9.518 -0.1084 -3.0081  0.0681
  767MOL0     H 5830   4.506   2.129   9.401 -1.0560  0.7890 -1.5688
  767MOL0     H 5831   4.387   2.297   9.532 -2.3865  2.4840 -2.5923
  767MOL0     H 5832   4.163   2.579   9.608  0.7900  1.0182  0.0254
  767MOL0     H 5833   3.992   2.668   9.748 -2.3512  0.4582 -0.5087
  767MOL0     H 5834   4.096   3.034  10.004  0.2063  0.7984  2.4510
  767MOL0     H 5835   3.947   2.974  10.065 -0.2631 -0.8011 -0.7523
  767MOL0     H 5836   4.209   2.840  10.076  0.5289  1.7647  2.8186
  767MOL0     H 5837   4.058   2.748  10.109  0.5255 -0.1167 -2.7358
  767MOL0     H 5838   4.004   2.887  10.299 -0.8064  0.5148  0.1513
  767MOL0     H 5839   4.167   2.826  10.313 -0.4775 -0.8962 -0.5605
  767MOL0     H 5840   4.259   3.033  10.254  0.8209 -2.4262  0.3921
  767MOL0     H 5841   4.145   3.035  10.392 -2.0384 -0.0990  0.1132
  767MOL0     H 5842   3.999   3.334  10.128 -0.4827  0.6545  0.2340
  767MOL0     H 5843   4.249   2.976   9.873 -1.3454  0.6429 -0.3443
  767MOL0     H 5844   4.455   3.043   9.764  0.2906 -0.2065  0.4523
  767MOL0     H 5845   4.546   2.893   9.779  1.4712  0.0328 -2.1030
  767MOL0     H 5846   4.512   2.962   9.623 -1.6598 -0.9844 -0.7260
  768MOL0     O 5847   4.144   4.836   1.749  0.0476  0.1443 -0.0948
  768MOL0     C 5848   4.095   4.766   1.654 -0.0301 -0.6698 -0.1507
  768MOL0     O 5849   4.168   4.694   1.559  0.1815 -0.1356 -0.6007
  768MOL0     C 5850   4.293   4.655   1.574 -0.3335  0.0865 -0.7558
  768MOL0     C 5851   4.391   4.708   1.662 -0.6919  0.5928  0.0479
  768MOL0     C 5852   4.521   4.671   1.635 -0.4580 -0.3419 -0.7608
  768MOL0     C 5853   4.558   4.581   1.527 -1.1293 -0.3455  1.0472
  768MOL0     O 5854   4.680   4.533   1.497 -0.1956  0.6589 -0.4996
  768MOL0     C 5855   4.788   4.565   1.587  0.0483 -0.2741  1.2420
  768MOL0     C 5856   4.923   4.529   1.516 -0.1469  0.3980  0.7245
  768MOL0     C 5857   5.040   4.578   1.596 -0.5940  0.6537  0.3804
  768MOL0     C 5858   5.174   4.561   1.517 -1.5268  0.0866  0.2766
  768MOL0     C 5859   5.273   4.681   1.500  0.0870  0.1714  1.0105
  768MOL0     C 5860   5.401   4.630   1.422  0.3624 -0.6581 -0.0685
  768MOL0     C 5861   5.512   4.733   1.439  0.9284 -0.1988  0.1552
  768MOL0     C 5862   5.637   4.675   1.381 -0.1729  0.4433  0.0190
  768MOL0     N 5863   5.640   4.671   1.234  0.7023  0.2280  0.2133
  768MOL0     C 5864   5.708   4.574   1.165  0.5887 -0.0298 -0.3025
  768MOL0     C 5865   5.682   4.597   1.041 -0.8100 -0.5754  0.6788
  768MOL0     C 5866   5.732   4.497   0.933 -0.0121  0.1076  0.1838
  768MOL0     C 5867   5.830   4.558   0.832 -0.7576 -0.6474  0.3067
  768MOL0     C 5868   5.959   4.603   0.908  0.7364  1.0171  0.0729
  768MOL0     C 5869   6.073   4.630   0.804  0.3753  0.1883  0.1804
  768MOL0     O 5870   6.173   4.714   0.865  0.9048 -0.0720 -0.2568
  768MOL0     C 5871   6.292   4.740   0.800  0.2879 -0.5716 -0.0962
  768MOL0     C 5872   6.381   4.833   0.853  0.0688 -0.3023  0.4333
  768MOL0     C 5873   6.499   4.869   0.797 -0.8526  0.1507 -0.1514
  768MOL0     C 5874   6.596   4.952   0.884 -0.4700  0.6181 -0.3180
  768MOL0     C 5875   6.534   4.814   0.675  0.6827  0.8783  0.7525
  768MOL0     C 5876   6.654   4.865   0.603  0.6161  0.8537  0.4257
  768MOL0     O 5877   6.695   4.771   0.513 -0.4968  0.0660  0.0537
  768MOL0     C 5878   6.830   4.779   0.475  0.1610 -0.3906  0.6960
  768MOL0     C 5879   6.906   4.694   0.560 -1.2178  0.3266  0.6880
  768MOL0     C 5880   7.046   4.656   0.533 -0.1019 -0.6164  0.5103
  768MOL0     C 5881   7.112   4.733   0.442  0.2548  0.3126  1.3470
  768MOL0     O 5882   7.240   4.714   0.400 -0.0838  0.5936  0.1877
  768MOL0     C 5883   7.334   4.692   0.509  0.2694  0.7633  0.6145
  768MOL0     C 5884   7.470   4.748   0.471 -0.0410 -0.0624 -0.6248
  768MOL0     C 5885   7.550   4.767   0.606  0.7761 -0.3822  0.9884
  768MOL0     C 5886   7.682   4.832   0.573  0.2228 -0.0977  0.6658
  768MOL0     C 5887   7.761   4.833   0.702  0.6646 -0.7584  0.2051
  768MOL0     C 5888   7.908   4.881   0.690  0.3170  0.3012 -0.0033
  768MOL0     C 5889   7.909   5.026   0.642 -0.0364  0.4607 -0.2352
  768MOL0     C 5890   8.014   5.120   0.709  0.3923 -0.4304  0.2856
  768MOL0    Cl 5891   7.939   5.169   0.872  0.4339 -0.2255  0.3165
  768MOL0     C 5892   7.044   4.825   0.360  0.1454 -0.0837 -0.3586
  768MOL0     C 5893   6.897   4.837   0.374  0.0746 -0.7457  0.0246
  768MOL0     O 5894   6.695   4.978   0.614 -0.2660 -0.6868 -0.2715
  768MOL0     C 5895   6.446   4.716   0.618  0.3630  0.3553 -0.0450
  768MOL0     C 5896   6.336   4.679   0.683  0.0607  0.1690  0.3357
  768MOL0     N 5897   5.610   4.709   1.029 -0.1637 -0.0925 -0.2670
  768MOL0     N 5898   5.569   4.741   1.138 -0.5251  0.1385  0.1367
  768MOL0     C 5899   4.460   4.524   1.449  0.6374  0.1155  0.6275
  768MOL0     C 5900   4.326   4.567   1.472  0.4776  0.1533 -0.1780
  768MOL0     C 5901   3.952   4.766   1.652 -0.2550 -0.4542 -0.4551
  768MOL0     C 5902   3.899   4.728   1.533  0.0876  0.5524  0.2734
  768MOL0     C 5903   3.764   4.706   1.509  0.1602  0.4246  0.2350
  768MOL0     C 5904   3.671   4.723   1.616 -0.0740 -0.8915 -0.1594
  768MOL0     O 5905   3.535   4.696   1.609 -0.1317 -0.6073  0.1231
  768MOL0     C 5906   3.470   4.657   1.491 -0.1037  0.7952 -0.0227
  768MOL0     C 5907   3.330   4.598   1.533 -0.5674  0.2989 -0.5319
  768MOL0     C 5908   3.257   4.540   1.414  0.6650 -0.5433 -0.3758
  768MOL0     C 5909   3.153   4.438   1.469  0.3833  0.3693 -0.0541
  768MOL0     C 5910   3.044   4.497   1.560 -0.8926  0.9287 -0.3396
  768MOL0     C 5911   2.973   4.564   1.631 -0.6498 -0.6284 -0.4866
  768MOL0     C 5912   3.726   4.769   1.737 -0.0298  0.0924  0.0533
  768MOL0     C 5913   3.866   4.787   1.766 -0.2703 -0.0087 -0.0096
  768MOL0     C 5914   3.908   4.803   1.907  0.0499 -0.4679  0.0755
  768MOL0     H 5915   4.375   4.784   1.738  4.1505  0.7333  1.2326
  768MOL0     H 5916   4.598   4.727   1.687 -2.3393  0.3235  1.4235
  768MOL0     H 5917   4.782   4.505   1.679  0.5078 -3.3808 -0.6267
  768MOL0     H 5918   4.788   4.671   1.614  2.3579  0.4865 -1.3136
  768MOL0     H 5919   4.941   4.424   1.490 -1.4824 -0.1243  1.7899
  768MOL0     H 5920   4.931   4.581   1.420 -0.5783  0.3192  0.6467
  768MOL0     H 5921   5.022   4.684   1.618  0.7640  0.5960  1.9524
  768MOL0     H 5922   5.040   4.522   1.690 -1.2914  1.8287  1.1148
  768MOL0     H 5923   5.238   4.481   1.555 -1.4028 -1.0691 -2.1937
  768MOL0     H 5924   5.149   4.534   1.414 -0.6615 -0.0718  0.1060
  768MOL0     H 5925   5.298   4.716   1.601  4.3092 -1.3083  0.6809
  768MOL0     H 5926   5.229   4.761   1.440 -1.0459 -0.9105  0.3597
  768MOL0     H 5927   5.427   4.529   1.453  2.1108 -0.5159 -0.9095
  768MOL0     H 5928   5.366   4.627   1.318 -3.4161  1.3231  0.9541
  768MOL0     H 5929   5.523   4.760   1.545  0.3140  2.0806 -0.2987
  768MOL0     H 5930   5.490   4.825   1.383  0.3062 -1.0526 -1.0512
  768MOL0     H 5931   5.722   4.737   1.410 -0.3131 -0.7000  3.2691
  768MOL0     H 5932   5.657   4.574   1.416 -1.6042  0.0658 -0.1847
  768MOL0     H 5933   5.762   4.489   1.205  0.0803 -1.1744 -1.9401
  768MOL0     H 5934   5.647   4.460   0.875  0.0160  1.7857 -0.9929
  768MOL0     H 5935   5.787   4.415   0.981  0.5877  0.0489 -0.5851
  768MOL0     H 5936   5.857   4.492   0.750  0.2266  1.3559 -1.0531
  768MOL0     H 5937   5.782   4.645   0.786  0.3498  0.1401  0.5831
  768MOL0     H 5938   5.943   4.693   0.968 -1.6076  0.2514  0.6951
  768MOL0     H 5939   6.000   4.525   0.972  0.3453  2.2883  1.9572
  768MOL0     H 5940   6.123   4.534   0.784  0.1795  0.3863 -1.3618
  768MOL0     H 5941   6.042   4.681   0.713 -0.1661  2.3024  1.4853
  768MOL0     H 5942   6.362   4.890   0.944  0.7009  2.1472 -0.8919
  768MOL0     H 5943   6.702   4.938   0.860 -0.9277  0.9849 -2.8369
  768MOL0     H 5944   6.580   4.920   0.987  0.8766 -3.6153 -1.2273
  768MOL0     H 5945   6.576   5.060   0.882  1.8908  1.1717  1.5189
  768MOL0     H 5946   6.851   4.635   0.632 -1.8044 -0.9176 -0.7365
  768MOL0     H 5947   7.089   4.578   0.595  0.1306 -0.7538  0.1850
  768MOL0     H 5948   7.306   4.739   0.604  2.7769  0.6654  1.4531
  768MOL0     H 5949   7.341   4.588   0.541  1.2172  0.8488  0.7018
  768MOL0     H 5950   7.530   4.685   0.406 -0.1897 -1.3571  0.4577
  768MOL0     H 5951   7.458   4.848   0.427  1.5441  0.3600 -0.1638
  768MOL0     H 5952   7.558   4.678   0.669  0.6959  0.9526  3.0153
  768MOL0     H 5953   7.488   4.831   0.670 -0.5992 -3.7473  3.3445
  768MOL0     H 5954   7.658   4.933   0.537  1.4544  1.6605  4.2071
  768MOL0     H 5955   7.731   4.774   0.495  2.8447  0.0928  2.0834
  768MOL0     H 5956   7.701   4.902   0.762 -1.2034 -1.8388 -0.3387
  768MOL0     H 5957   7.769   4.732   0.743  2.7444 -0.7898 -0.1615
  768MOL0     H 5958   7.947   4.821   0.608  1.2918  1.0653 -0.1062
  768MOL0     H 5959   7.963   4.848   0.778  1.5481 -3.3680 -1.9405
  768MOL0     H 5960   7.809   5.068   0.656 -0.7716 -1.5788  1.2786
  768MOL0     H 5961   7.942   5.010   0.539  1.4948  0.0990  0.2944
  768MOL0     H 5962   8.028   5.211   0.651 -2.4038 -0.1267 -0.0354
  768MOL0     H 5963   8.111   5.069   0.718  2.6224  2.9768 -2.1238
  768MOL0     H 5964   7.098   4.876   0.280 -2.3402  0.5436 -1.7389
  768MOL0     H 5965   6.845   4.909   0.312  2.3095  1.5883  0.6928
  768MOL0     H 5966   6.469   4.666   0.525  2.6482 -0.5159  0.9370
  768MOL0     H 5967   6.270   4.604   0.640 -0.1392 -0.8342  2.2552
  768MOL0     H 5968   4.492   4.457   1.370 -0.7848 -0.2243  0.2996
  768MOL0     H 5969   4.243   4.526   1.414 -1.4171  1.9872  1.0939
  768MOL0     H 5970   3.963   4.720   1.446  0.7468  0.2138  0.7915
  768MOL0     H 5971   3.735   4.664   1.413 -0.7980 -3.4162  2.0021
  768MOL0     H 5972   3.471   4.737   1.417 -0.0296  0.5053 -0.3421
  768MOL0     H 5973   3.520   4.578   1.434  1.2495  1.0268  0.8109
  768MOL0     H 5974   3.272   4.685   1.564 -0.4949  0.2766 -0.3315
  768MOL0     H 5975   3.345   4.524   1.612  2.7230  0.8675 -0.4959
  768MOL0     H 5976   3.202   4.624   1.371  0.9206  0.7221  1.6115
  768MOL0     H 5977   3.320   4.499   1.335  2.6311 -1.5084  1.5780
  768MOL0     H 5978   3.206   4.365   1.530  0.0800  0.9608  0.9436
  768MOL0     H 5979   3.099   4.386   1.389  0.0804  1.2255 -0.4221
  768MOL0     H 5980   2.910   4.628   1.690  2.4128  0.7452  1.5500
  768MOL0     H 5981   3.665   4.783   1.825 -0.6519 -0.7424 -0.2322
  768MOL0     H 5982   3.940   4.905   1.932 -1.8873  0.6026 -1.5066
  768MOL0     H 5983   3.828   4.774   1.976  1.4226 -3.5695  0.5363
  768MOL0     H 5984   3.986   4.735   1.941  0.2966  0.5975  1.7941
  769MOL0     O 5985   5.761   2.886   8.055 -0.1874 -0.8080 -0.9671
  769MOL0     C 5986   5.645   2.912   8.042  0.6207 -0.5676  0.2996
  769MOL0     O 5987   5.547   2.840   8.098 -0.5975 -0.3986 -0.1124
  769MOL0     C 5988   5.574   2.715   8.142  0.3404 -0.3944  0.4536
  769MOL0     C 5989   5.631   2.689   8.266 -0.0178  0.2490  0.7673
  769MOL0     C 5990   5.655   2.559   8.305 -0.3641 -0.7294  0.8805
  769MOL0     C 5991   5.629   2.450   8.222 -0.8131 -0.4847  0.0607
  769MOL0     O 5992   5.665   2.326   8.271 -0.0101  0.9517  0.9388
  769MOL0     C 5993   5.628   2.206   8.196 -0.3994  0.4212  0.0574
  769MOL0     C 5994   5.473   2.177   8.219 -0.0517  0.2609  0.5984
  769MOL0     C 5995   5.415   2.068   8.123 -1.0027 -0.2233  0.1795
  769MOL0     C 5996   5.269   2.034   8.145  0.4419  0.1196 -0.3505
  769MOL0     C 5997   5.171   2.099   8.061  0.1174  0.2764 -0.1346
  769MOL0     C 5998   5.166   2.248   8.077  0.1910  0.2713 -0.5177
  769MOL0     C 5999   5.057   2.313   7.991 -0.9161 -0.1811 -0.4801
  769MOL0     C 6000   5.083   2.466   7.979 -0.7371  0.2707 -0.0250
  769MOL0     N 6001   4.964   2.542   7.957  0.2709 -0.1440 -0.1823
  769MOL0     C 6002   4.929   2.614   7.849  0.0461  0.3719  0.7448
  769MOL0     C 6003   4.816   2.669   7.887  0.7569 -0.3583 -0.6501
  769MOL0     C 6004   4.750   2.763   7.797  0.1390  0.1227  0.2746
  769MOL0     C 6005   4.626   2.699   7.734 -0.3770 -0.1175  0.5174
  769MOL0     C 6006   4.564   2.802   7.628 -0.8523 -0.2876 -0.4214
  769MOL0     C 6007   4.452   2.901   7.680 -0.4988 -0.3980  0.2958
  769MOL0     O 6008   4.332   2.840   7.723 -0.4974  0.1890  0.3451
  769MOL0     C 6009   4.224   2.919   7.748  0.0517 -1.1572  0.1645
  769MOL0     C 6010   4.096   2.870   7.773  0.8095  0.2151 -0.9327
  769MOL0     C 6011   3.983   2.952   7.791 -0.0861 -0.5864  0.1974
  769MOL0     C 6012   3.850   2.885   7.808 -0.3013  0.2608 -0.3034
  769MOL0     C 6013   3.986   3.090   7.791  0.1382 -0.8081  0.3244
  769MOL0     C 6014   3.870   3.186   7.821 -0.0349  0.9022 -0.2605
  769MOL0     O 6015   3.871   3.301   7.745 -0.4442  0.4453  0.1264
  769MOL0     C 6016   3.749   3.362   7.739  0.0193 -0.1973 -0.1540
  769MOL0     C 6017   3.641   3.305   7.667  0.1220  0.3180  0.2046
  769MOL0     C 6018   3.522   3.372   7.666 -0.0074 -0.6052  0.2800
  769MOL0     C 6019   3.500   3.500   7.727 -0.4960 -0.2200 -0.2929
  769MOL0     O 6020   3.383   3.568   7.741  0.3049  0.6374 -0.0097
  769MOL0     C 6021   3.288   3.535   7.634 -0.3523 -0.1246 -0.2111
  769MOL0     C 6022   3.209   3.669   7.628  1.2253 -0.0252 -0.6729
  769MOL0     C 6023   3.095   3.663   7.525  0.6152  0.4909 -0.3058
  769MOL0     C 6024   3.121   3.739   7.396 -0.6275 -0.2326 -0.0619
  769MOL0     C 6025   3.028   3.696   7.279 -0.2751  0.1966 -0.7101
  769MOL0     C 6026   3.041   3.800   7.169  0.0693 -0.6718 -0.9655
  769MOL0     C 6027   2.920   3.779   7.071  0.0173 -0.2665  0.6239
  769MOL0     C 6028   2.940   3.659   6.970  0.4392 -0.8453  0.2393
  769MOL0    Cl 6029   2.820   3.661   6.844  0.3826 -0.0231 -0.3779
  769MOL0     C 6030   3.613   3.558   7.793 -0.3986 -0.3316 -0.1479
  769MOL0     C 6031   3.733   3.487   7.798  0.4084 -0.2789 -0.4164
  769MOL0     O 6032   3.775   3.155   7.899 -0.3083  0.4963  0.5276
  769MOL0     C 6033   4.118   3.145   7.784 -0.1178  0.2401  0.7214
  769MOL0     C 6034   4.226   3.064   7.763 -0.8032  0.9048  0.1475
  769MOL0     N 6035   4.787   2.636   8.017 -0.0256  0.4694  0.3616
  769MOL0     N 6036   4.876   2.560   8.060 -0.2841 -0.3281  0.4479
  769MOL0     C 6037   5.567   2.477   8.097  0.5288 -0.1976  0.0523
  769MOL0     C 6038   5.549   2.608   8.054 -0.2882 -0.7827  0.2855
  769MOL0     C 6039   5.603   3.026   7.958 -0.1618  0.0599  0.1831
  769MOL0     C 6040   5.470   3.069   7.956 -0.4450  0.2432  0.2593
  769MOL0     C 6041   5.422   3.182   7.886  0.2263  1.0427  0.2661
  769MOL0     C 6042   5.506   3.268   7.816  0.0675  1.0450 -1.0306
  769MOL0     O 6043   5.460   3.381   7.752 -0.6434 -0.2114 -0.2839
  769MOL0     C 6044   5.540   3.497   7.733  0.4886  0.4160 -0.1280
  769MOL0     C 6045   5.603   3.492   7.587  0.4605  0.3996 -0.0301
  769MOL0     C 6046   5.538   3.601   7.497  0.1307  0.5389  0.1292
  769MOL0     C 6047   5.595   3.621   7.348  0.3752 -0.0487 -1.1756
  769MOL0     C 6048   5.714   3.711   7.344  0.1329  0.3644  0.2279
  769MOL0     C 6049   5.812   3.773   7.373 -0.1832  1.2304  0.6208
  769MOL0     C 6050   5.642   3.223   7.817 -0.5853  0.2424  0.1071
  769MOL0     C 6051   5.692   3.112   7.891  0.4816 -0.1396  1.1260
  769MOL0     C 6052   5.837   3.103   7.891  0.0707 -0.8509  0.1110
  769MOL0     H 6053   5.654   2.769   8.336 -0.2460  2.9883 -2.0568
  769MOL0     H 6054   5.690   2.538   8.405 -0.1636  0.8654  1.1725
  769MOL0     H 6055   5.684   2.115   8.219 -1.4057 -1.2508 -3.4528
  769MOL0     H 6056   5.646   2.229   8.091 -1.9253  0.7356 -0.1524
  769MOL0     H 6057   5.458   2.154   8.325  1.2451  0.5544  0.8596
  769MOL0     H 6058   5.426   2.269   8.185  1.3296  0.4143 -1.0379
  769MOL0     H 6059   5.435   2.109   8.024 -0.5399  0.5498  0.5757
  769MOL0     H 6060   5.475   1.977   8.118 -0.5912  0.0363  0.3051
  769MOL0     H 6061   5.256   1.929   8.117  0.4931  0.2244 -0.7762
  769MOL0     H 6062   5.222   2.041   8.243  0.4944 -1.3123 -0.2049
  769MOL0     H 6063   5.073   2.053   8.076  0.9619 -2.3688 -1.8781
  769MOL0     H 6064   5.185   2.075   7.955 -3.4155  2.4054 -1.2612
  769MOL0     H 6065   5.149   2.262   8.184 -0.9311 -0.5138 -0.5754
  769MOL0     H 6066   5.268   2.279   8.051 -0.0713  1.3695 -0.2972
  769MOL0     H 6067   4.959   2.297   8.035 -1.1286  3.0937  0.5097
  769MOL0     H 6068   5.069   2.276   7.889 -1.6438  1.4411 -1.1920
  769MOL0     H 6069   5.120   2.504   8.074 -2.4785 -2.0722  1.7336
  769MOL0     H 6070   5.153   2.488   7.898  0.7113 -0.4297  0.9830
  769MOL0     H 6071   4.984   2.630   7.757 -0.7701  2.8191  0.6101
  769MOL0     H 6072   4.831   2.794   7.730 -0.0845 -2.0467 -1.1059
  769MOL0     H 6073   4.709   2.848   7.852  1.7275  2.0133 -1.2946
  769MOL0     H 6074   4.651   2.604   7.684  0.5659 -0.1106  0.9511
  769MOL0     H 6075   4.557   2.684   7.817 -0.1001  1.0827  0.9817
  769MOL0     H 6076   4.644   2.857   7.578 -1.2039  0.2954 -0.3488
  769MOL0     H 6077   4.526   2.743   7.544 -0.4599 -0.1775 -0.6783
  769MOL0     H 6078   4.497   2.964   7.758  1.5567  0.5707 -1.5599
  769MOL0     H 6079   4.425   2.966   7.596  0.5069  0.8513  0.9004
  769MOL0     H 6080   4.076   2.765   7.789 -1.0066  0.6135 -0.3808
  769MOL0     H 6081   3.870   2.777   7.804  1.8313  0.5786  0.4115
  769MOL0     H 6082   3.783   2.919   7.728  0.0458  1.7536  0.0078
  769MOL0     H 6083   3.808   2.898   7.908 -3.7952 -2.0723 -1.2609
  769MOL0     H 6084   3.656   3.210   7.615  0.1040  1.1183 -1.3154
  769MOL0     H 6085   3.442   3.309   7.627  0.8553 -0.9211 -1.0134
  769MOL0     H 6086   3.337   3.520   7.537 -0.8769  3.1003 -1.0733
  769MOL0     H 6087   3.237   3.444   7.667 -0.4022  0.0510  0.2017
  769MOL0     H 6088   3.166   3.683   7.728 -0.0642 -1.1099 -1.0412
  769MOL0     H 6089   3.265   3.760   7.606 -1.8000  1.8110 -1.4103
  769MOL0     H 6090   2.997   3.702   7.557  0.6353  1.5794 -1.4764
  769MOL0     H 6091   3.074   3.557   7.510 -1.2306  1.2163 -3.7916
  769MOL0     H 6092   3.226   3.731   7.367 -1.1257  3.1060 -3.5266
  769MOL0     H 6093   3.114   3.847   7.412 -0.6189  0.0239 -1.6989
  769MOL0     H 6094   3.060   3.597   7.244  2.1848  1.1391 -1.3452
  769MOL0     H 6095   2.927   3.683   7.320  0.8842  0.4007  2.5306
  769MOL0     H 6096   3.142   3.790   7.130  0.1790 -1.5545 -0.4699
  769MOL0     H 6097   3.033   3.896   7.220  1.2944 -1.3514  0.5627
  769MOL0     H 6098   2.914   3.865   7.004  0.7503 -0.7034 -0.0177
  769MOL0     H 6099   2.822   3.770   7.119  0.0988 -0.3621  0.7743
  769MOL0     H 6100   2.928   3.564   7.022 -1.2641 -1.4036 -1.0749
  769MOL0     H 6101   3.038   3.664   6.923  0.4987  0.2102  0.4344
  769MOL0     H 6102   3.616   3.651   7.848  1.1814 -1.0673  1.1058
  769MOL0     H 6103   3.810   3.537   7.857  1.3785 -0.6637 -1.3166
  769MOL0     H 6104   4.142   3.250   7.791  2.3981 -0.3149  1.4059
  769MOL0     H 6105   4.323   3.112   7.760 -0.3949  0.2467  1.5746
  769MOL0     H 6106   5.540   2.401   8.024  0.0442  2.0271 -2.2124
  769MOL0     H 6107   5.519   2.632   7.952 -1.0259 -1.8326  0.2375
  769MOL0     H 6108   5.390   3.018   8.009  0.0162 -1.4519 -0.6001
  769MOL0     H 6109   5.316   3.202   7.892  0.0138  0.6388 -1.6077
  769MOL0     H 6110   5.475   3.584   7.745 -1.4566 -1.2012  2.0487
  769MOL0     H 6111   5.620   3.499   7.808 -1.0374 -0.7415  1.6323
  769MOL0     H 6112   5.599   3.398   7.531  0.6865  0.6877 -0.5436
  769MOL0     H 6113   5.706   3.529   7.589  1.4008 -1.8869 -1.6070
  769MOL0     H 6114   5.434   3.569   7.489  0.2939  0.0010  0.1129
  769MOL0     H 6115   5.551   3.703   7.534  0.6670  0.5837 -0.1730
  769MOL0     H 6116   5.511   3.666   7.295 -0.0147  0.8634  0.1655
  769MOL0     H 6117   5.610   3.528   7.293 -1.0885  0.2657 -2.1662
  769MOL0     H 6118   5.905   3.806   7.414  0.1596 -2.3319  3.2185
  769MOL0     H 6119   5.717   3.282   7.765  0.9432 -2.7644 -1.3652
  769MOL0     H 6120   5.872   3.102   7.995  1.9930 -2.4739 -0.4951
  769MOL0     H 6121   5.888   3.020   7.840  2.8264 -0.3472  1.8468
  769MOL0     H 6122   5.892   3.189   7.854 -1.4692 -0.2115 -0.7709
  770MOL0     O 6123  10.520  11.159   2.613 -0.3740  0.9448  0.2758
  770MOL0     C 6124  10.520  11.073   2.525 -0.2273 -0.6063  0.0749
  770MOL0     O 6125  10.628  11.019   2.454 -0.3504 -0.1449  0.6130
  770MOL0     C 6126  10.752  11.067   2.484 -0.0165  0.1347  0.5040
  770MOL0     C 6127  10.808  11.013   2.599  0.3475 -0.2487 -0.0794
  770MOL0     C 6128  10.921  11.072   2.652 -0.3943  1.5342 -0.0703
  770MOL0     C 6129  10.992  11.170   2.583  0.7222 -0.5105 -0.3548
  770MOL0     O 6130  11.124  11.212   2.623  1.2306  0.0895 -0.1425
  770MOL0     C 6131  11.210  11.106   2.680  0.4910 -0.2458  0.3147
  770MOL0     C 6132  11.350  11.152   2.659  0.0419 -0.1045  0.5532
  770MOL0     C 6133  11.452  11.049   2.722 -0.5217 -0.4314  0.4815
  770MOL0     C 6134  11.594  11.086   2.719 -0.1552  0.3699  0.4590
  770MOL0     C 6135  11.642  11.081   2.568 -0.2100 -0.5703  1.0848
  770MOL0     C 6136  11.792  11.071   2.566  0.8119  0.2389  0.4342
  770MOL0     C 6137  11.863  11.177   2.628 -0.0264  0.3237 -0.9795
  770MOL0     C 6138  12.018  11.159   2.610 -0.0424 -0.0038 -0.1829
  770MOL0     N 6139  12.084  11.283   2.638 -0.2738  0.0940  0.6229
  770MOL0     C 6140  12.129  11.342   2.753 -0.0708 -0.3635  0.5147
  770MOL0     C 6141  12.184  11.461   2.707  0.6021 -1.0330 -0.4196
  770MOL0     C 6142  12.256  11.568   2.794 -1.0417  1.0537 -0.6566
  770MOL0     C 6143  12.391  11.627   2.743 -0.2060  0.5458  0.8357
  770MOL0     C 6144  12.484  11.528   2.672 -0.3512 -0.3081 -0.0104
  770MOL0     C 6145  12.634  11.566   2.642 -0.6292  0.0705 -0.2147
  770MOL0     O 6146  12.697  11.613   2.760 -0.2626 -0.2292  0.4856
  770MOL0     C 6147  12.833  11.618   2.765 -0.9428  0.4656 -0.0384
  770MOL0     C 6148  12.916  11.595   2.655  0.1690  0.5997 -0.3933
  770MOL0     C 6149  13.057  11.593   2.659 -0.0963 -0.4193 -0.3815
  770MOL0     C 6150  13.139  11.610   2.532  0.0066 -0.0831 -0.3804
  770MOL0     C 6151  13.114  11.601   2.788 -1.3344 -0.7822  0.3254
  770MOL0     C 6152  13.264  11.614   2.780 -0.0518 -0.6356 -0.1104
  770MOL0     O 6153  13.332  11.509   2.850  0.9414 -0.6813  0.5758
  770MOL0     C 6154  13.467  11.524   2.858  0.0666  0.1202 -0.6421
  770MOL0     C 6155  13.529  11.519   2.987 -0.4052  0.4060 -0.5474
  770MOL0     C 6156  13.668  11.498   2.999 -0.9880  0.0255  0.3242
  770MOL0     C 6157  13.746  11.502   2.879 -0.0294  0.1836 -0.7431
  770MOL0     O 6158  13.888  11.484   2.898  0.8548  0.4684 -0.0369
  770MOL0     C 6159  13.968  11.433   2.788 -0.5933  0.6777 -0.1074
  770MOL0     C 6160  13.921  11.293   2.754  1.6216 -0.0420  0.7231
  770MOL0     C 6161  14.015  11.177   2.783  0.4707 -0.7285  0.1234
  770MOL0     C 6162  14.005  11.144   2.936 -0.8091 -0.3990  0.2463
  770MOL0     C 6163  14.106  11.042   2.986  0.3156  0.4399 -0.2091
  770MOL0     C 6164  14.052  10.965   3.109  0.8026 -0.1454 -0.1235
  770MOL0     C 6165  14.158  10.872   3.173 -0.6082  0.5613 -0.0737
  770MOL0     C 6166  14.281  10.940   3.248 -0.3413 -0.1636  0.5220
  770MOL0    Cl 6167  14.242  11.044   3.394 -0.0240 -0.1047  0.4037
  770MOL0     C 6168  13.686  11.518   2.753 -0.8055 -0.2551  0.2803
  770MOL0     C 6169  13.550  11.531   2.742 -0.2265  0.9095  0.0784
  770MOL0     O 6170  13.314  11.722   2.738  0.9656  0.4809 -0.1304
  770MOL0     C 6171  13.027  11.623   2.898 -0.2170  0.8429  0.0806
  770MOL0     C 6172  12.893  11.634   2.884 -0.3276  0.0422  0.0202
  770MOL0     N 6173  12.177  11.464   2.570  0.1058 -0.3576 -0.5010
  770MOL0     N 6174  12.116  11.359   2.531  0.3075  0.6801 -0.2202
  770MOL0     C 6175  10.934  11.224   2.471 -0.3458 -0.4472  0.1849
  770MOL0     C 6176  10.817  11.174   2.421 -0.3908  0.3968 -0.1860
  770MOL0     C 6177  10.393  11.003   2.511  0.0985  0.5250  0.8172
  770MOL0     C 6178  10.392  10.870   2.459  0.3207  0.2768  0.4936
  770MOL0     C 6179  10.278  10.789   2.447  0.8959  0.2581  0.4551
  770MOL0     C 6180  10.154  10.842   2.466  0.1643  0.2353  0.1007
  770MOL0     O 6181  10.043  10.764   2.429  0.8683 -0.6723  0.4320
  770MOL0     C 6182   9.913  10.827   2.417  0.0270  0.1548 -0.0763
  770MOL0     C 6183   9.822  10.742   2.326 -0.4625 -0.3615  0.3133
  770MOL0     C 6184   9.792  10.600   2.377 -0.4869  0.3317 -0.1295
  770MOL0     C 6185   9.681  10.538   2.292  0.3606 -0.3338 -0.7823
  770MOL0     C 6186   9.550  10.589   2.325 -0.0326 -0.0358  0.2137
  770MOL0     C 6187   9.440  10.625   2.354 -0.0415  0.3281 -0.4139
  770MOL0     C 6188  10.148  10.966   2.520  0.0334  0.1599 -0.7062
  770MOL0     C 6189  10.258  11.050   2.545 -0.2940  0.4264 -0.2172
  770MOL0     C 6190  10.221  11.184   2.594  0.7820 -0.6968  0.7613
  770MOL0     H 6191  10.762  10.934   2.657  0.4064  1.0359  1.8148
  770MOL0     H 6192  10.964  11.012   2.731 -0.3940 -1.7613 -2.4053
  770MOL0     H 6193  11.206  11.013   2.623  0.3721 -0.0009 -0.0779
  770MOL0     H 6194  11.183  11.089   2.785 -2.5136  0.4135 -0.2756
  770MOL0     H 6195  11.367  11.156   2.551 -3.1575  0.0985 -0.0378
  770MOL0     H 6196  11.369  11.256   2.686  0.2027  0.1874 -0.6189
  770MOL0     H 6197  11.430  11.032   2.828  0.0183 -0.5439  0.5818
  770MOL0     H 6198  11.435  10.950   2.678 -1.2872 -0.1013  0.0196
  770MOL0     H 6199  11.610  11.176   2.778  1.7581 -0.4870  1.3262
  770MOL0     H 6200  11.642  11.002   2.770 -0.7442 -1.1340 -1.3142
  770MOL0     H 6201  11.604  11.168   2.513 -4.3150 -2.3659  0.7049
  770MOL0     H 6202  11.585  11.005   2.516  0.3943 -1.7813  2.1210
  770MOL0     H 6203  11.837  10.978   2.604  1.4273  1.0102  1.6553
  770MOL0     H 6204  11.828  11.068   2.463  3.9506 -0.8870  1.4208
  770MOL0     H 6205  11.837  11.183   2.735 -1.4425  2.0144 -1.3652
  770MOL0     H 6206  11.838  11.273   2.582  1.5620  0.9574 -0.5557
  770MOL0     H 6207  12.056  11.074   2.667 -0.4600 -0.7209 -0.9556
  770MOL0     H 6208  12.042  11.138   2.506  0.4626  0.8248 -0.2439
  770MOL0     H 6209  12.129  11.291   2.848  0.2905 -1.7644 -0.2147
  770MOL0     H 6210  12.275  11.518   2.890 -0.9542  1.3862 -0.4992
  770MOL0     H 6211  12.189  11.650   2.821  0.9194  1.3106  4.5026
  770MOL0     H 6212  12.361  11.706   2.674 -3.0475  0.6627  2.0477
  770MOL0     H 6213  12.444  11.678   2.824  0.0997  1.2540  0.2030
  770MOL0     H 6214  12.500  11.436   2.729  0.0907 -0.2216  0.0082
  770MOL0     H 6215  12.438  11.490   2.580 -1.5454 -3.6389  1.7762
  770MOL0     H 6216  12.694  11.479   2.615 -0.4019  0.4715 -1.0566
  770MOL0     H 6217  12.645  11.637   2.559  0.7104  1.1613  0.8620
  770MOL0     H 6218  12.878  11.609   2.554  1.2359 -1.9147 -1.2174
  770MOL0     H 6219  13.069  11.613   2.448 -2.9489  2.7831  1.9420
  770MOL0     H 6220  13.208  11.525   2.522  1.6492  1.1605 -0.1328
  770MOL0     H 6221  13.201  11.699   2.537  2.7242 -1.9095  1.3539
  770MOL0     H 6222  13.454  11.505   3.064 -2.0620  0.6381 -2.0402
  770MOL0     H 6223  13.712  11.495   3.098  0.6024  0.8867 -0.3276
  770MOL0     H 6224  13.973  11.490   2.695 -2.1609 -1.6355 -1.7195
  770MOL0     H 6225  14.063  11.419   2.839 -1.0573 -0.7077  0.4148
  770MOL0     H 6226  13.820  11.268   2.789  1.9479 -4.2023 -0.7660
  770MOL0     H 6227  13.906  11.298   2.646 -1.1830 -0.1564  1.0209
  770MOL0     H 6228  14.121  11.189   2.756  1.1740 -0.9188  2.5141
  770MOL0     H 6229  13.979  11.087   2.733 -0.9648 -0.5906  0.8608
  770MOL0     H 6230  13.901  11.117   2.957 -1.9436  3.4329  0.3438
  770MOL0     H 6231  14.016  11.241   2.985  0.8870 -0.0942 -0.6728
  770MOL0     H 6232  14.130  10.969   2.908 -1.3169 -0.1777 -0.1786
  770MOL0     H 6233  14.201  11.085   3.018  1.7156 -1.7547 -1.1561
  770MOL0     H 6234  13.970  10.902   3.071  0.8111  0.7616 -1.7524
  770MOL0     H 6235  14.006  11.032   3.182 -1.8998 -0.9317 -0.9671
  770MOL0     H 6236  14.192  10.806   3.093  2.1776 -2.0999  3.0170
  770MOL0     H 6237  14.104  10.815   3.249 -0.6406  2.8466  1.7344
  770MOL0     H 6238  14.343  10.998   3.178 -2.3362  1.5506  0.0702
  770MOL0     H 6239  14.337  10.851   3.279 -0.4769 -0.7867 -0.9592
  770MOL0     H 6240  13.758  11.541   2.675 -0.8602 -1.6416 -0.2128
  770MOL0     H 6241  13.508  11.551   2.644 -1.8169 -0.4854  0.4403
  770MOL0     H 6242  13.058  11.637   3.001 -0.1188 -1.5479  0.4285
  770MOL0     H 6243  12.832  11.651   2.972  2.2800  1.5144  1.6772
  770MOL0     H 6244  10.988  11.287   2.401  0.5828 -1.1128  0.2809
  770MOL0     H 6245  10.778  11.207   2.325  3.6458  2.1551 -1.4032
  770MOL0     H 6246  10.481  10.814   2.435 -1.5947 -2.3336 -0.9934
  770MOL0     H 6247  10.292  10.681   2.442  0.6871  0.2315  0.4466
  770MOL0     H 6248   9.865  10.832   2.515  0.0002 -2.7804  0.1345
  770MOL0     H 6249   9.931  10.933   2.398  1.6379  0.5117  2.8458
  770MOL0     H 6250   9.875  10.745   2.230 -2.2535  1.6247 -0.6821
  770MOL0     H 6251   9.730  10.800   2.314  0.0318  0.3423 -0.1984
  770MOL0     H 6252   9.878  10.533   2.373  3.1717  4.4167  1.5097
  770MOL0     H 6253   9.753  10.605   2.479  0.6887  0.5194  0.3317
  770MOL0     H 6254   9.688  10.430   2.312  1.0398 -0.2848 -0.7393
  770MOL0     H 6255   9.693  10.560   2.186 -1.8915  2.5236 -0.5878
  770MOL0     H 6256   9.343  10.667   2.374 -1.2531 -1.7201 -1.5823
  770MOL0     H 6257  10.048  11.001   2.542 -0.3180 -0.6853 -0.9489
  770MOL0     H 6258  10.299  11.220   2.662  1.1215 -2.2182  1.2167
  770MOL0     H 6259  10.219  11.260   2.514  0.4609 -0.5411  0.9161
  770MOL0     H 6260  10.128  11.172   2.649 -0.5532 -2.8433 -1.7233
  771MOL0     O 6261   8.441  11.080  10.402  0.2616 -0.4411 -0.6875
  771MOL0     C 6262   8.508  11.004  10.328 -1.2473  0.2883  0.1828
  771MOL0     O 6263   8.600  10.907  10.363 -0.1058 -0.6534 -0.4183
  771MOL0     C 6264   8.579  10.850  10.490 -0.1437  0.0050  0.1289
  771MOL0     C 6265   8.584  10.927  10.615  0.4735 -0.0393  0.8422
  771MOL0     C 6266   8.570  10.864  10.735 -0.0426  0.0252 -0.5152
  771MOL0     C 6267   8.555  10.727  10.740 -1.1371 -0.3293  1.1344
  771MOL0     O 6268   8.557  10.669  10.861 -0.0086  0.2414  0.4500
  771MOL0     C 6269   8.679  10.588  10.879 -0.0900  0.2602  0.2147
  771MOL0     C 6270   8.766  10.662  10.986  0.1561  0.0539  0.5057
  771MOL0     C 6271   8.692  10.659  11.120 -0.4011  0.5976 -0.2080
  771MOL0     C 6272   8.763  10.774  11.215  1.2844  0.9460 -0.2815
  771MOL0     C 6273   8.689  10.752  11.345 -0.3910 -0.5228 -0.8484
  771MOL0     C 6274   8.788  10.787  11.454  0.0561  0.3946  0.7565
  771MOL0     C 6275   8.715  10.763  11.589 -0.3372  0.8020  0.1967
  771MOL0     C 6276   8.607  10.861  11.628  0.2301  0.0061 -0.1610
  771MOL0     N 6277   8.656  11.006  11.642 -0.2147 -0.1334 -0.0067
  771MOL0     C 6278   8.607  11.122  11.577 -0.0564 -0.2728  0.9459
  771MOL0     C 6279   8.699  11.226  11.608 -0.2889 -0.9540 -0.0024
  771MOL0     C 6280   8.675  11.373  11.573  0.1891  0.1126  0.8436
  771MOL0     C 6281   8.622  11.400  11.429 -0.2476  0.6433 -0.5843
  771MOL0     C 6282   8.567  11.540  11.411  0.3675 -0.5625  0.2469
  771MOL0     C 6283   8.573  11.583  11.259  0.2813 -0.3787 -0.1635
  771MOL0     O 6284   8.522  11.717  11.246  0.0033 -0.1252 -0.0003
  771MOL0     C 6285   8.510  11.787  11.125 -0.0926  0.5176  0.2512
  771MOL0     C 6286   8.448  11.915  11.119 -0.0595  0.6947 -0.7316
  771MOL0     C 6287   8.432  11.987  10.997  0.2431 -0.4406  0.5818
  771MOL0     C 6288   8.347  12.114  11.012  0.1288 -0.0122  0.4898
  771MOL0     C 6289   8.490  11.941  10.875 -0.7214  0.4063 -0.1485
  771MOL0     C 6290   8.489  12.018  10.747  1.1458  0.2944  0.5881
  771MOL0     O 6291   8.521  11.946  10.636  0.0038 -0.0651  0.3315
  771MOL0     C 6292   8.563  12.018  10.528 -0.0032 -1.9107 -0.5922
  771MOL0     C 6293   8.696  12.003  10.495 -0.3409 -0.7977 -0.2657
  771MOL0     C 6294   8.752  12.067  10.379 -0.2362  0.6299 -0.0287
  771MOL0     C 6295   8.664  12.157  10.302 -0.6065  0.3346 -0.6424
  771MOL0     O 6296   8.690  12.236  10.195 -0.6111 -0.0208 -0.2377
  771MOL0     C 6297   8.824  12.222  10.133 -1.0805  0.0659 -0.2072
  771MOL0     C 6298   8.841  12.316  10.012 -0.0037  0.3575 -0.2593
  771MOL0     C 6299   8.872  12.457  10.069  0.5524 -0.0937  0.8774
  771MOL0     C 6300   8.882  12.545   9.942  0.1130  0.7124 -1.0644
  771MOL0     C 6301   8.944  12.681   9.976 -0.9026 -0.2150  0.3426
  771MOL0     C 6302   8.946  12.777   9.861  0.6417 -0.6850  0.5509
  771MOL0     C 6303   8.987  12.924   9.890 -0.5943 -0.7810 -0.9451
  771MOL0     C 6304   8.872  13.032   9.930  0.1715 -0.5912  0.0241
  771MOL0    Cl 6305   8.795  12.979  10.083 -0.0051 -0.3947  0.4115
  771MOL0     C 6306   8.533  12.173  10.341 -0.2979  0.0909  0.1281
  771MOL0     C 6307   8.489  12.105  10.457  0.5297  0.4442  0.0733
  771MOL0     O 6308   8.453  12.130  10.740 -0.1103 -0.7465 -1.9476
  771MOL0     C 6309   8.553  11.808  10.891 -0.0957  0.0576  0.3987
  771MOL0     C 6310   8.561  11.731  11.010  0.2810  0.4822  0.0298
  771MOL0     N 6311   8.798  11.175  11.691 -0.2075  0.1545 -0.6860
  771MOL0     N 6312   8.773  11.044  11.713  0.1061  0.4254 -0.2194
  771MOL0     C 6313   8.567  10.650  10.620  0.0366 -0.0971  0.1854
  771MOL0     C 6314   8.569  10.714  10.503 -0.2108 -0.2618 -0.6949
  771MOL0     C 6315   8.486  11.023  10.182  0.4265  0.6217  0.6114
  771MOL0     C 6316   8.393  11.122  10.141  0.3844 -0.7146  0.3425
  771MOL0     C 6317   8.358  11.142  10.008  0.1881  0.1744 -1.2638
  771MOL0     C 6318   8.402  11.060   9.907  0.7608  0.0013 -0.4479
  771MOL0     O 6319   8.375  11.071   9.773  0.4306 -0.3589  0.3468
  771MOL0     C 6320   8.304  11.187   9.725 -0.7484  0.3517  0.7460
  771MOL0     C 6321   8.277  11.143   9.575 -0.4558 -0.0109 -0.2116
  771MOL0     C 6322   8.175  11.034   9.575  0.0049  0.6652 -0.8104
  771MOL0     C 6323   8.159  10.973   9.438 -1.0326  0.4508 -0.0225
  771MOL0     C 6324   8.076  10.852   9.441  0.3290 -0.1466 -0.0226
  771MOL0     C 6325   8.003  10.751   9.424  0.2474 -0.4008 -0.7538
  771MOL0     C 6326   8.479  10.953   9.943 -0.2997  1.4120 -0.2801
  771MOL0     C 6327   8.527  10.937  10.076  0.8477  0.5717  0.5944
  771MOL0     C 6328   8.601  10.807  10.094 -0.6692 -0.6338  0.2153
  771MOL0     H 6329   8.591  11.035  10.615 -1.4972  0.1246  1.8898
  771MOL0     H 6330   8.570  10.923  10.826  0.9709 -0.0730 -0.4357
  771MOL0     H 6331   8.749  10.585  10.794 -0.5399  1.2477 -0.2072
  771MOL0     H 6332   8.662  10.491  10.926 -0.1144  1.8857  3.9173
  771MOL0     H 6333   8.862  10.611  10.990  0.4759  0.0700 -3.3239
  771MOL0     H 6334   8.793  10.763  10.956 -0.1249  0.8414  2.7247
  771MOL0     H 6335   8.585  10.677  11.106 -0.5517 -0.7449 -0.9327
  771MOL0     H 6336   8.697  10.558  11.160  1.6020  0.7645  0.0552
  771MOL0     H 6337   8.872  10.765  11.221  1.6367  2.7635 -2.5524
  771MOL0     H 6338   8.748  10.876  11.178  2.9904  0.9286 -1.1224
  771MOL0     H 6339   8.674  10.644  11.354  2.6295 -0.9832 -0.0860
  771MOL0     H 6340   8.594  10.805  11.351  1.4244  2.9554 -0.1455
  771MOL0     H 6341   8.871  10.716  11.447  0.2461  0.7281 -0.6595
  771MOL0     H 6342   8.820  10.891  11.453 -1.7877  1.0133  1.2410
  771MOL0     H 6343   8.798  10.760  11.660  1.3623 -1.2623 -1.7235
  771MOL0     H 6344   8.661  10.668  11.586 -1.0000  1.1844 -1.7702
  771MOL0     H 6345   8.520  10.847  11.564 -2.9026  0.2663  3.6861
  771MOL0     H 6346   8.568  10.833  11.726  0.4966 -2.6791 -0.7395
  771MOL0     H 6347   8.514  11.130  11.521 -1.1085  1.4428  2.7808
  771MOL0     H 6348   8.769  11.425  11.590  0.5656 -0.9250  2.1919
  771MOL0     H 6349   8.600  11.417  11.640 -0.7079  0.1553 -0.1576
  771MOL0     H 6350   8.695  11.376  11.352 -0.9990 -3.6968 -0.1982
  771MOL0     H 6351   8.544  11.331  11.397 -1.8695  2.1483 -0.0893
  771MOL0     H 6352   8.464  11.543  11.448  0.1769 -1.8688 -0.1473
  771MOL0     H 6353   8.625  11.602  11.480  0.3705 -1.7777  1.3954
  771MOL0     H 6354   8.673  11.571  11.214  0.3957 -2.8545  0.6166
  771MOL0     H 6355   8.513  11.512  11.202  0.1237  2.4869 -4.0330
  771MOL0     H 6356   8.392  11.948  11.205 -1.2801 -1.4749 -0.6201
  771MOL0     H 6357   8.303  12.131  11.111  1.2562  2.7203  0.6050
  771MOL0     H 6358   8.267  12.117  10.938 -1.1649  4.7079  1.7586
  771MOL0     H 6359   8.415  12.196  10.985 -1.0255  0.9584  0.4232
  771MOL0     H 6360   8.760  11.958  10.571 -0.8085 -0.0317  0.6145
  771MOL0     H 6361   8.855  12.045  10.354 -0.4009  1.6027 -1.7596
  771MOL0     H 6362   8.900  12.237  10.209  0.5853  1.4568 -2.0537
  771MOL0     H 6363   8.857  12.120  10.110  1.6341  1.0941 -1.2994
  771MOL0     H 6364   8.930  12.285   9.955 -0.2161 -0.9742  0.0932
  771MOL0     H 6365   8.748  12.313   9.954 -0.3099 -0.5909  0.2502
  771MOL0     H 6366   8.963  12.457  10.130  1.5883  1.4116 -0.5939
  771MOL0     H 6367   8.792  12.493  10.134 -1.6042 -0.7395 -1.2806
  771MOL0     H 6368   8.776  12.562   9.922  0.3012  2.0626 -1.0475
  771MOL0     H 6369   8.933  12.489   9.863 -0.4511 -0.2573 -0.7487
  771MOL0     H 6370   8.896  12.733  10.060  3.7045  2.0959  1.8377
  771MOL0     H 6371   9.046  12.660  10.008 -0.6246 -0.2553 -0.5443
  771MOL0     H 6372   8.854  12.776   9.801  0.4087 -2.9688  0.8714
  771MOL0     H 6373   9.027  12.738   9.800  0.8219 -0.0903  0.3969
  771MOL0     H 6374   9.024  12.967   9.796 -1.3282 -0.6170 -1.1666
  771MOL0     H 6375   9.066  12.917   9.965  0.0165 -2.8177 -1.7193
  771MOL0     H 6376   8.813  13.058   9.841 -0.9421  1.6649  1.3375
  771MOL0     H 6377   8.908  13.132   9.954  0.7128  0.1823 -3.3958
  771MOL0     H 6378   8.467  12.233  10.279 -4.0864 -2.6115  1.2069
  771MOL0     H 6379   8.387  12.114  10.492  0.8255  0.6268  0.9112
  771MOL0     H 6380   8.587  11.757  10.802 -3.3016  0.2317 -1.0630
  771MOL0     H 6381   8.598  11.630  11.008 -0.2055  0.2068  2.3360
  771MOL0     H 6382   8.567  10.541  10.629  2.5190 -0.1643  0.1899
  771MOL0     H 6383   8.567  10.659  10.409 -1.3453 -1.8205  0.1864
  771MOL0     H 6384   8.343  11.188  10.211  1.4046  2.1519 -1.4352
  771MOL0     H 6385   8.286  11.220   9.985 -1.9120 -1.6501 -1.2800
  771MOL0     H 6386   8.212  11.210   9.780 -1.3320  0.7636 -0.3848
  771MOL0     H 6387   8.363  11.277   9.707  0.3598 -1.0690 -3.9663
  771MOL0     H 6388   8.375  11.116   9.535  0.9061  1.7868  1.6797
  771MOL0     H 6389   8.241  11.232   9.522  0.8348  1.3866  1.1229
  771MOL0     H 6390   8.208  10.946   9.631 -0.8645  0.5917 -0.3903
  771MOL0     H 6391   8.077  11.066   9.611 -0.0576 -2.7135  2.6711
  771MOL0     H 6392   8.259  10.936   9.412 -1.3201 -0.2440 -0.1708
  771MOL0     H 6393   8.123  11.049   9.368 -1.0130  0.8666  0.4139
  771MOL0     H 6394   7.953  10.660   9.396  2.4345 -2.2552  1.0126
  771MOL0     H 6395   8.520  10.873   9.882 -1.4674 -1.8236  2.7903
  771MOL0     H 6396   8.562  10.755  10.182 -1.6365 -1.6486 -0.7840
  771MOL0     H 6397   8.589  10.733  10.015 -1.3698  0.0479 -0.3353
  771MOL0     H 6398   8.708  10.831  10.083 -0.8522  0.2191  0.2104
  772MOL0     O 6399  11.176   9.184   1.120  0.5187 -0.2676  0.7458
  772MOL0     C 6400  11.240   9.091   1.165 -0.5569  0.4621 -1.3641
  772MOL0     O 6401  11.194   8.989   1.248 -0.2893  0.4066 -0.3844
  772MOL0     C 6402  11.059   8.975   1.269  0.5511 -0.2666 -1.2723
  772MOL0     C 6403  11.009   8.955   1.394 -0.3125  0.0321 -0.2188
  772MOL0     C 6404  10.875   8.950   1.430 -0.2846 -0.2588  0.4994
  772MOL0     C 6405  10.783   8.974   1.333 -0.3730 -0.0614  0.5730
  772MOL0     O 6406  10.648   8.963   1.351  0.4310  0.3200  0.7632
  772MOL0     C 6407  10.587   9.007   1.474 -0.2261 -0.3894  0.1674
  772MOL0     C 6408  10.462   9.068   1.431  0.2456 -0.4413 -0.4988
  772MOL0     C 6409  10.382   9.142   1.544  0.4184 -0.7577  0.4707
  772MOL0     C 6410  10.357   9.050   1.664  0.1151  0.2117 -0.1789
  772MOL0     C 6411  10.292   9.114   1.789 -0.4513  0.2213 -0.2357
  772MOL0     C 6412  10.298   9.027   1.911  0.6209  0.1785  1.1383
  772MOL0     C 6413  10.210   8.896   1.892  0.3998 -0.3347 -0.1038
  772MOL0     C 6414  10.070   8.917   1.834  0.1694 -0.8180 -0.5936
  772MOL0     N 6415  10.002   8.996   1.935  0.7375  0.4183  0.1900
  772MOL0     C 6416   9.978   8.958   2.060  0.6191  0.9793  0.0219
  772MOL0     C 6417   9.923   9.066   2.119 -0.5650 -0.1798  0.4313
  772MOL0     C 6418   9.880   9.100   2.258 -1.0194 -0.5569  0.6092
  772MOL0     C 6419  10.003   9.131   2.355 -0.3397  0.0545  0.1646
  772MOL0     C 6420  10.039   9.284   2.359 -0.5060  0.3626  0.0276
  772MOL0     C 6421  10.139   9.316   2.472 -0.5077 -0.0241  0.4410
  772MOL0     O 6422  10.252   9.224   2.496 -0.0668  0.1039  0.0223
  772MOL0     C 6423  10.350   9.223   2.397  0.3970  0.9775 -0.6944
  772MOL0     C 6424  10.444   9.126   2.410  0.5498 -0.5051  0.2598
  772MOL0     C 6425  10.551   9.102   2.323 -1.2028 -0.5362 -0.0370
  772MOL0     C 6426  10.648   8.985   2.356 -0.1527 -1.0894 -0.2531
  772MOL0     C 6427  10.559   9.186   2.203 -0.0806 -0.2670 -0.0730
  772MOL0     C 6428  10.651   9.173   2.087 -0.8862  0.3666  0.4503
  772MOL0     O 6429  10.631   9.258   1.980 -0.6617  0.3408 -0.4095
  772MOL0     C 6430  10.698   9.260   1.858 -0.6034  0.5008  0.9665
  772MOL0     C 6431  10.629   9.314   1.752 -0.3718 -0.0271  0.7889
  772MOL0     C 6432  10.687   9.330   1.626 -0.1820  0.8158  0.0844
  772MOL0     C 6433  10.817   9.283   1.603 -0.4543 -0.3956  0.2484
  772MOL0     O 6434  10.871   9.313   1.477 -0.7210  0.7770  0.3132
  772MOL0     C 6435  10.993   9.391   1.479 -0.1389 -1.0668 -0.1413
  772MOL0     C 6436  11.037   9.379   1.330 -0.1128  0.7699  0.6814
  772MOL0     C 6437  11.180   9.453   1.320  0.1113  0.0976 -0.5734
  772MOL0     C 6438  11.149   9.604   1.321 -0.2439 -0.1207 -0.2937
  772MOL0     C 6439  11.281   9.686   1.329 -0.2841  0.2263 -0.4881
  772MOL0     C 6440  11.248   9.830   1.319  0.1898 -0.6480 -0.0258
  772MOL0     C 6441  11.379   9.918   1.300  0.7006  0.4926 -0.3469
  772MOL0     C 6442  11.367  10.054   1.372 -0.6097 -0.1941 -0.3393
  772MOL0    Cl 6443  11.204  10.128   1.324 -0.1464  0.3405 -0.0310
  772MOL0     C 6444  10.888   9.226   1.709  0.2743  0.5759 -0.9621
  772MOL0     C 6445  10.834   9.218   1.837  1.3196 -1.0911 -0.5161
  772MOL0     O 6446  10.719   9.076   2.081  0.1148 -0.0987  0.5937
  772MOL0     C 6447  10.467   9.287   2.188 -0.0177 -0.0947 -1.0256
  772MOL0     C 6448  10.369   9.300   2.285 -0.9286 -0.2785 -1.0582
  772MOL0     N 6449   9.913   9.160   2.025  0.5156  0.1147 -0.0492
  772MOL0     N 6450   9.958   9.120   1.914 -0.6968 -0.4318  1.1804
  772MOL0     C 6451  10.822   8.997   1.205 -0.2388 -0.0342 -0.0488
  772MOL0     C 6452  10.963   8.999   1.171 -0.7635 -0.5670  0.6070
  772MOL0     C 6453  11.388   9.099   1.140 -1.1629 -0.3873 -0.0406
  772MOL0     C 6454  11.425   9.179   1.032  0.0613  0.0832  0.4964
  772MOL0     C 6455  11.553   9.224   1.008  0.5490  0.6558  0.7340
  772MOL0     C 6456  11.658   9.164   1.072  0.9279 -0.1492 -0.0078
  772MOL0     O 6457  11.790   9.204   1.054 -0.2311 -0.3388  0.3496
  772MOL0     C 6458  11.832   9.270   0.937 -0.3172 -0.8574  0.8625
  772MOL0     C 6459  11.988   9.271   0.942  0.0224  0.6418 -0.6379
  772MOL0     C 6460  12.056   9.349   0.830  0.6177 -0.4564  0.3703
  772MOL0     C 6461  12.204   9.382   0.853 -0.3265 -1.0146  0.1504
  772MOL0     C 6462  12.294   9.262   0.880 -0.4285 -0.2292 -0.0373
  772MOL0     C 6463  12.383   9.183   0.888  0.1200  0.0605 -0.5717
  772MOL0     C 6464  11.624   9.070   1.174  1.0342 -0.2032 -0.7266
  772MOL0     C 6465  11.494   9.038   1.219  0.3539 -0.8980 -0.0144
  772MOL0     C 6466  11.465   8.953   1.340 -0.0756  0.5374 -0.5705
  772MOL0     H 6467  11.087   8.935   1.468  1.5538 -0.6575 -2.2638
  772MOL0     H 6468  10.857   8.953   1.537 -0.8747 -0.6980  0.4154
  772MOL0     H 6469  10.655   9.076   1.525 -0.1763  0.3087 -0.8185
  772MOL0     H 6470  10.571   8.912   1.527 -2.5777 -0.2672 -0.2054
  772MOL0     H 6471  10.492   9.147   1.361  2.5499 -1.2203 -0.4648
  772MOL0     H 6472  10.411   8.980   1.390 -0.0074 -1.3325  1.6358
  772MOL0     H 6473  10.442   9.227   1.579  1.0197 -1.1505  0.4155
  772MOL0     H 6474  10.294   9.187   1.497  1.8970  2.5799  0.6073
  772MOL0     H 6475  10.306   8.958   1.631 -0.5626  0.2203  0.7998
  772MOL0     H 6476  10.453   9.010   1.697 -0.1335 -0.2993 -0.0646
  772MOL0     H 6477  10.190   9.151   1.773 -1.4433 -1.4858  1.6531
  772MOL0     H 6478  10.360   9.194   1.822  1.1458 -2.7935  5.0434
  772MOL0     H 6479  10.400   8.990   1.926  2.0349  2.1343 -2.4645
  772MOL0     H 6480  10.262   9.075   2.002  1.8162  0.9096  1.2493
  772MOL0     H 6481  10.202   8.842   1.986  0.3210  0.1895  0.1950
  772MOL0     H 6482  10.264   8.825   1.828 -3.0749 -2.3489 -1.0157
  772MOL0     H 6483  10.093   8.968   1.740  2.0326  3.0520  1.7191
  772MOL0     H 6484  10.005   8.832   1.812 -1.3025 -0.4556  1.9318
  772MOL0     H 6485  10.015   8.865   2.102  0.5161  0.3534 -1.2467
  772MOL0     H 6486   9.810   9.023   2.292 -1.9836 -0.1617 -0.4023
  772MOL0     H 6487   9.824   9.193   2.246  1.9803  1.3308  0.0929
  772MOL0     H 6488   9.973   9.100   2.456 -1.3438  0.6164  0.0530
  772MOL0     H 6489  10.090   9.071   2.328  2.0643  2.0385  2.9198
  772MOL0     H 6490  10.087   9.308   2.263  0.4826  2.2216  0.9372
  772MOL0     H 6491   9.953   9.352   2.366 -0.4011  0.5258 -0.2295
  772MOL0     H 6492  10.179   9.417   2.457 -0.5292 -0.0416  0.2610
  772MOL0     H 6493  10.082   9.322   2.565  1.8026 -3.1490  2.2483
  772MOL0     H 6494  10.433   9.055   2.491 -1.8728 -0.0814  0.3683
  772MOL0     H 6495  10.689   8.940   2.266 -0.9924  0.4009 -1.4243
  772MOL0     H 6496  10.612   8.917   2.433 -2.6862 -0.7320 -1.0344
  772MOL0     H 6497  10.744   9.017   2.398  0.1354 -0.3761 -1.4146
  772MOL0     H 6498  10.530   9.353   1.775  0.4318  1.0700  2.5108
  772MOL0     H 6499  10.633   9.391   1.555  0.3209  0.6899 -0.4098
  772MOL0     H 6500  10.966   9.493   1.507  1.5345 -0.4075 -0.8240
  772MOL0     H 6501  11.058   9.346   1.554 -2.1810 -1.8298  1.2701
  772MOL0     H 6502  11.061   9.274   1.311  2.2090  0.4966  4.1799
  772MOL0     H 6503  10.951   9.409   1.270 -0.8664 -0.6475  1.0019
  772MOL0     H 6504  11.226   9.433   1.223 -2.4404 -1.0075 -1.6368
  772MOL0     H 6505  11.250   9.417   1.396 -0.9669 -1.6196 -0.3581
  772MOL0     H 6506  11.097   9.642   1.410  0.2507  0.1234 -0.0984
  772MOL0     H 6507  11.089   9.627   1.233 -0.5382 -1.8732 -0.5904
  772MOL0     H 6508  11.344   9.683   1.418  0.2331  2.2499 -0.7416
  772MOL0     H 6509  11.342   9.659   1.242 -1.2741  1.5878 -1.6540
  772MOL0     H 6510  11.193   9.856   1.410 -2.9713  0.5659 -2.0879
  772MOL0     H 6511  11.170   9.846   1.244 -0.8745 -4.8865 -0.1264
  772MOL0     H 6512  11.405   9.931   1.194 -1.8773  0.6051 -1.0340
  772MOL0     H 6513  11.456   9.861   1.354  1.2621  1.8124  0.2799
  772MOL0     H 6514  11.447  10.121   1.342  0.8042 -1.7879 -0.2777
  772MOL0     H 6515  11.367  10.044   1.481 -2.1088  1.7353 -0.0918
  772MOL0     H 6516  10.987   9.191   1.683  1.0322  2.0294 -0.1814
  772MOL0     H 6517  10.895   9.160   1.906  0.7873 -1.1624 -0.0935
  772MOL0     H 6518  10.475   9.359   2.108  4.2086  0.7394 -0.0669
  772MOL0     H 6519  10.295   9.374   2.258 -1.0728 -0.0046  0.0265
  772MOL0     H 6520  10.746   9.016   1.129  1.2286  1.1433 -1.2865
  772MOL0     H 6521  10.985   9.014   1.066  1.9840 -0.9468  1.0667
  772MOL0     H 6522  11.342   9.209   0.968 -1.0668  1.0081  2.3198
  772MOL0     H 6523  11.572   9.306   0.940 -1.0693  0.7200  0.3304
  772MOL0     H 6524  11.790   9.234   0.842 -1.6274  1.6027  0.4122
  772MOL0     H 6525  11.800   9.374   0.948 -1.1862 -0.7675 -1.7832
  772MOL0     H 6526  12.018   9.167   0.930  0.7680  0.8219 -0.3952
  772MOL0     H 6527  12.028   9.312   1.036  1.2976 -1.6877 -0.0760
  772MOL0     H 6528  12.053   9.301   0.731  1.0752  0.4382 -0.0870
  772MOL0     H 6529  12.001   9.443   0.825  0.7381 -0.3828  0.4412
  772MOL0     H 6530  12.218   9.455   0.933  1.8558  0.1855 -1.2211
  772MOL0     H 6531  12.238   9.434   0.763 -0.6725 -1.8066 -0.4524
  772MOL0     H 6532  12.463   9.116   0.910  0.6278  1.1588  1.1188
  772MOL0     H 6533  11.709   9.031   1.229  0.3886 -1.7165 -0.7646
  772MOL0     H 6534  11.407   9.020   1.405  0.3248  1.5114 -1.1799
  772MOL0     H 6535  11.411   8.864   1.308  1.2008 -0.7757  0.8212
  772MOL0     H 6536  11.564   8.931   1.379  0.9090  1.5805 -2.3300
  773MOL0     O 6537   9.760   8.187   7.208  0.4535  0.0445 -0.3191
  773MOL0     C 6538   9.803   8.154   7.320  0.1457  0.6344 -0.5715
  773MOL0     O 6539   9.882   8.227   7.407 -0.8534 -1.3218 -0.5966
  773MOL0     C 6540   9.929   8.349   7.359  1.0929  0.1562 -1.2170
  773MOL0     C 6541  10.062   8.372   7.384  0.6204 -0.1643 -0.7087
  773MOL0     C 6542  10.121   8.498   7.345  0.5185 -0.2371 -0.1681
  773MOL0     C 6543  10.040   8.601   7.293 -0.9617  0.0390  0.3489
  773MOL0     O 6544  10.076   8.723   7.245 -0.1191 -0.6054  0.8552
  773MOL0     C 6545  10.214   8.767   7.278 -0.2314  0.8708 -0.2675
  773MOL0     C 6546  10.229   8.918   7.249 -0.4061  0.4341  0.1440
  773MOL0     C 6547  10.197   8.947   7.106 -0.1219 -0.0753 -0.5267
  773MOL0     C 6548  10.286   9.051   7.053 -0.7740  0.4188  0.7922
  773MOL0     C 6549  10.271   9.096   6.905  1.3690 -0.0239  0.3140
  773MOL0     C 6550  10.360   9.219   6.871 -0.1242 -0.0702  0.0814
  773MOL0     C 6551  10.351   9.276   6.737  0.6907 -0.3400 -0.3254
  773MOL0     C 6552  10.420   9.198   6.625 -0.6670  0.3207 -0.8448
  773MOL0     N 6553  10.562   9.179   6.640 -0.5903 -0.2241 -0.1778
  773MOL0     C 6554  10.608   9.083   6.727 -0.4182 -0.5388  0.2624
  773MOL0     C 6555  10.735   9.116   6.765  0.2225 -0.7179 -0.5777
  773MOL0     C 6556  10.820   9.048   6.873  0.6795 -0.1427 -0.6151
  773MOL0     C 6557  10.746   9.044   7.004  0.2406  0.3065 -0.0836
  773MOL0     C 6558  10.743   9.181   7.060  0.1753 -0.3548 -0.5516
  773MOL0     C 6559  10.631   9.187   7.171 -0.2233 -0.0537  0.4252
  773MOL0     O 6560  10.624   9.325   7.216 -0.6098 -0.5888 -0.8622
  773MOL0     C 6561  10.701   9.373   7.315 -0.2478  0.6965 -0.2784
  773MOL0     C 6562  10.761   9.492   7.302  0.0023  0.5823  0.3807
  773MOL0     C 6563  10.823   9.559   7.409 -0.0612  0.3111  1.1487
  773MOL0     C 6564  10.889   9.697   7.369 -0.3870  0.5821  0.2961
  773MOL0     C 6565  10.829   9.507   7.542  0.8211  0.2763  0.6313
  773MOL0     C 6566  10.899   9.574   7.656 -0.3686 -0.2767  0.1966
  773MOL0     O 6567  10.916   9.496   7.763 -0.6705 -0.2609 -0.2178
  773MOL0     C 6568  10.929   9.561   7.876 -0.0078  0.1489  0.2128
  773MOL0     C 6569  10.813   9.614   7.933 -0.2029 -0.2121 -0.2106
  773MOL0     C 6570  10.818   9.669   8.059 -0.0457 -1.0438 -0.7513
  773MOL0     C 6571  10.934   9.677   8.127  0.1877  0.0319  0.1178
  773MOL0     O 6572  10.926   9.741   8.250 -0.3916 -0.3027 -0.2158
  773MOL0     C 6573  11.022   9.693   8.352 -0.3484  0.0754 -0.2138
  773MOL0     C 6574  11.028   9.540   8.387  0.1010 -0.3422 -0.6019
  773MOL0     C 6575  10.902   9.480   8.432  0.4486  0.5573 -0.5248
  773MOL0     C 6576  10.857   9.526   8.574  0.1673 -0.3607  0.0166
  773MOL0     C 6577  10.950   9.482   8.693  0.7106  0.0722  0.8826
  773MOL0     C 6578  10.946   9.582   8.812  1.0739 -0.6981 -0.2876
  773MOL0     C 6579  11.002   9.539   8.948  0.1571 -0.1354 -0.0909
  773MOL0     C 6580  11.002   9.654   9.048 -0.2643 -0.0008 -0.5791
  773MOL0    Cl 6581  10.842   9.725   9.080  0.5838  0.0125  0.4461
  773MOL0     C 6582  11.053   9.626   8.077 -1.0703 -0.1220 -0.5189
  773MOL0     C 6583  11.048   9.562   7.951  0.6795  0.2753 -0.7107
  773MOL0     O 6584  10.917   9.695   7.653  0.5674 -0.5239  0.2370
  773MOL0     C 6585  10.774   9.378   7.554  0.5211 -0.7664 -0.5328
  773MOL0     C 6586  10.710   9.307   7.450 -0.1886 -0.7894 -0.4472
  773MOL0     N 6587  10.762   9.228   6.685  0.3685 -0.1441 -0.3545
  773MOL0     N 6588  10.659   9.260   6.610 -0.0009  0.2466 -0.5091
  773MOL0     C 6589   9.908   8.579   7.277 -0.4665  0.7006  0.8191
  773MOL0     C 6590   9.852   8.458   7.306 -0.1708  0.1651 -0.0082
  773MOL0     C 6591   9.762   8.014   7.369 -0.4546 -0.0866 -1.0736
  773MOL0     C 6592   9.770   7.988   7.509 -0.2632  1.0598  0.1522
  773MOL0     C 6593   9.726   7.870   7.565  0.5285  0.0001  0.4117
  773MOL0     C 6594   9.687   7.764   7.484 -0.0699  0.0221 -0.8717
  773MOL0     O 6595   9.660   7.646   7.542 -0.2757  0.3248 -0.6008
  773MOL0     C 6596   9.644   7.529   7.457  0.2021 -0.7781 -0.4755
  773MOL0     C 6597   9.613   7.407   7.539 -0.4223  1.0052 -0.8718
  773MOL0     C 6598   9.725   7.355   7.631 -0.2549 -0.3411 -0.0630
  773MOL0     C 6599   9.851   7.329   7.551  0.0445  0.8261  1.0320
  773MOL0     C 6600   9.951   7.273   7.642 -0.5243  0.9393 -0.5709
  773MOL0     C 6601  10.029   7.213   7.712 -0.5284 -1.1122  0.4163
  773MOL0     C 6602   9.663   7.789   7.346  0.2944 -0.1894 -0.6488
  773MOL0     C 6603   9.703   7.915   7.288  0.9217 -0.1507  0.4389
  773MOL0     C 6604   9.669   7.931   7.136  0.1857  0.9613 -0.7652
  773MOL0     H 6605  10.116   8.291   7.430  0.3707  0.2828  0.4123
  773MOL0     H 6606  10.228   8.495   7.364  0.9781  1.3067 -2.1560
  773MOL0     H 6607  10.280   8.701   7.220  1.0156 -0.1452  2.1840
  773MOL0     H 6608  10.238   8.749   7.383  2.3451 -2.6392 -1.2711
  773MOL0     H 6609  10.155   8.966   7.314 -0.0201 -0.6233  1.4231
  773MOL0     H 6610  10.331   8.949   7.273 -1.0599  0.2678  3.7198
  773MOL0     H 6611  10.199   8.861   7.038  2.7566 -1.1474  0.7640
  773MOL0     H 6612  10.093   8.980   7.104 -0.4582 -0.9507  1.3380
  773MOL0     H 6613  10.286   9.140   7.118  0.5838  1.5461 -0.6871
  773MOL0     H 6614  10.388   9.014   7.039  0.3312  3.7120 -1.0528
  773MOL0     H 6615  10.166   9.121   6.888  1.3889  0.5026  0.9385
  773MOL0     H 6616  10.302   9.020   6.832  1.1004  1.4726 -1.4295
  773MOL0     H 6617  10.328   9.303   6.933  0.1201 -0.4414  0.7270
  773MOL0     H 6618  10.463   9.191   6.898  0.5432  2.8661  0.9026
  773MOL0     H 6619  10.395   9.375   6.733 -0.0796  0.0738  0.9471
  773MOL0     H 6620  10.243   9.281   6.721  0.7084 -1.3518 -0.9076
  773MOL0     H 6621  10.375   9.098   6.627  1.0289 -0.5568 -2.3651
  773MOL0     H 6622  10.402   9.242   6.527  1.7693  1.1918 -0.9825
  773MOL0     H 6623  10.550   8.998   6.763 -1.9043  0.4948  0.4038
  773MOL0     H 6624  10.918   9.094   6.884  1.6100 -1.5311 -2.4146
  773MOL0     H 6625  10.830   8.944   6.840 -1.5003  0.5425 -3.9626
  773MOL0     H 6626  10.647   9.000   6.991  0.0461  0.8586 -0.4913
  773MOL0     H 6627  10.795   8.986   7.084 -1.8734  1.8720  2.5322
  773MOL0     H 6628  10.837   9.205   7.112 -0.4125  1.9594 -0.4310
  773MOL0     H 6629  10.715   9.258   6.988 -2.0535 -1.3082 -0.7780
  773MOL0     H 6630  10.536   9.159   7.125 -0.8892  3.3172 -0.4753
  773MOL0     H 6631  10.654   9.124   7.258 -2.3134  0.4778  1.4296
  773MOL0     H 6632  10.762   9.530   7.200 -1.9607  2.0939  0.8690
  773MOL0     H 6633  10.885   9.715   7.261  0.8337 -0.7289 -0.0017
  773MOL0     H 6634  10.993   9.689   7.401  0.2053 -2.1641 -1.9020
  773MOL0     H 6635  10.867   9.788   7.425  2.3500  0.8335  1.0577
  773MOL0     H 6636  10.721   9.590   7.881  0.5016 -1.7785 -0.8129
  773MOL0     H 6637  10.727   9.707   8.105  2.8371  3.4569  2.0285
  773MOL0     H 6638  11.124   9.723   8.328 -0.4325 -2.7143 -5.3266
  773MOL0     H 6639  10.988   9.751   8.439  0.9617 -0.2219  0.5208
  773MOL0     H 6640  11.062   9.488   8.298 -0.7329 -0.9329 -0.5827
  773MOL0     H 6641  11.109   9.530   8.460  0.5809  1.8280 -0.7545
  773MOL0     H 6642  10.917   9.375   8.460 -0.8588  0.8794  1.6481
  773MOL0     H 6643  10.823   9.498   8.358 -0.8559 -0.4590  0.5481
  773MOL0     H 6644  10.762   9.481   8.604  0.6889 -0.2923  1.8706
  773MOL0     H 6645  10.844   9.635   8.582 -1.6666 -0.7036  3.0579
  773MOL0     H 6646  10.917   9.385   8.733 -1.0867  0.5651  0.6730
  773MOL0     H 6647  11.055   9.467   8.667  0.3328 -2.2341  0.4965
  773MOL0     H 6648  10.843   9.618   8.814  1.2441 -0.1175 -1.3441
  773MOL0     H 6649  11.011   9.661   8.772  0.4507 -0.7506 -1.4616
  773MOL0     H 6650  11.108   9.513   8.940  0.1866  0.3985 -1.8913
  773MOL0     H 6651  10.939   9.456   8.981 -0.7611 -0.3115 -2.1250
  773MOL0     H 6652  11.079   9.720   9.007  1.0095 -1.2330 -0.2506
  773MOL0     H 6653  11.036   9.616   9.145 -0.4499  3.4233  0.9775
  773MOL0     H 6654  11.152   9.625   8.122  0.2849  0.6321 -3.2583
  773MOL0     H 6655  11.135   9.507   7.918  1.8787  1.2651  0.6573
  773MOL0     H 6656  10.778   9.326   7.649 -0.9417 -0.9943 -0.5799
  773MOL0     H 6657  10.675   9.206   7.471 -0.1875 -0.4021  1.5652
  773MOL0     H 6658   9.853   8.651   7.217  1.1840  0.5781 -0.9706
  773MOL0     H 6659   9.748   8.439   7.284  0.6787 -1.7110 -2.9759
  773MOL0     H 6660   9.808   8.071   7.567  2.7040  0.3785 -0.6866
  773MOL0     H 6661   9.737   7.855   7.672  1.3875  0.6822  0.4280
  773MOL0     H 6662   9.548   7.545   7.407 -0.8256 -1.2739  1.2560
  773MOL0     H 6663   9.726   7.513   7.387  2.0075 -0.8628  1.5651
  773MOL0     H 6664   9.574   7.323   7.480 -0.0470 -0.9755  1.5313
  773MOL0     H 6665   9.532   7.429   7.609 -0.7167  0.7004 -1.1167
  773MOL0     H 6666   9.744   7.433   7.705 -2.6300  0.6185 -0.3615
  773MOL0     H 6667   9.694   7.262   7.679 -1.4471  1.1790  2.3095
  773MOL0     H 6668   9.894   7.413   7.497  1.3376  0.9719  2.2316
  773MOL0     H 6669   9.819   7.250   7.482  0.2107  0.0155  1.8629
  773MOL0     H 6670  10.095   7.147   7.765  1.8152 -0.0195 -0.9736
  773MOL0     H 6671   9.631   7.722   7.267  0.2540  3.7953 -4.3860
  773MOL0     H 6672   9.760   7.953   7.079  1.2320  0.8538  0.8100
  773MOL0     H 6673   9.610   7.843   7.110  2.0121 -1.2868  2.0151
  773MOL0     H 6674   9.608   8.019   7.113 -1.7566 -0.1663 -0.1473
  774MOL0     O 6675   5.240   5.152   1.498  0.5069  0.0906 -0.8448
  774MOL0     C 6676   5.284   5.074   1.421  0.0947  0.5632 -0.2364
  774MOL0     O 6677   5.420   5.059   1.399 -0.7292  0.6035 -0.4333
  774MOL0     C 6678   5.522   5.137   1.450  0.2531  1.3649 -0.7418
  774MOL0     C 6679   5.620   5.068   1.524  0.3356 -0.2008 -0.2667
  774MOL0     C 6680   5.733   5.129   1.571 -0.3049 -0.2900 -0.5899
  774MOL0     C 6681   5.756   5.269   1.553 -0.1691  0.9034  0.0124
  774MOL0     O 6682   5.874   5.318   1.609 -0.0840 -0.1713 -0.1121
  774MOL0     C 6683   5.889   5.460   1.624  0.3403 -0.1158 -0.8982
  774MOL0     C 6684   6.040   5.497   1.647 -0.1743  0.2711  0.3061
  774MOL0     C 6685   6.071   5.566   1.788 -0.4610 -1.1205 -0.0797
  774MOL0     C 6686   6.218   5.584   1.803 -0.5533  0.4723 -0.6070
  774MOL0     C 6687   6.267   5.648   1.935  0.3507  0.4810  0.0930
  774MOL0     C 6688   6.419   5.672   1.952 -0.0802  0.5179 -0.3891
  774MOL0     C 6689   6.493   5.550   2.011  0.2365 -0.6250 -0.6290
  774MOL0     C 6690   6.645   5.555   2.011  0.2550 -1.2176  0.4964
  774MOL0     N 6691   6.701   5.585   1.872 -0.2742  0.4337 -0.2063
  774MOL0     C 6692   6.710   5.499   1.769  0.2442 -0.5901  1.0759
  774MOL0     C 6693   6.765   5.586   1.675  0.4233  1.2844 -0.1443
  774MOL0     C 6694   6.794   5.529   1.543  0.3599  1.0165 -0.3813
  774MOL0     C 6695   6.887   5.616   1.467  0.6433 -0.8900  0.9157
  774MOL0     C 6696   6.952   5.571   1.338  0.6109 -0.4915 -0.0796
  774MOL0     C 6697   7.074   5.480   1.372  0.3287 -0.5287 -0.4526
  774MOL0     O 6698   7.134   5.435   1.252  0.0849 -1.1435 -0.0566
  774MOL0     C 6699   7.121   5.306   1.219  0.5509  0.3877  0.4036
  774MOL0     C 6700   6.993   5.252   1.204 -0.7113  0.6458 -0.4606
  774MOL0     C 6701   6.975   5.127   1.141 -0.0394 -0.2519  0.9007
  774MOL0     C 6702   6.836   5.073   1.110 -0.3295 -0.1571 -0.2612
  774MOL0     C 6703   7.093   5.046   1.105  0.4416 -0.0152 -0.1610
  774MOL0     C 6704   7.088   4.913   1.064 -0.1678 -0.3064  0.9102
  774MOL0     O 6705   7.187   4.878   0.976  0.1760  0.2959  0.0880
  774MOL0     C 6706   7.206   4.749   0.936 -0.7222 -0.5409  0.1616
  774MOL0     C 6707   7.110   4.668   0.884 -0.7837  0.6841  0.3377
  774MOL0     C 6708   7.141   4.531   0.851  0.5586 -0.0436 -0.1850
  774MOL0     C 6709   7.269   4.488   0.866 -0.0376  0.6032 -1.1184
  774MOL0     O 6710   7.308   4.358   0.874 -0.0036  0.1180  0.1920
  774MOL0     C 6711   7.215   4.257   0.914  0.3789  0.6884  0.3777
  774MOL0     C 6712   7.192   4.281   1.060 -0.2951  0.9426  0.3690
  774MOL0     C 6713   7.320   4.284   1.154 -0.0465  0.1667  0.3444
  774MOL0     C 6714   7.286   4.280   1.302 -0.5840  0.1457 -0.2132
  774MOL0     C 6715   7.422   4.259   1.362  0.1300  0.7520 -0.7670
  774MOL0     C 6716   7.407   4.260   1.517  0.0231  0.1006 -1.0410
  774MOL0     C 6717   7.390   4.117   1.574  0.3550 -0.1303  0.8705
  774MOL0     C 6718   7.392   4.124   1.730 -0.3780 -0.0606 -0.9047
  774MOL0    Cl 6719   7.251   4.216   1.790 -0.0978 -0.7658 -0.2868
  774MOL0     C 6720   7.372   4.576   0.885  0.1361 -0.1092 -0.2115
  774MOL0     C 6721   7.337   4.704   0.927 -0.4436  0.7716 -0.2013
  774MOL0     O 6722   7.005   4.838   1.108  0.1006 -0.2038  0.1303
  774MOL0     C 6723   7.216   5.115   1.117 -0.4032  0.2521  0.5189
  774MOL0     C 6724   7.231   5.240   1.175 -0.2005  0.8160 -0.4711
  774MOL0     N 6725   6.794   5.707   1.725  0.4262 -0.4206  0.4666
  774MOL0     N 6726   6.757   5.708   1.845 -0.1235 -0.2753 -0.9401
  774MOL0     C 6727   5.667   5.343   1.478  0.1861  0.0817  0.2911
  774MOL0     C 6728   5.546   5.272   1.433 -1.0321  0.4966  0.0976
  774MOL0     C 6729   5.189   5.001   1.334 -0.0798  0.0440 -0.3264
  774MOL0     C 6730   5.241   4.931   1.222 -0.4624  0.2684 -0.0141
  774MOL0     C 6731   5.151   4.861   1.130 -1.4333  0.0720 -0.9936
  774MOL0     C 6732   5.016   4.841   1.151 -1.1912  0.5667 -0.7671
  774MOL0     O 6733   4.928   4.775   1.075  0.1682 -1.0741 -0.4454
  774MOL0     C 6734   4.976   4.710   0.956  0.8215 -0.0349  0.6189
  774MOL0     C 6735   4.875   4.605   0.903  0.2461 -0.7849  0.4491
  774MOL0     C 6736   4.921   4.551   0.768 -0.1746  1.0252 -0.3155
  774MOL0     C 6737   4.802   4.477   0.709  0.3778 -0.5613  0.5090
  774MOL0     C 6738   4.854   4.366   0.623 -0.0898 -1.4064 -0.9109
  774MOL0     C 6739   4.902   4.298   0.545 -0.1372  0.5019  0.3682
  774MOL0     C 6740   4.966   4.908   1.270  0.0169 -0.9188  0.0328
  774MOL0     C 6741   5.053   4.966   1.368 -0.2719  0.0540 -0.1397
  774MOL0     C 6742   4.997   5.015   1.504  0.0147 -0.3238 -0.0129
  774MOL0     H 6743   5.609   4.960   1.529 -3.1718 -0.0086 -1.0725
  774MOL0     H 6744   5.810   5.063   1.609  1.5055  2.6341  1.1803
  774MOL0     H 6745   5.829   5.487   1.712  0.2075 -1.1324 -0.6642
  774MOL0     H 6746   5.867   5.521   1.536 -1.2993  1.3923  0.4750
  774MOL0     H 6747   6.098   5.407   1.624 -3.4217 -1.4249 -1.8924
  774MOL0     H 6748   6.051   5.567   1.563 -3.2974  1.9171  1.1479
  774MOL0     H 6749   6.023   5.664   1.784  0.2453 -0.7947 -1.2932
  774MOL0     H 6750   6.033   5.505   1.870 -0.5946 -0.5920  0.2541
  774MOL0     H 6751   6.271   5.489   1.796 -0.0271  0.6811  0.4197
  774MOL0     H 6752   6.257   5.634   1.713  2.9185 -1.0098 -0.0825
  774MOL0     H 6753   6.230   5.589   2.019  1.4262  0.3864  0.5138
  774MOL0     H 6754   6.222   5.747   1.950 -0.4105  0.2501 -0.6006
  774MOL0     H 6755   6.460   5.694   1.853 -0.8345 -3.0373 -1.6295
  774MOL0     H 6756   6.432   5.762   2.013 -0.4778  0.1657  0.2266
  774MOL0     H 6757   6.466   5.464   1.948 -0.5075 -0.2482 -0.8393
  774MOL0     H 6758   6.468   5.521   2.113  0.1818 -0.0719 -0.4833
  774MOL0     H 6759   6.668   5.635   2.081 -3.4794  0.8047 -0.3016
  774MOL0     H 6760   6.681   5.457   2.045  3.4744 -0.2705  0.1260
  774MOL0     H 6761   6.690   5.393   1.756 -1.7835  0.0306 -1.8677
  774MOL0     H 6762   6.693   5.529   1.500 -0.3069  0.2634  1.1076
  774MOL0     H 6763   6.827   5.425   1.551  2.1649  1.6428  0.8034
  774MOL0     H 6764   6.827   5.708   1.456  0.7226 -0.9251  0.1113
  774MOL0     H 6765   6.972   5.645   1.529  2.3548  0.1760 -1.7650
  774MOL0     H 6766   6.875   5.510   1.289 -0.7741  0.9066  0.2959
  774MOL0     H 6767   6.975   5.658   1.276  1.3858 -1.0208 -0.5664
  774MOL0     H 6768   7.128   5.551   1.435 -2.3536  1.6152 -0.3257
  774MOL0     H 6769   7.054   5.389   1.429 -2.3230  1.7913  2.7376
  774MOL0     H 6770   6.901   5.304   1.229 -3.6174 -3.6312 -1.1603
  774MOL0     H 6771   6.816   4.979   1.163  0.3956 -1.2914 -1.9188
  774MOL0     H 6772   6.845   5.045   1.005  3.3947 -3.3800  0.6579
  774MOL0     H 6773   6.757   5.148   1.116  1.1266  1.5174 -1.1814
  774MOL0     H 6774   7.005   4.695   0.891 -0.5298  1.3866  1.6567
  774MOL0     H 6775   7.054   4.468   0.837 -0.4874  1.5516 -1.3725
  774MOL0     H 6776   7.118   4.258   0.864  0.7420 -2.9028 -0.6691
  774MOL0     H 6777   7.243   4.153   0.896 -1.7298 -0.6226  3.6292
  774MOL0     H 6778   7.140   4.377   1.068  0.8633  1.4438  2.4526
  774MOL0     H 6779   7.114   4.214   1.098 -2.8090  2.7698 -1.2397
  774MOL0     H 6780   7.382   4.373   1.141  1.5852 -0.8704  0.7649
  774MOL0     H 6781   7.396   4.208   1.133  0.2505 -0.3323  2.8929
  774MOL0     H 6782   7.224   4.196   1.333 -3.0625  1.6548 -0.8041
  774MOL0     H 6783   7.244   4.375   1.336  1.9820  1.2463  0.1503
  774MOL0     H 6784   7.479   4.170   1.334  0.4241  0.0370  1.8307
  774MOL0     H 6785   7.496   4.339   1.349 -0.3575  1.3259 -0.0989
  774MOL0     H 6786   7.317   4.321   1.528  0.4431  0.6276 -0.4054
  774MOL0     H 6787   7.474   4.315   1.585 -0.7445 -0.7458  0.4421
  774MOL0     H 6788   7.477   4.063   1.535  0.7832  1.4539 -0.4691
  774MOL0     H 6789   7.299   4.063   1.542 -0.6091  2.3527 -0.9237
  774MOL0     H 6790   7.481   4.174   1.768  0.0470 -1.8014  0.5128
  774MOL0     H 6791   7.382   4.031   1.786 -1.3447  1.5666  1.8015
  774MOL0     H 6792   7.477   4.548   0.889 -0.1608 -1.6733 -1.8951
  774MOL0     H 6793   7.402   4.775   0.978 -3.4963  2.7109  1.2640
  774MOL0     H 6794   7.309   5.069   1.085 -0.5318 -0.6563  1.4186
  774MOL0     H 6795   7.325   5.295   1.184  0.0203  0.5415 -1.0399
  774MOL0     H 6796   5.675   5.447   1.447 -2.3813  1.2434  3.0236
  774MOL0     H 6797   5.480   5.321   1.362 -0.0730  2.9191  0.7800
  774MOL0     H 6798   5.345   4.938   1.193 -1.2723  2.2972 -2.8701
  774MOL0     H 6799   5.209   4.813   1.051  1.1739 -0.9306  1.3449
  774MOL0     H 6800   4.990   4.793   0.887 -0.6608  1.6943  2.2942
  774MOL0     H 6801   5.072   4.660   0.971  1.6778  0.8359 -1.4883
  774MOL0     H 6802   4.778   4.652   0.884  1.5364  0.4978 -4.0469
  774MOL0     H 6803   4.862   4.519   0.971 -0.5955 -0.8905  0.1744
  774MOL0     H 6804   4.965   4.628   0.704 -1.1384  3.0061  1.2926
  774MOL0     H 6805   5.000   4.476   0.783 -1.4885 -0.4337 -0.4206
  774MOL0     H 6806   4.750   4.553   0.650 -0.8470  1.2658  3.7060
  774MOL0     H 6807   4.732   4.447   0.788  0.5440  1.8417  1.6665
  774MOL0     H 6808   4.947   4.244   0.464 -0.9527 -1.2662  1.0438
  774MOL0     H 6809   4.861   4.909   1.299  0.2270 -2.8434  1.0330
  774MOL0     H 6810   4.893   4.986   1.519 -0.0275  0.2690  0.9534
  774MOL0     H 6811   5.061   4.998   1.591  1.0733  1.1440 -0.4474
  774MOL0     H 6812   4.997   5.125   1.496  0.3667 -0.1022  2.3972
  775MOL0     O 6813   7.970   7.564  10.282 -0.0807  0.0492  0.3341
  775MOL0     C 6814   7.921   7.582  10.386  0.6260  0.8050  0.2303
  775MOL0     O 6815   7.968   7.648  10.495  0.8495  0.9646  0.5812
  775MOL0     C 6816   8.094   7.694  10.521  0.6039 -0.0671 -0.2209
  775MOL0     C 6817   8.093   7.779  10.633 -0.3127 -0.2760  0.3609
  775MOL0     C 6818   8.214   7.833  10.685 -0.0963 -0.7465 -0.6050
  775MOL0     C 6819   8.332   7.813  10.615 -0.2813 -0.5013 -0.1593
  775MOL0     O 6820   8.457   7.861  10.660 -0.1614  0.4792  0.1586
  775MOL0     C 6821   8.452   7.964  10.753 -0.3696 -0.7186  0.3663
  775MOL0     C 6822   8.590   8.023  10.736 -0.6570  0.2829  0.2184
  775MOL0     C 6823   8.629   8.113  10.855  0.5999 -0.4922  0.6333
  775MOL0     C 6824   8.744   8.199  10.803 -0.0430 -0.7299  0.2777
  775MOL0     C 6825   8.840   8.258  10.910 -0.9956  0.0908  0.4307
  775MOL0     C 6826   8.919   8.375  10.842 -0.3405 -0.7021 -0.0576
  775MOL0     C 6827   9.032   8.315  10.759 -0.2852 -0.4075  0.4115
  775MOL0     C 6828   9.149   8.408  10.708  0.7319  0.3378 -0.9484
  775MOL0     N 6829   9.234   8.457  10.823 -0.4298 -0.1584  0.2035
  775MOL0     C 6830   9.196   8.558  10.913 -0.0451 -0.4554  0.4599
  775MOL0     C 6831   9.296   8.565  11.006  0.3968 -0.1332  0.5551
  775MOL0     C 6832   9.294   8.632  11.147 -0.8315  0.3406  0.2237
  775MOL0     C 6833   9.409   8.740  11.146  0.0914 -0.0355 -0.8944
  775MOL0     C 6834   9.414   8.830  11.268  0.2982 -0.7725  0.1686
  775MOL0     C 6835   9.286   8.931  11.274  0.0923 -0.0325  0.0241
  775MOL0     O 6836   9.316   9.043  11.363  0.0193  0.3540  0.4591
  775MOL0     C 6837   9.341   9.013  11.485 -0.4198  0.0162 -0.5608
  775MOL0     C 6838   9.246   8.935  11.559  0.4404 -0.2521  0.5829
  775MOL0     C 6839   9.265   8.889  11.691  0.5524 -0.3333 -0.4842
  775MOL0     C 6840   9.165   8.788  11.752 -0.6671  0.4095  0.0699
  775MOL0     C 6841   9.390   8.942  11.757 -0.3499 -0.1314  0.2168
  775MOL0     C 6842   9.421   8.909  11.901  0.4620 -0.3121 -0.3669
  775MOL0     O 6843   9.362   8.809  11.966 -0.0584  0.6159 -0.0922
  775MOL0     C 6844   9.360   8.826  12.103 -0.5855  0.1617 -0.1989
  775MOL0     C 6845   9.234   8.861  12.170 -1.1212 -0.8493 -0.5134
  775MOL0     C 6846   9.237   8.883  12.304  0.4883 -0.4864  0.0241
  775MOL0     C 6847   9.343   8.855  12.390  0.2672  0.1387  0.5210
  775MOL0     O 6848   9.344   8.881  12.527  0.2686 -0.4173  0.2564
  775MOL0     C 6849   9.252   8.977  12.571 -0.0326 -0.3199  0.4681
  775MOL0     C 6850   9.259   8.985  12.724 -0.0190  0.8579  0.0275
  775MOL0     C 6851   9.182   8.861  12.788  1.0866 -0.0993 -0.1006
  775MOL0     C 6852   9.181   8.862  12.943 -1.4510 -0.1691  0.4772
  775MOL0     C 6853   9.157   8.721  13.012 -0.4917 -0.1119 -0.0021
  775MOL0     C 6854   9.165   8.735  13.167  0.0657  0.1591  0.0211
  775MOL0     C 6855   9.176   8.592  13.221 -1.1689 -0.6751 -0.3149
  775MOL0     C 6856   9.215   8.613  13.371  0.2484  0.7375 -0.5380
  775MOL0    Cl 6857   9.269   8.453  13.448 -0.1329  0.5890 -0.5923
  775MOL0     C 6858   9.464   8.825  12.325  0.4113 -0.3025 -0.8426
  775MOL0     C 6859   9.479   8.808  12.184  0.2110  0.5985 -0.1868
  775MOL0     O 6860   9.501   8.991  11.953  0.2113 -1.3790  0.0740
  775MOL0     C 6861   9.476   9.032  11.686  0.7787  0.0526  0.4289
  775MOL0     C 6862   9.459   9.058  11.547 -0.2542 -0.4189  0.1778
  775MOL0     N 6863   9.394   8.477  10.978  0.2319 -0.6047 -0.3193
  775MOL0     N 6864   9.356   8.410  10.870  0.2887  0.5404 -0.7134
  775MOL0     C 6865   8.325   7.730  10.501 -0.4821 -0.7004 -0.3753
  775MOL0     C 6866   8.210   7.666  10.449 -0.1117 -0.8516 -0.4248
  775MOL0     C 6867   7.789   7.520  10.403 -0.0730  0.7364 -0.4514
  775MOL0     C 6868   7.676   7.608  10.426 -0.6179  0.7825  0.2520
  775MOL0     C 6869   7.552   7.551  10.445  0.2348  0.3067 -0.2104
  775MOL0     C 6870   7.536   7.406  10.450  0.0517  0.0046 -0.1301
  775MOL0     O 6871   7.424   7.348  10.480  0.0824  0.1941  1.0287
  775MOL0     C 6872   7.355   7.307  10.363  0.3419 -0.4511  0.4543
  775MOL0     C 6873   7.217   7.378  10.392 -0.0443  0.1322  0.3094
  775MOL0     C 6874   7.221   7.533  10.392 -0.8227  0.9965  0.7408
  775MOL0     C 6875   7.086   7.595  10.389 -0.0068 -0.0074 -0.6941
  775MOL0     C 6876   7.095   7.745  10.388 -0.0425 -0.5814  0.2170
  775MOL0     C 6877   7.090   7.865  10.375 -0.2539 -0.4936  0.7217
  775MOL0     C 6878   7.647   7.329  10.424 -0.6485  0.0669 -0.6501
  775MOL0     C 6879   7.775   7.378  10.411 -0.6006  0.0448 -0.6308
  775MOL0     C 6880   7.877   7.278  10.399 -0.2527 -0.2469 -0.0780
  775MOL0     H 6881   7.999   7.802  10.682  1.4465  3.7024  2.3343
  775MOL0     H 6882   8.204   7.894  10.774 -0.2243 -2.6400  0.7196
  775MOL0     H 6883   8.447   7.918  10.853 -1.0315  4.3007  2.9584
  775MOL0     H 6884   8.369   8.034  10.741 -3.3051 -3.7110  1.5288
  775MOL0     H 6885   8.663   7.941  10.729 -0.7235  0.2049  0.4450
  775MOL0     H 6886   8.592   8.079  10.642  0.2441 -0.3816 -0.1728
  775MOL0     H 6887   8.541   8.169  10.888 -1.0591 -2.3556 -0.4476
  775MOL0     H 6888   8.670   8.051  10.936  2.0567  1.6560  1.6400
  775MOL0     H 6889   8.803   8.130  10.742  0.0028  0.3603 -0.9631
  775MOL0     H 6890   8.711   8.285  10.744  2.2762  1.0492  1.4209
  775MOL0     H 6891   8.909   8.182  10.947  1.3068  1.5694 -0.6167
  775MOL0     H 6892   8.775   8.296  10.990  0.5063  1.3666  1.0934
  775MOL0     H 6893   8.862   8.442  10.777  3.6839  4.9390  1.4374
  775MOL0     H 6894   8.960   8.438  10.921 -2.5986  1.4788 -0.5117
  775MOL0     H 6895   8.991   8.268  10.669  0.9671  1.2401 -1.0669
  775MOL0     H 6896   9.081   8.241  10.823 -0.3410  0.3299  1.3251
  775MOL0     H 6897   9.201   8.344  10.637  1.1209 -2.0035  1.2944
  775MOL0     H 6898   9.099   8.495  10.664 -2.1432 -0.9190 -0.4265
  775MOL0     H 6899   9.104   8.614  10.903 -0.5264 -1.3927 -0.4257
  775MOL0     H 6900   9.310   8.558  11.227 -0.3172  0.3298  0.1177
  775MOL0     H 6901   9.200   8.684  11.162 -0.5987  1.0038 -0.5439
  775MOL0     H 6902   9.503   8.683  11.151 -1.0011 -1.8711  0.0136
  775MOL0     H 6903   9.417   8.803  11.058  1.0407  1.3718  0.1669
  775MOL0     H 6904   9.413   8.765  11.356  0.4170 -0.5141  0.3638
  775MOL0     H 6905   9.499   8.899  11.276 -1.0792  1.4137 -2.2179
  775MOL0     H 6906   9.280   8.989  11.182  4.1973  0.0742 -0.3826
  775MOL0     H 6907   9.191   8.878  11.289  0.7883 -2.0123 -2.0411
  775MOL0     H 6908   9.160   8.897  11.504  0.0692  0.1331  0.8962
  775MOL0     H 6909   9.114   8.833  11.837  1.2845  0.1654  1.4549
  775MOL0     H 6910   9.213   8.702  11.801 -1.7772 -0.8185 -0.9031
  775MOL0     H 6911   9.095   8.738  11.684 -0.1596  0.1430 -0.2624
  775MOL0     H 6912   9.138   8.879  12.124 -1.9101 -2.7142  0.3034
  775MOL0     H 6913   9.145   8.928  12.339 -1.9770 -2.4257 -3.2948
  775MOL0     H 6914   9.273   9.070  12.517 -1.9884  0.0594  0.2835
  775MOL0     H 6915   9.153   8.941  12.540  0.0523  0.8875 -1.3920
  775MOL0     H 6916   9.365   8.985  12.753  0.5527  0.9858 -1.8869
  775MOL0     H 6917   9.224   9.088  12.739  0.7510  0.7688  2.9593
  775MOL0     H 6918   9.215   8.762  12.756 -0.7800 -1.0044  0.6409
  775MOL0     H 6919   9.078   8.855  12.754  1.2329  0.7639 -0.7326
  775MOL0     H 6920   9.119   8.938  12.992 -0.2747  2.9002 -2.3961
  775MOL0     H 6921   9.284   8.890  12.967 -0.5557 -1.9789 -0.9936
  775MOL0     H 6922   9.064   8.667  12.993 -0.4207 -1.7116  3.5066
  775MOL0     H 6923   9.232   8.651  12.976  1.8313  1.5324  1.3794
  775MOL0     H 6924   9.076   8.791  13.199  0.9128  2.0958 -0.8863
  775MOL0     H 6925   9.253   8.789  13.202  0.0534 -0.3529  0.8707
  775MOL0     H 6926   9.261   8.543  13.172  0.9288  2.1684  0.1748
  775MOL0     H 6927   9.086   8.532  13.219  0.2441 -2.9477  0.7462
  775MOL0     H 6928   9.124   8.644  13.423 -0.8462 -1.2079 -1.2086
  775MOL0     H 6929   9.294   8.689  13.379  3.7060 -1.7773 -5.5222
  775MOL0     H 6930   9.548   8.824  12.393  1.3714  1.2401 -1.9603
  775MOL0     H 6931   9.577   8.794  12.141  1.3258  1.7766  1.8476
  775MOL0     H 6932   9.567   9.062  11.737  1.3646 -0.7529 -0.1419
  775MOL0     H 6933   9.531   9.119  11.493 -1.9520  1.6116  0.0939
  775MOL0     H 6934   8.425   7.716  10.461 -1.5153 -2.1448 -2.6759
  775MOL0     H 6935   8.200   7.597  10.365 -2.2974 -1.0377 -0.0846
  775MOL0     H 6936   7.674   7.717  10.429 -1.3505  0.7577  0.9564
  775MOL0     H 6937   7.469   7.615  10.473 -0.5998 -0.8875  0.1671
  775MOL0     H 6938   7.396   7.350  10.271 -0.0653  2.1419  1.4059
  775MOL0     H 6939   7.356   7.197  10.359  1.1447 -0.4390  0.0961
  775MOL0     H 6940   7.178   7.354  10.491  1.0772  1.3544  1.0891
  775MOL0     H 6941   7.163   7.345  10.303  0.9616  1.3224 -0.7876
  775MOL0     H 6942   7.256   7.560  10.492 -0.2996  2.9134  0.0885
  775MOL0     H 6943   7.287   7.556  10.308 -2.5950 -0.6436 -1.1956
  775MOL0     H 6944   7.042   7.572  10.486  0.9176  1.8125  0.2151
  775MOL0     H 6945   7.022   7.559  10.308 -0.3494 -0.5971 -0.1675
  775MOL0     H 6946   7.097   7.967  10.344  2.4454  0.6671  4.4402
  775MOL0     H 6947   7.613   7.227  10.417 -1.0958  0.3242 -3.1957
  775MOL0     H 6948   7.968   7.316  10.350 -0.2085 -0.4867 -0.1789
  775MOL0     H 6949   7.908   7.247  10.499  1.9021  0.5021 -0.4602
  775MOL0     H 6950   7.841   7.197  10.336 -1.4396 -0.1538  0.4533
  776MOL0     O 6951   6.737   1.612   1.037 -0.5259  0.1034 -0.0313
  776MOL0     C 6952   6.683   1.546   1.124  0.4366  0.2013  0.1740
  776MOL0     O 6953   6.744   1.483   1.229 -0.0910 -0.7690  0.3797
  776MOL0     C 6954   6.845   1.544   1.300  0.3537 -0.0048 -0.4563
  776MOL0     C 6955   6.854   1.687   1.324 -0.4455  0.3844  0.2784
  776MOL0     C 6956   6.955   1.749   1.400 -0.4932 -0.3798  0.7077
  776MOL0     C 6957   7.052   1.670   1.468 -0.0831  0.3832  0.1088
  776MOL0     O 6958   7.156   1.714   1.551 -0.2831  0.1525 -0.1704
  776MOL0     C 6959   7.199   1.851   1.528  1.2953 -0.3147 -1.0287
  776MOL0     C 6960   7.324   1.887   1.601 -0.0384  0.3490 -0.1816
  776MOL0     C 6961   7.359   2.044   1.588  0.8750 -1.2135 -0.0973
  776MOL0     C 6962   7.486   2.100   1.647  0.5734  0.5944 -0.1239
  776MOL0     C 6963   7.487   2.252   1.661 -0.6822 -0.5035 -0.4739
  776MOL0     C 6964   7.588   2.285   1.772  0.5816 -0.1988 -0.8193
  776MOL0     C 6965   7.603   2.432   1.794 -0.2152 -0.2357  0.5033
  776MOL0     C 6966   7.698   2.499   1.690  0.0391  0.1361 -0.0390
  776MOL0     N 6967   7.843   2.463   1.707  0.9450 -0.4174 -0.4597
  776MOL0     C 6968   7.917   2.444   1.818  0.1264  0.3853 -0.3234
  776MOL0     C 6969   8.042   2.402   1.789 -0.4492  0.2249  0.1871
  776MOL0     C 6970   8.147   2.369   1.891  0.7985  0.2499  0.1731
  776MOL0     C 6971   8.147   2.215   1.926  0.0359  0.4867 -0.3040
  776MOL0     C 6972   8.294   2.170   1.927 -0.2772  0.2000  0.3252
  776MOL0     C 6973   8.354   2.156   1.780  0.6370 -0.4378 -1.1273
  776MOL0     O 6974   8.458   2.055   1.778  0.3218 -0.2807  0.1276
  776MOL0     C 6975   8.434   1.919   1.772  0.7183  0.4560 -0.1733
  776MOL0     C 6976   8.536   1.831   1.809 -0.3171  0.1561  0.3593
  776MOL0     C 6977   8.521   1.691   1.816 -0.1657 -0.3715 -0.5004
  776MOL0     C 6978   8.653   1.618   1.850  0.2296 -0.5323 -0.6851
  776MOL0     C 6979   8.392   1.630   1.797 -0.6107 -0.2133  0.2756
  776MOL0     C 6980   8.375   1.487   1.810 -0.1074  0.6835  0.0427
  776MOL0     O 6981   8.244   1.448   1.788 -0.6671  0.0376  0.3271
  776MOL0     C 6982   8.196   1.337   1.849 -0.2316  1.5023  0.4811
  776MOL0     C 6983   8.216   1.312   1.985  0.5410  0.9240  0.1459
  776MOL0     C 6984   8.173   1.193   2.047 -0.5058  0.1306 -0.0735
  776MOL0     C 6985   8.090   1.108   1.971 -0.1442  0.3264  0.0895
  776MOL0     O 6986   8.047   0.998   2.033  0.8221 -0.3045 -0.0664
  776MOL0     C 6987   7.913   0.955   2.007 -0.2497  0.0930  0.1926
  776MOL0     C 6988   7.883   0.827   2.086 -0.9071 -0.4129  0.1206
  776MOL0     C 6989   7.749   0.830   2.164 -0.1878 -0.3868 -0.1940
  776MOL0     C 6990   7.626   0.841   2.069  0.2022  0.4811  0.2242
  776MOL0     C 6991   7.587   0.705   2.015 -0.3303 -0.7365  0.0640
  776MOL0     C 6992   7.490   0.624   2.101 -0.3885 -0.5936 -0.7476
  776MOL0     C 6993   7.459   0.497   2.034  0.2780  0.5448 -0.5552
  776MOL0     C 6994   7.362   0.417   2.116 -0.0185 -0.3388 -0.1037
  776MOL0    Cl 6995   7.364   0.250   2.057  0.4377 -0.0923 -0.1352
  776MOL0     C 6996   8.076   1.123   1.837  0.0169 -0.6828  0.6405
  776MOL0     C 6997   8.138   1.231   1.775  0.5673  0.3167 -0.6233
  776MOL0     O 6998   8.472   1.412   1.831  0.0067  0.1217  0.6524
  776MOL0     C 6999   8.287   1.722   1.760  0.0704  0.0761  0.5220
  776MOL0     C 7000   8.306   1.862   1.749  0.3486  0.1436 -0.0978
  776MOL0     N 7001   8.044   2.403   1.647 -0.2616 -0.1055  0.3278
  776MOL0     N 7002   7.928   2.450   1.600 -0.9073 -0.5201  0.4148
  776MOL0     C 7003   7.038   1.533   1.453  0.6764 -0.5653 -0.6022
  776MOL0     C 7004   6.935   1.469   1.376 -0.9231  0.5435  0.6131
  776MOL0     C 7005   6.542   1.517   1.099  0.1696  0.5761 -0.6694
  776MOL0     C 7006   6.513   1.449   0.988  0.2774 -1.0156 -0.5392
  776MOL0     C 7007   6.384   1.419   0.949 -0.1462 -0.8002 -0.3331
  776MOL0     C 7008   6.275   1.461   1.021 -0.6473  0.2645 -0.4689
  776MOL0     O 7009   6.146   1.451   0.961 -0.0788  0.4929  0.3295
  776MOL0     C 7010   6.029   1.468   1.046 -0.0472 -0.5126  0.5258
  776MOL0     C 7011   5.939   1.579   0.997  0.4525 -0.1496  0.3231
  776MOL0     C 7012   5.952   1.706   1.079 -0.4131 -0.8082 -0.9243
  776MOL0     C 7013   5.865   1.820   1.032  0.4769  0.4280 -0.2332
  776MOL0     C 7014   5.885   1.850   0.893 -0.6931  0.7070  0.0846
  776MOL0     C 7015   5.889   1.868   0.776  0.4990  0.2467  0.4212
  776MOL0     C 7016   6.307   1.533   1.140 -0.8274  0.2299  0.3192
  776MOL0     C 7017   6.439   1.559   1.182 -0.7477 -0.2199  0.9162
  776MOL0     C 7018   6.459   1.641   1.297 -0.6845  0.0070  0.5988
  776MOL0     H 7019   6.781   1.756   1.284  0.7824  1.2880 -0.4804
  776MOL0     H 7020   6.951   1.858   1.404 -0.5147 -0.3861  0.8569
  776MOL0     H 7021   7.118   1.908   1.574  1.1636 -1.1781 -0.1530
  776MOL0     H 7022   7.206   1.857   1.419  0.1497 -1.1757 -1.1723
  776MOL0     H 7023   7.296   1.858   1.703  0.4395  1.3887  0.2711
  776MOL0     H 7024   7.404   1.816   1.578  0.0616  0.5369 -0.4141
  776MOL0     H 7025   7.354   2.075   1.483 -2.8786 -2.3686 -0.4287
  776MOL0     H 7026   7.278   2.091   1.645  1.8359 -1.2084  1.3073
  776MOL0     H 7027   7.497   2.053   1.745 -2.8478 -1.4400 -0.5738
  776MOL0     H 7028   7.574   2.080   1.585  0.7252  2.4761 -0.5914
  776MOL0     H 7029   7.389   2.287   1.695 -0.6658  0.2556 -1.1846
  776MOL0     H 7030   7.520   2.294   1.566  0.9976  2.7704  1.3847
  776MOL0     H 7031   7.557   2.254   1.872  2.6546  3.0721  0.9842
  776MOL0     H 7032   7.677   2.232   1.737 -1.0893 -2.6782 -1.6618
  776MOL0     H 7033   7.639   2.458   1.894 -0.0536  1.2912  0.0662
  776MOL0     H 7034   7.504   2.474   1.775  0.8752  1.4343 -2.0769
  776MOL0     H 7035   7.670   2.467   1.589  1.4822  3.2314 -1.5710
  776MOL0     H 7036   7.671   2.605   1.691 -1.1383 -0.1549 -0.3237
  776MOL0     H 7037   7.888   2.454   1.922  2.6376 -3.1484  0.9164
  776MOL0     H 7038   8.132   2.433   1.979  0.0886  2.0329 -1.1749
  776MOL0     H 7039   8.245   2.384   1.845  1.8691 -1.1092  1.8980
  776MOL0     H 7040   8.107   2.209   2.028  0.5495  0.7485 -0.0855
  776MOL0     H 7041   8.079   2.157   1.864 -2.2128 -0.1039  2.5181
  776MOL0     H 7042   8.365   2.230   1.985 -0.8646  0.2854  0.9733
  776MOL0     H 7043   8.295   2.077   1.984 -0.0765  1.1031  1.8537
  776MOL0     H 7044   8.277   2.115   1.713  2.4453 -3.0377 -1.7381
  776MOL0     H 7045   8.394   2.247   1.737  1.6084 -0.0538  0.4872
  776MOL0     H 7046   8.628   1.885   1.825 -1.0426  2.0930 -1.5636
  776MOL0     H 7047   8.648   1.557   1.941  2.1822 -0.9080 -0.7929
  776MOL0     H 7048   8.740   1.683   1.862 -1.2582  1.2515  1.2079
  776MOL0     H 7049   8.670   1.550   1.766  1.8213 -2.5462  1.1579
  776MOL0     H 7050   8.270   1.385   2.043 -1.0699  1.5403  0.9123
  776MOL0     H 7051   8.196   1.161   2.149  0.5376 -2.0410 -0.9107
  776MOL0     H 7052   7.847   1.030   2.052 -1.1733 -1.3351  1.3317
  776MOL0     H 7053   7.887   0.948   1.901 -0.7242  2.3599  0.1089
  776MOL0     H 7054   7.858   0.748   2.015 -3.0812  1.4071 -1.2629
  776MOL0     H 7055   7.970   0.798   2.146  0.7404 -2.2573 -2.9098
  776MOL0     H 7056   7.747   0.918   2.229 -1.8905 -0.5623  0.0262
  776MOL0     H 7057   7.747   0.743   2.230 -1.1409 -1.2443 -1.3095
  776MOL0     H 7058   7.646   0.905   1.983 -1.1256  0.1173 -0.3865
  776MOL0     H 7059   7.544   0.884   2.128 -0.3521  0.9677 -0.8769
  776MOL0     H 7060   7.528   0.735   1.928 -0.2632  1.6245  0.7427
  776MOL0     H 7061   7.680   0.652   1.995  0.0329  0.9389 -3.3746
  776MOL0     H 7062   7.404   0.687   2.126  1.3679  2.0072 -0.8994
  776MOL0     H 7063   7.541   0.610   2.197 -0.7657 -2.1613 -0.7602
  776MOL0     H 7064   7.552   0.438   2.030  0.4728  0.6789  1.2130
  776MOL0     H 7065   7.431   0.517   1.930 -3.4042  2.5071  0.6522
  776MOL0     H 7066   7.260   0.453   2.095  0.4127  1.1804  0.2700
  776MOL0     H 7067   7.384   0.417   2.223 -1.1208  3.6814  0.3115
  776MOL0     H 7068   8.023   1.046   1.781  0.9022 -1.1221  0.3895
  776MOL0     H 7069   8.125   1.252   1.669 -2.1939 -1.4312 -0.7245
  776MOL0     H 7070   8.191   1.679   1.736  0.1053 -0.3273  1.0847
  776MOL0     H 7071   8.215   1.918   1.733  0.7074  1.4334  1.9798
  776MOL0     H 7072   7.121   1.473   1.489  2.4083  0.4885 -2.5818
  776MOL0     H 7073   6.943   1.361   1.380 -1.8011  0.3876 -0.8957
  776MOL0     H 7074   6.597   1.429   0.922  0.5439 -3.1102  0.3554
  776MOL0     H 7075   6.371   1.365   0.855  3.5055 -1.1910 -0.7779
  776MOL0     H 7076   5.978   1.371   1.050 -2.7201  0.8219  2.1971
  776MOL0     H 7077   6.057   1.485   1.151  0.3962 -2.1879  0.7137
  776MOL0     H 7078   5.837   1.545   1.018  0.4647  0.6613  1.8673
  776MOL0     H 7079   5.961   1.600   0.892 -2.3321  0.6010 -0.1902
  776MOL0     H 7080   5.924   1.685   1.183 -1.8136  1.3373 -0.8035
  776MOL0     H 7081   6.052   1.751   1.082 -1.5331  1.8945 -1.5760
  776MOL0     H 7082   5.880   1.903   1.102  3.0605 -0.9580  0.9940
  776MOL0     H 7083   5.760   1.788   1.038  0.2121  1.0772 -1.2245
  776MOL0     H 7084   5.895   1.879   0.669 -0.2825  1.8212  0.5076
  776MOL0     H 7085   6.234   1.579   1.206 -1.2500  0.8135 -0.5395
  776MOL0     H 7086   6.531   1.589   1.361  2.5038  0.6343 -2.1420
  776MOL0     H 7087   6.509   1.736   1.274 -2.3553  0.4965 -1.2270
  776MOL0     H 7088   6.363   1.656   1.347 -0.8887 -0.4660  0.3566
  777MOL0     O 7089   3.953   8.322   5.430  0.3288 -0.0467  0.2748
  777MOL0     C 7090   3.929   8.385   5.331 -1.1643  0.3963  0.3721
  777MOL0     O 7091   4.025   8.424   5.234  0.0971  0.3499 -0.4931
  777MOL0     C 7092   4.158   8.411   5.264  0.6203  0.0575 -0.4730
  777MOL0     C 7093   4.220   8.286   5.300 -0.0006  0.7289  0.8696
  777MOL0     C 7094   4.342   8.282   5.357 -0.4163  0.1177  0.0419
  777MOL0     C 7095   4.411   8.397   5.394  0.1640  1.0860  0.1064
  777MOL0     O 7096   4.537   8.372   5.457  0.1187  0.1898 -0.2296
  777MOL0     C 7097   4.604   8.488   5.492 -0.9237 -0.2410 -0.4708
  777MOL0     C 7098   4.739   8.435   5.547 -0.8404 -0.3045 -0.8966
  777MOL0     C 7099   4.826   8.517   5.647 -0.0466  0.2177 -0.5611
  777MOL0     C 7100   4.959   8.442   5.669  0.0790 -1.1115  0.0207
  777MOL0     C 7101   5.053   8.508   5.777  0.3373 -0.1596  0.4910
  777MOL0     C 7102   5.150   8.408   5.840  0.6784  0.7081 -0.8079
  777MOL0     C 7103   5.244   8.353   5.744  0.5399 -0.2573  0.1485
  777MOL0     C 7104   5.350   8.462   5.698 -0.2409 -0.8172 -0.1152
  777MOL0     N 7105   5.453   8.394   5.615  0.0268 -0.1189  0.3802
  777MOL0     C 7106   5.573   8.348   5.661 -0.1881  0.8732 -0.2250
  777MOL0     C 7107   5.639   8.280   5.559 -0.2642 -0.5489  0.1682
  777MOL0     C 7108   5.763   8.193   5.572 -1.0680  0.3693 -0.6644
  777MOL0     C 7109   5.797   8.092   5.472  0.1804  0.0641  0.4029
  777MOL0     C 7110   5.788   8.122   5.320 -0.3039  0.3184 -0.2306
  777MOL0     C 7111   5.890   8.227   5.279 -0.5558  0.7177  0.8467
  777MOL0     O 7112   6.007   8.229   5.358 -0.1298  0.0872 -0.3249
  777MOL0     C 7113   6.132   8.227   5.297  0.3066 -0.3947  0.1550
  777MOL0     C 7114   6.176   8.306   5.189  0.8081 -0.7751  0.0306
  777MOL0     C 7115   6.298   8.278   5.128 -0.0877  0.7940  0.2953
  777MOL0     C 7116   6.316   8.327   4.995 -0.6085  1.3104  0.2471
  777MOL0     C 7117   6.387   8.186   5.198  0.6560 -0.2898 -0.1689
  777MOL0     C 7118   6.518   8.165   5.162  0.0512  0.5317 -0.1084
  777MOL0     O 7119   6.591   8.279   5.157  0.3326  0.8785 -0.6202
  777MOL0     C 7120   6.727   8.255   5.126  0.6249  0.0016 -0.0951
  777MOL0     C 7121   6.764   8.208   5.001 -1.3123  0.0800 -0.5159
  777MOL0     C 7122   6.900   8.211   4.965 -0.5485  0.7242 -0.3661
  777MOL0     C 7123   7.003   8.228   5.062 -0.3616 -0.7678 -0.6081
  777MOL0     O 7124   7.131   8.214   5.022 -0.0256  0.6917  0.0428
  777MOL0     C 7125   7.226   8.174   5.117  0.2349  0.0707  0.3261
  777MOL0     C 7126   7.209   8.026   5.158  0.2594  0.3204 -0.6337
  777MOL0     C 7127   7.226   7.921   5.050  0.0090  1.1085  0.2855
  777MOL0     C 7128   7.130   7.914   4.935  0.2448  0.2036  0.0514
  777MOL0     C 7129   7.163   7.789   4.852 -0.6871  0.0669  0.4220
  777MOL0     C 7130   7.110   7.796   4.704 -0.3802  0.5427  0.7585
  777MOL0     C 7131   7.142   7.665   4.637  0.7019 -0.2748  0.0235
  777MOL0     C 7132   7.051   7.643   4.523  0.1152  0.4693 -0.1105
  777MOL0    Cl 7133   6.881   7.617   4.578  0.1856 -0.0639 -0.6197
  777MOL0     C 7134   6.960   8.258   5.197  0.1998 -0.7718 -0.0616
  777MOL0     C 7135   6.825   8.277   5.224 -0.8276 -0.3343 -0.5585
  777MOL0     O 7136   6.555   8.051   5.142 -0.1599 -0.6488  0.5403
  777MOL0     C 7137   6.344   8.121   5.310 -0.0356 -1.5751 -0.0515
  777MOL0     C 7138   6.211   8.133   5.354 -0.4839  0.0798  0.3448
  777MOL0     N 7139   5.557   8.307   5.440  0.3352 -0.1960  0.4381
  777MOL0     N 7140   5.440   8.354   5.486 -1.4457  0.9421 -0.0383
  777MOL0     C 7141   4.363   8.518   5.346  1.2988  0.6284 -0.5024
  777MOL0     C 7142   4.236   8.526   5.281 -0.0273 -0.0923 -0.6849
  777MOL0     C 7143   3.788   8.424   5.304 -0.5646 -0.0862 -0.2855
  777MOL0     C 7144   3.777   8.555   5.250  0.1397  0.1850 -0.3023
  777MOL0     C 7145   3.656   8.603   5.209  0.3337 -0.7276  0.4879
  777MOL0     C 7146   3.538   8.530   5.238 -0.3645 -0.4474  0.0941
  777MOL0     O 7147   3.418   8.590   5.219 -1.1331 -0.3853  0.1057
  777MOL0     C 7148   3.342   8.617   5.336 -0.1987  0.6254 -0.4381
  777MOL0     C 7149   3.307   8.764   5.360 -0.8493 -0.2898  0.0140
  777MOL0     C 7150   3.227   8.820   5.243  0.0082  0.5421  0.2460
  777MOL0     C 7151   3.080   8.765   5.253 -0.6215 -0.2717  0.2871
  777MOL0     C 7152   3.003   8.812   5.134 -0.2152  0.3224  0.3078
  777MOL0     C 7153   2.952   8.859   5.035 -1.0731 -0.5652  0.5143
  777MOL0     C 7154   3.546   8.401   5.288 -0.4358 -0.4681  0.4088
  777MOL0     C 7155   3.670   8.343   5.319  0.3794 -0.1412  1.0680
  777MOL0     C 7156   3.662   8.213   5.387 -0.1049  1.0022 -0.3932
  777MOL0     H 7157   4.157   8.203   5.271 -1.6474  2.5697 -1.1406
  777MOL0     H 7158   4.375   8.181   5.379 -0.2008  0.0697 -0.4885
  777MOL0     H 7159   4.557   8.534   5.580 -1.7728 -0.1560 -0.9625
  777MOL0     H 7160   4.610   8.567   5.417 -0.7122 -0.0384 -0.2455
  777MOL0     H 7161   4.722   8.341   5.602 -0.3113  0.8471  1.3591
  777MOL0     H 7162   4.794   8.404   5.458 -2.6028 -2.7467 -1.2260
  777MOL0     H 7163   4.837   8.611   5.592  0.7294 -0.3411 -1.3954
  777MOL0     H 7164   4.770   8.526   5.740  0.1373 -1.3343 -0.2773
  777MOL0     H 7165   4.915   8.351   5.710 -2.1653 -0.2694 -0.3752
  777MOL0     H 7166   5.017   8.414   5.580  0.7014 -0.2276  0.1312
  777MOL0     H 7167   4.990   8.544   5.859  1.5908 -1.8836  2.3026
  777MOL0     H 7168   5.108   8.590   5.728 -0.2884 -1.0057 -1.7155
  777MOL0     H 7169   5.212   8.449   5.920  0.1235  0.8574 -0.4487
  777MOL0     H 7170   5.092   8.323   5.876 -0.7897  1.9786 -0.0840
  777MOL0     H 7171   5.191   8.316   5.655 -3.0517 -0.0536  2.0201
  777MOL0     H 7172   5.297   8.269   5.789 -0.9700 -0.7260  1.1094
  777MOL0     H 7173   5.291   8.539   5.647  2.2766  2.6879  1.9088
  777MOL0     H 7174   5.395   8.507   5.787 -0.5260  0.1745 -0.4672
  777MOL0     H 7175   5.602   8.351   5.766  3.1496  0.8776 -1.0232
  777MOL0     H 7176   5.748   8.130   5.660 -1.8545  0.4770 -0.7164
  777MOL0     H 7177   5.849   8.259   5.590 -0.3383 -0.7411 -0.0019
  777MOL0     H 7178   5.890   8.039   5.493 -0.1598 -1.0192 -0.6577
  777MOL0     H 7179   5.723   8.014   5.494  1.1895 -0.9835  0.1877
  777MOL0     H 7180   5.814   8.032   5.263 -0.4078 -0.6815  1.2348
  777MOL0     H 7181   5.690   8.160   5.292 -1.7609 -1.3226  2.3072
  777MOL0     H 7182   5.923   8.214   5.175  0.9074  2.9072  0.9641
  777MOL0     H 7183   5.855   8.331   5.278 -1.1922  0.5386  2.3784
  777MOL0     H 7184   6.104   8.371   5.140 -0.5951 -1.0744  1.6108
  777MOL0     H 7185   6.377   8.417   5.006  0.5793  1.6114 -5.4693
  777MOL0     H 7186   6.215   8.356   4.963 -0.7539  1.5975  0.9434
  777MOL0     H 7187   6.367   8.266   4.920 -2.5790  0.7910 -0.7683
  777MOL0     H 7188   6.681   8.183   4.936  0.1016 -0.8949 -2.0472
  777MOL0     H 7189   6.914   8.184   4.861 -2.8788 -0.0537 -0.5432
  777MOL0     H 7190   7.317   8.171   5.055  0.7588 -3.0228  1.0806
  777MOL0     H 7191   7.237   8.237   5.206  2.4595 -2.6758  2.1592
  777MOL0     H 7192   7.284   7.997   5.232  0.2222 -1.9074 -1.3985
  777MOL0     H 7193   7.111   8.011   5.204 -0.5955  2.1253 -1.7219
  777MOL0     H 7194   7.237   7.823   5.097  2.1005  2.3982  2.7265
  777MOL0     H 7195   7.323   7.944   5.005 -0.4738  0.4984 -1.1160
  777MOL0     H 7196   7.143   7.999   4.868  1.2578  1.1120  1.3610
  777MOL0     H 7197   7.028   7.901   4.972  0.6869 -4.2016  0.2754
  777MOL0     H 7198   7.272   7.785   4.851 -0.5644 -1.1497 -4.0925
  777MOL0     H 7199   7.133   7.696   4.900  3.1142 -0.7202  1.6242
  777MOL0     H 7200   7.145   7.877   4.638  0.7714  2.0031  3.0470
  777MOL0     H 7201   7.002   7.804   4.696 -0.2747  0.4022 -1.8567
  777MOL0     H 7202   7.123   7.582   4.705  0.9558  0.6134  1.2026
  777MOL0     H 7203   7.243   7.662   4.595  0.2023  0.4006 -1.3179
  777MOL0     H 7204   7.080   7.560   4.457  0.7630  2.5138 -2.5756
  777MOL0     H 7205   7.049   7.733   4.461 -0.1828  2.3136  2.4127
  777MOL0     H 7206   7.036   8.265   5.275 -0.5604 -2.3083  0.8471
  777MOL0     H 7207   6.807   8.299   5.329 -0.4906 -2.4655 -0.0074
  777MOL0     H 7208   6.412   8.049   5.354 -0.5231 -1.0581  1.6210
  777MOL0     H 7209   6.171   8.066   5.429  3.1514 -0.6110  1.8534
  777MOL0     H 7210   4.416   8.611   5.364  1.2461  1.1765 -2.7820
  777MOL0     H 7211   4.202   8.624   5.249 -1.8255 -0.8113 -1.0520
  777MOL0     H 7212   3.859   8.625   5.243  0.1569  0.0672 -1.3548
  777MOL0     H 7213   3.638   8.702   5.169 -2.4884 -0.8749  1.1804
  777MOL0     H 7214   3.244   8.569   5.322 -0.8152  2.0809 -1.3901
  777MOL0     H 7215   3.387   8.580   5.428 -1.1313  1.8830  0.5643
  777MOL0     H 7216   3.396   8.827   5.374 -0.6974  0.5352 -3.7622
  777MOL0     H 7217   3.248   8.788   5.449  2.6358  0.3719  2.3792
  777MOL0     H 7218   3.231   8.929   5.227  1.3434  0.3210 -1.2061
  777MOL0     H 7219   3.284   8.794   5.153  0.0425  2.7020 -0.4197
  777MOL0     H 7220   3.028   8.802   5.341 -1.9578  2.0586 -1.3772
  777MOL0     H 7221   3.068   8.657   5.261  2.9508 -0.7957  0.3405
  777MOL0     H 7222   2.911   8.892   4.942  0.0204 -2.9486 -0.8982
  777MOL0     H 7223   3.449   8.354   5.305 -0.5410  0.6417  3.3316
  777MOL0     H 7224   3.761   8.170   5.399 -1.1863 -1.3593  0.7584
  777MOL0     H 7225   3.623   8.219   5.490 -0.8598  1.2977 -0.6849
  777MOL0     H 7226   3.606   8.140   5.328 -0.3851 -0.6670  1.7957
  778MOL0     O 7227   6.357   5.744  11.307  0.1760  0.2594 -0.1937
  778MOL0     C 7228   6.265   5.788  11.236  1.2290  0.2151 -0.1608
  778MOL0     O 7229   6.268   5.851  11.122  0.0189  0.6814  0.5204
  778MOL0     C 7230   6.386   5.889  11.067  0.6403  0.1750 -0.1439
  778MOL0     C 7231   6.489   5.935  11.146  0.5832 -0.1795 -0.3891
  778MOL0     C 7232   6.604   5.984  11.090 -0.4761  0.9383 -0.9887
  778MOL0     C 7233   6.613   6.003  10.951 -0.0119  0.0357 -0.3906
  778MOL0     O 7234   6.731   6.050  10.896  0.5987  1.1312 -0.0716
  778MOL0     C 7235   6.716   6.120  10.774 -0.6774  0.1276  0.2570
  778MOL0     C 7236   6.834   6.219  10.772 -0.1568  0.0892  0.0344
  778MOL0     C 7237   6.983   6.169  10.768  0.4176 -0.5312 -0.1896
  778MOL0     C 7238   7.020   6.101  10.635  0.3489  0.1873  0.9872
  778MOL0     C 7239   7.160   6.141  10.592  0.0179 -0.7236 -0.0186
  778MOL0     C 7240   7.225   6.041  10.493  0.7047 -0.6841  0.5522
  778MOL0     C 7241   7.343   6.099  10.422 -1.1105  0.3459 -0.2708
  778MOL0     C 7242   7.465   6.092  10.519  0.5992  0.1573  0.6718
  778MOL0     N 7243   7.494   6.232  10.561 -0.0214  0.5925  0.1182
  778MOL0     C 7244   7.590   6.305  10.488  0.0487 -0.1217 -0.6441
  778MOL0     C 7245   7.648   6.385  10.573 -0.7312  0.5494  0.0121
  778MOL0     C 7246   7.737   6.493  10.534  0.2905 -0.5004  0.7482
  778MOL0     C 7247   7.840   6.503  10.637 -0.3965 -0.4395 -0.5178
  778MOL0     C 7248   7.922   6.631  10.633  0.2819  0.6342  0.5659
  778MOL0     C 7249   7.831   6.759  10.669  0.5324  0.0536 -0.4260
  778MOL0     O 7250   7.916   6.864  10.691  0.4541 -0.9546 -0.3378
  778MOL0     C 7251   7.976   6.920  10.583  0.0804  0.0975 -0.6664
  778MOL0     C 7252   7.937   6.906  10.454 -0.3529  0.2343  0.6572
  778MOL0     C 7253   8.015   6.972  10.347 -0.7638  0.3560  0.2157
  778MOL0     C 7254   7.961   6.951  10.209 -0.0251 -0.1990  1.1077
  778MOL0     C 7255   8.133   7.044  10.382 -0.1933 -0.2006  0.0589
  778MOL0     C 7256   8.223   7.112  10.289 -0.1056 -0.4527  0.6381
  778MOL0     O 7257   8.163   7.186  10.184 -0.1644  0.2162  0.1191
  778MOL0     C 7258   8.223   7.300  10.130 -0.0528 -0.7573 -0.1585
  778MOL0     C 7259   8.287   7.392  10.214 -0.0474  0.2021  0.3425
  778MOL0     C 7260   8.335   7.506  10.162 -0.2991 -1.0889  0.0098
  778MOL0     C 7261   8.322   7.545  10.033  1.0288  0.1613 -0.6022
  778MOL0     O 7262   8.375   7.670  10.001  0.4593  0.6619 -1.1756
  778MOL0     C 7263   8.367   7.739   9.876  0.3493  0.1756 -0.4598
  778MOL0     C 7264   8.492   7.828   9.847  0.7271 -0.3622  0.2830
  778MOL0     C 7265   8.623   7.750   9.843  0.6362 -0.2517  0.3545
  778MOL0     C 7266   8.725   7.805   9.936 -0.5991 -0.5987 -0.7853
  778MOL0     C 7267   8.698   7.752  10.076  0.8712 -0.2882 -0.2443
  778MOL0     C 7268   8.794   7.807  10.188 -0.3784 -0.3010  0.7911
  778MOL0     C 7269   8.760   7.745  10.322  0.7084 -0.1707  0.5665
  778MOL0     C 7270   8.791   7.831  10.442 -0.5513  0.3309 -0.4612
  778MOL0    Cl 7271   8.795   7.737  10.595 -0.1256 -0.3431 -0.5081
  778MOL0     C 7272   8.249   7.458   9.948  0.5912  0.0990  0.8381
  778MOL0     C 7273   8.201   7.340   9.996 -0.3872 -0.1806  0.8294
  778MOL0     O 7274   8.342   7.120  10.315 -0.5405  0.5145 -0.2257
  778MOL0     C 7275   8.171   7.051  10.516  0.3079  0.2105  0.0951
  778MOL0     C 7276   8.098   6.981  10.615  0.7996  0.1272 -0.3214
  778MOL0     N 7277   7.593   6.359  10.698  0.2354 -0.7810 -0.3673
  778MOL0     N 7278   7.505   6.264  10.697  0.3852  0.1926 -0.7441
  778MOL0     C 7279   6.505   5.959  10.866  0.6093 -0.6944  0.7398
  778MOL0     C 7280   6.391   5.896  10.929  0.1464  0.1938 -0.5090
  778MOL0     C 7281   6.119   5.779  11.280 -0.9459 -0.2984  1.0315
  778MOL0     C 7282   6.013   5.817  11.203 -0.4659 -0.7952  0.3437
  778MOL0     C 7283   5.889   5.839  11.255 -0.8439  0.0171 -0.5219
  778MOL0     C 7284   5.864   5.811  11.390  0.3989 -0.5014  0.4417
  778MOL0     O 7285   5.740   5.850  11.429 -0.5902 -0.5928  0.6884
  778MOL0     C 7286   5.730   5.919  11.554 -0.1051 -0.4438  0.2995
  778MOL0     C 7287   5.578   5.955  11.586 -0.1078 -0.1506  0.7667
  778MOL0     C 7288   5.581   6.050  11.712  1.2788  0.4889 -0.4080
  778MOL0     C 7289   5.623   6.198  11.699 -0.6424  0.4018 -1.0130
  778MOL0     C 7290   5.559   6.258  11.575  0.3847 -0.8006 -0.8385
  778MOL0     C 7291   5.500   6.289  11.470 -0.3651  0.0456 -0.0013
  778MOL0     C 7292   5.968   5.755  11.466  0.5931 -0.5793 -0.2568
  778MOL0     C 7293   6.093   5.736  11.413  0.1749 -0.7061 -0.6605
  778MOL0     C 7294   6.191   5.655  11.503 -0.1694 -0.7257 -1.1277
  778MOL0     H 7295   6.461   5.943  11.251  0.9392  0.7911 -0.3648
  778MOL0     H 7296   6.688   6.019  11.149 -0.4208 -0.1261 -0.4059
  778MOL0     H 7297   6.626   6.182  10.765 -0.4075  0.6860  1.1804
  778MOL0     H 7298   6.718   6.057  10.685  0.6709  2.0098 -1.1298
  778MOL0     H 7299   6.828   6.283  10.683 -0.7846 -0.2432 -0.1680
  778MOL0     H 7300   6.813   6.289  10.853  0.8831 -0.5751  0.9078
  778MOL0     H 7301   7.042   6.256  10.797 -0.8996  0.5055 -0.5314
  778MOL0     H 7302   6.988   6.101  10.854  1.3129  2.3612  2.2142
  778MOL0     H 7303   7.012   5.992  10.630  3.2336 -0.0758  0.2166
  778MOL0     H 7304   6.948   6.135  10.560  0.9774  2.2186  1.2249
  778MOL0     H 7305   7.227   6.144  10.678 -0.9705 -0.6480  0.7701
  778MOL0     H 7306   7.135   6.235  10.543 -0.3594  0.2521  1.9740
  778MOL0     H 7307   7.268   5.947  10.528  0.4451 -0.4467  1.5570
  778MOL0     H 7308   7.153   6.023  10.413  2.2974 -0.0377 -1.1101
  778MOL0     H 7309   7.319   6.206  10.414  1.6894  1.2152  1.3947
  778MOL0     H 7310   7.358   6.067  10.319 -1.1596 -0.0614 -0.1520
  778MOL0     H 7311   7.462   6.025  10.606 -1.4727  0.3438  0.7797
  778MOL0     H 7312   7.542   6.057  10.450 -0.3592 -1.4468  0.3550
  778MOL0     H 7313   7.615   6.311  10.382  0.8143  2.1295 -0.3804
  778MOL0     H 7314   7.669   6.577  10.517 -0.5174 -1.1303  0.8017
  778MOL0     H 7315   7.793   6.469  10.443 -1.4829 -0.6361 -0.3559
  778MOL0     H 7316   7.795   6.500  10.737 -0.0260  0.1315 -0.3285
  778MOL0     H 7317   7.910   6.420  10.634  0.1475 -0.3316  3.4417
  778MOL0     H 7318   8.001   6.619  10.707  1.2629 -0.6656 -0.6565
  778MOL0     H 7319   7.971   6.651  10.538 -2.4989  2.8396 -0.5685
  778MOL0     H 7320   7.751   6.787  10.601 -1.2059 -1.4087  0.9173
  778MOL0     H 7321   7.784   6.740  10.766  0.2719 -0.0465 -0.5699
  778MOL0     H 7322   7.845   6.853  10.434 -0.4179  0.4905  0.2753
  778MOL0     H 7323   7.966   7.042  10.148  2.2276 -0.7362  0.3905
  778MOL0     H 7324   7.866   6.897  10.205  0.8832 -1.7956  0.0077
  778MOL0     H 7325   8.024   6.873  10.165 -0.7539 -0.8853  1.2543
  778MOL0     H 7326   8.310   7.369  10.317 -0.9610 -0.7531  0.3572
  778MOL0     H 7327   8.402   7.569  10.220 -0.1054  0.3359 -1.6845
  778MOL0     H 7328   8.364   7.668   9.793  1.0625 -0.6884  0.2315
  778MOL0     H 7329   8.290   7.816   9.862  0.3841  0.4861  0.9410
  778MOL0     H 7330   8.485   7.880   9.751  2.6793 -0.4697  0.0503
  778MOL0     H 7331   8.482   7.913   9.916 -0.5019 -1.2002  1.1665
  778MOL0     H 7332   8.662   7.742   9.741  3.0639  2.7089  0.9097
  778MOL0     H 7333   8.597   7.647   9.869 -1.5725  0.2990  0.5161
  778MOL0     H 7334   8.732   7.914   9.926  0.8998 -0.6041 -0.0721
  778MOL0     H 7335   8.824   7.769   9.908  0.7930 -1.3056  4.1674
  778MOL0     H 7336   8.593   7.771  10.101  0.8171 -0.0186 -0.6693
  778MOL0     H 7337   8.716   7.645  10.070 -2.5935 -0.9540 -0.9589
  778MOL0     H 7338   8.791   7.916  10.188 -2.3630 -0.2759 -1.5126
  778MOL0     H 7339   8.896   7.773  10.167 -1.5852 -2.1799 -2.9016
  778MOL0     H 7340   8.810   7.648  10.332  1.9012  0.3648 -0.0218
  778MOL0     H 7341   8.652   7.736  10.334  0.8845 -1.0011  1.6663
  778MOL0     H 7342   8.724   7.917  10.444  1.6364  2.1347  2.1279
  778MOL0     H 7343   8.892   7.872  10.430 -0.4035  0.6253  1.5733
  778MOL0     H 7344   8.213   7.500   9.855  0.5373  2.3798  1.8360
  778MOL0     H 7345   8.140   7.285   9.925 -0.9220  0.3454  0.8709
  778MOL0     H 7346   8.261   7.104  10.543  0.8429 -0.5468 -0.1823
  778MOL0     H 7347   8.122   6.995  10.719  0.3883  2.2608 -0.4618
  778MOL0     H 7348   6.505   5.967  10.757  1.2932 -1.4137  0.6846
  778MOL0     H 7349   6.310   5.862  10.865  1.5202 -1.0580 -1.6440
  778MOL0     H 7350   6.026   5.830  11.096  1.6097 -0.5768  0.5904
  778MOL0     H 7351   5.804   5.879  11.201 -0.3102  1.2600 -0.4557
  778MOL0     H 7352   5.781   5.858  11.629 -0.2257 -2.7094 -1.3483
  778MOL0     H 7353   5.776   6.018  11.547 -1.6233  0.4773  2.2570
  778MOL0     H 7354   5.518   5.863  11.593  0.6870 -0.5680  2.8696
  778MOL0     H 7355   5.532   6.009  11.503 -1.5953 -2.7314 -0.2387
  778MOL0     H 7356   5.477   6.054  11.747  1.6862  0.0783  0.8957
  778MOL0     H 7357   5.647   6.011  11.790  0.2922  0.4042  0.4013
  778MOL0     H 7358   5.732   6.192  11.692 -0.7861 -0.7016 -2.7544
  778MOL0     H 7359   5.578   6.247  11.786 -3.0159 -0.2460 -1.8133
  778MOL0     H 7360   5.457   6.306  11.373  3.5642  0.4593 -1.8421
  778MOL0     H 7361   5.947   5.729  11.569  0.4664  1.9380  0.4187
  778MOL0     H 7362   6.263   5.724  11.548  1.3856 -1.9298 -1.6820
  778MOL0     H 7363   6.140   5.608  11.588  0.1742  1.8519  0.6278
  778MOL0     H 7364   6.240   5.583  11.437  1.3518 -2.0267  1.2680
  779MOL0     O 7365   4.463  10.790   4.259  0.3897  0.2468  0.5226
  779MOL0     C 7366   4.385  10.868   4.194 -0.1324 -0.3724 -0.5653
  779MOL0     O 7367   4.431  10.982   4.130  0.2181  0.2930  0.3332
  779MOL0     C 7368   4.563  11.010   4.117 -0.1569  0.3919 -0.6200
  779MOL0     C 7369   4.640  10.955   4.012  0.3169 -0.2585  0.2172
  779MOL0     C 7370   4.774  10.963   4.007  0.2262  0.3189  1.0418
  779MOL0     C 7371   4.839  11.029   4.109 -0.3153 -0.1215  0.5844
  779MOL0     O 7372   4.978  11.045   4.105  0.5624 -0.0344  0.1096
  779MOL0     C 7373   5.036  11.042   4.241 -0.6355  0.9657  0.2832
  779MOL0     C 7374   5.086  11.178   4.291  0.0510 -0.4458 -0.8583
  779MOL0     C 7375   5.176  11.273   4.209 -0.7355  1.0844  0.5548
  779MOL0     C 7376   5.218  11.400   4.279 -0.0277 -0.3907 -1.0257
  779MOL0     C 7377   5.315  11.480   4.191  0.1475  0.3960 -1.0452
  779MOL0     C 7378   5.463  11.433   4.184  0.4741  0.2888 -0.1360
  779MOL0     C 7379   5.530  11.481   4.043  0.2960  0.7516 -0.3829
  779MOL0     C 7380   5.651  11.566   4.070  0.3513  0.2168  0.2515
  779MOL0     N 7381   5.758  11.557   3.977  0.2599  0.3545  0.0430
  779MOL0     C 7382   5.874  11.483   3.986 -0.1533 -0.5828 -0.6185
  779MOL0     C 7383   5.944  11.518   3.887  0.3862 -0.1022  0.6889
  779MOL0     C 7384   6.077  11.456   3.845  0.1325  0.6555  0.1923
  779MOL0     C 7385   6.180  11.541   3.768  0.6695 -0.1198 -0.2981
  779MOL0     C 7386   6.241  11.654   3.851 -0.3564  0.3692 -0.5459
  779MOL0     C 7387   6.363  11.719   3.775  0.2911 -0.0508 -0.2049
  779MOL0     O 7388   6.327  11.768   3.648 -0.2180 -0.3437 -0.0693
  779MOL0     C 7389   6.427  11.805   3.558 -0.4462  0.2823 -0.7346
  779MOL0     C 7390   6.401  11.786   3.422  1.2405 -0.8820 -0.8191
  779MOL0     C 7391   6.503  11.805   3.329 -0.2581  0.0061  0.8034
  779MOL0     C 7392   6.468  11.801   3.189  0.4213 -0.5183  0.9694
  779MOL0     C 7393   6.644  11.821   3.368 -0.0104  0.4954 -0.2434
  779MOL0     C 7394   6.763  11.833   3.289 -1.1482 -0.4311 -0.7021
  779MOL0     O 7395   6.880  11.809   3.351  0.0491 -0.2689 -0.1134
  779MOL0     C 7396   7.000  11.858   3.309 -1.0535  0.4455  0.3751
  779MOL0     C 7397   7.090  11.907   3.404 -0.5323  0.2444 -0.7110
  779MOL0     C 7398   7.217  11.961   3.378 -0.1199  0.4946  0.4900
  779MOL0     C 7399   7.248  11.956   3.239 -0.5437 -0.5750  0.2646
  779MOL0     O 7400   7.378  11.995   3.206 -0.5230  0.9712  0.0090
  779MOL0     C 7401   7.397  12.046   3.078  0.1877 -0.9887  1.2109
  779MOL0     C 7402   7.552  12.051   3.040  0.5756  0.9162  0.7986
  779MOL0     C 7403   7.623  12.176   3.094 -0.1529  0.4336  0.6898
  779MOL0     C 7404   7.769  12.185   3.036 -0.4107  0.1355  0.4474
  779MOL0     C 7405   7.836  12.328   3.047 -0.1847  0.1496 -0.6552
  779MOL0     C 7406   7.981  12.329   3.101 -0.0069  0.3000  0.2418
  779MOL0     C 7407   7.992  12.288   3.250  0.1713 -0.1908  0.1412
  779MOL0     C 7408   8.130  12.258   3.292 -1.4990 -0.6764  0.0777
  779MOL0    Cl 7409   8.210  12.415   3.307  0.0288 -0.0383  0.1049
  779MOL0     C 7410   7.156  11.919   3.140  0.1246 -0.0911 -0.4335
  779MOL0     C 7411   7.035  11.867   3.174  0.4882 -0.1293  0.4864
  779MOL0     O 7412   6.753  11.893   3.183  0.3674  0.4419  0.6645
  779MOL0     C 7413   6.661  11.831   3.514 -0.3652  0.0089 -0.1270
  779MOL0     C 7414   6.556  11.831   3.598  0.2871  0.2105  0.2901
  779MOL0     N 7415   5.878  11.617   3.816  0.2098  0.5465 -0.2417
  779MOL0     N 7416   5.764  11.635   3.864  0.6080  0.0965  0.4623
  779MOL0     C 7417   4.766  11.079   4.216 -1.0007 -0.5416 -0.0493
  779MOL0     C 7418   4.626  11.081   4.215 -0.4190  0.9124 -0.6158
  779MOL0     C 7419   4.242  10.848   4.170 -0.0333 -0.0220  1.1783
  779MOL0     C 7420   4.153  10.881   4.273  0.1620  0.3464 -0.2983
  779MOL0     C 7421   4.016  10.850   4.269 -0.2746 -0.6507  0.2443
  779MOL0     C 7422   3.966  10.770   4.165  0.1214  0.4305 -0.2755
  779MOL0     O 7423   3.835  10.717   4.167 -0.1571 -0.0250  0.4717
  779MOL0     C 7424   3.820  10.608   4.085  1.1809  0.2563  0.2932
  779MOL0     C 7425   3.691  10.527   4.113  0.1426 -0.2167  0.1859
  779MOL0     C 7426   3.559  10.604   4.103 -0.4266 -0.0878  0.2601
  779MOL0     C 7427   3.444  10.541   4.181  0.5357 -0.9051  0.3580
  779MOL0     C 7428   3.480  10.514   4.321 -0.3584 -0.3368  0.3721
  779MOL0     C 7429   3.493  10.515   4.441 -0.5469  0.2337 -0.5521
  779MOL0     C 7430   4.053  10.749   4.055  0.9427  0.4247 -0.5132
  779MOL0     C 7431   4.189  10.792   4.055 -0.9630  0.0284  0.2872
  779MOL0     C 7432   4.277  10.740   3.952 -0.6676  0.0130 -0.2269
  779MOL0     H 7433   4.587  10.905   3.931  2.1431  0.6456 -1.6201
  779MOL0     H 7434   4.830  10.928   3.921  0.0251  1.1312  0.5607
  779MOL0     H 7435   5.124  10.979   4.228 -1.2092  0.8081 -5.3209
  779MOL0     H 7436   4.962  10.999   4.310  0.0240 -1.0564 -0.2057
  779MOL0     H 7437   5.000  11.244   4.305 -1.3105 -2.1834 -0.6570
  779MOL0     H 7438   5.136  11.165   4.387  1.2268 -0.1183 -1.4169
  779MOL0     H 7439   5.263  11.213   4.180 -1.8876  0.1988 -1.2713
  779MOL0     H 7440   5.123  11.284   4.114  0.7143 -3.0530 -0.9895
  779MOL0     H 7441   5.125  11.456   4.293  1.0225  0.9656  1.1567
  779MOL0     H 7442   5.260  11.368   4.375 -0.5587  0.0057 -0.6552
  779MOL0     H 7443   5.317  11.583   4.229  1.3266  0.2881 -0.7813
  779MOL0     H 7444   5.275  11.492   4.090 -0.4873 -0.5019 -0.9117
  779MOL0     H 7445   5.516  11.480   4.267  3.1666  1.4506 -2.3393
  779MOL0     H 7446   5.466  11.323   4.180  3.0389  0.2407  0.8940
  779MOL0     H 7447   5.459  11.522   3.971  0.4218  1.0487 -0.3372
  779MOL0     H 7448   5.574  11.388   4.003 -1.1676 -0.4138  0.5999
  779MOL0     H 7449   5.619  11.671   4.076 -1.2220 -0.2494  0.4470
  779MOL0     H 7450   5.699  11.545   4.166 -0.0246 -4.0640 -0.3418
  779MOL0     H 7451   5.905  11.405   4.055  2.0122  1.2609  0.6398
  779MOL0     H 7452   6.042  11.376   3.778 -2.9551  0.3282  2.0040
  779MOL0     H 7453   6.125  11.416   3.934 -1.3138  0.9083  1.1288
  779MOL0     H 7454   6.268  11.479   3.747  0.9769 -1.4126  3.8501
  779MOL0     H 7455   6.147  11.589   3.676  1.7992  1.9350  0.2942
  779MOL0     H 7456   6.176  11.740   3.865 -0.0948  0.9678 -2.6392
  779MOL0     H 7457   6.275  11.606   3.943 -1.6868 -0.4371 -0.4431
  779MOL0     H 7458   6.401  11.795   3.843 -0.7443 -1.2269  1.8004
  779MOL0     H 7459   6.437  11.640   3.760 -0.1260  0.1563 -4.7879
  779MOL0     H 7460   6.300  11.760   3.394  0.5353 -0.1948  0.9407
  779MOL0     H 7461   6.498  11.891   3.135 -1.0855 -0.0670  0.8463
  779MOL0     H 7462   6.361  11.801   3.167  0.2031  1.7341  1.6935
  779MOL0     H 7463   6.514  11.715   3.141  2.3094  1.0656 -0.2217
  779MOL0     H 7464   7.057  11.892   3.506 -1.4609  1.8015 -0.7453
  779MOL0     H 7465   7.286  11.992   3.457 -0.1505  0.6113  0.4715
  779MOL0     H 7466   7.367  11.973   3.003  0.3175  0.8466 -0.7374
  779MOL0     H 7467   7.341  12.137   3.056  0.5773 -1.2126 -1.0316
  779MOL0     H 7468   7.587  11.964   3.097  0.5378  2.2507  2.9702
  779MOL0     H 7469   7.577  12.045   2.934  1.3137  0.4815  0.9906
  779MOL0     H 7470   7.625  12.188   3.202 -1.0967  1.1671  0.6497
  779MOL0     H 7471   7.566  12.261   3.054  0.9289  2.0667  2.4676
  779MOL0     H 7472   7.763  12.160   2.929  0.1446 -2.7513  1.0077
  779MOL0     H 7473   7.837  12.104   3.065  1.3110 -0.1656 -3.6545
  779MOL0     H 7474   7.833  12.376   2.949  1.2826  1.5094 -0.0913
  779MOL0     H 7475   7.768  12.380   3.115  0.9168 -1.7178  2.0496
  779MOL0     H 7476   8.034  12.424   3.094  0.8502 -0.1559  0.4523
  779MOL0     H 7477   8.041  12.252   3.053 -1.1792 -2.3489  2.6880
  779MOL0     H 7478   7.930  12.198   3.257  0.7174 -0.7322 -1.5016
  779MOL0     H 7479   7.945  12.365   3.312  0.7190 -0.0255  0.3498
  779MOL0     H 7480   8.185  12.212   3.209  0.7645  1.1871  0.4299
  779MOL0     H 7481   8.149  12.190   3.376  1.5574  1.2780  1.1409
  779MOL0     H 7482   7.184  11.910   3.036 -0.0025  1.3197 -0.6086
  779MOL0     H 7483   6.962  11.836   3.099  1.1246  2.8536 -1.5431
  779MOL0     H 7484   6.758  11.852   3.559 -0.8838  0.2392  0.8958
  779MOL0     H 7485   6.580  11.837   3.704  1.7750 -0.0816 -0.0120
  779MOL0     H 7486   4.812  11.124   4.304  1.5433  1.1037 -2.0783
  779MOL0     H 7487   4.563  11.121   4.294 -0.9226 -3.4252  1.4513
  779MOL0     H 7488   4.192  10.935   4.359 -3.4169  1.6612  0.6546
  779MOL0     H 7489   3.962  10.894   4.352 -1.8386 -0.9492 -0.5715
  779MOL0     H 7490   3.822  10.633   3.978  2.1877 -0.4619  0.1365
  779MOL0     H 7491   3.904  10.542   4.105  0.2970 -0.8173  0.5420
  779MOL0     H 7492   3.717  10.494   4.214 -1.1598  0.2114  0.6878
  779MOL0     H 7493   3.692  10.438   4.050  2.0435 -2.1070  2.6655
  779MOL0     H 7494   3.560  10.702   4.151 -3.3207 -0.1022  0.5622
  779MOL0     H 7495   3.529  10.624   3.999  1.7361  1.9550 -0.0539
  779MOL0     H 7496   3.403  10.450   4.135 -4.0785  1.1988 -0.3416
  779MOL0     H 7497   3.356  10.606   4.174  0.9057 -0.2387  1.6561
  779MOL0     H 7498   3.519  10.509   4.545  0.3481 -1.6450 -0.8315
  779MOL0     H 7499   4.025  10.706   3.960  1.1251  1.6450 -1.1418
  779MOL0     H 7500   4.322  10.643   3.976 -0.0230 -0.3112 -2.4783
  779MOL0     H 7501   4.209  10.724   3.867 -1.5634  1.7757  0.1007
  779MOL0     H 7502   4.359  10.800   3.912 -0.3972 -1.4599 -2.0365
  780MOL0     O 7503   3.286   3.012   9.411 -0.3316 -0.2033 -0.1332
  780MOL0     C 7504   3.263   2.986   9.296 -0.0900 -0.1187  0.0585
  780MOL0     O 7505   3.347   3.013   9.189  0.5814 -0.4983  0.1871
  780MOL0     C 7506   3.487   3.030   9.213 -0.0935 -0.1822  0.4367
  780MOL0     C 7507   3.555   3.007   9.329 -0.8320  0.6265 -1.1280
  780MOL0     C 7508   3.684   3.048   9.343  0.0465 -0.0733 -0.3902
  780MOL0     C 7509   3.754   3.115   9.250 -0.6285 -0.0792  1.1388
  780MOL0     O 7510   3.890   3.157   9.259  0.0276  0.2920  0.1720
  780MOL0     C 7511   3.981   3.081   9.334  0.4966  0.4787 -0.5315
  780MOL0     C 7512   4.122   3.116   9.295 -0.8485  0.5314 -0.0661
  780MOL0     C 7513   4.241   3.031   9.360  0.4144 -0.5032  0.1075
  780MOL0     C 7514   4.361   3.065   9.278  0.2643 -0.5243  0.0327
  780MOL0     C 7515   4.492   2.994   9.312 -0.6868  0.6976  0.0912
  780MOL0     C 7516   4.607   3.032   9.212  1.1381  0.6961 -0.4497
  780MOL0     C 7517   4.744   2.992   9.259 -1.4444  0.4645  0.6111
  780MOL0     C 7518   4.844   3.066   9.172  0.8959  0.4175  0.1968
  780MOL0     N 7519   4.978   3.029   9.202  0.3690 -0.0104 -0.3409
  780MOL0     C 7520   5.065   2.967   9.120 -0.0390 -0.0896 -0.3930
  780MOL0     C 7521   5.171   2.952   9.200  0.8324  0.4465 -0.1789
  780MOL0     C 7522   5.294   2.871   9.169  0.9107 -0.7286 -0.9305
  780MOL0     C 7523   5.357   2.926   9.040 -0.5131 -0.1240  0.5346
  780MOL0     C 7524   5.500   2.861   9.018  0.8607 -0.2225 -0.4014
  780MOL0     C 7525   5.605   2.920   9.112  1.1320  0.0839  0.0895
  780MOL0     O 7526   5.732   2.873   9.088  0.2690 -0.2358  0.1029
  780MOL0     C 7527   5.834   2.890   9.179  0.6578 -0.3715  0.1774
  780MOL0     C 7528   5.831   2.976   9.285 -0.2759 -0.0320  0.1602
  780MOL0     C 7529   5.944   3.010   9.360 -0.2456 -0.0691  1.1651
  780MOL0     C 7530   5.923   3.117   9.470 -0.4508  0.5121  0.3755
  780MOL0     C 7531   6.064   2.938   9.332  0.0351 -0.4347 -0.7168
  780MOL0     C 7532   6.199   2.965   9.401  0.4464  0.2314  0.2377
  780MOL0     O 7533   6.302   2.925   9.329  0.0008 -0.1172  0.6309
  780MOL0     C 7534   6.427   2.953   9.366 -0.3378  0.3514 -0.5490
  780MOL0     C 7535   6.481   3.082   9.367  0.5042  1.0272 -0.4846
  780MOL0     C 7536   6.615   3.098   9.396 -0.4231 -0.2321 -0.1501
  780MOL0     C 7537   6.694   2.990   9.448 -0.5458 -0.6403  0.6668
  780MOL0     O 7538   6.830   3.025   9.471  0.5794  0.1783  0.5808
  780MOL0     C 7539   6.875   3.019   9.607  0.0059  0.5937  0.5208
  780MOL0     C 7540   7.020   2.973   9.602  0.1799  0.0490 -0.1092
  780MOL0     C 7541   7.120   3.054   9.507  0.0778  0.2463 -0.0729
  780MOL0     C 7542   7.269   3.003   9.499  0.2605  0.5417 -0.7034
  780MOL0     C 7543   7.361   3.083   9.402  0.7234 -0.9921  0.0206
  780MOL0     C 7544   7.496   3.015   9.375  0.2454  0.0006 -0.0303
  780MOL0     C 7545   7.562   3.092   9.259  0.2065 -0.1801  0.4051
  780MOL0     C 7546   7.701   3.042   9.231 -0.4699 -0.1773  0.0542
  780MOL0    Cl 7547   7.771   3.135   9.101  0.2757  0.3481 -0.2845
  780MOL0     C 7548   6.635   2.869   9.470 -0.0536  0.0502 -0.0819
  780MOL0     C 7549   6.507   2.846   9.421  0.2123 -0.2087  0.4351
  780MOL0     O 7550   6.205   3.028   9.505 -0.7403 -0.7364 -0.7540
  780MOL0     C 7551   6.062   2.841   9.231  0.7096 -0.5146 -0.5188
  780MOL0     C 7552   5.946   2.825   9.156 -0.4259  0.0892  0.4115
  780MOL0     N 7553   5.147   3.007   9.326  0.9263  1.2232  0.6041
  780MOL0     N 7554   5.029   3.049   9.324 -0.2888 -0.0250 -0.9492
  780MOL0     C 7555   3.687   3.139   9.125  0.3970  0.3208  0.4163
  780MOL0     C 7556   3.553   3.093   9.108  0.4067 -0.2699 -0.5118
  780MOL0     C 7557   3.130   2.934   9.270 -0.6726  0.7896 -0.5628
  780MOL0     C 7558   3.019   3.006   9.325  0.1922  0.1707  0.6056
  780MOL0     C 7559   2.887   2.965   9.316 -0.1024 -0.5990 -0.3400
  780MOL0     C 7560   2.865   2.848   9.246  0.9430 -0.3052  0.2035
  780MOL0     O 7561   2.741   2.806   9.227 -0.0813  0.7827 -0.4933
  780MOL0     C 7562   2.655   2.890   9.156  0.3165 -0.3201  0.0663
  780MOL0     C 7563   2.699   2.918   9.015 -0.1211 -1.1190  0.1714
  780MOL0     C 7564   2.731   2.788   8.940 -0.0021 -1.1745  0.0872
  780MOL0     C 7565   2.818   2.822   8.817  0.3489  0.4531 -0.5608
  780MOL0     C 7566   2.955   2.863   8.855  0.0809 -0.9377  0.0721
  780MOL0     C 7567   3.070   2.884   8.889  0.6260 -0.1183  0.3404
  780MOL0     C 7568   2.975   2.770   9.205 -0.1677 -0.4139  0.4588
  780MOL0     C 7569   3.109   2.807   9.208  0.3312 -0.3374  0.5315
  780MOL0     C 7570   3.213   2.713   9.169 -0.1222  0.2435  1.0105
  780MOL0     H 7571   3.503   2.969   9.417 -1.0348  2.2746 -0.5108
  780MOL0     H 7572   3.734   3.033   9.439 -0.9826 -1.7480 -0.0738
  780MOL0     H 7573   3.975   2.973   9.314  5.3563 -0.2129  0.4565
  780MOL0     H 7574   3.965   3.100   9.440 -4.4467 -0.0894 -0.9368
  780MOL0     H 7575   4.123   3.105   9.186 -0.5317  0.8617 -0.0991
  780MOL0     H 7576   4.135   3.222   9.317  3.1948  0.6466 -2.1821
  780MOL0     H 7577   4.251   3.062   9.465 -1.8826 -0.3984  0.3624
  780MOL0     H 7578   4.215   2.925   9.361 -0.6601 -0.2566  0.1520
  780MOL0     H 7579   4.340   3.032   9.175  2.6409  0.1487 -0.7225
  780MOL0     H 7580   4.373   3.174   9.278  0.5824 -0.5539  1.1852
  780MOL0     H 7581   4.483   2.885   9.308  1.4416  0.4932 -0.2834
  780MOL0     H 7582   4.518   3.022   9.415  1.1732  0.9592 -0.4185
  780MOL0     H 7583   4.584   2.979   9.119  2.1334 -0.8822  0.1815
  780MOL0     H 7584   4.594   3.141   9.203 -0.6455  0.5242 -0.3307
  780MOL0     H 7585   4.748   2.882   9.254 -0.5121  0.5428 -1.1196
  780MOL0     H 7586   4.762   3.032   9.359 -0.7483 -1.1841  1.1829
  780MOL0     H 7587   4.822   3.047   9.066  0.0587 -0.5082  0.5205
  780MOL0     H 7588   4.840   3.174   9.188  4.7222  0.4796  1.8833
  780MOL0     H 7589   5.045   2.934   9.019 -0.2036  2.0856 -1.1174
  780MOL0     H 7590   5.278   2.763   9.165  3.4322 -1.2310  0.2676
  780MOL0     H 7591   5.360   2.883   9.255 -0.5061 -2.2003  0.4151
  780MOL0     H 7592   5.289   2.905   8.957 -0.4496  1.9064 -0.0717
  780MOL0     H 7593   5.384   3.032   9.034 -1.1125 -0.0544 -2.9338
  780MOL0     H 7594   5.487   2.753   9.030 -6.3462  0.1343 -0.2411
  780MOL0     H 7595   5.535   2.889   8.918 -0.5810  0.7476 -0.6753
  780MOL0     H 7596   5.604   3.028   9.095  0.4013  0.0072 -0.3857
  780MOL0     H 7597   5.569   2.900   9.214  0.4815  1.1961  0.1004
  780MOL0     H 7598   5.742   3.037   9.294  0.9559  1.8495  0.0693
  780MOL0     H 7599   5.928   3.076   9.571 -1.7467 -0.4851  0.0651
  780MOL0     H 7600   5.824   3.162   9.462  0.2251  1.7793 -1.8997
  780MOL0     H 7601   5.998   3.196   9.472 -0.0058  0.1039  0.0741
  780MOL0     H 7602   6.418   3.161   9.326 -1.5177 -0.4539 -0.3899
  780MOL0     H 7603   6.669   3.192   9.383 -0.9907 -0.1783 -2.4306
  780MOL0     H 7604   6.882   3.109   9.669  0.4049 -0.8158  2.6012
  780MOL0     H 7605   6.818   2.941   9.657  1.6313 -0.1282  1.3263
  780MOL0     H 7606   7.059   2.962   9.703  0.3264  0.1943 -0.1516
  780MOL0     H 7607   7.020   2.871   9.561 -1.2983 -0.2242  0.5023
  780MOL0     H 7608   7.137   3.157   9.539  0.2222 -0.0238  0.7375
  780MOL0     H 7609   7.083   3.057   9.404 -2.7266  2.0165  0.8593
  780MOL0     H 7610   7.272   2.901   9.459  5.0707  0.3310 -0.3857
  780MOL0     H 7611   7.312   2.997   9.600  1.6902  0.8068 -1.2672
  780MOL0     H 7612   7.306   3.098   9.309 -0.0691 -1.4230  0.4140
  780MOL0     H 7613   7.391   3.178   9.448 -1.1322 -0.7107  0.7185
  780MOL0     H 7614   7.499   2.908   9.354  0.0807  0.0141 -0.1220
  780MOL0     H 7615   7.546   3.015   9.472  0.6540 -1.7703 -0.2081
  780MOL0     H 7616   7.559   3.196   9.292 -2.5125  0.0186 -0.2641
  780MOL0     H 7617   7.497   3.076   9.172  0.2058 -0.3189  0.4313
  780MOL0     H 7618   7.703   2.935   9.206 -0.4469 -0.4792  1.2493
  780MOL0     H 7619   7.751   3.059   9.327 -0.3277 -1.2130  0.1792
  780MOL0     H 7620   6.693   2.789   9.516  0.0349 -0.1354 -0.5120
  780MOL0     H 7621   6.453   2.752   9.430 -0.8886  0.5456  2.1887
  780MOL0     H 7622   6.153   2.799   9.189  2.1482  3.1755 -1.4855
  780MOL0     H 7623   5.953   2.755   9.073  2.7512  0.6557  0.0906
  780MOL0     H 7624   3.738   3.197   9.049 -5.5667  4.3192 -1.2748
  780MOL0     H 7625   3.497   3.123   9.020 -0.9648  0.1127  0.4535
  780MOL0     H 7626   3.034   3.106   9.365  0.8479  0.9373 -1.4558
  780MOL0     H 7627   2.802   3.020   9.356  1.9471  1.0243  2.1318
  780MOL0     H 7628   2.556   2.844   9.150 -0.6456  1.4038  1.6539
  780MOL0     H 7629   2.646   2.989   9.203 -0.7816 -1.5346  2.6303
  780MOL0     H 7630   2.783   2.988   9.020 -0.0511 -1.2721  1.3499
  780MOL0     H 7631   2.623   2.970   8.956  1.9542 -0.2885 -1.9192
  780MOL0     H 7632   2.776   2.707   8.999 -1.1399 -2.5024 -0.7936
  780MOL0     H 7633   2.628   2.759   8.917 -0.1762 -1.7048  1.4415
  780MOL0     H 7634   2.756   2.904   8.779 -0.9970 -0.7738 -1.0958
  780MOL0     H 7635   2.815   2.739   8.746  2.2700  1.2769 -1.7048
  780MOL0     H 7636   3.171   2.903   8.919  0.1324  0.3012  1.8056
  780MOL0     H 7637   2.964   2.675   9.153  0.5898  0.5989 -1.6748
  780MOL0     H 7638   3.198   2.627   9.234  2.0363 -1.0547 -0.0905
  780MOL0     H 7639   3.206   2.688   9.063 -1.4196  1.5587  0.7457
  780MOL0     H 7640   3.307   2.766   9.188 -1.6024  3.0728  0.9688
  781MOL0     O 7641   8.821   4.100   9.951  0.2645 -0.0242 -0.0277
  781MOL0     C 7642   8.730   4.014   9.936  0.6951  0.8197  0.0247
  781MOL0     O 7643   8.630   4.020   9.843  0.5359  0.4480  0.2458
  781MOL0     C 7644   8.605   4.139   9.785  0.1119 -0.3746  0.1141
  781MOL0     C 7645   8.654   4.163   9.654  0.9494 -0.5904 -0.0594
  781MOL0     C 7646   8.603   4.263   9.574 -0.5173 -0.3536 -0.4752
  781MOL0     C 7647   8.503   4.351   9.627  0.6656 -0.8854 -0.6056
  781MOL0     O 7648   8.431   4.446   9.555 -0.2966  0.4109  0.3352
  781MOL0     C 7649   8.441   4.447   9.410  0.8830  0.2630 -0.2573
  781MOL0     C 7650   8.304   4.468   9.346  0.7891  0.1733 -0.2864
  781MOL0     C 7651   8.262   4.619   9.354  0.3447  0.3573 -0.2001
  781MOL0     C 7652   8.111   4.641   9.327  0.8068 -0.9566  0.2528
  781MOL0     C 7653   8.074   4.604   9.186 -0.3469  0.4186  0.4491
  781MOL0     C 7654   7.921   4.606   9.152  0.5155 -0.9280  0.3560
  781MOL0     C 7655   7.854   4.490   9.221  0.1590 -0.3616 -0.1786
  781MOL0     C 7656   7.720   4.543   9.302 -0.3153  0.6109  0.3019
  781MOL0     N 7657   7.763   4.632   9.410  0.0158  0.1705  0.1621
  781MOL0     C 7658   7.825   4.593   9.521  0.3890  0.3535 -0.5000
  781MOL0     C 7659   7.822   4.702   9.598  0.2431 -0.7190  1.3425
  781MOL0     C 7660   7.891   4.703   9.726 -0.4569  0.4649  0.2130
  781MOL0     C 7661   8.043   4.735   9.679  0.2825  0.3821 -0.4356
  781MOL0     C 7662   8.132   4.751   9.806 -0.7686  1.1053 -0.1026
  781MOL0     C 7663   8.284   4.738   9.773 -0.4408 -0.8128 -0.1355
  781MOL0     O 7664   8.331   4.864   9.724  0.1983  0.3727 -0.2320
  781MOL0     C 7665   8.467   4.865   9.703 -0.0919  0.5855 -0.3974
  781MOL0     C 7666   8.539   4.776   9.621  0.7559 -0.0427 -0.2744
  781MOL0     C 7667   8.672   4.788   9.595  0.6261  0.0485  0.3409
  781MOL0     C 7668   8.741   4.679   9.514  0.2474  0.0981 -0.3207
  781MOL0     C 7669   8.738   4.886   9.664  0.3520 -0.1490  0.1768
  781MOL0     C 7670   8.888   4.896   9.665 -0.4835 -0.1746 -0.6813
  781MOL0     O 7671   8.950   4.943   9.782 -0.3394 -0.3219 -0.0606
  781MOL0     C 7672   9.087   4.970   9.770  0.6205 -0.0613 -0.8912
  781MOL0     C 7673   9.183   4.867   9.764 -0.3342 -0.8286  0.2979
  781MOL0     C 7674   9.320   4.908   9.768  0.3778  0.0165  0.8917
  781MOL0     C 7675   9.356   5.040   9.789  0.0513 -0.6147  0.2232
  781MOL0     O 7676   9.487   5.078   9.799 -0.2441  0.2469 -0.3451
  781MOL0     C 7677   9.600   4.983   9.772  0.5987  0.2260  0.6147
  781MOL0     C 7678   9.722   5.065   9.717 -0.9614 -0.4341  0.4020
  781MOL0     C 7679   9.841   4.972   9.657  0.2126  0.0007 -0.5943
  781MOL0     C 7680   9.972   5.048   9.651 -0.4948 -0.6540  0.0340
  781MOL0     C 7681  10.091   4.962   9.626  0.8814  0.2800  0.7565
  781MOL0     C 7682  10.188   5.016   9.521 -0.3380  0.2118 -0.1464
  781MOL0     C 7683  10.328   4.956   9.529 -0.2443 -0.2995 -1.2623
  781MOL0     C 7684  10.440   5.031   9.450  0.0465  0.3737 -0.2829
  781MOL0    Cl 7685  10.583   5.011   9.534 -0.5360 -0.7206  0.0610
  781MOL0     C 7686   9.256   5.137   9.800  0.1730  0.8222  0.6797
  781MOL0     C 7687   9.122   5.103   9.779 -0.8452 -0.0938  0.1995
  781MOL0     O 7688   8.940   4.881   9.555 -1.0223 -0.2180  0.1861
  781MOL0     C 7689   8.673   4.976   9.748  0.6740  0.3752 -0.5799
  781MOL0     C 7690   8.532   4.965   9.762 -0.7258 -0.0029 -0.4689
  781MOL0     N 7691   7.754   4.805   9.531 -0.4169 -0.6497 -0.1423
  781MOL0     N 7692   7.718   4.762   9.423 -0.8584  0.0548  0.0538
  781MOL0     C 7693   8.457   4.334   9.763 -0.7106  0.4530 -0.2338
  781MOL0     C 7694   8.511   4.229   9.845  0.1699 -0.0121 -0.3216
  781MOL0     C 7695   8.740   3.891  10.024  0.2137  0.0479  1.4726
  781MOL0     C 7696   8.661   3.782   9.974 -0.4733  0.5789 -0.1452
  781MOL0     C 7697   8.643   3.660  10.043  0.7075  0.4781 -0.6788
  781MOL0     C 7698   8.707   3.643  10.169 -0.1163 -0.8211  0.8257
  781MOL0     O 7699   8.677   3.533  10.239  0.1232  0.4494 -0.4529
  781MOL0     C 7700   8.730   3.404  10.190  0.7706 -0.3274 -1.0216
  781MOL0     C 7701   8.672   3.285  10.256  0.1569  0.5832  0.3571
  781MOL0     C 7702   8.531   3.246  10.193  0.5440 -0.1629 -0.2573
  781MOL0     C 7703   8.413   3.336  10.244  0.3616 -0.1976  0.5909
  781MOL0     C 7704   8.295   3.301  10.169  0.2550 -0.1382 -0.8440
  781MOL0     C 7705   8.183   3.299  10.118 -0.8523  0.3103 -0.0898
  781MOL0     C 7706   8.792   3.740  10.217 -0.4037 -0.2488  0.3878
  781MOL0     C 7707   8.806   3.867  10.148 -0.3284  0.1902  0.4131
  781MOL0     C 7708   8.903   3.968  10.200  0.2897 -0.6698 -0.1570
  781MOL0     H 7709   8.717   4.089   9.606  3.4516  1.3909  0.0069
  781MOL0     H 7710   8.628   4.266   9.468 -0.9725 -1.3498 -0.6186
  781MOL0     H 7711   8.480   4.348   9.383  0.8050 -0.5526  2.3624
  781MOL0     H 7712   8.515   4.523   9.383  2.8811 -1.0481  1.2546
  781MOL0     H 7713   8.293   4.437   9.242 -1.3369 -1.3038  0.3102
  781MOL0     H 7714   8.238   4.407   9.408 -1.9041  0.7137 -2.4417
  781MOL0     H 7715   8.281   4.680   9.443  0.2305  3.9823 -2.4545
  781MOL0     H 7716   8.315   4.672   9.274 -2.2841  1.0324 -1.5958
  781MOL0     H 7717   8.054   4.582   9.398  0.9501 -0.5844  0.6866
  781MOL0     H 7718   8.092   4.747   9.345  4.0506  0.0377 -1.2951
  781MOL0     H 7719   8.113   4.506   9.157  1.7256  1.8380 -2.0769
  781MOL0     H 7720   8.133   4.672   9.124  1.6933 -1.3892  0.2580
  781MOL0     H 7721   7.883   4.699   9.197  1.7772 -1.2676  2.2020
  781MOL0     H 7722   7.901   4.605   9.044 -2.1398 -1.2198  0.7652
  781MOL0     H 7723   7.929   4.449   9.289  2.7730  2.0518 -1.3776
  781MOL0     H 7724   7.826   4.404   9.160  0.6003 -2.3261  2.2634
  781MOL0     H 7725   7.658   4.597   9.230 -0.2430 -0.6338 -0.7086
  781MOL0     H 7726   7.671   4.452   9.338 -1.3786  0.8364 -0.5240
  781MOL0     H 7727   7.872   4.501   9.554 -2.0934  0.1953  3.1166
  781MOL0     H 7728   7.879   4.605   9.775 -0.9889  1.4474  2.1518
  781MOL0     H 7729   7.839   4.785   9.776 -0.6180  0.8577 -0.5991
  781MOL0     H 7730   8.082   4.657   9.613 -0.8139  3.1191 -4.7386
  781MOL0     H 7731   8.050   4.830   9.625 -3.0379  0.3547 -1.1405
  781MOL0     H 7732   8.119   4.847   9.857  1.1174  2.2220 -1.5934
  781MOL0     H 7733   8.095   4.666   9.865 -1.3066  1.1265 -0.3984
  781MOL0     H 7734   8.332   4.716   9.869  2.0267 -0.8605 -1.3229
  781MOL0     H 7735   8.303   4.664   9.695 -1.3320  0.3867 -1.5572
  781MOL0     H 7736   8.481   4.693   9.581  0.1556  0.1491  0.1860
  781MOL0     H 7737   8.689   4.583   9.522 -0.0171 -0.4221 -5.3996
  781MOL0     H 7738   8.842   4.645   9.539  0.8484  0.2227 -2.4194
  781MOL0     H 7739   8.741   4.705   9.408  1.4104  1.5383  0.0002
  781MOL0     H 7740   9.168   4.762   9.745 -0.1382 -0.7706 -0.1954
  781MOL0     H 7741   9.400   4.835   9.763 -0.6887 -1.2856  1.8912
  781MOL0     H 7742   9.629   4.930   9.863 -1.7245 -2.1090  0.1122
  781MOL0     H 7743   9.567   4.919   9.690 -0.3791 -0.9916  1.9162
  781MOL0     H 7744   9.687   5.109   9.623  2.2627  0.4181 -0.5090
  781MOL0     H 7745   9.776   5.139   9.776  0.5063  0.6078 -2.1047
  781MOL0     H 7746   9.808   4.926   9.563 -0.9136 -0.5982  0.0733
  781MOL0     H 7747   9.852   4.890   9.729 -1.4742 -0.0001 -0.3085
  781MOL0     H 7748   9.999   5.094   9.747  0.3415  1.8372 -1.3212
  781MOL0     H 7749   9.968   5.131   9.581  0.5512 -0.0070  0.7210
  781MOL0     H 7750  10.144   4.936   9.718  0.7546 -3.5587 -0.0765
  781MOL0     H 7751  10.064   4.863   9.587  0.6844  0.9499 -0.8869
  781MOL0     H 7752  10.212   5.120   9.546  0.6386 -0.0110 -0.1156
  781MOL0     H 7753  10.142   5.005   9.423  0.4691 -2.1540 -0.3105
  781MOL0     H 7754  10.331   4.850   9.502  1.1698 -0.8517  0.8231
  781MOL0     H 7755  10.353   4.966   9.635 -0.8860  2.7956 -1.2949
  781MOL0     H 7756  10.408   5.136   9.449 -1.4704 -0.0683 -1.1912
  781MOL0     H 7757  10.450   4.990   9.349 -3.7911 -2.4427  0.2658
  781MOL0     H 7758   9.278   5.244   9.805  1.2809  0.6657 -0.2433
  781MOL0     H 7759   9.039   5.174   9.782 -2.6088 -2.0938  0.6939
  781MOL0     H 7760   8.711   5.065   9.796 -2.6277  1.3844  0.4194
  781MOL0     H 7761   8.473   5.034   9.823  1.3981 -1.2252  3.3328
  781MOL0     H 7762   8.363   4.380   9.793 -0.9118 -1.3347  2.2610
  781MOL0     H 7763   8.483   4.217   9.949  0.8243  1.4554  0.0485
  781MOL0     H 7764   8.609   3.796   9.879 -3.2676 -0.6912  1.0907
  781MOL0     H 7765   8.575   3.585  10.004  1.9525 -0.7433 -0.5820
  781MOL0     H 7766   8.708   3.388  10.083 -0.4939 -1.3505 -0.6402
  781MOL0     H 7767   8.834   3.398  10.223  0.4939  0.9720  0.1834
  781MOL0     H 7768   8.656   3.301  10.363  1.9749 -2.1553  1.1653
  781MOL0     H 7769   8.747   3.206  10.241 -1.8419 -0.9749 -2.1400
  781MOL0     H 7770   8.546   3.236  10.085  1.1136  2.5531 -0.5110
  781MOL0     H 7771   8.510   3.148  10.236 -1.2085  1.9006  4.1125
  781MOL0     H 7772   8.439   3.441  10.226  0.7404 -0.6907 -2.2543
  781MOL0     H 7773   8.390   3.325  10.350 -0.2385 -1.3833  0.3501
  781MOL0     H 7774   8.088   3.279  10.073 -1.4376  0.3536  1.0922
  781MOL0     H 7775   8.846   3.720  10.309  3.7928  3.0175 -1.0262
  781MOL0     H 7776   8.961   3.926  10.282 -0.1945 -0.0045  0.5454
  781MOL0     H 7777   8.980   3.990  10.126  1.3303 -0.8404  0.8549
  781MOL0     H 7778   8.852   4.060  10.232 -0.7485 -1.1120 -0.5074
  782MOL0     O 7779   3.234   0.484   9.769  0.2410  0.0003  0.1760
  782MOL0     C 7780   3.287   0.490   9.655  0.0961  0.3573 -0.3877
  782MOL0     O 7781   3.389   0.572   9.613 -0.3941  0.5612  0.5544
  782MOL0     C 7782   3.486   0.593   9.699  0.1903  0.5301 -0.9019
  782MOL0     C 7783   3.508   0.718   9.759  0.5311  0.7517  0.6773
  782MOL0     C 7784   3.607   0.747   9.854 -0.4773  0.0824 -0.5270
  782MOL0     C 7785   3.699   0.641   9.888 -0.0216 -0.7146 -0.5673
  782MOL0     O 7786   3.792   0.665   9.985  0.3143  0.2940 -0.4046
  782MOL0     C 7787   3.862   0.563  10.060  0.3063 -0.5034  0.0311
  782MOL0     C 7788   3.917   0.647  10.178 -0.2229 -0.5545  0.0898
  782MOL0     C 7789   4.070   0.652  10.162  0.7297  0.2030 -0.2316
  782MOL0     C 7790   4.141   0.630  10.300  1.2666  0.0962  0.1521
  782MOL0     C 7791   4.278   0.705  10.315 -0.4426  0.0837 -0.8765
  782MOL0     C 7792   4.327   0.676  10.457  0.4308  0.7426  0.5590
  782MOL0     C 7793   4.347   0.524  10.491  0.8741 -0.7452  0.5110
  782MOL0     C 7794   4.416   0.464  10.373 -0.1799  0.5286  1.0310
  782MOL0     N 7795   4.456   0.321  10.398 -0.0008 -0.4234  0.9001
  782MOL0     C 7796   4.383   0.206  10.365 -0.3458 -0.0618 -0.7782
  782MOL0     C 7797   4.464   0.103  10.389  0.1770 -0.1189  0.7158
  782MOL0     C 7798   4.427  -0.034  10.332 -0.1352 -0.2185 -0.2455
  782MOL0     C 7799   4.529  -0.074  10.221  0.3325  0.2513 -0.6737
  782MOL0     C 7800   4.458  -0.181  10.149  0.5723  0.9417 -0.2087
  782MOL0     C 7801   4.545  -0.277  10.063 -0.4376 -0.0489  1.2976
  782MOL0     O 7802   4.644  -0.349  10.142  0.5248  0.4988  0.3573
  782MOL0     C 7803   4.776  -0.382  10.095 -0.5058 -1.1492 -0.5489
  782MOL0     C 7804   4.813  -0.379   9.954  0.2168 -0.6782 -0.9165
  782MOL0     C 7805   4.943  -0.402   9.911 -0.9332 -1.0606 -0.1829
  782MOL0     C 7806   4.971  -0.388   9.760 -0.7148 -0.0045 -0.7142
  782MOL0     C 7807   5.044  -0.419  10.012 -0.0160  1.2335 -0.9477
  782MOL0     C 7808   5.195  -0.432   9.978 -0.2367 -0.8165  0.1884
  782MOL0     O 7809   5.280  -0.476  10.075  0.0482  0.1746 -0.1852
  782MOL0     C 7810   5.419  -0.464  10.051  0.4664  0.6701 -0.3443
  782MOL0     C 7811   5.488  -0.345  10.015  0.5846 -0.0474  0.4219
  782MOL0     C 7812   5.624  -0.332   9.993  0.0181  0.4644  0.2561
  782MOL0     C 7813   5.703  -0.447  10.003 -0.6160 -0.2997  0.4308
  782MOL0     O 7814   5.836  -0.439   9.957  0.8335 -0.2187 -0.4582
  782MOL0     C 7815   5.928  -0.542   9.964  0.5771  0.3015 -0.1900
  782MOL0     C 7816   6.064  -0.483   9.912 -0.1727  1.0505  0.5369
  782MOL0     C 7817   6.181  -0.580   9.925 -0.3668  0.1565  0.8216
  782MOL0     C 7818   6.283  -0.541  10.036  0.0192 -0.0689  0.1825
  782MOL0     C 7819   6.368  -0.422   9.991  0.0647 -1.1181  0.4021
  782MOL0     C 7820   6.442  -0.352  10.096  0.1649  0.1678 -0.3175
  782MOL0     C 7821   6.536  -0.259  10.024 -0.7373 -0.1081  0.3751
  782MOL0     C 7822   6.628  -0.187  10.120  0.9174  0.3406  0.2114
  782MOL0    Cl 7823   6.737  -0.298  10.204 -0.5659  0.4810 -0.5932
  782MOL0     C 7824   5.640  -0.572  10.028  0.4420  0.2650  0.9364
  782MOL0     C 7825   5.501  -0.582  10.054  0.4297 -0.5649 -0.3280
  782MOL0     O 7826   5.240  -0.390   9.866 -0.3631 -0.9067  0.0815
  782MOL0     C 7827   5.013  -0.420  10.152  1.5047 -0.5382 -1.0096
  782MOL0     C 7828   4.875  -0.397  10.189 -0.4477  0.1250  0.2734
  782MOL0     N 7829   4.584   0.150  10.432 -0.0712  0.5133 -0.8172
  782MOL0     N 7830   4.581   0.280  10.434 -0.1109  0.5364 -0.5604
  782MOL0     C 7831   3.680   0.519   9.836  0.2747  0.9005  0.5228
  782MOL0     C 7832   3.575   0.491   9.745  0.6118  0.6193  0.6306
  782MOL0     C 7833   3.235   0.391   9.546 -0.3105  0.0122 -0.6223
  782MOL0     C 7834   3.259   0.420   9.412 -0.8385  0.3316 -0.1145
  782MOL0     C 7835   3.216   0.337   9.310  0.7204 -0.0244 -0.6873
  782MOL0     C 7836   3.156   0.220   9.333 -0.2573  0.4736 -0.3276
  782MOL0     O 7837   3.114   0.127   9.242 -0.1411  0.4808  0.3496
  782MOL0     C 7838   3.125   0.149   9.105 -0.6294 -0.2558  0.2076
  782MOL0     C 7839   3.018   0.054   9.041 -0.5847  0.2001  0.1272
  782MOL0     C 7840   3.029  -0.099   9.079 -0.7398 -0.0731  0.0148
  782MOL0     C 7841   3.136  -0.178   9.014 -0.8511 -0.4805 -0.0059
  782MOL0     C 7842   3.114  -0.197   8.864 -0.3947  0.3176 -1.2379
  782MOL0     C 7843   3.112  -0.194   8.743 -0.1314 -1.0661 -0.1306
  782MOL0     C 7844   3.119   0.199   9.470 -0.0876  0.2494  0.1206
  782MOL0     C 7845   3.166   0.271   9.577 -0.1543 -0.0362  0.2363
  782MOL0     C 7846   3.140   0.222   9.713  0.2224 -0.2015 -0.0846
  782MOL0     H 7847   3.435   0.791   9.726 -3.2105 -4.0880 -3.5009
  782MOL0     H 7848   3.616   0.846   9.899 -0.6769  0.0003 -0.3023
  782MOL0     H 7849   3.944   0.524  10.000  2.8427  0.8539  2.3903
  782MOL0     H 7850   3.795   0.483  10.093  0.9637 -1.1637 -0.2393
  782MOL0     H 7851   3.892   0.752  10.195  0.7981 -0.5332  1.7176
  782MOL0     H 7852   3.884   0.604  10.273 -0.8750 -2.4357 -0.9368
  782MOL0     H 7853   4.104   0.586  10.082 -3.4369  0.1845 -2.2659
  782MOL0     H 7854   4.084   0.756  10.133  1.2361  0.7457  1.7554
  782MOL0     H 7855   4.075   0.667  10.379  1.4192 -1.8228  1.2458
  782MOL0     H 7856   4.153   0.522  10.316  0.3047 -0.0276  0.1197
  782MOL0     H 7857   4.262   0.813  10.304  0.9619  0.1428 -2.6530
  782MOL0     H 7858   4.345   0.672  10.235  1.7499 -0.4456  1.0826
  782MOL0     H 7859   4.428   0.718  10.468  2.2174 -3.5997  4.8428
  782MOL0     H 7860   4.257   0.728  10.522 -0.9904  3.1029 -2.6274
  782MOL0     H 7861   4.251   0.477  10.516  0.6839  0.0703  1.3979
  782MOL0     H 7862   4.407   0.524  10.583  1.0781  1.4582  0.4326
  782MOL0     H 7863   4.357   0.471  10.281  1.3746  1.6635  0.0772
  782MOL0     H 7864   4.504   0.522  10.345  0.5365 -1.0477 -0.1193
  782MOL0     H 7865   4.286   0.201  10.316 -2.1552  1.4593  2.3491
  782MOL0     H 7866   4.325  -0.036  10.293 -0.3645 -1.1878  0.3652
  782MOL0     H 7867   4.438  -0.096  10.421 -1.2608  0.9408  0.7461
  782MOL0     H 7868   4.553   0.013  10.159 -2.7304  1.7694  0.0617
  782MOL0     H 7869   4.623  -0.109  10.266 -1.2028 -0.6594  2.0450
  782MOL0     H 7870   4.396  -0.245  10.214  2.9607 -1.9325 -0.5279
  782MOL0     H 7871   4.381  -0.139  10.084  1.3132  2.3340 -0.2291
  782MOL0     H 7872   4.479  -0.348  10.011 -1.4668  1.3011  0.6861
  782MOL0     H 7873   4.606  -0.215   9.997 -0.2248 -1.8661 -0.3225
  782MOL0     H 7874   4.733  -0.361   9.884 -0.2976  1.0948  0.0514
  782MOL0     H 7875   5.006  -0.287   9.738 -2.0187  0.6158 -0.0440
  782MOL0     H 7876   4.883  -0.407   9.698 -1.6785  1.6192  0.0875
  782MOL0     H 7877   5.057  -0.452   9.738 -0.0773  1.4549 -2.7112
  782MOL0     H 7878   5.440  -0.249  10.002 -1.1110 -1.0525 -1.2707
  782MOL0     H 7879   5.658  -0.235   9.960  1.7511 -0.9067 -2.3414
  782MOL0     H 7880   5.942  -0.589  10.062  0.4680 -0.3518 -0.4834
  782MOL0     H 7881   5.882  -0.618   9.900 -1.1683  1.1796 -0.0261
  782MOL0     H 7882   6.052  -0.464   9.805  0.0305 -0.6395  0.1825
  782MOL0     H 7883   6.082  -0.388   9.963  1.0487  0.8389  0.5429
  782MOL0     H 7884   6.237  -0.585   9.831  0.4412 -0.8408  1.3319
  782MOL0     H 7885   6.141  -0.680   9.941  1.4994 -1.0389 -1.3298
  782MOL0     H 7886   6.353  -0.624  10.052 -0.4599 -0.2848  1.2485
  782MOL0     H 7887   6.232  -0.518  10.130  0.6676  1.6406  0.1521
  782MOL0     H 7888   6.432  -0.461   9.911 -0.7985 -1.8279  0.0401
  782MOL0     H 7889   6.303  -0.344   9.952  1.4918  0.1748  0.5337
  782MOL0     H 7890   6.486  -0.419  10.171 -0.6222 -0.4735 -0.4137
  782MOL0     H 7891   6.370  -0.296  10.157 -2.1436  1.0185 -3.5946
  782MOL0     H 7892   6.470  -0.178   9.993  0.0073  0.7483  0.9845
  782MOL0     H 7893   6.594  -0.296   9.939 -0.7349  2.5454 -0.8829
  782MOL0     H 7894   6.566  -0.128  10.188  0.6072 -0.0800  0.2983
  782MOL0     H 7895   6.685  -0.109  10.067  0.6490  1.6588  1.8008
  782MOL0     H 7896   5.702  -0.661  10.028 -0.8397 -0.6486  0.9183
  782MOL0     H 7897   5.460  -0.681  10.074 -0.2122 -0.8667 -2.7527
  782MOL0     H 7898   5.079  -0.424  10.238 -1.2426 -0.9344  1.2398
  782MOL0     H 7899   4.834  -0.388  10.289 -2.5055  0.8357 -0.5750
  782MOL0     H 7900   3.739   0.431   9.859 -3.4544 -2.0109 -0.0836
  782MOL0     H 7901   3.560   0.392   9.702  0.4958  1.7678 -2.1513
  782MOL0     H 7902   3.311   0.514   9.394 -1.5378  0.2816 -2.7147
  782MOL0     H 7903   3.240   0.378   9.212  0.6303 -0.6849 -0.9871
  782MOL0     H 7904   3.099   0.251   9.076  3.6977  0.6043 -1.4753
  782MOL0     H 7905   3.225   0.119   9.073 -0.5539  0.2390 -0.0252
  782MOL0     H 7906   3.024   0.055   8.931  0.2053  2.0549  0.1610
  782MOL0     H 7907   2.921   0.090   9.076 -0.7232  0.0679 -0.1163
  782MOL0     H 7908   3.043  -0.112   9.187  0.4549  0.4606 -0.0558
  782MOL0     H 7909   2.928  -0.131   9.052 -1.0563 -0.7264  1.8200
  782MOL0     H 7910   3.141  -0.275   9.064  1.4237  0.6014  2.0423
  782MOL0     H 7911   3.227  -0.118   9.017 -2.2249  2.7648 -6.0811
  782MOL0     H 7912   3.103  -0.194   8.637  1.9531 -1.8923 -0.3700
  782MOL0     H 7913   3.065   0.109   9.499 -0.2450  0.6872  1.2050
  782MOL0     H 7914   3.092   0.124   9.723 -0.0916  0.1226  2.3052
  782MOL0     H 7915   3.242   0.222   9.752 -0.0655  0.4817  0.7062
  782MOL0     H 7916   3.089   0.295   9.777 -0.2998 -0.8534  0.2643
  783MOL0     O 7917  10.494   2.702   9.476  0.1420  0.5172 -0.5782
  783MOL0     C 7918  10.406   2.628   9.522  0.3004 -0.1530 -0.0687
  783MOL0     O 7919  10.412   2.570   9.647  0.2776 -0.7846 -0.1975
  783MOL0     C 7920  10.525   2.603   9.717  0.5187  1.1769  0.4086
  783MOL0     C 7921  10.522   2.692   9.820  0.6171  0.2195 -0.1949
  783MOL0     C 7922  10.635   2.733   9.890 -0.5428  0.6817  1.0030
  783MOL0     C 7923  10.760   2.690   9.858 -0.0457  1.0291  0.4163
  783MOL0     O 7924  10.863   2.752   9.920  0.2473  0.3855 -0.2270
  783MOL0     C 7925  10.995   2.730   9.871 -0.5484  0.4260 -0.5222
  783MOL0     C 7926  11.084   2.828   9.951 -0.0323  0.4789 -0.4545
  783MOL0     C 7927  11.227   2.773   9.970 -0.1224 -0.5159  0.3658
  783MOL0     C 7928  11.305   2.767   9.840 -1.0982 -0.2028  0.8933
  783MOL0     C 7929  11.447   2.706   9.858 -1.1746 -0.5819 -0.3051
  783MOL0     C 7930  11.449   2.557   9.832  0.0403 -0.1843  0.3986
  783MOL0     C 7931  11.591   2.498   9.855 -0.6779  0.0371  0.3127
  783MOL0     C 7932  11.712   2.570   9.779  1.3290 -0.0952  0.5515
  783MOL0     N 7933  11.696   2.583   9.637 -0.3559  1.1644 -0.6797
  783MOL0     C 7934  11.651   2.487   9.556 -0.7685 -1.5375 -0.8023
  783MOL0     C 7935  11.649   2.551   9.438  0.1497 -0.4756  0.3986
  783MOL0     C 7936  11.596   2.494   9.311 -0.8164 -0.1647  0.3193
  783MOL0     C 7937  11.686   2.403   9.238 -0.0085 -0.3366  0.0217
  783MOL0     C 7938  11.814   2.481   9.206 -1.4206 -0.4539 -0.1990
  783MOL0     C 7939  11.897   2.397   9.107 -0.1975  0.4778  0.2768
  783MOL0     O 7940  11.966   2.278   9.130 -0.4729  0.2880 -0.7478
  783MOL0     C 7941  12.087   2.279   9.203  0.2862 -0.2555 -0.2784
  783MOL0     C 7942  12.145   2.397   9.244  0.5311 -0.2030  0.3063
  783MOL0     C 7943  12.273   2.397   9.302 -0.0810  0.3542 -0.1462
  783MOL0     C 7944  12.319   2.534   9.362 -0.8232  0.7207 -0.0796
  783MOL0     C 7945  12.340   2.276   9.326 -0.4071  0.2439  0.0444
  783MOL0     C 7946  12.478   2.261   9.389  0.0660  0.4626  1.0444
  783MOL0     O 7947  12.538   2.143   9.414  0.2710  0.6221 -0.0546
  783MOL0     C 7948  12.672   2.139   9.431  0.3197 -0.3087 -0.7925
  783MOL0     C 7949  12.744   2.204   9.527 -0.0620  0.7261 -0.1125
  783MOL0     C 7950  12.881   2.193   9.545 -0.3458  0.3626 -0.7840
  783MOL0     C 7951  12.951   2.107   9.451 -0.3075 -1.1487 -0.0692
  783MOL0     O 7952  13.093   2.114   9.439  0.8212  0.7550 -0.5713
  783MOL0     C 7953  13.171   2.104   9.558  0.1531 -0.8394  0.2341
  783MOL0     C 7954  13.313   2.073   9.518  0.8546  0.7440 -1.2287
  783MOL0     C 7955  13.392   2.171   9.434 -0.0977  0.0216  0.2203
  783MOL0     C 7956  13.535   2.138   9.436  0.7342  0.0099  0.2044
  783MOL0     C 7957  13.603   2.240   9.339  0.6686 -0.9047  0.6098
  783MOL0     C 7958  13.760   2.221   9.321 -0.2162 -0.3011 -0.0568
  783MOL0     C 7959  13.845   2.192   9.444 -0.0790  0.0658  0.0987
  783MOL0     C 7960  13.998   2.221   9.422  0.0710 -1.5420 -0.0868
  783MOL0    Cl 7961  14.061   2.240   9.592  0.1754 -0.0826  0.2361
  783MOL0     C 7962  12.874   2.041   9.366 -0.9397  0.6111  0.1565
  783MOL0     C 7963  12.735   2.053   9.353 -0.2369 -0.9053  0.2323
  783MOL0     O 7964  12.534   2.361   9.416  0.1708 -0.5263  0.4225
  783MOL0     C 7965  12.279   2.159   9.281 -0.6166  0.3468  0.1909
  783MOL0     C 7966  12.158   2.161   9.223  0.1498 -0.0598 -0.1911
  783MOL0     N 7967  11.705   2.677   9.449 -0.2448  0.0112  0.4422
  783MOL0     N 7968  11.723   2.699   9.573  0.5631 -0.4033  0.4714
  783MOL0     C 7969  10.772   2.605   9.744  1.0195  0.3306 -0.0774
  783MOL0     C 7970  10.655   2.557   9.675  0.6342 -0.3382 -0.6368
  783MOL0     C 7971  10.288   2.598   9.444  0.0926  0.8056 -1.1102
  783MOL0     C 7972  10.168   2.576   9.509  0.3552 -0.1827 -1.1843
  783MOL0     C 7973  10.044   2.566   9.449  0.5343 -0.0412  0.2046
  783MOL0     C 7974  10.042   2.563   9.310 -0.1384 -0.0115 -0.9935
  783MOL0     O 7975   9.929   2.552   9.228 -0.1712  0.6665  0.5584
  783MOL0     C 7976   9.883   2.669   9.154  0.3366 -0.1365 -0.3803
  783MOL0     C 7977   9.733   2.667   9.150  0.5734  0.1931  0.0923
  783MOL0     C 7978   9.668   2.644   9.291 -0.3666 -0.5683 -0.4900
  783MOL0     C 7979   9.511   2.635   9.290  0.3090 -0.1376  0.7361
  783MOL0     C 7980   9.445   2.509   9.260 -0.1474  0.7952  1.0411
  783MOL0     C 7981   9.400   2.397   9.237 -0.4058 -0.1864 -0.2164
  783MOL0     C 7982  10.170   2.550   9.237 -0.4741 -0.4366  0.2576
  783MOL0     C 7983  10.292   2.573   9.304  0.3862 -0.1899  0.7537
  783MOL0     C 7984  10.418   2.580   9.213 -0.0596  0.1921  0.8141
  783MOL0     H 7985  10.432   2.743   9.853 -1.0168 -1.6499 -1.5227
  783MOL0     H 7986  10.630   2.814   9.962 -0.9949  1.5488  0.0314
  783MOL0     H 7987  11.008   2.747   9.764  2.0158 -3.2376 -0.9779
  783MOL0     H 7988  11.030   2.628   9.892  3.2816  1.7913  0.5555
  783MOL0     H 7989  11.085   2.925   9.901 -1.8521 -0.1501 -1.7869
  783MOL0     H 7990  11.050   2.841  10.054 -1.6861 -0.5833 -0.8247
  783MOL0     H 7991  11.274   2.850  10.032 -2.8099 -0.4320  2.4821
  783MOL0     H 7992  11.233   2.683  10.031  3.1792 -0.8863 -0.3033
  783MOL0     H 7993  11.250   2.709   9.766 -1.0344 -2.1961  2.3138
  783MOL0     H 7994  11.316   2.872   9.810 -2.5287  0.4635  2.4941
  783MOL0     H 7995  11.491   2.718   9.958 -0.7277 -1.1112 -0.4318
  783MOL0     H 7996  11.510   2.763   9.789  1.5530 -0.9341  1.7095
  783MOL0     H 7997  11.383   2.499   9.896 -2.2648 -2.1613 -3.3824
  783MOL0     H 7998  11.425   2.535   9.727  0.1895  0.6540  0.1860
  783MOL0     H 7999  11.597   2.392   9.829 -0.3603  0.1432 -0.0584
  783MOL0     H 8000  11.628   2.491   9.958  2.6443  0.5407 -0.7418
  783MOL0     H 8001  11.720   2.665   9.833 -1.1635  0.4745  0.0611
  783MOL0     H 8002  11.806   2.516   9.798  1.9633  0.9941  0.5753
  783MOL0     H 8003  11.630   2.387   9.591  0.8402 -1.1008  1.6688
  783MOL0     H 8004  11.572   2.575   9.242 -2.1950 -1.8397 -1.2603
  783MOL0     H 8005  11.502   2.443   9.333 -0.7244 -1.6527 -2.3766
  783MOL0     H 8006  11.705   2.312   9.296  0.1362 -0.1502  0.2733
  783MOL0     H 8007  11.634   2.374   9.147  0.4131 -3.7060  0.7108
  783MOL0     H 8008  11.794   2.578   9.161  0.5990  0.7560  1.3615
  783MOL0     H 8009  11.881   2.498   9.290  1.1336  3.7681 -2.7654
  783MOL0     H 8010  11.832   2.381   9.021 -0.0038  3.3506 -0.5095
  783MOL0     H 8011  11.973   2.460   9.060  1.6379 -0.4425  1.8744
  783MOL0     H 8012  12.097   2.495   9.234 -1.2410 -1.0642 -0.0591
  783MOL0     H 8013  12.258   2.623   9.345 -0.6818  0.7305 -0.5664
  783MOL0     H 8014  12.422   2.548   9.329  0.4716 -4.1409  1.0900
  783MOL0     H 8015  12.320   2.525   9.471 -1.0736  3.1147  0.1592
  783MOL0     H 8016  12.688   2.260   9.601 -0.4200  1.5552 -0.9864
  783MOL0     H 8017  12.938   2.254   9.615 -1.1129 -0.4764  0.6095
  783MOL0     H 8018  13.167   2.203   9.604  1.4541 -1.0074  0.7291
  783MOL0     H 8019  13.136   2.023   9.623  2.7112 -2.3092 -0.0859
  783MOL0     H 8020  13.358   2.048   9.614  1.0510  3.9075 -0.3801
  783MOL0     H 8021  13.298   1.978   9.465  0.4125  0.4396 -0.5744
  783MOL0     H 8022  13.374   2.272   9.474  0.2726  1.4153 -2.8051
  783MOL0     H 8023  13.351   2.185   9.333  0.0689  0.6775  0.2324
  783MOL0     H 8024  13.538   2.034   9.402 -2.2639 -0.3155  0.6893
  783MOL0     H 8025  13.585   2.153   9.532  2.4232  2.5503 -0.9494
  783MOL0     H 8026  13.544   2.246   9.247 -0.1212  0.9529  1.1977
  783MOL0     H 8027  13.587   2.337   9.388 -2.0582 -1.5339  1.1193
  783MOL0     H 8028  13.799   2.317   9.285  1.5386 -0.0667  2.2761
  783MOL0     H 8029  13.780   2.136   9.255 -1.5453 -1.4419  0.9664
  783MOL0     H 8030  13.827   2.085   9.459  3.2259 -0.6471 -0.2989
  783MOL0     H 8031  13.805   2.251   9.527 -2.4813  0.7167 -1.4328
  783MOL0     H 8032  14.011   2.317   9.371 -1.8308 -0.2375  1.7174
  783MOL0     H 8033  14.047   2.135   9.374  0.5746 -1.6401  0.6019
  783MOL0     H 8034  12.916   1.977   9.290 -3.0966  1.9787 -2.3408
  783MOL0     H 8035  12.673   2.004   9.278  0.2339 -0.2252 -0.6130
  783MOL0     H 8036  12.307   2.054   9.290 -3.5215 -0.7034 -1.8588
  783MOL0     H 8037  12.104   2.073   9.189 -0.7190  0.8866 -1.3563
  783MOL0     H 8038  10.866   2.585   9.694 -0.2847 -2.5338 -1.5828
  783MOL0     H 8039  10.682   2.483   9.601  0.1452 -0.2318 -0.9236
  783MOL0     H 8040  10.165   2.583   9.618  0.7500  0.7354 -1.2220
  783MOL0     H 8041   9.960   2.569   9.518 -0.0944  4.5289 -0.4537
  783MOL0     H 8042   9.919   2.762   9.199  0.9829 -0.1000 -0.9488
  783MOL0     H 8043   9.931   2.671   9.056  1.6924 -4.0513  0.0297
  783MOL0     H 8044   9.715   2.586   9.078  0.8475  0.2798 -0.0730
  783MOL0     H 8045   9.696   2.760   9.105 -0.0417  0.2920  0.7834
  783MOL0     H 8046   9.719   2.562   9.342  0.2964 -0.4050 -0.8700
  783MOL0     H 8047   9.699   2.728   9.354  0.4010 -0.6988 -0.6816
  783MOL0     H 8048   9.476   2.703   9.212 -1.1228 -0.1643  1.3285
  783MOL0     H 8049   9.470   2.665   9.387  0.3306 -0.0066  0.7054
  783MOL0     H 8050   9.355   2.305   9.204 -1.1946 -0.1679  0.7676
  783MOL0     H 8051  10.166   2.527   9.131  2.3621 -0.2090  0.0128
  783MOL0     H 8052  10.501   2.523   9.257 -1.3395 -0.8119  2.0610
  783MOL0     H 8053  10.401   2.537   9.114  1.2039 -0.6227  0.9235
  783MOL0     H 8054  10.455   2.682   9.198  0.5879  0.0457  1.3590
  784MOL0     O 8055   3.821   4.079   0.899 -0.7819 -0.1062  0.0426
  784MOL0     C 8056   3.838   4.141   0.789  0.3220  0.2345 -0.0501
  784MOL0     O 8057   3.755   4.247   0.749 -0.2248 -0.1946 -0.3974
  784MOL0     C 8058   3.612   4.234   0.776  0.1702 -0.4735 -0.2192
  784MOL0     C 8059   3.536   4.315   0.858 -0.3973  0.5197  0.0323
  784MOL0     C 8060   3.400   4.290   0.892 -0.4948 -0.3567 -0.5244
  784MOL0     C 8061   3.336   4.173   0.845 -0.7344 -0.3079  0.6213
  784MOL0     O 8062   3.203   4.148   0.883 -0.7825  1.0224 -0.0752
  784MOL0     C 8063   3.126   4.069   0.786 -0.2771  0.3054 -1.2236
  784MOL0     C 8064   2.982   4.073   0.838  0.2357  0.8274  0.3921
  784MOL0     C 8065   2.896   4.012   0.724 -0.4670  0.3891 -0.7253
  784MOL0     C 8066   2.758   3.971   0.772  0.1182 -0.6085 -0.3552
  784MOL0     C 8067   2.679   3.886   0.667 -0.2641 -0.4982  0.3767
  784MOL0     C 8068   2.608   3.780   0.749  0.5030  0.1189  0.4032
  784MOL0     C 8069   2.528   3.691   0.659  0.2399  0.7574  0.3331
  784MOL0     C 8070   2.441   3.600   0.749 -0.4084  0.3966  0.0824
  784MOL0     N 8071   2.337   3.526   0.672  0.9330 -0.3313  0.0203
  784MOL0     C 8072   2.346   3.390   0.629  1.0586  0.4604 -0.2217
  784MOL0     C 8073   2.223   3.371   0.571 -0.3203  0.4184  0.7556
  784MOL0     C 8074   2.177   3.250   0.497 -0.3378 -0.4156 -0.2706
  784MOL0     C 8075   2.026   3.229   0.513 -0.3148  0.3907  0.0010
  784MOL0     C 8076   1.973   3.112   0.429 -0.2161 -0.1679  0.0437
  784MOL0     C 8077   1.819   3.114   0.441 -0.0262  0.5474  0.2995
  784MOL0     O 8078   1.763   3.106   0.577 -0.6274 -0.1228 -0.1050
  784MOL0     C 8079   1.639   3.049   0.587  0.9023 -0.5727  0.4201
  784MOL0     C 8080   1.596   2.973   0.682  0.0144  0.4723 -0.1813
  784MOL0     C 8081   1.459   2.933   0.700 -0.4381 -0.2806  0.6948
  784MOL0     C 8082   1.440   2.836   0.813 -0.9703 -0.1894  1.1143
  784MOL0     C 8083   1.357   2.995   0.631 -0.4306 -0.7636 -0.4615
  784MOL0     C 8084   1.215   2.970   0.656  0.3192  0.3270 -0.4115
  784MOL0     O 8085   1.165   2.884   0.750  0.1143  0.1897 -0.3360
  784MOL0     C 8086   1.028   2.883   0.769 -0.9367  0.2338  0.8022
  784MOL0     C 8087   0.938   2.840   0.674  0.0388  0.5954 -0.6831
  784MOL0     C 8088   0.800   2.852   0.694  0.2160  0.8068 -0.3775
  784MOL0     C 8089   0.743   2.899   0.817  0.4787  0.2985 -0.1658
  784MOL0     O 8090   0.607   2.888   0.841 -0.7124 -0.2510 -0.6998
  784MOL0     C 8091   0.581   2.789   0.939  1.6357 -0.0091  0.0718
  784MOL0     C 8092   0.437   2.818   0.983  0.1287 -0.6224  0.4680
  784MOL0     C 8093   0.353   2.684   0.999 -0.4087 -0.7032  1.1321
  784MOL0     C 8094   0.205   2.697   1.043  1.1688  0.2985  0.1427
  784MOL0     C 8095   0.147   2.556   1.072 -0.0254  0.0271  0.1860
  784MOL0     C 8096   0.009   2.584   1.143 -0.0177  0.1436  0.6436
  784MOL0     C 8097  -0.064   2.453   1.194  0.0019 -0.9981  0.5495
  784MOL0     C 8098   0.005   2.401   1.322  0.6158  0.1211 -0.5213
  784MOL0    Cl 8099  -0.122   2.287   1.401 -0.4096  0.4726  0.1784
  784MOL0     C 8100   0.840   2.932   0.919  0.1392  0.5678  0.1055
  784MOL0     C 8101   0.977   2.933   0.886 -0.1028  0.0835  0.0660
  784MOL0     O 8102   1.145   3.035   0.580 -0.1402  0.7078 -0.7719
  784MOL0     C 8103   1.402   3.081   0.531 -0.2969  0.8024 -0.2608
  784MOL0     C 8104   1.539   3.112   0.507 -0.7925  0.3135 -0.0438
  784MOL0     N 8105   2.153   3.489   0.572 -0.3396 -0.2544  0.3260
  784MOL0     N 8106   2.219   3.583   0.623  0.0357  0.0995 -0.4180
  784MOL0     C 8107   3.416   4.087   0.758 -0.0104  0.4743 -0.1021
  784MOL0     C 8108   3.553   4.115   0.730 -0.5492  0.3512 -0.2866
  784MOL0     C 8109   3.961   4.114   0.709 -0.2523  0.0278  0.1018
  784MOL0     C 8110   3.951   4.018   0.608  0.2286 -1.0677 -0.6512
  784MOL0     C 8111   4.063   3.987   0.527  0.4116  1.0241 -0.2111
  784MOL0     C 8112   4.187   4.045   0.551 -0.2928  0.1946  0.5269
  784MOL0     O 8113   4.310   4.019   0.488  0.1982 -0.1301  0.1666
  784MOL0     C 8114   4.301   3.936   0.367  1.0700 -0.1547 -0.4078
  784MOL0     C 8115   4.443   3.913   0.317  0.2839  0.0435  0.5710
  784MOL0     C 8116   4.438   3.774   0.240  0.1849 -0.0713 -0.5462
  784MOL0     C 8117   4.573   3.741   0.175 -0.3000  0.9765 -0.4925
  784MOL0     C 8118   4.581   3.832   0.064  0.2094 -0.0316  0.7749
  784MOL0     C 8119   4.568   3.926  -0.008 -0.2562 -0.2441  0.5424
  784MOL0     C 8120   4.199   4.136   0.658 -0.7734  1.0619  0.6155
  784MOL0     C 8121   4.089   4.160   0.742  0.0406  0.1939 -0.3042
  784MOL0     C 8122   4.105   4.262   0.852 -0.0496  0.4784 -0.8811
  784MOL0     H 8123   3.593   4.406   0.875  2.4712 -0.4927 -2.9147
  784MOL0     H 8124   3.341   4.341   0.967 -2.7318  0.1932 -2.5261
  784MOL0     H 8125   3.165   3.967   0.785 -0.4727  0.2205 -2.8980
  784MOL0     H 8126   3.139   4.101   0.682 -0.6389  0.9741 -1.0693
  784MOL0     H 8127   2.974   4.038   0.941  3.2543  1.7965  1.0413
  784MOL0     H 8128   2.957   4.179   0.846 -1.1851  0.4645  1.1881
  784MOL0     H 8129   2.887   4.081   0.640  0.7630 -2.0299 -2.9585
  784MOL0     H 8130   2.948   3.923   0.688  1.7981  1.3344  0.0320
  784MOL0     H 8131   2.776   3.910   0.860  0.3624  0.0533  0.0605
  784MOL0     H 8132   2.702   4.061   0.798  1.4819  0.1409  0.0454
  784MOL0     H 8133   2.755   3.849   0.597  0.3096  0.5143  0.4400
  784MOL0     H 8134   2.614   3.956   0.613  1.9559  1.8074  0.5155
  784MOL0     H 8135   2.674   3.716   0.809 -2.1094 -3.4666 -0.2354
  784MOL0     H 8136   2.548   3.839   0.820 -2.8261 -1.7785 -0.6441
  784MOL0     H 8137   2.598   3.628   0.603 -0.2682  1.7361 -1.4493
  784MOL0     H 8138   2.483   3.751   0.580 -1.2884 -2.7073 -1.6436
  784MOL0     H 8139   2.506   3.530   0.803 -1.4463  0.3659  1.3492
  784MOL0     H 8140   2.396   3.675   0.815  2.9378 -0.1842  3.3616
  784MOL0     H 8141   2.426   3.318   0.642  1.2803  1.0136  2.0126
  784MOL0     H 8142   2.233   3.165   0.536  0.2400  0.7685  1.6386
  784MOL0     H 8143   2.210   3.261   0.393  2.8877  1.2931  0.7866
  784MOL0     H 8144   2.003   3.215   0.619 -0.1452  0.7844  0.0891
  784MOL0     H 8145   1.974   3.316   0.473 -2.4392 -0.8842 -0.1810
  784MOL0     H 8146   2.002   3.131   0.325 -2.2229 -0.2128 -0.5591
  784MOL0     H 8147   2.003   3.014   0.468 -0.4511  0.5632  2.1963
  784MOL0     H 8148   1.806   3.217   0.406  3.1968  1.2899  0.9723
  784MOL0     H 8149   1.778   3.040   0.371 -1.1895  0.5266  0.9739
  784MOL0     H 8150   1.656   2.930   0.762 -2.6500 -1.4800  0.9400
  784MOL0     H 8151   1.383   2.882   0.895 -3.0952  0.4525 -0.6096
  784MOL0     H 8152   1.539   2.800   0.844 -1.4121 -2.8076 -0.1626
  784MOL0     H 8153   1.400   2.741   0.774 -1.6288 -1.3195  4.2044
  784MOL0     H 8154   0.978   2.792   0.585  0.8158  1.3997 -0.7800
  784MOL0     H 8155   0.741   2.827   0.606  1.0227 -3.1252  0.0165
  784MOL0     H 8156   0.590   2.692   0.890 -0.4156  1.1757 -2.9125
  784MOL0     H 8157   0.639   2.797   1.032 -0.8529 -0.2224  1.7359
  784MOL0     H 8158   0.451   2.881   1.071  1.2070  0.1143 -0.2048
  784MOL0     H 8159   0.378   2.877   0.911  0.9059  0.5011  0.7305
  784MOL0     H 8160   0.411   2.621   1.067 -0.6550 -2.4169 -0.1677
  784MOL0     H 8161   0.360   2.630   0.904 -0.4605  2.3202 -0.7400
  784MOL0     H 8162   0.144   2.739   0.962 -1.3763 -1.5889  0.9453
  784MOL0     H 8163   0.186   2.753   1.135 -1.6610  0.2315 -0.3162
  784MOL0     H 8164   0.145   2.506   0.975  2.0700  2.3365 -1.1579
  784MOL0     H 8165   0.220   2.510   1.140 -2.3003 -2.5158  1.0904
  784MOL0     H 8166  -0.053   2.656   1.089 -0.7525 -1.7903 -1.2273
  784MOL0     H 8167   0.021   2.650   1.229 -3.5901  2.0290 -0.1003
  784MOL0     H 8168  -0.074   2.372   1.121  1.1555  1.7964 -2.9932
  784MOL0     H 8169  -0.165   2.487   1.217  0.3776  1.6947 -1.4002
  784MOL0     H 8170   0.032   2.477   1.397 -1.0381 -0.5098  0.7805
  784MOL0     H 8171   0.094   2.345   1.291 -0.5561 -0.7791 -2.3883
  784MOL0     H 8172   0.807   2.965   1.017  0.3846  1.3122 -0.0534
  784MOL0     H 8173   1.058   2.960   0.954 -0.5284 -1.5364  1.2852
  784MOL0     H 8174   1.329   3.122   0.461 -0.5501  1.0979  0.1693
  784MOL0     H 8175   1.565   3.169   0.418  1.2302 -0.0609  0.2513
  784MOL0     H 8176   3.365   3.998   0.721  0.0370  0.2972  0.2463
  784MOL0     H 8177   3.601   4.040   0.668  2.2700  1.9241 -0.1639
  784MOL0     H 8178   3.852   3.976   0.590 -1.6301  2.5321  0.2077
  784MOL0     H 8179   4.051   3.917   0.444 -1.5840  1.7514 -0.5812
  784MOL0     H 8180   4.253   3.845   0.406  1.1020  0.2551  0.6206
  784MOL0     H 8181   4.255   3.986   0.281  0.7205  0.1299 -0.0615
  784MOL0     H 8182   4.510   3.890   0.400 -0.4327 -3.4625  0.3271
  784MOL0     H 8183   4.473   3.992   0.247  3.4608  1.0335  2.8361
  784MOL0     H 8184   4.421   3.695   0.314  1.7152 -0.6153 -0.7350
  784MOL0     H 8185   4.348   3.780   0.179 -1.7868  2.2451  2.3408
  784MOL0     H 8186   4.565   3.637   0.140 -2.1603 -1.2610  5.4145
  784MOL0     H 8187   4.660   3.735   0.240 -0.8916 -0.9604  0.1982
  784MOL0     H 8188   4.559   4.011  -0.073  1.2778  0.3765  1.0888
  784MOL0     H 8189   4.301   4.166   0.678 -0.6130  1.9438 -1.3314
  784MOL0     H 8190   4.105   4.206   0.946 -2.1686 -0.6145 -1.4707
  784MOL0     H 8191   4.200   4.317   0.852  1.2868 -1.6145  1.4338
  784MOL0     H 8192   4.019   4.328   0.851 -0.1307  0.3753 -2.1455
  785MOL0     O 8193   7.915  10.711   5.764 -0.7238 -0.5827 -0.1117
  785MOL0     C 8194   7.829  10.629   5.725  0.0819  0.1288 -0.7320
  785MOL0     O 8195   7.854  10.506   5.678  0.2211  0.0320 -0.0582
  785MOL0     C 8196   7.981  10.468   5.644  1.0472  0.0877 -0.0575
  785MOL0     C 8197   7.995  10.338   5.632 -0.1004 -0.3233  0.6422
  785MOL0     C 8198   8.108  10.276   5.589  0.7572  0.4116  0.0270
  785MOL0     C 8199   8.220  10.349   5.553  0.6513  0.1623 -0.1920
  785MOL0     O 8200   8.336  10.289   5.503 -0.2799  0.0408 -0.7648
  785MOL0     C 8201   8.374  10.165   5.553 -0.1365  0.0150 -1.3720
  785MOL0     C 8202   8.528  10.140   5.544  0.4140 -0.4236  0.5892
  785MOL0     C 8203   8.613  10.248   5.608  0.5127 -0.2043 -0.1721
  785MOL0     C 8204   8.750  10.207   5.621  0.6441 -0.2668 -0.1157
  785MOL0     C 8205   8.842  10.308   5.674 -0.4482 -1.5219 -0.0648
  785MOL0     C 8206   8.987  10.254   5.662 -0.7717  0.1037  0.4928
  785MOL0     C 8207   9.092  10.354   5.736  0.0753 -0.1965  0.0887
  785MOL0     C 8208   9.097  10.338   5.890 -0.0247  0.3115  0.6062
  785MOL0     N 8209   9.190  10.431   5.945  0.1853 -0.0958  0.4079
  785MOL0     C 8210   9.324  10.414   5.956  0.8209 -0.0614 -0.3955
  785MOL0     C 8211   9.361  10.528   6.032  0.4334  0.2282  1.0780
  785MOL0     C 8212   9.490  10.553   6.097 -0.3250 -0.1958  0.5042
  785MOL0     C 8213   9.532  10.457   6.215 -0.0226 -0.4431  0.8966
  785MOL0     C 8214   9.680  10.415   6.220  1.4190 -0.2484 -0.1083
  785MOL0     C 8215   9.716  10.325   6.340  0.6078 -0.8534  0.7072
  785MOL0     O 8216   9.825  10.237   6.295 -0.3992  0.6923  0.2876
  785MOL0     C 8217   9.870  10.143   6.388  0.2857 -0.6605  0.5926
  785MOL0     C 8218   9.933  10.030   6.332  0.0310  1.2742 -0.3209
  785MOL0     C 8219  10.004   9.927   6.407 -0.2048  0.5333 -0.2073
  785MOL0     C 8220  10.097   9.830   6.336 -0.7483  0.0404 -0.2151
  785MOL0     C 8221   9.977   9.933   6.548  0.2094  0.4714  0.5057
  785MOL0     C 8222  10.024   9.824   6.648  0.4642  0.6113 -0.4212
  785MOL0     O 8223  10.043   9.864   6.776  0.1825 -0.3657  0.4496
  785MOL0     C 8224  10.104   9.770   6.854 -0.2343  0.0020  0.3470
  785MOL0     C 8225  10.024   9.707   6.938  0.3504  0.9972 -0.5618
  785MOL0     C 8226  10.080   9.631   7.042  0.4085  0.2289 -0.2072
  785MOL0     C 8227  10.217   9.618   7.056 -0.9298 -0.3895 -0.5196
  785MOL0     O 8228  10.265   9.531   7.146 -0.1379  0.3498  0.4107
  785MOL0     C 8229  10.184   9.469   7.248  0.9320 -1.1388 -0.0137
  785MOL0     C 8230  10.289   9.390   7.325 -0.2341  0.3625 -1.0333
  785MOL0     C 8231  10.239   9.328   7.458  0.1853  0.5341  0.2204
  785MOL0     C 8232  10.339   9.220   7.519 -0.3774 -0.7599 -0.8888
  785MOL0     C 8233  10.278   9.137   7.635  0.6305  0.2799  0.6224
  785MOL0     C 8234  10.200   9.225   7.740  0.2365  0.5127 -0.4981
  785MOL0     C 8235  10.151   9.124   7.853  0.5116 -0.6548  0.3199
  785MOL0     C 8236  10.047   9.193   7.940 -0.6603  0.5317 -0.7684
  785MOL0    Cl 8237  10.107   9.344   8.007 -0.2811 -0.0397 -0.4021
  785MOL0     C 8238  10.305   9.691   6.967  0.0655 -0.7809 -0.3527
  785MOL0     C 8239  10.249   9.771   6.863 -0.5909  0.2420 -1.0277
  785MOL0     O 8240  10.033   9.707   6.607  0.0222 -0.3014 -0.6030
  785MOL0     C 8241   9.902  10.037   6.598 -0.4074  0.1177  0.4127
  785MOL0     C 8242   9.852  10.140   6.519  1.5572  0.6010 -1.2537
  785MOL0     N 8243   9.251  10.611   6.051  0.5281 -0.7226  0.2498
  785MOL0     N 8244   9.151  10.545   6.005 -0.0939 -0.4301  0.3101
  785MOL0     C 8245   8.209  10.487   5.561 -0.4381  0.5503  0.7548
  785MOL0     C 8246   8.096  10.548   5.609  0.7317 -0.1495 -0.0092
  785MOL0     C 8247   7.687  10.659   5.741  0.6588 -0.1803 -0.1275
  785MOL0     C 8248   7.647  10.789   5.705  0.6399 -0.0208  0.2041
  785MOL0     C 8249   7.519  10.835   5.720  0.8962 -0.2564 -0.1151
  785MOL0     C 8250   7.417  10.742   5.758 -1.1397 -0.1456 -0.6569
  785MOL0     O 8251   7.283  10.768   5.762 -0.4062  0.2657 -0.3821
  785MOL0     C 8252   7.246  10.879   5.842  1.1158 -1.0620  0.2897
  785MOL0     C 8253   7.114  10.942   5.790  0.1502 -0.9541 -0.6213
  785MOL0     C 8254   6.990  10.856   5.828  0.2523  0.2232 -0.3012
  785MOL0     C 8255   6.943  10.884   5.968  0.4235  0.1199  0.1336
  785MOL0     C 8256   6.821  10.803   5.982 -0.3742 -0.3467  0.6266
  785MOL0     C 8257   6.710  10.752   5.978  0.5097 -0.5248 -0.0233
  785MOL0     C 8258   7.444  10.608   5.792 -0.3232  0.8340  0.9511
  785MOL0     C 8259   7.583  10.563   5.784  0.4560 -1.1713 -0.2930
  785MOL0     C 8260   7.616  10.425   5.833  0.0205  0.7320  0.5650
  785MOL0     H 8261   7.912  10.269   5.651 -0.9883  0.5056 -0.1406
  785MOL0     H 8262   8.122  10.169   5.587 -0.4788  0.2442 -0.3660
  785MOL0     H 8263   8.318  10.091   5.495 -3.5462  1.4290 -0.1600
  785MOL0     H 8264   8.350  10.130   5.654  2.7408 -1.7860 -1.1960
  785MOL0     H 8265   8.550  10.051   5.603 -0.0276 -0.2045  1.0939
  785MOL0     H 8266   8.563  10.126   5.441  0.0981 -1.0844  0.5702
  785MOL0     H 8267   8.611  10.332   5.537 -1.0033 -1.3294 -1.5404
  785MOL0     H 8268   8.569  10.270   5.705  1.9996 -0.2025  0.5305
  785MOL0     H 8269   8.767  10.115   5.679  0.4238 -0.6791 -0.6953
  785MOL0     H 8270   8.782  10.186   5.519  1.5725  0.2572  0.0629
  785MOL0     H 8271   8.814  10.320   5.779 -1.3070  0.4869 -0.4846
  785MOL0     H 8272   8.821  10.402   5.623  0.5200 -1.3590 -0.1896
  785MOL0     H 8273   8.986  10.159   5.716  0.1405  0.2186  0.7280
  785MOL0     H 8274   9.024  10.233   5.562  0.4603  2.7277  0.2975
  785MOL0     H 8275   9.074  10.461   5.719  1.5888  0.4677  2.1832
  785MOL0     H 8276   9.194  10.339   5.699  1.5936  3.3774  2.2699
  785MOL0     H 8277   8.996  10.357   5.928 -0.2545 -0.7495  0.5643
  785MOL0     H 8278   9.134  10.237   5.910 -1.3779 -0.6714 -1.4963
  785MOL0     H 8279   9.390  10.331   5.930  1.5875  1.3139 -3.3464
  785MOL0     H 8280   9.495  10.654   6.139  1.6204 -0.8580  2.0436
  785MOL0     H 8281   9.573  10.551   6.026  0.6440 -0.1499  1.6052
  785MOL0     H 8282   9.514  10.515   6.306 -0.4315  2.6203 -1.0115
  785MOL0     H 8283   9.466  10.370   6.208 -2.1972  1.1599  0.5332
  785MOL0     H 8284   9.710  10.356   6.133  1.1220  1.2698 -1.2922
  785MOL0     H 8285   9.751  10.499   6.216  0.2946  0.7871  0.9002
  785MOL0     H 8286   9.755  10.380   6.426  1.4158 -1.5971  0.8337
  785MOL0     H 8287   9.624  10.271   6.363 -1.9654  3.3286  1.2935
  785MOL0     H 8288   9.933  10.015   6.225 -0.7295  2.5149 -0.5126
  785MOL0     H 8289  10.127   9.874   6.241 -0.8194 -0.9650 -0.7207
  785MOL0     H 8290  10.050   9.737   6.303  0.7071 -0.3620 -1.2558
  785MOL0     H 8291  10.189   9.809   6.391  0.2746  0.8677 -1.5537
  785MOL0     H 8292   9.917   9.721   6.944 -0.1700 -2.4609 -0.1014
  785MOL0     H 8293  10.024   9.560   7.102  2.5219 -2.4151 -1.1573
  785MOL0     H 8294  10.130   9.534   7.317  1.0574 -1.3498  0.2886
  785MOL0     H 8295  10.105   9.407   7.206 -2.5967  2.7229  0.3459
  785MOL0     H 8296  10.328   9.320   7.251  1.1438  0.2005 -0.1927
  785MOL0     H 8297  10.372   9.460   7.339 -0.5359  0.6761 -0.7651
  785MOL0     H 8298  10.140   9.283   7.449 -0.3252  1.9619 -2.1432
  785MOL0     H 8299  10.211   9.408   7.527 -3.5362 -1.4966  1.2947
  785MOL0     H 8300  10.424   9.272   7.564  1.3052 -5.1884  1.7241
  785MOL0     H 8301  10.375   9.148   7.446  2.2499  0.3243 -0.7508
  785MOL0     H 8302  10.215   9.059   7.591 -1.4645  0.4428  3.0706
  785MOL0     H 8303  10.362   9.091   7.686  1.9500  0.4778 -1.2861
  785MOL0     H 8304  10.116   9.274   7.691 -0.7376 -1.3646 -0.7828
  785MOL0     H 8305  10.263   9.305   7.779  0.9590  0.0346 -0.6542
  785MOL0     H 8306  10.237   9.082   7.905  1.3309 -0.6612 -0.9934
  785MOL0     H 8307  10.089   9.047   7.806 -1.2875  2.1650 -2.3618
  785MOL0     H 8308  10.022   9.133   8.028  3.4462  0.0902  0.3289
  785MOL0     H 8309   9.957   9.222   7.885  0.1405  0.3081 -2.2465
  785MOL0     H 8310  10.411   9.689   6.987  0.2845  0.7432 -1.2396
  785MOL0     H 8311  10.310   9.834   6.798  2.6311 -1.1599  0.4153
  785MOL0     H 8312   9.890  10.042   6.705  0.6180 -0.9957  0.6012
  785MOL0     H 8313   9.797  10.221   6.566  1.9623 -1.1345  2.5387
  785MOL0     H 8314   8.292  10.543   5.519 -0.1358  0.9438  1.8528
  785MOL0     H 8315   8.091  10.656   5.623 -1.4342 -0.2779  0.6077
  785MOL0     H 8316   7.725  10.860   5.677  0.9871 -0.0394  1.0798
  785MOL0     H 8317   7.495  10.939   5.700  0.7482 -0.4511 -1.0017
  785MOL0     H 8318   7.230  10.843   5.944 -0.3529 -0.4889  0.2827
  785MOL0     H 8319   7.322  10.957   5.842  1.4336 -1.3666 -0.1128
  785MOL0     H 8320   7.118  10.937   5.680  0.5849 -2.9618 -0.5559
  785MOL0     H 8321   7.093  11.044   5.822  1.8812 -1.1395  1.2631
  785MOL0     H 8322   6.925  10.868   5.741  1.2972 -1.5609 -1.3955
  785MOL0     H 8323   7.031  10.755   5.820  0.6771 -0.0198  3.3282
  785MOL0     H 8324   6.924  10.992   5.970  0.3980  0.1383 -0.6607
  785MOL0     H 8325   7.012  10.852   6.046  1.6309 -2.3907 -1.8286
  785MOL0     H 8326   6.616  10.699   5.977 -1.3478  2.4060  1.9366
  785MOL0     H 8327   7.357  10.545   5.808 -0.8170  1.0164 -0.7581
  785MOL0     H 8328   7.605  10.347   5.758  1.1824  1.7710 -0.7378
  785MOL0     H 8329   7.721  10.421   5.866  0.7370 -2.4762 -1.6395
  785MOL0     H 8330   7.550  10.396   5.915  1.5487  0.9765  1.9625
  786MOL0     O 8331  10.121   9.405   5.399  0.8520 -0.2453  0.4207
  786MOL0     C 8332  10.057   9.371   5.297 -0.2241  0.7276 -0.7455
  786MOL0     O 8333  10.034   9.451   5.199 -0.1180  0.4312  0.0224
  786MOL0     C 8334  10.087   9.582   5.198 -0.2669  0.0292 -0.4735
  786MOL0     C 8335  10.223   9.591   5.219  0.4303  0.1406  1.2902
  786MOL0     C 8336  10.286   9.715   5.216 -0.4321 -1.2504  0.5965
  786MOL0     C 8337  10.209   9.830   5.201  0.6804 -0.3785  0.1098
  786MOL0     O 8338  10.257   9.954   5.217  0.0417 -0.1119 -0.1364
  786MOL0     C 8339  10.361   9.976   5.320  1.1880  1.0191  0.8983
  786MOL0     C 8340  10.345  10.115   5.373 -0.6142 -0.6891  0.0281
  786MOL0     C 8341  10.256  10.120   5.497 -0.2182  0.2754 -0.0847
  786MOL0     C 8342  10.119  10.060   5.483  0.0690 -0.8482 -0.6202
  786MOL0     C 8343  10.038  10.145   5.385  0.4922 -0.1895  0.2043
  786MOL0     C 8344   9.896  10.092   5.366  0.1920 -0.3698 -0.4233
  786MOL0     C 8345   9.825  10.169   5.253 -1.0555 -0.1700 -0.6900
  786MOL0     C 8346   9.676  10.136   5.264 -0.7740  0.4394 -0.5841
  786MOL0     N 8347   9.607  10.233   5.176 -0.3506 -0.4829 -0.0633
  786MOL0     C 8348   9.521  10.199   5.080 -0.2245  0.7328 -0.7101
  786MOL0     C 8349   9.459  10.316   5.043 -0.9849  0.3338  0.2062
  786MOL0     C 8350   9.359  10.328   4.935  0.0745 -0.5799 -0.6088
  786MOL0     C 8351   9.243  10.236   4.984  0.6350 -1.0433  0.6957
  786MOL0     C 8352   9.156  10.304   5.097 -0.4603 -0.1318  0.4350
  786MOL0     C 8353   9.016  10.232   5.096  1.0993 -0.2571 -0.4958
  786MOL0     O 8354   9.033  10.098   5.145  0.0453  0.3018 -0.0793
  786MOL0     C 8355   8.923  10.027   5.186  0.2780  0.1413 -0.5408
  786MOL0     C 8356   8.918   9.964   5.313  0.4912  0.7069 -0.4539
  786MOL0     C 8357   8.814   9.878   5.361 -0.2205  0.5188 -0.2192
  786MOL0     C 8358   8.839   9.820   5.501  1.1381 -0.2391  0.6026
  786MOL0     C 8359   8.707   9.853   5.269  0.8932 -0.0539  0.3873
  786MOL0     C 8360   8.585   9.769   5.302  0.5409 -0.1035 -0.6057
  786MOL0     O 8361   8.513   9.743   5.189  0.3756  0.1299  0.1898
  786MOL0     C 8362   8.454   9.618   5.185 -0.1064 -1.0096  0.1321
  786MOL0     C 8363   8.359   9.582   5.270  0.8419  0.1094  0.3384
  786MOL0     C 8364   8.328   9.445   5.272 -0.2457 -0.0426 -0.1405
  786MOL0     C 8365   8.387   9.346   5.192 -0.8881  0.0403 -0.2815
  786MOL0     O 8366   8.329   9.221   5.200  0.1830 -0.8094 -0.3935
  786MOL0     C 8367   8.401   9.115   5.139 -0.5122  0.0150 -0.0163
  786MOL0     C 8368   8.326   8.983   5.174 -0.9612 -0.9321  0.2326
  786MOL0     C 8369   8.261   8.929   5.044 -0.0056  0.0881 -0.5724
  786MOL0     C 8370   8.189   8.797   5.074  0.7192  0.7806  0.0647
  786MOL0     C 8371   8.114   8.741   4.959  0.0916  1.0220  0.1255
  786MOL0     C 8372   8.197   8.688   4.845 -1.3948 -0.0103 -0.1705
  786MOL0     C 8373   8.130   8.571   4.766  0.5559 -0.3705 -0.4875
  786MOL0     C 8374   8.152   8.576   4.613  0.6352 -0.1158 -1.3865
  786MOL0    Cl 8375   8.329   8.582   4.581  0.3425  0.0333  0.3678
  786MOL0     C 8376   8.491   9.392   5.109 -0.3339 -0.5534 -1.0923
  786MOL0     C 8377   8.516   9.529   5.097 -0.8866  0.0525 -0.4006
  786MOL0     O 8378   8.564   9.715   5.411 -0.2951  0.3357 -0.4444
  786MOL0     C 8379   8.703   9.927   5.146 -0.4989  0.5112  0.4604
  786MOL0     C 8380   8.811  10.002   5.099 -0.6036 -0.4273  0.6307
  786MOL0     N 8381   9.489  10.417   5.130 -0.0148  0.1287 -0.4792
  786MOL0     N 8382   9.579  10.368   5.207  0.7448  0.0500  0.0060
  786MOL0     C 8383  10.072   9.820   5.172  0.0961 -1.5718 -0.2124
  786MOL0     C 8384  10.010   9.697   5.171 -0.4281 -0.6719  0.3422
  786MOL0     C 8385  10.003   9.231   5.289 -0.5071 -0.6738  0.4618
  786MOL0     C 8386  10.022   9.148   5.175  0.1997 -0.2889  1.4564
  786MOL0     C 8387   9.979   9.017   5.170  0.7670  0.7129 -0.3811
  786MOL0     C 8388   9.915   8.961   5.278 -0.7781 -0.2299 -0.2725
  786MOL0     O 8389   9.876   8.829   5.271 -0.0150 -0.1581  0.7801
  786MOL0     C 8390   9.932   8.748   5.375 -0.2581  0.0725 -0.6011
  786MOL0     C 8391   9.822   8.702   5.467 -0.6800  0.6101  0.4861
  786MOL0     C 8392   9.730   8.599   5.401 -0.4686  0.7745  0.3388
  786MOL0     C 8393   9.596   8.580   5.482  0.0810 -0.4690 -0.5641
  786MOL0     C 8394   9.505   8.481   5.446 -0.1724  0.0753  0.7810
  786MOL0     C 8395   9.410   8.407   5.425  0.4122  0.3423 -0.0226
  786MOL0     C 8396   9.890   9.046   5.388 -0.0251 -0.3905  0.1997
  786MOL0     C 8397   9.932   9.179   5.397  0.6542 -0.2706 -1.1101
  786MOL0     C 8398   9.892   9.263   5.532  0.4889  0.4352  0.2605
  786MOL0     H 8399  10.281   9.501   5.238  1.5384  0.9152  1.6736
  786MOL0     H 8400  10.391   9.708   5.240  0.4297  0.8242 -2.1517
  786MOL0     H 8401  10.458   9.950   5.279  0.8732 -0.3296  0.9766
  786MOL0     H 8402  10.347   9.917   5.411 -2.5168  2.7063  1.6501
  786MOL0     H 8403  10.447  10.148   5.394 -1.3034  2.5155 -1.0504
  786MOL0     H 8404  10.304  10.184   5.299 -0.7753  0.6871  1.3338
  786MOL0     H 8405  10.306  10.073   5.582  1.3481 -1.4736 -1.8706
  786MOL0     H 8406  10.247  10.227   5.516 -2.5822  0.0089  0.5882
  786MOL0     H 8407  10.119   9.959   5.442  0.3418 -1.1645  0.1413
  786MOL0     H 8408  10.070  10.073   5.580 -1.0754 -0.1316 -1.2679
  786MOL0     H 8409  10.072  10.154   5.281 -1.4166 -1.5820 -0.6011
  786MOL0     H 8410  10.026  10.241   5.436 -1.5361 -0.1122 -0.3270
  786MOL0     H 8411   9.897   9.983   5.359  3.6460 -0.6623  2.2145
  786MOL0     H 8412   9.842  10.098   5.461  1.2762 -0.4944  0.2141
  786MOL0     H 8413   9.868  10.139   5.157 -1.9495  0.7561 -1.4070
  786MOL0     H 8414   9.847  10.276   5.267 -1.9076 -0.2092  1.3720
  786MOL0     H 8415   9.666  10.030   5.237 -0.3913  0.6056 -1.4164
  786MOL0     H 8416   9.643  10.148   5.368 -1.4973  0.5376 -0.8193
  786MOL0     H 8417   9.514  10.098   5.041  0.0731 -0.4528  2.1192
  786MOL0     H 8418   9.407  10.292   4.844 -1.2994  0.4528 -1.7919
  786MOL0     H 8419   9.322  10.430   4.929 -1.6005 -1.2377 -2.6085
  786MOL0     H 8420   9.176  10.213   4.900 -2.9213 -2.3205  3.6057
  786MOL0     H 8421   9.279  10.138   5.014 -1.0475 -1.6773  0.7706
  786MOL0     H 8422   9.200  10.289   5.196 -0.1668 -0.9000  0.1976
  786MOL0     H 8423   9.149  10.410   5.072 -1.9768 -0.2588  0.1791
  786MOL0     H 8424   8.947  10.289   5.159  0.5877 -0.3053 -1.0024
  786MOL0     H 8425   8.965  10.222   5.000 -1.7422 -0.1537  0.9141
  786MOL0     H 8426   8.994   9.989   5.386 -0.5057 -0.7866  1.1736
  786MOL0     H 8427   8.863   9.905   5.565 -2.2162  1.8894 -0.6731
  786MOL0     H 8428   8.912   9.739   5.500 -1.9002 -3.3429  3.5061
  786MOL0     H 8429   8.757   9.771   5.554  0.9947  1.4300  2.0181
  786MOL0     H 8430   8.312   9.648   5.342 -1.4007 -1.3708  0.3519
  786MOL0     H 8431   8.259   9.415   5.350  0.0823  1.1215  0.6357
  786MOL0     H 8432   8.411   9.134   5.032 -3.1905  0.8849 -0.1844
  786MOL0     H 8433   8.498   9.115   5.191 -1.2198  2.6618  1.4656
  786MOL0     H 8434   8.400   8.912   5.212 -0.5039  0.4114  1.9448
  786MOL0     H 8435   8.257   8.992   5.258 -1.3638  1.4874 -0.2903
  786MOL0     H 8436   8.330   8.915   4.960 -1.5687  0.7213 -2.0259
  786MOL0     H 8437   8.186   8.999   5.005 -1.0818 -0.3813  0.5966
  786MOL0     H 8438   8.120   8.803   5.158  0.1282 -2.4031 -0.0955
  786MOL0     H 8439   8.265   8.727   5.107 -0.1235  0.3979  1.2387
  786MOL0     H 8440   8.039   8.676   5.005 -1.6117  3.9730  1.8310
  786MOL0     H 8441   8.060   8.824   4.914 -1.9178  0.3809  1.2476
  786MOL0     H 8442   8.285   8.639   4.888 -0.7696  0.6220 -0.7133
  786MOL0     H 8443   8.229   8.768   4.779  1.8960 -2.5399 -1.9641
  786MOL0     H 8444   8.024   8.580   4.790  0.5455  0.8773 -0.9336
  786MOL0     H 8445   8.173   8.478   4.806 -0.5236 -1.3125 -1.4593
  786MOL0     H 8446   8.102   8.663   4.570 -2.2144 -1.8347 -1.8264
  786MOL0     H 8447   8.110   8.494   4.553  0.4622 -1.6545  0.7314
  786MOL0     H 8448   8.549   9.325   5.047  0.7159 -0.3323 -0.3843
  786MOL0     H 8449   8.597   9.556   5.031  1.7473 -2.9722  1.2609
  786MOL0     H 8450   8.613   9.927   5.086  0.1307  2.7524 -0.5670
  786MOL0     H 8451   8.812  10.047   5.000 -1.3268 -0.8462  0.4275
  786MOL0     H 8452  10.002   9.902   5.156  0.2537 -1.4716 -0.3826
  786MOL0     H 8453   9.907   9.680   5.143 -0.0904 -2.8196  0.2342
  786MOL0     H 8454  10.073   9.193   5.090  0.1448  3.2655  3.1039
  786MOL0     H 8455   9.987   8.968   5.074 -1.1551  1.1182 -0.7992
  786MOL0     H 8456   9.972   8.660   5.324  1.5523 -0.6856  1.9291
  786MOL0     H 8457  10.013   8.788   5.438 -1.8993  0.1621  1.5718
  786MOL0     H 8458   9.753   8.783   5.489 -3.9898 -1.5935 -0.9249
  786MOL0     H 8459   9.864   8.659   5.558  2.3861 -0.1811 -1.1817
  786MOL0     H 8460   9.710   8.630   5.298  1.9925 -1.6242 -1.0089
  786MOL0     H 8461   9.787   8.506   5.403 -2.5454 -0.5487  0.3425
  786MOL0     H 8462   9.530   8.667   5.480 -0.9754 -1.2048  0.4661
  786MOL0     H 8463   9.608   8.569   5.591  2.7594  2.3446 -0.4401
  786MOL0     H 8464   9.329   8.342   5.398  0.2619  0.2139  0.7079
  786MOL0     H 8465   9.815   9.010   5.458  1.6421 -2.3400  1.0717
  786MOL0     H 8466   9.787   9.252   5.563  1.4296  2.1666  4.7706
  786MOL0     H 8467   9.949   9.239   5.622  0.6353 -0.2923 -0.0195
  786MOL0     H 8468   9.906   9.369   5.510 -4.6276  1.0536 -1.4889
  787MOL0     O 8469   4.610  11.075   3.585 -0.3382 -0.0326  0.0040
  787MOL0     C 8470   4.545  11.099   3.688  0.3353  0.3771 -0.9039
  787MOL0     O 8471   4.581  11.199   3.780  0.0674  0.2270  0.0452
  787MOL0     C 8472   4.686  11.283   3.769  0.5008  0.2280  0.3892
  787MOL0     C 8473   4.733  11.341   3.649  0.5702  0.5414  0.2601
  787MOL0     C 8474   4.841  11.429   3.643  0.6042 -0.4819 -0.6738
  787MOL0     C 8475   4.912  11.452   3.754  0.2834 -0.4111 -0.7668
  787MOL0     O 8476   5.014  11.552   3.744  0.4212 -0.4347 -0.0663
  787MOL0     C 8477   5.099  11.579   3.855  1.0890  0.7831 -0.1977
  787MOL0     C 8478   5.214  11.664   3.803  0.7790  0.7854  0.0770
  787MOL0     C 8479   5.180  11.796   3.733 -0.4030  0.5576  0.1839
  787MOL0     C 8480   5.309  11.875   3.698  0.0718  0.1212 -0.4312
  787MOL0     C 8481   5.273  12.014   3.639 -0.3078 -0.0790  0.0582
  787MOL0     C 8482   5.402  12.106   3.630 -0.4026 -0.2309 -0.0014
  787MOL0     C 8483   5.365  12.255   3.604 -0.0608  0.4018 -0.0322
  787MOL0     C 8484   5.485  12.340   3.553 -0.4032  0.3035  0.1903
  787MOL0     N 8485   5.568  12.387   3.663  0.0099 -0.5240 -0.4146
  787MOL0     C 8486   5.553  12.505   3.731 -0.4483  0.1853  0.7247
  787MOL0     C 8487   5.658  12.515   3.817 -1.0984 -0.6224  0.3662
  787MOL0     C 8488   5.686  12.627   3.909  0.7853  0.3253  0.0244
  787MOL0     C 8489   5.588  12.639   4.029  0.3470 -0.0078  0.1204
  787MOL0     C 8490   5.633  12.534   4.128  0.6027  0.2100 -0.7014
  787MOL0     C 8491   5.557  12.533   4.261  0.1905 -0.2130 -0.1236
  787MOL0     O 8492   5.563  12.660   4.329  0.4642 -0.0095 -0.3450
  787MOL0     C 8493   5.677  12.699   4.406 -0.1951  0.4172  0.7403
  787MOL0     C 8494   5.702  12.840   4.402 -0.7218  0.3359 -0.4364
  787MOL0     C 8495   5.796  12.898   4.482  0.1697  0.2018  0.3173
  787MOL0     C 8496   5.813  13.040   4.461 -0.3411  0.2181 -0.6518
  787MOL0     C 8497   5.882  12.812   4.553  1.1615 -0.2573  0.3421
  787MOL0     C 8498   5.991  12.856   4.635  0.0451  0.4872  0.0700
  787MOL0     O 8499   5.994  12.803   4.753 -0.2990  0.4527  0.4018
  787MOL0     C 8500   6.118  12.805   4.820 -0.2903 -0.1100 -0.5112
  787MOL0     C 8501   6.155  12.919   4.896  0.2669 -0.1620 -0.3025
  787MOL0     C 8502   6.264  12.906   4.976  0.2313  0.0158  0.5670
  787MOL0     C 8503   6.344  12.792   4.980 -0.7618  0.0452  0.9644
  787MOL0     O 8504   6.459  12.796   5.056 -0.2866 -0.4777 -0.2495
  787MOL0     C 8505   6.566  12.706   5.045  1.2309  0.2686  0.2430
  787MOL0     C 8506   6.687  12.755   5.132  0.0100 -0.5753  0.3460
  787MOL0     C 8507   6.659  12.799   5.277 -0.4090 -0.4611  0.4610
  787MOL0     C 8508   6.658  12.687   5.375 -0.1151  0.7799 -0.6414
  787MOL0     C 8509   6.634  12.722   5.519 -0.0993  0.0478 -0.5664
  787MOL0     C 8510   6.511  12.808   5.551 -0.1134  0.6062  0.3907
  787MOL0     C 8511   6.451  12.785   5.691  0.5505  0.7492  0.6583
  787MOL0     C 8512   6.325  12.867   5.713  0.0623 -0.1248  0.0396
  787MOL0    Cl 8513   6.270  12.839   5.883  0.1493 -0.3077  0.0435
  787MOL0     C 8514   6.312  12.680   4.906 -0.3812  0.2638  0.2089
  787MOL0     C 8515   6.196  12.685   4.830 -0.1394 -1.5791  0.1875
  787MOL0     O 8516   6.068  12.933   4.584  0.7462 -0.3548 -0.2976
  787MOL0     C 8517   5.863  12.675   4.559  0.0520  0.0172  0.1159
  787MOL0     C 8518   5.752  12.617   4.493 -0.5641  0.2535 -0.0050
  787MOL0     N 8519   5.740  12.398   3.794  0.5340  0.0019  0.0895
  787MOL0     N 8520   5.685  12.339   3.691  0.2565  0.0252 -0.4557
  787MOL0     C 8521   4.875  11.392   3.875  0.5295 -0.4542 -0.3272
  787MOL0     C 8522   4.767  11.310   3.883  0.9519 -0.0591  0.5788
  787MOL0     C 8523   4.407  11.050   3.704  0.8100 -1.4167  0.6499
  787MOL0     C 8524   4.322  11.124   3.787 -0.6879  0.5127  0.0276
  787MOL0     C 8525   4.202  11.070   3.827 -1.0062 -0.4802 -0.3036
  787MOL0     C 8526   4.144  10.970   3.753 -0.2964  0.4986 -0.2842
  787MOL0     O 8527   4.016  10.920   3.768  0.0488 -0.2487  0.1704
  787MOL0     C 8528   3.914  10.968   3.860 -0.5295  0.5674 -0.2414
  787MOL0     C 8529   3.867  11.101   3.819  0.3458 -0.3560 -0.6872
  787MOL0     C 8530   3.835  11.188   3.940 -0.3463  0.1113  0.2519
  787MOL0     C 8531   3.742  11.116   4.034 -0.4815  0.2487 -0.1305
  787MOL0     C 8532   3.719  11.199   4.146 -0.4363 -0.1878 -0.3196
  787MOL0     C 8533   3.708  11.271   4.242 -0.0392  0.3692 -0.6537
  787MOL0     C 8534   4.217  10.905   3.656 -0.4261 -0.4242  0.1188
  787MOL0     C 8535   4.344  10.942   3.627 -0.6184 -0.4660  0.0740
  787MOL0     C 8536   4.417  10.851   3.537 -0.8159 -0.4123  0.3285
  787MOL0     H 8537   4.683  11.326   3.554  0.8805  2.8148 -0.3215
  787MOL0     H 8538   4.853  11.484   3.550 -4.2975  1.2340 -0.5693
  787MOL0     H 8539   5.136  11.486   3.900  2.5846  2.5848  2.6357
  787MOL0     H 8540   5.041  11.628   3.935 -0.6567 -0.0113 -0.9187
  787MOL0     H 8541   5.259  11.684   3.901 -0.3181 -3.7513  1.7690
  787MOL0     H 8542   5.282  11.596   3.751 -0.5339 -1.2086  0.8395
  787MOL0     H 8543   5.128  11.776   3.639  2.1617  2.5197 -1.8235
  787MOL0     H 8544   5.121  11.851   3.807  0.1888  0.3213  0.8350
  787MOL0     H 8545   5.374  11.890   3.784  0.0232  0.7411 -0.4933
  787MOL0     H 8546   5.369  11.813   3.631  0.9248 -2.8055  2.7447
  787MOL0     H 8547   5.214  12.064   3.716  0.8619  0.0828  0.8730
  787MOL0     H 8548   5.219  12.009   3.544  1.7208  0.8421 -1.2275
  787MOL0     H 8549   5.458  12.101   3.724  0.6410 -0.0144 -0.5919
  787MOL0     H 8550   5.461  12.069   3.545  1.0511  2.6221 -0.3541
  787MOL0     H 8551   5.312  12.301   3.688 -2.3857 -2.3303  0.1328
  787MOL0     H 8552   5.301  12.255   3.515 -0.3471 -0.1720  0.1686
  787MOL0     H 8553   5.547  12.283   3.484  1.3257  1.6656  0.5501
  787MOL0     H 8554   5.449  12.416   3.484 -0.8856  1.3857  1.5785
  787MOL0     H 8555   5.465  12.569   3.722 -0.5677 -0.0689  0.0350
  787MOL0     H 8556   5.696  12.720   3.852 -1.0188  0.0007 -0.8904
  787MOL0     H 8557   5.785  12.608   3.952  0.6291 -1.1138 -0.2050
  787MOL0     H 8558   5.591  12.738   4.076  1.4594 -0.0772  0.2271
  787MOL0     H 8559   5.485  12.620   3.998  0.7387 -0.8967 -0.7023
  787MOL0     H 8560   5.637  12.430   4.092 -0.1784 -0.7522  1.7468
  787MOL0     H 8561   5.734  12.561   4.158  0.9384 -2.0330  0.4685
  787MOL0     H 8562   5.449  12.517   4.256 -0.4011  2.7447  1.1376
  787MOL0     H 8563   5.603  12.454   4.321 -2.0343 -1.2447  0.3384
  787MOL0     H 8564   5.641  12.892   4.328 -1.4169  1.2648  0.7599
  787MOL0     H 8565   5.868  13.060   4.369 -0.6890  3.0327 -0.3368
  787MOL0     H 8566   5.878  13.086   4.537  2.5798  0.1333 -2.9187
  787MOL0     H 8567   5.727  13.107   4.447  0.4345  1.5315  0.5414
  787MOL0     H 8568   6.096  13.008   4.878 -1.9854 -1.7206 -1.2087
  787MOL0     H 8569   6.303  12.997   5.022  0.7965 -1.4751  3.2691
  787MOL0     H 8570   6.541  12.603   5.070  1.3547  0.1704 -0.0369
  787MOL0     H 8571   6.609  12.708   4.945 -0.6041 -1.6102 -0.6396
  787MOL0     H 8572   6.753  12.668   5.135 -1.9154 -2.0985  1.4674
  787MOL0     H 8573   6.746  12.832   5.082  0.9414  1.5600  4.2645
  787MOL0     H 8574   6.559  12.843   5.280 -0.2202 -0.0598  1.0648
  787MOL0     H 8575   6.728  12.879   5.305  2.3675 -1.2226 -3.3550
  787MOL0     H 8576   6.747  12.624   5.370 -0.5067  0.1558  0.0822
  787MOL0     H 8577   6.572  12.629   5.344  2.4337 -2.4095 -2.3535
  787MOL0     H 8578   6.642  12.641   5.591 -1.1091  3.0104  3.2024
  787MOL0     H 8579   6.718  12.784   5.550  0.4720 -0.9220 -0.1604
  787MOL0     H 8580   6.429  12.787   5.483 -0.3875 -0.2886  0.9657
  787MOL0     H 8581   6.535  12.913   5.535 -1.1515  0.8124  0.1589
  787MOL0     H 8582   6.517  12.815   5.772  1.1212 -2.4849  1.5155
  787MOL0     H 8583   6.425  12.679   5.702  1.8286  0.3696  0.1564
  787MOL0     H 8584   6.258  12.832   5.635  1.3255 -1.0331 -0.6784
  787MOL0     H 8585   6.362  12.969   5.699  0.5448 -0.5091 -1.7121
  787MOL0     H 8586   6.375  12.592   4.912  0.4373  0.7636 -0.8141
  787MOL0     H 8587   6.172  12.590   4.783  0.8069 -2.8170  2.0486
  787MOL0     H 8588   5.922  12.611   4.624  0.5505 -0.1697 -0.5097
  787MOL0     H 8589   5.736  12.510   4.499 -2.6820  0.6123  1.8370
  787MOL0     H 8590   4.917  11.428   3.968  0.3103  2.2635 -1.1790
  787MOL0     H 8591   4.739  11.280   3.984  0.1186 -0.1690  0.3218
  787MOL0     H 8592   4.351  11.220   3.830 -3.1005  0.8177  1.1311
  787MOL0     H 8593   4.151  11.125   3.905 -0.7996 -0.0463 -0.4741
  787MOL0     H 8594   3.829  10.899   3.858  0.9269 -1.3115 -2.6280
  787MOL0     H 8595   3.957  10.965   3.961  0.9741 -0.8003 -0.8846
  787MOL0     H 8596   3.770  11.072   3.776 -0.5590 -3.1159  2.6606
  787MOL0     H 8597   3.933  11.145   3.744  2.4972  0.1654  1.4139
  787MOL0     H 8598   3.927  11.205   3.997 -0.2129  0.9914 -0.2100
  787MOL0     H 8599   3.783  11.280   3.915  1.0159  0.4425 -1.5496
  787MOL0     H 8600   3.781  11.023   4.075 -1.4768  0.3440  1.0834
  787MOL0     H 8601   3.641  11.095   3.999 -1.2448  1.9647  0.8856
  787MOL0     H 8602   3.697  11.330   4.331  1.6260 -0.7496  0.3378
  787MOL0     H 8603   4.183  10.819   3.599  1.2021 -1.4985  0.7017
  787MOL0     H 8604   4.516  10.830   3.579  0.6832  2.4068 -1.4631
  787MOL0     H 8605   4.362  10.760   3.512  1.6961 -1.9469  0.0377
  787MOL0     H 8606   4.439  10.915   3.451  1.4306  1.5094  2.1939
  788MOL0     O 8607  10.737   6.250   6.427  0.1676  0.2576 -0.8807
  788MOL0     C 8608  10.820   6.167   6.465  0.9901  0.8284  0.2464
  788MOL0     O 8609  10.908   6.181   6.572  0.7543 -0.6979  0.4954
  788MOL0     C 8610  10.903   6.306   6.643 -0.3099  0.4996  0.1734
  788MOL0     C 8611  10.904   6.313   6.777 -0.3080 -0.1759  0.5613
  788MOL0     C 8612  10.921   6.427   6.850 -0.9427  0.3282  0.5973
  788MOL0     C 8613  10.897   6.557   6.800 -0.4485  0.2342  0.0759
  788MOL0     O 8614  10.892   6.682   6.866  0.6416 -0.7129  0.4114
  788MOL0     C 8615  10.842   6.681   6.998  0.2787  0.2580  0.4312
  788MOL0     C 8616  10.869   6.821   7.057  0.6327  0.4728  0.2288
  788MOL0     C 8617  11.018   6.847   7.080 -0.5252  0.1900 -0.5371
  788MOL0     C 8618  11.110   6.882   6.958 -0.6576  1.4890  0.1011
  788MOL0     C 8619  11.258   6.890   6.994  0.6918  0.5128  0.5512
  788MOL0     C 8620  11.350   6.906   6.872 -0.1855  0.1974 -0.5098
  788MOL0     C 8621  11.487   6.898   6.926  0.0737 -0.6569 -0.4067
  788MOL0     C 8622  11.587   6.932   6.815  0.3921  0.0640 -0.3365
  788MOL0     N 8623  11.589   6.830   6.704  0.3713 -0.3478  0.6676
  788MOL0     C 8624  11.684   6.731   6.682 -0.5142 -0.3159 -0.5594
  788MOL0     C 8625  11.645   6.666   6.567  0.3793 -0.2509 -0.6042
  788MOL0     C 8626  11.714   6.556   6.486  0.8035  0.5157 -0.0862
  788MOL0     C 8627  11.860   6.527   6.522 -0.0989 -0.0690  0.7313
  788MOL0     C 8628  11.958   6.616   6.448 -1.5159  0.3063  1.3249
  788MOL0     C 8629  11.964   6.604   6.294 -0.4619  1.0789  0.6608
  788MOL0     O 8630  11.974   6.463   6.246  0.3866 -0.0594  0.2104
  788MOL0     C 8631  12.093   6.403   6.258  0.4996 -0.1771  0.0700
  788MOL0     C 8632  12.091   6.263   6.253 -0.2352 -0.1930  0.3051
  788MOL0     C 8633  12.206   6.192   6.265 -0.7807  0.2144 -0.4968
  788MOL0     C 8634  12.204   6.042   6.251  0.6719  0.2517 -0.1929
  788MOL0     C 8635  12.332   6.267   6.285 -0.2291 -0.4165  0.2291
  788MOL0     C 8636  12.468   6.209   6.318  0.9710 -0.7073 -0.3441
  788MOL0     O 8637  12.538   6.273   6.413 -0.2662 -0.1613  0.1287
  788MOL0     C 8638  12.479   6.307   6.533 -0.7245  0.3432 -0.0309
  788MOL0     C 8639  12.488   6.441   6.580  0.3642 -0.2677 -0.2752
  788MOL0     C 8640  12.441   6.486   6.701  0.1995 -0.6376 -0.6345
  788MOL0     C 8641  12.382   6.393   6.791  0.5894 -0.8820  0.5514
  788MOL0     O 8642  12.329   6.432   6.910 -0.0153  0.8971  0.1110
  788MOL0     C 8643  12.379   6.372   7.028 -0.2532 -0.0038 -0.2974
  788MOL0     C 8644  12.387   6.474   7.136 -0.2932 -0.7504 -0.1680
  788MOL0     C 8645  12.512   6.448   7.235  0.7572 -0.7685  0.5358
  788MOL0     C 8646  12.469   6.347   7.343 -0.1449 -0.3837 -0.1110
  788MOL0     C 8647  12.583   6.270   7.417 -1.0292  0.0124 -0.5545
  788MOL0     C 8648  12.678   6.359   7.501 -1.1063  0.2654 -0.0303
  788MOL0     C 8649  12.801   6.287   7.560 -0.3978  0.5104  0.4526
  788MOL0     C 8650  12.908   6.387   7.611  0.1084  0.2799  0.4594
  788MOL0    Cl 8651  12.846   6.520   7.711 -0.0852  0.3850 -0.1448
  788MOL0     C 8652  12.359   6.259   6.741  0.3602  0.6863  0.4680
  788MOL0     C 8653  12.413   6.218   6.621 -0.1986 -0.6508 -0.1089
  788MOL0     O 8654  12.499   6.106   6.267 -0.6512  0.7391 -0.4045
  788MOL0     C 8655  12.330   6.407   6.281 -0.2582 -0.0410 -0.3420
  788MOL0     C 8656  12.216   6.474   6.268 -1.1596 -0.8691 -0.1548
  788MOL0     N 8657  11.534   6.730   6.523 -0.8290 -0.1979 -0.1557
  788MOL0     N 8658  11.491   6.826   6.608 -0.5159 -0.2059  0.1939
  788MOL0     C 8659  10.893   6.553   6.659  0.2565  0.0243  0.3765
  788MOL0     C 8660  10.905   6.432   6.583 -0.7733 -0.8411  0.4353
  788MOL0     C 8661  10.831   6.042   6.387 -0.2776  0.0182  0.1530
  788MOL0     C 8662  10.897   5.943   6.452 -0.0171  1.1171  0.6557
  788MOL0     C 8663  10.915   5.818   6.392 -0.3257 -0.5049 -0.1798
  788MOL0     C 8664  10.883   5.797   6.266 -0.2994 -0.6045 -0.4837
  788MOL0     O 8665  10.924   5.680   6.209  0.4294  0.3366 -0.4809
  788MOL0     C 8666  11.012   5.682   6.104  0.3618 -0.4199 -0.0096
  788MOL0     C 8667  11.152   5.751   6.134 -0.4734 -0.4408  0.1632
  788MOL0     C 8668  11.247   5.665   6.216  0.6366  0.3547 -0.0907
  788MOL0     C 8669  11.378   5.741   6.236 -0.1023 -0.5448 -0.2055
  788MOL0     C 8670  11.357   5.816   6.365  0.1496 -1.0549  0.0289
  788MOL0     C 8671  11.328   5.885   6.463  0.1969  0.1352 -0.3998
  788MOL0     C 8672  10.815   5.894   6.194  0.2452  0.3722  0.3320
  788MOL0     C 8673  10.784   6.017   6.255  0.1641 -0.1202 -0.4013
  788MOL0     C 8674  10.722   6.130   6.173  0.6235  0.2781  0.2943
  788MOL0     H 8675  10.904   6.225   6.841  0.0563  1.2310  2.6102
  788MOL0     H 8676  10.930   6.420   6.958 -2.3365  2.5331  0.9302
  788MOL0     H 8677  10.897   6.610   7.061  0.7393 -0.0466 -0.3002
  788MOL0     H 8678  10.735   6.661   6.984  0.5817  0.6906 -3.6705
  788MOL0     H 8679  10.826   6.898   6.992  0.6571  1.2312  1.0893
  788MOL0     H 8680  10.810   6.814   7.149 -0.7651 -5.1509 -0.6721
  788MOL0     H 8681  11.029   6.934   7.146  0.5864 -0.6714  0.4559
  788MOL0     H 8682  11.053   6.770   7.149 -0.4342  1.9247  1.4883
  788MOL0     H 8683  11.088   6.815   6.875 -3.0836  3.3402 -0.9025
  788MOL0     H 8684  11.081   6.979   6.916 -0.2888  0.6649 -2.1674
  788MOL0     H 8685  11.286   6.798   7.045  0.9706  0.8183  0.9545
  788MOL0     H 8686  11.268   6.974   7.065 -1.0836 -0.1260  1.6276
  788MOL0     H 8687  11.332   6.828   6.798 -0.5043  1.0871 -1.3859
  788MOL0     H 8688  11.326   7.005   6.832  2.1697  0.4987 -1.3101
  788MOL0     H 8689  11.497   6.798   6.970 -1.6298 -0.9006 -0.5232
  788MOL0     H 8690  11.503   6.971   7.005 -1.0429 -1.5816  0.7268
  788MOL0     H 8691  11.575   7.030   6.767  0.9612 -0.7394 -2.1916
  788MOL0     H 8692  11.685   6.930   6.865  1.5163 -0.5868 -2.4591
  788MOL0     H 8693  11.768   6.705   6.745 -3.0269  2.0542  4.2976
  788MOL0     H 8694  11.703   6.574   6.379  0.0147 -0.7156 -0.2331
  788MOL0     H 8695  11.664   6.462   6.511  1.5889 -0.5350 -2.2393
  788MOL0     H 8696  11.882   6.523   6.629  0.7857  0.8561  0.5928
  788MOL0     H 8697  11.870   6.423   6.490 -2.1921  0.0566 -0.5129
  788MOL0     H 8698  11.933   6.720   6.469 -0.6914  0.3726  2.0371
  788MOL0     H 8699  12.062   6.607   6.481 -0.3857  0.4363 -1.8891
  788MOL0     H 8700  11.874   6.650   6.252  0.9816  1.0650 -2.7579
  788MOL0     H 8701  12.050   6.666   6.266  1.1509 -0.3139  2.2593
  788MOL0     H 8702  11.995   6.214   6.239 -0.0047 -0.1359 -1.9798
  788MOL0     H 8703  12.242   6.029   6.149 -1.6108  2.9795 -1.5647
  788MOL0     H 8704  12.101   6.004   6.249 -0.4143  2.5726  3.3516
  788MOL0     H 8705  12.258   5.980   6.322 -2.5206 -1.2694  1.0920
  788MOL0     H 8706  12.513   6.513   6.503  1.0443 -1.0190 -0.7775
  788MOL0     H 8707  12.437   6.584   6.747  1.5303 -0.8813  0.0676
  788MOL0     H 8708  12.315   6.286   7.049 -0.8549  0.0756 -1.6973
  788MOL0     H 8709  12.481   6.335   7.013 -0.8164 -1.9300  0.3393
  788MOL0     H 8710  12.384   6.574   7.092 -0.3958 -0.6925 -0.0317
  788MOL0     H 8711  12.292   6.476   7.191  0.4688 -0.4535  1.1791
  788MOL0     H 8712  12.546   6.543   7.277 -0.4658  0.1263 -0.3932
  788MOL0     H 8713  12.596   6.402   7.184  1.6198  0.1385  1.0991
  788MOL0     H 8714  12.400   6.278   7.294  0.2305 -1.1690  0.4543
  788MOL0     H 8715  12.403   6.396   7.415  0.8548 -1.9221  1.9268
  788MOL0     H 8716  12.534   6.214   7.497 -1.4328  1.6446  0.3947
  788MOL0     H 8717  12.632   6.207   7.343  1.0041  1.8564 -0.9143
  788MOL0     H 8718  12.617   6.386   7.588  0.9312 -1.3361  2.0408
  788MOL0     H 8719  12.703   6.442   7.435 -3.2441  1.9681  1.1444
  788MOL0     H 8720  12.848   6.211   7.497  0.8857 -1.5609  3.6243
  788MOL0     H 8721  12.771   6.228   7.647  0.8506 -1.2129 -0.2253
  788MOL0     H 8722  12.948   6.408   7.511 -1.3691 -5.4488 -1.7361
  788MOL0     H 8723  12.980   6.329   7.670  0.7191 -0.8086 -1.2781
  788MOL0     H 8724  12.300   6.184   6.794  0.7954 -0.5336 -0.7189
  788MOL0     H 8725  12.397   6.114   6.595 -2.8455  0.1155 -1.9288
  788MOL0     H 8726  12.424   6.459   6.296 -0.4214 -0.3801  2.4218
  788MOL0     H 8727  12.220   6.580   6.243 -0.2232 -1.5176 -3.1629
  788MOL0     H 8728  10.877   6.647   6.607 -0.6571 -1.0947 -1.4258
  788MOL0     H 8729  10.902   6.430   6.474 -2.1863  0.8394  0.3943
  788MOL0     H 8730  10.935   5.942   6.553  1.9268  5.0461  0.1761
  788MOL0     H 8731  10.976   5.746   6.446  0.4011  0.3114  0.1006
  788MOL0     H 8732  11.035   5.581   6.070  3.0483 -0.0101  0.3475
  788MOL0     H 8733  10.960   5.735   6.024 -0.5861  0.8886  1.4231
  788MOL0     H 8734  11.146   5.843   6.193  1.7770 -0.3208  0.2749
  788MOL0     H 8735  11.196   5.762   6.034 -1.3349 -0.1946 -0.1994
  788MOL0     H 8736  11.199   5.634   6.310 -0.1112  1.2661 -0.1597
  788MOL0     H 8737  11.270   5.574   6.160  0.3965  0.5005 -0.4275
  788MOL0     H 8738  11.410   5.804   6.152 -3.3721  1.6849  0.0199
  788MOL0     H 8739  11.465   5.681   6.264 -0.4813 -0.4030  1.3700
  788MOL0     H 8740  11.300   5.928   6.556 -1.1386  0.7598 -1.0681
  788MOL0     H 8741  10.789   5.883   6.089 -0.3715 -3.3520  0.7507
  788MOL0     H 8742  10.693   6.101   6.072  0.7832 -3.4951  1.1623
  788MOL0     H 8743  10.627   6.156   6.221  1.4734 -0.7573  2.7025
  788MOL0     H 8744  10.783   6.220   6.159 -1.4744  1.6135 -0.7632
  789MOL0     O 8745   9.701   3.903  10.500 -0.1020  0.2847  0.5278
  789MOL0     C 8746   9.722   3.999  10.433 -0.3424 -1.4836 -0.0698
  789MOL0     O 8747   9.835   4.014  10.359 -0.2823 -0.7944  0.4258
  789MOL0     C 8748   9.935   3.924  10.370 -0.2524 -0.2472 -0.2535
  789MOL0     C 8749  10.042   3.949  10.460  1.1026  0.2622  0.4758
  789MOL0     C 8750  10.140   3.856  10.478  0.1157  0.6811 -0.2886
  789MOL0     C 8751  10.145   3.739  10.400  0.1822 -0.3736  0.3088
  789MOL0     O 8752  10.245   3.646  10.408 -0.1298 -0.7578  0.4735
  789MOL0     C 8753  10.367   3.693  10.450 -0.2751  0.1408  0.1165
  789MOL0     C 8754  10.475   3.580  10.431  0.0687  0.3842  0.2126
  789MOL0     C 8755  10.431   3.446  10.500  0.1862  0.1647  0.1477
  789MOL0     C 8756  10.553   3.362  10.549  0.9559  0.7226 -0.2404
  789MOL0     C 8757  10.506   3.252  10.657 -0.2247  0.4463 -0.2062
  789MOL0     C 8758  10.417   3.153  10.598 -0.0424  0.6039  0.3842
  789MOL0     C 8759  10.387   3.042  10.706 -0.1618 -0.4979 -0.0889
  789MOL0     C 8760  10.255   2.973  10.679  0.0161  0.4208 -0.1671
  789MOL0     N 8761  10.256   2.878  10.565 -0.5811 -0.0402 -0.3079
  789MOL0     C 8762  10.159   2.781  10.535 -0.4846  0.0427  0.5823
  789MOL0     C 8763  10.218   2.706  10.453 -0.3597 -0.3914 -0.1343
  789MOL0     C 8764  10.152   2.592  10.380 -0.6244 -0.4244 -0.4374
  789MOL0     C 8765  10.255   2.489  10.328 -0.4644  0.0124  0.3656
  789MOL0     C 8766  10.346   2.426  10.440 -0.2450 -0.9072  0.5835
  789MOL0     C 8767  10.439   2.322  10.378  0.4126  0.2061  0.0850
  789MOL0     O 8768  10.379   2.189  10.374 -0.0427  0.7203 -0.8498
  789MOL0     C 8769  10.460   2.104  10.300  0.5462  0.0012  0.0952
  789MOL0     C 8770  10.546   2.011  10.360 -0.9128  0.4506  0.7946
  789MOL0     C 8771  10.606   1.908  10.277  0.3069 -0.1411 -0.2601
  789MOL0     C 8772  10.698   1.802  10.342 -0.3685 -0.1227  0.5317
  789MOL0     C 8773  10.569   1.900  10.143  0.2181 -0.1059 -0.2782
  789MOL0     C 8774  10.614   1.805  10.046 -0.5561 -0.2640  0.3628
  789MOL0     O 8775  10.580   1.677  10.079 -0.2083  0.9778  0.0776
  789MOL0     C 8776  10.636   1.583   9.987 -0.1821  0.2232  0.3213
  789MOL0     C 8777  10.759   1.521  10.026  0.4738 -0.3584  0.0473
  789MOL0     C 8778  10.815   1.430   9.939  0.3463 -0.3972 -0.0685
  789MOL0     C 8779  10.753   1.399   9.815 -0.2545  0.0063  0.4467
  789MOL0     O 8780  10.784   1.292   9.736 -0.0196  0.2616 -0.1042
  789MOL0     C 8781  10.821   1.177   9.800 -1.1216 -0.3321  0.0540
  789MOL0     C 8782  10.764   1.062   9.719  0.8085  0.5080  0.3490
  789MOL0     C 8783  10.817   1.056   9.575 -0.4411 -0.1856  0.1359
  789MOL0     C 8784  10.837   0.917   9.505  0.4594 -0.6327 -0.1925
  789MOL0     C 8785  10.957   0.847   9.559 -1.0415  0.1287 -0.7582
  789MOL0     C 8786  10.983   0.722   9.473  0.2571 -0.2538 -0.8747
  789MOL0     C 8787  11.122   0.654   9.498 -0.1471  0.7490 -0.4629
  789MOL0     C 8788  11.232   0.691   9.403  0.0085 -0.1207 -0.6641
  789MOL0    Cl 8789  11.371   0.569   9.441 -0.3295  0.3328  0.5650
  789MOL0     C 8790  10.644   1.472   9.775  0.2625 -0.1317  0.3631
  789MOL0     C 8791  10.580   1.556   9.860  0.3934  0.1473 -0.7126
  789MOL0     O 8792  10.661   1.847   9.943  0.2140 -0.1186  0.1909
  789MOL0     C 8793  10.468   1.984  10.091  0.0657  0.0454  0.2616
  789MOL0     C 8794  10.421   2.094  10.176 -0.1286 -0.2086  0.7481
  789MOL0     N 8795  10.337   2.762  10.418 -0.2496  0.2199  0.7714
  789MOL0     N 8796  10.363   2.869  10.473  1.6089 -0.5341 -0.5329
  789MOL0     C 8797  10.032   3.708  10.319 -0.8578  0.3610  0.1580
  789MOL0     C 8798   9.937   3.798  10.307  0.4922 -0.2380 -0.6100
  789MOL0     C 8799   9.633   4.116  10.450 -0.7532  0.6367  0.0377
  789MOL0     C 8800   9.699   4.236  10.433  0.8477 -0.0199  0.0414
  789MOL0     C 8801   9.637   4.355  10.465  0.3982  0.0812 -0.3607
  789MOL0     C 8802   9.512   4.357  10.520 -0.2288 -0.6686  0.7889
  789MOL0     O 8803   9.440   4.469  10.551 -0.5052  0.1578 -0.4124
  789MOL0     C 8804   9.503   4.551  10.652  0.8677  0.2564 -0.4507
  789MOL0     C 8805   9.397   4.656  10.673  0.0857  0.1868  0.6811
  789MOL0     C 8806   9.387   4.754  10.554 -1.0329 -0.2149 -0.0504
  789MOL0     C 8807   9.392   4.893  10.606 -0.2544 -0.3081  0.4881
  789MOL0     C 8808   9.525   4.937  10.662  0.1507  0.6248  0.1585
  789MOL0     C 8809   9.627   4.969  10.711 -0.2240 -0.1019 -0.7261
  789MOL0     C 8810   9.446   4.236  10.539 -0.1817 -1.0035 -0.8807
  789MOL0     C 8811   9.505   4.115  10.506 -0.9817 -0.3458  0.0180
  789MOL0     C 8812   9.437   3.978  10.527  0.5584 -0.3523  0.2403
  789MOL0     H 8813  10.036   4.040  10.518 -0.8129  0.3247  0.2494
  789MOL0     H 8814  10.206   3.862  10.564  0.5404 -4.6318  0.0906
  789MOL0     H 8815  10.349   3.716  10.555 -0.2010  1.4174 -0.1315
  789MOL0     H 8816  10.390   3.787  10.399 -0.1067 -0.6221 -1.2823
  789MOL0     H 8817  10.477   3.555  10.324  0.8345 -0.3312  0.3858
  789MOL0     H 8818  10.573   3.613  10.466  0.5864  1.1892 -1.8578
  789MOL0     H 8819  10.371   3.477  10.586  1.1072 -1.7921  1.5552
  789MOL0     H 8820  10.375   3.380  10.433  1.1565 -1.3460  0.7802
  789MOL0     H 8821  10.614   3.315  10.472  0.8107 -0.3995  0.3072
  789MOL0     H 8822  10.618   3.432  10.603 -1.2722  0.8716  2.4807
  789MOL0     H 8823  10.458   3.308  10.737  2.1529  1.5389  0.5356
  789MOL0     H 8824  10.597   3.212  10.701 -0.2885  0.1146 -0.3723
  789MOL0     H 8825  10.332   3.208  10.554 -0.2968  2.2969  2.8144
  789MOL0     H 8826  10.474   3.108  10.516 -0.1698 -0.4179  0.8401
  789MOL0     H 8827  10.367   3.098  10.798  1.7042 -0.2143  0.1744
  789MOL0     H 8828  10.470   2.972  10.712 -1.9271 -2.7057  0.0753
  789MOL0     H 8829  10.222   2.915  10.766 -0.5557 -0.3457 -0.8744
  789MOL0     H 8830  10.183   3.053  10.662 -1.2485 -0.9268 -1.4167
  789MOL0     H 8831  10.065   2.759  10.585 -0.7739 -1.4031 -0.5284
  789MOL0     H 8832  10.080   2.633  10.309  0.2844  2.5000  0.1736
  789MOL0     H 8833  10.100   2.532  10.455  0.2042 -0.2691  0.2783
  789MOL0     H 8834  10.197   2.404  10.288 -1.7764  0.5355  1.0863
  789MOL0     H 8835  10.310   2.525  10.241 -1.9503 -1.4184 -1.2428
  789MOL0     H 8836  10.398   2.504  10.498 -0.1285 -0.1792 -0.4687
  789MOL0     H 8837  10.285   2.375  10.515 -1.8480  0.1531  0.0568
  789MOL0     H 8838  10.485   2.345  10.281  2.5633  0.6299  1.1420
  789MOL0     H 8839  10.532   2.328  10.436  0.2036  1.5939  0.3071
  789MOL0     H 8840  10.579   2.020  10.463  4.1757  2.3127 -0.6703
  789MOL0     H 8841  10.781   1.789  10.272  0.7909  1.5038  1.5496
  789MOL0     H 8842  10.651   1.703  10.340 -0.2645 -0.1751 -1.2348
  789MOL0     H 8843  10.732   1.815  10.445 -0.3867 -2.0657  0.8190
  789MOL0     H 8844  10.800   1.544  10.123  3.5466 -2.1899 -0.6563
  789MOL0     H 8845  10.911   1.389   9.969 -0.2156 -1.9522 -0.3214
  789MOL0     H 8846  10.930   1.168   9.803 -1.0506  0.6143  0.6727
  789MOL0     H 8847  10.784   1.174   9.903  2.1820  0.0674  1.3681
  789MOL0     H 8848  10.795   0.974   9.776  2.0106  1.5944  1.4225
  789MOL0     H 8849  10.655   1.057   9.725  0.8415 -2.2079  0.0487
  789MOL0     H 8850  10.913   1.107   9.560 -0.6559  0.4796  0.9666
  789MOL0     H 8851  10.748   1.114   9.513  1.8103 -0.2444 -2.6572
  789MOL0     H 8852  10.845   0.933   9.397 -0.7906 -1.8050 -0.4866
  789MOL0     H 8853  10.743   0.863   9.516 -1.6154  2.6219 -0.7917
  789MOL0     H 8854  11.034   0.924   9.542 -0.5753 -0.3157 -0.6877
  789MOL0     H 8855  10.948   0.820   9.664 -0.8788 -0.4635 -0.8934
  789MOL0     H 8856  10.972   0.746   9.366 -1.2259 -0.1061 -0.7086
  789MOL0     H 8857  10.900   0.656   9.500 -1.3261  1.7965 -0.4724
  789MOL0     H 8858  11.123   0.545   9.508 -0.1625  0.8458  0.7839
  789MOL0     H 8859  11.166   0.694   9.590  0.6737 -1.5551  0.2163
  789MOL0     H 8860  11.273   0.792   9.409  1.9491 -0.7589 -1.8815
  789MOL0     H 8861  11.192   0.681   9.301 -1.5230 -2.4153  0.0738
  789MOL0     H 8862  10.605   1.445   9.678  0.8704  0.3625 -0.0257
  789MOL0     H 8863  10.485   1.605   9.839  0.0226  0.5759  1.7024
  789MOL0     H 8864  10.420   1.967   9.995 -0.9463  0.3294  0.6983
  789MOL0     H 8865  10.336   2.152  10.140 -1.6379 -1.7680  1.6179
  789MOL0     H 8866  10.021   3.610  10.274  0.8133  1.2623 -2.4102
  789MOL0     H 8867   9.849   3.774  10.247 -1.0601 -0.5399  1.6720
  789MOL0     H 8868   9.801   4.236  10.397  0.0064 -4.6509 -3.1615
  789MOL0     H 8869   9.699   4.445  10.466 -0.0908  0.4157  0.3909
  789MOL0     H 8870   9.502   4.488  10.742 -0.0043 -0.0777 -0.6841
  789MOL0     H 8871   9.605   4.585  10.633  0.1948  3.4490  0.8972
  789MOL0     H 8872   9.427   4.706  10.766  1.2127  1.2026 -0.1938
  789MOL0     H 8873   9.303   4.602  10.690 -0.7409  0.6293 -2.0099
  789MOL0     H 8874   9.470   4.743  10.484 -3.7160 -2.0043 -3.2261
  789MOL0     H 8875   9.305   4.726  10.487  0.0735 -1.8959 -0.7723
  789MOL0     H 8876   9.320   4.911  10.686 -0.0656  0.5075  0.4856
  789MOL0     H 8877   9.372   4.968  10.528  1.0829  1.5095  1.7922
  789MOL0     H 8878   9.728   4.995  10.739  0.7618 -1.7585 -2.4638
  789MOL0     H 8879   9.352   4.241  10.592  1.9910  0.9797  3.1864
  789MOL0     H 8880   9.328   3.977  10.530  0.5590 -0.4801  0.2657
  789MOL0     H 8881   9.472   3.908  10.450  1.8054  0.5819 -0.0845
  789MOL0     H 8882   9.473   3.942  10.624  1.3621  4.3641  1.9182
  790MOL0     O 8883   0.057   7.453   1.518  0.7530 -0.3469  0.5451
  790MOL0     C 8884   0.078   7.506   1.627 -0.1168  0.9751 -0.1900
  790MOL0     O 8885   0.196   7.566   1.666  0.6557  0.2542 -0.1450
  790MOL0     C 8886   0.288   7.578   1.567  0.9823  0.3588  0.6587
  790MOL0     C 8887   0.268   7.651   1.449  0.6096  0.6861  0.0301
  790MOL0     C 8888   0.356   7.651   1.338  0.4082  0.3263  0.9201
  790MOL0     C 8889   0.466   7.564   1.342 -0.8566  0.1280 -0.0841
  790MOL0     O 8890   0.547   7.548   1.229 -0.3750 -0.1917 -1.5277
  790MOL0     C 8891   0.549   7.420   1.175 -0.3872 -0.0108 -0.2314
  790MOL0     C 8892   0.637   7.434   1.053 -0.3494  0.1578 -0.0960
  790MOL0     C 8893   0.659   7.284   1.004  0.2858  1.0429 -0.7348
  790MOL0     C 8894   0.733   7.288   0.871 -0.2055 -0.3797 -0.2756
  790MOL0     C 8895   0.751   7.159   0.810  0.1524 -0.4918 -0.2109
  790MOL0     C 8896   0.625   7.086   0.763  0.4310 -1.2613  0.2135
  790MOL0     C 8897   0.640   6.961   0.663 -0.3748 -0.1128  0.2738
  790MOL0     C 8898   0.718   6.840   0.730 -1.0924 -0.0124 -0.1676
  790MOL0     N 8899   0.865   6.854   0.725 -0.1672 -0.4041 -0.5949
  790MOL0     C 8900   0.948   6.866   0.834 -0.5048  0.6720  0.8631
  790MOL0     C 8901   1.074   6.871   0.779 -0.7657  0.0484  0.2642
  790MOL0     C 8902   1.196   6.890   0.866  0.3833  0.5782 -0.6407
  790MOL0     C 8903   1.302   6.984   0.811  0.3662  0.2990 -0.2914
  790MOL0     C 8904   1.236   7.116   0.753  0.1282  1.0199  0.9903
  790MOL0     C 8905   1.348   7.210   0.687  0.6063  0.1908 -1.4011
  790MOL0     O 8906   1.404   7.137   0.578 -0.1025  0.4774  0.1206
  790MOL0     C 8907   1.539   7.157   0.555  0.3725 -0.2187  0.1535
  790MOL0     C 8908   1.627   7.052   0.541  0.1522  0.1208 -0.1559
  790MOL0     C 8909   1.765   7.064   0.530  0.1289  0.6526 -0.1392
  790MOL0     C 8910   1.837   6.937   0.494  0.8637 -1.0065  0.5467
  790MOL0     C 8911   1.822   7.192   0.544  0.0890  0.0354  0.9689
  790MOL0     C 8912   1.969   7.215   0.540 -0.2653 -0.3698  0.1047
  790MOL0     O 8913   2.055   7.109   0.528 -0.1530 -0.7836 -0.2737
  790MOL0     C 8914   2.177   7.148   0.572 -0.2823 -0.2217 -0.0789
  790MOL0     C 8915   2.216   7.164   0.713 -0.0429  0.2560 -0.3806
  790MOL0     C 8916   2.342   7.213   0.734 -0.2473  0.4773  0.0043
  790MOL0     C 8917   2.432   7.245   0.632 -0.2608 -0.1833 -0.0189
  790MOL0     O 8918   2.556   7.282   0.679  0.0245  0.8646  0.5633
  790MOL0     C 8919   2.657   7.310   0.583 -0.6984  0.2773 -0.6165
  790MOL0     C 8920   2.794   7.269   0.638 -0.1441  0.7616 -0.1577
  790MOL0     C 8921   2.892   7.271   0.521  0.5058  0.4199  0.0703
  790MOL0     C 8922   2.992   7.381   0.542  0.4220  0.6286 -1.2282
  790MOL0     C 8923   2.961   7.493   0.445 -0.4886 -0.2167  0.5078
  790MOL0     C 8924   3.047   7.616   0.455 -0.7013 -0.3355 -0.2770
  790MOL0     C 8925   3.017   7.711   0.348  0.1075  0.0274 -0.1273
  790MOL0     C 8926   3.106   7.836   0.352 -0.3108  0.2381  0.5352
  790MOL0    Cl 8927   3.101   7.919   0.509  0.5047 -0.1450  0.4362
  790MOL0     C 8928   2.389   7.238   0.496 -0.5872 -0.0518 -0.7229
  790MOL0     C 8929   2.268   7.176   0.468  1.1761 -0.5501 -0.9387
  790MOL0     O 8930   2.008   7.335   0.544  0.7459  0.0681  0.1396
  790MOL0     C 8931   1.730   7.303   0.546  0.8290 -0.0719 -0.3236
  790MOL0     C 8932   1.593   7.285   0.550  0.1879 -0.4447  0.8345
  790MOL0     N 8933   1.060   6.856   0.639 -0.3966  0.5956 -0.6137
  790MOL0     N 8934   0.934   6.851   0.609 -0.7306 -0.3885 -0.5902
  790MOL0     C 8935   0.501   7.502   1.457 -0.1878 -1.5346  0.3914
  790MOL0     C 8936   0.410   7.508   1.562 -0.0001 -0.2742  0.4438
  790MOL0     C 8937  -0.020   7.480   1.731  0.3059  0.3442 -0.3756
  790MOL0     C 8938  -0.071   7.351   1.738 -0.1370  0.3045 -1.0657
  790MOL0     C 8939  -0.166   7.315   1.843  0.7044  0.2004 -0.1465
  790MOL0     C 8940  -0.211   7.414   1.935 -0.8691  0.2851 -0.4353
  790MOL0     O 8941  -0.314   7.387   2.019  0.0571 -0.1811  0.4721
  790MOL0     C 8942  -0.386   7.484   2.093 -0.8182  0.1287  0.5211
  790MOL0     C 8943  -0.520   7.427   2.147 -0.2678  0.7010 -0.2015
  790MOL0     C 8944  -0.637   7.423   2.035 -0.0183  0.0871  0.2915
  790MOL0     C 8945  -0.775   7.421   2.085  1.2635 -0.4365  0.4406
  790MOL0     C 8946  -0.885   7.436   1.981 -0.3763 -0.2786 -0.5775
  790MOL0     C 8947  -1.035   7.435   1.853 -0.5686 -0.3476 -0.3886
  790MOL0     C 8948  -0.163   7.544   1.916  0.0472  0.4349 -0.3205
  790MOL0     C 8949  -0.068   7.582   1.817 -0.2155  0.9067 -0.6168
  790MOL0     C 8950  -0.021   7.724   1.825 -0.3630  0.7062  0.8500
  790MOL0     H 8951   0.168   7.692   1.438  0.7686  0.9019 -0.6694
  790MOL0     H 8952   0.326   7.692   1.242 -2.7522 -0.4170  1.4851
  790MOL0     H 8953   0.447   7.388   1.153  0.1474 -2.0991  0.1210
  790MOL0     H 8954   0.586   7.346   1.247 -0.4907  0.7618  0.6446
  790MOL0     H 8955   0.580   7.491   0.980  0.2719 -0.8917 -1.4354
  790MOL0     H 8956   0.737   7.468   1.081  0.1118 -0.9923 -0.2794
  790MOL0     H 8957   0.717   7.220   1.072 -0.5993  3.5341  2.6892
  790MOL0     H 8958   0.559   7.242   0.989  0.6044  0.3730 -1.0306
  790MOL0     H 8959   0.686   7.361   0.804  1.0323 -0.6728 -1.5131
  790MOL0     H 8960   0.829   7.337   0.889 -0.4258 -0.1423  0.2717
  790MOL0     H 8961   0.808   7.100   0.883 -1.2544 -0.2850  1.0976
  790MOL0     H 8962   0.821   7.176   0.728 -1.4633 -4.1286 -2.6344
  790MOL0     H 8963   0.566   7.048   0.847 -0.9199 -1.9712 -1.0158
  790MOL0     H 8964   0.577   7.166   0.707 -0.9112 -3.6542 -2.3337
  790MOL0     H 8965   0.676   6.987   0.563  2.4675 -0.6298  1.0864
  790MOL0     H 8966   0.538   6.925   0.645 -0.2196 -0.5466  0.2519
  790MOL0     H 8967   0.723   6.834   0.839  1.6539 -2.5766 -0.3052
  790MOL0     H 8968   0.687   6.745   0.686  0.4278 -0.4258 -0.4017
  790MOL0     H 8969   0.928   6.877   0.940 -0.6666  0.8308  0.8144
  790MOL0     H 8970   1.230   6.787   0.875 -0.7824  0.3124  1.1555
  790MOL0     H 8971   1.172   6.916   0.970  3.7271  0.1321  0.3415
  790MOL0     H 8972   1.375   6.992   0.892 -0.6391 -0.2215  0.6787
  790MOL0     H 8973   1.344   6.929   0.726 -1.2913 -0.6073 -0.5723
  790MOL0     H 8974   1.172   7.076   0.675  2.4280 -0.0733 -0.4660
  790MOL0     H 8975   1.177   7.166   0.831 -0.8286  1.1985  0.1625
  790MOL0     H 8976   1.308   7.307   0.657  3.7551  2.3451  0.7115
  790MOL0     H 8977   1.422   7.225   0.767 -1.7099 -0.8449  1.1003
  790MOL0     H 8978   1.586   6.952   0.530  0.2490 -0.0540  1.0078
  790MOL0     H 8979   1.764   6.859   0.470 -1.2692  1.6516 -2.3170
  790MOL0     H 8980   1.913   6.904   0.566  1.6623  1.9191  1.1627
  790MOL0     H 8981   1.895   6.948   0.401 -0.0782 -3.4414 -0.4185
  790MOL0     H 8982   2.156   7.115   0.789  2.9423 -3.9033 -0.3856
  790MOL0     H 8983   2.370   7.231   0.837  0.2332  0.4541 -0.1212
  790MOL0     H 8984   2.654   7.251   0.491  3.2000 -0.6167 -0.3202
  790MOL0     H 8985   2.656   7.418   0.566  1.2520  0.1325 -1.9054
  790MOL0     H 8986   2.821   7.342   0.715 -0.4593 -0.5843  1.2765
  790MOL0     H 8987   2.786   7.169   0.681  1.7504  0.9976  0.8260
  790MOL0     H 8988   2.839   7.285   0.426 -3.3314  0.9167  2.0550
  790MOL0     H 8989   2.948   7.178   0.509  2.4542  0.7760  4.6128
  790MOL0     H 8990   3.094   7.341   0.533 -0.6455 -2.0990 -2.4723
  790MOL0     H 8991   2.981   7.421   0.643  0.8683  0.0253 -0.9343
  790MOL0     H 8992   2.976   7.447   0.347  1.0428  0.8466  0.2073
  790MOL0     H 8993   2.855   7.520   0.447  0.0537  2.3387 -0.5811
  790MOL0     H 8994   3.154   7.599   0.468 -0.5805  0.5290 -0.1059
  790MOL0     H 8995   3.013   7.659   0.549  2.0044  1.7941 -0.1453
  790MOL0     H 8996   2.914   7.749   0.345  1.3039  3.7558 -0.2569
  790MOL0     H 8997   3.042   7.655   0.257 -2.8423 -1.4688 -0.1259
  790MOL0     H 8998   3.076   7.905   0.273  0.1504 -1.3495 -1.0965
  790MOL0     H 8999   3.211   7.809   0.335 -0.6418 -0.5836 -0.3189
  790MOL0     H 9000   2.443   7.263   0.406  1.0840 -2.8915 -0.6466
  790MOL0     H 9001   2.240   7.169   0.363  1.7386 -0.6125 -1.0887
  790MOL0     H 9002   1.756   7.408   0.537 -1.2132  0.9048  3.2534
  790MOL0     H 9003   1.525   7.370   0.555 -0.5993 -1.0267  0.3337
  790MOL0     H 9004   0.599   7.457   1.444  0.1557 -0.2498 -2.1371
  790MOL0     H 9005   0.440   7.450   1.649  0.9641 -0.2148  0.1675
  790MOL0     H 9006  -0.052   7.272   1.666 -4.2281  0.3765 -2.4938
  790MOL0     H 9007  -0.204   7.214   1.854  1.9484 -0.3907 -1.0824
  790MOL0     H 9008  -0.324   7.516   2.177 -1.0373  2.0435  0.0013
  790MOL0     H 9009  -0.406   7.578   2.040  0.1014 -0.6793 -1.3373
  790MOL0     H 9010  -0.541   7.486   2.237  1.0874 -1.5256  1.6834
  790MOL0     H 9011  -0.500   7.329   2.190  2.3108  1.7675  1.3263
  790MOL0     H 9012  -0.624   7.507   1.967  0.0587  1.1750  1.6081
  790MOL0     H 9013  -0.631   7.336   1.969  0.8338 -0.4448  1.0416
  790MOL0     H 9014  -0.784   7.491   2.169  1.8572  0.6671 -0.3794
  790MOL0     H 9015  -0.780   7.325   2.137  1.5660 -0.9239 -0.4182
  790MOL0     H 9016  -1.109   7.430   1.776 -0.3582  1.9119 -0.7931
  790MOL0     H 9017  -0.199   7.617   1.988  2.0526  0.6283  0.5531
  790MOL0     H 9018  -0.020   7.761   1.722  0.2731 -1.7679 -0.0989
  790MOL0     H 9019  -0.070   7.794   1.894  0.5326  0.3934  1.8361
  790MOL0     H 9020   0.083   7.734   1.857 -0.4879  3.8341  0.5989
  791MOL0     O 9021   8.445   1.050   3.911 -0.6841 -0.5129 -0.1807
  791MOL0     C 9022   8.554   1.027   3.958 -0.0822 -0.9463  0.2499
  791MOL0     O 9023   8.596   0.911   4.024 -0.1574  0.8035  0.0774
  791MOL0     C 9024   8.527   0.790   4.026  0.4873  0.3415  0.2207
  791MOL0     C 9025   8.589   0.681   4.075  0.8122  0.4601 -0.1918
  791MOL0     C 9026   8.532   0.555   4.077 -0.0266  0.3583 -0.2332
  791MOL0     C 9027   8.412   0.520   4.025  0.3677 -0.1533  0.2529
  791MOL0     O 9028   8.365   0.387   4.036  0.2137  0.3122 -0.0597
  791MOL0     C 9029   8.257   0.342   3.956  0.1285 -1.0092  0.2346
  791MOL0     C 9030   8.200   0.214   3.997  0.3699 -0.0752 -0.0882
  791MOL0     C 9031   8.073   0.234   4.087  0.1076 -0.5173 -0.8848
  791MOL0     C 9032   8.103   0.340   4.204  0.1857 -0.7118  0.1905
  791MOL0     C 9033   7.979   0.331   4.303 -0.5160 -0.5665 -0.4474
  791MOL0     C 9034   8.012   0.419   4.427  1.1137  1.0043 -0.2304
  791MOL0     C 9035   7.907   0.408   4.543  0.2792  0.5865 -0.9369
  791MOL0     C 9036   7.939   0.531   4.625 -0.6214 -0.0077  0.1071
  791MOL0     N 9037   8.075   0.546   4.689 -0.4574 -0.4235  0.5056
  791MOL0     C 9038   8.117   0.452   4.784 -0.2188  0.2737 -1.1287
  791MOL0     C 9039   8.240   0.511   4.823 -0.7445  0.2217  0.2228
  791MOL0     C 9040   8.324   0.438   4.927  0.3280  0.4576  0.2080
  791MOL0     C 9041   8.251   0.447   5.069 -0.7154 -0.6298 -0.7522
  791MOL0     C 9042   8.303   0.564   5.158  0.3847  0.0994  0.1428
  791MOL0     C 9043   8.239   0.561   5.300 -0.6859 -0.5365 -0.6511
  791MOL0     O 9044   8.274   0.689   5.346 -0.2833  0.0385 -0.3807
  791MOL0     C 9045   8.229   0.749   5.459 -0.0301 -1.1571  0.2632
  791MOL0     C 9046   8.117   0.721   5.537 -0.8511  0.4362 -0.6893
  791MOL0     C 9047   8.071   0.808   5.635 -0.0914 -0.5945 -0.1292
  791MOL0     C 9048   7.958   0.761   5.719 -0.0950  0.3474 -0.8303
  791MOL0     C 9049   8.129   0.937   5.656 -0.1024  1.0596 -0.2145
  791MOL0     C 9050   8.086   1.037   5.755  0.2545 -0.2721  0.8327
  791MOL0     O 9051   8.170   1.141   5.782  0.4246  0.4537  0.2744
  791MOL0     C 9052   8.142   1.223   5.880  0.3011 -0.1603 -0.0934
  791MOL0     C 9053   8.200   1.222   6.007  0.1002 -0.2316  0.2159
  791MOL0     C 9054   8.186   1.333   6.082  0.2272 -1.0759  0.0382
  791MOL0     C 9055   8.098   1.438   6.050 -0.1619 -0.2263  0.5357
  791MOL0     O 9056   8.087   1.550   6.135  0.3810  1.0054 -1.2120
  791MOL0     C 9057   7.989   1.651   6.110  0.5350 -0.2997 -0.3399
  791MOL0     C 9058   8.013   1.757   6.214 -0.1317  0.2181  0.4004
  791MOL0     C 9059   7.911   1.873   6.211 -0.4575 -0.2439  0.3473
  791MOL0     C 9060   7.970   2.004   6.254  0.0300  0.3966 -0.9700
  791MOL0     C 9061   7.878   2.121   6.210  0.1797  0.5036 -0.1948
  791MOL0     C 9062   7.752   2.134   6.304 -0.1404 -0.0028  0.2233
  791MOL0     C 9063   7.650   2.240   6.249  0.6485  0.1359  0.0188
  791MOL0     C 9064   7.514   2.187   6.207 -0.3044  0.6240  1.7100
  791MOL0    Cl 9065   7.533   2.070   6.079  0.2919 -0.1530 -0.0329
  791MOL0     C 9066   8.034   1.433   5.937 -0.0104 -0.4426  0.3480
  791MOL0     C 9067   8.057   1.325   5.847 -0.3074  0.1943 -1.1274
  791MOL0     O 9068   7.978   1.029   5.808  0.0975  0.3845  0.3662
  791MOL0     C 9069   8.232   0.972   5.560 -0.7876  0.8929  0.3781
  791MOL0     C 9070   8.278   0.879   5.470  0.1915  0.2511 -0.2047
  791MOL0     N 9071   8.262   0.631   4.763  0.9923 -0.4281  0.3538
  791MOL0     N 9072   8.161   0.651   4.681 -0.2498 -0.6593  0.1238
  791MOL0     C 9073   8.341   0.635   3.976 -0.2541  0.2162  0.0902
  791MOL0     C 9074   8.401   0.768   3.984  0.4528  0.7041 -0.5057
  791MOL0     C 9075   8.661   1.144   3.958 -0.2294 -0.2592  0.5546
  791MOL0     C 9076   8.795   1.129   3.994  0.2288 -0.5517  0.3182
  791MOL0     C 9077   8.890   1.237   4.005 -0.1877  0.2597  0.6356
  791MOL0     C 9078   8.846   1.364   3.976  0.0118  0.3466 -0.4280
  791MOL0     O 9079   8.922   1.475   3.992 -0.2140 -0.4064  0.5405
  791MOL0     C 9080   9.055   1.455   4.041  0.2412  0.0475  0.4221
  791MOL0     C 9081   9.103   1.604   4.062 -0.2499  0.0853  1.6632
  791MOL0     C 9082   9.247   1.617   4.106 -0.9847  0.1012 -0.8986
  791MOL0     C 9083   9.355   1.574   4.008  0.0814  0.0094  0.2475
  791MOL0     C 9084   9.420   1.450   4.045 -0.0758  0.0055  0.5181
  791MOL0     C 9085   9.480   1.345   4.076  0.1621  0.2311  1.6885
  791MOL0     C 9086   8.713   1.378   3.940 -0.0985 -0.0254  0.3713
  791MOL0     C 9087   8.624   1.279   3.919 -0.2723  0.4909 -0.6500
  791MOL0     C 9088   8.491   1.317   3.862  0.1775  0.1876  0.3108
  791MOL0     H 9089   8.691   0.692   4.108  0.9900 -0.7378 -0.2942
  791MOL0     H 9090   8.600   0.485   4.126  1.3418  2.3565  0.9029
  791MOL0     H 9091   8.288   0.329   3.852 -0.0106  0.4332 -0.0140
  791MOL0     H 9092   8.181   0.421   3.951  2.5414  1.3895 -1.1198
  791MOL0     H 9093   8.171   0.148   3.914  1.6800 -3.6865  2.0762
  791MOL0     H 9094   8.268   0.162   4.066 -0.7610 -1.7530 -0.1728
  791MOL0     H 9095   7.990   0.271   4.026 -0.9458  0.8149  1.2540
  791MOL0     H 9096   8.047   0.137   4.131  0.6407 -0.3795 -0.2509
  791MOL0     H 9097   8.198   0.312   4.250  1.0772 -0.3336 -1.3651
  791MOL0     H 9098   8.098   0.442   4.166 -2.2941 -1.6620 -2.3890
  791MOL0     H 9099   7.944   0.231   4.330  0.1129 -1.3858 -2.5256
  791MOL0     H 9100   7.902   0.380   4.243  0.4635  0.3635 -0.9909
  791MOL0     H 9101   8.106   0.380   4.469  0.8126  2.0256  1.4722
  791MOL0     H 9102   8.019   0.524   4.397 -0.5163  1.3062  0.3266
  791MOL0     H 9103   7.921   0.315   4.599  1.6444  1.2319 -0.1650
  791MOL0     H 9104   7.806   0.414   4.501  0.6659  2.0821 -1.7047
  791MOL0     H 9105   7.938   0.623   4.566 -0.8457 -0.2529 -0.2817
  791MOL0     H 9106   7.856   0.531   4.697  0.3853 -0.8075  1.3104
  791MOL0     H 9107   8.074   0.358   4.820  1.1611  0.0526  0.0483
  791MOL0     H 9108   8.421   0.487   4.940 -0.5513  3.3371 -2.6497
  791MOL0     H 9109   8.351   0.335   4.903 -1.7731 -0.6204  2.0354
  791MOL0     H 9110   8.143   0.461   5.061 -0.7657  2.9912  2.6255
  791MOL0     H 9111   8.266   0.359   5.132  3.1385 -0.6514 -1.4625
  791MOL0     H 9112   8.412   0.553   5.161  0.2702 -0.7825  1.8582
  791MOL0     H 9113   8.281   0.660   5.112  3.1502  0.4271 -0.6953
  791MOL0     H 9114   8.130   0.556   5.293 -0.9566  0.0047  1.9093
  791MOL0     H 9115   8.277   0.483   5.366 -0.6043  2.5803  3.4642
  791MOL0     H 9116   8.062   0.628   5.525 -2.4170  0.9274  2.0394
  791MOL0     H 9117   7.867   0.821   5.725 -0.5943 -0.4992  0.7920
  791MOL0     H 9118   7.996   0.763   5.821 -0.6105  0.2590 -0.6310
  791MOL0     H 9119   7.907   0.667   5.694 -3.2172  1.8541 -0.5742
  791MOL0     H 9120   8.260   1.135   6.032 -0.3252 -0.7903 -0.6332
  791MOL0     H 9121   8.226   1.345   6.182 -2.8840  1.4816  1.1420
  791MOL0     H 9122   8.010   1.693   6.012 -0.6262 -0.5963 -0.7265
  791MOL0     H 9123   7.886   1.616   6.123 -0.5328  3.2716  2.3617
  791MOL0     H 9124   8.004   1.698   6.306  0.5552  1.7385  1.4934
  791MOL0     H 9125   8.114   1.794   6.193 -0.9849  1.9074 -0.9914
  791MOL0     H 9126   7.821   1.848   6.267  0.5007 -0.8876  1.6502
  791MOL0     H 9127   7.878   1.889   6.108  1.3101  1.7191  0.0210
  791MOL0     H 9128   8.072   2.021   6.218  1.6865 -1.5633  2.2954
  791MOL0     H 9129   7.964   2.012   6.363  4.1010  2.4310 -0.6991
  791MOL0     H 9130   7.929   2.218   6.209 -1.4641  1.4395  1.3837
  791MOL0     H 9131   7.838   2.112   6.108 -0.5276  0.8142  0.0483
  791MOL0     H 9132   7.781   2.159   6.407 -2.5294  1.8642  0.5272
  791MOL0     H 9133   7.702   2.037   6.320 -0.4895  0.4509  2.1681
  791MOL0     H 9134   7.684   2.295   6.161  0.0755 -0.0528 -0.3309
  791MOL0     H 9135   7.638   2.318   6.324  1.7279 -1.5692  2.0790
  791MOL0     H 9136   7.462   2.272   6.161  0.7133  0.2482 -0.2447
  791MOL0     H 9137   7.452   2.152   6.290 -1.0285  0.5182  1.1379
  791MOL0     H 9138   7.978   1.517   5.896 -2.1291 -1.2096  1.5269
  791MOL0     H 9139   8.009   1.328   5.750  2.0092  1.8367 -2.3122
  791MOL0     H 9140   8.278   1.069   5.547 -1.3469  0.9523 -1.3760
  791MOL0     H 9141   8.348   0.911   5.394  0.6691  2.4802  1.0693
  791MOL0     H 9142   8.240   0.633   3.935  0.2287  1.5899 -1.2507
  791MOL0     H 9143   8.332   0.842   3.945  0.3624  0.1243 -1.4644
  791MOL0     H 9144   8.836   1.029   4.009  3.7065  0.0365 -3.2803
  791MOL0     H 9145   8.990   1.205   4.034 -0.1122 -0.4787 -0.3993
  791MOL0     H 9146   9.068   1.387   4.125  1.7763 -1.2342 -0.7870
  791MOL0     H 9147   9.106   1.418   3.952 -1.2586  0.1618 -0.5224
  791MOL0     H 9148   9.042   1.663   4.131 -3.1913  1.6490 -1.9434
  791MOL0     H 9149   9.101   1.649   3.963 -1.2862 -1.4638  0.9299
  791MOL0     H 9150   9.270   1.722   4.126 -1.9372 -0.3525  3.5187
  791MOL0     H 9151   9.263   1.572   4.204  1.8738  3.0907  0.1816
  791MOL0     H 9152   9.426   1.654   3.988  0.5087 -0.2308  0.7928
  791MOL0     H 9153   9.305   1.554   3.912  2.4824  0.5790 -1.2082
  791MOL0     H 9154   9.539   1.268   4.120 -0.7652 -0.3732  1.9100
  791MOL0     H 9155   8.681   1.478   3.915  2.8005  0.2171 -3.0815
  791MOL0     H 9156   8.420   1.305   3.944 -0.0438 -0.7514 -0.0005
  791MOL0     H 9157   8.482   1.417   3.820  1.0311  0.2790  0.3217
  791MOL0     H 9158   8.468   1.247   3.781  3.3814 -2.4185  1.4152
  792MOL0     O 9159   2.699   7.990   1.036 -0.6466 -0.2329  0.3267
  792MOL0     C 9160   2.650   7.976   0.925 -0.1566  0.7846 -0.1285
  792MOL0     O 9161   2.698   7.905   0.822  0.2360 -0.2553 -0.5524
  792MOL0     C 9162   2.826   7.864   0.829 -0.1600 -0.8030 -0.0560
  792MOL0     C 9163   2.928   7.954   0.857 -0.5625 -0.1432 -0.4038
  792MOL0     C 9164   3.061   7.910   0.844 -0.1608  0.0732 -0.8599
  792MOL0     C 9165   3.091   7.772   0.823 -0.6430 -0.3908  0.6326
  792MOL0     O 9166   3.218   7.732   0.803 -0.5611 -0.6391  0.0892
  792MOL0     C 9167   3.281   7.683   0.924  0.9135  0.1931 -0.1826
  792MOL0     C 9168   3.438   7.694   0.913 -0.0185 -0.3149 -0.3206
  792MOL0     C 9169   3.482   7.841   0.919 -0.4222 -1.6153 -0.0879
  792MOL0     C 9170   3.634   7.856   0.918  0.1789  0.3862  0.3803
  792MOL0     C 9171   3.666   8.010   0.889 -0.6830  0.0016  0.6099
  792MOL0     C 9172   3.811   8.046   0.929 -0.1755  0.1043  0.4104
  792MOL0     C 9173   3.868   8.160   0.838 -0.5322 -0.3106  0.5200
  792MOL0     C 9174   3.900   8.110   0.700 -0.9165 -0.5164  0.4998
  792MOL0     N 9175   3.975   8.215   0.629  0.8503 -0.9328  0.2223
  792MOL0     C 9176   4.108   8.252   0.659  0.0615 -0.4265 -0.2908
  792MOL0     C 9177   4.131   8.342   0.566  0.1359 -0.2728  0.1135
  792MOL0     C 9178   4.261   8.415   0.527 -0.1589 -0.2621  0.1304
  792MOL0     C 9179   4.356   8.336   0.444 -0.7446 -0.0708 -0.3945
  792MOL0     C 9180   4.291   8.249   0.319  0.2398  0.1400 -0.3139
  792MOL0     C 9181   4.403   8.195   0.228  0.5336  0.4837  0.2293
  792MOL0     O 9182   4.476   8.092   0.294 -0.3056 -0.4950 -0.0655
  792MOL0     C 9183   4.617   8.085   0.275 -0.5761  0.8032  0.5188
  792MOL0     C 9184   4.717   8.126   0.365  0.2973 -0.9268 -0.2910
  792MOL0     C 9185   4.848   8.132   0.330  0.2144  0.0521  0.2130
  792MOL0     C 9186   4.942   8.198   0.430  0.1949  0.1640  0.0208
  792MOL0     C 9187   4.892   8.068   0.209 -0.9596 -0.5547 -1.3543
  792MOL0     C 9188   5.040   8.057   0.176  0.0868  0.0584 -0.9209
  792MOL0     O 9189   5.085   7.950   0.111  0.1631 -0.3426  1.0340
  792MOL0     C 9190   5.219   7.931   0.089  0.3848 -0.6653 -0.9784
  792MOL0     C 9191   5.294   8.003  -0.003 -0.1357 -0.4961  0.1713
  792MOL0     C 9192   5.439   7.991  -0.010 -0.4252  0.2108 -0.0093
  792MOL0     C 9193   5.500   7.885   0.057 -0.6544  0.1177  0.4361
  792MOL0     O 9194   5.630   7.848   0.026  0.0848  0.9737  0.2662
  792MOL0     C 9195   5.719   7.910  -0.077  0.7358 -0.3493 -1.0413
  792MOL0     C 9196   5.679   7.896  -0.218 -0.2621 -0.4630 -0.7919
  792MOL0     C 9197   5.688   7.751  -0.256  0.8438  0.6259 -0.1778
  792MOL0     C 9198   5.835   7.715  -0.288 -0.0582 -0.5487  0.8607
  792MOL0     C 9199   5.835   7.604  -0.385 -0.2640  0.6596 -0.1654
  792MOL0     C 9200   5.800   7.464  -0.317  0.5331 -1.2594  0.0377
  792MOL0     C 9201   5.853   7.345  -0.393 -0.1963 -0.7692  0.2677
  792MOL0     C 9202   5.837   7.217  -0.315 -1.0041  0.5375 -0.3780
  792MOL0    Cl 9203   5.920   7.078  -0.379 -0.1402 -0.0429  0.0090
  792MOL0     C 9204   5.416   7.804   0.141  0.8763  0.1380  1.0496
  792MOL0     C 9205   5.282   7.836   0.159 -0.6315  0.3063  0.3741
  792MOL0     O 9206   5.115   8.153   0.198  0.1022  0.0685  0.4251
  792MOL0     C 9207   4.796   8.006   0.128  0.2237 -0.0150 -0.7187
  792MOL0     C 9208   4.661   8.011   0.156  0.2998 -0.4699 -0.4500
  792MOL0     N 9209   4.023   8.358   0.477  0.8695 -0.3327  0.0220
  792MOL0     N 9210   3.932   8.283   0.519  0.6941 -0.3088 -0.2555
  792MOL0     C 9211   2.991   7.682   0.803  0.0814 -0.8869 -1.2045
  792MOL0     C 9212   2.858   7.726   0.814 -0.0220  0.7552 -0.1210
  792MOL0     C 9213   2.517   8.031   0.901  0.7697 -0.7250 -1.0349
  792MOL0     C 9214   2.418   7.963   0.824  0.2198  0.2825  0.4920
  792MOL0     C 9215   2.291   8.024   0.804  0.2472  0.4358  0.5567
  792MOL0     C 9216   2.266   8.151   0.853 -0.4404 -0.4637 -0.5583
  792MOL0     O 9217   2.141   8.203   0.819  0.3490  0.1959  0.0203
  792MOL0     C 9218   2.118   8.341   0.842  0.0622 -0.1754 -0.3284
  792MOL0     C 9219   1.987   8.399   0.800  0.0706 -0.4974  0.5425
  792MOL0     C 9220   1.879   8.385   0.915 -0.4900 -1.2257  0.2526
  792MOL0     C 9221   1.738   8.446   0.875 -0.0577  0.0756  0.2925
  792MOL0     C 9222   1.645   8.433   0.989  0.9198  0.4427 -0.5456
  792MOL0     C 9223   1.566   8.426   1.090 -0.9146  0.1981  0.3989
  792MOL0     C 9224   2.361   8.212   0.940  0.3820 -0.3521 -0.1615
  792MOL0     C 9225   2.487   8.164   0.960 -1.1248  0.7172  0.2354
  792MOL0     C 9226   2.579   8.248   1.042 -0.5680 -0.4574  0.6735
  792MOL0     H 9227   2.920   8.061   0.872  1.8855 -0.1037  1.1365
  792MOL0     H 9228   3.139   7.983   0.862 -3.0154  2.7371  1.9221
  792MOL0     H 9229   3.260   7.576   0.925  0.2348  0.3216  1.4080
  792MOL0     H 9230   3.239   7.730   1.013 -1.6902  0.8964 -1.6647
  792MOL0     H 9231   3.496   7.648   0.993 -0.2779 -1.5440 -0.8222
  792MOL0     H 9232   3.469   7.651   0.817  0.4299 -0.9113  0.0840
  792MOL0     H 9233   3.426   7.888   0.838 -0.9799 -1.2039  0.5220
  792MOL0     H 9234   3.430   7.877   1.009 -2.3356 -1.4809 -1.1912
  792MOL0     H 9235   3.659   7.818   1.017 -0.7083  0.7925  0.7673
  792MOL0     H 9236   3.688   7.793   0.847  1.5761 -0.5240  2.1783
  792MOL0     H 9237   3.589   8.076   0.932 -2.4738 -0.9656 -0.9653
  792MOL0     H 9238   3.650   8.020   0.781  1.4062 -0.4040  0.2158
  792MOL0     H 9239   3.828   8.064   1.036  1.4632 -2.9147  0.7767
  792MOL0     H 9240   3.873   7.958   0.912 -0.5832  0.0335 -0.7764
  792MOL0     H 9241   3.953   8.204   0.892 -1.0251 -2.0013  2.8509
  792MOL0     H 9242   3.800   8.244   0.821  1.9870  2.1277  1.6161
  792MOL0     H 9243   3.950   8.013   0.703 -2.1325 -1.2479 -1.2721
  792MOL0     H 9244   3.809   8.085   0.645 -0.9626  1.4832 -0.4286
  792MOL0     H 9245   4.157   8.210   0.746 -0.9215 -3.0286 -0.8798
  792MOL0     H 9246   4.319   8.445   0.615 -1.1030 -3.1640  1.8791
  792MOL0     H 9247   4.239   8.508   0.474  0.7286  1.2279  2.2111
  792MOL0     H 9248   4.436   8.403   0.410  0.4444 -1.4542 -0.4085
  792MOL0     H 9249   4.416   8.276   0.513  0.2202  0.0114 -1.1363
  792MOL0     H 9250   4.224   8.171   0.357 -0.9093  0.1962 -2.1278
  792MOL0     H 9251   4.220   8.310   0.263  0.4057  0.4876 -0.1488
  792MOL0     H 9252   4.359   8.138   0.146  2.1260 -2.8343  1.5061
  792MOL0     H 9253   4.465   8.280   0.198  0.2051  1.4119  2.0399
  792MOL0     H 9254   4.676   8.172   0.454  3.1135 -1.0694  1.1996
  792MOL0     H 9255   5.035   8.142   0.442  0.3043  0.2379 -0.4381
  792MOL0     H 9256   4.888   8.216   0.523 -1.1603  0.7126 -0.8392
  792MOL0     H 9257   4.973   8.290   0.379  0.1237 -0.5723 -1.3977
  792MOL0     H 9258   5.243   8.083  -0.056  0.8542  1.3561  1.8440
  792MOL0     H 9259   5.497   8.049  -0.082  2.4329 -2.8676 -0.4261
  792MOL0     H 9260   5.730   8.018  -0.064  3.7174 -0.8080  1.5314
  792MOL0     H 9261   5.822   7.873  -0.074  0.7365 -0.3207  1.2514
  792MOL0     H 9262   5.578   7.936  -0.233  0.3169  0.4835 -2.4252
  792MOL0     H 9263   5.746   7.952  -0.283 -2.0530  1.4767 -1.0802
  792MOL0     H 9264   5.621   7.741  -0.342 -0.9669 -2.1795  1.4077
  792MOL0     H 9265   5.650   7.685  -0.178 -0.9401  4.2387  2.2892
  792MOL0     H 9266   5.879   7.688  -0.192 -0.6998 -1.2397  0.9762
  792MOL0     H 9267   5.893   7.788  -0.345  0.7465  0.0771  2.4257
  792MOL0     H 9268   5.767   7.623  -0.469 -1.7710  0.3257  0.9396
  792MOL0     H 9269   5.932   7.588  -0.432 -0.0749 -0.8944  0.6911
  792MOL0     H 9270   5.695   7.450  -0.290  1.1308 -0.1380  3.2865
  792MOL0     H 9271   5.842   7.473  -0.217 -0.6029  2.5742  0.3077
  792MOL0     H 9272   5.959   7.372  -0.403 -0.7595  1.0967 -1.5091
  792MOL0     H 9273   5.808   7.330  -0.491  1.2398 -2.7261 -0.1588
  792MOL0     H 9274   5.729   7.200  -0.308 -0.9106  0.5036  1.7364
  792MOL0     H 9275   5.866   7.223  -0.209 -4.1106 -0.5770  0.6348
  792MOL0     H 9276   5.450   7.709   0.182 -0.9302 -1.7928 -1.5965
  792MOL0     H 9277   5.223   7.788   0.237 -1.2494 -1.4941 -1.1253
  792MOL0     H 9278   4.823   7.939   0.047 -0.7951 -2.4230  0.8252
  792MOL0     H 9279   4.582   7.964   0.099  0.8076 -2.6361  0.5149
  792MOL0     H 9280   3.014   7.576   0.799  3.6812 -0.2921  0.1336
  792MOL0     H 9281   2.774   7.658   0.800 -0.3977  0.6452  2.2794
  792MOL0     H 9282   2.439   7.870   0.773  1.9570  1.3707 -0.8755
  792MOL0     H 9283   2.215   7.970   0.748  0.1433 -1.1964  2.1765
  792MOL0     H 9284   2.126   8.355   0.950  3.1037  0.6677 -0.5752
  792MOL0     H 9285   2.206   8.387   0.797  0.4412 -2.8239 -2.6001
  792MOL0     H 9286   1.952   8.352   0.707 -2.8230  3.2024 -0.4615
  792MOL0     H 9287   1.997   8.506   0.779 -1.9083 -0.3099  0.3435
  792MOL0     H 9288   1.876   8.279   0.943  0.5093 -1.4885 -0.5818
  792MOL0     H 9289   1.917   8.441   1.001 -0.7472  1.4204 -1.2533
  792MOL0     H 9290   1.700   8.387   0.791 -2.0993  0.5648  0.8219
  792MOL0     H 9291   1.751   8.547   0.835 -1.7950 -0.1864 -1.0617
  792MOL0     H 9292   1.517   8.408   1.184 -0.6611  1.7839  0.8701
  792MOL0     H 9293   2.341   8.305   0.993  0.3866 -0.1316 -0.5411
  792MOL0     H 9294   2.578   8.224   1.148  1.4130 -2.1698  0.3582
  792MOL0     H 9295   2.679   8.229   1.002 -1.5539 -1.1845 -1.6278
  792MOL0     H 9296   2.565   8.356   1.031  0.6244 -0.3300  0.2704
  793MOL0     O 9297   5.740   1.049   2.577  0.6624 -0.0829  0.4234
  793MOL0     C 9298   5.785   1.099   2.675 -0.4378 -0.7007  0.6559
  793MOL0     O 9299   5.917   1.090   2.713  0.0143  0.2769 -0.0657
  793MOL0     C 9300   6.004   1.002   2.645  0.9887 -0.0427  0.0711
  793MOL0     C 9301   6.141   1.038   2.648 -0.4030  0.2335  0.4117
  793MOL0     C 9302   6.240   0.956   2.590  0.4249 -0.3855  0.4590
  793MOL0     C 9303   6.196   0.846   2.512  0.1805 -0.0399 -0.7415
  793MOL0     O 9304   6.298   0.770   2.454 -0.6931  0.3984 -0.8811
  793MOL0     C 9305   6.271   0.706   2.333  1.2377 -1.2774 -0.4569
  793MOL0     C 9306   6.394   0.625   2.298 -0.0866  0.0281  1.6107
  793MOL0     C 9307   6.361   0.540   2.175 -0.1478 -0.4239  0.0432
  793MOL0     C 9308   6.481   0.460   2.144 -0.3195  0.0666 -0.5334
  793MOL0     C 9309   6.434   0.350   2.040 -0.1083  0.4695 -0.0916
  793MOL0     C 9310   6.538   0.233   2.032 -0.2328  0.0035  0.1514
  793MOL0     C 9311   6.499   0.109   1.963  0.2506 -0.0701  1.1710
  793MOL0     C 9312   6.616   0.012   1.942  0.6999  0.4564 -0.1974
  793MOL0     N 9313   6.584  -0.132   1.923  0.0993 -0.6457 -0.4367
  793MOL0     C 9314   6.617  -0.192   1.811 -0.3686 -0.3203  0.2757
  793MOL0     C 9315   6.576  -0.316   1.811  0.4172  0.9714 -0.5607
  793MOL0     C 9316   6.591  -0.430   1.712 -0.0027 -0.8429 -1.3273
  793MOL0     C 9317   6.732  -0.476   1.720  0.3333 -0.6033 -0.1170
  793MOL0     C 9318   6.779  -0.560   1.612  0.1130 -0.4236  0.3892
  793MOL0     C 9319   6.933  -0.567   1.616 -0.0071  0.1371  0.2282
  793MOL0     O 9320   6.986  -0.644   1.721  0.4854  0.4624  1.0233
  793MOL0     C 9321   7.040  -0.769   1.701  0.3258 -0.7982  0.0635
  793MOL0     C 9322   7.113  -0.820   1.813 -0.8194  0.1542 -0.2123
  793MOL0     C 9323   7.174  -0.957   1.802 -0.2403 -0.5480  0.0310
  793MOL0     C 9324   7.253  -1.004   1.920  0.5032  0.2443  0.4671
  793MOL0     C 9325   7.156  -1.030   1.681  1.0214 -0.5952 -0.4647
  793MOL0     C 9326   7.187  -1.182   1.676  0.3724 -0.8010 -1.1956
  793MOL0     O 9327   7.191  -1.238   1.554  0.5442  0.2924  0.1945
  793MOL0     C 9328   7.206  -1.378   1.543 -0.6934 -0.7461  0.0010
  793MOL0     C 9329   7.104  -1.454   1.499  0.4244  0.3340  0.3032
  793MOL0     C 9330   7.118  -1.585   1.462  0.5606 -0.0964  0.1863
  793MOL0     C 9331   7.239  -1.644   1.479 -0.3886  0.5450  1.0340
  793MOL0     O 9332   7.266  -1.770   1.446 -0.5944  0.1672  0.0540
  793MOL0     C 9333   7.161  -1.857   1.406 -0.4196  0.4536  0.2746
  793MOL0     C 9334   7.216  -1.986   1.351  0.4565 -1.1130 -0.4724
  793MOL0     C 9335   7.095  -2.059   1.290  0.2336 -0.5277  0.7726
  793MOL0     C 9336   7.116  -2.202   1.255 -0.1066 -0.6314 -0.7161
  793MOL0     C 9337   7.245  -2.235   1.180 -0.6411  0.1064 -0.4658
  793MOL0     C 9338   7.259  -2.172   1.041  0.2579  0.3502 -0.0884
  793MOL0     C 9339   7.413  -2.187   0.997  1.3156  0.7188 -0.7268
  793MOL0     C 9340   7.437  -2.080   0.893 -0.1439  0.3193 -0.8286
  793MOL0    Cl 9341   7.609  -2.076   0.870 -0.5313 -0.0851 -0.2090
  793MOL0     C 9342   7.345  -1.573   1.530  1.2103 -1.2452 -0.1083
  793MOL0     C 9343   7.329  -1.434   1.562 -0.3785  0.0306  0.3918
  793MOL0     O 9344   7.204  -1.241   1.784 -0.1043  0.1520 -0.4594
  793MOL0     C 9345   7.088  -0.972   1.576 -0.1204 -0.4147 -0.4120
  793MOL0     C 9346   7.035  -0.841   1.581  0.6889  0.2059 -0.1983
  793MOL0     N 9347   6.486  -0.325   1.919 -1.1181 -0.4879  0.1356
  793MOL0     N 9348   6.490  -0.214   1.981  0.5328 -1.7365 -0.6663
  793MOL0     C 9349   6.064   0.809   2.512 -0.7036 -0.5375  0.7231
  793MOL0     C 9350   5.967   0.884   2.574  0.2261 -0.1323 -0.1320
  793MOL0     C 9351   5.697   1.174   2.771 -0.1345 -0.3939 -0.2590
  793MOL0     C 9352   5.714   1.153   2.913 -0.0844 -0.6925  0.0757
  793MOL0     C 9353   5.638   1.231   3.001 -0.4321 -0.2584 -0.1247
  793MOL0     C 9354   5.527   1.312   2.961 -0.5518 -1.1914 -0.8987
  793MOL0     O 9355   5.454   1.378   3.061  0.2607 -0.3825 -1.2087
  793MOL0     C 9356   5.380   1.498   3.038 -0.8811  0.1490  1.0214
  793MOL0     C 9357   5.349   1.566   3.177 -0.2677 -0.2155  0.0879
  793MOL0     C 9358   5.468   1.652   3.224 -0.2106  0.2261 -0.3642
  793MOL0     C 9359   5.603   1.586   3.242 -1.0646  1.1341 -1.1711
  793MOL0     C 9360   5.591   1.480   3.349  0.5020 -0.3170  0.8241
  793MOL0     C 9361   5.584   1.395   3.435 -0.7175 -0.4187 -0.7418
  793MOL0     C 9362   5.501   1.321   2.830 -0.2072  0.3997  0.5837
  793MOL0     C 9363   5.584   1.253   2.731 -1.0926  0.7906 -1.3156
  793MOL0     C 9364   5.546   1.280   2.593  0.1349 -0.2154  0.5689
  793MOL0     H 9365   6.187   1.120   2.703  2.3737  1.5792 -3.4464
  793MOL0     H 9366   6.343   0.972   2.620  1.3394 -2.1478 -1.4413
  793MOL0     H 9367   6.252   0.780   2.254 -0.2053 -1.2521 -0.1003
  793MOL0     H 9368   6.192   0.631   2.341 -0.5218  0.4058 -1.2204
  793MOL0     H 9369   6.472   0.699   2.279 -1.2123  1.8705  3.6228
  793MOL0     H 9370   6.416   0.557   2.380 -3.1851  1.8745  4.2092
  793MOL0     H 9371   6.285   0.467   2.204  1.7628 -2.1228  1.0418
  793MOL0     H 9372   6.336   0.598   2.086 -1.1224  1.3808  1.4128
  793MOL0     H 9373   6.555   0.537   2.120 -2.3433  1.7439 -1.7367
  793MOL0     H 9374   6.509   0.414   2.239 -0.4188  1.7682  0.3678
  793MOL0     H 9375   6.408   0.404   1.949 -3.2353  3.3230  2.2326
  793MOL0     H 9376   6.345   0.292   2.066  0.3202 -0.0568  0.2257
  793MOL0     H 9377   6.630   0.275   1.989 -1.3928  0.5451 -1.9641
  793MOL0     H 9378   6.554   0.206   2.136 -0.3250  1.8606  0.6813
  793MOL0     H 9379   6.470   0.149   1.866 -2.0719  1.8872  2.5658
  793MOL0     H 9380   6.408   0.071   2.009  1.0781 -1.4062  1.7782
  793MOL0     H 9381   6.679   0.037   1.856  2.0484 -3.2055 -0.4563
  793MOL0     H 9382   6.678   0.019   2.032  0.0768 -1.8868  0.4690
  793MOL0     H 9383   6.677  -0.142   1.735 -1.5675  0.3118 -0.2818
  793MOL0     H 9384   6.556  -0.403   1.612 -0.3380 -0.4938 -1.1185
  793MOL0     H 9385   6.527  -0.512   1.748 -1.2143  0.3949 -0.5704
  793MOL0     H 9386   6.799  -0.393   1.742  0.7865 -1.4111  1.8026
  793MOL0     H 9387   6.736  -0.542   1.807 -1.8722 -0.5600  0.0688
  793MOL0     H 9388   6.728  -0.657   1.621 -1.5073  0.5099  1.7967
  793MOL0     H 9389   6.753  -0.497   1.527  0.0712  2.7117  2.5628
  793MOL0     H 9390   6.963  -0.598   1.516 -3.4775 -0.2945 -0.7973
  793MOL0     H 9391   6.979  -0.468   1.625  1.9796 -0.6498 -0.5871
  793MOL0     H 9392   7.126  -0.766   1.907 -2.0005  2.4283 -1.2817
  793MOL0     H 9393   7.358  -1.012   1.892  0.4559 -1.8369  0.7241
  793MOL0     H 9394   7.210  -1.095   1.963 -0.9820  0.5764 -0.2358
  793MOL0     H 9395   7.244  -0.930   2.000 -1.4242  1.9851 -1.2250
  793MOL0     H 9396   7.003  -1.418   1.481  0.4049  0.2862  0.3188
  793MOL0     H 9397   7.023  -1.634   1.441  0.6322  0.0951 -0.6394
  793MOL0     H 9398   7.086  -1.875   1.484  0.4618  1.7685  1.4701
  793MOL0     H 9399   7.098  -1.816   1.327 -0.3062 -2.1121 -1.2533
  793MOL0     H 9400   7.295  -1.959   1.280 -0.3632 -1.3544 -1.4988
  793MOL0     H 9401   7.272  -2.038   1.430  0.6661 -0.3643 -0.1196
  793MOL0     H 9402   7.059  -2.007   1.201  4.1467  2.1811  0.4823
  793MOL0     H 9403   7.005  -2.059   1.351 -3.2341 -0.2598 -3.7833
  793MOL0     H 9404   7.029  -2.244   1.203 -0.1478  0.1740 -1.3218
  793MOL0     H 9405   7.126  -2.258   1.348  0.1654  2.4858  1.2771
  793MOL0     H 9406   7.324  -2.192   1.243  0.0729 -0.1740 -1.1538
  793MOL0     H 9407   7.250  -2.344   1.172 -2.4043  0.0676 -1.4342
  793MOL0     H 9408   7.228  -2.067   1.044  0.4163  0.3836  2.5112
  793MOL0     H 9409   7.203  -2.234   0.970  0.3278  1.7709 -1.4375
  793MOL0     H 9410   7.435  -2.284   0.952 -0.3352 -0.6934  1.3178
  793MOL0     H 9411   7.486  -2.175   1.078 -1.3338 -2.0213  2.3847
  793MOL0     H 9412   7.393  -1.988   0.932  1.2016  0.5749  0.1600
  793MOL0     H 9413   7.386  -2.116   0.803  0.3026  1.8008 -1.7046
  793MOL0     H 9414   7.441  -1.623   1.523  1.0661 -1.3516 -1.5259
  793MOL0     H 9415   7.417  -1.374   1.579 -0.0239  0.0678 -1.4003
  793MOL0     H 9416   7.096  -1.025   1.481  0.4905 -1.6022  0.2816
  793MOL0     H 9417   7.000  -0.799   1.487  2.6844  1.1968 -0.5552
  793MOL0     H 9418   6.028   0.726   2.451  0.3809 -0.3638 -0.1767
  793MOL0     H 9419   5.861   0.861   2.568  0.2003  0.0926 -0.6309
  793MOL0     H 9420   5.783   1.087   2.963  0.4313 -0.3320 -0.1461
  793MOL0     H 9421   5.654   1.224   3.108  2.0138 -0.1967 -0.4499
  793MOL0     H 9422   5.433   1.566   2.971 -2.0940  0.9065  0.7908
  793MOL0     H 9423   5.288   1.462   2.990  0.2285 -3.9094  1.5367
  793MOL0     H 9424   5.330   1.492   3.255  5.2468 -0.8054  1.3319
  793MOL0     H 9425   5.257   1.625   3.171 -0.3212 -0.2268  0.7260
  793MOL0     H 9426   5.476   1.737   3.156  0.0926 -0.4848 -1.2349
  793MOL0     H 9427   5.446   1.698   3.321  0.2762  0.5882 -0.4217
  793MOL0     H 9428   5.683   1.659   3.262  0.8628 -1.1513 -0.0224
  793MOL0     H 9429   5.645   1.536   3.154  0.8374 -0.3361  0.4714
  793MOL0     H 9430   5.572   1.336   3.523  2.1267  1.7993  1.3310
  793MOL0     H 9431   5.423   1.383   2.788 -0.1468 -2.0131 -3.6929
  793MOL0     H 9432   5.613   1.255   2.510  0.9934 -0.2123  1.2359
  793MOL0     H 9433   5.456   1.224   2.568  0.8474 -1.1508  0.0285
  793MOL0     H 9434   5.525   1.387   2.590 -0.8160 -0.4050 -2.3954
  794MOL0     O 9435   8.501   1.044   7.604 -0.2139 -0.5667 -0.0963
  794MOL0     C 9436   8.523   1.120   7.509 -0.6511 -0.6864  0.1127
  794MOL0     O 9437   8.651   1.159   7.466 -0.6852 -0.1525  0.1561
  794MOL0     C 9438   8.755   1.120   7.553  0.3896 -0.1353  0.5833
  794MOL0     C 9439   8.795   0.985   7.559 -0.5130 -0.0901  0.4962
  794MOL0     C 9440   8.902   0.938   7.645  0.1089 -1.4093 -0.4959
  794MOL0     C 9441   8.971   1.037   7.722  0.7903 -0.7011  0.3856
  794MOL0     O 9442   9.078   0.977   7.786 -1.0015  0.3008  0.0707
  794MOL0     C 9443   9.170   1.057   7.865 -0.3204  0.3207 -0.2698
  794MOL0     C 9444   9.103   1.107   7.995  0.0338  0.8749  0.2982
  794MOL0     C 9445   9.186   1.202   8.077 -0.1970 -0.0714  0.2515
  794MOL0     C 9446   9.304   1.131   8.144  0.8394  0.2699  0.1073
  794MOL0     C 9447   9.416   1.213   8.199  0.8210  0.8158  0.6738
  794MOL0     C 9448   9.539   1.127   8.225  0.2778 -0.4411  0.1123
  794MOL0     C 9449   9.652   1.228   8.263  1.0466  0.1431 -0.4958
  794MOL0     C 9450   9.787   1.165   8.252  0.2890  0.1671  0.9501
  794MOL0     N 9451   9.797   1.036   8.318  0.9930  0.0854  0.2086
  794MOL0     C 9452   9.784   1.021   8.453  0.3475 -0.6396  0.0690
  794MOL0     C 9453   9.835   0.899   8.480  0.1824  1.1976 -0.6059
  794MOL0     C 9454   9.828   0.824   8.616 -0.4844 -0.3424  0.0430
  794MOL0     C 9455   9.927   0.881   8.716 -0.4821  0.8431  0.2059
  794MOL0     C 9456   9.964   0.790   8.839  0.4816 -0.0046 -0.0090
  794MOL0     C 9457  10.072   0.685   8.806  0.8951 -0.0281 -0.2496
  794MOL0     O 9458  10.193   0.734   8.875  0.2209  0.8336  0.3879
  794MOL0     C 9459  10.286   0.641   8.909  0.1883 -0.0786  0.0620
  794MOL0     C 9460  10.276   0.568   9.029 -0.0510 -0.8916  0.4152
  794MOL0     C 9461  10.377   0.478   9.068 -0.0838  0.3491  0.3514
  794MOL0     C 9462  10.350   0.399   9.197 -0.5620  0.1183  0.3356
  794MOL0     C 9463  10.496   0.461   8.986  0.0127  0.5732 -0.9300
  794MOL0     C 9464  10.609   0.369   9.009  0.5180 -0.8632  0.9902
  794MOL0     O 9465  10.697   0.375   8.910  0.6929 -0.0496 -0.4561
  794MOL0     C 9466  10.813   0.299   8.912  0.4714 -0.5908  0.7085
  794MOL0     C 9467  10.835   0.192   8.818 -0.6768  0.3336 -0.4962
  794MOL0     C 9468  10.951   0.128   8.820 -0.2526  0.6494 -0.4385
  794MOL0     C 9469  11.051   0.170   8.909 -0.6185 -0.4573  0.1733
  794MOL0     O 9470  11.178   0.111   8.904 -0.6001 -0.5395  0.1551
  794MOL0     C 9471  11.232   0.138   8.770 -0.0557  0.1870  0.1343
  794MOL0     C 9472  11.368   0.057   8.752 -0.1221  0.0415  1.1290
  794MOL0     C 9473  11.330  -0.083   8.721  0.4913  0.2310 -0.1169
  794MOL0     C 9474  11.447  -0.181   8.693 -0.6051 -0.3562  0.0085
  794MOL0     C 9475  11.419  -0.329   8.714 -0.2555 -0.9905 -1.2545
  794MOL0     C 9476  11.531  -0.423   8.647 -0.1659 -0.5391 -0.7887
  794MOL0     C 9477  11.513  -0.572   8.687 -0.7448 -0.6294 -0.7243
  794MOL0     C 9478  11.624  -0.662   8.627 -0.7322 -0.0250  0.1161
  794MOL0    Cl 9479  11.769  -0.702   8.723  0.1394 -0.4780 -0.0373
  794MOL0     C 9480  11.033   0.274   9.002  0.1492 -0.7047 -1.1311
  794MOL0     C 9481  10.910   0.343   9.003 -0.4800  0.0732 -0.1757
  794MOL0     O 9482  10.620   0.298   9.108 -0.3504 -0.2992  0.6884
  794MOL0     C 9483  10.497   0.545   8.873 -0.9252  0.3855 -0.2566
  794MOL0     C 9484  10.397   0.628   8.838 -1.3483  0.2229  0.5640
  794MOL0     N 9485   9.873   0.845   8.363 -0.3232 -0.2150 -0.0605
  794MOL0     N 9486   9.846   0.922   8.265 -0.0200  0.2141  0.9160
  794MOL0     C 9487   8.933   1.169   7.713 -0.3819 -0.4415 -0.3478
  794MOL0     C 9488   8.823   1.214   7.632  0.2102  0.2186  0.2852
  794MOL0     C 9489   8.413   1.163   7.421 -0.8329 -0.0130 -0.0606
  794MOL0     C 9490   8.418   1.299   7.357  0.0976  0.8163  0.0931
  794MOL0     C 9491   8.320   1.333   7.263 -0.3223 -0.5040 -0.8430
  794MOL0     C 9492   8.207   1.257   7.241  0.0325 -0.0765  0.4371
  794MOL0     O 9493   8.109   1.279   7.145  0.7019  0.4415  1.0132
  794MOL0     C 9494   8.129   1.397   7.056  0.7459 -0.0054  0.0592
  794MOL0     C 9495   8.247   1.381   6.942 -1.3215  0.0576 -0.8484
  794MOL0     C 9496   8.261   1.502   6.846 -0.4077  0.0026  1.1549
  794MOL0     C 9497   8.383   1.592   6.865  0.3712 -0.0987 -0.3077
  794MOL0     C 9498   8.358   1.684   6.972 -0.1250  1.1704 -0.6886
  794MOL0     C 9499   8.343   1.765   7.054  0.3555  0.2720 -1.0442
  794MOL0     C 9500   8.203   1.135   7.303  0.1760 -0.9585 -0.8230
  794MOL0     C 9501   8.302   1.083   7.390 -0.2806  0.7558 -0.8659
  794MOL0     C 9502   8.275   0.937   7.430 -0.1071  0.0328  0.8652
  794MOL0     H 9503   8.753   0.918   7.485  0.0106  0.9278 -0.7532
  794MOL0     H 9504   8.946   0.839   7.641 -3.6815 -3.3637  1.4673
  794MOL0     H 9505   9.208   1.144   7.812 -0.1634  0.8937  0.7523
  794MOL0     H 9506   9.250   0.986   7.888 -0.9082 -0.5606 -0.8828
  794MOL0     H 9507   9.004   1.153   7.985  0.1165  0.7740 -1.1507
  794MOL0     H 9508   9.089   1.012   8.047 -0.5765 -0.1363 -1.5903
  794MOL0     H 9509   9.221   1.276   8.005 -3.8638  0.5635 -1.1245
  794MOL0     H 9510   9.126   1.254   8.153 -1.7274 -2.0200  0.4785
  794MOL0     H 9511   9.266   1.077   8.231 -1.4002  0.3791 -0.7184
  794MOL0     H 9512   9.344   1.060   8.071 -1.9276  0.0083 -1.3135
  794MOL0     H 9513   9.382   1.252   8.296 -0.2155 -3.2789  2.1325
  794MOL0     H 9514   9.438   1.304   8.141 -1.7140  1.3446  0.3829
  794MOL0     H 9515   9.520   1.058   8.307 -0.9792  2.4625  2.4316
  794MOL0     H 9516   9.558   1.069   8.134  0.8192  1.0059 -0.7309
  794MOL0     H 9517   9.640   1.251   8.369  3.1151 -3.5336  0.7170
  794MOL0     H 9518   9.632   1.322   8.211 -2.9783  0.9120  1.9639
  794MOL0     H 9519   9.814   1.154   8.147  2.5595 -1.6629  1.6482
  794MOL0     H 9520   9.862   1.230   8.298  0.2881 -0.8969  2.5364
  794MOL0     H 9521   9.737   1.087   8.525 -0.3144  3.5055 -3.7684
  794MOL0     H 9522   9.856   0.719   8.601  2.2037  0.4521 -1.2381
  794MOL0     H 9523   9.733   0.844   8.665  2.2981  3.6714  4.8061
  794MOL0     H 9524  10.021   0.910   8.667  0.7027 -1.0606  1.2105
  794MOL0     H 9525   9.884   0.976   8.750 -2.8521 -0.9736  2.6931
  794MOL0     H 9526   9.994   0.854   8.922  2.1897 -0.8865  0.0972
  794MOL0     H 9527   9.874   0.732   8.864 -0.8021  1.2376 -1.5155
  794MOL0     H 9528  10.044   0.593   8.857  3.1316 -0.2206  0.7568
  794MOL0     H 9529  10.070   0.660   8.700  1.3835  0.0150 -0.2706
  794MOL0     H 9530  10.185   0.583   9.086  0.8339  0.9389  1.4520
  794MOL0     H 9531  10.430   0.424   9.267  0.6147 -2.1718 -0.0925
  794MOL0     H 9532  10.344   0.293   9.173 -1.6104  0.3848 -0.6338
  794MOL0     H 9533  10.259   0.435   9.246 -0.5977 -0.8108  0.9790
  794MOL0     H 9534  10.749   0.161   8.759 -0.3031 -3.3433  0.6284
  794MOL0     H 9535  10.960   0.055   8.740  2.8899  1.2083 -0.7395
  794MOL0     H 9536  11.158   0.119   8.692  0.0101  1.2971 -0.2209
  794MOL0     H 9537  11.258   0.244   8.758 -3.0309  1.5629  3.7577
  794MOL0     H 9538  11.437   0.100   8.678 -3.2729 -3.1758 -4.3481
  794MOL0     H 9539  11.420   0.070   8.847  0.5974  1.1674  0.6069
  794MOL0     H 9540  11.270  -0.091   8.630 -1.9233  2.2370  1.1747
  794MOL0     H 9541  11.271  -0.127   8.802  1.5943 -0.4224  0.3507
  794MOL0     H 9542  11.527  -0.158   8.764 -0.6412  1.4645 -0.4814
  794MOL0     H 9543  11.499  -0.156   8.600  1.5947 -2.5772  0.5307
  794MOL0     H 9544  11.417  -0.354   8.820  1.5854 -2.3542 -1.5095
  794MOL0     H 9545  11.321  -0.352   8.671 -1.9339  2.4376  0.3193
  794MOL0     H 9546  11.631  -0.386   8.669 -1.0953  0.4178  2.3014
  794MOL0     H 9547  11.515  -0.415   8.539 -2.5873 -3.7297 -0.8021
  794MOL0     H 9548  11.417  -0.618   8.664 -0.5281 -1.5123  0.1067
  794MOL0     H 9549  11.534  -0.587   8.793  0.2667  1.8755 -0.4928
  794MOL0     H 9550  11.666  -0.606   8.543  0.7438  1.4711  1.7520
  794MOL0     H 9551  11.579  -0.756   8.595 -0.0370 -0.3977  0.1998
  794MOL0     H 9552  11.108   0.302   9.076 -0.4137  0.1205 -0.8566
  794MOL0     H 9553  10.899   0.425   9.072  0.7640  0.4059 -0.3453
  794MOL0     H 9554  10.585   0.566   8.814  0.1315 -0.6163  0.8870
  794MOL0     H 9555  10.407   0.693   8.751 -0.2272  1.1190  1.3246
  794MOL0     H 9556   8.981   1.236   7.784  0.4188  0.2360 -1.4970
  794MOL0     H 9557   8.794   1.318   7.644  0.5864  0.4275 -0.5796
  794MOL0     H 9558   8.503   1.361   7.383  1.9727 -0.1592 -3.0941
  794MOL0     H 9559   8.337   1.422   7.203  0.3678  0.4046  0.6341
  794MOL0     H 9560   8.040   1.397   6.993  1.4707 -3.4532 -1.1811
  794MOL0     H 9561   8.138   1.493   7.108 -0.4467 -1.0446  2.3427
  794MOL0     H 9562   8.226   1.289   6.888  2.0006 -0.0525 -2.1814
  794MOL0     H 9563   8.345   1.367   6.989 -2.2515 -1.2636  0.8334
  794MOL0     H 9564   8.268   1.455   6.747 -0.2183  0.2497  1.0490
  794MOL0     H 9565   8.163   1.548   6.835 -0.2506 -0.0577 -0.9784
  794MOL0     H 9566   8.396   1.648   6.772 -3.5423 -2.0161 -2.2377
  794MOL0     H 9567   8.478   1.538   6.879  0.2692 -1.2450 -3.1275
  794MOL0     H 9568   8.316   1.833   7.132  0.4467  1.0242 -1.6490
  794MOL0     H 9569   8.108   1.085   7.292 -1.1156  1.6434 -2.4752
  794MOL0     H 9570   8.248   0.874   7.345  0.8707 -3.1930  2.7480
  794MOL0     H 9571   8.349   0.885   7.491  0.1872  0.5832  0.9789
  794MOL0     H 9572   8.187   0.950   7.494 -0.0443  0.1169  0.9357
  795MOL0     O 9573   4.790   2.780   0.535 -0.3256  0.2003  0.2122
  795MOL0     C 9574   4.747   2.694   0.612 -0.0709 -0.4022 -0.0256
  795MOL0     O 9575   4.820   2.588   0.662 -0.0771  0.0771  0.1462
  795MOL0     C 9576   4.951   2.574   0.630 -0.2554  0.9693  0.8335
  795MOL0     C 9577   5.025   2.496   0.715  0.4654 -0.3692  0.6887
  795MOL0     C 9578   5.154   2.453   0.690 -0.6699 -0.0436  0.7692
  795MOL0     C 9579   5.228   2.490   0.578 -0.1399 -0.5503  0.4141
  795MOL0     O 9580   5.362   2.461   0.562 -0.2238  0.1135  0.0686
  795MOL0     C 9581   5.436   2.545   0.467 -1.0011 -0.1106  0.0546
  795MOL0     C 9582   5.588   2.523   0.456  0.5791 -0.1647 -1.0228
  795MOL0     C 9583   5.630   2.378   0.409  0.7497  0.2226 -0.9903
  795MOL0     C 9584   5.772   2.348   0.428  0.1282  0.6693  0.1441
  795MOL0     C 9585   5.802   2.194   0.392  0.7809  0.2854  0.3522
  795MOL0     C 9586   5.793   2.156   0.243  0.8240  0.1110  0.1218
  795MOL0     C 9587   5.834   2.010   0.216 -0.6323  0.0130  0.4411
  795MOL0     C 9588   5.835   1.961   0.068  0.5641  0.6026 -0.2279
  795MOL0     N 9589   5.700   1.963   0.003  0.2325  0.0299 -0.0807
  795MOL0     C 9590   5.583   1.955   0.068  0.6215 -0.0971  0.0930
  795MOL0     C 9591   5.490   2.007  -0.015  0.8248 -0.0486 -0.8228
  795MOL0     C 9592   5.343   2.032   0.010 -0.8879 -0.2647 -0.6737
  795MOL0     C 9593   5.310   2.179  -0.025 -0.3987  0.7990  0.2210
  795MOL0     C 9594   5.379   2.274   0.079  0.7622 -0.4943 -0.5407
  795MOL0     C 9595   5.351   2.420   0.038 -0.1152 -1.1224  0.1858
  795MOL0     O 9596   5.213   2.451   0.058  0.5741  0.4617  0.4275
  795MOL0     C 9597   5.157   2.557  -0.007  0.6464 -0.2621 -0.1814
  795MOL0     C 9598   5.207   2.671  -0.071 -0.8275 -0.7121 -0.4154
  795MOL0     C 9599   5.128   2.776  -0.123 -0.6285  0.6205  0.1714
  795MOL0     C 9600   5.187   2.892  -0.194  0.4124  0.4647  0.6154
  795MOL0     C 9601   4.986   2.762  -0.117  0.5814 -0.2567  0.1830
  795MOL0     C 9602   4.882   2.855  -0.170 -0.4886  0.2671 -1.3093
  795MOL0     O 9603   4.747   2.812  -0.156 -0.4867  0.1613 -0.2962
  795MOL0     C 9604   4.649   2.895  -0.197  0.5595 -0.3946 -0.6630
  795MOL0     C 9605   4.536   2.897  -0.110  0.3438 -0.1061  0.1900
  795MOL0     C 9606   4.416   2.954  -0.147 -0.3917  0.4177  0.0697
  795MOL0     C 9607   4.394   3.012  -0.273 -0.2574  0.4057 -0.4016
  795MOL0     O 9608   4.282   3.076  -0.314  0.3506 -1.0730  0.4203
  795MOL0     C 9609   4.174   3.074  -0.220 -0.1056 -0.8303  0.2900
  795MOL0     C 9610   4.054   3.165  -0.282 -0.2193  0.2837 -0.7466
  795MOL0     C 9611   3.918   3.116  -0.248 -0.2588 -0.4001 -0.1164
  795MOL0     C 9612   3.908   3.123  -0.091  0.3308  0.0029 -0.4940
  795MOL0     C 9613   3.773   3.082  -0.032  0.3530  0.1731 -0.2719
  795MOL0     C 9614   3.660   3.186  -0.032 -0.0508  0.2549 -0.2260
  795MOL0     C 9615   3.538   3.121   0.030 -0.2204  0.1620  0.8366
  795MOL0     C 9616   3.432   3.226   0.029  0.5677  0.1831  0.7063
  795MOL0    Cl 9617   3.303   3.198   0.157 -0.2931  0.0418  0.0711
  795MOL0     C 9618   4.509   3.020  -0.363 -0.7857 -1.1143 -0.0470
  795MOL0     C 9619   4.635   2.964  -0.321 -0.6965 -0.4460 -0.4772
  795MOL0     O 9620   4.911   2.969  -0.204 -0.4460  0.5803 -0.4840
  795MOL0     C 9621   4.933   2.648  -0.056  0.2700  0.1907  0.2125
  795MOL0     C 9622   5.016   2.549  -0.006 -0.5771  0.0169 -0.1627
  795MOL0     N 9623   5.554   2.039  -0.132 -0.3113 -1.2263  0.2058
  795MOL0     N 9624   5.679   2.005  -0.121 -0.4049  0.4722 -0.1252
  795MOL0     C 9625   5.154   2.571   0.491 -0.1128 -0.7760 -0.3299
  795MOL0     C 9626   5.023   2.615   0.519 -0.9149 -0.5906  0.1471
  795MOL0     C 9627   4.604   2.710   0.653 -0.2554 -0.0721  0.2029
  795MOL0     C 9628   4.537   2.590   0.679 -0.5103 -0.1318  0.5382
  795MOL0     C 9629   4.402   2.588   0.737  0.4877  0.1213  0.6147
  795MOL0     C 9630   4.336   2.714   0.741  0.0143 -0.0080  0.3158
  795MOL0     O 9631   4.203   2.720   0.769 -0.0639 -0.3949  0.4069
  795MOL0     C 9632   4.118   2.808   0.693  0.3539 -0.1661 -0.0377
  795MOL0     C 9633   3.971   2.774   0.714 -0.6310  1.0073 -0.1044
  795MOL0     C 9634   3.926   2.797   0.858  0.1931 -0.4326 -0.5974
  795MOL0     C 9635   3.777   2.820   0.867  0.6757  0.4196 -0.2280
  795MOL0     C 9636   3.738   2.920   0.958 -0.1577  0.2871 -0.1459
  795MOL0     C 9637   3.704   3.008   1.037 -0.4631  1.1016 -0.3818
  795MOL0     C 9638   4.405   2.836   0.720  0.8339  0.2736 -0.6223
  795MOL0     C 9639   4.544   2.831   0.680 -0.3314 -0.2401 -0.4494
  795MOL0     C 9640   4.623   2.965   0.663 -0.2270 -0.5054  0.2765
  795MOL0     H 9641   4.979   2.469   0.809 -0.0430  2.0683  1.2176
  795MOL0     H 9642   5.194   2.397   0.774  0.3949 -1.2879 -0.5342
  795MOL0     H 9643   5.413   2.649   0.490 -2.6118 -0.8024  1.7748
  795MOL0     H 9644   5.398   2.533   0.365 -0.0058 -2.2786 -0.1262
  795MOL0     H 9645   5.629   2.604   0.394  3.0303  1.1666  2.0557
  795MOL0     H 9646   5.630   2.548   0.554  0.3428  0.2639 -1.0278
  795MOL0     H 9647   5.575   2.302   0.465  1.5221  1.3662  1.4580
  795MOL0     H 9648   5.613   2.364   0.302  1.2030  0.4192 -1.0902
  795MOL0     H 9649   5.838   2.404   0.361 -0.6161  0.7988 -0.4939
  795MOL0     H 9650   5.804   2.377   0.529 -2.3780  1.6868  0.7159
  795MOL0     H 9651   5.738   2.123   0.445 -0.5942  1.3211  0.1599
  795MOL0     H 9652   5.902   2.181   0.435  1.6347  5.1177  0.4509
  795MOL0     H 9653   5.688   2.166   0.214  0.5145 -1.8281  0.4468
  795MOL0     H 9654   5.863   2.216   0.184 -0.0583  0.3733 -0.6701
  795MOL0     H 9655   5.769   1.940   0.268 -0.0141 -0.8648  0.0476
  795MOL0     H 9656   5.935   1.994   0.256 -0.4687  1.5413  0.7235
  795MOL0     H 9657   5.910   2.018   0.012  0.2160  3.2754  1.8098
  795MOL0     H 9658   5.866   1.856   0.069  0.3102  0.5214  0.5937
  795MOL0     H 9659   5.569   1.925   0.171 -0.9023 -1.8748 -0.5658
  795MOL0     H 9660   5.322   2.001   0.113  1.3901  0.6509  0.1276
  795MOL0     H 9661   5.272   1.969  -0.045 -1.3457 -2.5728  2.2922
  795MOL0     H 9662   5.345   2.199  -0.126  0.4284 -4.2942 -0.7790
  795MOL0     H 9663   5.200   2.180  -0.022 -0.4065  1.3225 -0.2032
  795MOL0     H 9664   5.353   2.262   0.184 -1.0580  0.5195 -0.8276
  795MOL0     H 9665   5.487   2.258   0.079  0.5806 -1.7789 -0.6136
  795MOL0     H 9666   5.421   2.481   0.096 -2.9060  0.1186  2.4610
  795MOL0     H 9667   5.388   2.422  -0.065  0.8471 -1.4135  0.5079
  795MOL0     H 9668   5.313   2.694  -0.082 -0.8237 -1.5375 -2.9174
  795MOL0     H 9669   5.184   2.981  -0.130  0.3489 -0.4276  1.9131
  795MOL0     H 9670   5.121   2.902  -0.280 -1.1431  1.0171  1.8140
  795MOL0     H 9671   5.292   2.878  -0.220  0.8625  1.3354  1.8835
  795MOL0     H 9672   4.535   2.840  -0.018 -1.4594  0.7077  0.7193
  795MOL0     H 9673   4.333   2.947  -0.078  1.3007 -3.6451  1.9852
  795MOL0     H 9674   4.138   2.972  -0.199  1.2696 -1.8605 -1.9892
  795MOL0     H 9675   4.207   3.109  -0.122  0.5846 -1.9827  0.4857
  795MOL0     H 9676   4.055   3.268  -0.245 -3.4871  0.2546 -0.2941
  795MOL0     H 9677   4.068   3.178  -0.389  0.2157  0.9901 -0.6101
  795MOL0     H 9678   3.917   3.009  -0.270 -0.9728 -0.2122 -1.0310
  795MOL0     H 9679   3.831   3.161  -0.295 -0.2475  1.3234  1.4191
  795MOL0     H 9680   3.935   3.225  -0.063  0.8812 -0.1177 -0.5712
  795MOL0     H 9681   3.975   3.046  -0.051 -1.7339 -1.8618 -0.4345
  795MOL0     H 9682   3.741   3.000  -0.097  0.3834  0.7701 -1.0601
  795MOL0     H 9683   3.780   3.036   0.067  0.4877  1.5052  0.3640
  795MOL0     H 9684   3.644   3.219  -0.135 -3.2584  1.4070  0.5271
  795MOL0     H 9685   3.683   3.281   0.016 -0.0854  0.7992 -1.2688
  795MOL0     H 9686   3.565   3.091   0.132 -2.3600 -2.3313  0.7680
  795MOL0     H 9687   3.498   3.032  -0.020  1.0266 -0.5841  1.1296
  795MOL0     H 9688   3.390   3.234  -0.072  0.1598 -0.7130  0.7896
  795MOL0     H 9689   3.481   3.320   0.054 -0.8060  0.0711  4.3272
  795MOL0     H 9690   4.511   3.076  -0.456  4.5995 -1.8459 -0.6741
  795MOL0     H 9691   4.711   2.965  -0.398 -1.6903 -1.4862 -1.5019
  795MOL0     H 9692   4.825   2.638  -0.048  0.2671 -2.6069 -1.8024
  795MOL0     H 9693   4.974   2.466   0.049 -0.8615  0.0737 -0.2891
  795MOL0     H 9694   5.191   2.598   0.393 -2.9245 -0.7674 -1.5055
  795MOL0     H 9695   4.986   2.672   0.434  1.1697  0.9537  0.1774
  795MOL0     H 9696   4.591   2.502   0.644  0.1557  1.2836 -2.2840
  795MOL0     H 9697   4.346   2.496   0.752  0.8103 -0.8925 -3.1764
  795MOL0     H 9698   4.137   2.914   0.713  1.6354 -0.1148 -1.3420
  795MOL0     H 9699   4.139   2.791   0.587 -1.2139 -3.9148  0.1153
  795MOL0     H 9700   3.963   2.667   0.694  1.9484  0.4309  1.5150
  795MOL0     H 9701   3.917   2.844   0.650  2.6639  2.4735 -1.5141
  795MOL0     H 9702   3.953   2.705   0.910 -2.2892 -0.0678  1.5073
  795MOL0     H 9703   3.968   2.890   0.901  0.1592 -0.1483 -1.1769
  795MOL0     H 9704   3.728   2.725   0.891 -1.4285  1.5101  0.0569
  795MOL0     H 9705   3.738   2.854   0.770 -0.6135 -2.3160 -0.7806
  795MOL0     H 9706   3.669   3.066   1.119 -3.7499  0.2752 -1.0467
  795MOL0     H 9707   4.354   2.931   0.731 -1.2942 -0.8014 -0.5597
  795MOL0     H 9708   4.722   2.954   0.710  0.2554  1.7501 -0.0884
  795MOL0     H 9709   4.631   2.989   0.556 -0.4653  2.1000  0.7902
  795MOL0     H 9710   4.574   3.045   0.717 -0.3019 -0.8729  0.7656
  796MOL0     O 9711   0.669   1.869  10.119  0.0447 -0.0124 -0.1393
  796MOL0     C 9712   0.781   1.846  10.175  0.7855 -0.5656 -0.3371
  796MOL0     O 9713   0.851   1.725  10.157  0.0631  0.3844  0.2635
  796MOL0     C 9714   0.785   1.620  10.098 -0.6348 -0.3598  0.4889
  796MOL0     C 9715   0.658   1.579  10.131  0.1100  0.0629  1.0841
  796MOL0     C 9716   0.601   1.469  10.076 -0.0757  0.7663  0.8098
  796MOL0     C 9717   0.670   1.389   9.985  0.5119  0.3463  1.0260
  796MOL0     O 9718   0.622   1.267   9.942  0.1500  0.2094  0.0312
  796MOL0     C 9719   0.561   1.267   9.813  0.3494 -0.8911 -0.4093
  796MOL0     C 9720   0.576   1.125   9.773  0.9980  0.3179 -0.1797
  796MOL0     C 9721   0.549   1.118   9.626 -0.0524 -0.4874 -0.8785
  796MOL0     C 9722   0.606   0.979   9.577 -0.0448 -0.7202  0.7753
  796MOL0     C 9723   0.610   0.977   9.421  1.1325  0.7069 -0.1469
  796MOL0     C 9724   0.665   0.843   9.382  0.4375 -0.6736 -0.4456
  796MOL0     C 9725   0.716   0.842   9.242  0.4583 -0.4811  0.0692
  796MOL0     C 9726   0.849   0.922   9.227 -0.7387 -0.1772 -0.2209
  796MOL0     N 9727   0.913   0.894   9.093 -0.0001 -0.0647 -0.3873
  796MOL0     C 9728   0.862   0.918   8.968  0.1684 -0.1037 -1.2309
  796MOL0     C 9729   0.971   0.890   8.889  0.4385 -0.0304  0.6891
  796MOL0     C 9730   0.980   0.915   8.737 -0.0454 -0.4511  0.5646
  796MOL0     C 9731   1.086   0.836   8.661 -0.4830 -0.0733 -0.6279
  796MOL0     C 9732   1.055   0.838   8.510 -0.3468  0.4717  0.0571
  796MOL0     C 9733   1.143   0.732   8.439 -1.4242  0.8801  0.1954
  796MOL0     O 9734   1.276   0.789   8.428 -0.1190 -0.2582  0.3864
  796MOL0     C 9735   1.360   0.696   8.383 -0.9928  0.3340  1.9221
  796MOL0     C 9736   1.486   0.749   8.338 -0.9265  0.0143  0.1534
  796MOL0     C 9737   1.587   0.679   8.273 -0.0432  0.5089 -0.3693
  796MOL0     C 9738   1.706   0.748   8.224  0.6588 -0.3168 -0.0265
  796MOL0     C 9739   1.570   0.534   8.259  0.8383  0.4416 -0.0958
  796MOL0     C 9740   1.675   0.438   8.221  0.5325  0.2467 -0.8285
  796MOL0     O 9741   1.649   0.322   8.158 -0.0088  0.0462 -0.2469
  796MOL0     C 9742   1.738   0.217   8.173  1.1160 -0.4631 -0.6321
  796MOL0     C 9743   1.805   0.190   8.294 -0.4040  0.9994  0.4947
  796MOL0     C 9744   1.881   0.077   8.298 -0.2310  0.2317 -0.7689
  796MOL0     C 9745   1.909  -0.006   8.182  0.4600  0.6680 -0.6058
  796MOL0     O 9746   1.996  -0.110   8.178 -0.3857  0.3293 -0.8910
  796MOL0     C 9747   2.118  -0.100   8.257 -0.5914  0.4990  0.4445
  796MOL0     C 9748   2.219  -0.190   8.189 -0.2822 -1.6166  0.1263
  796MOL0     C 9749   2.193  -0.343   8.174 -1.2369  0.8181  0.2543
  796MOL0     C 9750   2.168  -0.398   8.318 -0.0477  0.5032  0.1961
  796MOL0     C 9751   2.157  -0.559   8.325  0.5014  0.3609  0.6905
  796MOL0     C 9752   2.035  -0.612   8.245  0.9563 -0.8081  0.1710
  796MOL0     C 9753   1.895  -0.553   8.289 -0.1547  0.7586  0.5095
  796MOL0     C 9754   1.779  -0.617   8.209  0.3480 -0.6078  0.5363
  796MOL0    Cl 9755   1.734  -0.786   8.255 -0.7679 -0.3522 -0.3315
  796MOL0     C 9756   1.839   0.018   8.069  0.7914 -0.2742  0.3272
  796MOL0     C 9757   1.752   0.125   8.063 -0.8812 -0.8215 -0.2503
  796MOL0     O 9758   1.786   0.483   8.242 -0.1256  0.5564  0.5789
  796MOL0     C 9759   1.451   0.480   8.328 -0.2017  0.1761  0.8978
  796MOL0     C 9760   1.346   0.562   8.376 -0.9596  0.6008  1.8491
  796MOL0     N 9761   1.079   0.855   8.958 -0.2173 -0.2017 -0.0102
  796MOL0     N 9762   1.046   0.862   9.081  0.8286  0.1565  0.4450
  796MOL0     C 9763   0.806   1.421   9.962  0.1051 -0.2886  0.7686
  796MOL0     C 9764   0.867   1.529  10.022 -0.1216 -0.0570 -0.2709
  796MOL0     C 9765   0.847   1.948  10.247  0.0843 -0.8483 -0.2105
  796MOL0     C 9766   0.953   1.906  10.344  0.2184  0.1235  0.6080
  796MOL0     C 9767   1.026   1.994  10.415 -0.0295  0.2772 -0.0138
  796MOL0     C 9768   1.017   2.130  10.382  0.5687  0.3448 -0.1544
  796MOL0     O 9769   1.109   2.212  10.439 -0.3103 -0.0437  0.3229
  796MOL0     C 9770   1.234   2.201  10.367 -0.3010  0.2808 -0.3014
  796MOL0     C 9771   1.322   2.321  10.385  0.1032  0.2123 -0.5283
  796MOL0     C 9772   1.465   2.289  10.361  0.7061 -0.4879  0.3782
  796MOL0     C 9773   1.550   2.417  10.360  0.0183  0.2004 -0.6136
  796MOL0     C 9774   1.686   2.377  10.359  0.3185  0.1411  0.0276
  796MOL0     C 9775   1.804   2.331  10.365  0.1866 -0.4404  0.3111
  796MOL0     C 9776   0.913   2.176  10.298  0.2918 -0.0827  0.5668
  796MOL0     C 9777   0.826   2.093  10.230 -0.0958  0.3466 -0.2628
  796MOL0     C 9778   0.732   2.161  10.138 -0.3439 -0.5415 -0.6216
  796MOL0     H 9779   0.605   1.635  10.208  1.0493  0.9216  1.1320
  796MOL0     H 9780   0.499   1.444  10.105 -0.2387 -0.6394 -0.7969
  796MOL0     H 9781   0.615   1.331   9.744 -0.5793 -0.4735 -0.7655
  796MOL0     H 9782   0.454   1.289   9.814 -0.5724 -3.8963 -4.7686
  796MOL0     H 9783   0.680   1.097   9.792  0.3489 -1.1806  1.5036
  796MOL0     H 9784   0.509   1.052   9.822 -1.1302 -1.1001 -4.6136
  796MOL0     H 9785   0.442   1.126   9.604  0.3033  1.6194 -2.1300
  796MOL0     H 9786   0.584   1.206   9.571  0.2769  0.3439  0.6040
  796MOL0     H 9787   0.710   0.970   9.608 -0.1486 -0.4597  1.2068
  796MOL0     H 9788   0.551   0.904   9.634  0.5567  1.2025  4.1317
  796MOL0     H 9789   0.670   1.062   9.385  0.3213  1.5578  0.4642
  796MOL0     H 9790   0.510   0.967   9.377  2.4123 -5.0932 -2.6664
  796MOL0     H 9791   0.743   0.820   9.456  1.0394 -0.6097 -1.0484
  796MOL0     H 9792   0.588   0.767   9.397  1.0163 -1.3182 -0.6719
  796MOL0     H 9793   0.636   0.865   9.171  0.2896  1.0310  0.6890
  796MOL0     H 9794   0.745   0.739   9.222  2.5826 -0.7337  3.5364
  796MOL0     H 9795   0.834   1.029   9.243  3.2303  0.2587  1.9083
  796MOL0     H 9796   0.918   0.880   9.301 -3.3311 -1.0722  1.8661
  796MOL0     H 9797   0.766   0.952   8.931  0.0365 -1.8914 -2.7006
  796MOL0     H 9798   1.008   1.019   8.718 -1.0452 -0.2114  0.2987
  796MOL0     H 9799   0.885   0.890   8.689  2.1924 -0.7565 -4.3108
  796MOL0     H 9800   1.186   0.873   8.683  1.2498 -3.5704 -1.7876
  796MOL0     H 9801   1.078   0.732   8.694 -1.6155  0.1314 -0.1987
  796MOL0     H 9802   0.956   0.792   8.500  0.0603 -0.0738 -1.8166
  796MOL0     H 9803   1.070   0.939   8.469 -0.4901  1.1387  1.5981
  796MOL0     H 9804   1.144   0.638   8.493 -3.0060 -1.4313 -3.3956
  796MOL0     H 9805   1.111   0.691   8.343  1.4309 -1.3228  0.0361
  796MOL0     H 9806   1.500   0.857   8.336 -2.3887  0.2497  1.2535
  796MOL0     H 9807   1.783   0.731   8.301 -0.4656 -0.1788  1.1504
  796MOL0     H 9808   1.693   0.855   8.205  0.1291 -0.3599  0.0914
  796MOL0     H 9809   1.742   0.694   8.136  1.5535 -1.0670  0.7635
  796MOL0     H 9810   1.803   0.271   8.365 -0.0881 -0.5887  2.4072
  796MOL0     H 9811   1.919   0.033   8.389 -1.3769 -0.7150 -0.7208
  796MOL0     H 9812   2.152   0.003   8.269 -0.9225  0.3829  2.6822
  796MOL0     H 9813   2.105  -0.137   8.359  1.7573  0.1584  0.6673
  796MOL0     H 9814   2.246  -0.137   8.098  1.6562 -0.3454  1.3542
  796MOL0     H 9815   2.304  -0.183   8.258 -1.6120  1.9557  1.6704
  796MOL0     H 9816   2.282  -0.393   8.133 -1.4154 -0.4346  1.3110
  796MOL0     H 9817   2.113  -0.370   8.105  0.5078 -0.0998 -1.5387
  796MOL0     H 9818   2.070  -0.359   8.349 -2.0031 -2.0157 -2.3307
  796MOL0     H 9819   2.249  -0.365   8.383 -3.3100  1.4783  4.2074
  796MOL0     H 9820   2.243  -0.599   8.272 -1.7764 -0.7209 -2.5281
  796MOL0     H 9821   2.154  -0.598   8.427  0.9574 -0.6460  0.3304
  796MOL0     H 9822   2.041  -0.721   8.251  3.3060 -0.6699  1.3919
  796MOL0     H 9823   2.048  -0.586   8.140  2.0484  1.2223  0.7559
  796MOL0     H 9824   1.882  -0.447   8.265  1.5021  1.2526  1.5755
  796MOL0     H 9825   1.875  -0.563   8.396 -2.4608 -3.6774 -0.1193
  796MOL0     H 9826   1.804  -0.626   8.103 -1.5565 -0.5996  0.0387
  796MOL0     H 9827   1.687  -0.557   8.209  0.7980  0.0949 -0.0634
  796MOL0     H 9828   1.857  -0.043   7.981  1.8850  0.9362 -0.3242
  796MOL0     H 9829   1.696   0.140   7.972  0.6220 -1.7089 -1.3658
  796MOL0     H 9830   1.431   0.374   8.340  0.7123 -0.2515 -0.9516
  796MOL0     H 9831   1.253   0.509   8.398 -2.1582  2.3709  1.3302
  796MOL0     H 9832   0.866   1.361   9.895  2.1208  0.3753  1.9073
  796MOL0     H 9833   0.970   1.562  10.020 -1.0553  3.1997 -0.5881
  796MOL0     H 9834   0.973   1.801  10.363 -3.1164 -0.2380  3.0941
  796MOL0     H 9835   1.110   1.966  10.478  1.9595  3.2142 -1.1480
  796MOL0     H 9836   1.287   2.119  10.418 -1.0042  0.8945  1.5065
  796MOL0     H 9837   1.211   2.179  10.262  0.0734 -0.8679 -0.1562
  796MOL0     H 9838   1.303   2.355  10.488  0.2716 -2.5053  0.4789
  796MOL0     H 9839   1.287   2.404  10.324 -1.5028 -0.7818 -1.0075
  796MOL0     H 9840   1.501   2.217  10.435  0.1922 -3.9021 -2.4525
  796MOL0     H 9841   1.472   2.247  10.260  0.6405  1.7472 -0.6128
  796MOL0     H 9842   1.545   2.481  10.449  3.7271 -1.4207  0.9735
  796MOL0     H 9843   1.540   2.470  10.265  0.0705 -0.7778 -1.1688
  796MOL0     H 9844   1.904   2.293  10.369  0.6459  0.5721 -0.8354
  796MOL0     H 9845   0.899   2.283  10.289  0.5932  0.3241  3.6806
  796MOL0     H 9846   0.662   2.210  10.207  1.7464  1.6360  0.0875
  796MOL0     H 9847   0.789   2.242  10.094 -1.1985 -0.6856 -2.0590
  796MOL0     H 9848   0.686   2.104  10.057  1.1754  0.6601 -2.3943
  797MOL0     O 9849   3.144   5.199  11.493  0.3436  0.0967 -0.4746
  797MOL0     C 9850   3.149   5.211  11.371  0.1992  0.8200  0.9146
  797MOL0     O 9851   3.140   5.105  11.274 -0.1293 -0.4042  0.1141
  797MOL0     C 9852   3.143   4.976  11.308  0.9131 -0.1750  0.1852
  797MOL0     C 9853   3.042   4.920  11.391 -1.1065 -0.0517 -0.2678
  797MOL0     C 9854   3.053   4.780  11.407  0.4255 -0.5575 -0.0286
  797MOL0     C 9855   3.152   4.696  11.340  0.1053 -1.5779  0.0146
  797MOL0     O 9856   3.150   4.559  11.341 -0.5814  0.0359  0.5606
  797MOL0     C 9857   3.031   4.486  11.362  0.3627  0.0245  0.9442
  797MOL0     C 9858   3.063   4.346  11.329  0.4342 -0.4081  0.4970
  797MOL0     C 9859   3.058   4.242  11.437  0.2306  0.3421  0.0973
  797MOL0     C 9860   3.200   4.202  11.512 -0.6901 -0.9508  0.4315
  797MOL0     C 9861   3.196   4.071  11.583  0.5483  0.2346 -0.0886
  797MOL0     C 9862   3.281   4.075  11.708  0.0906  0.1403 -0.3272
  797MOL0     C 9863   3.258   3.943  11.792  0.0861  0.2596  0.6470
  797MOL0     C 9864   3.162   3.954  11.913 -0.6041  0.3504 -0.1623
  797MOL0     N 9865   3.019   3.930  11.877 -0.3348 -0.2898  0.2792
  797MOL0     C 9866   2.922   4.028  11.866 -0.3825 -0.1512  0.5315
  797MOL0     C 9867   2.811   3.956  11.841 -0.4476  0.1557 -0.1533
  797MOL0     C 9868   2.683   4.015  11.806 -0.0776  0.3950 -0.6107
  797MOL0     C 9869   2.679   4.068  11.665 -1.3309 -0.2597  0.0782
  797MOL0     C 9870   2.540   4.122  11.631 -0.1129 -0.0366  1.0246
  797MOL0     C 9871   2.513   4.141  11.479 -0.4105  0.4839 -0.2656
  797MOL0     O 9872   2.603   4.219  11.412 -0.2886  0.6428  0.3763
  797MOL0     C 9873   2.571   4.349  11.388  0.3474 -0.6165  0.5738
  797MOL0     C 9874   2.470   4.398  11.307 -0.3444  0.6924  0.0314
  797MOL0     C 9875   2.442   4.537  11.292 -0.3475  0.5134 -0.2338
  797MOL0     C 9876   2.323   4.567  11.206  0.6847  0.7728  0.0888
  797MOL0     C 9877   2.521   4.633  11.367 -0.3345  0.2445  0.0545
  797MOL0     C 9878   2.501   4.783  11.356 -1.1902 -1.0556  0.1079
  797MOL0     O 9879   2.605   4.864  11.385  0.0818  0.4996  0.3643
  797MOL0     C 9880   2.576   4.996  11.381 -0.3161  0.2099 -0.3471
  797MOL0     C 9881   2.500   5.042  11.488  0.1940  0.4390  0.1577
  797MOL0     C 9882   2.459   5.173  11.496 -0.1299 -1.2249  0.0445
  797MOL0     C 9883   2.512   5.265  11.407 -0.7415 -0.4845 -0.3532
  797MOL0     O 9884   2.492   5.400  11.435  0.3124  0.1577 -0.3374
  797MOL0     C 9885   2.521   5.504  11.343 -0.1171  0.0853  0.3099
  797MOL0     C 9886   2.532   5.637  11.420  0.1286  0.0720 -0.0294
  797MOL0     C 9887   2.660   5.639  11.510  0.4924  0.1350 -0.6850
  797MOL0     C 9888   2.609   5.660  11.652  0.5665 -0.1365  0.6132
  797MOL0     C 9889   2.731   5.661  11.745  0.7477  1.0919 -0.0381
  797MOL0     C 9890   2.822   5.782  11.737  0.6901 -0.5664 -0.1724
  797MOL0     C 9891   2.932   5.779  11.845  0.5549 -1.1876  0.5407
  797MOL0     C 9892   3.048   5.872  11.809  0.7708  0.0818 -0.6399
  797MOL0    Cl 9893   3.130   5.818  11.656  0.0514  0.0626  0.0233
  797MOL0     C 9894   2.577   5.214  11.290 -0.0086 -0.5127 -0.1986
  797MOL0     C 9895   2.607   5.075  11.276 -0.0096 -0.1301  0.4068
  797MOL0     O 9896   2.390   4.818  11.327 -0.5794 -0.2841  0.4093
  797MOL0     C 9897   2.629   4.581  11.446 -0.5906  0.1587 -0.8731
  797MOL0     C 9898   2.651   4.441  11.460 -0.1778 -0.1675  0.5551
  797MOL0     N 9899   2.842   3.819  11.823  0.4867  0.1694 -0.1617
  797MOL0     N 9900   2.966   3.814  11.853  0.4400  0.3349 -0.0349
  797MOL0     C 9901   3.234   4.759  11.256  0.0429 -0.5299  0.3524
  797MOL0     C 9902   3.236   4.899  11.248  0.0592  0.3117  0.0885
  797MOL0     C 9903   3.166   5.349  11.322  0.1640 -0.8476  0.4245
  797MOL0     C 9904   3.240   5.365  11.204  0.4280 -0.5610  0.1212
  797MOL0     C 9905   3.265   5.490  11.152  0.1199 -0.4153 -0.1817
  797MOL0     C 9906   3.224   5.607  11.221  0.0324 -0.0474 -0.5358
  797MOL0     O 9907   3.268   5.731  11.181 -0.5645 -0.1772 -0.1860
  797MOL0     C 9908   3.359   5.791  11.279 -0.2254  0.3691  0.3899
  797MOL0     C 9909   3.501   5.749  11.244  0.9228 -0.0354  1.0517
  797MOL0     C 9910   3.619   5.818  11.325 -0.5782  1.3020 -0.5089
  797MOL0     C 9911   3.594   5.893  11.448 -0.5126 -0.1100  0.0947
  797MOL0     C 9912   3.547   5.796  11.550 -0.0069  1.0609  0.0636
  797MOL0     C 9913   3.518   5.710  11.631 -0.2262 -0.0802  0.6518
  797MOL0     C 9914   3.145   5.595  11.344  0.4277  0.1279 -0.5011
  797MOL0     C 9915   3.126   5.467  11.394 -0.6667  0.9815 -0.6885
  797MOL0     C 9916   3.039   5.468  11.523 -0.2394  0.2215 -0.1578
  797MOL0     H 9917   2.968   4.971  11.452  1.1921 -1.7870  4.5266
  797MOL0     H 9918   2.971   4.734  11.460 -0.2072  1.4703  0.8577
  797MOL0     H 9919   2.947   4.535  11.312  0.7635 -0.4648 -0.2583
  797MOL0     H 9920   3.017   4.495  11.470  1.4223 -0.3139  1.1219
  797MOL0     H 9921   3.006   4.314  11.242  2.4063 -0.5355 -0.8254
  797MOL0     H 9922   3.162   4.342  11.282  1.1867 -1.2914  2.0773
  797MOL0     H 9923   2.985   4.269  11.514 -2.8793 -0.2101 -2.4204
  797MOL0     H 9924   3.016   4.155  11.385 -2.2955  1.4981  0.0414
  797MOL0     H 9925   3.278   4.187  11.436 -0.2479 -1.8306  1.0399
  797MOL0     H 9926   3.223   4.290  11.573 -1.6262  0.8095 -1.6436
  797MOL0     H 9927   3.235   3.988  11.523  0.8625  0.1740  0.1960
  797MOL0     H 9928   3.091   4.048  11.604  0.4903  2.5726  3.0089
  797MOL0     H 9929   3.383   4.090  11.671  1.3765 -5.1917  0.2466
  797MOL0     H 9930   3.262   4.165  11.768  1.3282 -0.4972  1.1001
  797MOL0     H 9931   3.352   3.899  11.828  0.1893 -2.8049 -2.7956
  797MOL0     H 9932   3.224   3.863  11.727 -1.9474  0.7289  1.0665
  797MOL0     H 9933   3.188   3.873  11.982 -1.4615 -1.6270 -2.0171
  797MOL0     H 9934   3.171   4.052  11.961 -1.4238  0.2294  0.2634
  797MOL0     H 9935   2.921   4.135  11.883  0.6623  0.3207 -1.9016
  797MOL0     H 9936   2.674   4.095  11.880  0.6349  1.4302 -1.6088
  797MOL0     H 9937   2.612   3.932  11.814  1.2394 -0.7356 -0.2806
  797MOL0     H 9938   2.749   4.152  11.661 -0.5192 -0.7623  2.3548
  797MOL0     H 9939   2.701   3.985  11.597  2.5169 -0.8041  1.7171
  797MOL0     H 9940   2.461   4.059  11.672 -1.3516 -0.6754 -2.0480
  797MOL0     H 9941   2.530   4.218  11.683  2.8494  0.8849  0.1112
  797MOL0     H 9942   2.519   4.047  11.424  1.1527  1.1746 -1.3475
  797MOL0     H 9943   2.414   4.183  11.463 -1.6771 -3.2888 -4.0942
  797MOL0     H 9944   2.412   4.326  11.250 -1.2705 -1.9402  3.9181
  797MOL0     H 9945   2.327   4.658  11.146  0.7570  0.4863 -0.3479
  797MOL0     H 9946   2.237   4.577  11.272 -0.6042 -0.2139 -1.3737
  797MOL0     H 9947   2.303   4.483  11.139 -1.3941  1.5239 -0.2842
  797MOL0     H 9948   2.461   4.971  11.561  1.4179 -1.1752 -0.7029
  797MOL0     H 9949   2.413   5.214  11.585  3.2023  2.5587  0.3189
  797MOL0     H 9950   2.621   5.486  11.303  1.1599 -1.3717  3.8250
  797MOL0     H 9951   2.442   5.505  11.267  0.4222 -2.6933 -0.4060
  797MOL0     H 9952   2.557   5.718  11.351  5.0450  0.3891  1.7107
  797MOL0     H 9953   2.439   5.664  11.470 -0.3964  1.0045 -1.4360
  797MOL0     H 9954   2.727   5.719  11.478  2.8791 -0.6653  1.8790
  797MOL0     H 9955   2.722   5.549  11.503  1.4826  0.8130 -0.7618
  797MOL0     H 9956   2.527   5.591  11.674 -1.0252  0.5902 -2.4459
  797MOL0     H 9957   2.564   5.760  11.659  0.3956 -0.0548 -1.1797
  797MOL0     H 9958   2.698   5.641  11.847  3.9185  1.7047  1.2106
  797MOL0     H 9959   2.776   5.566  11.714 -4.2320 -1.8555  0.7427
  797MOL0     H 9960   2.775   5.880  11.748 -2.6256 -2.2046  1.8080
  797MOL0     H 9961   2.869   5.791  11.639  0.7722  0.3175 -0.0589
  797MOL0     H 9962   2.985   5.684  11.856  0.3167 -1.7547 -2.5053
  797MOL0     H 9963   2.885   5.809  11.939 -0.5461 -0.5436 -0.2028
  797MOL0     H 9964   3.115   5.871  11.896 -1.4562  1.6033  1.2150
  797MOL0     H 9965   3.003   5.972  11.806 -0.4114 -0.3492  1.2850
  797MOL0     H 9966   2.600   5.277  11.204  2.2849 -3.2519 -1.7590
  797MOL0     H 9967   2.649   5.039  11.183 -1.1924 -0.4828 -0.0089
  797MOL0     H 9968   2.693   4.645  11.505  0.7991 -1.7510 -0.1745
  797MOL0     H 9969   2.731   4.419  11.530  0.0287  1.5147  0.8877
  797MOL0     H 9970   3.311   4.705  11.202 -0.2107  0.7596 -1.3864
  797MOL0     H 9971   3.302   4.954  11.182  1.3654 -2.1439 -0.7496
  797MOL0     H 9972   3.286   5.281  11.154  0.4360 -0.0340 -0.7796
  797MOL0     H 9973   3.325   5.504  11.062  0.0758 -1.1444 -0.3264
  797MOL0     H 9974   3.347   5.900  11.283  1.0659  0.5033  1.1248
  797MOL0     H 9975   3.323   5.767  11.380 -4.6264 -1.3156 -1.3150
  797MOL0     H 9976   3.512   5.782  11.141 -5.4143  0.1270  0.0839
  797MOL0     H 9977   3.512   5.640  11.248 -2.3953 -0.6155 -1.4208
  797MOL0     H 9978   3.700   5.746  11.342 -1.1736  0.2802 -1.7168
  797MOL0     H 9979   3.674   5.888  11.262  2.4929 -1.6472 -1.3933
  797MOL0     H 9980   3.522   5.972  11.424  2.0190  2.6459  0.9940
  797MOL0     H 9981   3.688   5.941  11.478 -0.3350 -1.3205  1.5577
  797MOL0     H 9982   3.484   5.624  11.686 -1.5250  1.7131  2.8877
  797MOL0     H 9983   3.112   5.681  11.402  1.7979  0.2784  0.0899
  797MOL0     H 9984   3.099   5.435  11.608  0.3342 -0.4055 -0.8005
  797MOL0     H 9985   2.990   5.564  11.542 -1.4721 -0.5822  0.9459
  797MOL0     H 9986   2.964   5.389  11.513  0.7210 -0.8524  0.8937
  798MOL0     O 9987   2.684   9.437   6.131 -0.7463  0.5660  1.0500
  798MOL0     C 9988   2.717   9.333   6.192 -0.4447 -0.6576  0.8001
  798MOL0     O 9989   2.848   9.299   6.220  0.6506  0.8521 -0.3272
  798MOL0     C 9990   2.935   9.313   6.120  0.8009 -0.4185 -0.4011
  798MOL0     C 9991   2.962   9.433   6.065  0.5729 -0.4362 -0.6193
  798MOL0     C 9992   3.062   9.451   5.976 -1.2348  0.3331 -0.1037
  798MOL0     C 9993   3.149   9.345   5.942 -0.2601 -0.3929 -0.2633
  798MOL0     O 9994   3.261   9.373   5.862  0.1999  0.4635 -0.4579
  798MOL0     C 9995   3.348   9.273   5.820  0.9895  0.1900  0.0748
  798MOL0     C 9996   3.428   9.317   5.701 -1.0868 -0.1177  0.7058
  798MOL0     C 9997   3.568   9.243   5.691  0.5384 -0.1607  0.2813
  798MOL0     C 9998   3.561   9.084   5.670  0.1830 -0.3536 -1.3481
  798MOL0     C 9999   3.704   9.034   5.654 -0.3777 -0.8386 -0.1606
  798MOL0     C10000   3.793   9.110   5.551  0.1131  0.3545  0.1618
  798MOL0     C10001   3.880   9.011   5.485 -1.2889 -0.0128  0.1221
  798MOL0     C10002   3.992   8.943   5.569  1.5849  0.1130  0.5730
  798MOL0     N10003   4.112   9.033   5.595  0.0950 -0.4636 -0.2089
  798MOL0     C10004   4.149   9.095   5.710  0.3102 -1.0786  0.3543
  798MOL0     C10005   4.262   9.161   5.692  0.8619  0.2039  0.6312
  798MOL0     C10006   4.333   9.242   5.804 -0.8483 -0.3175  0.0979
  798MOL0     C10007   4.388   9.388   5.772  0.8320  0.8411  0.8585
  798MOL0     C10008   4.505   9.379   5.661 -0.3738  0.0798 -0.5706
  798MOL0     C10009   4.638   9.335   5.722 -0.7396  0.3699  1.2009
  798MOL0     O10010   4.742   9.412   5.664 -0.2646 -0.0791 -0.2584
  798MOL0     C10011   4.876   9.379   5.696  0.8753 -1.0924  0.4629
  798MOL0     C10012   4.958   9.491   5.687  0.4315 -0.6184  0.3757
  798MOL0     C10013   5.092   9.488   5.723 -0.8548 -0.7908 -0.3160
  798MOL0     C10014   5.175   9.619   5.694 -0.8912  0.8249  0.2407
  798MOL0     C10015   5.149   9.371   5.776  0.1380  0.0268  1.1532
  798MOL0     C10016   5.285   9.338   5.796 -0.1981 -0.3193 -0.2398
  798MOL0     O10017   5.383   9.441   5.806 -0.3926  0.2113  0.1063
  798MOL0     C10018   5.516   9.409   5.769  0.8317 -0.6631 -0.0778
  798MOL0     C10019   5.624   9.461   5.840 -0.0337 -0.4669  0.3874
  798MOL0     C10020   5.754   9.454   5.790 -0.5283  0.1707  0.8380
  798MOL0     C10021   5.774   9.375   5.674 -0.5009 -0.4170 -1.0641
  798MOL0     O10022   5.904   9.359   5.635 -0.7140 -0.7073 -0.2201
  798MOL0     C10023   5.945   9.298   5.512  0.8592 -0.1678  0.3500
  798MOL0     C10024   6.088   9.336   5.487 -0.3809  0.0318 -0.8696
  798MOL0     C10025   6.190   9.231   5.550 -0.8987  0.6031 -0.7219
  798MOL0     C10026   6.192   9.092   5.496 -0.4833 -0.2917  0.3889
  798MOL0     C10027   6.284   8.994   5.575 -0.2892 -0.1451  0.6130
  798MOL0     C10028   6.320   8.878   5.492 -0.1357  0.3314  0.6437
  798MOL0     C10029   6.199   8.782   5.475  0.1203  0.4031 -0.4142
  798MOL0     C10030   6.216   8.658   5.384  0.3083 -0.1128  0.6442
  798MOL0    Cl10031   6.205   8.701   5.212 -0.1038 -0.2774  0.4813
  798MOL0     C10032   5.662   9.311   5.609 -0.2060  0.0212 -0.0777
  798MOL0     C10033   5.538   9.335   5.652  0.7786  0.4995  1.1983
  798MOL0     O10034   5.314   9.224   5.821  0.3128  0.1865  0.3458
  798MOL0     C10035   5.060   9.258   5.788  0.1057 -0.4184 -0.1535
  798MOL0     C10036   4.923   9.266   5.751 -0.4153 -0.4350  0.9960
  798MOL0     N10037   4.305   9.116   5.564 -0.1550  0.4916 -0.9687
  798MOL0     N10038   4.213   9.039   5.518 -0.2268  0.1791  1.1533
  798MOL0     C10039   3.110   9.218   5.994  0.9838  0.3519 -0.6525
  798MOL0     C10040   3.005   9.200   6.083 -0.1122 -0.7897 -0.2485
  798MOL0     C10041   2.618   9.235   6.233 -0.0230 -0.0459 -0.1442
  798MOL0     C10042   2.662   9.119   6.303  0.0485  0.8066 -0.6885
  798MOL0     C10043   2.573   9.039   6.380  0.2673 -0.8592 -0.1319
  798MOL0     C10044   2.435   9.047   6.358 -0.8954 -0.0788 -0.3328
  798MOL0     O10045   2.355   8.958   6.424 -0.0307 -1.1576 -0.0863
  798MOL0     C10046   2.214   8.977   6.397  0.2073  0.2483 -0.1876
  798MOL0     C10047   2.130   8.903   6.491  0.3402  0.2738 -0.3822
  798MOL0     C10048   2.132   8.948   6.635 -0.5674  0.3842  0.4913
  798MOL0     C10049   2.061   9.077   6.673 -0.1550  0.1373  0.2137
  798MOL0     C10050   1.943   9.046   6.766 -0.7304  0.1928 -0.0655
  798MOL0     C10051   1.838   9.049   6.821 -0.3663 -0.5486 -0.3804
  798MOL0     C10052   2.390   9.162   6.289  0.0462  0.2771  0.7814
  798MOL0     C10053   2.479   9.252   6.228 -0.5978 -0.5488 -0.9020
  798MOL0     C10054   2.420   9.370   6.165  0.5061 -0.3131  0.1616
  798MOL0     H10055   2.905   9.522   6.090  0.3761 -0.1754 -1.9012
  798MOL0     H10056   3.069   9.551   5.933  1.3538  0.2090 -0.1172
  798MOL0     H10057   3.297   9.183   5.785  1.4113  0.0562 -0.2118
  798MOL0     H10058   3.408   9.244   5.907  0.6843  0.5817  0.4186
  798MOL0     H10059   3.375   9.301   5.607 -2.3265  0.1516  1.3237
  798MOL0     H10060   3.447   9.425   5.708 -1.2720 -0.1777  4.7260
  798MOL0     H10061   3.614   9.286   5.602  2.2296 -2.3854 -0.0026
  798MOL0     H10062   3.632   9.269   5.776  0.3003 -0.8927  0.7010
  798MOL0     H10063   3.509   9.035   5.752  0.6735  2.7150  0.9801
  798MOL0     H10064   3.500   9.063   5.581 -4.6404 -0.0722  1.5252
  798MOL0     H10065   3.703   8.930   5.621  1.0088  0.0487 -3.3957
  798MOL0     H10066   3.746   9.041   5.755 -0.8335 -2.0688  0.1276
  798MOL0     H10067   3.725   9.147   5.474 -0.4208  0.6834  0.7823
  798MOL0     H10068   3.851   9.192   5.595 -1.4406  0.7197  1.6134
  798MOL0     H10069   3.940   9.063   5.409  1.7706 -3.3234 -0.0154
  798MOL0     H10070   3.826   8.937   5.426  0.1438  0.9358 -2.5583
  798MOL0     H10071   3.938   8.905   5.657 -1.6319  1.0066 -0.8584
  798MOL0     H10072   4.033   8.852   5.525  0.5299 -0.8383  1.4911
  798MOL0     H10073   4.091   9.107   5.801 -1.1020 -2.0055 -0.3943
  798MOL0     H10074   4.393   9.177   5.868  0.1017 -0.9057 -1.3380
  798MOL0     H10075   4.253   9.264   5.875  1.4901 -1.4736  3.3507
  798MOL0     H10076   4.302   9.432   5.721  1.6673  1.6829  0.1420
  798MOL0     H10077   4.412   9.442   5.864 -2.4315  2.6753  0.8000
  798MOL0     H10078   4.489   9.306   5.581 -0.0992  0.2080 -0.7459
  798MOL0     H10079   4.513   9.471   5.602 -1.2226 -0.3193 -1.3305
  798MOL0     H10080   4.632   9.363   5.828 -1.1301  1.1580  0.9787
  798MOL0     H10081   4.645   9.226   5.721 -0.9019  0.2855 -2.6275
  798MOL0     H10082   4.916   9.587   5.659  1.4074  0.6593  2.9187
  798MOL0     H10083   5.182   9.676   5.787  1.3025  0.0948  0.6041
  798MOL0     H10084   5.130   9.680   5.615 -2.2697  2.0016  1.8666
  798MOL0     H10085   5.269   9.598   5.641 -1.5995  2.1287 -1.6282
  798MOL0     H10086   5.604   9.507   5.936 -0.2702  3.3026 -1.2988
  798MOL0     H10087   5.832   9.501   5.850  0.4227  1.4559 -1.3036
  798MOL0     H10088   5.925   9.190   5.518  2.5318 -0.5138  0.1555
  798MOL0     H10089   5.887   9.336   5.427  1.6099 -1.2100 -0.6697
  798MOL0     H10090   6.092   9.336   5.378 -1.6031  3.8315 -1.0569
  798MOL0     H10091   6.118   9.433   5.528 -0.2773 -0.2327 -0.3040
  798MOL0     H10092   6.162   9.227   5.655  0.6960 -0.8186 -0.3124
  798MOL0     H10093   6.287   9.281   5.553 -0.1102 -0.8682 -0.7205
  798MOL0     H10094   6.223   9.084   5.392  1.7054 -1.2694  1.0536
  798MOL0     H10095   6.093   9.050   5.515  0.4784 -1.5375  3.1850
  798MOL0     H10096   6.382   9.040   5.593 -0.2895  0.4773 -0.8800
  798MOL0     H10097   6.236   8.968   5.670  2.2019 -0.4412  1.8939
  798MOL0     H10098   6.411   8.837   5.536  1.1012  2.1160 -0.1277
  798MOL0     H10099   6.358   8.915   5.396  0.2699  1.8128  1.3382
  798MOL0     H10100   6.113   8.835   5.433 -0.1175  1.0741  0.8723
  798MOL0     H10101   6.169   8.752   5.577 -1.2807 -2.2834 -1.4948
  798MOL0     H10102   6.135   8.590   5.413 -1.2533  1.6188  0.5112
  798MOL0     H10103   6.311   8.607   5.404  1.1609  1.6451  1.2524
  798MOL0     H10104   5.683   9.245   5.527 -1.4025  0.6606 -0.9276
  798MOL0     H10105   5.461   9.290   5.589  2.4005 -0.4723 -0.1565
  798MOL0     H10106   5.093   9.162   5.827 -2.3532 -0.4959  1.9641
  798MOL0     H10107   4.861   9.179   5.767 -0.7673 -0.8449 -2.0973
  798MOL0     H10108   3.167   9.129   5.969  0.4038  0.2461 -1.6461
  798MOL0     H10109   3.001   9.098   6.118 -1.1361 -1.2409 -1.6051
  798MOL0     H10110   2.768   9.104   6.321 -0.5877 -0.8898  2.2710
  798MOL0     H10111   2.618   8.975   6.455  0.0954 -0.3351  0.4233
  798MOL0     H10112   2.187   9.083   6.390  3.0186  1.0019 -0.6487
  798MOL0     H10113   2.200   8.934   6.298 -0.4106  0.2508 -0.1076
  798MOL0     H10114   2.165   8.800   6.493 -3.5837 -1.2193  0.3935
  798MOL0     H10115   2.027   8.890   6.456 -0.2373 -2.1980  1.8840
  798MOL0     H10116   2.095   8.863   6.693 -1.1084  1.2607  1.4628
  798MOL0     H10117   2.238   8.958   6.657 -0.5384 -0.7651  0.8913
  798MOL0     H10118   2.021   9.134   6.588 -1.9180  0.5180  1.2465
  798MOL0     H10119   2.135   9.148   6.709  1.4166 -0.9740 -0.6763
  798MOL0     H10120   1.756   9.054   6.890  0.7520  0.8163  0.9026
  798MOL0     H10121   2.287   9.186   6.261  0.4367  3.3064  1.6185
  798MOL0     H10122   2.418   9.447   6.242 -1.3428 -0.9645  0.8243
  798MOL0     H10123   2.471   9.408   6.076  4.0081 -0.6011  1.8918
  798MOL0     H10124   2.314   9.353   6.144  0.4119 -1.3219  1.3141
  799MOL0     O10125   7.117   9.696   4.480  0.1896 -0.4012 -0.5765
  799MOL0     C10126   7.169   9.603   4.536  0.1066  0.9372 -0.1351
  799MOL0     O10127   7.106   9.486   4.571  0.3627  0.0989 -1.1000
  799MOL0     C10128   6.987   9.449   4.516  0.2876  0.3997 -0.6293
  799MOL0     C10129   6.909   9.510   4.415  0.1156 -0.2662  0.3966
  799MOL0     C10130   6.782   9.471   4.384 -0.3772 -1.0132 -0.1607
  799MOL0     C10131   6.724   9.362   4.453  0.6248  0.3165 -0.3142
  799MOL0     O10132   6.589   9.352   4.438 -0.2037 -0.2478  0.0719
  799MOL0     C10133   6.524   9.252   4.515 -0.4110 -0.3504 -0.5829
  799MOL0     C10134   6.368   9.264   4.496  0.4147  0.2508 -0.8634
  799MOL0     C10135   6.282   9.159   4.562  0.3055 -0.0257 -0.3730
  799MOL0     C10136   6.129   9.188   4.537 -0.9438  0.7591  0.4699
  799MOL0     C10137   6.043   9.066   4.546  0.2289 -0.4157 -1.6004
  799MOL0     C10138   5.902   9.110   4.517 -0.4266  0.1033  0.5356
  799MOL0     C10139   5.801   9.000   4.546 -0.7125  0.0221  0.3305
  799MOL0     C10140   5.828   8.882   4.472 -0.5913  0.3309 -0.0673
  799MOL0     N10141   5.718   8.789   4.460  0.9138  0.3507  0.7143
  799MOL0     C10142   5.679   8.684   4.531 -0.6288  0.8635 -0.3629
  799MOL0     C10143   5.575   8.630   4.470  0.3403 -0.6067  0.5165
  799MOL0     C10144   5.501   8.506   4.510  0.5982 -0.6303 -0.7153
  799MOL0     C10145   5.538   8.379   4.431 -0.0223 -0.8410 -0.8309
  799MOL0     C10146   5.668   8.314   4.490  0.2539 -0.5122  0.4967
  799MOL0     C10147   5.717   8.206   4.392 -0.1644  0.6643 -1.1956
  799MOL0     O10148   5.820   8.116   4.454  0.2688  0.2624  0.4018
  799MOL0     C10149   5.948   8.164   4.478 -0.0439  0.0185 -0.1548
  799MOL0     C10150   6.036   8.071   4.530 -0.2123 -0.0394  0.4820
  799MOL0     C10151   6.170   8.108   4.561  0.6301  0.6961  0.2914
  799MOL0     C10152   6.260   7.994   4.600 -0.3398  0.4352 -0.1568
  799MOL0     C10153   6.205   8.247   4.565 -0.1456  0.4874  0.4298
  799MOL0     C10154   6.338   8.298   4.605 -0.9043  0.1524 -0.3215
  799MOL0     O10155   6.389   8.417   4.563 -0.4683 -0.6781 -0.9160
  799MOL0     C10156   6.495   8.470   4.633 -0.0210 -0.4224 -0.9256
  799MOL0     C10157   6.624   8.461   4.571  0.3794 -0.1843 -1.0705
  799MOL0     C10158   6.742   8.490   4.651 -0.4162  0.4779  0.5545
  799MOL0     C10159   6.732   8.524   4.782 -0.1796  0.3456 -0.3932
  799MOL0     O10160   6.848   8.552   4.842  0.4243  0.0784  0.0495
  799MOL0     C10161   6.843   8.610   4.967  0.2189  0.6060 -0.2991
  799MOL0     C10162   6.989   8.642   4.998  0.0934  0.8713  0.5211
  799MOL0     C10163   7.044   8.762   4.922 -0.0927  0.1248  0.0797
  799MOL0     C10164   7.202   8.768   4.920 -0.0620 -0.5092 -0.6641
  799MOL0     C10165   7.241   8.871   4.816  0.0316  0.6451  0.2239
  799MOL0     C10166   7.395   8.903   4.824 -0.4058  0.4041  0.4751
  799MOL0     C10167   7.486   8.785   4.782  0.2907 -0.0982  0.0996
  799MOL0     C10168   7.633   8.813   4.777 -0.1121 -0.3074  0.8123
  799MOL0    Cl10169   7.716   8.664   4.693 -0.5801 -0.2213  0.0829
  799MOL0     C10170   6.602   8.512   4.851 -0.5531 -0.8421  0.7281
  799MOL0     C10171   6.488   8.496   4.776  0.2668  0.0171 -0.5758
  799MOL0     O10172   6.395   8.219   4.687 -0.4598 -0.2337  0.4327
  799MOL0     C10173   6.114   8.337   4.516 -0.2264 -0.1590  0.6255
  799MOL0     C10174   5.993   8.296   4.459 -0.7949 -0.8677 -0.1138
  799MOL0     N10175   5.539   8.708   4.359  1.1250  0.0016 -0.2165
  799MOL0     N10176   5.619   8.812   4.367 -0.0071  0.2852 -0.0269
  799MOL0     C10177   6.799   9.284   4.547  0.0857  0.1304  0.0662
  799MOL0     C10178   6.933   9.327   4.574 -0.2224 -0.2817 -0.9013
  799MOL0     C10179   7.312   9.609   4.566 -0.0676  0.1409  0.0229
  799MOL0     C10180   7.398   9.661   4.473  0.2004 -0.0373  0.1799
  799MOL0     C10181   7.534   9.681   4.498 -0.7778 -0.9563 -0.2380
  799MOL0     C10182   7.590   9.645   4.618 -0.4734 -0.8036 -0.7490
  799MOL0     O10183   7.719   9.657   4.662 -0.3851 -0.1402 -0.2833
  799MOL0     C10184   7.802   9.760   4.608 -0.7247 -0.3833  0.5222
  799MOL0     C10185   7.936   9.712   4.551 -0.8544  0.1509  0.6489
  799MOL0     C10186   7.921   9.640   4.412 -1.1235 -0.9441 -0.4472
  799MOL0     C10187   7.930   9.488   4.437 -0.0183  0.4380  0.5323
  799MOL0     C10188   7.909   9.427   4.308 -0.3828  0.9562  0.7697
  799MOL0     C10189   7.889   9.374   4.205  0.4862 -0.3377 -0.1629
  799MOL0     C10190   7.503   9.574   4.700  0.4386 -0.1162 -0.1022
  799MOL0     C10191   7.368   9.550   4.677 -0.0057  0.2497 -0.9708
  799MOL0     C10192   7.302   9.458   4.779 -0.5091  0.1802  0.3457
  799MOL0     H10193   6.952   9.596   4.363 -1.1367  2.3586  3.3996
  799MOL0     H10194   6.715   9.526   4.319 -0.8261 -1.4748 -0.1040
  799MOL0     H10195   6.532   9.271   4.622 -3.6522  1.4410 -0.5439
  799MOL0     H10196   6.562   9.153   4.487 -1.1191 -1.0688  0.8975
  799MOL0     H10197   6.335   9.359   4.540 -4.3084 -2.1343  1.5017
  799MOL0     H10198   6.359   9.268   4.387  2.7827 -1.5976 -1.2185
  799MOL0     H10199   6.295   9.058   4.521  0.5018  0.3961 -1.3916
  799MOL0     H10200   6.302   9.152   4.669 -0.5743 -3.3734 -0.3099
  799MOL0     H10201   6.101   9.270   4.603  0.7594  1.6185  0.1965
  799MOL0     H10202   6.120   9.223   4.434 -3.4298 -1.8509 -0.3434
  799MOL0     H10203   6.044   9.012   4.642  0.3229  0.2388 -1.2248
  799MOL0     H10204   6.082   8.997   4.471 -1.7159 -0.7696 -2.3464
  799MOL0     H10205   5.858   9.187   4.581  1.0984  0.2408  1.4517
  799MOL0     H10206   5.882   9.139   4.413 -4.0701 -0.4356  0.9431
  799MOL0     H10207   5.698   9.038   4.546 -0.4549  0.7407  0.6755
  799MOL0     H10208   5.816   8.961   4.647 -2.9294 -0.8262  0.3902
  799MOL0     H10209   5.865   8.899   4.371 -1.0310  0.4442 -0.2122
  799MOL0     H10210   5.900   8.822   4.527 -3.2110 -0.8090  2.4164
  799MOL0     H10211   5.733   8.650   4.619 -0.0906 -2.3206 -1.7809
  799MOL0     H10212   5.394   8.528   4.511  0.8044  1.7069  4.2910
  799MOL0     H10213   5.509   8.481   4.616 -3.6253  1.7106  0.4033
  799MOL0     H10214   5.452   8.314   4.445 -0.4778  0.1478  1.4788
  799MOL0     H10215   5.542   8.402   4.324 -1.6008 -3.6451 -1.5757
  799MOL0     H10216   5.743   8.394   4.487 -2.7359  2.5044  0.3840
  799MOL0     H10217   5.652   8.274   4.590 -2.3887  0.5699  0.5708
  799MOL0     H10218   5.643   8.133   4.357  1.4794 -1.4102 -0.5318
  799MOL0     H10219   5.763   8.259   4.308  3.7837  1.5184  1.2259
  799MOL0     H10220   6.003   7.969   4.548 -0.6733 -0.1915 -1.0857
  799MOL0     H10221   6.359   7.998   4.554 -0.5362  0.8437 -0.5531
  799MOL0     H10222   6.207   7.903   4.571 -0.4852  0.1213  1.0448
  799MOL0     H10223   6.268   7.991   4.709  0.7220  0.1129 -0.2355
  799MOL0     H10224   6.621   8.438   4.465 -3.4812 -3.3213 -0.5233
  799MOL0     H10225   6.844   8.495   4.615  0.8140  1.2695  3.8053
  799MOL0     H10226   6.775   8.696   4.967 -0.3338  0.1747 -0.3294
  799MOL0     H10227   6.801   8.536   5.036 -1.6330  2.1689  0.3578
  799MOL0     H10228   6.986   8.655   5.107  2.9336 -2.4204  1.1434
  799MOL0     H10229   7.042   8.550   4.973  0.2673  1.3403 -0.9040
  799MOL0     H10230   7.008   8.855   4.967 -0.2841  1.7984 -3.1960
  799MOL0     H10231   7.000   8.776   4.823 -2.0645  0.6208  0.9848
  799MOL0     H10232   7.239   8.671   4.887  1.4077  0.1121 -0.9059
  799MOL0     H10233   7.250   8.786   5.017  1.8602 -1.8712 -1.2998
  799MOL0     H10234   7.223   8.829   4.717  0.9141  2.9436 -0.9885
  799MOL0     H10235   7.176   8.959   4.807 -1.7282 -0.5967  0.2124
  799MOL0     H10236   7.415   8.942   4.925 -0.1706  1.7536 -0.0738
  799MOL0     H10237   7.416   8.989   4.760 -0.8332 -0.4407 -0.8389
  799MOL0     H10238   7.453   8.755   4.682 -0.3107  1.4656 -0.2002
  799MOL0     H10239   7.469   8.696   4.843  0.5615 -1.8222 -2.1774
  799MOL0     H10240   7.672   8.836   4.877  0.5546  0.8969  0.2943
  799MOL0     H10241   7.662   8.900   4.717 -0.8032 -0.3621  0.3957
  799MOL0     H10242   6.600   8.522   4.959  1.2094  4.1270  0.5762
  799MOL0     H10243   6.389   8.497   4.820  1.0856 -0.4102  1.4199
  799MOL0     H10244   6.145   8.441   4.509 -0.1795 -0.1704  0.6646
  799MOL0     H10245   5.931   8.374   4.415 -0.6126 -1.4473 -1.4465
  799MOL0     H10246   6.757   9.203   4.607 -0.1041  1.3547  1.6339
  799MOL0     H10247   6.992   9.277   4.650  0.1521 -0.5454 -1.3657
  799MOL0     H10248   7.364   9.700   4.378  1.2227  0.6662  0.0866
  799MOL0     H10249   7.595   9.719   4.416 -0.5762  0.4325  0.5170
  799MOL0     H10250   7.744   9.820   4.537  1.1704 -2.6671 -3.3402
  799MOL0     H10251   7.817   9.820   4.698  0.4381  1.1524 -0.6242
  799MOL0     H10252   7.988   9.642   4.617 -0.9175  0.1035  0.6478
  799MOL0     H10253   8.002   9.794   4.521 -0.3009 -0.9838 -1.4148
  799MOL0     H10254   7.821   9.673   4.381 -2.4438 -0.7516  3.3531
  799MOL0     H10255   7.996   9.675   4.341  0.9065 -1.9802  1.0928
  799MOL0     H10256   7.860   9.448   4.511  0.8919  1.8972  2.2531
  799MOL0     H10257   8.028   9.476   4.483  1.0067  1.1073 -1.3800
  799MOL0     H10258   7.877   9.324   4.111  0.2157  0.2441 -0.4438
  799MOL0     H10259   7.544   9.539   4.794  2.3619 -0.3824 -0.9936
  799MOL0     H10260   7.363   9.453   4.870  1.1620  0.6936 -0.7113
  799MOL0     H10261   7.209   9.500   4.818 -0.2944  1.3536 -0.3574
  799MOL0     H10262   7.277   9.358   4.745 -0.1585 -0.4212  1.7891
  800MOL0     O10263   7.113   6.863   9.394 -0.2089  1.0721  0.0441
  800MOL0     C10264   7.217   6.843   9.331  0.7470 -0.6758  0.9291
  800MOL0     O10265   7.234   6.886   9.202 -0.1576  0.6584  0.4534
  800MOL0     C10266   7.131   6.958   9.148  0.2097  0.2369  0.7898
  800MOL0     C10267   7.025   6.904   9.081 -0.4458  0.2097 -0.5291
  800MOL0     C10268   6.923   6.988   9.022  0.4046 -0.3767 -0.2536
  800MOL0     C10269   6.937   7.133   9.025  0.5644  0.3885 -0.0232
  800MOL0     O10270   6.858   7.232   8.970  0.2109 -0.4971  0.6107
  800MOL0     C10271   6.792   7.196   8.853  0.1320  0.8031 -0.2384
  800MOL0     C10272   6.695   7.303   8.822  0.2630 -0.2165 -0.5421
  800MOL0     C10273   6.761   7.430   8.765 -0.0045  0.0065 -0.0513
  800MOL0     C10274   6.865   7.430   8.658 -0.4381  0.2568 -1.1010
  800MOL0     C10275   6.920   7.574   8.616  0.2669 -0.3171  0.6197
  800MOL0     C10276   6.959   7.657   8.740  0.6413 -0.3699 -0.3806
  800MOL0     C10277   7.041   7.782   8.700 -1.0974 -0.0612  0.4248
  800MOL0     C10278   7.060   7.866   8.833  1.2794 -0.1330  0.3950
  800MOL0     N10279   7.111   8.000   8.802  0.3245 -0.3266  0.6494
  800MOL0     C10280   7.041   8.093   8.732  0.1050  0.4003 -0.0942
  800MOL0     C10281   7.115   8.200   8.713  0.2934  0.1760 -0.7642
  800MOL0     C10282   7.057   8.314   8.633 -0.4975  0.8820  0.2523
  800MOL0     C10283   7.071   8.287   8.479 -0.4760  0.9229 -0.1748
  800MOL0     C10284   7.220   8.269   8.448  0.1785 -1.0092  0.2645
  800MOL0     C10285   7.230   8.143   8.359 -0.5965 -0.6148 -0.3107
  800MOL0     O10286   7.368   8.120   8.329  0.2704 -0.3397 -0.1253
  800MOL0     C10287   7.389   8.030   8.232 -0.6164  0.3760  1.2975
  800MOL0     C10288   7.528   8.025   8.200 -0.2230  0.0971 -0.3869
  800MOL0     C10289   7.569   7.952   8.083 -0.2542  0.8378 -0.5520
  800MOL0     C10290   7.710   7.959   8.044  0.3662 -0.7319  0.2279
  800MOL0     C10291   7.476   7.869   8.002  0.0200 -0.2352 -0.3965
  800MOL0     C10292   7.506   7.790   7.875 -0.0637  0.0269 -0.7536
  800MOL0     O10293   7.628   7.798   7.816 -0.3227 -0.6410 -0.2315
  800MOL0     C10294   7.669   7.747   7.696  0.1358 -0.9515  0.7332
  800MOL0     C10295   7.798   7.706   7.685  0.2909  0.3544 -0.2311
  800MOL0     C10296   7.850   7.673   7.554  0.4917 -0.6512  0.3783
  800MOL0     C10297   7.765   7.676   7.441 -1.3192 -0.0089 -0.3317
  800MOL0     O10298   7.806   7.644   7.317  0.5690  0.0720  0.2281
  800MOL0     C10299   7.893   7.531   7.302 -1.0472  0.0655 -0.6649
  800MOL0     C10300   7.802   7.407   7.276  0.9298 -0.5189 -0.4254
  800MOL0     C10301   7.765   7.398   7.129  0.2951  0.8094 -0.0831
  800MOL0     C10302   7.701   7.265   7.101  0.6388 -0.5478 -0.1545
  800MOL0     C10303   7.679   7.226   6.956 -0.0546  0.1916  0.5272
  800MOL0     C10304   7.578   7.109   6.951 -0.3401 -0.5814  0.4465
  800MOL0     C10305   7.549   7.070   6.808 -0.0873 -0.4193  0.3218
  800MOL0     C10306   7.431   6.976   6.790 -0.1439 -0.0292 -0.4429
  800MOL0    Cl10307   7.277   7.028   6.874  0.0681  0.0959  0.3115
  800MOL0     C10308   7.636   7.710   7.463  0.1985  0.3527 -0.1412
  800MOL0     C10309   7.584   7.744   7.588  0.4869 -0.3548  0.0795
  800MOL0     O10310   7.414   7.722   7.826  0.5787 -0.2204 -0.2350
  800MOL0     C10311   7.340   7.868   8.053 -0.5285 -0.1724 -0.0280
  800MOL0     C10312   7.295   7.954   8.158  1.2770 -0.0258  0.5228
  800MOL0     N10313   7.231   8.182   8.784  0.5044  0.3908  1.4467
  800MOL0     N10314   7.234   8.058   8.827 -0.2397 -0.8064 -0.1275
  800MOL0     C10315   7.048   7.183   9.097  0.7486 -0.2132 -0.3733
  800MOL0     C10316   7.137   7.099   9.156  1.4157 -0.1461  0.1785
  800MOL0     C10317   7.341   6.827   9.404 -0.3938  1.0573  1.0281
  800MOL0     C10318   7.349   6.893   9.530 -0.2817  0.0622 -0.5542
  800MOL0     C10319   7.461   6.873   9.606 -0.3089 -0.0327  0.0379
  800MOL0     C10320   7.570   6.808   9.554  0.0654  0.5691  0.2338
  800MOL0     O10321   7.690   6.789   9.619  0.3845  0.6451  0.6811
  800MOL0     C10322   7.754   6.901   9.690 -0.1752  0.4963  0.5657
  800MOL0     C10323   7.876   6.847   9.772 -0.2186  0.0346  0.0843
  800MOL0     C10324   7.837   6.755   9.891  0.1797 -0.3437  0.4313
  800MOL0     C10325   7.955   6.660   9.934 -0.4995 -0.2246 -0.5687
  800MOL0     C10326   7.944   6.593  10.062 -0.6338  0.2288 -0.1715
  800MOL0     C10327   7.942   6.552  10.173  0.8877 -0.2484 -0.2504
  800MOL0     C10328   7.559   6.743   9.429 -1.2370 -0.2487 -0.7900
  800MOL0     C10329   7.441   6.746   9.350  0.5065 -0.7402 -0.1187
  800MOL0     C10330   7.427   6.667   9.223  0.1699 -1.3098 -0.0230
  800MOL0     H10331   7.021   6.797   9.071 -0.9451  0.0653  0.9202
  800MOL0     H10332   6.831   6.950   8.981 -0.4592  0.9808  0.3402
  800MOL0     H10333   6.740   7.100   8.858  3.2351 -1.0968 -1.4875
  800MOL0     H10334   6.856   7.186   8.765  0.5106 -0.4962  0.1560
  800MOL0     H10335   6.623   7.262   8.751 -0.2061 -1.0828  0.4088
  800MOL0     H10336   6.636   7.332   8.910 -0.2655 -2.1818 -0.1923
  800MOL0     H10337   6.678   7.491   8.730  1.1779  1.5937 -0.2455
  800MOL0     H10338   6.805   7.481   8.852  0.6567 -2.9429  1.4907
  800MOL0     H10339   6.946   7.369   8.701 -1.3527 -0.2532 -0.0593
  800MOL0     H10340   6.826   7.389   8.565 -0.1307 -0.2409 -1.0174
  800MOL0     H10341   6.839   7.619   8.558 -2.0477 -4.4789  0.1937
  800MOL0     H10342   7.006   7.555   8.552  0.1156  0.2597  0.2416
  800MOL0     H10343   6.870   7.692   8.793  0.8752  1.4649 -1.1178
  800MOL0     H10344   7.008   7.591   8.812 -0.4712 -1.2725 -0.4169
  800MOL0     H10345   6.986   7.842   8.626 -1.1815 -0.3734  0.2331
  800MOL0     H10346   7.136   7.759   8.652  0.0183  4.0673  0.2805
  800MOL0     H10347   6.970   7.874   8.895  1.7128  4.8043  0.7997
  800MOL0     H10348   7.125   7.805   8.897  2.7500  0.4687 -0.4928
  800MOL0     H10349   6.944   8.081   8.684  0.3558  2.9597 -1.4157
  800MOL0     H10350   7.107   8.407   8.664 -0.7388  1.1525 -0.1624
  800MOL0     H10351   6.954   8.321   8.669 -0.1117 -2.0990  2.2432
  800MOL0     H10352   7.025   8.191   8.454 -0.0302  1.3786 -3.0438
  800MOL0     H10353   7.015   8.360   8.420 -2.5584 -0.2344  0.2664
  800MOL0     H10354   7.255   8.357   8.392  1.4194 -1.7746 -0.1943
  800MOL0     H10355   7.289   8.265   8.532  1.4340  2.4929 -0.3954
  800MOL0     H10356   7.184   8.055   8.405 -3.2877 -1.1109 -3.5630
  800MOL0     H10357   7.181   8.164   8.263  1.4288 -2.3671 -1.8323
  800MOL0     H10358   7.607   8.080   8.251  1.4023 -3.3607  1.1382
  800MOL0     H10359   7.772   8.017   8.114 -2.8148  1.3442  1.5486
  800MOL0     H10360   7.714   8.002   7.944 -0.4829  1.8856  1.2361
  800MOL0     H10361   7.744   7.855   8.052  3.1293  0.1543  1.3988
  800MOL0     H10362   7.864   7.729   7.767  0.6022  0.0114 -0.3827
  800MOL0     H10363   7.958   7.660   7.552  0.3012 -2.5491  1.0934
  800MOL0     H10364   7.944   7.542   7.205  0.9658 -0.6664  0.2490
  800MOL0     H10365   7.963   7.512   7.384  0.1946  2.8417 -0.9871
  800MOL0     H10366   7.856   7.320   7.316 -0.5040 -1.3829 -0.2741
  800MOL0     H10367   7.709   7.401   7.335  2.0700 -2.4867  1.3363
  800MOL0     H10368   7.849   7.401   7.059  1.3348  1.6303  1.1541
  800MOL0     H10369   7.692   7.479   7.116  0.3385  1.0424  1.0383
  800MOL0     H10370   7.606   7.272   7.155  2.2554 -0.7085  2.9366
  800MOL0     H10371   7.771   7.202   7.157  2.3297  1.7866  0.5021
  800MOL0     H10372   7.636   7.311   6.902 -1.3654 -0.9195 -0.2651
  800MOL0     H10373   7.778   7.200   6.918  0.1059  0.4570  0.7595
  800MOL0     H10374   7.484   7.129   7.004  0.0863 -0.6979  1.2556
  800MOL0     H10375   7.618   7.022   7.003 -0.5130 -0.5522  0.6317
  800MOL0     H10376   7.645   7.029   6.775  1.2318  0.4404  2.7726
  800MOL0     H10377   7.536   7.153   6.738 -0.9482 -1.6839 -1.0636
  800MOL0     H10378   7.462   6.875   6.821 -1.0687 -1.2373 -3.1789
  800MOL0     H10379   7.415   6.959   6.683  0.9640 -0.4870 -0.5563
  800MOL0     H10380   7.566   7.707   7.380  1.3922 -0.1189 -1.1525
  800MOL0     H10381   7.481   7.778   7.596  1.3181  1.8215  3.4824
  800MOL0     H10382   7.270   7.799   8.008 -0.5788 -0.7787  0.9492
  800MOL0     H10383   7.190   7.948   8.183  0.2411 -0.6279 -3.3781
  800MOL0     H10384   7.052   7.291   9.095 -0.5706 -0.1488 -0.7537
  800MOL0     H10385   7.220   7.138   9.215  2.2052 -1.0314 -0.3032
  800MOL0     H10386   7.267   6.949   9.573 -0.0202  2.1794 -2.6116
  800MOL0     H10387   7.479   6.924   9.700  1.0318 -0.0781 -0.1813
  800MOL0     H10388   7.785   6.976   9.616  2.0260 -0.7713  0.1065
  800MOL0     H10389   7.683   6.952   9.756 -0.1923  2.2650 -0.7284
  800MOL0     H10390   7.932   6.931   9.811  0.3971 -1.0254  1.5668
  800MOL0     H10391   7.939   6.791   9.702  1.0704  2.3017 -0.6444
  800MOL0     H10392   7.807   6.815   9.977 -0.0534 -0.9514  0.7770
  800MOL0     H10393   7.756   6.691   9.854  0.3128 -0.6090  0.6073
  800MOL0     H10394   8.051   6.712   9.937 -0.6483  0.0354 -0.1924
  800MOL0     H10395   7.964   6.583   9.857  0.8635 -0.1682 -0.4795
  800MOL0     H10396   7.938   6.515  10.274  0.7340 -2.9415 -1.1695
  800MOL0     H10397   7.647   6.686   9.401 -0.0004  1.9465 -1.6069
  800MOL0     H10398   7.513   6.604   9.201 -0.3933 -1.0338 -3.5859
  800MOL0     H10399   7.336   6.607   9.235 -1.3428  0.6015 -1.2603
  800MOL0     H10400   7.416   6.731   9.135 -0.8167 -0.5364  0.6310
  801MOL0     O10401   1.496   9.548  11.078 -0.0686  0.0919  0.1622
  801MOL0     C10402   1.412   9.590  10.995  0.0154 -1.0278 -0.0912
  801MOL0     O10403   1.431   9.686  10.902 -0.0881  0.2851 -0.1275
  801MOL0     C10404   1.564   9.718  10.881 -0.2428  0.8431 -0.1692
  801MOL0     C10405   1.625   9.828  10.951 -0.9206 -0.3696 -0.1298
  801MOL0     C10406   1.759   9.865  10.919  0.0090  0.4239  0.0705
  801MOL0     C10407   1.829   9.786  10.827 -0.7385 -0.7376  0.6613
  801MOL0     O10408   1.956   9.829  10.791 -0.0835  0.6706 -0.2330
  801MOL0     C10409   2.057   9.723  10.780 -0.5933  0.3137 -0.0275
  801MOL0     C10410   2.199   9.788  10.773 -0.4512  0.4880 -0.0382
  801MOL0     C10411   2.305   9.692  10.841 -0.1062 -0.2188 -0.0977
  801MOL0     C10412   2.444   9.688  10.766  0.1136  0.9732 -0.4137
  801MOL0     C10413   2.507   9.825  10.756  0.4235 -0.4340 -0.7372
  801MOL0     C10414   2.564   9.866  10.895  0.4219  0.2168  0.3323
  801MOL0     C10415   2.699   9.793  10.944 -0.0430 -0.0772  0.2317
  801MOL0     C10416   2.676   9.669  11.034 -0.3429  0.3340 -0.2967
  801MOL0     N10417   2.808   9.626  11.080  0.3960  0.3287 -1.3337
  801MOL0     C10418   2.922   9.669  11.151  0.7009 -0.4024  0.8635
  801MOL0     C10419   3.009   9.568  11.175  0.2623  0.0860 -0.4997
  801MOL0     C10420   3.146   9.583  11.233  0.2458  0.1782  0.1852
  801MOL0     C10421   3.258   9.634  11.133  0.0334  0.2574  0.0376
  801MOL0     C10422   3.286   9.529  11.026  0.2439  0.4120  0.1787
  801MOL0     C10423   3.398   9.550  10.924 -0.4674  0.4387  1.0643
  801MOL0     O10424   3.364   9.646  10.825 -0.8461  0.1186 -0.2490
  801MOL0     C10425   3.465   9.683  10.747  0.1884  0.7652  0.2383
  801MOL0     C10426   3.506   9.818  10.745  0.4245 -0.3889  0.0158
  801MOL0     C10427   3.620   9.866  10.691  0.3392 -0.1782  0.4147
  801MOL0     C10428   3.657  10.013  10.712  0.1647 -0.3717  0.4276
  801MOL0     C10429   3.689   9.773  10.603  0.5684 -0.8816  0.2504
  801MOL0     C10430   3.802   9.815  10.517 -0.2392 -0.3196  0.5038
  801MOL0     O10431   3.876   9.925  10.559  0.6800 -0.7992 -0.0236
  801MOL0     C10432   3.989   9.942  10.485  0.1420  0.0455 -0.7780
  801MOL0     C10433   4.110   9.979  10.551 -0.5214  0.1532  0.2198
  801MOL0     C10434   4.222  10.025  10.480  0.2387 -0.5354  0.1543
  801MOL0     C10435   4.214  10.023  10.339  0.3112  1.2345  0.1308
  801MOL0     O10436   4.322  10.037  10.256  0.1112 -0.2573  0.1227
  801MOL0     C10437   4.443   9.969  10.289  0.4258 -0.3732  1.1749
  801MOL0     C10438   4.550  10.064  10.348 -0.4237  0.0717 -0.0066
  801MOL0     C10439   4.631  10.138  10.240 -0.0416 -0.3914 -0.1435
  801MOL0     C10440   4.755  10.068  10.204 -1.6164  0.5185 -0.1740
  801MOL0     C10441   4.858  10.173  10.153 -0.4643  0.3988  0.2717
  801MOL0     C10442   4.992  10.098  10.129  0.4330 -0.1474  0.0235
  801MOL0     C10443   5.093  10.208  10.084 -0.1363 -0.2282  0.9505
  801MOL0     C10444   5.240  10.156  10.066  0.4382 -0.2120 -0.0064
  801MOL0    Cl10445   5.335  10.177  10.219  0.4675  0.2493 -0.2508
  801MOL0     C10446   4.093   9.990  10.277  0.4916  0.4469  0.0853
  801MOL0     C10447   3.977   9.970  10.352  0.5215  0.3271  0.5668
  801MOL0     O10448   3.817   9.745  10.416  0.3208  0.0338 -0.4400
  801MOL0     C10449   3.643   9.641  10.588  0.0346  1.2290  0.0613
  801MOL0     C10450   3.532   9.593  10.664  0.2291  0.2422 -0.0857
  801MOL0     N10451   2.962   9.462  11.103 -0.3567 -0.5191  0.0043
  801MOL0     N10452   2.849   9.500  11.050 -0.9011  0.7532  0.8741
  801MOL0     C10453   1.770   9.686  10.757  1.5459 -1.2904 -0.6899
  801MOL0     C10454   1.641   9.653  10.786 -0.2836  0.3300  0.0348
  801MOL0     C10455   1.276   9.558  11.019  0.2342 -0.0588 -0.5129
  801MOL0     C10456   1.180   9.663  10.998  0.3945  0.4465  0.1143
  801MOL0     C10457   1.043   9.649  11.026 -0.0344  0.0430  0.9717
  801MOL0     C10458   0.993   9.524  11.060 -0.2222  0.1636 -0.6111
  801MOL0     O10459   0.862   9.508  11.096 -0.6827 -0.0437 -1.2639
  801MOL0     C10460   0.803   9.390  11.031 -0.0645 -0.2595 -0.6874
  801MOL0     C10461   0.653   9.390  11.060 -0.6117 -0.2692  0.2393
  801MOL0     C10462   0.575   9.467  10.956  0.3996  0.0155  0.3496
  801MOL0     C10463   0.542   9.614  10.986 -0.5157  0.2699  0.1355
  801MOL0     C10464   0.421   9.664  10.918 -0.8772  0.2446 -0.0523
  801MOL0     C10465   0.318   9.706  10.879  0.2715  0.2040  0.6126
  801MOL0     C10466   1.090   9.426  11.087  0.0417  0.3904  0.0052
  801MOL0     C10467   1.231   9.438  11.072  0.8094  0.5083  0.5396
  801MOL0     C10468   1.328   9.328  11.104 -0.3785 -0.3964 -0.1856
  801MOL0     H10469   1.574   9.887  11.025 -0.3115  1.7245 -1.2896
  801MOL0     H10470   1.812   9.938  10.978  1.3047 -0.2832 -0.1699
  801MOL0     H10471   2.027   9.668  10.690 -1.1271 -0.5952  0.6887
  801MOL0     H10472   2.063   9.657  10.867  2.4405  1.3863  0.6781
  801MOL0     H10473   2.214   9.810  10.667 -3.4037  0.3661 -0.5643
  801MOL0     H10474   2.196   9.881  10.832 -1.2801 -0.0917  0.8748
  801MOL0     H10475   2.320   9.725  10.945  0.4958  1.3477 -0.6435
  801MOL0     H10476   2.267   9.590  10.842  1.0946 -0.6982 -0.9257
  801MOL0     H10477   2.490   9.610  10.827 -2.6950 -2.7006 -2.6092
  801MOL0     H10478   2.434   9.643  10.667  1.5642 -2.7820  0.9896
  801MOL0     H10479   2.425   9.892  10.729 -0.5732 -2.5808 -3.4280
  801MOL0     H10480   2.588   9.845  10.685  0.7213  4.2808  0.5604
  801MOL0     H10481   2.581   9.974  10.883 -2.3078  0.7020  0.1816
  801MOL0     H10482   2.495   9.855  10.978  1.1045 -0.3576  0.8391
  801MOL0     H10483   2.757   9.868  10.999  2.3575 -1.4646 -0.2424
  801MOL0     H10484   2.755   9.777  10.851 -0.1088 -0.2245  0.2175
  801MOL0     H10485   2.615   9.697  11.120  0.5920 -0.9845  0.8420
  801MOL0     H10486   2.641   9.582  10.977  0.3623 -0.2413  0.1361
  801MOL0     H10487   2.932   9.766  11.198 -1.4508 -0.4641  1.5677
  801MOL0     H10488   3.186   9.486  11.263  5.5818  0.8855 -3.2953
  801MOL0     H10489   3.138   9.646  11.322  0.3148  1.5951 -0.7819
  801MOL0     H10490   3.214   9.721  11.082 -3.4693 -1.0465  0.5545
  801MOL0     H10491   3.355   9.651  11.180  0.1279 -0.5288  0.1354
  801MOL0     H10492   3.317   9.434  11.071 -1.2380 -0.8969 -1.4119
  801MOL0     H10493   3.194   9.509  10.970  1.7996  0.8868 -2.7466
  801MOL0     H10494   3.496   9.576  10.966  0.9380  0.3400 -1.8798
  801MOL0     H10495   3.424   9.460  10.867  1.2671  1.8511 -0.4796
  801MOL0     H10496   3.439   9.889  10.793  3.4001  2.3248  0.5278
  801MOL0     H10497   3.568  10.064  10.751 -0.3763 -0.3958 -0.7204
  801MOL0     H10498   3.686  10.072  10.625  0.4982  0.7667  1.2833
  801MOL0     H10499   3.742  10.005  10.781  1.8865 -1.1835 -1.6876
  801MOL0     H10500   4.115   9.961  10.658 -2.4095  1.8172  0.6531
  801MOL0     H10501   4.311  10.066  10.525 -1.4371  1.7607  1.6030
  801MOL0     H10502   4.418   9.895  10.366 -2.1382  1.5330  2.3464
  801MOL0     H10503   4.484   9.923  10.199 -0.5358  1.3041 -0.1759
  801MOL0     H10504   4.508  10.142  10.413 -0.4020  1.5250 -1.6684
  801MOL0     H10505   4.624  10.016  10.412 -0.2990  0.7992  0.4105
  801MOL0     H10506   4.655  10.240  10.275  2.7262 -0.4322 -1.6222
  801MOL0     H10507   4.558  10.158  10.161 -2.4674  2.2994  2.4993
  801MOL0     H10508   4.753   9.994  10.123  2.1579 -0.9686  0.8363
  801MOL0     H10509   4.805  10.022  10.290  0.6936 -1.2800 -2.3281
  801MOL0     H10510   4.805  10.216  10.068 -0.2049  3.6623  1.6287
  801MOL0     H10511   4.873  10.258  10.220  2.9039  0.6407 -0.6198
  801MOL0     H10512   4.993  10.031  10.043  1.7620  1.3212 -1.1617
  801MOL0     H10513   5.032  10.044  10.216  1.4654 -1.0270 -0.9721
  801MOL0     H10514   5.089  10.282  10.165 -1.9994 -1.2395  1.8598
  801MOL0     H10515   5.058  10.238   9.985  3.2310 -1.2344 -0.6954
  801MOL0     H10516   5.292  10.205   9.983 -0.6437  0.6201 -0.2228
  801MOL0     H10517   5.224  10.050  10.045 -0.8829 -0.6968  2.8900
  801MOL0     H10518   4.076   9.980  10.170 -1.1338 -0.4984  0.3927
  801MOL0     H10519   3.881   9.965  10.302  0.7662 -0.3985  0.1482
  801MOL0     H10520   3.674   9.568  10.515 -1.4614 -1.2804  1.7921
  801MOL0     H10521   3.520   9.485  10.666 -0.6082  0.3411  1.8706
  801MOL0     H10522   1.812   9.625  10.678 -1.5280 -1.4297 -2.3807
  801MOL0     H10523   1.602   9.566  10.733 -1.5670  0.2926  0.9881
  801MOL0     H10524   1.214   9.764  10.977  3.1494 -0.8120 -2.2615
  801MOL0     H10525   0.977   9.734  11.015 -1.6856 -1.1835  1.0629
  801MOL0     H10526   0.814   9.389  10.922 -2.9183 -1.1480 -1.0274
  801MOL0     H10527   0.842   9.301  11.081 -2.4780 -1.2166 -0.3787
  801MOL0     H10528   0.640   9.438  11.157  2.1137  1.7052 -0.2665
  801MOL0     H10529   0.623   9.285  11.060  1.1621 -0.8328  1.7408
  801MOL0     H10530   0.631   9.469  10.862 -2.1570 -3.6620 -1.5064
  801MOL0     H10531   0.486   9.410  10.929  0.3671  0.3640 -0.2993
  801MOL0     H10532   0.624   9.682  10.961 -0.6145  0.6250  0.7574
  801MOL0     H10533   0.517   9.610  11.093  0.7849 -1.1233  0.4184
  801MOL0     H10534   0.226   9.726  10.829 -1.4753  0.0028  3.5105
  801MOL0     H10535   1.056   9.327  11.115 -1.0021  0.6071 -0.4333
  801MOL0     H10536   1.399   9.316  11.021  1.4020  4.6667  0.2618
  801MOL0     H10537   1.382   9.337  11.198 -3.2293 -0.2612  1.5323
  801MOL0     H10538   1.268   9.236  11.095 -1.7303  0.5062 -0.7705
  802MOL0     O10539   5.669   3.884   5.824  0.0664 -0.8948  0.3711
  802MOL0     C10540   5.572   3.934   5.889 -0.6296 -0.1592  0.3158
  802MOL0     O10541   5.481   4.022   5.828 -0.5262  0.1356  0.3796
  802MOL0     C10542   5.493   4.077   5.700  0.7227 -0.5307  1.0072
  802MOL0     C10543   5.619   4.118   5.652  0.2839 -0.1471 -0.2378
  802MOL0     C10544   5.625   4.191   5.530  0.2406 -0.1212 -0.8365
  802MOL0     C10545   5.507   4.224   5.457  0.6244 -0.1980 -0.5150
  802MOL0     O10546   5.542   4.302   5.352  0.3694  0.0010  0.6149
  802MOL0     C10547   5.438   4.373   5.291 -0.0462 -0.0315  0.2688
  802MOL0     C10548   5.493   4.466   5.183  0.4663  0.4938  0.3028
  802MOL0     C10549   5.602   4.552   5.247  0.3306 -0.6358 -0.0467
  802MOL0     C10550   5.588   4.604   5.389  0.7745 -0.3038  0.9422
  802MOL0     C10551   5.702   4.696   5.432  1.3695  0.0694  0.6345
  802MOL0     C10552   5.850   4.634   5.426 -0.0805  0.3107  0.1793
  802MOL0     C10553   5.937   4.728   5.507 -0.4563 -0.4865  0.1385
  802MOL0     C10554   6.082   4.673   5.494  0.6566  0.2727 -0.2511
  802MOL0     N10555   6.099   4.557   5.579  0.3057  0.8653  0.9414
  802MOL0     C10556   6.095   4.424   5.521 -0.6838 -0.7986 -0.2810
  802MOL0     C10557   6.149   4.346   5.611  0.1931 -0.3528 -0.3357
  802MOL0     C10558   6.168   4.201   5.581  0.0329  0.3896  0.0904
  802MOL0     C10559   6.063   4.094   5.618  0.0946 -0.1511 -0.4140
  802MOL0     C10560   5.973   4.042   5.501 -0.6549  0.3259 -0.2909
  802MOL0     C10561   6.053   3.935   5.418  0.2103 -1.3469 -0.3537
  802MOL0     O10562   6.014   3.926   5.288  0.1724 -0.2787 -0.5186
  802MOL0     C10563   6.101   3.850   5.212 -0.6405  1.4456 -0.1578
  802MOL0     C10564   6.238   3.887   5.192 -0.6460  0.4053 -0.6999
  802MOL0     C10565   6.323   3.813   5.107 -0.0851 -0.2199  0.5828
  802MOL0     C10566   6.457   3.883   5.083 -0.5431  0.2617  0.3983
  802MOL0     C10567   6.278   3.695   5.041 -1.1317  0.4543  0.1755
  802MOL0     C10568   6.365   3.624   4.948 -0.0768  0.2594 -0.6566
  802MOL0     O10569   6.312   3.610   4.825 -0.7218 -0.4348 -0.3768
  802MOL0     C10570   6.402   3.596   4.717 -0.0654  0.6736 -0.3919
  802MOL0     C10571   6.351   3.518   4.623  1.0710  0.0681  0.4568
  802MOL0     C10572   6.420   3.484   4.508 -0.6425 -0.4013  0.2361
  802MOL0     C10573   6.544   3.542   4.488 -0.2154 -0.1320  0.4975
  802MOL0     O10574   6.600   3.502   4.365 -0.7502 -0.5717 -0.8703
  802MOL0     C10575   6.654   3.613   4.292  0.5461  0.1816  0.6695
  802MOL0     C10576   6.686   3.565   4.159  0.2709 -1.3680 -0.6710
  802MOL0     C10577   6.560   3.538   4.079  0.3468 -0.5377  0.3048
  802MOL0     C10578   6.571   3.465   3.950 -0.7106  0.4181  0.4119
  802MOL0     C10579   6.427   3.476   3.881 -0.1922 -0.6815 -0.2035
  802MOL0     C10580   6.421   3.375   3.775  0.2652 -0.1794 -0.8477
  802MOL0     C10581   6.287   3.403   3.701  0.0160 -0.1337 -0.7095
  802MOL0     C10582   6.312   3.435   3.551  0.6574  1.1361 -1.2303
  802MOL0    Cl10583   6.382   3.589   3.514 -0.1837  0.7006  0.3492
  802MOL0     C10584   6.604   3.622   4.594  0.3911  0.5367 -0.9843
  802MOL0     C10585   6.534   3.651   4.711 -0.6504 -1.0423 -0.6205
  802MOL0     O10586   6.471   3.583   4.985 -0.3202  0.6339  0.5429
  802MOL0     C10587   6.142   3.662   5.052  0.4238  0.5104 -0.2899
  802MOL0     C10588   6.063   3.739   5.137 -0.6636  1.0133 -0.3925
  802MOL0     N10589   6.144   4.419   5.733  0.1053  0.2079  0.5063
  802MOL0     N10590   6.139   4.544   5.708  0.6598 -0.2416  0.1534
  802MOL0     C10591   5.376   4.187   5.506 -0.0855 -0.1489  0.5829
  802MOL0     C10592   5.372   4.122   5.631 -0.7178  0.3766  0.3991
  802MOL0     C10593   5.549   3.887   6.031  0.5890 -1.3249  1.0946
  802MOL0     C10594   5.479   3.983   6.109 -0.8410  0.8895  0.0858
  802MOL0     C10595   5.467   3.960   6.249  1.6238 -0.5233 -0.8382
  802MOL0     C10596   5.507   3.839   6.303 -1.3509  0.1153 -0.8587
  802MOL0     O10597   5.495   3.815   6.438 -0.7558  0.3215 -0.8141
  802MOL0     C10598   5.444   3.909   6.535  0.1371  0.5615 -0.4181
  802MOL0     C10599   5.448   3.851   6.676 -0.3242  0.5706  0.0785
  802MOL0     C10600   5.387   3.713   6.696  0.3750  0.3305 -0.0775
  802MOL0     C10601   5.390   3.677   6.845 -0.7384  0.0361  0.3052
  802MOL0     C10602   5.283   3.734   6.923 -0.1753  0.6996  0.5826
  802MOL0     C10603   5.195   3.764   6.982  0.4217  0.2704 -0.7611
  802MOL0     C10604   5.579   3.750   6.226 -0.7318 -0.5442 -0.2366
  802MOL0     C10605   5.586   3.768   6.087 -0.4689  0.1072 -0.5287
  802MOL0     C10606   5.623   3.646   6.011  0.1982 -0.7899 -0.2172
  802MOL0     H10607   5.708   4.087   5.706 -1.0441  0.4415  2.4338
  802MOL0     H10608   5.723   4.204   5.484  0.0320 -1.7167 -1.8183
  802MOL0     H10609   5.399   4.444   5.365  2.5760  1.9087 -0.1024
  802MOL0     H10610   5.371   4.295   5.251  0.5211  0.1788 -1.1322
  802MOL0     H10611   5.528   4.424   5.089 -2.2685  0.9310 -1.0285
  802MOL0     H10612   5.410   4.534   5.159 -0.8253 -1.2293 -0.3485
  802MOL0     H10613   5.692   4.490   5.252  0.2189 -1.0336 -2.0382
  802MOL0     H10614   5.621   4.636   5.179  0.3581 -0.4857  0.1469
  802MOL0     H10615   5.495   4.660   5.402  1.1394  0.8611 -0.9802
  802MOL0     H10616   5.594   4.518   5.455  0.7553  0.1290  1.5154
  802MOL0     H10617   5.675   4.740   5.528 -1.4921  2.4496 -1.1108
  802MOL0     H10618   5.691   4.774   5.356  1.1032  1.0650  1.6776
  802MOL0     H10619   5.844   4.535   5.472  0.3022  0.0296 -0.3641
  802MOL0     H10620   5.885   4.611   5.325 -1.6017 -3.2776  0.3141
  802MOL0     H10621   5.909   4.741   5.612 -0.0957  6.1274 -0.1211
  802MOL0     H10622   5.940   4.828   5.462  0.6249 -0.8475 -0.6477
  802MOL0     H10623   6.103   4.654   5.388 -1.4295  1.2190 -0.8783
  802MOL0     H10624   6.141   4.757   5.532  0.2750  0.3243  0.2371
  802MOL0     H10625   6.079   4.393   5.418  0.0775 -0.2512 -0.5747
  802MOL0     H10626   6.255   4.166   5.638 -1.5948 -1.7491  1.4513
  802MOL0     H10627   6.195   4.196   5.475 -3.3120 -0.6020 -0.8261
  802MOL0     H10628   6.110   4.011   5.671  1.8514  2.1374  1.9168
  802MOL0     H10629   6.003   4.150   5.692  2.5863 -0.7209  2.2048
  802MOL0     H10630   5.873   4.006   5.528 -2.3522  2.8119 -2.5885
  802MOL0     H10631   5.943   4.125   5.436 -1.4859 -0.0240 -0.3676
  802MOL0     H10632   6.158   3.964   5.422  0.1016 -1.0237  3.0406
  802MOL0     H10633   6.041   3.846   5.481 -4.0700  0.8290  2.4354
  802MOL0     H10634   6.284   3.975   5.234  0.8521 -0.4113 -0.5598
  802MOL0     H10635   6.521   3.885   5.171 -1.0656 -2.1028  0.8860
  802MOL0     H10636   6.439   3.980   5.035  0.4852 -0.5970 -1.8653
  802MOL0     H10637   6.526   3.835   5.013  1.8070  3.2946  0.4260
  802MOL0     H10638   6.248   3.485   4.633  0.7227  0.8642 -0.3740
  802MOL0     H10639   6.379   3.414   4.436 -3.3318  1.0912  0.1923
  802MOL0     H10640   6.571   3.684   4.286 -3.4396 -4.1270 -2.4489
  802MOL0     H10641   6.739   3.665   4.338  0.8422 -0.1073  0.4506
  802MOL0     H10642   6.749   3.639   4.109 -0.9248  3.0339  3.5472
  802MOL0     H10643   6.731   3.467   4.176  1.2673 -0.7243  0.5835
  802MOL0     H10644   6.511   3.634   4.060  0.2535 -1.0498 -2.6083
  802MOL0     H10645   6.486   3.497   4.147  0.1481  0.7196  0.8823
  802MOL0     H10646   6.600   3.360   3.964  0.0049  0.8629  2.6395
  802MOL0     H10647   6.635   3.519   3.879 -1.7399 -0.5844 -1.3684
  802MOL0     H10648   6.350   3.470   3.958  0.1145  1.3523  0.3215
  802MOL0     H10649   6.423   3.579   3.845 -0.2998 -1.0900 -1.3910
  802MOL0     H10650   6.422   3.271   3.810 -1.4858  0.2685  0.7588
  802MOL0     H10651   6.510   3.388   3.713  1.0649  0.8884  0.4505
  802MOL0     H10652   6.227   3.484   3.744 -1.6373 -1.4898 -0.3425
  802MOL0     H10653   6.214   3.322   3.706  0.0325 -0.1756 -1.1236
  802MOL0     H10654   6.211   3.441   3.508  0.0725  1.0694  0.0982
  802MOL0     H10655   6.377   3.354   3.518 -0.9587 -2.4355  3.3583
  802MOL0     H10656   6.702   3.667   4.578  0.5236  0.7578  0.3846
  802MOL0     H10657   6.582   3.718   4.782 -0.1793 -2.1006  0.0879
  802MOL0     H10658   6.087   3.587   4.997 -0.6232 -0.7950  2.3560
  802MOL0     H10659   5.963   3.704   5.160 -0.8644  2.0649  0.4392
  802MOL0     H10660   5.284   4.227   5.464 -1.6759 -1.5199  2.5658
  802MOL0     H10661   5.281   4.088   5.680  0.2281 -0.9093  1.3435
  802MOL0     H10662   5.437   4.074   6.067 -0.6138  1.3077  0.7425
  802MOL0     H10663   5.423   4.032   6.317  0.3119 -1.8705 -0.1984
  802MOL0     H10664   5.497   4.005   6.538 -0.0851  0.6850  2.6929
  802MOL0     H10665   5.337   3.918   6.514  0.0487 -1.0126 -0.7929
  802MOL0     H10666   5.388   3.918   6.738 -0.0092  1.3454 -0.4274
  802MOL0     H10667   5.550   3.854   6.716  1.3691 -2.8103 -3.2600
  802MOL0     H10668   5.284   3.703   6.660  0.2137 -3.3286  0.9467
  802MOL0     H10669   5.447   3.644   6.636  1.4786  3.6323 -3.1030
  802MOL0     H10670   5.486   3.710   6.887  0.6281 -3.1024 -0.0916
  802MOL0     H10671   5.380   3.569   6.855  0.3097 -0.0487  0.5794
  802MOL0     H10672   5.115   3.807   7.038 -0.3648 -0.9205 -0.9475
  802MOL0     H10673   5.640   3.676   6.278  0.9893  1.1116  0.2039
  802MOL0     H10674   5.729   3.626   6.026 -0.1171 -4.0377 -1.6342
  802MOL0     H10675   5.551   3.579   6.058 -2.8884  3.2196  1.4455
  802MOL0     H10676   5.619   3.649   5.902 -1.4177  5.7645 -0.4427
  803MOL0     O10677  11.321   8.403   4.756 -0.0257  0.0815  0.0485
  803MOL0     C10678  11.225   8.419   4.835 -0.0701  0.2680  0.0830
  803MOL0     O10679  11.229   8.372   4.962  0.0079  0.3503 -0.5876
  803MOL0     C10680  11.333   8.283   5.004  1.2073 -0.7817 -0.2271
  803MOL0     C10681  11.350   8.152   4.939  0.6444 -0.1560 -0.4724
  803MOL0     C10682  11.462   8.075   4.967 -0.5582 -0.2253  0.1091
  803MOL0     C10683  11.572   8.119   5.045 -0.1515  0.6057 -0.2215
  803MOL0     O10684  11.687   8.047   5.049  0.2325  0.2916  0.0890
  803MOL0     C10685  11.785   8.069   5.148  0.4032  0.4745  0.1465
  803MOL0     C10686  11.758   8.010   5.283 -0.4113  0.8586  0.4130
  803MOL0     C10687  11.775   7.858   5.273 -0.0188  0.0151 -0.4849
  803MOL0     C10688  11.766   7.790   5.414  0.5686 -0.2906  0.0059
  803MOL0     C10689  11.761   7.639   5.386  0.2284  0.2346  0.8303
  803MOL0     C10690  11.740   7.558   5.511 -0.3168 -0.9161 -0.5077
  803MOL0     C10691  11.822   7.421   5.504 -0.2473  0.6069 -0.3353
  803MOL0     C10692  11.962   7.425   5.572  0.4123  0.3051  0.4315
  803MOL0     N10693  11.955   7.477   5.710  0.0477 -0.6232  0.5400
  803MOL0     C10694  11.985   7.609   5.735 -0.3247  0.2166 -1.0936
  803MOL0     C10695  11.951   7.619   5.868  0.9586 -1.0186 -0.4534
  803MOL0     C10696  11.971   7.740   5.954  0.1132 -0.7784  0.3795
  803MOL0     C10697  11.843   7.825   5.931 -0.0012 -1.4389  0.7420
  803MOL0     C10698  11.825   7.930   6.035  0.6315  0.6751  0.6455
  803MOL0     C10699  11.922   8.045   6.023  1.1487 -0.5400  0.4835
  803MOL0     O10700  11.902   8.146   6.130  0.2421  0.1209 -0.2778
  803MOL0     C10701  11.944   8.281   6.118  0.5549  0.4361 -0.1205
  803MOL0     C10702  11.929   8.346   6.240  0.2497  0.0546  0.2343
  803MOL0     C10703  11.982   8.477   6.263  0.4798  0.0137  0.7621
  803MOL0     C10704  11.968   8.540   6.391  0.0794 -0.1770 -0.3565
  803MOL0     C10705  12.030   8.550   6.153 -0.7293  0.2419 -0.2530
  803MOL0     C10706  12.065   8.693   6.157  0.7539 -0.4776 -0.2564
  803MOL0     O10707  11.966   8.775   6.196  0.2193 -0.0381  0.1204
  803MOL0     C10708  11.955   8.905   6.157 -0.6996 -0.7485 -0.6568
  803MOL0     C10709  12.012   8.945   6.038  0.3038 -0.8331  0.2872
  803MOL0     C10710  11.982   9.064   5.978  0.8349 -0.5027 -0.4418
  803MOL0     C10711  11.894   9.154   6.043  0.2538 -0.2162 -0.4560
  803MOL0     O10712  11.839   9.263   5.970  0.4207  0.6961 -0.6920
  803MOL0     C10713  11.744   9.362   6.031 -0.6199  0.0416 -0.2518
  803MOL0     C10714  11.750   9.483   5.943  0.3638  0.0339  0.5084
  803MOL0     C10715  11.857   9.579   5.990  0.4298  0.0747 -0.0439
  803MOL0     C10716  11.880   9.712   5.908  0.1537 -0.4911 -0.1545
  803MOL0     C10717  11.935   9.685   5.766 -0.7878  0.7309  0.5617
  803MOL0     C10718  11.950   9.811   5.679 -0.2257  0.2166 -0.1592
  803MOL0     C10719  12.066   9.899   5.727  0.2511 -0.5605 -0.0235
  803MOL0     C10720  12.018  10.041   5.735  0.2843 -0.3287 -0.2371
  803MOL0    Cl10721  11.907  10.067   5.868 -0.3524 -0.4849 -0.0369
  803MOL0     C10722  11.837   9.107   6.164  0.3284 -0.5780  0.0800
  803MOL0     C10723  11.867   8.983   6.228  0.1328 -0.5808 -0.3320
  803MOL0     O10724  12.180   8.724   6.120  0.0289 -0.2240 -0.7589
  803MOL0     C10725  12.033   8.484   6.024 -0.5619  0.1669 -0.4966
  803MOL0     C10726  11.988   8.355   6.011 -0.0778  0.5440  0.8205
  803MOL0     N10727  11.905   7.497   5.911 -0.2459 -0.3499  0.6021
  803MOL0     N10728  11.913   7.417   5.815  0.1564  0.3679 -0.2436
  803MOL0     C10729  11.546   8.237   5.106  0.5732 -1.0113  0.7253
  803MOL0     C10730  11.435   8.323   5.085 -0.4392  0.2658 -0.6515
  803MOL0     C10731  11.106   8.503   4.803  0.5520 -1.0623  0.5134
  803MOL0     C10732  11.049   8.588   4.892  0.2435 -1.1745  0.0030
  803MOL0     C10733  10.935   8.664   4.858 -0.9105 -1.1482  0.0740
  803MOL0     C10734  10.881   8.666   4.728 -0.4575  0.5881 -0.3446
  803MOL0     O10735  10.775   8.739   4.685  0.1304  0.3593 -0.4004
  803MOL0     C10736  10.789   8.863   4.608 -0.1053 -0.2269 -0.4356
  803MOL0     C10737  10.695   8.976   4.672 -0.3189  0.4674  0.5024
  803MOL0     C10738  10.716   8.971   4.827 -0.1904 -0.8097  0.2314
  803MOL0     C10739  10.663   9.090   4.907  0.0263 -0.4071  0.0251
  803MOL0     C10740  10.514   9.092   4.934  0.0044 -0.3030 -0.1255
  803MOL0     C10741  10.404   9.113   4.982 -0.0620 -0.6844 -0.2155
  803MOL0     C10742  10.952   8.596   4.634 -0.4348 -0.1517 -0.0422
  803MOL0     C10743  11.058   8.509   4.670 -0.1188  0.5445  0.8909
  803MOL0     C10744  11.106   8.405   4.572 -0.0443 -0.6763 -0.8289
  803MOL0     H10745  11.265   8.119   4.881 -0.9170  0.7627  1.1971
  803MOL0     H10746  11.470   7.987   4.904 -1.0482  0.6969 -1.2807
  803MOL0     H10747  11.803   8.177   5.148  3.3096  0.0853  0.7127
  803MOL0     H10748  11.878   8.029   5.108  0.9609 -0.7255  2.4421
  803MOL0     H10749  11.829   8.052   5.355 -0.6570  1.1550  0.4865
  803MOL0     H10750  11.656   8.034   5.317 -0.6835 -1.8717  1.8098
  803MOL0     H10751  11.694   7.812   5.216 -0.4230  0.4208 -0.2474
  803MOL0     H10752  11.869   7.841   5.219  1.0580  5.0212 -0.6602
  803MOL0     H10753  11.851   7.819   5.477 -0.0721  2.4965 -0.2918
  803MOL0     H10754  11.678   7.830   5.463  0.3941  0.8888 -1.2160
  803MOL0     H10755  11.856   7.614   5.337 -0.4176 -2.6325  0.8584
  803MOL0     H10756  11.680   7.611   5.318  0.1547  0.8924  0.6434
  803MOL0     H10757  11.757   7.614   5.604 -1.1548 -1.1915 -0.1771
  803MOL0     H10758  11.634   7.531   5.523 -0.5188  0.1144  0.1543
  803MOL0     H10759  11.834   7.402   5.397  1.8081  1.0087 -0.1957
  803MOL0     H10760  11.764   7.351   5.566  0.6155  3.7569  4.5093
  803MOL0     H10761  12.019   7.332   5.579  2.9212  1.5455 -1.7339
  803MOL0     H10762  12.019   7.499   5.516 -3.1482  4.8434  2.1376
  803MOL0     H10763  12.033   7.689   5.680 -0.5467  2.4992  1.8297
  803MOL0     H10764  12.058   7.795   5.917 -0.0590  0.7494  2.0779
  803MOL0     H10765  11.997   7.717   6.058  0.0124  0.4284  0.6912
  803MOL0     H10766  11.865   7.880   5.839 -0.3409 -2.4044  0.0547
  803MOL0     H10767  11.753   7.762   5.920 -1.1228  0.1111  0.7965
  803MOL0     H10768  11.724   7.972   6.030 -0.4253 -1.7319  0.7835
  803MOL0     H10769  11.831   7.882   6.132 -0.7300 -0.5528  0.1672
  803MOL0     H10770  12.017   7.995   6.043  2.7947  2.1957  0.0059
  803MOL0     H10771  11.917   8.090   5.923 -2.7164 -2.8457 -0.5784
  803MOL0     H10772  11.891   8.281   6.318 -0.0619  1.1568  1.0215
  803MOL0     H10773  11.886   8.611   6.379 -0.0269 -0.4033 -1.0238
  803MOL0     H10774  12.059   8.597   6.413  1.9928 -2.7542 -1.1182
  803MOL0     H10775  11.937   8.488   6.481  0.9984 -0.8916 -0.4372
  803MOL0     H10776  12.091   8.891   5.988  0.0619 -0.4592 -0.5224
  803MOL0     H10777  12.029   9.115   5.894 -0.0933 -0.0533 -0.7119
  803MOL0     H10778  11.643   9.320   6.025 -1.0990  0.8380  1.5944
  803MOL0     H10779  11.769   9.384   6.135  1.6545  0.0284 -0.7613
  803MOL0     H10780  11.761   9.447   5.841 -1.3903 -2.7270  1.1716
  803MOL0     H10781  11.655   9.537   5.945  1.5233  2.1813  0.7429
  803MOL0     H10782  11.950   9.523   5.976  0.4310 -0.0859  0.5889
  803MOL0     H10783  11.838   9.597   6.096 -0.6604 -0.8377 -0.0688
  803MOL0     H10784  11.933   9.776   5.979 -1.2864 -1.9899  2.4316
  803MOL0     H10785  11.794   9.777   5.890 -0.3170 -1.1508 -0.3368
  803MOL0     H10786  12.037   9.647   5.779 -0.8145  0.9368  1.4642
  803MOL0     H10787  11.875   9.609   5.716  0.1210 -1.2441  2.2873
  803MOL0     H10788  11.853   9.860   5.693 -1.7348 -3.2978  3.6252
  803MOL0     H10789  11.977   9.784   5.576  1.1687 -1.6114  0.6227
  803MOL0     H10790  12.151   9.902   5.658 -1.7591  0.4364 -2.6357
  803MOL0     H10791  12.100   9.867   5.826 -1.2218 -3.7382 -0.4314
  803MOL0     H10792  11.985  10.079   5.638 -1.0408  0.0699  0.3378
  803MOL0     H10793  12.104  10.105   5.759 -1.2372  1.4020  0.8633
  803MOL0     H10794  11.761   9.176   6.201  1.7066  1.1296 -0.1135
  803MOL0     H10795  11.808   8.957   6.315  2.2760  1.7936  1.9820
  803MOL0     H10796  12.067   8.527   5.930 -2.7021 -0.7595 -1.7646
  803MOL0     H10797  12.009   8.306   5.917 -0.1660  0.2792  0.9394
  803MOL0     H10798  11.623   8.281   5.168 -0.9623 -1.4756  3.1104
  803MOL0     H10799  11.434   8.423   5.126 -0.0361  0.3587 -0.8584
  803MOL0     H10800  11.088   8.585   4.993 -0.2012 -4.1492  0.1805
  803MOL0     H10801  10.891   8.723   4.939 -2.2075  0.3966 -1.6662
  803MOL0     H10802  10.893   8.896   4.611  0.1601 -1.1333  0.6637
  803MOL0     H10803  10.758   8.840   4.506  0.5833 -0.0247 -0.6958
  803MOL0     H10804  10.593   8.948   4.647  0.9157 -2.3179 -2.1634
  803MOL0     H10805  10.707   9.078   4.634  2.5701 -0.4593 -1.4560
  803MOL0     H10806  10.671   8.877   4.859 -0.1019 -0.6115  0.9604
  803MOL0     H10807  10.824   8.970   4.839  0.2775 -1.9317 -3.0969
  803MOL0     H10808  10.694   9.177   4.848  0.3629 -1.9351 -2.1534
  803MOL0     H10809  10.721   9.092   5.000  1.0283  0.9712 -0.5948
  803MOL0     H10810  10.314   9.136   5.037 -0.0754 -0.5110 -0.3092
  803MOL0     H10811  10.906   8.592   4.536  0.8928  2.4820 -0.8575
  803MOL0     H10812  11.122   8.310   4.625 -1.4879 -0.1838  0.5518
  803MOL0     H10813  11.036   8.391   4.489  0.5746  0.2672 -1.5347
  803MOL0     H10814  11.204   8.433   4.533  0.3328  0.9926  1.1520
  804MOL0     O10815   2.660   8.071   3.422  0.2574 -0.0623 -0.3088
  804MOL0     C10816   2.705   8.165   3.352 -0.5777  0.3572  0.8454
  804MOL0     O10817   2.806   8.157   3.257  0.5433  0.4972 -0.7049
  804MOL0     C10818   2.902   8.063   3.278 -0.2728  0.0860  0.4501
  804MOL0     C10819   3.038   8.099   3.277  0.0465  1.3539 -0.4300
  804MOL0     C10820   3.138   7.998   3.278  0.1739 -0.2453 -0.6174
  804MOL0     C10821   3.102   7.859   3.285 -0.6935  0.0171 -0.2071
  804MOL0     O10822   3.190   7.752   3.298  0.0437 -0.0809 -0.3615
  804MOL0     C10823   3.319   7.778   3.356  0.2282  0.4973 -0.3457
  804MOL0     C10824   3.392   7.648   3.379 -0.1415  0.2478 -0.3009
  804MOL0     C10825   3.539   7.674   3.416 -0.0532  0.2469  0.1784
  804MOL0     C10826   3.626   7.551   3.450 -0.0867  0.1241 -0.2336
  804MOL0     C10827   3.778   7.583   3.430 -0.7765 -0.4494 -0.2251
  804MOL0     C10828   3.858   7.449   3.442  0.6803 -0.3705  0.3093
  804MOL0     C10829   3.854   7.390   3.578 -0.8828 -0.4364  0.0298
  804MOL0     C10830   3.960   7.274   3.591  0.7331 -0.3573  0.1566
  804MOL0     N10831   3.912   7.165   3.502  1.0729 -0.1815 -0.4312
  804MOL0     C10832   3.804   7.090   3.524  0.2638 -0.0364 -0.3811
  804MOL0     C10833   3.799   7.003   3.417  0.3031 -1.4475 -0.2724
  804MOL0     C10834   3.712   6.886   3.416 -0.3280  0.1986 -0.1662
  804MOL0     C10835   3.591   6.895   3.318  0.7752  0.2434  0.1021
  804MOL0     C10836   3.522   6.762   3.304 -0.3842  0.6371 -0.2271
  804MOL0     C10837   3.385   6.760   3.236 -0.7748  0.6169 -0.5240
  804MOL0     O10838   3.289   6.836   3.317  0.1367  0.2529  0.4158
  804MOL0     C10839   3.158   6.844   3.269 -0.0287 -0.0412 -0.2040
  804MOL0     C10840   3.094   6.963   3.252  0.5648 -0.0826  0.2169
  804MOL0     C10841   2.971   6.965   3.181 -0.0245 -0.7642  0.9671
  804MOL0     C10842   2.895   7.104   3.181 -0.4357 -0.7512 -0.0903
  804MOL0     C10843   2.911   6.842   3.126 -0.7880 -0.3430 -0.4565
  804MOL0     C10844   2.789   6.833   3.045  0.1523 -0.1149  0.6440
  804MOL0     O10845   2.730   6.944   3.005  0.6120  0.2956  0.2811
  804MOL0     C10846   2.597   6.953   2.969  0.8873  0.2025 -0.1809
  804MOL0     C10847   2.555   7.064   2.901 -0.0452  0.0868 -0.0233
  804MOL0     C10848   2.427   7.074   2.861  1.0724 -0.4555 -0.0092
  804MOL0     C10849   2.325   6.989   2.898 -0.5606  0.5448 -0.6648
  804MOL0     O10850   2.203   7.009   2.845 -0.1089 -0.5662  0.4067
  804MOL0     C10851   2.097   6.919   2.882  0.5707 -0.2405 -0.2222
  804MOL0     C10852   1.959   6.976   2.857  0.6273 -0.2390 -0.3197
  804MOL0     C10853   1.831   6.889   2.886  0.1050 -0.8609 -0.0934
  804MOL0     C10854   1.788   6.833   2.751 -0.4888  0.0553 -0.1986
  804MOL0     C10855   1.643   6.781   2.755  1.0117 -0.6121  0.1228
  804MOL0     C10856   1.524   6.888   2.759  0.7124 -0.4341  0.6095
  804MOL0     C10857   1.535   6.985   2.633  0.1065  0.4699  0.3427
  804MOL0     C10858   1.422   7.090   2.644 -0.7959 -1.1274  1.0650
  804MOL0    Cl10859   1.481   7.191   2.781  0.0817 -0.1416  0.2264
  804MOL0     C10860   2.364   6.880   2.982  0.7672 -0.4951  0.4749
  804MOL0     C10861   2.498   6.861   3.016  0.2338 -0.2945 -0.3056
  804MOL0     O10862   2.757   6.722   3.008 -0.4617  0.0303 -0.3481
  804MOL0     C10863   2.968   6.718   3.174  0.3636  0.2947  0.5798
  804MOL0     C10864   3.095   6.724   3.242  0.2549  0.3377  0.0288
  804MOL0     N10865   3.888   7.049   3.324 -0.0450  0.1462  0.4313
  804MOL0     N10866   3.959   7.145   3.374 -0.0765  0.1107 -0.5503
  804MOL0     C10867   2.966   7.828   3.290  0.0481 -0.2332 -0.1652
  804MOL0     C10868   2.869   7.923   3.268 -0.5053 -0.7872  0.4282
  804MOL0     C10869   2.641   8.305   3.347  0.2891  0.4270 -0.4823
  804MOL0     C10870   2.694   8.400   3.260 -1.5442 -0.8549  0.2082
  804MOL0     C10871   2.649   8.536   3.249  0.0813  0.0397  0.5414
  804MOL0     C10872   2.538   8.572   3.330 -0.2369 -0.2039  0.1518
  804MOL0     O10873   2.488   8.694   3.343 -0.7623  0.5124  0.2307
  804MOL0     C10874   2.562   8.812   3.303 -0.5464 -0.3081  0.6103
  804MOL0     C10875   2.499   8.930   3.370 -0.3957 -0.0546 -0.6843
  804MOL0     C10876   2.497   8.923   3.522 -0.6044  0.3211 -0.4289
  804MOL0     C10877   2.432   9.058   3.570 -0.2408 -0.4041  0.3890
  804MOL0     C10878   2.407   9.050   3.712  0.3873 -0.1974 -0.1013
  804MOL0     C10879   2.383   9.055   3.830  0.0364  0.8302 -0.4888
  804MOL0     C10880   2.484   8.480   3.406 -0.3501  1.0877  0.2452
  804MOL0     C10881   2.524   8.346   3.418  0.2263  0.1660 -0.7535
  804MOL0     C10882   2.449   8.257   3.524  0.3085 -0.8712 -0.0510
  804MOL0     H10883   3.067   8.202   3.258 -2.0333  2.3195  1.2138
  804MOL0     H10884   3.240   8.035   3.271 -0.3395  1.6255  0.8535
  804MOL0     H10885   3.315   7.839   3.448 -4.2060  0.9446 -0.6002
  804MOL0     H10886   3.383   7.833   3.286 -0.4234 -0.9217 -2.1077
  804MOL0     H10887   3.346   7.589   3.458 -0.0680 -0.1240 -0.5318
  804MOL0     H10888   3.394   7.588   3.288  2.6333 -0.7066  0.2656
  804MOL0     H10889   3.583   7.725   3.329 -1.2419  1.8536  0.4720
  804MOL0     H10890   3.538   7.752   3.493  0.1984  0.8176 -0.3844
  804MOL0     H10891   3.612   7.551   3.558  0.7722  0.9418 -0.1089
  804MOL0     H10892   3.593   7.453   3.415  1.0879  0.2760 -1.8647
  804MOL0     H10893   3.819   7.656   3.500  0.7389 -2.3951  1.0093
  804MOL0     H10894   3.793   7.627   3.331 -0.8101  0.2684  0.0811
  804MOL0     H10895   3.811   7.381   3.369 -0.2584 -0.5789  1.0812
  804MOL0     H10896   3.961   7.467   3.410  1.5066  0.9094  3.3923
  804MOL0     H10897   3.756   7.345   3.595  0.4096 -2.6993  2.0941
  804MOL0     H10898   3.871   7.470   3.651  2.3968  0.5573 -1.6282
  804MOL0     H10899   4.061   7.309   3.566  0.8471 -0.5314  0.3709
  804MOL0     H10900   3.964   7.238   3.694 -0.6252  0.3817  0.4877
  804MOL0     H10901   3.754   7.084   3.620  0.9473  0.4309  0.0143
  804MOL0     H10902   3.684   6.860   3.518 -1.7477  1.0528 -0.3212
  804MOL0     H10903   3.776   6.804   3.382  0.9614  1.1954 -0.2377
  804MOL0     H10904   3.520   6.974   3.347  1.0482  2.6472 -4.7139
  804MOL0     H10905   3.628   6.933   3.223 -1.0063  5.2274  1.0906
  804MOL0     H10906   3.593   6.713   3.237 -3.6228 -2.5272 -1.6909
  804MOL0     H10907   3.511   6.712   3.401 -3.0782  3.7138  1.2269
  804MOL0     H10908   3.391   6.801   3.135  0.0489 -0.3280 -0.8742
  804MOL0     H10909   3.357   6.654   3.231  0.9510 -0.1550  2.9417
  804MOL0     H10910   3.137   7.054   3.291  1.0462 -0.2256  0.0353
  804MOL0     H10911   2.787   7.101   3.200 -0.6336  2.0801 -0.2954
  804MOL0     H10912   2.914   7.146   3.081 -1.1651  1.8303  0.7952
  804MOL0     H10913   2.942   7.172   3.252  0.0917 -1.9799  0.7611
  804MOL0     H10914   2.630   7.131   2.859 -0.4991 -0.1358 -1.2195
  804MOL0     H10915   2.407   7.159   2.797  0.6863  1.2914  2.2892
  804MOL0     H10916   2.106   6.815   2.849  0.2000 -1.6902  3.7894
  804MOL0     H10917   2.103   6.917   2.991  0.8313 -1.3605 -0.2486
  804MOL0     H10918   1.950   7.065   2.920  2.2744  1.0758 -1.8474
  804MOL0     H10919   1.963   7.018   2.756 -0.7356 -2.2769 -1.2785
  804MOL0     H10920   1.753   6.958   2.919  2.5274  0.8106  2.7260
  804MOL0     H10921   1.847   6.806   2.956 -1.2041 -3.0836 -2.2622
  804MOL0     H10922   1.865   6.756   2.739  1.8888  2.2567  0.2246
  804MOL0     H10923   1.802   6.902   2.667 -0.0334  1.9995  1.4102
  804MOL0     H10924   1.630   6.722   2.664  0.2104  1.7517 -1.3772
  804MOL0     H10925   1.629   6.720   2.845  2.1984  1.3095  1.7066
  804MOL0     H10926   1.518   6.940   2.855  1.3238  0.9202 -0.0626
  804MOL0     H10927   1.434   6.827   2.748  0.3148  0.3629 -0.6717
  804MOL0     H10928   1.516   6.935   2.537 -1.5472  0.5043  0.6190
  804MOL0     H10929   1.634   7.030   2.625  1.3661 -1.9309  1.4429
  804MOL0     H10930   1.324   7.054   2.677 -2.2342  2.0802  0.7180
  804MOL0     H10931   1.410   7.147   2.552 -0.8051 -3.4705 -0.4575
  804MOL0     H10932   2.288   6.807   3.011 -1.4043  0.7363 -1.7305
  804MOL0     H10933   2.523   6.781   3.086 -2.9220  1.2151  2.9183
  804MOL0     H10934   2.917   6.625   3.152  0.6661  0.1923  0.3047
  804MOL0     H10935   3.157   6.636   3.257  1.2854  1.0401 -0.0852
  804MOL0     H10936   2.927   7.730   3.316  0.3455  0.2414  2.3325
  804MOL0     H10937   2.767   7.887   3.258 -0.2823 -2.1276  2.4236
  804MOL0     H10938   2.784   8.385   3.201 -0.7835 -0.2833  1.1906
  804MOL0     H10939   2.698   8.613   3.191  1.5300 -0.5492  0.9392
  804MOL0     H10940   2.669   8.816   3.326 -0.3305 -0.1401 -0.3819
  804MOL0     H10941   2.558   8.822   3.194  0.8332 -1.3670  0.4212
  804MOL0     H10942   2.396   8.940   3.334  0.4106  1.1525 -2.9048
  804MOL0     H10943   2.539   9.029   3.345  4.0026 -1.0946  1.3236
  804MOL0     H10944   2.443   8.830   3.545 -0.6916  0.3661 -0.4506
  804MOL0     H10945   2.597   8.910   3.565 -1.1987  1.7394  1.5377
  804MOL0     H10946   2.333   9.054   3.523  0.7426 -3.0843 -1.6950
  804MOL0     H10947   2.495   9.145   3.550 -1.2116  0.0283 -0.9484
  804MOL0     H10948   2.366   9.071   3.934 -1.2655 -1.8928 -0.2058
  804MOL0     H10949   2.398   8.511   3.465 -1.9348 -2.3629 -0.0263
  804MOL0     H10950   2.364   8.207   3.478 -0.4518 -2.3901  2.7694
  804MOL0     H10951   2.524   8.186   3.559  1.4867 -0.6875 -2.0631
  804MOL0     H10952   2.408   8.312   3.609 -0.6825 -2.5759  0.6328
  805MOL0     O10953   2.773   3.438   8.540 -0.7078  0.9040 -0.0476
  805MOL0     C10954   2.862   3.358   8.517 -0.0652 -0.1060  1.1174
  805MOL0     O10955   2.981   3.396   8.472  0.2932  0.0075 -0.5394
  805MOL0     C10956   3.045   3.519   8.513 -0.0917  0.4714 -0.1070
  805MOL0     C10957   3.153   3.560   8.436  0.6081  1.3630  0.1367
  805MOL0     C10958   3.231   3.666   8.474  0.0437 -0.0098  0.5922
  805MOL0     C10959   3.195   3.751   8.577  0.4720 -0.1872  0.3939
  805MOL0     O10960   3.267   3.867   8.592 -0.2862  0.0827 -0.4193
  805MOL0     C10961   3.273   3.931   8.721  0.6524  0.5331 -0.3481
  805MOL0     C10962   3.244   4.078   8.701  0.1613 -0.3995  0.4191
  805MOL0     C10963   3.201   4.152   8.833 -0.4627 -1.2772 -0.2613
  805MOL0     C10964   3.175   4.296   8.804 -0.8145 -0.2730 -0.3504
  805MOL0     C10965   3.156   4.380   8.928  0.3738 -0.0900 -0.4497
  805MOL0     C10966   3.188   4.525   8.886 -0.5909  0.4784  0.3821
  805MOL0     C10967   3.208   4.631   8.999  0.3243  0.4981 -0.3212
  805MOL0     C10968   3.220   4.778   8.969  0.1012 -0.0319  0.0897
  805MOL0     N10969   3.260   4.860   9.087  0.5826 -0.0308 -0.2634
  805MOL0     C10970   3.194   4.971   9.140 -1.0134 -0.1345  0.8613
  805MOL0     C10971   3.279   5.037   9.223 -0.8442  0.0901  0.6479
  805MOL0     C10972   3.254   5.159   9.310 -1.1949 -0.0222  0.1483
  805MOL0     C10973   3.321   5.138   9.451  0.4004  0.9425 -1.0757
  805MOL0     C10974   3.268   5.240   9.550 -0.1096  0.0146  0.1593
  805MOL0     C10975   3.331   5.224   9.688  1.2722  0.6226  0.5283
  805MOL0     O10976   3.268   5.313   9.783  0.3297  0.0916  0.3989
  805MOL0     C10977   3.290   5.450   9.780 -0.2118  0.0725  0.3054
  805MOL0     C10978   3.180   5.541   9.752 -0.4944  0.1854  1.0238
  805MOL0     C10979   3.203   5.677   9.714 -0.2110  0.0319 -0.8835
  805MOL0     C10980   3.086   5.763   9.671 -0.3545  0.7465 -1.0318
  805MOL0     C10981   3.336   5.727   9.719 -0.1053 -0.5186 -0.5879
  805MOL0     C10982   3.369   5.863   9.675  0.0634 -0.1147 -0.4274
  805MOL0     O10983   3.476   5.912   9.744 -0.5762  0.0855  0.1096
  805MOL0     C10984   3.540   6.035   9.729 -0.3851  0.8483 -0.0367
  805MOL0     C10985   3.495   6.157   9.690 -0.6704 -0.1040  0.5455
  805MOL0     C10986   3.576   6.275   9.685 -0.3826  0.2504  0.3199
  805MOL0     C10987   3.707   6.260   9.715 -0.6501 -0.2570  0.0345
  805MOL0     O10988   3.785   6.377   9.692  0.0217 -0.3195  0.3338
  805MOL0     C10989   3.892   6.402   9.783 -0.1499  0.3559  0.0534
  805MOL0     C10990   4.010   6.453   9.700 -0.1058  0.3002 -0.5104
  805MOL0     C10991   3.990   6.578   9.618 -0.3543  0.0633  0.2284
  805MOL0     C10992   4.109   6.608   9.523 -0.1260 -0.4534  0.3517
  805MOL0     C10993   4.099   6.750   9.475 -0.5563  0.4014 -0.5259
  805MOL0     C10994   4.227   6.783   9.400 -0.1857 -0.6827 -0.1912
  805MOL0     C10995   4.221   6.924   9.343 -0.2663  0.0054  0.7414
  805MOL0     C10996   4.323   6.966   9.234  0.5108 -0.5460 -0.8459
  805MOL0    Cl10997   4.271   6.913   9.077 -0.0237  0.0639  0.1437
  805MOL0     C10998   3.757   6.135   9.751 -0.8003  1.3513 -0.8792
  805MOL0     C10999   3.675   6.025   9.768 -0.2688 -0.1366  0.1534
  805MOL0     O11000   3.306   5.929   9.590 -0.1580  0.8517  0.0210
  805MOL0     C11001   3.440   5.640   9.752 -0.5231  0.7359 -0.4586
  805MOL0     C11002   3.417   5.508   9.781 -0.1710 -0.3123 -0.5567
  805MOL0     N11003   3.395   4.958   9.227 -0.8351  0.0739  0.0298
  805MOL0     N11004   3.378   4.849   9.155 -0.7933 -0.3728  0.8260
  805MOL0     C11005   3.069   3.723   8.644 -0.7845 -0.1908 -0.5083
  805MOL0     C11006   3.002   3.609   8.615 -0.2502 -0.6294 -1.0720
  805MOL0     C11007   2.830   3.209   8.493  0.4034  0.1768  0.3146
  805MOL0     C11008   2.697   3.170   8.473 -1.1287  0.2004 -0.8942
  805MOL0     C11009   2.659   3.039   8.445  0.1418 -0.1147  0.1509
  805MOL0     C11010   2.758   2.939   8.429  0.2728 -0.6776 -0.1534
  805MOL0     O11011   2.695   2.824   8.399  0.8916  1.1178  0.0075
  805MOL0     C11012   2.760   2.699   8.432  0.0307  0.0164 -0.3673
  805MOL0     C11013   2.656   2.588   8.383 -0.1986 -0.6046 -0.8369
  805MOL0     C11014   2.512   2.593   8.438 -0.6138  0.0634  0.2115
  805MOL0     C11015   2.486   2.626   8.585  0.1787  0.2987 -0.1758
  805MOL0     C11016   2.564   2.540   8.671 -0.5515 -0.0097  0.0532
  805MOL0     C11017   2.625   2.468   8.739  0.3052 -0.7277  0.4526
  805MOL0     C11018   2.890   2.974   8.451 -0.5841 -0.4390  0.0912
  805MOL0     C11019   2.931   3.103   8.480  1.2260 -0.0392 -0.6328
  805MOL0     C11020   3.081   3.121   8.508  0.6405 -0.0417 -0.4625
  805MOL0     H11021   3.195   3.495   8.360  3.1124  1.1590  1.5839
  805MOL0     H11022   3.321   3.689   8.418  0.3891 -0.3237  1.0088
  805MOL0     H11023   3.374   3.928   8.763  1.3699  0.8395 -1.9898
  805MOL0     H11024   3.202   3.884   8.789  0.5461  2.6440  1.0815
  805MOL0     H11025   3.321   4.142   8.657  0.6072 -1.0521  0.2487
  805MOL0     H11026   3.158   4.082   8.633  1.6077  0.8651 -1.4631
  805MOL0     H11027   3.118   4.093   8.873 -0.5539 -0.0246  1.5456
  805MOL0     H11028   3.274   4.144   8.915 -1.2231 -0.3220  0.5333
  805MOL0     H11029   3.263   4.329   8.747 -0.3660 -1.4363 -0.3553
  805MOL0     H11030   3.083   4.288   8.745 -0.3709 -0.9756 -0.9620
  805MOL0     H11031   3.224   4.347   9.007  0.1096 -1.8450 -0.9148
  805MOL0     H11032   3.057   4.363   8.969 -0.3116 -0.7046 -2.2411
  805MOL0     H11033   3.287   4.531   8.840 -0.2901  1.7172  1.1698
  805MOL0     H11034   3.114   4.559   8.813  0.8062  2.5503 -0.1552
  805MOL0     H11035   3.296   4.594   9.052 -0.9370  1.4017  2.6304
  805MOL0     H11036   3.133   4.606   9.075  3.9725 -2.0606  2.8646
  805MOL0     H11037   3.275   4.796   8.877  0.0553  0.3056  0.1274
  805MOL0     H11038   3.117   4.807   8.945 -1.1502 -2.1795  2.3799
  805MOL0     H11039   3.088   4.995   9.139 -0.7940  0.8885 -0.0803
  805MOL0     H11040   3.147   5.177   9.321 -1.1780  0.2108 -0.0633
  805MOL0     H11041   3.297   5.248   9.264 -1.8292 -0.0417 -0.4966
  805MOL0     H11042   3.292   5.044   9.500 -0.9370  1.9563  0.1764
  805MOL0     H11043   3.430   5.147   9.446  0.3660  1.3289 -1.1055
  805MOL0     H11044   3.298   5.331   9.496 -1.8221  0.0524 -0.7914
  805MOL0     H11045   3.159   5.239   9.559  0.0327  0.4690  2.8729
  805MOL0     H11046   3.327   5.121   9.726  0.8820  0.4791  0.1102
  805MOL0     H11047   3.438   5.237   9.671  2.6589 -4.3906  3.4096
  805MOL0     H11048   3.082   5.496   9.739 -0.5584 -0.1869  2.5317
  805MOL0     H11049   3.080   5.856   9.728  1.9502 -0.4164  1.3166
  805MOL0     H11050   2.994   5.704   9.668  0.3474 -0.3662 -2.0751
  805MOL0     H11051   3.089   5.776   9.562 -1.2926 -1.3127 -1.3386
  805MOL0     H11052   3.391   6.162   9.658 -1.2366 -3.5455  1.3723
  805MOL0     H11053   3.530   6.359   9.634  0.4713  1.9710  2.2271
  805MOL0     H11054   3.853   6.478   9.852 -1.0997 -2.4615  2.8172
  805MOL0     H11055   3.916   6.316   9.845 -3.4554 -0.4129  0.4668
  805MOL0     H11056   4.099   6.462   9.764 -0.5563  2.4920 -0.1222
  805MOL0     H11057   4.038   6.383   9.621 -0.0296  2.3157 -2.3514
  805MOL0     H11058   3.974   6.655   9.694  3.1365  0.3695  0.8026
  805MOL0     H11059   3.898   6.570   9.558  0.6571 -2.4836 -1.1442
  805MOL0     H11060   4.098   6.534   9.443 -2.3344  0.7462 -0.5365
  805MOL0     H11061   4.207   6.598   9.572  0.0857  0.7728  0.2097
  805MOL0     H11062   4.015   6.765   9.406 -0.1805 -1.1095 -1.3538
  805MOL0     H11063   4.093   6.806   9.569 -3.0030 -1.3367  0.4956
  805MOL0     H11064   4.231   6.706   9.323 -1.3437 -2.7196  1.6785
  805MOL0     H11065   4.312   6.777   9.469  0.2249  1.1126 -0.4914
  805MOL0     H11066   4.251   6.991   9.424  2.8011  3.2948 -2.6857
  805MOL0     H11067   4.116   6.938   9.314  0.0798  0.7843 -0.2166
  805MOL0     H11068   4.430   6.944   9.243  1.1429  2.2404 -0.8124
  805MOL0     H11069   4.323   7.075   9.233 -2.2855 -0.4578 -0.0242
  805MOL0     H11070   3.864   6.117   9.762 -1.6053 -4.6742  0.0087
  805MOL0     H11071   3.721   5.928   9.780  1.4170  0.5066 -0.7219
  805MOL0     H11072   3.542   5.677   9.750 -1.4540  3.7622  1.5730
  805MOL0     H11073   3.498   5.438   9.796  0.6807  0.3066 -2.0143
  805MOL0     H11074   3.010   3.791   8.706 -0.1126 -0.5148  0.5013
  805MOL0     H11075   2.916   3.601   8.680 -0.6665  0.7381 -1.4202
  805MOL0     H11076   2.620   3.247   8.478 -0.4615  0.7829  0.8142
  805MOL0     H11077   2.555   3.019   8.422  0.3265  1.2561 -2.2294
  805MOL0     H11078   2.853   2.685   8.376  0.6053 -0.7748  0.7331
  805MOL0     H11079   2.784   2.684   8.538  1.8129 -1.0674 -0.8795
  805MOL0     H11080   2.703   2.495   8.415  0.8747 -0.2726 -1.3985
  805MOL0     H11081   2.652   2.591   8.274 -3.2010 -1.6033 -0.8611
  805MOL0     H11082   2.453   2.661   8.375 -0.3086 -2.4053 -2.9936
  805MOL0     H11083   2.463   2.496   8.423 -1.8124 -0.1129  4.1557
  805MOL0     H11084   2.380   2.604   8.598 -0.2179  2.5563  0.8968
  805MOL0     H11085   2.510   2.729   8.615  1.3511  0.0661 -0.2573
  805MOL0     H11086   2.678   2.404   8.806  0.5222 -1.5533 -0.4911
  805MOL0     H11087   2.961   2.892   8.450  3.1689  2.5102 -0.4612
  805MOL0     H11088   3.134   3.026   8.506  2.8289  1.1318 -0.5633
  805MOL0     H11089   3.121   3.180   8.425  0.4778 -0.3667 -0.7756
  805MOL0     H11090   3.104   3.181   8.596 -3.8058  0.3503  0.6829
  806MOL0     O11091  10.146   7.354   5.970  0.2375 -0.5301 -0.0732
  806MOL0     C11092  10.093   7.421   5.884  0.4344  0.0509  0.4281
  806MOL0     O11093   9.994   7.510   5.907 -0.0001 -0.2327 -0.1967
  806MOL0     C11094   9.960   7.556   6.034  0.0205 -0.1663 -0.6375
  806MOL0     C11095  10.036   7.528   6.152  0.7888 -0.3841 -0.1922
  806MOL0     C11096  10.005   7.587   6.274  0.0131 -0.9459  0.0310
  806MOL0     C11097   9.912   7.685   6.275  0.4314 -0.1598 -0.7020
  806MOL0     O11098   9.904   7.765   6.388  0.3310 -0.3471 -0.3469
  806MOL0     C11099   9.994   7.879   6.396  0.7692  0.0384 -0.6190
  806MOL0     C11100  10.028   7.906   6.542 -0.0745  0.4327  0.5871
  806MOL0     C11101   9.911   7.983   6.604  0.0602  0.4495  0.1484
  806MOL0     C11102   9.831   7.895   6.694 -0.0660 -0.0394  0.8026
  806MOL0     C11103   9.700   7.949   6.741 -0.3995 -0.7818  0.8149
  806MOL0     C11104   9.704   8.100   6.798 -0.9316 -0.4444 -0.1669
  806MOL0     C11105   9.561   8.138   6.836 -0.7987 -0.1471 -0.6453
  806MOL0     C11106   9.451   8.148   6.723 -0.6294 -0.3952  0.4457
  806MOL0     N11107   9.501   8.235   6.613 -0.1152  0.7597 -0.5981
  806MOL0     C11108   9.500   8.372   6.615 -0.6631 -0.2056 -0.5503
  806MOL0     C11109   9.554   8.410   6.501 -0.2402  0.2977  1.0616
  806MOL0     C11110   9.581   8.541   6.435  0.2073  0.1163 -0.3788
  806MOL0     C11111   9.456   8.630   6.438 -0.9791 -0.4878 -0.3168
  806MOL0     C11112   9.477   8.741   6.540 -0.4777  0.6130 -0.2105
  806MOL0     C11113   9.352   8.820   6.573  0.3043 -0.0910 -0.2188
  806MOL0     O11114   9.295   8.781   6.703 -0.1324 -0.3189 -0.0706
  806MOL0     C11115   9.168   8.823   6.735  0.2278  0.9361  0.0088
  806MOL0     C11116   9.108   8.932   6.668 -0.1125 -1.3086 -0.8481
  806MOL0     C11117   8.970   8.963   6.691  0.1836  0.5484  1.1524
  806MOL0     C11118   8.915   9.076   6.610  0.2433 -0.4943  0.5764
  806MOL0     C11119   8.897   8.885   6.785 -0.6058  1.6137  0.9698
  806MOL0     C11120   8.762   8.900   6.823  0.4974  0.6476  0.4423
  806MOL0     O11121   8.699   8.802   6.897  0.4731  0.1568  0.3100
  806MOL0     C11122   8.564   8.823   6.932  0.1998 -0.6414  0.0379
  806MOL0     C11123   8.551   8.901   7.048  0.0046 -0.1689 -0.2063
  806MOL0     C11124   8.424   8.957   7.081  0.1523 -0.2984  0.6769
  806MOL0     C11125   8.319   8.937   7.003  0.4523  0.1775  0.3824
  806MOL0     O11126   8.197   8.993   7.037 -0.3893 -0.8825 -0.1891
  806MOL0     C11127   8.077   8.954   6.982 -0.0193  0.4656 -0.5021
  806MOL0     C11128   8.037   9.043   6.880  0.2970 -0.5597 -0.2680
  806MOL0     C11129   7.912   9.003   6.809 -0.2841  0.5201 -0.0667
  806MOL0     C11130   7.875   9.091   6.696 -0.3570 -0.5962  0.4530
  806MOL0     C11131   7.747   9.043   6.624 -0.0829 -0.8708  0.3745
  806MOL0     C11132   7.720   9.106   6.487  0.0215 -0.5487  1.4564
  806MOL0     C11133   7.846   9.113   6.396 -1.0515 -0.3227 -0.6283
  806MOL0     C11134   7.795   9.118   6.252  0.4738  0.4871 -0.0062
  806MOL0    Cl11135   7.920   9.175   6.143  0.0634 -0.1726  0.5092
  806MOL0     C11136   8.339   8.851   6.894 -0.2667  0.1363 -0.3059
  806MOL0     C11137   8.459   8.799   6.848 -0.2191 -0.5469 -0.3770
  806MOL0     O11138   8.707   8.997   6.785 -0.1636  0.4728  0.5973
  806MOL0     C11139   8.966   8.775   6.853 -0.1306 -0.4704 -0.3773
  806MOL0     C11140   9.099   8.755   6.831  0.3158  0.0845 -0.0410
  806MOL0     N11141   9.596   8.297   6.430 -0.7157  0.0810  0.2123
  806MOL0     N11142   9.570   8.191   6.503  0.0947 -0.5885  0.7836
  806MOL0     C11143   9.831   7.717   6.170 -0.3567 -0.0717  0.4124
  806MOL0     C11144   9.860   7.651   6.043 -0.1204 -0.0276 -0.1514
  806MOL0     C11145  10.148   7.401   5.753 -0.0381  0.0282 -0.0803
  806MOL0     C11146  10.048   7.379   5.652 -0.6665 -1.0151  0.4016
  806MOL0     C11147  10.097   7.350   5.518 -0.3283 -0.4575 -0.1743
  806MOL0     C11148  10.235   7.322   5.495  0.2249 -0.5585  0.3522
  806MOL0     O11149  10.293   7.285   5.374 -0.0639 -1.0606 -0.9092
  806MOL0     C11150  10.212   7.277   5.258  0.4591 -1.2336  0.2968
  806MOL0     C11151  10.318   7.245   5.146  0.2982  0.3726  0.4242
  806MOL0     C11152  10.261   7.184   5.013 -0.5433  1.1419  0.0382
  806MOL0     C11153  10.189   7.295   4.940 -0.5370 -0.2593 -0.5958
  806MOL0     C11154  10.094   7.248   4.844  0.6244 -0.9171 -0.0863
  806MOL0     C11155  10.031   7.226   4.737 -0.9125  0.6910 -0.2532
  806MOL0     C11156  10.330   7.347   5.595  0.0656 -0.6026  0.6349
  806MOL0     C11157  10.287   7.395   5.726  0.1880 -0.3312  0.9431
  806MOL0     C11158  10.399   7.415   5.827 -0.0612 -0.0956  0.6665
  806MOL0     H11159  10.118   7.457   6.159  1.2433 -0.0996 -1.9487
  806MOL0     H11160  10.060   7.548   6.359  1.1174 -1.8077 -1.0364
  806MOL0     H11161   9.940   7.964   6.355  1.5604  0.4387 -0.8543
  806MOL0     H11162  10.088   7.867   6.341  0.3812 -0.2003 -1.2320
  806MOL0     H11163  10.060   7.810   6.582 -1.0242 -0.6909 -1.2166
  806MOL0     H11164  10.109   7.980   6.547 -0.8781  1.2671  1.7385
  806MOL0     H11165   9.956   8.068   6.656 -0.8583  2.7047 -2.4949
  806MOL0     H11166   9.845   8.018   6.524 -0.1604 -2.6885 -1.1658
  806MOL0     H11167   9.825   7.793   6.656 -0.4608  0.1246  0.4224
  806MOL0     H11168   9.901   7.886   6.779 -0.6291 -0.2462  1.2496
  806MOL0     H11169   9.654   7.880   6.813 -1.6035 -1.2917 -0.4023
  806MOL0     H11170   9.635   7.945   6.653  0.1051  0.0392  0.4036
  806MOL0     H11171   9.764   8.117   6.887  1.5021  2.1526 -2.1383
  806MOL0     H11172   9.736   8.176   6.726  1.4187 -0.7632  0.4866
  806MOL0     H11173   9.582   8.236   6.881  1.3328  0.5236 -2.8676
  806MOL0     H11174   9.517   8.075   6.914  2.5484 -0.2505  1.3398
  806MOL0     H11175   9.426   8.052   6.677 -0.9315 -0.2087  0.2221
  806MOL0     H11176   9.366   8.187   6.778 -0.1869 -1.2452  1.7738
  806MOL0     H11177   9.462   8.443   6.688 -2.3568  0.8351 -2.3519
  806MOL0     H11178   9.609   8.505   6.335  1.9574  0.0896  0.0800
  806MOL0     H11179   9.660   8.598   6.485  0.9889 -1.8969  0.8199
  806MOL0     H11180   9.441   8.679   6.341  0.0553 -0.7914 -0.6492
  806MOL0     H11181   9.366   8.573   6.460 -0.8741  0.2512  2.3937
  806MOL0     H11182   9.513   8.687   6.628  3.7555 -0.9321 -2.5796
  806MOL0     H11183   9.557   8.808   6.507 -0.3611  1.4397  1.6697
  806MOL0     H11184   9.366   8.928   6.580 -0.1981  0.0024 -0.5821
  806MOL0     H11185   9.281   8.795   6.493  0.7747 -0.0279 -0.6618
  806MOL0     H11186   9.155   8.991   6.590  1.1088 -0.4682  0.4621
  806MOL0     H11187   8.894   9.164   6.671  0.6299  1.1900 -1.5981
  806MOL0     H11188   8.828   9.051   6.550  1.6582  0.0582 -1.8388
  806MOL0     H11189   8.984   9.131   6.544 -0.0303 -0.8606 -0.0197
  806MOL0     H11190   8.637   8.929   7.108 -0.6570  1.2657  0.1410
  806MOL0     H11191   8.397   9.021   7.163  1.6698 -0.4686  1.3462
  806MOL0     H11192   8.085   8.849   6.954  2.4369 -0.4581  2.9847
  806MOL0     H11193   7.997   8.951   7.057  2.2930  0.2073  2.1164
  806MOL0     H11194   8.040   9.141   6.929  2.0970  0.2854 -1.9143
  806MOL0     H11195   8.120   9.041   6.808 -0.2020  0.6267 -0.9004
  806MOL0     H11196   7.826   9.010   6.877 -0.5262  0.1317 -0.3316
  806MOL0     H11197   7.910   8.899   6.774  1.4063  1.9210 -5.1098
  806MOL0     H11198   7.953   9.079   6.621 -2.2544 -6.2292 -1.0926
  806MOL0     H11199   7.863   9.193   6.734 -0.7420 -1.5807  3.2292
  806MOL0     H11200   7.755   8.936   6.604  0.2675 -0.1818 -4.3749
  806MOL0     H11201   7.664   9.063   6.693 -0.7274 -0.2738 -0.5406
  806MOL0     H11202   7.678   9.206   6.503  1.8738  0.2762  1.3711
  806MOL0     H11203   7.655   9.043   6.426  0.5342  0.5484 -0.2738
  806MOL0     H11204   7.912   9.027   6.410 -2.1819 -0.9947  0.7895
  806MOL0     H11205   7.892   9.205   6.434 -1.0292 -1.1112  1.3215
  806MOL0     H11206   7.699   9.170   6.259 -0.8674 -1.1168 -3.6681
  806MOL0     H11207   7.767   9.017   6.218  0.5166  0.2862  0.5414
  806MOL0     H11208   8.253   8.822   6.835  0.6784  1.7875 -2.6715
  806MOL0     H11209   8.475   8.742   6.757 -1.0701 -0.8461 -0.3485
  806MOL0     H11210   8.914   8.710   6.924 -2.1208 -2.3184 -3.3007
  806MOL0     H11211   9.139   8.671   6.887 -1.4898  0.7009  2.3268
  806MOL0     H11212   9.756   7.793   6.191 -0.0130  0.0122  1.3702
  806MOL0     H11213   9.808   7.699   5.961  1.3169 -1.4689 -1.9918
  806MOL0     H11214   9.941   7.400   5.659 -0.7575  2.0797 -4.8761
  806MOL0     H11215  10.024   7.334   5.439 -0.3288  3.0856 -1.0559
  806MOL0     H11216  10.126   7.211   5.269  0.4760 -1.1096  1.2452
  806MOL0     H11217  10.169   7.375   5.235  1.1274 -1.0198 -0.0738
  806MOL0     H11218  10.387   7.174   5.194  1.6433  0.8622 -0.7000
  806MOL0     H11219  10.374   7.334   5.115 -2.4393  1.5445 -1.4681
  806MOL0     H11220  10.347   7.144   4.959 -0.6284  0.6122  0.2930
  806MOL0     H11221  10.189   7.102   5.025  2.5263 -1.7186  0.2769
  806MOL0     H11222  10.264   7.355   4.888  0.1337  0.7081  1.3834
  806MOL0     H11223  10.130   7.355   5.010  1.0064 -1.5061  1.9410
  806MOL0     H11224   9.972   7.214   4.648 -1.2760 -0.6688  0.1483
  806MOL0     H11225  10.434   7.341   5.566 -0.5220 -3.5131 -1.2658
  806MOL0     H11226  10.426   7.321   5.875 -0.8827  0.2637  1.8970
  806MOL0     H11227  10.482   7.450   5.766 -0.7340  0.0297 -0.1880
  806MOL0     H11228  10.379   7.496   5.898 -2.1393 -0.2148  0.2774
  807MOL0     O11229   7.462   1.074   1.356  0.4065  0.5212 -0.7303
  807MOL0     C11230   7.481   0.953   1.395 -0.7246 -0.5102  0.1958
  807MOL0     O11231   7.528   0.923   1.520 -0.6664  0.3545 -0.4103
  807MOL0     C11232   7.565   1.031   1.597 -0.9032  0.4741 -0.2480
  807MOL0     C11233   7.648   1.139   1.549  0.8308  0.8385 -1.0470
  807MOL0     C11234   7.684   1.251   1.634 -0.4711 -0.4081 -0.3916
  807MOL0     C11235   7.641   1.243   1.763 -0.0174 -0.5571 -1.0631
  807MOL0     O11236   7.667   1.352   1.847  0.4015 -0.5901 -0.2592
  807MOL0     C11237   7.804   1.389   1.862  0.6448  0.1490  0.0699
  807MOL0     C11238   7.807   1.504   1.966 -0.1252 -0.0306  0.2455
  807MOL0     C11239   7.952   1.516   2.008  0.0899 -0.2491  1.0051
  807MOL0     C11240   7.973   1.607   2.128 -0.3169  0.1055  0.0555
  807MOL0     C11241   8.117   1.599   2.177  0.9690 -0.4400  0.5144
  807MOL0     C11242   8.160   1.708   2.279  0.2248  0.2762 -0.1902
  807MOL0     C11243   8.312   1.723   2.289 -0.9245  0.5119 -0.1692
  807MOL0     C11244   8.370   1.780   2.152  0.0332  0.5669  0.1253
  807MOL0     N11245   8.473   1.885   2.167 -0.0836  0.3913 -0.2932
  807MOL0     C11246   8.453   1.991   2.252 -0.0682 -0.2330 -0.3400
  807MOL0     C11247   8.575   2.054   2.270 -0.1149 -0.7017 -0.5851
  807MOL0     C11248   8.605   2.177   2.343 -0.8487 -0.1500 -0.6889
  807MOL0     C11249   8.714   2.152   2.437  0.6859 -0.6230 -0.9910
  807MOL0     C11250   8.776   2.279   2.501 -0.3155 -0.2752  0.3546
  807MOL0     C11251   8.887   2.250   2.599 -0.9380  0.3340 -0.0285
  807MOL0     O11252   9.005   2.235   2.518 -0.5224  0.4957  0.1593
  807MOL0     C11253   9.114   2.309   2.564 -0.1675 -0.0238  0.0166
  807MOL0     C11254   9.211   2.319   2.476 -0.9971  0.0862  0.0023
  807MOL0     C11255   9.336   2.388   2.500 -0.1859  0.8313  0.6000
  807MOL0     C11256   9.438   2.388   2.390  0.0273  0.4544  0.8035
  807MOL0     C11257   9.357   2.446   2.627  0.6354 -0.8224  0.5840
  807MOL0     C11258   9.476   2.519   2.661 -0.2469 -0.3684  0.5313
  807MOL0     O11259   9.557   2.566   2.563  0.2482 -1.0242 -0.2460
  807MOL0     C11260   9.653   2.659   2.599  0.2615  0.0947 -0.3049
  807MOL0     C11261   9.631   2.780   2.669 -0.3929 -0.2219  0.2233
  807MOL0     C11262   9.737   2.862   2.705  0.5914 -0.3902 -0.1087
  807MOL0     C11263   9.870   2.821   2.683  0.2494 -0.4475 -0.8127
  807MOL0     O11264   9.969   2.912   2.728  0.7508 -0.4177  0.8637
  807MOL0     C11265  10.106   2.879   2.723 -0.9681 -0.5105 -0.0901
  807MOL0     C11266  10.198   2.982   2.794 -0.2093 -0.1953 -0.2619
  807MOL0     C11267  10.185   3.007   2.943  0.0154  0.8681 -0.0670
  807MOL0     C11268  10.244   3.139   2.983 -1.1070  0.0727 -0.5551
  807MOL0     C11269  10.202   3.171   3.132  0.0391 -0.1727  1.7285
  807MOL0     C11270  10.294   3.272   3.200  0.5004 -0.8069 -0.7916
  807MOL0     C11271  10.439   3.243   3.200 -0.4259 -0.1577  0.2896
  807MOL0     C11272  10.499   3.119   3.271  0.4321  0.2009  0.2649
  807MOL0    Cl11273  10.664   3.136   3.317 -0.2078  0.1724 -0.1037
  807MOL0     C11274   9.893   2.698   2.624  0.3240 -0.1190  0.1665
  807MOL0     C11275   9.784   2.617   2.585  0.0121 -0.4454  0.5685
  807MOL0     O11276   9.505   2.522   2.778  0.6151 -0.5763 -0.0372
  807MOL0     C11277   9.253   2.428   2.721  0.4812  0.2709 -0.1492
  807MOL0     C11278   9.125   2.377   2.688 -0.6233 -0.5513  0.0706
  807MOL0     N11279   8.667   1.979   2.197  0.1472  0.2325  0.0450
  807MOL0     N11280   8.603   1.883   2.134  0.0622  0.3906  0.3797
  807MOL0     C11281   7.571   1.131   1.809  0.2365 -0.1939  0.6488
  807MOL0     C11282   7.532   1.035   1.729  0.4078 -0.0146 -0.5649
  807MOL0     C11283   7.466   0.839   1.303 -0.0998 -0.5740 -0.7290
  807MOL0     C11284   7.549   0.726   1.330 -0.4765 -0.1632 -0.4222
  807MOL0     C11285   7.553   0.617   1.235  0.6750 -0.9334  0.2585
  807MOL0     C11286   7.474   0.620   1.120  0.0086 -0.5235  1.1083
  807MOL0     O11287   7.472   0.527   1.018 -0.2557  0.3296  0.3741
  807MOL0     C11288   7.555   0.407   1.025 -0.3495 -0.2595 -1.2909
  807MOL0     C11289   7.501   0.273   1.094  0.6154 -1.1078 -0.2872
  807MOL0     C11290   7.402   0.211   1.003  0.8246  0.3490 -0.0721
  807MOL0     C11291   7.312   0.112   1.071  0.6336 -0.1555  0.5094
  807MOL0     C11292   7.379  -0.021   1.094  1.4115 -0.4003 -0.8893
  807MOL0     C11293   7.439  -0.126   1.116  0.2329 -0.1920  0.0574
  807MOL0     C11294   7.403   0.728   1.091  0.0537  0.2502  0.3710
  807MOL0     C11295   7.397   0.830   1.180 -0.2751 -0.1006 -0.4467
  807MOL0     C11296   7.300   0.939   1.134 -0.3819 -1.3899 -0.2771
  807MOL0     H11297   7.683   1.131   1.446  2.0173  3.4444 -0.9397
  807MOL0     H11298   7.737   1.337   1.594 -0.1544 -0.9586 -1.1820
  807MOL0     H11299   7.848   1.419   1.766  0.5181 -1.3524 -0.4993
  807MOL0     H11300   7.865   1.303   1.891  2.9039  1.2435 -1.1677
  807MOL0     H11301   7.759   1.591   1.922  0.1007 -0.1058 -0.1462
  807MOL0     H11302   7.750   1.478   2.056 -0.0642  0.2668  0.3706
  807MOL0     H11303   7.971   1.411   2.031 -0.9230 -1.5233 -3.1783
  807MOL0     H11304   8.020   1.536   1.924 -2.1498  0.9041 -0.6392
  807MOL0     H11305   7.952   1.709   2.093 -3.2395  0.3779  2.2416
  807MOL0     H11306   7.901   1.588   2.207 -2.6792  1.5699 -1.6046
  807MOL0     H11307   8.178   1.615   2.088  0.4724 -1.6809 -0.0760
  807MOL0     H11308   8.121   1.498   2.219 -2.3998 -0.5344  0.9068
  807MOL0     H11309   8.114   1.803   2.252 -2.2277 -0.3338  1.4967
  807MOL0     H11310   8.108   1.682   2.372 -0.3162  0.4528 -0.4393
  807MOL0     H11311   8.352   1.625   2.313  0.2548  1.4040  1.7457
  807MOL0     H11312   8.336   1.782   2.379 -0.3650  0.3638 -0.2211
  807MOL0     H11313   8.394   1.707   2.075  1.9677  0.2497  0.9566
  807MOL0     H11314   8.282   1.826   2.107 -0.3970 -1.4191 -1.1760
  807MOL0     H11315   8.360   2.017   2.301  0.2563 -1.3833  0.9408
  807MOL0     H11316   8.509   2.212   2.382 -0.7618 -1.3572  0.6826
  807MOL0     H11317   8.641   2.250   2.270  0.9821  1.1473  1.3759
  807MOL0     H11318   8.661   2.103   2.519  0.1370  0.9057 -0.4100
  807MOL0     H11319   8.789   2.089   2.387 -1.5056 -0.9538 -4.1808
  807MOL0     H11320   8.806   2.347   2.421  0.9453  1.0721  1.9206
  807MOL0     H11321   8.692   2.329   2.550 -0.2501  0.2246 -0.0359
  807MOL0     H11322   8.878   2.342   2.656  0.9010 -0.3244  1.4272
  807MOL0     H11323   8.881   2.163   2.665  4.4800  0.0486  0.5190
  807MOL0     H11324   9.199   2.263   2.384  1.1829  2.9236 -2.2058
  807MOL0     H11325   9.446   2.494   2.366 -2.0755  1.0148  2.2637
  807MOL0     H11326   9.405   2.332   2.302 -0.9154 -0.1733  1.5415
  807MOL0     H11327   9.538   2.356   2.421 -0.6320 -0.9809  1.5832
  807MOL0     H11328   9.527   2.803   2.689 -0.1321  0.9999  0.2514
  807MOL0     H11329   9.717   2.958   2.752  3.9700  0.1364  0.5129
  807MOL0     H11330  10.116   2.785   2.778  2.0359 -0.5031 -0.4576
  807MOL0     H11331  10.149   2.854   2.626  4.7732  0.8621  1.6904
  807MOL0     H11332  10.300   2.952   2.766 -0.7520 -1.5876 -0.8455
  807MOL0     H11333  10.192   3.080   2.746 -3.3654 -0.4018 -0.4806
  807MOL0     H11334  10.239   2.927   2.995 -3.2330 -0.6242  1.2707
  807MOL0     H11335  10.080   3.000   2.972  0.4422 -1.5194  1.2053
  807MOL0     H11336  10.209   3.211   2.910 -0.4801 -0.9975 -1.9591
  807MOL0     H11337  10.353   3.136   2.978 -0.3736 -2.0377  6.0757
  807MOL0     H11338  10.099   3.206   3.125  0.5767  1.1491 -1.4553
  807MOL0     H11339  10.199   3.076   3.187 -0.5452  0.9958  3.7956
  807MOL0     H11340  10.250   3.285   3.299  2.2473 -2.2598  0.2480
  807MOL0     H11341  10.298   3.365   3.143  1.4247  0.7215  1.5766
  807MOL0     H11342  10.495   3.329   3.237  0.8580 -1.2402  0.9708
  807MOL0     H11343  10.474   3.230   3.097  0.9884 -0.8409  0.8377
  807MOL0     H11344  10.473   3.030   3.214 -1.2716 -0.3635  1.8297
  807MOL0     H11345  10.445   3.113   3.366  1.4868 -2.0405  0.7822
  807MOL0     H11346   9.993   2.667   2.598 -0.1108 -0.8039 -0.7594
  807MOL0     H11347   9.795   2.519   2.538  1.6319  0.6344 -1.4638
  807MOL0     H11348   9.266   2.463   2.822 -2.6957 -0.0236  0.4624
  807MOL0     H11349   9.053   2.366   2.769 -2.3011 -2.0268 -1.5118
  807MOL0     H11350   7.547   1.123   1.915 -1.6232  0.5192  0.3262
  807MOL0     H11351   7.474   0.960   1.782  0.8340  2.3008  3.6672
  807MOL0     H11352   7.618   0.720   1.414 -3.3002  2.4512  2.3422
  807MOL0     H11353   7.610   0.528   1.259  2.0210  0.0420  0.8210
  807MOL0     H11354   7.581   0.386   0.921  3.0945  1.1939 -0.8472
  807MOL0     H11355   7.653   0.424   1.071 -1.2452  2.1803 -0.1252
  807MOL0     H11356   7.469   0.296   1.196  1.2039  1.5126 -0.6301
  807MOL0     H11357   7.591   0.210   1.100  1.8572  0.7330  2.7819
  807MOL0     H11358   7.339   0.292   0.965  1.8957  1.0223 -0.4444
  807MOL0     H11359   7.463   0.164   0.925 -0.4212 -1.6757  0.1031
  807MOL0     H11360   7.226   0.087   1.008  0.8010 -1.8390  0.8749
  807MOL0     H11361   7.281   0.166   1.161  1.5702 -0.9115  1.3162
  807MOL0     H11362   7.494  -0.214   1.140  0.5733 -0.6393 -2.2132
  807MOL0     H11363   7.355   0.738   0.994  1.6701 -1.1988 -0.6452
  807MOL0     H11364   7.277   0.997   1.224  2.6286 -1.5589  0.7252
  807MOL0     H11365   7.345   1.018   1.074 -2.1357  0.9281  1.2702
  807MOL0     H11366   7.217   0.893   1.079 -2.0696 -0.1716  1.1482
  808MOL0     O11367   6.240   5.327   4.789  0.3653 -0.4424  0.5440
  808MOL0     C11368   6.198   5.256   4.877 -0.9514  0.2766  0.8280
  808MOL0     O11369   6.229   5.124   4.889  0.0792  0.0680  0.1580
  808MOL0     C11370   6.327   5.071   4.803 -0.2256 -0.6424  0.1797
  808MOL0     C11371   6.464   5.068   4.849 -0.2120 -0.7894  0.5877
  808MOL0     C11372   6.559   5.015   4.766 -0.6906 -0.3198 -0.7547
  808MOL0     C11373   6.533   4.971   4.640  0.7356 -0.2328 -0.5206
  808MOL0     O11374   6.648   4.917   4.578  0.4933  0.4122  1.1976
  808MOL0     C11375   6.640   4.853   4.451 -0.2646 -0.0784 -0.0819
  808MOL0     C11376   6.747   4.738   4.444 -0.3779  0.6467  0.1984
  808MOL0     C11377   6.761   4.681   4.306 -0.1275  0.8405  0.0568
  808MOL0     C11378   6.627   4.613   4.268  0.9803  0.0832 -0.1190
  808MOL0     C11379   6.597   4.480   4.338  0.1197 -0.3258  0.4799
  808MOL0     C11380   6.489   4.401   4.255  0.0278 -0.4741 -0.1339
  808MOL0     C11381   6.348   4.461   4.270  0.7121 -0.2159  0.1959
  808MOL0     C11382   6.278   4.409   4.392  0.7717 -0.0220  0.8817
  808MOL0     N11383   6.141   4.466   4.393 -0.0870 -0.0747 -0.2299
  808MOL0     C11384   6.020   4.389   4.388  0.0562  0.2465 -0.8839
  808MOL0     C11385   5.928   4.480   4.409  0.5605 -0.4770  0.3054
  808MOL0     C11386   5.784   4.449   4.432  0.7171 -0.7188  0.7497
  808MOL0     C11387   5.754   4.411   4.576 -0.8172  1.1729  0.1993
  808MOL0     C11388   5.765   4.534   4.669 -0.1755  0.2109  0.6495
  808MOL0     C11389   5.694   4.509   4.798 -0.2224 -0.6633 -0.7968
  808MOL0     O11390   5.554   4.479   4.795 -0.1085 -0.0902 -0.6351
  808MOL0     C11391   5.465   4.575   4.758  0.6384  0.2640  0.8683
  808MOL0     C11392   5.437   4.681   4.844 -0.1520 -0.6675  0.3952
  808MOL0     C11393   5.344   4.785   4.801 -0.2416  0.7293  0.0912
  808MOL0     C11394   5.336   4.903   4.896  0.1447 -0.5192  0.3860
  808MOL0     C11395   5.273   4.771   4.677  0.5227  0.4567  0.6167
  808MOL0     C11396   5.149   4.846   4.639  0.5381 -0.2002 -0.4803
  808MOL0     O11397   5.131   4.865   4.498 -0.0447  0.1297 -0.4327
  808MOL0     C11398   5.030   4.943   4.446 -1.1643 -0.7919  0.4578
  808MOL0     C11399   4.986   5.063   4.505  0.7749 -0.8993 -0.5950
  808MOL0     C11400   4.898   5.148   4.436 -1.1738 -0.4483 -1.4255
  808MOL0     C11401   4.854   5.121   4.312  0.0388 -0.4882 -0.0953
  808MOL0     O11402   4.773   5.206   4.241 -0.3877 -0.2802 -0.2157
  808MOL0     C11403   4.814   5.341   4.219 -0.1857 -0.2277 -0.2092
  808MOL0     C11404   4.706   5.422   4.144 -0.0250  0.4048  0.1678
  808MOL0     C11405   4.584   5.445   4.246  0.0382  0.0299 -0.2614
  808MOL0     C11406   4.453   5.407   4.175 -0.3799  0.3936 -0.2964
  808MOL0     C11407   4.342   5.472   4.252  0.8211 -0.1356 -0.2787
  808MOL0     C11408   4.313   5.442   4.392 -0.5195  0.5305  0.1156
  808MOL0     C11409   4.175   5.481   4.436 -0.4647  0.1282 -0.7109
  808MOL0     C11410   4.144   5.629   4.421 -0.3711  0.0452  0.0416
  808MOL0    Cl11411   4.234   5.741   4.525  0.3766 -0.0460 -0.1582
  808MOL0     C11412   4.888   4.998   4.256  0.8662  0.1606 -0.1093
  808MOL0     C11413   4.971   4.913   4.324 -0.9771  0.6130  0.6496
  808MOL0     O11414   5.072   4.893   4.730 -0.5393  0.3705  0.1141
  808MOL0     C11415   5.304   4.658   4.602  0.9708 -0.0742  0.7292
  808MOL0     C11416   5.393   4.559   4.640  0.2208  0.2118 -0.4373
  808MOL0     N11417   5.987   4.603   4.424  0.2192  0.1458  0.0391
  808MOL0     N11418   6.113   4.597   4.415 -0.6597 -0.7321 -0.1014
  808MOL0     C11419   6.402   4.984   4.594  0.5032 -0.4396 -0.3427
  808MOL0     C11420   6.299   5.029   4.673  0.3377  0.2152 -0.4936
  808MOL0     C11421   6.117   5.315   4.974  0.3867  0.5754 -0.0267
  808MOL0     C11422   6.084   5.234   5.083  0.0398 -0.0922 -0.0490
  808MOL0     C11423   6.001   5.276   5.185 -0.3959 -0.7083 -0.9465
  808MOL0     C11424   5.948   5.412   5.176 -0.0755 -0.0275  0.0167
  808MOL0     O11425   5.887   5.469   5.281 -0.4928 -0.3769 -0.3932
  808MOL0     C11426   5.856   5.404   5.405 -0.2497  0.3657 -0.1384
  808MOL0     C11427   5.727   5.319   5.407  0.1630 -0.0106 -0.6310
  808MOL0     C11428   5.724   5.239   5.542 -0.8564 -0.2427  0.4724
  808MOL0     C11429   5.677   5.094   5.533  0.0041 -0.1539 -0.3505
  808MOL0     C11430   5.656   5.018   5.660  0.4547 -1.3130  0.0347
  808MOL0     C11431   5.636   4.954   5.762 -0.7808  0.0223  0.0612
  808MOL0     C11432   5.977   5.488   5.066  0.4542 -0.0297 -0.0407
  808MOL0     C11433   6.052   5.438   4.957 -0.6332  0.0186  1.0838
  808MOL0     C11434   6.063   5.535   4.830 -0.4094 -0.0443 -0.6912
  808MOL0     H11435   6.487   5.105   4.948 -0.0564  0.8614 -0.0392
  808MOL0     H11436   6.660   4.990   4.795  0.3487  2.8630 -1.2985
  808MOL0     H11437   6.655   4.938   4.384 -0.9411 -0.8018 -1.1741
  808MOL0     H11438   6.543   4.804   4.436  1.3010 -3.2584 -0.6488
  808MOL0     H11439   6.847   4.771   4.473  0.2282  0.1201 -1.2369
  808MOL0     H11440   6.732   4.647   4.503  2.2856 -0.4146 -0.6303
  808MOL0     H11441   6.777   4.760   4.232  3.3319 -0.7673 -1.0945
  808MOL0     H11442   6.834   4.601   4.290  0.0887  1.4982 -2.7175
  808MOL0     H11443   6.539   4.678   4.272 -0.1890 -1.4424  0.0865
  808MOL0     H11444   6.629   4.592   4.160  0.5262 -0.2217 -0.0732
  808MOL0     H11445   6.568   4.491   4.443 -1.0916  0.2844  0.1036
  808MOL0     H11446   6.690   4.421   4.337  1.3582  1.5541  0.5023
  808MOL0     H11447   6.513   4.398   4.149 -0.5028  0.9911 -0.3239
  808MOL0     H11448   6.488   4.302   4.302  0.7067  0.2305  1.4420
  808MOL0     H11449   6.287   4.434   4.183 -0.8688  1.0397  0.8550
  808MOL0     H11450   6.348   4.570   4.286  0.2591 -0.6893  5.2728
  808MOL0     H11451   6.280   4.301   4.411  1.1948  0.2662  2.5914
  808MOL0     H11452   6.335   4.460   4.470  0.0349  0.3387  1.1905
  808MOL0     H11453   6.009   4.281   4.387  0.1100  0.2359 -0.5242
  808MOL0     H11454   5.762   4.379   4.351 -0.9643  1.3973 -0.7145
  808MOL0     H11455   5.726   4.537   4.405  0.4214 -1.0227  0.3727
  808MOL0     H11456   5.651   4.374   4.571 -0.3161 -0.3387  0.6052
  808MOL0     H11457   5.813   4.324   4.604 -0.3517  1.3862 -0.1094
  808MOL0     H11458   5.868   4.553   4.700 -0.2376 -0.7075  1.4717
  808MOL0     H11459   5.725   4.622   4.618  1.5523  0.9322  0.4729
  808MOL0     H11460   5.743   4.424   4.846  2.6363  1.5036  0.4594
  808MOL0     H11461   5.719   4.597   4.858  2.9245  0.2126 -3.0910
  808MOL0     H11462   5.496   4.698   4.933  2.5735  2.5276 -1.7723
  808MOL0     H11463   5.236   4.945   4.907 -0.7406 -2.3578 -0.2210
  808MOL0     H11464   5.413   4.979   4.879  0.1851 -0.5701  0.3439
  808MOL0     H11465   5.355   4.863   4.997  0.3804  0.6951  0.8358
  808MOL0     H11466   5.027   5.104   4.596  3.0190 -0.8851 -1.5493
  808MOL0     H11467   4.868   5.236   4.492 -1.6618 -0.8666 -1.0165
  808MOL0     H11468   4.830   5.395   4.313 -0.8093 -2.3014  1.1725
  808MOL0     H11469   4.909   5.336   4.165 -0.5258  0.5679 -0.9066
  808MOL0     H11470   4.751   5.517   4.114  1.0332 -1.2996 -4.5102
  808MOL0     H11471   4.675   5.400   4.041  0.7045 -2.1416  0.4366
  808MOL0     H11472   4.580   5.553   4.266  0.0473 -0.2743  1.5519
  808MOL0     H11473   4.597   5.394   4.342 -1.4518  0.8515  0.4085
  808MOL0     H11474   4.438   5.299   4.181 -2.9071  0.7385  0.9073
  808MOL0     H11475   4.460   5.437   4.070  0.9127  1.9993  0.2147
  808MOL0     H11476   4.353   5.581   4.254  3.3700 -0.3205  2.4742
  808MOL0     H11477   4.250   5.446   4.199  1.5005 -1.3406 -0.9377
  808MOL0     H11478   4.384   5.475   4.468 -1.6198  2.1582  0.4808
  808MOL0     H11479   4.305   5.333   4.398 -2.4285  0.2637 -3.9215
  808MOL0     H11480   4.164   5.445   4.539  1.4158  1.0285 -0.1482
  808MOL0     H11481   4.106   5.424   4.374 -1.1378  2.8544 -2.6559
  808MOL0     H11482   4.038   5.648   4.442  0.1016  2.9599  0.0802
  808MOL0     H11483   4.158   5.660   4.317 -2.9237 -0.8546 -0.6582
  808MOL0     H11484   4.856   4.966   4.157  2.1813  1.6129 -1.0583
  808MOL0     H11485   4.998   4.815   4.287 -2.8977 -0.6542  2.3536
  808MOL0     H11486   5.238   4.656   4.515  1.0217  2.0896  0.6028
  808MOL0     H11487   5.406   4.461   4.596 -5.9705 -1.8564  1.2823
  808MOL0     H11488   6.397   4.959   4.488  0.3904  2.1588 -1.0190
  808MOL0     H11489   6.197   5.033   4.636  1.0780 -1.4687 -3.0198
  808MOL0     H11490   6.124   5.135   5.102 -1.2002 -0.5562  0.2709
  808MOL0     H11491   6.004   5.216   5.276  0.7591  0.0382 -0.4708
  808MOL0     H11492   5.938   5.333   5.422 -1.3374 -1.3995 -1.8312
  808MOL0     H11493   5.861   5.477   5.486  3.7788 -0.3537  0.4916
  808MOL0     H11494   5.722   5.254   5.319  3.8532  0.6478 -1.5320
  808MOL0     H11495   5.650   5.397   5.411  2.8246  2.8362 -0.3701
  808MOL0     H11496   5.819   5.218   5.594  1.1731 -1.4109 -3.3597
  808MOL0     H11497   5.661   5.295   5.613 -0.3434  1.3795 -0.2985
  808MOL0     H11498   5.729   5.033   5.458 -0.9347 -0.6827 -0.5792
  808MOL0     H11499   5.578   5.106   5.489 -0.0249  1.0487  0.0085
  808MOL0     H11500   5.609   4.905   5.853 -0.2359  0.3431  0.3999
  808MOL0     H11501   5.936   5.589   5.066 -1.3791 -0.7274 -0.3448
  808MOL0     H11502   6.163   5.578   4.832 -0.2311 -0.3636  3.2287
  808MOL0     H11503   6.035   5.491   4.733  1.0816 -0.3110 -1.0201
  808MOL0     H11504   6.003   5.626   4.827  0.6987  0.7608  0.8350
  809MOL0     O11505   2.538   9.329   3.346 -0.4939 -0.0959 -0.6358
  809MOL0     C11506   2.515   9.387   3.454  0.1639 -0.4671 -0.3174
  809MOL0     O11507   2.596   9.379   3.564 -0.5053  0.2045 -0.5077
  809MOL0     C11508   2.710   9.305   3.556  0.8094  0.8485 -0.1392
  809MOL0     C11509   2.803   9.310   3.449 -0.1032  0.0084  0.3423
  809MOL0     C11510   2.918   9.229   3.460 -0.5502 -0.4295 -0.0974
  809MOL0     C11511   2.952   9.156   3.576  0.0405  0.3123 -0.0302
  809MOL0     O11512   3.068   9.078   3.571  0.6378  0.1075  0.1910
  809MOL0     C11513   3.053   8.941   3.624  0.4852 -0.8225  0.1925
  809MOL0     C11514   2.943   8.861   3.568 -0.0205 -0.7243  0.4770
  809MOL0     C11515   2.967   8.712   3.599  0.2931  0.8752 -0.2789
  809MOL0     C11516   2.883   8.606   3.520  0.7121  0.1908 -0.1281
  809MOL0     C11517   2.924   8.455   3.543  0.0162  1.2536 -0.4405
  809MOL0     C11518   2.831   8.393   3.649  0.9303  0.2808  0.5655
  809MOL0     C11519   2.897   8.257   3.678 -0.0078 -0.3667 -0.4462
  809MOL0     C11520   2.801   8.142   3.725  0.9285 -0.6659  0.5593
  809MOL0     N11521   2.866   8.014   3.752  0.4968  0.1374 -0.3266
  809MOL0     C11522   2.892   7.926   3.652  0.7107 -0.0017  0.6379
  809MOL0     C11523   2.957   7.830   3.717 -0.0192  0.3140 -0.3724
  809MOL0     C11524   3.004   7.697   3.659  0.0197 -0.8533 -0.1014
  809MOL0     C11525   3.158   7.693   3.658 -0.5207  1.2650 -0.2058
  809MOL0     C11526   3.210   7.671   3.794 -1.3749  0.7447  0.2113
  809MOL0     C11527   3.356   7.613   3.799 -0.0561  0.0276  0.0673
  809MOL0     O11528   3.447   7.701   3.732 -0.3617 -0.2798 -0.0428
  809MOL0     C11529   3.527   7.783   3.814  0.1470  0.9063  0.3859
  809MOL0     C11530   3.479   7.855   3.924 -0.1092  1.0426  0.3654
  809MOL0     C11531   3.568   7.929   4.007  0.5486 -0.8417 -1.6431
  809MOL0     C11532   3.505   7.986   4.134 -0.3241  0.8679  0.8888
  809MOL0     C11533   3.703   7.928   3.972 -0.7540 -0.0527  1.5202
  809MOL0     C11534   3.807   8.010   4.039  0.5967 -1.2925  1.0161
  809MOL0     O11535   3.902   8.069   3.957  0.5112  0.2369 -0.6163
  809MOL0     C11536   4.002   8.137   4.016  0.2546 -0.3410  0.8070
  809MOL0     C11537   4.135   8.091   3.976 -0.0782 -1.0058 -0.5967
  809MOL0     C11538   4.252   8.144   4.024  0.0368 -0.8202  0.2004
  809MOL0     C11539   4.246   8.240   4.128  0.5042  0.3678 -0.0169
  809MOL0     O11540   4.353   8.285   4.193  0.0038  0.7633  0.4829
  809MOL0     C11541   4.461   8.189   4.209 -0.3856  0.0100  0.1937
  809MOL0     C11542   4.531   8.209   4.352 -0.2304 -0.4146  0.3706
  809MOL0     C11543   4.618   8.329   4.362 -1.3968 -0.1376 -0.6511
  809MOL0     C11544   4.766   8.295   4.329  0.1489 -0.4527 -0.5650
  809MOL0     C11545   4.842   8.420   4.292 -0.0615  0.0459 -0.0274
  809MOL0     C11546   4.987   8.396   4.265 -0.0493 -0.0885 -0.7226
  809MOL0     C11547   5.048   8.511   4.188 -0.6424 -0.1588  0.2473
  809MOL0     C11548   5.198   8.476   4.153  0.0452  0.1368  0.5718
  809MOL0    Cl11549   5.190   8.364   4.014  0.0714  0.1232 -0.1431
  809MOL0     C11550   4.119   8.287   4.163 -0.1803 -0.6669  0.8687
  809MOL0     C11551   4.002   8.252   4.099  0.3551 -0.2388 -0.8285
  809MOL0     O11552   3.803   8.015   4.159  0.1472 -1.0525 -0.3258
  809MOL0     C11553   3.746   7.869   3.857 -0.4109 -0.0077  0.7110
  809MOL0     C11554   3.659   7.797   3.778 -0.6041  1.3787  0.0642
  809MOL0     N11555   2.967   7.863   3.854 -0.1537  0.4285 -0.1919
  809MOL0     N11556   2.905   7.972   3.875  0.3110  0.1409  0.6136
  809MOL0     C11557   2.858   9.154   3.675  0.8296  0.6152 -0.6535
  809MOL0     C11558   2.741   9.225   3.662 -0.4613  0.8453 -1.0810
  809MOL0     C11559   2.386   9.456   3.460 -0.3966 -0.2137  0.7902
  809MOL0     C11560   2.306   9.451   3.347  0.5711 -0.0902  0.0083
  809MOL0     C11561   2.172   9.500   3.345  0.4425  0.0433  0.3079
  809MOL0     C11562   2.112   9.560   3.455 -0.6530  0.8722  0.0553
  809MOL0     O11563   1.986   9.605   3.462 -0.8117 -0.2662 -0.3195
  809MOL0     C11564   1.906   9.613   3.345  0.5305 -0.3436 -0.0339
  809MOL0     C11565   1.796   9.718   3.370 -0.6193  0.6592  0.7228
  809MOL0     C11566   1.702   9.677   3.481  0.8054  0.3182 -0.1620
  809MOL0     C11567   1.549   9.704   3.458 -0.2745  0.5077 -0.2298
  809MOL0     C11568   1.477   9.686   3.584 -0.1556 -0.1548 -0.0058
  809MOL0     C11569   1.423   9.656   3.691 -0.2211  0.1136  0.0017
  809MOL0     C11570   2.187   9.557   3.567 -0.2525  0.5332 -1.1411
  809MOL0     C11571   2.317   9.508   3.574  0.6192  0.8614  0.6536
  809MOL0     C11572   2.380   9.512   3.713 -1.3129  0.0018  0.4424
  809MOL0     H11573   2.776   9.379   3.371 -0.0545  0.2540  0.5420
  809MOL0     H11574   2.983   9.218   3.374  2.7004 -3.8393  2.4241
  809MOL0     H11575   3.043   8.947   3.733  0.6284 -0.8539  0.2066
  809MOL0     H11576   3.146   8.888   3.604  1.8425  0.6579  2.1777
  809MOL0     H11577   2.844   8.888   3.607  0.1906 -0.6593  0.9602
  809MOL0     H11578   2.944   8.876   3.459  1.3342 -1.1004  0.4213
  809MOL0     H11579   3.070   8.689   3.568 -0.1499 -0.2462 -0.9890
  809MOL0     H11580   2.956   8.697   3.707 -0.1221 -2.3370 -0.6762
  809MOL0     H11581   2.778   8.622   3.548  1.2563 -1.3208  3.3992
  809MOL0     H11582   2.899   8.627   3.414  1.4169 -1.6528 -0.4164
  809MOL0     H11583   3.027   8.432   3.573 -0.4073 -5.5814 -2.4568
  809MOL0     H11584   2.909   8.398   3.450  2.2081 -0.6474  0.2682
  809MOL0     H11585   2.849   8.453   3.739  1.6047  1.4443 -0.3140
  809MOL0     H11586   2.724   8.387   3.626  0.7744  2.0169  0.6989
  809MOL0     H11587   2.982   8.267   3.747 -0.3425 -2.1461  0.2798
  809MOL0     H11588   2.936   8.224   3.581 -0.7736  1.5082 -1.4261
  809MOL0     H11589   2.745   8.175   3.813 -4.8444  1.2048 -3.2321
  809MOL0     H11590   2.714   8.132   3.659  1.2918  0.5606 -0.1261
  809MOL0     H11591   2.861   7.922   3.548 -1.1200 -3.6065  1.1678
  809MOL0     H11592   2.973   7.705   3.555  0.7529 -0.4580 -0.3000
  809MOL0     H11593   2.951   7.609   3.698  3.0618 -2.6884  0.3040
  809MOL0     H11594   3.180   7.607   3.593  1.3769  1.0727  0.6453
  809MOL0     H11595   3.207   7.784   3.624  0.0166  0.6193 -1.2402
  809MOL0     H11596   3.224   7.773   3.832  0.9504  0.6997 -0.4158
  809MOL0     H11597   3.149   7.604   3.855 -0.5124 -0.8004 -0.5875
  809MOL0     H11598   3.390   7.600   3.902  0.8523  1.0623 -0.0739
  809MOL0     H11599   3.362   7.514   3.753 -0.7429  0.1955 -0.3930
  809MOL0     H11600   3.375   7.835   3.948 -0.6299  1.0500 -1.6938
  809MOL0     H11601   3.500   8.095   4.121  1.4045  0.8551 -0.2132
  809MOL0     H11602   3.567   7.954   4.219 -0.6925 -1.0365  0.4804
  809MOL0     H11603   3.404   7.946   4.146 -0.2923 -0.5407 -2.4520
  809MOL0     H11604   4.124   8.011   3.904 -1.3395 -0.8758 -0.5735
  809MOL0     H11605   4.349   8.108   3.991  0.0522 -2.0383  1.4495
  809MOL0     H11606   4.423   8.087   4.202  0.2995 -0.3041  0.8918
  809MOL0     H11607   4.533   8.203   4.127 -1.2482 -3.3983 -1.3245
  809MOL0     H11608   4.451   8.222   4.425 -1.7331  3.3888 -1.6678
  809MOL0     H11609   4.593   8.121   4.373  1.7756  0.4478 -1.4945
  809MOL0     H11610   4.624   8.348   4.470  3.4752 -0.4566 -0.6463
  809MOL0     H11611   4.588   8.424   4.317  1.4462  1.7054  1.0454
  809MOL0     H11612   4.773   8.215   4.256  2.5991  1.5677 -2.7324
  809MOL0     H11613   4.817   8.261   4.420 -1.4327  3.5463  2.1044
  809MOL0     H11614   4.791   8.461   4.204  0.4953  0.1869 -0.2905
  809MOL0     H11615   4.826   8.499   4.367 -0.5470  1.1580 -1.2602
  809MOL0     H11616   4.995   8.302   4.209  0.1691 -0.7708  0.4241
  809MOL0     H11617   5.037   8.384   4.362 -0.6732 -0.3873 -0.4317
  809MOL0     H11618   5.051   8.600   4.253  1.0201  1.4755 -1.9327
  809MOL0     H11619   5.001   8.545   4.095 -0.0360 -2.3839 -0.9373
  809MOL0     H11620   5.249   8.430   4.237  0.6622 -1.6267 -0.7232
  809MOL0     H11621   5.246   8.567   4.117 -1.9316  1.4973  1.1646
  809MOL0     H11622   4.115   8.363   4.241 -0.2925  0.3755 -0.1127
  809MOL0     H11623   3.904   8.280   4.136 -0.1267 -4.6157  2.0485
  809MOL0     H11624   3.850   7.886   3.830  0.0673 -1.8410  1.3105
  809MOL0     H11625   3.689   7.737   3.692 -0.3821  1.1039  0.3315
  809MOL0     H11626   2.875   9.092   3.762 -0.6635  0.0381 -0.7466
  809MOL0     H11627   2.677   9.230   3.749  0.2559  0.0960 -0.5069
  809MOL0     H11628   2.349   9.423   3.251  0.6650 -1.4116  0.4266
  809MOL0     H11629   2.124   9.493   3.248 -1.0919  0.6906  0.9842
  809MOL0     H11630   1.963   9.656   3.262  0.3060 -0.0282 -0.0258
  809MOL0     H11631   1.861   9.517   3.319 -2.2010  0.9372 -0.4612
  809MOL0     H11632   1.738   9.733   3.278 -1.4854  0.5710  1.2411
  809MOL0     H11633   1.838   9.814   3.399 -0.9100  1.6383 -1.8262
  809MOL0     H11634   1.701   9.570   3.507  0.1082  0.9445  2.7666
  809MOL0     H11635   1.732   9.722   3.576 -1.6096  0.3143  0.6792
  809MOL0     H11636   1.519   9.624   3.390  1.3532 -0.9976  0.7419
  809MOL0     H11637   1.536   9.810   3.434  1.4679  1.1301  1.3188
  809MOL0     H11638   1.370   9.616   3.775 -0.3414 -0.7026 -0.4572
  809MOL0     H11639   2.139   9.593   3.657 -0.1239  0.0867 -0.8886
  809MOL0     H11640   2.326   9.572   3.787 -2.1316 -0.0614 -0.0790
  809MOL0     H11641   2.392   9.412   3.755  2.7066 -0.0785 -0.5134
  809MOL0     H11642   2.476   9.564   3.709 -1.1507  0.1620  3.9229
  810MOL0     O11643   7.068   6.309   5.838  0.3104 -0.4260 -0.1555
  810MOL0     C11644   6.979   6.240   5.783  0.1304  0.1967  0.1181
  810MOL0     O11645   6.964   6.228   5.650  0.2868 -0.1444 -0.0617
  810MOL0     C11646   7.056   6.287   5.562  0.1534 -0.4382  0.3271
  810MOL0     C11647   7.154   6.198   5.510 -0.5840  0.2967 -0.2396
  810MOL0     C11648   7.266   6.240   5.430 -0.2043  0.4353 -0.5197
  810MOL0     C11649   7.278   6.367   5.388  0.2027 -0.5006  0.4852
  810MOL0     O11650   7.395   6.407   5.327  1.2933 -0.1176 -0.3937
  810MOL0     C11651   7.397   6.534   5.253  0.0828  0.1615  0.0436
  810MOL0     C11652   7.525   6.551   5.178 -0.5530 -0.3916  0.7791
  810MOL0     C11653   7.649   6.539   5.266  0.3669  0.5218 -0.0351
  810MOL0     C11654   7.773   6.498   5.187  1.7191  0.1167  0.0700
  810MOL0     C11655   7.899   6.520   5.260  0.8300 -0.0288  0.4305
  810MOL0     C11656   8.022   6.470   5.190 -0.2787  0.6017 -1.0534
  810MOL0     C11657   8.081   6.344   5.250  1.2174 -1.1531 -0.3391
  810MOL0     C11658   8.204   6.309   5.173 -1.7565  1.3432  1.1489
  810MOL0     N11659   8.296   6.218   5.247  0.0608 -0.1011  0.6726
  810MOL0     C11660   8.350   6.254   5.364  0.6095  0.2896  0.1225
  810MOL0     C11661   8.430   6.151   5.401 -0.0585 -0.1597  0.3115
  810MOL0     C11662   8.505   6.144   5.528  0.1969  0.3987  0.3167
  810MOL0     C11663   8.643   6.196   5.526  0.3882  0.3307  0.0669
  810MOL0     C11664   8.647   6.331   5.452 -1.1617  0.2849  0.1342
  810MOL0     C11665   8.796   6.361   5.413  0.4997 -0.0388 -0.5163
  810MOL0     O11666   8.882   6.328   5.523 -0.6017 -0.0553  0.4191
  810MOL0     C11667   9.017   6.332   5.501 -0.0559  0.5049  0.3929
  810MOL0     C11668   9.081   6.223   5.447  0.3908 -0.4583  0.5291
  810MOL0     C11669   9.218   6.223   5.448  0.2459 -0.4066 -0.5390
  810MOL0     C11670   9.294   6.107   5.398  0.3167 -0.5984  0.4539
  810MOL0     C11671   9.295   6.337   5.492 -0.0904 -0.2811 -1.1083
  810MOL0     C11672   9.437   6.332   5.521 -0.3766  0.4161 -0.6967
  810MOL0     O11673   9.514   6.438   5.488  0.5240 -0.2098 -0.2770
  810MOL0     C11674   9.648   6.436   5.473 -0.4209  0.2056  0.2833
  810MOL0     C11675   9.719   6.552   5.492  0.0810  0.9818 -0.1002
  810MOL0     C11676   9.862   6.547   5.495 -0.4185  0.3211 -0.1821
  810MOL0     C11677   9.931   6.426   5.483  0.6353  0.4280  0.9225
  810MOL0     O11678  10.067   6.410   5.491 -0.0294  0.5059 -0.3100
  810MOL0     C11679  10.144   6.535   5.472 -0.1702 -0.4309  0.1163
  810MOL0     C11680  10.297   6.483   5.478  0.8386 -0.5714 -0.4584
  810MOL0     C11681  10.401   6.590   5.508 -0.6690  0.4210 -0.2248
  810MOL0     C11682  10.388   6.709   5.412  0.4840  0.0878  0.5749
  810MOL0     C11683  10.506   6.807   5.444  0.2259 -0.5534  0.5527
  810MOL0     C11684  10.510   6.929   5.352  0.8835 -0.3606 -0.6449
  810MOL0     C11685  10.633   7.019   5.353  0.4570  0.1090  0.2395
  810MOL0     C11686  10.751   6.929   5.305  1.4296 -0.4936  0.6276
  810MOL0    Cl11687  10.897   7.029   5.278  0.2793  0.2568  0.0163
  810MOL0     C11688   9.854   6.311   5.447  0.1058  0.4411 -1.5090
  810MOL0     C11689   9.716   6.314   5.442  0.2828 -0.2928  0.5932
  810MOL0     O11690   9.482   6.230   5.573 -0.2341 -0.7038 -0.4094
  810MOL0     C11691   9.222   6.451   5.523  0.3118 -0.4979  0.3796
  810MOL0     C11692   9.087   6.450   5.523  0.4739  0.1969  0.0402
  810MOL0     N11693   8.408   6.049   5.308  0.3165  0.6140 -0.0548
  810MOL0     N11694   8.327   6.087   5.215  0.3617  0.4991  0.0242
  810MOL0     C11695   7.171   6.460   5.427 -0.5695 -0.0677 -0.0126
  810MOL0     C11696   7.061   6.418   5.509  0.2690 -0.3248 -0.5217
  810MOL0     C11697   6.896   6.148   5.860 -0.4204 -0.2253 -0.2999
  810MOL0     C11698   6.790   6.088   5.792 -0.3445  0.0402 -0.9348
  810MOL0     C11699   6.700   6.000   5.864 -0.5476 -0.2363  0.0018
  810MOL0     C11700   6.721   5.972   5.994  0.1922  0.6168 -0.1048
  810MOL0     O11701   6.637   5.880   6.064  0.2273 -0.7667 -0.2786
  810MOL0     C11702   6.585   5.768   5.992 -0.2745 -0.4288  0.6586
  810MOL0     C11703   6.555   5.663   6.095  0.2888  0.2975 -0.1699
  810MOL0     C11704   6.425   5.700   6.170  0.0959  0.1572  0.0709
  810MOL0     C11705   6.403   5.606   6.293  0.2304  0.2939  0.1720
  810MOL0     C11706   6.281   5.658   6.362  1.5338  0.5702  0.7611
  810MOL0     C11707   6.181   5.703   6.419  0.3942  0.2614 -0.1166
  810MOL0     C11708   6.828   6.032   6.062 -0.8755 -0.0640  0.1127
  810MOL0     C11709   6.917   6.123   5.999  0.1737 -0.5013 -0.7057
  810MOL0     C11710   7.007   6.192   6.104 -0.3394  0.0240 -0.4939
  810MOL0     H11711   7.166   6.100   5.553  0.3964 -0.6501 -2.4885
  810MOL0     H11712   7.350   6.172   5.420  0.9382  1.7163  0.0055
  810MOL0     H11713   7.392   6.621   5.319  2.5062  0.8399 -0.5742
  810MOL0     H11714   7.319   6.541   5.177  1.4087 -1.4641 -1.5514
  810MOL0     H11715   7.539   6.478   5.098  1.5120 -0.8681  1.5202
  810MOL0     H11716   7.519   6.652   5.136 -0.7209  0.3609  2.5252
  810MOL0     H11717   7.669   6.629   5.325  0.5816  0.7672 -0.4690
  810MOL0     H11718   7.625   6.466   5.343 -3.8982 -2.7039 -3.8830
  810MOL0     H11719   7.757   6.390   5.181 -2.2722  0.1670  4.3837
  810MOL0     H11720   7.769   6.553   5.092 -0.2292 -1.5082 -0.8449
  810MOL0     H11721   7.898   6.477   5.361 -1.0327  0.3419  0.6079
  810MOL0     H11722   7.897   6.626   5.285 -1.9931  0.2718 -0.7171
  810MOL0     H11723   8.006   6.448   5.084  1.3512  0.5607 -1.3255
  810MOL0     H11724   8.102   6.545   5.196  2.6025 -2.0350 -3.1004
  810MOL0     H11725   8.002   6.269   5.259 -2.3815  2.3914  0.8458
  810MOL0     H11726   8.106   6.368   5.354 -0.6451 -1.7643  0.2926
  810MOL0     H11727   8.168   6.267   5.078  1.4508  3.6227 -1.2896
  810MOL0     H11728   8.255   6.401   5.140 -1.1928  0.0286 -2.0132
  810MOL0     H11729   8.329   6.344   5.420  0.2595 -0.9514  2.0887
  810MOL0     H11730   8.506   6.043   5.569 -1.6506  1.7329  4.1480
  810MOL0     H11731   8.456   6.211   5.600 -0.5081 -0.5561  0.7437
  810MOL0     H11732   8.678   6.195   5.630 -2.8205  0.5861  1.2798
  810MOL0     H11733   8.711   6.134   5.467  0.6149 -0.7336  1.3821
  810MOL0     H11734   8.589   6.338   5.360  1.2490  3.1250 -1.3314
  810MOL0     H11735   8.597   6.404   5.517  0.5627  0.9724  0.7568
  810MOL0     H11736   8.817   6.305   5.321 -3.5803 -1.0889 -1.0410
  810MOL0     H11737   8.808   6.463   5.375 -0.5115  1.1200  2.0604
  810MOL0     H11738   9.032   6.129   5.422 -0.7762 -0.3960  2.3552
  810MOL0     H11739   9.290   6.031   5.476 -0.9803 -0.5850  0.4223
  810MOL0     H11740   9.393   6.140   5.364  0.2124  1.1301  1.6411
  810MOL0     H11741   9.246   6.064   5.310 -0.7824  2.7997 -0.7769
  810MOL0     H11742   9.674   6.648   5.514  0.4709  1.6156 -1.8946
  810MOL0     H11743   9.924   6.633   5.520  1.2650 -1.2893  1.5121
  810MOL0     H11744  10.119   6.583   5.377 -0.0992 -2.8203 -1.1788
  810MOL0     H11745  10.140   6.604   5.557 -1.8582  0.3673 -0.5624
  810MOL0     H11746  10.313   6.407   5.554 -0.5896  1.3665  1.9338
  810MOL0     H11747  10.319   6.439   5.380 -1.4907  1.6569 -2.1013
  810MOL0     H11748  10.500   6.548   5.490 -0.9541 -0.2538 -0.2852
  810MOL0     H11749  10.404   6.616   5.614 -2.0727 -0.2796  0.0217
  810MOL0     H11750  10.289   6.755   5.421  0.6516  0.9742 -1.5313
  810MOL0     H11751  10.393   6.678   5.307 -0.8668  0.3872  0.4033
  810MOL0     H11752  10.512   6.844   5.547  0.4350  1.1050 -0.0210
  810MOL0     H11753  10.599   6.751   5.430  1.4759  0.8558  2.6616
  810MOL0     H11754  10.427   6.999   5.368  2.5805  1.4946  0.4585
  810MOL0     H11755  10.491   6.882   5.255  1.4222 -1.8464 -0.0625
  810MOL0     H11756  10.646   7.063   5.452 -0.9176 -0.9020  0.9156
  810MOL0     H11757  10.618   7.100   5.281  4.4818  2.2818  1.6047
  810MOL0     H11758  10.714   6.886   5.211 -4.7609  0.4083  2.2099
  810MOL0     H11759  10.775   6.846   5.373 -1.1794  0.0833  2.3684
  810MOL0     H11760   9.911   6.220   5.428 -0.4103  0.0697 -1.2998
  810MOL0     H11761   9.665   6.222   5.416 -2.3305  1.5251 -1.2894
  810MOL0     H11762   9.278   6.542   5.544  0.0185  0.0823 -1.1892
  810MOL0     H11763   9.022   6.531   5.554 -3.3556 -2.4493 -0.2646
  810MOL0     H11764   7.173   6.562   5.392 -1.9769 -0.7437 -2.2287
  810MOL0     H11765   6.981   6.488   5.528  0.4528 -0.6132  1.6105
  810MOL0     H11766   6.775   6.116   5.689  0.7963  1.3039 -0.7924
  810MOL0     H11767   6.621   5.954   5.806 -0.6089 -0.1153 -0.0110
  810MOL0     H11768   6.500   5.793   5.929  0.3393 -0.2642 -0.1222
  810MOL0     H11769   6.663   5.728   5.926 -0.0442 -1.5911  1.6156
  810MOL0     H11770   6.628   5.668   6.176 -1.2341  1.2448  1.2258
  810MOL0     H11771   6.543   5.563   6.055 -0.7915 -0.4134  1.7783
  810MOL0     H11772   6.433   5.792   6.228 -1.4647 -1.7010  3.5455
  810MOL0     H11773   6.343   5.705   6.098 -0.8408 -3.0202  0.7656
  810MOL0     H11774   6.485   5.611   6.366  2.0503 -0.1497 -1.7274
  810MOL0     H11775   6.386   5.500   6.269 -0.3533  0.6206 -0.8901
  810MOL0     H11776   6.086   5.712   6.467  0.7826 -0.4395  0.8274
  810MOL0     H11777   6.849   5.998   6.163 -1.9725  2.0742  1.1181
  810MOL0     H11778   7.051   6.127   6.180  2.6180  1.7096 -0.6393
  810MOL0     H11779   7.096   6.240   6.061  0.5419  1.3246  2.5512
  810MOL0     H11780   6.955   6.274   6.154 -2.2198 -2.4726  1.9732
  811MOL0     O11781  10.759   9.353   3.047  0.0684  0.8245  0.2289
  811MOL0     C11782  10.800   9.281   2.957  0.3689  0.5931 -0.3465
  811MOL0     O11783  10.879   9.164   2.969  0.4826  0.3446 -0.5784
  811MOL0     C11784  10.920   9.120   3.096  0.1527  0.4673  0.6497
  811MOL0     C11785  10.964   9.214   3.190  0.0823  0.1983 -0.0435
  811MOL0     C11786  11.017   9.178   3.318  0.1009 -0.5308  0.3762
  811MOL0     C11787  11.023   9.044   3.352 -0.5148 -0.4860 -0.5326
  811MOL0     O11788  11.063   8.990   3.473 -0.1726  0.0245  0.0940
  811MOL0     C11789  11.166   9.055   3.545  0.0713  0.0615 -0.4402
  811MOL0     C11790  11.218   8.965   3.664 -0.6242  0.5653  0.2586
  811MOL0     C11791  11.348   9.014   3.726 -0.8335 -0.2565  0.7927
  811MOL0     C11792  11.405   8.909   3.823 -0.3258  0.3354 -0.0680
  811MOL0     C11793  11.515   8.965   3.915 -0.1212 -0.2648  0.0816
  811MOL0     C11794  11.451   9.023   4.036  0.0696 -0.5454  0.2681
  811MOL0     C11795  11.551   9.065   4.141  0.5325 -0.6229 -0.0948
  811MOL0     C11796  11.480   9.129   4.259 -0.8691  0.5489  0.1446
  811MOL0     N11797  11.565   9.174   4.375 -0.9673  0.0531 -1.1485
  811MOL0     C11798  11.521   9.190   4.504 -0.9330  0.5122  0.0348
  811MOL0     C11799  11.632   9.213   4.572  0.6416  0.0467 -0.5797
  811MOL0     C11800  11.640   9.234   4.724  0.4313  0.0910 -0.2423
  811MOL0     C11801  11.724   9.357   4.759 -0.1603  0.7315  1.1019
  811MOL0     C11802  11.720   9.384   4.909  0.0730  0.0136  0.6223
  811MOL0     C11803  11.826   9.489   4.963  0.5177  0.0210  0.3533
  811MOL0     O11804  11.783   9.622   4.921 -1.1621 -0.5568  0.4081
  811MOL0     C11805  11.834   9.740   4.973  1.1606  0.1323  0.7172
  811MOL0     C11806  11.938   9.744   5.064 -0.5906  0.3937  0.0141
  811MOL0     C11807  11.956   9.863   5.140 -0.0264  0.2030  0.0274
  811MOL0     C11808  12.054   9.856   5.259 -0.1583  0.7082  0.5024
  811MOL0     C11809  11.874   9.973   5.105 -0.4448 -0.2274 -0.4066
  811MOL0     C11810  11.884  10.105   5.185  1.2758 -0.4509 -0.7249
  811MOL0     O11811  11.824  10.205   5.134  0.0261 -0.4410 -0.1827
  811MOL0     C11812  11.810  10.324   5.194 -0.3709  0.6400  0.1255
  811MOL0     C11813  11.889  10.432   5.149 -0.0569  0.3732 -1.3014
  811MOL0     C11814  11.877  10.555   5.216 -0.6687  0.1254 -0.0359
  811MOL0     C11815  11.782  10.567   5.319 -0.5463  0.5109 -0.0078
  811MOL0     O11816  11.776  10.687   5.364  0.2293 -0.4694 -0.1133
  811MOL0     C11817  11.663  10.738   5.449  0.0846 -0.4083  0.2279
  811MOL0     C11818  11.684  10.744   5.600 -0.2795 -0.4809 -0.3118
  811MOL0     C11819  11.572  10.808   5.679 -0.1435 -0.1327  0.5751
  811MOL0     C11820  11.609  10.785   5.828  0.0751 -0.5302  1.0104
  811MOL0     C11821  11.474  10.806   5.905 -0.0359  0.1007  1.4969
  811MOL0     C11822  11.471  10.753   6.044 -0.3750 -0.5155  0.0108
  811MOL0     C11823  11.342  10.790   6.124  0.6352  0.6477 -0.2070
  811MOL0     C11824  11.367  10.771   6.273  0.3841  0.1469 -0.1286
  811MOL0    Cl11825  11.228  10.814   6.374 -0.2015  0.0651 -0.5667
  811MOL0     C11826  11.708  10.460   5.363 -1.0014  0.2592  0.0423
  811MOL0     C11827  11.722  10.336   5.301  0.1145 -0.4717 -0.5408
  811MOL0     O11828  11.924  10.100   5.303 -0.2388  0.3493 -0.7635
  811MOL0     C11829  11.778   9.968   4.990 -0.3550  0.4015 -0.3056
  811MOL0     C11830  11.756   9.844   4.930 -0.4703  0.3009  1.1478
  811MOL0     N11831  11.741   9.237   4.483 -0.1699 -0.3647  0.3203
  811MOL0     N11832  11.697   9.207   4.367  0.0994 -1.0214 -0.4460
  811MOL0     C11833  10.974   8.947   3.264 -0.4855  0.8924  0.2384
  811MOL0     C11834  10.923   8.984   3.138 -1.1414 -0.5377 -0.6901
  811MOL0     C11835  10.779   9.341   2.820  0.9078 -0.5411 -0.6390
  811MOL0     C11836  10.780   9.480   2.801 -0.5242  0.2651  0.3220
  811MOL0     C11837  10.773   9.531   2.674  0.4480 -0.1736 -0.3466
  811MOL0     C11838  10.732   9.449   2.563  0.1781 -0.0801 -0.3305
  811MOL0     O11839  10.704   9.508   2.448  0.6793 -0.0360 -0.0997
  811MOL0     C11840  10.816   9.588   2.406 -0.4357  0.4620 -0.1610
  811MOL0     C11841  10.783   9.633   2.258 -0.5772  0.4362 -0.0627
  811MOL0     C11842  10.889   9.735   2.201 -0.8077 -0.8145 -0.0290
  811MOL0     C11843  10.828   9.802   2.070  0.2028  0.5218 -0.3216
  811MOL0     C11844  10.830   9.724   1.949 -0.1779  0.3479 -0.1772
  811MOL0     C11845  10.819   9.659   1.848 -0.3891  0.2831 -0.6152
  811MOL0     C11846  10.717   9.312   2.582 -1.0953  0.3547  0.1764
  811MOL0     C11847  10.739   9.263   2.710  1.0316  0.0172  0.2097
  811MOL0     C11848  10.706   9.118   2.730  0.5013  0.2747 -0.7300
  811MOL0     H11849  10.959   9.320   3.169 -2.4164  0.4021  1.1637
  811MOL0     H11850  11.066   9.246   3.387  1.6076  0.0040 -1.1671
  811MOL0     H11851  11.140   9.153   3.586 -0.5894 -1.2498  2.5550
  811MOL0     H11852  11.254   9.069   3.482  2.6689 -1.8450  2.4865
  811MOL0     H11853  11.148   8.946   3.746 -0.1657 -0.9818  0.3391
  811MOL0     H11854  11.247   8.873   3.611  1.4900  1.2336  0.1418
  811MOL0     H11855  11.431   9.027   3.657  0.0084  1.6781  2.0758
  811MOL0     H11856  11.321   9.104   3.783  4.6133  0.4596  2.8451
  811MOL0     H11857  11.323   8.852   3.868 -1.7639  1.4523 -1.1850
  811MOL0     H11858  11.458   8.831   3.768 -0.8898 -0.4606  0.4974
  811MOL0     H11859  11.575   9.047   3.874 -2.0544  0.9674 -0.4487
  811MOL0     H11860  11.579   8.881   3.942 -0.5110 -1.2627 -1.9041
  811MOL0     H11861  11.394   9.107   3.998 -0.7236 -1.3638 -0.4005
  811MOL0     H11862  11.375   8.955   4.076 -2.2926  2.8009  1.9061
  811MOL0     H11863  11.632   9.122   4.095  1.7085 -0.7546  1.7124
  811MOL0     H11864  11.589   8.974   4.187 -0.7944 -0.6403  1.0421
  811MOL0     H11865  11.414   9.209   4.225 -2.2306 -0.4564  0.3034
  811MOL0     H11866  11.420   9.046   4.298 -2.9176  1.7150 -0.3464
  811MOL0     H11867  11.427   9.182   4.557 -0.7556  2.5701  0.7480
  811MOL0     H11868  11.699   9.149   4.759 -0.7177 -0.4374  0.4591
  811MOL0     H11869  11.545   9.243   4.777  0.4147 -1.0320 -0.0650
  811MOL0     H11870  11.828   9.335   4.733  0.8288 -0.0238  5.0257
  811MOL0     H11871  11.694   9.440   4.694  0.5582  0.8755  0.9338
  811MOL0     H11872  11.625   9.437   4.923  0.3924  1.7199 -2.6547
  811MOL0     H11873  11.732   9.289   4.961 -2.2633 -0.0761  1.0887
  811MOL0     H11874  11.810   9.480   5.071 -2.3962 -0.0395 -0.0054
  811MOL0     H11875  11.932   9.466   4.945  0.5990  0.3794  0.3762
  811MOL0     H11876  12.004   9.666   5.100 -0.4580 -0.2972 -1.6549
  811MOL0     H11877  12.118   9.769   5.241 -0.5047  1.1620 -3.9769
  811MOL0     H11878  11.986   9.853   5.345 -2.3421 -3.2307 -1.1124
  811MOL0     H11879  12.123   9.940   5.251 -0.9898  1.3016 -0.9278
  811MOL0     H11880  11.958  10.424   5.065  0.6821  0.6831 -0.7375
  811MOL0     H11881  11.938  10.635   5.176  1.1551 -1.0616  0.2339
  811MOL0     H11882  11.652  10.846   5.433  3.3727  0.6113  3.3780
  811MOL0     H11883  11.569  10.681   5.445 -0.1231 -0.0630  0.0725
  811MOL0     H11884  11.692  10.639   5.632 -4.2347 -1.2866 -1.3960
  811MOL0     H11885  11.772  10.804   5.625 -1.9490  2.0709 -0.2150
  811MOL0     H11886  11.472  10.775   5.652 -0.7980  2.5278 -0.5944
  811MOL0     H11887  11.577  10.916   5.661  5.5780 -0.0697  0.4818
  811MOL0     H11888  11.664  10.871   5.866  0.5964 -0.9546  1.2327
  811MOL0     H11889  11.643  10.685   5.856 -1.1786 -0.7914  1.6859
  811MOL0     H11890  11.440  10.909   5.896 -0.4787 -0.2114 -1.4002
  811MOL0     H11891  11.398  10.745   5.855  1.4037 -1.2869  0.8870
  811MOL0     H11892  11.559  10.788   6.098  0.1259  1.4287 -1.9266
  811MOL0     H11893  11.481  10.644   6.052 -2.1173 -0.6488  0.8868
  811MOL0     H11894  11.260  10.721   6.103 -1.4113  1.9341  2.7499
  811MOL0     H11895  11.307  10.893   6.112 -1.8657 -0.1888 -0.6686
  811MOL0     H11896  11.450  10.838   6.297 -0.2521  1.1512 -0.6542
  811MOL0     H11897  11.392  10.665   6.285 -0.4646 -0.2516 -1.5459
  811MOL0     H11898  11.628  10.472   5.435 -0.2295  1.7239  0.6867
  811MOL0     H11899  11.653  10.263   5.342 -0.3242  1.0384  1.6260
  811MOL0     H11900  11.704  10.040   4.959  0.4602  1.1537 -0.5480
  811MOL0     H11901  11.675   9.840   4.858  0.5209 -4.7194 -0.0433
  811MOL0     H11902  10.987   8.841   3.287  2.0010  1.6332  2.7434
  811MOL0     H11903  10.877   8.907   3.077  1.7079 -1.1757 -2.1739
  811MOL0     H11904  10.789   9.537   2.893  0.1795  0.8797 -0.1182
  811MOL0     H11905  10.759   9.637   2.661 -2.4474 -0.3112  0.8319
  811MOL0     H11906  10.820   9.675   2.472 -2.7393  0.8132 -0.3984
  811MOL0     H11907  10.915   9.543   2.408 -0.6566 -0.1730 -1.9586
  811MOL0     H11908  10.687   9.684   2.263  0.5389  2.8003 -1.3263
  811MOL0     H11909  10.784   9.543   2.195  2.1963  0.4343 -0.1310
  811MOL0     H11910  10.919   9.810   2.275  0.7775 -0.1695 -1.2558
  811MOL0     H11911  10.982   9.685   2.172 -1.5729 -1.0715 -2.2529
  811MOL0     H11912  10.882   9.896   2.051  1.8493 -0.2380  0.3638
  811MOL0     H11913  10.727   9.825   2.105  0.0467  0.8655 -0.9695
  811MOL0     H11914  10.821   9.583   1.772  1.1126  0.6057 -0.9301
  811MOL0     H11915  10.690   9.254   2.495 -2.1260  1.7363 -0.4553
  811MOL0     H11916  10.644   9.105   2.819 -0.0269  1.6421 -0.8761
  811MOL0     H11917  10.640   9.091   2.647 -0.8730  4.6309 -1.2775
  811MOL0     H11918  10.795   9.054   2.729  1.2216  1.1262  1.7216
  812MOL0     O11919   3.174   2.594   5.823 -0.2620  0.5645  0.1506
  812MOL0     C11920   3.070   2.631   5.870  0.1047  0.1041  0.7574
  812MOL0     O11921   3.017   2.587   5.987  0.2035  0.4368  0.3568
  812MOL0     C11922   3.096   2.499   6.056  0.0644 -0.0339  0.8134
  812MOL0     C11923   3.126   2.537   6.189  0.3312  0.1974 -0.0788
  812MOL0     C11924   3.214   2.458   6.263 -0.2564 -0.6235 -0.2973
  812MOL0     C11925   3.269   2.336   6.210  0.0138  0.1101  0.5541
  812MOL0     O11926   3.339   2.247   6.284  0.3736  0.4952 -0.0877
  812MOL0     C11927   3.409   2.299   6.399 -0.2288 -0.2907  0.1032
  812MOL0     C11928   3.516   2.192   6.418 -0.1663  0.3082 -0.0461
  812MOL0     C11929   3.599   2.224   6.547 -0.5556 -0.2152  0.0028
  812MOL0     C11930   3.535   2.165   6.676 -0.6311 -0.1430 -0.1815
  812MOL0     C11931   3.632   2.202   6.792 -0.0227 -0.1284 -0.3555
  812MOL0     C11932   3.749   2.107   6.817 -0.0653 -0.9978 -0.3314
  812MOL0     C11933   3.842   2.156   6.936  0.2326  0.3783 -0.8449
  812MOL0     C11934   3.768   2.150   7.069  0.4349  0.1771 -0.7442
  812MOL0     N11935   3.864   2.174   7.182  0.1856 -0.3327 -0.1843
  812MOL0     C11936   3.909   2.285   7.244 -0.8320 -0.0998 -0.2678
  812MOL0     C11937   3.989   2.244   7.347  0.7986  1.0186 -0.1860
  812MOL0     C11938   4.072   2.337   7.435 -0.0437  0.1663  0.3677
  812MOL0     C11939   4.008   2.382   7.562  0.0486 -0.6198 -0.1900
  812MOL0     C11940   4.099   2.493   7.624  0.2466  0.5108 -0.7046
  812MOL0     C11941   4.231   2.438   7.681  0.0001  0.7948 -0.3685
  812MOL0     O11942   4.218   2.319   7.772  0.0334 -0.8559  0.3045
  812MOL0     C11943   4.330   2.280   7.848  0.3511  0.0269 -0.1435
  812MOL0     C11944   4.463   2.311   7.799  0.1388 -1.0531 -0.5387
  812MOL0     C11945   4.578   2.256   7.865  0.3527 -0.6610 -0.8683
  812MOL0     C11946   4.714   2.295   7.833 -0.2540 -0.5955  0.5154
  812MOL0     C11947   4.555   2.158   7.961  0.4151  0.4739 -0.0490
  812MOL0     C11948   4.661   2.095   8.050 -0.2674  0.4125 -0.5644
  812MOL0     O11949   4.635   2.055   8.172 -1.3294 -0.4890  0.0808
  812MOL0     C11950   4.721   1.997   8.258 -0.2155  0.3517 -0.1952
  812MOL0     C11951   4.660   1.985   8.386  0.0522  0.6419  0.3131
  812MOL0     C11952   4.741   1.929   8.493 -0.1274  0.6665 -1.1165
  812MOL0     C11953   4.864   1.866   8.462  0.0280 -0.5989  0.0596
  812MOL0     O11954   4.940   1.810   8.566 -0.0947  0.2922 -0.1001
  812MOL0     C11955   4.926   1.828   8.710  0.2576  0.1741 -0.1584
  812MOL0     C11956   5.016   1.732   8.791  0.2893  0.5304 -0.7770
  812MOL0     C11957   4.972   1.585   8.782  0.3868  0.0367  0.0070
  812MOL0     C11958   5.028   1.483   8.880  0.2988 -0.3297  0.0892
  812MOL0     C11959   4.967   1.345   8.855  0.2579  0.6055  0.0710
  812MOL0     C11960   4.976   1.255   8.977 -0.2346  0.1325 -0.3531
  812MOL0     C11961   4.942   1.112   8.939  0.8011 -0.1018  0.0182
  812MOL0     C11962   4.941   1.021   9.055 -0.0523  0.3476 -0.1128
  812MOL0    Cl11963   5.106   1.000   9.098  0.0669  0.0212 -0.0126
  812MOL0     C11964   4.909   1.861   8.332  0.1789 -0.2050  0.7275
  812MOL0     C11965   4.836   1.924   8.228  0.8544  0.3496 -0.0296
  812MOL0     O11966   4.772   2.078   7.990 -0.2150  0.3934 -1.0365
  812MOL0     C11967   4.418   2.117   8.000 -0.5799  0.5748  0.1560
  812MOL0     C11968   4.310   2.185   7.943 -0.0276 -0.6877 -0.4660
  812MOL0     N11969   3.985   2.106   7.359 -0.2052 -0.6478  0.2760
  812MOL0     N11970   3.903   2.072   7.262  0.2877  0.7652  0.0052
  812MOL0     C11971   3.226   2.296   6.080 -0.1256  0.6482 -0.2654
  812MOL0     C11972   3.148   2.384   5.998  0.0835  0.9204  0.1916
  812MOL0     C11973   2.969   2.705   5.792 -0.3804 -0.7652  0.0491
  812MOL0     C11974   2.929   2.660   5.664 -0.4505 -0.0905 -0.6455
  812MOL0     C11975   2.842   2.732   5.582 -0.6756 -0.0363  0.8224
  812MOL0     C11976   2.790   2.852   5.614 -0.0968 -0.9138  0.3582
  812MOL0     O11977   2.703   2.929   5.541  0.8511  0.4774  0.1393
  812MOL0     C11978   2.643   2.861   5.423 -0.7390 -0.8755 -0.2385
  812MOL0     C11979   2.545   2.963   5.353 -0.2818  0.1733  0.0306
  812MOL0     C11980   2.407   2.969   5.412 -0.1698 -0.2636 -0.1498
  812MOL0     C11981   2.309   3.076   5.352 -0.3461  0.2929 -0.0215
  812MOL0     C11982   2.278   3.049   5.212  0.0545 -0.6358 -0.0871
  812MOL0     C11983   2.263   3.032   5.093 -0.5492 -0.3350 -0.0896
  812MOL0     C11984   2.821   2.898   5.745  0.5673  0.0678 -0.8372
  812MOL0     C11985   2.924   2.833   5.822  0.6395 -0.4235  0.4503
  812MOL0     C11986   2.967   2.904   5.947  0.0138  0.0356 -0.0351
  812MOL0     H11987   3.075   2.628   6.220 -1.3859 -0.2375 -1.4710
  812MOL0     H11988   3.236   2.491   6.364  1.5865  2.4286 -1.5803
  812MOL0     H11989   3.343   2.310   6.485 -0.7313  2.8000 -0.5558
  812MOL0     H11990   3.438   2.401   6.369  0.1696 -1.2034 -3.0112
  812MOL0     H11991   3.475   2.091   6.430  2.9252 -0.9069  1.3482
  812MOL0     H11992   3.588   2.182   6.335  0.6033  0.7506  0.5590
  812MOL0     H11993   3.697   2.177   6.537 -0.2631  0.6662 -1.6802
  812MOL0     H11994   3.623   2.331   6.542 -2.4714  0.1896 -2.3605
  812MOL0     H11995   3.438   2.206   6.704  0.0491 -1.0722  4.3598
  812MOL0     H11996   3.522   2.057   6.663  0.3965 -0.4720  1.2166
  812MOL0     H11997   3.569   2.208   6.882  0.4051  0.0842 -0.0643
  812MOL0     H11998   3.669   2.304   6.778  0.2640 -0.4914 -2.6197
  812MOL0     H11999   3.712   2.004   6.830 -0.5097 -1.0918 -2.1290
  812MOL0     H12000   3.812   2.099   6.727  1.6634 -1.9392  0.8941
  812MOL0     H12001   3.889   2.251   6.908  2.3935 -0.6409 -0.8931
  812MOL0     H12002   3.927   2.088   6.944 -0.4740 -0.4082  0.1841
  812MOL0     H12003   3.687   2.223   7.079 -1.3901 -1.8780  0.6656
  812MOL0     H12004   3.716   2.054   7.080 -2.0073  1.5264  0.2378
  812MOL0     H12005   3.894   2.388   7.215  0.4792  0.6807  1.6547
  812MOL0     H12006   4.097   2.420   7.368  0.2637  1.8428  2.4197
  812MOL0     H12007   4.169   2.292   7.458  0.8008  1.5677 -0.3133
  812MOL0     H12008   3.908   2.425   7.549 -0.7669 -1.7811  1.7404
  812MOL0     H12009   3.989   2.290   7.618 -0.0435 -1.3192 -1.3282
  812MOL0     H12010   4.124   2.574   7.554  1.3026 -0.7223 -1.8097
  812MOL0     H12011   4.061   2.536   7.717  1.9022 -1.0131  0.7631
  812MOL0     H12012   4.291   2.389   7.604 -0.4166 -0.3311 -0.0082
  812MOL0     H12013   4.282   2.519   7.733  2.1320 -0.5810 -0.2013
  812MOL0     H12014   4.478   2.387   7.724 -2.6354  0.2592  0.0976
  812MOL0     H12015   4.759   2.222   7.765 -2.7004 -1.1642 -0.6238
  812MOL0     H12016   4.769   2.302   7.928  1.6185 -1.5305 -0.4350
  812MOL0     H12017   4.723   2.387   7.775 -1.3824 -0.9925 -0.3164
  812MOL0     H12018   4.568   2.028   8.424 -0.3178 -0.3729  0.5752
  812MOL0     H12019   4.707   1.922   8.596 -0.8668  1.8368 -1.2675
  812MOL0     H12020   4.952   1.931   8.735  1.1550 -0.0313 -0.2165
  812MOL0     H12021   4.822   1.811   8.741  0.4927 -0.0622  0.5121
  812MOL0     H12022   5.116   1.749   8.749  0.8055 -0.1854  0.1252
  812MOL0     H12023   5.013   1.765   8.896 -1.0340 -1.9000  0.0095
  812MOL0     H12024   4.998   1.556   8.679  0.5944 -0.7698  0.2740
  812MOL0     H12025   4.865   1.568   8.796  0.8510 -0.8594  3.2569
  812MOL0     H12026   4.992   1.514   8.978 -1.3912 -1.7212 -0.0501
  812MOL0     H12027   5.137   1.487   8.880  0.2715  0.8951  0.3352
  812MOL0     H12028   4.860   1.365   8.843  0.7444  2.2238 -2.3429
  812MOL0     H12029   5.016   1.290   8.774 -0.2651 -1.9166  1.3839
  812MOL0     H12030   4.902   1.293   9.047  0.6825  1.1445  0.1011
  812MOL0     H12031   5.079   1.258   9.014 -0.3440 -0.8005  0.0636
  812MOL0     H12032   4.996   1.076   8.850  0.6571 -0.5278  0.1005
  812MOL0     H12033   4.839   1.119   8.905  0.2455 -0.9093  1.4512
  812MOL0     H12034   4.909   0.924   9.016  0.1443  0.9704 -1.8871
  812MOL0     H12035   4.883   1.065   9.137 -0.4747 -2.1712  1.0395
  812MOL0     H12036   4.999   1.804   8.312  0.5830  0.6021  0.1705
  812MOL0     H12037   4.870   1.896   8.128  1.1890 -0.7851  0.3872
  812MOL0     H12038   4.398   2.045   8.079  2.6716 -0.0364  0.5656
  812MOL0     H12039   4.208   2.169   7.973  0.0888  0.6448  0.7313
  812MOL0     H12040   3.258   2.198   6.045 -1.8485  0.1952 -0.6838
  812MOL0     H12041   3.124   2.343   5.901  2.0233  0.1092  0.0134
  812MOL0     H12042   2.971   2.570   5.621 -0.4604  0.0378 -0.9245
  812MOL0     H12043   2.815   2.686   5.487  2.4990 -0.3570 -0.0448
  812MOL0     H12044   2.721   2.837   5.351  1.8973  2.7997  1.1038
  812MOL0     H12045   2.589   2.773   5.457 -2.0897  0.6892  1.9177
  812MOL0     H12046   2.543   2.928   5.249  0.3703  2.1016 -0.6830
  812MOL0     H12047   2.583   3.066   5.351 -1.9411  0.8094 -0.7640
  812MOL0     H12048   2.356   2.873   5.400 -2.9660  0.6215  3.1170
  812MOL0     H12049   2.422   3.010   5.512  0.1902  1.5795 -0.9188
  812MOL0     H12050   2.363   3.171   5.367 -0.0249  0.2938 -1.0949
  812MOL0     H12051   2.222   3.080   5.418  1.2376 -0.5350  2.2485
  812MOL0     H12052   2.238   3.004   4.992  5.3058  0.9921 -2.3288
  812MOL0     H12053   2.776   2.989   5.783  1.3585  1.6639 -3.4628
  812MOL0     H12054   2.987   3.005   5.911 -0.5797 -0.3436 -1.4935
  812MOL0     H12055   2.892   2.905   6.026 -1.0426 -1.2416 -0.9887
  812MOL0     H12056   3.063   2.865   5.982  1.2510 -0.2548 -3.4140
  813MOL0     O12057   8.189  10.817   1.610  0.6622  0.0074  0.1324
  813MOL0     C12058   8.171  10.809   1.489  0.1376 -0.7245  0.3164
  813MOL0     O12059   8.238  10.729   1.401 -0.4989 -0.3564  0.5056
  813MOL0     C12060   8.372  10.700   1.407 -0.3032 -0.0550  0.8099
  813MOL0     C12061   8.461  10.769   1.486 -0.5024 -0.0205  0.5105
  813MOL0     C12062   8.596  10.733   1.482  0.2800 -0.5951  0.0818
  813MOL0     C12063   8.638  10.620   1.414  0.3478 -0.0454 -0.4188
  813MOL0     O12064   8.765  10.566   1.421 -0.8569 -0.7362 -0.4443
  813MOL0     C12065   8.850  10.601   1.530 -0.9841  0.8382  0.5668
  813MOL0     C12066   8.974  10.510   1.526 -1.1499 -0.2855 -0.3283
  813MOL0     C12067   9.097  10.593   1.488  0.0798  0.2756  0.1045
  813MOL0     C12068   9.152  10.681   1.602  0.8675  0.6971 -0.4168
  813MOL0     C12069   9.273  10.750   1.546 -0.0340  0.6166  0.1038
  813MOL0     C12070   9.352  10.808   1.661  0.6928 -0.0502 -0.2975
  813MOL0     C12071   9.482  10.877   1.612 -0.9316  0.9327 -1.0058
  813MOL0     C12072   9.591  10.774   1.574 -0.3047  0.1343 -0.2268
  813MOL0     N12073   9.693  10.846   1.503  0.3129 -0.5701  0.1321
  813MOL0     C12074   9.691  10.860   1.367  0.2232 -0.0910 -0.1426
  813MOL0     C12075   9.813  10.916   1.334 -0.3067  1.2969 -0.7907
  813MOL0     C12076   9.888  10.954   1.205  0.3242 -0.1782 -0.9809
  813MOL0     C12077   9.879  10.848   1.093  0.6204 -1.1687  0.7252
  813MOL0     C12078   9.984  10.885   0.989 -0.8385 -0.2749 -0.0878
  813MOL0     C12079  10.049  10.772   0.906  0.3319  0.4844  0.2915
  813MOL0     O12080   9.941  10.702   0.841 -0.1679  0.0896 -0.5059
  813MOL0     C12081   9.918  10.748   0.713 -0.6313  0.4950  0.3296
  813MOL0     C12082   9.786  10.782   0.686 -0.1313  0.1065  0.3135
  813MOL0     C12083   9.756  10.842   0.569  0.9606  0.1959 -0.0517
  813MOL0     C12084   9.609  10.874   0.546  0.6219  0.4751 -0.6169
  813MOL0     C12085   9.863  10.884   0.485  0.0777  0.1106 -0.4803
  813MOL0     C12086   9.850  10.986   0.375  0.6476  1.0652  0.5552
  813MOL0     O12087   9.947  10.978   0.280 -0.2765 -0.0758 -0.9154
  813MOL0     C12088   9.903  11.006   0.148 -0.2070  0.4340 -0.4767
  813MOL0     C12089   9.875  10.905   0.054 -0.9829 -0.3915  0.1728
  813MOL0     C12090   9.868  10.944  -0.082  0.2835 -0.2967  0.2032
  813MOL0     C12091   9.865  11.075  -0.123 -0.2999  0.1773  0.3064
  813MOL0     O12092   9.852  11.100  -0.261  0.7424 -0.0675  0.6626
  813MOL0     C12093   9.833  11.227  -0.303  0.3106 -0.0958 -0.0957
  813MOL0     C12094   9.847  11.240  -0.447 -0.4506 -0.5032 -0.0923
  813MOL0     C12095   9.749  11.172  -0.541  1.1024  0.0267  0.5226
  813MOL0     C12096   9.793  11.207  -0.687  0.1539 -0.2873 -0.5808
  813MOL0     C12097   9.700  11.173  -0.803 -0.3350 -0.6101  0.6355
  813MOL0     C12098   9.620  11.045  -0.804  1.0609 -0.8930  0.1327
  813MOL0     C12099   9.718  10.926  -0.821  0.2183  0.5914  0.3540
  813MOL0     C12100   9.640  10.797  -0.888  0.0374 -0.3666  0.3970
  813MOL0    Cl12101   9.517  10.741  -0.770 -0.1254 -0.0609 -0.0825
  813MOL0     C12102   9.871  11.175  -0.024 -0.6796 -0.8547  1.1542
  813MOL0     C12103   9.897  11.142   0.103  0.2848 -0.0885 -0.3608
  813MOL0     O12104   9.756  11.066   0.375  0.4452  0.1140  0.4441
  813MOL0     C12105   9.992  10.835   0.512 -0.2370  0.0920 -0.0282
  813MOL0     C12106  10.018  10.766   0.619  0.4701  0.4912 -0.4465
  813MOL0     N12107   9.882  10.940   1.458  0.3225 -0.2391  0.5709
  813MOL0     N12108   9.807  10.904   1.555  0.1760  0.3689 -0.3575
  813MOL0     C12109   8.543  10.552   1.333  0.0133 -0.5042  0.6966
  813MOL0     C12110   8.414  10.600   1.328 -0.0906  0.7377 -0.0251
  813MOL0     C12111   8.046  10.871   1.438 -0.9615  0.0432  0.2738
  813MOL0     C12112   7.928  10.863   1.505  0.3522  0.7126 -0.2409
  813MOL0     C12113   7.811  10.913   1.450 -0.2730  0.2620 -0.5099
  813MOL0     C12114   7.812  10.995   1.333  0.5333  0.2894  0.0278
  813MOL0     O12115   7.701  11.057   1.276 -0.8195 -0.5198  0.2867
  813MOL0     C12116   7.567  11.024   1.313 -1.0941 -0.3287 -0.2040
  813MOL0     C12117   7.536  10.894   1.241  1.0153 -0.8475 -0.5808
  813MOL0     C12118   7.519  10.899   1.086 -0.9141 -0.4510 -0.4977
  813MOL0     C12119   7.396  10.980   1.043  0.6059 -0.3113  0.8999
  813MOL0     C12120   7.343  10.929   0.909  0.2448 -0.4780  0.9077
  813MOL0     C12121   7.284  10.918   0.807  0.1408  0.2142 -0.1979
  813MOL0     C12122   7.938  11.015   1.275 -0.3754  0.0922  0.5531
  813MOL0     C12123   8.050  10.948   1.324 -0.6343 -0.0588  0.1275
  813MOL0     C12124   8.185  10.963   1.247 -0.1140  0.1355 -0.1415
  813MOL0     H12125   8.430  10.855   1.544 -2.1043 -1.6090  2.1664
  813MOL0     H12126   8.659  10.798   1.540 -2.8735  1.8624  1.0614
  813MOL0     H12127   8.796  10.580   1.623 -2.3290 -0.5312 -0.4503
  813MOL0     H12128   8.872  10.707   1.517 -1.2240  0.6711 -1.6060
  813MOL0     H12129   8.993  10.464   1.624  1.3919 -2.0603 -1.5268
  813MOL0     H12130   8.960  10.423   1.461  1.9121 -1.9687  1.0300
  813MOL0     H12131   9.175  10.523   1.458 -0.7267  0.0629 -1.6448
  813MOL0     H12132   9.089  10.649   1.395  3.5666 -1.4561 -1.4123
  813MOL0     H12133   9.063  10.737   1.631  0.6998 -0.0226  0.5162
  813MOL0     H12134   9.177  10.621   1.690  3.2319 -1.3052 -2.2941
  813MOL0     H12135   9.245  10.827   1.475 -0.3988  0.9879  0.6448
  813MOL0     H12136   9.330  10.668   1.501 -2.7754 -0.9563 -0.7621
  813MOL0     H12137   9.295  10.894   1.699  0.4361  0.6020 -2.0904
  813MOL0     H12138   9.364  10.740   1.746 -3.7299 -1.7567 -0.7962
  813MOL0     H12139   9.531  10.942   1.685 -0.8658  0.5894 -0.7393
  813MOL0     H12140   9.455  10.932   1.522 -2.6128 -0.5149 -1.4386
  813MOL0     H12141   9.631  10.741   1.671  0.1620  0.9970 -0.1215
  813MOL0     H12142   9.559  10.688   1.514 -0.2698  0.4706 -0.7230
  813MOL0     H12143   9.606  10.830   1.306  0.3878 -1.3381  0.2032
  813MOL0     H12144   9.990  10.977   1.237  0.1386 -3.0162  2.1579
  813MOL0     H12145   9.840  11.041   1.159 -1.5866 -2.1193 -2.9004
  813MOL0     H12146   9.900  10.746   1.128 -0.0737 -1.1793  1.1194
  813MOL0     H12147   9.781  10.856   1.047  1.3424 -0.0579 -0.6950
  813MOL0     H12148   9.939  10.955   0.917  0.3305 -0.4564 -1.0157
  813MOL0     H12149  10.066  10.942   1.033 -1.1348 -0.1349  0.2936
  813MOL0     H12150  10.135  10.796   0.842  0.8977 -3.1346 -0.4824
  813MOL0     H12151  10.096  10.698   0.971  1.5150  0.0793 -0.9769
  813MOL0     H12152   9.712  10.749   0.758 -2.5639 -1.4800 -2.6941
  813MOL0     H12153   9.549  10.786   0.572 -0.2357  1.3668  0.5118
  813MOL0     H12154   9.585  10.891   0.440  0.1916  0.9972 -0.4434
  813MOL0     H12155   9.569  10.955   0.608  0.8847 -0.7019  1.1470
  813MOL0     H12156   9.880  10.801   0.083 -0.8814 -0.8343 -1.3273
  813MOL0     H12157   9.866  10.859  -0.149  1.8308 -2.0143  2.2078
  813MOL0     H12158   9.727  11.244  -0.283  0.7325  0.4945  1.8060
  813MOL0     H12159   9.890  11.307  -0.255 -1.5083 -0.0313  2.0754
  813MOL0     H12160   9.839  11.346  -0.474 -0.8645 -1.2393 -3.3458
  813MOL0     H12161   9.946  11.210  -0.482 -0.1297  0.6702 -0.2295
  813MOL0     H12162   9.646  11.205  -0.524  0.6241 -1.3330  0.3916
  813MOL0     H12163   9.756  11.064  -0.523 -0.7021  0.1046  1.9987
  813MOL0     H12164   9.886  11.153  -0.701 -1.1396 -3.0044  0.5150
  813MOL0     H12165   9.808  11.315  -0.686 -0.3622 -0.2132 -0.3041
  813MOL0     H12166   9.632  11.259  -0.799  1.8670  1.2537  0.6988
  813MOL0     H12167   9.747  11.174  -0.902  0.3738 -2.4035  0.9261
  813MOL0     H12168   9.566  11.057  -0.898  0.6362 -3.3263 -0.0044
  813MOL0     H12169   9.540  11.037  -0.729 -0.2726  2.4505 -0.7415
  813MOL0     H12170   9.774  10.888  -0.735  0.9021 -1.3251 -0.8469
  813MOL0     H12171   9.791  10.966  -0.892  0.9056 -0.5398  0.3869
  813MOL0     H12172   9.717  10.721  -0.903  0.6237  0.2821  0.0521
  813MOL0     H12173   9.586  10.821  -0.980  0.5832  3.4891  0.8978
  813MOL0     H12174   9.891  11.275  -0.061  1.7639 -1.8318 -0.4155
  813MOL0     H12175   9.926  11.217   0.176  1.6284 -1.4615  0.5859
  813MOL0     H12176  10.067  10.849   0.434 -0.7102  2.8864 -0.0954
  813MOL0     H12177  10.119  10.731   0.637  0.1261  0.0396  0.7442
  813MOL0     H12178   8.579  10.463   1.283 -1.0194 -1.3223  1.3696
  813MOL0     H12179   8.344  10.563   1.255  2.1977 -1.5096 -1.2581
  813MOL0     H12180   7.919  10.820   1.605  0.8569  2.4333  0.5838
  813MOL0     H12181   7.725  10.905   1.515  0.5149  0.9851  0.6554
  813MOL0     H12182   7.555  11.029   1.421 -0.6605  2.4384 -0.2144
  813MOL0     H12183   7.503  11.107   1.281  0.9414  2.4206  2.3494
  813MOL0     H12184   7.442  10.854   1.280  1.3691  0.3745  1.6590
  813MOL0     H12185   7.610  10.821   1.274  0.6929 -0.5042  0.9555
  813MOL0     H12186   7.612  10.942   1.049 -1.0270  1.6733  1.4523
  813MOL0     H12187   7.515  10.797   1.047  0.6129  0.2122 -2.5552
  813MOL0     H12188   7.422  11.086   1.039  0.9947 -0.1975  4.2207
  813MOL0     H12189   7.313  10.964   1.113 -2.8968  0.8597 -2.5904
  813MOL0     H12190   7.225  10.921   0.718 -0.5897  0.0474  0.2699
  813MOL0     H12191   7.954  11.078   1.189 -0.5270  0.5552  0.8597
  813MOL0     H12192   8.266  10.975   1.319  0.1462 -0.0178 -0.4019
  813MOL0     H12193   8.205  10.867   1.198  0.3696 -1.4356  2.8900
  813MOL0     H12194   8.189  11.051   1.183 -1.1176  0.6237  0.4438
  814MOL0     O12195   6.445   5.678   9.704  0.9744 -0.0129  0.3750
  814MOL0     C12196   6.452   5.713   9.582  1.1752  0.2518 -1.2795
  814MOL0     O12197   6.347   5.717   9.498 -1.0999  0.9188 -0.0760
  814MOL0     C12198   6.234   5.657   9.538 -0.3777 -0.0648 -0.1342
  814MOL0     C12199   6.112   5.729   9.510 -0.3106  0.8260 -0.9441
  814MOL0     C12200   5.989   5.681   9.551 -0.2402  0.3335  0.8987
  814MOL0     C12201   5.982   5.561   9.617  0.2122  0.2807  0.6277
  814MOL0     O12202   5.854   5.509   9.649  0.2715 -0.3234  0.2635
  814MOL0     C12203   5.816   5.535   9.784 -0.4479  0.4901  0.1362
  814MOL0     C12204   5.673   5.473   9.787  0.0949  0.6927 -0.1971
  814MOL0     C12205   5.562   5.541   9.695 -0.0800  0.2815  0.1782
  814MOL0     C12206   5.417   5.523   9.751  0.5244 -0.6446  1.2193
  814MOL0     C12207   5.326   5.591   9.643  0.7004 -0.3833  0.3510
  814MOL0     C12208   5.178   5.597   9.688 -0.7089  0.0595  0.1174
  814MOL0     C12209   5.130   5.490   9.791  0.1789 -0.1289 -0.8346
  814MOL0     C12210   4.994   5.501   9.847  0.5120 -0.3997  1.0506
  814MOL0     N12211   4.881   5.511   9.750 -0.8023 -0.0932  1.0241
  814MOL0     C12212   4.760   5.585   9.757  0.6216  0.5527  0.2090
  814MOL0     C12213   4.686   5.557   9.642 -0.5996 -0.0204  0.0906
  814MOL0     C12214   4.546   5.587   9.606  0.8692  0.2768 -0.6534
  814MOL0     C12215   4.529   5.725   9.541  0.2917  0.6479  0.0620
  814MOL0     C12216   4.393   5.804   9.545 -0.4297  0.7392  0.8063
  814MOL0     C12217   4.319   5.789   9.411 -0.4704  0.2921 -0.5875
  814MOL0     O12218   4.399   5.846   9.297  0.1161 -1.0066  0.1053
  814MOL0     C12219   4.415   5.986   9.297 -0.4111 -0.0671 -1.0126
  814MOL0     C12220   4.305   6.066   9.300 -0.3087 -0.2674 -0.2234
  814MOL0     C12221   4.322   6.203   9.269  0.1054 -0.1451 -1.0411
  814MOL0     C12222   4.195   6.275   9.239  0.4512  0.0810 -0.0311
  814MOL0     C12223   4.451   6.257   9.229  1.4012 -0.0739 -0.1743
  814MOL0     C12224   4.483   6.406   9.210  0.3954 -0.4211  0.4355
  814MOL0     O12225   4.605   6.441   9.160 -0.3460  0.0156  0.8943
  814MOL0     C12226   4.663   6.554   9.202 -0.1686  0.1116 -1.0294
  814MOL0     C12227   4.634   6.678   9.150 -0.1953 -0.3431 -0.8565
  814MOL0     C12228   4.667   6.797   9.226  0.6998 -0.4364 -0.5548
  814MOL0     C12229   4.765   6.797   9.331  0.5406  0.6066 -0.0060
  814MOL0     O12230   4.806   6.919   9.379  0.7078  0.2939 -0.1353
  814MOL0     C12231   4.903   6.908   9.482 -0.1726 -0.9217  0.4568
  814MOL0     C12232   4.934   7.046   9.536 -0.4444 -0.1481  0.7594
  814MOL0     C12233   5.038   7.130   9.450 -0.3240 -0.1489 -0.2616
  814MOL0     C12234   4.977   7.218   9.339  0.2901  1.0359 -0.1279
  814MOL0     C12235   5.060   7.335   9.287  1.1989  0.2146  0.5677
  814MOL0     C12236   5.003   7.406   9.164 -0.4675  0.4051 -0.9697
  814MOL0     C12237   4.854   7.436   9.170  0.1271  0.2704 -0.1855
  814MOL0     C12238   4.811   7.497   9.029  0.3354 -0.4547  0.8687
  814MOL0    Cl12239   4.847   7.385   8.904 -0.0462 -0.1756 -0.1058
  814MOL0     C12240   4.810   6.674   9.366 -0.7405  0.9579  0.6354
  814MOL0     C12241   4.758   6.558   9.314 -0.4041  0.3170  0.6317
  814MOL0     O12242   4.403   6.487   9.254 -0.6587 -0.2737  0.0387
  814MOL0     C12243   4.556   6.171   9.252 -0.3295 -0.1309 -0.3849
  814MOL0     C12244   4.540   6.036   9.282  0.6991 -1.1185  0.0659
  814MOL0     N12245   4.773   5.474   9.558 -0.2683 -0.6530  0.2560
  814MOL0     N12246   4.879   5.442   9.632 -0.6462 -0.7040  0.1477
  814MOL0     C12247   6.092   5.488   9.647 -0.0619  0.1753 -0.5986
  814MOL0     C12248   6.218   5.535   9.609 -1.1880  0.0251 -0.4296
  814MOL0     C12249   6.577   5.756   9.524  0.5466  0.8636  0.5200
  814MOL0     C12250   6.589   5.742   9.391  0.3174  0.4382 -0.0376
  814MOL0     C12251   6.708   5.777   9.325  0.5215 -0.0695 -0.4749
  814MOL0     C12252   6.821   5.806   9.397 -1.0645 -0.0792  0.0948
  814MOL0     O12253   6.943   5.837   9.340 -0.5374 -0.7814 -0.3268
  814MOL0     C12254   6.959   5.868   9.198  0.4085 -0.6734  0.5115
  814MOL0     C12255   6.901   6.011   9.176 -0.5343 -0.7227 -0.3070
  814MOL0     C12256   6.922   6.046   9.028 -0.2171  0.1236  0.7797
  814MOL0     C12257   6.865   6.186   8.999  0.5623  0.4578  0.0182
  814MOL0     C12258   6.836   6.216   8.863  0.1497  0.7549 -0.3500
  814MOL0     C12259   6.818   6.237   8.748  0.2002  0.2582 -0.8932
  814MOL0     C12260   6.813   5.825   9.534  0.4078  0.4248  0.1552
  814MOL0     C12261   6.686   5.800   9.595 -0.3439 -0.3727  0.4303
  814MOL0     C12262   6.681   5.807   9.748 -0.3326  0.4634  0.6005
  814MOL0     H12263   6.118   5.823   9.458 -0.7656  0.3879 -1.8164
  814MOL0     H12264   5.901   5.736   9.521 -0.4055 -1.4380 -2.3813
  814MOL0     H12265   5.821   5.637   9.822  2.2662  0.4454  0.1099
  814MOL0     H12266   5.883   5.476   9.847  0.6631 -0.6538 -2.0255
  814MOL0     H12267   5.676   5.367   9.761 -2.5128  0.7398 -0.8956
  814MOL0     H12268   5.634   5.465   9.889 -0.6516  2.1042 -0.3375
  814MOL0     H12269   5.579   5.648   9.677 -4.7535  1.8657  3.1731
  814MOL0     H12270   5.563   5.490   9.598  0.3388  1.5707 -0.5213
  814MOL0     H12271   5.398   5.415   9.751 -1.7995 -0.4765 -3.2021
  814MOL0     H12272   5.396   5.561   9.851  1.5285  1.0384  0.8235
  814MOL0     H12273   5.329   5.520   9.559  0.9058 -1.0337  0.8997
  814MOL0     H12274   5.362   5.686   9.601 -1.3808 -0.9239 -3.0728
  814MOL0     H12275   5.160   5.696   9.730  1.7343  0.8394 -0.4680
  814MOL0     H12276   5.115   5.584   9.600 -3.2450 -1.0574  1.9643
  814MOL0     H12277   5.195   5.496   9.879  3.2752 -1.9316 -2.8209
  814MOL0     H12278   5.132   5.387   9.754 -1.4550 -0.3624 -0.3623
  814MOL0     H12279   4.977   5.415   9.912  3.1711 -1.2456  0.7495
  814MOL0     H12280   4.991   5.596   9.901  1.7849  0.4787 -0.3185
  814MOL0     H12281   4.725   5.643   9.841  1.6319  2.2283 -0.4807
  814MOL0     H12282   4.487   5.581   9.697  1.4488  1.2251 -0.2023
  814MOL0     H12283   4.519   5.508   9.535  4.2170  0.3679 -2.2135
  814MOL0     H12284   4.601   5.792   9.590  1.2834 -0.7776  0.6108
  814MOL0     H12285   4.561   5.713   9.437 -0.0982  5.7270 -0.8913
  814MOL0     H12286   4.326   5.772   9.626 -4.6380 -0.9823 -2.9398
  814MOL0     H12287   4.419   5.908   9.566 -0.0617  0.7288  0.4143
  814MOL0     H12288   4.300   5.684   9.387 -0.5103 -0.1773  1.2910
  814MOL0     H12289   4.225   5.840   9.434 -0.6802 -0.9309  1.5430
  814MOL0     H12290   4.216   6.013   9.333  1.2383 -0.9831  3.3028
  814MOL0     H12291   4.201   6.346   9.156 -2.1853 -0.6010 -0.8859
  814MOL0     H12292   4.158   6.318   9.332 -3.3574 -2.3744 -0.1744
  814MOL0     H12293   4.116   6.204   9.214  0.6078 -1.3874  3.1160
  814MOL0     H12294   4.550   6.679   9.081 -3.3872 -2.2489  2.5920
  814MOL0     H12295   4.621   6.888   9.190  4.3410  1.2659 -1.3422
  814MOL0     H12296   4.868   6.852   9.569 -1.9641  2.0085  1.7917
  814MOL0     H12297   4.998   6.862   9.454 -1.1710 -3.0760  0.4121
  814MOL0     H12298   4.840   7.100   9.550  0.0084  1.1849 -0.9895
  814MOL0     H12299   4.978   7.047   9.636  0.5243  1.8158  0.3558
  814MOL0     H12300   5.116   7.071   9.400  1.1349  2.8020 -1.7459
  814MOL0     H12301   5.096   7.189   9.521 -0.9235 -0.8145  0.8170
  814MOL0     H12302   4.889   7.250   9.397  1.4257 -0.6763  2.7340
  814MOL0     H12303   4.934   7.156   9.260 -2.7786 -0.3731  2.4105
  814MOL0     H12304   5.062   7.415   9.362  0.1311  0.8352 -0.0181
  814MOL0     H12305   5.164   7.311   9.269  1.2870  1.1501 -0.2804
  814MOL0     H12306   5.039   7.353   9.076  3.8448  2.8290 -0.9073
  814MOL0     H12307   5.061   7.497   9.150  1.4770 -0.8264 -1.2422
  814MOL0     H12308   4.849   7.518   9.242  1.1404  1.0449 -0.9528
  814MOL0     H12309   4.785   7.357   9.199  0.1154  0.6989  0.9950
  814MOL0     H12310   4.879   7.581   9.008 -0.5731  0.1988  0.4551
  814MOL0     H12311   4.703   7.514   9.026  0.5250  1.2452  2.3713
  814MOL0     H12312   4.881   6.653   9.446  1.4123 -1.3665 -1.6610
  814MOL0     H12313   4.778   6.467   9.370  1.1586  1.0047  1.2404
  814MOL0     H12314   4.658   6.203   9.234  0.6109 -2.3219  0.7150
  814MOL0     H12315   4.631   5.977   9.288  1.0793 -0.4681  0.8819
  814MOL0     H12316   6.099   5.390   9.691 -0.8022  0.7750  0.9196
  814MOL0     H12317   6.306   5.486   9.651 -0.9305  0.8928  0.0497
  814MOL0     H12318   6.515   5.708   9.318  1.5232  0.3479 -1.2518
  814MOL0     H12319   6.715   5.762   9.218  2.7691 -0.0163 -0.3963
  814MOL0     H12320   7.065   5.864   9.174  0.3590 -1.5970  0.3988
  814MOL0     H12321   6.896   5.800   9.139 -0.4224  1.3215 -1.0247
  814MOL0     H12322   6.951   6.091   9.232 -4.5505 -0.6472  3.8157
  814MOL0     H12323   6.796   6.019   9.206 -0.6007  1.4686 -0.9220
  814MOL0     H12324   7.029   6.037   9.003 -0.7525 -1.4673 -1.2487
  814MOL0     H12325   6.860   5.979   8.968 -0.5994  2.5901 -1.8403
  814MOL0     H12326   6.939   6.261   9.031  0.9662  2.4177 -4.6541
  814MOL0     H12327   6.767   6.197   9.046 -0.3982 -4.4379 -0.3489
  814MOL0     H12328   6.778   6.267   8.653 -1.0706 -1.4063 -0.9072
  814MOL0     H12329   6.895   5.870   9.588  0.1238 -1.2927  2.1548
  814MOL0     H12330   6.749   5.877   9.797  0.2090  1.1708 -1.1170
  814MOL0     H12331   6.585   5.856   9.769  0.4215  2.3461 -0.1069
  814MOL0     H12332   6.683   5.714   9.806 -0.0010  1.7268  2.7472
  815MOL0     O12333   5.704  11.090   9.399 -0.3461 -0.3692  0.1310
  815MOL0     C12334   5.664  11.010   9.320  0.4172  0.4426 -0.9049
  815MOL0     O12335   5.730  10.982   9.207 -0.0461 -0.5361 -0.2793
  815MOL0     C12336   5.861  11.019   9.196  0.5615 -0.7211  0.1836
  815MOL0     C12337   5.907  11.150   9.177  0.6374  0.1945 -0.3074
  815MOL0     C12338   6.033  11.167   9.143  0.2149  0.3868 -0.0778
  815MOL0     C12339   6.122  11.070   9.108  0.8244  0.1018  0.3020
  815MOL0     O12340   6.254  11.108   9.070 -0.0233  0.2092  0.3362
  815MOL0     C12341   6.336  11.016   8.998 -0.3916  0.1873 -0.0248
  815MOL0     C12342   6.468  11.075   8.979 -0.4677 -0.2792  0.1740
  815MOL0     C12343   6.543  11.086   9.114 -0.2158 -0.0004 -1.2081
  815MOL0     C12344   6.687  11.138   9.096 -1.1893 -0.1741  0.2298
  815MOL0     C12345   6.684  11.284   9.081 -0.0848  0.1796  0.0572
  815MOL0     C12346   6.818  11.354   9.056 -0.4788 -0.1563 -0.1292
  815MOL0     C12347   6.810  11.505   9.058 -0.7966 -0.0065  0.1638
  815MOL0     C12348   6.954  11.561   9.054 -0.3279 -0.5448 -0.2244
  815MOL0     N12349   6.968  11.701   9.114 -0.1168  0.2822 -0.0634
  815MOL0     C12350   6.879  11.803   9.091 -0.9008  0.1727 -0.8919
  815MOL0     C12351   6.939  11.921   9.126  0.0400 -0.1027 -0.1801
  815MOL0     C12352   6.873  12.047   9.115 -0.9342  0.0983  0.1003
  815MOL0     C12353   6.965  12.168   9.160 -0.1739  0.0626  0.5760
  815MOL0     C12354   7.006  12.170   9.314 -0.1090 -0.4201  0.9081
  815MOL0     C12355   6.880  12.160   9.408 -1.1552 -0.1894 -0.0525
  815MOL0     O12356   6.804  12.268   9.372  0.4064 -0.6482 -0.0240
  815MOL0     C12357   6.708  12.312   9.466 -0.3926  0.7846 -0.2670
  815MOL0     C12358   6.634  12.227   9.543  1.0752  0.4852 -0.7897
  815MOL0     C12359   6.548  12.283   9.654  0.1476  0.7247  0.0760
  815MOL0     C12360   6.470  12.188   9.731  0.6885 -1.9423 -0.5272
  815MOL0     C12361   6.539  12.420   9.670  0.3732 -0.6030 -0.3818
  815MOL0     C12362   6.442  12.489   9.764  0.4778 -0.1395  0.0290
  815MOL0     O12363   6.322  12.423   9.793 -0.5985  0.4105  0.3099
  815MOL0     C12364   6.242  12.469   9.893 -0.4469 -0.0389  0.0246
  815MOL0     C12365   6.142  12.559   9.852  0.2404  0.4226  0.4185
  815MOL0     C12366   6.078  12.642   9.950 -0.2753  0.4917 -0.2723
  815MOL0     C12367   6.100  12.630  10.091 -1.0166 -0.4647  1.6323
  815MOL0     O12368   6.018  12.697  10.171 -0.2229 -0.1452 -0.4504
  815MOL0     C12369   6.073  12.791  10.265  0.3285 -0.2252  0.5301
  815MOL0     C12370   5.969  12.893  10.308 -0.6110  0.7728  0.1216
  815MOL0     C12371   5.978  12.952  10.451  0.8261 -0.4862 -0.2398
  815MOL0     C12372   6.119  12.937  10.512  0.4155 -0.4208  0.9088
  815MOL0     C12373   6.135  13.013  10.644  0.1646 -0.4255 -0.8352
  815MOL0     C12374   6.051  12.947  10.760 -0.2381  0.2995  0.1721
  815MOL0     C12375   6.105  12.974  10.902  1.1600 -0.6064 -0.1067
  815MOL0     C12376   6.037  12.879  11.007  0.3475 -0.2097  0.6277
  815MOL0    Cl12377   6.123  12.882  11.155  0.7125  0.2386 -0.4426
  815MOL0     C12378   6.189  12.521  10.134 -0.2604  0.3057  0.0852
  815MOL0     C12379   6.264  12.446  10.036  0.6651  0.3990 -0.2137
  815MOL0     O12380   6.474  12.601   9.811  0.5770 -0.1615  0.3659
  815MOL0     C12381   6.617  12.507   9.590  0.3135  0.3757 -0.3987
  815MOL0     C12382   6.702  12.449   9.497 -0.6225 -0.1401 -0.4481
  815MOL0     N12383   7.073  11.888   9.161  0.5750 -0.1949 -0.5549
  815MOL0     N12384   7.082  11.760   9.173  0.4162  0.6681  0.6241
  815MOL0     C12385   6.075  10.937   9.107  0.7168  0.7404  0.3405
  815MOL0     C12386   5.947  10.911   9.158 -0.0466  0.0069 -0.1170
  815MOL0     C12387   5.524  10.968   9.326  0.1635 -0.5921 -0.4947
  815MOL0     C12388   5.470  10.889   9.218 -0.1273  0.6547 -0.4169
  815MOL0     C12389   5.336  10.863   9.212 -0.8386  0.7382  0.4410
  815MOL0     C12390   5.245  10.901   9.303 -0.5359  0.3916 -0.4793
  815MOL0     O12391   5.112  10.846   9.291 -0.4768 -0.5443  0.3726
  815MOL0     C12392   5.019  10.891   9.387  0.5791  1.0790 -0.0819
  815MOL0     C12393   4.883  10.888   9.320 -0.2786 -0.3666  0.0821
  815MOL0     C12394   4.763  10.919   9.416 -0.0520 -0.0525 -0.2386
  815MOL0     C12395   4.743  10.811   9.527  0.3650 -0.0780  0.5549
  815MOL0     C12396   4.647  10.855   9.625 -0.6912 -0.3069 -0.2777
  815MOL0     C12397   4.568  10.889   9.706  0.7688 -1.0597  0.2381
  815MOL0     C12398   5.300  10.943   9.423  0.1536  0.1596  0.2230
  815MOL0     C12399   5.434  10.990   9.441  0.4073  0.0193  0.1364
  815MOL0     C12400   5.471  11.059   9.572 -0.5510  0.2180  0.2089
  815MOL0     H12401   5.843  11.235   9.197 -0.7328 -1.4421  3.0540
  815MOL0     H12402   6.063  11.271   9.137 -0.8703  0.8452  1.6499
  815MOL0     H12403   6.287  10.981   8.907  0.4505 -3.6091  0.8059
  815MOL0     H12404   6.359  10.919   9.043  2.7750  1.2168  0.7884
  815MOL0     H12405   6.522  11.010   8.910 -3.0918 -1.5024 -0.8659
  815MOL0     H12406   6.462  11.172   8.929  2.3263 -0.1193 -0.0404
  815MOL0     H12407   6.485  11.151   9.180  0.0451 -0.6308 -0.3431
  815MOL0     H12408   6.540  10.987   9.160  2.0947  0.2167 -0.4584
  815MOL0     H12409   6.754  11.114   9.179 -0.2464 -0.7154 -0.6637
  815MOL0     H12410   6.724  11.094   9.003  1.0774 -2.2014  1.9373
  815MOL0     H12411   6.642  11.319   9.176 -0.4935  2.1525 -0.8003
  815MOL0     H12412   6.615  11.306   8.999 -1.1462  0.0493  0.8954
  815MOL0     H12413   6.878  11.320   9.141  0.2547  0.3315 -0.4445
  815MOL0     H12414   6.864  11.314   8.966 -1.1451 -1.6672  0.1672
  815MOL0     H12415   6.750  11.539   9.142 -0.7532  1.3283 -0.3219
  815MOL0     H12416   6.759  11.535   8.966 -4.2991 -1.2157  1.5234
  815MOL0     H12417   7.030  11.499   9.103 -1.8101 -0.2906  2.6052
  815MOL0     H12418   6.980  11.559   8.948  0.2403  2.3817 -0.2187
  815MOL0     H12419   6.777  11.782   9.061 -1.2487  0.9187 -0.2810
  815MOL0     H12420   6.774  12.043   9.161 -0.9990 -3.7676 -0.0628
  815MOL0     H12421   6.835  12.066   9.014  0.0794  0.7511 -0.1746
  815MOL0     H12422   7.056  12.174   9.100 -0.3819 -3.4852 -0.3064
  815MOL0     H12423   6.911  12.262   9.140  1.7394  1.3305  1.0923
  815MOL0     H12424   7.086  12.102   9.343  0.8020  0.8397  1.4318
  815MOL0     H12425   7.053  12.268   9.324 -0.2619  0.4108 -4.1754
  815MOL0     H12426   6.826  12.065   9.408  1.6343 -1.9299  1.9728
  815MOL0     H12427   6.900  12.169   9.515  2.0261 -1.1260 -0.4670
  815MOL0     H12428   6.641  12.121   9.520 -1.0478  0.3145 -0.8665
  815MOL0     H12429   6.498  12.085   9.708  1.1752 -1.6951 -1.0635
  815MOL0     H12430   6.366  12.206   9.703  1.6182  0.4053 -2.9935
  815MOL0     H12431   6.486  12.209   9.837 -0.8010  0.1190 -0.6442
  815MOL0     H12432   6.127  12.593   9.750 -3.8101  0.9189  1.0098
  815MOL0     H12433   6.010  12.719   9.916  0.9335  1.0814 -1.4351
  815MOL0     H12434   6.108  12.734  10.352  0.4168 -0.0024  0.6415
  815MOL0     H12435   6.166  12.835  10.227  1.0776 -0.0641  2.4104
  815MOL0     H12436   5.970  12.971  10.230 -0.9879 -0.7619 -1.4770
  815MOL0     H12437   5.869  12.852  10.299 -0.8343  1.2447  0.3904
  815MOL0     H12438   5.899  12.913  10.516 -3.2772  2.0494 -3.1870
  815MOL0     H12439   5.963  13.060  10.438 -0.0078 -0.8211 -2.4311
  815MOL0     H12440   6.186  12.980  10.436 -0.6783 -0.5102 -0.1280
  815MOL0     H12441   6.140  12.830  10.522 -2.0017 -0.9656  0.7096
  815MOL0     H12442   6.242  13.010  10.670 -0.0840  1.0566  0.5439
  815MOL0     H12443   6.116  13.120  10.632 -1.3866 -0.8343 -2.5414
  815MOL0     H12444   6.060  12.840  10.739  0.0769 -0.0445  1.9379
  815MOL0     H12445   5.944  12.968  10.762 -0.8715 -2.5584  2.2856
  815MOL0     H12446   6.073  13.075  10.930  2.5046 -0.4019  0.7991
  815MOL0     H12447   6.214  12.972  10.911  1.1805  0.8805  0.1832
  815MOL0     H12448   6.033  12.776  10.969  0.3058  0.4361 -1.2408
  815MOL0     H12449   5.934  12.909  11.032  1.2794  2.4245  1.7038
  815MOL0     H12450   6.197  12.487  10.237  1.5154  0.8673  0.1786
  815MOL0     H12451   6.334  12.368  10.063 -1.0993 -1.2069 -0.0424
  815MOL0     H12452   6.604  12.615   9.598 -4.0195 -0.0323  1.0390
  815MOL0     H12453   6.762  12.510   9.430  0.0170 -0.4145 -0.1361
  815MOL0     H12454   6.146  10.858   9.086 -0.8973 -0.9962  1.1308
  815MOL0     H12455   5.911  10.809   9.169 -2.3432  0.7032 -0.6473
  815MOL0     H12456   5.536  10.854   9.140  2.5162  1.0879  1.4704
  815MOL0     H12457   5.303  10.806   9.125 -0.4940  0.7925  0.2754
  815MOL0     H12458   5.013  10.812   9.462 -0.6402 -0.2411 -1.4783
  815MOL0     H12459   5.040  10.990   9.428  1.9480  0.3742  0.9896
  815MOL0     H12460   4.875  10.791   9.270  0.3833 -2.1896  3.2348
  815MOL0     H12461   4.883  10.970   9.248 -2.9068  0.7097  1.1829
  815MOL0     H12462   4.784  11.016   9.461  1.7453 -1.0799  1.3106
  815MOL0     H12463   4.671  10.938   9.361 -0.5678  1.4850  1.0754
  815MOL0     H12464   4.840  10.791   9.572  0.3681 -1.2803  0.0300
  815MOL0     H12465   4.698  10.718   9.492  1.3013 -0.4975  0.4547
  815MOL0     H12466   4.495  10.923   9.777 -1.1141 -1.9025 -1.2015
  815MOL0     H12467   5.234  10.956   9.508 -0.5537  1.0847 -0.4511
  815MOL0     H12468   5.439  11.163   9.566  2.3121  1.1350 -0.9765
  815MOL0     H12469   5.416  11.021   9.659  1.1998 -2.3274  0.3123
  815MOL0     H12470   5.580  11.059   9.584 -0.1226  0.8896 -2.7918
  816MOL0     O12471   0.271   9.395   6.830 -0.2563  0.3155 -0.0435
  816MOL0     C12472   0.356   9.464   6.887  0.2683 -0.2279 -0.1437
  816MOL0     O12473   0.328   9.558   6.979  0.3948 -0.1339  0.1080
  816MOL0     C12474   0.202   9.591   7.014 -0.9899 -0.0461 -0.4130
  816MOL0     C12475   0.122   9.510   7.102 -0.0153 -0.3325  0.5244
  816MOL0     C12476  -0.016   9.543   7.105 -0.1532  0.2762 -0.3759
  816MOL0     C12477  -0.082   9.635   7.028 -0.7129  0.3887 -0.6942
  816MOL0     O12478  -0.221   9.640   7.030 -0.4128 -0.5454  0.5823
  816MOL0     C12479  -0.294   9.751   6.973  0.3671  0.4072  0.2987
  816MOL0     C12480  -0.425   9.746   7.034 -0.2065 -1.0481  0.1208
  816MOL0     C12481  -0.502   9.625   6.989  0.2621  0.0881  0.6269
  816MOL0     C12482  -0.624   9.676   6.903 -1.0728  0.4872  0.7363
  816MOL0     C12483  -0.710   9.557   6.866  0.2920  0.3273  0.3397
  816MOL0     C12484  -0.814   9.583   6.762  0.0227 -0.2724  0.2927
  816MOL0     C12485  -0.762   9.612   6.613 -0.0595  0.1213  0.4653
  816MOL0     C12486  -0.891   9.607   6.514 -0.3367 -0.7690 -0.5310
  816MOL0     N12487  -0.943   9.742   6.502 -0.0604 -0.3099 -0.2845
  816MOL0     C12488  -0.975   9.801   6.392  0.5439  0.3832  1.0678
  816MOL0     C12489  -1.026   9.922   6.421 -0.5339  0.0410 -0.0704
  816MOL0     C12490  -1.080  10.037   6.330  0.6233  0.1407  0.9154
  816MOL0     C12491  -0.966  10.101   6.254  0.2402 -0.3169 -0.5089
  816MOL0     C12492  -1.010  10.240   6.218 -0.5931 -0.9802 -0.8693
  816MOL0     C12493  -1.147  10.276   6.157  0.1958  0.8311 -0.5737
  816MOL0     O12494  -1.146  10.244   6.014 -0.6711 -0.0163 -0.6116
  816MOL0     C12495  -1.232  10.155   5.970 -1.0629 -0.3803 -0.4456
  816MOL0     C12496  -1.365  10.175   5.981 -0.5234  0.4832 -0.6629
  816MOL0     C12497  -1.460  10.088   5.921 -0.2137 -0.2801  0.2362
  816MOL0     C12498  -1.603  10.123   5.947  0.9886 -0.3522  0.2880
  816MOL0     C12499  -1.409   9.968   5.862  0.3208  0.7751  1.0722
  816MOL0     C12500  -1.499   9.879   5.792  0.9501 -0.1432 -0.0860
  816MOL0     O12501  -1.608   9.919   5.718 -0.2974 -0.3705 -0.2820
  816MOL0     C12502  -1.659   9.847   5.614 -0.1094 -0.2509 -0.1433
  816MOL0     C12503  -1.790   9.871   5.564 -0.5424 -0.1553 -0.5055
  816MOL0     C12504  -1.838   9.805   5.458  0.2945  0.0512  0.2181
  816MOL0     C12505  -1.769   9.696   5.396  0.1913 -1.3631  0.0333
  816MOL0     O12506  -1.833   9.638   5.293  0.0205  0.6289  0.2425
  816MOL0     C12507  -1.810   9.498   5.258 -0.3771 -1.3785 -0.2656
  816MOL0     C12508  -1.947   9.426   5.249 -0.0215  0.2688  0.5251
  816MOL0     C12509  -1.944   9.270   5.230 -0.2385  0.5503  0.5206
  816MOL0     C12510  -2.004   9.201   5.352  0.1054  0.0916 -0.4192
  816MOL0     C12511  -1.983   9.053   5.346 -0.2228  0.0193 -0.7147
  816MOL0     C12512  -2.081   8.986   5.249 -0.9100  0.3461 -0.4515
  816MOL0     C12513  -2.052   8.837   5.261 -0.0982  0.2021 -0.5654
  816MOL0     C12514  -2.134   8.760   5.159  0.4317  0.3756 -0.9387
  816MOL0    Cl12515  -2.313   8.773   5.188 -0.2274 -0.1236  0.3215
  816MOL0     C12516  -1.647   9.670   5.445 -0.8535 -0.1258  0.0964
  816MOL0     C12517  -1.590   9.742   5.552  0.7173  0.3623 -0.4900
  816MOL0     O12518  -1.479   9.770   5.842 -0.5077 -0.3027  0.1306
  816MOL0     C12519  -1.269   9.946   5.849  0.6244 -0.0491  0.2105
  816MOL0     C12520  -1.183  10.042   5.907 -0.4460 -0.1633  0.1617
  816MOL0     N12521  -1.000   9.941   6.560  0.1498  0.1224 -0.5953
  816MOL0     N12522  -0.954   9.830   6.598 -0.3526  0.1448 -0.3106
  816MOL0     C12523   0.007   9.727   6.956 -0.3919  0.2973  0.2535
  816MOL0     C12524   0.147   9.705   6.950  0.7087 -0.1488 -0.3172
  816MOL0     C12525   0.490   9.454   6.826  0.4713  0.7393  0.1514
  816MOL0     C12526   0.552   9.578   6.820  0.3820  0.3576  0.1129
  816MOL0     C12527   0.679   9.582   6.754  0.0180 -0.1614  0.5800
  816MOL0     C12528   0.753   9.469   6.739 -0.1288 -0.0600 -0.6857
  816MOL0     O12529   0.881   9.485   6.703  0.2814 -0.8141  0.5823
  816MOL0     C12530   0.985   9.383   6.710  0.4675 -0.3109  0.3050
  816MOL0     C12531   1.111   9.435   6.645 -0.6233  0.4987  0.3442
  816MOL0     C12532   1.241   9.353   6.670 -0.1168  0.0798  0.5531
  816MOL0     C12533   1.364   9.399   6.592  0.2106 -0.8965 -0.2959
  816MOL0     C12534   1.477   9.309   6.616 -0.3388 -0.0351  0.3030
  816MOL0     C12535   1.586   9.251   6.621  0.1983  0.6823 -0.2265
  816MOL0     C12536   0.697   9.344   6.768  0.1889 -0.3489  0.4009
  816MOL0     C12537   0.558   9.335   6.803 -0.0223 -0.2752  0.0552
  816MOL0     C12538   0.491   9.199   6.808  0.1485  0.2219 -0.2593
  816MOL0     H12539   0.149   9.418   7.153  2.8381 -0.1278 -0.3938
  816MOL0     H12540  -0.079   9.485   7.172 -0.8807  1.7109  0.2055
  816MOL0     H12541  -0.297   9.742   6.864 -3.2966 -0.7483  0.3462
  816MOL0     H12542  -0.260   9.853   6.996 -4.3425  2.0359  1.1384
  816MOL0     H12543  -0.418   9.737   7.142  0.2121  0.3683  0.2366
  816MOL0     H12544  -0.479   9.841   7.021  0.2430 -0.6692  0.9549
  816MOL0     H12545  -0.448   9.550   6.930 -1.6161 -2.3879  1.8788
  816MOL0     H12546  -0.541   9.575   7.077 -0.0063  0.9267  0.9962
  816MOL0     H12547  -0.675   9.752   6.964 -1.8290  0.6180 -0.0402
  816MOL0     H12548  -0.589   9.720   6.810  1.4637  0.3345  1.5435
  816MOL0     H12549  -0.745   9.533   6.966  1.6818  4.1955  1.9519
  816MOL0     H12550  -0.654   9.475   6.820 -1.5280 -1.3931  1.0374
  816MOL0     H12551  -0.891   9.506   6.752  0.1883 -0.1638 -2.5482
  816MOL0     H12552  -0.872   9.672   6.787 -0.5209  0.1606 -2.2271
  816MOL0     H12553  -0.709   9.521   6.583 -1.8560 -0.1075 -2.4524
  816MOL0     H12554  -0.699   9.700   6.607  2.6281 -1.6851  0.4385
  816MOL0     H12555  -0.861   9.568   6.416  1.1577  1.0155 -0.8408
  816MOL0     H12556  -0.967   9.543   6.559  0.6865 -0.0637  2.4117
  816MOL0     H12557  -0.970   9.768   6.289  2.1628  4.3221 -0.3003
  816MOL0     H12558  -1.135  10.105   6.396 -2.8559 -1.4986 -0.0295
  816MOL0     H12559  -1.148  10.000   6.252  1.1229 -1.3564  1.1552
  816MOL0     H12560  -0.882  10.114   6.324 -0.5125  1.0142  0.1919
  816MOL0     H12561  -0.945  10.035   6.170 -0.3534 -1.1768  0.0012
  816MOL0     H12562  -1.012  10.298   6.310 -0.5128 -0.0121 -1.4703
  816MOL0     H12563  -0.931  10.289   6.161  0.1666 -0.2818  0.7137
  816MOL0     H12564  -1.225  10.223   6.213  0.7016  0.9547  0.2607
  816MOL0     H12565  -1.165  10.384   6.160 -0.9352  0.7590 -2.5955
  816MOL0     H12566  -1.400  10.262   6.036  0.4360 -2.3557  5.2434
  816MOL0     H12567  -1.639  10.183   5.863  0.3346  0.2635  0.9946
  816MOL0     H12568  -1.609  10.192   6.032  1.6653 -2.2456  1.9561
  816MOL0     H12569  -1.672  10.039   5.953 -0.1876  0.3252 -2.3010
  816MOL0     H12570  -1.854   9.947   5.607  0.3886 -0.2249  1.1138
  816MOL0     H12571  -1.935   9.830   5.417  0.4705 -0.0485 -0.2682
  816MOL0     H12572  -1.743   9.487   5.172 -0.4290 -0.7632 -0.3872
  816MOL0     H12573  -1.756   9.453   5.342 -0.7011 -0.3427  0.5097
  816MOL0     H12574  -2.003   9.452   5.339  0.5689  0.8602  0.7358
  816MOL0     H12575  -1.999   9.472   5.164 -0.6442  1.0566  1.3025
  816MOL0     H12576  -1.846   9.229   5.201 -0.9265  0.1532 -1.3655
  816MOL0     H12577  -1.995   9.251   5.135  1.5364  0.5214 -0.4803
  816MOL0     H12578  -2.107   9.226   5.325  0.9803  2.2415 -2.0914
  816MOL0     H12579  -1.964   9.245   5.444 -0.8847 -0.9459  0.5322
  816MOL0     H12580  -1.881   9.034   5.309  0.4117 -1.9526  1.7246
  816MOL0     H12581  -1.989   9.007   5.445 -1.9564  1.9728  0.1530
  816MOL0     H12582  -2.068   9.024   5.147 -0.0286 -1.6134 -1.1125
  816MOL0     H12583  -2.187   9.001   5.275 -1.2378 -0.1685 -1.4557
  816MOL0     H12584  -2.083   8.802   5.360  3.2320  1.4778  1.1057
  816MOL0     H12585  -1.947   8.817   5.239  0.2453  0.6432  0.5738
  816MOL0     H12586  -2.119   8.654   5.180 -2.1019  0.1148 -0.1024
  816MOL0     H12587  -2.113   8.792   5.056 -0.0766  0.3102 -1.0631
  816MOL0     H12588  -1.595   9.577   5.425 -0.4977 -0.9204  3.9755
  816MOL0     H12589  -1.496   9.704   5.589 -0.5022 -2.3421  0.0612
  816MOL0     H12590  -1.233   9.858   5.798  2.9324  1.3725 -0.7904
  816MOL0     H12591  -1.079  10.031   5.935 -0.8144  0.0034  1.6385
  816MOL0     H12592  -0.031   9.815   6.905  0.1205  1.5462  1.9327
  816MOL0     H12593   0.198   9.764   6.874 -3.4852  1.2415 -2.3137
  816MOL0     H12594   0.503   9.674   6.831 -3.4170 -0.7517 -4.2063
  816MOL0     H12595   0.719   9.678   6.723  0.0055  0.5878  2.7128
  816MOL0     H12596   1.002   9.347   6.812 -2.1890 -1.6508  0.3732
  816MOL0     H12597   0.955   9.299   6.647  1.3166 -0.6128  0.2896
  816MOL0     H12598   1.128   9.530   6.696 -5.3806  1.8511 -0.1607
  816MOL0     H12599   1.106   9.463   6.539  1.0059  0.8218  0.3250
  816MOL0     H12600   1.262   9.355   6.777 -1.3371  2.8607  0.8489
  816MOL0     H12601   1.221   9.257   6.622 -2.4039  1.2665 -1.0784
  816MOL0     H12602   1.394   9.496   6.632  2.6894 -0.0811 -3.6376
  816MOL0     H12603   1.325   9.407   6.490 -0.0692 -0.2558 -0.1438
  816MOL0     H12604   1.681   9.203   6.628 -0.1104  0.1466  0.3850
  816MOL0     H12605   0.744   9.246   6.762  1.2696  0.2486 -2.3327
  816MOL0     H12606   0.406   9.201   6.876  0.0529 -0.3673 -0.3586
  816MOL0     H12607   0.473   9.168   6.705 -0.4362  1.2629 -0.4765
  816MOL0     H12608   0.563   9.127   6.849  0.6508  0.2891 -0.9961
  817MOL0     O12609   0.989   0.463   8.229 -0.0512 -0.1993  0.3356
  817MOL0     C12610   0.911   0.373   8.197 -1.6948  0.1564 -0.4120
  817MOL0     O12611   0.930   0.280   8.104 -0.2060 -0.1305  0.2017
  817MOL0     C12612   1.052   0.281   8.032 -0.0829 -0.4199 -0.3347
  817MOL0     C12613   1.050   0.294   7.894 -0.1671 -0.0297  0.1234
  817MOL0     C12614   1.170   0.277   7.827  0.5907  0.4193  0.1454
  817MOL0     C12615   1.293   0.247   7.892 -0.1739 -0.4054  0.1976
  817MOL0     O12616   1.408   0.225   7.814  0.3240 -0.4281  0.1953
  817MOL0     C12617   1.393   0.178   7.680  0.3853  0.1119 -0.3424
  817MOL0     C12618   1.514   0.115   7.615 -0.6729  0.5523 -0.5657
  817MOL0     C12619   1.632   0.205   7.633 -0.7515  0.1136  0.5265
  817MOL0     C12620   1.765   0.142   7.577  0.2993 -0.2514 -1.1692
  817MOL0     C12621   1.888   0.188   7.652  0.3310  0.9726  0.6856
  817MOL0     C12622   1.915   0.339   7.642 -0.0491  1.0254  0.7949
  817MOL0     C12623   2.027   0.385   7.728 -0.0696  0.0084 -0.5164
  817MOL0     C12624   1.982   0.423   7.864  0.1653 -0.0712  0.9561
  817MOL0     N12625   1.968   0.564   7.885  0.1962 -0.6982  0.2725
  817MOL0     C12626   2.058   0.640   7.956  0.4666 -0.4748 -0.3640
  817MOL0     C12627   1.990   0.756   7.983  0.0964 -0.1593  1.3065
  817MOL0     C12628   2.036   0.886   8.043 -0.4899  0.2246  0.5948
  817MOL0     C12629   2.107   0.862   8.171 -0.6759 -0.4730  0.1972
  817MOL0     C12630   2.141   1.005   8.228 -0.4102 -0.8123  0.0524
  817MOL0     C12631   2.161   1.008   8.381 -0.3983 -0.2924 -0.2866
  817MOL0     O12632   2.264   0.908   8.401 -0.7936  0.6633 -0.0318
  817MOL0     C12633   2.269   0.828   8.515  0.6223 -0.8104 -0.2532
  817MOL0     C12634   2.378   0.752   8.528 -0.7108 -0.4293 -0.0249
  817MOL0     C12635   2.401   0.673   8.644  0.0765 -0.0127  0.7522
  817MOL0     C12636   2.524   0.583   8.642 -0.5083  0.1148 -0.9079
  817MOL0     C12637   2.303   0.670   8.743  0.7956 -0.7132  0.7246
  817MOL0     C12638   2.326   0.588   8.866  0.8742 -0.1408  0.0967
  817MOL0     O12639   2.213   0.553   8.930 -0.0676  0.4532  0.6869
  817MOL0     C12640   2.229   0.466   9.036 -1.1909 -0.1568 -0.1588
  817MOL0     C12641   2.283   0.340   9.011  0.2182  0.8888 -0.7870
  817MOL0     C12642   2.298   0.258   9.118 -0.3150  0.7286 -0.0818
  817MOL0     C12643   2.250   0.295   9.246 -0.9706  0.6399 -0.6756
  817MOL0     O12644   2.259   0.214   9.356 -0.6715  0.3362 -0.7245
  817MOL0     C12645   2.227   0.081   9.329  0.0688 -0.1212 -1.2091
  817MOL0     C12646   2.190   0.003   9.462 -0.3794  0.0222  0.1829
  817MOL0     C12647   2.048   0.051   9.512  0.4523 -0.1934  0.4467
  817MOL0     C12648   2.011  -0.036   9.639 -0.4012 -0.4199 -0.3333
  817MOL0     C12649   1.871  -0.007   9.701  0.3727  1.1112 -0.7403
  817MOL0     C12650   1.760   0.001   9.589 -0.4193  0.9489  0.3841
  817MOL0     C12651   1.743  -0.130   9.502  0.9719 -1.3202 -0.0885
  817MOL0     C12652   1.613  -0.202   9.528 -0.0987 -0.0627  0.1331
  817MOL0    Cl12653   1.472  -0.098   9.470 -0.4312 -0.0376  0.1361
  817MOL0     C12654   2.200   0.421   9.267 -0.2918  0.5858 -0.3358
  817MOL0     C12655   2.191   0.509   9.165 -1.0377  0.0019 -0.3268
  817MOL0     O12656   2.439   0.577   8.908 -0.2098 -0.3793 -0.8341
  817MOL0     C12657   2.186   0.749   8.727  0.4619 -1.2259  0.6302
  817MOL0     C12658   2.173   0.837   8.618  0.7304 -0.1821 -0.0713
  817MOL0     N12659   1.868   0.752   7.922  1.0454  0.1688 -0.1988
  817MOL0     N12660   1.849   0.634   7.865  0.2311 -0.0435  0.4342
  817MOL0     C12661   1.296   0.257   8.029 -0.3942  0.5060  0.1386
  817MOL0     C12662   1.177   0.275   8.096 -0.5891  0.1300  0.3595
  817MOL0     C12663   0.792   0.363   8.280 -0.4164  0.5386  0.0330
  817MOL0     C12664   0.741   0.230   8.305  0.3499 -0.5575  0.4291
  817MOL0     C12665   0.643   0.198   8.394  0.9146  0.7789  0.1429
  817MOL0     C12666   0.570   0.304   8.450 -0.0247 -0.2862 -0.3351
  817MOL0     O12667   0.457   0.271   8.531 -0.4309  0.1498  0.8227
  817MOL0     C12668   0.380   0.153   8.521  0.4657 -0.8824 -1.1359
  817MOL0     C12669   0.234   0.184   8.541 -0.6889 -0.6769  0.8611
  817MOL0     C12670   0.173   0.286   8.443  0.3057 -0.2240 -0.8036
  817MOL0     C12671   0.110   0.221   8.316  0.5139  0.5850 -0.0582
  817MOL0     C12672  -0.010   0.136   8.352 -0.4824  0.6747 -0.5437
  817MOL0     C12673  -0.105   0.071   8.399 -0.1145  0.3619  0.0402
  817MOL0     C12674   0.616   0.438   8.444 -0.2837 -0.3025 -0.4876
  817MOL0     C12675   0.729   0.466   8.365  0.2289 -0.3177  0.2410
  817MOL0     C12676   0.778   0.610   8.372 -0.2438  0.0017  0.3505
  817MOL0     H12677   0.950   0.308   7.854 -0.9218 -0.2965  1.8275
  817MOL0     H12678   1.172   0.286   7.719  1.9527 -0.2349  0.0896
  817MOL0     H12679   1.364   0.258   7.611 -0.0449 -0.6750 -1.0927
  817MOL0     H12680   1.311   0.107   7.688  1.4389 -0.9849  1.2044
  817MOL0     H12681   1.525   0.015   7.658  1.5575  1.2011  0.4842
  817MOL0     H12682   1.503   0.097   7.508  0.4648 -2.5427 -0.2623
  817MOL0     H12683   1.607   0.280   7.557  0.3864 -0.5853 -0.5756
  817MOL0     H12684   1.643   0.246   7.734 -0.4401 -0.3073  0.6662
  817MOL0     H12685   1.756   0.034   7.565  3.2155 -0.6120 -0.7206
  817MOL0     H12686   1.762   0.168   7.470  2.7419 -2.5646 -1.9051
  817MOL0     H12687   1.973   0.139   7.604  1.3352  2.1114  1.2351
  817MOL0     H12688   1.897   0.160   7.757 -0.5775 -1.3357  0.2109
  817MOL0     H12689   1.945   0.353   7.537  1.9434 -1.9303  0.8591
  817MOL0     H12690   1.825   0.397   7.661 -1.8800 -1.1478 -0.7560
  817MOL0     H12691   2.087   0.460   7.677  0.7687 -0.8073 -0.7654
  817MOL0     H12692   2.092   0.297   7.733  0.6939  0.1137 -4.8674
  817MOL0     H12693   1.892   0.367   7.891  2.3439 -2.8906  2.9762
  817MOL0     H12694   2.056   0.397   7.941 -0.3589  0.0969  1.5269
  817MOL0     H12695   2.163   0.621   7.978  0.1975  1.6203  3.7756
  817MOL0     H12696   1.948   0.949   8.054  0.8728  2.8800 -2.2528
  817MOL0     H12697   2.112   0.922   7.973 -0.4541 -2.2729 -0.7483
  817MOL0     H12698   2.041   0.818   8.246  0.1917  0.9822  1.8781
  817MOL0     H12699   2.197   0.800   8.165  0.2790  0.9732 -2.3544
  817MOL0     H12700   2.232   1.046   8.181  0.1240  0.7909  2.3271
  817MOL0     H12701   2.070   1.084   8.201  2.0008  0.5809 -2.9826
  817MOL0     H12702   2.190   1.106   8.419  0.7303 -0.6853 -0.0987
  817MOL0     H12703   2.073   0.962   8.427 -1.5610 -0.3117 -2.3944
  817MOL0     H12704   2.445   0.766   8.444 -3.0805  1.1123 -1.7854
  817MOL0     H12705   2.601   0.637   8.698 -1.6620  2.3133 -1.3329
  817MOL0     H12706   2.557   0.563   8.540  0.2160  0.6392 -0.7815
  817MOL0     H12707   2.506   0.490   8.697 -1.9103  1.3121  0.8111
  817MOL0     H12708   2.307   0.317   8.908 -0.2072  1.4954 -1.0244
  817MOL0     H12709   2.343   0.160   9.114  0.6217  1.0954  0.9725
  817MOL0     H12710   2.138   0.082   9.267  0.0459 -0.9895 -1.2026
  817MOL0     H12711   2.299   0.017   9.277 -1.0183 -1.8316 -0.6947
  817MOL0     H12712   2.184  -0.103   9.437  0.4915 -0.2517  1.0422
  817MOL0     H12713   2.273   0.014   9.532  0.1039  1.7471 -0.6178
  817MOL0     H12714   1.971   0.029   9.438  0.9229  2.6198 -1.0281
  817MOL0     H12715   2.044   0.160   9.527 -2.2555  0.2871 -2.7003
  817MOL0     H12716   2.093  -0.027   9.711 -1.7799 -1.6208  1.4679
  817MOL0     H12717   2.007  -0.143   9.615 -3.1165 -0.3109 -0.6032
  817MOL0     H12718   1.835  -0.081   9.773 -1.6395  0.1471 -2.6378
  817MOL0     H12719   1.879   0.085   9.760 -2.6191  0.5519  0.7131
  817MOL0     H12720   1.772   0.091   9.528  1.4153  0.2534 -0.3771
  817MOL0     H12721   1.666   0.012   9.644 -0.1654  2.3929  0.5759
  817MOL0     H12722   1.827  -0.199   9.516  0.8288 -1.5746 -0.4851
  817MOL0     H12723   1.738  -0.090   9.400 -0.2167 -0.4600  0.2873
  817MOL0     H12724   1.601  -0.227   9.633  2.7184 -0.9381  0.3312
  817MOL0     H12725   1.613  -0.298   9.477 -3.0073 -0.7874  1.3224
  817MOL0     H12726   2.159   0.451   9.362  1.0967  1.6557 -0.0331
  817MOL0     H12727   2.159   0.612   9.176  0.0707  0.3142  0.0979
  817MOL0     H12728   2.107   0.767   8.799 -1.7426  2.9601 -2.4062
  817MOL0     H12729   2.096   0.912   8.609  1.1171  0.0213 -2.2519
  817MOL0     H12730   1.390   0.248   8.083  0.0124  0.0926 -0.6200
  817MOL0     H12731   1.196   0.284   8.203  4.5117  0.5424 -0.3220
  817MOL0     H12732   0.800   0.151   8.261  1.6628  0.1928  0.7805
  817MOL0     H12733   0.622   0.093   8.410 -3.7683  0.7960 -3.7710
  817MOL0     H12734   0.400   0.096   8.430 -0.0583 -2.5943 -0.2367
  817MOL0     H12735   0.413   0.085   8.601  2.6833  2.8373  1.4283
  817MOL0     H12736   0.227   0.225   8.642 -1.6259  1.4100  0.0151
  817MOL0     H12737   0.174   0.093   8.547  2.0274 -2.9362 -2.5892
  817MOL0     H12738   0.090   0.334   8.495 -1.2710 -0.1444 -3.2580
  817MOL0     H12739   0.242   0.365   8.412  2.1083 -1.2233  0.4898
  817MOL0     H12740   0.175   0.152   8.262  0.2879  1.8867 -2.1126
  817MOL0     H12741   0.083   0.303   8.248 -0.3078 -0.5913 -1.1881
  817MOL0     H12742  -0.187   0.014   8.437  0.6934 -1.4967 -0.8417
  817MOL0     H12743   0.567   0.519   8.497 -1.2700  0.9220 -3.1369
  817MOL0     H12744   0.773   0.649   8.270  2.2942 -0.2417  0.0734
  817MOL0     H12745   0.705   0.660   8.437 -0.6554 -1.5008  1.1037
  817MOL0     H12746   0.881   0.621   8.407 -0.1802 -1.4645  0.7041
  818MOL0     O12747   5.660   4.540   0.548  0.2224 -0.2260 -0.1155
  818MOL0     C12748   5.626   4.510   0.438  0.7124  0.2502  0.3113
  818MOL0     O12749   5.710   4.517   0.331  0.6116  0.0614  0.4223
  818MOL0     C12750   5.837   4.572   0.339  0.4907 -0.0495  0.1786
  818MOL0     C12751   5.901   4.653   0.437  0.9090  0.4378 -0.1613
  818MOL0     C12752   6.029   4.703   0.417 -0.4924  0.0364  0.1595
  818MOL0     C12753   6.095   4.689   0.295 -0.1812  0.0515 -0.4655
  818MOL0     O12754   6.214   4.753   0.295 -0.0556  0.2414 -0.0315
  818MOL0     C12755   6.298   4.766   0.183 -0.0171 -0.1606 -1.0106
  818MOL0     C12756   6.406   4.862   0.226 -0.5384  0.3776  0.0084
  818MOL0     C12757   6.539   4.850   0.153  0.7182  0.5694  0.3181
  818MOL0     C12758   6.532   4.783   0.004  0.1221 -0.5852  0.0952
  818MOL0     C12759   6.682   4.743  -0.031  0.4534 -0.6170  0.2643
  818MOL0     C12760   6.783   4.857  -0.042  1.0125  0.0471  0.3278
  818MOL0     C12761   6.920   4.800  -0.068 -0.2983  0.4327  0.6733
  818MOL0     C12762   7.032   4.908  -0.060  0.5030  0.6673  0.5659
  818MOL0     N12763   7.033   5.004  -0.172 -0.0651 -0.9129 -0.3196
  818MOL0     C12764   6.949   5.106  -0.186 -0.4874  0.0595 -0.5789
  818MOL0     C12765   6.988   5.168  -0.303  0.1039 -0.5847 -0.1803
  818MOL0     C12766   6.918   5.289  -0.371 -0.2139  0.3730  1.2103
  818MOL0     C12767   6.933   5.265  -0.517 -0.0002 -0.3904  0.8750
  818MOL0     C12768   6.863   5.378  -0.586  0.9590 -0.7285 -0.9745
  818MOL0     C12769   6.827   5.342  -0.737  1.0633 -0.7909  0.2711
  818MOL0     O12770   6.704   5.263  -0.729 -0.1296 -0.0770  0.1253
  818MOL0     C12771   6.617   5.271  -0.833 -0.9356  0.8881  0.9804
  818MOL0     C12772   6.653   5.318  -0.955 -0.6338  0.4212  0.2572
  818MOL0     C12773   6.569   5.304  -1.062 -0.0544 -0.9117  0.4554
  818MOL0     C12774   6.619   5.368  -1.191  0.3570 -0.5769 -0.0634
  818MOL0     C12775   6.443   5.250  -1.047  0.1522 -0.5269 -0.3187
  818MOL0     C12776   6.344   5.243  -1.161 -0.2464  0.4609 -0.3746
  818MOL0     O12777   6.214   5.230  -1.112  0.6355  0.3683 -0.7439
  818MOL0     C12778   6.112   5.224  -1.199  0.5165 -0.1883  0.3294
  818MOL0     C12779   6.105   5.306  -1.312  0.1002  0.1482 -0.0910
  818MOL0     C12780   5.990   5.290  -1.393 -0.5571  0.2996  1.2273
  818MOL0     C12781   5.892   5.189  -1.370  0.2698  0.0661  0.0812
  818MOL0     O12782   5.785   5.179  -1.461 -0.2133  0.6895 -0.1478
  818MOL0     C12783   5.728   5.044  -1.488 -0.4890 -0.8725 -0.0850
  818MOL0     C12784   5.609   5.047  -1.594  0.6852  0.7292  0.2672
  818MOL0     C12785   5.493   4.959  -1.572  0.4727 -0.7505 -0.3808
  818MOL0     C12786   5.394   4.968  -1.687 -0.2513  1.0402  0.1951
  818MOL0     C12787   5.264   4.890  -1.657 -0.3430 -0.8849 -0.0563
  818MOL0     C12788   5.179   4.917  -1.773  0.9716 -0.0512 -0.2860
  818MOL0     C12789   5.103   5.053  -1.772  0.2849 -0.3811  1.4791
  818MOL0     C12790   4.975   5.061  -1.860 -0.7170  0.8902  0.5789
  818MOL0    Cl12791   5.013   5.002  -2.018  0.0083 -0.0192 -0.1203
  818MOL0     C12792   5.898   5.119  -1.252 -0.4289 -1.4378 -0.3636
  818MOL0     C12793   6.009   5.131  -1.164  0.4734  1.0194 -1.1736
  818MOL0     O12794   6.374   5.218  -1.278  0.3841 -0.2017  0.0973
  818MOL0     C12795   6.409   5.212  -0.920  0.0524 -0.1351  0.0307
  818MOL0     C12796   6.495   5.209  -0.817  0.0051 -0.4344 -0.6482
  818MOL0     N12797   7.109   5.112  -0.346 -0.3516  0.2530 -0.1136
  818MOL0     N12798   7.133   5.017  -0.262 -0.6018 -0.2314  0.3435
  818MOL0     C12799   6.038   4.599   0.204  0.3026 -0.0102 -0.2202
  818MOL0     C12800   5.918   4.534   0.223  0.1523  0.2390 -0.2320
  818MOL0     C12801   5.486   4.490   0.411 -0.9788  0.5177  0.1223
  818MOL0     C12802   5.431   4.504   0.282  0.1647  0.2222 -0.8730
  818MOL0     C12803   5.296   4.500   0.252 -0.8922 -1.0522 -0.4119
  818MOL0     C12804   5.209   4.485   0.359 -0.5991  0.7278 -0.5783
  818MOL0     O12805   5.063   4.489   0.360 -1.6141 -0.3624  0.4972
  818MOL0     C12806   4.999   4.575   0.267 -0.0968  0.1364  0.3628
  818MOL0     C12807   4.873   4.644   0.329 -0.7928 -0.6202  0.6342
  818MOL0     C12808   4.801   4.721   0.214 -0.7664 -0.5368  0.2037
  818MOL0     C12809   4.699   4.818   0.277 -0.3814  0.2617  0.7367
  818MOL0     C12810   4.582   4.749   0.333 -0.4443  0.1882  0.1486
  818MOL0     C12811   4.489   4.690   0.374 -0.5545 -0.4620 -0.9861
  818MOL0     C12812   5.264   4.462   0.491 -0.1797 -0.9765  0.4185
  818MOL0     C12813   5.401   4.441   0.515  0.5199  0.6404  0.8050
  818MOL0     C12814   5.436   4.400   0.657 -0.0745 -0.2764 -0.1404
  818MOL0     H12815   5.864   4.677   0.536  1.8975 -0.3919  0.4217
  818MOL0     H12816   6.078   4.749   0.502 -3.1157 -1.6429  2.7602
  818MOL0     H12817   6.248   4.800   0.092 -0.4139 -0.5015 -0.9203
  818MOL0     H12818   6.339   4.665   0.172  1.1836  0.2994 -0.9194
  818MOL0     H12819   6.364   4.963   0.215  2.5116  2.1147  2.6868
  818MOL0     H12820   6.423   4.845   0.333 -0.7137 -1.6880 -0.2562
  818MOL0     H12821   6.576   4.953   0.146  0.9087  0.4048 -1.7247
  818MOL0     H12822   6.609   4.798   0.219  1.6440  0.1593 -0.9408
  818MOL0     H12823   6.465   4.697   0.011  1.3625 -1.5195  0.9296
  818MOL0     H12824   6.489   4.848  -0.072 -1.2756 -0.9829  0.5092
  818MOL0     H12825   6.685   4.681  -0.121 -0.2778  0.1576 -0.3104
  818MOL0     H12826   6.712   4.678   0.052  0.2041 -1.0031  0.0586
  818MOL0     H12827   6.757   4.928  -0.121  1.1092 -0.6272 -0.3131
  818MOL0     H12828   6.778   4.916   0.051  3.6318  0.1341  0.4677
  818MOL0     H12829   6.927   4.757  -0.168 -1.8480 -1.1418  1.1696
  818MOL0     H12830   6.946   4.713  -0.006 -2.3418 -0.1769  0.7571
  818MOL0     H12831   7.022   4.962   0.034  1.5148  1.0983  0.4437
  818MOL0     H12832   7.133   4.866  -0.055  0.2429  0.0388  0.6966
  818MOL0     H12833   6.869   5.135  -0.119 -0.1607  0.3095 -0.2920
  818MOL0     H12834   6.960   5.385  -0.340  1.1278  0.3184 -0.3204
  818MOL0     H12835   6.813   5.287  -0.341 -0.5916 -0.8622 -0.1092
  818MOL0     H12836   7.038   5.274  -0.545 -0.0918  1.0417  0.9003
  818MOL0     H12837   6.891   5.169  -0.550 -0.2327  0.0240 -0.0808
  818MOL0     H12838   6.773   5.407  -0.532 -0.4123 -2.2973 -2.3260
  818MOL0     H12839   6.930   5.464  -0.594 -0.9608  0.9685  0.3612
  818MOL0     H12840   6.800   5.436  -0.786  1.5964 -0.2055  1.0705
  818MOL0     H12841   6.897   5.293  -0.805  1.1845  0.7722 -0.7516
  818MOL0     H12842   6.753   5.351  -0.982  0.9981 -2.4736  2.2166
  818MOL0     H12843   6.643   5.291  -1.265  2.2307  0.5713 -0.7325
  818MOL0     H12844   6.710   5.424  -1.167  0.6627 -0.8399 -0.5809
  818MOL0     H12845   6.541   5.435  -1.229 -0.9071 -0.7424  2.0731
  818MOL0     H12846   6.187   5.373  -1.335 -0.4069  0.5921 -0.6447
  818MOL0     H12847   5.976   5.348  -1.483 -1.7915  1.3753  2.0779
  818MOL0     H12848   5.812   4.983  -1.524 -0.7611 -0.0285 -2.3094
  818MOL0     H12849   5.685   5.004  -1.396 -0.4646  0.1320  0.3760
  818MOL0     H12850   5.561   5.145  -1.587  0.3368  0.4894  1.4524
  818MOL0     H12851   5.645   5.043  -1.697  1.3714 -1.9925  0.5438
  818MOL0     H12852   5.433   4.999  -1.489  0.6069  3.8802 -2.2386
  818MOL0     H12853   5.526   4.858  -1.546  0.4581 -0.7204 -0.2407
  818MOL0     H12854   5.445   4.927  -1.775 -0.2549  2.2610 -0.4007
  818MOL0     H12855   5.374   5.073  -1.710 -1.0239  0.8558 -0.0294
  818MOL0     H12856   5.288   4.784  -1.658 -0.1221 -0.8485  0.6873
  818MOL0     H12857   5.218   4.925  -1.564  1.1853  2.0523 -0.2664
  818MOL0     H12858   5.099   4.843  -1.772  0.1223  0.8007 -1.7257
  818MOL0     H12859   5.230   4.906  -1.869  1.7779  0.9744 -0.0049
  818MOL0     H12860   5.166   5.132  -1.813  2.1183 -2.4444  0.0668
  818MOL0     H12861   5.077   5.097  -1.675  0.7267  1.4070  0.8210
  818MOL0     H12862   4.955   5.168  -1.865  1.3410  1.2800 -0.4508
  818MOL0     H12863   4.884   5.013  -1.822 -0.7787 -1.0734 -1.7645
  818MOL0     H12864   5.815   5.053  -1.229  0.7543 -2.3882  1.4630
  818MOL0     H12865   6.017   5.077  -1.070  2.1549  0.9136 -1.3469
  818MOL0     H12866   6.311   5.182  -0.885 -0.3867 -0.7615 -1.6367
  818MOL0     H12867   6.458   5.165  -0.725 -2.2480  1.8295 -0.3871
  818MOL0     H12868   6.090   4.597   0.109  0.5027  0.6621 -0.1352
  818MOL0     H12869   5.884   4.473   0.140  2.3331 -0.5569 -0.5947
  818MOL0     H12870   5.497   4.519   0.197  1.0424  2.2822  0.1050
  818MOL0     H12871   5.259   4.519   0.152 -1.2447 -0.0226 -0.0920
  818MOL0     H12872   5.067   4.656   0.240  1.2112 -1.5814 -1.8544
  818MOL0     H12873   4.969   4.521   0.177 -0.7141  1.3040 -0.1455
  818MOL0     H12874   4.911   4.696   0.418  0.4191 -1.8278  0.8588
  818MOL0     H12875   4.803   4.567   0.362 -4.3432  1.5488 -1.2546
  818MOL0     H12876   4.884   4.771   0.164  0.6487 -1.4724  1.5231
  818MOL0     H12877   4.754   4.654   0.142  1.7053 -3.2186  0.8935
  818MOL0     H12878   4.670   4.888   0.198 -0.8803 -1.2540 -0.4710
  818MOL0     H12879   4.747   4.880   0.353 -1.2094  2.2454 -0.2754
  818MOL0     H12880   4.399   4.636   0.398  0.8169 -2.2830  0.3227
  818MOL0     H12881   5.199   4.444   0.576  2.2719 -3.0091  2.0331
  818MOL0     H12882   5.525   4.337   0.652 -0.7940 -1.3196 -0.1099
  818MOL0     H12883   5.463   4.493   0.710  0.2093 -0.6032  0.2964
  818MOL0     H12884   5.368   4.336   0.714  3.1076 -4.6048 -0.6886
  819MOL0     O12885   3.671   1.251  11.120  0.2188  0.6768  0.0422
  819MOL0     C12886   3.696   1.307  11.230 -0.2873 -0.2067 -0.0291
  819MOL0     O12887   3.601   1.318  11.329 -0.1754 -0.0346 -0.0951
  819MOL0     C12888   3.468   1.299  11.295 -0.7165  0.9889  0.0552
  819MOL0     C12889   3.424   1.170  11.289 -1.3523  0.5061  0.4875
  819MOL0     C12890   3.293   1.138  11.245  0.1348 -0.2975  0.9385
  819MOL0     C12891   3.204   1.246  11.218 -0.4229  0.5741  0.0730
  819MOL0     O12892   3.073   1.226  11.181 -0.1984 -0.2440  0.2204
  819MOL0     C12893   3.011   1.116  11.245 -0.3189 -0.4998  0.2298
  819MOL0     C12894   2.861   1.145  11.244 -0.2287  0.1334 -0.4808
  819MOL0     C12895   2.834   1.269  11.345  0.0909 -0.3918 -0.5799
  819MOL0     C12896   2.689   1.263  11.380  0.3501  0.1760  0.2030
  819MOL0     C12897   2.627   1.380  11.450  0.1716  0.3751  0.0088
  819MOL0     C12898   2.684   1.410  11.592 -0.9045 -0.3685  0.2490
  819MOL0     C12899   2.601   1.527  11.639 -0.7982  0.0856  1.3660
  819MOL0     C12900   2.638   1.568  11.777 -0.6316 -0.1344 -0.5218
  819MOL0     N12901   2.782   1.594  11.786 -0.2862 -0.3893 -0.8842
  819MOL0     C12902   2.864   1.673  11.707  0.0557  0.4074  0.9632
  819MOL0     C12903   2.988   1.671  11.763  0.2335  0.3384  0.9974
  819MOL0     C12904   3.113   1.731  11.711 -0.7468  0.3834 -0.4600
  819MOL0     C12905   3.205   1.622  11.664 -0.0502 -0.3453 -0.1673
  819MOL0     C12906   3.327   1.666  11.597  0.8320 -0.4022 -0.5456
  819MOL0     C12907   3.429   1.719  11.704 -0.9299 -0.2761  0.2763
  819MOL0     O12908   3.544   1.699  11.623 -0.0661  0.2716  0.4047
  819MOL0     C12909   3.675   1.743  11.662 -0.3819  0.3289 -0.2005
  819MOL0     C12910   3.700   1.827  11.768  0.3597 -0.2133 -0.7294
  819MOL0     C12911   3.830   1.868  11.794 -0.6733  0.2315 -0.2121
  819MOL0     C12912   3.849   1.969  11.904  0.2224  0.0066  0.5685
  819MOL0     C12913   3.940   1.808  11.723  0.6138  0.1391  0.0411
  819MOL0     C12914   4.083   1.840  11.751 -0.1997 -0.2228  0.2570
  819MOL0     O12915   4.167   1.749  11.702 -0.3563  0.3717 -0.6539
  819MOL0     C12916   4.300   1.751  11.721  0.4091  0.2770 -0.1507
  819MOL0     C12917   4.365   1.636  11.763 -0.5284 -0.4047 -0.2471
  819MOL0     C12918   4.506   1.628  11.767 -0.1885  0.6251 -0.6088
  819MOL0     C12919   4.587   1.735  11.737 -0.1235  0.2863 -0.1312
  819MOL0     O12920   4.724   1.733  11.725 -0.7087 -0.2469 -0.3128
  819MOL0     C12921   4.798   1.654  11.827  0.8710 -0.1921  0.4986
  819MOL0     C12922   4.951   1.691  11.807  0.4319  0.3286 -0.0990
  819MOL0     C12923   4.998   1.656  11.663 -0.7072 -0.4131 -1.0061
  819MOL0     C12924   5.143   1.685  11.626 -0.4825  0.4624 -0.3466
  819MOL0     C12925   5.232   1.626  11.741  0.5390 -0.1445  0.0273
  819MOL0     C12926   5.379   1.631  11.697  0.5501 -0.4856 -0.5814
  819MOL0     C12927   5.475   1.563  11.795  0.2640  0.1243  0.6551
  819MOL0     C12928   5.564   1.476  11.707 -0.2251 -0.3881  0.3562
  819MOL0    Cl12929   5.656   1.566  11.578 -0.3335 -0.1583  0.2640
  819MOL0     C12930   4.519   1.849  11.687 -0.2941  0.0749 -0.0090
  819MOL0     C12931   4.376   1.861  11.677 -0.9649 -0.1269 -0.2264
  819MOL0     O12932   4.113   1.949  11.799  0.2944 -0.2817  0.0625
  819MOL0     C12933   3.909   1.728  11.606 -0.3027 -0.2049 -0.3320
  819MOL0     C12934   3.775   1.695  11.586  0.3919  0.3112  0.5282
  819MOL0     N12935   2.980   1.588  11.876 -0.7246 -0.5868 -0.4204
  819MOL0     N12936   2.853   1.567  11.902 -0.6545  0.0883  0.1927
  819MOL0     C12937   3.259   1.379  11.227  1.3982  0.2869 -0.5892
  819MOL0     C12938   3.385   1.402  11.272  0.3408 -0.4921  0.5317
  819MOL0     C12939   3.835   1.336  11.272 -0.0880  0.5124 -0.3059
  819MOL0     C12940   3.854   1.379  11.405 -0.5344  0.1699  0.0450
  819MOL0     C12941   3.987   1.396  11.449 -0.9310  0.1145 -0.6889
  819MOL0     C12942   4.096   1.393  11.366 -0.7114 -0.3200 -0.2538
  819MOL0     O12943   4.222   1.416  11.403 -0.3136 -0.1213 -0.8393
  819MOL0     C12944   4.256   1.556  11.419 -0.3082 -0.3451 -0.0796
  819MOL0     C12945   4.238   1.624  11.281  0.3960  0.1550 -0.1329
  819MOL0     C12946   4.288   1.764  11.307  0.2304  0.0501 -0.4045
  819MOL0     C12947   4.344   1.850  11.191  0.9536 -0.4181  0.4068
  819MOL0     C12948   4.472   1.797  11.148  0.5995  0.1992 -0.4577
  819MOL0     C12949   4.577   1.749  11.124 -0.3594 -0.2139  1.2531
  819MOL0     C12950   4.078   1.351  11.234 -0.1015 -0.1127  0.0731
  819MOL0     C12951   3.948   1.327  11.180 -0.3330  0.0767 -0.1957
  819MOL0     C12952   3.943   1.286  11.034  0.6043 -0.1791  0.3388
  819MOL0     H12953   3.498   1.097  11.318  0.4145  1.9956 -0.0993
  819MOL0     H12954   3.267   1.033  11.234  0.3437 -0.3459  0.8957
  819MOL0     H12955   3.060   1.103  11.342  0.7106 -0.6771 -0.2944
  819MOL0     H12956   3.041   1.026  11.189  0.9877 -0.3092  0.5815
  819MOL0     H12957   2.832   1.167  11.141  1.3058  2.0217 -0.5561
  819MOL0     H12958   2.814   1.057  11.288  0.1074  0.2692  0.1618
  819MOL0     H12959   2.907   1.253  11.426 -0.1594  0.7539 -0.1018
  819MOL0     H12960   2.841   1.373  11.311 -0.0073  0.6511  2.2550
  819MOL0     H12961   2.635   1.244  11.287 -0.2481  0.6649  0.4429
  819MOL0     H12962   2.681   1.173  11.443 -0.4960 -0.3544 -0.6332
  819MOL0     H12963   2.519   1.367  11.450  0.0187  1.5323 -0.5457
  819MOL0     H12964   2.655   1.463  11.384 -0.5215  0.7882  0.2298
  819MOL0     H12965   2.655   1.322  11.651 -1.8438  1.4109  2.5872
  819MOL0     H12966   2.790   1.432  11.582 -1.1570 -0.0809 -3.1183
  819MOL0     H12967   2.492   1.516  11.635 -0.6797 -0.9998  0.6925
  819MOL0     H12968   2.622   1.612  11.572  0.2455 -0.7866  0.5382
  819MOL0     H12969   2.597   1.667  11.795  0.4537  0.8244 -2.8015
  819MOL0     H12970   2.609   1.491  11.849 -0.8017 -1.8217 -2.3103
  819MOL0     H12971   2.832   1.708  11.609 -3.8544  2.5474  2.7421
  819MOL0     H12972   3.169   1.786  11.787  1.7301 -1.7005 -0.6212
  819MOL0     H12973   3.089   1.797  11.628 -1.5413  0.7142  0.0203
  819MOL0     H12974   3.224   1.547  11.742  1.5614  0.5661  0.3670
  819MOL0     H12975   3.150   1.569  11.586 -1.8701  0.4360  0.5342
  819MOL0     H12976   3.375   1.579  11.552 -0.3234 -2.0028  1.1571
  819MOL0     H12977   3.296   1.744  11.528  2.0419  1.0198  0.4475
  819MOL0     H12978   3.412   1.825  11.724  2.3794  0.0927  1.8459
  819MOL0     H12979   3.444   1.662  11.796 -0.6491  1.1623  1.1511
  819MOL0     H12980   3.621   1.877  11.823  0.4175 -1.9874  1.0535
  819MOL0     H12981   3.888   2.066  11.870 -3.0154  2.1304  2.3278
  819MOL0     H12982   3.899   1.934  11.994  0.1589 -0.7609  0.3098
  819MOL0     H12983   3.752   2.006  11.940 -0.4804 -2.3702  1.2562
  819MOL0     H12984   4.303   1.555  11.801 -0.5334 -0.3961 -0.2369
  819MOL0     H12985   4.532   1.531  11.808 -1.0750  0.3992 -0.5561
  819MOL0     H12986   4.753   1.680  11.924 -1.4026 -1.7702 -0.0665
  819MOL0     H12987   4.771   1.552  11.800 -1.2008  0.7445 -1.3378
  819MOL0     H12988   4.983   1.796  11.812  3.5319 -0.2915 -2.9980
  819MOL0     H12989   5.005   1.632  11.882 -1.6110  1.6649  2.6075
  819MOL0     H12990   4.937   1.726  11.605 -1.8710  0.8488  1.5477
  819MOL0     H12991   4.976   1.553  11.632  1.0618 -0.9039 -0.7568
  819MOL0     H12992   5.155   1.793  11.616 -3.0365  1.1974  2.7136
  819MOL0     H12993   5.176   1.629  11.539 -1.3390  0.2617 -0.5584
  819MOL0     H12994   5.218   1.685  11.831  1.4218 -3.1756  2.3166
  819MOL0     H12995   5.209   1.521  11.766  2.3741 -1.3035 -2.6607
  819MOL0     H12996   5.400   1.738  11.701  2.4296 -0.8296  2.5077
  819MOL0     H12997   5.398   1.593  11.596  1.6467  1.0959 -1.0184
  819MOL0     H12998   5.420   1.502  11.868  2.3091  1.1663  3.2597
  819MOL0     H12999   5.533   1.634  11.854  1.0497  1.1108 -1.2318
  819MOL0     H13000   5.500   1.395  11.673 -0.8855 -0.2769  1.3139
  819MOL0     H13001   5.641   1.442  11.776 -0.1511 -0.3944  0.2717
  819MOL0     H13002   4.586   1.926  11.650  0.7153 -1.2403 -1.0091
  819MOL0     H13003   4.324   1.942  11.628 -0.3097 -0.6190 -1.7861
  819MOL0     H13004   3.980   1.681  11.539  0.8050 -1.2710  1.4917
  819MOL0     H13005   3.757   1.642  11.493  5.1512  0.9710 -1.0174
  819MOL0     H13006   3.198   1.466  11.200  0.4271 -0.6937 -1.6695
  819MOL0     H13007   3.432   1.500  11.269  0.2883 -0.4766  0.1706
  819MOL0     H13008   3.764   1.402  11.461 -1.2056  2.8292 -1.9195
  819MOL0     H13009   4.007   1.430  11.550  1.8576  0.3902 -1.2340
  819MOL0     H13010   4.194   1.616  11.486  2.5471  0.9737  1.5650
  819MOL0     H13011   4.361   1.566  11.446  0.3275 -0.2719 -2.3931
  819MOL0     H13012   4.133   1.624  11.251  0.5750  0.8898 -0.7897
  819MOL0     H13013   4.303   1.579  11.206  0.6226  1.6584 -0.8844
  819MOL0     H13014   4.205   1.818  11.353 -0.2033  0.7613 -1.9533
  819MOL0     H13015   4.377   1.766  11.370  1.2066  1.7840 -1.7523
  819MOL0     H13016   4.351   1.954  11.225  0.2678  0.7336 -2.6441
  819MOL0     H13017   4.284   1.851  11.100  2.1772 -2.3694 -0.4808
  819MOL0     H13018   4.675   1.706  11.126 -1.2747 -2.4080  1.6262
  819MOL0     H13019   4.166   1.334  11.173  1.1287  1.4534  1.3082
  819MOL0     H13020   3.936   1.177  11.024 -2.2244 -0.1793  1.5598
  819MOL0     H13021   3.860   1.323  10.975  1.4669  2.1047  0.4608
  819MOL0     H13022   4.033   1.326  10.987  2.7959 -0.0474  4.2120
  820MOL0     O13023   2.708   1.078   6.064 -0.6005 -0.1060  0.1111
  820MOL0     C13024   2.701   1.004   6.159 -0.3760 -0.4855  0.2333
  820MOL0     O13025   2.663   0.874   6.163 -0.1292 -0.5337 -0.1958
  820MOL0     C13026   2.595   0.824   6.053 -1.2113  0.8789 -1.1042
  820MOL0     C13027   2.640   0.705   5.988  0.5548  0.0245  0.2424
  820MOL0     C13028   2.548   0.655   5.881  0.5377  0.3303 -0.2072
  820MOL0     C13029   2.439   0.727   5.841 -0.6238 -0.1020  0.9048
  820MOL0     O13030   2.348   0.703   5.738 -0.6926  0.2396 -1.2438
  820MOL0     C13031   2.382   0.621   5.628 -0.4922 -0.0187 -0.5711
  820MOL0     C13032   2.286   0.504   5.636 -0.4872  0.0445  0.0326
  820MOL0     C13033   2.248   0.474   5.495  0.3490  0.3400  0.9935
  820MOL0     C13034   2.172   0.333   5.480  1.1339 -0.3828 -0.2085
  820MOL0     C13035   2.118   0.324   5.334  0.4591  0.0633  0.1411
  820MOL0     C13036   2.077   0.187   5.311 -0.1060  0.4681  0.0659
  820MOL0     C13037   2.038   0.151   5.169  0.3491  0.6153 -0.4020
  820MOL0     C13038   1.911   0.231   5.126  0.5468  0.1984 -0.2274
  820MOL0     N13039   1.825   0.141   5.049  0.5752 -0.8175  0.0029
  820MOL0     C13040   1.773   0.027   5.091  0.7634 -0.0708 -0.6989
  820MOL0     C13041   1.699  -0.015   4.990  0.4443  0.0480 -0.5921
  820MOL0     C13042   1.637  -0.156   4.989  0.8055  0.3594 -1.0815
  820MOL0     C13043   1.497  -0.154   4.926  1.2827 -0.8560 -0.5228
  820MOL0     C13044   1.417  -0.288   4.927 -0.5175 -0.6443  0.0469
  820MOL0     C13045   1.326  -0.308   4.804 -0.3974  1.0428 -0.5534
  820MOL0     O13046   1.406  -0.378   4.704  0.1449  0.5324 -0.2482
  820MOL0     C13047   1.333  -0.463   4.623  1.1364  0.7096  0.8697
  820MOL0     C13048   1.214  -0.531   4.656  0.3023 -0.5864  0.1975
  820MOL0     C13049   1.150  -0.608   4.566 -0.1100 -0.1425 -0.0856
  820MOL0     C13050   1.019  -0.678   4.606  0.2558  0.2913  0.6002
  820MOL0     C13051   1.202  -0.626   4.432 -0.1631  0.0581  0.1233
  820MOL0     C13052   1.134  -0.694   4.327 -0.5468  0.8029 -0.3139
  820MOL0     O13053   1.213  -0.760   4.238  0.4160  0.1316 -0.5479
  820MOL0     C13054   1.146  -0.843   4.147 -0.1704 -0.0800  0.4350
  820MOL0     C13055   1.140  -0.813   4.015  0.8439  0.1237  0.3991
  820MOL0     C13056   1.102  -0.910   3.923 -0.1396  0.3863  0.0703
  820MOL0     C13057   1.056  -1.033   3.966  0.7696  0.1189  1.0642
  820MOL0     O13058   1.034  -1.136   3.876  0.1687 -0.1988  0.3328
  820MOL0     C13059   0.899  -1.184   3.877 -0.0571  0.4652 -0.3090
  820MOL0     C13060   0.812  -1.076   3.817 -0.1150  0.6556 -0.6704
  820MOL0     C13061   0.830  -1.084   3.665 -0.3405 -0.8796 -0.1881
  820MOL0     C13062   0.744  -0.989   3.586 -0.3886  0.4132  0.4751
  820MOL0     C13063   0.768  -1.003   3.431  0.3917  0.5648 -0.6650
  820MOL0     C13064   0.914  -0.960   3.406 -0.3416 -0.6169 -0.2634
  820MOL0     C13065   0.934  -0.908   3.255 -0.5060 -0.2924  0.3721
  820MOL0     C13066   0.906  -0.763   3.227 -0.7401  0.8260  0.0887
  820MOL0    Cl13067   0.735  -0.739   3.199  0.2326 -0.0346 -0.4384
  820MOL0     C13068   1.043  -1.059   4.101 -0.3404  0.3125 -0.3037
  820MOL0     C13069   1.089  -0.961   4.195 -0.6236 -0.6495  0.1530
  820MOL0     O13070   1.012  -0.687   4.316 -0.3612 -0.3119  0.0916
  820MOL0     C13071   1.327  -0.562   4.408  0.0560  0.0587 -0.2401
  820MOL0     C13072   1.384  -0.474   4.494  0.3395  0.9329  0.6516
  820MOL0     N13073   1.700   0.069   4.877  1.2212  0.3875 -0.6017
  820MOL0     N13074   1.788   0.158   4.917  0.5853  0.0482  0.5242
  820MOL0     C13075   2.400   0.842   5.911 -0.0472  0.1745  0.3906
  820MOL0     C13076   2.474   0.882   6.016  0.4743 -0.7325 -1.1878
  820MOL0     C13077   2.748   1.046   6.293 -0.1538  0.0675  1.2997
  820MOL0     C13078   2.661   1.066   6.396  0.2821  0.2263  0.8672
  820MOL0     C13079   2.705   1.113   6.519  0.6960 -0.2076  0.0802
  820MOL0     C13080   2.842   1.116   6.544  0.1467 -0.0573 -0.1863
  820MOL0     O13081   2.877   1.154   6.670 -0.6855 -0.0178 -0.6184
  820MOL0     C13082   3.018   1.173   6.688 -0.2855 -0.1282 -0.5245
  820MOL0     C13083   3.048   1.204   6.830 -0.2809  0.6890 -0.0578
  820MOL0     C13084   3.194   1.202   6.877 -0.6117 -0.1604 -0.3984
  820MOL0     C13085   3.222   1.318   6.987  0.0728  0.6078  0.2938
  820MOL0     C13086   3.146   1.306   7.109 -0.2517 -0.5391  0.2451
  820MOL0     C13087   3.094   1.319   7.220  0.8780  0.4552 -0.5826
  820MOL0     C13088   2.932   1.087   6.439  0.2568  0.2912  0.9188
  820MOL0     C13089   2.887   1.049   6.312 -1.0462  0.6397 -0.0492
  820MOL0     C13090   2.995   1.023   6.211  0.1889  0.3723  0.7752
  820MOL0     H13091   2.727   0.646   6.016  1.2261  1.0201  0.3076
  820MOL0     H13092   2.564   0.553   5.847  0.2810  1.5263 -4.3718
  820MOL0     H13093   2.488   0.592   5.627 -0.5709 -0.4126 -3.2251
  820MOL0     H13094   2.361   0.679   5.538  0.4977  0.2573 -0.6356
  820MOL0     H13095   2.340   0.422   5.685  0.0786 -0.0485 -0.7273
  820MOL0     H13096   2.197   0.537   5.690  0.8441  2.4937  0.8478
  820MOL0     H13097   2.188   0.552   5.447 -0.2431 -0.5915  0.1782
  820MOL0     H13098   2.340   0.469   5.436 -0.3677  2.5030 -0.4219
  820MOL0     H13099   2.246   0.256   5.501 -0.6658 -1.9925  0.4747
  820MOL0     H13100   2.096   0.321   5.558  0.7130  1.7584 -0.2115
  820MOL0     H13101   2.204   0.344   5.270  0.7001 -4.4464 -1.2924
  820MOL0     H13102   2.044   0.403   5.317  2.3705  2.3040  1.6510
  820MOL0     H13103   2.149   0.113   5.346 -0.9143 -0.6987 -0.6783
  820MOL0     H13104   1.984   0.173   5.367 -0.4944  1.3331 -0.3421
  820MOL0     H13105   2.029   0.042   5.167  2.0281  0.2388  3.4547
  820MOL0     H13106   2.120   0.175   5.101  2.2289 -1.2431  1.0613
  820MOL0     H13107   1.850   0.254   5.214  0.5044 -3.2622  0.8103
  820MOL0     H13108   1.929   0.324   5.071  3.2182 -0.3811 -0.4297
  820MOL0     H13109   1.780  -0.032   5.182 -0.1940  0.2334 -0.4157
  820MOL0     H13110   1.643  -0.209   5.084  1.4472 -1.6730 -2.1902
  820MOL0     H13111   1.699  -0.211   4.918  1.7702  1.9343 -1.5230
  820MOL0     H13112   1.434  -0.080   4.977  0.5756  0.3631 -3.0052
  820MOL0     H13113   1.514  -0.120   4.824  3.0957  1.1309  0.3590
  820MOL0     H13114   1.479  -0.378   4.925 -0.4690 -0.6022 -0.3663
  820MOL0     H13115   1.360  -0.292   5.021 -1.7406  0.3917 -0.6182
  820MOL0     H13116   1.231  -0.352   4.836  0.6615  0.1433  1.5966
  820MOL0     H13117   1.297  -0.215   4.754 -0.2336  0.5255 -1.6394
  820MOL0     H13118   1.155  -0.520   4.747 -4.1639  0.1012 -2.4627
  820MOL0     H13119   1.025  -0.777   4.561 -0.7373  0.8350 -0.7822
  820MOL0     H13120   0.935  -0.628   4.558 -0.0343 -1.1920 -0.5230
  820MOL0     H13121   1.001  -0.696   4.713 -2.4139 -1.2185 -0.0154
  820MOL0     H13122   1.187  -0.722   3.978  1.8658 -0.7248 -0.4171
  820MOL0     H13123   1.112  -0.902   3.815 -3.8432  2.0478 -0.3236
  820MOL0     H13124   0.895  -1.277   3.820  2.7557 -1.0334  1.6624
  820MOL0     H13125   0.863  -1.218   3.975 -1.5381 -0.4353 -1.1394
  820MOL0     H13126   0.709  -1.099   3.846  0.0802  0.1743 -0.3498
  820MOL0     H13127   0.841  -0.972   3.838 -1.8958  1.2920 -1.1391
  820MOL0     H13128   0.811  -1.185   3.629  0.4231 -1.7576  1.7443
  820MOL0     H13129   0.932  -1.053   3.638 -0.5117 -0.6791 -0.6103
  820MOL0     H13130   0.769  -0.890   3.624  0.1846  0.0458  1.0710
  820MOL0     H13131   0.639  -1.013   3.604 -0.3192  1.7122  3.0070
  820MOL0     H13132   0.750  -1.108   3.405 -1.1364  0.7531 -0.4514
  820MOL0     H13133   0.696  -0.953   3.367  0.3906 -2.9276 -3.7135
  820MOL0     H13134   0.986  -1.041   3.420 -0.9944 -1.1297  0.1675
  820MOL0     H13135   0.954  -0.881   3.470  3.0797 -1.6574 -0.8943
  820MOL0     H13136   0.891  -0.982   3.186 -0.6804 -0.3674  0.5616
  820MOL0     H13137   1.042  -0.914   3.237 -0.6713  0.2802 -0.9481
  820MOL0     H13138   0.956  -0.714   3.143 -2.0158  1.1515 -0.5079
  820MOL0     H13139   0.938  -0.706   3.315 -1.2743  0.1164  0.7581
  820MOL0     H13140   1.001  -1.151   4.140 -1.3629  1.5702  1.7759
  820MOL0     H13141   1.092  -0.978   4.302 -0.1393 -0.1984  0.2155
  820MOL0     H13142   1.378  -0.578   4.313 -0.0685  0.4289 -0.3706
  820MOL0     H13143   1.485  -0.441   4.469  0.9206  0.0631  1.7760
  820MOL0     H13144   2.304   0.892   5.901 -1.3502 -1.6179  2.8650
  820MOL0     H13145   2.424   0.964   6.067 -0.2181 -2.5467  1.2608
  820MOL0     H13146   2.553   1.066   6.393  0.2081 -2.6478  0.8210
  820MOL0     H13147   2.645   1.141   6.605  1.6010  2.6851 -0.1138
  820MOL0     H13148   3.076   1.085   6.659 -0.0440 -0.1131 -0.1009
  820MOL0     H13149   3.035   1.262   6.626  0.5819  0.5298  0.6156
  820MOL0     H13150   2.983   1.139   6.889  0.0590 -1.1032 -1.5879
  820MOL0     H13151   2.991   1.294   6.858 -0.8389  0.0402  0.9511
  820MOL0     H13152   3.210   1.108   6.930 -2.7190 -0.0239  0.5951
  820MOL0     H13153   3.259   1.207   6.790 -0.7893  2.1496 -0.4623
  820MOL0     H13154   3.195   1.417   6.948  0.2811  0.8440  0.7450
  820MOL0     H13155   3.325   1.316   7.023 -0.5278 -1.9431  2.1444
  820MOL0     H13156   3.030   1.336   7.304 -0.3123  0.6430 -1.5068
  820MOL0     H13157   3.037   1.084   6.464  0.2384  0.5539  1.0317
  820MOL0     H13158   2.986   0.924   6.165  4.5033  0.2122 -0.1663
  820MOL0     H13159   2.988   1.094   6.128 -0.0523  2.2771  2.3605
  820MOL0     H13160   3.097   1.031   6.249 -0.0251  1.4471  1.1427
  821MOL0     O13161   9.837   8.716   8.878 -0.1932 -0.2095  0.1085
  821MOL0     C13162   9.832   8.749   8.761 -0.3904  0.2172  0.3979
  821MOL0     O13163   9.945   8.775   8.682  0.7399 -0.1392 -0.2558
  821MOL0     C13164  10.061   8.717   8.742 -0.2878 -0.2954 -0.4249
  821MOL0     C13165  10.141   8.781   8.848  0.4235 -0.0007  0.6550
  821MOL0     C13166  10.242   8.718   8.900 -0.1691 -0.4488 -0.1599
  821MOL0     C13167  10.288   8.595   8.855  0.2951 -0.2647 -0.1579
  821MOL0     O13168  10.389   8.514   8.903 -0.1732 -0.3189 -0.6110
  821MOL0     C13169  10.462   8.541   9.028  0.5336 -0.3523 -0.3324
  821MOL0     C13170  10.559   8.429   9.048  0.0413  0.0848 -0.5067
  821MOL0     C13171  10.593   8.423   9.198 -1.6630 -0.3224  0.1018
  821MOL0     C13172  10.714   8.330   9.229 -0.1965 -0.1003  0.0279
  821MOL0     C13173  10.744   8.343   9.379  0.1021 -0.1821 -0.4683
  821MOL0     C13174  10.832   8.227   9.422 -0.4500 -0.0489 -0.5131
  821MOL0     C13175  10.818   8.202   9.575  0.0076 -0.0614  0.0490
  821MOL0     C13176  10.960   8.170   9.635  0.0587 -0.4154 -1.0082
  821MOL0     N13177  10.942   8.189   9.779 -0.2450  0.8189  0.1337
  821MOL0     C13178  10.910   8.102   9.875 -0.9221  0.2932  0.0450
  821MOL0     C13179  10.872   8.176   9.981  1.3136  0.8952  0.5006
  821MOL0     C13180  10.815   8.124  10.113 -0.0262  0.2955  0.1809
  821MOL0     C13181  10.931   8.104  10.220  0.9542 -1.1232  0.6505
  821MOL0     C13182  10.884   8.020  10.334 -1.4753  0.0479  0.0270
  821MOL0     C13183  11.009   8.009  10.424  0.2167  0.6529  0.5829
  821MOL0     O13184  11.034   8.128  10.497  0.5720 -0.4060  0.0663
  821MOL0     C13185  11.113   8.111  10.605 -0.0014  0.1617 -0.2814
  821MOL0     C13186  11.062   8.116  10.736 -0.6841 -0.3504  0.3392
  821MOL0     C13187  11.147   8.103  10.847 -0.3159  0.1968  0.3740
  821MOL0     C13188  11.081   8.097  10.981 -0.2484  0.4198 -0.9357
  821MOL0     C13189  11.290   8.099  10.822 -0.1188 -0.2269 -0.7225
  821MOL0     C13190  11.391   8.109  10.930  0.2950  0.8410 -0.4700
  821MOL0     O13191  11.518   8.059  10.893 -0.0306  0.1822  0.8773
  821MOL0     C13192  11.621   8.027  10.982  1.0599 -0.0371  0.7818
  821MOL0     C13193  11.666   8.114  11.087 -0.1565  0.4946 -0.6821
  821MOL0     C13194  11.760   8.067  11.185  0.1066  0.1082  0.2122
  821MOL0     C13195  11.815   7.943  11.171  0.3341 -0.7379 -1.0266
  821MOL0     O13196  11.907   7.892  11.261  0.4356 -0.7077  0.0486
  821MOL0     C13197  12.024   7.977  11.295  0.3716 -0.3949  0.2821
  821MOL0     C13198  12.139   7.888  11.352  0.0849 -0.2014 -0.2423
  821MOL0     C13199  12.188   7.764  11.280 -0.4762  0.1526  0.2255
  821MOL0     C13200  12.277   7.665  11.361 -0.4376  0.6845  0.0355
  821MOL0     C13201  12.406   7.733  11.421  0.1907 -0.1967  0.2880
  821MOL0     C13202  12.495   7.632  11.495 -0.6048  0.1456 -0.2180
  821MOL0     C13203  12.648   7.671  11.477  0.2393  0.1124 -0.8438
  821MOL0     C13204  12.754   7.601  11.570  1.6997  0.2599 -0.7101
  821MOL0    Cl13205  12.919   7.627  11.510  0.1429 -0.2931 -0.3520
  821MOL0     C13206  11.763   7.859  11.079  0.0832 -0.0261 -0.2765
  821MOL0     C13207  11.680   7.899  10.980  0.3156 -0.0937 -0.1923
  821MOL0     O13208  11.366   8.148  11.042  0.4206 -0.0467 -0.2391
  821MOL0     C13209  11.335   8.107  10.687 -0.3879 -0.0717 -0.8588
  821MOL0     C13210  11.248   8.115  10.583  0.3160 -0.2413 -0.3110
  821MOL0     N13211  10.895   8.308   9.953 -0.0766 -0.3965  0.1377
  821MOL0     N13212  10.942   8.309   9.829  0.7790 -0.0417 -1.4262
  821MOL0     C13213  10.225   8.539   8.748  0.8242 -0.8782 -0.0995
  821MOL0     C13214  10.112   8.600   8.692  0.1448 -0.1878  0.1313
  821MOL0     C13215   9.689   8.762   8.699 -0.3080  0.8430 -0.6711
  821MOL0     C13216   9.684   8.759   8.560 -0.6191 -0.6093 -0.2006
  821MOL0     C13217   9.567   8.749   8.490  0.5227 -0.4027  0.5324
  821MOL0     C13218   9.444   8.752   8.549  0.8148  0.1823 -0.2761
  821MOL0     O13219   9.326   8.755   8.479 -0.4155 -0.5146  0.0761
  821MOL0     C13220   9.326   8.697   8.344  0.0031  0.1392  0.8719
  821MOL0     C13221   9.181   8.651   8.315 -0.0284  0.2594 -0.0878
  821MOL0     C13222   9.130   8.514   8.390 -0.1651  0.2135  0.2176
  821MOL0     C13223   9.237   8.395   8.405 -0.3030  0.2169  0.8370
  821MOL0     C13224   9.303   8.395   8.537 -0.4316  0.3202  0.1597
  821MOL0     C13225   9.353   8.418   8.643 -0.0757  0.1935  0.0427
  821MOL0     C13226   9.443   8.754   8.690 -0.0259 -0.0785 -0.5011
  821MOL0     C13227   9.560   8.763   8.763 -0.4037  0.1513  0.9553
  821MOL0     C13228   9.553   8.786   8.912  0.5056 -0.2015  0.6023
  821MOL0     H13229  10.107   8.876   8.888 -2.7729 -1.1954  1.0968
  821MOL0     H13230  10.308   8.773   8.966 -0.0139 -0.1185 -0.5825
  821MOL0     H13231  10.394   8.552   9.113 -1.3460  0.2424 -1.8281
  821MOL0     H13232  10.508   8.639   9.016  2.0907 -1.1845 -1.6161
  821MOL0     H13233  10.511   8.335   9.019  2.1576 -0.9944 -0.6827
  821MOL0     H13234  10.648   8.452   8.989 -1.3589  0.0353 -2.7300
  821MOL0     H13235  10.628   8.521   9.230 -0.8650 -0.2190 -1.0451
  821MOL0     H13236  10.508   8.381   9.253  0.4936 -0.0267  4.0477
  821MOL0     H13237  10.691   8.227   9.201  0.0548 -0.9962  2.8065
  821MOL0     H13238  10.801   8.358   9.168  0.7075 -1.6809  0.5459
  821MOL0     H13239  10.656   8.347   9.442  0.2437 -0.9388 -0.2160
  821MOL0     H13240  10.805   8.431   9.404  1.1048 -1.7702  3.3883
  821MOL0     H13241  10.806   8.138   9.364 -0.5857 -0.3355 -0.0213
  821MOL0     H13242  10.938   8.248   9.403 -0.2462 -1.3630 -0.9743
  821MOL0     H13243  10.756   8.115   9.598  2.3965 -1.5334  1.3645
  821MOL0     H13244  10.782   8.299   9.610 -1.6167  0.5583 -2.9807
  821MOL0     H13245  10.992   8.068   9.611  3.5081 -0.3177  2.2632
  821MOL0     H13246  11.031   8.240   9.590 -1.1140  0.3682 -1.7109
  821MOL0     H13247  10.920   7.994   9.865 -0.2844  0.4165 -0.7681
  821MOL0     H13248  10.771   8.028  10.087 -0.3640  1.3663 -4.0147
  821MOL0     H13249  10.741   8.198  10.145  0.0796  0.7487 -0.5970
  821MOL0     H13250  11.006   8.043  10.169  3.0407  1.8866 -0.1788
  821MOL0     H13251  10.982   8.196  10.251  3.4126 -2.7916  1.8553
  821MOL0     H13252  10.796   8.062  10.384 -2.1838  0.1583 -1.2862
  821MOL0     H13253  10.859   7.924  10.288 -1.8745  2.1158 -4.6650
  821MOL0     H13254  10.980   7.934  10.498  0.6879 -1.2320 -1.0443
  821MOL0     H13255  11.097   7.971  10.370  0.1663  0.3709  0.6996
  821MOL0     H13256  10.956   8.125  10.754 -0.6388 -1.0420  1.0251
  821MOL0     H13257  10.975   8.069  10.980 -1.3268  3.9536  0.0084
  821MOL0     H13258  11.081   8.195  11.029 -2.3094  0.7811 -1.5499
  821MOL0     H13259  11.129   8.030  11.053 -0.7772  0.9374 -0.0854
  821MOL0     H13260  11.630   8.215  11.101  0.5412  0.9319 -1.8953
  821MOL0     H13261  11.786   8.146  11.256 -0.4565  3.4877 -3.0471
  821MOL0     H13262  12.061   8.024  11.203  1.4507 -3.4671 -0.9727
  821MOL0     H13263  12.012   8.043  11.381 -2.9382 -3.8206  2.7415
  821MOL0     H13264  12.231   7.940  11.382  0.6622 -2.0138  1.3091
  821MOL0     H13265  12.098   7.858  11.449  0.7754  1.0649  0.4794
  821MOL0     H13266  12.235   7.797  11.187 -0.5463  2.0087  0.8111
  821MOL0     H13267  12.097   7.720  11.238 -0.8445  0.7414  0.3791
  821MOL0     H13268  12.295   7.582  11.292 -2.2487 -0.3398  0.7490
  821MOL0     H13269  12.218   7.613  11.436 -0.1393 -2.3169 -1.6597
  821MOL0     H13270  12.470   7.780  11.346  0.1508 -1.7662 -0.7690
  821MOL0     H13271  12.367   7.800  11.499 -1.6965  0.7807 -1.3966
  821MOL0     H13272  12.482   7.541  11.436  0.0058  1.3753 -2.3646
  821MOL0     H13273  12.471   7.621  11.601 -0.9027  3.3774  0.1695
  821MOL0     H13274  12.656   7.779  11.488  0.0867  0.0445 -0.0449
  821MOL0     H13275  12.678   7.651  11.374 -1.0345  0.1639 -1.2430
  821MOL0     H13276  12.729   7.495  11.576 -0.0187  0.5197 -2.1190
  821MOL0     H13277  12.750   7.640  11.672 -3.7663 -1.8483  0.2394
  821MOL0     H13278  11.801   7.758  11.088  0.1229  0.1160  1.4220
  821MOL0     H13279  11.646   7.825  10.909 -2.5929 -0.1865  1.1833
  821MOL0     H13280  11.443   8.102  10.682 -0.3010 -0.2735  0.7981
  821MOL0     H13281  11.292   8.118  10.483 -3.5145 -0.4617 -2.1740
  821MOL0     H13282  10.265   8.452   8.695 -2.6288 -0.9780 -2.8926
  821MOL0     H13283  10.049   8.553   8.617 -0.2243 -1.5068  1.2361
  821MOL0     H13284   9.778   8.760   8.506 -0.5195  0.7180 -0.0234
  821MOL0     H13285   9.588   8.743   8.383  0.1972  2.6566  0.2210
  821MOL0     H13286   9.363   8.768   8.269 -2.3050  0.3644 -0.1342
  821MOL0     H13287   9.393   8.610   8.336  1.7533  1.4055  1.1401
  821MOL0     H13288   9.170   8.649   8.206  2.1262 -3.8325 -0.4147
  821MOL0     H13289   9.117   8.736   8.342 -1.2518 -1.1203  1.6011
  821MOL0     H13290   9.087   8.545   8.485  1.0132  3.2002 -0.1067
  821MOL0     H13291   9.065   8.465   8.316  2.2350  0.1227 -1.9614
  821MOL0     H13292   9.298   8.392   8.314  0.0713 -2.3418  1.0985
  821MOL0     H13293   9.182   8.302   8.390  4.0147 -2.1851 -2.1574
  821MOL0     H13294   9.396   8.434   8.740  0.0983  0.0108 -0.0018
  821MOL0     H13295   9.352   8.749   8.748  0.6709  0.6048  0.6931
  821MOL0     H13296   9.611   8.876   8.937  1.7698  0.1767 -3.0084
  821MOL0     H13297   9.449   8.808   8.936  0.2273 -0.4774 -0.2877
  821MOL0     H13298   9.584   8.697   8.966  0.5368 -1.6258 -1.6250
  822MOL0     O13299   7.384   6.996  11.320 -0.4195 -0.4415 -0.1602
  822MOL0     C13300   7.327   7.020  11.214 -0.0893  0.2164  0.1987
  822MOL0     O13301   7.341   7.136  11.143 -0.2301 -0.1871 -0.1751
  822MOL0     C13302   7.384   7.249  11.219 -0.6905 -0.8254 -0.7316
  822MOL0     C13303   7.301   7.305  11.316 -0.7861  0.1743 -0.0452
  822MOL0     C13304   7.341   7.423  11.381 -0.8594 -1.1733 -0.3444
  822MOL0     C13305   7.468   7.484  11.354 -0.0795 -0.3909 -0.2994
  822MOL0     O13306   7.498   7.599  11.424  0.6844 -0.4491  0.3755
  822MOL0     C13307   7.532   7.717  11.355  0.0841  0.1679  0.6928
  822MOL0     C13308   7.636   7.801  11.413  0.3521  0.9042 -0.6139
  822MOL0     C13309   7.759   7.716  11.442  0.1601 -0.5228  0.8797
  822MOL0     C13310   7.869   7.808  11.500  0.3012  0.3441 -0.5836
  822MOL0     C13311   7.987   7.730  11.559 -0.0841  1.1768 -0.7618
  822MOL0     C13312   8.105   7.816  11.609  0.3167  0.0507  0.5948
  822MOL0     C13313   8.214   7.735  11.676 -0.2515  0.1236  0.0914
  822MOL0     C13314   8.300   7.661  11.572 -0.6596 -0.2260  0.1516
  822MOL0     N13315   8.437   7.645  11.622  0.2326 -1.1777  0.6194
  822MOL0     C13316   8.542   7.730  11.580  0.7412  0.2106 -0.6070
  822MOL0     C13317   8.649   7.674  11.649 -0.8527  0.6173  0.1510
  822MOL0     C13318   8.786   7.720  11.638  0.0604  0.3328  0.3352
  822MOL0     C13319   8.872   7.608  11.571 -0.1293  0.2907  0.7940
  822MOL0     C13320   8.992   7.667  11.498  0.0087 -0.2900  0.2193
  822MOL0     C13321   9.069   7.577  11.401  0.2293  0.2787  0.0906
  822MOL0     O13322   9.182   7.658  11.369  0.6524 -0.0476  0.5327
  822MOL0     C13323   9.263   7.607  11.269 -0.6118 -1.1498 -0.5449
  822MOL0     C13324   9.240   7.502  11.184  0.3423  0.4877  0.0090
  822MOL0     C13325   9.327   7.460  11.091 -0.5461  0.9818  0.0225
  822MOL0     C13326   9.294   7.329  11.013  0.8734 -0.0623  0.4695
  822MOL0     C13327   9.450   7.524  11.071 -0.2845  0.6181  0.2093
  822MOL0     C13328   9.549   7.488  10.964  0.1203  0.2555 -0.4458
  822MOL0     O13329   9.608   7.366  10.968 -0.1722  0.1525 -0.4042
  822MOL0     C13330   9.711   7.342  10.875  0.3986  0.4811  0.0329
  822MOL0     C13331   9.703   7.241  10.783 -0.0483  0.7755  0.4348
  822MOL0     C13332   9.806   7.207  10.693  0.2086 -0.4679 -0.9385
  822MOL0     C13333   9.928   7.288  10.702  0.3634 -0.5129 -0.0927
  822MOL0     O13334  10.037   7.256  10.616 -0.1411 -0.1077 -0.6885
  822MOL0     C13335  10.161   7.325  10.642  0.0283 -0.5660  0.1867
  822MOL0     C13336  10.272   7.254  10.556 -0.3922 -0.3820 -0.1136
  822MOL0     C13337  10.421   7.311  10.581 -0.2368  0.1866  0.1642
  822MOL0     C13338  10.431   7.445  10.506  0.8835  0.4451  0.1495
  822MOL0     C13339  10.557   7.502  10.543 -0.3803 -0.1489 -0.2505
  822MOL0     C13340  10.684   7.432  10.492  0.6384 -0.9891 -0.0814
  822MOL0     C13341  10.807   7.526  10.458 -0.1218 -0.0633 -0.5331
  822MOL0     C13342  10.779   7.649  10.372 -0.2827  0.5784  0.5799
  822MOL0    Cl13343  10.708   7.604  10.209 -0.2161 -0.5123  0.3954
  822MOL0     C13344   9.938   7.392  10.792  0.4642 -0.5017 -0.0929
  822MOL0     C13345   9.834   7.411  10.881  0.3654  0.2232  0.7476
  822MOL0     O13346   9.566   7.568  10.874  0.0295 -0.1723 -0.7235
  822MOL0     C13347   9.474   7.633  11.149 -0.2291  0.0574 -0.4810
  822MOL0     C13348   9.392   7.663  11.255 -0.4532 -0.0115  0.0721
  822MOL0     N13349   8.599   7.579  11.735  0.4218  0.3733  0.2065
  822MOL0     N13350   8.470   7.556  11.713  0.4398  0.8717 -0.3096
  822MOL0     C13351   7.547   7.428  11.254  0.4982  0.2564  1.1902
  822MOL0     C13352   7.513   7.304  11.195  1.5543 -0.4780  0.1012
  822MOL0     C13353   7.225   6.920  11.175 -0.0183  0.1426 -0.2805
  822MOL0     C13354   7.179   6.907  11.046  0.6645  0.0778 -0.0917
  822MOL0     C13355   7.088   6.808  11.004  0.6170  1.0765 -0.2876
  822MOL0     C13356   7.046   6.709  11.090  0.9933 -0.7183  0.7895
  822MOL0     O13357   6.956   6.614  11.037  0.4597 -0.1253 -0.1235
  822MOL0     C13358   6.864   6.531  11.119  0.0964 -0.4356 -0.0978
  822MOL0     C13359   6.720   6.588  11.125 -0.0799 -0.0836 -0.3018
  822MOL0     C13360   6.638   6.460  11.152  0.3616 -0.5321  0.6444
  822MOL0     C13361   6.489   6.478  11.202  1.2392  0.1280  0.4222
  822MOL0     C13362   6.418   6.544  11.091 -0.4687 -0.3681  0.4284
  822MOL0     C13363   6.361   6.598  11.001 -0.4784 -0.4559 -0.6637
  822MOL0     C13364   7.077   6.722  11.226 -0.1813  0.0664 -0.2199
  822MOL0     C13365   7.170   6.820  11.267  0.2089 -0.1168 -0.5047
  822MOL0     C13366   7.188   6.815  11.415  0.1080 -0.1935  0.2281
  822MOL0     H13367   7.210   7.255  11.346  0.3303  0.3616  4.3616
  822MOL0     H13368   7.272   7.473  11.448 -0.0555 -2.1596  1.3040
  822MOL0     H13369   7.451   7.788  11.337 -0.5518 -0.7956 -0.4340
  822MOL0     H13370   7.573   7.682  11.259  0.3686 -3.7321  2.0341
  822MOL0     H13371   7.659   7.883  11.345  1.3785  2.0378  1.0339
  822MOL0     H13372   7.606   7.834  11.513 -0.8270 -2.7741  0.4409
  822MOL0     H13373   7.734   7.641  11.517 -1.2959 -1.3216 -0.3599
  822MOL0     H13374   7.795   7.673  11.348 -2.7733 -1.9255  0.2724
  822MOL0     H13375   7.886   7.898  11.441 -1.0793  1.8163  1.1426
  822MOL0     H13376   7.821   7.850  11.589  1.0002 -1.0351  0.4926
  822MOL0     H13377   8.019   7.649  11.493  0.1999  1.0618 -0.4848
  822MOL0     H13378   7.945   7.671  11.640  0.2464  0.5225 -1.0637
  822MOL0     H13379   8.160   7.873  11.534  0.2948 -0.6457  0.0397
  822MOL0     H13380   8.065   7.892  11.676  1.2854  0.8317  0.3131
  822MOL0     H13381   8.168   7.670  11.751  0.5501 -0.4806  0.0636
  822MOL0     H13382   8.281   7.804  11.730 -0.8216 -0.1064  1.1188
  822MOL0     H13383   8.251   7.565  11.554  1.1035 -1.0591 -0.4947
  822MOL0     H13384   8.298   7.709  11.473 -1.3673 -0.1800  0.1798
  822MOL0     H13385   8.533   7.827  11.533  1.8243  1.4591  1.5688
  822MOL0     H13386   8.823   7.740  11.739  3.0568 -2.8188  0.0599
  822MOL0     H13387   8.796   7.812  11.580 -0.9032  1.4239  1.8262
  822MOL0     H13388   8.906   7.530  11.640  2.3582 -0.7925 -1.5122
  822MOL0     H13389   8.819   7.550  11.495  1.3903 -1.2279  0.8447
  822MOL0     H13390   8.952   7.738  11.426 -1.5520 -2.7164 -1.4495
  822MOL0     H13391   9.056   7.712  11.574 -0.3180  1.9757 -0.7601
  822MOL0     H13392   9.101   7.486  11.451  3.4425  1.2014 -0.0740
  822MOL0     H13393   9.009   7.548  11.315 -1.0871  1.0474  0.7137
  822MOL0     H13394   9.154   7.437  11.197  0.3560  0.1497 -1.4648
  822MOL0     H13395   9.213   7.264  11.045  0.4916 -1.6224 -3.1558
  822MOL0     H13396   9.386   7.270  11.016  0.1091 -1.2628  1.2190
  822MOL0     H13397   9.275   7.368  10.913  1.3176  1.4262  0.9360
  822MOL0     H13398   9.604   7.197  10.784 -0.3710  1.4174 -1.0034
  822MOL0     H13399   9.811   7.117  10.631  1.1439 -1.3066  0.2900
  822MOL0     H13400  10.153   7.432  10.622 -1.9055 -0.3547  1.8159
  822MOL0     H13401  10.186   7.311  10.748  3.9546 -2.6769 -0.7757
  822MOL0     H13402  10.271   7.146  10.575  0.2230 -0.4030 -0.1985
  822MOL0     H13403  10.244   7.273  10.452 -1.4763 -3.2879 -0.4330
  822MOL0     H13404  10.495   7.244  10.537  0.1040  1.4430 -1.2566
  822MOL0     H13405  10.452   7.323  10.686  1.3562 -2.4506  0.0701
  822MOL0     H13406  10.340   7.506  10.515  0.6134  0.7135 -3.1588
  822MOL0     H13407  10.426   7.418  10.400 -0.7494 -3.2164  1.0080
  822MOL0     H13408  10.564   7.609  10.520  1.8696 -0.4542 -1.3016
  822MOL0     H13409  10.561   7.504  10.652  0.5147  2.0317 -0.2741
  822MOL0     H13410  10.658   7.393  10.393 -2.6228  3.4531 -1.2941
  822MOL0     H13411  10.713   7.346  10.553 -1.9427 -1.6666  0.2961
  822MOL0     H13412  10.890   7.467  10.419  0.0872  0.3556 -0.7240
  822MOL0     H13413  10.845   7.567  10.552 -2.3221  1.3949 -0.2016
  822MOL0     H13414  10.878   7.691  10.351  0.6404 -2.2888 -1.4786
  822MOL0     H13415  10.720   7.727  10.420 -1.1853  0.8039 -0.8257
  822MOL0     H13416  10.018   7.464  10.798  1.5432 -1.7266  0.6665
  822MOL0     H13417   9.849   7.488  10.956 -0.5205  1.4474 -0.2766
  822MOL0     H13418   9.567   7.682  11.123 -0.4406 -0.1293 -1.6216
  822MOL0     H13419   9.414   7.750  11.316  0.3858  0.6041 -1.0591
  822MOL0     H13420   7.641   7.472  11.224  0.4811  1.5779  2.9187
  822MOL0     H13421   7.568   7.259  11.113 -1.2741 -0.7771 -1.7699
  822MOL0     H13422   7.225   6.964  10.965 -1.0401 -0.4233 -1.4721
  822MOL0     H13423   7.070   6.815  10.897  2.0231 -0.3749 -0.6580
  822MOL0     H13424   6.870   6.431  11.074  0.1267 -0.5926  0.2542
  822MOL0     H13425   6.908   6.518  11.218  1.2892 -1.4376 -0.7176
  822MOL0     H13426   6.697   6.630  11.027 -0.7690  2.9736  1.0560
  822MOL0     H13427   6.709   6.664  11.202 -0.1064 -0.9608  0.5857
  822MOL0     H13428   6.636   6.411  11.054 -1.9767  1.1067 -0.2215
  822MOL0     H13429   6.693   6.400  11.224  1.2206  1.2771  1.5677
  822MOL0     H13430   6.478   6.524  11.301  1.8842 -0.5348  0.8177
  822MOL0     H13431   6.450   6.377  11.222  0.7296 -0.2690 -2.2073
  822MOL0     H13432   6.318   6.665  10.929  2.1493  1.5180 -0.5612
  822MOL0     H13433   7.030   6.665  11.306 -0.4655 -1.1564 -1.2264
  822MOL0     H13434   7.265   6.741  11.439 -0.9181 -0.8168  1.7833
  822MOL0     H13435   7.189   6.914  11.462  0.6014  1.3899 -2.9176
  822MOL0     H13436   7.094   6.777  11.458  0.9730 -0.4529  1.9836
  823MOL0     O13437   3.263   1.826   6.297  0.0727  0.5060  0.0220
  823MOL0     C13438   3.163   1.873   6.344  0.0367  0.2936 -0.0461
  823MOL0     O13439   3.123   1.861   6.477 -0.8461 -0.5202 -0.3498
  823MOL0     C13440   3.197   1.789   6.572 -0.2428 -0.2439 -0.0521
  823MOL0     C13441   3.308   1.854   6.634 -0.9256  0.4032  0.2272
  823MOL0     C13442   3.357   1.790   6.742 -0.3331 -0.3018  0.0237
  823MOL0     C13443   3.338   1.648   6.764  0.0167  1.1263 -0.9742
  823MOL0     O13444   3.403   1.562   6.850  0.3567 -0.1698 -0.1305
  823MOL0     C13445   3.476   1.614   6.958 -0.4593  0.3010 -0.7508
  823MOL0     C13446   3.403   1.702   7.057 -0.2697 -0.7485  0.0136
  823MOL0     C13447   3.495   1.805   7.116 -0.2925  0.4201  1.1846
  823MOL0     C13448   3.410   1.879   7.222  0.6144  1.2959 -0.1494
  823MOL0     C13449   3.461   2.008   7.274 -0.0746  1.0979 -0.9270
  823MOL0     C13450   3.558   1.981   7.390 -0.2819  0.5069  0.4684
  823MOL0     C13451   3.585   2.098   7.476 -0.1768 -0.0652 -0.5239
  823MOL0     C13452   3.701   2.081   7.576  1.4327 -0.1460 -0.2956
  823MOL0     N13453   3.658   2.014   7.705 -0.6515  0.6975  0.3911
  823MOL0     C13454   3.605   2.074   7.811  1.1771  0.1879 -0.0281
  823MOL0     C13455   3.561   1.969   7.888  0.2799  0.7384  0.3257
  823MOL0     C13456   3.477   1.990   8.014 -0.3583  0.9238  0.3776
  823MOL0     C13457   3.574   2.071   8.112 -0.3329  0.3750  0.5537
  823MOL0     C13458   3.502   2.126   8.234 -0.0052  0.4361 -0.5752
  823MOL0     C13459   3.387   2.221   8.207 -0.2665  1.0732  0.1307
  823MOL0     O13460   3.266   2.148   8.205 -0.3360  0.3143  0.2130
  823MOL0     C13461   3.200   2.104   8.318 -0.2645 -0.0735 -0.3862
  823MOL0     C13462   3.071   2.045   8.300  0.7183  1.1272 -0.3767
  823MOL0     C13463   2.988   2.007   8.405 -0.0042  0.5396 -0.2646
  823MOL0     C13464   2.844   1.951   8.362 -0.1861  1.1343  0.5860
  823MOL0     C13465   3.047   2.005   8.538 -0.0157 -0.4918 -0.3822
  823MOL0     C13466   2.967   1.958   8.654  0.1043  0.2516 -0.2176
  823MOL0     O13467   3.035   1.889   8.749 -0.5807  0.2205  0.5790
  823MOL0     C13468   2.969   1.851   8.863  0.3262  0.1151 -0.2134
  823MOL0     C13469   3.039   1.882   8.983  0.2433  0.9730  0.3287
  823MOL0     C13470   2.978   1.848   9.102  0.4820 -1.3795 -0.3280
  823MOL0     C13471   2.853   1.789   9.107  0.0938 -0.1530 -0.1844
  823MOL0     O13472   2.796   1.768   9.229 -0.4294  0.5640  0.3334
  823MOL0     C13473   2.655   1.747   9.233  0.2871  0.2756  0.7859
  823MOL0     C13474   2.601   1.744   9.379  0.2384 -0.4960  0.7725
  823MOL0     C13475   2.444   1.749   9.385  0.3716  1.0649 -0.2972
  823MOL0     C13476   2.402   1.746   9.536  0.5241 -0.5514 -0.1643
  823MOL0     C13477   2.254   1.756   9.554 -0.1326 -0.1197  0.0805
  823MOL0     C13478   2.211   1.723   9.696 -0.2630 -0.0694  0.3624
  823MOL0     C13479   2.058   1.731   9.694 -0.3891  0.3606 -0.1898
  823MOL0     C13480   2.007   1.691   9.837  0.1088  0.0836 -0.0797
  823MOL0    Cl13481   1.830   1.654   9.825 -0.1106  0.3789  0.5725
  823MOL0     C13482   2.796   1.745   8.989 -0.5961  0.5196 -0.1801
  823MOL0     C13483   2.854   1.780   8.863  1.1508  0.6896  0.5334
  823MOL0     O13484   2.842   1.985   8.658 -0.1072  0.6897  0.0974
  823MOL0     C13485   3.180   2.054   8.554  0.2648  0.6661  0.9145
  823MOL0     C13486   3.253   2.108   8.447  0.3523  0.2074 -0.2189
  823MOL0     N13487   3.589   1.848   7.829 -0.6084  0.1083 -0.4206
  823MOL0     N13488   3.642   1.879   7.715 -0.4559 -0.4698  0.2320
  823MOL0     C13489   3.238   1.588   6.689  0.2346  0.6920  0.5043
  823MOL0     C13490   3.165   1.658   6.598  0.3768  0.6223  0.1216
  823MOL0     C13491   3.074   1.942   6.258  1.2128 -0.2146  0.6697
  823MOL0     C13492   3.046   2.073   6.297 -0.7324 -0.2045  0.6708
  823MOL0     C13493   2.969   2.149   6.210  0.4943 -1.2482  0.2259
  823MOL0     C13494   2.927   2.106   6.082 -0.0068  0.2162  0.4500
  823MOL0     O13495   2.850   2.192   6.012 -0.0800  0.0292 -0.3549
  823MOL0     C13496   2.816   2.177   5.866 -0.3204  0.4436 -0.0480
  823MOL0     C13497   2.798   2.319   5.808  0.9904 -0.4359 -0.6076
  823MOL0     C13498   2.668   2.385   5.868 -0.9638 -0.4198 -0.4384
  823MOL0     C13499   2.541   2.341   5.788 -0.0060 -0.9167 -0.3804
  823MOL0     C13500   2.536   2.404   5.658  1.1755  0.8819  0.1564
  823MOL0     C13501   2.530   2.465   5.549 -0.0370 -0.5500  0.2630
  823MOL0     C13502   2.968   1.982   6.036 -0.3729  0.0926 -0.5891
  823MOL0     C13503   3.046   1.900   6.118 -0.5938  0.0798  0.9048
  823MOL0     C13504   3.082   1.763   6.052  0.4450 -1.1573 -0.9116
  823MOL0     H13505   3.346   1.952   6.608 -0.8134  0.0045 -1.2288
  823MOL0     H13506   3.427   1.839   6.809  3.0931 -4.3801 -0.1597
  823MOL0     H13507   3.562   1.667   6.916 -1.3589  3.0121  0.5890
  823MOL0     H13508   3.509   1.521   7.006  0.4640  0.8237 -0.3535
  823MOL0     H13509   3.316   1.749   7.010  1.1138  1.1812 -0.7374
  823MOL0     H13510   3.369   1.633   7.135 -1.0443  0.6236  0.9191
  823MOL0     H13511   3.583   1.752   7.156 -0.6733 -1.4996 -0.3731
  823MOL0     H13512   3.531   1.876   7.041 -2.1037  0.2211  0.0779
  823MOL0     H13513   3.308   1.892   7.185  0.8740 -0.7956 -1.8136
  823MOL0     H13514   3.394   1.808   7.303 -0.2929  1.5497 -0.0904
  823MOL0     H13515   3.379   2.068   7.315 -0.1580  0.8945 -0.7971
  823MOL0     H13516   3.518   2.071   7.205  0.4192  0.4227 -1.1387
  823MOL0     H13517   3.512   1.905   7.454 -0.6475 -2.4070 -2.9871
  823MOL0     H13518   3.652   1.940   7.354 -0.5212 -2.4079  2.7366
  823MOL0     H13519   3.498   2.125   7.538  1.0269 -0.1809  1.3111
  823MOL0     H13520   3.611   2.180   7.408  0.5939 -0.2200 -0.4280
  823MOL0     H13521   3.787   2.034   7.528  2.2521  2.8056 -1.9938
  823MOL0     H13522   3.741   2.178   7.605  0.4727  1.1904 -3.0322
  823MOL0     H13523   3.610   2.180   7.835  2.5304  0.1390 -0.0108
  823MOL0     H13524   3.436   1.901   8.063  1.3159  0.6661  1.3790
  823MOL0     H13525   3.398   2.063   7.994 -0.3229  0.8331 -0.1064
  823MOL0     H13526   3.649   1.995   8.135  0.9132  0.3792 -2.9350
  823MOL0     H13527   3.635   2.146   8.061  4.4978 -2.7611  1.0989
  823MOL0     H13528   3.476   2.044   8.301 -3.1228  2.4365  0.9019
  823MOL0     H13529   3.572   2.192   8.286 -0.7872  1.8715 -1.2620
  823MOL0     H13530   3.385   2.286   8.295 -2.6593 -0.4986  1.3569
  823MOL0     H13531   3.396   2.281   8.115 -1.3550 -0.8465 -1.3139
  823MOL0     H13532   3.022   2.037   8.203 -2.6970  1.6018  1.1671
  823MOL0     H13533   2.819   1.866   8.426  1.2860  1.9593  2.3559
  823MOL0     H13534   2.848   1.902   8.264 -2.8217  0.4467  0.7425
  823MOL0     H13535   2.767   2.028   8.360  0.9580  2.3303  1.4861
  823MOL0     H13536   3.128   1.944   8.980 -0.5255  2.0687 -1.3444
  823MOL0     H13537   3.039   1.863   9.191  2.0946  0.0554 -1.5852
  823MOL0     H13538   2.609   1.830   9.179 -2.3557  0.0947  2.5837
  823MOL0     H13539   2.631   1.651   9.187  0.0587 -0.9115  3.2432
  823MOL0     H13540   2.642   1.657   9.430 -1.9327 -2.6806 -0.9314
  823MOL0     H13541   2.643   1.836   9.420  3.5698 -0.7346 -1.7389
  823MOL0     H13542   2.400   1.658   9.344 -2.7156  2.0177  0.6538
  823MOL0     H13543   2.414   1.839   9.332  1.2473 -0.6710 -4.0564
  823MOL0     H13544   2.448   1.834   9.583 -1.7550  0.9756 -0.5861
  823MOL0     H13545   2.442   1.655   9.580 -1.9358  0.3112  4.5428
  823MOL0     H13546   2.218   1.858   9.536  1.3416  1.0585  3.1377
  823MOL0     H13547   2.202   1.688   9.486  0.3048 -1.5689  1.1549
  823MOL0     H13548   2.248   1.795   9.768  0.7261  0.5635 -0.7452
  823MOL0     H13549   2.253   1.625   9.721  4.5084  1.0417 -2.1007
  823MOL0     H13550   2.010   1.669   9.618 -0.7968  1.1039 -0.5591
  823MOL0     H13551   2.028   1.832   9.665  0.8276  0.6517 -0.4769
  823MOL0     H13552   2.029   1.764   9.915 -1.3516 -1.5607  1.9791
  823MOL0     H13553   2.058   1.599   9.868  2.0327  1.0698 -0.1639
  823MOL0     H13554   2.705   1.691   8.966  0.5000  0.1163 -4.4946
  823MOL0     H13555   2.807   1.733   8.778  0.1612  0.4226  1.2107
  823MOL0     H13556   3.227   2.067   8.650  0.7465 -0.0142  0.7787
  823MOL0     H13557   3.355   2.138   8.469  0.3620 -0.7537  1.2435
  823MOL0     H13558   3.204   1.487   6.707 -1.9747  1.8244  3.4851
  823MOL0     H13559   3.089   1.609   6.538  1.0594  0.7972 -0.9099
  823MOL0     H13560   3.078   2.113   6.393 -1.3403  0.4471  0.6088
  823MOL0     H13561   2.935   2.246   6.246  1.6816 -0.9515  0.5813
  823MOL0     H13562   2.901   2.142   5.807 -1.1958  1.9603 -2.3775
  823MOL0     H13563   2.742   2.098   5.851  1.5052 -1.3488 -0.0308
  823MOL0     H13564   2.798   2.316   5.698 -2.7691 -1.3263 -0.6861
  823MOL0     H13565   2.887   2.373   5.843  0.3715 -0.0232  0.3620
  823MOL0     H13566   2.671   2.361   5.974  0.1584 -2.3851 -0.8553
  823MOL0     H13567   2.678   2.492   5.852  3.9334 -0.9516 -2.8269
  823MOL0     H13568   2.459   2.367   5.856 -1.4216 -4.1178 -0.6908
  823MOL0     H13569   2.543   2.233   5.775  0.1174 -1.5684  3.6009
  823MOL0     H13570   2.508   2.493   5.448 -1.7377 -2.6086  0.0009
  823MOL0     H13571   2.936   1.944   5.939 -0.5472  1.0691 -0.9375
  823MOL0     H13572   3.033   1.740   5.957 -0.2507 -2.1673 -0.3188
  823MOL0     H13573   3.191   1.757   6.042  0.5082 -2.0840  0.2031
  823MOL0     H13574   3.043   1.694   6.127 -2.9302  4.9900  3.9939
  824MOL0     O13575   3.903   3.655   0.306  0.5524 -0.9970 -0.2152
  824MOL0     C13576   3.862   3.547   0.346  0.8051 -0.3742  0.4890
  824MOL0     O13577   3.932   3.431   0.346  0.0232  0.1166 -0.5979
  824MOL0     C13578   4.063   3.417   0.314  0.6805  0.0890 -0.5640
  824MOL0     C13579   4.167   3.473   0.377 -0.8519 -0.2400  0.7953
  824MOL0     C13580   4.304   3.442   0.332  0.2648 -0.6993 -0.5694
  824MOL0     C13581   4.321   3.369   0.218  0.5399  0.2041 -0.3653
  824MOL0     O13582   4.441   3.388   0.154 -0.7231 -0.0776 -0.3241
  824MOL0     C13583   4.468   3.322   0.029  0.4238 -0.3593  0.2459
  824MOL0     C13584   4.616   3.348  -0.011 -0.3323 -0.1140  0.1692
  824MOL0     C13585   4.661   3.242  -0.103 -1.3322  0.3585  0.0996
  824MOL0     C13586   4.790   3.271  -0.189 -0.6104  0.3087 -0.1500
  824MOL0     C13587   4.908   3.324  -0.102 -0.5358  0.9286 -0.1690
  824MOL0     C13588   5.013   3.383  -0.196  0.4741  0.1304  0.5147
  824MOL0     C13589   5.046   3.302  -0.320 -0.0000 -0.0638 -0.4100
  824MOL0     C13590   5.187   3.345  -0.375 -0.2882  0.3389  1.0770
  824MOL0     N13591   5.182   3.432  -0.488 -0.0953 -0.3733 -0.8097
  824MOL0     C13592   5.079   3.471  -0.566 -0.3843  0.0963  0.3628
  824MOL0     C13593   5.130   3.574  -0.638  0.1070  0.5250 -0.0199
  824MOL0     C13594   5.039   3.643  -0.730 -0.5562  0.0219  0.2385
  824MOL0     C13595   4.987   3.557  -0.853 -0.4122  0.3010 -0.5632
  824MOL0     C13596   5.091   3.477  -0.918  0.0776  0.7639  0.2094
  824MOL0     C13597   5.185   3.568  -1.004  0.6911 -0.1761 -0.2107
  824MOL0     O13598   5.294   3.503  -1.065 -0.1021 -0.2591  0.0733
  824MOL0     C13599   5.424   3.486  -1.015 -0.3536 -0.1590 -0.1908
  824MOL0     C13600   5.471   3.513  -0.886 -0.7254 -0.3032 -0.5247
  824MOL0     C13601   5.605   3.498  -0.847 -0.1480 -0.2255 -0.3432
  824MOL0     C13602   5.627   3.525  -0.700  0.3100 -0.3564 -0.1108
  824MOL0     C13603   5.694   3.434  -0.931  0.2518 -0.5968  0.0950
  824MOL0     C13604   5.831   3.395  -0.893 -0.0621 -0.6129  0.1021
  824MOL0     O13605   5.878   3.283  -0.946 -0.5324  0.2089  0.0846
  824MOL0     C13606   5.999   3.235  -0.898  1.0126  0.2383  0.0028
  824MOL0     C13607   6.115   3.301  -0.925 -0.0025  0.5980  0.3357
  824MOL0     C13608   6.232   3.254  -0.865  0.1415 -0.1648 -0.3746
  824MOL0     C13609   6.238   3.143  -0.786 -0.3406 -0.5204  1.6425
  824MOL0     O13610   6.362   3.116  -0.731 -0.0624 -0.2616  0.8140
  824MOL0     C13611   6.368   3.068  -0.598 -0.0369 -0.0778  0.6418
  824MOL0     C13612   6.485   3.121  -0.524  0.5361  0.6358  0.5908
  824MOL0     C13613   6.621   3.113  -0.600  0.0051 -0.2030 -0.0978
  824MOL0     C13614   6.740   3.138  -0.508 -0.6961  0.5292  0.7239
  824MOL0     C13615   6.868   3.204  -0.570  0.4976 -0.6835  0.0655
  824MOL0     C13616   7.002   3.199  -0.491 -0.2040 -0.2406  0.5131
  824MOL0     C13617   7.012   3.257  -0.351  0.1361  0.7469 -0.7894
  824MOL0     C13618   7.149   3.234  -0.287 -0.2404  0.1568  0.0151
  824MOL0    Cl13619   7.183   3.055  -0.291  0.1057  0.0024  0.2206
  824MOL0     C13620   6.119   3.074  -0.769 -0.0846 -0.6701  0.4306
  824MOL0     C13621   5.998   3.120  -0.819 -0.4477 -0.4640 -0.3914
  824MOL0     O13622   5.897   3.468  -0.822  0.3442 -0.4845  0.8768
  824MOL0     C13623   5.653   3.406  -1.063  0.1135  1.0963 -0.5936
  824MOL0     C13624   5.517   3.423  -1.100 -0.4210  0.0468  1.1323
  824MOL0     N13625   5.268   3.595  -0.611  0.3696 -0.5239  0.6273
  824MOL0     N13626   5.284   3.509  -0.514 -0.4049 -1.0217 -0.7812
  824MOL0     C13627   4.214   3.296   0.166  0.1535  0.4062 -0.0490
  824MOL0     C13628   4.086   3.322   0.220  0.5973  0.1666 -0.0125
  824MOL0     C13629   3.719   3.534   0.390 -0.2504 -0.3766 -1.3639
  824MOL0     C13630   3.652   3.414   0.356  0.5860 -0.0404 -0.5489
  824MOL0     C13631   3.511   3.401   0.391 -1.0015  0.2318  0.9259
  824MOL0     C13632   3.446   3.495   0.467 -0.6821 -0.3880  0.6814
  824MOL0     O13633   3.326   3.482   0.515  0.6758 -0.4063 -0.9330
  824MOL0     C13634   3.239   3.380   0.463  0.2622  1.2781  0.7014
  824MOL0     C13635   3.093   3.411   0.517 -1.0936 -0.8107  0.3409
  824MOL0     C13636   3.087   3.456   0.666 -0.3281 -0.1672 -0.1618
  824MOL0     C13637   2.940   3.464   0.708 -0.3208  0.3159  0.2550
  824MOL0     C13638   2.860   3.344   0.680  0.6152  0.3047  0.0740
  824MOL0     C13639   2.809   3.240   0.662  0.0090  0.4670 -0.0178
  824MOL0     C13640   3.511   3.608   0.495  0.1331 -1.0956  0.4610
  824MOL0     C13641   3.650   3.628   0.471 -0.6209 -0.4289  0.0513
  824MOL0     C13642   3.719   3.760   0.508 -0.4144  0.6396  0.3140
  824MOL0     H13643   4.160   3.546   0.458  0.7630  0.6783  0.1649
  824MOL0     H13644   4.387   3.495   0.376 -2.0433  2.0285  0.8597
  824MOL0     H13645   4.401   3.351  -0.053 -2.1130  2.5978  3.0703
  824MOL0     H13646   4.446   3.219   0.059  0.9116 -0.1834  1.2495
  824MOL0     H13647   4.608   3.441  -0.068 -2.9902  0.0400  0.6787
  824MOL0     H13648   4.682   3.358   0.076  0.8052  1.4655 -0.8026
  824MOL0     H13649   4.674   3.158  -0.033 -0.7225 -1.1194 -1.6893
  824MOL0     H13650   4.590   3.212  -0.180 -0.2981 -0.2354 -0.6572
  824MOL0     H13651   4.825   3.185  -0.247  0.3558 -3.0909  4.8860
  824MOL0     H13652   4.770   3.356  -0.255  0.5915 -1.2219 -2.6723
  824MOL0     H13653   4.930   3.238  -0.039 -2.5553  0.0325 -0.6149
  824MOL0     H13654   4.869   3.398  -0.032  1.9146 -0.4225  2.8701
  824MOL0     H13655   4.996   3.486  -0.228  1.8127  0.7765  1.7730
  824MOL0     H13656   5.103   3.393  -0.135  0.3616  2.3107  0.4019
  824MOL0     H13657   4.973   3.307  -0.400 -1.0471 -3.5722  0.1294
  824MOL0     H13658   5.053   3.197  -0.289  2.5644  0.5290  1.3218
  824MOL0     H13659   5.250   3.387  -0.296 -1.3958  0.5237  1.9000
  824MOL0     H13660   5.237   3.250  -0.395 -1.4655 -0.4784  1.8623
  824MOL0     H13661   4.984   3.419  -0.571  0.6552 -1.7532 -1.4033
  824MOL0     H13662   5.105   3.724  -0.761 -0.2787 -0.5007 -0.5770
  824MOL0     H13663   4.961   3.705  -0.685  0.5139  1.5417  0.0857
  824MOL0     H13664   4.901   3.500  -0.815 -0.2181 -0.8529 -1.7668
  824MOL0     H13665   4.967   3.633  -0.928  2.3868 -0.2234 -1.9788
  824MOL0     H13666   5.156   3.431  -0.843  0.6921 -0.2433 -0.8977
  824MOL0     H13667   5.052   3.395  -0.980 -0.1223  0.6543  0.4800
  824MOL0     H13668   5.117   3.608  -1.079 -1.8216 -1.4131  1.2571
  824MOL0     H13669   5.213   3.660  -0.952 -1.7216  0.3851  0.1840
  824MOL0     H13670   5.402   3.559  -0.816 -1.9106 -0.1278 -1.7829
  824MOL0     H13671   5.680   3.620  -0.692 -0.2044 -0.1950  2.4040
  824MOL0     H13672   5.689   3.449  -0.652 -1.1078 -1.0435  0.7042
  824MOL0     H13673   5.534   3.535  -0.643 -0.7850  4.9675 -2.2650
  824MOL0     H13674   6.118   3.388  -0.989 -3.9207 -0.9052 -2.2197
  824MOL0     H13675   6.321   3.313  -0.885 -1.0682  2.5807  1.7706
  824MOL0     H13676   6.269   3.088  -0.558  0.1796 -2.4630  2.6183
  824MOL0     H13677   6.371   2.960  -0.616  0.2838  0.3518 -2.4084
  824MOL0     H13678   6.472   3.226  -0.495 -0.9256  1.0422 -1.3353
  824MOL0     H13679   6.502   3.074  -0.427 -0.5006 -2.3694 -0.5701
  824MOL0     H13680   6.631   3.189  -0.678  1.1564 -0.9506 -0.7080
  824MOL0     H13681   6.641   3.018  -0.651  0.0900  0.5336 -1.4890
  824MOL0     H13682   6.768   3.052  -0.447  1.1568  0.5884  0.0369
  824MOL0     H13683   6.712   3.208  -0.429  0.4595  1.6914  0.1496
  824MOL0     H13684   6.890   3.162  -0.669  3.4355 -0.9846  0.7396
  824MOL0     H13685   6.849   3.309  -0.595  0.2747 -0.5998  0.5708
  824MOL0     H13686   7.070   3.257  -0.553 -0.6814  0.6382  0.7892
  824MOL0     H13687   7.037   3.096  -0.484  1.3654  0.1249 -1.2118
  824MOL0     H13688   6.939   3.205  -0.289  0.8006 -1.5055 -1.7554
  824MOL0     H13689   6.979   3.361  -0.343  0.2708  0.7791 -0.6377
  824MOL0     H13690   7.155   3.267  -0.183 -0.8024  0.3243 -0.0005
  824MOL0     H13691   7.220   3.284  -0.353 -0.6750 -1.9203 -2.1462
  824MOL0     H13692   6.123   2.986  -0.706  1.1676  1.0511  2.9202
  824MOL0     H13693   5.905   3.069  -0.797 -1.0642  0.3374 -1.1113
  824MOL0     H13694   5.720   3.362  -1.136 -0.9857  0.6830 -1.3731
  824MOL0     H13695   5.482   3.398  -1.200 -2.9398 -1.2119  2.2362
  824MOL0     H13696   4.214   3.236   0.075 -0.9150  2.3400 -1.3979
  824MOL0     H13697   3.999   3.272   0.178  1.9120  0.0316 -2.8619
  824MOL0     H13698   3.698   3.331   0.304 -2.7751 -2.1562 -0.4561
  824MOL0     H13699   3.471   3.302   0.375 -0.1223  0.0699 -0.4964
  824MOL0     H13700   3.238   3.385   0.354  2.1175  1.8079  0.6699
  824MOL0     H13701   3.283   3.287   0.500  2.0313  2.1201  0.8355
  824MOL0     H13702   3.031   3.323   0.497 -0.2338 -1.3115 -0.1935
  824MOL0     H13703   3.049   3.483   0.448  2.6730 -0.5087 -2.0818
  824MOL0     H13704   3.134   3.381   0.729 -1.9917  0.0548  1.4289
  824MOL0     H13705   3.130   3.554   0.689  0.2548 -0.4198 -0.1645
  824MOL0     H13706   2.892   3.547   0.654 -0.4035  0.8240  1.0814
  824MOL0     H13707   2.928   3.510   0.807  0.9412 -0.6074  0.8546
  824MOL0     H13708   2.761   3.146   0.648  0.5497  0.5650 -3.2214
  824MOL0     H13709   3.459   3.684   0.553  2.8076  2.5084 -1.4516
  824MOL0     H13710   3.663   3.799   0.594 -0.5328 -0.9317  0.9798
  824MOL0     H13711   3.825   3.741   0.528 -0.6170 -1.2904 -0.2442
  824MOL0     H13712   3.712   3.834   0.427 -1.5087  0.2139  0.0037
  825MOL0     O13713   9.161   9.448   2.568  0.6827  0.3414 -0.5261
  825MOL0     C13714   9.090   9.381   2.490 -0.5967  0.3889 -0.5490
  825MOL0     O13715   9.138   9.323   2.372  0.0391  0.2712  0.0410
  825MOL0     C13716   9.249   9.372   2.313  0.3101  0.1031  0.2319
  825MOL0     C13717   9.340   9.274   2.266 -0.1686  0.3892  0.1064
  825MOL0     C13718   9.448   9.306   2.189  0.0287 -0.3574 -0.4367
  825MOL0     C13719   9.474   9.438   2.152 -0.1746 -0.9719 -0.8062
  825MOL0     O13720   9.581   9.476   2.065 -0.0817 -0.2754 -0.3033
  825MOL0     C13721   9.623   9.374   1.968  0.3612 -0.2593  0.5140
  825MOL0     C13722   9.725   9.444   1.875  0.0349  0.1895  0.2208
  825MOL0     C13723   9.690   9.589   1.823  0.7653 -0.0681 -0.1648
  825MOL0     C13724   9.803   9.655   1.740  0.5665  0.5014 -0.0851
  825MOL0     C13725   9.767   9.801   1.704  0.2356  0.2507 -1.3991
  825MOL0     C13726   9.694   9.816   1.566 -0.2615 -0.1431 -0.2896
  825MOL0     C13727   9.780   9.781   1.444  0.6753 -0.5588  0.4505
  825MOL0     C13728   9.702   9.797   1.313 -0.7537  1.1529 -0.3188
  825MOL0     N13729   9.597   9.696   1.305  0.4674 -0.6052  0.1325
  825MOL0     C13730   9.626   9.563   1.282  0.0129  0.3549 -0.4347
  825MOL0     C13731   9.504   9.507   1.303 -0.6474 -0.5912  0.2168
  825MOL0     C13732   9.487   9.354   1.302 -0.5281 -0.6231  1.1459
  825MOL0     C13733   9.528   9.282   1.163 -0.6947  0.5926  0.1056
  825MOL0     C13734   9.516   9.368   1.036  0.0280 -0.2659  0.6678
  825MOL0     C13735   9.536   9.288   0.900 -0.2127 -0.0085  0.1088
  825MOL0     O13736   9.668   9.314   0.850 -0.2498 -0.1960  0.4017
  825MOL0     C13737   9.677   9.362   0.724  0.4446  0.1153 -0.3422
  825MOL0     C13738   9.728   9.486   0.698 -0.3555  0.0445 -0.9495
  825MOL0     C13739   9.753   9.529   0.569 -0.6761  0.1732  0.2093
  825MOL0     C13740   9.806   9.673   0.554  0.4104 -0.2972 -0.6205
  825MOL0     C13741   9.732   9.438   0.456 -0.1351 -1.2741 -1.2034
  825MOL0     C13742   9.751   9.463   0.314 -0.4583  0.1537 -1.4206
  825MOL0     O13743   9.786   9.353   0.240  0.2700  0.3024 -0.4083
  825MOL0     C13744   9.753   9.333   0.102 -0.5621  1.2745  0.0491
  825MOL0     C13745   9.687   9.420   0.016 -0.2203  0.6788 -0.8846
  825MOL0     C13746   9.662   9.394  -0.121  0.1656  0.4144  0.3988
  825MOL0     C13747   9.702   9.265  -0.175  0.3432 -0.8077  0.9106
  825MOL0     O13748   9.671   9.244  -0.314 -0.3445  0.3922 -0.1589
  825MOL0     C13749   9.727   9.133  -0.375  0.4603 -0.1229  0.3976
  825MOL0     C13750   9.717   9.161  -0.536  0.1225 -0.6747 -0.7619
  825MOL0     C13751   9.585   9.202  -0.586  0.3855  0.9018  0.1450
  825MOL0     C13752   9.482   9.106  -0.560  0.5784  0.5250 -0.1156
  825MOL0     C13753   9.346   9.147  -0.635 -0.3629  0.5946 -0.2987
  825MOL0     C13754   9.218   9.073  -0.606 -0.0319  0.1353 -0.8370
  825MOL0     C13755   9.158   9.003  -0.724  0.6084  0.2022  0.1162
  825MOL0     C13756   9.214   8.867  -0.759 -0.4648 -0.3514 -1.0096
  825MOL0    Cl13757   9.087   8.771  -0.848  0.1671 -0.2384  0.4550
  825MOL0     C13758   9.763   9.176  -0.102 -0.0259  0.7987 -0.0316
  825MOL0     C13759   9.799   9.207   0.035 -0.2518  0.4956 -0.1381
  825MOL0     O13760   9.723   9.579   0.270  0.3681 -0.3659 -0.2333
  825MOL0     C13761   9.669   9.319   0.490  0.0881 -0.7782  0.0116
  825MOL0     C13762   9.652   9.285   0.619  0.7212  0.2938 -0.0952
  825MOL0     N13763   9.407   9.599   1.324  0.7842  0.8577  0.6781
  825MOL0     N13764   9.464   9.716   1.325 -0.1024  0.3024  0.9100
  825MOL0     C13765   9.382   9.537   2.197  0.6387 -0.2600  0.5251
  825MOL0     C13766   9.276   9.502   2.283  0.0803 -0.9926  0.0384
  825MOL0     C13767   8.944   9.366   2.523  0.1479  0.1823  0.3870
  825MOL0     C13768   8.890   9.426   2.638  0.0223  0.0781 -1.4354
  825MOL0     C13769   8.757   9.423   2.679 -0.3077  0.3214  0.2468
  825MOL0     C13770   8.670   9.345   2.603  0.0273  0.4524  0.3394
  825MOL0     O13771   8.529   9.339   2.629 -0.5231 -0.3605 -0.3922
  825MOL0     C13772   8.486   9.393   2.755  0.9963  0.0361  0.2287
  825MOL0     C13773   8.334   9.385   2.756 -0.3969  0.0020  0.2465
  825MOL0     C13774   8.283   9.426   2.897  0.6843  0.3758  0.4597
  825MOL0     C13775   8.131   9.439   2.904 -0.1635 -1.1664  0.7124
  825MOL0     C13776   8.082   9.457   3.045  0.5297  0.7769 -0.0097
  825MOL0     C13777   8.072   9.468   3.171 -0.3512  0.7343  0.7058
  825MOL0     C13778   8.717   9.279   2.491 -0.1230  0.3276 -0.2372
  825MOL0     C13779   8.847   9.296   2.441  0.5398 -0.7086  0.0647
  825MOL0     C13780   8.869   9.228   2.309 -0.0572  0.1741  0.5298
  825MOL0     H13781   9.328   9.168   2.285  1.4936  0.0716 -0.4572
  825MOL0     H13782   9.524   9.230   2.172  0.7439  0.0036  0.9945
  825MOL0     H13783   9.537   9.344   1.907 -0.3977  0.4445  1.1984
  825MOL0     H13784   9.667   9.288   2.019  1.3033  0.8137  1.5968
  825MOL0     H13785   9.818   9.423   1.930 -0.2120 -1.7806 -0.0209
  825MOL0     H13786   9.730   9.382   1.785  0.2493  2.3331 -1.3089
  825MOL0     H13787   9.595   9.598   1.770  0.6748  1.5162  0.2408
  825MOL0     H13788   9.671   9.661   1.903  0.7479  0.2644 -0.4646
  825MOL0     H13789   9.888   9.653   1.809  0.5777 -2.6148 -0.0371
  825MOL0     H13790   9.812   9.594   1.650  0.6691  0.5030 -0.0757
  825MOL0     H13791   9.855   9.866   1.704 -0.3274  1.9423  6.2740
  825MOL0     H13792   9.718   9.846   1.791  3.5383 -2.2000  2.0131
  825MOL0     H13793   9.608   9.748   1.572  0.1529 -0.5771  1.4223
  825MOL0     H13794   9.652   9.916   1.558  0.0027 -0.0445 -0.4432
  825MOL0     H13795   9.831   9.685   1.445  3.2391  0.5114 -3.6741
  825MOL0     H13796   9.862   9.853   1.439 -0.2600  0.5579  0.7786
  825MOL0     H13797   9.658   9.896   1.301 -0.8211  1.1014 -0.4947
  825MOL0     H13798   9.765   9.783   1.226 -2.7792  0.1214 -1.7021
  825MOL0     H13799   9.710   9.500   1.254 -1.1584 -0.7450 -1.6698
  825MOL0     H13800   9.392   9.315   1.339 -1.0030  1.3054  2.1015
  825MOL0     H13801   9.557   9.312   1.375 -1.5369  0.6597  2.9176
  825MOL0     H13802   9.630   9.244   1.171  0.1364  2.7024 -0.0045
  825MOL0     H13803   9.458   9.199   1.148 -0.7914  0.7194 -0.1531
  825MOL0     H13804   9.418   9.416   1.042  0.1329  0.0603 -0.1844
  825MOL0     H13805   9.587   9.451   1.036 -0.2466 -0.0100 -0.5146
  825MOL0     H13806   9.528   9.179   0.911  1.2860 -0.3781 -1.9519
  825MOL0     H13807   9.454   9.303   0.831 -1.5781 -1.5458  1.2971
  825MOL0     H13808   9.765   9.554   0.775 -2.4829  2.7405 -2.1345
  825MOL0     H13809   9.725   9.747   0.551  1.2676  0.9306  2.5905
  825MOL0     H13810   9.861   9.678   0.459 -1.3227 -0.2145 -1.6615
  825MOL0     H13811   9.867   9.700   0.641 -2.7921  3.2075  0.8294
  825MOL0     H13812   9.649   9.510   0.064 -0.8763 -0.4347  0.7673
  825MOL0     H13813   9.612   9.473  -0.176 -2.6207 -2.1809 -1.0808
  825MOL0     H13814   9.830   9.106  -0.352  1.3918  2.9605  0.2894
  825MOL0     H13815   9.665   9.046  -0.352  1.4116 -0.5138  1.5689
  825MOL0     H13816   9.786   9.242  -0.561 -0.9064  0.8752  1.1669
  825MOL0     H13817   9.752   9.069  -0.585  1.3762 -1.2548  1.0943
  825MOL0     H13818   9.596   9.212  -0.694 -2.7241 -2.7252 -0.7145
  825MOL0     H13819   9.555   9.297  -0.541  0.1907  0.4252  1.0444
  825MOL0     H13820   9.465   9.115  -0.453 -2.7570 -1.7830 -0.2660
  825MOL0     H13821   9.507   9.000  -0.575 -0.4486  0.3397 -0.6493
  825MOL0     H13822   9.326   9.253  -0.616 -1.1331  0.3767  0.1486
  825MOL0     H13823   9.374   9.120  -0.737  0.8680 -2.9597  0.8279
  825MOL0     H13824   9.145   9.140  -0.559  0.6655  0.8954 -0.8242
  825MOL0     H13825   9.245   8.993  -0.536  2.1397 -0.6305 -2.4263
  825MOL0     H13826   9.171   9.067  -0.812 -1.6028 -0.3116 -0.6605
  825MOL0     H13827   9.050   8.997  -0.710  0.3554  2.2557 -0.6090
  825MOL0     H13828   9.236   8.810  -0.668 -2.1460 -1.3772 -1.1982
  825MOL0     H13829   9.302   8.874  -0.823 -0.6345 -0.2695 -1.2352
  825MOL0     H13830   9.806   9.082  -0.136  2.0497  1.3761  0.8540
  825MOL0     H13831   9.854   9.142   0.102 -0.8066  0.3468  0.1811
  825MOL0     H13832   9.649   9.249   0.409 -1.3285  1.7970 -1.9978
  825MOL0     H13833   9.617   9.185   0.644  0.5577 -0.2017 -2.1597
  825MOL0     H13834   9.383   9.636   2.152 -0.6723  0.9340  2.9491
  825MOL0     H13835   9.200   9.577   2.300 -1.0201 -1.6056 -1.8201
  825MOL0     H13836   8.957   9.486   2.700 -3.1058 -0.1247  2.5699
  825MOL0     H13837   8.726   9.488   2.760 -2.2385  0.7943 -0.8000
  825MOL0     H13838   8.518   9.333   2.841  0.3461 -1.1701 -0.3521
  825MOL0     H13839   8.510   9.499   2.767 -1.4467  0.6383  0.4310
  825MOL0     H13840   8.305   9.284   2.726 -3.2263  1.0820 -1.1155
  825MOL0     H13841   8.286   9.448   2.680 -0.4354 -0.8643 -0.4726
  825MOL0     H13842   8.307   9.344   2.965  2.8797  0.5485 -0.0301
  825MOL0     H13843   8.339   9.514   2.929  3.2892 -0.1240 -2.2781
  825MOL0     H13844   8.089   9.345   2.865 -1.9766 -0.0568 -0.1640
  825MOL0     H13845   8.089   9.522   2.846  0.6493 -1.3284 -0.1341
  825MOL0     H13846   8.079   9.493   3.275  0.3625 -1.2342  1.1794
  825MOL0     H13847   8.652   9.225   2.422 -0.0477  0.5474 -0.4814
  825MOL0     H13848   8.774   9.198   2.264  1.6536 -1.5314 -2.2529
  825MOL0     H13849   8.915   9.298   2.238  4.2522 -2.0759  0.7208
  825MOL0     H13850   8.932   9.139   2.310 -1.2204 -0.7146 -1.1606
  826MOL0     O13851   1.352  11.045   7.097  0.0208 -0.5851 -0.0477
  826MOL0     C13852   1.257  11.053   7.179 -0.3113 -0.1414  0.5653
  826MOL0     O13853   1.175  10.949   7.211  0.3123  0.3012  0.3296
  826MOL0     C13854   1.237  10.829   7.194  0.4694  0.8010 -0.7389
  826MOL0     C13855   1.331  10.784   7.286  0.3266  0.3578  0.5963
  826MOL0     C13856   1.407  10.666   7.259  0.8133  0.6289  0.3121
  826MOL0     C13857   1.379  10.595   7.135 -0.2428 -0.7573  0.4504
  826MOL0     O13858   1.453  10.488   7.095 -0.1235  0.0042 -0.4124
  826MOL0     C13859   1.472  10.378   7.189  0.0367  0.4848 -0.1441
  826MOL0     C13860   1.505  10.245   7.121 -0.4948 -0.1256  0.2265
  826MOL0     C13861   1.636  10.258   7.036 -0.2132 -0.5117 -0.2064
  826MOL0     C13862   1.639  10.153   6.924 -0.2418  0.2997 -0.0097
  826MOL0     C13863   1.780  10.159   6.852 -0.3204  0.6759 -0.3017
  826MOL0     C13864   1.802  10.059   6.741 -1.0330  0.3672 -1.2727
  826MOL0     C13865   1.709  10.092   6.623 -0.3989  0.6258 -0.0866
  826MOL0     C13866   1.718   9.977   6.507 -0.2903 -1.0779  1.2567
  826MOL0     N13867   1.837   9.998   6.423 -0.8133 -0.5348  0.8626
  826MOL0     C13868   1.847  10.085   6.320 -0.2784 -0.4669 -0.1985
  826MOL0     C13869   1.955  10.055   6.249  0.2173 -0.3829  0.9441
  826MOL0     C13870   1.987  10.135   6.122 -0.4127  0.4669  0.3593
  826MOL0     C13871   1.963  10.291   6.123 -1.3638  0.2793  0.1435
  826MOL0     C13872   2.075  10.375   6.199  0.2054 -0.1521  0.7223
  826MOL0     C13873   2.217  10.327   6.161  0.7503 -0.7984  0.3450
  826MOL0     O13874   2.241  10.342   6.023  0.2343  0.5219  0.5239
  826MOL0     C13875   2.368  10.313   5.968 -0.1354 -0.2359 -0.6739
  826MOL0     C13876   2.465  10.242   6.042  0.7466 -0.0140  0.2501
  826MOL0     C13877   2.586  10.211   5.978 -0.7781 -0.1162  0.3700
  826MOL0     C13878   2.681  10.158   6.076 -0.9240  0.6711 -0.2084
  826MOL0     C13879   2.614  10.249   5.846  0.4520 -0.7610  0.8530
  826MOL0     C13880   2.745  10.229   5.793  0.2116 -0.0768 -0.5647
  826MOL0     O13881   2.801  10.322   5.721 -0.1149 -0.4423  0.5343
  826MOL0     C13882   2.932  10.327   5.702 -0.5206  0.3195  0.4138
  826MOL0     C13883   3.028  10.253   5.770  0.3764 -0.7747 -0.7763
  826MOL0     C13884   3.159  10.282   5.746 -0.0194  0.4183 -0.0255
  826MOL0     C13885   3.202  10.388   5.670 -0.2532  0.8468 -0.6081
  826MOL0     O13886   3.336  10.402   5.647 -0.0046 -0.4231  0.2817
  826MOL0     C13887   3.378  10.500   5.556 -0.5002  0.6132  0.1685
  826MOL0     C13888   3.537  10.473   5.544  0.8316  0.3111 -0.3296
  826MOL0     C13889   3.595  10.586   5.455 -0.8510 -0.4920  0.6411
  826MOL0     C13890   3.748  10.601   5.445  1.0938 -0.6359 -0.5848
  826MOL0     C13891   3.795  10.685   5.328 -0.8134  0.2240  0.4023
  826MOL0     C13892   3.948  10.690   5.332  0.2049  0.2040  0.2143
  826MOL0     C13893   4.020  10.757   5.215  0.2962  0.6448 -0.1732
  826MOL0     C13894   3.974  10.891   5.173  0.2270 -0.4525  0.0688
  826MOL0    Cl13895   4.101  10.936   5.054  0.3304  0.6592  0.0153
  826MOL0     C13896   3.103  10.473   5.629  0.4557 -0.1564 -0.3524
  826MOL0     C13897   2.974  10.432   5.628  0.7034  0.0849 -0.1216
  826MOL0     O13898   2.787  10.114   5.808  0.2259  0.4978  0.3315
  826MOL0     C13899   2.518  10.317   5.773 -0.5526  0.5762 -0.6263
  826MOL0     C13900   2.395  10.350   5.837  0.6755 -0.0334  0.1307
  826MOL0     N13901   2.020   9.950   6.310 -0.2075  0.0378  0.9113
  826MOL0     N13902   1.944   9.912   6.415 -0.4132 -0.2331 -0.0311
  826MOL0     C13903   1.286  10.650   7.041  0.9540  0.2983  1.0364
  826MOL0     C13904   1.217  10.768   7.075  0.5661  0.3151  0.7263
  826MOL0     C13905   1.226  11.187   7.233  0.2524 -0.1217  0.5535
  826MOL0     C13906   1.099  11.229   7.198  1.1850 -0.2015 -0.0751
  826MOL0     C13907   1.042  11.339   7.258 -0.4589  0.3809 -0.0592
  826MOL0     C13908   1.116  11.417   7.365 -0.2620  1.1660  0.8331
  826MOL0     O13909   1.074  11.528   7.431  0.5994 -0.6664  0.3805
  826MOL0     C13910   0.953  11.583   7.373 -0.0111 -0.0410  0.1982
  826MOL0     C13911   0.924  11.704   7.477 -0.1960  0.3071 -0.0399
  826MOL0     C13912   0.798  11.802   7.452  0.3987 -0.6710 -0.3087
  826MOL0     C13913   0.760  11.895   7.586  0.5876  0.1438  0.0186
  826MOL0     C13914   0.683  12.014   7.545 -0.5957 -0.4254  0.1377
  826MOL0     C13915   0.614  12.107   7.501 -0.1663  0.9782  0.2523
  826MOL0     C13916   1.252  11.390   7.378 -0.0627 -0.1717  0.0405
  826MOL0     C13917   1.305  11.274   7.318 -0.0688  0.2251  0.0157
  826MOL0     C13918   1.448  11.226   7.350  0.3240 -0.3852 -0.2319
  826MOL0     H13919   1.355  10.849   7.369  0.4319  0.8184  0.2110
  826MOL0     H13920   1.483  10.615   7.317 -0.9010 -1.4968  0.7910
  826MOL0     H13921   1.381  10.359   7.247 -1.2638  0.9101 -1.9688
  826MOL0     H13922   1.557  10.412   7.249  3.5034  1.0478 -4.7808
  826MOL0     H13923   1.503  10.164   7.194 -1.2216  0.0428  0.3951
  826MOL0     H13924   1.417  10.223   7.060 -1.1436 -1.2579  1.5116
  826MOL0     H13925   1.641  10.352   6.981  2.6878 -1.9607 -2.6647
  826MOL0     H13926   1.727  10.247   7.096 -0.0508  1.8053  0.0811
  826MOL0     H13927   1.623  10.055   6.969  1.5989 -0.0227  0.0278
  826MOL0     H13928   1.563  10.172   6.848  0.9598 -0.3568 -1.4246
  826MOL0     H13929   1.855  10.141   6.930  0.7052 -1.8793 -1.7474
  826MOL0     H13930   1.798  10.262   6.820  0.9685  0.5731  0.0438
  826MOL0     H13931   1.909  10.057   6.723 -0.7639 -1.4018  0.2932
  826MOL0     H13932   1.785   9.958   6.780  3.9413  0.8705  3.2496
  826MOL0     H13933   1.732  10.189   6.579  1.4727 -0.7632 -2.3595
  826MOL0     H13934   1.605  10.089   6.657 -0.2150  2.4194  0.7597
  826MOL0     H13935   1.720   9.878   6.552 -3.4769 -1.4551  0.7761
  826MOL0     H13936   1.627   9.982   6.447  0.2390 -1.9214  0.3721
  826MOL0     H13937   1.779  10.166   6.296  1.0341  1.0354  0.9478
  826MOL0     H13938   1.927  10.112   6.034  0.6030  2.6193 -0.9999
  826MOL0     H13939   2.087  10.098   6.096 -2.0558 -3.3610 -1.2807
  826MOL0     H13940   1.956  10.328   6.021  0.8497 -0.5938 -0.3813
  826MOL0     H13941   1.867  10.314   6.170 -0.5278  1.1016  1.4999
  826MOL0     H13942   2.057  10.481   6.176 -0.5965 -0.4918 -0.2866
  826MOL0     H13943   2.044  10.360   6.303 -0.2495  2.2233  1.0017
  826MOL0     H13944   2.290  10.390   6.212 -1.2578  1.4850  0.6133
  826MOL0     H13945   2.223  10.226   6.201 -0.0551  0.9029  5.5035
  826MOL0     H13946   2.439  10.213   6.143  2.9345 -1.0918  0.5684
  826MOL0     H13947   2.642  10.148   6.178 -1.4689 -0.2515 -0.4933
  826MOL0     H13948   2.773  10.217   6.073  0.7899 -1.8711 -1.3941
  826MOL0     H13949   2.708  10.055   6.048 -2.7735  0.0647  0.1049
  826MOL0     H13950   3.011  10.181   5.849  0.4491  1.1306  1.0654
  826MOL0     H13951   3.241  10.220   5.782  2.4898  2.8446 -1.2265
  826MOL0     H13952   3.332  10.467   5.462 -1.9767 -2.0642  1.7207
  826MOL0     H13953   3.347  10.600   5.589 -1.6442 -0.6504  3.2904
  826MOL0     H13954   3.589  10.462   5.639  3.1207 -0.5959 -1.6193
  826MOL0     H13955   3.552  10.383   5.484 -0.2597 -1.0247  1.3285
  826MOL0     H13956   3.557  10.684   5.484 -0.8648  1.3133 -4.4660
  826MOL0     H13957   3.571  10.573   5.349  4.0579  2.0992 -1.1218
  826MOL0     H13958   3.793  10.501   5.443  4.9240  0.9023 -0.4239
  826MOL0     H13959   3.786  10.644   5.538 -0.7027 -0.5888  0.1610
  826MOL0     H13960   3.757  10.655   5.230 -1.3840  3.5466 -0.5259
  826MOL0     H13961   3.767  10.788   5.352  1.3958  1.1504 -0.7322
  826MOL0     H13962   3.994  10.594   5.356 -0.8464 -0.5510 -0.6984
  826MOL0     H13963   3.977  10.749   5.419  2.3508  0.0320 -0.3282
  826MOL0     H13964   4.016  10.691   5.128 -0.8259  1.3274 -0.6717
  826MOL0     H13965   4.126  10.755   5.241 -0.3186 -3.5056  3.0233
  826MOL0     H13966   3.969  10.958   5.259 -0.0662  0.7332 -0.8529
  826MOL0     H13967   3.874  10.882   5.128  1.0126 -2.3176 -1.4241
  826MOL0     H13968   3.116  10.566   5.576 -0.3983 -0.9782 -2.0990
  826MOL0     H13969   2.892  10.492   5.589  3.2450  1.7903 -3.3256
  826MOL0     H13970   2.538  10.343   5.669  0.8973  0.5793 -0.3619
  826MOL0     H13971   2.327  10.410   5.777  1.2362 -0.8195 -1.3469
  826MOL0     H13972   1.262  10.607   6.945 -0.0359 -0.3716  1.5633
  826MOL0     H13973   1.148  10.816   7.006 -0.5095 -2.3465 -0.1795
  826MOL0     H13974   1.039  11.171   7.129  1.2706 -0.7557  0.3027
  826MOL0     H13975   0.946  11.349   7.208 -1.2757 -3.5850  0.3992
  826MOL0     H13976   0.956  11.623   7.271 -1.1964 -0.6614 -0.0914
  826MOL0     H13977   0.869  11.514   7.385 -1.6625  1.6375 -1.2877
  826MOL0     H13978   1.016  11.763   7.477  1.7858 -2.5591 -0.6950
  826MOL0     H13979   0.917  11.659   7.577  0.2307 -0.1563 -0.2163
  826MOL0     H13980   0.834  11.870   7.375 -0.9985  0.6387  0.1554
  826MOL0     H13981   0.718  11.754   7.395 -0.2323  0.9078 -0.7924
  826MOL0     H13982   0.852  11.910   7.644  0.2725  0.6148  0.4044
  826MOL0     H13983   0.691  11.842   7.652 -1.0708  0.6253 -1.2738
  826MOL0     H13984   0.541  12.180   7.473  0.2201  0.8731 -1.0943
  826MOL0     H13985   1.319  11.446   7.444  0.5569 -2.5121  1.5486
  826MOL0     H13986   1.434  11.164   7.439 -2.2366  0.6257  0.1786
  826MOL0     H13987   1.487  11.171   7.264 -1.3308 -1.9075 -0.0667
  826MOL0     H13988   1.511  11.312   7.374 -0.6246  0.8326 -1.9325
  827MOL0     O13989   4.090   8.411  10.886 -0.1213  0.1545 -0.4817
  827MOL0     C13990   4.041   8.511  10.935  0.6124 -0.6489  0.5685
  827MOL0     O13991   4.087   8.637  10.916  0.4054  0.5193  1.1046
  827MOL0     C13992   4.187   8.658  10.813  0.7526  1.1876  0.6341
  827MOL0     C13993   4.148   8.651  10.677 -0.4754  0.1453 -0.2599
  827MOL0     C13994   4.240   8.701  10.578 -0.5179 -0.0159 -0.3943
  827MOL0     C13995   4.371   8.744  10.616 -0.5431 -0.0877 -0.0579
  827MOL0     O13996   4.476   8.790  10.533  0.5708  0.1436  0.0684
  827MOL0     C13997   4.434   8.799  10.391  0.1520  0.3917 -0.6287
  827MOL0     C13998   4.570   8.807  10.315 -0.3918  0.4942 -0.2640
  827MOL0     C13999   4.548   8.821  10.161  0.4342 -0.1416  0.2489
  827MOL0     C14000   4.679   8.809  10.082  0.6501  0.6876  0.7790
  827MOL0     C14001   4.651   8.826   9.929 -0.4836  0.1697 -0.2713
  827MOL0     C14002   4.757   8.761   9.845  0.5708 -0.8634  0.0703
  827MOL0     C14003   4.739   8.780   9.698 -0.3293 -0.6468  0.3777
  827MOL0     C14004   4.847   8.712   9.613  0.2400 -0.2838  0.0783
  827MOL0     N14005   4.830   8.766   9.476 -0.1458 -0.2834  0.3523
  827MOL0     C14006   4.891   8.874   9.417 -0.9297  1.0385  0.6357
  827MOL0     C14007   4.816   8.903   9.309  0.1270  0.3417  0.5253
  827MOL0     C14008   4.825   9.029   9.229 -0.1152 -0.6649  0.4215
  827MOL0     C14009   4.961   9.033   9.172  0.4691  0.3340  0.7238
  827MOL0     C14010   4.986   9.161   9.097  0.1320  0.0287  0.1024
  827MOL0     C14011   5.126   9.220   9.126 -0.2941 -0.1004  0.1890
  827MOL0     O14012   5.112   9.295   9.257 -1.0606  0.8972  0.2110
  827MOL0     C14013   5.198   9.405   9.268 -0.2889  0.8271  0.3530
  827MOL0     C14014   5.164   9.504   9.362 -0.0743 -0.4897  0.3772
  827MOL0     C14015   5.252   9.618   9.387  0.9541  0.1401 -0.0279
  827MOL0     C14016   5.208   9.735   9.478 -0.5469  0.4899  0.2797
  827MOL0     C14017   5.376   9.622   9.315 -0.5702  0.6236 -0.5906
  827MOL0     C14018   5.483   9.709   9.342  0.3774 -0.3345 -0.6878
  827MOL0     O14019   5.498   9.790   9.240 -0.2930 -0.6355  0.1189
  827MOL0     C14020   5.569   9.906   9.251 -0.0406 -0.1029  0.2191
  827MOL0     C14021   5.513  10.005   9.331 -0.1712  0.0141 -0.3771
  827MOL0     C14022   5.601  10.096   9.388  0.6936  0.2856  0.0528
  827MOL0     C14023   5.731  10.108   9.346  0.1843  0.3078 -0.4817
  827MOL0     O14024   5.814  10.194   9.414 -0.5902 -0.7143  0.3498
  827MOL0     C14025   5.880  10.289   9.323  0.3643  0.1763  0.1849
  827MOL0     C14026   5.886  10.417   9.404  0.9296 -0.2232  0.3037
  827MOL0     C14027   5.737  10.478   9.423 -1.1061  0.4464  0.2817
  827MOL0     C14028   5.673  10.525   9.292 -0.2048  0.5595  0.4348
  827MOL0     C14029   5.524  10.504   9.297 -0.0751 -0.1237 -0.3502
  827MOL0     C14030   5.449  10.576   9.416 -0.2769 -0.0586  0.1539
  827MOL0     C14031   5.300  10.571   9.399 -0.6812  0.3930  0.0081
  827MOL0     C14032   5.236  10.443   9.456  0.1302  0.5719  0.2919
  827MOL0    Cl14033   5.282  10.308   9.354 -0.6929  0.1831 -0.0855
  827MOL0     C14034   5.784  10.016   9.257 -0.1081 -0.6158  0.9315
  827MOL0     C14035   5.706   9.915   9.212 -0.3304 -0.0443 -0.6994
  827MOL0     O14036   5.528   9.727   9.459 -0.3051 -0.1800  0.0283
  827MOL0     C14037   5.415   9.521   9.231  0.7293 -0.1401  0.1701
  827MOL0     C14038   5.327   9.411   9.205  1.3728  0.4933 -0.2771
  827MOL0     N14039   4.712   8.814   9.303  0.3146  0.2809 -0.5858
  827MOL0     N14040   4.728   8.725   9.392 -0.5487 -0.8121  0.4139
  827MOL0     C14041   4.399   8.741  10.751  0.4473 -0.4314  1.1107
  827MOL0     C14042   4.305   8.716  10.845  0.2085 -0.6661  0.0401
  827MOL0     C14043   3.922   8.496  11.022 -0.6332  0.9561 -0.8379
  827MOL0     C14044   3.836   8.606  11.062  0.3661  0.0756  0.4016
  827MOL0     C14045   3.724   8.590  11.146  0.1686 -0.2239  0.7135
  827MOL0     C14046   3.696   8.473  11.208 -0.1354 -0.0718  0.5314
  827MOL0     O14047   3.601   8.447  11.308 -0.5419 -0.3936  0.0872
  827MOL0     C14048   3.502   8.541  11.330  0.0745 -0.0898  0.0936
  827MOL0     C14049   3.426   8.477  11.446 -0.9113 -0.3873 -0.1715
  827MOL0     C14050   3.319   8.562  11.513 -0.2129 -0.0640  0.9610
  827MOL0     C14051   3.189   8.563  11.431 -0.6030  0.1969  0.5960
  827MOL0     C14052   3.075   8.625  11.498  0.0434 -0.5208  0.2764
  827MOL0     C14053   2.995   8.678  11.573 -0.1338  0.6474  0.3663
  827MOL0     C14054   3.778   8.373  11.165 -0.1454  0.3750  0.3134
  827MOL0     C14055   3.892   8.371  11.085  0.3203 -0.1008  0.5374
  827MOL0     C14056   3.953   8.233  11.061 -0.1581 -0.4305  0.6429
  827MOL0     H14057   4.058   8.599  10.645  0.1084 -1.4489  0.5508
  827MOL0     H14058   4.207   8.705  10.474  1.1309  0.3910 -0.9278
  827MOL0     H14059   4.371   8.885  10.367  1.3055  1.7700  0.9860
  827MOL0     H14060   4.387   8.703  10.370  4.2592 -1.9242 -0.3965
  827MOL0     H14061   4.623   8.884  10.372 -0.8158 -0.1059  0.9884
  827MOL0     H14062   4.631   8.721  10.344 -3.0288 -0.8296  1.9198
  827MOL0     H14063   4.479   8.743  10.131  1.4301 -0.8954 -0.1249
  827MOL0     H14064   4.502   8.920  10.151  0.1783 -0.0566  1.8776
  827MOL0     H14065   4.754   8.877  10.125  0.4793  1.8614 -0.7012
  827MOL0     H14066   4.714   8.706  10.091 -2.6941 -0.5536  0.7407
  827MOL0     H14067   4.650   8.933   9.904 -2.5439  0.6349  1.4708
  827MOL0     H14068   4.557   8.774   9.911  0.2766 -1.2888 -0.1112
  827MOL0     H14069   4.847   8.812   9.880  1.0947  0.9055 -3.4244
  827MOL0     H14070   4.760   8.656   9.876 -1.4621 -1.0359 -0.1866
  827MOL0     H14071   4.746   8.886   9.673  1.8151 -0.6179  0.8893
  827MOL0     H14072   4.639   8.749   9.666 -0.8920  1.5837 -0.1836
  827MOL0     H14073   4.944   8.731   9.659 -0.3120  0.7092  0.8652
  827MOL0     H14074   4.837   8.604   9.599  1.2819 -0.0125 -3.8231
  827MOL0     H14075   4.985   8.915   9.453 -0.2327 -0.0615  0.1125
  827MOL0     H14076   4.793   9.120   9.281 -1.6889 -0.7935 -0.2746
  827MOL0     H14077   4.752   9.012   9.149  2.6776 -1.8000 -2.0619
  827MOL0     H14078   5.028   9.035   9.258  1.8517  2.0212 -0.3199
  827MOL0     H14079   4.977   8.945   9.108  0.2411 -2.8818  4.6622
  827MOL0     H14080   4.985   9.135   8.991  3.8272  3.5174 -1.0523
  827MOL0     H14081   4.905   9.229   9.125 -0.4984 -0.5614 -0.2694
  827MOL0     H14082   5.210   9.151   9.118 -2.0969 -2.2143 -3.2556
  827MOL0     H14083   5.138   9.297   9.049 -0.2083  2.9952  3.0793
  827MOL0     H14084   5.066   9.502   9.410 -1.2351  1.3884 -1.7421
  827MOL0     H14085   5.237   9.825   9.423  0.7963 -1.0421 -1.6755
  827MOL0     H14086   5.256   9.731   9.576  1.0528  3.1726 -0.2767
  827MOL0     H14087   5.099   9.727   9.479 -0.4898 -0.4417 -0.0023
  827MOL0     H14088   5.410  10.004   9.366 -0.3237  3.1281 -0.4209
  827MOL0     H14089   5.571  10.157   9.473  1.1620  1.2811 -0.4738
  827MOL0     H14090   5.981  10.249   9.308 -0.1064 -0.7133 -0.7910
  827MOL0     H14091   5.813  10.292   9.236 -1.5206  1.1941  1.6035
  827MOL0     H14092   5.939  10.414   9.500  1.0608  1.5098  0.3104
  827MOL0     H14093   5.946  10.487   9.346  1.5561 -1.5675 -0.7227
  827MOL0     H14094   5.742  10.576   9.472 -0.3100 -0.2038  1.5527
  827MOL0     H14095   5.678  10.404   9.477  0.6926 -2.6884 -1.7675
  827MOL0     H14096   5.719  10.468   9.211  0.5754 -1.8148  2.4265
  827MOL0     H14097   5.687  10.628   9.259 -1.6867  0.1586 -1.6261
  827MOL0     H14098   5.483  10.546   9.204 -2.6656  0.1954  0.8415
  827MOL0     H14099   5.511  10.395   9.301  0.2448 -0.1228  1.8906
  827MOL0     H14100   5.486  10.679   9.422  0.5740 -0.3164 -0.4410
  827MOL0     H14101   5.483  10.539   9.513 -0.6489 -2.2321 -0.4990
  827MOL0     H14102   5.271  10.592   9.295  1.6723  2.6242 -0.2923
  827MOL0     H14103   5.250  10.656   9.446  2.1297  0.5403  3.0109
  827MOL0     H14104   5.128  10.454   9.464 -0.0473 -0.1560 -0.7752
  827MOL0     H14105   5.273  10.420   9.556 -1.2871 -0.8847  0.5215
  827MOL0     H14106   5.890  10.016   9.233 -0.4122 -2.1302 -0.6096
  827MOL0     H14107   5.755   9.840   9.150 -0.1119  1.6107 -2.6107
  827MOL0     H14108   5.510   9.532   9.181 -0.1900  1.0355 -1.3976
  827MOL0     H14109   5.353   9.337   9.129  0.3223 -0.1942  0.0128
  827MOL0     H14110   4.502   8.765  10.777  1.1115 -1.9187  0.0205
  827MOL0     H14111   4.338   8.722  10.948 -1.8501 -1.4044  0.7925
  827MOL0     H14112   3.845   8.705  11.019 -1.8549 -0.5958 -1.8791
  827MOL0     H14113   3.658   8.674  11.168 -0.4591 -0.4693 -0.2058
  827MOL0     H14114   3.538   8.641  11.356  0.9677 -0.3603 -0.0680
  827MOL0     H14115   3.437   8.553  11.243  2.5470  0.9866 -1.7317
  827MOL0     H14116   3.501   8.454  11.523 -2.2755 -0.8283  1.0616
  827MOL0     H14117   3.375   8.387  11.412  0.2503 -0.6143 -1.4111
  827MOL0     H14118   3.306   8.529  11.617  1.4393  1.0041  1.5448
  827MOL0     H14119   3.362   8.660  11.535 -1.9062  0.9912 -0.1473
  827MOL0     H14120   3.159   8.459  11.419 -2.6437  0.8710 -0.6761
  827MOL0     H14121   3.219   8.609  11.336 -0.0529 -2.4697 -0.6035
  827MOL0     H14122   2.913   8.706  11.635 -0.6215  1.0013 -0.4152
  827MOL0     H14123   3.756   8.278  11.213  1.2993  1.2507  2.9204
  827MOL0     H14124   3.942   8.206  10.956  1.4756  1.2237 -0.0064
  827MOL0     H14125   4.059   8.223  11.086 -0.0255 -0.2494  0.1536
  827MOL0     H14126   3.904   8.155  11.120  2.3438 -1.2144  1.8261
  828MOL0     O14127   1.661   5.281  11.106  0.0888 -0.8183 -0.0212
  828MOL0     C14128   1.738   5.330  11.197  0.3111  0.3417 -0.0629
  828MOL0     O14129   1.806   5.453  11.187  0.3791 -0.0285 -0.4402
  828MOL0     C14130   1.795   5.513  11.066 -0.3558  0.1475  0.4319
  828MOL0     C14131   1.675   5.579  11.047 -0.3511  0.6438  0.3328
  828MOL0     C14132   1.649   5.634  10.921 -0.0353  0.1179 -0.8112
  828MOL0     C14133   1.734   5.623  10.813  0.1036  0.4588  1.0823
  828MOL0     O14134   1.708   5.670  10.686  0.5104 -0.4952  0.5167
  828MOL0     C14135   1.576   5.713  10.666 -0.8265  0.3870 -0.6148
  828MOL0     C14136   1.551   5.759  10.526 -1.4216  0.0502 -0.7619
  828MOL0     C14137   1.408   5.792  10.502 -0.2869 -0.3623 -0.1115
  828MOL0     C14138   1.362   5.934  10.536  0.7388 -0.6571 -0.5756
  828MOL0     C14139   1.216   5.953  10.504 -0.2136 -0.7157 -0.9865
  828MOL0     C14140   1.166   6.092  10.482  0.1509 -1.0867  1.0380
  828MOL0     C14141   1.189   6.127  10.332 -0.1330 -0.1228  0.5268
  828MOL0     C14142   1.166   6.279  10.310  0.5715  0.9175 -0.9210
  828MOL0     N14143   1.198   6.317  10.170 -0.1222  0.3660 -0.1345
  828MOL0     C14144   1.312   6.374  10.125  0.0739  0.1490 -0.1188
  828MOL0     C14145   1.289   6.429  10.003  0.3289  0.0476  0.0367
  828MOL0     C14146   1.390   6.513   9.934 -0.8173 -0.5827  0.2721
  828MOL0     C14147   1.350   6.592   9.814  0.4722  0.4916 -0.3676
  828MOL0     C14148   1.354   6.747   9.840 -0.5296 -0.0467 -0.0209
  828MOL0     C14149   1.502   6.809   9.851 -0.6664  0.5369  0.4409
  828MOL0     O14150   1.494   6.934   9.920 -0.0043 -0.1114  0.5109
  828MOL0     C14151   1.507   7.054   9.853 -0.9460 -0.0981 -0.0311
  828MOL0     C14152   1.549   7.158   9.926 -0.1567  0.4814  1.0712
  828MOL0     C14153   1.588   7.289   9.867 -0.1488 -0.1829 -0.2257
  828MOL0     C14154   1.607   7.415   9.957  0.1127  0.8454  0.4474
  828MOL0     C14155   1.580   7.302   9.730  0.4752  0.8561  0.2014
  828MOL0     C14156   1.618   7.425   9.661 -0.4450  0.4216 -0.0461
  828MOL0     O14157   1.739   7.478   9.703 -0.3248  0.7038  0.4933
  828MOL0     C14158   1.788   7.598   9.655  0.2599  0.5988  0.6436
  828MOL0     C14159   1.789   7.702   9.734 -0.0515  0.7315  0.0675
  828MOL0     C14160   1.840   7.823   9.683 -0.3377  0.1750  0.1907
  828MOL0     C14161   1.900   7.829   9.553  0.2472 -0.6620 -0.1340
  828MOL0     O14162   1.965   7.945   9.508  0.1513  0.3402 -0.2465
  828MOL0     C14163   2.041   7.937   9.387 -0.3335 -0.2714  0.2234
  828MOL0     C14164   2.111   8.071   9.368 -0.3134 -0.0194  0.3873
  828MOL0     C14165   2.189   8.093   9.239 -1.1893  0.0383 -0.1216
  828MOL0     C14166   2.254   8.229   9.232  0.4515 -0.1217 -0.1617
  828MOL0     C14167   2.316   8.238   9.084 -0.5060 -0.0437  1.0802
  828MOL0     C14168   2.395   8.369   9.063 -0.7134  0.3437  0.3231
  828MOL0     C14169   2.533   8.364   9.130 -0.4352 -0.1210  0.2974
  828MOL0     C14170   2.598   8.501   9.132 -0.5189 -0.0376 -0.1592
  828MOL0    Cl14171   2.614   8.547   8.952 -0.7070 -0.3199  0.1422
  828MOL0     C14172   1.881   7.721   9.468  0.4377  0.5419 -0.1455
  828MOL0     C14173   1.838   7.597   9.524  0.1224  0.1225  0.1636
  828MOL0     O14174   1.549   7.454   9.564 -0.8543  0.2781  0.2562
  828MOL0     C14175   1.513   7.196   9.664 -0.2602 -0.1869 -0.7429
  828MOL0     C14176   1.490   7.072   9.715  1.1078 -0.3524 -0.1157
  828MOL0     N14177   1.158   6.402   9.975 -0.1555  0.7034  0.2818
  828MOL0     N14178   1.106   6.323  10.070  0.2228 -0.7657  0.7424
  828MOL0     C14179   1.855   5.561  10.832 -0.6579  0.4541 -0.2861
  828MOL0     C14180   1.886   5.503  10.957 -0.8362 -0.3928  0.8781
  828MOL0     C14181   1.730   5.269  11.330  0.4926 -0.1271 -0.3980
  828MOL0     C14182   1.723   5.359  11.437 -0.2674  0.0139 -0.4893
  828MOL0     C14183   1.724   5.310  11.572 -0.0044  0.3162  0.1763
  828MOL0     C14184   1.688   5.179  11.597  0.0675 -0.8144  0.0280
  828MOL0     O14185   1.663   5.141  11.724  0.4057 -0.4710 -0.6657
  828MOL0     C14186   1.615   5.010  11.760 -0.6034 -0.6636  0.0571
  828MOL0     C14187   1.467   4.989  11.715 -1.2103 -0.4552 -0.0105
  828MOL0     C14188   1.410   4.851  11.742  0.1495  0.0409 -0.5352
  828MOL0     C14189   1.480   4.727  11.675  0.1499 -0.4707 -0.4426
  828MOL0     C14190   1.474   4.733  11.530 -0.1638  0.0299  0.3854
  828MOL0     C14191   1.461   4.750  11.411  0.1175 -0.0396 -0.5279
  828MOL0     C14192   1.681   5.090  11.488  0.0451  0.0142  0.8520
  828MOL0     C14193   1.714   5.132  11.354  0.3217  0.6614 -0.2877
  828MOL0     C14194   1.722   5.024  11.251  0.1683  0.1630  0.5135
  828MOL0     H14195   1.591   5.567  11.114 -1.5320 -1.2091 -1.3715
  828MOL0     H14196   1.551   5.677  10.905 -1.9475 -3.7204 -0.4901
  828MOL0     H14197   1.553   5.796  10.733  1.6846  0.2263  0.5669
  828MOL0     H14198   1.507   5.631  10.687 -1.7429  0.9655 -1.2816
  828MOL0     H14199   1.615   5.843  10.496 -0.3450  0.3694  2.0792
  828MOL0     H14200   1.578   5.673  10.464  2.9769 -1.4851  2.6804
  828MOL0     H14201   1.394   5.779  10.394 -0.8882  2.5005 -0.4388
  828MOL0     H14202   1.335   5.724  10.548  1.0757 -2.5380 -1.0140
  828MOL0     H14203   1.372   5.960  10.642 -0.2301  0.2549 -0.6940
  828MOL0     H14204   1.430   6.003  10.484  1.9062 -1.0078  0.4391
  828MOL0     H14205   1.168   5.907  10.591  0.0317 -1.3086 -1.1616
  828MOL0     H14206   1.177   5.883  10.429  0.3888 -0.7296 -1.2939
  828MOL0     H14207   1.057   6.089  10.494 -0.2376  2.1352 -0.5345
  828MOL0     H14208   1.219   6.163  10.547  0.6380 -0.8322  0.3701
  828MOL0     H14209   1.138   6.069  10.254  0.4606  0.2312 -0.1419
  828MOL0     H14210   1.296   6.109  10.314 -0.5808 -1.9484 -0.5830
  828MOL0     H14211   1.061   6.306  10.318  1.4031  4.4360 -0.4077
  828MOL0     H14212   1.225   6.336  10.382  0.1950  0.3253 -0.1268
  828MOL0     H14213   1.409   6.375  10.174  0.0296  1.3009 -0.0215
  828MOL0     H14214   1.473   6.450   9.901 -3.3328 -2.7493 -2.4788
  828MOL0     H14215   1.431   6.582  10.008  0.8211 -2.2625  1.0037
  828MOL0     H14216   1.418   6.572   9.730 -0.5674 -1.2016 -0.8469
  828MOL0     H14217   1.252   6.559   9.781  0.8269  0.3677 -1.3293
  828MOL0     H14218   1.304   6.794   9.755  0.1764  0.8371  0.0329
  828MOL0     H14219   1.310   6.775   9.936  0.0945  1.7995 -0.2306
  828MOL0     H14220   1.580   6.748   9.897  3.3853  3.7790 -1.4671
  828MOL0     H14221   1.559   6.810   9.757  0.4810 -2.6927  0.9699
  828MOL0     H14222   1.571   7.136  10.030 -1.6887  1.7610  1.7033
  828MOL0     H14223   1.514   7.470   9.938 -1.2134 -1.3218  0.3508
  828MOL0     H14224   1.690   7.482   9.934  1.6403 -0.2022  2.5259
  828MOL0     H14225   1.611   7.381  10.061 -0.8743  0.6538  0.4357
  828MOL0     H14226   1.746   7.682   9.832  1.4382 -1.5510  0.3235
  828MOL0     H14227   1.857   7.895   9.763  1.2122 -1.4867  1.4387
  828MOL0     H14228   2.105   7.848   9.389 -2.3379 -1.8908 -1.8244
  828MOL0     H14229   1.978   7.924   9.299  1.6861  2.6865 -1.8296
  828MOL0     H14230   2.038   8.152   9.378 -3.0770 -2.3268  0.0635
  828MOL0     H14231   2.176   8.079   9.455 -0.7560  1.8806  0.5845
  828MOL0     H14232   2.122   8.077   9.154 -0.3303  1.5504 -1.1492
  828MOL0     H14233   2.264   8.014   9.232 -0.1425  0.6175  2.9173
  828MOL0     H14234   2.329   8.221   9.311  0.3865 -0.9459 -0.1673
  828MOL0     H14235   2.177   8.301   9.259  0.6841 -0.6213  2.0593
  828MOL0     H14236   2.392   8.162   9.062  0.2877  0.8172  0.7890
  828MOL0     H14237   2.237   8.231   9.008  1.0186  0.0225 -0.5854
  828MOL0     H14238   2.328   8.439   9.113 -3.8277 -2.2789  0.1604
  828MOL0     H14239   2.403   8.383   8.955  0.9366 -0.1549  0.3518
  828MOL0     H14240   2.596   8.296   9.071 -2.7816 -0.3661 -2.0917
  828MOL0     H14241   2.516   8.325   9.231  0.7905  1.7244  1.2767
  828MOL0     H14242   2.700   8.500   9.173 -0.7498 -2.5586  0.5114
  828MOL0     H14243   2.545   8.566   9.202 -1.0047  1.1097 -1.5579
  828MOL0     H14244   1.905   7.722   9.362 -1.8921 -2.1974 -0.8225
  828MOL0     H14245   1.823   7.511   9.459 -3.7892  1.9600 -1.6987
  828MOL0     H14246   1.474   7.199   9.563 -1.5017 -3.0714 -0.4443
  828MOL0     H14247   1.454   6.992   9.651 -0.0543  1.6735 -2.1582
  828MOL0     H14248   1.923   5.553  10.748 -0.4471 -0.6391 -0.0344
  828MOL0     H14249   1.976   5.448  10.983 -0.3857  0.5139  1.3108
  828MOL0     H14250   1.738   5.465  11.417  1.7398  0.9383  4.4110
  828MOL0     H14251   1.745   5.377  11.655  2.2744  0.8563 -0.7572
  828MOL0     H14252   1.683   4.936  11.718 -1.0499  0.8948 -3.8307
  828MOL0     H14253   1.637   5.007  11.867  0.0661 -0.4901 -0.0694
  828MOL0     H14254   1.443   5.008  11.610 -0.7840  0.8467  0.1039
  828MOL0     H14255   1.409   5.064  11.770  2.0356  2.0093  0.3810
  828MOL0     H14256   1.420   4.842  11.850 -2.6270  0.0058 -0.2215
  828MOL0     H14257   1.302   4.839  11.734 -0.0035 -0.0415  1.2312
  828MOL0     H14258   1.436   4.634  11.714  1.7030 -0.1878  2.2158
  828MOL0     H14259   1.584   4.714  11.707 -0.4595 -2.5542  0.9173
  828MOL0     H14260   1.443   4.776  11.309 -0.8654  2.4754  0.2138
  828MOL0     H14261   1.638   4.992  11.505 -3.6092  0.9993 -1.5359
  828MOL0     H14262   1.706   5.045  11.144  2.4845 -2.0145 -0.3724
  828MOL0     H14263   1.822   4.978  11.247  1.0522  2.0422 -1.2048
  828MOL0     H14264   1.653   4.945  11.279 -0.2330  0.9737  1.8762
  829MOL0     O14265   0.173   2.178   9.718 -0.7642 -0.2661 -0.1073
  829MOL0     C14266   0.224   2.100   9.634 -0.1629  0.6505 -0.0780
  829MOL0     O14267   0.348   2.108   9.583 -1.0176  0.0358  0.4671
  829MOL0     C14268   0.433   2.211   9.620  0.5979  0.3536  0.0144
  829MOL0     C14269   0.532   2.179   9.711 -0.0105 -0.2662 -0.7340
  829MOL0     C14270   0.622   2.281   9.747 -0.1703 -0.5247 -0.5597
  829MOL0     C14271   0.625   2.413   9.684 -0.9873  0.4601 -0.8258
  829MOL0     O14272   0.715   2.511   9.714 -0.1112 -0.8768 -0.5344
  829MOL0     C14273   0.838   2.464   9.764  0.3507 -0.1913 -0.4835
  829MOL0     C14274   0.932   2.584   9.763  0.7384  0.2988 -0.1064
  829MOL0     C14275   0.911   2.671   9.897  0.2312  0.6582 -0.2026
  829MOL0     C14276   0.994   2.795   9.890  0.1787  0.4429  0.5257
  829MOL0     C14277   0.992   2.886  10.014 -0.2566  1.1871  0.0885
  829MOL0     C14278   1.088   3.003  10.007 -0.1667  0.2722  0.2426
  829MOL0     C14279   1.127   3.065  10.140  0.0657  0.2443  0.4931
  829MOL0     C14280   1.014   3.105  10.227 -0.5519  0.0203  0.5685
  829MOL0     N14281   1.053   3.140  10.365  0.2125 -0.3303  0.7396
  829MOL0     C14282   1.139   3.241  10.411 -0.5608  0.6167  0.1800
  829MOL0     C14283   1.145   3.218  10.547  0.1605  0.6116  0.2648
  829MOL0     C14284   1.229   3.288  10.649  0.2464 -0.1481  0.2257
  829MOL0     C14285   1.378   3.247  10.653 -0.4606 -0.1806  0.4983
  829MOL0     C14286   1.469   3.346  10.727  0.1052  0.9936  0.3491
  829MOL0     C14287   1.622   3.337  10.709 -0.1399  0.7164 -0.5025
  829MOL0     O14288   1.676   3.210  10.772 -0.4234 -0.3990  1.0151
  829MOL0     C14289   1.812   3.198  10.773  0.7998 -0.6903  0.1773
  829MOL0     C14290   1.880   3.101  10.844  0.9427 -0.0319  0.1819
  829MOL0     C14291   2.006   3.057  10.827  0.1655  0.3063  0.1850
  829MOL0     C14292   2.063   2.948  10.913 -0.5815 -0.8168 -0.6172
  829MOL0     C14293   2.083   3.114  10.721 -0.3757  0.8700 -0.9302
  829MOL0     C14294   2.222   3.083  10.696  0.1673  0.2585 -0.1554
  829MOL0     O14295   2.276   3.141  10.594  0.8282  0.8388  0.1076
  829MOL0     C14296   2.401   3.109  10.560 -0.2440 -0.1532  0.2777
  829MOL0     C14297   2.435   3.032  10.453  0.0800  0.5458  0.2411
  829MOL0     C14298   2.557   3.011  10.401  0.4683  0.2236  0.1213
  829MOL0     C14299   2.662   3.077  10.465  0.8498  0.0467 -0.5738
  829MOL0     O14300   2.794   3.056  10.427 -0.0275 -1.0624 -0.4652
  829MOL0     C14301   2.824   2.970  10.314 -0.2394  0.5134 -0.0963
  829MOL0     C14302   2.973   2.939  10.303 -0.2095 -0.0061 -0.6920
  829MOL0     C14303   3.059   3.055  10.336  0.4780 -0.5076  0.8171
  829MOL0     C14304   3.204   3.021  10.296  0.5374  0.2900  0.2373
  829MOL0     C14305   3.293   3.141  10.302  0.0421 -0.5200  1.1979
  829MOL0     C14306   3.429   3.110  10.235  0.3931 -0.3319 -0.4233
  829MOL0     C14307   3.524   3.033  10.326  0.0904 -0.0236  0.7576
  829MOL0     C14308   3.668   3.004  10.284  0.5555 -0.3417  0.0341
  829MOL0    Cl14309   3.688   2.858  10.186 -0.6133 -0.1216  0.4230
  829MOL0     C14310   2.637   3.154  10.582 -0.8732  0.3463 -0.7118
  829MOL0     C14311   2.508   3.166  10.631 -0.7140 -0.1924  0.5169
  829MOL0     O14312   2.288   3.030  10.786 -0.1979 -0.1056 -0.1612
  829MOL0     C14313   2.026   3.217  10.645  0.2768  0.1977  0.8372
  829MOL0     C14314   1.896   3.258  10.669 -0.0127  0.6154 -0.0510
  829MOL0     N14315   1.073   3.111  10.582  0.1909  0.4755  0.4289
  829MOL0     N14316   1.020   3.065  10.473  0.2628  0.3908  0.7931
  829MOL0     C14317   0.523   2.436   9.581 -0.4378  0.1585  0.4032
  829MOL0     C14318   0.445   2.326   9.545 -0.4117  0.1447 -0.0098
  829MOL0     C14319   0.132   1.986   9.582 -0.9420 -0.0734 -0.1618
  829MOL0     C14320   0.156   1.939   9.449  0.1686 -0.0221  0.2416
  829MOL0     C14321   0.093   1.820   9.403  0.9062 -0.7227  0.1919
  829MOL0     C14322  -0.001   1.758   9.481 -0.1785 -0.3567  0.0931
  829MOL0     O14323  -0.057   1.647   9.433 -0.6068  0.5023  0.1385
  829MOL0     C14324  -0.200   1.617   9.445 -0.1598  0.2065  0.0772
  829MOL0     C14325  -0.203   1.490   9.532 -0.7029 -0.2540  1.1133
  829MOL0     C14326  -0.337   1.467   9.601  0.0325  0.3212  0.4294
  829MOL0     C14327  -0.341   1.336   9.689  0.4340 -0.6752 -0.0634
  829MOL0     C14328  -0.306   1.216   9.610  0.2640  0.0775 -1.0485
  829MOL0     C14329  -0.259   1.115   9.559 -0.0957 -0.6011 -0.2935
  829MOL0     C14330  -0.040   1.809   9.607 -0.1133 -0.5600  0.1225
  829MOL0     C14331   0.027   1.920   9.662  0.1691 -0.3398  1.2012
  829MOL0     C14332  -0.026   1.981   9.780  0.3696  1.2390 -0.5595
  829MOL0     H14333   0.530   2.083   9.762  2.1452 -1.3073 -2.4217
  829MOL0     H14334   0.692   2.263   9.828 -1.5372 -1.6285  0.4232
  829MOL0     H14335   0.882   2.391   9.695 -0.8056 -1.9954  0.6043
  829MOL0     H14336   0.828   2.423   9.864  0.7681  4.1843  1.5967
  829MOL0     H14337   1.038   2.558   9.758  0.7228 -0.6762  2.6958
  829MOL0     H14338   0.910   2.650   9.679  1.8537  0.7682 -0.0463
  829MOL0     H14339   0.807   2.704   9.907  0.1213  0.1896  0.2201
  829MOL0     H14340   0.936   2.615   9.988  0.8528  3.2502  1.3663
  829MOL0     H14341   1.098   2.761   9.886  0.3701  1.0819 -0.2165
  829MOL0     H14342   0.960   2.861   9.810 -3.7591 -0.6058  1.0984
  829MOL0     H14343   1.029   2.825  10.097  0.0776  1.1149 -0.1120
  829MOL0     H14344   0.890   2.916  10.040  0.1237  1.9269  0.7717
  829MOL0     H14345   1.182   2.965   9.966 -0.7162 -0.6389 -0.1731
  829MOL0     H14346   1.056   3.083   9.940  1.8746  0.8886 -0.0679
  829MOL0     H14347   1.199   3.146  10.130  3.2649 -2.4231 -0.1194
  829MOL0     H14348   1.190   2.995  10.197 -1.1436 -0.8980  0.4711
  829MOL0     H14349   0.989   3.199  10.175  0.9457  0.1509  0.0423
  829MOL0     H14350   0.937   3.028  10.228 -2.0528  1.0451 -4.5693
  829MOL0     H14351   1.194   3.310  10.348  0.1375 -3.2248 -3.8992
  829MOL0     H14352   1.183   3.273  10.747  1.4594  1.4196  1.0866
  829MOL0     H14353   1.223   3.392  10.615 -3.2055 -0.2605  0.0825
  829MOL0     H14354   1.394   3.157  10.712 -0.8744  1.1613  2.7978
  829MOL0     H14355   1.410   3.228  10.550  2.8902  0.8541  1.2201
  829MOL0     H14356   1.449   3.445  10.684 -0.5801 -1.0051 -4.5333
  829MOL0     H14357   1.450   3.343  10.835 -1.6981  0.4657  0.0377
  829MOL0     H14358   1.634   3.328  10.600  0.7163 -2.3583 -0.2562
  829MOL0     H14359   1.672   3.431  10.732  1.4439  0.5279 -2.7670
  829MOL0     H14360   1.828   3.048  10.923  1.1967 -1.6639 -0.6996
  829MOL0     H14361   2.101   2.872  10.844 -0.3803  1.5312 -3.2582
  829MOL0     H14362   1.988   2.895  10.973  1.8713 -2.3127  1.3292
  829MOL0     H14363   2.131   2.991  10.987  1.1368 -1.4201 -1.7584
  829MOL0     H14364   2.367   2.971  10.393  0.6046 -1.2246  1.3714
  829MOL0     H14365   2.578   2.944  10.318 -1.0801  3.3334 -3.0298
  829MOL0     H14366   2.771   2.874  10.321 -2.8861  1.9981  2.3123
  829MOL0     H14367   2.771   3.024  10.234  0.0392  0.0842 -0.5807
  829MOL0     H14368   2.984   2.847  10.361 -2.5704  0.3112  0.3850
  829MOL0     H14369   2.990   2.904  10.201 -1.8408 -0.7443 -0.7433
  829MOL0     H14370   3.048   3.085  10.440 -2.7231  2.6986 -0.2244
  829MOL0     H14371   3.019   3.130  10.268 -2.3882 -0.4738  2.3879
  829MOL0     H14372   3.212   2.979  10.195  0.0479 -1.0724  0.7474
  829MOL0     H14373   3.251   2.955  10.369  1.8211  0.5201 -0.3522
  829MOL0     H14374   3.243   3.213  10.237 -2.0173 -3.2010 -0.3819
  829MOL0     H14375   3.309   3.183  10.402 -0.2855  2.2845  0.1699
  829MOL0     H14376   3.474   3.205  10.204  0.7662  0.0015  1.0413
  829MOL0     H14377   3.414   3.064  10.137  1.2589 -0.2437 -0.6053
  829MOL0     H14378   3.481   2.938  10.357  0.1006 -0.6065 -0.9186
  829MOL0     H14379   3.530   3.088  10.421 -0.6708  2.2555 -0.4302
  829MOL0     H14380   3.722   3.002  10.379  1.3745 -1.2819 -0.4304
  829MOL0     H14381   3.704   3.095  10.235 -2.0496  0.8371  0.1355
  829MOL0     H14382   2.718   3.207  10.631 -0.1574 -1.0235 -0.3636
  829MOL0     H14383   2.490   3.231  10.716 -2.0842 -0.4298  0.4273
  829MOL0     H14384   2.087   3.264  10.568  0.7429  0.1450  1.1684
  829MOL0     H14385   1.867   3.337  10.600 -1.7883 -0.4742 -0.6230
  829MOL0     H14386   0.512   2.530   9.528 -0.1276  0.6863  1.2475
  829MOL0     H14387   0.373   2.336   9.465  0.5240  0.3439 -0.8568
  829MOL0     H14388   0.217   1.992   9.377  0.9432  2.8813  2.8013
  829MOL0     H14389   0.107   1.793   9.299 -0.0036 -2.0505  0.3911
  829MOL0     H14390  -0.251   1.698   9.499 -2.6117 -1.2935  0.1932
  829MOL0     H14391  -0.263   1.601   9.357 -0.3899 -1.1709  0.4716
  829MOL0     H14392  -0.114   1.490   9.596  1.0031  0.8746 -1.0874
  829MOL0     H14393  -0.188   1.406   9.463  0.5331  1.2889 -0.6261
  829MOL0     H14394  -0.357   1.562   9.650  0.8215  0.4686  0.4751
  829MOL0     H14395  -0.406   1.452   9.517 -1.5698 -2.8704  2.1295
  829MOL0     H14396  -0.446   1.332   9.722 -0.0855  0.1727 -1.5381
  829MOL0     H14397  -0.274   1.352   9.774  1.1992 -1.8618 -0.4210
  829MOL0     H14398  -0.209   1.026   9.526 -0.5717 -0.5528 -1.1832
  829MOL0     H14399  -0.126   1.768   9.659 -2.7663  3.4528 -0.5647
  829MOL0     H14400  -0.097   2.058   9.750 -0.4087  0.8028  0.1132
  829MOL0     H14401  -0.091   1.904   9.824 -0.3426  2.8866  1.4517
  829MOL0     H14402   0.046   2.000   9.860 -2.3461 -0.1953  2.5152
  830MOL0     O14403   8.418   3.794   0.372  0.1658  0.6138  0.6874
  830MOL0     C14404   8.405   3.826   0.488  0.0216 -0.6600  0.0608
  830MOL0     O14405   8.504   3.811   0.587  0.5890  0.0769  1.0781
  830MOL0     C14406   8.629   3.763   0.545 -0.1784 -0.3744 -0.3796
  830MOL0     C14407   8.698   3.857   0.471 -0.2402 -0.1851  0.8405
  830MOL0     C14408   8.837   3.833   0.428  0.6269  0.3270 -0.0672
  830MOL0     C14409   8.893   3.707   0.463 -0.0351  0.7585 -0.5008
  830MOL0     O14410   9.020   3.668   0.444 -0.2082  0.4602 -0.0799
  830MOL0     C14411   9.104   3.743   0.354 -0.9935 -0.8870  0.4209
  830MOL0     C14412   9.232   3.670   0.335 -0.5506  0.1074  0.1296
  830MOL0     C14413   9.196   3.553   0.234 -0.8460  0.0200  0.4099
  830MOL0     C14414   9.322   3.470   0.197  1.0857  0.3698 -0.0715
  830MOL0     C14415   9.358   3.374   0.306  0.3247  0.9917  0.6723
  830MOL0     C14416   9.468   3.287   0.254  1.4030  0.3581  0.5210
  830MOL0     C14417   9.536   3.196   0.358 -0.3386  0.4713  0.7222
  830MOL0     C14418   9.438   3.113   0.442 -0.6609  0.4815 -0.3440
  830MOL0     N14419   9.500   3.024   0.538 -0.2800 -0.4712  0.1556
  830MOL0     C14420   9.585   3.077   0.633 -1.0723  0.2204 -0.2996
  830MOL0     C14421   9.633   2.959   0.687 -0.2590  0.0300 -0.5521
  830MOL0     C14422   9.710   2.958   0.822 -0.5450  0.5025 -0.0633
  830MOL0     C14423   9.625   3.010   0.946  0.6781  0.5254  0.2875
  830MOL0     C14424   9.546   2.904   1.018  0.0507 -0.0788  0.9136
  830MOL0     C14425   9.440   2.966   1.106 -0.7465  0.2559  0.2840
  830MOL0     O14426   9.331   3.035   1.029  0.3599 -0.2292  0.9520
  830MOL0     C14427   9.232   3.082   1.108  1.3017  0.3109  0.0276
  830MOL0     C14428   9.249   3.212   1.147 -0.2156 -0.3274  0.4635
  830MOL0     C14429   9.154   3.281   1.222 -0.1698 -0.7097  0.6356
  830MOL0     C14430   9.168   3.432   1.237  0.7882  0.3936 -0.2566
  830MOL0     C14431   9.029   3.208   1.257  0.3609  0.2727  0.4394
  830MOL0     C14432   8.916   3.278   1.319  1.2496  0.5926  0.0720
  830MOL0     O14433   8.945   3.359   1.420 -0.8404 -0.1991  0.1282
  830MOL0     C14434   8.833   3.412   1.485  0.2235  0.3625 -0.6208
  830MOL0     C14435   8.759   3.517   1.424 -0.2672 -0.4166  0.4769
  830MOL0     C14436   8.639   3.567   1.494  0.8455 -0.9699 -0.6727
  830MOL0     C14437   8.600   3.522   1.614  0.2194 -0.1824 -0.6386
  830MOL0     O14438   8.498   3.586   1.685 -0.2316  0.1082 -0.3758
  830MOL0     C14439   8.461   3.520   1.807 -0.3078 -0.5837  0.0356
  830MOL0     C14440   8.328   3.580   1.866 -0.7692 -0.4194 -1.0542
  830MOL0     C14441   8.276   3.495   1.983 -0.7149 -0.7138 -0.4796
  830MOL0     C14442   8.184   3.380   1.925  0.3230  0.1382 -0.5363
  830MOL0     C14443   8.125   3.303   2.034 -0.1513  0.1750  0.5215
  830MOL0     C14444   8.036   3.191   1.981 -0.5910 -0.0098  0.8965
  830MOL0     C14445   7.907   3.179   2.062  0.0203 -0.4567 -0.0279
  830MOL0     C14446   7.814   3.076   2.010  0.3398 -0.6128 -0.3284
  830MOL0    Cl14447   7.751   3.126   1.849  0.0083 -0.0911 -0.1119
  830MOL0     C14448   8.679   3.417   1.667  0.4579  0.1808  0.0162
  830MOL0     C14449   8.789   3.359   1.599  0.5184 -0.8168 -0.5452
  830MOL0     O14450   8.797   3.233   1.296 -0.4752 -0.7247 -0.6333
  830MOL0     C14451   9.017   3.070   1.223  0.6895 -0.9105 -0.1163
  830MOL0     C14452   9.115   3.014   1.141  0.2684 -0.9320 -0.1817
  830MOL0     N14453   9.598   2.849   0.612 -0.3355 -0.0841 -0.4464
  830MOL0     N14454   9.511   2.888   0.528 -0.5440  0.0703 -0.7230
  830MOL0     C14455   8.821   3.621   0.550  0.1201  0.0940 -0.0109
  830MOL0     C14456   8.693   3.659   0.594  0.0728  0.7208  0.0516
  830MOL0     C14457   8.272   3.870   0.537  0.5481 -0.4025  0.6846
  830MOL0     C14458   8.174   3.916   0.445  0.8247  0.0051  0.4120
  830MOL0     C14459   8.048   3.965   0.492 -0.5264  0.0221 -0.4775
  830MOL0     C14460   8.016   3.966   0.630  0.0350  0.3870  1.0590
  830MOL0     O14461   7.891   4.012   0.656 -0.4088  0.2070  0.0963
  830MOL0     C14462   7.831   3.984   0.785 -0.5150  0.1535 -0.3391
  830MOL0     C14463   7.844   4.112   0.864  0.3499  0.4505  0.2003
  830MOL0     C14464   7.729   4.124   0.967  0.1545 -0.0509  1.3787
  830MOL0     C14465   7.742   4.234   1.067 -1.0818 -0.9467  0.1441
  830MOL0     C14466   7.749   4.373   1.013 -0.1868  0.3223 -0.1249
  830MOL0     C14467   7.759   4.482   0.953  0.3804 -0.7935 -1.1215
  830MOL0     C14468   8.106   3.905   0.715 -0.5082  0.1737  0.4805
  830MOL0     C14469   8.229   3.857   0.673  0.4261 -0.8793 -0.0508
  830MOL0     C14470   8.302   3.778   0.790  0.1127  0.2745  0.9394
  830MOL0     H14471   8.652   3.952   0.446 -0.6907  0.3123  3.3447
  830MOL0     H14472   8.888   3.900   0.358 -3.0444  1.7849 -1.6354
  830MOL0     H14473   9.122   3.836   0.408 -0.6603 -0.2358 -0.7851
  830MOL0     H14474   9.053   3.784   0.267  0.8873  0.1040 -0.2733
  830MOL0     H14475   9.311   3.733   0.293 -0.9326  1.1101  0.8651
  830MOL0     H14476   9.260   3.631   0.433 -2.6521 -2.5220 -0.1969
  830MOL0     H14477   9.117   3.492   0.279  0.6700 -0.4174  2.6663
  830MOL0     H14478   9.182   3.599   0.136  0.8295 -1.1118 -0.4146
  830MOL0     H14479   9.296   3.418   0.105 -0.9330 -0.1870  0.7552
  830MOL0     H14480   9.409   3.534   0.181  1.6516 -0.2094  0.6408
  830MOL0     H14481   9.268   3.320   0.337 -0.8140  1.4269 -1.7158
  830MOL0     H14482   9.394   3.436   0.390  4.8785  0.2272 -0.4384
  830MOL0     H14483   9.430   3.222   0.174 -0.0427  1.7888 -0.0105
  830MOL0     H14484   9.542   3.349   0.203  1.2262 -0.5727 -0.9384
  830MOL0     H14485   9.595   3.260   0.424 -1.3223  0.4055  1.6844
  830MOL0     H14486   9.610   3.133   0.309 -0.0148 -0.0406  1.8268
  830MOL0     H14487   9.346   3.160   0.479  0.1692  0.8782  1.2946
  830MOL0     H14488   9.397   3.037   0.375 -0.6963 -0.4903  0.7600
  830MOL0     H14489   9.585   3.174   0.682 -0.1364  0.3084 -0.4623
  830MOL0     H14490   9.796   3.023   0.802  0.0938 -0.4605 -0.5163
  830MOL0     H14491   9.742   2.858   0.851 -1.2611 -0.0378 -1.1092
  830MOL0     H14492   9.699   3.046   1.019  0.1861 -0.9741  1.5695
  830MOL0     H14493   9.569   3.095   0.907 -0.4250 -0.2119  0.2212
  830MOL0     H14494   9.502   2.850   0.933  1.6912  1.3266 -0.9153
  830MOL0     H14495   9.610   2.836   1.076  0.3571 -0.1318  0.5181
  830MOL0     H14496   9.386   2.886   1.157 -0.0423 -0.6573 -0.3584
  830MOL0     H14497   9.481   3.021   1.192 -0.4532 -2.5613  2.0985
  830MOL0     H14498   9.336   3.260   1.104  0.6511 -3.1573 -1.2062
  830MOL0     H14499   9.209   3.473   1.330 -1.0331  0.3521  0.6034
  830MOL0     H14500   9.073   3.480   1.213 -0.4865 -3.0307 -3.0311
  830MOL0     H14501   9.235   3.470   1.159  0.4348  6.2198  1.8343
  830MOL0     H14502   8.784   3.552   1.325  0.8981 -3.1955 -0.3138
  830MOL0     H14503   8.576   3.647   1.456 -0.3949 -0.6307  1.9120
  830MOL0     H14504   8.434   3.416   1.787  0.7136 -0.8411 -0.0785
  830MOL0     H14505   8.540   3.525   1.883 -0.5073  2.8073  0.1540
  830MOL0     H14506   8.357   3.683   1.892 -4.3298  0.6581 -0.7964
  830MOL0     H14507   8.254   3.604   1.789 -1.4347  2.5031  0.3426
  830MOL0     H14508   8.217   3.552   2.056 -2.8013 -4.0554  0.6271
  830MOL0     H14509   8.353   3.447   2.043 -2.5020 -1.4795  1.3084
  830MOL0     H14510   8.236   3.305   1.864  1.6883 -1.1204  2.0138
  830MOL0     H14511   8.098   3.419   1.870  1.1640  1.4046 -1.0087
  830MOL0     H14512   8.198   3.256   2.100  0.0237 -0.9098 -0.3992
  830MOL0     H14513   8.062   3.365   2.098 -0.1404  0.1388  0.5678
  830MOL0     H14514   8.095   3.100   1.992 -0.4851  0.1828  2.1147
  830MOL0     H14515   8.010   3.207   1.876 -4.1389 -0.3197  1.5990
  830MOL0     H14516   7.847   3.270   2.075  0.1328 -0.1277 -1.5946
  830MOL0     H14517   7.932   3.151   2.164 -0.6236  1.8276  0.8269
  830MOL0     H14518   7.735   3.067   2.085  1.6836  1.1049  1.4009
  830MOL0     H14519   7.858   2.976   2.006  0.3077 -0.6082 -0.7921
  830MOL0     H14520   8.650   3.382   1.766 -1.2950  0.0109 -0.5079
  830MOL0     H14521   8.839   3.270   1.637  0.3490 -0.5377  0.3614
  830MOL0     H14522   8.930   3.009   1.245 -1.3976  1.7078 -0.5711
  830MOL0     H14523   9.103   2.912   1.106  0.1360 -0.6394 -0.9994
  830MOL0     H14524   8.863   3.525   0.577  1.9467  0.1424 -2.3823
  830MOL0     H14525   8.653   3.599   0.675 -3.2901  0.2831 -1.7475
  830MOL0     H14526   8.202   3.936   0.342  1.6796  0.5256  0.7406
  830MOL0     H14527   7.981   4.012   0.421 -0.8857 -0.4975 -0.4937
  830MOL0     H14528   7.728   3.954   0.767 -0.5860 -1.0201  1.7975
  830MOL0     H14529   7.874   3.904   0.846 -3.3751 -1.1146  0.1688
  830MOL0     H14530   7.843   4.198   0.797  3.2378  0.6345  0.2795
  830MOL0     H14531   7.935   4.097   0.923  1.5490  0.6621 -1.5216
  830MOL0     H14532   7.642   4.138   0.902  0.4877  0.3087  1.0002
  830MOL0     H14533   7.717   4.032   1.024 -1.7040 -0.7712 -0.0516
  830MOL0     H14534   7.835   4.215   1.122 -1.3483 -1.0400  0.5666
  830MOL0     H14535   7.666   4.233   1.146 -0.2958  0.4993  0.9769
  830MOL0     H14536   7.767   4.579   0.909 -4.1906  0.3271 -0.0259
  830MOL0     H14537   8.070   3.896   0.817  1.7408 -2.3628  1.1707
  830MOL0     H14538   8.398   3.829   0.803  2.1899 -3.0267 -0.0694
  830MOL0     H14539   8.249   3.788   0.884  0.4746 -0.5478  1.2487
  830MOL0     H14540   8.309   3.671   0.767 -1.4029  0.1038  1.1669
  831MOL0     O14541   7.842   5.363  11.283 -0.0010  0.1501 -0.8090
  831MOL0     C14542   7.729   5.407  11.261  0.2778 -0.1153  0.5681
  831MOL0     O14543   7.699   5.499  11.161  0.1171 -0.6006 -0.5805
  831MOL0     C14544   7.797   5.571  11.105  0.2980 -0.0153  0.5616
  831MOL0     C14545   7.844   5.683  11.165 -0.3783  0.8652  0.4612
  831MOL0     C14546   7.946   5.756  11.104 -0.3516  0.5742 -1.0252
  831MOL0     C14547   8.000   5.728  10.974  0.6408  0.2911  0.3428
  831MOL0     O14548   8.114   5.794  10.929  0.1493 -0.3178 -0.3924
  831MOL0     C14549   8.219   5.712  10.876 -0.8603 -0.6636 -0.5621
  831MOL0     C14550   8.338   5.765  10.953 -0.0076  0.3987  0.2012
  831MOL0     C14551   8.475   5.696  10.910 -0.3839  0.5032 -0.8907
  831MOL0     C14552   8.551   5.791  10.805 -0.8635 -0.6770 -0.4913
  831MOL0     C14553   8.689   5.750  10.771 -0.2350  0.4108  0.3727
  831MOL0     C14554   8.798   5.773  10.884  0.2317 -0.6208 -0.6706
  831MOL0     C14555   8.927   5.707  10.848  0.1098  0.0675 -0.3980
  831MOL0     C14556   9.045   5.731  10.950 -0.1443 -0.1965 -1.1057
  831MOL0     N14557   9.166   5.658  10.918 -0.4682 -0.2353 -0.4137
  831MOL0     C14558   9.242   5.655  10.799  0.4225  0.5121 -0.3520
  831MOL0     C14559   9.365   5.607  10.840 -1.3147  0.0468  0.0498
  831MOL0     C14560   9.493   5.602  10.768 -0.4200  0.1210 -0.0695
  831MOL0     C14561   9.597   5.686  10.840  0.9569 -0.2749 -0.1138
  831MOL0     C14562   9.729   5.697  10.762 -1.0420  0.5962 -0.0011
  831MOL0     C14563   9.810   5.562  10.778  0.8681 -0.4018 -0.2043
  831MOL0     O14564   9.958   5.585  10.769  0.3578 -0.2500  0.2034
  831MOL0     C14565  10.032   5.478  10.805 -0.3632 -0.1560 -0.2228
  831MOL0     C14566   9.988   5.349  10.826 -0.2960  0.1486  0.0194
  831MOL0     C14567  10.076   5.247  10.855  0.1481 -0.3219  0.9241
  831MOL0     C14568  10.015   5.104  10.852 -0.7695 -0.6629 -0.2430
  831MOL0     C14569  10.213   5.278  10.893 -0.0152 -0.0466 -0.0223
  831MOL0     C14570  10.313   5.173  10.938 -0.6174 -0.5407  0.5652
  831MOL0     O14571  10.438   5.234  10.962  0.5554  0.6909 -0.5165
  831MOL0     C14572  10.527   5.177  11.057 -0.9730  0.1072  0.1741
  831MOL0     C14573  10.520   5.043  11.109  0.4724  0.0501 -0.2191
  831MOL0     C14574  10.625   4.990  11.187  0.7088 -0.5209  0.8754
  831MOL0     C14575  10.737   5.074  11.212  0.6416  0.3594  0.0454
  831MOL0     O14576  10.852   5.031  11.280  0.3800  0.4669 -0.7112
  831MOL0     C14577  10.860   4.896  11.321 -0.2137 -0.9873  0.3248
  831MOL0     C14578  11.006   4.868  11.355  1.2649  0.0342  0.3061
  831MOL0     C14579  11.114   4.870  11.240  0.5721  0.0666  0.0649
  831MOL0     C14580  11.245   4.830  11.299  0.8354  0.1956 -0.4429
  831MOL0     C14581  11.352   4.859  11.192  0.2506  0.2744 -1.2977
  831MOL0     C14582  11.490   4.821  11.238 -0.2658 -0.6500 -0.3295
  831MOL0     C14583  11.546   4.893  11.357  0.2675 -0.0301 -0.6862
  831MOL0     C14584  11.692   4.849  11.392  0.0206 -0.2210  0.6826
  831MOL0    Cl14585  11.823   4.891  11.266  0.1044 -0.0882 -0.0642
  831MOL0     C14586  10.727   5.209  11.175  0.8355  0.5812 -0.6804
  831MOL0     C14587  10.625   5.266  11.091  0.2910  0.1414 -0.1993
  831MOL0     O14588  10.284   5.057  10.957  0.1244 -0.3201 -0.3978
  831MOL0     C14589  10.250   5.410  10.877 -0.2531 -0.3384  0.5834
  831MOL0     C14590  10.164   5.502  10.825  0.0151 -0.1415 -0.4045
  831MOL0     N14591   9.348   5.554  10.971  0.1898  0.2400 -0.6668
  831MOL0     N14592   9.224   5.581  11.012  0.0869 -0.4143  0.3855
  831MOL0     C14593   7.943   5.611  10.916  0.4962 -0.5912 -0.3428
  831MOL0     C14594   7.834   5.539  10.975  0.0726  0.5565 -0.1321
  831MOL0     C14595   7.620   5.367  11.346  0.2696  0.6358 -0.0127
  831MOL0     C14596   7.497   5.329  11.286  1.0125 -0.5732 -0.1903
  831MOL0     C14597   7.390   5.285  11.374  0.5491 -0.1144 -0.0818
  831MOL0     C14598   7.408   5.287  11.512  0.7623  0.9457  0.9906
  831MOL0     O14599   7.305   5.226  11.587 -0.6642 -1.1258 -0.0421
  831MOL0     C14600   7.296   5.257  11.728  0.5456 -0.6107  0.7068
  831MOL0     C14601   7.174   5.193  11.782 -0.9164 -0.5011 -0.3889
  831MOL0     C14602   7.179   5.176  11.941 -0.5213 -0.3725  0.9469
  831MOL0     C14603   7.043   5.150  12.006 -0.6126 -0.5334  0.2616
  831MOL0     C14604   7.057   5.172  12.152  0.3624  0.5370  0.9689
  831MOL0     C14605   7.085   5.203  12.266 -0.5234 -0.2634  1.0321
  831MOL0     C14606   7.521   5.342  11.571  0.2275 -0.4615  0.1149
  831MOL0     C14607   7.633   5.376  11.491  0.2387 -0.2509 -0.2627
  831MOL0     C14608   7.763   5.425  11.555  0.0042  0.0637 -0.4858
  831MOL0     H14609   7.806   5.714  11.261 -1.7522 -2.1840  1.0422
  831MOL0     H14610   7.978   5.840  11.164  1.7573 -1.2996  0.6344
  831MOL0     H14611   8.245   5.739  10.773 -3.3896  3.1763 -0.3935
  831MOL0     H14612   8.204   5.605  10.893 -1.4744 -0.4498  0.2977
  831MOL0     H14613   8.331   5.874  10.962  0.5807  0.4790 -0.2476
  831MOL0     H14614   8.318   5.720  11.050  2.8515  2.3746  1.8207
  831MOL0     H14615   8.537   5.683  10.999 -0.2913  3.4854 -0.4226
  831MOL0     H14616   8.471   5.599  10.860  0.4909 -0.3313  0.5980
  831MOL0     H14617   8.490   5.785  10.714 -1.8766  0.3547  0.0960
  831MOL0     H14618   8.550   5.895  10.838  0.8040 -1.4280  2.2741
  831MOL0     H14619   8.711   5.804  10.679 -2.2594 -0.6393 -0.8151
  831MOL0     H14620   8.688   5.642  10.754  1.1048  0.8024 -2.6633
  831MOL0     H14621   8.808   5.882  10.895 -2.1960 -0.3936  0.0038
  831MOL0     H14622   8.769   5.732  10.981  2.7861 -2.2549 -0.4982
  831MOL0     H14623   8.967   5.749  10.755  0.6492  2.0785  0.6792
  831MOL0     H14624   8.913   5.598  10.844  0.8359 -0.0398 -0.2151
  831MOL0     H14625   9.057   5.839  10.952  0.1416 -0.1900 -2.2959
  831MOL0     H14626   9.014   5.708  11.052  1.9402 -1.1876 -0.6359
  831MOL0     H14627   9.221   5.699  10.702  1.9209 -0.3631 -1.1160
  831MOL0     H14628   9.485   5.634  10.664  2.0698  0.5794 -0.1619
  831MOL0     H14629   9.518   5.496  10.751  1.8515  0.5727  0.1647
  831MOL0     H14630   9.548   5.784  10.833 -1.5863 -1.3349  1.4225
  831MOL0     H14631   9.612   5.657  10.945 -0.3402 -0.3009  0.0887
  831MOL0     H14632   9.702   5.705  10.656  0.0629 -0.7865 -0.4049
  831MOL0     H14633   9.783   5.785  10.798 -2.6794  1.3402  0.7415
  831MOL0     H14634   9.788   5.531  10.881  1.4864 -0.3067 -0.0363
  831MOL0     H14635   9.766   5.490  10.709  0.1536 -0.5373  0.3817
  831MOL0     H14636   9.882   5.330  10.815 -0.0709 -0.1834 -1.9219
  831MOL0     H14637  10.080   5.030  10.805  1.6049  0.3458  1.2727
  831MOL0     H14638   9.918   5.102  10.801 -1.0098  1.0233  0.0901
  831MOL0     H14639   9.985   5.077  10.953  1.2538  0.6785  0.7823
  831MOL0     H14640  10.443   4.972  11.081 -0.2213  0.3402  0.8841
  831MOL0     H14641  10.631   4.890  11.226 -0.1302 -0.5423  0.9657
  831MOL0     H14642  10.799   4.888  11.412 -2.0521  0.3845 -0.7138
  831MOL0     H14643  10.831   4.825  11.244  1.8480 -1.3155 -0.1868
  831MOL0     H14644  11.040   4.939  11.431  1.3062  0.2749  0.0647
  831MOL0     H14645  11.001   4.776  11.413 -1.7386 -0.5898 -0.7798
  831MOL0     H14646  11.122   4.966  11.188  4.6808 -0.7263 -1.1289
  831MOL0     H14647  11.086   4.799  11.162  1.2785 -1.5059  1.1924
  831MOL0     H14648  11.237   4.722  11.315  1.6937 -0.0174 -1.3386
  831MOL0     H14649  11.257   4.880  11.395 -0.4575 -0.0736 -0.1298
  831MOL0     H14650  11.318   4.796  11.110 -0.1379 -0.8499 -0.3103
  831MOL0     H14651  11.347   4.963  11.160 -0.6836  0.0387 -1.9410
  831MOL0     H14652  11.551   4.853  11.153 -0.2897  0.8679  0.1988
  831MOL0     H14653  11.504   4.714  11.257  2.9485  0.1215  2.7465
  831MOL0     H14654  11.478   4.886  11.443  2.4956  4.2884  1.7928
  831MOL0     H14655  11.549   5.002  11.349 -0.7825  0.0691  0.0554
  831MOL0     H14656  11.700   4.740  11.401 -2.7058 -0.6027 -0.5088
  831MOL0     H14657  11.715   4.892  11.490 -2.4163  0.7829  0.8886
  831MOL0     H14658  10.801   5.282  11.205  2.4901 -0.6993 -1.4562
  831MOL0     H14659  10.625   5.367  11.050 -3.4179  1.3220  2.2090
  831MOL0     H14660  10.352   5.449  10.878 -1.0446  2.2754 -2.7096
  831MOL0     H14661  10.220   5.594  10.819  2.2614 -1.3835  0.3003
  831MOL0     H14662   7.991   5.553  10.838  4.7711 -3.4127  3.7988
  831MOL0     H14663   7.782   5.451  10.938 -0.6178  1.2175 -0.7781
  831MOL0     H14664   7.485   5.333  11.178  1.1478  0.4506 -0.1790
  831MOL0     H14665   7.296   5.242  11.342  0.6935  0.1938 -0.9667
  831MOL0     H14666   7.389   5.225  11.776  2.2155  2.4461 -0.1826
  831MOL0     H14667   7.285   5.364  11.749  0.1632 -0.9498  2.3328
  831MOL0     H14668   7.155   5.096  11.734  0.6524 -0.6401 -0.7768
  831MOL0     H14669   7.093   5.260  11.753  0.4067  1.2415 -0.2276
  831MOL0     H14670   7.246   5.093  11.964 -3.2668 -3.0609 -0.0824
  831MOL0     H14671   7.209   5.273  11.982  2.8255  0.1463 -2.2089
  831MOL0     H14672   7.010   5.047  11.985 -0.1324 -0.7125  0.3692
  831MOL0     H14673   6.964   5.217  11.974  2.2338  2.9168 -0.1153
  831MOL0     H14674   7.106   5.229  12.367 -0.7091  0.5979  0.8577
  831MOL0     H14675   7.532   5.345  11.678  0.2826 -3.7105  0.3024
  831MOL0     H14676   7.808   5.521  11.529  1.4234  0.1198  1.9158
  831MOL0     H14677   7.748   5.419  11.663  1.7387  2.9752  0.0115
  831MOL0     H14678   7.848   5.363  11.526 -0.7235 -0.7429 -0.9827
  832MOL0     O14679   6.371   9.948   6.768 -0.6727  0.1208  1.6506
  832MOL0     C14680   6.260   9.974   6.726  0.7569 -1.1926 -0.0548
  832MOL0     O14681   6.222  10.001   6.599  0.0185 -0.5557 -0.4381
  832MOL0     C14682   6.319   9.987   6.502 -0.2252  0.1853 -0.0581
  832MOL0     C14683   6.421  10.075   6.498  0.5347 -0.1200 -0.4447
  832MOL0     C14684   6.509  10.078   6.392 -0.5062  0.1260 -0.5345
  832MOL0     C14685   6.500   9.973   6.292 -0.7117  0.1360  0.0487
  832MOL0     O14686   6.603   9.968   6.201 -0.1070 -0.6360  0.7592
  832MOL0     C14687   6.586   9.886   6.087 -0.1579 -1.3198  0.3107
  832MOL0     C14688   6.696   9.947   5.983 -0.6344 -0.0597 -0.6406
  832MOL0     C14689   6.841   9.897   6.006 -0.3816  0.2840 -0.2544
  832MOL0     C14690   6.958   9.997   5.989 -1.0538  0.5887  0.1100
  832MOL0     C14691   7.090   9.939   6.045  0.2559  0.0577  1.0650
  832MOL0     C14692   7.203  10.046   6.051  0.5447 -0.1975  0.2914
  832MOL0     C14693   7.339   9.992   6.092 -0.7532  0.4768 -0.7115
  832MOL0     C14694   7.437  10.110   6.097 -0.9374  0.2672  0.1023
  832MOL0     N14695   7.572  10.057   6.107  0.0868 -0.6364 -0.6688
  832MOL0     C14696   7.629  10.009   6.219  0.7805 -0.5405 -0.1318
  832MOL0     C14697   7.755   9.974   6.193  0.0380 -0.0038  0.7445
  832MOL0     C14698   7.868   9.931   6.276  0.2995 -0.6581 -0.4276
  832MOL0     C14699   7.928  10.023   6.380  0.2073 -0.0304  0.2317
  832MOL0     C14700   8.029   9.953   6.480  0.3629  0.3467  0.5472
  832MOL0     C14701   8.061  10.051   6.586  0.8084 -0.1923 -0.0562
  832MOL0     O14702   8.114  10.176   6.539  0.4317 -0.2296  1.0107
  832MOL0     C14703   8.244  10.195   6.492 -0.0231 -0.5886  0.2514
  832MOL0     C14704   8.331  10.097   6.510 -0.5225 -0.0965 -0.2260
  832MOL0     C14705   8.459  10.109   6.464  0.6675  0.0696  0.5967
  832MOL0     C14706   8.535   9.972   6.467  0.0642  1.0318 -0.3481
  832MOL0     C14707   8.506  10.225   6.397  0.1151  0.1302 -0.0950
  832MOL0     C14708   8.648  10.253   6.347  0.1252 -1.1626  1.3533
  832MOL0     O14709   8.745  10.159   6.365 -0.1476 -0.2379  1.0452
  832MOL0     C14710   8.876  10.155   6.314  0.5932  0.3204 -0.0606
  832MOL0     C14711   8.943  10.032   6.332  0.1688 -0.2713 -0.2203
  832MOL0     C14712   9.075  10.022   6.281 -1.1710  0.2407 -0.4378
  832MOL0     C14713   9.137  10.132   6.226  0.9111  0.0804  0.0561
  832MOL0     O14714   9.269  10.128   6.190 -0.1032 -1.1834 -0.8731
  832MOL0     C14715   9.361  10.102   6.297 -0.4632 -0.4033 -0.3188
  832MOL0     C14716   9.494  10.059   6.232  0.1257  0.3553 -0.5160
  832MOL0     C14717   9.490   9.917   6.184 -0.0279 -0.5424  0.7641
  832MOL0     C14718   9.597   9.888   6.084  0.3248 -0.3907  0.3510
  832MOL0     C14719   9.601   9.740   6.041 -0.1393 -0.3948 -0.0204
  832MOL0     C14720   9.693   9.714   5.928  0.0483  0.3066  0.7473
  832MOL0     C14721   9.657   9.582   5.855  0.0775 -0.1807  0.7412
  832MOL0     C14722   9.532   9.598   5.764  0.5004 -0.0598  0.9078
  832MOL0    Cl14723   9.544   9.459   5.646  0.1411  0.1969 -0.3549
  832MOL0     C14724   9.066  10.249   6.205  0.4969  0.6726 -0.6730
  832MOL0     C14725   8.933  10.262   6.246 -0.0613 -0.7431 -0.3093
  832MOL0     O14726   8.661  10.358   6.282  0.2450  0.0506 -0.0160
  832MOL0     C14727   8.417  10.337   6.399 -0.3308  0.3323  0.5739
  832MOL0     C14728   8.289  10.319   6.447 -0.5068 -0.0120  0.8162
  832MOL0     N14729   7.775  10.019   6.059 -0.6528  0.2978 -0.1112
  832MOL0     N14730   7.664  10.061   6.005  0.0887  0.6221  0.4031
  832MOL0     C14731   6.392   9.887   6.298 -0.6938  0.0580 -0.1059
  832MOL0     C14732   6.300   9.899   6.391  0.5453  0.0344 -0.9180
  832MOL0     C14733   6.153   9.970   6.839 -0.7081  0.3466  1.0786
  832MOL0     C14734   6.012   9.969   6.792  0.0015 -0.8061  0.4286
  832MOL0     C14735   5.914   9.949   6.881  0.1882 -0.0631  0.0347
  832MOL0     C14736   5.939   9.943   7.015 -0.1139 -0.2245 -0.0507
  832MOL0     O14737   5.835   9.914   7.100 -0.2076 -0.1899  0.4347
  832MOL0     C14738   5.814   9.773   7.116  0.2612  0.6929 -0.1968
  832MOL0     C14739   5.858   9.728   7.259 -0.0018  0.3855 -0.5410
  832MOL0     C14740   5.773   9.608   7.327  1.3631  0.2327  0.0965
  832MOL0     C14741   5.792   9.474   7.263 -0.0709  1.4529 -0.3728
  832MOL0     C14742   5.926   9.428   7.246  0.3301 -0.7097 -0.2067
  832MOL0     C14743   6.044   9.393   7.233 -0.2288  0.2932 -0.1488
  832MOL0     C14744   6.071   9.955   7.068  0.0956  0.8580  0.7253
  832MOL0     C14745   6.190   9.956   6.982  0.5225  0.0502  0.2000
  832MOL0     C14746   6.323   9.952   7.060  0.0924  0.2381 -0.2626
  832MOL0     H14747   6.437  10.147   6.578  1.3057 -1.4131  0.6119
  832MOL0     H14748   6.573  10.165   6.386 -2.0280  1.4305  0.8786
  832MOL0     H14749   6.488   9.897   6.039  0.5136  1.5255 -0.5934
  832MOL0     H14750   6.614   9.782   6.104  3.0626 -0.9474 -1.8284
  832MOL0     H14751   6.670   9.912   5.883 -1.2923 -0.0569 -0.4712
  832MOL0     H14752   6.706  10.056   5.985  1.9767 -0.2290 -0.2533
  832MOL0     H14753   6.845   9.851   6.105 -1.6867  1.8671  0.5703
  832MOL0     H14754   6.860   9.814   5.937 -3.4567 -0.3931 -0.4358
  832MOL0     H14755   6.978  10.025   5.886 -1.5194 -0.8873 -0.4066
  832MOL0     H14756   6.926  10.088   6.041 -2.1460 -0.5271  1.4467
  832MOL0     H14757   7.125   9.863   5.975 -3.7180 -0.7596 -0.2541
  832MOL0     H14758   7.074   9.885   6.139  2.7457 -1.3100  0.7804
  832MOL0     H14759   7.216  10.104   5.959  2.9159 -0.2702  0.5201
  832MOL0     H14760   7.179  10.114   6.133  2.4520 -2.2382  2.7116
  832MOL0     H14761   7.384   9.913   6.030  1.2144 -2.0784  3.5484
  832MOL0     H14762   7.327   9.947   6.191  2.1578  1.4005  0.1447
  832MOL0     H14763   7.423  10.182   6.015 -3.8025 -0.9904 -0.6424
  832MOL0     H14764   7.416  10.162   6.191  0.9701  1.2068  0.0650
  832MOL0     H14765   7.584  10.004   6.317 -0.0121  2.5371 -0.2414
  832MOL0     H14766   7.940   9.913   6.196 -0.5648 -3.4203 -0.6966
  832MOL0     H14767   7.850   9.833   6.323 -2.6479  0.8036  1.8050
  832MOL0     H14768   7.978  10.106   6.329 -0.0191  1.8669  2.8687
  832MOL0     H14769   7.852  10.076   6.438 -1.8344 -2.3577 -0.1180
  832MOL0     H14770   7.988   9.861   6.525  1.8112 -0.5392  0.1093
  832MOL0     H14771   8.110   9.915   6.418 -3.6364 -4.1086 -2.6678
  832MOL0     H14772   7.969  10.071   6.642  2.0279  2.3546  1.2181
  832MOL0     H14773   8.128  10.009   6.661 -0.8927  2.4224  3.1754
  832MOL0     H14774   8.300  10.005   6.559  2.3108 -1.8301 -1.4582
  832MOL0     H14775   8.600   9.966   6.555 -0.4448  1.2124  0.0496
  832MOL0     H14776   8.594   9.960   6.376  2.2319 -3.6507  1.3604
  832MOL0     H14777   8.463   9.890   6.475  1.8717 -0.4702  1.7985
  832MOL0     H14778   8.889   9.946   6.368  0.2874  0.6279  2.3035
  832MOL0     H14779   9.127   9.931   6.305 -2.0250  0.9212  5.6037
  832MOL0     H14780   9.373  10.193   6.357 -2.4638  0.5718 -1.3180
  832MOL0     H14781   9.327  10.015   6.355  1.9722 -0.7983  0.6416
  832MOL0     H14782   9.507  10.127   6.147 -2.2685 -0.2230 -1.4192
  832MOL0     H14783   9.577  10.075   6.301 -1.3400  0.5380  1.2735
  832MOL0     H14784   9.395   9.902   6.132  0.2082 -2.8515  0.8688
  832MOL0     H14785   9.481   9.839   6.261 -1.5145 -1.8132 -0.6277
  832MOL0     H14786   9.700   9.908   6.116  0.4655  1.1224 -0.9430
  832MOL0     H14787   9.560   9.949   6.001  1.9233  0.1847  0.0264
  832MOL0     H14788   9.627   9.678   6.127 -1.7545  0.9982  1.5445
  832MOL0     H14789   9.497   9.711   6.020 -0.8191  2.2182 -0.6953
  832MOL0     H14790   9.798   9.708   5.957  0.8985 -0.8860 -2.2012
  832MOL0     H14791   9.694   9.801   5.862  0.0671  1.1023  1.7892
  832MOL0     H14792   9.639   9.505   5.932  3.1847 -3.2703 -1.3165
  832MOL0     H14793   9.741   9.546   5.795 -0.4501 -0.3766  0.1004
  832MOL0     H14794   9.533   9.695   5.715 -2.1844  0.4589  1.7310
  832MOL0     H14795   9.438   9.590   5.819 -0.0759  0.7190  0.0701
  832MOL0     H14796   9.118  10.340   6.175  0.9705  0.2896 -1.0508
  832MOL0     H14797   8.886  10.358   6.227  4.8114  1.7439 -1.5053
  832MOL0     H14798   8.447  10.427   6.346  1.0252 -0.3921  0.0783
  832MOL0     H14799   8.214  10.398   6.449 -1.6358 -0.9722  4.3252
  832MOL0     H14800   6.383   9.794   6.243 -2.6440  0.8173 -1.1644
  832MOL0     H14801   6.210   9.839   6.379 -0.2449  0.8616  0.5347
  832MOL0     H14802   5.990  10.005   6.692  3.7737 -1.4622 -0.8311
  832MOL0     H14803   5.814   9.935   6.841 -0.1166  0.2909  0.6644
  832MOL0     H14804   5.707   9.755   7.107 -0.2886  2.3988  2.1142
  832MOL0     H14805   5.855   9.713   7.034 -1.1162 -1.8553  0.8530
  832MOL0     H14806   5.849   9.825   7.307  1.1842  2.0064 -3.3306
  832MOL0     H14807   5.964   9.702   7.246  0.4326  1.8658 -0.1875
  832MOL0     H14808   5.791   9.601   7.435 -2.1139 -1.3977  0.7071
  832MOL0     H14809   5.671   9.642   7.306  2.1485  2.3050 -0.6785
  832MOL0     H14810   5.745   9.477   7.165 -0.6383 -0.9279 -0.2093
  832MOL0     H14811   5.733   9.400   7.317  0.9624  1.7520  1.2332
  832MOL0     H14812   6.149   9.383   7.215  0.0693 -2.0003  2.2806
  832MOL0     H14813   6.091   9.951   7.175  1.4233  1.4932  0.5180
  832MOL0     H14814   6.318   9.954   7.169 -0.1278  0.4125 -0.2766
  832MOL0     H14815   6.370   9.858   7.032  2.8615  1.2225  0.7347
  832MOL0     H14816   6.384  10.039   7.036  0.0107  0.0321 -1.2716
  833MOL0     O14817   1.618   2.271   6.834  0.2228  0.1264 -0.0634
  833MOL0     C14818   1.617   2.160   6.783  0.6536 -0.3896  0.5663
  833MOL0     O14819   1.593   2.045   6.839  0.4028  0.0058 -0.0140
  833MOL0     C14820   1.601   2.039   6.977 -0.4417  0.2844 -0.0814
  833MOL0     C14821   1.518   2.109   7.072 -0.0408  0.2146  0.8156
  833MOL0     C14822   1.523   2.074   7.206  0.1191 -0.0976 -0.3422
  833MOL0     C14823   1.615   1.995   7.252  0.1283 -0.9395 -0.4196
  833MOL0     O14824   1.627   1.989   7.392 -0.3986  0.2483 -0.1469
  833MOL0     C14825   1.682   1.881   7.468  0.1480 -0.6760  0.7756
  833MOL0     C14826   1.692   1.918   7.606 -0.5793 -0.5099 -0.8579
  833MOL0     C14827   1.790   2.041   7.645  0.7444 -0.6112 -0.9186
  833MOL0     C14828   1.929   2.024   7.591  0.0373 -0.4444 -0.1722
  833MOL0     C14829   2.026   2.129   7.643  0.3176 -0.9177 -0.3823
  833MOL0     C14830   2.162   2.131   7.573 -0.0283  0.5122  0.2210
  833MOL0     C14831   2.234   2.262   7.606  0.3742  0.3634 -1.4120
  833MOL0     C14832   2.369   2.266   7.528  0.1844 -0.8155  0.8537
  833MOL0     N14833   2.451   2.163   7.582 -0.3274  0.8389  0.1031
  833MOL0     C14834   2.513   2.169   7.702  0.1261  0.3565  0.6039
  833MOL0     C14835   2.579   2.048   7.703  0.0484  0.0994 -0.5807
  833MOL0     C14836   2.652   1.991   7.824  0.2285  0.0735 -0.7723
  833MOL0     C14837   2.640   1.834   7.844 -0.6856 -0.9282 -0.5440
  833MOL0     C14838   2.667   1.814   7.991 -0.2435  0.4790  0.3013
  833MOL0     C14839   2.640   1.667   8.026  1.3356  0.1886 -0.2760
  833MOL0     O14840   2.505   1.633   7.980 -0.3190 -0.9619 -1.1441
  833MOL0     C14841   2.406   1.663   8.070  0.5100 -0.1377  0.5528
  833MOL0     C14842   2.331   1.777   8.045  0.8911 -0.4561  0.2263
  833MOL0     C14843   2.235   1.817   8.139  0.1723  1.1822 -1.0453
  833MOL0     C14844   2.162   1.950   8.122  0.5552  0.8097  0.2599
  833MOL0     C14845   2.190   1.733   8.245 -0.0828  0.8913 -0.8808
  833MOL0     C14846   2.111   1.774   8.365 -0.0392  0.5423 -0.1271
  833MOL0     O14847   2.159   1.879   8.430  0.4783  0.5202  0.4099
  833MOL0     C14848   2.089   1.928   8.541  0.8070  0.2317 -0.7643
  833MOL0     C14849   2.029   2.052   8.539 -0.4461 -0.6515 -0.1954
  833MOL0     C14850   1.963   2.101   8.649 -0.6298 -0.8782  0.1148
  833MOL0     C14851   1.962   2.046   8.776 -0.0650  0.4196  0.2456
  833MOL0     O14852   1.892   2.112   8.873  0.5102 -1.0625  1.0231
  833MOL0     C14853   1.916   2.062   9.003 -0.8432 -0.7512 -0.4591
  833MOL0     C14854   1.792   1.987   9.068 -0.4519  1.0350  0.7047
  833MOL0     C14855   1.659   2.070   9.055  0.6173 -0.5775  0.1268
  833MOL0     C14856   1.592   2.037   8.927  0.9641 -0.1867  1.6253
  833MOL0     C14857   1.456   2.103   8.907 -0.5071  0.3882 -0.0586
  833MOL0     C14858   1.340   2.013   8.948 -0.7991  0.5376 -0.7811
  833MOL0     C14859   1.208   2.074   8.908  0.2214 -0.5941  0.6287
  833MOL0     C14860   1.110   2.043   9.020 -0.2613  0.2370  0.5878
  833MOL0    Cl14861   0.948   2.065   8.976 -0.0867  0.0904  0.1842
  833MOL0     C14862   2.023   1.919   8.775 -0.2952  0.1356 -0.7709
  833MOL0     C14863   2.079   1.858   8.662  0.2733  0.0512 -0.3360
  833MOL0     O14864   2.011   1.702   8.397  0.0013 -0.2852  0.1221
  833MOL0     C14865   2.258   1.611   8.258 -0.4329 -0.5675 -0.2400
  833MOL0     C14866   2.369   1.579   8.176 -0.4819 -0.7437  0.4803
  833MOL0     N14867   2.538   1.973   7.591  0.1136 -0.5554 -0.1284
  833MOL0     N14868   2.474   2.044   7.518  0.0341 -0.0271  0.2617
  833MOL0     C14869   1.701   1.933   7.163  0.0317  0.3971  0.0316
  833MOL0     C14870   1.696   1.946   7.021 -0.0814 -0.9935 -0.2957
  833MOL0     C14871   1.609   2.168   6.639 -0.1129 -0.4159  0.6784
  833MOL0     C14872   1.576   2.049   6.567  0.0095 -0.0598 -1.0779
  833MOL0     C14873   1.560   2.035   6.434  1.4673  0.4536 -0.7791
  833MOL0     C14874   1.574   2.153   6.357  0.1114  0.1115  0.0383
  833MOL0     O14875   1.540   2.159   6.220 -0.0634 -0.1325 -0.1213
  833MOL0     C14876   1.516   2.036   6.152 -0.5386 -0.9111  0.1517
  833MOL0     C14877   1.469   2.067   6.019 -0.5838 -0.7794  0.6686
  833MOL0     C14878   1.534   2.178   5.929  0.1927  1.1020 -0.3953
  833MOL0     C14879   1.494   2.176   5.782  0.6986  0.1806 -0.0887
  833MOL0     C14880   1.539   2.044   5.731 -0.6868  0.4064 -0.6441
  833MOL0     C14881   1.583   1.937   5.690  0.0147 -0.3486  0.4165
  833MOL0     C14882   1.602   2.270   6.420 -0.0716 -0.4641  0.2586
  833MOL0     C14883   1.611   2.284   6.558  0.5145 -1.2817 -0.4779
  833MOL0     C14884   1.630   2.424   6.604  0.2309  0.2643 -0.8575
  833MOL0     H14885   1.456   2.187   7.029 -2.6544 -2.0827  0.1081
  833MOL0     H14886   1.455   2.122   7.276  0.1022 -1.0979  0.3348
  833MOL0     H14887   1.781   1.863   7.426 -0.3747  2.5831 -2.3569
  833MOL0     H14888   1.620   1.791   7.457  1.4855 -1.4796 -0.6659
  833MOL0     H14889   1.586   1.933   7.629 -1.3110 -2.0697 -2.8507
  833MOL0     H14890   1.718   1.829   7.665 -1.1625  0.2249  0.5566
  833MOL0     H14891   1.752   2.138   7.612 -0.2758  0.6806  3.4926
  833MOL0     H14892   1.780   2.048   7.753 -3.6417 -1.4802 -1.0822
  833MOL0     H14893   1.974   1.924   7.592 -0.0389 -0.5280 -1.9353
  833MOL0     H14894   1.906   2.037   7.485 -0.1587  0.8972  0.0067
  833MOL0     H14895   2.042   2.115   7.750 -0.4322 -0.2849 -0.1828
  833MOL0     H14896   1.970   2.222   7.630 -1.1225 -0.9107  4.0843
  833MOL0     H14897   2.207   2.039   7.612 -1.3232  0.8918  2.8729
  833MOL0     H14898   2.154   2.131   7.464  0.8082 -0.5203  0.1362
  833MOL0     H14899   2.255   2.266   7.713 -1.1347  0.6066 -1.0991
  833MOL0     H14900   2.169   2.347   7.583  1.2582  1.9045  1.4398
  833MOL0     H14901   2.349   2.245   7.422  1.6063 -0.5645  0.5119
  833MOL0     H14902   2.422   2.362   7.533 -0.2868 -0.6111  2.4339
  833MOL0     H14903   2.523   2.255   7.767  2.4242  0.6981 -0.1154
  833MOL0     H14904   2.610   2.037   7.913  0.9434 -3.0305  1.3174
  833MOL0     H14905   2.759   2.013   7.818  0.4536 -0.9112 -0.4809
  833MOL0     H14906   2.543   1.800   7.807 -1.6532  3.1364 -2.2570
  833MOL0     H14907   2.724   1.798   7.783  0.4405 -1.1782  1.0802
  833MOL0     H14908   2.771   1.839   8.010  0.2020 -0.8991 -0.1948
  833MOL0     H14909   2.609   1.880   8.057 -1.8795  0.1585 -0.7446
  833MOL0     H14910   2.713   1.592   7.996 -1.0296 -2.1319 -0.5577
  833MOL0     H14911   2.641   1.654   8.135  3.5173  0.9708 -0.1476
  833MOL0     H14912   2.341   1.846   7.963  0.3040  0.5974  1.0194
  833MOL0     H14913   2.229   2.032   8.148 -0.7228  1.5235  1.3826
  833MOL0     H14914   2.066   1.957   8.173 -0.8200 -0.1221 -2.0653
  833MOL0     H14915   2.142   1.956   8.015  4.3115  0.9999 -0.5732
  833MOL0     H14916   2.042   2.120   8.455 -0.7580  1.1999  1.2173
  833MOL0     H14917   1.915   2.197   8.636  0.1766 -0.6749 -1.5900
  833MOL0     H14918   1.996   1.987   9.007 -0.3286 -0.4629 -3.3753
  833MOL0     H14919   1.944   2.139   9.076  0.6788 -1.2445 -0.4870
  833MOL0     H14920   1.778   1.886   9.030  4.0218  0.0077  1.2844
  833MOL0     H14921   1.802   1.982   9.177 -1.7721 -1.5544  0.7842
  833MOL0     H14922   1.662   2.178   9.037  1.7068 -1.1308 -4.1779
  833MOL0     H14923   1.576   2.046   9.122 -0.2651 -1.8470 -1.3603
  833MOL0     H14924   1.587   1.928   8.920  0.8737 -0.1866  1.6945
  833MOL0     H14925   1.666   2.058   8.849 -0.2670  1.9832  0.9621
  833MOL0     H14926   1.445   2.198   8.959  0.5454 -1.5437  4.1239
  833MOL0     H14927   1.451   2.105   8.797 -2.2325 -4.6708 -0.3609
  833MOL0     H14928   1.351   1.993   9.055 -0.5588  2.5122 -0.4086
  833MOL0     H14929   1.341   1.913   8.903  0.6939  0.6143 -0.9807
  833MOL0     H14930   1.168   2.025   8.819  0.3275 -2.9085  1.7858
  833MOL0     H14931   1.211   2.180   8.879  2.2966 -0.8321 -0.2914
  833MOL0     H14932   1.135   2.110   9.103  1.9986  1.3346 -0.8677
  833MOL0     H14933   1.130   1.939   9.047  1.9731  0.4137 -0.1659
  833MOL0     H14934   2.019   1.858   8.865 -0.7468  0.7951 -0.3331
  833MOL0     H14935   2.130   1.762   8.668 -1.2505 -0.9223 -2.1628
  833MOL0     H14936   2.230   1.552   8.344  0.0324 -0.1971  0.1678
  833MOL0     H14937   2.419   1.485   8.195  2.0978  0.8890  2.5170
  833MOL0     H14938   1.790   1.883   7.198 -0.7475 -1.6137 -0.7171
  833MOL0     H14939   1.766   1.886   6.963 -0.7599  0.4453 -2.7223
  833MOL0     H14940   1.570   1.958   6.626 -0.7982  0.8790  0.3333
  833MOL0     H14941   1.538   1.938   6.390  5.6961 -0.9636 -0.2052
  833MOL0     H14942   1.607   1.976   6.139  1.6919  2.3491 -0.6419
  833MOL0     H14943   1.437   1.981   6.204 -2.1169  0.9270 -0.2171
  833MOL0     H14944   1.365   2.102   6.031 -0.5227 -0.9450  1.8796
  833MOL0     H14945   1.449   1.973   5.967 -1.8646  0.4247 -1.1401
  833MOL0     H14946   1.496   2.273   5.968 -0.4904 -0.1188  2.1247
  833MOL0     H14947   1.643   2.173   5.930  0.3087  2.9017 -0.4435
  833MOL0     H14948   1.545   2.264   5.741  0.0432  0.8435  0.4831
  833MOL0     H14949   1.386   2.192   5.774 -0.2183 -1.3535  5.2535
  833MOL0     H14950   1.627   1.844   5.660  0.8791 -0.0464  0.7178
  833MOL0     H14951   1.593   2.359   6.358 -0.8818 -0.5250  0.2856
  833MOL0     H14952   1.552   2.459   6.672  0.8507  0.7745 -0.3881
  833MOL0     H14953   1.728   2.440   6.651 -0.2288 -1.6378  0.8819
  833MOL0     H14954   1.619   2.494   6.521  0.1857  1.7513  0.3558
  834MOL0     O14955   5.219   8.885   9.361 -0.3374  0.3190 -0.6796
  834MOL0     C14956   5.323   8.820   9.380  0.2157  0.2784  0.1666
  834MOL0     O14957   5.371   8.792   9.499 -0.7107  0.1530  0.3262
  834MOL0     C14958   5.294   8.829   9.612 -0.3468  0.0311 -0.6548
  834MOL0     C14959   5.222   8.735   9.687  0.7774 -0.9436  1.0607
  834MOL0     C14960   5.144   8.775   9.792  0.3330 -0.1347 -0.0397
  834MOL0     C14961   5.146   8.907   9.839 -0.3185 -0.1173 -1.1001
  834MOL0     O14962   5.064   8.952   9.937 -0.9614 -0.5430  0.0688
  834MOL0     C14963   5.006   9.083   9.919 -0.1433  0.7577  0.8712
  834MOL0     C14964   4.916   9.120  10.039  0.3765  0.6597  0.0458
  834MOL0     C14965   4.992   9.116  10.172 -0.6979 -0.1626 -0.1219
  834MOL0     C14966   4.888   9.128  10.285  1.0236  0.7311 -0.2642
  834MOL0     C14967   4.948   9.134  10.430 -0.6353  0.3529  0.9592
  834MOL0     C14968   5.021   9.267  10.464  0.5207 -0.5792 -0.7538
  834MOL0     C14969   5.072   9.274  10.611  0.2436 -0.1600  0.8123
  834MOL0     C14970   5.121   9.416  10.649  0.4641  0.7862 -0.6710
  834MOL0     N14971   5.240   9.468  10.576  0.9957  0.0371 -0.6986
  834MOL0     C14972   5.239   9.576  10.486 -0.4844 -0.3860 -0.4347
  834MOL0     C14973   5.374   9.595  10.453 -0.5060  0.3651  0.8810
  834MOL0     C14974   5.439   9.697  10.366  0.2810  0.2498  0.1990
  834MOL0     C14975   5.518   9.779  10.463  1.5346 -0.2698 -0.4414
  834MOL0     C14976   5.581   9.897  10.383  0.6888  0.5252 -0.4408
  834MOL0     C14977   5.699   9.871  10.300  0.1520  0.4230  1.3242
  834MOL0     O14978   5.789   9.790  10.377 -0.9825 -0.5092 -0.0564
  834MOL0     C14979   5.921   9.803  10.357  0.3945  0.0288  0.5430
  834MOL0     C14980   5.987   9.876  10.257 -1.1036 -0.2147  0.2606
  834MOL0     C14981   6.138   9.881  10.251  0.8022 -0.0613 -0.0243
  834MOL0     C14982   6.185   9.939  10.124 -1.1479 -0.0626  0.4672
  834MOL0     C14983   6.216   9.824  10.348 -0.4070  0.1365  0.9698
  834MOL0     C14984   6.370   9.816  10.361 -0.3977 -0.5934  0.4907
  834MOL0     O14985   6.438   9.855  10.249 -0.0447 -0.2535 -0.1824
  834MOL0     C14986   6.575   9.862  10.255  0.0455  0.7947  0.5885
  834MOL0     C14987   6.653   9.793  10.166 -0.1739 -0.1078  0.1506
  834MOL0     C14988   6.790   9.796  10.155 -0.2277  0.6074  0.5446
  834MOL0     C14989   6.857   9.868  10.258 -0.9553  0.3181 -0.2589
  834MOL0     O14990   6.993   9.849  10.270  0.3274 -0.4661  0.0792
  834MOL0     C14991   7.071   9.966  10.229  0.3485  0.2092  0.7666
  834MOL0     C14992   7.226   9.969  10.249  0.0667 -0.2263 -0.1626
  834MOL0     C14993   7.304   9.855  10.184  0.0183 -0.1264 -0.6987
  834MOL0     C14994   7.456   9.888  10.192 -0.5569 -1.4328  0.1788
  834MOL0     C14995   7.538   9.770  10.138 -0.1965 -0.4559 -0.5744
  834MOL0     C14996   7.689   9.795  10.124 -0.2209 -0.2003 -0.8353
  834MOL0     C14997   7.772   9.669  10.083 -0.1970 -0.0199  0.4048
  834MOL0     C14998   7.833   9.591  10.202  1.0912  0.7865 -0.4470
  834MOL0    Cl14999   7.978   9.658  10.267 -0.0424  0.0364  0.1555
  834MOL0     C15000   6.785   9.949  10.348 -0.2721  0.5663  0.0714
  834MOL0     C15001   6.643   9.940  10.349  0.5909 -0.4417 -0.0951
  834MOL0     O15002   6.418   9.789  10.472 -0.7156  0.5593 -0.7192
  834MOL0     C15003   6.137   9.755  10.448 -0.3256  0.3878  0.2152
  834MOL0     C15004   6.001   9.739  10.450 -0.2660 -0.6106  0.5939
  834MOL0     N15005   5.440   9.494  10.522  0.2312  0.1734  0.2810
  834MOL0     N15006   5.365   9.430  10.607 -0.2260  0.8037 -0.1034
  834MOL0     C15007   5.235   8.996   9.776  0.7939 -0.3615 -0.5341
  834MOL0     C15008   5.309   8.956   9.666 -0.1096 -0.1860 -0.8417
  834MOL0     C15009   5.406   8.764   9.272  1.1120  0.5723  0.4045
  834MOL0     C15010   5.535   8.724   9.303  0.2063  0.5110 -0.2773
  834MOL0     C15011   5.610   8.669   9.195 -0.3984  0.1253  0.0929
  834MOL0     C15012   5.578   8.661   9.061  1.1965 -0.7599 -0.9355
  834MOL0     O15013   5.668   8.604   8.971  0.4155 -0.2300 -0.8269
  834MOL0     C15014   5.674   8.660   8.840 -0.5282 -0.0074  0.0868
  834MOL0     C15015   5.813   8.609   8.787 -0.1131  0.4192  0.0536
  834MOL0     C15016   5.796   8.464   8.757  0.3886 -0.3012 -0.3770
  834MOL0     C15017   5.915   8.401   8.688  0.1588 -0.3692  0.0213
  834MOL0     C15018   5.879   8.272   8.622  1.1579  0.8356  0.9530
  834MOL0     C15019   5.844   8.167   8.568  0.1281  0.3956 -0.4409
  834MOL0     C15020   5.446   8.707   9.028 -0.6786 -0.4071 -0.3038
  834MOL0     C15021   5.360   8.751   9.139 -0.3690  0.5242 -0.3798
  834MOL0     C15022   5.221   8.789   9.095 -0.6496  0.2087  0.5970
  834MOL0     H15023   5.207   8.640   9.636  0.5112 -0.6703  0.6163
  834MOL0     H15024   5.068   8.707   9.830 -1.7236  2.3078  0.4860
  834MOL0     H15025   4.946   9.086   9.828  2.9852  0.7152 -1.3641
  834MOL0     H15026   5.080   9.164   9.907 -1.8965  2.0748 -2.2627
  834MOL0     H15027   4.852   9.208  10.027 -3.7910 -1.8717  1.6053
  834MOL0     H15028   4.841   9.041  10.042 -1.8693  2.6484 -0.6638
  834MOL0     H15029   5.050   9.025  10.186 -0.1811  0.4500  2.1007
  834MOL0     H15030   5.069   9.194  10.181 -0.2323 -0.6881  0.5624
  834MOL0     H15031   4.821   9.212  10.268  1.2035  1.1687  1.0765
  834MOL0     H15032   4.822   9.040  10.288  3.5191 -1.2499  1.2483
  834MOL0     H15033   5.025   9.056  10.432 -0.1350  0.7792 -0.6307
  834MOL0     H15034   4.877   9.110  10.510 -3.0931 -2.1610 -1.7201
  834MOL0     H15035   5.111   9.271  10.401 -0.9137 -0.8336 -2.9258
  834MOL0     H15036   4.941   9.339  10.448  1.2863  0.0501 -1.9152
  834MOL0     H15037   5.148   9.195  10.620 -1.1393 -1.8577 -1.3154
  834MOL0     H15038   4.991   9.243  10.678  0.0011 -1.1342  0.1017
  834MOL0     H15039   5.034   9.481  10.638 -0.3842 -0.5328 -2.1478
  834MOL0     H15040   5.150   9.412  10.754 -1.6016  0.0406 -0.0693
  834MOL0     H15041   5.156   9.631  10.443 -1.4287 -0.7264  0.9037
  834MOL0     H15042   5.357   9.759  10.326 -0.3742  1.2483  2.8868
  834MOL0     H15043   5.502   9.651  10.290  1.0053  0.7252  0.5011
  834MOL0     H15044   5.439   9.812  10.531 -1.8815 -5.0236 -1.6026
  834MOL0     H15045   5.601   9.727  10.512  1.1092 -1.4904 -0.9797
  834MOL0     H15046   5.504   9.940  10.318 -2.5691 -2.5734  1.0253
  834MOL0     H15047   5.584   9.982  10.451  0.5092  1.6633 -1.7970
  834MOL0     H15048   5.663   9.820  10.210 -0.8932 -0.5438  2.2709
  834MOL0     H15049   5.743   9.968  10.277  0.1537  0.0530 -0.4029
  834MOL0     H15050   5.926   9.924  10.181 -0.6238  0.8722  0.5489
  834MOL0     H15051   6.102  10.000  10.086 -0.5601  0.5853  0.2031
  834MOL0     H15052   6.215   9.867  10.048  1.9785 -0.4034  1.8758
  834MOL0     H15053   6.282   9.989  10.126 -0.5091 -1.2947  1.4242
  834MOL0     H15054   6.593   9.744  10.090 -1.6807 -0.6572  1.6329
  834MOL0     H15055   6.852   9.741  10.086  1.2281 -1.1621  3.1120
  834MOL0     H15056   7.038   9.991  10.128  0.7456 -3.1441 -0.3372
  834MOL0     H15057   7.036  10.055  10.282 -0.5204 -0.6120  1.6098
  834MOL0     H15058   7.260  10.059  10.197 -2.2008  0.9863  0.3282
  834MOL0     H15059   7.239   9.968  10.358  1.8843 -3.3456 -0.2970
  834MOL0     H15060   7.283   9.855  10.077 -3.4013  1.7999 -0.1844
  834MOL0     H15061   7.280   9.759  10.229  2.7285 -1.6129 -2.1944
  834MOL0     H15062   7.497   9.915  10.290  3.3763  0.1664 -1.6576
  834MOL0     H15063   7.486   9.976  10.134  2.9212 -0.2479  3.3273
  834MOL0     H15064   7.530   9.685  10.207 -1.9719  1.6956  2.0495
  834MOL0     H15065   7.491   9.733  10.047 -1.6096  0.3706 -0.2119
  834MOL0     H15066   7.728   9.836  10.218  2.2992 -2.4061 -0.8132
  834MOL0     H15067   7.705   9.869  10.045  0.9866  0.1371 -0.3148
  834MOL0     H15068   7.854   9.694  10.016 -0.3834 -0.6902 -0.0874
  834MOL0     H15069   7.702   9.601  10.034  1.6700 -1.9516  0.2906
  834MOL0     H15070   7.851   9.486  10.180 -0.3157  0.4882 -0.2621
  834MOL0     H15071   7.755   9.592  10.278  0.9205 -2.2109 -0.4733
  834MOL0     H15072   6.855  10.002  10.411  4.8050 -2.3691 -2.3997
  834MOL0     H15073   6.586  10.013  10.406 -0.2621 -0.0115 -1.4372
  834MOL0     H15074   6.196   9.713  10.529  0.1667  2.2613  0.8726
  834MOL0     H15075   5.953   9.686  10.531 -1.2881  1.1984  1.2335
  834MOL0     H15076   5.253   9.097   9.813 -1.8833  1.0539 -2.6700
  834MOL0     H15077   5.367   9.031   9.613 -0.3173 -0.5110 -1.5370
  834MOL0     H15078   5.584   8.752   9.396  2.5433  1.8864 -1.8024
  834MOL0     H15079   5.710   8.635   9.224 -0.3735  1.5264  1.7623
  834MOL0     H15080   5.584   8.643   8.779 -0.0441 -3.6873  0.1363
  834MOL0     H15081   5.686   8.767   8.856  1.4294 -0.0163 -1.0474
  834MOL0     H15082   5.887   8.618   8.867  0.7980  0.1816 -0.7477
  834MOL0     H15083   5.856   8.661   8.701  1.6425  0.0001  0.6377
  834MOL0     H15084   5.763   8.411   8.846 -1.6377 -0.6880 -1.2945
  834MOL0     H15085   5.707   8.455   8.695  1.0694  0.2042 -1.4718
  834MOL0     H15086   5.983   8.371   8.769 -0.7965 -0.4776  0.7945
  834MOL0     H15087   5.971   8.467   8.620  0.9641 -2.6580 -1.6682
  834MOL0     H15088   5.833   8.079   8.508 -1.0200 -1.0020  1.7026
  834MOL0     H15089   5.417   8.707   8.923  0.1937 -2.3770 -0.5833
  834MOL0     H15090   5.215   8.888   9.049 -0.0325  0.4928  1.1077
  834MOL0     H15091   5.202   8.720   9.012 -1.2329  1.7396 -0.6068
  834MOL0     H15092   5.140   8.765   9.165 -1.0800 -2.4830 -0.6919
  835MOL0     O15093   2.145   9.167   8.047 -0.5932  0.3942 -0.6403
  835MOL0     C15094   2.073   9.254   7.985 -0.1136 -0.4626 -0.7515
  835MOL0     O15095   2.128   9.367   7.933  0.2248 -0.0667  0.3451
  835MOL0     C15096   2.262   9.405   7.939  0.2066  1.6604  0.1083
  835MOL0     C15097   2.298   9.471   7.828  0.4703 -1.0971 -0.9527
  835MOL0     C15098   2.435   9.508   7.816  0.2463  0.0269  0.5837
  835MOL0     C15099   2.526   9.495   7.920  0.1316  0.5544 -0.3531
  835MOL0     O15100   2.645   9.551   7.897  0.4340  0.2623 -0.1228
  835MOL0     C15101   2.749   9.531   7.999  0.1987 -0.6111  0.0489
  835MOL0     C15102   2.891   9.574   7.933  0.6502 -0.9404  1.0920
  835MOL0     C15103   2.888   9.715   7.862 -0.2786  0.2221  0.2114
  835MOL0     C15104   2.877   9.830   7.956 -0.3340  0.6838  0.6495
  835MOL0     C15105   2.975   9.842   8.074  0.8043  0.2051  0.0219
  835MOL0     C15106   2.953   9.967   8.151  0.8526 -0.1009 -0.5175
  835MOL0     C15107   2.956  10.098   8.070  0.7507  0.7401 -0.6098
  835MOL0     C15108   2.970  10.233   8.144  0.3360  0.0415 -0.0326
  835MOL0     N15109   3.100  10.250   8.201 -0.4139  0.2159 -0.0505
  835MOL0     C15110   3.114  10.313   8.323 -0.2853 -0.5503  1.0780
  835MOL0     C15111   3.236  10.288   8.369  0.4690 -0.3276  1.5715
  835MOL0     C15112   3.278  10.314   8.511 -0.2256  0.0835 -0.6716
  835MOL0     C15113   3.377  10.442   8.517 -0.0130 -0.2591  0.5339
  835MOL0     C15114   3.302  10.572   8.501  1.4327 -0.4064 -0.0631
  835MOL0     C15115   3.393  10.698   8.488 -0.0622 -0.4868 -0.3218
  835MOL0     O15116   3.467  10.732   8.607  0.7573 -0.1369  0.2230
  835MOL0     C15117   3.523  10.856   8.619  0.2904  1.3092 -0.2443
  835MOL0     C15118   3.462  10.963   8.681  0.3194  0.5079  0.0430
  835MOL0     C15119   3.522  11.090   8.683 -0.2316 -0.9700  0.1416
  835MOL0     C15120   3.449  11.200   8.769  0.2115 -0.3145 -0.2112
  835MOL0     C15121   3.655  11.110   8.631 -0.1121 -1.1488 -0.3597
  835MOL0     C15122   3.729  11.243   8.631 -0.4758 -0.1220 -0.4969
  835MOL0     O15123   3.847  11.237   8.573 -0.9516 -0.1663  0.9877
  835MOL0     C15124   3.922  11.350   8.573 -0.1186  0.0454 -0.4949
  835MOL0     C15125   4.000  11.386   8.685 -0.1624  0.2879 -0.0443
  835MOL0     C15126   4.078  11.504   8.679 -0.4403  0.0243 -0.1352
  835MOL0     C15127   4.084  11.580   8.559 -0.6820  0.1764 -0.0545
  835MOL0     O15128   4.144  11.700   8.555  0.4477 -0.4823 -0.0455
  835MOL0     C15129   4.251  11.693   8.457  0.0574 -0.4056  0.0675
  835MOL0     C15130   4.319  11.836   8.431  0.5167 -0.6786  0.2869
  835MOL0     C15131   4.410  11.883   8.547  0.0789  0.0590 -0.1169
  835MOL0     C15132   4.546  11.939   8.502 -0.5244 -0.2367 -0.0786
  835MOL0     C15133   4.630  11.997   8.622 -0.0721 -0.5269 -0.7629
  835MOL0     C15134   4.560  12.101   8.724  0.2007  0.5136 -0.3281
  835MOL0     C15135   4.486  12.221   8.663 -0.2407 -0.0710 -0.6329
  835MOL0     C15136   4.569  12.296   8.556  0.8321 -0.2979  0.3400
  835MOL0    Cl15137   4.508  12.459   8.507 -0.1305  0.3249  0.2231
  835MOL0     C15138   4.005  11.540   8.451 -0.6715  0.2586  0.3461
  835MOL0     C15139   3.926  11.433   8.460  0.1116 -0.1110  1.1586
  835MOL0     O15140   3.679  11.345   8.676 -0.2734  0.5639  0.0333
  835MOL0     C15141   3.720  10.998   8.586 -0.1377 -0.2940 -0.0378
  835MOL0     C15142   3.657  10.874   8.580  0.4159 -0.5515  1.2802
  835MOL0     N15143   3.297  10.211   8.272  0.7369  0.1450  0.1863
  835MOL0     N15144   3.214  10.180   8.169 -0.1439 -0.0978 -0.5853
  835MOL0     C15145   2.485   9.432   8.042 -0.0123 -1.0815 -0.0196
  835MOL0     C15146   2.353   9.389   8.047 -0.5314  0.0195 -0.0226
  835MOL0     C15147   1.924   9.241   8.001 -0.8476  0.7451 -0.1864
  835MOL0     C15148   1.857   9.352   8.030  0.1762 -0.4701 -0.0196
  835MOL0     C15149   1.720   9.362   8.048 -0.1643  0.2893 -0.3491
  835MOL0     C15150   1.644   9.245   8.035  0.0746 -0.0357 -0.5755
  835MOL0     O15151   1.504   9.260   8.051 -0.2751  0.3841 -0.3259
  835MOL0     C15152   1.451   9.334   8.157  0.0924 -0.7758  0.4836
  835MOL0     C15153   1.349   9.435   8.101  0.2570  0.1267  0.5106
  835MOL0     C15154   1.250   9.511   8.194  0.0429 -0.1230 -0.0572
  835MOL0     C15155   1.171   9.621   8.120 -0.4772 -0.0033 -0.3305
  835MOL0     C15156   1.086   9.714   8.199 -1.1132 -0.0943 -0.0791
  835MOL0     C15157   1.029   9.804   8.251 -0.0599 -0.3239 -0.0216
  835MOL0     C15158   1.711   9.120   8.019 -0.1954  0.0929 -0.4578
  835MOL0     C15159   1.850   9.114   7.998  1.4079 -0.0219 -0.6954
  835MOL0     C15160   1.924   8.981   7.982  0.1944  0.5927  0.0362
  835MOL0     H15161   2.222   9.504   7.758  0.7988 -0.8637 -1.2013
  835MOL0     H15162   2.468   9.570   7.733  0.8798 -1.5152 -0.3668
  835MOL0     H15163   2.757   9.432   8.045  0.2566  0.1799  1.8262
  835MOL0     H15164   2.748   9.594   8.088  2.1941 -0.2869 -0.1009
  835MOL0     H15165   2.977   9.576   8.000  3.9695  2.7273 -2.7477
  835MOL0     H15166   2.919   9.501   7.856  2.8912  0.8526  0.1120
  835MOL0     H15167   2.979   9.733   7.805  0.4839  1.8636  1.8497
  835MOL0     H15168   2.800   9.714   7.797  0.8357 -1.0518 -1.3736
  835MOL0     H15169   2.889   9.915   7.888  2.0361 -0.7019 -0.7938
  835MOL0     H15170   2.777   9.828   8.000 -0.2666 -3.1060  0.9257
  835MOL0     H15171   3.073   9.835   8.027  0.4165  1.4210 -1.0020
  835MOL0     H15172   2.966   9.759   8.145 -0.6734 -1.0440 -1.5452
  835MOL0     H15173   2.846   9.964   8.177 -0.3000  0.5504 -4.4241
  835MOL0     H15174   3.021   9.977   8.235  0.8316 -0.7933 -0.4131
  835MOL0     H15175   2.865  10.106   8.011 -0.5892  0.4225  1.3198
  835MOL0     H15176   3.044  10.094   8.005 -0.0951 -0.0929 -1.7331
  835MOL0     H15177   2.950  10.320   8.080 -1.2853  0.1191  0.5374
  835MOL0     H15178   2.899  10.243   8.226 -0.3677 -0.9699 -0.4831
  835MOL0     H15179   3.039  10.373   8.375  0.8300  1.6249  0.2829
  835MOL0     H15180   3.333  10.222   8.531  0.7624  0.7023 -0.4237
  835MOL0     H15181   3.200  10.333   8.585  2.1296  1.7149  1.6054
  835MOL0     H15182   3.417  10.447   8.619  0.3155  2.8139  0.3729
  835MOL0     H15183   3.454  10.430   8.440  1.1328 -1.1684  1.7914
  835MOL0     H15184   3.239  10.576   8.411 -0.2505  1.2742  1.0988
  835MOL0     H15185   3.245  10.589   8.593  2.0115  1.8081 -0.0530
  835MOL0     H15186   3.474  10.685   8.416  2.3858  2.0679  1.7428
  835MOL0     H15187   3.333  10.782   8.454 -1.3840 -0.4477  1.9265
  835MOL0     H15188   3.361  10.959   8.721 -0.2938 -0.8205 -1.5339
  835MOL0     H15189   3.363  11.146   8.811 -0.2005  0.8203  0.4473
  835MOL0     H15190   3.415  11.291   8.718  2.7991 -0.6033 -2.6803
  835MOL0     H15191   3.518  11.237   8.846  0.8240 -0.3452 -0.7392
  835MOL0     H15192   3.999  11.333   8.780  1.9644 -1.8289 -1.0760
  835MOL0     H15193   4.146  11.548   8.751  0.2296 -0.2911 -0.5607
  835MOL0     H15194   4.323  11.618   8.492 -0.5950 -1.3135 -0.5061
  835MOL0     H15195   4.216  11.664   8.357 -1.1506  1.1215  0.0080
  835MOL0     H15196   4.373  11.836   8.336 -2.0465 -0.3565 -1.2627
  835MOL0     H15197   4.241  11.912   8.429  0.1516 -1.0284  1.0496
  835MOL0     H15198   4.432  11.803   8.618 -3.4474 -0.3214  0.7259
  835MOL0     H15199   4.354  11.966   8.592  2.1581  2.9005 -2.4099
  835MOL0     H15200   4.526  12.029   8.442  2.0415  0.3811 -0.1080
  835MOL0     H15201   4.612  11.865   8.455  0.8997  0.7950  0.2166
  835MOL0     H15202   4.642  11.912   8.691 -1.8248  0.6067  1.0490
  835MOL0     H15203   4.726  12.042   8.594  0.9124 -0.7718  1.9042
  835MOL0     H15204   4.632  12.136   8.798 -1.4584  0.0794  1.6025
  835MOL0     H15205   4.480  12.053   8.781 -1.6736  1.0369 -2.3890
  835MOL0     H15206   4.476  12.290   8.747  0.9566 -0.5260 -0.0989
  835MOL0     H15207   4.385  12.189   8.636 -0.7266  0.3858  0.5824
  835MOL0     H15208   4.580  12.243   8.461  1.3336 -1.7943  1.1918
  835MOL0     H15209   4.675  12.309   8.582  0.4358 -0.3133  2.0943
  835MOL0     H15210   4.012  11.596   8.359  1.8346 -0.8295 -0.1873
  835MOL0     H15211   3.859  11.412   8.378  0.9287 -2.3184  0.9929
  835MOL0     H15212   3.826  11.005   8.561 -0.5098  0.2898 -1.5765
  835MOL0     H15213   3.714  10.786   8.551 -1.9718 -2.3382  1.5977
  835MOL0     H15214   2.556   9.425   8.124  0.1513 -0.6037 -0.1180
  835MOL0     H15215   2.317   9.340   8.136  0.8091 -0.2083  0.4110
  835MOL0     H15216   1.910   9.445   8.048  0.5644 -0.7290  0.1973
  835MOL0     H15217   1.667   9.454   8.070 -0.8174  0.5120 -2.6636
  835MOL0     H15218   1.404   9.266   8.228  1.3534 -0.2350  1.8903
  835MOL0     H15219   1.521   9.393   8.217 -0.7360  1.9195 -1.0151
  835MOL0     H15220   1.283   9.371   8.042  0.9729 -0.7434  0.6271
  835MOL0     H15221   1.404   9.502   8.034 -0.7585  0.0005 -0.4832
  835MOL0     H15222   1.176   9.440   8.231  3.8825 -4.0484  0.9242
  835MOL0     H15223   1.310   9.550   8.277 -2.7565 -1.0417  2.5723
  835MOL0     H15224   1.097   9.570   8.058  0.3687 -1.8374  0.1002
  835MOL0     H15225   1.242   9.674   8.056  0.7827 -0.9306  0.2589
  835MOL0     H15226   0.962   9.884   8.278 -0.7542 -1.3583  1.4436
  835MOL0     H15227   1.645   9.034   8.024 -3.5877  2.5370  0.2737
  835MOL0     H15228   1.852   8.902   7.960  1.3512 -0.2706 -0.7810
  835MOL0     H15229   2.002   8.989   7.905  0.0154  0.0195 -0.2130
  835MOL0     H15230   1.973   8.950   8.075 -0.0942 -3.4493 -0.9585
  836MOL0     O15231   3.310  10.679   3.437 -0.8371  0.2379 -1.0447
  836MOL0     C15232   3.281  10.629   3.329 -1.4689 -0.0558  0.0459
  836MOL0     O15233   3.295  10.495   3.295 -0.5865 -0.4866  0.0545
  836MOL0     C15234   3.337  10.400   3.386  0.4827  0.2237 -0.3120
  836MOL0     C15235   3.468  10.351   3.380 -0.2504  0.4128  0.0668
  836MOL0     C15236   3.515  10.245   3.458  0.4756  0.6689 -0.2591
  836MOL0     C15237   3.432  10.191   3.554  0.0330  0.0979 -0.4191
  836MOL0     O15238   3.467  10.089   3.636  0.2243  0.7557 -0.0038
  836MOL0     C15239   3.601  10.083   3.687  0.6113 -0.2296  0.3418
  836MOL0     C15240   3.601   9.986   3.802 -0.3807  0.4172 -0.5630
  836MOL0     C15241   3.740   9.976   3.859 -0.0630 -0.8694  0.0654
  836MOL0     C15242   3.744   9.929   4.006  0.3100 -0.1672 -0.6438
  836MOL0     C15243   3.885   9.916   4.052 -0.4857 -0.2434 -0.9285
  836MOL0     C15244   3.895   9.857   4.196 -0.1634  0.3951 -0.6060
  836MOL0     C15245   3.899   9.974   4.293  1.7688  0.0671  0.2362
  836MOL0     C15246   3.828   9.944   4.427  0.5385  0.0792 -1.3915
  836MOL0     N15247   3.927   9.876   4.514 -0.4347 -0.1189 -0.4590
  836MOL0     C15248   4.022   9.936   4.590  0.1133 -0.1737 -0.5083
  836MOL0     C15249   4.079   9.829   4.663 -0.5896 -0.7509 -0.2724
  836MOL0     C15250   4.192   9.813   4.761  0.6909 -0.2398  0.1463
  836MOL0     C15251   4.203   9.940   4.856  0.2222  0.1709 -0.1120
  836MOL0     C15252   4.316   9.925   4.969 -0.1099 -0.3629  0.5867
  836MOL0     C15253   4.290   9.812   5.066 -0.0766 -0.1789  0.8010
  836MOL0     O15254   4.161   9.851   5.122 -0.2243  0.0954  0.3100
  836MOL0     C15255   4.070   9.760   5.162  0.1688  0.0838  0.4832
  836MOL0     C15256   4.100   9.619   5.180 -0.7828 -0.1450  0.3014
  836MOL0     C15257   4.004   9.520   5.213  0.0761  0.4240 -0.1755
  836MOL0     C15258   4.053   9.371   5.231  0.7125 -0.0107  0.3282
  836MOL0     C15259   3.875   9.570   5.226 -0.1327 -0.5201  0.4168
  836MOL0     C15260   3.768   9.479   5.267 -0.3236 -0.0799 -0.5626
  836MOL0     O15261   3.671   9.464   5.171  0.2089 -0.1293 -0.3545
  836MOL0     C15262   3.568   9.378   5.189 -0.1417 -0.4290  0.0992
  836MOL0     C15263   3.483   9.382   5.075  0.3760 -1.1479 -0.2114
  836MOL0     C15264   3.365   9.312   5.083  0.6359  0.3815 -0.3667
  836MOL0     C15265   3.328   9.246   5.189  0.0015  0.4011 -0.1453
  836MOL0     O15266   3.207   9.184   5.179 -0.3538  0.3610 -0.3674
  836MOL0     C15267   3.100   9.281   5.187 -0.3776 -0.1120 -0.3740
  836MOL0     C15268   2.965   9.230   5.205  0.6139  0.1939  0.2077
  836MOL0     C15269   2.951   9.154   5.343  0.8944 -0.5843 -0.0277
  836MOL0     C15270   2.942   9.254   5.458 -0.1532 -0.1504 -0.4821
  836MOL0     C15271   2.886   9.179   5.587 -0.5969 -0.1768 -0.2287
  836MOL0     C15272   2.809   9.268   5.693 -0.1136 -1.7142 -0.3569
  836MOL0     C15273   2.686   9.186   5.744  0.0625  0.0256 -0.4867
  836MOL0     C15274   2.587   9.280   5.824 -0.1386 -0.4465 -0.2030
  836MOL0    Cl15275   2.487   9.180   5.916 -0.3297 -0.2743  0.2939
  836MOL0     C15276   3.399   9.241   5.303  0.5699  0.7592  0.5426
  836MOL0     C15277   3.514   9.322   5.308 -0.1706 -0.7901  0.2901
  836MOL0     O15278   3.792   9.405   5.359  0.3205  0.2935 -0.0128
  836MOL0     C15279   3.840   9.704   5.208 -0.0120 -0.5886  0.6131
  836MOL0     C15280   3.940   9.801   5.183  0.5030  0.9941 -0.1455
  836MOL0     N15281   4.013   9.715   4.626  0.7619 -0.6896 -0.6709
  836MOL0     N15282   3.926   9.742   4.530  0.4467  0.1068  0.6238
  836MOL0     C15283   3.299  10.229   3.554 -0.8789 -0.2947  0.4167
  836MOL0     C15284   3.249  10.337   3.472  0.0674  1.6605 -0.6086
  836MOL0     C15285   3.228  10.724   3.223 -0.5568  0.5073  0.0639
  836MOL0     C15286   3.293  10.845   3.206 -0.3003 -0.8962  0.5078
  836MOL0     C15287   3.234  10.937   3.120  0.4508  0.0851  0.4906
  836MOL0     C15288   3.114  10.916   3.051 -0.1942 -0.3230  0.0879
  836MOL0     O15289   3.054  10.992   2.958 -0.2998 -0.3409 -0.0643
  836MOL0     C15290   3.070  11.131   2.977 -0.4145 -0.0404  0.3125
  836MOL0     C15291   3.198  11.192   2.908 -0.5243  0.1487 -0.3325
  836MOL0     C15292   3.229  11.115   2.774  0.3620 -0.0363 -0.2623
  836MOL0     C15293   3.312  11.193   2.669  0.0525 -0.0254  0.0737
  836MOL0     C15294   3.448  11.232   2.707  0.5157 -0.0718 -0.3957
  836MOL0     C15295   3.557  11.256   2.760  0.2263 -0.2926  0.1108
  836MOL0     C15296   3.045  10.797   3.088  0.5963  0.2374  1.3657
  836MOL0     C15297   3.101  10.695   3.167  0.0550  0.3236 -0.3209
  836MOL0     C15298   2.999  10.602   3.233 -0.7158 -0.8830 -0.2300
  836MOL0     H15299   3.531  10.389   3.300  0.0213  0.0045  0.0879
  836MOL0     H15300   3.620  10.218   3.457  0.7847  1.5825 -3.9264
  836MOL0     H15301   3.627  10.178   3.733 -0.2896  0.1522  0.0871
  836MOL0     H15302   3.675  10.061   3.610  1.5465  0.4531  1.0293
  836MOL0     H15303   3.526  10.016   3.876  0.0975  0.1110  0.0559
  836MOL0     H15304   3.564   9.893   3.758  0.8445 -0.1798 -0.3806
  836MOL0     H15305   3.773   9.901   3.788 -1.6381  0.9637 -2.8130
  836MOL0     H15306   3.799  10.068   3.854  1.8359 -2.0205  0.4629
  836MOL0     H15307   3.693  10.001   4.071 -0.3185 -1.3544  0.2167
  836MOL0     H15308   3.692   9.833   4.010  2.7977 -1.5449  0.7523
  836MOL0     H15309   3.932  10.015   4.050 -1.9175  0.4559 -1.6064
  836MOL0     H15310   3.939   9.857   3.978  2.8175 -0.4516  1.4240
  836MOL0     H15311   3.812   9.790   4.218 -1.6537  2.1969 -0.4892
  836MOL0     H15312   3.988   9.802   4.213  0.0550  0.8910 -0.1480
  836MOL0     H15313   3.840  10.056   4.252 -2.9601 -3.5471 -1.0838
  836MOL0     H15314   3.999  10.014   4.315  0.9836  1.1406  2.1953
  836MOL0     H15315   3.786  10.031   4.477 -0.0581 -1.1403  0.2969
  836MOL0     H15316   3.744   9.875   4.414  0.6322 -0.2906 -0.1394
  836MOL0     H15317   4.043  10.041   4.573  4.4095 -0.7369  0.1873
  836MOL0     H15318   4.286   9.811   4.704  0.1729  1.2918 -0.8354
  836MOL0     H15319   4.183   9.720   4.818  0.0563  0.4000  1.1181
  836MOL0     H15320   4.221  10.027   4.791 -0.2405  2.7799  2.9738
  836MOL0     H15321   4.111   9.961   4.910 -1.1943 -0.7839 -2.0514
  836MOL0     H15322   4.403   9.907   4.905  0.5426  0.7718  1.1254
  836MOL0     H15323   4.340  10.021   5.015 -2.2922  0.8337 -0.6292
  836MOL0     H15324   4.305   9.718   5.013  0.9921 -0.0301  0.8117
  836MOL0     H15325   4.355   9.811   5.154  1.4138 -2.5648 -0.2358
  836MOL0     H15326   4.198   9.593   5.144 -0.5540  2.1069 -0.8880
  836MOL0     H15327   3.975   9.295   5.234 -0.0123  0.6996 -0.1285
  836MOL0     H15328   4.105   9.373   5.327 -0.3516  2.8551  0.9588
  836MOL0     H15329   4.123   9.331   5.157 -0.3131 -0.9803 -0.1444
  836MOL0     H15330   3.505   9.432   4.981  0.7330 -0.5164  0.1967
  836MOL0     H15331   3.301   9.320   4.997  1.6604 -0.9819 -1.3010
  836MOL0     H15332   3.129   9.343   5.272  2.1991 -1.3249 -0.2879
  836MOL0     H15333   3.095   9.346   5.099 -2.3336  1.6394  0.9195
  836MOL0     H15334   2.897   9.316   5.205  0.5350  0.1608 -1.5938
  836MOL0     H15335   2.946   9.156   5.127  4.1915  0.5865 -1.2693
  836MOL0     H15336   3.034   9.084   5.359 -0.0288 -1.8175 -0.4858
  836MOL0     H15337   2.864   9.089   5.334  2.3807 -2.8913  1.2078
  836MOL0     H15338   2.872   9.334   5.436 -1.2000 -0.3631  1.8494
  836MOL0     H15339   3.044   9.293   5.465 -0.6507  1.9314 -3.2043
  836MOL0     H15340   2.813   9.104   5.554  0.1100 -0.9632 -0.0258
  836MOL0     H15341   2.967   9.122   5.633 -1.0240 -2.2305 -1.8244
  836MOL0     H15342   2.779   9.359   5.641  0.7635 -0.3087  1.4726
  836MOL0     H15343   2.881   9.296   5.771 -0.9503  0.7463 -0.3919
  836MOL0     H15344   2.725   9.100   5.798 -0.7096 -0.9677 -1.4649
  836MOL0     H15345   2.625   9.142   5.664  0.0024 -0.1314 -0.3533
  836MOL0     H15346   2.541   9.346   5.750 -0.5320 -2.5568 -1.9450
  836MOL0     H15347   2.642   9.333   5.902 -0.3902 -0.4673 -0.0105
  836MOL0     H15348   3.358   9.185   5.387  1.5333  0.3670  0.7587
  836MOL0     H15349   3.575   9.328   5.397 -0.2306 -1.6515  0.3880
  836MOL0     H15350   3.740   9.738   5.233  0.3521  0.0158  1.2950
  836MOL0     H15351   3.913   9.900   5.149  0.3702 -0.0862 -3.5624
  836MOL0     H15352   3.235  10.185   3.629 -1.6674 -1.0289 -0.6467
  836MOL0     H15353   3.142  10.357   3.473  0.2696  2.7946 -0.2317
  836MOL0     H15354   3.385  10.871   3.257 -1.4534  0.7475  1.8355
  836MOL0     H15355   3.295  11.023   3.095 -1.6521  1.3018 -0.8133
  836MOL0     H15356   2.978  11.178   2.941  0.6695  0.8641 -1.4656
  836MOL0     H15357   3.067  11.163   3.081 -3.9067  1.0234 -0.0089
  836MOL0     H15358   3.287  11.182   2.970 -1.5031  0.5103  1.1683
  836MOL0     H15359   3.170  11.296   2.886  3.1318  1.5528  0.9052
  836MOL0     H15360   3.274  11.016   2.789 -0.9534 -0.7928 -1.1075
  836MOL0     H15361   3.124  11.096   2.752 -1.4070  1.6319  5.1354
  836MOL0     H15362   3.263  11.279   2.623  2.1818 -0.0660 -2.4477
  836MOL0     H15363   3.319  11.120   2.588 -0.8217 -1.4735  1.2438
  836MOL0     H15364   3.652  11.284   2.801 -1.1962  2.7452  1.6768
  836MOL0     H15365   2.953  10.780   3.033 -0.8212 -2.5895  4.2870
  836MOL0     H15366   3.017  10.498   3.202  1.5150 -0.0087 -2.0873
  836MOL0     H15367   3.012  10.617   3.341  3.3545  1.5630 -0.8601
  836MOL0     H15368   2.901  10.635   3.197  0.1227  0.8397 -1.0457
  837MOL0     O15369  10.278  11.487   6.922 -0.8316  0.4714  0.2126
  837MOL0     C15370  10.387  11.545   6.934  0.0237 -1.0014 -0.7054
  837MOL0     O15371  10.443  11.631   6.840 -0.1147  0.5361 -0.6521
  837MOL0     C15372  10.361  11.663   6.736  0.1999 -0.2078 -0.1481
  837MOL0     C15373  10.340  11.793   6.718 -0.2043 -0.0199  0.4347
  837MOL0     C15374  10.263  11.829   6.606  0.1790 -0.1158  0.1774
  837MOL0     C15375  10.217  11.731   6.510 -0.3696 -0.3408 -0.2012
  837MOL0     O15376  10.126  11.763   6.409 -0.5369  0.1991  1.3246
  837MOL0     C15377  10.074  11.899   6.383 -0.2307  0.3868 -0.9026
  837MOL0     C15378   9.939  11.930   6.459  0.0730  0.0932 -0.3311
  837MOL0     C15379   9.834  11.820   6.423 -0.3849  0.6500 -0.3666
  837MOL0     C15380   9.702  11.839   6.491 -0.3005  0.6441  0.4553
  837MOL0     C15381   9.602  11.751   6.417  1.0515 -0.4887 -0.5473
  837MOL0     C15382   9.466  11.738   6.494 -0.1778 -0.8831  0.5985
  837MOL0     C15383   9.366  11.639   6.421  0.2817 -0.3449 -0.0544
  837MOL0     C15384   9.230  11.624   6.487  0.0721 -0.1459 -0.8712
  837MOL0     N15385   9.160  11.754   6.475 -0.2975 -0.2290  0.6340
  837MOL0     C15386   9.149  11.858   6.562  0.3610  0.9082  0.4586
  837MOL0     C15387   9.102  11.959   6.484  0.1067  0.4029  0.1932
  837MOL0     C15388   9.092  12.110   6.516  0.6067 -0.1481 -0.1759
  837MOL0     C15389   8.959  12.161   6.570 -0.5701 -0.2400  0.0069
  837MOL0     C15390   8.932  12.312   6.548 -0.3188  0.6376  0.1969
  837MOL0     C15391   8.800  12.367   6.596 -0.5902  0.4667 -1.1540
  837MOL0     O15392   8.809  12.499   6.574  0.4972  0.5524 -0.4182
  837MOL0     C15393   8.774  12.533   6.444 -0.2789  0.0984  0.6088
  837MOL0     C15394   8.653  12.497   6.377 -1.5874  0.3624 -0.1818
  837MOL0     C15395   8.611  12.551   6.257  0.2997 -0.4380 -0.8700
  837MOL0     C15396   8.485  12.498   6.199  0.5720  0.0746  0.3134
  837MOL0     C15397   8.694  12.652   6.195  0.7190  1.0231 -0.3871
  837MOL0     C15398   8.660  12.724   6.072 -0.0232 -0.3538 -0.4551
  837MOL0     O15399   8.556  12.681   5.993 -0.0016  0.7287 -0.5232
  837MOL0     C15400   8.555  12.727   5.859  0.0141  0.6270  1.0634
  837MOL0     C15401   8.643  12.685   5.751  0.2955 -0.1496  0.4252
  837MOL0     C15402   8.619  12.738   5.628 -0.3049  0.1175  0.6885
  837MOL0     C15403   8.527  12.834   5.596 -0.0363 -0.2256  0.1423
  837MOL0     O15404   8.501  12.884   5.472  0.2109  0.0156  0.5656
  837MOL0     C15405   8.502  12.780   5.368  0.1840 -0.3647  0.1504
  837MOL0     C15406   8.467  12.836   5.231 -0.2650  0.6017 -0.2112
  837MOL0     C15407   8.342  12.926   5.251 -0.3221 -0.2227  0.6485
  837MOL0     C15408   8.262  12.959   5.129  0.1917  0.0100 -0.2400
  837MOL0     C15409   8.157  13.071   5.158  0.4584  0.9755  0.4121
  837MOL0     C15410   8.054  13.080   5.049 -0.6408 -0.7284  0.4504
  837MOL0     C15411   7.967  13.200   5.066  0.0700  0.5509  0.7627
  837MOL0     C15412   7.891  13.203   5.202  0.2073  0.3440  0.7779
  837MOL0    Cl15413   7.757  13.329   5.182 -0.2053  0.0438  0.1408
  837MOL0     C15414   8.445  12.877   5.702  0.0252 -0.0552  0.2639
  837MOL0     C15415   8.461  12.819   5.830 -0.0863  0.2788  0.0962
  837MOL0     O15416   8.747  12.808   6.036  0.5270  0.8413  0.2112
  837MOL0     C15417   8.815  12.682   6.262 -0.1456  0.1399 -0.3960
  837MOL0     C15418   8.854  12.627   6.383  0.5623 -0.1689 -1.1016
  837MOL0     N15419   9.067  11.915   6.361 -0.3186 -0.0801  0.0917
  837MOL0     N15420   9.097  11.788   6.357 -0.2421  0.7998  0.1457
  837MOL0     C15421  10.256  11.597   6.532  0.5073 -0.0319 -0.4626
  837MOL0     C15422  10.329  11.563   6.639 -0.4331 -0.3498 -0.0305
  837MOL0     C15423  10.479  11.497   7.027  0.2102 -0.2338  0.3633
  837MOL0     C15424  10.610  11.458   6.986  0.8837 -0.4394 -0.8493
  837MOL0     C15425  10.703  11.401   7.077 -0.0386 -0.4018 -0.7715
  837MOL0     C15426  10.670  11.382   7.207 -0.0942 -1.2061  0.5810
  837MOL0     O15427  10.750  11.335   7.307  0.2009 -0.3672 -0.4892
  837MOL0     C15428  10.753  11.194   7.330 -0.2022 -0.2907 -0.5265
  837MOL0     C15429  10.842  11.176   7.461  0.5723  0.6083  0.2793
  837MOL0     C15430  10.794  11.255   7.586  0.9024 -0.3018  0.5479
  837MOL0     C15431  10.649  11.223   7.629  1.3576 -0.2444  0.6787
  837MOL0     C15432  10.597  11.298   7.741  0.5117 -0.1327  0.1015
  837MOL0     C15433  10.554  11.366   7.833 -0.3387  0.5796  0.2491
  837MOL0     C15434  10.539  11.407   7.248  0.4739  0.1686  1.0269
  837MOL0     C15435  10.446  11.462   7.161  0.0128 -0.1663 -0.7560
  837MOL0     C15436  10.300  11.480   7.210  0.8032  0.5633  0.1106
  837MOL0     H15437  10.394  11.863   6.781 -0.9434  1.6468 -0.7109
  837MOL0     H15438  10.238  11.933   6.593  0.3581 -0.1901 -0.8745
  837MOL0     H15439  10.051  11.917   6.278  2.0883 -0.1066 -1.5470
  837MOL0     H15440  10.148  11.979   6.401  1.0821 -1.0355  0.3326
  837MOL0     H15441   9.958  11.920   6.567  2.7120 -0.7740 -0.8003
  837MOL0     H15442   9.909  12.031   6.429  3.8114  2.4821  2.8844
  837MOL0     H15443   9.809  11.821   6.317 -3.6911 -0.0718  0.2939
  837MOL0     H15444   9.883  11.730   6.461  0.7710  0.9416 -1.1001
  837MOL0     H15445   9.702  11.794   6.591 -2.9830 -0.6198 -0.0378
  837MOL0     H15446   9.687  11.947   6.484 -0.2018  0.5149 -3.1101
  837MOL0     H15447   9.642  11.650   6.411  1.6104 -0.3595  0.6932
  837MOL0     H15448   9.590  11.789   6.315  0.5877  0.9448  0.0148
  837MOL0     H15449   9.488  11.700   6.594 -1.0494 -0.3610  0.9947
  837MOL0     H15450   9.423  11.838   6.501  0.4221 -0.4434 -1.2840
  837MOL0     H15451   9.408  11.539   6.413 -0.6589 -0.5922 -2.8857
  837MOL0     H15452   9.350  11.677   6.320  0.0037 -0.0649  0.0896
  837MOL0     H15453   9.167  11.555   6.429 -2.4147  0.3658  1.0687
  837MOL0     H15454   9.231  11.600   6.594 -1.0236  1.1581 -0.5545
  837MOL0     H15455   9.179  11.873   6.665 -0.1064 -0.4087  0.8092
  837MOL0     H15456   9.126  12.157   6.423  3.0842 -0.5380  0.4902
  837MOL0     H15457   9.171  12.117   6.590 -0.8136 -0.2745  1.4225
  837MOL0     H15458   8.896  12.112   6.495  2.4277  1.6089 -4.1349
  837MOL0     H15459   8.930  12.137   6.673 -0.4885  2.9668  0.8929
  837MOL0     H15460   9.016  12.354   6.603  1.1859 -4.3312  2.2655
  837MOL0     H15461   8.945  12.340   6.443 -0.7294  0.7135  0.1613
  837MOL0     H15462   8.713  12.325   6.544 -0.4592  0.5995 -1.4827
  837MOL0     H15463   8.791  12.342   6.702  0.2365 -0.4856 -1.2952
  837MOL0     H15464   8.581  12.433   6.426 -1.7919  0.5395 -0.2470
  837MOL0     H15465   8.512  12.462   6.100 -0.1256 -1.2833  0.5889
  837MOL0     H15466   8.404  12.571   6.186 -1.4155 -1.6871  2.0504
  837MOL0     H15467   8.448  12.410   6.253  1.2257 -0.2885  0.1796
  837MOL0     H15468   8.722  12.614   5.772  0.1575  0.0352  1.6163
  837MOL0     H15469   8.691  12.704   5.554  2.7033 -0.2734  3.5483
  837MOL0     H15470   8.596  12.729   5.341  0.9336  0.1818  1.5957
  837MOL0     H15471   8.427  12.705   5.395 -0.7699  0.6943  0.5142
  837MOL0     H15472   8.550  12.889   5.185 -0.1904  0.6561 -0.0130
  837MOL0     H15473   8.439  12.750   5.169 -0.6191  0.7341 -0.2404
  837MOL0     H15474   8.372  13.018   5.304 -1.2382  0.3573  0.1910
  837MOL0     H15475   8.265  12.883   5.315 -2.5188  2.5906  0.1569
  837MOL0     H15476   8.201  12.872   5.103  1.4796 -1.3021  0.9453
  837MOL0     H15477   8.328  12.984   5.046  1.1869 -2.3115 -0.2294
  837MOL0     H15478   8.115  13.067   5.259 -0.9927  0.7573 -0.1778
  837MOL0     H15479   8.219  13.160   5.167  1.7858  0.1863 -0.5290
  837MOL0     H15480   7.983  12.999   5.035 -2.3925  0.5659  1.3765
  837MOL0     H15481   8.102  13.086   4.951  0.0327  1.3231  0.8470
  837MOL0     H15482   7.896  13.176   4.986  1.7736  0.2991 -0.7624
  837MOL0     H15483   8.022  13.292   5.044  1.7172 -0.7532 -0.9676
  837MOL0     H15484   7.946  13.237   5.290  1.8030  1.0459 -0.4466
  837MOL0     H15485   7.850  13.105   5.228  3.0531 -1.0297  0.5420
  837MOL0     H15486   8.363  12.948   5.695 -0.2217 -0.3674  0.0046
  837MOL0     H15487   8.400  12.841   5.917 -1.5229 -1.9041 -0.2788
  837MOL0     H15488   8.882  12.758   6.224  0.2690  0.0116  0.0726
  837MOL0     H15489   8.942  12.654   6.442  0.8174 -2.9116 -0.0613
  837MOL0     H15490  10.240  11.508   6.472  1.2600  0.7743 -1.9044
  837MOL0     H15491  10.371  11.463   6.647  2.6204  0.8610  0.2302
  837MOL0     H15492  10.630  11.488   6.884  2.3003  3.8049  0.4794
  837MOL0     H15493  10.807  11.372   7.063  0.3464 -2.1916  3.9717
  837MOL0     H15494  10.656  11.153   7.359  0.0750  0.4621  1.6659
  837MOL0     H15495  10.794  11.132   7.250 -0.9948 -0.3137 -0.9318
  837MOL0     H15496  10.949  11.184   7.438  0.1949  2.7489 -0.9439
  837MOL0     H15497  10.824  11.076   7.501  0.7588  1.1726  1.8628
  837MOL0     H15498  10.862  11.239   7.670  1.1652  1.5590  0.7239
  837MOL0     H15499  10.784  11.361   7.565  3.5827  0.1736  1.3261
  837MOL0     H15500  10.653  11.118   7.659 -3.2419 -0.5745  0.8696
  837MOL0     H15501  10.585  11.241   7.542  1.5248 -0.0151  0.6010
  837MOL0     H15502  10.528  11.445   7.901 -2.3696 -0.7912  1.1351
  837MOL0     H15503  10.511  11.385   7.350 -0.3750  1.0624  0.9933
  837MOL0     H15504  10.250  11.567   7.166  0.9281  1.9140  2.4602
  837MOL0     H15505  10.255  11.385   7.179  1.0511  0.1475  0.9815
  837MOL0     H15506  10.293  11.489   7.319 -1.0158 -1.6783  0.2566
  838MOL0     O15507   1.784   1.987   5.031 -0.6732 -0.0517  0.4249
  838MOL0     C15508   1.898   1.964   4.994 -0.2502 -0.4863 -0.3915
  838MOL0     O15509   2.014   1.989   5.072 -0.2405 -0.3983 -0.4789
  838MOL0     C15510   2.017   1.961   5.210  0.2636 -0.5566 -0.1363
  838MOL0     C15511   2.132   2.009   5.282  0.3397  0.0562 -0.3681
  838MOL0     C15512   2.130   2.000   5.427  0.4306 -0.1066  0.3082
  838MOL0     C15513   2.033   1.926   5.498 -0.7824  0.4676 -0.6919
  838MOL0     O15514   2.035   1.923   5.639 -1.0887 -0.2106 -0.4440
  838MOL0     C15515   2.130   1.998   5.703 -0.3785 -0.3883 -0.4652
  838MOL0     C15516   2.118   1.963   5.852  0.5467  0.4319  1.7515
  838MOL0     C15517   2.217   2.034   5.947  0.2395 -0.0171  0.0152
  838MOL0     C15518   2.364   1.993   5.917  0.1202  0.4248  0.9155
  838MOL0     C15519   2.454   1.989   6.042 -0.0127  0.2271 -0.5174
  838MOL0     C15520   2.466   2.121   6.112 -0.5016  0.0301  0.1849
  838MOL0     C15521   2.559   2.124   6.235  0.4128  0.6004  0.4336
  838MOL0     C15522   2.582   2.270   6.271 -0.2266  0.5629  0.0835
  838MOL0     N15523   2.620   2.304   6.406 -0.7529  0.7350 -0.5758
  838MOL0     C15524   2.542   2.342   6.513 -0.9824 -0.4031 -0.6338
  838MOL0     C15525   2.628   2.367   6.611  0.0388  0.8612 -0.7279
  838MOL0     C15526   2.586   2.414   6.745  0.4926 -0.0912 -0.3620
  838MOL0     C15527   2.701   2.409   6.846 -0.7083  0.0288 -0.6200
  838MOL0     C15528   2.666   2.476   6.985  0.1572  0.6187  0.0675
  838MOL0     C15529   2.789   2.557   7.032 -0.2273 -0.1473 -0.5691
  838MOL0     O15530   2.746   2.629   7.152  0.4517 -0.4667 -0.2042
  838MOL0     C15531   2.853   2.661   7.233  0.4882  0.0908  0.3451
  838MOL0     C15532   2.983   2.699   7.193 -0.1087 -1.0503  0.2893
  838MOL0     C15533   3.085   2.728   7.287 -0.5773  0.2392  0.2582
  838MOL0     C15534   3.224   2.756   7.223 -0.3682  0.0660  0.1179
  838MOL0     C15535   3.061   2.713   7.426  0.7876  0.4380 -0.5670
  838MOL0     C15536   3.171   2.749   7.533  0.3781  0.3968  0.6520
  838MOL0     O15537   3.139   2.837   7.626  1.2887 -0.7563  0.9211
  838MOL0     C15538   3.229   2.875   7.719  0.5719  0.5840  0.0823
  838MOL0     C15539   3.339   2.952   7.689 -0.4106  1.1668  0.1495
  838MOL0     C15540   3.436   2.975   7.788  0.8613 -0.0160 -0.2890
  838MOL0     C15541   3.418   2.918   7.913 -0.0311 -0.2820 -0.2216
  838MOL0     O15542   3.520   2.932   7.994 -0.0442 -0.0091 -0.1806
  838MOL0     C15543   3.494   2.929   8.136 -0.1364  0.3853 -0.2969
  838MOL0     C15544   3.613   2.991   8.208  0.6098  0.8079 -0.0948
  838MOL0     C15545   3.626   2.964   8.355  0.3092 -0.1501 -0.8121
  838MOL0     C15546   3.497   2.991   8.442  0.1750  1.3910  1.4332
  838MOL0     C15547   3.534   2.988   8.591  0.1450 -0.0521  0.3777
  838MOL0     C15548   3.639   3.100   8.625  0.6082  0.8547 -0.1988
  838MOL0     C15549   3.629   3.246   8.582 -0.0566  0.0620 -0.8672
  838MOL0     C15550   3.765   3.319   8.583 -0.0944  0.0528 -0.4270
  838MOL0    Cl15551   3.753   3.492   8.568  0.0942  0.5191 -0.1100
  838MOL0     C15552   3.305   2.843   7.939  0.5832  0.4333 -0.1525
  838MOL0     C15553   3.205   2.825   7.843  0.2130  0.1892  0.3756
  838MOL0     O15554   3.278   2.693   7.533 -0.0203  0.2016  0.0430
  838MOL0     C15555   2.932   2.672   7.468 -0.5268  0.7842 -0.5234
  838MOL0     C15556   2.831   2.648   7.369 -1.3261  0.0977 -0.8716
  838MOL0     N15557   2.759   2.351   6.567  0.8552 -0.5815 -0.1836
  838MOL0     N15558   2.748   2.308   6.445 -0.3093  0.0015 -0.5051
  838MOL0     C15559   1.928   1.875   5.426  0.6964 -0.3810 -0.0778
  838MOL0     C15560   1.920   1.893   5.279 -0.0198 -0.0502 -1.6248
  838MOL0     C15561   1.917   1.959   4.848 -1.0497  0.1594  0.3145
  838MOL0     C15562   2.023   2.026   4.795 -0.3288  0.8484  0.8139
  838MOL0     C15563   2.047   2.020   4.658  0.1389 -0.7141  0.7681
  838MOL0     C15564   1.963   1.951   4.574 -1.1952  0.5348  0.0490
  838MOL0     O15565   1.988   1.924   4.436 -0.0961  0.0434 -0.2120
  838MOL0     C15566   2.093   1.990   4.370 -0.4397  0.2691 -0.1706
  838MOL0     C15567   2.235   1.920   4.393 -1.0867 -0.5406  0.4709
  838MOL0     C15568   2.351   2.007   4.342  0.0078 -0.5024 -1.2816
  838MOL0     C15569   2.488   1.928   4.355  0.0453  0.6043  0.1598
  838MOL0     C15570   2.544   1.887   4.221  0.3809 -0.3180 -1.1903
  838MOL0     C15571   2.598   1.865   4.121  0.7090  0.0137  0.7708
  838MOL0     C15572   1.862   1.875   4.637  0.4121  0.0210 -0.5575
  838MOL0     C15573   1.832   1.877   4.767  0.5442 -0.4442  0.0713
  838MOL0     C15574   1.711   1.798   4.817 -1.0165  0.9663 -0.8998
  838MOL0     H15575   2.214   2.058   5.228 -0.5174  3.5882  1.2374
  838MOL0     H15576   2.215   2.047   5.476 -2.4218  5.3733  0.7557
  838MOL0     H15577   2.131   2.104   5.676  1.9121 -0.8314 -2.5379
  838MOL0     H15578   2.232   1.970   5.676 -0.8655 -0.6390 -2.1416
  838MOL0     H15579   2.020   1.997   5.884  0.9628  2.1132  1.3566
  838MOL0     H15580   2.131   1.855   5.868 -0.4270  0.2305  1.2504
  838MOL0     H15581   2.211   2.143   5.937  0.9299 -0.0871 -1.5270
  838MOL0     H15582   2.191   1.993   6.044  1.8070  0.6533  0.7474
  838MOL0     H15583   2.355   1.891   5.876  0.4985  1.5209 -2.1540
  838MOL0     H15584   2.401   2.057   5.836  2.6135 -0.5453  1.1785
  838MOL0     H15585   2.554   1.954   6.015 -0.1232 -0.3095 -0.2477
  838MOL0     H15586   2.414   1.918   6.115 -1.8752  0.4898 -1.2195
  838MOL0     H15587   2.518   2.191   6.046 -0.0613  0.1869  0.6873
  838MOL0     H15588   2.363   2.154   6.126 -0.9837 -0.1131 -2.4934
  838MOL0     H15589   2.651   2.069   6.213  0.9893  0.3100  3.1353
  838MOL0     H15590   2.511   2.082   6.324 -0.2548  0.1921 -0.1187
  838MOL0     H15591   2.664   2.309   6.211  2.2594  0.8231  3.3695
  838MOL0     H15592   2.488   2.320   6.243  0.1858  0.4422 -1.6136
  838MOL0     H15593   2.435   2.360   6.518 -0.7486  0.9253  0.1903
  838MOL0     H15594   2.505   2.345   6.770 -1.1652  0.6481 -3.2081
  838MOL0     H15595   2.544   2.515   6.741  0.3664 -0.1276  0.0220
  838MOL0     H15596   2.744   2.308   6.856 -2.2907 -0.9636 -2.9977
  838MOL0     H15597   2.781   2.468   6.801  0.0511  0.5217  1.2818
  838MOL0     H15598   2.585   2.549   6.984  0.5627  1.1113  1.2328
  838MOL0     H15599   2.636   2.400   7.058 -1.2175  2.2265  1.2416
  838MOL0     H15600   2.858   2.481   7.070  1.7919  1.5803 -0.5518
  838MOL0     H15601   2.828   2.633   6.964  0.6940  0.8176  0.9768
  838MOL0     H15602   3.012   2.712   7.090  1.4965 -2.4234  0.5410
  838MOL0     H15603   3.304   2.704   7.277 -0.9819  0.6071  1.5963
  838MOL0     H15604   3.251   2.861   7.209 -0.3950  0.4171  2.2604
  838MOL0     H15605   3.228   2.713   7.123  1.3631  0.7094 -0.1102
  838MOL0     H15606   3.357   2.977   7.585  2.3742  1.7264  0.6786
  838MOL0     H15607   3.522   3.041   7.783  1.0068  0.0325  2.0215
  838MOL0     H15608   3.405   2.984   8.169 -1.9600 -3.3654  1.6535
  838MOL0     H15609   3.485   2.826   8.171 -1.0591  0.3144 -0.7065
  838MOL0     H15610   3.709   2.964   8.161  1.1480 -0.7646  1.7852
  838MOL0     H15611   3.606   3.099   8.191  1.9158  0.6909 -1.5888
  838MOL0     H15612   3.695   3.042   8.390  1.5478 -1.5928  0.1131
  838MOL0     H15613   3.667   2.868   8.386 -0.0051  0.0949  0.4238
  838MOL0     H15614   3.424   2.913   8.417  1.2955  0.3002  1.4318
  838MOL0     H15615   3.456   3.088   8.414 -0.1875  0.3960 -1.9367
  838MOL0     H15616   3.447   3.013   8.654 -1.8736 -5.1613  0.0938
  838MOL0     H15617   3.568   2.889   8.621 -0.0422 -0.2909 -0.1792
  838MOL0     H15618   3.735   3.050   8.609 -0.1407 -1.6780  2.3701
  838MOL0     H15619   3.637   3.109   8.734  0.4484 -2.3880  0.1589
  838MOL0     H15620   3.560   3.306   8.642  1.1686  1.8897 -1.2361
  838MOL0     H15621   3.593   3.241   8.478  0.9773 -4.6538 -1.2464
  838MOL0     H15622   3.827   3.280   8.502  0.2577 -0.1072 -0.0802
  838MOL0     H15623   3.829   3.299   8.669 -0.2514  1.0500 -0.0766
  838MOL0     H15624   3.291   2.789   8.032 -3.1167 -2.9381 -2.3276
  838MOL0     H15625   3.111   2.779   7.869 -0.0109  1.6457  2.3097
  838MOL0     H15626   2.910   2.654   7.573  1.4901 -1.8192 -0.4605
  838MOL0     H15627   2.741   2.604   7.411  0.3179 -1.0530  1.6922
  838MOL0     H15628   1.843   1.818   5.465  1.0213 -0.3406  0.7223
  838MOL0     H15629   1.836   1.849   5.227 -2.1251  3.0107 -1.1133
  838MOL0     H15630   2.093   2.093   4.844  0.6480 -0.5527  1.3770
  838MOL0     H15631   2.139   2.069   4.625  0.1317 -1.4339 -0.3290
  838MOL0     H15632   2.075   1.988   4.262  0.6075 -0.5934 -0.3525
  838MOL0     H15633   2.096   2.094   4.405  1.9428  0.4323 -0.6813
  838MOL0     H15634   2.232   1.822   4.345  0.1273 -1.3651  1.9810
  838MOL0     H15635   2.252   1.903   4.500  0.1803 -1.5672  0.1378
  838MOL0     H15636   2.320   2.027   4.239  2.1181  1.4372 -1.6340
  838MOL0     H15637   2.364   2.100   4.397 -1.6025 -0.2003 -1.3647
  838MOL0     H15638   2.465   1.833   4.403  1.8881  0.8836  1.7209
  838MOL0     H15639   2.564   1.983   4.412 -0.6803  3.2115 -1.2042
  838MOL0     H15640   2.653   1.849   4.030 -0.4772 -1.6980  0.3191
  838MOL0     H15641   1.810   1.808   4.569 -0.2004 -0.0328 -0.0402
  838MOL0     H15642   1.727   1.757   4.917  0.4515  4.0075  0.2562
  838MOL0     H15643   1.622   1.860   4.827  0.0193  2.1611  1.8016
  838MOL0     H15644   1.708   1.716   4.745 -0.5602 -0.0313  0.2003
  839MOL0     O15645   4.958   1.208   5.789 -0.1876  0.3481 -0.6287
  839MOL0     C15646   4.884   1.106   5.794 -0.6047 -0.5234  0.1699
  839MOL0     O15647   4.754   1.105   5.777  0.2511  0.5748 -0.1083
  839MOL0     C15648   4.695   1.224   5.768  0.1318 -0.3533 -0.0155
  839MOL0     C15649   4.613   1.251   5.659 -0.7293  0.1057 -0.5151
  839MOL0     C15650   4.550   1.377   5.642  0.6811 -0.8822 -0.6082
  839MOL0     C15651   4.565   1.482   5.730 -0.0847  0.4903 -1.0217
  839MOL0     O15652   4.504   1.603   5.685  0.2746  0.2834  0.4694
  839MOL0     C15653   4.589   1.713   5.655  0.3452  0.1137 -0.2808
  839MOL0     C15654   4.536   1.839   5.730  0.7726 -1.2129  0.3882
  839MOL0     C15655   4.509   1.826   5.878  0.5959  0.0396  0.4474
  839MOL0     C15656   4.479   1.963   5.941 -0.2202  0.6140  0.2464
  839MOL0     C15657   4.429   1.947   6.083  0.4238 -0.0866 -0.1394
  839MOL0     C15658   4.413   2.086   6.159  0.0050  0.3126  0.1702
  839MOL0     C15659   4.346   2.053   6.293  0.8064  0.9675 -0.2899
  839MOL0     C15660   4.349   2.178   6.376  0.3175 -0.1784  0.4513
  839MOL0     N15661   4.313   2.150   6.508  0.9293  0.0434  0.5918
  839MOL0     C15662   4.357   2.232   6.611 -0.1788 -0.6946 -0.1206
  839MOL0     C15663   4.297   2.177   6.722 -0.1084 -0.7181 -0.4951
  839MOL0     C15664   4.289   2.255   6.850  0.1201 -0.8814  0.2204
  839MOL0     C15665   4.310   2.167   6.969  0.3537  0.1355  0.0988
  839MOL0     C15666   4.313   2.240   7.101 -0.4688  0.5498  0.1068
  839MOL0     C15667   4.349   2.133   7.209  0.8266 -0.0355  0.4312
  839MOL0     O15668   4.404   2.185   7.333 -0.0468 -0.2095 -0.2938
  839MOL0     C15669   4.401   2.091   7.434  0.5954  0.2494 -0.3063
  839MOL0     C15670   4.291   2.019   7.474 -0.1759 -0.1790 -0.0390
  839MOL0     C15671   4.289   1.936   7.586 -0.5981  0.6669 -0.5615
  839MOL0     C15672   4.155   1.876   7.629 -0.4037  0.4227  0.4791
  839MOL0     C15673   4.413   1.925   7.666  0.2109 -1.2951 -0.1797
  839MOL0     C15674   4.433   1.840   7.790  0.4163  0.1374 -0.5914
  839MOL0     O15675   4.536   1.858   7.878  0.1615 -0.2866 -0.1310
  839MOL0     C15676   4.567   1.767   7.975  0.3861  0.0044 -0.0678
  839MOL0     C15677   4.480   1.735   8.085 -1.1878  0.3231  0.3236
  839MOL0     C15678   4.524   1.639   8.184 -0.3037 -0.0566 -0.7497
  839MOL0     C15679   4.651   1.586   8.177  0.0572 -0.3813  0.1577
  839MOL0     O15680   4.705   1.496   8.269 -0.3107  0.2302 -0.1780
  839MOL0     C15681   4.675   1.513   8.413  0.0662  0.4013 -0.2219
  839MOL0     C15682   4.768   1.439   8.512  0.6613  0.8548 -0.4799
  839MOL0     C15683   4.759   1.288   8.500 -0.9195 -0.3060 -0.6150
  839MOL0     C15684   4.894   1.239   8.467 -0.0629 -0.2858 -0.0861
  839MOL0     C15685   4.891   1.092   8.435 -0.0227  1.1041 -1.1373
  839MOL0     C15686   5.028   1.039   8.389  0.1839  0.0329  0.4845
  839MOL0     C15687   5.033   0.884   8.353  0.3137 -0.4880  0.6387
  839MOL0     C15688   4.941   0.873   8.227 -0.2442  0.8061  0.4032
  839MOL0    Cl15689   4.949   0.706   8.154  0.1112 -0.1168 -0.2309
  839MOL0     C15690   4.733   1.625   8.074  0.1164  0.1642 -1.0009
  839MOL0     C15691   4.695   1.714   7.977  0.1900 -0.8146 -0.0146
  839MOL0     O15692   4.356   1.744   7.795 -0.0667 -0.6601 -0.8453
  839MOL0     C15693   4.516   2.012   7.629  0.1063  0.1604 -0.4284
  839MOL0     C15694   4.519   2.083   7.511  0.9428 -0.2005 -0.1934
  839MOL0     N15695   4.230   2.063   6.688 -1.1192 -0.6939 -0.0591
  839MOL0     N15696   4.254   2.040   6.558  0.0321  0.5061 -0.3415
  839MOL0     C15697   4.637   1.461   5.849 -0.9523  0.5576 -1.3267
  839MOL0     C15698   4.707   1.330   5.861 -0.3613  0.0963  0.2815
  839MOL0     C15699   4.956   0.975   5.822 -0.2133  0.7682  0.9407
  839MOL0     C15700   5.091   0.977   5.874  0.7224 -0.1306 -0.2154
  839MOL0     C15701   5.152   0.853   5.905  0.3594 -0.3165 -0.9488
  839MOL0     C15702   5.093   0.734   5.884  0.7766  0.1862  0.4144
  839MOL0     O15703   5.148   0.603   5.917  0.6016 -1.0344 -0.1768
  839MOL0     C15704   5.275   0.596   5.980 -0.0227  0.0031  0.3643
  839MOL0     C15705   5.284   0.456   6.043 -0.2056 -0.2060  0.1631
  839MOL0     C15706   5.423   0.446   6.103 -0.4919 -0.1366 -0.4897
  839MOL0     C15707   5.426   0.322   6.198 -0.2377 -0.0948  1.1578
  839MOL0     C15708   5.399   0.367   6.335  0.6569  0.5318  0.2446
  839MOL0     C15709   5.389   0.396   6.449  0.2811  0.3544  0.0044
  839MOL0     C15710   4.969   0.734   5.811  0.4994  1.0526  0.1718
  839MOL0     C15711   4.899   0.854   5.775 -0.8972 -0.0940 -0.7600
  839MOL0     C15712   4.783   0.854   5.689  0.9467  0.4753 -0.2915
  839MOL0     H15713   4.604   1.173   5.584  3.5034 -2.7295  1.5416
  839MOL0     H15714   4.497   1.393   5.548  1.0838 -3.9474 -1.4522
  839MOL0     H15715   4.591   1.728   5.547 -1.0838 -0.8580 -0.4559
  839MOL0     H15716   4.688   1.680   5.691 -0.3739 -1.0941  0.6754
  839MOL0     H15717   4.612   1.918   5.728  2.5327 -2.7753  2.0475
  839MOL0     H15718   4.442   1.880   5.693  0.6952  0.4611  2.2826
  839MOL0     H15719   4.425   1.761   5.904  1.2123 -0.6210  0.8317
  839MOL0     H15720   4.594   1.795   5.939 -0.6335  0.8386  2.6419
  839MOL0     H15721   4.572   2.020   5.936  0.2904 -0.3126 -1.8296
  839MOL0     H15722   4.391   2.011   5.897 -1.0409 -0.2416  0.8990
  839MOL0     H15723   4.489   1.889   6.154 -0.3830  0.1151  0.7359
  839MOL0     H15724   4.330   1.901   6.076 -1.2070  3.4008 -3.5448
  839MOL0     H15725   4.513   2.131   6.159 -0.3810  1.2010 -0.4000
  839MOL0     H15726   4.362   2.162   6.099 -0.6460 -2.7986 -3.5944
  839MOL0     H15727   4.408   1.981   6.347  0.6116  1.3801  0.4911
  839MOL0     H15728   4.252   2.000   6.276  1.8109 -0.4608 -1.7044
  839MOL0     H15729   4.452   2.213   6.374 -0.5941  2.9843  2.0653
  839MOL0     H15730   4.287   2.251   6.323 -1.1052 -1.1515  0.6901
  839MOL0     H15731   4.411   2.326   6.604 -2.5318  0.8325  1.0081
  839MOL0     H15732   4.196   2.312   6.851  2.0709  2.7513 -1.5720
  839MOL0     H15733   4.374   2.325   6.848  0.9514 -1.8411  0.7870
  839MOL0     H15734   4.230   2.093   6.974  0.4810  0.0254  0.5083
  839MOL0     H15735   4.404   2.112   6.958 -0.9473 -2.1370 -0.1775
  839MOL0     H15736   4.389   2.318   7.103  0.4754 -0.3367  2.1888
  839MOL0     H15737   4.214   2.271   7.136 -1.2807 -0.3783 -1.2602
  839MOL0     H15738   4.268   2.060   7.222  1.4970 -1.0442 -0.8444
  839MOL0     H15739   4.436   2.079   7.171  1.5823  1.0702  0.5475
  839MOL0     H15740   4.201   2.035   7.415  0.1419  2.3349  0.0320
  839MOL0     H15741   4.154   1.866   7.738 -0.9228  1.3512  0.5653
  839MOL0     H15742   4.137   1.781   7.578  1.2115 -0.2104  1.0275
  839MOL0     H15743   4.079   1.950   7.603  0.1245  0.3502 -1.3877
  839MOL0     H15744   4.381   1.778   8.075 -0.5877  1.5723 -0.6449
  839MOL0     H15745   4.456   1.606   8.261  0.5916 -2.0446 -0.7339
  839MOL0     H15746   4.691   1.617   8.443 -1.1930  0.3542  0.6653
  839MOL0     H15747   4.574   1.481   8.442  0.1574  1.0222  0.8508
  839MOL0     H15748   4.872   1.471   8.500  1.7814 -2.4318 -0.4809
  839MOL0     H15749   4.741   1.483   8.609 -0.1872 -0.7175  0.0353
  839MOL0     H15750   4.690   1.253   8.423 -1.8251  1.3171 -0.5794
  839MOL0     H15751   4.728   1.251   8.598  1.4452  3.1971  1.7132
  839MOL0     H15752   4.966   1.253   8.547 -1.0349 -1.9721  1.1338
  839MOL0     H15753   4.928   1.289   8.375  0.2642  1.6166  1.0134
  839MOL0     H15754   4.855   1.040   8.524 -3.7825  3.6283 -0.9636
  839MOL0     H15755   4.812   1.059   8.367 -2.3381 -0.1250  1.9319
  839MOL0     H15756   5.098   1.052   8.473 -0.3306 -2.6081  1.4247
  839MOL0     H15757   5.064   1.100   8.306  1.7506 -2.3205 -0.6894
  839MOL0     H15758   5.008   0.811   8.430  1.8950  0.7203  2.3886
  839MOL0     H15759   5.137   0.866   8.327  0.8162  1.7928  0.8694
  839MOL0     H15760   4.970   0.943   8.148 -0.6493 -0.6354 -1.0901
  839MOL0     H15761   4.834   0.881   8.247 -0.1427 -1.2782  2.2001
  839MOL0     H15762   4.836   1.592   8.073  0.1238  0.1519 -0.4113
  839MOL0     H15763   4.773   1.741   7.906  2.7472 -1.4615  2.3883
  839MOL0     H15764   4.605   2.016   7.691  0.8851 -0.3573 -1.4921
  839MOL0     H15765   4.607   2.139   7.480  0.7278 -0.2252 -0.8625
  839MOL0     H15766   4.655   1.536   5.925  1.2749 -0.9171 -0.3140
  839MOL0     H15767   4.753   1.324   5.959  0.2117  0.8672  0.0688
  839MOL0     H15768   5.136   1.071   5.905 -0.2542 -0.0452  1.0277
  839MOL0     H15769   5.246   0.857   5.959  0.0225 -2.0181 -0.1807
  839MOL0     H15770   5.347   0.609   5.899 -0.8963 -1.2658 -0.6559
  839MOL0     H15771   5.294   0.676   6.053  1.0542 -0.4404  0.5922
  839MOL0     H15772   5.280   0.371   5.975 -1.2394 -1.8950  2.2058
  839MOL0     H15773   5.205   0.450   6.118 -1.5193 -0.2161 -1.1772
  839MOL0     H15774   5.498   0.440   6.023 -0.8033 -1.5651 -0.7055
  839MOL0     H15775   5.434   0.537   6.162 -3.0594 -1.4791  2.3031
  839MOL0     H15776   5.529   0.286   6.207  0.4888  1.6778  0.4217
  839MOL0     H15777   5.366   0.241   6.156  2.5483  0.0360 -3.6988
  839MOL0     H15778   5.393   0.400   6.556  2.5777  0.1944 -0.0247
  839MOL0     H15779   4.937   0.635   5.778  2.6233  0.2851  0.2455
  839MOL0     H15780   4.693   0.825   5.744  0.6563 -1.1814 -1.5570
  839MOL0     H15781   4.779   0.942   5.623  0.5756  0.8485  0.2154
  839MOL0     H15782   4.798   0.771   5.620 -1.5375 -0.3596  0.0556
  840MOL0     O15783   3.825  11.307   5.573 -0.2929  0.1241 -0.5447
  840MOL0     C15784   3.734  11.300   5.653  0.5594  0.4194  0.6594
  840MOL0     O15785   3.746  11.327   5.789  0.0300  0.3160  0.7003
  840MOL0     C15786   3.840  11.410   5.836  0.0785  0.4328 -0.8617
  840MOL0     C15787   3.835  11.544   5.810 -0.4271 -0.1455 -0.3487
  840MOL0     C15788   3.926  11.636   5.852  0.2086  0.5491 -0.4124
  840MOL0     C15789   4.033  11.597   5.941  0.6174 -0.1418  0.6173
  840MOL0     O15790   4.116  11.691   5.987 -0.5620 -0.5659  0.0868
  840MOL0     C15791   4.241  11.694   5.919 -0.2485 -0.1534 -0.9144
  840MOL0     C15792   4.322  11.819   5.975 -0.6102 -0.4851  0.0411
  840MOL0     C15793   4.237  11.938   6.021  0.6686  0.0801 -0.0771
  840MOL0     C15794   4.305  12.073   6.010  0.0605  0.2585  0.6061
  840MOL0     C15795   4.224  12.179   6.081 -0.0461  0.1040 -0.4574
  840MOL0     C15796   4.208  12.164   6.232  0.3091 -0.2848  0.1987
  840MOL0     C15797   4.131  12.283   6.290 -1.2328  0.7270  0.5452
  840MOL0     C15798   3.990  12.296   6.226  0.3268  0.4870  0.7412
  840MOL0     N15799   3.909  12.371   6.321 -0.8366  0.5248  0.0280
  840MOL0     C15800   3.913  12.503   6.339  0.4308 -0.1098 -0.6484
  840MOL0     C15801   3.807  12.540   6.419  0.3488  0.3565  0.0426
  840MOL0     C15802   3.773  12.677   6.477 -0.2092 -0.1598 -1.0089
  840MOL0     C15803   3.729  12.782   6.370  0.0992  0.9355 -0.8871
  840MOL0     C15804   3.841  12.828   6.280  0.1210  0.5095  0.5640
  840MOL0     C15805   3.794  12.935   6.183  1.5621  0.3191 -0.2136
  840MOL0     O15806   3.706  12.862   6.097 -0.1527 -1.1558  0.1839
  840MOL0     C15807   3.653  12.950   6.001 -0.1007  0.1672 -0.7742
  840MOL0     C15808   3.587  12.891   5.889 -0.0536  0.5244 -0.3885
  840MOL0     C15809   3.505  12.959   5.793 -0.1653 -0.6114 -0.3181
  840MOL0     C15810   3.456  12.875   5.675  0.2367  0.2153 -0.2338
  840MOL0     C15811   3.475  13.102   5.825 -0.8151  1.2148  0.6519
  840MOL0     C15812   3.373  13.178   5.748 -1.0701 -0.0614 -0.5689
  840MOL0     O15813   3.346  13.306   5.789  0.2969  0.3332  0.4135
  840MOL0     C15814   3.241  13.374   5.730  0.4401  0.2474  0.7797
  840MOL0     C15815   3.122  13.310   5.670  0.4237 -0.0086  0.1505
  840MOL0     C15816   3.032  13.385   5.598 -0.1957 -0.0695 -0.0172
  840MOL0     C15817   3.043  13.525   5.599 -0.0105 -0.2919 -0.1661
  840MOL0     O15818   2.963  13.601   5.525  1.1344  0.6983  0.7616
  840MOL0     C15819   3.017  13.664   5.416  0.6041 -0.5833  0.0799
  840MOL0     C15820   2.941  13.797   5.409  0.6483  1.2294 -0.5402
  840MOL0     C15821   2.796  13.795   5.385 -0.6712 -0.1761 -0.5596
  840MOL0     C15822   2.760  13.796   5.244  0.2321  0.0158  0.4287
  840MOL0     C15823   2.602  13.792   5.215  0.5853  0.2391 -0.5431
  840MOL0     C15824   2.556  13.757   5.077 -0.0570  1.0851  0.5841
  840MOL0     C15825   2.411  13.712   5.057  0.7323 -0.1238  0.0895
  840MOL0     C15826   2.371  13.718   4.911 -0.2881  1.1108  0.0526
  840MOL0    Cl15827   2.446  13.580   4.824  0.3531 -0.3326  0.0699
  840MOL0     C15828   3.150  13.590   5.673 -0.7584 -0.5767 -0.4520
  840MOL0     C15829   3.254  13.516   5.735 -1.0941  0.3917  1.0462
  840MOL0     O15830   3.340  13.122   5.642 -0.3775  0.5407  0.7879
  840MOL0     C15831   3.540  13.160   5.935 -0.3482  0.2010  0.5611
  840MOL0     C15832   3.633  13.086   6.020  0.8575 -0.4250  0.3921
  840MOL0     N15833   3.735  12.417   6.435  0.3906 -1.0550  0.0761
  840MOL0     N15834   3.796  12.324   6.372  0.5923  0.1552  0.0886
  840MOL0     C15835   4.044  11.461   5.973  1.0723 -0.1402  0.0152
  840MOL0     C15836   3.944  11.366   5.925  0.1032 -0.2332  0.3046
  840MOL0     C15837   3.605  11.245   5.608  1.0413 -1.2852  0.3714
  840MOL0     C15838   3.483  11.310   5.656 -0.2451  0.1815  0.7829
  840MOL0     C15839   3.354  11.264   5.624 -0.3804  0.3849 -0.1279
  840MOL0     C15840   3.338  11.137   5.568  0.2443  0.0250 -0.5950
  840MOL0     O15841   3.213  11.086   5.572  0.0318  0.4059 -0.2371
  840MOL0     C15842   3.190  10.947   5.520 -0.0534  0.3031 -0.3551
  840MOL0     C15843   3.188  10.862   5.651  0.0763 -0.2498  0.8064
  840MOL0     C15844   3.069  10.901   5.740  0.7317  0.5566 -0.3988
  840MOL0     C15845   2.925  10.853   5.699 -0.0275  0.1441 -0.1497
  840MOL0     C15846   2.820  10.906   5.782 -0.3621  1.2196  0.5355
  840MOL0     C15847   2.722  10.939   5.842 -0.8278 -0.5345 -0.6572
  840MOL0     C15848   3.455  11.069   5.515 -0.7308 -0.1546 -0.3186
  840MOL0     C15849   3.586  11.128   5.530 -0.1210 -0.6503  0.4392
  840MOL0     C15850   3.707  11.039   5.498 -0.6324 -0.3861  0.7458
  840MOL0     H15851   3.775  11.576   5.725  2.7911  1.2131 -2.2776
  840MOL0     H15852   3.926  11.741   5.825  0.2706  0.4261 -0.9051
  840MOL0     H15853   4.230  11.707   5.811 -0.3537 -0.8771 -0.9984
  840MOL0     H15854   4.294  11.600   5.940 -0.5859  0.0687  1.1591
  840MOL0     H15855   4.378  11.788   6.064  0.1734 -1.3548 -0.7420
  840MOL0     H15856   4.404  11.836   5.906  0.1498  0.0985  1.0606
  840MOL0     H15857   4.152  11.942   5.953  0.7932  2.7520 -0.1874
  840MOL0     H15858   4.199  11.918   6.121 -0.9510  0.2314 -0.6354
  840MOL0     H15859   4.402  12.063   6.061  1.3960 -1.3621 -2.0211
  840MOL0     H15860   4.324  12.094   5.905  0.2365  0.9104  0.7668
  840MOL0     H15861   4.123  12.183   6.040 -0.2602 -1.7085 -0.1986
  840MOL0     H15862   4.278  12.271   6.057  0.0713 -0.7845 -4.2999
  840MOL0     H15863   4.154  12.070   6.251  2.6216 -1.1284  3.5505
  840MOL0     H15864   4.308  12.164   6.276  1.0084  0.5291 -1.3147
  840MOL0     H15865   4.201  12.364   6.266 -2.9695  3.3441  3.5175
  840MOL0     H15866   4.120  12.274   6.398 -0.8352 -2.1618  0.4187
  840MOL0     H15867   3.988  12.337   6.125 -0.0477 -4.9068 -1.7886
  840MOL0     H15868   3.933  12.202   6.222 -1.8839  1.8018 -0.3595
  840MOL0     H15869   4.001  12.564   6.319 -0.6982  0.6583 -3.6640
  840MOL0     H15870   3.860  12.707   6.536 -2.4811 -0.6287  2.9317
  840MOL0     H15871   3.689  12.669   6.547  1.6460 -3.1987  1.1195
  840MOL0     H15872   3.642  12.741   6.317  0.3352  1.0367 -1.3559
  840MOL0     H15873   3.695  12.868   6.427 -0.5392  0.0210  0.1451
  840MOL0     H15874   3.921  12.869   6.342  1.3353 -1.8769  0.6629
  840MOL0     H15875   3.875  12.749   6.213 -0.8041  2.4488 -2.4147
  840MOL0     H15876   3.734  13.011   6.234 -0.2421 -0.2455 -1.3639
  840MOL0     H15877   3.880  12.968   6.125  0.3146  0.5543 -2.0138
  840MOL0     H15878   3.612  12.788   5.868 -0.3885  0.3782 -0.0733
  840MOL0     H15879   3.482  12.929   5.583  0.9616  0.2223 -0.0330
  840MOL0     H15880   3.348  12.862   5.673  0.3965 -1.7603  0.9300
  840MOL0     H15881   3.509  12.779   5.676  0.8797  0.5559 -0.7789
  840MOL0     H15882   3.111  13.205   5.696 -2.1472  0.2346  0.2478
  840MOL0     H15883   2.944  13.342   5.551 -1.2627  0.7002  1.2204
  840MOL0     H15884   3.125  13.676   5.427  0.6109  0.8671 -1.2908
  840MOL0     H15885   2.992  13.608   5.325 -2.3068  0.3798  0.1845
  840MOL0     H15886   2.955  13.840   5.509  1.6479 -1.7495  0.7261
  840MOL0     H15887   2.997  13.861   5.341 -0.2488 -0.8799 -3.4533
  840MOL0     H15888   2.751  13.876   5.443 -0.0096 -0.6920  0.7276
  840MOL0     H15889   2.742  13.702   5.407  3.3581 -2.9254 -1.1437
  840MOL0     H15890   2.798  13.702   5.202  3.2090  1.6009 -0.7705
  840MOL0     H15891   2.809  13.875   5.186  1.6090 -1.9405 -1.2260
  840MOL0     H15892   2.560  13.715   5.281 -0.2429 -1.6443 -3.1381
  840MOL0     H15893   2.565  13.891   5.242 -1.4371 -0.1732 -1.6461
  840MOL0     H15894   2.614  13.666   5.055 -3.6148 -1.3509  0.5267
  840MOL0     H15895   2.583  13.829   4.998  0.0751 -1.3044 -1.6912
  840MOL0     H15896   2.345  13.778   5.115  2.4510  1.6322  0.1561
  840MOL0     H15897   2.398  13.614   5.103  0.9357 -0.9685 -1.5650
  840MOL0     H15898   2.393  13.816   4.868  0.7161  0.7315 -0.3415
  840MOL0     H15899   2.264  13.698   4.910  0.3230 -3.0555  0.2900
  840MOL0     H15900   3.158  13.697   5.684  0.8998 -0.5775 -1.2858
  840MOL0     H15901   3.331  13.564   5.793 -1.0919  1.4257  0.2106
  840MOL0     H15902   3.520  13.264   5.957  3.3500  1.2883 -0.4457
  840MOL0     H15903   3.674  13.144   6.102 -2.3948 -2.5543  3.8674
  840MOL0     H15904   4.133  11.451   6.034  1.9519  2.1115 -0.7855
  840MOL0     H15905   3.944  11.263   5.959  0.7245 -1.2176 -2.3875
  840MOL0     H15906   3.496  11.390   5.728 -0.3398  2.2832 -1.3968
  840MOL0     H15907   3.269  11.324   5.656 -1.5079 -0.5607 -1.2306
  840MOL0     H15908   3.096  10.934   5.465  0.4536 -2.8346 -0.6466
  840MOL0     H15909   3.268  10.908   5.453 -0.9362 -1.1153 -0.5914
  840MOL0     H15910   3.283  10.880   5.702  1.4772  1.2411 -2.0447
  840MOL0     H15911   3.185  10.758   5.617 -2.6123  0.4307 -1.4668
  840MOL0     H15912   3.080  10.855   5.839 -1.0493  0.1608 -0.3435
  840MOL0     H15913   3.065  11.009   5.760  0.5050  0.6295 -0.8184
  840MOL0     H15914   2.924  10.745   5.716  0.6746 -0.5720 -3.7708
  840MOL0     H15915   2.917  10.873   5.592  0.9800  1.2102 -0.0402
  840MOL0     H15916   2.635  10.950   5.905  0.4124 -0.7054  1.1810
  840MOL0     H15917   3.453  10.966   5.480 -1.7492  0.1343 -1.1278
  840MOL0     H15918   3.806  11.068   5.535 -0.7398 -1.0875  1.5947
  840MOL0     H15919   3.693  10.935   5.528 -1.0963 -0.7667 -0.7093
  840MOL0     H15920   3.717  11.028   5.390  0.7438  0.5648  0.7362
  841MOL0     O15921   1.089   2.660   2.677  0.2437 -0.6419  0.0770
  841MOL0     C15922   1.162   2.622   2.589 -0.4710  0.8008  0.2948
  841MOL0     O15923   1.187   2.494   2.556  0.4776  0.4335 -0.1516
  841MOL0     C15924   1.119   2.393   2.614  0.1792  0.4013  0.1962
  841MOL0     C15925   0.991   2.368   2.567  0.3359  0.1097  0.0778
  841MOL0     C15926   0.907   2.279   2.624 -0.8412 -0.0725  0.4068
  841MOL0     C15927   0.949   2.202   2.731 -0.4949 -0.4689 -0.3876
  841MOL0     O15928   0.868   2.119   2.791 -0.7088  0.8229  0.4795
  841MOL0     C15929   0.755   2.179   2.864 -0.2066  0.5675  0.3396
  841MOL0     C15930   0.671   2.079   2.943  0.6643 -0.0466 -0.0768
  841MOL0     C15931   0.647   1.957   2.851 -0.2176 -0.4840  0.1147
  841MOL0     C15932   0.574   1.838   2.914 -0.2413 -0.2465  0.0370
  841MOL0     C15933   0.551   1.718   2.821 -0.6246 -0.9141  0.2420
  841MOL0     C15934   0.488   1.595   2.894  0.0790  0.0261 -0.2147
  841MOL0     C15935   0.579   1.534   3.000 -0.2809 -0.2765  1.0712
  841MOL0     C15936   0.523   1.405   3.062  0.5356  0.0262 -0.8128
  841MOL0     N15937   0.415   1.435   3.150  0.3980  0.7438 -0.6689
  841MOL0     C15938   0.419   1.519   3.258  0.3266 -0.3372 -0.2003
  841MOL0     C15939   0.296   1.495   3.321 -0.0647  0.5446 -0.6953
  841MOL0     C15940   0.237   1.572   3.446 -0.4239  0.6478  1.0806
  841MOL0     C15941   0.094   1.602   3.427  0.9886  0.7586 -0.1142
  841MOL0     C15942   0.045   1.703   3.533 -0.3209 -0.2408 -0.4452
  841MOL0     C15943  -0.094   1.750   3.509 -0.2792 -1.0457 -0.7984
  841MOL0     O15944  -0.136   1.767   3.368 -0.7650  0.5784 -0.5724
  841MOL0     C15945  -0.273   1.767   3.339 -0.0719  0.1908  0.3722
  841MOL0     C15946  -0.339   1.875   3.283 -0.9883 -0.2210 -0.6715
  841MOL0     C15947  -0.476   1.876   3.251  0.3973  0.3799  0.1649
  841MOL0     C15948  -0.529   2.002   3.187 -0.4157  0.6616 -0.2769
  841MOL0     C15949  -0.554   1.757   3.280 -0.6396 -0.5392 -0.4989
  841MOL0     C15950  -0.705   1.748   3.259  1.2446 -0.6664  0.6035
  841MOL0     O15951  -0.771   1.648   3.329  0.7838  0.0727  0.3211
  841MOL0     C15952  -0.913   1.636   3.315  0.0579  0.0392  0.3727
  841MOL0     C15953  -0.993   1.740   3.368  0.0298  0.0315  0.0344
  841MOL0     C15954  -1.132   1.731   3.352 -0.9092 -0.6967  0.2576
  841MOL0     C15955  -1.193   1.631   3.279  1.0474  0.5809  0.1570
  841MOL0     O15956  -1.328   1.616   3.257 -0.9654 -0.1377  0.1006
  841MOL0     C15957  -1.408   1.652   3.373  0.7006  0.7311  1.3220
  841MOL0     C15958  -1.521   1.555   3.391  0.6096 -0.0688  0.1007
  841MOL0     C15959  -1.478   1.419   3.430  0.3454  0.6523 -0.9057
  841MOL0     C15960  -1.580   1.308   3.458  0.3259 -0.5427 -1.2836
  841MOL0     C15961  -1.705   1.334   3.380  0.6282  0.3201  0.2227
  841MOL0     C15962  -1.813   1.223   3.419  0.9648 -0.2539  0.4035
  841MOL0     C15963  -1.853   1.224   3.574  0.3776  0.3311  0.5217
  841MOL0     C15964  -1.945   1.107   3.607  0.4427  0.0161  0.2407
  841MOL0    Cl15965  -1.981   1.118   3.780 -0.0243 -0.2584 -0.7130
  841MOL0     C15966  -1.110   1.538   3.212  0.1732  0.3741  1.1825
  841MOL0     C15967  -0.971   1.534   3.234 -0.1801 -0.8517 -0.0527
  841MOL0     O15968  -0.757   1.830   3.187  0.4364  0.4445  1.2894
  841MOL0     C15969  -0.487   1.646   3.327 -0.1722  0.1117 -0.2677
  841MOL0     C15970  -0.350   1.649   3.362 -0.5460  0.1521  0.2571
  841MOL0     N15971   0.234   1.390   3.255  0.4419 -0.6217  1.2516
  841MOL0     N15972   0.308   1.351   3.162 -0.2145  0.4976  0.2653
  841MOL0     C15973   1.079   2.221   2.779 -0.0731  0.1622 -0.2032
  841MOL0     C15974   1.172   2.314   2.721  0.9093  0.5569 -0.4181
  841MOL0     C15975   1.256   2.713   2.522 -0.1625  0.5111  0.1666
  841MOL0     C15976   1.315   2.662   2.401 -0.6958  0.3412  0.6134
  841MOL0     C15977   1.413   2.733   2.343 -0.7143  0.6489 -1.0702
  841MOL0     C15978   1.461   2.853   2.384 -0.1886  0.2095  0.1057
  841MOL0     O15979   1.568   2.904   2.310  0.9250  0.2370  0.4351
  841MOL0     C15980   1.623   3.034   2.337  0.2581  0.2290 -0.8043
  841MOL0     C15981   1.722   3.060   2.226  0.7827 -0.0702 -0.4544
  841MOL0     C15982   1.751   3.206   2.232  0.3575  0.7573  0.1288
  841MOL0     C15983   1.770   3.258   2.089 -0.3134  0.6643  0.9443
  841MOL0     C15984   1.640   3.279   2.020 -0.3833 -0.6229 -0.4707
  841MOL0     C15985   1.529   3.270   1.977 -0.6901  0.2827  0.0764
  841MOL0     C15986   1.404   2.915   2.493  0.4403  0.2756  0.6136
  841MOL0     C15987   1.296   2.841   2.569 -0.4259  0.6382 -0.9635
  841MOL0     C15988   1.248   2.897   2.696 -0.6380  0.2132 -0.4788
  841MOL0     H15989   0.967   2.425   2.478  0.3901 -1.3113 -0.8754
  841MOL0     H15990   0.801   2.269   2.603 -0.6813 -2.1991  0.4133
  841MOL0     H15991   0.683   2.220   2.792 -2.9366 -1.4027  1.7616
  841MOL0     H15992   0.786   2.261   2.930 -0.8807  1.3433 -0.2835
  841MOL0     H15993   0.711   2.042   3.038  0.3198 -1.1376 -0.3462
  841MOL0     H15994   0.572   2.114   2.974  1.9625  2.5766  1.5713
  841MOL0     H15995   0.584   1.980   2.765 -0.9117  0.2719  0.8075
  841MOL0     H15996   0.741   1.917   2.811 -1.5774 -1.0172 -2.7504
  841MOL0     H15997   0.643   1.806   2.993  1.2006  0.5762 -0.8431
  841MOL0     H15998   0.479   1.871   2.956  1.8623  2.6052  3.0442
  841MOL0     H15999   0.642   1.685   2.771 -1.5764 -2.2423 -0.6566
  841MOL0     H16000   0.473   1.754   2.754  1.0275  1.4530 -0.5385
  841MOL0     H16001   0.397   1.621   2.948  0.4137 -0.7821  0.7649
  841MOL0     H16002   0.459   1.512   2.830  3.7371 -1.9602  0.4136
  841MOL0     H16003   0.595   1.607   3.080  3.3851  0.3390 -0.0411
  841MOL0     H16004   0.676   1.517   2.953 -2.0304  0.9075 -3.4670
  841MOL0     H16005   0.504   1.331   2.983 -2.9804  0.8423 -0.9026
  841MOL0     H16006   0.586   1.343   3.126  0.8435 -3.0923 -3.8128
  841MOL0     H16007   0.482   1.603   3.287  1.8222 -1.2772 -0.5846
  841MOL0     H16008   0.294   1.664   3.464  1.7671 -0.3061 -0.5989
  841MOL0     H16009   0.259   1.502   3.527  1.7665 -0.1409 -0.1109
  841MOL0     H16010   0.080   1.652   3.330  0.5765  0.5373 -0.1724
  841MOL0     H16011   0.037   1.509   3.428 -0.4721  1.6130  0.3493
  841MOL0     H16012   0.062   1.660   3.632 -2.2850  2.8802  1.3969
  841MOL0     H16013   0.102   1.793   3.511 -1.3531  0.7243  0.6888
  841MOL0     H16014  -0.162   1.684   3.563 -0.2861  0.4960  1.1892
  841MOL0     H16015  -0.100   1.845   3.562  1.0830 -1.1301 -0.4547
  841MOL0     H16016  -0.279   1.961   3.254 -1.6417 -0.0156 -1.4295
  841MOL0     H16017  -0.447   2.070   3.166 -0.8112  0.7588 -1.5699
  841MOL0     H16018  -0.598   2.048   3.258 -0.0542  0.7956 -0.0111
  841MOL0     H16019  -0.578   1.972   3.094 -0.9672  0.4466  0.0775
  841MOL0     H16020  -0.950   1.823   3.423  0.0284  0.1207 -0.1004
  841MOL0     H16021  -1.195   1.815   3.378  0.5111  1.0031 -1.4770
  841MOL0     H16022  -1.354   1.654   3.468 -3.1623 -2.2872  3.9245
  841MOL0     H16023  -1.446   1.753   3.354  0.8444  0.2140 -2.6881
  841MOL0     H16024  -1.577   1.591   3.477 -0.0532  2.0769 -1.1260
  841MOL0     H16025  -1.574   1.557   3.295  1.4456  0.9804 -0.3598
  841MOL0     H16026  -1.411   1.432   3.515  1.4035  1.8587 -1.8828
  841MOL0     H16027  -1.420   1.379   3.346 -2.2879 -4.1952 -0.7399
  841MOL0     H16028  -1.604   1.314   3.564  2.2031  2.9968 -0.9117
  841MOL0     H16029  -1.544   1.207   3.438  3.1100 -0.1329  1.0021
  841MOL0     H16030  -1.762   1.426   3.390  2.3773  1.6110 -1.0753
  841MOL0     H16031  -1.684   1.320   3.273 -1.8238 -3.6506  0.0331
  841MOL0     H16032  -1.783   1.121   3.394 -0.1962 -0.6660  0.6716
  841MOL0     H16033  -1.906   1.236   3.363  0.6594 -0.4178  0.8669
  841MOL0     H16034  -1.893   1.323   3.599  4.7831  2.8272 -1.0511
  841MOL0     H16035  -1.771   1.207   3.645  0.3561  1.4872  0.8496
  841MOL0     H16036  -1.896   1.012   3.587 -1.6140 -1.1471  0.4574
  841MOL0     H16037  -2.038   1.119   3.550 -0.6871  0.8046  2.1132
  841MOL0     H16038  -1.159   1.473   3.140 -0.9419  1.3005  1.0694
  841MOL0     H16039  -0.909   1.464   3.179  2.0797  2.5355 -2.2025
  841MOL0     H16040  -0.535   1.549   3.337 -0.2003  0.1251 -0.2734
  841MOL0     H16041  -0.315   1.555   3.403 -0.3645 -0.0757 -0.4178
  841MOL0     H16042   1.117   2.141   2.842  0.3464 -0.6515 -1.4621
  841MOL0     H16043   1.275   2.324   2.754  0.5950 -0.9971  1.1502
  841MOL0     H16044   1.303   2.562   2.359 -0.1615 -0.2136  1.7428
  841MOL0     H16045   1.459   2.683   2.258 -1.1301 -1.0140 -0.3490
  841MOL0     H16046   1.548   3.113   2.327  0.1778  0.1214 -1.0582
  841MOL0     H16047   1.670   3.039   2.436  1.1507 -1.7600 -1.0755
  841MOL0     H16048   1.682   3.025   2.130  1.2102  0.0705 -0.6843
  841MOL0     H16049   1.816   3.007   2.242  0.3223  0.1815  4.8346
  841MOL0     H16050   1.679   3.268   2.286 -0.3304 -0.5208  0.7321
  841MOL0     H16051   1.850   3.217   2.278 -0.5093  2.0367  1.8073
  841MOL0     H16052   1.840   3.195   2.034  1.4106  1.2034  2.4072
  841MOL0     H16053   1.808   3.359   2.104  0.4342  0.5756 -0.2314
  841MOL0     H16054   1.425   3.274   1.952 -0.6111  1.5701 -0.0886
  841MOL0     H16055   1.454   3.003   2.534 -0.0765  1.9134 -2.0594
  841MOL0     H16056   1.258   2.828   2.781  2.9361  0.3203 -0.6462
  841MOL0     H16057   1.310   2.983   2.723 -1.4457  0.0211  2.3053
  841MOL0     H16058   1.145   2.932   2.699 -0.6677  0.2100 -1.4205
  842MOL0     O16059  11.137   5.115   7.648 -0.1307 -0.2836  0.0873
  842MOL0     C16060  11.245   5.075   7.687 -0.2806 -0.1824  0.3368
  842MOL0     O16061  11.259   4.993   7.791 -0.2451  0.0565 -0.3295
  842MOL0     C16062  11.179   4.881   7.808  1.1526  0.3101 -0.7860
  842MOL0     C16063  11.140   4.848   7.935  0.0459 -0.0512  0.7578
  842MOL0     C16064  11.079   4.728   7.967  0.6554  0.4636  0.6290
  842MOL0     C16065  11.054   4.637   7.856  0.3615 -0.3420 -0.2318
  842MOL0     O16066  10.982   4.522   7.866 -0.2063  0.5848  0.5393
  842MOL0     C16067  10.858   4.518   7.934  0.6216  0.6042 -0.2017
  842MOL0     C16068  10.875   4.428   8.061 -0.3040  0.6012  0.1976
  842MOL0     C16069  10.747   4.359   8.113 -0.4939  0.3455  0.1107
  842MOL0     C16070  10.772   4.281   8.245  0.3657 -0.3939 -0.4820
  842MOL0     C16071  10.632   4.243   8.299 -0.0889  0.2845 -0.2632
  842MOL0     C16072  10.544   4.357   8.346  0.0246  0.2909 -0.7930
  842MOL0     C16073  10.406   4.311   8.404 -0.2042  0.5483  0.8175
  842MOL0     C16074  10.321   4.224   8.307  0.2232 -0.8590  0.4084
  842MOL0     N16075  10.182   4.225   8.348 -0.0777 -0.1289  0.0296
  842MOL0     C16076  10.133   4.207   8.475  0.2484  0.1395  0.3502
  842MOL0     C16077  10.002   4.202   8.463 -0.2034  0.0027  1.1822
  842MOL0     C16078   9.892   4.165   8.556  0.5127 -0.1897 -0.4071
  842MOL0     C16079   9.757   4.112   8.515  0.4038 -0.0051  0.2290
  842MOL0     C16080   9.696   4.020   8.616 -0.1951  0.2164 -0.1083
  842MOL0     C16081   9.631   4.090   8.730 -0.3464 -0.5703 -0.9856
  842MOL0     O16082   9.512   4.165   8.695  0.1284  0.4947 -0.6590
  842MOL0     C16083   9.388   4.122   8.747 -0.3585  0.4055  0.4520
  842MOL0     C16084   9.362   4.020   8.838 -0.5086  0.5205  0.0809
  842MOL0     C16085   9.233   3.992   8.896 -0.2825 -0.1025 -0.0466
  842MOL0     C16086   9.220   3.897   9.013 -0.5530 -0.7283  0.1252
  842MOL0     C16087   9.123   4.079   8.859  0.6386 -0.2278 -0.9873
  842MOL0     C16088   8.985   4.076   8.894 -0.2507 -0.2319 -0.0621
  842MOL0     O16089   8.899   4.182   8.860 -0.0649 -0.5037 -0.1945
  842MOL0     C16090   8.768   4.185   8.915  0.5767 -0.5419 -0.0296
  842MOL0     C16091   8.727   4.306   8.966 -0.2015  0.3660 -0.4170
  842MOL0     C16092   8.600   4.321   9.022  0.7457  0.8660 -0.2625
  842MOL0     C16093   8.513   4.213   9.028 -0.4259  0.8486  0.2226
  842MOL0     O16094   8.390   4.216   9.082  0.0128 -0.4371 -0.5784
  842MOL0     C16095   8.309   4.106   9.104  0.1813  0.3629  0.2792
  842MOL0     C16096   8.218   4.129   9.230 -0.0091  0.6262  0.4177
  842MOL0     C16097   8.150   3.993   9.281  1.1602  0.0185 -0.7926
  842MOL0     C16098   8.248   3.894   9.355  0.0856  0.9411  0.0114
  842MOL0     C16099   8.246   3.888   9.515  0.3090 -0.4186 -0.5417
  842MOL0     C16100   8.264   4.019   9.596 -0.2734  0.4583 -0.1653
  842MOL0     C16101   8.130   4.104   9.607  0.4767  0.2124 -0.5294
  842MOL0     C16102   8.153   4.222   9.699 -0.5520  0.2292 -0.1488
  842MOL0    Cl16103   8.185   4.173   9.865  0.0238 -0.0709  0.2000
  842MOL0     C16104   8.557   4.092   8.963  0.1515 -0.2382  0.2645
  842MOL0     C16105   8.679   4.081   8.906  0.1671  0.3719  0.8145
  842MOL0     O16106   8.943   3.969   8.940 -0.3077  0.3117 -0.6239
  842MOL0     C16107   9.151   4.184   8.775  0.4635 -0.3250  1.1891
  842MOL0     C16108   9.278   4.207   8.724  0.2623 -0.2996 -0.4644
  842MOL0     N16109   9.972   4.196   8.326  0.2775  0.2885 -0.0058
  842MOL0     N16110  10.078   4.210   8.259 -0.6714  0.0954 -0.4182
  842MOL0     C16111  11.108   4.670   7.727 -0.9013  0.5851  0.1282
  842MOL0     C16112  11.165   4.792   7.702 -0.2854 -0.1699  0.4952
  842MOL0     C16113  11.374   5.136   7.630 -0.2250 -0.6619 -0.9517
  842MOL0     C16114  11.483   5.152   7.715 -0.0399 -0.2679 -0.6338
  842MOL0     C16115  11.602   5.216   7.673 -0.0263  0.5070 -0.0476
  842MOL0     C16116  11.617   5.268   7.546  0.6053  0.7749  0.3295
  842MOL0     O16117  11.735   5.323   7.500 -0.2891 -1.0442  0.3623
  842MOL0     C16118  11.820   5.231   7.435  0.6006  1.0188 -0.3848
  842MOL0     C16119  11.933   5.190   7.526  0.1148 -0.0040  0.6249
  842MOL0     C16120  12.027   5.099   7.445 -0.6327  0.8338  0.6490
  842MOL0     C16121  12.131   5.023   7.530  0.1327 -0.5815  0.4598
  842MOL0     C16122  12.184   4.898   7.467 -0.1720  0.2397 -0.2092
  842MOL0     C16123  12.247   4.800   7.424  0.1085  0.0448 -0.0574
  842MOL0     C16124  11.507   5.250   7.450  0.1005  0.6624  0.7380
  842MOL0     C16125  11.385   5.189   7.496 -0.1864  0.6392  0.2015
  842MOL0     C16126  11.263   5.175   7.402  0.0268 -0.2397 -0.5111
  842MOL0     H16127  11.173   4.916   8.012  4.1667  0.0722 -0.8756
  842MOL0     H16128  11.055   4.704   8.070 -2.2450  1.3119  0.2450
  842MOL0     H16129  10.778   4.476   7.872 -0.7381 -1.7867  2.8998
  842MOL0     H16130  10.826   4.620   7.957 -0.9066  0.3518 -1.0804
  842MOL0     H16131  10.948   4.350   8.038  1.0954  1.8313  0.2469
  842MOL0     H16132  10.916   4.485   8.145 -1.4808 -0.6261  1.6557
  842MOL0     H16133  10.671   4.437   8.117  1.2198  2.1254 -0.3032
  842MOL0     H16134  10.712   4.274   8.053 -2.2101 -0.1679  1.7424
  842MOL0     H16135  10.835   4.198   8.211  1.4144  1.2759 -2.9205
  842MOL0     H16136  10.822   4.347   8.317 -0.9350  1.1267 -0.8958
  842MOL0     H16137  10.649   4.174   8.383 -1.3454  1.2487  0.8322
  842MOL0     H16138  10.578   4.190   8.220  3.8259 -1.7186 -1.8601
  842MOL0     H16139  10.590   4.418   8.424  1.5528  0.2962 -1.6543
  842MOL0     H16140  10.517   4.422   8.262 -1.9079  1.4086  0.6170
  842MOL0     H16141  10.344   4.399   8.427 -0.5102  1.1742 -2.0404
  842MOL0     H16142  10.424   4.250   8.493 -0.5322  1.0840  1.2623
  842MOL0     H16143  10.328   4.267   8.207  0.7407 -2.1960 -0.1565
  842MOL0     H16144  10.358   4.121   8.303  1.7646 -0.3581  0.9235
  842MOL0     H16145  10.179   4.216   8.573  1.0693  1.1743 -0.1104
  842MOL0     H16146   9.873   4.249   8.624 -2.4030 -0.7044 -0.4405
  842MOL0     H16147   9.945   4.089   8.614  0.9800  0.8117  0.5308
  842MOL0     H16148   9.697   4.202   8.498  3.1406  1.7226 -0.9070
  842MOL0     H16149   9.757   4.050   8.426  0.3312 -1.8682  1.4770
  842MOL0     H16150   9.616   3.963   8.568  0.8052  0.0769 -1.6835
  842MOL0     H16151   9.766   3.941   8.644  1.5258  1.4717 -0.7101
  842MOL0     H16152   9.613   4.018   8.810  0.6554 -0.4081 -0.6020
  842MOL0     H16153   9.699   4.160   8.781 -0.6889 -0.5164 -0.5967
  842MOL0     H16154   9.441   3.952   8.866  1.0737  2.6770  1.1470
  842MOL0     H16155   9.128   3.840   8.997  0.0466 -1.1875 -2.0045
  842MOL0     H16156   9.206   3.959   9.102  0.9272 -1.0707  0.6216
  842MOL0     H16157   9.303   3.826   9.016 -0.2479 -0.3549  0.7221
  842MOL0     H16158   8.800   4.386   8.966  0.3796 -0.0940  1.9639
  842MOL0     H16159   8.566   4.413   9.068 -2.1588  0.3430 -1.1634
  842MOL0     H16160   8.258   4.099   9.007  0.0247 -1.9794  0.4726
  842MOL0     H16161   8.359   4.011   9.125  1.6429  0.9506 -0.3917
  842MOL0     H16162   8.286   4.164   9.308  1.0852  0.3211 -0.3714
  842MOL0     H16163   8.159   4.216   9.200 -2.8716 -1.6569 -1.0788
  842MOL0     H16164   8.111   3.941   9.193  0.5903 -0.9336 -0.0017
  842MOL0     H16165   8.062   4.015   9.341  1.7474  0.4315 -0.0585
  842MOL0     H16166   8.350   3.891   9.315 -0.5390 -1.0735 -1.5818
  842MOL0     H16167   8.208   3.802   9.313 -2.6400  2.1691 -0.3236
  842MOL0     H16168   8.144   3.851   9.532 -0.8331  1.7489 -2.1693
  842MOL0     H16169   8.317   3.809   9.540 -0.2794 -0.2990  1.7648
  842MOL0     H16170   8.334   4.079   9.537  0.2506  2.2090  2.0724
  842MOL0     H16171   8.307   4.004   9.696 -2.1887  2.6132  1.0704
  842MOL0     H16172   8.039   4.052   9.637  0.3286 -0.2610 -1.7375
  842MOL0     H16173   8.103   4.157   9.514  0.6930  1.6393  0.1882
  842MOL0     H16174   8.073   4.296   9.704 -1.7780 -1.1546  2.8583
  842MOL0     H16175   8.244   4.272   9.663 -0.4406  1.6531  1.9420
  842MOL0     H16176   8.492   4.005   8.961 -2.9714  1.8056  3.2953
  842MOL0     H16177   8.704   3.984   8.864  1.1505  0.1185  1.9264
  842MOL0     H16178   9.082   4.254   8.729  2.5681  0.0825 -1.6208
  842MOL0     H16179   9.297   4.299   8.669  0.7075 -0.1267 -0.0319
  842MOL0     H16180  11.110   4.592   7.652 -1.2399  1.2412 -0.5729
  842MOL0     H16181  11.199   4.834   7.608  0.7259 -0.1867  0.8313
  842MOL0     H16182  11.480   5.105   7.813 -0.4955  1.5845  0.2879
  842MOL0     H16183  11.676   5.220   7.752 -0.9806  2.3105  0.8080
  842MOL0     H16184  11.772   5.142   7.393  0.7464  1.5024 -1.6296
  842MOL0     H16185  11.873   5.284   7.355  0.9605 -0.3491 -1.0884
  842MOL0     H16186  11.892   5.142   7.615  1.3170 -0.0668  1.1637
  842MOL0     H16187  11.987   5.276   7.567  0.9262 -0.0846 -0.2164
  842MOL0     H16188  11.966   5.020   7.402  0.4727  0.6216 -0.5854
  842MOL0     H16189  12.070   5.157   7.363 -1.7246 -0.5831 -0.9899
  842MOL0     H16190  12.088   4.992   7.626 -0.8274 -1.1697 -0.1480
  842MOL0     H16191  12.207   5.101   7.537 -1.4279  1.4357 -2.8683
  842MOL0     H16192  12.310   4.719   7.395  1.0490  1.0752 -0.9914
  842MOL0     H16193  11.529   5.275   7.347  2.5048  1.8384  1.4698
  842MOL0     H16194  11.299   5.161   7.300  2.0376  0.5648  0.0465
  842MOL0     H16195  11.217   5.078   7.425 -2.1671 -0.9763 -6.3397
  842MOL0     H16196  11.194   5.259   7.418  2.7134  2.1324 -0.6500
  843MOL0     O16197  11.478   3.674  11.145  0.1822 -0.6672 -0.0074
  843MOL0     C16198  11.380   3.680  11.065 -0.6405  0.1140 -0.0583
  843MOL0     O16199  11.388   3.737  10.935 -0.3796  0.1000  0.6139
  843MOL0     C16200  11.513   3.741  10.880 -0.6969 -0.0157  0.4508
  843MOL0     C16201  11.604   3.833  10.924 -1.4989 -1.5185  0.3889
  843MOL0     C16202  11.738   3.842  10.866  0.2180 -0.3043 -0.1215
  843MOL0     C16203  11.764   3.767  10.748  0.4208 -0.0263  0.2205
  843MOL0     O16204  11.888   3.756  10.687  0.0656  0.1098 -0.5955
  843MOL0     C16205  12.016   3.790  10.743  0.7667  0.0415  0.1304
  843MOL0     C16206  12.057   3.943  10.741 -0.1204  0.3363  0.6855
  843MOL0     C16207  12.064   3.994  10.593 -0.5482 -0.2788  0.2813
  843MOL0     C16208  12.181   3.927  10.513  0.2428 -0.0642  0.3659
  843MOL0     C16209  12.232   4.015  10.399  0.5824 -0.7750  0.2202
  843MOL0     C16210  12.346   3.951  10.326  0.3498  0.6921 -0.7192
  843MOL0     C16211  12.432   4.051  10.247 -0.5134  0.6145 -0.0911
  843MOL0     C16212  12.355   4.117  10.137  0.9942  1.0358  0.1090
  843MOL0     N16213  12.416   4.240  10.075  0.4718  0.1370 -1.0818
  843MOL0     C16214  12.541   4.241  10.029 -0.8282  0.9118 -0.1278
  843MOL0     C16215  12.572   4.367   9.996  0.0547  0.0746 -0.7095
  843MOL0     C16216  12.701   4.426   9.952  0.4995  0.1158  1.4026
  843MOL0     C16217  12.678   4.573  10.000  0.1254  0.2201  0.3134
  843MOL0     C16218  12.810   4.653   9.994 -0.4272  1.0793 -0.4129
  843MOL0     C16219  12.818   4.733   9.868 -0.1898 -0.0491 -0.0644
  843MOL0     O16220  12.941   4.803   9.846 -0.5627  0.2587  0.2649
  843MOL0     C16221  13.064   4.732   9.844  0.0524  0.0137  0.4550
  843MOL0     C16222  13.077   4.595   9.809  0.1050 -0.0636  0.3664
  843MOL0     C16223  13.202   4.526   9.805  0.3152 -0.0341 -0.0219
  843MOL0     C16224  13.206   4.378   9.770  0.0932 -0.2032 -0.0952
  843MOL0     C16225  13.319   4.607   9.815 -1.4444 -0.6636 -0.7684
  843MOL0     C16226  13.458   4.559   9.826 -0.2689 -0.3877 -0.4074
  843MOL0     O16227  13.560   4.647   9.791 -0.0124 -0.1325  0.7535
  843MOL0     C16228  13.686   4.617   9.833 -0.2036  0.1185  1.0089
  843MOL0     C16229  13.751   4.500   9.779 -0.5714 -0.7113 -0.9974
  843MOL0     C16230  13.883   4.472   9.824  0.7069  0.7453 -0.0771
  843MOL0     C16231  13.945   4.550   9.913 -0.5525 -0.7562 -0.5656
  843MOL0     O16232  14.074   4.526   9.952 -0.2498 -0.6833  0.6111
  843MOL0     C16233  14.183   4.509   9.863 -0.0667  1.5394 -0.1468
  843MOL0     C16234  14.300   4.454   9.945 -0.6167  0.0415 -0.1941
  843MOL0     C16235  14.426   4.458   9.855  0.0259  0.7048 -0.3139
  843MOL0     C16236  14.511   4.584   9.856 -0.5990  0.0232 -0.2692
  843MOL0     C16237  14.615   4.581   9.748 -0.6066 -0.1854 -0.2517
  843MOL0     C16238  14.562   4.585   9.599 -0.0440 -0.0076 -0.5078
  843MOL0     C16239  14.660   4.581   9.490  0.2486  0.4028  0.0346
  843MOL0     C16240  14.593   4.589   9.350  0.6874  0.1976  1.0165
  843MOL0    Cl16241  14.533   4.752   9.333 -0.3220  0.0353  0.0044
  843MOL0     C16242  13.894   4.670   9.949 -0.3595 -0.1400  0.4144
  843MOL0     C16243  13.762   4.711   9.909 -0.4492  0.0911 -0.4302
  843MOL0     O16244  13.477   4.438   9.861 -0.4647  0.6393 -0.4010
  843MOL0     C16245  13.311   4.749   9.847  0.5852  0.4481 -0.3239
  843MOL0     C16246  13.178   4.810   9.865 -0.7074 -0.7859  0.0085
  843MOL0     N16247  12.451   4.434  10.015  0.1100  0.7860 -0.7661
  843MOL0     N16248  12.365   4.362  10.069 -0.2612  0.0004 -1.4450
  843MOL0     C16249  11.665   3.682  10.699  0.2358  0.1423  0.6314
  843MOL0     C16250  11.544   3.661  10.771 -0.1952 -0.0949 -0.2840
  843MOL0     C16251  11.247   3.646  11.111  1.1740  0.5155  0.9024
  843MOL0     C16252  11.245   3.601  11.239  0.0687  0.5323  0.7760
  843MOL0     C16253  11.126   3.554  11.302  0.3765 -0.6451 -0.3772
  843MOL0     C16254  11.009   3.573  11.238  0.4600 -0.4032  0.5701
  843MOL0     O16255  10.891   3.534  11.289  0.1351  0.2134 -0.5971
  843MOL0     C16256  10.882   3.425  11.389 -0.0888  0.0088  0.1364
  843MOL0     C16257  10.740   3.387  11.402 -0.1405  0.4478 -0.9107
  843MOL0     C16258  10.659   3.329  11.280  0.2553 -0.2807  0.2678
  843MOL0     C16259  10.525   3.289  11.317 -0.1268  0.8368  0.0278
  843MOL0     C16260  10.455   3.236  11.196 -0.1602 -0.8959 -0.6874
  843MOL0     C16261  10.406   3.196  11.099  0.4368 -0.4012  0.0823
  843MOL0     C16262  11.009   3.612  11.105  0.3899  0.8463 -0.6529
  843MOL0     C16263  11.126   3.634  11.034  0.7162 -0.1074  0.2833
  843MOL0     C16264  11.119   3.662  10.883  0.1741  0.4966  0.0709
  843MOL0     H16265  11.586   3.905  11.004  2.2132  1.8026 -1.4339
  843MOL0     H16266  11.817   3.913  10.887  0.6068 -0.7550 -0.0494
  843MOL0     H16267  12.087   3.721  10.698  0.7933 -0.3102  0.7041
  843MOL0     H16268  12.010   3.758  10.847 -1.8642 -2.0023 -0.5390
  843MOL0     H16269  11.993   4.016  10.792  0.2975  1.9685 -1.0241
  843MOL0     H16270  12.158   3.951  10.782 -0.5130  0.9923  1.5740
  843MOL0     H16271  11.978   3.970  10.530 -2.8384  1.3281  2.6166
  843MOL0     H16272  12.064   4.103  10.594  0.2759 -0.2687  0.1432
  843MOL0     H16273  12.260   3.891  10.580  0.7746  1.0652  0.3709
  843MOL0     H16274  12.138   3.836  10.471 -0.7092  2.2186 -4.3173
  843MOL0     H16275  12.252   4.113  10.443 -3.4118 -0.8111  2.6952
  843MOL0     H16276  12.146   4.033  10.333  0.5152  2.3208  0.9840
  843MOL0     H16277  12.408   3.902  10.401  1.0091 -0.2956 -1.8586
  843MOL0     H16278  12.305   3.875  10.260 -0.1606 -0.2988  0.7114
  843MOL0     H16279  12.517   3.995  10.207  0.1914  1.3233  0.3962
  843MOL0     H16280  12.467   4.118  10.326  5.9776 -2.3156  0.1813
  843MOL0     H16281  12.326   4.047  10.057  0.7117  1.1441  0.1167
  843MOL0     H16282  12.265   4.156  10.186  1.7154  2.5490  0.2564
  843MOL0     H16283  12.602   4.153  10.011 -2.6970 -0.5293  0.2628
  843MOL0     H16284  12.697   4.432   9.843 -1.4279  2.4213  1.5061
  843MOL0     H16285  12.792   4.377   9.987  3.6038 -0.4436 -5.8606
  843MOL0     H16286  12.603   4.611   9.930  0.4537 -1.5592 -1.0791
  843MOL0     H16287  12.634   4.571  10.100  0.9705 -1.7005  0.7018
  843MOL0     H16288  12.820   4.726  10.075 -4.1291 -0.2943  1.4849
  843MOL0     H16289  12.892   4.584  10.010 -1.7265  0.1253  2.9374
  843MOL0     H16290  12.789   4.667   9.785 -2.6494  0.8465  0.0139
  843MOL0     H16291  12.731   4.798   9.879 -1.5221 -1.8057  0.3120
  843MOL0     H16292  12.991   4.530   9.793 -0.3258  0.2352  1.3710
  843MOL0     H16293  13.218   4.315   9.859 -0.2225 -1.0922 -0.6640
  843MOL0     H16294  13.286   4.356   9.698 -2.2203 -1.0595 -2.6004
  843MOL0     H16295  13.109   4.356   9.725 -0.8055  0.5808  1.4017
  843MOL0     H16296  13.700   4.432   9.712  1.5825 -0.8514 -2.5915
  843MOL0     H16297  13.938   4.383   9.795  2.7682  0.9639  2.7267
  843MOL0     H16298  14.148   4.436   9.790 -1.8419  0.9346  1.2241
  843MOL0     H16299  14.205   4.598   9.804  0.0651  1.3218 -0.4315
  843MOL0     H16300  14.317   4.504  10.041  0.6403 -0.6637 -0.0244
  843MOL0     H16301  14.277   4.353   9.980  1.0332  0.3101  1.8944
  843MOL0     H16302  14.404   4.439   9.749  1.8629  0.3408 -0.6529
  843MOL0     H16303  14.485   4.372   9.888 -0.7458  0.7215  1.1854
  843MOL0     H16304  14.562   4.594   9.952  0.9809 -1.0401 -0.9518
  843MOL0     H16305  14.439   4.664   9.837 -1.3704 -0.4638  0.5101
  843MOL0     H16306  14.676   4.670   9.766 -0.5292 -0.2305 -0.2906
  843MOL0     H16307  14.678   4.496   9.776 -1.9031 -0.5801  1.6586
  843MOL0     H16308  14.516   4.684   9.610  1.7275  0.5387  4.1747
  843MOL0     H16309  14.487   4.509   9.580  0.6769 -1.0187  0.5658
  843MOL0     H16310  14.725   4.494   9.499 -1.4222 -0.8721  0.1214
  843MOL0     H16311  14.718   4.674   9.492  0.3414  0.4084 -1.4582
  843MOL0     H16312  14.522   4.510   9.323 -1.7356  2.1531  1.2589
  843MOL0     H16313  14.666   4.576   9.269  0.1257 -1.3348  0.7210
  843MOL0     H16314  13.950   4.742  10.009  2.2208  0.3947 -2.3678
  843MOL0     H16315  13.719   4.807   9.935  3.3063  1.0899  3.1622
  843MOL0     H16316  13.403   4.802   9.869  0.7386  1.4962 -3.0998
  843MOL0     H16317  13.159   4.912   9.896 -3.7589 -2.1768  3.4689
  843MOL0     H16318  11.678   3.625  10.607 -1.5828  0.9729 -0.1802
  843MOL0     H16319  11.470   3.591  10.734  2.3361 -2.7100 -0.8031
  843MOL0     H16320  11.337   3.597  11.295  3.0323  2.2404 -3.4369
  843MOL0     H16321  11.130   3.526  11.407  2.3758  0.4731 -0.1165
  843MOL0     H16322  10.932   3.332  11.359  0.5772  0.1190  0.8883
  843MOL0     H16323  10.918   3.458  11.486 -2.2769  0.8200  0.7287
  843MOL0     H16324  10.699   3.482  11.438 -1.3967 -1.7413  4.2940
  843MOL0     H16325  10.736   3.316  11.486  0.7545  1.5705  0.1113
  843MOL0     H16326  10.648   3.414  11.212 -3.6865 -0.0100  0.9774
  843MOL0     H16327  10.707   3.248  11.224 -2.4527 -1.0263 -1.1540
  843MOL0     H16328  10.458   3.368  11.351  1.5781  3.1846 -1.7314
  843MOL0     H16329  10.525   3.211  11.394 -2.0398  0.1731 -0.5608
  843MOL0     H16330  10.378   3.173  10.998 -2.1372 -3.1814  1.2669
  843MOL0     H16331  10.911   3.621  11.060  0.2272  1.1144 -0.2578
  843MOL0     H16332  11.029   3.619  10.839  1.4047 -0.5175 -1.5674
  843MOL0     H16333  11.133   3.768  10.860  0.9503  0.0202 -1.9016
  843MOL0     H16334  11.196   3.608  10.827 -0.6221 -1.1312  0.4777
  844MOL0     O16335   6.797   9.341   6.958 -0.3761 -0.6804  0.0858
  844MOL0     C16336   6.797   9.455   6.913 -0.1451 -0.3827  0.6130
  844MOL0     O16337   6.807   9.490   6.779  0.0587 -0.8695 -0.2856
  844MOL0     C16338   6.835   9.388   6.688  0.0536 -0.0268  0.0207
  844MOL0     C16339   6.755   9.375   6.579  0.3355  0.6727  0.3874
  844MOL0     C16340   6.777   9.267   6.493  0.2476  0.7335  0.6127
  844MOL0     C16341   6.876   9.175   6.509 -0.6073  0.2507 -0.7926
  844MOL0     O16342   6.903   9.064   6.435  0.9559  1.2586  0.0471
  844MOL0     C16343   6.855   9.055   6.302  0.0235  0.5319 -0.2665
  844MOL0     C16344   6.914   8.923   6.245  0.6683  0.1105 -0.2164
  844MOL0     C16345   6.887   8.791   6.317 -0.3881 -0.9480 -0.4763
  844MOL0     C16346   7.010   8.700   6.319 -0.8900  0.4875 -0.0840
  844MOL0     C16347   6.985   8.561   6.379  0.7782 -0.1647 -0.2769
  844MOL0     C16348   7.011   8.559   6.528  0.6237  1.0548 -0.1870
  844MOL0     C16349   6.984   8.419   6.588 -0.0528 -0.2666 -0.4603
  844MOL0     C16350   6.992   8.430   6.739 -0.0918 -0.0659 -0.5911
  844MOL0     N16351   7.121   8.481   6.791 -0.0685  1.1544 -0.0767
  844MOL0     C16352   7.138   8.611   6.825  0.5980 -0.6418  0.1726
  844MOL0     C16353   7.262   8.604   6.887  0.1052  0.2909  0.1948
  844MOL0     C16354   7.334   8.713   6.963 -0.1296 -0.2014 -0.7473
  844MOL0     C16355   7.428   8.656   7.074  0.1756  0.1692 -0.5815
  844MOL0     C16356   7.512   8.754   7.128 -0.3421 -0.6952 -0.4365
  844MOL0     C16357   7.661   8.749   7.089 -0.5030 -0.3074 -1.0360
  844MOL0     O16358   7.726   8.878   7.072 -0.4809  1.0004  0.4038
  844MOL0     C16359   7.766   8.958   7.181 -0.3230  0.5940  0.5651
  844MOL0     C16360   7.810   8.911   7.307  0.5596  0.3085  1.3935
  844MOL0     C16361   7.819   9.003   7.415  0.4107  1.1175 -0.5351
  844MOL0     C16362   7.877   8.943   7.538  0.7448 -0.2415 -0.4052
  844MOL0     C16363   7.775   9.139   7.401 -0.4530  0.5597  0.3437
  844MOL0     C16364   7.773   9.237   7.513 -0.2831  0.0905 -0.4362
  844MOL0     O16365   7.712   9.353   7.494 -0.0055 -0.3557  0.2059
  844MOL0     C16366   7.729   9.449   7.589 -0.5482  0.3578  0.5402
  844MOL0     C16367   7.859   9.490   7.627  0.7530  0.4742  0.2956
  844MOL0     C16368   7.873   9.583   7.728 -0.2094  0.6033  0.2547
  844MOL0     C16369   7.765   9.627   7.806 -0.4233  0.0493  0.3323
  844MOL0     O16370   7.769   9.700   7.922  0.3802  0.0829 -0.3366
  844MOL0     C16371   7.883   9.787   7.943 -0.0872 -0.5569  0.0033
  844MOL0     C16372   7.855   9.879   8.059  0.1012 -0.4153  0.3477
  844MOL0     C16373   7.752   9.983   8.027 -0.1505  0.5440  0.1080
  844MOL0     C16374   7.679  10.030   8.152  1.2428 -0.1541 -1.0979
  844MOL0     C16375   7.551  10.108   8.117 -0.0781 -0.0444  0.0254
  844MOL0     C16376   7.487  10.183   8.244 -0.8826  0.0988  1.6335
  844MOL0     C16377   7.411  10.090   8.335  0.4062  0.4750 -0.1820
  844MOL0     C16378   7.339  10.169   8.442  0.4510  0.3048 -0.5010
  844MOL0    Cl16379   7.255  10.061   8.558  0.0979  0.0032  0.4856
  844MOL0     C16380   7.638   9.585   7.770 -0.0811  0.1628  1.1515
  844MOL0     C16381   7.619   9.500   7.658  0.3004 -0.2648  0.0181
  844MOL0     O16382   7.838   9.205   7.614  0.0255  0.9653  0.1048
  844MOL0     C16383   7.736   9.182   7.272  0.1469  0.7994 -0.0888
  844MOL0     C16384   7.733   9.089   7.161 -0.2075 -0.4682  0.2205
  844MOL0     N16385   7.320   8.479   6.860 -0.2771 -0.4145  0.2753
  844MOL0     N16386   7.234   8.409   6.796 -0.5162 -0.3243  0.8126
  844MOL0     C16387   6.948   9.192   6.621 -0.2499  0.5613 -0.3000
  844MOL0     C16388   6.938   9.300   6.704 -0.5906 -0.3848  0.3993
  844MOL0     C16389   6.772   9.570   7.000 -0.1039  0.1373  0.4847
  844MOL0     C16390   6.687   9.674   6.939 -0.9499 -0.6551 -0.3882
  844MOL0     C16391   6.669   9.802   6.996  0.9786 -0.5124  1.1349
  844MOL0     C16392   6.723   9.825   7.113  0.7389 -0.0739 -0.6163
  844MOL0     O16393   6.674   9.936   7.173 -0.2012 -0.3146 -0.9469
  844MOL0     C16394   6.773  10.030   7.226  0.5521 -0.1603  0.3708
  844MOL0     C16395   6.702  10.159   7.262 -0.1808 -0.2098  0.1081
  844MOL0     C16396   6.612  10.150   7.388  0.0597  0.3114 -0.4747
  844MOL0     C16397   6.474  10.216   7.370 -0.0964 -0.4431  0.0911
  844MOL0     C16398   6.488  10.359   7.368  0.1353  0.4879  0.8840
  844MOL0     C16399   6.485  10.480   7.347 -0.4364  0.5001 -0.1470
  844MOL0     C16400   6.800   9.725   7.183  0.2176  0.1214 -0.3485
  844MOL0     C16401   6.827   9.601   7.128 -0.7936  0.7004 -0.2218
  844MOL0     C16402   6.919   9.516   7.217 -0.1103  0.1793 -0.1773
  844MOL0     H16403   6.662   9.424   6.555  0.6076  0.5383 -1.0208
  844MOL0     H16404   6.712   9.267   6.406  1.8407  1.4462 -0.6318
  844MOL0     H16405   6.879   9.145   6.245 -2.0060  1.3405  0.0663
  844MOL0     H16406   6.746   9.043   6.296  0.0893 -1.9757  1.6822
  844MOL0     H16407   6.874   8.919   6.144 -0.3231 -0.7643  0.1854
  844MOL0     H16408   7.022   8.938   6.239  0.3138  2.8402 -0.6357
  844MOL0     H16409   6.855   8.817   6.419 -0.7004  0.2692 -0.8749
  844MOL0     H16410   6.803   8.735   6.275  0.4219 -1.1871 -1.8464
  844MOL0     H16411   7.037   8.669   6.217 -1.1525  0.8524 -0.2679
  844MOL0     H16412   7.095   8.748   6.368 -0.6722  1.3559 -1.2543
  844MOL0     H16413   7.053   8.492   6.329  0.0490 -1.0102 -0.1223
  844MOL0     H16414   6.883   8.534   6.351 -0.8033  3.1207  1.7406
  844MOL0     H16415   7.117   8.584   6.541  0.3144  2.3206  0.0476
  844MOL0     H16416   6.950   8.635   6.577 -1.4882 -0.5634 -0.1929
  844MOL0     H16417   7.061   8.349   6.555  2.6254 -0.0727  4.5376
  844MOL0     H16418   6.886   8.392   6.548 -2.1567  0.7308  3.5217
  844MOL0     H16419   6.915   8.501   6.771  0.0008  0.4401 -1.4677
  844MOL0     H16420   6.974   8.334   6.789  3.1633  0.6052  2.2798
  844MOL0     H16421   7.067   8.693   6.819  3.0775  1.5484 -0.9127
  844MOL0     H16422   7.252   8.774   7.002 -0.1477 -0.4021 -0.4667
  844MOL0     H16423   7.390   8.760   6.882  1.2257  0.3137  0.4442
  844MOL0     H16424   7.365   8.602   7.145 -1.8404  4.1078  0.9326
  844MOL0     H16425   7.485   8.579   7.021 -0.9489  0.2556 -1.9537
  844MOL0     H16426   7.479   8.853   7.096  1.4074  0.3706  0.8712
  844MOL0     H16427   7.504   8.749   7.237  0.9279 -3.2854 -0.3738
  844MOL0     H16428   7.711   8.690   7.166 -1.7442 -0.2616 -0.1648
  844MOL0     H16429   7.681   8.695   6.997 -0.4836 -0.6380 -0.8384
  844MOL0     H16430   7.828   8.805   7.313 -0.9835  0.0381  1.4996
  844MOL0     H16431   7.919   8.849   7.502  0.0485 -0.0149 -1.8948
  844MOL0     H16432   7.793   8.912   7.602  0.5348  0.2090 -0.4600
  844MOL0     H16433   7.944   9.002   7.600  0.6529 -1.4948  0.9682
  844MOL0     H16434   7.941   9.450   7.568 -2.6641 -2.2514 -3.1901
  844MOL0     H16435   7.977   9.594   7.757 -0.7081 -0.3884  2.7075
  844MOL0     H16436   7.977   9.731   7.951  0.1433 -0.4503 -1.6370
  844MOL0     H16437   7.898   9.858   7.861  0.0133  0.5872  0.9807
  844MOL0     H16438   7.833   9.825   8.152 -2.0280  1.6815  1.1448
  844MOL0     H16439   7.933   9.953   8.078  0.2955 -0.8386  1.2521
  844MOL0     H16440   7.677   9.932   7.966  0.5589  1.1764 -1.3688
  844MOL0     H16441   7.795  10.061   7.964 -0.2244 -0.2008 -0.8945
  844MOL0     H16442   7.742  10.090   8.218  1.7648 -0.4710 -1.3002
  844MOL0     H16443   7.653   9.945   8.215  1.3634  1.7345  1.6706
  844MOL0     H16444   7.572  10.192   8.051 -1.1999 -0.1737 -0.5247
  844MOL0     H16445   7.479  10.044   8.064 -1.5163  3.3481 -2.5090
  844MOL0     H16446   7.411  10.250   8.203 -0.4251 -1.5531 -2.3093
  844MOL0     H16447   7.566  10.242   8.290  0.6804 -1.8722  1.6304
  844MOL0     H16448   7.484  10.024   8.384  1.5546  1.8407  0.0017
  844MOL0     H16449   7.334  10.036   8.279  0.7282  1.3536 -1.4970
  844MOL0     H16450   7.266  10.233   8.393  0.6923  1.2630  0.3690
  844MOL0     H16451   7.407  10.235   8.496  0.9690  0.5535 -1.4276
  844MOL0     H16452   7.557   9.619   7.835 -0.1289 -0.0625  1.2094
  844MOL0     H16453   7.521   9.469   7.624 -0.3250  1.2087  0.3843
  844MOL0     H16454   7.715   9.288   7.258 -2.1764  0.3823 -0.1862
  844MOL0     H16455   7.706   9.120   7.061 -1.1041 -1.4128  0.1580
  844MOL0     H16456   7.036   9.131   6.640 -1.1877  0.2961  4.1174
  844MOL0     H16457   7.010   9.297   6.784  0.0248 -2.5955 -0.1793
  844MOL0     H16458   6.635   9.666   6.844  0.5718  1.5128 -1.5009
  844MOL0     H16459   6.597   9.860   6.939  2.9434  2.2684  1.2363
  844MOL0     H16460   6.827   9.987   7.311  0.7603 -2.0984 -0.6861
  844MOL0     H16461   6.843  10.043   7.143 -0.5130 -1.6471 -0.7933
  844MOL0     H16462   6.636  10.189   7.179 -1.7948  0.2388  1.4975
  844MOL0     H16463   6.778  10.233   7.289 -1.5113  0.1467  3.3698
  844MOL0     H16464   6.594  10.045   7.413 -0.0015  0.4890  0.2691
  844MOL0     H16465   6.671  10.185   7.474  0.7105 -1.7096 -0.0523
  844MOL0     H16466   6.419  10.184   7.459 -0.3437  2.1096  0.9184
  844MOL0     H16467   6.419  10.180   7.282  0.1152 -0.8399  0.1167
  844MOL0     H16468   6.485  10.581   7.313  0.7765  1.2633  1.9147
  844MOL0     H16469   6.848   9.738   7.280  4.3017 -1.6321 -1.8720
  844MOL0     H16470   6.910   9.414   7.178 -2.2774  1.0449 -2.1720
  844MOL0     H16471   7.025   9.545   7.212  0.1224 -0.5463  0.3274
  844MOL0     H16472   6.893   9.516   7.323  2.6386 -0.2041  0.5908
  845MOL0     O16473  10.780   6.708   9.371  0.7244  0.9638 -0.6547
  845MOL0     C16474  10.890   6.753   9.404 -0.9571  0.2081  0.5009
  845MOL0     O16475  11.001   6.671   9.441 -0.0117 -0.4358  0.1077
  845MOL0     C16476  10.981   6.536   9.443 -0.2932  0.2577  0.6619
  845MOL0     C16477  11.025   6.455   9.339 -1.2639 -0.2729  0.0629
  845MOL0     C16478  11.011   6.316   9.351  0.0991 -0.7275  0.4841
  845MOL0     C16479  10.939   6.261   9.453  0.3252  0.3157 -0.2474
  845MOL0     O16480  10.932   6.132   9.446  0.1789  0.0500  0.4074
  845MOL0     C16481  10.824   6.064   9.512 -0.2103 -0.0016 -0.1241
  845MOL0     C16482  10.829   5.914   9.500 -0.0453 -0.0700  0.1289
  845MOL0     C16483  10.940   5.839   9.571 -0.6256 -0.2189  0.8458
  845MOL0     C16484  11.058   5.817   9.474  0.1998 -0.2308  0.3218
  845MOL0     C16485  11.166   5.719   9.527 -0.0939 -0.1412  0.3079
  845MOL0     C16486  11.293   5.712   9.437 -1.3585  0.1910  0.5188
  845MOL0     C16487  11.389   5.600   9.482 -0.1129  0.3826  0.1197
  845MOL0     C16488  11.337   5.458   9.442 -0.8222  0.2961  0.6561
  845MOL0     N16489  11.449   5.364   9.457 -0.0018 -0.0317  0.0455
  845MOL0     C16490  11.485   5.293   9.573  0.9872 -1.1433  0.8924
  845MOL0     C16491  11.573   5.199   9.519 -0.1967 -0.3355 -0.1956
  845MOL0     C16492  11.639   5.081   9.583 -0.2537 -0.4020  0.1083
  845MOL0     C16493  11.795   5.069   9.569  0.0827 -0.3061  0.5683
  845MOL0     C16494  11.847   5.009   9.431  0.3510 -0.3929  0.2199
  845MOL0     C16495  11.987   5.052   9.401  0.1699  0.0543 -0.1200
  845MOL0     O16496  12.075   5.037   9.513  0.6034 -0.5600 -0.2955
  845MOL0     C16497  12.213   5.060   9.504  0.0512  0.4575  0.1320
  845MOL0     C16498  12.287   5.020   9.610  0.3046 -0.2696  0.0090
  845MOL0     C16499  12.420   5.047   9.630 -0.1868 -0.1641 -0.3461
  845MOL0     C16500  12.481   5.003   9.755  0.4723  0.4081  0.3389
  845MOL0     C16501  12.481   5.118   9.527 -0.5467  0.0404  0.3082
  845MOL0     C16502  12.620   5.159   9.540 -0.3458 -0.3204  0.2549
  845MOL0     O16503  12.654   5.249   9.637  0.0712 -0.3299 -0.1988
  845MOL0     C16504  12.781   5.295   9.619 -1.0230 -1.1841 -0.5415
  845MOL0     C16505  12.792   5.419   9.568  0.7117 -0.1199 -0.6434
  845MOL0     C16506  12.913   5.484   9.550 -0.4132  0.6186  0.6955
  845MOL0     C16507  13.038   5.411   9.578  0.3259  0.3636  0.2553
  845MOL0     O16508  13.168   5.452   9.551 -0.2227  0.3506 -1.1113
  845MOL0     C16509  13.182   5.577   9.498  0.3530 -0.7288  0.0963
  845MOL0     C16510  13.331   5.610   9.508  0.4620  0.3334 -0.1959
  845MOL0     C16511  13.378   5.670   9.633  1.0126 -0.6252  0.0418
  845MOL0     C16512  13.380   5.596   9.764 -0.1256  0.2290 -0.2989
  845MOL0     C16513  13.466   5.670   9.869  0.4126  0.3526  0.1603
  845MOL0     C16514  13.614   5.618   9.875  0.3648  0.1191  0.1911
  845MOL0     C16515  13.714   5.708   9.946 -0.2071  0.4954  0.1904
  845MOL0     C16516  13.715   5.699  10.100  0.8717  0.7780  0.1134
  845MOL0    Cl16517  13.786   5.548  10.170 -0.0645  0.0734  0.0324
  845MOL0     C16518  13.029   5.280   9.619 -0.4396  0.0487  0.2363
  845MOL0     C16519  12.905   5.220   9.643  0.8216  0.4261 -0.1764
  845MOL0     O16520  12.701   5.099   9.462  1.0472 -0.3357 -0.4521
  845MOL0     C16521  12.409   5.173   9.417  0.1585  0.6520 -0.0649
  845MOL0     C16522  12.274   5.138   9.405  0.1232 -0.3589 -0.0028
  845MOL0     N16523  11.596   5.226   9.384  0.3715 -0.8830  0.0589
  845MOL0     N16524  11.525   5.321   9.353  0.4659  0.2311  0.2534
  845MOL0     C16525  10.893   6.337   9.556  1.0522 -0.3968 -0.2924
  845MOL0     C16526  10.910   6.475   9.552 -0.4232 -0.9990  0.4896
  845MOL0     C16527  10.904   6.900   9.407 -0.1483 -0.2898 -0.6409
  845MOL0     C16528  11.037   6.950   9.420  0.2464  0.2304 -0.2481
  845MOL0     C16529  11.057   7.085   9.430 -0.3839 -1.5907 -0.5116
  845MOL0     C16530  10.941   7.178   9.421  0.3483  0.3786 -0.9828
  845MOL0     O16531  10.978   7.306   9.442  0.2975  0.7300 -0.3823
  845MOL0     C16532  10.889   7.412   9.408 -0.6569 -0.4624 -0.8290
  845MOL0     C16533  10.874   7.418   9.262  0.9821 -0.0436 -0.8738
  845MOL0     C16534  10.753   7.495   9.215  0.0386  0.8829  0.4895
  845MOL0     C16535  10.764   7.584   9.084  0.3321  0.2523 -0.2843
  845MOL0     C16536  10.658   7.686   9.070 -1.1067  0.5509 -0.0704
  845MOL0     C16537  10.578   7.773   9.041  0.0362  0.0027 -0.1038
  845MOL0     C16538  10.818   7.127   9.396 -0.5394  0.0195 -0.2564
  845MOL0     C16539  10.794   6.989   9.393 -0.1916  0.1892  0.6158
  845MOL0     C16540  10.640   6.951   9.389  0.7560 -0.8889 -1.1611
  845MOL0     H16541  11.081   6.491   9.253 -0.3797 -2.4309 -0.3539
  845MOL0     H16542  11.053   6.247   9.279 -0.5530  0.7478 -1.3812
  845MOL0     H16543  10.728   6.097   9.470  1.7485  1.5815 -3.8426
  845MOL0     H16544  10.819   6.080   9.620  0.7677 -2.3686  0.3213
  845MOL0     H16545  10.739   5.882   9.554  0.9652 -0.4322  1.6536
  845MOL0     H16546  10.816   5.893   9.393 -0.3876 -0.1368  0.1832
  845MOL0     H16547  10.975   5.898   9.656 -0.4024  3.8928 -1.8222
  845MOL0     H16548  10.899   5.745   9.608 -5.3043  0.8425 -0.9030
  845MOL0     H16549  11.024   5.778   9.377 -0.5705 -1.3007  0.9991
  845MOL0     H16550  11.106   5.914   9.457 -0.3079  0.0148  0.2659
  845MOL0     H16551  11.129   5.617   9.540  1.9076 -0.8443  0.9030
  845MOL0     H16552  11.198   5.756   9.625  2.8881 -1.8930  0.1100
  845MOL0     H16553  11.269   5.700   9.331  0.0080  0.1552  0.1939
  845MOL0     H16554  11.341   5.810   9.440 -4.2799  1.7321  0.7086
  845MOL0     H16555  11.392   5.597   9.591 -1.1045  0.4213  0.1558
  845MOL0     H16556  11.489   5.620   9.442  1.0796  0.4725  2.9167
  845MOL0     H16557  11.270   5.427   9.523 -2.4566 -0.4849 -0.9214
  845MOL0     H16558  11.292   5.460   9.342  2.2045  3.5034 -0.8241
  845MOL0     H16559  11.451   5.305   9.676  2.2931  1.9466  1.0926
  845MOL0     H16560  11.590   4.990   9.547 -3.3989  0.1313  2.5899
  845MOL0     H16561  11.635   5.076   9.693 -3.5993 -2.0783  0.0125
  845MOL0     H16562  11.839   5.167   9.590 -2.6941  0.7899  1.8343
  845MOL0     H16563  11.832   5.008   9.652 -2.7950 -0.7386  1.6762
  845MOL0     H16564  11.844   4.902   9.406  1.8868  0.4491 -4.6908
  845MOL0     H16565  11.781   5.057   9.359 -0.9929 -1.1645  0.8982
  845MOL0     H16566  12.020   4.987   9.319 -0.2419 -0.0383 -0.2115
  845MOL0     H16567  11.977   5.154   9.361 -0.4322 -0.3620 -1.0664
  845MOL0     H16568  12.231   4.965   9.685 -1.1612 -2.0553 -2.2842
  845MOL0     H16569  12.407   4.998   9.836 -2.9992  2.3912 -2.4130
  845MOL0     H16570  12.570   5.056   9.791  0.0142  1.6307 -0.2658
  845MOL0     H16571  12.506   4.898   9.741 -0.7542  0.2657 -1.0585
  845MOL0     H16572  12.699   5.475   9.559  0.0524 -0.9087  0.8356
  845MOL0     H16573  12.919   5.589   9.524  3.0287  0.7160  1.4289
  845MOL0     H16574  13.156   5.575   9.391  0.6457 -4.8461 -0.0309
  845MOL0     H16575  13.122   5.656   9.544 -2.1458 -0.5327 -3.0763
  845MOL0     H16576  13.387   5.517   9.498  0.3645  0.0034  1.8995
  845MOL0     H16577  13.352   5.681   9.427 -1.4462 -0.5074 -1.5045
  845MOL0     H16578  13.321   5.763   9.644 -0.2055 -1.0934 -1.8454
  845MOL0     H16579  13.480   5.698   9.605  1.0255 -1.6411 -1.0072
  845MOL0     H16580  13.414   5.494   9.744  2.9295  1.3556 -1.5055
  845MOL0     H16581  13.273   5.602   9.784 -0.6927 -0.5288 -2.7831
  845MOL0     H16582  13.458   5.776   9.841 -0.5601 -0.1347 -1.5497
  845MOL0     H16583  13.421   5.660   9.968  1.3060 -0.2028  0.5193
  845MOL0     H16584  13.639   5.606   9.769  1.1816 -1.2731  0.5129
  845MOL0     H16585  13.612   5.516   9.914  1.1131 -0.0652 -0.2291
  845MOL0     H16586  13.691   5.810   9.914 -2.0472 -0.5402 -2.1672
  845MOL0     H16587  13.813   5.690   9.902 -1.8242 -0.7153 -3.4246
  845MOL0     H16588  13.621   5.715  10.155  0.0877  1.4617 -1.3611
  845MOL0     H16589  13.776   5.781  10.138 -0.8582  0.2932  4.6490
  845MOL0     H16590  13.109   5.207   9.621 -1.0874 -0.8172 -1.8897
  845MOL0     H16591  12.893   5.119   9.679 -0.1005  0.9603  1.1088
  845MOL0     H16592  12.464   5.233   9.345  1.7207  2.6755  2.6043
  845MOL0     H16593  12.218   5.192   9.329  0.3448  1.9464  1.3487
  845MOL0     H16594  10.842   6.297   9.644 -0.1024 -0.1803 -0.8517
  845MOL0     H16595  10.879   6.538   9.635 -0.1410 -4.2238  3.2495
  845MOL0     H16596  11.119   6.880   9.429 -0.6497 -0.7255  1.0420
  845MOL0     H16597  11.158   7.119   9.451  0.1266 -1.7271 -2.5068
  845MOL0     H16598  10.799   7.398   9.470  0.0523 -0.2308  0.2851
  845MOL0     H16599  10.949   7.498   9.440  1.5643 -2.2845  0.1764
  845MOL0     H16600  10.853   7.320   9.218  2.6798 -0.6847 -0.3311
  845MOL0     H16601  10.963   7.466   9.218  0.9148 -0.1739 -1.1544
  845MOL0     H16602  10.660   7.438   9.209 -0.9172  2.4370 -0.0730
  845MOL0     H16603  10.725   7.575   9.285  0.0324  0.5043  0.9250
  845MOL0     H16604  10.759   7.519   8.996  3.6102 -3.0383  1.6860
  845MOL0     H16605  10.864   7.627   9.078  1.1309 -1.5915 -1.3032
  845MOL0     H16606  10.500   7.838   9.006 -0.2218 -0.8456 -1.1558
  845MOL0     H16607  10.730   7.191   9.391 -0.8851 -0.1019  2.4798
  845MOL0     H16608  10.579   7.039   9.412  1.1087 -1.3218  1.9605
  845MOL0     H16609  10.613   6.921   9.288  2.2444  0.4342 -2.0030
  845MOL0     H16610  10.617   6.866   9.454 -0.7460  2.0900  2.6116
  846MOL0     O16611  11.019  10.006   9.083  0.0153  0.8821 -0.8205
  846MOL0     C16612  10.988  10.118   9.054  1.2391  0.3500 -0.7310
  846MOL0     O16613  11.019  10.184   8.936  0.0872 -0.0199  0.1281
  846MOL0     C16614  11.109  10.129   8.847 -0.9186 -0.0438  0.4610
  846MOL0     C16615  11.247  10.133   8.873  0.3067  0.3135 -0.0576
  846MOL0     C16616  11.340  10.054   8.801  0.6592  0.2401 -0.2485
  846MOL0     C16617  11.290   9.959   8.708 -0.5943  0.5634 -0.2377
  846MOL0     O16618  11.379   9.873   8.644 -0.0582 -0.1812  0.9347
  846MOL0     C16619  11.336   9.819   8.516  0.7357  0.8758 -0.3087
  846MOL0     C16620  11.432   9.721   8.463  1.1135  0.4279  0.4844
  846MOL0     C16621  11.550   9.792   8.407  0.4468  0.7358  0.4667
  846MOL0     C16622  11.634   9.699   8.320  0.0341 -0.3926  0.0291
  846MOL0     C16623  11.569   9.668   8.189 -0.0079  0.2677 -0.7046
  846MOL0     C16624  11.662   9.577   8.105  0.0784  0.5213  0.0667
  846MOL0     C16625  11.663   9.616   7.956  0.6855  0.0065  0.8790
  846MOL0     C16626  11.528   9.610   7.885 -0.0055 -0.0983  0.4429
  846MOL0     N16627  11.475   9.469   7.880  0.4706 -0.2767  0.5815
  846MOL0     C16628  11.531   9.381   7.785 -0.4687 -1.1610 -0.1429
  846MOL0     C16629  11.434   9.290   7.782 -0.0435  0.5868 -0.7786
  846MOL0     C16630  11.437   9.163   7.698 -0.4719  0.2360  0.2285
  846MOL0     C16631  11.550   9.153   7.593  0.2666  0.4014 -0.4464
  846MOL0     C16632  11.528   9.048   7.481 -0.2267 -0.2995  0.3607
  846MOL0     C16633  11.456   9.096   7.352 -0.1078  0.0889 -0.0184
  846MOL0     O16634  11.556   9.140   7.254 -0.6013  0.0960  0.6043
  846MOL0     C16635  11.573   9.059   7.142 -0.6192 -0.0154 -0.1320
  846MOL0     C16636  11.576   8.918   7.153  0.3462 -0.6146 -0.1089
  846MOL0     C16637  11.586   8.842   7.038 -0.8767  0.0619  0.9213
  846MOL0     C16638  11.547   8.699   7.045  0.2524  1.3374 -0.4988
  846MOL0     C16639  11.619   8.902   6.919  0.2771 -0.2216 -0.2626
  846MOL0     C16640  11.635   8.838   6.787 -0.5452  0.4913 -0.3305
  846MOL0     O16641  11.611   8.923   6.677  0.3455 -0.0155 -0.7630
  846MOL0     C16642  11.598   8.871   6.547  0.8623  0.2063 -0.9007
  846MOL0     C16643  11.516   8.947   6.449 -0.0542  0.3495  0.3893
  846MOL0     C16644  11.488   8.902   6.315 -0.4873 -0.5405 -0.7250
  846MOL0     C16645  11.527   8.775   6.283  0.0382  0.6091  0.4342
  846MOL0     O16646  11.506   8.742   6.150  0.0011 -0.4358 -0.4074
  846MOL0     C16647  11.602   8.660   6.084 -0.1834  0.1745 -0.6025
  846MOL0     C16648  11.528   8.527   6.065  0.0315  1.1780 -0.1901
  846MOL0     C16649  11.634   8.434   5.992 -0.4206  0.5515 -0.9279
  846MOL0     C16650  11.564   8.333   5.899 -0.4574 -0.1220  0.1794
  846MOL0     C16651  11.664   8.248   5.832  0.0930 -0.1911  0.1459
  846MOL0     C16652  11.614   8.157   5.722  0.2379  0.0499  0.8589
  846MOL0     C16653  11.531   8.220   5.602 -0.0329  0.2566 -0.0629
  846MOL0     C16654  11.593   8.349   5.531 -0.2169 -0.0264  0.2773
  846MOL0    Cl16655  11.767   8.328   5.478 -0.0333  0.4815  0.3004
  846MOL0     C16656  11.607   8.693   6.372  0.4034 -0.4575 -1.0010
  846MOL0     C16657  11.641   8.743   6.501  0.9239 -0.2917 -0.2821
  846MOL0     O16658  11.665   8.723   6.782  0.2968  0.7318  0.4082
  846MOL0     C16659  11.630   9.046   6.916 -0.5213 -1.2158 -0.1774
  846MOL0     C16660  11.609   9.118   7.029  0.1171  0.2902 -0.6627
  846MOL0     N16661  11.324   9.317   7.865 -0.6126 -0.0791 -0.1511
  846MOL0     N16662  11.353   9.432   7.921 -0.8147  0.5801  0.0661
  846MOL0     C16663  11.147   9.964   8.688 -0.0918  1.0133  0.0206
  846MOL0     C16664  11.062  10.055   8.745  0.7180  1.0326 -0.2695
  846MOL0     C16665  10.885  10.187   9.137  0.1114  0.0015 -0.2838
  846MOL0     C16666  10.797  10.282   9.081 -0.6916 -0.3144  1.7294
  846MOL0     C16667  10.715  10.362   9.162 -1.1895 -0.1264 -0.1033
  846MOL0     C16668  10.723  10.338   9.298 -0.4017 -0.7968  0.1067
  846MOL0     O16669  10.650  10.423   9.378 -0.1559  0.2852 -0.1758
  846MOL0     C16670  10.500  10.417   9.357  0.0464 -0.1451  0.5396
  846MOL0     C16671  10.434  10.372   9.481  0.1826  0.1325  0.0569
  846MOL0     C16672  10.495  10.449   9.595  0.3346  0.1134  0.8886
  846MOL0     C16673  10.421  10.411   9.728  0.4091  0.1304  0.5838
  846MOL0     C16674  10.468  10.493   9.838 -0.4707 -0.0661 -0.0502
  846MOL0     C16675  10.505  10.568   9.925  0.1196 -0.0645 -0.5488
  846MOL0     C16676  10.801  10.236   9.352  0.2220 -0.5025 -1.4410
  846MOL0     C16677  10.881  10.160   9.276 -0.3302  0.0536  0.6941
  846MOL0     C16678  10.967  10.065   9.354  0.9161  0.1714  0.4737
  846MOL0     H16679  11.282  10.190   8.959  2.1444 -1.8081  0.6907
  846MOL0     H16680  11.447  10.050   8.820  0.2644  0.9448  2.5743
  846MOL0     H16681  11.305   9.895   8.444 -1.0279  0.7569  0.2773
  846MOL0     H16682  11.247   9.759   8.539  1.4756 -0.1635 -0.0692
  846MOL0     H16683  11.444   9.652   8.547  1.4683  0.4700  0.4682
  846MOL0     H16684  11.372   9.684   8.379  0.0437  0.5280  1.1834
  846MOL0     H16685  11.511   9.876   8.350 -1.8848 -0.2558  0.4932
  846MOL0     H16686  11.608   9.828   8.492 -2.7323  0.5839  2.9052
  846MOL0     H16687  11.733   9.742   8.300  0.3968 -1.2748 -0.1114
  846MOL0     H16688  11.650   9.609   8.379  0.2051 -0.6710 -0.4355
  846MOL0     H16689  11.544   9.763   8.141 -1.8984  0.8334  1.2958
  846MOL0     H16690  11.475   9.613   8.186  0.1265 -0.2934  2.2896
  846MOL0     H16691  11.761   9.576   8.150 -0.1901 -2.2404  0.8050
  846MOL0     H16692  11.622   9.477   8.124  1.2705  0.3318  1.8216
  846MOL0     H16693  11.732   9.553   7.898  1.2459  1.2048  0.1867
  846MOL0     H16694  11.707   9.716   7.943  0.0883  0.0349 -1.4932
  846MOL0     H16695  11.451   9.676   7.926 -2.3031 -1.6932 -1.0390
  846MOL0     H16696  11.553   9.641   7.783  0.9951  0.6999  0.9150
  846MOL0     H16697  11.627   9.387   7.734 -1.4615 -1.0583 -2.1025
  846MOL0     H16698  11.350   9.148   7.633 -0.6878 -1.6671  0.9113
  846MOL0     H16699  11.422   9.081   7.768 -1.5103 -1.3628 -1.7671
  846MOL0     H16700  11.584   9.251   7.558 -0.8635  1.2187  0.6287
  846MOL0     H16701  11.635   9.114   7.651  0.6163  0.7675 -0.7094
  846MOL0     H16702  11.631   9.018   7.456  0.3435  0.1515  2.0386
  846MOL0     H16703  11.458   8.973   7.519  0.5986 -1.0100  0.5169
  846MOL0     H16704  11.398   9.013   7.310 -0.7614 -1.8863  4.2767
  846MOL0     H16705  11.399   9.184   7.380  2.5620  0.8849  3.7366
  846MOL0     H16706  11.547   8.867   7.244 -1.6935 -1.5235 -1.2173
  846MOL0     H16707  11.514   8.664   6.947  2.8529  0.6446 -1.2046
  846MOL0     H16708  11.469   8.683   7.119  1.9865 -1.4699  0.9223
  846MOL0     H16709  11.624   8.632   7.084 -2.3858 -0.3253  2.1838
  846MOL0     H16710  11.487   9.046   6.484  2.1110  1.4797 -0.7979
  846MOL0     H16711  11.433   8.959   6.242 -0.9708  1.4558  1.0896
  846MOL0     H16712  11.609   8.693   5.980 -0.8867 -0.3397 -0.8180
  846MOL0     H16713  11.699   8.660   6.135 -1.7575 -0.9256  2.6586
  846MOL0     H16714  11.499   8.495   6.166  1.4260  1.8460  0.4528
  846MOL0     H16715  11.436   8.526   6.007  0.0781 -0.2976 -0.2889
  846MOL0     H16716  11.697   8.387   6.068 -3.0958 -1.5756  0.1110
  846MOL0     H16717  11.695   8.483   5.915 -0.7930  0.7268 -1.1111
  846MOL0     H16718  11.515   8.400   5.827  3.0772  3.0959  0.4335
  846MOL0     H16719  11.474   8.290   5.943 -0.5654 -0.2022 -0.1147
  846MOL0     H16720  11.740   8.316   5.794 -2.0266  0.1138 -4.1274
  846MOL0     H16721  11.709   8.187   5.911 -2.6189 -2.4883  0.1015
  846MOL0     H16722  11.547   8.088   5.774 -1.8474 -0.2603 -2.0121
  846MOL0     H16723  11.696   8.094   5.686 -1.0099 -1.2073  0.1043
  846MOL0     H16724  11.432   8.243   5.641 -0.0937  0.6005 -0.4155
  846MOL0     H16725  11.514   8.140   5.529 -0.2607 -0.3207  0.6109
  846MOL0     H16726  11.581   8.435   5.598  0.6718 -0.5332  1.1078
  846MOL0     H16727  11.533   8.376   5.443 -1.8288 -1.2003  0.9734
  846MOL0     H16728  11.635   8.599   6.325  2.1707  0.3431 -1.6699
  846MOL0     H16729  11.703   8.686   6.569 -0.1478  1.4377  2.3034
  846MOL0     H16730  11.649   9.100   6.825 -0.4344 -1.0480 -0.0596
  846MOL0     H16731  11.618   9.226   7.033  0.7692  0.4543 -3.9765
  846MOL0     H16732  11.110   9.892   8.616  1.1502 -0.0780  0.4371
  846MOL0     H16733  10.956  10.060   8.723  0.7665  0.4633 -0.6433
  846MOL0     H16734  10.807  10.293   8.974  4.9925  0.2346  1.9915
  846MOL0     H16735  10.661  10.444   9.117  1.5432  0.5340 -2.4994
  846MOL0     H16736  10.477  10.521   9.330  0.9509  0.3248  1.4986
  846MOL0     H16737  10.459  10.362   9.272 -1.0110  0.8169  0.3971
  846MOL0     H16738  10.452  10.264   9.485 -0.6214 -0.0285 -0.5559
  846MOL0     H16739  10.328  10.397   9.474  0.1802 -0.1382 -1.0734
  846MOL0     H16740  10.600  10.422   9.612  0.4373 -0.2329 -0.1998
  846MOL0     H16741  10.475  10.555   9.578 -1.5455  0.2222  3.1746
  846MOL0     H16742  10.418  10.305   9.751 -1.8964  0.5143  2.3888
  846MOL0     H16743  10.317  10.439   9.712  0.8177  1.6129  0.2965
  846MOL0     H16744  10.528  10.636  10.005 -1.5719 -0.3179  0.2091
  846MOL0     H16745  10.804  10.222   9.460 -2.4883 -3.3515 -1.5851
  846MOL0     H16746  10.927  10.066   9.456 -2.1339  0.2988 -0.6139
  846MOL0     H16747  10.942   9.965   9.318  0.4264  0.8790 -1.2749
  846MOL0     H16748  11.074  10.088   9.346  0.8707  0.5410  0.9390
  847MOL0     O16749  11.288   0.688   1.095 -0.1397 -0.7596 -0.3261
  847MOL0     C16750  11.311   0.583   1.148  0.5239  0.5594 -0.2714
  847MOL0     O16751  11.220   0.509   1.221  0.4519 -0.7083  0.5767
  847MOL0     C16752  11.093   0.570   1.234 -0.4471  0.4175  0.1168
  847MOL0     C16753  10.983   0.505   1.188 -0.1231  0.4968 -0.5148
  847MOL0     C16754  10.855   0.560   1.199 -0.1176 -0.1697  0.4325
  847MOL0     C16755  10.838   0.678   1.273 -0.6883 -0.0978 -0.5204
  847MOL0     O16756  10.711   0.720   1.304  0.1048 -0.1856  0.0492
  847MOL0     C16757  10.688   0.742   1.448  0.1808 -0.0622 -0.1423
  847MOL0     C16758  10.759   0.641   1.546 -0.2426  0.7547  0.7023
  847MOL0     C16759  10.700   0.506   1.507 -0.7057 -0.8050 -0.0320
  847MOL0     C16760  10.737   0.400   1.612  0.9750 -0.2996  0.9590
  847MOL0     C16761  10.864   0.322   1.578  0.3040 -0.3303  0.5585
  847MOL0     C16762  10.863   0.240   1.442  0.0917  0.1072 -0.6992
  847MOL0     C16763  10.982   0.143   1.442  0.2597  0.2147 -0.5183
  847MOL0     C16764  11.019   0.087   1.302  0.6735  0.5645 -0.0640
  847MOL0     N16765  10.906   0.070   1.212  1.4546 -0.3906  0.3678
  847MOL0     C16766  10.784   0.001   1.219 -0.4843  0.2754  0.7165
  847MOL0     C16767  10.716   0.043   1.112  0.1657 -0.3964  0.3408
  847MOL0     C16768  10.586  -0.017   1.067 -0.0240 -0.1835 -0.4043
  847MOL0     C16769  10.556  -0.001   0.911  0.4499  0.0407 -0.7179
  847MOL0     C16770  10.665  -0.070   0.824 -0.6641 -0.0590 -0.7789
  847MOL0     C16771  10.673   0.012   0.687 -0.2285  0.3150  0.3895
  847MOL0     O16772  10.776  -0.055   0.614 -0.0213  0.4332  0.3889
  847MOL0     C16773  10.901  -0.015   0.640 -0.5618 -0.4627  0.6302
  847MOL0     C16774  10.947   0.071   0.736 -0.3122  0.1942  0.3939
  847MOL0     C16775  11.083   0.107   0.757  0.2803  0.3450  0.8045
  847MOL0     C16776  11.115   0.217   0.853  0.2143  0.4803  0.3636
  847MOL0     C16777  11.185   0.049   0.675 -0.1423  0.2586  0.0972
  847MOL0     C16778  11.332   0.069   0.680 -0.3784 -0.5261  0.2335
  847MOL0     O16779  11.408  -0.013   0.596  0.4428 -0.3866  0.6792
  847MOL0     C16780  11.541   0.018   0.583  0.6398  0.1262  0.4619
  847MOL0     C16781  11.590   0.014   0.452 -0.6684 -0.4768  0.0570
  847MOL0     C16782  11.722   0.039   0.428  0.0439  0.2702  0.6220
  847MOL0     C16783  11.811   0.073   0.526 -0.0643 -0.0043  0.0781
  847MOL0     O16784  11.941   0.106   0.490  0.3325 -0.2369  0.2433
  847MOL0     C16785  12.033   0.154   0.587 -0.3632  0.0051 -0.3264
  847MOL0     C16786  11.994   0.300   0.638 -0.3021  0.6206  0.1290
  847MOL0     C16787  12.028   0.403   0.538  0.8331 -0.1504 -0.0668
  847MOL0     C16788  11.976   0.541   0.591 -0.5111  0.3545 -0.1001
  847MOL0     C16789  11.980   0.656   0.481  0.3243  0.0157 -0.4553
  847MOL0     C16790  11.879   0.761   0.533 -0.1335  0.0937  0.0994
  847MOL0     C16791  11.866   0.880   0.436 -0.1137 -0.7191  0.2755
  847MOL0     C16792  11.743   0.960   0.472  0.5541  0.3469 -0.5768
  847MOL0    Cl16793  11.589   0.892   0.432  0.2064  0.1496 -0.1794
  847MOL0     C16794  11.766   0.048   0.662 -0.6395 -0.1290 -0.2983
  847MOL0     C16795  11.629   0.031   0.690  0.5761  0.6429  0.3927
  847MOL0     O16796  11.378   0.146   0.763  0.3681  0.1188 -0.7737
  847MOL0     C16797  11.138  -0.035   0.575  0.5292  0.0952  0.4883
  847MOL0     C16798  10.999  -0.061   0.553  0.7955  0.6648 -0.0091
  847MOL0     N16799  10.796   0.141   1.047  0.0704  0.0443 -0.0314
  847MOL0     N16800  10.909   0.152   1.102  0.4031 -0.2825  0.2422
  847MOL0     C16801  10.951   0.747   1.327 -0.3443  0.6042  0.0216
  847MOL0     C16802  11.081   0.694   1.313 -0.8580 -1.2995 -0.2645
  847MOL0     C16803  11.449   0.536   1.145 -0.2643 -0.5126  0.3465
  847MOL0     C16804  11.553   0.632   1.173  0.1680  0.3181 -0.2290
  847MOL0     C16805  11.681   0.585   1.175  0.0663 -0.3079  0.5117
  847MOL0     C16806  11.714   0.455   1.143  0.4832 -0.2442 -0.2481
  847MOL0     O16807  11.836   0.395   1.151 -0.9627  0.1599 -0.3523
  847MOL0     C16808  11.946   0.452   1.218  0.4657 -0.3139  0.3006
  847MOL0     C16809  12.074   0.380   1.174 -0.6119  0.0676  0.4507
  847MOL0     C16810  12.105   0.380   1.021 -0.9883 -0.4086  0.0989
  847MOL0     C16811  12.210   0.269   0.993  0.2964 -0.2926 -0.3212
  847MOL0     C16812  12.335   0.295   1.067 -0.6414 -0.3283  1.1501
  847MOL0     C16813  12.440   0.291   1.127  0.0219  0.3269 -0.4722
  847MOL0     C16814  11.616   0.359   1.110  0.3376 -1.1379 -0.5651
  847MOL0     C16815  11.486   0.398   1.116 -0.3670 -0.7586 -0.1232
  847MOL0     C16816  11.374   0.299   1.090  0.1728 -0.7386 -0.1080
  847MOL0     H16817  11.003   0.409   1.142  2.8220 -0.2066  1.9089
  847MOL0     H16818  10.770   0.511   1.152 -0.6745  1.8892 -0.8273
  847MOL0     H16819  10.582   0.722   1.465  0.2083  1.1984  1.6968
  847MOL0     H16820  10.711   0.848   1.462 -1.2542  0.7301 -2.9609
  847MOL0     H16821  10.868   0.636   1.541 -0.3126 -1.2913 -0.0186
  847MOL0     H16822  10.743   0.671   1.649  3.8402  1.5939  1.2655
  847MOL0     H16823  10.592   0.519   1.514 -0.9510 -2.8028  0.5032
  847MOL0     H16824  10.725   0.481   1.403 -0.7023 -0.0660 -0.2160
  847MOL0     H16825  10.748   0.458   1.704  2.6679  1.2112 -0.1170
  847MOL0     H16826  10.655   0.328   1.621  1.6873 -1.5511 -1.5673
  847MOL0     H16827  10.878   0.250   1.658 -0.2141  1.2860  2.1706
  847MOL0     H16828  10.945   0.395   1.572 -0.2151  0.4647  2.4896
  847MOL0     H16829  10.775   0.177   1.427  0.0405  0.3565 -1.4903
  847MOL0     H16830  10.870   0.307   1.356  1.3134  2.4794  1.1390
  847MOL0     H16831  10.935   0.060   1.495  1.7761 -0.7000 -0.5587
  847MOL0     H16832  11.068   0.183   1.496 -0.0769 -1.4450  1.3594
  847MOL0     H16833  11.099   0.150   1.264  1.5677 -0.3708  0.2309
  847MOL0     H16834  11.057  -0.015   1.312  4.0299  1.6611 -0.5609
  847MOL0     H16835  10.762  -0.081   1.287  3.4986 -0.9632  0.7686
  847MOL0     H16836  10.505   0.025   1.127  1.4663 -1.4826  2.8062
  847MOL0     H16837  10.597  -0.124   1.089  1.9208 -0.1047 -0.7667
  847MOL0     H16838  10.461  -0.052   0.892  2.3953 -3.5641 -1.6042
  847MOL0     H16839  10.542   0.104   0.880 -0.6430 -0.2683 -1.3138
  847MOL0     H16840  10.759  -0.070   0.881 -0.9411  1.0123 -0.2882
  847MOL0     H16841  10.641  -0.175   0.808  1.6032 -0.8643  0.5343
  847MOL0     H16842  10.570   0.010   0.650 -0.6374  3.2284  1.1819
  847MOL0     H16843  10.693   0.118   0.705  2.9367 -0.4501  2.0587
  847MOL0     H16844  10.880   0.129   0.798 -2.2314  0.2089 -1.5531
  847MOL0     H16845  11.169   0.175   0.939  4.1778  2.6373 -0.8186
  847MOL0     H16846  11.020   0.259   0.887  0.0516  1.2075 -0.9341
  847MOL0     H16847  11.175   0.302   0.821  0.3929  0.6820  1.2034
  847MOL0     H16848  11.517  -0.006   0.374 -2.7617  2.2513  1.1347
  847MOL0     H16849  11.751   0.017   0.326 -0.1241  1.5202  0.2994
  847MOL0     H16850  12.031   0.085   0.672  1.5304  0.4418  0.1033
  847MOL0     H16851  12.138   0.151   0.559 -0.8042 -0.9555 -2.0531
  847MOL0     H16852  11.890   0.316   0.666  0.2490  2.5948  1.2663
  847MOL0     H16853  12.050   0.323   0.730  0.2837  3.8591 -0.8980
  847MOL0     H16854  11.977   0.378   0.444 -0.8387 -1.8455  1.2378
  847MOL0     H16855  12.137   0.406   0.524  1.2153  0.0200  2.4865
  847MOL0     H16856  12.028   0.563   0.685  3.3893 -0.2665 -1.8860
  847MOL0     H16857  11.871   0.536   0.621 -0.1688 -0.7386  1.0022
  847MOL0     H16858  12.077   0.707   0.473  0.7968 -0.1942  2.6839
  847MOL0     H16859  11.955   0.616   0.382  0.9851  0.1889 -0.6979
  847MOL0     H16860  11.900   0.796   0.635 -0.7246 -0.4745  0.4269
  847MOL0     H16861  11.780   0.714   0.542  0.6692 -2.3634 -2.4083
  847MOL0     H16862  11.854   0.834   0.337 -2.5452 -0.3878  0.3420
  847MOL0     H16863  11.958   0.938   0.437  0.1443 -1.1128 -0.3111
  847MOL0     H16864  11.751   1.053   0.415  1.7897 -0.5003 -1.8474
  847MOL0     H16865  11.746   0.992   0.576 -4.3766  2.3095 -0.7433
  847MOL0     H16866  11.834   0.061   0.745  0.6477  3.4838 -1.7037
  847MOL0     H16867  11.594   0.030   0.793 -0.8834  2.4267 -0.0324
  847MOL0     H16868  11.201  -0.080   0.498 -1.1016 -1.1726 -0.1482
  847MOL0     H16869  10.964  -0.140   0.487  1.4156 -1.7695  2.3651
  847MOL0     H16870  10.946   0.838   1.384 -0.2044  0.9409 -0.4937
  847MOL0     H16871  11.159   0.738   1.374 -2.6829  1.1724  0.4104
  847MOL0     H16872  11.518   0.733   1.184 -1.9810 -0.5325  1.3246
  847MOL0     H16873  11.758   0.661   1.183 -0.7162  0.3835  1.9192
  847MOL0     H16874  11.939   0.562   1.218 -2.1533 -0.3934  1.5604
  847MOL0     H16875  11.938   0.435   1.326  2.2262  1.5044  0.7712
  847MOL0     H16876  12.055   0.277   1.206 -0.7873  0.7645  2.7446
  847MOL0     H16877  12.149   0.429   1.237  0.6111  1.7066 -2.1083
  847MOL0     H16878  12.025   0.342   0.957 -0.9368  0.4511 -0.4904
  847MOL0     H16879  12.142   0.477   0.986 -0.8062  0.1952  1.8738
  847MOL0     H16880  12.219   0.266   0.884 -1.2852 -0.7591 -0.4657
  847MOL0     H16881  12.174   0.169   1.019  2.3762 -0.5832  1.8493
  847MOL0     H16882  12.528   0.288   1.186 -1.1245 -0.0801  1.2884
  847MOL0     H16883  11.633   0.254   1.089 -1.5561 -1.7578  0.6722
  847MOL0     H16884  11.293   0.340   1.030  2.0383  0.5391 -1.8832
  847MOL0     H16885  11.413   0.204   1.052  2.6554  0.6196 -1.1931
  847MOL0     H16886  11.336   0.288   1.192  0.4839  0.0393  0.0985
  848MOL0     O16887   3.162   9.581   8.169  0.8726 -0.8426 -0.0443
  848MOL0     C16888   3.120   9.528   8.271  0.2269  0.3673 -0.1690
  848MOL0     O16889   3.155   9.565   8.402  0.9206 -0.0306  0.0531
  848MOL0     C16890   3.266   9.644   8.410  0.2114 -0.5739 -0.8060
  848MOL0     C16891   3.247   9.779   8.393  0.2484 -0.0209  1.0285
  848MOL0     C16892   3.350   9.870   8.409  0.4154  0.1363 -0.0553
  848MOL0     C16893   3.475   9.823   8.435 -0.6791  0.3227  0.6408
  848MOL0     O16894   3.579   9.908   8.464 -1.0494 -0.0745 -0.4791
  848MOL0     C16895   3.576  10.037   8.390  0.0034  0.2958  0.7276
  848MOL0     C16896   3.716  10.073   8.365 -0.1625  0.1603 -0.2655
  848MOL0     C16897   3.816  10.091   8.485  0.6648 -0.4725 -0.0503
  848MOL0     C16898   3.808  10.235   8.540 -0.3944 -1.2203  0.2471
  848MOL0     C16899   3.915  10.258   8.652  0.0665  0.0107 -0.5049
  848MOL0     C16900   4.053  10.256   8.593 -1.2759  0.2938 -0.5022
  848MOL0     C16901   4.162  10.310   8.690  0.3172  1.3416 -0.6729
  848MOL0     C16902   4.160  10.240   8.829  0.2530  0.0332  0.2720
  848MOL0     N16903   4.295  10.215   8.887  0.1270 -0.1189  0.3059
  848MOL0     C16904   4.393  10.136   8.848 -0.1301  0.0641 -0.8065
  848MOL0     C16905   4.494  10.163   8.944 -0.2250 -0.0927  0.0944
  848MOL0     C16906   4.630  10.109   8.950  0.5468  0.6039  0.0362
  848MOL0     C16907   4.740  10.201   8.887  1.0197 -0.5833 -0.4555
  848MOL0     C16908   4.706  10.249   8.753  0.1843 -0.9141 -0.1986
  848MOL0     C16909   4.812  10.342   8.698 -0.2279 -0.3791  0.8299
  848MOL0     O16910   4.773  10.369   8.558 -0.4657  0.3721  0.0532
  848MOL0     C16911   4.850  10.444   8.475  0.4548 -0.5263 -0.2699
  848MOL0     C16912   4.787  10.498   8.363 -0.0938  1.1488 -0.6418
  848MOL0     C16913   4.854  10.583   8.275  0.1644 -0.1155  0.9914
  848MOL0     C16914   4.782  10.648   8.156 -0.1252 -0.7486 -0.2109
  848MOL0     C16915   4.978  10.631   8.318  0.9031 -0.1687  1.4771
  848MOL0     C16916   5.065  10.726   8.246 -0.3214  0.2870  0.5934
  848MOL0     O16917   4.998  10.823   8.178 -0.7683 -0.5947  0.3286
  848MOL0     C16918   5.054  10.923   8.102 -0.6022 -0.4472 -0.0782
  848MOL0     C16919   5.183  10.980   8.120  0.0844 -1.2930 -0.0160
  848MOL0     C16920   5.232  11.067   8.020 -0.0131 -0.1708 -0.3832
  848MOL0     C16921   5.151  11.099   7.905  0.6739  0.3345 -0.2914
  848MOL0     O16922   5.208  11.182   7.813 -0.3067  0.0914  0.1161
  848MOL0     C16923   5.255  11.104   7.696 -0.6570  0.4276 -0.5119
  848MOL0     C16924   5.404  11.111   7.679 -0.1314 -1.1601 -0.7418
  848MOL0     C16925   5.450  11.247   7.623 -0.2140  0.5173  0.3914
  848MOL0     C16926   5.488  11.359   7.733  0.2724 -0.4804 -0.5209
  848MOL0     C16927   5.512  11.492   7.658  0.4608  0.2952 -0.1064
  848MOL0     C16928   5.650  11.497   7.598  0.2041  0.7396  0.3078
  848MOL0     C16929   5.677  11.639   7.540  0.3558 -0.2487 -0.0139
  848MOL0     C16930   5.812  11.642   7.459  0.4952  0.1840  0.7726
  848MOL0    Cl16931   5.943  11.607   7.565  0.2748 -0.8582  0.3742
  848MOL0     C16932   5.024  11.043   7.894  0.4970  0.2247  0.2149
  848MOL0     C16933   4.976  10.959   7.996 -0.2961 -0.0448 -0.0675
  848MOL0     O16934   5.187  10.704   8.233  0.1144  0.8433  0.4317
  848MOL0     C16935   5.036  10.581   8.432  0.0009  0.0974 -0.0556
  848MOL0     C16936   4.977  10.481   8.504 -0.0326 -0.3641 -0.7985
  848MOL0     N16937   4.452  10.256   9.036  0.2979  0.4958 -0.5048
  848MOL0     N16938   4.332  10.278   9.004  0.2067  0.1697  0.3920
  848MOL0     C16939   3.502   9.688   8.431 -0.3817  0.3521  0.5204
  848MOL0     C16940   3.396   9.592   8.419  0.5327 -0.0818 -0.4294
  848MOL0     C16941   3.038   9.410   8.239 -0.5338 -0.1374  0.2095
  848MOL0     C16942   3.080   9.327   8.132 -0.0825 -0.1572  0.1786
  848MOL0     C16943   3.014   9.214   8.101  0.2043  0.7404 -0.5351
  848MOL0     C16944   2.897   9.181   8.166 -0.6587  0.5989 -0.8869
  848MOL0     O16945   2.837   9.073   8.106  0.3297  0.1625  0.5597
  848MOL0     C16946   2.693   9.065   8.109  0.2755  0.0648  0.8816
  848MOL0     C16947   2.675   9.022   7.967  0.1288  0.4215 -0.2437
  848MOL0     C16948   2.578   8.909   7.928 -0.3784 -0.6982 -0.5565
  848MOL0     C16949   2.630   8.774   7.972 -0.7178  0.6399 -0.4896
  848MOL0     C16950   2.533   8.668   7.939 -0.2314  0.5299  0.7094
  848MOL0     C16951   2.442   8.604   7.901 -0.5321  0.1848  0.8976
  848MOL0     C16952   2.847   9.266   8.263 -0.2226 -0.0178 -0.1264
  848MOL0     C16953   2.921   9.377   8.309  0.4725  0.1905 -0.5666
  848MOL0     C16954   2.869   9.464   8.419 -0.3367 -0.3676 -0.7561
  848MOL0     H16955   3.141   9.804   8.386 -0.6042 -2.6559  2.9117
  848MOL0     H16956   3.323   9.974   8.402 -0.6620 -0.1825 -0.8974
  848MOL0     H16957   3.533  10.116   8.452 -2.7420 -1.8899  1.7848
  848MOL0     H16958   3.523  10.052   8.295  2.3100  2.0245 -0.3949
  848MOL0     H16959   3.755   9.999   8.295  0.4122 -3.8167  3.7507
  848MOL0     H16960   3.716  10.169   8.313 -2.4223 -0.7297 -2.0476
  848MOL0     H16961   3.778  10.028   8.566 -0.8783  3.0610  2.2401
  848MOL0     H16962   3.920  10.068   8.460  0.4620 -0.6042 -0.7769
  848MOL0     H16963   3.834  10.309   8.465  1.4826 -0.6566  1.3924
  848MOL0     H16964   3.705  10.257   8.569 -0.1828  1.7963 -0.9820
  848MOL0     H16965   3.912  10.175   8.724  0.6013 -0.5486 -1.1135
  848MOL0     H16966   3.893  10.350   8.706 -2.6710 -0.7813 -0.1463
  848MOL0     H16967   4.088  10.156   8.566  1.8893  0.3543  2.6515
  848MOL0     H16968   4.059  10.312   8.499 -3.0854 -0.1922 -0.9445
  848MOL0     H16969   4.140  10.415   8.710 -2.5074  0.4987  1.2313
  848MOL0     H16970   4.261  10.303   8.643 -0.2460 -0.1776 -1.7125
  848MOL0     H16971   4.103  10.294   8.905  2.1609 -0.6360  2.3116
  848MOL0     H16972   4.110  10.143   8.819  0.8341 -0.3558  1.0400
  848MOL0     H16973   4.403  10.071   8.761 -1.4351 -1.4378  0.1168
  848MOL0     H16974   4.637  10.006   8.912  1.0339  1.4615 -2.4129
  848MOL0     H16975   4.645  10.095   9.057  2.2585  1.2883 -0.0792
  848MOL0     H16976   4.737  10.291   8.949 -0.6581  0.4372 -1.9132
  848MOL0     H16977   4.830  10.139   8.893 -0.2652 -2.3666  2.1199
  848MOL0     H16978   4.691  10.165   8.684 -1.2692 -1.0495  0.2633
  848MOL0     H16979   4.610  10.299   8.743  1.2417  0.9260 -1.9293
  848MOL0     H16980   4.822  10.429   8.764  1.7309  0.8712 -0.9824
  848MOL0     H16981   4.908  10.290   8.702 -0.0472 -0.1323 -0.0553
  848MOL0     H16982   4.682  10.474   8.346  0.2987  1.6472 -4.6293
  848MOL0     H16983   4.756  10.753   8.171 -1.6769 -1.2906  1.1968
  848MOL0     H16984   4.688  10.593   8.157 -0.0714 -0.9527  2.6371
  848MOL0     H16985   4.838  10.643   8.062  2.8425 -1.7367  1.4683
  848MOL0     H16986   5.246  10.954   8.204 -0.7727  2.6277  2.0603
  848MOL0     H16987   5.326  11.117   8.039 -0.5507  0.9521 -0.5546
  848MOL0     H16988   5.242  10.996   7.701 -3.2094  0.7321  1.6287
  848MOL0     H16989   5.204  11.146   7.609 -0.0724  2.1756 -0.0682
  848MOL0     H16990   5.452  11.085   7.773  1.9704 -0.8577 -1.6802
  848MOL0     H16991   5.429  11.032   7.607  2.1286 -1.6611  0.5076
  848MOL0     H16992   5.370  11.280   7.556 -1.3758  0.7237  1.8355
  848MOL0     H16993   5.542  11.230   7.566 -1.4497 -1.2704 -1.2022
  848MOL0     H16994   5.562  11.333   7.809 -1.6100 -1.0357  1.2293
  848MOL0     H16995   5.402  11.367   7.801 -0.2110 -2.3645 -0.8516
  848MOL0     H16996   5.436  11.502   7.580  0.8556 -6.5186 -2.0634
  848MOL0     H16997   5.505  11.575   7.728 -0.4119  2.9853 -3.1570
  848MOL0     H16998   5.661  11.416   7.525 -0.8430 -0.9384  1.9174
  848MOL0     H16999   5.728  11.466   7.669  0.0165 -2.1426 -0.6206
  848MOL0     H17000   5.675  11.723   7.611 -0.0382  2.8289 -3.3789
  848MOL0     H17001   5.591  11.658   7.476 -0.5381 -2.6050  0.3802
  848MOL0     H17002   5.820  11.742   7.414  1.1713 -0.5883 -0.8773
  848MOL0     H17003   5.810  11.582   7.368 -0.1280  2.7751 -1.0381
  848MOL0     H17004   4.945  11.053   7.819  0.2060  1.5650  0.6768
  848MOL0     H17005   4.875  10.918   7.987  0.4918 -1.8541 -1.2624
  848MOL0     H17006   5.135  10.617   8.459  0.0004  0.5435 -0.6186
  848MOL0     H17007   5.025  10.429   8.587 -1.2198  1.2321  0.9839
  848MOL0     H17008   3.600   9.644   8.444 -0.0542  1.0295  0.3621
  848MOL0     H17009   3.425   9.487   8.423  1.3295  0.1492  2.1043
  848MOL0     H17010   3.172   9.334   8.075  0.3198  0.7501  0.8972
  848MOL0     H17011   3.056   9.153   8.022 -0.0408  1.0663 -0.9221
  848MOL0     H17012   2.652   8.990   8.176  2.4290 -1.4987  0.5546
  848MOL0     H17013   2.644   9.161   8.129  1.5798  1.4334 -1.8541
  848MOL0     H17014   2.769   9.003   7.914  1.0887  0.4827  1.3784
  848MOL0     H17015   2.637   9.114   7.920  0.4478  1.1475  0.8768
  848MOL0     H17016   2.490   8.947   7.980  1.3946  1.3248  1.1598
  848MOL0     H17017   2.559   8.901   7.820 -1.1218 -0.9654 -0.4154
  848MOL0     H17018   2.660   8.763   8.077  0.1150 -1.7377 -0.9096
  848MOL0     H17019   2.720   8.756   7.913  0.1803 -1.9072  1.4555
  848MOL0     H17020   2.365   8.545   7.854  0.7193  1.8693 -3.8716
  848MOL0     H17021   2.754   9.244   8.314  0.5885 -2.0674  0.5523
  848MOL0     H17022   2.760   9.460   8.430 -0.3790 -0.1191 -1.0538
  848MOL0     H17023   2.907   9.438   8.518 -1.2037  1.3184  0.0653
  848MOL0     H17024   2.896   9.569   8.402  1.0101  0.0020  2.8577
  849MOL0     O17025   6.131   4.254   2.482  0.1469 -0.7847 -0.7060
  849MOL0     C17026   6.060   4.223   2.390 -0.4606 -0.2184 -0.2861
  849MOL0     O17027   6.101   4.142   2.290  0.4590 -0.0085 -0.4302
  849MOL0     C17028   6.236   4.131   2.268  0.5516 -0.3962 -0.5321
  849MOL0     C17029   6.304   4.030   2.329  0.7793  1.4295  0.5160
  849MOL0     C17030   6.436   4.004   2.301 -0.1809  0.8926 -0.2599
  849MOL0     C17031   6.505   4.072   2.199  0.2884 -0.2412 -0.0143
  849MOL0     O17032   6.627   4.030   2.162  0.0145  0.4081 -0.1360
  849MOL0     C17033   6.691   4.048   2.037  0.8946  0.5806  0.3205
  849MOL0     C17034   6.651   3.946   1.918 -0.2370 -0.0126  0.5274
  849MOL0     C17035   6.687   3.810   1.968 -0.1530 -0.8357  0.1978
  849MOL0     C17036   6.674   3.702   1.859 -0.6341 -0.0129  0.5056
  849MOL0     C17037   6.526   3.662   1.836  0.2689  1.0774  0.8289
  849MOL0     C17038   6.500   3.507   1.840  0.4441 -0.6418  0.7270
  849MOL0     C17039   6.532   3.440   1.709 -0.3860  0.1158  0.0981
  849MOL0     C17040   6.536   3.288   1.725  0.6337 -0.8186  0.8425
  849MOL0     N17041   6.399   3.224   1.740 -0.4533 -0.1116  0.8540
  849MOL0     C17042   6.278   3.276   1.711  0.4207  0.9571  0.2007
  849MOL0     C17043   6.193   3.171   1.713 -0.8090  0.1401  0.9056
  849MOL0     C17044   6.060   3.174   1.650  0.3276  0.0073 -0.2309
  849MOL0     C17045   6.059   3.094   1.517 -0.4732 -0.2757 -0.0776
  849MOL0     C17046   5.944   3.136   1.428  0.0373 -0.1793 -0.8163
  849MOL0     C17047   5.970   3.120   1.281  0.3332  0.6347 -0.2295
  849MOL0     O17048   6.079   3.205   1.230 -0.1931 -0.4347 -0.2685
  849MOL0     C17049   6.071   3.343   1.238  0.3879 -0.4322 -0.4685
  849MOL0     C17050   6.178   3.419   1.289 -1.2421  0.6437  0.1742
  849MOL0     C17051   6.174   3.561   1.302 -0.1639  0.4393 -0.0733
  849MOL0     C17052   6.283   3.632   1.380 -0.3879 -0.3222 -0.8777
  849MOL0     C17053   6.072   3.636   1.246  0.0232  0.0362  0.3759
  849MOL0     C17054   6.067   3.781   1.259  1.2054 -0.8162 -0.6631
  849MOL0     O17055   6.173   3.865   1.256  1.4025 -0.0101  0.1744
  849MOL0     C17056   6.148   4.000   1.256  0.4417  0.5768  0.1484
  849MOL0     C17057   6.073   4.071   1.160 -0.6545  0.8254 -0.7238
  849MOL0     C17058   6.069   4.210   1.165  0.3846  0.2908 -0.0126
  849MOL0     C17059   6.136   4.278   1.264  0.0289  0.3564 -0.4270
  849MOL0     O17060   6.122   4.417   1.260  0.2189 -0.5456 -0.7583
  849MOL0     C17061   6.234   4.493   1.316  0.1241  0.2939 -0.0777
  849MOL0     C17062   6.223   4.632   1.263  0.8119  0.8118 -0.1896
  849MOL0     C17063   6.085   4.700   1.295 -0.4895  0.2899 -1.1172
  849MOL0     C17064   6.087   4.851   1.301 -0.0698 -0.4227 -0.0274
  849MOL0     C17065   5.948   4.910   1.258 -0.5720  0.0150  0.6676
  849MOL0     C17066   5.950   5.067   1.251  0.2735  1.0236 -0.1733
  849MOL0     C17067   5.821   5.131   1.207  0.2405  0.2119 -0.2890
  849MOL0     C17068   5.808   5.131   1.047  0.4063  0.9171  0.8392
  849MOL0    Cl17069   5.640   5.180   1.022 -0.1864  0.0142  0.5162
  849MOL0     C17070   6.215   4.213   1.354  0.2662 -0.5009  0.0834
  849MOL0     C17071   6.222   4.068   1.355 -0.3198  0.1691 -0.4608
  849MOL0     O17072   5.951   3.821   1.285 -0.4870  0.5973  0.1110
  849MOL0     C17073   5.966   3.560   1.190  0.4432  0.9446 -0.1512
  849MOL0     C17074   5.963   3.413   1.194 -0.5183 -0.2928 -0.0107
  849MOL0     N17075   6.268   3.057   1.744  0.1129  0.4586 -0.3476
  849MOL0     N17076   6.388   3.092   1.773  0.5152 -0.0645 -0.6997
  849MOL0     C17077   6.435   4.174   2.135  0.9608 -0.7007 -0.3698
  849MOL0     C17078   6.301   4.205   2.172 -0.5145  0.1992  0.4743
  849MOL0     C17079   5.920   4.261   2.401 -0.1711  0.9951 -0.0278
  849MOL0     C17080   5.842   4.223   2.293 -0.3628 -0.0789  0.2183
  849MOL0     C17081   5.711   4.267   2.282 -0.1833  0.9113 -0.4813
  849MOL0     C17082   5.655   4.354   2.378  1.0374  0.0338  0.2110
  849MOL0     O17083   5.543   4.428   2.360  0.4219 -0.0407 -0.3263
  849MOL0     C17084   5.439   4.375   2.278  0.5011  0.3020 -0.0782
  849MOL0     C17085   5.448   4.442   2.141 -0.2717  0.2357  0.3452
  849MOL0     C17086   5.344   4.390   2.049  1.0253  0.0755  0.1686
  849MOL0     C17087   5.289   4.508   1.946 -0.0884 -0.6900 -0.0478
  849MOL0     C17088   5.399   4.534   1.860  0.2325  0.7280  0.2744
  849MOL0     C17089   5.497   4.540   1.790 -0.5203 -0.7277 -0.5225
  849MOL0     C17090   5.731   4.391   2.485  0.1281  0.5052  0.6947
  849MOL0     C17091   5.864   4.332   2.505 -0.0080  0.9224 -1.2579
  849MOL0     C17092   5.936   4.376   2.633  0.3101  0.4047  0.4827
  849MOL0     H17093   6.249   3.964   2.396  2.7761 -0.7433  0.1510
  849MOL0     H17094   6.490   3.930   2.359 -0.9564 -0.0442 -0.7237
  849MOL0     H17095   6.798   4.045   2.060  1.0091 -0.7702 -0.3269
  849MOL0     H17096   6.667   4.145   1.993 -2.9782 -0.7061 -0.8082
  849MOL0     H17097   6.542   3.954   1.914 -0.0790  2.5184 -0.1115
  849MOL0     H17098   6.698   3.978   1.825 -0.8457 -0.0744  0.1930
  849MOL0     H17099   6.787   3.811   2.013 -0.7652  0.8705  1.6124
  849MOL0     H17100   6.621   3.789   2.053 -2.2841 -2.2822 -1.7029
  849MOL0     H17101   6.731   3.720   1.767 -1.3067 -3.9400 -0.8782
  849MOL0     H17102   6.719   3.613   1.903 -1.3135 -1.4319 -1.5011
  849MOL0     H17103   6.475   3.701   1.747 -0.9234  0.0362  1.0371
  849MOL0     H17104   6.473   3.707   1.921 -0.8154  2.3329 -0.4507
  849MOL0     H17105   6.560   3.478   1.927  3.6965  2.1799 -0.3859
  849MOL0     H17106   6.396   3.477   1.857 -0.4617  0.2762 -2.4984
  849MOL0     H17107   6.637   3.456   1.685 -0.1599 -1.4072 -0.0592
  849MOL0     H17108   6.465   3.475   1.629 -1.1910 -1.0501  0.2241
  849MOL0     H17109   6.592   3.256   1.637  0.6281  0.5823  0.3088
  849MOL0     H17110   6.599   3.263   1.811  0.8520  1.8404  1.5271
  849MOL0     H17111   6.254   3.380   1.689 -1.8022 -0.1386 -3.1453
  849MOL0     H17112   6.034   3.278   1.628 -2.1264 -0.2572  1.0149
  849MOL0     H17113   5.993   3.134   1.728 -0.9042  1.4053 -0.5251
  849MOL0     H17114   6.148   3.122   1.462 -1.6303  1.8213 -1.0128
  849MOL0     H17115   6.061   2.985   1.525  2.7796 -0.3678 -1.0232
  849MOL0     H17116   5.865   3.066   1.456 -2.1700  1.1020 -3.4336
  849MOL0     H17117   5.903   3.230   1.467 -2.8834 -2.8045  3.3045
  849MOL0     H17118   5.993   3.019   1.248 -1.5682 -0.9664  2.8706
  849MOL0     H17119   5.874   3.129   1.229 -1.0134 -3.1119  1.2490
  849MOL0     H17120   6.259   3.366   1.339 -0.1748 -1.7317 -3.6356
  849MOL0     H17121   6.333   3.693   1.304 -2.5522  0.5201 -1.7056
  849MOL0     H17122   6.354   3.562   1.426  0.1792  1.3523  0.9140
  849MOL0     H17123   6.241   3.694   1.459 -0.4931 -2.6386  0.9831
  849MOL0     H17124   6.013   4.020   1.086  0.8558 -2.4623  0.1544
  849MOL0     H17125   6.012   4.263   1.089  0.8446  0.5113 -0.2100
  849MOL0     H17126   6.230   4.484   1.425 -2.0542 -1.8754 -0.2655
  849MOL0     H17127   6.326   4.445   1.282  0.0072  0.5698 -0.8046
  849MOL0     H17128   6.308   4.692   1.296  0.0899  0.7833  1.8902
  849MOL0     H17129   6.221   4.632   1.154  0.5149 -1.1690 -0.2154
  849MOL0     H17130   6.032   4.667   1.385  1.2902  1.0842  0.3029
  849MOL0     H17131   6.019   4.660   1.218 -0.8002  3.3733 -2.6298
  849MOL0     H17132   6.168   4.910   1.256 -1.7375  2.1835  0.1776
  849MOL0     H17133   6.094   4.877   1.407 -1.9541  1.6282 -0.3447
  849MOL0     H17134   5.917   4.879   1.158 -2.5827 -0.7074  1.4668
  849MOL0     H17135   5.873   4.864   1.324  0.0796 -0.2430  1.2474
  849MOL0     H17136   6.029   5.098   1.183  0.9600 -1.5155 -0.6060
  849MOL0     H17137   5.967   5.104   1.353  1.1405  2.1695 -0.7120
  849MOL0     H17138   5.825   5.234   1.242 -2.5562  0.1500  0.4494
  849MOL0     H17139   5.725   5.092   1.241 -0.3084 -1.4730 -3.3882
  849MOL0     H17140   5.830   5.035   1.000 -1.4387  1.9888 -2.5546
  849MOL0     H17141   5.886   5.185   0.992 -1.6731  1.0555 -2.2285
  849MOL0     H17142   6.264   4.263   1.437 -0.2325  0.6728 -0.3096
  849MOL0     H17143   6.269   4.028   1.444  1.2864  2.6274 -0.0924
  849MOL0     H17144   5.882   3.609   1.142 -2.9236 -2.3544  1.8120
  849MOL0     H17145   5.870   3.368   1.159 -1.3992  1.4276  0.0202
  849MOL0     H17146   6.478   4.243   2.063 -1.4825  2.3154  0.8057
  849MOL0     H17147   6.269   4.298   2.126  2.0407  0.8517 -0.1322
  849MOL0     H17148   5.886   4.170   2.210 -1.5099 -0.8125  0.0533
  849MOL0     H17149   5.663   4.227   2.193 -0.5133 -0.2317  0.1864
  849MOL0     H17150   5.449   4.267   2.260  1.9827 -0.1937  2.9956
  849MOL0     H17151   5.340   4.407   2.313 -0.0064 -0.0401 -1.1366
  849MOL0     H17152   5.549   4.426   2.102  0.4420  0.2903  2.0964
  849MOL0     H17153   5.433   4.550   2.155 -2.7962  0.1296 -1.0056
  849MOL0     H17154   5.387   4.303   1.998 -1.8645 -2.0821  1.1286
  849MOL0     H17155   5.254   4.352   2.098  2.0391 -1.2935  1.0617
  849MOL0     H17156   5.257   4.602   1.991  0.9235  0.1833 -1.0866
  849MOL0     H17157   5.205   4.466   1.891  0.0856 -2.2168  0.8034
  849MOL0     H17158   5.574   4.552   1.717 -1.0315 -2.2350 -1.3361
  849MOL0     H17159   5.691   4.456   2.561  1.6560  1.6882  0.5315
  849MOL0     H17160   5.962   4.287   2.691 -0.3278 -0.0723  0.0419
  849MOL0     H17161   6.027   4.429   2.601 -1.5812  2.6930 -1.4872
  849MOL0     H17162   5.885   4.439   2.706  1.3739 -0.0166  1.6370
  850MOL0     O17163   3.753   1.945   3.158  1.0042  0.1347 -0.8215
  850MOL0     C17164   3.754   2.039   3.079  0.2750  0.2793 -0.8997
  850MOL0     O17165   3.648   2.060   2.986 -0.0086  0.5267 -0.7975
  850MOL0     C17166   3.523   2.002   3.016  0.1586 -0.4060 -0.4324
  850MOL0     C17167   3.474   1.973   3.157  0.0653  0.4105  0.0353
  850MOL0     C17168   3.351   1.911   3.160 -0.1801 -0.7395  0.0069
  850MOL0     C17169   3.276   1.876   3.049 -0.0544 -0.3441 -0.2056
  850MOL0     O17170   3.150   1.824   3.052 -0.2958 -0.5533  0.7931
  850MOL0     C17171   3.080   1.775   3.171 -0.3638  0.6019 -0.4565
  850MOL0     C17172   2.933   1.806   3.155  0.3273 -0.1235 -0.1532
  850MOL0     C17173   2.873   1.762   3.011  0.3607 -0.2430 -0.6913
  850MOL0     C17174   2.727   1.759   3.027 -0.3042  0.9107 -0.0297
  850MOL0     C17175   2.650   1.666   2.936  0.3293 -0.5263 -0.1485
  850MOL0     C17176   2.504   1.705   2.947  0.4524 -0.0565  1.3271
  850MOL0     C17177   2.413   1.612   2.859  0.1491  0.0405  0.2512
  850MOL0     C17178   2.436   1.618   2.712  0.2176 -0.2826  0.4826
  850MOL0     N17179   2.335   1.537   2.646  0.3429 -0.5383 -0.4925
  850MOL0     C17180   2.309   1.405   2.667 -0.3293  0.7469 -0.1258
  850MOL0     C17181   2.186   1.376   2.624 -0.3185  0.2176  0.8418
  850MOL0     C17182   2.106   1.240   2.630 -0.7966  0.0237  0.8962
  850MOL0     C17183   2.057   1.212   2.764  0.4697 -0.0408 -0.4395
  850MOL0     C17184   1.952   1.313   2.826 -0.5951  0.3998 -0.2480
  850MOL0     C17185   1.865   1.271   2.945 -0.2688 -0.4463  0.5105
  850MOL0     O17186   1.963   1.200   3.032  0.3393  0.1490 -0.3175
  850MOL0     C17187   2.049   1.268   3.109 -0.0288  0.3436 -0.2958
  850MOL0     C17188   2.148   1.194   3.173 -0.3810 -0.0376 -0.2609
  850MOL0     C17189   2.248   1.256   3.254 -0.0395  0.7961  0.0772
  850MOL0     C17190   2.349   1.165   3.316 -0.6065  0.2017  0.0867
  850MOL0     C17191   2.248   1.396   3.263 -0.8369 -0.2428 -0.4599
  850MOL0     C17192   2.362   1.468   3.317 -0.6812 -0.5695 -0.9735
  850MOL0     O17193   2.411   1.432   3.445 -0.6368  0.1474  1.7428
  850MOL0     C17194   2.504   1.502   3.516 -0.1190  0.7843 -0.2497
  850MOL0     C17195   2.544   1.440   3.639 -0.0477  0.2236  0.5730
  850MOL0     C17196   2.639   1.503   3.722  0.5924  0.0310  0.0267
  850MOL0     C17197   2.693   1.626   3.692  0.2505 -0.3002 -0.0832
  850MOL0     O17198   2.777   1.662   3.788 -0.4779  0.3378  0.3727
  850MOL0     C17199   2.847   1.785   3.775  0.3583  0.1969  0.4490
  850MOL0     C17200   2.942   1.828   3.893 -0.4487 -0.1664 -0.2462
  850MOL0     C17201   3.058   1.737   3.901 -0.6718 -0.7262 -0.8786
  850MOL0     C17202   3.172   1.789   3.991 -0.2052 -0.2373 -0.3248
  850MOL0     C17203   3.292   1.699   3.965  1.3565  0.0367  0.2735
  850MOL0     C17204   3.290   1.553   4.035 -0.1273  0.0526  0.2165
  850MOL0     C17205   3.414   1.462   4.008  0.2656  0.3703  0.7499
  850MOL0     C17206   3.386   1.314   4.041 -0.0784 -0.3736  0.2210
  850MOL0    Cl17207   3.428   1.216   3.892  0.2372 -0.2810  0.1527
  850MOL0     C17208   2.643   1.697   3.579  0.0039  0.6055  0.2162
  850MOL0     C17209   2.552   1.630   3.493 -0.3311 -0.2184 -0.0944
  850MOL0     O17210   2.416   1.549   3.246  0.4603 -0.3348 -0.1017
  850MOL0     C17211   2.145   1.473   3.202 -1.1106  0.8461  0.1837
  850MOL0     C17212   2.044   1.404   3.129  0.9787 -0.5662 -0.4818
  850MOL0     N17213   2.141   1.492   2.563  0.2047 -0.0555  0.0174
  850MOL0     N17214   2.224   1.593   2.580  0.0437  0.5262  0.2391
  850MOL0     C17215   3.312   1.914   2.926  0.3695 -0.0894  0.4071
  850MOL0     C17216   3.433   1.986   2.910  0.3439 -0.7567  0.3191
  850MOL0     C17217   3.865   2.129   3.073  0.0095 -0.0484  1.1720
  850MOL0     C17218   3.866   2.247   2.989 -0.4880  0.1974 -0.6691
  850MOL0     C17219   3.986   2.318   2.959  0.2567  0.3405  0.1248
  850MOL0     C17220   4.107   2.284   3.020 -0.8082 -0.3324  0.2623
  850MOL0     O17221   4.226   2.350   2.995  0.0502 -0.5049 -0.3832
  850MOL0     C17222   4.219   2.460   2.910  0.3415 -0.6791  0.5595
  850MOL0     C17223   4.357   2.531   2.920  0.3823 -0.0223  0.0673
  850MOL0     C17224   4.390   2.626   2.802 -0.3319  0.1503 -0.6674
  850MOL0     C17225   4.524   2.707   2.826  1.1210 -0.2898  0.4093
  850MOL0     C17226   4.638   2.623   2.861 -0.7859 -0.3942  0.2253
  850MOL0     C17227   4.728   2.543   2.864 -0.9593  0.3738  0.1824
  850MOL0     C17228   4.101   2.195   3.122 -0.0505  1.0077 -0.3578
  850MOL0     C17229   3.989   2.108   3.143  0.8114 -0.3633 -0.9376
  850MOL0     C17230   4.004   2.000   3.253  0.1618  0.3980  0.6174
  850MOL0     H17231   3.532   1.993   3.246  0.7896 -2.3550  0.2796
  850MOL0     H17232   3.306   1.899   3.258  1.5845 -0.8775  0.8237
  850MOL0     H17233   3.123   1.811   3.265 -0.8821  0.2189 -0.0669
  850MOL0     H17234   3.096   1.667   3.179  4.0814  0.8878 -2.4318
  850MOL0     H17235   2.869   1.765   3.234 -0.4514  0.9909 -0.1715
  850MOL0     H17236   2.915   1.912   3.177 -1.3357 -0.2149 -0.9369
  850MOL0     H17237   2.911   1.826   2.931  0.5063  2.8688  1.6944
  850MOL0     H17238   2.897   1.659   2.982  0.5072  0.1117 -1.9078
  850MOL0     H17239   2.697   1.714   3.122  0.7186  0.0208 -0.1079
  850MOL0     H17240   2.684   1.859   3.023 -1.9745  0.2683  0.8147
  850MOL0     H17241   2.656   1.562   2.970  0.1898  0.1998  2.2776
  850MOL0     H17242   2.692   1.677   2.835 -0.8301  1.2676 -0.4772
  850MOL0     H17243   2.473   1.678   3.048 -0.8584  3.6650  2.0989
  850MOL0     H17244   2.495   1.813   2.930  1.5953 -0.5037 -3.6460
  850MOL0     H17245   2.306   1.630   2.873  0.0080  0.2679 -0.9958
  850MOL0     H17246   2.433   1.511   2.897  0.2360 -1.3094 -3.0536
  850MOL0     H17247   2.431   1.718   2.669  1.0073 -0.8015 -0.8954
  850MOL0     H17248   2.538   1.585   2.691 -0.4358 -1.1732 -1.5219
  850MOL0     H17249   2.377   1.332   2.712 -0.2277 -0.5732 -2.3047
  850MOL0     H17250   2.160   1.158   2.581  2.7397  3.0641 -0.8291
  850MOL0     H17251   2.017   1.240   2.566  0.7561  0.3898 -1.4046
  850MOL0     H17252   1.999   1.119   2.767  0.5099 -0.0601  2.7241
  850MOL0     H17253   2.140   1.204   2.835  1.0106  0.8844 -0.9515
  850MOL0     H17254   2.013   1.400   2.851  3.0160 -0.8648 -3.6167
  850MOL0     H17255   1.882   1.342   2.748  0.8569  0.9780 -1.3656
  850MOL0     H17256   1.813   1.349   3.003 -1.2812 -2.0616  1.8569
  850MOL0     H17257   1.790   1.202   2.906  0.1914 -0.6714  0.0230
  850MOL0     H17258   2.165   1.087   3.162 -1.4450 -0.0624 -2.0401
  850MOL0     H17259   2.448   1.207   3.335  0.5350 -2.4078  0.3290
  850MOL0     H17260   2.371   1.085   3.245  0.3906  2.4472 -2.3545
  850MOL0     H17261   2.326   1.120   3.412  0.6930  1.5037  1.0691
  850MOL0     H17262   2.503   1.340   3.655  0.3714 -0.1992 -0.8696
  850MOL0     H17263   2.661   1.447   3.813 -1.2081 -0.8676 -0.0515
  850MOL0     H17264   2.910   1.768   3.687 -0.3079 -0.2516  0.0474
  850MOL0     H17265   2.773   1.864   3.757 -0.6962 -0.9669 -0.4854
  850MOL0     H17266   2.975   1.931   3.879 -1.9617  0.9689  3.4074
  850MOL0     H17267   2.881   1.822   3.984 -2.9459 -2.1387 -1.9050
  850MOL0     H17268   3.091   1.721   3.798 -0.9784  1.2298 -1.3174
  850MOL0     H17269   3.025   1.639   3.939 -1.3366 -0.7222 -1.4293
  850MOL0     H17270   3.142   1.805   4.095  0.0287  1.5386 -0.5114
  850MOL0     H17271   3.218   1.883   3.960  4.9784 -2.3717 -0.0939
  850MOL0     H17272   3.312   1.684   3.858  2.2232  0.7985  0.3122
  850MOL0     H17273   3.380   1.752   4.003 -0.8139  3.8853  0.3542
  850MOL0     H17274   3.198   1.497   4.015 -0.5554  0.7590  0.2038
  850MOL0     H17275   3.280   1.588   4.139 -3.5305  0.3096 -0.0789
  850MOL0     H17276   3.503   1.489   4.066  0.5888  1.2067 -0.1052
  850MOL0     H17277   3.453   1.469   3.906  0.1386 -1.9504  0.4898
  850MOL0     H17278   3.281   1.292   4.059 -0.2099 -0.6485 -0.8174
  850MOL0     H17279   3.448   1.270   4.120 -0.1206 -3.0143 -1.0820
  850MOL0     H17280   2.687   1.794   3.557  1.5294 -0.2709 -0.8392
  850MOL0     H17281   2.523   1.681   3.402  0.5562  1.8365  0.6991
  850MOL0     H17282   2.143   1.581   3.204 -0.2538  0.8625  1.6202
  850MOL0     H17283   1.957   1.464   3.102  0.4623 -0.2125  1.7854
  850MOL0     H17284   3.242   1.895   2.845  0.9751  0.2785 -0.2117
  850MOL0     H17285   3.459   2.019   2.810 -1.0581 -0.1598  0.1295
  850MOL0     H17286   3.776   2.272   2.935  1.3638  4.5491 -2.1914
  850MOL0     H17287   3.976   2.408   2.898  0.7685  2.5389  3.0691
  850MOL0     H17288   4.199   2.441   2.804 -2.8297  3.5283  0.0862
  850MOL0     H17289   4.143   2.531   2.947  1.0379  0.1679  0.4065
  850MOL0     H17290   4.419   2.443   2.904  0.4299  0.0585 -0.1995
  850MOL0     H17291   4.382   2.574   3.017 -0.9225 -1.3086  1.0120
  850MOL0     H17292   4.381   2.562   2.714 -2.7191 -0.3677 -0.1122
  850MOL0     H17293   4.317   2.707   2.790 -0.5817  0.4203  1.9704
  850MOL0     H17294   4.524   2.777   2.911  2.9472 -0.2046  0.3824
  850MOL0     H17295   4.547   2.774   2.743  2.1610  2.2911  2.6188
  850MOL0     H17296   4.801   2.472   2.831 -1.0729 -0.9077  2.4531
  850MOL0     H17297   4.195   2.173   3.172  1.8507  0.7780 -3.7355
  850MOL0     H17298   3.939   2.014   3.339  1.4159  4.7848  1.0774
  850MOL0     H17299   4.009   1.894   3.225 -1.4418 -0.9632  4.7777
  850MOL0     H17300   4.100   2.025   3.300 -0.7534  2.6441  1.3897
  851MOL0     O17301   7.412   7.912   3.163  0.4532 -0.6442  0.3009
  851MOL0     C17302   7.487   7.954   3.254  0.0456 -0.3605  0.9136
  851MOL0     O17303   7.446   7.976   3.381  1.1715 -0.0907  0.0909
  851MOL0     C17304   7.318   7.947   3.427 -0.1680 -0.3357 -0.0171
  851MOL0     C17305   7.273   7.823   3.397 -0.1840 -0.4182 -0.7450
  851MOL0     C17306   7.158   7.787   3.449 -0.8509 -0.3732  0.0687
  851MOL0     C17307   7.092   7.860   3.551 -1.4087 -0.6555  0.2576
  851MOL0     O17308   6.999   7.802   3.616 -0.2786 -0.5234 -0.3936
  851MOL0     C17309   6.942   7.876   3.719 -0.8532  0.5632 -0.4344
  851MOL0     C17310   6.826   7.805   3.793  0.4263  0.0741  0.3914
  851MOL0     C17311   6.728   7.723   3.704 -0.1551  0.5949 -0.2463
  851MOL0     C17312   6.743   7.571   3.744  0.9862  0.5946  0.2744
  851MOL0     C17313   6.675   7.470   3.644  0.5082  0.5317 -0.7086
  851MOL0     C17314   6.540   7.520   3.615 -0.1544  0.4485  0.7470
  851MOL0     C17315   6.469   7.421   3.537 -0.0259  0.0702 -0.3845
  851MOL0     C17316   6.312   7.436   3.520 -0.2923  0.1543  0.0850
  851MOL0     N17317   6.251   7.322   3.442  0.3011  1.1489 -0.2659
  851MOL0     C17318   6.278   7.280   3.313 -0.0902 -0.4098 -0.4327
  851MOL0     C17319   6.185   7.196   3.276 -0.3381 -0.2343  0.2989
  851MOL0     C17320   6.190   7.112   3.151  0.1282 -0.2622  0.0696
  851MOL0     C17321   6.115   7.164   3.031  0.4438 -0.6481  0.5028
  851MOL0     C17322   6.160   7.096   2.903 -0.3397 -0.0176  0.3388
  851MOL0     C17323   6.266   7.165   2.816 -0.4722 -0.0536 -0.2005
  851MOL0     O17324   6.272   7.082   2.698 -0.7717  0.6373 -0.1781
  851MOL0     C17325   6.333   7.140   2.591  0.9563  0.1809 -0.9272
  851MOL0     C17326   6.463   7.106   2.560 -0.7678 -0.7163  0.3580
  851MOL0     C17327   6.528   7.164   2.447  0.1995  0.4250 -0.4939
  851MOL0     C17328   6.678   7.136   2.441 -0.7658 -0.3826 -0.0456
  851MOL0     C17329   6.461   7.256   2.371 -0.1244 -0.2810  0.7860
  851MOL0     C17330   6.515   7.316   2.250 -0.6811 -0.1410  0.0215
  851MOL0     O17331   6.432   7.411   2.177 -0.4297  0.1956 -0.4140
  851MOL0     C17332   6.486   7.476   2.060  0.5146 -0.6218  0.2545
  851MOL0     C17333   6.594   7.432   1.980 -0.5420  0.0900 -0.0784
  851MOL0     C17334   6.637   7.506   1.866  0.3142 -0.2660  0.3044
  851MOL0     C17335   6.568   7.622   1.825 -0.2410  0.4604 -0.3823
  851MOL0     O17336   6.602   7.696   1.716  0.8491  0.3196  0.2151
  851MOL0     C17337   6.714   7.676   1.636  0.2940  0.6905  0.3633
  851MOL0     C17338   6.688   7.748   1.505 -0.6738 -0.6875 -0.2355
  851MOL0     C17339   6.671   7.899   1.515 -0.4795 -0.3835 -0.1199
  851MOL0     C17340   6.806   7.980   1.503  0.5653  0.0652  0.7487
  851MOL0     C17341   6.782   8.134   1.508 -0.6966  0.0721 -0.0219
  851MOL0     C17342   6.712   8.197   1.629  0.6346  0.4900  0.3598
  851MOL0     C17343   6.753   8.345   1.644  0.0738  0.1634 -0.1338
  851MOL0     C17344   6.731   8.389   1.785 -1.4823 -0.3551 -0.8368
  851MOL0    Cl17345   6.562   8.355   1.834  0.6083  0.4269 -0.2188
  851MOL0     C17346   6.465   7.676   1.897  0.8740 -0.4267  0.5078
  851MOL0     C17347   6.430   7.604   2.020  0.1490 -0.4124 -0.0788
  851MOL0     O17348   6.634   7.296   2.230  0.7055  0.1253 -0.3180
  851MOL0     C17349   6.324   7.288   2.400 -0.1729  0.2237 -0.3251
  851MOL0     C17350   6.260   7.228   2.510  0.2855  0.4531 -0.8515
  851MOL0     N17351   6.099   7.173   3.379 -0.4297 -0.8999  0.2154
  851MOL0     N17352   6.143   7.244   3.479  0.2586 -0.6034  0.2328
  851MOL0     C17353   7.136   7.990   3.575 -0.8426 -0.1940 -0.5909
  851MOL0     C17354   7.251   8.029   3.512 -0.2910 -0.5056 -0.3842
  851MOL0     C17355   7.618   7.994   3.210  0.0483 -0.4137  0.4734
  851MOL0     C17356   7.681   8.082   3.303  0.8143  1.0829  0.2685
  851MOL0     C17357   7.807   8.125   3.277 -0.0355  0.1962  0.9356
  851MOL0     C17358   7.873   8.099   3.164  0.0640  1.0568  0.1088
  851MOL0     O17359   8.002   8.138   3.159  0.1159 -0.2677 -0.1360
  851MOL0     C17360   8.061   8.160   3.029 -0.1516  0.7786  0.8225
  851MOL0     C17361   8.156   8.273   3.025  0.1050  0.1131  1.3347
  851MOL0     C17362   8.234   8.275   2.896 -0.0734  0.3609  0.1374
  851MOL0     C17363   8.321   8.402   2.886 -0.4027  0.1169  0.4704
  851MOL0     C17364   8.409   8.416   3.004 -0.4876  0.2445 -0.3361
  851MOL0     C17365   8.480   8.436   3.106  0.0008 -0.3143 -0.5172
  851MOL0     C17366   7.819   8.014   3.073 -0.7352  0.4810  0.4509
  851MOL0     C17367   7.689   7.958   3.090 -0.3287 -0.9156 -0.7401
  851MOL0     C17368   7.628   7.873   2.976  0.0704 -0.0206 -0.6829
  851MOL0     H17369   7.325   7.757   3.327 -0.8841 -1.3424 -0.4148
  851MOL0     H17370   7.121   7.693   3.409 -2.4181  0.8888 -1.6356
  851MOL0     H17371   6.901   7.968   3.677 -1.3852  0.0087 -1.1483
  851MOL0     H17372   7.016   7.897   3.796 -0.1801  0.1909 -0.9729
  851MOL0     H17373   6.870   7.741   3.871  0.2118  2.9272  3.0265
  851MOL0     H17374   6.772   7.878   3.853 -2.1698 -0.1334 -1.5389
  851MOL0     H17375   6.626   7.748   3.733  0.2312  2.6627 -0.4930
  851MOL0     H17376   6.750   7.747   3.600  1.6009  1.1834  0.2187
  851MOL0     H17377   6.848   7.542   3.745  1.0271  0.6575 -0.7897
  851MOL0     H17378   6.704   7.556   3.845 -2.9652  3.6037 -0.5507
  851MOL0     H17379   6.677   7.371   3.690  1.0255  2.7128  4.7981
  851MOL0     H17380   6.714   7.444   3.546  1.7341  0.4586 -0.2260
  851MOL0     H17381   6.488   7.546   3.708 -2.9784 -2.9327  0.3057
  851MOL0     H17382   6.542   7.612   3.556  1.0236  1.5961  2.4685
  851MOL0     H17383   6.480   7.326   3.591  1.4043  0.5000  0.1326
  851MOL0     H17384   6.524   7.404   3.444 -0.9817 -3.5468 -0.4233
  851MOL0     H17385   6.261   7.443   3.617  0.0042 -0.2002  0.2681
  851MOL0     H17386   6.290   7.529   3.467 -1.6947 -0.0218  0.3182
  851MOL0     H17387   6.347   7.319   3.239 -1.4265 -0.4777 -1.7308
  851MOL0     H17388   6.132   7.023   3.177  0.0971 -0.4404 -0.5805
  851MOL0     H17389   6.295   7.091   3.131  0.5269  1.1589  0.6102
  851MOL0     H17390   6.009   7.146   3.049 -0.1709  0.6797 -1.5393
  851MOL0     H17391   6.134   7.271   3.025  0.3932 -0.6937 -0.6361
  851MOL0     H17392   6.183   6.996   2.939 -0.5845 -0.1626  0.0919
  851MOL0     H17393   6.073   7.084   2.838  0.3352  1.0852 -0.8139
  851MOL0     H17394   6.239   7.270   2.799  1.8575  0.9839  1.9862
  851MOL0     H17395   6.368   7.163   2.856  0.2785  0.7401 -1.9232
  851MOL0     H17396   6.521   7.026   2.604  1.6133 -0.0333 -1.3373
  851MOL0     H17397   6.686   7.052   2.371  0.8240 -0.7383  0.5321
  851MOL0     H17398   6.714   7.115   2.542 -3.9312  1.0189  1.5117
  851MOL0     H17399   6.739   7.224   2.420 -0.5935 -0.1390  1.4020
  851MOL0     H17400   6.640   7.337   2.006 -0.6413  0.0925  0.1113
  851MOL0     H17401   6.728   7.469   1.819  0.5758 -1.5543  1.7515
  851MOL0     H17402   6.806   7.700   1.689  1.5366 -1.2849 -0.7991
  851MOL0     H17403   6.718   7.568   1.620  0.3988  0.2206  3.0135
  851MOL0     H17404   6.768   7.721   1.435 -1.4513 -0.9017 -1.0670
  851MOL0     H17405   6.595   7.713   1.460 -1.0222  1.1062 -0.9808
  851MOL0     H17406   6.616   7.929   1.604  0.3113  1.5112 -0.2312
  851MOL0     H17407   6.612   7.935   1.430 -0.2220 -0.2907 -0.2620
  851MOL0     H17408   6.857   7.945   1.413  0.5567 -0.9722  1.1327
  851MOL0     H17409   6.876   7.961   1.585  1.6924  2.0419  0.2928
  851MOL0     H17410   6.885   8.171   1.500  0.4088 -2.7760  0.0909
  851MOL0     H17411   6.726   8.155   1.416 -0.7101 -0.1021 -0.0522
  851MOL0     H17412   6.750   8.148   1.719  0.8311  1.2354  0.6879
  851MOL0     H17413   6.605   8.178   1.618  0.9286 -0.8455 -0.4737
  851MOL0     H17414   6.707   8.414   1.573 -1.9889 -1.5037 -0.5231
  851MOL0     H17415   6.860   8.360   1.623 -0.5859  2.9992 -1.9993
  851MOL0     H17416   6.760   8.495   1.786  2.0698 -1.1656 -2.4599
  851MOL0     H17417   6.789   8.331   1.857 -0.4432  1.0340 -0.5119
  851MOL0     H17418   6.418   7.770   1.871  0.5171 -0.2769  1.6203
  851MOL0     H17419   6.355   7.654   2.080  1.2990 -1.5220  2.4091
  851MOL0     H17420   6.269   7.351   2.331  0.8374  2.4938  0.8564
  851MOL0     H17421   6.159   7.259   2.535  0.2183 -0.2948 -0.1446
  851MOL0     H17422   7.095   8.070   3.636  2.3355  2.3651 -1.5581
  851MOL0     H17423   7.303   8.117   3.548  1.9857 -1.5501 -0.9687
  851MOL0     H17424   7.635   8.112   3.397 -0.2400  1.5138 -0.3655
  851MOL0     H17425   7.874   8.175   3.347  1.0645  0.7187 -0.4473
  851MOL0     H17426   8.117   8.077   2.985 -1.8685  0.2668 -0.4754
  851MOL0     H17427   7.978   8.180   2.961  0.2168  0.5336  0.2964
  851MOL0     H17428   8.230   8.252   3.103  2.7005 -0.5295 -1.1369
  851MOL0     H17429   8.104   8.369   3.034 -0.8423 -0.1902 -0.3718
  851MOL0     H17430   8.306   8.192   2.891  0.5072  0.9249 -1.9645
  851MOL0     H17431   8.171   8.268   2.807  1.5921 -2.4130 -0.9580
  851MOL0     H17432   8.262   8.491   2.860  0.2089  0.1854 -0.7673
  851MOL0     H17433   8.375   8.390   2.792 -1.5962  1.0329 -0.3679
  851MOL0     H17434   8.552   8.439   3.185  3.5557  1.5346 -3.4704
  851MOL0     H17435   7.888   7.983   2.995 -1.3278 -1.3546  0.6071
  851MOL0     H17436   7.552   7.922   2.915  1.5131  1.3652 -1.4334
  851MOL0     H17437   7.707   7.849   2.904 -1.7186 -0.1569 -2.6869
  851MOL0     H17438   7.591   7.780   3.019  1.4191  0.3130  1.3810
  852MOL0     O17439  10.762   4.644   7.131 -0.6002 -0.2515 -0.2248
  852MOL0     C17440  10.670   4.563   7.159 -0.4069 -0.5360  0.0764
  852MOL0     O17441  10.690   4.453   7.235  0.1152 -0.2797  0.5241
  852MOL0     C17442  10.823   4.423   7.253  0.2157 -0.3513  0.7801
  852MOL0     C17443  10.880   4.428   7.387 -0.5274 -0.6864  0.7028
  852MOL0     C17444  11.006   4.377   7.399 -1.0324  0.5163 -0.7918
  852MOL0     C17445  11.081   4.315   7.288  0.1588  0.3539 -0.3979
  852MOL0     O17446  11.210   4.270   7.307  0.2959 -0.3801 -0.4405
  852MOL0     C17447  11.302   4.359   7.247  1.0397  0.2308 -0.3131
  852MOL0     C17448  11.412   4.262   7.188  0.1721 -0.2437  0.0963
  852MOL0     C17449  11.519   4.360   7.142  0.2319 -0.2328  1.2107
  852MOL0     C17450  11.480   4.466   7.036  0.2450  0.3734 -1.3486
  852MOL0     C17451  11.604   4.533   6.975 -0.9025 -0.1842 -0.1656
  852MOL0     C17452  11.692   4.593   7.078  0.1429 -0.1563 -0.6124
  852MOL0     C17453  11.782   4.707   7.035 -0.0366  0.2265  0.2570
  852MOL0     C17454  11.686   4.826   6.984 -0.9555  1.0138  0.0619
  852MOL0     N17455  11.761   4.944   7.020  0.1996 -0.5741  0.9795
  852MOL0     C17456  11.871   4.982   6.947 -0.5218  0.7009  0.1081
  852MOL0     C17457  11.907   5.102   7.002  1.2793  0.8752  0.0851
  852MOL0     C17458  12.030   5.180   6.962 -0.9128 -0.3168 -0.4066
  852MOL0     C17459  12.169   5.106   6.989  0.3067  0.7948 -0.0007
  852MOL0     C17460  12.193   5.076   7.135 -0.3466 -0.5877 -0.0732
  852MOL0     C17461  12.332   5.020   7.160  0.9098 -0.3078 -0.9990
  852MOL0     O17462  12.427   5.111   7.119  0.1022  0.3332 -0.0834
  852MOL0     C17463  12.556   5.069   7.124  0.0893 -0.1526 -0.5599
  852MOL0     C17464  12.601   4.940   7.172 -0.3083 -0.0876 -0.2917
  852MOL0     C17465  12.728   4.898   7.153  0.2195 -0.6619  0.0343
  852MOL0     C17466  12.761   4.763   7.215  0.6100  0.1372 -0.3155
  852MOL0     C17467  12.826   4.985   7.094 -0.4561  0.1568  0.3721
  852MOL0     C17468  12.972   4.954   7.090 -0.8440 -0.1081  0.1732
  852MOL0     O17469  13.042   5.045   7.009  0.0236  0.0699 -0.1269
  852MOL0     C17470  13.177   5.015   6.986 -0.9805 -0.1317  0.9505
  852MOL0     C17471  13.215   4.902   6.913 -0.7857 -0.0904  0.4906
  852MOL0     C17472  13.344   4.885   6.887 -0.4261  0.5425  0.0942
  852MOL0     C17473  13.442   4.974   6.933 -0.2124  0.2254  0.2185
  852MOL0     O17474  13.577   4.937   6.919 -0.4559 -0.5555  0.1574
  852MOL0     C17475  13.681   5.015   6.958  0.0678 -1.1686 -0.6174
  852MOL0     C17476  13.816   4.945   6.934  0.3106  0.7643  0.0509
  852MOL0     C17477  13.928   4.988   7.033  0.0091 -0.5178 -0.2253
  852MOL0     C17478  14.058   4.913   6.994 -0.2669 -0.4482 -0.2391
  852MOL0     C17479  14.189   4.971   7.050 -0.8724  0.2497  0.5707
  852MOL0     C17480  14.315   4.893   7.005  0.2036 -0.3201  0.6753
  852MOL0     C17481  14.322   4.749   7.050 -0.4331  0.5095  0.5804
  852MOL0     C17482  14.444   4.663   6.995 -0.8368  0.0173 -0.7332
  852MOL0    Cl17483  14.579   4.754   7.061  0.8331 -0.1403 -0.2337
  852MOL0     C17484  13.405   5.090   7.001 -0.6769 -0.0978  0.1432
  852MOL0     C17485  13.269   5.113   7.025  0.0438  0.9054 -0.5372
  852MOL0     O17486  13.021   4.865   7.159 -0.7258  0.2949  0.2595
  852MOL0     C17487  12.777   5.111   7.041  0.5097 -0.2437  0.2969
  852MOL0     C17488  12.647   5.155   7.061  1.0735  0.9491 -0.3179
  852MOL0     N17489  11.824   5.132   7.110  0.2187  0.4065 -0.1052
  852MOL0     N17490  11.735   5.034   7.123 -0.4966  0.9646 -0.1413
  852MOL0     C17491  11.017   4.306   7.166 -0.1512  0.1248  0.0323
  852MOL0     C17492  10.883   4.363   7.147 -0.9652  0.4425  0.5616
  852MOL0     C17493  10.528   4.608   7.130 -0.1556  0.7052 -0.3479
  852MOL0     C17494  10.430   4.510   7.115 -0.0021  0.1644 -0.8469
  852MOL0     C17495  10.303   4.544   7.067 -0.0074  0.9103  0.0231
  852MOL0     C17496  10.272   4.671   7.033  0.0318 -0.2261 -0.3132
  852MOL0     O17497  10.154   4.720   6.981 -0.3823  0.4589 -0.5620
  852MOL0     C17498  10.034   4.630   6.978 -0.0734  0.5736 -0.0700
  852MOL0     C17499   9.987   4.605   6.838 -0.1992  0.8304  0.9201
  852MOL0     C17500  10.080   4.505   6.771  1.0210 -0.8955 -0.1395
  852MOL0     C17501  10.036   4.475   6.626 -0.4527 -0.4215 -0.0991
  852MOL0     C17502  10.111   4.362   6.572  0.0505  0.1040  0.0114
  852MOL0     C17503  10.158   4.258   6.525 -0.0266  0.5437 -0.4598
  852MOL0     C17504  10.361   4.770   7.068  0.0487  0.6575  0.1213
  852MOL0     C17505  10.492   4.742   7.118 -0.2367  1.0633 -0.1987
  852MOL0     C17506  10.579   4.854   7.169  0.5998 -0.6021 -0.4928
  852MOL0     H17507  10.823   4.491   7.454 -0.4222  1.7831 -1.3569
  852MOL0     H17508  11.059   4.398   7.491  2.1133  2.2642 -2.7724
  852MOL0     H17509  11.335   4.431   7.322 -1.8630  2.1119 -0.6932
  852MOL0     H17510  11.255   4.428   7.176  0.2322  0.9274  0.8587
  852MOL0     H17511  11.458   4.192   7.258  0.8265 -1.8114 -1.8186
  852MOL0     H17512  11.378   4.198   7.106  2.3166  0.1443 -1.1657
  852MOL0     H17513  11.557   4.416   7.227  0.7846  1.9182 -0.3825
  852MOL0     H17514  11.602   4.306   7.095  0.8060  1.3888  0.3109
  852MOL0     H17515  11.433   4.417   6.950 -2.4472  1.0964 -0.3745
  852MOL0     H17516  11.406   4.536   7.075  1.9939  0.5629  2.0363
  852MOL0     H17517  11.579   4.605   6.896 -0.9893  0.0855  0.1058
  852MOL0     H17518  11.670   4.457   6.933  1.7934  0.6204  2.2298
  852MOL0     H17519  11.627   4.631   7.157 -2.9885  0.8536 -3.4840
  852MOL0     H17520  11.757   4.516   7.121 -1.0049 -0.0230  1.4811
  852MOL0     H17521  11.857   4.675   6.962  0.7392  0.4936  0.9258
  852MOL0     H17522  11.832   4.747   7.123  0.7876  2.2287 -1.0563
  852MOL0     H17523  11.655   4.833   6.879 -2.8815 -0.5573  0.4601
  852MOL0     H17524  11.590   4.824   7.036 -1.2742 -0.6494 -0.5065
  852MOL0     H17525  11.925   4.929   6.869  1.0547 -4.5806  4.2306
  852MOL0     H17526  12.042   5.270   7.022 -1.4322  0.9461 -2.1227
  852MOL0     H17527  12.025   5.205   6.856 -1.5456 -0.7959 -0.4976
  852MOL0     H17528  12.177   5.017   6.926 -0.0881 -0.0257  1.0735
  852MOL0     H17529  12.248   5.173   6.955  0.1331  1.9681  1.7809
  852MOL0     H17530  12.177   5.168   7.190 -1.1183 -0.2463 -0.8368
  852MOL0     H17531  12.120   5.000   7.166 -0.1173 -1.3454 -1.2956
  852MOL0     H17532  12.343   4.999   7.267  0.0572  1.3444 -0.5586
  852MOL0     H17533  12.341   4.926   7.103  0.1002  0.3808 -2.3021
  852MOL0     H17534  12.527   4.874   7.218 -0.7339 -1.0351 -2.2623
  852MOL0     H17535  12.673   4.708   7.249  1.7696 -1.0389  0.8977
  852MOL0     H17536  12.817   4.781   7.307  2.7041  0.6263 -1.6325
  852MOL0     H17537  12.808   4.693   7.145 -2.9014 -2.2299 -0.5995
  852MOL0     H17538  13.141   4.831   6.878 -1.0714 -0.2641  1.4205
  852MOL0     H17539  13.381   4.811   6.817 -4.4431 -0.7349 -0.8947
  852MOL0     H17540  13.685   5.114   6.911  2.5020 -0.3193  1.1762
  852MOL0     H17541  13.687   5.041   7.064 -0.1459  1.1398 -1.1252
  852MOL0     H17542  13.805   4.837   6.937 -1.1054  0.6443 -3.9622
  852MOL0     H17543  13.847   4.961   6.831 -1.6215 -2.4419 -1.1509
  852MOL0     H17544  13.910   4.959   7.137 -1.0428 -1.3857 -0.6261
  852MOL0     H17545  13.956   5.093   7.018  2.0130 -1.1639 -1.3378
  852MOL0     H17546  14.071   4.891   6.888 -3.4282  0.8848 -1.0126
  852MOL0     H17547  14.047   4.818   7.047 -0.3261 -1.3157 -1.7793
  852MOL0     H17548  14.197   5.069   7.002  1.0117  0.6012  1.5073
  852MOL0     H17549  14.195   4.969   7.159  2.3508 -1.9663  0.4794
  852MOL0     H17550  14.397   4.956   7.043 -0.2962  0.2738  0.7809
  852MOL0     H17551  14.322   4.892   6.896 -0.0112  1.7651  0.6012
  852MOL0     H17552  14.243   4.686   7.010  1.4428 -1.0449 -0.8684
  852MOL0     H17553  14.314   4.740   7.159  2.7449  0.7342  0.9257
  852MOL0     H17554  14.443   4.659   6.886 -0.7254  0.3607 -0.7470
  852MOL0     H17555  14.437   4.563   7.038  3.7083  0.5342  1.8145
  852MOL0     H17556  13.469   5.171   7.035 -0.6599  1.7032 -3.7078
  852MOL0     H17557  13.236   5.209   7.063  1.1036  1.0656  0.0066
  852MOL0     H17558  12.841   5.184   6.992 -1.8472  0.8003 -1.3791
  852MOL0     H17559  12.618   5.244   7.007  2.6408 -0.2932 -3.4945
  852MOL0     H17560  11.070   4.261   7.083 -0.6850  2.3010 -1.6005
  852MOL0     H17561  10.847   4.349   7.045 -0.0352 -0.4770  0.3402
  852MOL0     H17562  10.461   4.408   7.136 -0.7303  0.6165  3.0914
  852MOL0     H17563  10.236   4.462   7.048  0.4474  0.9175 -1.8511
  852MOL0     H17564  10.045   4.539   7.039 -0.0796  0.9507  0.5026
  852MOL0     H17565   9.955   4.685   7.031 -0.6610 -2.9117  3.1847
  852MOL0     H17566   9.990   4.694   6.774  0.7538 -0.7148 -1.3227
  852MOL0     H17567   9.880   4.581   6.840 -0.1291  0.5209  0.8867
  852MOL0     H17568  10.184   4.538   6.760  1.1726 -1.7795 -1.7325
  852MOL0     H17569  10.080   4.411   6.827 -0.9494 -0.7750  0.1173
  852MOL0     H17570  10.051   4.566   6.567  0.1333 -1.1406 -1.0827
  852MOL0     H17571   9.927   4.459   6.625 -0.7907  1.4270  1.4989
  852MOL0     H17572  10.199   4.171   6.478 -0.0106  1.2711 -1.8411
  852MOL0     H17573  10.337   4.872   7.040 -0.4245  1.6852  3.7527
  852MOL0     H17574  10.662   4.882   7.104 -0.0434  1.8722 -0.3260
  852MOL0     H17575  10.520   4.946   7.173  0.6600 -0.5644 -0.4931
  852MOL0     H17576  10.621   4.831   7.267  0.3392  1.8351  0.2564
  853MOL0     O17577   2.261  11.297   9.116 -0.3269 -0.2305 -0.2494
  853MOL0     C17578   2.278  11.177   9.144  1.0841 -0.2510 -0.7513
  853MOL0     O17579   2.388  11.123   9.185 -0.4861  0.0161  0.1715
  853MOL0     C17580   2.480  11.213   9.213  0.6420  1.3845 -0.4941
  853MOL0     C17581   2.578  11.235   9.113 -0.2246 -0.8626  0.4544
  853MOL0     C17582   2.657  11.340   9.137 -0.2098  0.8738 -0.2772
  853MOL0     C17583   2.650  11.424   9.252 -0.4576  0.1167 -0.4064
  853MOL0     O17584   2.730  11.535   9.253 -0.8710 -0.4209  0.0587
  853MOL0     C17585   2.781  11.600   9.377  0.4863  1.0574 -0.4033
  853MOL0     C17586   2.704  11.722   9.407  0.7573 -0.1079 -1.6924
  853MOL0     C17587   2.734  11.781   9.545  0.0118  0.4279  0.5630
  853MOL0     C17588   2.666  11.689   9.653  0.1181 -0.3814  0.1067
  853MOL0     C17589   2.678  11.758   9.785  0.7950 -0.3350  0.1872
  853MOL0     C17590   2.825  11.770   9.822 -0.1338 -0.1086 -0.3538
  853MOL0     C17591   2.831  11.805   9.967  0.8375 -0.0895 -0.9119
  853MOL0     C17592   2.806  11.681  10.054  0.1458 -0.5179 -0.0860
  853MOL0     N17593   2.868  11.683  10.184  0.7788  0.4160  0.8187
  853MOL0     C17594   2.997  11.628  10.210  0.0579 -0.0505  0.7332
  853MOL0     C17595   3.031  11.679  10.326 -0.4070  0.3003  0.0959
  853MOL0     C17596   3.159  11.659  10.395 -0.0462  0.1397 -0.0625
  853MOL0     C17597   3.274  11.640  10.297  0.4707  0.1765  0.2907
  853MOL0     C17598   3.407  11.586  10.356  0.0127 -0.1301 -0.6702
  853MOL0     C17599   3.403  11.459  10.432 -1.2425 -0.3029  0.7774
  853MOL0     O17600   3.434  11.348  10.356 -0.9035  0.1327 -0.0508
  853MOL0     C17601   3.566  11.326  10.312  0.5490  0.8007 -0.9859
  853MOL0     C17602   3.574  11.281  10.182  0.1169  0.2161  1.2071
  853MOL0     C17603   3.704  11.268  10.108  0.7009 -0.3073 -0.0380
  853MOL0     C17604   3.708  11.241   9.962 -0.2749  0.6541  0.5951
  853MOL0     C17605   3.822  11.312  10.184  0.1889  0.3216  0.3440
  853MOL0     C17606   3.959  11.291  10.123  0.3531 -0.4470 -0.2619
  853MOL0     O17607   3.990  11.243   9.997 -0.1929  0.3073  0.9523
  853MOL0     C17608   4.103  11.277   9.931 -0.0355 -0.0386 -0.3142
  853MOL0     C17609   4.150  11.193   9.832  0.1959  0.0283 -1.0783
  853MOL0     C17610   4.253  11.233   9.749 -0.4589  0.1497 -0.4151
  853MOL0     C17611   4.307  11.367   9.746  0.6683 -0.0944 -0.6556
  853MOL0     O17612   4.414  11.407   9.676  0.6980  0.2145 -0.0212
  853MOL0     C17613   4.484  11.315   9.588 -0.7402  0.5425  0.1506
  853MOL0     C17614   4.602  11.394   9.521 -0.3721 -0.3811  0.0491
  853MOL0     C17615   4.708  11.293   9.470  0.4223 -0.6008 -0.7155
  853MOL0     C17616   4.818  11.359   9.383 -0.5439 -0.0754  0.3135
  853MOL0     C17617   4.905  11.451   9.473 -1.0807 -0.1776  0.1950
  853MOL0     C17618   5.033  11.504   9.401  0.3464 -0.3748 -0.4145
  853MOL0     C17619   5.127  11.573   9.497  0.1172  0.3869  0.2280
  853MOL0     C17620   5.253  11.619   9.416 -0.5512 -0.0796 -0.8223
  853MOL0    Cl17621   5.370  11.491   9.387 -0.4504  0.2823  0.4380
  853MOL0     C17622   4.258  11.462   9.841  0.5557 -0.3569  0.4371
  853MOL0     C17623   4.156  11.415   9.930  0.7647 -0.2708 -0.7306
  853MOL0     O17624   4.039  11.323  10.211  0.1837  0.4123  0.2188
  853MOL0     C17625   3.806  11.364  10.316 -0.1772 -0.2602  0.3652
  853MOL0     C17626   3.682  11.370  10.372 -0.3496  0.6460 -0.5818
  853MOL0     N17627   2.936  11.773  10.359 -0.6229 -0.4597  0.2957
  853MOL0     N17628   2.842  11.775  10.275  0.1635  0.1063  0.1272
  853MOL0     C17629   2.555  11.399   9.343  0.8356  0.3303 -0.5125
  853MOL0     C17630   2.473  11.293   9.328  0.5018  0.8521 -1.0376
  853MOL0     C17631   2.167  11.080   9.133  0.2350  0.7924 -0.3912
  853MOL0     C17632   2.180  10.953   9.072 -0.5870  0.0179  0.1114
  853MOL0     C17633   2.081  10.856   9.052  0.0266 -0.3760 -0.4495
  853MOL0     C17634   1.955  10.886   9.105  0.3321  0.4587  0.2203
  853MOL0     O17635   1.846  10.802   9.115 -0.5682 -0.2975  0.4973
  853MOL0     C17636   1.878  10.663   9.111 -0.5393  0.8811  0.1497
  853MOL0     C17637   1.738  10.591   9.136  0.1562  0.7958  0.0162
  853MOL0     C17638   1.690  10.621   9.278 -0.5940 -0.0007  0.5888
  853MOL0     C17639   1.558  10.545   9.311  0.5873  0.0779 -0.6490
  853MOL0     C17640   1.516  10.574   9.448  0.5131 -0.1208  0.9385
  853MOL0     C17641   1.491  10.606   9.562  0.4643 -1.1685 -0.2254
  853MOL0     C17642   1.928  11.004   9.169 -0.9309 -0.7161 -0.4157
  853MOL0     C17643   2.031  11.098   9.181 -0.7345 -0.0610  0.2010
  853MOL0     C17644   2.012  11.231   9.248  0.3710  0.5193  1.4163
  853MOL0     H17645   2.577  11.168   9.028  0.1422 -2.2062  1.4719
  853MOL0     H17646   2.729  11.351   9.056  1.3530 -2.0064  0.5726
  853MOL0     H17647   2.890  11.598   9.371  0.5303 -2.1392 -0.4631
  853MOL0     H17648   2.754  11.530   9.457 -1.6881  1.8440 -0.3776
  853MOL0     H17649   2.739  11.791   9.329  0.3561  0.5037 -1.3309
  853MOL0     H17650   2.598  11.697   9.399  0.5865  0.3770 -1.0485
  853MOL0     H17651   2.842  11.765   9.554 -0.0819 -2.7990 -1.8656
  853MOL0     H17652   2.717  11.889   9.547  1.6221  0.7052  0.8148
  853MOL0     H17653   2.562  11.669   9.627 -1.1285  4.1379  0.7197
  853MOL0     H17654   2.708  11.588   9.660  2.1617  0.3727 -0.3957
  853MOL0     H17655   2.636  11.687   9.858  2.3286 -0.0041  1.4324
  853MOL0     H17656   2.631  11.857   9.789  1.3773 -0.0216 -0.5092
  853MOL0     H17657   2.877  11.678   9.796  3.0048  2.3537 -3.7915
  853MOL0     H17658   2.865  11.855   9.766  2.4859 -1.4544 -0.7121
  853MOL0     H17659   2.755  11.878   9.997  0.4806 -0.4630 -0.9024
  853MOL0     H17660   2.924  11.850  10.003  0.1368 -1.3887  2.9387
  853MOL0     H17661   2.697  11.675  10.061 -0.4032  2.2706 -3.4872
  853MOL0     H17662   2.846  11.595  10.000 -1.1237 -0.5412 -1.0201
  853MOL0     H17663   3.038  11.542  10.158 -1.4889 -0.3905  0.0034
  853MOL0     H17664   3.151  11.574  10.464  0.8507  0.8909  1.0213
  853MOL0     H17665   3.193  11.740  10.460  3.5901 -3.1874  2.7661
  853MOL0     H17666   3.260  11.563  10.221 -0.7479 -2.9178  3.3831
  853MOL0     H17667   3.305  11.727  10.238  1.7439 -0.3483  0.1370
  853MOL0     H17668   3.473  11.567  10.270 -2.8723 -2.1212 -2.6582
  853MOL0     H17669   3.451  11.660  10.422  0.8184 -0.7468 -0.5008
  853MOL0     H17670   3.475  11.465  10.514 -1.8767 -0.1365  1.3200
  853MOL0     H17671   3.307  11.444  10.481 -1.2145  0.4249  1.0699
  853MOL0     H17672   3.479  11.252  10.139 -0.8143  2.0024  1.9911
  853MOL0     H17673   3.757  11.150   9.927  1.1503  1.8429 -0.6082
  853MOL0     H17674   3.757  11.326   9.915 -0.5871  2.1629  2.8340
  853MOL0     H17675   3.601  11.241   9.939 -0.4875  2.8438  1.3634
  853MOL0     H17676   4.112  11.091   9.836  2.5564 -0.8870 -0.2847
  853MOL0     H17677   4.294  11.158   9.682 -0.0675 -0.3891  0.4021
  853MOL0     H17678   4.537  11.234   9.639 -0.3608 -0.7764 -2.2008
  853MOL0     H17679   4.411  11.270   9.521  0.2531 -0.1259 -0.5010
  853MOL0     H17680   4.582  11.466   9.442 -0.9281 -0.4555  0.1187
  853MOL0     H17681   4.655  11.447   9.601  0.1304 -0.8375  0.0252
  853MOL0     H17682   4.654  11.213   9.418  2.7605 -1.7339 -1.5945
  853MOL0     H17683   4.767  11.250   9.552  1.3433 -0.5324 -1.3199
  853MOL0     H17684   4.773  11.433   9.316  0.8933  1.4095  0.9332
  853MOL0     H17685   4.878  11.292   9.321  2.4064 -0.2237  3.0632
  853MOL0     H17686   4.844  11.538   9.500 -0.5799  0.0818  0.5033
  853MOL0     H17687   4.939  11.399   9.563  1.1783  0.6028 -0.1432
  853MOL0     H17688   4.989  11.562   9.319  0.2866 -1.8842 -1.5002
  853MOL0     H17689   5.090  11.427   9.348  0.3403  0.0344 -1.0299
  853MOL0     H17690   5.164  11.499   9.568  0.1151 -1.2932 -1.4447
  853MOL0     H17691   5.083  11.659   9.548  1.3617  2.1298 -1.5107
  853MOL0     H17692   5.300  11.706   9.464 -4.9340  1.3654  1.3767
  853MOL0     H17693   5.204  11.653   9.325 -1.5490  0.6237 -0.0409
  853MOL0     H17694   4.277  11.568   9.841 -2.5948  0.3802 -2.8799
  853MOL0     H17695   4.103  11.490   9.988  1.6543  0.1905 -0.5085
  853MOL0     H17696   3.887  11.417  10.366 -0.6211  1.5985 -0.7824
  853MOL0     H17697   3.675  11.406  10.474  3.2376  1.5420 -0.5313
  853MOL0     H17698   2.533  11.468   9.425 -3.0544  0.5363 -1.5752
  853MOL0     H17699   2.393  11.267   9.397  2.5447  0.3812  1.2907
  853MOL0     H17700   2.280  10.922   9.043 -1.4141 -0.7950 -2.0835
  853MOL0     H17701   2.102  10.760   9.006 -1.2296 -0.8977  0.0415
  853MOL0     H17702   1.929  10.629   9.020 -1.1559 -3.4723  1.1913
  853MOL0     H17703   1.950  10.644   9.191  0.0756  2.1412 -0.0890
  853MOL0     H17704   1.743  10.483   9.125 -0.9105  0.5538  1.6429
  853MOL0     H17705   1.672  10.638   9.062 -1.0560 -1.3471 -0.3534
  853MOL0     H17706   1.754  10.580   9.356 -0.2986  4.2190  2.8573
  853MOL0     H17707   1.671  10.728   9.295 -3.1186 -0.5255  1.5681
  853MOL0     H17708   1.577  10.439   9.293  1.2044 -0.1078  0.9217
  853MOL0     H17709   1.481  10.582   9.242  1.6576 -0.0724 -1.9718
  853MOL0     H17710   1.461  10.630   9.663  0.5598 -0.8266 -0.2773
  853MOL0     H17711   1.843  11.032   9.231 -0.5859 -3.2104  1.3091
  853MOL0     H17712   1.915  11.240   9.298 -0.1481 -0.4917  0.6387
  853MOL0     H17713   2.086  11.230   9.329 -1.1118 -3.4719  3.0008
  853MOL0     H17714   2.032  11.309   9.175  0.9816  0.4016  1.4489
  854MOL0     O17715   0.219   2.511  11.032  0.2290  0.3158  0.1176
  854MOL0     C17716   0.325   2.449  11.008 -0.3595 -0.1715 -1.1341
  854MOL0     O17717   0.404   2.468  10.895  0.2753  0.0196 -0.2168
  854MOL0     C17718   0.365   2.548  10.795 -0.1720 -0.5865 -0.1049
  854MOL0     C17719   0.261   2.499  10.713 -0.2938 -0.6136 -0.5983
  854MOL0     C17720   0.220   2.571  10.605  0.4939  0.3267  0.8163
  854MOL0     C17721   0.257   2.705  10.589 -0.0626 -0.1625 -0.2014
  854MOL0     O17722   0.195   2.781  10.490  0.0293 -0.0408 -0.0140
  854MOL0     C17723   0.271   2.885  10.422  0.2774 -0.0714  0.2465
  854MOL0     C17724   0.226   2.873  10.281 -0.9064 -0.3221 -0.6615
  854MOL0     C17725   0.243   2.737  10.221 -1.3326  0.0348 -0.0849
  854MOL0     C17726   0.390   2.698  10.202  0.2110 -0.0116 -0.7420
  854MOL0     C17727   0.407   2.571  10.122 -0.5134 -1.0538  0.3704
  854MOL0     C17728   0.330   2.449  10.177  0.2675 -0.6698 -0.1001
  854MOL0     C17729   0.366   2.332  10.083  0.4094  0.4722 -0.4390
  854MOL0     C17730   0.271   2.218  10.108 -0.0152 -0.2366  1.0368
  854MOL0     N17731   0.292   2.168  10.247 -0.2440 -0.4018  0.9252
  854MOL0     C17732   0.400   2.100  10.287 -0.2622  0.2095  0.2243
  854MOL0     C17733   0.392   2.085  10.421 -0.2887  0.5337 -0.1519
  854MOL0     C17734   0.502   2.019  10.507  0.6931 -0.6091  0.4445
  854MOL0     C17735   0.510   2.091  10.647  0.0064 -0.4651 -0.4398
  854MOL0     C17736   0.632   2.046  10.729 -0.2195 -1.1115  0.3780
  854MOL0     C17737   0.765   2.100  10.682 -0.7737 -1.2769  0.1135
  854MOL0     O17738   0.888   2.042  10.745  0.5467  0.3300 -0.4210
  854MOL0     C17739   0.911   2.060  10.878  0.1818 -0.1243 -1.2444
  854MOL0     C17740   0.854   2.173  10.946  0.5633 -0.7467 -0.6534
  854MOL0     C17741   0.887   2.199  11.082  0.5170 -0.1634  0.4378
  854MOL0     C17742   0.829   2.317  11.155 -0.0520  0.1453 -0.6960
  854MOL0     C17743   0.987   2.115  11.149  0.8768  0.3523  1.1630
  854MOL0     C17744   1.014   2.124  11.290  0.1399 -0.2893 -0.2763
  854MOL0     O17745   0.917   2.157  11.378  0.1522  0.2710 -0.1336
  854MOL0     C17746   0.927   2.170  11.516  0.0439  0.0067  0.3427
  854MOL0     C17747   0.838   2.245  11.586 -0.1110  0.0015  0.4683
  854MOL0     C17748   0.844   2.259  11.731 -0.1637  0.6319 -0.0638
  854MOL0     C17749   0.945   2.198  11.810  0.5556  0.6725  0.4913
  854MOL0     O17750   0.953   2.206  11.950 -0.1602  0.5352  0.0683
  854MOL0     C17751   0.839   2.228  12.030 -0.3365 -0.1763 -0.2908
  854MOL0     C17752   0.816   2.379  12.059  1.3504 -0.0899 -0.4282
  854MOL0     C17753   0.756   2.414  12.187  0.1835  0.2393  0.2577
  854MOL0     C17754   0.838   2.396  12.309  0.0565 -0.1539 -0.4063
  854MOL0     C17755   0.874   2.535  12.377  1.0491  0.2077 -0.7722
  854MOL0     C17756   0.977   2.498  12.485  0.5776  0.1153 -0.3323
  854MOL0     C17757   1.061   2.624  12.526 -0.2551 -0.0253 -0.5324
  854MOL0     C17758   1.161   2.592  12.637  0.5518  0.9042  0.6602
  854MOL0    Cl17759   1.264   2.731  12.653  0.2687 -0.0349  0.3138
  854MOL0     C17760   1.044   2.134  11.733  0.2522 -0.2224  1.0402
  854MOL0     C17761   1.026   2.114  11.593 -0.9755  1.0208  0.5362
  854MOL0     O17762   1.135   2.106  11.316 -0.2097 -0.4378 -0.2432
  854MOL0     C17763   1.057   2.018  11.067  0.5047 -0.4146 -0.7097
  854MOL0     C17764   1.013   1.980  10.940 -0.4021 -0.5215  0.6462
  854MOL0     N17765   0.278   2.148  10.470 -0.6263 -0.2377  0.7109
  854MOL0     N17766   0.222   2.192  10.365 -0.5969  0.8157  0.3045
  854MOL0     C17767   0.354   2.759  10.676 -0.4859  0.9803  0.4233
  854MOL0     C17768   0.424   2.678  10.768  0.7011 -0.5351  0.0118
  854MOL0     C17769   0.380   2.349  11.109 -0.3374 -0.5021 -0.1575
  854MOL0     C17770   0.487   2.263  11.068 -1.1442  0.1745 -0.9684
  854MOL0     C17771   0.524   2.148  11.146  0.4847 -0.1493  0.0928
  854MOL0     C17772   0.459   2.112  11.259  0.1156  0.2312 -0.3157
  854MOL0     O17773   0.494   1.998  11.323  0.2805 -0.7319 -0.1771
  854MOL0     C17774   0.460   1.967  11.460 -0.4293  0.4409  0.4905
  854MOL0     C17775   0.525   2.045  11.565  0.0354 -0.3753 -0.4084
  854MOL0     C17776   0.485   1.993  11.698 -0.3447 -0.2875  0.3430
  854MOL0     C17777   0.571   2.055  11.811  0.2699  0.0074 -0.8066
  854MOL0     C17778   0.522   2.192  11.841  0.5969 -0.6884  0.0113
  854MOL0     C17779   0.466   2.298  11.873 -0.5418  0.1923 -0.0116
  854MOL0     C17780   0.357   2.198  11.307  0.8724 -0.3165 -0.5224
  854MOL0     C17781   0.310   2.307  11.231  0.4259 -0.4616  0.4895
  854MOL0     C17782   0.191   2.392  11.283 -0.8789 -0.0646 -0.5598
  854MOL0     H17783   0.219   2.399  10.724  1.4162 -1.2253  0.9312
  854MOL0     H17784   0.150   2.522  10.539 -0.4070  1.0944  1.1766
  854MOL0     H17785   0.379   2.869  10.424  0.3217  0.2604  1.1625
  854MOL0     H17786   0.250   2.987  10.457  0.5262  0.9526 -2.3387
  854MOL0     H17787   0.120   2.900  10.277 -1.1977 -1.2467  0.2746
  854MOL0     H17788   0.276   2.950  10.222  2.1547  0.1026  2.2080
  854MOL0     H17789   0.185   2.669  10.284 -1.6973  1.8659  1.6551
  854MOL0     H17790   0.194   2.741  10.124 -1.3240  1.2514 -0.0560
  854MOL0     H17791   0.439   2.779  10.147 -1.6634  1.5402 -0.1975
  854MOL0     H17792   0.443   2.691  10.298 -1.0235 -3.2681 -0.1477
  854MOL0     H17793   0.515   2.557  10.113 -0.5558 -1.3298  0.2758
  854MOL0     H17794   0.368   2.593  10.022  0.1805  0.7672  0.4703
  854MOL0     H17795   0.371   2.437  10.277  1.6382 -0.1209 -0.5667
  854MOL0     H17796   0.221   2.462  10.185  0.1960 -0.9465 -0.5906
  854MOL0     H17797   0.469   2.296  10.094  1.0104  2.1036 -0.5015
  854MOL0     H17798   0.353   2.361   9.978  0.8409  0.6447 -0.4453
  854MOL0     H17799   0.168   2.251  10.090 -0.7186 -2.2865  0.9889
  854MOL0     H17800   0.290   2.135  10.039  1.8654  0.1430  1.0460
  854MOL0     H17801   0.484   2.070  10.225  0.6217  1.4672  0.7684
  854MOL0     H17802   0.594   2.028  10.449  0.8161  0.9202  0.8473
  854MOL0     H17803   0.481   1.912  10.510 -3.5416 -0.0235 -1.2899
  854MOL0     H17804   0.504   2.200  10.637 -0.3989 -0.4620 -0.2005
  854MOL0     H17805   0.421   2.058  10.701 -0.8494  1.6304 -0.4447
  854MOL0     H17806   0.603   2.087  10.826 -3.1154 -2.8653  0.3794
  854MOL0     H17807   0.625   1.937  10.728 -0.5319 -1.2703  4.4247
  854MOL0     H17808   0.763   2.071  10.576 -1.9091  0.2794 -0.3220
  854MOL0     H17809   0.769   2.208  10.672 -1.1578 -1.3487 -1.0226
  854MOL0     H17810   0.798   2.259  10.912  2.3816  0.9075  0.2935
  854MOL0     H17811   0.804   2.388  11.075  0.7079  2.8008  1.2928
  854MOL0     H17812   0.908   2.360  11.218 -0.2198 -1.5983  0.7906
  854MOL0     H17813   0.748   2.285  11.221 -2.3733  2.3072 -2.3171
  854MOL0     H17814   0.761   2.287  11.522  0.8951  0.5638 -0.4021
  854MOL0     H17815   0.771   2.323  11.780  2.6153  1.3112  3.6764
  854MOL0     H17816   0.755   2.181  11.978 -0.2479 -1.3717  0.5815
  854MOL0     H17817   0.871   2.175  12.120 -1.1195  0.0592  0.1382
  854MOL0     H17818   0.906   2.441  12.067  0.0933  1.8552 -0.6790
  854MOL0     H17819   0.756   2.403  11.970  2.6693 -0.4400 -1.4561
  854MOL0     H17820   0.658   2.367  12.192  0.4446 -0.5685 -1.4772
  854MOL0     H17821   0.736   2.520  12.165  0.5972  0.1299 -0.6855
  854MOL0     H17822   0.936   2.355  12.282  0.5665 -0.4191  1.6175
  854MOL0     H17823   0.782   2.331  12.377  1.6219 -1.5058 -0.3469
  854MOL0     H17824   0.930   2.596  12.305  1.9475  2.5138  1.7215
  854MOL0     H17825   0.784   2.589  12.408  0.1044 -0.8182 -1.6228
  854MOL0     H17826   1.054   2.433  12.441  2.1441  2.2239 -0.8850
  854MOL0     H17827   0.926   2.456  12.572  2.5990 -0.4251  0.6724
  854MOL0     H17828   1.003   2.713  12.549 -1.6480 -1.0515  0.0491
  854MOL0     H17829   1.125   2.647  12.440  2.0270  1.5198  1.4493
  854MOL0     H17830   1.216   2.501  12.610  0.8063  0.9059  1.1694
  854MOL0     H17831   1.113   2.586  12.735 -0.5902  1.1790  0.1291
  854MOL0     H17832   1.118   2.076  11.788 -1.2108 -0.6633  2.6779
  854MOL0     H17833   1.111   2.067  11.544 -0.6084  1.2799  0.9221
  854MOL0     H17834   1.134   1.952  11.106 -0.7016 -1.5616 -0.1958
  854MOL0     H17835   1.075   1.899  10.903  0.6609  0.8671 -0.7619
  854MOL0     H17836   0.379   2.864  10.659 -0.3937  1.1478  1.5314
  854MOL0     H17837   0.513   2.705  10.824  0.7419  0.3329 -0.4548
  854MOL0     H17838   0.541   2.283  10.976  0.0761 -4.1466 -1.3908
  854MOL0     H17839   0.610   2.090  11.115 -0.1973 -1.7533  1.0668
  854MOL0     H17840   0.353   1.970  11.478 -0.7443 -0.9628 -0.8760
  854MOL0     H17841   0.491   1.862  11.460 -0.3727  0.3240 -2.9304
  854MOL0     H17842   0.508   2.152  11.548 -1.2544 -0.7434 -1.6664
  854MOL0     H17843   0.634   2.038  11.561  0.0757 -0.6047  0.8119
  854MOL0     H17844   0.382   2.022  11.723  0.0683  0.0165  1.7904
  854MOL0     H17845   0.495   1.884  11.699  0.4590 -0.2196 -0.1026
  854MOL0     H17846   0.677   2.051  11.784  1.1005 -0.6361  2.1451
  854MOL0     H17847   0.561   1.998  11.904 -1.4157  0.0958 -0.9002
  854MOL0     H17848   0.403   2.368  11.924 -0.6855 -2.4010  3.8375
  854MOL0     H17849   0.296   2.174  11.394 -2.3590 -0.1969 -2.5792
  854MOL0     H17850   0.227   2.495  11.279  0.7501 -0.6341 -1.5123
  854MOL0     H17851   0.108   2.375  11.214 -2.0787  1.2046  0.4953
  854MOL0     H17852   0.157   2.359  11.382 -2.8233  0.2251 -1.0892
  855MOL0     O17853   2.219  10.304   6.785 -0.1980  0.0546  0.3184
  855MOL0     C17854   2.175  10.343   6.678  0.1160 -0.4994 -0.7487
  855MOL0     O17855   2.227  10.320   6.553 -0.7673  0.6672  0.2734
  855MOL0     C17856   2.343  10.238   6.546 -0.1417 -0.0126  0.5053
  855MOL0     C17857   2.341  10.100   6.546 -0.0492 -0.0568 -0.4891
  855MOL0     C17858   2.449  10.018   6.516  0.2875 -0.3375 -0.5740
  855MOL0     C17859   2.577  10.078   6.509  0.4417  0.3515  0.6977
  855MOL0     O17860   2.696  10.026   6.462 -1.5931 -0.1944  0.1362
  855MOL0     C17861   2.701   9.882   6.477  0.0813 -0.0390 -0.0894
  855MOL0     C17862   2.656   9.799   6.360 -0.2495 -0.5260 -0.5040
  855MOL0     C17863   2.742   9.814   6.232 -0.1572 -0.0688 -0.0117
  855MOL0     C17864   2.888   9.775   6.253  1.0246 -0.1497 -0.3658
  855MOL0     C17865   2.969   9.825   6.139  0.2092 -0.0892 -0.7120
  855MOL0     C17866   3.107   9.760   6.156  0.4316  0.6983  0.4042
  855MOL0     C17867   3.201   9.816   6.047 -0.0311 -0.7213 -0.2750
  855MOL0     C17868   3.245   9.964   6.074  0.3073 -0.4041  0.2252
  855MOL0     N17869   3.367   9.996   6.003  0.1663  0.3708  0.6055
  855MOL0     C17870   3.490   9.974   6.053  0.9186  0.5495  0.3356
  855MOL0     C17871   3.578  10.005   5.955  0.2502 -1.1184 -0.0203
  855MOL0     C17872   3.726   9.995   5.984 -0.1096 -0.0440  0.0498
  855MOL0     C17873   3.749   9.845   6.014 -0.1679 -0.4677 -0.5494
  855MOL0     C17874   3.888   9.810   6.086  0.4566 -0.2370 -1.0362
  855MOL0     C17875   3.995   9.762   6.001  0.2578 -1.0808 -0.3591
  855MOL0     O17876   4.037   9.858   5.903 -0.2819  0.4688  0.0127
  855MOL0     C17877   4.112   9.974   5.924 -0.1395  0.5184  0.3908
  855MOL0     C17878   4.194   9.990   6.037 -0.0139  0.0435 -0.0326
  855MOL0     C17879   4.267  10.106   6.056 -0.6913  0.0269 -0.3433
  855MOL0     C17880   4.358  10.113   6.176  0.1137  0.0442  0.3063
  855MOL0     C17881   4.262  10.212   5.955  0.9260 -0.5881 -0.3027
  855MOL0     C17882   4.355  10.323   5.946 -0.1832 -0.9108  0.5018
  855MOL0     O17883   4.464  10.323   6.018 -0.5532 -0.1695 -0.3299
  855MOL0     C17884   4.547  10.433   6.002 -0.4890 -0.7239 -0.2606
  855MOL0     C17885   4.523  10.551   6.069 -0.9402 -0.1609 -0.1947
  855MOL0     C17886   4.604  10.670   6.060 -0.9524  0.6292  0.9872
  855MOL0     C17887   4.720  10.660   5.983  0.7158  0.0531 -0.4500
  855MOL0     O17888   4.801  10.772   5.979  0.2356 -0.0249  0.0669
  855MOL0     C17889   4.850  10.821   6.097 -0.8648 -0.1894 -0.1388
  855MOL0     C17890   4.980  10.886   6.086  0.8207 -0.4783 -0.0296
  855MOL0     C17891   5.106  10.793   6.078 -0.3873  0.4859  0.1221
  855MOL0     C17892   5.231  10.870   6.037  0.3375  0.1511  0.2992
  855MOL0     C17893   5.355  10.776   6.072 -0.7099 -0.5555  0.1129
  855MOL0     C17894   5.484  10.848   6.070  0.2480 -0.3799 -0.0930
  855MOL0     C17895   5.598  10.748   6.117 -1.2771  0.7272  0.3547
  855MOL0     C17896   5.627  10.630   6.021 -1.3904 -0.0467 -0.9325
  855MOL0    Cl17897   5.649  10.685   5.844  0.4165 -0.0899  0.3589
  855MOL0     C17898   4.750  10.543   5.918  0.1916  0.8367  0.7495
  855MOL0     C17899   4.662  10.431   5.918  0.2359 -0.3583  0.5153
  855MOL0     O17900   4.324  10.409   5.861 -0.0111  0.5572 -0.2023
  855MOL0     C17901   4.162  10.200   5.850  0.5875 -0.1876  0.6267
  855MOL0     C17902   4.096  10.082   5.835 -0.5496 -0.4523 -0.1689
  855MOL0     N17903   3.495  10.027   5.840 -1.4955 -0.1036  0.8600
  855MOL0     N17904   3.376  10.040   5.878  0.0845  0.1112 -0.0421
  855MOL0     C17905   2.588  10.215   6.526  0.3098 -0.5518  0.0098
  855MOL0     C17906   2.471  10.295   6.540 -0.5377 -0.1953  0.2451
  855MOL0     C17907   2.052  10.419   6.676  0.2905 -0.1035 -0.0645
  855MOL0     C17908   1.932  10.378   6.612 -0.5298  0.2577 -0.3869
  855MOL0     C17909   1.809  10.454   6.619 -0.9843 -0.1544  0.7469
  855MOL0     C17910   1.805  10.572   6.691  0.3999  0.5114 -0.0455
  855MOL0     O17911   1.677  10.622   6.699  0.2390  0.3349 -1.0663
  855MOL0     C17912   1.656  10.764   6.699  0.9668  0.4215 -0.9990
  855MOL0     C17913   1.519  10.794   6.758 -0.0474  0.5419  0.1984
  855MOL0     C17914   1.475  10.940   6.785  0.0037  0.4744 -0.0427
  855MOL0     C17915   1.461  11.013   6.648 -0.0336  0.4563  0.5351
  855MOL0     C17916   1.588  11.068   6.598 -0.7177 -0.0610  0.4361
  855MOL0     C17917   1.698  11.102   6.553  0.3794 -0.0769 -0.7955
  855MOL0     C17918   1.922  10.616   6.754 -0.0652  0.2131  0.5884
  855MOL0     C17919   2.045  10.544   6.744 -0.5960  0.3811  0.1207
  855MOL0     C17920   2.161  10.606   6.819 -0.4852 -0.5977 -0.4774
  855MOL0     H17921   2.237  10.072   6.539 -1.0218  2.8617  0.5502
  855MOL0     H17922   2.428   9.915   6.486  1.3771 -1.2887  1.7270
  855MOL0     H17923   2.640   9.848   6.561 -3.5549  1.7579 -1.8105
  855MOL0     H17924   2.804   9.853   6.503  0.5522  0.4998 -1.2899
  855MOL0     H17925   2.668   9.695   6.389  0.3926 -0.8173 -1.7446
  855MOL0     H17926   2.548   9.809   6.341  0.3692  0.7941 -4.0984
  855MOL0     H17927   2.705   9.745   6.156 -0.0399  0.6886 -0.7701
  855MOL0     H17928   2.731   9.916   6.195 -2.9023 -0.6922 -1.1746
  855MOL0     H17929   2.927   9.815   6.346  2.8361  1.4851 -1.7363
  855MOL0     H17930   2.899   9.667   6.261  3.2992  0.0953  0.7202
  855MOL0     H17931   2.974   9.934   6.136 -2.4042  0.1442  0.7255
  855MOL0     H17932   2.925   9.787   6.047 -2.3712 -2.5460  1.3512
  855MOL0     H17933   3.151   9.771   6.255  0.5071  1.4738  0.2953
  855MOL0     H17934   3.097   9.652   6.147 -0.0469  0.8565 -1.5890
  855MOL0     H17935   3.145   9.817   5.952 -2.4577  1.5551  1.0411
  855MOL0     H17936   3.290   9.754   6.037  0.1193 -0.5455 -0.0378
  855MOL0     H17937   3.166  10.035   6.049  0.0724  0.3985  2.9945
  855MOL0     H17938   3.270   9.968   6.180  0.7317  0.0777  0.1106
  855MOL0     H17939   3.510   9.955   6.158  0.2262  3.3176  1.0367
  855MOL0     H17940   3.767  10.057   6.065 -1.5168  2.7284 -1.2344
  855MOL0     H17941   3.775  10.025   5.891 -0.4471  1.1659  0.2464
  855MOL0     H17942   3.667   9.802   6.073 -1.3487  1.2176 -0.8754
  855MOL0     H17943   3.742   9.807   5.912 -0.7068  1.2477 -1.1891
  855MOL0     H17944   3.921   9.891   6.152  1.2624 -1.2414 -0.1639
  855MOL0     H17945   3.874   9.725   6.154  0.3905  1.5227  1.3119
  855MOL0     H17946   4.080   9.719   6.054 -0.2682 -0.7644  0.7783
  855MOL0     H17947   3.946   9.680   5.947 -1.5383  0.4736 -1.1987
  855MOL0     H17948   4.206   9.919   6.118 -0.2488  0.5036  0.4093
  855MOL0     H17949   4.453  10.060   6.161 -0.7599 -1.7051  0.6247
  855MOL0     H17950   4.308  10.064   6.260 -2.0171 -2.2877 -2.1255
  855MOL0     H17951   4.380  10.219   6.190 -1.6471  0.6331 -0.9897
  855MOL0     H17952   4.440  10.550   6.139  1.3678  0.9165  2.7525
  855MOL0     H17953   4.586  10.761   6.116  0.0087  2.0467 -0.9368
  855MOL0     H17954   4.779  10.890   6.146 -1.6295 -1.6758  0.9474
  855MOL0     H17955   4.877  10.747   6.173 -0.4501 -0.2427 -0.3388
  855MOL0     H17956   4.971  10.950   5.998 -1.7872 -1.4040 -0.5320
  855MOL0     H17957   4.990  10.945   6.178  2.7069 -1.7277  0.6171
  855MOL0     H17958   5.091  10.711   6.007  2.7886  0.5986 -0.8483
  855MOL0     H17959   5.124  10.744   6.174 -1.2638 -3.3631 -1.4877
  855MOL0     H17960   5.250  10.965   6.088 -0.6114  0.3805  0.2459
  855MOL0     H17961   5.232  10.888   5.929 -0.5469 -1.8438 -0.0717
  855MOL0     H17962   5.348  10.741   6.175 -0.4571  2.2755  1.1964
  855MOL0     H17963   5.359  10.691   6.004  1.7066 -0.9008  0.6131
  855MOL0     H17964   5.478  10.944   6.124 -3.4774  0.8692 -2.3840
  855MOL0     H17965   5.494  10.875   5.965 -2.6737 -0.5143 -0.4764
  855MOL0     H17966   5.573  10.712   6.217 -3.0511  0.0858 -0.2796
  855MOL0     H17967   5.689  10.808   6.127 -0.5835  0.2155 -2.0534
  855MOL0     H17968   5.542  10.564   6.041 -0.9771  0.3823  3.0272
  855MOL0     H17969   5.720  10.578   6.043 -1.6034  0.2230  0.6856
  855MOL0     H17970   4.850  10.539   5.876 -0.0097 -2.1473  0.3897
  855MOL0     H17971   4.670  10.343   5.855  0.3486 -0.2451  0.3698
  855MOL0     H17972   4.142  10.268   5.768  1.4716 -1.4479 -0.6822
  855MOL0     H17973   4.016  10.079   5.761  0.5009 -0.9795 -1.3339
  855MOL0     H17974   2.679  10.270   6.509  1.6657 -2.3112  1.1512
  855MOL0     H17975   2.491  10.400   6.555 -2.2075  0.0245  1.1753
  855MOL0     H17976   1.932  10.289   6.550  1.8717 -1.6533  2.1324
  855MOL0     H17977   1.720  10.414   6.572 -0.2592 -1.9475  0.8285
  855MOL0     H17978   1.730  10.808   6.767 -2.0838  0.1741  2.8495
  855MOL0     H17979   1.661  10.794   6.594 -2.8594 -1.2260 -1.8256
  855MOL0     H17980   1.513  10.731   6.847 -2.0177 -2.0416 -1.6035
  855MOL0     H17981   1.442  10.751   6.693  1.6172  1.0451 -2.2785
  855MOL0     H17982   1.381  10.927   6.840 -0.4259  0.2091 -0.8210
  855MOL0     H17983   1.537  11.003   6.849 -1.4513  1.8566  0.0482
  855MOL0     H17984   1.389  11.095   6.651 -0.5179  0.1018 -0.7717
  855MOL0     H17985   1.427  10.938   6.575 -1.1761  0.0016  1.4967
  855MOL0     H17986   1.782  11.150   6.508  0.0046  4.1101  2.3197
  855MOL0     H17987   1.904  10.705   6.813 -2.3810 -1.1864  2.1893
  855MOL0     H17988   2.245  10.633   6.754 -0.1462 -0.8495 -0.1510
  855MOL0     H17989   2.138  10.702   6.867  1.1837  0.1709 -1.1492
  855MOL0     H17990   2.199  10.540   6.898 -1.0642  1.4870  1.6637
  856MOL0     O17991   4.601   4.513   4.675  0.0966  0.4884  0.7222
  856MOL0     C17992   4.666   4.575   4.761 -0.4141  0.6527 -0.1486
  856MOL0     O17993   4.806   4.563   4.784 -0.0435 -0.7048  1.1001
  856MOL0     C17994   4.876   4.482   4.697 -0.5801 -0.0781 -0.8136
  856MOL0     C17995   4.889   4.350   4.717  0.0091 -0.2951 -0.2752
  856MOL0     C17996   4.961   4.267   4.629  0.2304  0.1403  0.0684
  856MOL0     C17997   5.039   4.321   4.527  0.9371 -0.4336 -0.2767
  856MOL0     O17998   5.129   4.240   4.460 -0.0359  0.0933  0.5931
  856MOL0     C17999   5.268   4.283   4.437  0.4178 -0.2827 -0.5205
  856MOL0     C18000   5.342   4.197   4.339  0.0794  0.1217 -0.8059
  856MOL0     C18001   5.491   4.234   4.338  0.0449  0.0651 -0.3927
  856MOL0     C18002   5.580   4.137   4.255 -0.2706  0.0380  0.9582
  856MOL0     C18003   5.611   4.009   4.326  0.6823 -0.5176 -0.1296
  856MOL0     C18004   5.715   3.915   4.261 -0.0248 -0.2754  0.5550
  856MOL0     C18005   5.847   3.978   4.207 -0.1620  0.2066  0.1267
  856MOL0     C18006   5.963   3.885   4.154 -0.1170 -0.0721 -0.1570
  856MOL0     N18007   6.077   3.959   4.103  0.8059  0.0027  0.1027
  856MOL0     C18008   6.079   4.039   3.995 -0.0597 -0.5615 -0.5336
  856MOL0     C18009   6.193   4.101   3.994 -0.0169  0.1841  0.3204
  856MOL0     C18010   6.236   4.189   3.880  0.8097  0.4297 -0.2734
  856MOL0     C18011   6.257   4.332   3.927 -0.1905 -0.1455  0.3496
  856MOL0     C18012   6.225   4.429   3.824  0.5786  1.4337  0.4237
  856MOL0     C18013   6.230   4.569   3.864 -0.0114  0.1789 -0.3374
  856MOL0     O18014   6.348   4.591   3.951 -0.9517 -0.5712  0.0701
  856MOL0     C18015   6.371   4.721   3.996 -1.0185  0.1006  0.1404
  856MOL0     C18016   6.502   4.776   3.981  0.3955  0.5060 -0.4575
  856MOL0     C18017   6.533   4.902   4.036 -0.2181 -0.4042  0.0202
  856MOL0     C18018   6.680   4.949   4.032  0.3390 -0.7136 -0.2286
  856MOL0     C18019   6.435   4.981   4.096  1.3570  1.3010  0.8745
  856MOL0     C18020   6.449   5.114   4.158  1.2002 -0.1740  0.1979
  856MOL0     O18021   6.558   5.187   4.125 -0.2914 -0.1035 -0.8376
  856MOL0     C18022   6.598   5.287   4.213 -0.9343  0.7652  0.5313
  856MOL0     C18023   6.635   5.245   4.341  0.3469  0.8170  0.6198
  856MOL0     C18024   6.672   5.346   4.432  0.7700  0.0894  0.0039
  856MOL0     C18025   6.691   5.479   4.386  0.7435 -1.0979 -0.7265
  856MOL0     O18026   6.740   5.566   4.481  0.2075 -0.0695  0.0231
  856MOL0     C18027   6.753   5.700   4.444  0.6207  0.2996 -0.6703
  856MOL0     C18028   6.817   5.761   4.566 -0.1058  0.0700 -0.3944
  856MOL0     C18029   6.821   5.916   4.550  0.1220 -0.4978 -0.0167
  856MOL0     C18030   6.911   5.975   4.656 -0.2009 -0.4781 -0.0114
  856MOL0     C18031   6.937   6.127   4.628 -0.5676  0.2678 -0.4831
  856MOL0     C18032   7.014   6.177   4.515  0.1574  0.2414  0.0962
  856MOL0     C18033   7.159   6.125   4.505  0.3926  0.3571  0.3563
  856MOL0     C18034   7.243   6.179   4.392 -0.0346  0.2960  0.0378
  856MOL0    Cl18035   7.414   6.101   4.390  0.2146 -0.3868 -0.0587
  856MOL0     C18036   6.653   5.515   4.254 -0.1146 -0.2921  0.0764
  856MOL0     C18037   6.615   5.414   4.164 -0.1323 -0.0118 -0.0638
  856MOL0     O18038   6.360   5.140   4.243 -0.0175  0.5326 -0.2574
  856MOL0     C18039   6.300   4.916   4.104  0.3444  0.0424  0.1280
  856MOL0     C18040   6.274   4.786   4.061  0.1213 -0.2766  0.2034
  856MOL0     N18041   6.264   4.068   4.108  0.0699  0.3976 -0.5487
  856MOL0     N18042   6.189   3.986   4.177 -0.1053 -0.0733  0.4131
  856MOL0     C18043   5.026   4.454   4.502  0.1757 -0.1764  0.5876
  856MOL0     C18044   4.945   4.534   4.584 -0.1440 -0.4380 -0.6707
  856MOL0     C18045   4.586   4.661   4.844 -0.0046 -0.2796 -0.5801
  856MOL0     C18046   4.444   4.643   4.856  0.5180 -0.1047 -0.0143
  856MOL0     C18047   4.363   4.728   4.922  0.8297 -0.3999 -0.2704
  856MOL0     C18048   4.420   4.828   5.006 -0.3846  0.0319  0.3390
  856MOL0     O18049   4.346   4.918   5.080  0.9172 -0.1293 -0.1575
  856MOL0     C18050   4.299   4.858   5.204  0.1702 -0.0616  0.4586
  856MOL0     C18051   4.138   4.852   5.195 -0.7770  0.7872  0.9494
  856MOL0     C18052   4.073   4.792   5.317  0.2460  0.2409  0.8521
  856MOL0     C18053   4.112   4.837   5.456 -0.8259 -0.2898 -0.8215
  856MOL0     C18054   4.107   4.977   5.488  0.2593 -0.0155 -0.1174
  856MOL0     C18055   4.094   5.094   5.519 -0.4867 -0.1562 -0.0208
  856MOL0     C18056   4.553   4.863   4.984  0.2883  0.8415  0.0361
  856MOL0     C18057   4.638   4.784   4.903 -0.0279 -0.4151 -0.5098
  856MOL0     C18058   4.777   4.840   4.873 -0.0953  0.1223 -0.4087
  856MOL0     H18059   4.842   4.295   4.799  0.3741 -3.6508 -2.1169
  856MOL0     H18060   4.969   4.163   4.659 -1.4423 -0.1151 -0.2654
  856MOL0     H18061   5.319   4.271   4.533 -0.4470  0.5815  0.0608
  856MOL0     H18062   5.266   4.388   4.407 -4.6544  0.1961  0.6306
  856MOL0     H18063   5.336   4.091   4.365  2.3536  0.0587 -0.2961
  856MOL0     H18064   5.299   4.211   4.239  0.1422  2.2289 -0.5903
  856MOL0     H18065   5.505   4.328   4.283 -0.6397 -1.0379 -2.5658
  856MOL0     H18066   5.529   4.241   4.440 -1.1152  0.1020  0.0468
  856MOL0     H18067   5.529   4.112   4.161  0.9636  0.3710  0.1787
  856MOL0     H18068   5.672   4.191   4.233  1.2290 -2.0463  1.6971
  856MOL0     H18069   5.520   3.950   4.334  1.0693 -1.2671 -1.0615
  856MOL0     H18070   5.636   4.036   4.429 -0.6109  1.0494 -0.1826
  856MOL0     H18071   5.750   3.848   4.340  2.8142 -0.7000 -0.9378
  856MOL0     H18072   5.681   3.856   4.175 -0.8368  0.3399  0.4408
  856MOL0     H18073   5.884   4.054   4.277  2.7960 -1.4283  0.4717
  856MOL0     H18074   5.821   4.034   4.116  1.1668 -0.0805 -0.4532
  856MOL0     H18075   6.005   3.823   4.234  1.8842  1.8887  0.4000
  856MOL0     H18076   5.927   3.817   4.076  2.8158  0.5700 -2.2631
  856MOL0     H18077   6.004   4.055   3.919 -0.7931  0.8267  0.4249
  856MOL0     H18078   6.173   4.190   3.791  2.7700  2.0403 -1.7508
  856MOL0     H18079   6.323   4.145   3.831  0.1548  1.5307 -2.5489
  856MOL0     H18080   6.197   4.358   4.015 -0.0324  0.0449  0.4016
  856MOL0     H18081   6.363   4.340   3.954  0.5881 -0.6578 -2.2758
  856MOL0     H18082   6.286   4.415   3.734 -3.5105 -1.7897 -2.2230
  856MOL0     H18083   6.126   4.408   3.781  1.4439  1.2272 -1.6056
  856MOL0     H18084   6.239   4.645   3.787  0.4025  0.8437  0.3538
  856MOL0     H18085   6.133   4.589   3.912  0.0162  0.1093 -0.2499
  856MOL0     H18086   6.587   4.737   3.926  0.5557 -0.2611  0.3091
  856MOL0     H18087   6.726   4.976   4.128  2.4823 -3.2668 -0.3903
  856MOL0     H18088   6.678   5.034   3.964  0.0081  0.3242  1.0385
  856MOL0     H18089   6.751   4.884   3.980  1.1829  1.0462 -1.3677
  856MOL0     H18090   6.626   5.139   4.359  0.8254  0.2682 -1.9179
  856MOL0     H18091   6.693   5.300   4.528  0.8771 -1.9653 -0.9575
  856MOL0     H18092   6.819   5.719   4.358 -0.9200 -0.3118 -2.0541
  856MOL0     H18093   6.657   5.749   4.422 -0.4689 -1.2016  0.5971
  856MOL0     H18094   6.769   5.739   4.661 -5.2359 -4.4840 -3.4199
  856MOL0     H18095   6.922   5.730   4.563 -0.5188 -1.4147 -0.2051
  856MOL0     H18096   6.723   5.963   4.563  1.6697  3.1253 -0.1774
  856MOL0     H18097   6.855   5.950   4.452 -0.7093  1.7841  0.4200
  856MOL0     H18098   7.009   5.926   4.658 -1.0508 -2.2430  1.0260
  856MOL0     H18099   6.859   5.967   4.752  0.1272 -0.7676  0.1443
  856MOL0     H18100   6.837   6.172   4.630  0.0779  1.7925  1.8222
  856MOL0     H18101   6.993   6.167   4.714  1.1747  0.9931 -1.8919
  856MOL0     H18102   7.032   6.284   4.529 -2.3539  0.7054  0.2570
  856MOL0     H18103   6.960   6.171   4.420 -3.0734  1.0806  1.7588
  856MOL0     H18104   7.145   6.018   4.489  0.5075  0.7064 -2.6500
  856MOL0     H18105   7.219   6.142   4.595  0.9715  1.5915 -0.2309
  856MOL0     H18106   7.241   6.288   4.387  1.3515  0.2888 -1.5010
  856MOL0     H18107   7.181   6.157   4.305  0.3253  1.5769 -0.5595
  856MOL0     H18108   6.675   5.617   4.224 -1.9733  0.1056 -0.0480
  856MOL0     H18109   6.603   5.431   4.058  2.9099  0.6974 -0.3844
  856MOL0     H18110   6.221   4.972   4.153  1.8977  1.8854  0.6507
  856MOL0     H18111   6.172   4.758   4.085  0.6216 -0.7706  1.9330
  856MOL0     H18112   5.062   4.495   4.409 -1.6724  2.1310  0.7728
  856MOL0     H18113   4.929   4.639   4.565 -1.3809 -0.4200  0.3689
  856MOL0     H18114   4.396   4.562   4.802  1.2735  0.0901 -1.0384
  856MOL0     H18115   4.255   4.720   4.919  0.7663 -0.2253  0.8620
  856MOL0     H18116   4.335   4.757   5.225  1.4039  0.5973  1.6525
  856MOL0     H18117   4.315   4.913   5.297 -2.0955  0.2445  0.7230
  856MOL0     H18118   4.112   4.787   5.111  1.7398  1.1633 -0.2178
  856MOL0     H18119   4.095   4.951   5.179 -1.1419  0.1521 -2.7884
  856MOL0     H18120   3.965   4.782   5.312  0.4983 -2.7705 -2.0068
  856MOL0     H18121   4.102   4.687   5.322  0.2512 -0.0075 -2.4128
  856MOL0     H18122   4.208   4.796   5.486 -2.4824 -2.4533  2.0403
  856MOL0     H18123   4.046   4.786   5.527 -1.3392  1.9689  0.4296
  856MOL0     H18124   4.081   5.200   5.533  0.0824 -0.0480 -0.2785
  856MOL0     H18125   4.595   4.955   5.022  1.0036  1.3135 -1.7957
  856MOL0     H18126   4.784   4.931   4.934 -0.0267  0.1123 -0.4029
  856MOL0     H18127   4.856   4.767   4.891 -1.5513 -1.7151 -1.0821
  856MOL0     H18128   4.779   4.880   4.771  0.0384 -0.0767 -0.4850
  857MOL0     O18129   2.094   8.188  10.532 -0.0200  0.6497  0.1230
  857MOL0     C18130   2.001   8.130  10.473  0.6043 -0.3826  0.3418
  857MOL0     O18131   1.973   8.157  10.339  0.1904 -0.6624  0.3501
  857MOL0     C18132   2.054   8.243  10.274 -0.4527 -0.0678  0.3674
  857MOL0     C18133   2.077   8.374  10.314 -0.8145 -0.8480  0.0352
  857MOL0     C18134   2.147   8.471  10.240 -0.3736  0.6834  0.2839
  857MOL0     C18135   2.199   8.436  10.114 -0.2406 -0.2776  1.5279
  857MOL0     O18136   2.243   8.544  10.036  0.6532  0.2067  0.5767
  857MOL0     C18137   2.276   8.532   9.902  0.4904  0.0441 -0.2855
  857MOL0     C18138   2.322   8.663   9.832 -0.0253 -0.0441 -0.8530
  857MOL0     C18139   2.457   8.709   9.893  0.1072 -0.5582 -0.4196
  857MOL0     C18140   2.456   8.864   9.886 -0.1746  0.3451 -0.3193
  857MOL0     C18141   2.572   8.921   9.973 -0.1511 -0.5308 -0.5582
  857MOL0     C18142   2.521   8.964  10.119  0.7874 -0.7225  0.4637
  857MOL0     C18143   2.634   9.005  10.216  1.0744  0.5385  0.1110
  857MOL0     C18144   2.682   8.879  10.289  0.8400  0.6403  1.4013
  857MOL0     N18145   2.809   8.918  10.364  0.9624 -0.8886  0.3529
  857MOL0     C18146   2.935   8.910  10.310 -0.0877  0.7897  1.5302
  857MOL0     C18147   3.018   8.950  10.413 -1.6825  0.4215 -0.1649
  857MOL0     C18148   3.175   8.974  10.405 -0.0488 -0.8016 -0.4046
  857MOL0     C18149   3.229   9.041  10.276 -0.2435  1.5927 -0.2372
  857MOL0     C18150   3.184   9.190  10.238  1.2007 -0.8503 -0.1993
  857MOL0     C18151   3.274   9.228  10.112  0.2939  0.5697 -0.4805
  857MOL0     O18152   3.237   9.359  10.077  0.0689  0.2306 -0.0296
  857MOL0     C18153   3.291   9.408   9.960  0.2043  0.1432  0.6287
  857MOL0     C18154   3.388   9.357   9.876  0.1835  1.1769 -0.0659
  857MOL0     C18155   3.462   9.431   9.777  0.2883 -0.1964 -0.3481
  857MOL0     C18156   3.579   9.361   9.714 -0.9471  1.1517  0.0413
  857MOL0     C18157   3.407   9.559   9.752  0.4846  0.5849  0.1731
  857MOL0     C18158   3.464   9.656   9.655  1.1674 -0.9905  0.5900
  857MOL0     O18159   3.396   9.768   9.633  0.9084  0.1721 -0.2160
  857MOL0     C18160   3.443   9.848   9.539 -0.5634 -0.2635 -0.5114
  857MOL0     C18161   3.487   9.967   9.583 -0.0013 -0.8318 -0.3236
  857MOL0     C18162   3.545  10.063   9.490  0.5549  0.2628  0.2765
  857MOL0     C18163   3.561  10.022   9.354 -0.2578 -0.1609 -0.7322
  857MOL0     O18164   3.635  10.100   9.264  0.3574  0.2865 -0.6426
  857MOL0     C18165   3.673  10.240   9.267  0.5353  0.1132 -0.8922
  857MOL0     C18166   3.804  10.272   9.338  0.0469 -0.5946  0.2579
  857MOL0     C18167   3.915  10.163   9.333  0.2079 -0.3067  0.0235
  857MOL0     C18168   3.955  10.129   9.187  0.2578 -0.9096  0.0047
  857MOL0     C18169   4.054  10.016   9.169  0.5101  0.5469 -0.4760
  857MOL0     C18170   4.161  10.017   9.273 -0.3662 -0.1694  0.3592
  857MOL0     C18171   4.264   9.913   9.221 -0.4313 -0.2666  0.5578
  857MOL0     C18172   4.410   9.933   9.271 -1.0167  0.8245 -0.0452
  857MOL0    Cl18173   4.438   9.862   9.421  0.1830 -0.2765 -0.2205
  857MOL0     C18174   3.517   9.893   9.317 -0.3879  0.2098 -0.3878
  857MOL0     C18175   3.446   9.816   9.404  0.0290  0.6693  0.1386
  857MOL0     O18176   3.574   9.639   9.622 -0.2915 -0.1154  0.0869
  857MOL0     C18177   3.284   9.603   9.811  0.4403 -0.1811 -0.7874
  857MOL0     C18178   3.240   9.532   9.919 -0.1573 -0.4358  1.4425
  857MOL0     N18179   2.930   8.979  10.519 -0.9215 -0.0014 -0.8930
  857MOL0     N18180   2.812   8.953  10.486 -0.5201 -0.6389 -0.0369
  857MOL0     C18181   2.193   8.300  10.068  0.3790 -0.5584  1.0953
  857MOL0     C18182   2.113   8.209  10.144 -0.3330  0.9069  0.5784
  857MOL0     C18183   1.918   8.021  10.535  0.3849 -1.3059  0.5337
  857MOL0     C18184   1.841   7.943  10.438  0.8537  0.1433 -0.6762
  857MOL0     C18185   1.764   7.838  10.470  0.5607 -0.4435 -0.0746
  857MOL0     C18186   1.757   7.800  10.609 -0.0542  0.3144 -0.2584
  857MOL0     O18187   1.705   7.678  10.647  0.2526  0.3458  0.0788
  857MOL0     C18188   1.615   7.621  10.557  0.3730 -0.3613 -0.5169
  857MOL0     C18189   1.554   7.500  10.616  0.3853  0.5086 -0.0696
  857MOL0     C18190   1.423   7.466  10.542 -0.6737 -0.0010 -0.3197
  857MOL0     C18191   1.316   7.383  10.626 -0.0150 -0.0098  0.2189
  857MOL0     C18192   1.238   7.469  10.714  0.1726 -0.1914  0.0961
  857MOL0     C18193   1.167   7.550  10.774  0.0973  0.6380 -0.6392
  857MOL0     C18194   1.829   7.866  10.702  0.6348  0.0150 -0.8534
  857MOL0     C18195   1.912   7.982  10.668  0.3323  0.4278 -0.3455
  857MOL0     C18196   1.986   8.032  10.788 -0.0818 -0.1088 -0.5204
  857MOL0     H18197   2.037   8.408  10.409  0.5344  1.2797 -0.0739
  857MOL0     H18198   2.153   8.575  10.268  1.7953  0.2281  1.8226
  857MOL0     H18199   2.185   8.489   9.857  2.7891 -3.2973 -2.2247
  857MOL0     H18200   2.361   8.464   9.889  0.4268  0.3275 -2.8518
  857MOL0     H18201   2.333   8.644   9.725 -0.4124  0.0453 -0.9117
  857MOL0     H18202   2.245   8.740   9.846  0.4741 -0.0340  2.6782
  857MOL0     H18203   2.460   8.676   9.997 -0.7895  1.8602  0.4448
  857MOL0     H18204   2.529   8.650   9.835 -0.4749  0.0825 -1.8560
  857MOL0     H18205   2.475   8.901   9.785  1.9173 -0.9828 -0.4692
  857MOL0     H18206   2.362   8.895   9.933  0.2352  0.8325  0.1942
  857MOL0     H18207   2.604   9.008   9.916  0.1506 -0.9623 -1.0573
  857MOL0     H18208   2.658   8.853   9.978  1.1320  1.0665 -0.0459
  857MOL0     H18209   2.458   9.053  10.108  2.7697  0.7339  0.1259
  857MOL0     H18210   2.462   8.891  10.175 -1.0398  1.0242  0.9440
  857MOL0     H18211   2.589   9.078  10.282 -1.9780  2.1304 -3.3598
  857MOL0     H18212   2.718   9.047  10.160  0.7366  0.2731 -0.6117
  857MOL0     H18213   2.597   8.834  10.340  1.7271 -1.3750  1.2136
  857MOL0     H18214   2.711   8.803  10.215  1.5633 -0.3574  2.6701
  857MOL0     H18215   2.969   8.879  10.212  0.0210  1.0761  1.4754
  857MOL0     H18216   3.226   8.880  10.423  0.4978 -0.2463  1.1330
  857MOL0     H18217   3.203   9.031  10.495  3.6189  0.8720 -2.3711
  857MOL0     H18218   3.336   9.038  10.296 -0.6010  1.2918  1.8549
  857MOL0     H18219   3.212   8.963  10.201 -1.0975 -0.7320  2.2265
  857MOL0     H18220   3.083   9.188  10.197  1.0307 -0.7550  0.2121
  857MOL0     H18221   3.201   9.263  10.319 -1.5754 -0.3985  0.0559
  857MOL0     H18222   3.381   9.223  10.132  0.5427 -1.0447 -1.9539
  857MOL0     H18223   3.249   9.160  10.030 -0.4998  1.5315 -1.0648
  857MOL0     H18224   3.424   9.257   9.899 -1.8551  0.0142 -1.5040
  857MOL0     H18225   3.596   9.257   9.743  1.5445  1.0173 -1.6774
  857MOL0     H18226   3.668   9.413   9.748 -0.7256  0.5996  0.3187
  857MOL0     H18227   3.577   9.370   9.605  1.7170 -1.2382 -0.3040
  857MOL0     H18228   3.483   9.994   9.688 -0.2501  5.0346 -1.4815
  857MOL0     H18229   3.586  10.157   9.526 -1.8274  0.5777  2.3717
  857MOL0     H18230   3.696  10.251   9.161  2.9015 -0.4641 -0.5050
  857MOL0     H18231   3.590  10.295   9.313 -0.0127 -0.8007 -0.7633
  857MOL0     H18232   3.850  10.363   9.300  1.8999 -1.3626  0.5450
  857MOL0     H18233   3.791  10.290   9.445  1.8842  0.0430  0.4186
  857MOL0     H18234   3.877  10.076   9.388  0.6182  0.1897  1.1376
  857MOL0     H18235   3.996  10.197   9.398  1.0989 -0.9274 -0.7407
  857MOL0     H18236   3.991  10.221   9.139 -2.7412 -0.7742 -2.3017
  857MOL0     H18237   3.866  10.103   9.129 -0.1285 -1.0028  0.6283
  857MOL0     H18238   3.997   9.923   9.166  0.3940  0.6049 -0.0928
  857MOL0     H18239   4.103  10.046   9.076  5.4772  0.2509  1.7156
  857MOL0     H18240   4.119   9.986   9.369 -0.2651  0.5345  0.6381
  857MOL0     H18241   4.206  10.117   9.269 -0.5528 -0.1137 -0.9846
  857MOL0     H18242   4.265   9.918   9.112 -2.8319 -3.1540  0.2911
  857MOL0     H18243   4.235   9.811   9.247 -2.0113  0.2492  0.8749
  857MOL0     H18244   4.446  10.035   9.279  0.0114  0.3645  1.4701
  857MOL0     H18245   4.480   9.896   9.195 -1.5575  0.7808 -0.5297
  857MOL0     H18246   3.537   9.844   9.222  1.7985 -2.5376  1.3203
  857MOL0     H18247   3.417   9.720   9.362  0.2723 -0.5070  2.4669
  857MOL0     H18248   3.231   9.695   9.791  1.3242  0.3649 -0.6782
  857MOL0     H18249   3.162   9.575   9.981 -1.2483 -0.2691 -0.0173
  857MOL0     H18250   2.249   8.264   9.982 -0.7996 -1.1438  0.5558
  857MOL0     H18251   2.103   8.104  10.120  2.9390 -0.5967  4.5127
  857MOL0     H18252   1.840   7.955  10.330 -0.9769 -0.5932 -0.7835
  857MOL0     H18253   1.716   7.784  10.389 -1.8745  1.3576  0.0536
  857MOL0     H18254   1.545   7.699  10.526  3.2889  1.9480 -1.8721
  857MOL0     H18255   1.679   7.589  10.474  0.4657  0.5815 -0.8209
  857MOL0     H18256   1.542   7.522  10.723 -0.9573  2.7626 -0.6254
  857MOL0     H18257   1.615   7.409  10.607 -0.3213  0.2481 -3.1458
  857MOL0     H18258   1.380   7.555  10.494  0.0093  1.0152  0.8830
  857MOL0     H18259   1.459   7.395  10.468  0.9790  1.3114 -0.8155
  857MOL0     H18260   1.358   7.303  10.687 -0.6333 -1.9459 -1.7555
  857MOL0     H18261   1.253   7.339  10.547 -0.3662 -0.0881  0.5401
  857MOL0     H18262   1.103   7.617  10.827 -1.7295 -1.0615 -0.5635
  857MOL0     H18263   1.827   7.819  10.799  0.7414 -0.2713 -0.9901
  857MOL0     H18264   2.072   7.970  10.816 -1.0285 -0.1217  2.7691
  857MOL0     H18265   2.023   8.131  10.759  0.5091 -0.3358 -0.5620
  857MOL0     H18266   1.931   8.036  10.882  0.0339  1.4128 -0.4987
  858MOL0     O18267  10.299   0.086   5.592  0.0788 -0.0043  0.1572
  858MOL0     C18268  10.292   0.053   5.471 -0.3120 -0.3367 -0.6356
  858MOL0     O18269  10.253  -0.065   5.427 -1.6122  0.3049  0.2586
  858MOL0     C18270  10.175  -0.142   5.509 -1.3711 -0.4170  1.0295
  858MOL0     C18271  10.114  -0.238   5.434 -0.9951 -0.7256  0.1857
  858MOL0     C18272  10.024  -0.324   5.490 -0.0859 -0.3462 -0.0531
  858MOL0     C18273   9.989  -0.313   5.627 -0.1599 -0.0002 -1.0221
  858MOL0     O18274   9.918  -0.417   5.666  0.5261 -0.5901 -0.3812
  858MOL0     C18275   9.893  -0.426   5.804  0.0734  0.1473 -0.2025
  858MOL0     C18276   9.819  -0.558   5.843  0.3367 -1.2092  0.5200
  858MOL0     C18277   9.849  -0.682   5.762  0.0137  0.0891  0.7409
  858MOL0     C18278   9.778  -0.809   5.816  0.5723 -1.0928  0.3794
  858MOL0     C18279   9.813  -0.939   5.751 -0.3150  0.4912  0.2417
  858MOL0     C18280   9.756  -0.969   5.605 -0.6408 -0.3023  0.7373
  858MOL0     C18281   9.684  -1.100   5.585 -0.7053  0.6742  0.0976
  858MOL0     C18282   9.541  -1.102   5.640 -0.3268 -0.1306  0.0715
  858MOL0     N18283   9.502  -1.240   5.666  0.5360  0.3772 -0.4095
  858MOL0     C18284   9.407  -1.314   5.599 -0.1412  0.4807  0.1355
  858MOL0     C18285   9.382  -1.421   5.676  0.3634  0.0514  0.9099
  858MOL0     C18286   9.273  -1.515   5.643 -0.5059  0.7693  1.1171
  858MOL0     C18287   9.270  -1.630   5.737  0.1212 -0.4893  0.1484
  858MOL0     C18288   9.205  -1.599   5.880  0.0296 -0.7183 -0.5614
  858MOL0     C18289   9.150  -1.728   5.943 -0.1806  0.1829 -1.1804
  858MOL0     O18290   9.039  -1.794   5.876 -0.3146 -0.4882  0.3689
  858MOL0     C18291   8.912  -1.742   5.884 -0.1341 -0.2041 -0.7232
  858MOL0     C18292   8.875  -1.617   5.938 -0.1686  0.3063 -0.2474
  858MOL0     C18293   8.734  -1.576   5.930 -0.1233 -0.0398  0.1704
  858MOL0     C18294   8.714  -1.442   5.996 -0.3103  0.2081  0.6223
  858MOL0     C18295   8.632  -1.667   5.871  0.4758 -0.1707 -0.2644
  858MOL0     C18296   8.484  -1.633   5.856 -0.7949  0.5355  0.4866
  858MOL0     O18297   8.402  -1.725   5.799  0.3727 -0.0279  0.3636
  858MOL0     C18298   8.277  -1.683   5.748  0.0826 -0.2542 -0.3169
  858MOL0     C18299   8.176  -1.607   5.817 -0.2548  0.1420 -0.2792
  858MOL0     C18300   8.065  -1.562   5.750 -0.4760 -0.3112  0.0974
  858MOL0     C18301   8.043  -1.588   5.611  0.7647 -0.6688 -0.5597
  858MOL0     O18302   7.941  -1.520   5.539 -0.6715 -0.0659 -0.2255
  858MOL0     C18303   7.938  -1.532   5.401  0.8300  0.3945  0.8736
  858MOL0     C18304   7.822  -1.453   5.349 -0.0112 -0.0683 -0.1463
  858MOL0     C18305   7.679  -1.502   5.389  0.6404 -0.3649 -0.9830
  858MOL0     C18306   7.571  -1.434   5.303  0.0483 -0.7423 -0.2386
  858MOL0     C18307   7.442  -1.508   5.283 -0.1992 -0.3124  0.3549
  858MOL0     C18308   7.317  -1.414   5.258 -0.0341 -0.2111  0.3279
  858MOL0     C18309   7.196  -1.507   5.227 -0.1892  0.6331 -0.9347
  858MOL0     C18310   7.070  -1.431   5.238 -0.7645 -1.4613 -0.0520
  858MOL0    Cl18311   6.941  -1.555   5.200  0.4677 -0.2614  0.2584
  858MOL0     C18312   8.129  -1.681   5.550  0.7182  0.1954  0.1904
  858MOL0     C18313   8.248  -1.723   5.614  0.4077  0.3444 -0.2505
  858MOL0     O18314   8.449  -1.525   5.897  0.3380 -0.3176 -0.8883
  858MOL0     C18315   8.676  -1.791   5.814  0.5312 -0.0717  0.3533
  858MOL0     C18316   8.810  -1.822   5.823  0.6022  0.3035 -0.5723
  858MOL0     N18317   9.466  -1.408   5.781 -0.1859 -0.6385 -0.8047
  858MOL0     N18318   9.540  -1.307   5.771 -0.1510 -0.4755  0.7921
  858MOL0     C18319  10.044  -0.208   5.698  0.5580 -0.2309 -1.2249
  858MOL0     C18320  10.139  -0.130   5.645  0.1785 -0.3720  0.8675
  858MOL0     C18321  10.321   0.160   5.371  0.5203  0.0505 -0.0393
  858MOL0     C18322  10.231   0.153   5.257  0.4516  0.3844 -0.0825
  858MOL0     C18323  10.236   0.254   5.157  0.3686 -0.0931 -0.3101
  858MOL0     C18324  10.326   0.359   5.158  0.6630 -0.0321  0.2403
  858MOL0     O18325  10.340   0.457   5.065 -0.1911  0.2181  0.0543
  858MOL0     C18326  10.259   0.436   4.949 -0.1369 -0.4825 -0.5274
  858MOL0     C18327  10.311   0.540   4.847  0.2415  0.6384 -0.5727
  858MOL0     C18328  10.241   0.677   4.872  0.0779  0.7608 -0.0041
  858MOL0     C18329  10.292   0.770   4.762 -0.1675 -0.0510  0.1241
  858MOL0     C18330  10.245   0.909   4.774  0.1475  1.2921 -0.3360
  858MOL0     C18331  10.207   1.025   4.779  0.1447  0.7009 -0.3534
  858MOL0     C18332  10.409   0.368   5.270 -0.0613 -0.4406  0.3070
  858MOL0     C18333  10.412   0.269   5.377 -0.1208 -0.0748 -0.1318
  858MOL0     C18334  10.508   0.283   5.494  0.0890  0.1631  0.3154
  858MOL0     H18335  10.142  -0.255   5.331 -0.4788  1.8782 -0.1810
  858MOL0     H18336   9.987  -0.405   5.428 -1.0773 -0.3078  0.4686
  858MOL0     H18337   9.841  -0.338   5.843  2.0711  0.4671  1.9715
  858MOL0     H18338   9.988  -0.431   5.858 -0.0626 -1.9774 -0.0720
  858MOL0     H18339   9.842  -0.570   5.949  0.0010 -1.7977  0.5318
  858MOL0     H18340   9.711  -0.540   5.841  0.2538 -1.7164  0.0667
  858MOL0     H18341   9.820  -0.673   5.657  1.4036  0.8755  0.3939
  858MOL0     H18342   9.956  -0.704   5.756  0.0749  0.6652 -1.2979
  858MOL0     H18343   9.823  -0.807   5.916  3.5534  3.5221 -0.7364
  858MOL0     H18344   9.670  -0.798   5.826  0.8618  3.1192  0.9439
  858MOL0     H18345   9.775  -1.009   5.826  1.8302  1.3882  2.3209
  858MOL0     H18346   9.922  -0.940   5.747 -0.3319 -1.4594 -0.7588
  858MOL0     H18347   9.685  -0.887   5.586 -0.3691 -0.4537 -1.1243
  858MOL0     H18348   9.836  -0.964   5.531 -2.2561 -1.8974 -1.2607
  858MOL0     H18349   9.739  -1.172   5.646  1.0772  0.2778 -1.8206
  858MOL0     H18350   9.692  -1.134   5.481  3.8049  0.6415  0.2470
  858MOL0     H18351   9.540  -1.051   5.736 -0.0314 -2.4922  1.4258
  858MOL0     H18352   9.475  -1.059   5.565  0.5093  1.9818  0.4746
  858MOL0     H18353   9.352  -1.296   5.508 -1.3259  1.6063  1.0329
  858MOL0     H18354   9.303  -1.558   5.548  0.3717 -1.8696  2.5038
  858MOL0     H18355   9.178  -1.463   5.625  0.1481  1.1160 -1.7593
  858MOL0     H18356   9.208  -1.706   5.688  1.4313 -1.3062 -0.2778
  858MOL0     H18357   9.374  -1.657   5.758  1.2305  1.9900 -1.6715
  858MOL0     H18358   9.274  -1.553   5.951 -2.3787  0.6459  1.0426
  858MOL0     H18359   9.130  -1.520   5.877  4.8205  4.4819 -1.2654
  858MOL0     H18360   9.232  -1.799   5.936 -0.1134 -0.0912  1.4637
  858MOL0     H18361   9.127  -1.715   6.049  3.7380 -2.2967  0.1726
  858MOL0     H18362   8.945  -1.550   5.987 -1.4421  1.0354  0.6446
  858MOL0     H18363   8.718  -1.360   5.924 -1.6174 -0.9862 -0.8975
  858MOL0     H18364   8.779  -1.417   6.080 -0.2774  2.3937  0.0007
  858MOL0     H18365   8.616  -1.443   6.044  0.1770  2.7996  1.8544
  858MOL0     H18366   8.189  -1.590   5.923  0.2413  1.1906 -0.4906
  858MOL0     H18367   7.994  -1.503   5.808  0.6404  0.2700  0.9254
  858MOL0     H18368   8.030  -1.499   5.352  1.4299 -2.7619 -0.3923
  858MOL0     H18369   7.919  -1.634   5.365  2.1223 -0.1866  1.7600
  858MOL0     H18370   7.830  -1.357   5.401  4.0387  0.0115 -0.5879
  858MOL0     H18371   7.835  -1.438   5.241  0.8809  0.4970  0.0353
  858MOL0     H18372   7.657  -1.483   5.494 -1.2902 -0.6167 -1.2993
  858MOL0     H18373   7.677  -1.606   5.354  1.0631 -0.8992  0.5166
  858MOL0     H18374   7.617  -1.414   5.205  0.9879 -0.9871  0.1447
  858MOL0     H18375   7.555  -1.348   5.369 -0.9862 -3.1059  2.8098
  858MOL0     H18376   7.452  -1.571   5.194 -3.1683  1.2971 -1.2898
  858MOL0     H18377   7.428  -1.557   5.379 -0.8838 -0.3681  0.2370
  858MOL0     H18378   7.349  -1.349   5.176  0.8457 -1.5635 -0.4372
  858MOL0     H18379   7.290  -1.345   5.339 -2.6210  0.2622 -0.8277
  858MOL0     H18380   7.184  -1.580   5.307 -0.9283  1.0495 -0.6572
  858MOL0     H18381   7.206  -1.556   5.130  1.3430 -0.5576 -0.2211
  858MOL0     H18382   7.060  -1.350   5.165  1.4582 -0.6934  0.4196
  858MOL0     H18383   7.064  -1.384   5.336 -0.4320  1.3329 -1.2682
  858MOL0     H18384   8.111  -1.703   5.446 -0.6124 -0.4430  0.5284
  858MOL0     H18385   8.317  -1.792   5.568  0.4477 -1.1328  1.8672
  858MOL0     H18386   8.614  -1.870   5.772 -0.1738 -0.4446  2.0347
  858MOL0     H18387   8.827  -1.921   5.782 -4.2808 -2.2478  2.5727
  858MOL0     H18388  10.022  -0.180   5.800  4.2533 -0.9259 -0.1192
  858MOL0     H18389  10.184  -0.068   5.722  1.9058  0.1985 -0.5405
  858MOL0     H18390  10.160   0.072   5.250 -2.6152  2.8322  0.4965
  858MOL0     H18391  10.173   0.225   5.074  0.2597 -1.0559  0.0954
  858MOL0     H18392  10.271   0.334   4.913 -3.6991 -1.9505  1.8750
  858MOL0     H18393  10.154   0.462   4.968  0.6137  2.9027 -0.3631
  858MOL0     H18394  10.281   0.506   4.747  0.1731 -3.2196  0.6018
  858MOL0     H18395  10.420   0.548   4.846  0.3088  0.1579  0.8042
  858MOL0     H18396  10.133   0.659   4.870  0.0602  0.2537  2.2914
  858MOL0     H18397  10.273   0.723   4.967  0.0817  1.4122 -0.3143
  858MOL0     H18398  10.254   0.720   4.672 -0.1020  1.4606 -0.7787
  858MOL0     H18399  10.399   0.773   4.744 -0.2881  2.2962 -0.5916
  858MOL0     H18400  10.189   1.130   4.770  0.6992  0.9774  1.3598
  858MOL0     H18401  10.473   0.456   5.271 -0.8430  0.2034 -1.3343
  858MOL0     H18402  10.467   0.318   5.589  1.9097 -1.6392  1.8319
  858MOL0     H18403  10.562   0.192   5.518  1.8457  0.7439 -1.1916
  858MOL0     H18404  10.586   0.357   5.476 -1.1408  1.6261  0.7035
  859MOL0     O18405  10.981   2.742   0.588  0.1274 -0.2421  0.3422
  859MOL0     C18406  10.920   2.834   0.537 -0.1169 -0.4087  0.0956
  859MOL0     O18407  10.965   2.905   0.423  0.6760  0.0681 -0.0768
  859MOL0     C18408  11.067   2.860   0.352  0.0666  0.2935  0.1408
  859MOL0     C18409  11.050   2.836   0.216  0.6121 -1.0263 -0.5717
  859MOL0     C18410  11.160   2.797   0.128  1.2163 -0.6214  0.4473
  859MOL0     C18411  11.291   2.783   0.172 -0.2897  0.5914 -1.0615
  859MOL0     O18412  11.404   2.767   0.092 -0.2889 -0.6482 -0.4586
  859MOL0     C18413  11.391   2.704  -0.041  0.4917 -0.4734 -1.3664
  859MOL0     C18414  11.517   2.703  -0.114 -0.8351 -0.4570  0.5028
  859MOL0     C18415  11.586   2.838  -0.168 -1.0633  0.6865 -0.6894
  859MOL0     C18416  11.730   2.810  -0.213 -0.5409  0.7592  0.7036
  859MOL0     C18417  11.777   2.938  -0.291 -0.4353  0.7271  0.5681
  859MOL0     C18418  11.888   2.889  -0.382 -0.0251  0.2221  1.3457
  859MOL0     C18419  11.982   3.011  -0.409 -0.1958 -0.1842  1.5215
  859MOL0     C18420  12.067   3.000  -0.540 -0.3425 -0.1612 -0.7011
  859MOL0     N18421  12.161   3.113  -0.564  0.2919  1.3082 -0.1607
  859MOL0     C18422  12.141   3.249  -0.578 -0.4820  0.9815 -0.2810
  859MOL0     C18423  12.268   3.296  -0.578 -0.4013  0.8956  0.3661
  859MOL0     C18424  12.316   3.440  -0.563 -0.3718 -0.1942  0.4268
  859MOL0     C18425  12.353   3.512  -0.697 -0.0988  0.1086  0.0923
  859MOL0     C18426  12.450   3.620  -0.676 -0.2883 -0.2755  1.4887
  859MOL0     C18427  12.417   3.741  -0.761 -0.2053  0.4233  0.1334
  859MOL0     O18428  12.523   3.837  -0.742  0.1467 -0.3438  0.0365
  859MOL0     C18429  12.539   3.914  -0.624  0.4212 -0.0668 -0.0100
  859MOL0     C18430  12.661   3.980  -0.617  0.2354  0.7903  0.3782
  859MOL0     C18431  12.693   4.043  -0.501  0.0040 -0.4616 -1.3143
  859MOL0     C18432  12.830   4.091  -0.469  0.1453 -0.5577  0.3228
  859MOL0     C18433  12.604   4.044  -0.393 -0.5409  0.7306  0.6094
  859MOL0     C18434  12.638   4.098  -0.263 -0.1318 -0.6536  0.7439
  859MOL0     O18435  12.578   4.218  -0.238 -0.6249  0.1252 -0.2157
  859MOL0     C18436  12.588   4.277  -0.110  0.2463  0.4453  0.7562
  859MOL0     C18437  12.479   4.338  -0.050  0.3183  0.3154 -0.7027
  859MOL0     C18438  12.485   4.433   0.053 -0.1691  0.3773  0.0040
  859MOL0     C18439  12.613   4.459   0.106  0.1324 -0.2418 -0.2500
  859MOL0     O18440  12.632   4.548   0.203  0.4053 -0.3709  0.2643
  859MOL0     C18441  12.514   4.584   0.289  0.2827  0.5576  1.1662
  859MOL0     C18442  12.487   4.504   0.412  0.5802  0.7267  0.0246
  859MOL0     C18443  12.603   4.520   0.510 -0.5572 -0.1330  0.0690
  859MOL0     C18444  12.682   4.647   0.524  0.0498 -0.7290  0.4388
  859MOL0     C18445  12.789   4.638   0.637  0.7613  0.5614  1.0301
  859MOL0     C18446  12.817   4.778   0.696 -0.0627  1.4688 -0.2049
  859MOL0     C18447  12.912   4.759   0.814 -0.8628 -0.2959 -0.5290
  859MOL0     C18448  12.956   4.899   0.864 -0.3099 -0.3997 -0.3061
  859MOL0    Cl18449  13.040   4.897   1.022  0.0310 -0.0838  0.2918
  859MOL0     C18450  12.733   4.397   0.036  0.6953 -0.7835 -0.5729
  859MOL0     C18451  12.716   4.312  -0.068 -0.2567  0.6893  0.4690
  859MOL0     O18452  12.713   4.038  -0.191  0.6269  0.4102 -0.2873
  859MOL0     C18453  12.476   3.984  -0.413  1.1777  0.1376  0.5480
  859MOL0     C18454  12.440   3.921  -0.523  1.3154  0.6117 -0.0321
  859MOL0     N18455  12.360   3.187  -0.576  0.7244 -0.2536  0.7353
  859MOL0     N18456  12.296   3.083  -0.556  0.6491  0.4570 -0.0850
  859MOL0     C18457  11.304   2.795   0.305 -0.8182  0.2816  0.0768
  859MOL0     C18458  11.202   2.829   0.393  0.1799 -0.2340  0.6176
  859MOL0     C18459  10.785   2.868   0.575  0.0919 -0.1090  0.6849
  859MOL0     C18460  10.709   2.946   0.488  0.6463 -0.0219  0.0289
  859MOL0     C18461  10.586   2.997   0.534 -0.4071  0.4523 -0.1743
  859MOL0     C18462  10.541   2.970   0.658  0.4816 -0.3059 -0.6953
  859MOL0     O18463  10.417   3.030   0.688 -0.1227 -0.2114  0.4988
  859MOL0     C18464  10.368   3.006   0.817 -0.0340 -0.2258  0.7317
  859MOL0     C18465  10.225   3.057   0.807  0.0940  0.5068  0.6801
  859MOL0     C18466  10.220   3.208   0.809  0.6816 -0.0074 -0.3990
  859MOL0     C18467  10.072   3.255   0.826  0.0807  0.2833 -0.5467
  859MOL0     C18468   9.980   3.225   0.710  0.1854  0.0659 -0.4061
  859MOL0     C18469   9.899   3.229   0.619 -0.2411  0.5556 -0.0932
  859MOL0     C18470  10.614   2.891   0.745 -0.8112 -0.2247  1.0000
  859MOL0     C18471  10.742   2.845   0.711 -0.1809  1.3598 -0.4054
  859MOL0     C18472  10.819   2.761   0.809 -0.6844  0.2191  0.7353
  859MOL0     H18473  10.954   2.859   0.172 -0.1769 -2.2119  0.4715
  859MOL0     H18474  11.139   2.808   0.022  2.3998 -1.9740  0.0499
  859MOL0     H18475  11.317   2.766  -0.093  0.7668 -0.4710 -1.7569
  859MOL0     H18476  11.350   2.603  -0.027  3.2848 -1.4412  0.9607
  859MOL0     H18477  11.597   2.657  -0.054  2.0987  3.1761 -0.2088
  859MOL0     H18478  11.504   2.636  -0.199 -0.5172  1.6426 -1.2776
  859MOL0     H18479  11.526   2.887  -0.245  0.6998  2.6647 -0.8880
  859MOL0     H18480  11.592   2.905  -0.082 -0.9420 -0.7975  0.5061
  859MOL0     H18481  11.798   2.772  -0.137  0.2049  0.5053 -0.0854
  859MOL0     H18482  11.718   2.723  -0.279  1.1367  0.2230  1.0682
  859MOL0     H18483  11.816   3.008  -0.217  0.4673  0.8446 -0.0085
  859MOL0     H18484  11.705   2.983  -0.360 -1.0824  1.0491  1.4470
  859MOL0     H18485  11.948   2.807  -0.342 -0.4360 -0.4922  0.5323
  859MOL0     H18486  11.837   2.859  -0.474  1.5395  0.4122  0.3837
  859MOL0     H18487  12.054   3.020  -0.327  3.6795  0.2000 -1.5949
  859MOL0     H18488  11.920   3.101  -0.420 -2.1960 -1.7110 -0.7728
  859MOL0     H18489  12.125   2.907  -0.542  0.2534  0.2128 -1.0554
  859MOL0     H18490  12.005   3.011  -0.630 -2.0502  3.8797  0.7449
  859MOL0     H18491  12.046   3.303  -0.582 -0.7919  0.5263  0.7888
  859MOL0     H18492  12.403   3.446  -0.497 -0.2526  1.1306  0.1821
  859MOL0     H18493  12.236   3.498  -0.518 -0.2302  2.7281 -2.6767
  859MOL0     H18494  12.395   3.439  -0.767 -0.0621  0.5941 -0.3976
  859MOL0     H18495  12.259   3.538  -0.747 -0.3483 -0.8884  0.0275
  859MOL0     H18496  12.470   3.645  -0.571 -1.7217 -2.6753  2.4115
  859MOL0     H18497  12.551   3.585  -0.699  0.1955  0.1810  2.7977
  859MOL0     H18498  12.418   3.715  -0.867  2.8160 -0.5324  0.3018
  859MOL0     H18499  12.320   3.772  -0.719 -0.3382 -0.4683  0.5207
  859MOL0     H18500  12.730   3.959  -0.697  0.1460  2.9143 -0.3020
  859MOL0     H18501  12.819   4.195  -0.436  0.0174 -0.0670 -1.1903
  859MOL0     H18502  12.895   4.099  -0.556 -1.3682  0.5952 -0.7544
  859MOL0     H18503  12.878   4.034  -0.389 -0.2620 -1.1287  0.1708
  859MOL0     H18504  12.380   4.331  -0.095 -1.5778 -0.2684  3.1341
  859MOL0     H18505  12.390   4.476   0.079  0.3229  0.8039  1.1428
  859MOL0     H18506  12.542   4.684   0.322  1.2250  0.7897 -0.2365
  859MOL0     H18507  12.421   4.610   0.237 -0.6620 -2.4851  1.0966
  859MOL0     H18508  12.398   4.554   0.453  1.3388  5.5174 -3.3710
  859MOL0     H18509  12.464   4.398   0.397  2.1703  0.4957 -0.9605
  859MOL0     H18510  12.678   4.440   0.501 -0.9497 -0.6218  0.9412
  859MOL0     H18511  12.573   4.509   0.615 -0.2335  2.8638  0.5540
  859MOL0     H18512  12.623   4.737   0.542 -0.2421 -0.8211 -0.0373
  859MOL0     H18513  12.730   4.663   0.427 -0.8558 -0.1761  0.0711
  859MOL0     H18514  12.757   4.566   0.713  1.3206  0.2801  1.0022
  859MOL0     H18515  12.881   4.606   0.587  1.4422  0.4529  2.3141
  859MOL0     H18516  12.724   4.826   0.729 -0.5410  0.8980 -0.7023
  859MOL0     H18517  12.863   4.848   0.625  2.7135 -0.4771 -0.4450
  859MOL0     H18518  13.003   4.708   0.782 -0.7316 -1.9607  2.2215
  859MOL0     H18519  12.872   4.701   0.897 -0.1942  0.4906  0.3700
  859MOL0     H18520  12.865   4.956   0.886  0.9069  0.5242  2.9416
  859MOL0     H18521  13.019   4.935   0.782  2.2688  0.3416  1.8596
  859MOL0     H18522  12.834   4.420   0.068  1.0235  0.4456 -2.3208
  859MOL0     H18523  12.795   4.251  -0.112 -1.8311 -4.3297  3.7540
  859MOL0     H18524  12.403   3.992  -0.333  2.3559  3.3499  1.4484
  859MOL0     H18525  12.344   3.871  -0.523  2.0997 -0.9660 -1.0430
  859MOL0     H18526  11.396   2.758   0.349 -0.8026  1.3257  0.9849
  859MOL0     H18527  11.225   2.813   0.498 -0.3889  0.0950  0.7975
  859MOL0     H18528  10.747   2.983   0.393  0.5191 -0.2335 -0.1040
  859MOL0     H18529  10.529   3.065   0.472  1.2894  1.5428 -0.6068
  859MOL0     H18530  10.374   2.904   0.857  2.2393 -0.5047 -0.1709
  859MOL0     H18531  10.432   3.060   0.888  3.9334 -1.9592 -1.2040
  859MOL0     H18532  10.168   3.008   0.887 -1.9658  0.2058 -0.8740
  859MOL0     H18533  10.191   3.024   0.709  2.7270 -3.9868  1.0081
  859MOL0     H18534  10.277   3.252   0.891  1.7863 -1.4276 -0.3733
  859MOL0     H18535  10.257   3.247   0.714  0.6211  2.5657  0.5594
  859MOL0     H18536  10.084   3.360   0.853  2.4387 -0.4357  1.5849
  859MOL0     H18537  10.034   3.206   0.916 -0.6605  0.1578 -0.9203
  859MOL0     H18538   9.824   3.209   0.545 -0.8038  1.4502  0.2235
  859MOL0     H18539  10.587   2.862   0.846  0.7388  1.2799  1.9051
  859MOL0     H18540  10.830   2.656   0.781  1.6922  0.7584 -0.6665
  859MOL0     H18541  10.917   2.810   0.812 -0.8606  0.5843  0.3945
  859MOL0     H18542  10.788   2.767   0.914  1.8335 -0.7328  1.6099
  860MOL0     O18543   2.855   8.861   3.047  0.1015 -0.0737 -0.2549
  860MOL0     C18544   2.873   8.900   2.930 -0.7771 -0.5984  0.0540
  860MOL0     O18545   2.945   8.834   2.829  0.0204  0.0379 -0.2511
  860MOL0     C18546   2.983   8.713   2.866 -0.6487  0.3418 -0.7436
  860MOL0     C18547   3.074   8.690   2.974  0.2447 -0.4197 -0.5801
  860MOL0     C18548   3.126   8.567   3.010 -0.5791  0.4199  0.3999
  860MOL0     C18549   3.095   8.460   2.922  0.7331  0.6394 -0.9946
  860MOL0     O18550   3.157   8.350   2.946 -0.5827  0.0441 -0.3806
  860MOL0     C18551   3.177   8.262   2.833  0.5098 -0.1823  0.4661
  860MOL0     C18552   3.324   8.198   2.833 -0.5156 -0.1957  1.0100
  860MOL0     C18553   3.436   8.300   2.837  0.0088 -0.5114  0.3807
  860MOL0     C18554   3.573   8.227   2.860  0.6043  0.3295 -0.3934
  860MOL0     C18555   3.610   8.118   2.756  0.3690  0.0938 -0.1017
  860MOL0     C18556   3.653   8.173   2.615  1.1717 -0.0286  0.2153
  860MOL0     C18557   3.786   8.245   2.636  0.1636  0.0387 -0.6410
  860MOL0     C18558   3.873   8.223   2.506 -0.2700 -0.2303  0.2530
  860MOL0     N18559   4.007   8.277   2.522  0.1386  0.2106 -0.2471
  860MOL0     C18560   4.020   8.405   2.553 -0.8429  0.4355  0.7226
  860MOL0     C18561   4.155   8.419   2.574  0.3744 -0.6018  0.0929
  860MOL0     C18562   4.215   8.554   2.624  0.0811  0.2724 -0.0195
  860MOL0     C18563   4.317   8.524   2.736 -0.1754 -0.6136  0.2745
  860MOL0     C18564   4.461   8.499   2.675  1.5761  0.2358 -0.0365
  860MOL0     C18565   4.525   8.381   2.741 -0.0107  0.1762  0.2088
  860MOL0     O18566   4.655   8.356   2.706  0.3538 -0.1715 -0.8015
  860MOL0     C18567   4.758   8.421   2.773 -0.6997 -0.3712 -0.8853
  860MOL0     C18568   4.889   8.367   2.761 -0.4070  0.8880 -0.3538
  860MOL0     C18569   4.993   8.439   2.808  0.2893 -0.3343  1.1520
  860MOL0     C18570   5.129   8.386   2.771 -0.1727 -0.3378 -0.6986
  860MOL0     C18571   4.974   8.559   2.880 -0.3952 -0.5525 -0.4897
  860MOL0     C18572   5.087   8.652   2.924 -0.5231 -0.7788  0.1633
  860MOL0     O18573   5.210   8.596   2.956 -0.4183  0.7226  0.3905
  860MOL0     C18574   5.318   8.689   2.974  0.6955  0.8296  0.6688
  860MOL0     C18575   5.422   8.689   2.879  0.7630  0.0953 -0.3173
  860MOL0     C18576   5.533   8.770   2.895 -0.4441  0.6558  0.3401
  860MOL0     C18577   5.552   8.851   3.006 -1.0481 -0.1307  0.1985
  860MOL0     O18578   5.675   8.925   3.038 -0.2965 -0.0399 -0.5232
  860MOL0     C18579   5.796   8.888   2.971  0.0337  0.0119  0.1749
  860MOL0     C18580   5.922   8.969   3.016  0.5045  0.0368  0.2407
  860MOL0     C18581   5.935   8.987   3.168  0.1707  0.1043 -0.1314
  860MOL0     C18582   6.077   9.033   3.198  0.5853  0.2037  0.0752
  860MOL0     C18583   6.096   9.033   3.344  0.5519  0.1631  0.5471
  860MOL0     C18584   6.229   9.087   3.397 -0.7900 -0.4321 -0.1902
  860MOL0     C18585   6.235   9.100   3.548  0.3423 -0.0718  0.3731
  860MOL0     C18586   6.240   8.969   3.630 -0.0936 -0.4253 -0.1661
  860MOL0    Cl18587   6.401   8.886   3.608  0.4083  0.3882 -0.2595
  860MOL0     C18588   5.444   8.856   3.097 -0.5379 -0.4905  0.8241
  860MOL0     C18589   5.323   8.782   3.082  0.0370  0.8487 -0.3249
  860MOL0     O18590   5.066   8.774   2.921 -0.1567  0.6407 -0.3307
  860MOL0     C18591   4.847   8.608   2.903  0.3658 -0.4695  0.7743
  860MOL0     C18592   4.740   8.539   2.853  0.2041  0.4094 -0.5746
  860MOL0     N18593   4.215   8.301   2.545 -0.0939 -0.4125 -0.7264
  860MOL0     N18594   4.128   8.209   2.513  0.2263 -0.0029 -0.2188
  860MOL0     C18595   2.996   8.479   2.815  0.5991  0.9390  0.2026
  860MOL0     C18596   2.946   8.609   2.792  0.1410  0.9326 -0.0034
  860MOL0     C18597   2.814   9.025   2.892  0.5732 -0.1929 -0.2647
  860MOL0     C18598   2.816   9.049   2.751  1.1105  1.3470  0.3427
  860MOL0     C18599   2.753   9.155   2.691  1.0817 -0.4048 -0.2440
  860MOL0     C18600   2.687   9.249   2.773 -0.5291 -0.8966  0.5489
  860MOL0     O18601   2.612   9.367   2.730 -0.5612 -0.2818 -0.0529
  860MOL0     C18602   2.586   9.401   2.594  0.3109  0.0387  0.3173
  860MOL0     C18603   2.474   9.312   2.533  0.3781 -0.5941  0.3453
  860MOL0     C18604   2.408   9.380   2.410  0.9857 -0.9371 -0.4361
  860MOL0     C18605   2.270   9.321   2.377  0.0518 -0.0979  0.6471
  860MOL0     C18606   2.219   9.403   2.263 -0.1037  0.0046 -0.3821
  860MOL0     C18607   2.194   9.467   2.162  0.0463  0.0720 -0.2407
  860MOL0     C18608   2.685   9.233   2.913 -0.1795  0.1086 -0.5388
  860MOL0     C18609   2.754   9.126   2.975  0.0098 -0.6906  0.3854
  860MOL0     C18610   2.770   9.129   3.121  0.1405  0.2187 -0.4246
  860MOL0     H18611   3.120   8.766   3.037 -1.1180  0.7834 -0.9706
  860MOL0     H18612   3.197   8.553   3.090  0.6868  0.1693 -0.7418
  860MOL0     H18613   3.152   8.306   2.736 -1.3588 -2.9978 -0.4621
  860MOL0     H18614   3.099   8.185   2.832  0.0772  0.1412  2.8319
  860MOL0     H18615   3.333   8.123   2.913 -0.7625 -1.8317 -0.4203
  860MOL0     H18616   3.327   8.136   2.742  0.0378 -1.2259  1.7030
  860MOL0     H18617   3.431   8.345   2.737  0.1240  0.1679  0.6739
  860MOL0     H18618   3.417   8.381   2.907  0.3115  0.0278 -0.1489
  860MOL0     H18619   3.654   8.300   2.866  1.3481 -0.5777  1.3978
  860MOL0     H18620   3.562   8.176   2.956  1.0483 -2.4567 -1.7286
  860MOL0     H18621   3.527   8.049   2.738  0.0600  0.7358 -1.2604
  860MOL0     H18622   3.695   8.061   2.792  0.6334  2.0508  2.7214
  860MOL0     H18623   3.652   8.085   2.550 -2.1927  0.5855 -0.7796
  860MOL0     H18624   3.584   8.240   2.562  2.9830  1.5382 -0.2633
  860MOL0     H18625   3.831   8.197   2.724 -0.1666  0.0072 -0.4875
  860MOL0     H18626   3.782   8.352   2.662 -0.4492  0.4366 -2.2888
  860MOL0     H18627   3.877   8.115   2.490  1.2552 -0.1535 -0.0064
  860MOL0     H18628   3.834   8.278   2.420  0.0437 -0.6366 -0.1529
  860MOL0     H18629   3.953   8.490   2.564  0.3752  1.2386  2.4376
  860MOL0     H18630   4.141   8.616   2.675 -1.9186 -2.1337  0.1946
  860MOL0     H18631   4.253   8.606   2.535 -0.4183 -0.0241 -0.4131
  860MOL0     H18632   4.325   8.605   2.810  2.3569  0.5201 -1.1254
  860MOL0     H18633   4.280   8.433   2.782 -1.1157  0.0686  0.9137
  860MOL0     H18634   4.457   8.486   2.566 -2.8791  1.3620 -0.1944
  860MOL0     H18635   4.519   8.591   2.687 -1.9592  2.6311  0.0410
  860MOL0     H18636   4.517   8.377   2.850 -1.0852  2.8769  0.3150
  860MOL0     H18637   4.466   8.298   2.703 -2.2977  2.1231 -0.7378
  860MOL0     H18638   4.911   8.278   2.703 -0.6196  0.3959  0.3086
  860MOL0     H18639   5.197   8.461   2.730  0.5033  0.9647  2.5264
  860MOL0     H18640   5.130   8.307   2.696 -1.6082 -0.2667 -0.8179
  860MOL0     H18641   5.175   8.344   2.861 -2.3365  1.9534  1.6199
  860MOL0     H18642   5.420   8.623   2.793 -1.3973 -0.6972  0.2819
  860MOL0     H18643   5.611   8.760   2.820 -1.0029 -0.5587 -0.0968
  860MOL0     H18644   5.817   8.782   2.990  4.0756  0.8076  0.9000
  860MOL0     H18645   5.785   8.896   2.863  1.7892 -2.5521 -0.2828
  860MOL0     H18646   6.012   8.915   2.986  0.5451  1.8554 -3.3565
  860MOL0     H18647   5.938   9.066   2.968  0.1235 -0.2604 -0.4943
  860MOL0     H18648   5.922   8.895   3.225  0.6397 -0.1736 -0.4699
  860MOL0     H18649   5.858   9.058   3.200 -0.3816  0.7672 -2.6668
  860MOL0     H18650   6.094   9.139   3.178 -1.2888  0.5063 -0.0758
  860MOL0     H18651   6.153   8.977   3.144  0.3950  0.4933 -0.4988
  860MOL0     H18652   6.013   9.085   3.393 -0.4442  0.5596 -1.4402
  860MOL0     H18653   6.086   8.939   3.398 -1.8632  2.0835  3.7591
  860MOL0     H18654   6.244   9.188   3.357  0.0156 -0.7163 -0.6323
  860MOL0     H18655   6.309   9.022   3.360 -1.5294 -1.1978 -0.4784
  860MOL0     H18656   6.142   9.151   3.575  0.0528 -0.8237  0.8324
  860MOL0     H18657   6.327   9.153   3.577  0.2600 -0.1914  0.8668
  860MOL0     H18658   6.156   8.906   3.599 -1.2142  1.1950 -0.5257
  860MOL0     H18659   6.236   8.990   3.737 -0.4408  1.9304 -0.5889
  860MOL0     H18660   5.460   8.923   3.180  0.4494  1.2236 -0.6714
  860MOL0     H18661   5.241   8.803   3.150 -0.9904 -1.1009 -0.9012
  860MOL0     H18662   4.836   8.706   2.948 -0.0175  0.0795 -0.4788
  860MOL0     H18663   4.645   8.587   2.877  0.3484 -0.4542  2.0909
  860MOL0     H18664   2.965   8.393   2.756  0.5411  1.0865  0.0181
  860MOL0     H18665   2.874   8.625   2.714  0.1867 -1.5296 -0.6314
  860MOL0     H18666   2.855   8.979   2.678 -1.9040 -1.0500  0.8179
  860MOL0     H18667   2.744   9.164   2.584 -1.1157 -1.0769 -0.1699
  860MOL0     H18668   2.548   9.503   2.595 -1.2608 -0.4451 -1.7589
  860MOL0     H18669   2.672   9.409   2.526  2.1434  1.0786  2.6407
  860MOL0     H18670   2.404   9.281   2.610  1.3081 -0.7573  1.1449
  860MOL0     H18671   2.530   9.223   2.503  2.3567  1.2469 -1.8995
  860MOL0     H18672   2.394   9.487   2.430  1.3362 -0.7617 -1.1037
  860MOL0     H18673   2.476   9.369   2.325  1.7972 -0.0400  0.0657
  860MOL0     H18674   2.201   9.354   2.455  1.5463  1.6369  1.3376
  860MOL0     H18675   2.271   9.215   2.351 -2.7918 -0.2078  0.7638
  860MOL0     H18676   2.171   9.509   2.067 -0.2744 -0.7988 -0.5584
  860MOL0     H18677   2.621   9.298   2.970 -1.3672 -0.1357 -1.5648
  860MOL0     H18678   2.875   9.117   3.149  0.2323  1.5120 -0.1522
  860MOL0     H18679   2.735   9.229   3.147  1.4595  0.8754 -1.0612
  860MOL0     H18680   2.720   9.046   3.171  1.6970 -0.1589  0.5679
  861MOL0     O18681   5.905   5.996   2.515  0.6094 -0.8933  0.2816
  861MOL0     C18682   6.030   6.021   2.501 -0.3031 -0.1865 -0.6374
  861MOL0     O18683   6.103   6.005   2.385  0.5091  0.1220  0.4298
  861MOL0     C18684   6.035   5.953   2.277 -0.4909 -0.0931 -0.1655
  861MOL0     C18685   5.986   6.032   2.172 -0.3512 -0.4669  0.2796
  861MOL0     C18686   5.938   5.977   2.052  0.4672  0.3248 -0.3631
  861MOL0     C18687   5.931   5.837   2.042  0.4725  0.6436  0.2008
  861MOL0     O18688   5.877   5.783   1.928 -0.5917  0.5507 -0.4818
  861MOL0     C18689   5.773   5.679   1.942 -0.3232 -0.4494 -0.2809
  861MOL0     C18690   5.651   5.744   1.993  0.3897  0.4750  0.3481
  861MOL0     C18691   5.611   5.861   1.897 -0.6303  0.8151  0.0902
  861MOL0     C18692   5.555   5.973   1.972 -0.2574 -0.1181  0.2423
  861MOL0     C18693   5.538   6.098   1.886 -0.5718 -0.8269 -0.3140
  861MOL0     C18694   5.674   6.163   1.840 -0.3110 -0.2236 -1.0086
  861MOL0     C18695   5.661   6.309   1.789 -0.0399 -0.0513  0.1186
  861MOL0     C18696   5.633   6.314   1.641 -0.1562 -1.0666  0.5174
  861MOL0     N18697   5.506   6.271   1.588 -0.0528  0.2697  0.2818
  861MOL0     C18698   5.478   6.142   1.547 -0.4117  0.2375  0.3479
  861MOL0     C18699   5.344   6.143   1.545  0.6977 -0.3829  0.5701
  861MOL0     C18700   5.254   6.027   1.525  0.2760 -0.6045  0.5901
  861MOL0     C18701   5.219   5.975   1.657 -1.6317  0.4774 -0.5846
  861MOL0     C18702   5.126   5.854   1.644 -0.0282  0.1238 -0.3103
  861MOL0     C18703   4.976   5.906   1.655 -0.2118  0.4554  0.3260
  861MOL0     O18704   4.936   5.973   1.529  0.8978  0.6570  0.0826
  861MOL0     C18705   4.834   5.921   1.456  0.0832  0.2647  0.2317
  861MOL0     C18706   4.757   6.011   1.388  0.0528 -0.3840  0.0832
  861MOL0     C18707   4.653   5.970   1.308 -0.3166  0.2180  0.6139
  861MOL0     C18708   4.595   6.083   1.222 -0.8281  0.5050 -0.4936
  861MOL0     C18709   4.622   5.832   1.291  0.2453  0.1384 -1.0585
  861MOL0     C18710   4.515   5.786   1.207  0.2702  0.3143  0.4184
  861MOL0     O18711   4.505   5.656   1.200  0.7410  0.4788 -0.3064
  861MOL0     C18712   4.396   5.584   1.181  1.1895 -0.7065 -0.0366
  861MOL0     C18713   4.331   5.578   1.060  0.2723  0.4625 -0.0540
  861MOL0     C18714   4.217   5.493   1.062  0.3463 -0.5105 -0.5852
  861MOL0     C18715   4.156   5.438   1.175 -0.7147  0.3056 -0.4598
  861MOL0     O18716   4.043   5.361   1.166  0.0854 -0.0169  0.9665
  861MOL0     C18717   3.975   5.327   1.285 -0.0334  0.2569 -0.7158
  861MOL0     C18718   3.846   5.252   1.257 -0.1794 -0.5911  0.1564
  861MOL0     C18719   3.788   5.185   1.377 -0.4739 -0.5029  0.1763
  861MOL0     C18720   3.733   5.288   1.481 -0.1338  0.0903  0.4039
  861MOL0     C18721   3.684   5.230   1.619  0.3321  0.3895 -0.0991
  861MOL0     C18722   3.553   5.152   1.607 -0.6800  0.0725  0.2726
  861MOL0     C18723   3.503   5.085   1.738  1.1096  0.1279 -0.0165
  861MOL0     C18724   3.346   5.058   1.733  0.3027  0.3462 -0.2297
  861MOL0    Cl18725   3.289   5.021   1.897 -0.3214  0.0725 -0.7457
  861MOL0     C18726   4.222   5.467   1.300 -0.2673 -0.6243  0.0686
  861MOL0     C18727   4.337   5.541   1.302 -0.2765 -0.8962  0.3860
  861MOL0     O18728   4.436   5.866   1.159  0.5299 -0.9114 -0.5968
  861MOL0     C18729   4.689   5.741   1.377 -0.1466 -0.1209  0.5619
  861MOL0     C18730   4.796   5.782   1.451  0.1815 -0.8208 -0.2370
  861MOL0     N18731   5.292   6.276   1.566  0.5100 -0.0404  0.4645
  861MOL0     N18732   5.395   6.343   1.599 -0.5633  0.2444 -0.1463
  861MOL0     C18733   5.983   5.757   2.144  0.2217 -0.3871  0.3366
  861MOL0     C18734   6.038   5.816   2.260  0.6598 -0.7437  1.6729
  861MOL0     C18735   6.112   6.086   2.609  0.4546 -0.7778 -0.3205
  861MOL0     C18736   6.252   6.086   2.599 -0.3296  0.0025  0.4850
  861MOL0     C18737   6.327   6.145   2.699 -0.6696 -0.8083  0.4097
  861MOL0     C18738   6.275   6.198   2.814  0.6339 -0.8111  0.3078
  861MOL0     O18739   6.341   6.256   2.914 -1.0702  0.2898 -0.2699
  861MOL0     C18740   6.483   6.217   2.950  0.0416 -0.5477  0.3677
  861MOL0     C18741   6.505   6.080   3.005 -0.7210 -0.4506  0.4225
  861MOL0     C18742   6.430   6.065   3.137 -0.2951  0.4163 -0.2662
  861MOL0     C18743   6.375   5.928   3.147 -0.6190  0.3565 -0.6722
  861MOL0     C18744   6.293   5.874   3.044 -0.2345 -0.8942 -0.0781
  861MOL0     C18745   6.198   5.827   2.981  0.7820 -0.0472  0.6629
  861MOL0     C18746   6.131   6.192   2.828 -0.7847  0.0277  0.4744
  861MOL0     C18747   6.051   6.130   2.730  0.6697  0.2610  0.3830
  861MOL0     C18748   5.910   6.124   2.756 -0.9289 -0.6021  0.5685
  861MOL0     H18749   5.999   6.139   2.166  1.0748 -0.6287  0.1097
  861MOL0     H18750   5.917   6.052   1.976 -0.5410  2.2096  1.6666
  861MOL0     H18751   5.805   5.584   1.986  0.2023  0.2056  0.7867
  861MOL0     H18752   5.759   5.651   1.837  1.3975  3.0757 -1.5991
  861MOL0     H18753   5.580   5.661   1.990  3.0258 -1.9739  1.0616
  861MOL0     H18754   5.666   5.774   2.097 -0.2685 -2.8058  1.5327
  861MOL0     H18755   5.683   5.891   1.820 -1.3970  1.3950 -0.4239
  861MOL0     H18756   5.536   5.816   1.830  1.8940 -2.1091 -1.0553
  861MOL0     H18757   5.458   5.936   2.006 -0.3516 -1.0840 -0.9895
  861MOL0     H18758   5.614   5.994   2.062 -0.6934 -1.3468  0.8441
  861MOL0     H18759   5.488   6.174   1.947 -1.3946 -1.9135  0.4032
  861MOL0     H18760   5.468   6.087   1.803 -0.7289 -0.0290 -0.2974
  861MOL0     H18761   5.737   6.174   1.929 -1.0395  1.5853 -0.6642
  861MOL0     H18762   5.722   6.095   1.770  3.2710 -2.4799  3.1165
  861MOL0     H18763   5.753   6.361   1.818  0.4616 -1.5044  1.2427
  861MOL0     H18764   5.576   6.346   1.847  1.1273 -1.6292  3.0442
  861MOL0     H18765   5.667   6.412   1.605 -1.1373  0.2210  2.8899
  861MOL0     H18766   5.702   6.238   1.601  0.1717 -2.4216  3.4076
  861MOL0     H18767   5.546   6.058   1.538  1.5681  1.6756  1.0129
  861MOL0     H18768   5.311   5.955   1.466  2.6337  0.5850  1.3102
  861MOL0     H18769   5.165   6.066   1.474  0.1963 -0.9677  0.4472
  861MOL0     H18770   5.311   5.949   1.710  0.7622  4.5010 -2.3118
  861MOL0     H18771   5.170   6.055   1.713  0.3506  1.0485  0.4226
  861MOL0     H18772   5.137   5.803   1.548 -1.0845  0.3775 -0.5802
  861MOL0     H18773   5.146   5.784   1.726 -1.0063 -0.7594 -0.7997
  861MOL0     H18774   4.916   5.824   1.696  0.6321 -1.7248 -2.4463
  861MOL0     H18775   4.970   5.981   1.734 -2.3156 -2.9562  3.7404
  861MOL0     H18776   4.771   6.117   1.408 -0.1334 -0.4096  0.3669
  861MOL0     H18777   4.628   6.179   1.265 -2.6655  0.1399  2.0186
  861MOL0     H18778   4.488   6.086   1.248 -0.4444  1.7986  1.1069
  861MOL0     H18779   4.616   6.072   1.116 -0.7230 -0.9835 -0.3323
  861MOL0     H18780   4.365   5.622   0.966  5.0570 -0.0754  1.1430
  861MOL0     H18781   4.167   5.482   0.967 -1.2996  1.5287 -0.0237
  861MOL0     H18782   4.033   5.274   1.361  0.8444 -1.4224 -2.4748
  861MOL0     H18783   3.952   5.426   1.324  3.2319 -0.3641  3.5027
  861MOL0     H18784   3.773   5.324   1.218 -0.7101  0.6435  3.1120
  861MOL0     H18785   3.854   5.172   1.184  0.1488 -3.8837  3.4995
  861MOL0     H18786   3.865   5.127   1.429  0.8428  0.9517 -0.0521
  861MOL0     H18787   3.700   5.128   1.349  0.1045 -1.7394  0.7733
  861MOL0     H18788   3.650   5.344   1.436 -0.7060 -1.3332 -0.3722
  861MOL0     H18789   3.812   5.363   1.492 -0.6573  0.9539 -1.3746
  861MOL0     H18790   3.761   5.173   1.669  0.4920  2.3931  2.1020
  861MOL0     H18791   3.671   5.320   1.680 -2.3916  0.7793 -1.0831
  861MOL0     H18792   3.568   5.072   1.533  2.6079  0.7659  0.0319
  861MOL0     H18793   3.469   5.214   1.576 -1.8148 -0.7631  1.5430
  861MOL0     H18794   3.536   5.154   1.817 -0.8345  1.1183  0.0084
  861MOL0     H18795   3.548   4.987   1.756 -1.3134 -0.9102  0.8649
  861MOL0     H18796   3.331   4.972   1.667 -1.8172 -0.2037  0.8861
  861MOL0     H18797   3.294   5.149   1.704 -0.3318  0.1401  0.2523
  861MOL0     H18798   4.178   5.433   1.393  1.7960 -0.3803  1.1919
  861MOL0     H18799   4.382   5.561   1.399 -0.0502 -0.1135  0.1300
  861MOL0     H18800   4.657   5.638   1.371 -0.1426 -0.0531 -1.4326
  861MOL0     H18801   4.865   5.711   1.494  1.3543  0.3855 -0.0590
  861MOL0     H18802   5.972   5.650   2.135  0.2917 -0.3395 -0.4267
  861MOL0     H18803   6.074   5.770   2.351  0.4041  0.3646  2.3602
  861MOL0     H18804   6.296   6.041   2.510 -1.0709  0.9584 -0.3942
  861MOL0     H18805   6.435   6.154   2.694 -0.7533 -0.2709 -0.6756
  861MOL0     H18806   6.552   6.239   2.868  1.3625  0.6641  1.7460
  861MOL0     H18807   6.513   6.289   3.027  3.7520 -2.1658  0.6685
  861MOL0     H18808   6.608   6.045   3.006 -0.8088 -1.4142 -4.2845
  861MOL0     H18809   6.460   6.019   2.925  2.7262  0.7296 -2.6727
  861MOL0     H18810   6.485   6.092   3.228 -3.6406  3.3794  1.1510
  861MOL0     H18811   6.340   6.128   3.136 -1.0883 -0.6689 -2.2862
  861MOL0     H18812   6.318   5.916   3.240 -1.6749 -0.5215 -1.4019
  861MOL0     H18813   6.461   5.866   3.174  0.3977  2.1717  0.4666
  861MOL0     H18814   6.106   5.805   2.932  0.0157  2.7249  0.6500
  861MOL0     H18815   6.091   6.218   2.925  1.3634 -1.5525  1.8890
  861MOL0     H18816   5.852   6.169   2.675 -2.5760 -1.0471  1.4417
  861MOL0     H18817   5.887   6.017   2.763 -0.4959 -0.8069 -0.8799
  861MOL0     H18818   5.883   6.168   2.852 -0.1452  0.7573  0.1924
  862MOL0     O18819   4.202   8.886   3.758  0.1322  0.6307  1.0565
  862MOL0     C18820   4.209   8.764   3.776  0.2442  0.0548 -0.0757
  862MOL0     O18821   4.324   8.698   3.788  0.4556 -0.0971  0.0483
  862MOL0     C18822   4.444   8.745   3.759 -0.2124  0.5844 -0.7673
  862MOL0     C18823   4.512   8.822   3.861 -0.0028  0.0365 -0.8359
  862MOL0     C18824   4.627   8.891   3.823 -0.8254 -0.7145 -0.5740
  862MOL0     C18825   4.688   8.888   3.703  0.0689 -0.0327 -0.4265
  862MOL0     O18826   4.809   8.940   3.659 -0.1833  0.1423  0.0999
  862MOL0     C18827   4.866   9.043   3.742 -0.1539  0.3738  0.2590
  862MOL0     C18828   4.958   9.127   3.651 -0.0510 -0.3445  0.3749
  862MOL0     C18829   4.988   9.268   3.719  0.5449 -0.5438 -0.0363
  862MOL0     C18830   5.065   9.247   3.844 -0.5461 -0.1898 -0.0770
  862MOL0     C18831   5.099   9.369   3.914  0.3876 -0.5426 -0.6449
  862MOL0     C18832   5.234   9.374   3.976 -1.0372 -0.2279 -0.8549
  862MOL0     C18833   5.241   9.509   4.054  0.4454 -0.8397  0.5207
  862MOL0     C18834   5.189   9.489   4.201 -0.2637  0.1059 -0.5101
  862MOL0     N18835   5.179   9.617   4.268  0.9437 -0.7781 -0.4359
  862MOL0     C18836   5.213   9.646   4.397 -1.0479  1.0061  0.4236
  862MOL0     C18837   5.188   9.773   4.426 -0.7139 -0.2971 -0.4200
  862MOL0     C18838   5.230   9.854   4.555 -0.5744  0.7361 -0.6924
  862MOL0     C18839   5.125   9.971   4.573 -0.1202  0.3902 -0.4227
  862MOL0     C18840   5.174  10.067   4.685  0.5386 -0.4488  1.0872
  862MOL0     C18841   5.083  10.185   4.696  0.1365  0.2449 -0.6961
  862MOL0     O18842   5.152  10.275   4.790 -0.4927  0.1544  0.6163
  862MOL0     C18843   5.093  10.393   4.816  0.1026 -0.1736 -0.4416
  862MOL0     C18844   5.176  10.506   4.840  0.3082  0.0585 -0.3193
  862MOL0     C18845   5.125  10.628   4.888 -0.4105  0.9705  0.4832
  862MOL0     C18846   5.232  10.727   4.905  0.7736  0.8549 -1.2525
  862MOL0     C18847   4.984  10.633   4.921 -0.6952 -0.4315 -0.3724
  862MOL0     C18848   4.918  10.759   4.985  0.1138 -0.4716 -0.4797
  862MOL0     O18849   4.783  10.756   5.018 -0.4070  0.3774 -0.0914
  862MOL0     C18850   4.712  10.862   5.061 -0.1078 -0.4177  0.2532
  862MOL0     C18851   4.747  10.995   5.096 -0.0729 -0.0995  0.3546
  862MOL0     C18852   4.656  11.090   5.143 -0.9141  0.7202 -0.3310
  862MOL0     C18853   4.517  11.060   5.158 -0.6835  0.1556 -0.7729
  862MOL0     O18854   4.425  11.150   5.216 -0.8077 -0.4061  0.0906
  862MOL0     C18855   4.431  11.185   5.356  0.8069  0.2835  0.7321
  862MOL0     C18856   4.282  11.197   5.401 -0.7556 -0.2182 -0.0950
  862MOL0     C18857   4.256  11.117   5.530 -0.7871 -0.0675 -1.0714
  862MOL0     C18858   4.099  11.121   5.556 -0.6387 -0.1876 -0.3076
  862MOL0     C18859   4.066  11.112   5.706  0.3768  0.7649 -0.1174
  862MOL0     C18860   4.108  10.975   5.763  0.6649  0.4251 -0.7639
  862MOL0     C18861   4.026  10.859   5.706  0.6653 -0.8248 -0.6535
  862MOL0     C18862   4.031  10.768   5.827  0.9464  0.0794  0.1303
  862MOL0    Cl18863   3.979  10.612   5.768  0.4479 -1.0691  0.1167
  862MOL0     C18864   4.474  10.928   5.099  0.8592  0.3147 -0.8860
  862MOL0     C18865   4.570  10.834   5.061  0.0147 -0.3183 -0.3808
  862MOL0     O18866   4.991  10.851   5.008 -0.0864  0.9125  1.2618
  862MOL0     C18867   4.900  10.524   4.893  0.0610  1.0291  0.2537
  862MOL0     C18868   4.961  10.406   4.839 -0.1806  0.0736  0.4058
  862MOL0     N18869   5.140   9.827   4.304 -0.4338  0.1328 -0.3039
  862MOL0     N18870   5.135   9.736   4.210 -0.0354 -0.6984 -0.6880
  862MOL0     C18871   4.612   8.817   3.607 -0.6841 -0.3302 -0.0807
  862MOL0     C18872   4.490   8.750   3.631 -0.1806 -0.0126 -0.0220
  862MOL0     C18873   4.082   8.689   3.804 -1.1598  0.1358  0.7598
  862MOL0     C18874   3.966   8.757   3.775 -0.6925 -0.3651 -0.3837
  862MOL0     C18875   3.849   8.703   3.798  0.1302  0.0009  0.1685
  862MOL0     C18876   3.834   8.569   3.844 -0.5550 -0.0418 -0.0957
  862MOL0     O18877   3.705   8.515   3.865 -0.4204 -0.7764 -0.4972
  862MOL0     C18878   3.687   8.373   3.882 -1.0784 -0.0627  0.0154
  862MOL0     C18879   3.543   8.351   3.910 -0.0013  0.1725 -1.0655
  862MOL0     C18880   3.452   8.399   3.791  0.2596  0.0333  0.6059
  862MOL0     C18881   3.309   8.359   3.815 -0.1571  0.2272 -0.2207
  862MOL0     C18882   3.279   8.215   3.833  0.1305  0.6515  0.5282
  862MOL0     C18883   3.253   8.092   3.843 -1.0191 -0.5185 -0.0465
  862MOL0     C18884   3.951   8.496   3.867 -0.4655 -0.3105 -1.3696
  862MOL0     C18885   4.080   8.552   3.851 -0.1720 -0.8436  0.1162
  862MOL0     C18886   4.206   8.464   3.856 -0.0851 -0.3617 -1.2852
  862MOL0     H18887   4.478   8.809   3.963 -1.4530 -1.1292 -1.4186
  862MOL0     H18888   4.671   8.939   3.910 -3.9917  0.9354  0.2647
  862MOL0     H18889   4.912   9.009   3.836 -0.7274 -1.0134  0.0544
  862MOL0     H18890   4.785   9.113   3.764  0.7626  1.9514 -1.1062
  862MOL0     H18891   5.047   9.073   3.619 -0.3284 -0.4861 -0.1673
  862MOL0     H18892   4.908   9.144   3.556  0.9990 -0.2227 -0.1655
  862MOL0     H18893   5.053   9.322   3.650 -3.2818  0.8145 -2.9290
  862MOL0     H18894   4.898   9.328   3.737  1.9403  2.2118 -1.5925
  862MOL0     H18895   5.014   9.190   3.922  0.1513 -0.7911 -0.0389
  862MOL0     H18896   5.155   9.197   3.804  0.3084  0.9033  0.4150
  862MOL0     H18897   5.014   9.377   3.982  1.0051  0.9891 -0.0114
  862MOL0     H18898   5.084   9.458   3.853  3.5327 -0.4413 -1.4557
  862MOL0     H18899   5.248   9.298   4.053 -1.4219  0.6773  0.1233
  862MOL0     H18900   5.317   9.370   3.905  0.3729  0.5965  0.6838
  862MOL0     H18901   5.173   9.578   4.003 -2.4686 -2.1756  2.2947
  862MOL0     H18902   5.346   9.539   4.051 -0.9169  5.0464  0.8675
  862MOL0     H18903   5.086   9.452   4.202 -0.8191  1.5415  2.0511
  862MOL0     H18904   5.244   9.417   4.263 -1.1197 -1.3569 -1.3776
  862MOL0     H18905   5.266   9.572   4.456 -3.4477 -0.5034  0.8428
  862MOL0     H18906   5.328   9.900   4.537  0.4465  0.5495  3.4042
  862MOL0     H18907   5.238   9.786   4.640  1.2197  2.9628  1.0589
  862MOL0     H18908   5.113  10.020   4.476 -3.8908 -2.6572 -1.7615
  862MOL0     H18909   5.028   9.929   4.600 -0.2396 -0.9891 -2.7016
  862MOL0     H18910   5.179  10.027   4.787 -0.7418 -0.8703  0.9927
  862MOL0     H18911   5.275  10.105   4.663  0.9778 -1.6837  0.9312
  862MOL0     H18912   5.056  10.239   4.605  0.7700  0.6036 -0.6808
  862MOL0     H18913   4.993  10.141   4.739 -0.7657  1.2548 -1.4794
  862MOL0     H18914   5.276  10.478   4.810 -0.4375  0.2612 -3.2658
  862MOL0     H18915   5.246  10.768   5.006  1.4978  0.1267 -1.0478
  862MOL0     H18916   5.207  10.815   4.846  0.7941  2.2751  0.7496
  862MOL0     H18917   5.326  10.677   4.881 -0.3474 -3.4197  1.9974
  862MOL0     H18918   4.849  11.030   5.104 -0.0419 -0.1284  0.1174
  862MOL0     H18919   4.687  11.192   5.163  1.8782  0.7060 -3.6191
  862MOL0     H18920   4.488  11.116   5.418  1.2490 -0.8419 -0.8674
  862MOL0     H18921   4.482  11.282   5.361  0.4978  0.4178  4.3559
  862MOL0     H18922   4.255  11.303   5.416  0.6441 -0.2317  3.5140
  862MOL0     H18923   4.215  11.165   5.321  0.0516  1.7333 -1.6253
  862MOL0     H18924   4.315  11.144   5.619 -0.5360 -2.4951 -0.4328
  862MOL0     H18925   4.285  11.013   5.519 -0.3601 -0.0969  0.1937
  862MOL0     H18926   4.056  11.032   5.508 -1.0239  0.7362 -1.7649
  862MOL0     H18927   4.059  11.215   5.516  2.3057  1.5450  0.4922
  862MOL0     H18928   4.114  11.198   5.754  0.3091  0.2834  0.8372
  862MOL0     H18929   3.958  11.128   5.710 -0.0724 -1.9084  1.6819
  862MOL0     H18930   4.084  10.986   5.870  0.5210 -1.5434 -0.5422
  862MOL0     H18931   4.211  10.943   5.742  1.2976 -1.6151  4.0060
  862MOL0     H18932   4.077  10.813   5.621 -0.9019 -0.8272 -1.6315
  862MOL0     H18933   3.928  10.887   5.667  0.6888 -0.7944 -0.6919
  862MOL0     H18934   3.969  10.793   5.913  3.5235  1.4659  1.7041
  862MOL0     H18935   4.126  10.756   5.879  0.6765 -0.7938  0.4462
  862MOL0     H18936   4.371  10.893   5.094  1.2895 -0.9282 -1.2262
  862MOL0     H18937   4.538  10.738   5.021  0.3011 -0.5209 -0.1301
  862MOL0     H18938   4.796  10.541   4.919  0.5889  1.7254  2.1106
  862MOL0     H18939   4.885  10.329   4.843 -2.8599  2.5633  0.6144
  862MOL0     H18940   4.658   8.823   3.508  1.0776  0.9570  0.7494
  862MOL0     H18941   4.443   8.713   3.541 -0.8670  0.1555  0.2640
  862MOL0     H18942   3.973   8.857   3.733  1.6122  0.4024  1.6189
  862MOL0     H18943   3.761   8.766   3.783  2.2246  3.3730  0.9512
  862MOL0     H18944   3.721   8.327   3.788  0.8542 -0.6526  0.9468
  862MOL0     H18945   3.749   8.335   3.963 -2.0724 -1.2876  0.2189
  862MOL0     H18946   3.521   8.413   3.997 -0.0189  2.4713 -2.6211
  862MOL0     H18947   3.533   8.248   3.946  0.0932  0.1397 -1.1313
  862MOL0     H18948   3.458   8.506   3.773  1.3193  0.5656  3.5564
  862MOL0     H18949   3.487   8.356   3.696  3.0701  0.8618  1.1537
  862MOL0     H18950   3.254   8.404   3.732 -0.3461 -1.4333 -1.0424
  862MOL0     H18951   3.274   8.405   3.908 -1.2312 -0.9647 -0.0108
  862MOL0     H18952   3.228   7.991   3.869 -2.2388  0.3455  2.4906
  862MOL0     H18953   3.947   8.389   3.886 -2.9221  0.0862  0.8809
  862MOL0     H18954   4.277   8.499   3.930 -0.0772  0.3549 -1.6279
  862MOL0     H18955   4.187   8.357   3.871  2.2783 -0.6531  0.0559
  862MOL0     H18956   4.248   8.472   3.755  0.5031 -0.8749 -1.0842
  863MOL0     O18957   3.011   4.340   0.337 -1.2115 -0.2713 -0.1063
  863MOL0     C18958   3.001   4.458   0.300 -0.7859 -0.3260 -0.3190
  863MOL0     O18959   3.107   4.537   0.269  0.0527 -1.0265 -0.3739
  863MOL0     C18960   3.231   4.490   0.279  0.1107 -0.3491  0.3591
  863MOL0     C18961   3.268   4.456   0.406 -1.0831  0.3216  1.4017
  863MOL0     C18962   3.404   4.421   0.428  0.2530  0.7608 -0.8036
  863MOL0     C18963   3.497   4.425   0.323 -0.6615  0.5266 -0.2022
  863MOL0     O18964   3.626   4.389   0.330 -0.6050  0.1137 -0.0380
  863MOL0     C18965   3.706   4.380   0.453 -0.2298 -0.0843 -0.3515
  863MOL0     C18966   3.831   4.305   0.425 -0.8068  0.3888 -0.4381
  863MOL0     C18967   3.920   4.372   0.318 -0.1496 -0.2226  0.0156
  863MOL0     C18968   4.057   4.319   0.335 -1.2512 -0.3896 -0.7904
  863MOL0     C18969   4.169   4.403   0.261  0.9377  0.4001 -0.7431
  863MOL0     C18970   4.305   4.362   0.311  0.1781  0.1955  0.1278
  863MOL0     C18971   4.421   4.394   0.214  0.0437 -0.9590 -0.2042
  863MOL0     C18972   4.552   4.351   0.281 -0.2102 -0.7122 -0.3401
  863MOL0     N18973   4.660   4.328   0.179 -0.1168 -0.1461 -0.0601
  863MOL0     C18974   4.732   4.205   0.175  0.0578 -0.4100  0.0425
  863MOL0     C18975   4.830   4.215   0.091  0.4068 -0.0424 -0.5568
  863MOL0     C18976   4.949   4.130   0.065 -0.2164 -0.5579  0.1771
  863MOL0     C18977   5.061   4.187   0.163 -0.5313  0.6342 -0.6999
  863MOL0     C18978   5.138   4.072   0.230 -0.6961  0.0405  0.6695
  863MOL0     C18979   5.284   4.116   0.280 -0.6712  0.5863 -0.4352
  863MOL0     O18980   5.360   4.005   0.314 -0.2977 -0.5661 -0.0415
  863MOL0     C18981   5.485   4.017   0.361  0.3475 -0.4377  0.1394
  863MOL0     C18982   5.550   3.899   0.398 -0.2966 -0.4480 -0.9143
  863MOL0     C18983   5.691   3.902   0.445  0.1051  0.4448 -0.4919
  863MOL0     C18984   5.751   3.774   0.469 -0.1934  0.2789  0.7487
  863MOL0     C18985   5.766   4.022   0.444  0.2324  0.2001  0.2052
  863MOL0     C18986   5.899   4.034   0.497  0.7582  0.5977  0.6140
  863MOL0     O18987   5.926   4.157   0.555  0.0908  0.2114  0.2015
  863MOL0     C18988   6.041   4.158   0.636  0.1935  0.0725 -0.0760
  863MOL0     C18989   6.145   4.248   0.596  0.0551  1.4325 -0.5633
  863MOL0     C18990   6.260   4.265   0.676  0.1419 -0.3239 -0.3702
  863MOL0     C18991   6.277   4.179   0.783  0.7586  0.3228  0.4298
  863MOL0     O18992   6.387   4.201   0.859 -0.7414  0.0062 -0.0231
  863MOL0     C18993   6.364   4.216   1.000 -0.0382  0.2856 -0.0035
  863MOL0     C18994   6.490   4.241   1.078 -0.0772 -0.6400 -0.1827
  863MOL0     C18995   6.527   4.387   1.098 -0.1105 -0.0569 -0.7737
  863MOL0     C18996   6.623   4.400   1.220  0.6199 -0.0640  0.7697
  863MOL0     C18997   6.691   4.537   1.225 -0.2895 -0.3071  0.2354
  863MOL0     C18998   6.586   4.649   1.241  0.4713  0.5301 -0.2550
  863MOL0     C18999   6.633   4.793   1.237  0.2968  0.3387 -0.0696
  863MOL0     C19000   6.714   4.827   1.362 -0.3788 -0.6100  1.0536
  863MOL0    Cl19001   6.620   4.828   1.510  0.2467  0.1353 -0.0976
  863MOL0     C19002   6.180   4.080   0.816  0.5809 -0.8537  0.6792
  863MOL0     C19003   6.064   4.071   0.735  0.4874  0.4481 -0.1315
  863MOL0     O19004   5.980   3.939   0.482  0.1565 -0.6244  0.1434
  863MOL0     C19005   5.696   4.140   0.408 -1.0825 -0.3807 -0.0945
  863MOL0     C19006   5.557   4.132   0.366  0.4728 -0.7440 -1.0914
  863MOL0     N19007   4.808   4.341   0.038 -0.4740 -0.0379  0.1829
  863MOL0     N19008   4.708   4.401   0.084 -0.5894 -0.0016 -0.1510
  863MOL0     C19009   3.459   4.479   0.196 -0.2670 -0.4316 -0.1671
  863MOL0     C19010   3.325   4.514   0.181 -0.5236 -0.4122 -0.1359
  863MOL0     C19011   2.863   4.520   0.300 -0.4487 -0.0469 -0.4249
  863MOL0     C19012   2.758   4.437   0.282  0.7368  0.4273 -0.2181
  863MOL0     C19013   2.620   4.485   0.294  0.0095  0.9227  0.6473
  863MOL0     C19014   2.593   4.626   0.284 -0.3495  0.2983 -0.0255
  863MOL0     O19015   2.472   4.691   0.273  0.0529  0.3082 -0.5008
  863MOL0     C19016   2.353   4.607   0.300 -0.0923 -0.2512 -0.4487
  863MOL0     C19017   2.306   4.531   0.171  0.8898 -0.5381  0.0990
  863MOL0     C19018   2.216   4.413   0.212 -0.6795 -0.0427  0.1188
  863MOL0     C19019   2.114   4.392   0.102  0.5002 -0.1923  0.0283
  863MOL0     C19020   2.027   4.272   0.112 -0.4831  0.1271  0.3486
  863MOL0     C19021   1.956   4.177   0.148  1.4277  1.4578  0.7368
  863MOL0     C19022   2.705   4.706   0.291 -0.6321  0.4961  0.0870
  863MOL0     C19023   2.837   4.659   0.306 -0.0846 -0.8556 -0.2525
  863MOL0     C19024   2.946   4.754   0.329 -0.1103  0.2346 -0.2914
  863MOL0     H19025   3.201   4.445   0.490 -2.8376 -1.1084 -0.0865
  863MOL0     H19026   3.413   4.382   0.529 -0.2344  1.0722 -0.6340
  863MOL0     H19027   3.651   4.321   0.527 -1.7476 -2.6855 -3.2881
  863MOL0     H19028   3.716   4.481   0.493 -2.0439  0.2461 -0.6028
  863MOL0     H19029   3.878   4.306   0.524 -2.5286  0.1735  0.4092
  863MOL0     H19030   3.818   4.203   0.387  1.9716  0.7908 -2.9088
  863MOL0     H19031   3.880   4.343   0.221 -2.3707 -0.7723  1.0348
  863MOL0     H19032   3.905   4.479   0.332  0.7404 -0.0330 -0.4107
  863MOL0     H19033   4.073   4.317   0.443  0.7618  0.3365 -1.0278
  863MOL0     H19034   4.063   4.218   0.295  0.4337  0.1821 -2.1337
  863MOL0     H19035   4.156   4.509   0.284 -2.9115 -0.2259  0.5545
  863MOL0     H19036   4.162   4.390   0.153 -3.8284 -3.4911 -0.3083
  863MOL0     H19037   4.321   4.419   0.402  2.5537  0.5369 -0.4487
  863MOL0     H19038   4.301   4.254   0.330  0.3374  0.5282  2.2536
  863MOL0     H19039   4.441   4.500   0.192  4.0661 -1.2825  1.0049
  863MOL0     H19040   4.399   4.348   0.118  2.6492 -3.6767  0.3418
  863MOL0     H19041   4.596   4.430   0.343  1.4698 -1.0390 -1.0668
  863MOL0     H19042   4.531   4.263   0.342  2.2885 -0.1416  1.4667
  863MOL0     H19043   4.727   4.118   0.239  2.2941 -0.3380  0.3980
  863MOL0     H19044   4.979   4.138  -0.040 -1.4980 -0.6032 -0.2068
  863MOL0     H19045   4.921   4.026   0.087  1.1518 -1.2700 -1.2037
  863MOL0     H19046   5.124   4.245   0.095 -2.7744  2.4384 -1.3521
  863MOL0     H19047   5.023   4.256   0.238  1.2871  2.5189 -1.4233
  863MOL0     H19048   5.079   4.019   0.305  0.1064 -1.6784  0.1317
  863MOL0     H19049   5.152   3.994   0.155 -1.2930 -3.2670  3.7237
  863MOL0     H19050   5.334   4.172   0.200 -0.1923 -0.4452 -0.8678
  863MOL0     H19051   5.264   4.169   0.374 -1.9510 -3.5960  1.9242
  863MOL0     H19052   5.497   3.805   0.394 -0.9973 -0.0210 -2.9285
  863MOL0     H19053   5.675   3.695   0.467  1.5087 -1.4258 -1.2109
  863MOL0     H19054   5.802   3.770   0.566 -0.7224  1.5248  1.0973
  863MOL0     H19055   5.816   3.740   0.388 -1.2724 -3.5209  1.2591
  863MOL0     H19056   6.122   4.308   0.508 -0.1309  2.7155  0.3197
  863MOL0     H19057   6.334   4.344   0.674 -0.1232 -0.0336  0.7403
  863MOL0     H19058   6.294   4.296   1.026 -0.9372 -0.9236  1.4203
  863MOL0     H19059   6.331   4.116   1.028  1.7972 -0.6735 -1.0734
  863MOL0     H19060   6.475   4.187   1.172  0.2247 -1.4517 -0.5971
  863MOL0     H19061   6.572   4.188   1.029  2.2935  3.2985 -0.9038
  863MOL0     H19062   6.437   4.442   1.126  0.7684  0.2147  1.8089
  863MOL0     H19063   6.572   4.426   1.006  0.4963 -2.2000 -1.4424
  863MOL0     H19064   6.702   4.326   1.208  1.4194  0.7917  0.6348
  863MOL0     H19065   6.577   4.391   1.319  2.6164 -1.6722  1.6338
  863MOL0     H19066   6.773   4.544   1.297  1.7248  1.8824 -2.0639
  863MOL0     H19067   6.758   4.553   1.139 -0.5433  0.5617  0.1826
  863MOL0     H19068   6.534   4.627   1.335  1.0331  0.0915 -0.0448
  863MOL0     H19069   6.512   4.650   1.161 -2.9717  3.2292  2.5984
  863MOL0     H19070   6.551   4.864   1.226  1.3973  1.6011 -0.3896
  863MOL0     H19071   6.689   4.797   1.143  1.7309  2.0059  0.8009
  863MOL0     H19072   6.746   4.931   1.348 -0.8219 -0.6876 -0.8231
  863MOL0     H19073   6.809   4.774   1.375  0.2458 -0.0275 -0.7778
  863MOL0     H19074   6.199   4.001   0.888 -0.9252 -2.7778 -0.9295
  863MOL0     H19075   5.990   3.993   0.746  2.6806 -1.6831  0.4456
  863MOL0     H19076   5.742   4.238   0.418  0.0472 -0.9362  0.2277
  863MOL0     H19077   5.503   4.222   0.337 -0.4539 -0.0299  2.4218
  863MOL0     H19078   3.528   4.506   0.117 -0.4910  1.5436  0.2467
  863MOL0     H19079   3.283   4.567   0.097  1.7434  0.6957 -0.6294
  863MOL0     H19080   2.777   4.331   0.268  1.2700  0.5758 -0.6511
  863MOL0     H19081   2.543   4.408   0.293 -0.5098  1.4331  1.0001
  863MOL0     H19082   2.363   4.536   0.383 -2.9963 -1.8479 -1.3198
  863MOL0     H19083   2.273   4.676   0.327 -0.4200 -1.4030  1.6968
  863MOL0     H19084   2.396   4.489   0.126  0.3364 -0.4339 -1.1592
  863MOL0     H19085   2.261   4.602   0.100  0.9431 -1.5067 -0.9363
  863MOL0     H19086   2.280   4.326   0.230 -2.5999 -1.5059  0.2475
  863MOL0     H19087   2.159   4.439   0.301 -2.9971 -2.6008 -0.4713
  863MOL0     H19088   2.167   4.381   0.006 -1.8664 -0.1265 -1.3452
  863MOL0     H19089   2.049   4.478   0.086  0.2136  0.0657  2.3287
  863MOL0     H19090   1.901   4.090   0.176  1.7714  2.1326  3.9713
  863MOL0     H19091   2.678   4.811   0.294 -4.7406 -0.1322 -3.9611
  863MOL0     H19092   3.009   4.726   0.414 -1.3794 -0.7453  0.3594
  863MOL0     H19093   3.014   4.758   0.243  0.5049  0.1266  0.1789
  863MOL0     H19094   2.908   4.855   0.344 -0.6035  0.5787 -3.2485
  864MOL0     O19095   2.609   7.248   2.543  0.3165  0.2917 -0.7923
  864MOL0     C19096   2.649   7.352   2.495  0.4371 -0.3064 -1.6229
  864MOL0     O19097   2.565   7.453   2.469  0.3180 -0.9059  0.3726
  864MOL0     C19098   2.439   7.464   2.522 -0.3023  0.2262 -0.6576
  864MOL0     C19099   2.407   7.428   2.655 -0.7693  0.7728  0.6322
  864MOL0     C19100   2.277   7.434   2.705 -0.0175  0.2929 -0.1230
  864MOL0     C19101   2.173   7.468   2.625 -0.2667 -1.0940 -0.0492
  864MOL0     O19102   2.042   7.450   2.666  0.0814  0.3958  0.2951
  864MOL0     C19103   2.002   7.355   2.774 -0.7292  0.5006 -0.3189
  864MOL0     C19104   1.856   7.324   2.763  0.5171 -0.2652  0.3101
  864MOL0     C19105   1.767   7.448   2.744 -0.2173  0.4599  0.1107
  864MOL0     C19106   1.757   7.525   2.875  0.0857  0.7799 -0.2136
  864MOL0     C19107   1.634   7.624   2.868  0.4191  0.5668  0.1042
  864MOL0     C19108   1.640   7.723   2.984 -0.2175 -0.8455 -0.3294
  864MOL0     C19109   1.519   7.815   2.978 -0.2393  0.1538 -1.0716
  864MOL0     C19110   1.540   7.936   3.073 -0.1359 -0.2232  0.2057
  864MOL0     N19111   1.509   7.902   3.217  0.5968 -0.2314 -0.6882
  864MOL0     C19112   1.390   7.914   3.275  0.1534 -0.0029 -0.2857
  864MOL0     C19113   1.409   7.847   3.396 -0.8401  0.3130  0.6530
  864MOL0     C19114   1.289   7.807   3.471 -0.4857 -0.3667 -0.7805
  864MOL0     C19115   1.248   7.922   3.559  0.2432 -0.0743  0.4826
  864MOL0     C19116   1.121   7.883   3.641  1.2207 -0.8201  0.5177
  864MOL0     C19117   1.137   7.940   3.784 -0.5971  0.5774  0.4705
  864MOL0     O19118   1.092   8.080   3.791  0.2300  0.5449 -0.2690
  864MOL0     C19119   1.130   8.150   3.902  0.4542 -0.7932 -0.2922
  864MOL0     C19120   1.121   8.284   3.891  1.2362  0.0212  0.7608
  864MOL0     C19121   1.155   8.373   3.990  0.4373  0.0502 -0.5636
  864MOL0     C19122   1.136   8.525   3.970  0.5642  1.1556  1.0263
  864MOL0     C19123   1.193   8.321   4.114 -0.6345  0.0830  0.3554
  864MOL0     C19124   1.243   8.399   4.233 -1.2762 -1.0310 -0.8016
  864MOL0     O19125   1.229   8.338   4.356 -0.0206  0.8001 -0.8006
  864MOL0     C19126   1.283   8.394   4.467  0.4714 -0.4977 -0.5681
  864MOL0     C19127   1.291   8.304   4.571 -0.0082 -0.2824 -0.1763
  864MOL0     C19128   1.343   8.353   4.702 -0.4229 -0.5282  0.1292
  864MOL0     C19129   1.396   8.482   4.706  1.2074 -0.6804 -0.0028
  864MOL0     O19130   1.460   8.519   4.820 -0.5167  0.3241 -0.2233
  864MOL0     C19131   1.521   8.650   4.846  0.0253  0.0665  0.9134
  864MOL0     C19132   1.594   8.656   4.982  0.2523 -0.0672  0.1999
  864MOL0     C19133   1.642   8.802   5.013 -0.2392 -0.9605 -1.1327
  864MOL0     C19134   1.714   8.816   5.147 -0.2941 -0.1936 -0.3570
  864MOL0     C19135   1.770   8.955   5.181 -0.1146 -0.4960 -0.1274
  864MOL0     C19136   1.889   8.947   5.280 -0.0688  0.3457 -0.3859
  864MOL0     C19137   1.940   9.090   5.325  1.1847 -0.8867 -0.1077
  864MOL0     C19138   2.026   9.159   5.229  0.7953 -1.3091  0.5428
  864MOL0    Cl19139   1.915   9.233   5.110 -0.0265 -0.1302 -0.0443
  864MOL0     C19140   1.388   8.569   4.598 -0.0553 -0.7910  0.6007
  864MOL0     C19141   1.333   8.528   4.481  0.0374  0.0319 -0.3742
  864MOL0     O19142   1.310   8.502   4.208  0.6839  0.0752  0.1829
  864MOL0     C19143   1.204   8.185   4.131 -0.2581 -0.3692 -0.4246
  864MOL0     C19144   1.184   8.105   4.020  0.4079 -0.0163 -0.3102
  864MOL0     N19145   1.538   7.802   3.401 -0.3948 -0.5651 -0.0545
  864MOL0     N19146   1.598   7.839   3.290  0.0708  0.4107 -0.4288
  864MOL0     C19147   2.206   7.493   2.495 -0.6704  0.0139  0.0630
  864MOL0     C19148   2.336   7.495   2.437  0.0289 -0.8466 -0.6051
  864MOL0     C19149   2.800   7.368   2.481 -0.0680  0.1962  0.0380
  864MOL0     C19150   2.840   7.476   2.415 -0.4366 -0.5060 -0.6030
  864MOL0     C19151   2.978   7.519   2.410  0.8548  0.0945 -0.3491
  864MOL0     C19152   3.075   7.440   2.478  0.9472  0.1497  0.0632
  864MOL0     O19153   3.211   7.466   2.496 -0.3218  0.5462  0.8773
  864MOL0     C19154   3.281   7.570   2.436 -0.4257  0.0896 -0.1181
  864MOL0     C19155   3.426   7.551   2.483 -0.1334 -0.3101  0.5217
  864MOL0     C19156   3.498   7.455   2.397  0.9102 -0.5172 -0.8183
  864MOL0     C19157   3.637   7.432   2.453 -0.0341  0.4848  0.7082
  864MOL0     C19158   3.711   7.338   2.373  0.5443  0.1307 -0.8670
  864MOL0     C19159   3.775   7.268   2.300 -0.6621  1.1050  0.2852
  864MOL0     C19160   3.035   7.323   2.539  0.2160  0.8190 -0.8500
  864MOL0     C19161   2.896   7.288   2.540 -0.2686  0.0160 -0.2870
  864MOL0     C19162   2.864   7.167   2.615  0.2356  0.3989 -0.4413
  864MOL0     H19163   2.491   7.390   2.713  0.7304  1.5425 -0.9625
  864MOL0     H19164   2.263   7.405   2.808  1.0867  0.6839  0.1513
  864MOL0     H19165   2.030   7.398   2.870  1.3187  1.2634 -1.2089
  864MOL0     H19166   2.051   7.259   2.760  0.3554  0.6168  2.2855
  864MOL0     H19167   1.831   7.261   2.677  0.9632  0.9072 -0.7035
  864MOL0     H19168   1.830   7.275   2.858 -0.5347 -0.2895  0.0174
  864MOL0     H19169   1.804   7.522   2.673 -0.7212  1.2113  0.6121
  864MOL0     H19170   1.667   7.413   2.714 -0.0541 -2.4420  2.5299
  864MOL0     H19171   1.745   7.465   2.965 -1.8740 -1.3958 -1.7951
  864MOL0     H19172   1.845   7.590   2.878 -0.4156  1.6968 -2.4859
  864MOL0     H19173   1.540   7.568   2.877  1.2474 -0.6219  2.1024
  864MOL0     H19174   1.632   7.680   2.774 -0.5741 -0.9206 -0.8169
  864MOL0     H19175   1.659   7.671   3.078  0.3531 -1.8467 -0.9706
  864MOL0     H19176   1.728   7.784   2.961  0.2254 -1.6353 -0.8301
  864MOL0     H19177   1.426   7.765   3.004 -1.2043  2.2146 -0.3355
  864MOL0     H19178   1.501   7.861   2.881 -1.0376 -2.3813 -2.1907
  864MOL0     H19179   1.641   7.977   3.068 -0.4247  0.9734  2.7012
  864MOL0     H19180   1.466   8.007   3.036 -1.9721 -2.7280 -1.2078
  864MOL0     H19181   1.294   7.950   3.239 -1.7571 -2.9320  1.4741
  864MOL0     H19182   1.307   7.721   3.537 -2.2044 -0.3565 -0.2457
  864MOL0     H19183   1.211   7.781   3.399 -1.2316 -1.2551  0.3032
  864MOL0     H19184   1.334   7.941   3.624 -0.6212  0.3921  1.5162
  864MOL0     H19185   1.233   8.014   3.502 -0.9093  0.1421  1.1049
  864MOL0     H19186   1.028   7.916   3.594  1.8514 -3.3265 -2.8670
  864MOL0     H19187   1.118   7.776   3.658  1.6904 -0.6669  1.6656
  864MOL0     H19188   1.078   7.877   3.851 -3.2888  0.7410 -1.5642
  864MOL0     H19189   1.241   7.939   3.818 -0.8902  2.1697  1.5442
  864MOL0     H19190   1.070   8.315   3.800  1.1466 -5.2783 -1.3431
  864MOL0     H19191   1.059   8.564   4.037 -2.0872 -1.1258 -0.4968
  864MOL0     H19192   1.097   8.543   3.869 -1.0804 -2.5734  0.8165
  864MOL0     H19193   1.226   8.586   3.987  0.2053  1.4634  1.8904
  864MOL0     H19194   1.265   8.199   4.562  1.6947 -0.5689 -3.6935
  864MOL0     H19195   1.343   8.289   4.789 -3.7027 -0.1068  0.5761
  864MOL0     H19196   1.581   8.686   4.762 -1.2878  0.9101  0.3072
  864MOL0     H19197   1.438   8.721   4.857  1.0466  1.3133  0.8175
  864MOL0     H19198   1.519   8.635   5.059 -1.1382  1.7445 -0.5888
  864MOL0     H19199   1.677   8.585   4.990  0.9492  0.5570 -1.3082
  864MOL0     H19200   1.556   8.868   5.020 -0.4944 -1.4107  0.3942
  864MOL0     H19201   1.708   8.839   4.934 -0.8316 -1.6876 -1.9991
  864MOL0     H19202   1.793   8.742   5.129  0.1390 -0.1112  1.0619
  864MOL0     H19203   1.654   8.787   5.233 -1.0649  0.0438 -0.8097
  864MOL0     H19204   1.792   9.006   5.087 -0.9612 -1.9833 -1.1759
  864MOL0     H19205   1.691   9.017   5.223 -1.6049 -2.4918  0.1678
  864MOL0     H19206   1.983   8.913   5.234  2.3677  3.5062  1.8198
  864MOL0     H19207   1.861   8.883   5.364 -0.5768  2.3475  1.0280
  864MOL0     H19208   1.985   9.069   5.422 -1.3000  0.6863  1.4909
  864MOL0     H19209   1.862   9.159   5.355  0.7409 -2.3192  2.2991
  864MOL0     H19210   2.085   9.094   5.164 -1.2709 -2.2745 -0.4620
  864MOL0     H19211   2.077   9.243   5.277 -3.2755  1.8850 -0.1424
  864MOL0     H19212   1.433   8.667   4.605 -2.0146  0.1298  0.7932
  864MOL0     H19213   1.318   8.608   4.409 -2.4798 -0.4747 -0.5008
  864MOL0     H19214   1.227   8.137   4.226  0.1813 -0.6309 -0.6621
  864MOL0     H19215   1.211   8.002   4.041  1.0028 -0.1144 -1.5137
  864MOL0     H19216   2.118   7.498   2.433 -0.8373  2.1830  0.3975
  864MOL0     H19217   2.338   7.508   2.329 -1.6341 -0.8445 -0.6628
  864MOL0     H19218   2.765   7.539   2.368  0.3728  0.2050 -0.9831
  864MOL0     H19219   3.006   7.598   2.341 -0.6940  0.5351 -0.5053
  864MOL0     H19220   3.280   7.574   2.327  3.6699  2.3362 -0.2930
  864MOL0     H19221   3.237   7.661   2.478 -3.3035 -1.3862  0.2889
  864MOL0     H19222   3.434   7.514   2.585  4.1342  1.9697  1.2570
  864MOL0     H19223   3.487   7.641   2.485  4.4471 -3.1086  1.1558
  864MOL0     H19224   3.438   7.364   2.406  0.2477  0.0250  0.4777
  864MOL0     H19225   3.493   7.499   2.297  1.4259  0.3468 -0.4791
  864MOL0     H19226   3.619   7.387   2.552  1.6098  1.1948  1.3568
  864MOL0     H19227   3.688   7.528   2.466  3.8170 -1.4759  1.5769
  864MOL0     H19228   3.828   7.200   2.236 -1.0351  1.4369 -0.3816
  864MOL0     H19229   3.113   7.265   2.586  0.4275 -0.1826 -2.3701
  864MOL0     H19230   2.829   7.182   2.717  2.0378  0.7174  0.1566
  864MOL0     H19231   2.807   7.085   2.569  2.3326  0.1397 -2.8291
  864MOL0     H19232   2.960   7.117   2.632  0.1214 -0.3171 -1.7044
  865MOL0     O19233   7.256   2.671   8.438 -0.0914 -0.8019  0.2777
  865MOL0     C19234   7.211   2.578   8.380 -0.6754 -0.7106 -0.3564
  865MOL0     O19235   7.165   2.464   8.426  0.4107  0.0956 -0.0901
  865MOL0     C19236   7.231   2.410   8.532  0.1889  0.3303 -0.7142
  865MOL0     C19237   7.374   2.391   8.520  0.2146 -0.1657 -0.0431
  865MOL0     C19238   7.454   2.335   8.621  1.2675  0.0906  0.2622
  865MOL0     C19239   7.389   2.298   8.747 -0.1145  0.2607  0.2355
  865MOL0     O19240   7.467   2.258   8.856 -0.4033 -0.8022 -0.1243
  865MOL0     C19241   7.415   2.179   8.959  0.1644  0.2778  0.2801
  865MOL0     C19242   7.380   2.253   9.084  0.5254  0.4881  0.8101
  865MOL0     C19243   7.284   2.171   9.166  0.4492 -0.5486 -0.0962
  865MOL0     C19244   7.286   2.240   9.306  0.1796 -0.6320 -0.4196
  865MOL0     C19245   7.188   2.159   9.395  1.1090 -0.4812  0.7610
  865MOL0     C19246   7.156   2.213   9.539 -0.7646  0.1599  0.9106
  865MOL0     C19247   7.273   2.260   9.609 -0.1606  0.1724 -0.2065
  865MOL0     C19248   7.245   2.306   9.756 -0.5627  0.0765 -1.3040
  865MOL0     N19249   7.146   2.222   9.822 -0.6573 -0.2352 -0.8921
  865MOL0     C19250   7.026   2.255   9.882 -0.0979 -0.6406  0.9800
  865MOL0     C19251   6.988   2.152   9.961 -0.1026  1.0023 -0.0272
  865MOL0     C19252   6.864   2.139  10.053  0.3133  0.1148  0.2189
  865MOL0     C19253   6.832   1.990  10.078  0.1289  0.6719  0.4875
  865MOL0     C19254   6.729   1.988  10.189  0.2077  0.1448  0.3516
  865MOL0     C19255   6.781   2.029  10.321  1.0773 -0.7100  0.2968
  865MOL0     O19256   6.671   2.006  10.414  0.2512  0.6275  0.4600
  865MOL0     C19257   6.654   2.095  10.514  0.1196  0.1993  0.3696
  865MOL0     C19258   6.537   2.094  10.596 -0.5331 -0.3179  1.1026
  865MOL0     C19259   6.517   2.171  10.710 -0.7644  1.1205 -0.2099
  865MOL0     C19260   6.381   2.177  10.777 -0.1025 -0.3721 -0.1010
  865MOL0     C19261   6.624   2.254  10.749 -0.0836 -0.6356 -0.0719
  865MOL0     C19262   6.616   2.364  10.853 -0.3292  0.0023 -0.0795
  865MOL0     O19263   6.744   2.423  10.892  0.0023  0.5403 -0.1657
  865MOL0     C19264   6.752   2.529  10.975 -0.5466  0.0129 -0.4352
  865MOL0     C19265   6.841   2.517  11.078 -0.1835 -0.0923  0.5529
  865MOL0     C19266   6.853   2.612  11.173  0.1685  1.2951 -0.0402
  865MOL0     C19267   6.759   2.721  11.176 -0.0547  0.4520 -0.4702
  865MOL0     O19268   6.753   2.803  11.282 -0.5094 -0.0992  0.1203
  865MOL0     C19269   6.865   2.832  11.370  0.7211  0.7094  0.1429
  865MOL0     C19270   6.809   2.919  11.477  0.1879 -1.1151 -0.1149
  865MOL0     C19271   6.912   3.030  11.511 -0.0356  0.5830  0.7985
  865MOL0     C19272   6.872   3.089  11.651 -1.2227 -0.2825 -0.3861
  865MOL0     C19273   6.994   3.163  11.704 -1.1120  0.0554 -0.2607
  865MOL0     C19274   6.970   3.225  11.842  0.7213 -0.0092  0.7211
  865MOL0     C19275   7.084   3.326  11.884  0.5166 -0.3613  0.5456
  865MOL0     C19276   7.218   3.266  11.901 -0.7076  0.1791  0.1836
  865MOL0    Cl19277   7.339   3.388  11.965 -0.1472 -0.2868  0.0370
  865MOL0     C19278   6.681   2.734  11.062 -0.4833 -0.5446 -0.7349
  865MOL0     C19279   6.670   2.641  10.963  0.3690 -0.4773  0.5007
  865MOL0     O19280   6.508   2.403  10.896 -0.0796  0.2857  0.3888
  865MOL0     C19281   6.743   2.254  10.682  0.5013 -0.3659  0.4496
  865MOL0     C19282   6.758   2.180  10.568 -0.0080 -0.4954  0.2099
  865MOL0     N19283   7.093   2.055   9.946  0.8837 -0.5142 -0.2702
  865MOL0     N19284   7.184   2.098   9.865 -0.7397  0.6460 -0.3522
  865MOL0     C19285   7.247   2.326   8.763  0.6309 -0.4307  0.1525
  865MOL0     C19286   7.171   2.381   8.651  0.1588 -0.1773  0.0409
  865MOL0     C19287   7.219   2.588   8.236 -0.5447  0.0216 -1.2402
  865MOL0     C19288   7.264   2.708   8.175 -0.1279 -0.5426 -0.7583
  865MOL0     C19289   7.270   2.736   8.044  0.2085  0.1854  0.6261
  865MOL0     C19290   7.230   2.634   7.957 -0.4809 -0.5639  0.0066
  865MOL0     O19291   7.236   2.652   7.823 -0.7946 -0.6541  0.1078
  865MOL0     C19292   7.132   2.737   7.768 -0.3449 -0.0539  0.2575
  865MOL0     C19293   7.009   2.657   7.740  0.2470 -0.3011  0.8006
  865MOL0     C19294   6.908   2.750   7.674 -0.1350 -0.5894 -0.1744
  865MOL0     C19295   6.792   2.667   7.626 -0.0708  0.4714  0.1694
  865MOL0     C19296   6.708   2.732   7.526  0.0895 -0.5695  0.2227
  865MOL0     C19297   6.623   2.772   7.449 -0.8138  0.4006 -0.5451
  865MOL0     C19298   7.184   2.516   8.015 -0.1273 -0.3705  0.4519
  865MOL0     C19299   7.174   2.486   8.147 -0.9552  0.0865 -0.5754
  865MOL0     C19300   7.138   2.338   8.183  0.7444 -0.1440 -0.4400
  865MOL0     H19301   7.417   2.424   8.426  0.2436 -0.2999 -0.0785
  865MOL0     H19302   7.558   2.307   8.606  1.0516 -0.8819  0.4693
  865MOL0     H19303   7.471   2.087   8.975 -2.6505 -2.4885 -3.8641
  865MOL0     H19304   7.313   2.153   8.929  1.1676 -0.3279 -3.0022
  865MOL0     H19305   7.470   2.293   9.132  0.6691  1.7926 -0.4857
  865MOL0     H19306   7.336   2.343   9.041  0.0416 -0.9838 -2.0280
  865MOL0     H19307   7.182   2.169   9.126  1.1024  0.6031 -1.9305
  865MOL0     H19308   7.316   2.067   9.176  3.4927  0.2008 -1.0531
  865MOL0     H19309   7.384   2.242   9.354  0.7958  2.6798 -1.5333
  865MOL0     H19310   7.245   2.342   9.307 -0.7916 -0.7276  5.3687
  865MOL0     H19311   7.231   2.060   9.411  2.4498  0.1830  1.4033
  865MOL0     H19312   7.091   2.161   9.344  1.6405  0.1649 -0.2565
  865MOL0     H19313   7.085   2.295   9.526  0.1208  0.7246 -0.7830
  865MOL0     H19314   7.099   2.139   9.595  2.1905 -3.5672 -0.5923
  865MOL0     H19315   7.319   2.348   9.563  1.7302 -0.9209 -0.5230
  865MOL0     H19316   7.336   2.172   9.591 -2.3217 -1.3376 -0.7486
  865MOL0     H19317   7.337   2.305   9.814 -2.2098  1.8109  1.5387
  865MOL0     H19318   7.200   2.406   9.756  1.3068  1.0166  1.2248
  865MOL0     H19319   6.962   2.340   9.861  0.0527 -0.6343  0.5548
  865MOL0     H19320   6.775   2.191  10.019 -1.1675 -2.4401 -0.0691
  865MOL0     H19321   6.899   2.200  10.137 -2.5898  0.5874  1.1800
  865MOL0     H19322   6.794   1.931   9.995  2.5979  2.8193 -2.4009
  865MOL0     H19323   6.924   1.942  10.115 -0.6735  0.1905  1.9625
  865MOL0     H19324   6.645   2.054  10.166 -0.0184  0.2817  1.5534
  865MOL0     H19325   6.690   1.886  10.202 -3.1523  0.9905 -1.7122
  865MOL0     H19326   6.864   1.968  10.357  1.2858 -1.5193 -1.4143
  865MOL0     H19327   6.809   2.134  10.313  0.0547 -0.5055 -0.9224
  865MOL0     H19328   6.451   2.031  10.578 -0.4128 -0.3161  0.4869
  865MOL0     H19329   6.316   2.092  10.753 -1.5552  0.6730 -0.0594
  865MOL0     H19330   6.329   2.268  10.744 -1.1512 -1.2605 -0.9751
  865MOL0     H19331   6.398   2.180  10.885  0.3916  1.7780 -0.1893
  865MOL0     H19332   6.904   2.429  11.078  2.4888  1.6511 -1.3940
  865MOL0     H19333   6.920   2.587  11.254  2.5682 -3.4626 -3.0670
  865MOL0     H19334   6.900   2.746  11.427 -1.5627 -0.0998  0.4198
  865MOL0     H19335   6.938   2.888  11.311 -0.6147  1.7406 -0.5947
  865MOL0     H19336   6.716   2.971  11.454 -0.2414  0.3501  4.0597
  865MOL0     H19337   6.786   2.857  11.564 -1.2476 -0.9065 -0.3147
  865MOL0     H19338   6.909   3.115  11.442  0.9431  2.4219  2.8875
  865MOL0     H19339   7.017   2.998  11.501 -0.3603  0.0761 -1.3532
  865MOL0     H19340   6.842   3.008  11.719 -2.2867 -0.6267 -1.2351
  865MOL0     H19341   6.780   3.148  11.646 -0.9692  0.1482 -0.0467
  865MOL0     H19342   7.082   3.098  11.705 -1.2612 -0.1396  0.2763
  865MOL0     H19343   7.008   3.249  11.638 -1.1509  0.2469 -0.0200
  865MOL0     H19344   6.952   3.159  11.927  1.3178  1.1335  1.7774
  865MOL0     H19345   6.874   3.278  11.835  0.6429  0.0771  2.1401
  865MOL0     H19346   7.068   3.370  11.983  0.3798  2.4043 -0.6256
  865MOL0     H19347   7.084   3.407  11.811 -1.0727 -0.2904  0.6040
  865MOL0     H19348   7.246   3.225  11.803 -3.8156 -0.8409 -0.3729
  865MOL0     H19349   7.213   3.185  11.973  0.7249 -0.1670 -0.0761
  865MOL0     H19350   6.614   2.820  11.060  1.0607  0.6931 -1.0338
  865MOL0     H19351   6.609   2.649  10.874  0.2339  1.2012  0.7131
  865MOL0     H19352   6.826   2.315  10.717 -1.0907  2.1782  0.1241
  865MOL0     H19353   6.856   2.186  10.521 -0.8043 -1.8606 -1.7388
  865MOL0     H19354   7.188   2.327   8.855 -1.0943  1.9175 -0.8765
  865MOL0     H19355   7.064   2.388   8.670 -0.4610 -0.6023 -2.8503
  865MOL0     H19356   7.290   2.795   8.235 -2.7052 -0.6105  0.5830
  865MOL0     H19357   7.302   2.828   7.996 -2.3124  0.8651  0.1054
  865MOL0     H19358   7.117   2.818   7.840 -1.6492 -0.2310  0.1974
  865MOL0     H19359   7.163   2.780   7.673 -0.6219 -0.3762  0.0220
  865MOL0     H19360   6.969   2.627   7.837 -0.1857  0.3140  0.8182
  865MOL0     H19361   7.041   2.574   7.676  0.9317  1.0110 -0.6461
  865MOL0     H19362   6.878   2.827   7.745 -0.4825 -1.2123  0.3607
  865MOL0     H19363   6.961   2.801   7.593 -1.2952 -2.2418 -2.0609
  865MOL0     H19364   6.741   2.638   7.718  0.8153 -1.0415  0.2122
  865MOL0     H19365   6.813   2.571   7.577 -2.1591 -0.4859  1.0168
  865MOL0     H19366   6.542   2.816   7.395  0.0899  1.1961 -1.2823
  865MOL0     H19367   7.165   2.440   7.940 -2.0212  2.6996 -2.4864
  865MOL0     H19368   7.224   2.275   8.208  0.8166 -0.2187 -0.8613
  865MOL0     H19369   7.073   2.334   8.271 -0.2229  2.3042 -0.9510
  865MOL0     H19370   7.086   2.286   8.102  0.9210  0.6726 -1.0966
  866MOL0     O19371   5.484   4.013   2.439  0.4380 -1.1560  0.0151
  866MOL0     C19372   5.455   3.945   2.347 -0.4703  0.4256  0.5912
  866MOL0     O19373   5.332   3.917   2.303  0.4998 -0.5963  0.4311
  866MOL0     C19374   5.227   4.004   2.335 -0.3391 -0.2154  0.5066
  866MOL0     C19375   5.188   4.026   2.468  0.3185  0.6378 -0.4190
  866MOL0     C19376   5.074   4.107   2.485  0.2574  0.0688 -0.1275
  866MOL0     C19377   5.008   4.174   2.381  0.1737  0.2811  0.8522
  866MOL0     O19378   4.904   4.249   2.422  0.5921  0.1414 -0.5024
  866MOL0     C19379   4.888   4.379   2.357 -0.2087 -0.0405 -0.2835
  866MOL0     C19380   4.776   4.461   2.413  0.0905 -0.2175  0.3908
  866MOL0     C19381   4.649   4.385   2.435  0.1436 -0.5566  0.2741
  866MOL0     C19382   4.590   4.335   2.301  1.2024 -0.5632  0.4792
  866MOL0     C19383   4.447   4.276   2.331 -0.9246  0.1631  0.6468
  866MOL0     C19384   4.335   4.383   2.350  0.0658 -0.1445  0.1347
  866MOL0     C19385   4.212   4.312   2.388  0.8165 -0.0726  0.2744
  866MOL0     C19386   4.096   4.407   2.412  0.2350 -0.3514 -0.6735
  866MOL0     N19387   3.982   4.334   2.459  0.3595 -0.1087 -0.1223
  866MOL0     C19388   3.898   4.254   2.388 -0.0584 -0.3712 -0.3923
  866MOL0     C19389   3.792   4.226   2.465  0.2793  0.5218 -1.6172
  866MOL0     C19390   3.679   4.127   2.437  0.1154 -0.4089  0.5670
  866MOL0     C19391   3.557   4.210   2.380  1.0833 -0.2601  0.9193
  866MOL0     C19392   3.489   4.296   2.487  0.8573 -0.2095 -0.1308
  866MOL0     C19393   3.451   4.222   2.618 -0.6152  0.0005  0.0521
  866MOL0     O19394   3.381   4.302   2.718  0.1450  0.4491  0.1556
  866MOL0     C19395   3.246   4.277   2.735  0.3095 -0.0909  0.1927
  866MOL0     C19396   3.165   4.198   2.654  1.0849  0.0870 -0.0100
  866MOL0     C19397   3.025   4.174   2.673 -0.0986 -0.6569 -0.0022
  866MOL0     C19398   2.957   4.064   2.592  0.0070  0.2656 -0.2110
  866MOL0     C19399   2.963   4.239   2.782 -0.2169 -0.3796 -0.0705
  866MOL0     C19400   2.829   4.215   2.826 -0.6334 -0.3145  0.1137
  866MOL0     O19401   2.814   4.254   2.956  0.5511  0.2171  0.5701
  866MOL0     C19402   2.699   4.224   3.018  0.2510  0.9654  1.0591
  866MOL0     C19403   2.708   4.163   3.145  1.2450 -0.6479  0.2388
  866MOL0     C19404   2.592   4.114   3.216 -0.4993  0.1018  0.0606
  866MOL0     C19405   2.468   4.127   3.153  0.8528  0.1051 -0.6826
  866MOL0     O19406   2.343   4.095   3.209  0.1580  0.0212  0.1426
  866MOL0     C19407   2.319   3.959   3.245  0.1006 -0.2221 -0.1629
  866MOL0     C19408   2.361   3.943   3.390  0.5011 -0.9474  0.4892
  866MOL0     C19409   2.299   3.823   3.459  0.2276  0.6284 -0.3620
  866MOL0     C19410   2.373   3.693   3.428 -0.7258 -0.7173  0.3445
  866MOL0     C19411   2.296   3.564   3.452 -0.5203  0.3038 -0.1207
  866MOL0     C19412   2.277   3.525   3.599  0.4045  0.0365 -0.0151
  866MOL0     C19413   2.198   3.397   3.616 -1.4638 -0.4128  0.7599
  866MOL0     C19414   2.165   3.364   3.754  0.0411 -0.4643  0.0396
  866MOL0    Cl19415   2.306   3.309   3.854 -0.4661 -0.0306  0.0844
  866MOL0     C19416   2.452   4.194   3.035  0.7846 -0.0962  0.1801
  866MOL0     C19417   2.568   4.238   2.965 -0.4453  0.2397  0.1192
  866MOL0     O19418   2.747   4.171   2.756  0.4219 -0.5338  0.1841
  866MOL0     C19419   3.046   4.325   2.856 -0.2424 -0.4220 -0.3583
  866MOL0     C19420   3.177   4.333   2.836 -0.3560  0.8287  0.2563
  866MOL0     N19421   3.818   4.278   2.593  0.3109 -0.0736  0.3135
  866MOL0     N19422   3.927   4.347   2.580  0.0319  0.1910  0.5228
  866MOL0     C19423   5.040   4.149   2.244 -0.6176  0.4496 -0.4716
  866MOL0     C19424   5.150   4.065   2.229  0.4624 -0.1795 -0.3412
  866MOL0     C19425   5.581   3.903   2.271 -0.0644  0.3461 -0.0159
  866MOL0     C19426   5.715   3.942   2.316 -0.1848 -0.2301 -0.2212
  866MOL0     C19427   5.836   3.899   2.270 -0.5249 -0.2066 -0.3777
  866MOL0     C19428   5.832   3.808   2.166 -0.4680 -0.0602 -0.1766
  866MOL0     O19429   5.933   3.757   2.089  0.4441 -0.2824 -0.2368
  866MOL0     C19430   6.041   3.847   2.066 -0.7439 -0.4491 -0.2500
  866MOL0     C19431   6.143   3.788   1.972 -0.7243 -0.4036 -0.7496
  866MOL0     C19432   6.250   3.893   1.927 -0.8226 -0.9251  0.0846
  866MOL0     C19433   6.196   4.014   1.848  0.4557 -0.3161  0.7053
  866MOL0     C19434   6.114   3.973   1.734 -1.2099  0.5908  0.2254
  866MOL0     C19435   6.049   3.931   1.639  0.2957  0.0151 -0.2103
  866MOL0     C19436   5.707   3.777   2.109  0.3413  0.1248  0.3785
  866MOL0     C19437   5.579   3.813   2.160  0.0897 -0.0915  0.2548
  866MOL0     C19438   5.443   3.779   2.094  0.1389  0.4010 -0.3839
  866MOL0     H19439   5.234   3.979   2.555  0.3943 -0.5232 -1.0709
  866MOL0     H19440   5.049   4.118   2.590  0.1851 -4.3054  0.4870
  866MOL0     H19441   4.870   4.358   2.251  0.7685  0.4887 -0.5664
  866MOL0     H19442   4.982   4.434   2.368  0.3282 -1.2840  1.7222
  866MOL0     H19443   4.797   4.507   2.510 -0.9738  2.1069 -0.4050
  866MOL0     H19444   4.767   4.545   2.344 -3.4529 -0.1662  0.7640
  866MOL0     H19445   4.673   4.304   2.505 -0.2676  1.2062  2.5788
  866MOL0     H19446   4.582   4.446   2.496  0.7737 -1.2430  1.6930
  866MOL0     H19447   4.578   4.417   2.229  1.5053 -0.1757  0.8613
  866MOL0     H19448   4.661   4.263   2.261  1.8243  1.0864 -1.5788
  866MOL0     H19449   4.446   4.205   2.413  0.7028 -0.5831  0.0628
  866MOL0     H19450   4.419   4.209   2.249  0.0704 -2.0827  2.0713
  866MOL0     H19451   4.359   4.442   2.439 -0.3561  0.2352 -0.0031
  866MOL0     H19452   4.315   4.437   2.257  0.3702 -1.7210 -0.8936
  866MOL0     H19453   4.232   4.243   2.471  1.0965  1.9411  1.9544
  866MOL0     H19454   4.189   4.254   2.298  0.4490 -2.0234  1.5560
  866MOL0     H19455   4.105   4.484   2.490  0.1337 -2.6856  1.8028
  866MOL0     H19456   4.073   4.463   2.321  2.6384  0.3810 -0.9078
  866MOL0     H19457   3.922   4.225   2.286  0.3351 -0.1403 -0.3669
  866MOL0     H19458   3.653   4.065   2.522 -1.8288 -2.6345 -1.5084
  866MOL0     H19459   3.704   4.055   2.359 -0.8960 -1.6699  1.3813
  866MOL0     H19460   3.581   4.261   2.285 -1.2886 -1.0255 -0.1712
  866MOL0     H19461   3.490   4.130   2.347  1.1278  0.1561 -0.2427
  866MOL0     H19462   3.551   4.379   2.522  3.2882 -2.4045  1.0895
  866MOL0     H19463   3.400   4.344   2.445 -0.5619 -0.8997  1.9218
  866MOL0     H19464   3.406   4.123   2.601 -2.1454  0.9620 -1.8922
  866MOL0     H19465   3.546   4.193   2.663  0.9698  3.3484 -0.7950
  866MOL0     H19466   3.207   4.142   2.571 -3.0972 -4.4654  0.4335
  866MOL0     H19467   2.913   3.989   2.659 -0.2476 -0.0422 -0.7214
  866MOL0     H19468   3.029   4.015   2.526  0.3191  0.4832 -0.0365
  866MOL0     H19469   2.878   4.107   2.531 -0.7524 -1.4751 -0.5161
  866MOL0     H19470   2.801   4.147   3.200  2.4424  0.7165 -1.2938
  866MOL0     H19471   2.590   4.086   3.321 -0.9189  0.2991  0.1086
  866MOL0     H19472   2.216   3.927   3.225  1.1267 -3.4013 -0.9556
  866MOL0     H19473   2.383   3.892   3.187  0.1077 -1.7734  1.5575
  866MOL0     H19474   2.469   3.942   3.406  0.1424  1.9250  4.3075
  866MOL0     H19475   2.310   4.026   3.438  0.7535 -0.2323 -0.4504
  866MOL0     H19476   2.196   3.824   3.421  0.0426  3.9151 -0.0402
  866MOL0     H19477   2.298   3.839   3.567 -0.1865  1.6559 -0.5121
  866MOL0     H19478   2.472   3.681   3.474 -0.2957 -1.2296 -0.6961
  866MOL0     H19479   2.393   3.708   3.322 -0.5445  0.5948  0.5453
  866MOL0     H19480   2.198   3.566   3.403 -0.2774  0.9297 -0.5927
  866MOL0     H19481   2.348   3.484   3.399 -1.1350  1.2315 -2.2485
  866MOL0     H19482   2.227   3.603   3.657  0.4947  1.6906 -2.0676
  866MOL0     H19483   2.373   3.508   3.648 -0.4093 -2.7075  0.8310
  866MOL0     H19484   2.250   3.312   3.570  0.5524  0.7912  0.6854
  866MOL0     H19485   2.106   3.404   3.558 -0.6246 -1.1040 -0.7243
  866MOL0     H19486   2.084   3.290   3.764 -0.1653 -0.1800  0.5267
  866MOL0     H19487   2.112   3.447   3.802 -1.7230 -3.1006  3.1096
  866MOL0     H19488   2.353   4.206   2.993  1.1617 -1.5543 -1.2350
  866MOL0     H19489   2.551   4.295   2.874 -1.7273 -1.3352 -0.6824
  866MOL0     H19490   2.995   4.377   2.936  0.9739  2.4034 -1.3020
  866MOL0     H19491   3.235   4.380   2.914  0.1856 -2.2857  1.8966
  866MOL0     H19492   4.984   4.196   2.164 -3.5473 -1.3097  0.3976
  866MOL0     H19493   5.163   4.040   2.124 -2.0945 -1.9500 -0.3199
  866MOL0     H19494   5.722   4.002   2.406 -2.0377 -2.3532  1.4236
  866MOL0     H19495   5.926   3.934   2.319  0.3937 -0.7280 -1.6229
  866MOL0     H19496   5.998   3.942   2.034  2.1079  1.3120  0.7343
  866MOL0     H19497   6.092   3.872   2.160  0.2619 -0.2841 -0.8248
  866MOL0     H19498   6.094   3.767   1.876 -0.3115  0.4671 -1.1637
  866MOL0     H19499   6.193   3.696   2.004 -0.0436 -0.3809 -1.6844
  866MOL0     H19500   6.309   3.940   2.006  0.5513 -0.8712 -0.9533
  866MOL0     H19501   6.327   3.841   1.869  0.9280  1.2261  0.3651
  866MOL0     H19502   6.284   4.066   1.809 -0.6676  0.6638 -0.6335
  866MOL0     H19503   6.140   4.081   1.914  1.7985 -1.3230  2.9870
  866MOL0     H19504   5.996   3.893   1.554 -0.0631 -0.8556  0.3918
  866MOL0     H19505   5.691   3.725   2.015 -3.4240  1.2567  0.1891
  866MOL0     H19506   5.454   3.709   2.010 -0.2093  0.4909 -0.5056
  866MOL0     H19507   5.376   3.729   2.165 -0.2434  0.5625 -0.6310
  866MOL0     H19508   5.399   3.867   2.046 -0.4367  0.1022 -0.4122
  867MOL0     O19509   5.159   9.147   7.519  0.6509  0.3762 -0.1067
  867MOL0     C19510   5.107   9.239   7.580 -0.3660 -0.7149  0.6130
  867MOL0     O19511   5.007   9.232   7.666 -0.0095 -0.1107  1.0125
  867MOL0     C19512   4.976   9.111   7.717 -0.3658 -0.4210 -0.0872
  867MOL0     C19513   5.066   9.046   7.797 -0.4576  0.4329 -0.7988
  867MOL0     C19514   5.041   8.923   7.854 -0.0473  0.4710  0.5109
  867MOL0     C19515   4.901   8.882   7.843  0.6455 -0.2657 -1.0913
  867MOL0     O19516   4.842   8.773   7.908  0.7537  0.0660 -0.4453
  867MOL0     C19517   4.933   8.680   7.962 -0.0637 -0.5946  0.3988
  867MOL0     C19518   4.862   8.549   7.993  0.5197 -0.3040 -0.0266
  867MOL0     C19519   4.761   8.576   8.102  0.1969  0.0854 -0.1356
  867MOL0     C19520   4.700   8.451   8.165 -1.2230 -0.2625  0.1075
  867MOL0     C19521   4.573   8.503   8.244 -0.2810  1.0627  0.0964
  867MOL0     C19522   4.507   8.390   8.322 -0.0090 -0.0509 -0.2896
  867MOL0     C19523   4.493   8.256   8.233 -0.7241  0.7844 -1.6272
  867MOL0     C19524   4.413   8.268   8.104 -0.0275 -0.1784  0.5451
  867MOL0     N19525   4.273   8.267   8.123 -0.2490 -0.1363  0.0108
  867MOL0     C19526   4.185   8.347   8.045 -0.0472  0.2476 -1.0541
  867MOL0     C19527   4.069   8.279   8.061  0.3551 -0.7124 -0.3869
  867MOL0     C19528   3.947   8.326   7.990 -0.8992  0.0419 -0.3728
  867MOL0     C19529   3.926   8.268   7.847 -0.5874 -1.1731  0.3533
  867MOL0     C19530   3.920   8.116   7.847  0.3374  0.2755 -0.2802
  867MOL0     C19531   3.891   8.038   7.715  0.3645 -0.5539  0.2651
  867MOL0     O19532   3.969   8.103   7.613 -0.1365  0.2320 -0.3716
  867MOL0     C19533   3.958   8.067   7.484  0.1735 -0.6660  0.2661
  867MOL0     C19534   3.854   7.991   7.432  0.3793  0.0422 -1.0115
  867MOL0     C19535   3.851   7.951   7.302 -0.5708  0.8338  0.2525
  867MOL0     C19536   3.734   7.852   7.254 -0.3434 -0.4238  0.1593
  867MOL0     C19537   3.952   7.993   7.213 -0.0301 -1.6032  0.6408
  867MOL0     C19538   3.954   7.966   7.065  0.3488 -1.0679  0.9181
  867MOL0     O19539   4.070   7.993   6.991  0.0598 -0.7228  0.4481
  867MOL0     C19540   4.067   7.982   6.853  0.2077 -0.7477 -0.2121
  867MOL0     C19541   4.064   7.857   6.791 -0.5841 -0.9149 -0.4459
  867MOL0     C19542   4.063   7.859   6.642  0.2920 -0.1765  0.4457
  867MOL0     C19543   4.058   7.982   6.572 -0.2812 -0.3841 -1.4603
  867MOL0     O19544   4.046   7.979   6.442  0.3739  0.2587  0.7031
  867MOL0     C19545   3.912   8.020   6.415 -0.0573 -0.0987  0.6310
  867MOL0     C19546   3.926   8.086   6.277  0.0304  1.2110  1.0195
  867MOL0     C19547   3.901   8.233   6.294  0.5573  1.2840 -0.0687
  867MOL0     C19548   3.889   8.309   6.146  0.3818 -0.1630 -1.2008
  867MOL0     C19549   3.871   8.461   6.163  0.2122  0.8932 -0.0418
  867MOL0     C19550   3.733   8.500   6.203 -0.4418  0.6619 -0.0686
  867MOL0     C19551   3.620   8.428   6.123  0.2176 -0.4106  0.8939
  867MOL0     C19552   3.490   8.513   6.125 -0.7510 -0.2934  0.1385
  867MOL0    Cl19553   3.410   8.499   6.289  0.2664  0.2834  0.1497
  867MOL0     C19554   4.070   8.106   6.643 -0.5698 -0.2224  0.6058
  867MOL0     C19555   4.073   8.105   6.776 -0.5968 -0.2976 -0.1976
  867MOL0     O19556   3.845   7.927   7.011  0.0123  0.3485  0.2287
  867MOL0     C19557   4.055   8.077   7.264 -0.1882  0.2568  0.1946
  867MOL0     C19558   4.059   8.112   7.397  0.3918 -0.2286  0.2859
  867MOL0     N19559   4.081   8.166   8.140  0.2286  0.7199  0.4858
  867MOL0     N19560   4.200   8.167   8.181  0.0613 -0.4927 -0.2324
  867MOL0     C19561   4.812   8.953   7.760  0.5072  0.2852 -0.3504
  867MOL0     C19562   4.844   9.065   7.696 -0.9412 -0.5200  0.0790
  867MOL0     C19563   5.156   9.373   7.546  0.0024  0.7184 -1.2109
  867MOL0     C19564   5.119   9.478   7.632  0.0153 -0.0265  0.4521
  867MOL0     C19565   5.175   9.604   7.628 -1.5767 -0.9497 -0.5105
  867MOL0     C19566   5.270   9.638   7.540  0.7726 -0.4340  0.5682
  867MOL0     O19567   5.319   9.775   7.532 -0.0875 -0.1938  0.4502
  867MOL0     C19568   5.443   9.800   7.464 -0.3685  0.2766  0.3061
  867MOL0     C19569   5.464   9.955   7.455  0.3355  0.3055 -0.2491
  867MOL0     C19570   5.574  10.002   7.358  0.0982 -0.2934 -0.1374
  867MOL0     C19571   5.567  10.155   7.317  0.1812  0.1702  0.4558
  867MOL0     C19572   5.642  10.181   7.198  0.8320 -0.2464  0.0280
  867MOL0     C19573   5.697  10.194   7.097 -1.3474 -0.0081 -0.1433
  867MOL0     C19574   5.312   9.533   7.448 -0.3307  0.3550 -0.1438
  867MOL0     C19575   5.263   9.396   7.454 -1.3446  0.1601 -0.8632
  867MOL0     C19576   5.352   9.295   7.372 -0.6403  0.9675  0.5575
  867MOL0     H19577   5.163   9.088   7.821 -0.1187 -1.7608  2.3030
  867MOL0     H19578   5.110   8.859   7.908 -2.1844 -0.5362  2.2052
  867MOL0     H19579   4.970   8.724   8.055 -1.6983  2.8613 -0.4380
  867MOL0     H19580   5.020   8.656   7.900 -0.9354  2.9041 -2.5003
  867MOL0     H19581   4.818   8.499   7.907  0.7670 -2.9571  1.2795
  867MOL0     H19582   4.937   8.476   8.025 -0.6039 -0.4214  2.6173
  867MOL0     H19583   4.815   8.621   8.186  1.6454  0.9759 -1.4962
  867MOL0     H19584   4.683   8.642   8.063  2.5453  3.0985 -0.0699
  867MOL0     H19585   4.677   8.371   8.095 -0.2544  0.3927 -1.0086
  867MOL0     H19586   4.770   8.405   8.236 -0.6444 -2.5576 -1.8618
  867MOL0     H19587   4.491   8.534   8.178  1.0042  0.6807 -1.7275
  867MOL0     H19588   4.601   8.589   8.306  2.8569  2.0238 -2.4009
  867MOL0     H19589   4.574   8.370   8.406 -1.9917 -2.1079  0.9123
  867MOL0     H19590   4.414   8.425   8.368  1.2676 -0.6157  2.9870
  867MOL0     H19591   4.435   8.181   8.289 -0.6454 -0.7614 -3.5300
  867MOL0     H19592   4.589   8.205   8.224 -2.1358 -1.8399 -2.7576
  867MOL0     H19593   4.434   8.370   8.069 -0.1191 -0.1239  0.6468
  867MOL0     H19594   4.445   8.197   8.027  0.6855 -2.0749  2.4865
  867MOL0     H19595   4.203   8.438   7.988 -0.0876  0.2972 -0.9881
  867MOL0     H19596   3.942   8.434   8.002 -2.1499 -0.0966  0.5603
  867MOL0     H19597   3.866   8.289   8.053  0.2755 -1.4794  0.3256
  867MOL0     H19598   3.836   8.311   7.803 -1.2804 -0.4949  2.3226
  867MOL0     H19599   4.017   8.304   7.798 -0.6521  1.3950  1.9495
  867MOL0     H19600   4.014   8.072   7.883  0.0824 -0.4398 -0.4724
  867MOL0     H19601   3.843   8.088   7.919 -0.5791  1.7172 -0.6620
  867MOL0     H19602   3.904   7.930   7.725  1.5265 -0.5701 -1.1362
  867MOL0     H19603   3.791   8.050   7.671  0.2810  0.9129  0.7805
  867MOL0     H19604   3.770   7.953   7.488 -0.3834 -0.3547 -2.3869
  867MOL0     H19605   3.766   7.782   7.176 -1.0726  0.7245 -1.2129
  867MOL0     H19606   3.648   7.906   7.214  1.6240  1.6633 -1.5292
  867MOL0     H19607   3.708   7.802   7.348 -2.0612  1.9447  1.0239
  867MOL0     H19608   4.060   7.773   6.860  1.8489  0.4653  1.5409
  867MOL0     H19609   4.043   7.768   6.587 -0.7590  1.0024 -1.2232
  867MOL0     H19610   3.847   7.932   6.419 -0.8661  0.5198  1.4187
  867MOL0     H19611   3.857   8.090   6.478  0.1247  0.5851  0.0525
  867MOL0     H19612   4.020   8.065   6.225 -2.8269 -0.6292 -4.1262
  867MOL0     H19613   3.849   8.034   6.219  3.7134 -3.0166 -0.6845
  867MOL0     H19614   3.971   8.259   6.374  0.7499 -0.8571  0.5115
  867MOL0     H19615   3.804   8.244   6.345 -0.0463 -2.4922 -0.0843
  867MOL0     H19616   3.803   8.272   6.088 -0.8492 -0.6332  0.8263
  867MOL0     H19617   3.975   8.288   6.082  1.1904 -0.3861 -0.0730
  867MOL0     H19618   3.935   8.494   6.245 -3.0368  1.9570  2.2769
  867MOL0     H19619   3.908   8.511   6.072 -1.3433  0.2941 -1.0495
  867MOL0     H19620   3.732   8.608   6.187 -2.2724  0.3813 -2.3578
  867MOL0     H19621   3.726   8.479   6.311 -2.4808  0.0839 -0.2780
  867MOL0     H19622   3.594   8.332   6.168  2.3009 -0.7806  1.4107
  867MOL0     H19623   3.652   8.410   6.020 -2.1494 -0.6420  0.1481
  867MOL0     H19624   3.429   8.478   6.042 -1.2306  1.8718 -0.4986
  867MOL0     H19625   3.514   8.614   6.089 -0.2784 -1.3121 -2.6746
  867MOL0     H19626   4.099   8.194   6.586  2.8830 -0.5766  1.5704
  867MOL0     H19627   4.083   8.197   6.832 -0.7650  0.2121 -0.9928
  867MOL0     H19628   4.144   8.093   7.205 -0.6027  0.3804 -0.4020
  867MOL0     H19629   4.127   8.182   7.444 -0.5715 -0.7691  2.6307
  867MOL0     H19630   4.707   8.925   7.758  0.5671  0.1007 -1.5400
  867MOL0     H19631   4.773   9.106   7.625  1.1974  2.7565 -0.3657
  867MOL0     H19632   5.035   9.473   7.700 -1.3045  2.2653 -0.8746
  867MOL0     H19633   5.134   9.684   7.688 -1.6342 -1.0195 -0.4562
  867MOL0     H19634   5.525   9.746   7.511  0.9374 -1.5817 -3.6551
  867MOL0     H19635   5.442   9.751   7.366 -2.5154 -1.2390  0.9929
  867MOL0     H19636   5.486   9.998   7.553  1.5669  3.8159 -1.9048
  867MOL0     H19637   5.368   9.996   7.423  0.4536 -0.5528 -1.8113
  867MOL0     H19638   5.668   9.990   7.413  1.2948 -0.6997 -2.1725
  867MOL0     H19639   5.586   9.926   7.280  1.4027  0.0460 -0.2959
  867MOL0     H19640   5.591  10.225   7.398  0.1573  0.1716  0.4612
  867MOL0     H19641   5.462  10.175   7.292 -0.6953 -1.6582  2.3829
  867MOL0     H19642   5.749  10.212   7.005  0.2850 -0.2505  0.6946
  867MOL0     H19643   5.390   9.552   7.374 -1.9742  0.9026 -1.8442
  867MOL0     H19644   5.289   9.238   7.304 -0.4636  0.9969  0.3688
  867MOL0     H19645   5.425   9.355   7.318 -0.3290 -0.2908 -0.4716
  867MOL0     H19646   5.412   9.228   7.435 -0.4799 -2.8152 -3.1645
  868MOL0     O19647   6.310   0.624   1.832 -0.1886  0.6490 -0.2241
  868MOL0     C19648   6.228   0.640   1.740  0.4303 -0.5929  0.3176
  868MOL0     O19649   6.109   0.705   1.736  0.2066 -0.6986 -0.4760
  868MOL0     C19650   6.068   0.789   1.832  0.7230 -1.4871  0.4567
  868MOL0     C19651   5.951   0.866   1.792 -0.4295 -0.3555 -0.1871
  868MOL0     C19652   5.889   0.953   1.887 -1.1122 -0.9330  0.1855
  868MOL0     C19653   5.945   0.979   2.014 -0.6304 -0.3270  1.1236
  868MOL0     O19654   5.882   1.083   2.078 -0.8326  0.0263 -0.5702
  868MOL0     C19655   5.928   1.121   2.210 -0.0726 -1.3022  0.3438
  868MOL0     C19656   5.888   1.261   2.249 -0.4190 -1.2276 -0.0059
  868MOL0     C19657   5.952   1.296   2.381 -0.4145  0.0258 -0.0408
  868MOL0     C19658   6.105   1.322   2.395 -0.0853  0.0290 -0.1990
  868MOL0     C19659   6.124   1.396   2.532 -1.1022  0.8021  0.5839
  868MOL0     C19660   6.271   1.380   2.566 -0.7820 -0.1346 -0.1992
  868MOL0     C19661   6.299   1.442   2.704 -0.6056 -0.3310 -0.9544
  868MOL0     C19662   6.445   1.483   2.717  0.6618  0.7962 -0.2411
  868MOL0     N19663   6.538   1.368   2.701  0.2511 -0.2589  0.6953
  868MOL0     C19664   6.619   1.355   2.600 -0.2620 -0.2131  0.3106
  868MOL0     C19665   6.650   1.221   2.607 -0.8613 -0.6935  0.7007
  868MOL0     C19666   6.746   1.158   2.506 -0.8186  0.1963  0.2010
  868MOL0     C19667   6.894   1.202   2.522 -0.0932  1.0774  0.5405
  868MOL0     C19668   6.946   1.175   2.655 -0.1510  0.2550  0.8664
  868MOL0     C19669   7.087   1.231   2.681 -0.0994  0.7685 -0.5050
  868MOL0     O19670   7.075   1.376   2.671  0.4332  0.5550  0.3919
  868MOL0     C19671   7.180   1.448   2.628 -0.3773 -0.6210  0.1689
  868MOL0     C19672   7.150   1.587   2.615  0.9897  0.4536 -0.0316
  868MOL0     C19673   7.249   1.682   2.574  1.1952  0.4157  0.2234
  868MOL0     C19674   7.185   1.820   2.537  0.5228  0.7363  0.1158
  868MOL0     C19675   7.385   1.645   2.556 -0.1268  0.3289 -0.8889
  868MOL0     C19676   7.495   1.730   2.512 -0.3978 -0.0121  0.9955
  868MOL0     O19677   7.617   1.693   2.521 -0.3775 -0.5898 -0.4444
  868MOL0     C19678   7.725   1.774   2.524  0.2152  0.2387  0.2150
  868MOL0     C19679   7.728   1.915   2.520 -0.5621 -0.1864  0.1883
  868MOL0     C19680   7.854   1.980   2.561  0.1726  0.4322 -0.7183
  868MOL0     C19681   7.972   1.913   2.578  0.3787 -0.1158  0.4897
  868MOL0     O19682   8.088   1.983   2.597 -0.2167 -0.0779  0.7078
  868MOL0     C19683   8.205   1.920   2.660 -0.7380 -0.9588  0.6352
  868MOL0     C19684   8.330   2.017   2.679 -0.0640 -0.1643 -0.0986
  868MOL0     C19685   8.429   1.952   2.774  0.2359  0.3462 -0.4299
  868MOL0     C19686   8.533   2.064   2.821  0.0786  0.6569  0.0985
  868MOL0     C19687   8.653   2.002   2.896  0.2681 -0.0844 -0.1922
  868MOL0     C19688   8.735   2.116   2.953 -0.4513 -1.1938  0.3716
  868MOL0     C19689   8.855   2.068   3.039  0.8108 -0.2838 -0.8025
  868MOL0     C19690   8.942   2.174   3.092  0.1846  0.3740  0.5254
  868MOL0    Cl19691   8.877   2.311   3.192  0.1021  0.2806 -0.0708
  868MOL0     C19692   7.971   1.777   2.564  0.4300 -0.6809 -0.6317
  868MOL0     C19693   7.850   1.709   2.540 -0.4437  0.6905 -0.0786
  868MOL0     O19694   7.463   1.829   2.448 -0.4216 -0.5306  0.4074
  868MOL0     C19695   7.405   1.505   2.576  0.0242 -0.1870  0.2069
  868MOL0     C19696   7.310   1.409   2.600 -0.1517 -0.7613  0.3054
  868MOL0     N19697   6.597   1.162   2.719 -0.6636 -0.4830  0.1468
  868MOL0     N19698   6.535   1.256   2.778 -1.1020 -0.5059 -0.5597
  868MOL0     C19699   6.063   0.909   2.049 -0.1437 -0.4852  0.6392
  868MOL0     C19700   6.121   0.818   1.962 -0.5442  0.0634 -0.0050
  868MOL0     C19701   6.257   0.548   1.632  0.0037 -0.2230  0.4186
  868MOL0     C19702   6.327   0.423   1.650 -0.1023 -0.0083  0.1414
  868MOL0     C19703   6.367   0.345   1.541 -0.1766 -0.2853 -0.0958
  868MOL0     C19704   6.341   0.382   1.409 -0.2334 -1.3172  0.0428
  868MOL0     O19705   6.385   0.305   1.306  0.5940  0.1239 -0.0668
  868MOL0     C19706   6.338   0.316   1.171  0.1548 -0.3652 -0.2462
  868MOL0     C19707   6.396   0.218   1.076 -0.1741 -0.4155  0.3376
  868MOL0     C19708   6.353   0.077   1.113  0.2872  0.0667  1.4996
  868MOL0     C19709   6.405  -0.033   1.025 -0.7237  0.2351  0.1846
  868MOL0     C19710   6.557  -0.042   1.023 -0.5622 -0.6143 -0.3426
  868MOL0     C19711   6.678  -0.046   1.022  0.7431  0.1338 -0.4509
  868MOL0     C19712   6.270   0.498   1.391 -0.4093 -0.4854  0.2066
  868MOL0     C19713   6.221   0.581   1.498  0.6522  0.3994  0.0143
  868MOL0     C19714   6.135   0.699   1.459 -0.3188 -0.2951 -0.4556
  868MOL0     H19715   5.899   0.836   1.702 -1.8923  0.7680  0.2479
  868MOL0     H19716   5.799   1.009   1.865  0.0150  0.0982 -2.1385
  868MOL0     H19717   6.037   1.111   2.217  0.0691 -0.6141 -0.7558
  868MOL0     H19718   5.883   1.047   2.278 -0.8851  0.7427  2.1253
  868MOL0     H19719   5.914   1.331   2.169 -0.5639 -0.2113  0.8112
  868MOL0     H19720   5.779   1.251   2.256 -0.1550 -3.4348  1.9945
  868MOL0     H19721   5.903   1.389   2.411  0.5662  0.4437  0.3165
  868MOL0     H19722   5.934   1.233   2.468  1.5662  0.8337  1.0055
  868MOL0     H19723   6.156   1.226   2.398 -0.8099 -0.3388  0.8804
  868MOL0     H19724   6.146   1.386   2.316 -1.4060 -0.4255 -1.3094
  868MOL0     H19725   6.071   1.352   2.617  1.5218 -0.2911  1.7803
  868MOL0     H19726   6.110   1.504   2.538  1.1283  1.0575  2.8875
  868MOL0     H19727   6.298   1.274   2.561  0.2731  0.0220  1.4777
  868MOL0     H19728   6.336   1.425   2.490  1.6114 -1.5458  0.9096
  868MOL0     H19729   6.284   1.370   2.785 -0.1797 -3.0932 -3.1874
  868MOL0     H19730   6.236   1.530   2.723 -0.2077  0.0541 -1.3894
  868MOL0     H19731   6.463   1.560   2.642 -1.4274  0.4614 -1.1695
  868MOL0     H19732   6.466   1.527   2.814 -3.8431  0.4669  1.0983
  868MOL0     H19733   6.650   1.430   2.529 -0.8407  0.0919  0.3688
  868MOL0     H19734   6.721   1.186   2.403 -1.4435  0.5997  0.4562
  868MOL0     H19735   6.738   1.050   2.516 -2.9137  0.3759  0.9214
  868MOL0     H19736   6.947   1.135   2.453 -1.6628  0.4863 -0.1624
  868MOL0     H19737   6.897   1.305   2.486 -0.0249  0.9358  0.1341
  868MOL0     H19738   6.885   1.219   2.734  0.3284 -0.3186  1.5726
  868MOL0     H19739   6.950   1.068   2.676  2.4549 -0.0912 -0.8615
  868MOL0     H19740   7.122   1.194   2.778  2.0344  2.7765 -0.4371
  868MOL0     H19741   7.157   1.196   2.604 -0.0852 -2.4511  0.8020
  868MOL0     H19742   7.050   1.623   2.639  2.4258  3.2828  2.2945
  868MOL0     H19743   7.241   1.906   2.576  0.8938  0.2026  0.7836
  868MOL0     H19744   7.084   1.831   2.578  1.4135 -1.6615  3.4341
  868MOL0     H19745   7.175   1.828   2.429 -0.9067  1.0369  0.2594
  868MOL0     H19746   7.643   1.979   2.503  2.3246  4.5655  1.6345
  868MOL0     H19747   7.844   2.086   2.581  0.9326  0.0290  2.2537
  868MOL0     H19748   8.176   1.885   2.759  0.8650  0.3332  1.6123
  868MOL0     H19749   8.237   1.834   2.601 -1.6402 -0.5698 -0.4814
  868MOL0     H19750   8.381   2.037   2.585 -4.1668 -1.2294 -2.8515
  868MOL0     H19751   8.310   2.118   2.715 -1.1830  0.7506 -3.0149
  868MOL0     H19752   8.483   1.875   2.717 -1.3304 -0.9671 -0.2312
  868MOL0     H19753   8.375   1.904   2.857  1.1044  1.2368  0.6829
  868MOL0     H19754   8.485   2.136   2.887  1.0670  0.7778  0.7007
  868MOL0     H19755   8.580   2.108   2.732 -0.2406 -0.5189 -0.6795
  868MOL0     H19756   8.607   1.939   2.973 -1.5958  3.4557  1.8566
  868MOL0     H19757   8.712   1.945   2.824  0.6027  2.7506 -2.3046
  868MOL0     H19758   8.675   2.190   3.007 -0.1110  0.5804 -1.5640
  868MOL0     H19759   8.780   2.169   2.869 -0.3730 -1.8540 -0.0074
  868MOL0     H19760   8.914   2.030   2.955  0.6927  0.5470 -1.2672
  868MOL0     H19761   8.824   2.003   3.121  0.5265  0.9552  0.0914
  868MOL0     H19762   8.987   2.225   3.006 -0.8400 -2.7053 -1.9955
  868MOL0     H19763   9.016   2.117   3.149 -0.9685  0.5915  2.3091
  868MOL0     H19764   8.060   1.716   2.580  0.7348  0.0899  0.8622
  868MOL0     H19765   7.865   1.602   2.540  0.2982  0.7683 -1.6176
  868MOL0     H19766   7.505   1.462   2.570  0.2283  0.4344 -1.7612
  868MOL0     H19767   7.336   1.304   2.590 -0.6499 -0.9453  0.8660
  868MOL0     H19768   6.128   0.932   2.133  0.5448 -1.8345  0.5114
  868MOL0     H19769   6.210   0.766   1.996 -1.8637 -0.2104  3.4839
  868MOL0     H19770   6.358   0.392   1.749  1.3921  0.5810 -0.1218
  868MOL0     H19771   6.424   0.254   1.560 -0.3697 -0.3605  0.1197
  868MOL0     H19772   6.229   0.324   1.167  0.1155  0.1099  1.0798
  868MOL0     H19773   6.380   0.412   1.139 -2.0285  0.5041 -0.6267
  868MOL0     H19774   6.505   0.223   1.070 -0.0936 -0.2697  1.5365
  868MOL0     H19775   6.364   0.234   0.973 -0.1018 -1.6832  0.1133
  868MOL0     H19776   6.382   0.048   1.214  0.5686 -4.8861  0.2671
  868MOL0     H19777   6.244   0.066   1.118  0.2001 -0.7576 -0.8567
  868MOL0     H19778   6.365  -0.015   0.924  0.7371  1.9995 -0.1550
  868MOL0     H19779   6.363  -0.129   1.054  0.5689 -0.1797  0.7593
  868MOL0     H19780   6.783  -0.047   1.001  1.4527 -1.3037  2.6402
  868MOL0     H19781   6.255   0.531   1.288 -1.6907 -0.9162  0.2414
  868MOL0     H19782   6.146   0.786   1.523  0.0201 -1.7727  1.5674
  868MOL0     H19783   6.154   0.726   1.355 -2.7947  0.1432 -0.8682
  868MOL0     H19784   6.030   0.666   1.463 -0.1962 -0.6662 -0.2709
  869MOL0     O19785   2.568  10.273   0.155  0.0000 -0.0395  0.1210
  869MOL0     C19786   2.575  10.318   0.045  0.4442 -0.2408 -0.3145
  869MOL0     O19787   2.622  10.250  -0.069 -0.9255 -0.2034 -0.3656
  869MOL0     C19788   2.676  10.127  -0.042 -0.4094  0.9252  0.9160
  869MOL0     C19789   2.807  10.109  -0.073  0.2686  0.1755 -1.0300
  869MOL0     C19790   2.861   9.980  -0.061 -0.2603  0.0122 -0.4028
  869MOL0     C19791   2.794   9.864  -0.018  0.5053  0.1245 -0.2961
  869MOL0     O19792   2.865   9.744  -0.010 -0.9908 -0.6244 -0.1911
  869MOL0     C19793   2.795   9.631   0.049 -0.0375 -0.2468 -0.0851
  869MOL0     C19794   2.786   9.646   0.205 -0.7399  1.3022 -0.6051
  869MOL0     C19795   2.686   9.537   0.256  0.0239 -0.0145  0.1226
  869MOL0     C19796   2.646   9.582   0.399  0.3924  0.2637 -0.5790
  869MOL0     C19797   2.560   9.472   0.476  0.1260  0.2829  0.6979
  869MOL0     C19798   2.648   9.356   0.526 -0.3181 -0.1750  0.2283
  869MOL0     C19799   2.597   9.302   0.661  0.1774 -0.2067  0.1162
  869MOL0     C19800   2.712   9.289   0.760 -0.0092 -0.1905 -0.3280
  869MOL0     N19801   2.810   9.188   0.715  0.3027 -0.1332  0.2835
  869MOL0     C19802   2.786   9.092   0.623  0.0369  0.3721  0.2038
  869MOL0     C19803   2.901   9.025   0.606  0.4627 -0.2614 -0.8856
  869MOL0     C19804   2.930   8.900   0.517  0.8695  0.3230  0.2822
  869MOL0     C19805   3.026   8.805   0.589  0.0280  0.8408 -1.0551
  869MOL0     C19806   3.036   8.661   0.523 -1.1356  0.1348  0.2959
  869MOL0     C19807   3.154   8.573   0.572 -0.8862 -0.5942  0.3672
  869MOL0     O19808   3.148   8.434   0.528  0.9476 -0.2545 -0.3180
  869MOL0     C19809   3.252   8.378   0.460 -0.4334  0.2856 -0.5338
  869MOL0     C19810   3.282   8.245   0.500 -0.1389 -0.1414 -0.0106
  869MOL0     C19811   3.399   8.182   0.454  0.7476 -0.2962 -0.2670
  869MOL0     C19812   3.411   8.049   0.508 -0.1186  0.0030  0.1375
  869MOL0     C19813   3.493   8.251   0.367 -0.1425 -0.4175 -0.5120
  869MOL0     C19814   3.606   8.184   0.295  0.6579 -0.5058  0.6665
  869MOL0     O19815   3.643   8.252   0.181 -0.5973 -1.2076 -0.0284
  869MOL0     C19816   3.744   8.199   0.101  0.0998 -0.2118  0.3306
  869MOL0     C19817   3.874   8.198   0.143 -0.4210 -0.2885 -0.3633
  869MOL0     C19818   3.965   8.131   0.068 -0.2352 -0.1310 -0.2229
  869MOL0     C19819   3.945   8.089  -0.058 -0.7447 -0.2239 -0.1954
  869MOL0     O19820   4.033   8.026  -0.140 -0.7876 -0.2082  0.5128
  869MOL0     C19821   4.168   8.063  -0.114 -0.4070 -1.0726  0.2274
  869MOL0     C19822   4.237   7.979  -0.218 -1.0384 -0.2312  0.3759
  869MOL0     C19823   4.388   7.988  -0.203  0.2091 -0.3113 -0.0222
  869MOL0     C19824   4.450   7.887  -0.304  0.3487  0.0873 -0.5534
  869MOL0     C19825   4.606   7.907  -0.300  0.1074 -0.0920  0.2177
  869MOL0     C19826   4.665   7.826  -0.422 -0.3635 -0.4410 -0.1367
  869MOL0     C19827   4.818   7.815  -0.408  0.7491 -0.0786  0.3312
  869MOL0     C19828   4.902   7.765  -0.525 -0.1759  0.2385  0.4268
  869MOL0    Cl19829   4.892   7.873  -0.673  0.3147 -0.1873 -0.4824
  869MOL0     C19830   3.817   8.093  -0.108 -0.3376 -0.6013 -0.5581
  869MOL0     C19831   3.718   8.154  -0.034 -0.2192  0.2785  0.2066
  869MOL0     O19832   3.660   8.079   0.324  0.1506  0.0212 -0.0233
  869MOL0     C19833   3.468   8.391   0.338 -0.1071  0.3607 -0.6804
  869MOL0     C19834   3.349   8.452   0.380  0.6311 -0.6796 -0.4602
  869MOL0     N19835   3.000   9.092   0.676  0.3445  0.1431  0.0247
  869MOL0     N19836   2.943   9.193   0.735  0.7414  0.0515 -0.2519
  869MOL0     C19837   2.654   9.885   0.014  0.1626  0.0537  0.6371
  869MOL0     C19838   2.602  10.016   0.009 -0.3035 -0.0193 -0.3459
  869MOL0     C19839   2.523  10.454   0.014 -0.0811  1.0413 -0.0617
  869MOL0     C19840   2.521  10.484  -0.118 -0.4781  0.2523  0.9000
  869MOL0     C19841   2.469  10.604  -0.168 -0.0617  0.2799 -0.2313
  869MOL0     C19842   2.415  10.694  -0.075 -0.2555 -0.1788  0.3219
  869MOL0     O19843   2.350  10.812  -0.116  0.0492 -0.1487 -1.1704
  869MOL0     C19844   2.235  10.784  -0.189  0.3875 -0.7692  0.3964
  869MOL0     C19845   2.125  10.896  -0.174 -0.3527 -0.5799  0.2077
  869MOL0     C19846   1.987  10.850  -0.219  0.6209 -0.4290  0.4420
  869MOL0     C19847   1.968  10.794  -0.353  0.1990  0.1609  0.4936
  869MOL0     C19848   1.823  10.783  -0.391 -0.0523 -0.5805 -0.1053
  869MOL0     C19849   1.700  10.779  -0.421  0.0992 -0.6145  0.0973
  869MOL0     C19850   2.427  10.664   0.061  0.1846 -0.7396 -0.8756
  869MOL0     C19851   2.474  10.544   0.116 -0.0899 -0.5673  0.3457
  869MOL0     C19852   2.453  10.516   0.257  0.6317  1.2196 -0.4153
  869MOL0     H19853   2.874  10.191  -0.095  0.5182  0.0766 -0.6573
  869MOL0     H19854   2.968   9.970  -0.078 -0.2864  0.4433 -0.8303
  869MOL0     H19855   2.844   9.535   0.030  1.6451 -0.5019  4.3378
  869MOL0     H19856   2.694   9.626   0.007  0.7743  0.4945 -2.2694
  869MOL0     H19857   2.890   9.635   0.239  0.2857  0.7428 -3.5955
  869MOL0     H19858   2.748   9.745   0.229 -0.7248  1.0680  0.4200
  869MOL0     H19859   2.609   9.524   0.180  0.5962 -1.3074 -0.2635
  869MOL0     H19860   2.730   9.437   0.260 -0.9644 -0.4778 -0.2640
  869MOL0     H19861   2.738   9.607   0.452  0.2261 -1.2995  0.5281
  869MOL0     H19862   2.579   9.668   0.395  1.1234  0.9050  0.5376
  869MOL0     H19863   2.494   9.423   0.403  2.6932 -1.8950 -0.3536
  869MOL0     H19864   2.503   9.521   0.555 -1.7795  2.0720 -1.6508
  869MOL0     H19865   2.636   9.283   0.445 -0.1221  0.9504 -0.8470
  869MOL0     H19866   2.749   9.397   0.528 -0.7158  0.7947  2.0322
  869MOL0     H19867   2.558   9.201   0.645  3.2105 -1.7885  1.7322
  869MOL0     H19868   2.516   9.362   0.702 -0.3610 -2.6198  2.9433
  869MOL0     H19869   2.768   9.382   0.769  3.2654 -1.8786 -1.4813
  869MOL0     H19870   2.675   9.245   0.853  0.2985 -2.8782 -1.3602
  869MOL0     H19871   2.692   9.054   0.583 -0.3801  3.6668 -2.3707
  869MOL0     H19872   2.950   8.930   0.414 -0.3768  3.2733  0.8018
  869MOL0     H19873   2.835   8.847   0.507  0.8830  0.2759  0.3936
  869MOL0     H19874   3.122   8.856   0.579  1.3555 -1.4765 -1.0306
  869MOL0     H19875   2.992   8.786   0.691  2.1748 -0.3464 -0.4937
  869MOL0     H19876   2.942   8.614   0.551 -0.9776 -1.6152 -1.8452
  869MOL0     H19877   3.046   8.666   0.414 -1.4519 -2.1854  0.1219
  869MOL0     H19878   3.247   8.622   0.543 -1.3249 -0.3728 -0.7286
  869MOL0     H19879   3.158   8.570   0.681  3.3650 -0.3060  0.3827
  869MOL0     H19880   3.207   8.199   0.562 -0.5835 -0.8636 -1.0594
  869MOL0     H19881   3.354   8.035   0.601 -1.3053  1.3350 -0.3629
  869MOL0     H19882   3.514   8.021   0.534 -0.2892  1.4816  2.7558
  869MOL0     H19883   3.375   7.974   0.437  3.8392 -1.9139 -0.1338
  869MOL0     H19884   3.899   8.228   0.244  0.5735 -0.8968 -0.4186
  869MOL0     H19885   4.056   8.124   0.126 -1.6580  1.1008  2.3100
  869MOL0     H19886   4.180   8.172  -0.113  0.2241 -1.1375  0.2322
  869MOL0     H19887   4.202   8.037  -0.014 -0.8452  0.7480  0.8894
  869MOL0     H19888   4.208   7.874  -0.210  0.4085 -1.1401 -3.5950
  869MOL0     H19889   4.199   8.001  -0.319  0.5648  1.4803  0.0854
  869MOL0     H19890   4.416   7.953  -0.103  1.4574 -0.0866 -0.2785
  869MOL0     H19891   4.431   8.087  -0.218 -2.3108  0.7233 -0.9939
  869MOL0     H19892   4.405   7.899  -0.403 -0.9911  0.4318  0.0825
  869MOL0     H19893   4.417   7.788  -0.273  4.4369 -0.7283  2.0035
  869MOL0     H19894   4.631   8.011  -0.321  0.0383  0.1186  1.1039
  869MOL0     H19895   4.644   7.892  -0.198  0.7668  0.8585  0.1201
  869MOL0     H19896   4.639   7.866  -0.520 -0.3142  2.1823  0.8446
  869MOL0     H19897   4.615   7.729  -0.424 -0.2776 -0.4733 -1.0567
  869MOL0     H19898   4.842   7.750  -0.324  1.1659 -0.7690 -0.3090
  869MOL0     H19899   4.850   7.919  -0.397 -0.5179  0.0935  3.0112
  869MOL0     H19900   4.876   7.664  -0.559 -0.3471  0.3110  0.3438
  869MOL0     H19901   5.008   7.757  -0.497 -0.4641 -1.5591  1.1670
  869MOL0     H19902   3.811   8.044  -0.205  2.8790 -2.8495  0.2063
  869MOL0     H19903   3.623   8.172  -0.083  1.1465 -2.3015 -3.8541
  869MOL0     H19904   3.534   8.444   0.270  0.7042 -1.9350 -1.7784
  869MOL0     H19905   3.329   8.556   0.356  2.9895 -0.1919 -0.5461
  869MOL0     H19906   2.587   9.800   0.015  0.5406 -0.2872 -0.3813
  869MOL0     H19907   2.496  10.036   0.026 -0.5988 -2.6226  1.6354
  869MOL0     H19908   2.550  10.417  -0.199  2.1585  0.5282  1.5278
  869MOL0     H19909   2.447  10.623  -0.272 -1.2834 -0.5635 -0.1524
  869MOL0     H19910   2.247  10.753  -0.294 -4.4271 -3.4887  0.3405
  869MOL0     H19911   2.185  10.699  -0.142 -1.1888 -0.1743 -0.1278
  869MOL0     H19912   2.153  10.987  -0.228 -3.0793  2.3018  3.2012
  869MOL0     H19913   2.108  10.932  -0.072  0.1678  0.5044 -0.0773
  869MOL0     H19914   1.966  10.769  -0.147 -2.1425 -0.9604 -0.8258
  869MOL0     H19915   1.907  10.923  -0.204 -1.0445 -1.9236 -0.8045
  869MOL0     H19916   2.009  10.694  -0.367 -0.1405 -0.2286  2.0355
  869MOL0     H19917   2.030  10.854  -0.419 -0.3713 -1.1536 -1.3115
  869MOL0     H19918   1.596  10.786  -0.445 -0.6326 -1.1538  2.8238
  869MOL0     H19919   2.385  10.740   0.126 -0.3655 -1.3323 -0.5250
  869MOL0     H19920   2.354  10.469   0.256  1.5196 -0.8587 -2.4344
  869MOL0     H19921   2.530  10.454   0.305 -2.7910 -0.8945  2.9389
  869MOL0     H19922   2.461  10.606   0.318 -0.6778  1.2062 -0.1895
  870MOL0     O19923   4.482   6.993   9.540  0.3800  0.5894 -0.3712
  870MOL0     C19924   4.559   7.053   9.610 -0.4198 -0.1349  0.8132
  870MOL0     O19925   4.592   7.189   9.586 -0.0172 -0.0578 -0.8373
  870MOL0     C19926   4.543   7.254   9.479  0.0089  0.2566 -0.1432
  870MOL0     C19927   4.463   7.367   9.495  0.6519 -0.2735 -0.7014
  870MOL0     C19928   4.410   7.431   9.381  0.1802  0.2334  0.1129
  870MOL0     C19929   4.428   7.374   9.255  0.0234 -0.0752  0.2536
  870MOL0     O19930   4.379   7.446   9.153  0.2757  0.9804  0.4946
  870MOL0     C19931   4.245   7.407   9.127  0.5379 -0.4040 -0.1937
  870MOL0     C19932   4.245   7.351   8.980  0.2961 -0.1930  0.7963
  870MOL0     C19933   4.283   7.445   8.870  0.3739 -0.1805 -0.0396
  870MOL0     C19934   4.163   7.540   8.832  0.6489 -0.2036 -0.2131
  870MOL0     C19935   4.171   7.601   8.691  0.3259 -0.3297 -0.0035
  870MOL0     C19936   4.092   7.731   8.692  0.0217 -1.4666 -0.1587
  870MOL0     C19937   4.095   7.791   8.544  0.0381  0.5010 -0.5093
  870MOL0     C19938   3.989   7.899   8.530  0.4638  0.2139  0.6819
  870MOL0     N19939   4.014   8.031   8.605 -0.1621 -0.0489 -0.1350
  870MOL0     C19940   4.096   8.132   8.555  1.2131 -0.1339 -0.0253
  870MOL0     C19941   4.096   8.237   8.641 -0.6704  1.1004 -0.5903
  870MOL0     C19942   4.183   8.360   8.641  0.3507  0.6939  0.3228
  870MOL0     C19943   4.315   8.324   8.718  0.2588 -0.9384 -0.3913
  870MOL0     C19944   4.408   8.451   8.727  0.8899 -0.5293 -0.1869
  870MOL0     C19945   4.540   8.422   8.810  0.3139 -0.5282 -0.0025
  870MOL0     O19946   4.623   8.328   8.735 -0.1347 -0.3152 -0.5517
  870MOL0     C19947   4.730   8.377   8.670 -0.7466  0.1244  0.6023
  870MOL0     C19948   4.746   8.501   8.620  0.2753  0.0100 -0.1894
  870MOL0     C19949   4.845   8.543   8.536  0.2452 -0.5031  0.6290
  870MOL0     C19950   4.845   8.689   8.492 -0.2518 -0.8058 -0.2905
  870MOL0     C19951   4.944   8.446   8.487  1.7214 -0.6614  0.8589
  870MOL0     C19952   5.049   8.477   8.392 -0.3248 -0.2851  0.6808
  870MOL0     O19953   5.118   8.368   8.342 -0.7400  0.1718 -0.1561
  870MOL0     C19954   5.224   8.390   8.262  0.0074  1.2617 -0.8608
  870MOL0     C19955   5.230   8.485   8.161 -0.2717 -0.1434 -1.2584
  870MOL0     C19956   5.353   8.494   8.095  0.2229  0.2771  0.1251
  870MOL0     C19957   5.464   8.407   8.116 -0.0522 -0.1728 -0.1744
  870MOL0     O19958   5.584   8.429   8.051 -0.0801  0.1741  0.5960
  870MOL0     C19959   5.624   8.566   8.045 -0.0824  0.1568 -0.1065
  870MOL0     C19960   5.765   8.596   8.020 -0.1763 -0.2503  0.8370
  870MOL0     C19961   5.853   8.591   8.150  0.3987  0.6043  0.2917
  870MOL0     C19962   6.005   8.639   8.130  0.4716 -0.2619 -0.5580
  870MOL0     C19963   6.053   8.690   8.271  0.6943  0.0998 -0.6396
  870MOL0     C19964   6.203   8.673   8.291  0.0751  0.0375 -0.7957
  870MOL0     C19965   6.245   8.725   8.429 -0.2791  0.3743 -1.0930
  870MOL0     C19966   6.174   8.667   8.547 -0.1523  0.2523 -0.1221
  870MOL0    Cl19967   6.242   8.510   8.580  0.0349 -0.0827 -0.1132
  870MOL0     C19968   5.442   8.304   8.205 -0.9286  0.6131 -0.5375
  870MOL0     C19969   5.324   8.295   8.276  0.6339  0.2045 -0.3898
  870MOL0     O19970   5.085   8.590   8.378  0.1313 -0.0578 -0.6193
  870MOL0     C19971   4.931   8.320   8.546 -0.6529  0.3624  0.1530
  870MOL0     C19972   4.830   8.286   8.637  0.8950 -0.2953  0.6777
  870MOL0     N19973   4.005   8.198   8.743 -0.0977  0.9507  0.0271
  870MOL0     N19974   3.949   8.084   8.713  0.1052 -0.3294  0.5780
  870MOL0     C19975   4.519   7.266   9.238 -1.2658 -1.0435  1.2055
  870MOL0     C19976   4.567   7.207   9.354  0.2311 -0.4955  0.6630
  870MOL0     C19977   4.604   6.997   9.738 -0.1148 -0.4597  0.9699
  870MOL0     C19978   4.643   7.088   9.838 -0.4668 -0.5231  0.4156
  870MOL0     C19979   4.688   7.044   9.964  0.3285 -0.3239 -0.7096
  870MOL0     C19980   4.689   6.905   9.999  0.6170  1.0189 -0.0006
  870MOL0     O19981   4.721   6.870  10.126  0.3819  0.0365  0.3080
  870MOL0     C19982   4.734   6.724  10.169  1.1011 -0.4592  0.5949
  870MOL0     C19983   4.870   6.663  10.120  0.5730  0.7723 -0.2123
  870MOL0     C19984   4.865   6.513  10.147  0.6830 -0.1436 -1.0867
  870MOL0     C19985   4.996   6.461  10.092  0.5193  0.1067 -0.5979
  870MOL0     C19986   5.001   6.317  10.099  0.6320  1.4046 -0.1795
  870MOL0     C19987   4.996   6.191  10.100 -0.1013 -0.0478 -0.1460
  870MOL0     C19988   4.642   6.807   9.910  0.6656 -1.0946 -0.0399
  870MOL0     C19989   4.602   6.854   9.776 -0.0122  0.5284  0.0514
  870MOL0     C19990   4.576   6.736   9.671  0.4983  0.0547  0.4220
  870MOL0     H19991   4.443   7.412   9.591  2.0660  2.9180 -1.7808
  870MOL0     H19992   4.352   7.519   9.402  0.8161  0.1592  2.4080
  870MOL0     H19993   4.173   7.486   9.149 -1.3321 -2.0987  0.0175
  870MOL0     H19994   4.210   7.330   9.196 -1.8464 -1.1292 -2.0739
  870MOL0     H19995   4.328   7.280   8.976  1.4143  1.1047 -0.5740
  870MOL0     H19996   4.154   7.296   8.956 -0.1072  0.3828  0.9930
  870MOL0     H19997   4.371   7.500   8.905  0.1420 -0.3757  0.8754
  870MOL0     H19998   4.295   7.372   8.789 -2.6164 -2.1514  1.1199
  870MOL0     H19999   4.067   7.489   8.830 -0.4349  1.7334 -2.3276
  870MOL0     H20000   4.164   7.624   8.902  0.3068  0.3746 -0.8829
  870MOL0     H20001   4.124   7.535   8.616 -2.4721  0.7494  0.6636
  870MOL0     H20002   4.274   7.630   8.669 -0.1665  2.2198  0.7094
  870MOL0     H20003   3.987   7.717   8.718 -1.3446  2.5642 -2.6717
  870MOL0     H20004   4.142   7.792   8.767 -2.6843  0.3033  0.3324
  870MOL0     H20005   4.064   7.713   8.474 -1.0877 -1.5816  2.0795
  870MOL0     H20006   4.189   7.838   8.516  1.3556 -2.2669 -1.0645
  870MOL0     H20007   3.975   7.916   8.423  1.6021 -2.3113  0.0619
  870MOL0     H20008   3.900   7.849   8.567 -0.8017  1.5794 -0.3903
  870MOL0     H20009   4.137   8.122   8.454  0.7625 -1.3272 -0.0982
  870MOL0     H20010   4.126   8.441   8.687 -2.5135  0.2855 -2.1803
  870MOL0     H20011   4.210   8.379   8.537 -2.5803  3.4523 -0.0911
  870MOL0     H20012   4.278   8.301   8.819 -2.6983  1.6666 -0.7290
  870MOL0     H20013   4.377   8.250   8.668  0.4093 -0.8261 -0.3719
  870MOL0     H20014   4.440   8.477   8.625  3.5019  1.8415  1.0944
  870MOL0     H20015   4.353   8.537   8.765  0.1160 -1.1806  0.1969
  870MOL0     H20016   4.588   8.517   8.835  0.0861  0.1910 -2.1215
  870MOL0     H20017   4.504   8.367   8.897  1.8203 -1.8822 -0.1878
  870MOL0     H20018   4.663   8.571   8.631 -0.1710 -0.4092 -0.8638
  870MOL0     H20019   4.946   8.730   8.491  0.2974 -1.9051  2.1621
  870MOL0     H20020   4.779   8.756   8.547  1.3083  1.2970 -0.8481
  870MOL0     H20021   4.794   8.686   8.395  1.7662 -0.3547 -1.4289
  870MOL0     H20022   5.146   8.554   8.153  0.7959  1.8913  2.4608
  870MOL0     H20023   5.370   8.575   8.026  2.7471  1.1049  1.5726
  870MOL0     H20024   5.565   8.614   7.966 -1.8259 -2.2421 -0.3671
  870MOL0     H20025   5.599   8.625   8.134  0.6266  2.2367 -1.1937
  870MOL0     H20026   5.792   8.532   7.935  1.3924  3.8131 -2.0004
  870MOL0     H20027   5.763   8.699   7.985 -3.0760 -0.5631 -0.2197
  870MOL0     H20028   5.851   8.486   8.182  0.0560 -0.1726 -2.0948
  870MOL0     H20029   5.807   8.668   8.211 -2.6241  3.3527 -4.7947
  870MOL0     H20030   6.017   8.722   8.060  3.4792 -0.9319 -0.9774
  870MOL0     H20031   6.071   8.561   8.093  0.8479  0.1460 -0.7483
  870MOL0     H20032   6.019   8.794   8.267  0.5511  0.1351  1.0139
  870MOL0     H20033   5.981   8.650   8.342 -0.0233 -0.0934 -1.4492
  870MOL0     H20034   6.265   8.713   8.210  2.6998 -1.5659  0.2954
  870MOL0     H20035   6.232   8.568   8.281  1.5056  0.4913 -1.7202
  870MOL0     H20036   6.224   8.832   8.438 -0.0476  0.2457  4.4495
  870MOL0     H20037   6.351   8.709   8.452 -0.9471 -3.8769 -0.1830
  870MOL0     H20038   6.065   8.660   8.533 -0.2202 -1.0890  0.8955
  870MOL0     H20039   6.182   8.731   8.636 -2.5681  1.1921 -0.4863
  870MOL0     H20040   5.520   8.232   8.225 -1.5133 -0.0808 -0.7164
  870MOL0     H20041   5.308   8.200   8.327  0.6517 -0.4492 -1.5589
  870MOL0     H20042   5.003   8.241   8.530  0.3648  1.7286 -2.6118
  870MOL0     H20043   4.826   8.184   8.674 -1.2064 -0.9525 -1.1770
  870MOL0     H20044   4.535   7.226   9.139  1.8334  0.0563  1.1551
  870MOL0     H20045   4.643   7.129   9.346  0.2609 -0.2657 -2.7697
  870MOL0     H20046   4.657   7.192   9.810 -0.4287 -1.3386 -3.0348
  870MOL0     H20047   4.713   7.112  10.044  0.2206  0.3781 -1.2627
  870MOL0     H20048   4.741   6.710  10.277  0.3714 -0.5041  0.6440
  870MOL0     H20049   4.644   6.670  10.137  0.4248 -0.2254  2.0213
  870MOL0     H20050   4.949   6.714  10.176  0.4602  1.5378 -0.7309
  870MOL0     H20051   4.878   6.676  10.012 -1.6545 -2.1715 -0.8644
  870MOL0     H20052   4.863   6.508  10.256 -0.3738  4.9340 -0.6471
  870MOL0     H20053   4.773   6.466  10.110 -0.5542 -1.0897  2.7274
  870MOL0     H20054   5.089   6.499  10.136  1.0429 -0.6457 -1.0243
  870MOL0     H20055   4.991   6.494   9.988 -0.8439  0.2527 -0.5088
  870MOL0     H20056   4.992   6.086  10.123 -0.2377  0.1147  0.5930
  870MOL0     H20057   4.625   6.707   9.948  2.2868 -1.3837  0.0023
  870MOL0     H20058   4.485   6.679   9.692  0.1261  0.5760  0.2606
  870MOL0     H20059   4.556   6.769   9.569 -3.1071 -1.8330  0.3362
  870MOL0     H20060   4.661   6.668   9.660  3.0616  3.2363 -1.1002
  871MOL0     O20061   1.192   4.417   7.259  0.9012  0.0322 -0.5245
  871MOL0     C20062   1.147   4.350   7.354 -0.3789  1.2127  0.9028
  871MOL0     O20063   1.190   4.359   7.483  0.7877  0.0845 -0.1283
  871MOL0     C20064   1.301   4.434   7.494  0.0151  0.1064 -0.1369
  871MOL0     C20065   1.285   4.564   7.518  0.3280  0.1866  0.1754
  871MOL0     C20066   1.397   4.645   7.529  0.4473 -0.5057 -0.3697
  871MOL0     C20067   1.520   4.598   7.500 -1.0073  1.1706 -0.1982
  871MOL0     O20068   1.632   4.676   7.493 -0.6073 -0.1202 -0.0045
  871MOL0     C20069   1.612   4.817   7.500  0.9425  0.0781  0.7516
  871MOL0     C20070   1.734   4.903   7.458  0.7215 -0.4213  0.0225
  871MOL0     C20071   1.850   4.872   7.557 -0.1887 -0.3639  0.1424
  871MOL0     C20072   1.953   4.983   7.589  0.1638 -0.0455 -0.5213
  871MOL0     C20073   2.078   4.937   7.661 -0.3597  0.2277  0.0922
  871MOL0     C20074   2.121   5.040   7.767 -0.5789  0.0663 -1.0765
  871MOL0     C20075   2.254   5.009   7.837 -0.1250 -0.0074 -0.0706
  871MOL0     C20076   2.372   5.008   7.741  0.1843 -0.1389  0.4035
  871MOL0     N20077   2.488   5.058   7.805  0.2260 -1.1911 -0.0761
  871MOL0     C20078   2.553   5.179   7.775  0.8517 -1.3019 -0.7434
  871MOL0     C20079   2.650   5.187   7.869  0.2119  0.6699 -0.7141
  871MOL0     C20080   2.747   5.297   7.884  0.0009 -0.2575 -0.3835
  871MOL0     C20081   2.891   5.237   7.899 -1.0866  0.7786 -0.9437
  871MOL0     C20082   2.931   5.228   8.049 -1.0114  0.3039  0.4815
  871MOL0     C20083   3.084   5.235   8.065 -0.2778 -0.2625  0.0660
  871MOL0     O20084   3.137   5.109   8.028 -0.1357 -0.5564 -0.4203
  871MOL0     C20085   3.278   5.112   8.036  0.0689  0.6704  0.0386
  871MOL0     C20086   3.353   5.076   7.929  0.1246 -0.2914 -0.3102
  871MOL0     C20087   3.493   5.058   7.941 -0.0219  0.2361  0.0609
  871MOL0     C20088   3.572   5.020   7.817 -0.1896 -0.5631  0.3867
  871MOL0     C20089   3.553   5.063   8.073  0.2050  1.2914  0.3600
  871MOL0     C20090   3.697   5.016   8.100 -0.4903  0.6216  0.9766
  871MOL0     O20091   3.736   5.030   8.227 -0.9383 -0.2299 -0.1696
  871MOL0     C20092   3.850   4.969   8.269 -0.5312 -0.7037 -0.1357
  871MOL0     C20093   3.945   5.048   8.329 -0.8440  0.5414  0.3730
  871MOL0     C20094   4.064   4.991   8.384 -0.0109  0.0560  0.6434
  871MOL0     C20095   4.094   4.856   8.368 -0.0572  0.6070 -0.4056
  871MOL0     O20096   4.217   4.819   8.417 -1.0628 -0.9634 -0.4123
  871MOL0     C20097   4.262   4.689   8.372 -0.7466 -0.9438  0.4588
  871MOL0     C20098   4.404   4.676   8.416 -0.1437  0.0714  0.4466
  871MOL0     C20099   4.497   4.787   8.358  0.3587 -0.0766  0.1374
  871MOL0     C20100   4.632   4.798   8.431  0.1275 -0.1742  0.1316
  871MOL0     C20101   4.729   4.903   8.369  0.3278  0.3237 -0.5124
  871MOL0     C20102   4.858   4.905   8.457 -0.0757  0.1878  0.6915
  871MOL0     C20103   4.935   5.035   8.430  0.2182 -0.2607  0.6561
  871MOL0     C20104   5.090   5.042   8.462  0.1248 -0.6135  0.3343
  871MOL0    Cl20105   5.156   5.167   8.347  0.3852  0.1646 -0.3582
  871MOL0     C20106   3.999   4.772   8.300 -1.1315  0.1951  0.2448
  871MOL0     C20107   3.877   4.829   8.255 -0.4603  0.1079  0.3824
  871MOL0     O20108   3.769   4.986   8.003  0.9696  0.1443 -0.0830
  871MOL0     C20109   3.467   5.107   8.181  0.3797 -0.1390  0.8123
  871MOL0     C20110   3.332   5.128   8.164  0.7138 -0.3289  0.0614
  871MOL0     N20111   2.642   5.069   7.948 -0.2572 -0.5783 -0.2225
  871MOL0     N20112   2.546   4.998   7.909  0.9865  0.3003 -0.8339
  871MOL0     C20113   1.536   4.464   7.464 -0.1442 -0.3630  0.1074
  871MOL0     C20114   1.427   4.380   7.461  0.0648 -0.7779  0.5000
  871MOL0     C20115   1.031   4.258   7.317 -0.2239  0.7279  0.2682
  871MOL0     C20116   1.046   4.118   7.346  0.2012 -0.5733 -0.3887
  871MOL0     C20117   0.950   4.033   7.277 -1.1031  0.9127  0.6480
  871MOL0     C20118   0.851   4.081   7.199  1.2934 -0.1931  0.2967
  871MOL0     O20119   0.766   3.992   7.142 -0.2255 -0.3143 -0.0765
  871MOL0     C20120   0.758   4.005   7.000 -0.7194  0.0575 -0.0929
  871MOL0     C20121   0.640   3.921   6.938  0.4871  0.3975  0.6653
  871MOL0     C20122   0.496   3.975   6.977  0.3391 -0.7852 -0.1790
  871MOL0     C20123   0.391   3.929   6.870 -0.1153  0.7994 -0.6855
  871MOL0     C20124   0.250   3.938   6.900 -0.2456 -0.6251  0.4762
  871MOL0     C20125   0.135   3.964   6.935  0.4704  0.4912  0.5168
  871MOL0     C20126   0.829   4.222   7.181  0.4920  0.3416  0.0275
  871MOL0     C20127   0.917   4.313   7.244 -0.2281 -0.2224 -0.3667
  871MOL0     C20128   0.887   4.454   7.221 -0.0908 -0.6696 -0.1217
  871MOL0     H20129   1.189   4.609   7.539 -1.1490 -2.1847 -1.0377
  871MOL0     H20130   1.382   4.746   7.566 -3.7084 -1.1841  0.2629
  871MOL0     H20131   1.583   4.850   7.600  2.2336  0.2760  1.0783
  871MOL0     H20132   1.532   4.855   7.435  0.6442 -0.6894  0.6610
  871MOL0     H20133   1.769   4.888   7.355 -0.5205 -0.7627 -0.3671
  871MOL0     H20134   1.702   5.007   7.466 -3.4433 -1.5003 -0.6717
  871MOL0     H20135   1.800   4.854   7.653 -1.2286 -1.9525 -0.6436
  871MOL0     H20136   1.905   4.786   7.518 -1.6983 -1.2947 -0.0597
  871MOL0     H20137   1.980   5.039   7.499  0.6518  1.6118  0.6021
  871MOL0     H20138   1.892   5.054   7.646  2.6642  1.5064  0.3883
  871MOL0     H20139   2.161   4.936   7.590  1.7971  2.6367  2.3849
  871MOL0     H20140   2.073   4.842   7.715  3.0368 -0.1241  0.0301
  871MOL0     H20141   2.137   5.137   7.721  0.4647  0.4547  0.0488
  871MOL0     H20142   2.040   5.054   7.840  0.5479  0.4617  0.1369
  871MOL0     H20143   2.243   4.922   7.902 -1.8394  0.0049 -0.2965
  871MOL0     H20144   2.262   5.087   7.914 -5.0710  0.7171  0.0546
  871MOL0     H20145   2.384   4.906   7.703  2.4842 -0.3951  1.6209
  871MOL0     H20146   2.342   5.079   7.663  1.3601  0.7363  0.7211
  871MOL0     H20147   2.530   5.250   7.696 -0.5097 -0.0449  0.7093
  871MOL0     H20148   2.718   5.357   7.971 -1.1653 -0.8700 -0.3214
  871MOL0     H20149   2.742   5.359   7.795 -0.5478 -0.4274 -0.4724
  871MOL0     H20150   2.903   5.139   7.851 -0.1012 -0.2914  1.3509
  871MOL0     H20151   2.959   5.307   7.851  0.0659 -0.4832 -1.2145
  871MOL0     H20152   2.886   5.312   8.102  1.8215  2.0497  0.2987
  871MOL0     H20153   2.893   5.134   8.090  0.6422 -0.1281  1.0781
  871MOL0     H20154   3.125   5.320   8.009  0.0406 -0.8935 -0.6775
  871MOL0     H20155   3.095   5.262   8.170 -2.2406  2.9246 -0.4029
  871MOL0     H20156   3.294   5.047   7.843 -1.2412 -0.0974  0.5402
  871MOL0     H20157   3.657   5.089   7.814 -2.1552  1.9928 -1.8749
  871MOL0     H20158   3.524   5.052   7.724 -0.0129 -0.2875  0.3885
  871MOL0     H20159   3.596   4.914   7.820 -0.1143 -0.7847 -3.3499
  871MOL0     H20160   3.929   5.155   8.334 -2.0628  0.6773 -3.4402
  871MOL0     H20161   4.139   5.049   8.437 -0.2345 -1.4985  2.8154
  871MOL0     H20162   4.203   4.616   8.429 -0.1948 -1.0470  0.8990
  871MOL0     H20163   4.257   4.683   8.263  1.7834  1.6844  0.0899
  871MOL0     H20164   4.417   4.678   8.525  0.1840  4.1484  0.4882
  871MOL0     H20165   4.433   4.578   8.376  1.4867  1.8601 -3.2274
  871MOL0     H20166   4.458   4.888   8.373  1.3101  0.5957 -1.6023
  871MOL0     H20167   4.525   4.777   8.252 -1.9307  0.0672 -0.5232
  871MOL0     H20168   4.679   4.699   8.429 -1.5464 -1.0352  1.0532
  871MOL0     H20169   4.610   4.829   8.534 -0.8143  2.7313 -0.8344
  871MOL0     H20170   4.762   4.889   8.266  0.6788  2.1874 -0.6801
  871MOL0     H20171   4.677   4.999   8.361  2.2525  1.2831 -2.7969
  871MOL0     H20172   4.921   4.821   8.428  0.5640  1.5255 -2.0810
  871MOL0     H20173   4.843   4.894   8.565  1.5180  0.6268  0.9956
  871MOL0     H20174   4.882   5.116   8.482 -2.7364 -2.7138  1.7861
  871MOL0     H20175   4.936   5.042   8.321  1.0976 -1.4243  0.5705
  871MOL0     H20176   5.125   4.942   8.432 -0.8442 -0.5061 -1.2839
  871MOL0     H20177   5.096   5.068   8.568 -1.4122  2.6454 -0.2589
  871MOL0     H20178   4.019   4.669   8.273 -2.3535 -0.2216  0.8194
  871MOL0     H20179   3.807   4.763   8.205  0.5807 -0.6444 -0.1080
  871MOL0     H20180   3.506   5.113   8.282 -2.5165 -0.0937  2.0254
  871MOL0     H20181   3.270   5.145   8.251  1.8429 -1.1005  1.0469
  871MOL0     H20182   1.627   4.411   7.438  0.6997  1.2609 -0.4154
  871MOL0     H20183   1.434   4.280   7.421  0.3258  0.0881 -1.8164
  871MOL0     H20184   1.135   4.086   7.399 -0.3415 -1.7436 -0.1435
  871MOL0     H20185   0.963   3.925   7.282 -1.2231  0.8131 -0.7874
  871MOL0     H20186   0.731   4.107   6.973  1.9185  0.5780 -1.0123
  871MOL0     H20187   0.857   3.979   6.961 -1.4555  1.5030 -3.1708
  871MOL0     H20188   0.648   3.814   6.961  1.3923  0.5120  0.9171
  871MOL0     H20189   0.659   3.930   6.831 -1.3233 -0.2193  0.2618
  871MOL0     H20190   0.458   3.943   7.074 -1.7754 -1.5846 -1.1922
  871MOL0     H20191   0.494   4.083   6.963 -1.3281 -0.2633  3.1644
  871MOL0     H20192   0.417   3.826   6.847 -1.0082 -0.1192  2.0492
  871MOL0     H20193   0.418   3.987   6.782 -0.5371  0.4430 -1.0573
  871MOL0     H20194   0.044   3.991   6.985  2.0262  2.4634  2.4440
  871MOL0     H20195   0.741   4.262   7.131 -1.0621  1.9202  3.6765
  871MOL0     H20196   0.779   4.470   7.214  0.1935  0.7169 -3.6469
  871MOL0     H20197   0.942   4.507   7.299  1.0701  1.4168 -2.2580
  871MOL0     H20198   0.924   4.500   7.129 -0.3993  2.4881  1.2080
  872MOL0     O20199  11.382   5.015   2.949 -0.1888  0.8356 -0.0495
  872MOL0     C20200  11.401   5.002   2.830 -0.9162  0.1918  0.4548
  872MOL0     O20201  11.522   4.991   2.770  0.3598  0.0976  0.4667
  872MOL0     C20202  11.622   4.983   2.864 -1.1975 -0.4381  0.5213
  872MOL0     C20203  11.701   5.100   2.896  0.5551  0.7881  0.6331
  872MOL0     C20204  11.806   5.079   2.980 -0.7111 -0.9766 -0.8066
  872MOL0     C20205  11.845   4.953   3.029 -0.1960 -0.1240 -0.4517
  872MOL0     O20206  11.949   4.946   3.117  0.1100 -0.1588  0.1163
  872MOL0     C20207  11.928   4.864   3.234 -0.0583 -0.3278  0.6443
  872MOL0     C20208  12.042   4.862   3.329 -0.3655 -0.8652  0.1834
  872MOL0     C20209  12.183   4.848   3.257  0.7647  0.0142  0.5764
  872MOL0     C20210  12.304   4.833   3.354 -0.6096  0.3527  0.2579
  872MOL0     C20211  12.436   4.859   3.285 -1.3763 -0.1306  0.5824
  872MOL0     C20212  12.572   4.813   3.357 -0.5658  0.0982 -0.4313
  872MOL0     C20213  12.610   4.912   3.462 -0.1944  0.3146  0.9735
  872MOL0     C20214  12.741   4.862   3.533  1.1818 -0.5761  0.0949
  872MOL0     N20215  12.774   4.937   3.650 -0.1787 -0.2694 -0.2824
  872MOL0     C20216  12.783   5.074   3.645 -1.1019 -0.2870  0.1447
  872MOL0     C20217  12.773   5.122   3.773 -0.6799  0.8893  0.1751
  872MOL0     C20218  12.787   5.258   3.817 -0.2255 -0.2594  0.1959
  872MOL0     C20219  12.774   5.374   3.707  0.7683  0.1891  0.2281
  872MOL0     C20220  12.747   5.518   3.754 -0.1970  0.5518  0.0451
  872MOL0     C20221  12.838   5.570   3.871 -0.1760 -1.1537  0.4104
  872MOL0     O20222  12.791   5.520   3.991  0.5261  0.0236 -0.0928
  872MOL0     C20223  12.837   5.564   4.111 -0.2420 -0.1445 -0.7190
  872MOL0     C20224  12.941   5.650   4.136 -0.1131 -0.5687  0.6498
  872MOL0     C20225  12.985   5.691   4.269  0.9026  0.1255 -0.6602
  872MOL0     C20226  13.102   5.790   4.273  0.1494 -0.9864  0.1000
  872MOL0     C20227  12.916   5.644   4.379 -0.5715  0.0236 -0.6780
  872MOL0     C20228  12.958   5.686   4.523 -0.1952  1.2549 -0.4933
  872MOL0     O20229  13.011   5.809   4.546  0.2344 -0.1137 -0.1671
  872MOL0     C20230  13.065   5.841   4.668  0.3023  0.3645  0.1667
  872MOL0     C20231  13.184   5.915   4.663 -0.0727 -0.3480 -0.5974
  872MOL0     C20232  13.234   5.972   4.787  0.0659 -0.0681  0.5349
  872MOL0     C20233  13.171   5.944   4.914  0.9198  0.4970 -0.0547
  872MOL0     O20234  13.231   5.998   5.028  0.3354 -0.3311 -0.0758
  872MOL0     C20235  13.167   5.993   5.158 -0.0492 -0.1180  0.4121
  872MOL0     C20236  13.223   6.106   5.234 -0.3168 -0.4930  0.2801
  872MOL0     C20237  13.371   6.078   5.253  0.2932 -0.5373  0.2613
  872MOL0     C20238  13.454   6.197   5.293  0.5819  1.0842  0.9700
  872MOL0     C20239  13.589   6.138   5.305 -0.8480  0.6496  0.0566
  872MOL0     C20240  13.698   6.235   5.358  0.2639 -0.4678  0.1049
  872MOL0     C20241  13.720   6.367   5.283  0.7414 -0.6533 -0.1437
  872MOL0     C20242  13.619   6.479   5.303  0.1141 -0.7495 -0.1406
  872MOL0    Cl20243  13.542   6.474   5.460  0.6042 -0.8040  0.1630
  872MOL0     C20244  13.049   5.867   4.910 -0.6251 -0.1743 -0.6136
  872MOL0     C20245  13.000   5.813   4.791 -0.5049  0.2085 -0.2780
  872MOL0     O20246  12.914   5.607   4.610  0.6570  0.6021 -0.6798
  872MOL0     C20247  12.816   5.555   4.356 -1.1251 -0.0266 -0.6101
  872MOL0     C20248  12.775   5.512   4.224 -0.2963  0.2668  0.2719
  872MOL0     N20249  12.759   5.008   3.852  0.2646 -0.7455 -0.4307
  872MOL0     N20250  12.757   4.903   3.780  0.5114  0.6714 -0.3920
  872MOL0     C20251  11.774   4.841   2.979  0.4595 -0.0668 -0.0824
  872MOL0     C20252  11.664   4.857   2.896 -1.1567  0.0140  0.2216
  872MOL0     C20253  11.282   4.967   2.743  0.6670  0.4004 -0.4075
  872MOL0     C20254  11.280   5.032   2.620 -0.7646  0.8380 -0.4646
  872MOL0     C20255  11.164   5.029   2.542 -0.4617 -0.0138 -0.1324
  872MOL0     C20256  11.053   4.949   2.589 -0.4686 -0.5903 -0.9475
  872MOL0     O20257  10.939   4.959   2.510  0.0555  0.1054 -0.6029
  872MOL0     C20258  10.812   4.946   2.578 -0.9883  0.2335  0.9345
  872MOL0     C20259  10.699   4.987   2.476  0.4990  0.8691 -0.9666
  872MOL0     C20260  10.557   4.948   2.528  0.3907 -0.1616 -0.2092
  872MOL0     C20261  10.455   5.057   2.495 -0.5777 -0.6893  1.4023
  872MOL0     C20262  10.321   5.008   2.523  0.2000  0.4776  0.0704
  872MOL0     C20263  10.212   4.982   2.577 -0.6391  1.3495  1.6791
  872MOL0     C20264  11.057   4.872   2.710 -0.8597  0.1587  0.1633
  872MOL0     C20265  11.174   4.884   2.786  0.5450 -0.0004 -0.6355
  872MOL0     C20266  11.168   4.819   2.926  0.2968  0.3901  0.2319
  872MOL0     H20267  11.656   5.196   2.871 -0.8529 -0.5130 -2.3059
  872MOL0     H20268  11.857   5.172   3.002  1.4656 -1.5753 -2.9720
  872MOL0     H20269  11.912   4.760   3.203  2.1778 -0.6211  0.2839
  872MOL0     H20270  11.850   4.897   3.302  2.0749 -1.1391  3.6652
  872MOL0     H20271  12.043   4.955   3.385  1.8591 -0.8246  0.1646
  872MOL0     H20272  12.022   4.774   3.391  0.7203 -1.8054 -0.7596
  872MOL0     H20273  12.178   4.756   3.199  1.9040  0.9759 -1.1352
  872MOL0     H20274  12.204   4.935   3.193 -1.9201  0.2299 -0.1219
  872MOL0     H20275  12.296   4.916   3.425 -2.4912 -0.2724  0.8344
  872MOL0     H20276  12.305   4.737   3.405  1.1647  0.0630 -0.2397
  872MOL0     H20277  12.451   4.967   3.277  3.7177 -0.6986 -0.9619
  872MOL0     H20278  12.428   4.821   3.183 -0.4619  1.6196 -0.1808
  872MOL0     H20279  12.547   4.720   3.410 -0.4717  0.6183  0.5448
  872MOL0     H20280  12.651   4.796   3.283 -1.0265 -1.5015 -0.6014
  872MOL0     H20281  12.525   4.918   3.531 -0.9683 -2.8528  0.4260
  872MOL0     H20282  12.637   5.009   3.418 -0.6665  0.7449  1.6082
  872MOL0     H20283  12.728   4.756   3.555 -1.0731 -0.0121  1.9245
  872MOL0     H20284  12.821   4.867   3.459  1.0838  1.3050  0.0597
  872MOL0     H20285  12.808   5.133   3.558  1.0702 -1.3534 -0.0202
  872MOL0     H20286  12.873   5.283   3.878 -0.8711 -0.6720  1.3133
  872MOL0     H20287  12.704   5.275   3.887 -0.2071  2.0040 -0.2641
  872MOL0     H20288  12.862   5.365   3.643 -0.1256  0.2983 -1.0347
  872MOL0     H20289  12.689   5.343   3.646  1.8157 -4.8064  0.8980
  872MOL0     H20290  12.751   5.593   3.675  1.8768  0.2817 -0.1657
  872MOL0     H20291  12.644   5.504   3.789  0.2089 -2.1268  0.4282
  872MOL0     H20292  12.940   5.540   3.844 -0.7324  0.1085 -3.7638
  872MOL0     H20293  12.837   5.679   3.879  3.0149 -1.1526  2.7472
  872MOL0     H20294  12.990   5.678   4.043 -1.1312 -0.0431  0.2632
  872MOL0     H20295  13.154   5.798   4.177  2.1406 -2.5220  0.9676
  872MOL0     H20296  13.176   5.747   4.342  0.6845 -2.1896 -1.1752
  872MOL0     H20297  13.064   5.888   4.301  1.2298 -0.3337 -0.6309
  872MOL0     H20298  13.232   5.938   4.569 -1.7193  2.1170 -0.9296
  872MOL0     H20299  13.323   6.032   4.806  0.1976 -0.1609  0.2176
  872MOL0     H20300  13.058   5.992   5.154 -0.0850 -2.1629  1.0654
  872MOL0     H20301  13.198   5.899   5.204  1.4902 -0.8447 -1.9488
  872MOL0     H20302  13.205   6.206   5.192  1.1875 -1.8621 -4.1544
  872MOL0     H20303  13.183   6.100   5.336  0.0746 -6.4128  0.4304
  872MOL0     H20304  13.425   6.044   5.164  2.2224  2.5984  0.0878
  872MOL0     H20305  13.383   5.999   5.328  0.7940 -0.4141  0.3124
  872MOL0     H20306  13.419   6.252   5.380 -0.9309 -2.3719  2.7462
  872MOL0     H20307  13.453   6.265   5.207 -1.2350 -0.3316 -0.2260
  872MOL0     H20308  13.583   6.059   5.380 -1.7241  0.0002 -0.6729
  872MOL0     H20309  13.636   6.113   5.209  0.1310  1.8061  0.2119
  872MOL0     H20310  13.788   6.174   5.367 -1.1349 -2.4186  1.7333
  872MOL0     H20311  13.668   6.245   5.462  2.3169 -5.1254  1.4049
  872MOL0     H20312  13.741   6.349   5.177 -0.6613  1.5513 -0.8540
  872MOL0     H20313  13.813   6.388   5.336  0.3017 -3.3637  1.9493
  872MOL0     H20314  13.541   6.476   5.227 -1.0020  2.6101  0.6980
  872MOL0     H20315  13.674   6.572   5.285  3.1945 -2.6090 -1.0906
  872MOL0     H20316  13.006   5.853   5.008 -0.0933  2.6153  0.1027
  872MOL0     H20317  12.909   5.753   4.788  0.7558 -1.8467 -4.1113
  872MOL0     H20318  12.764   5.507   4.439 -0.8138  1.0609  0.2375
  872MOL0     H20319  12.695   5.439   4.209  2.1831 -2.9972  1.7338
  872MOL0     H20320  11.792   4.738   3.008  0.8290  0.4356  1.5495
  872MOL0     H20321  11.620   4.769   2.850 -1.9728  0.4521  0.1446
  872MOL0     H20322  11.356   5.102   2.583  1.3992 -0.1539  1.8206
  872MOL0     H20323  11.160   5.088   2.451 -0.0427 -0.3255 -0.3565
  872MOL0     H20324  10.796   4.842   2.607  0.1559 -0.5889 -1.2146
  872MOL0     H20325  10.830   5.009   2.666  1.7744  0.8897  0.0044
  872MOL0     H20326  10.725   4.936   2.383 -2.4164 -1.4788 -0.6116
  872MOL0     H20327  10.696   5.093   2.446 -1.9067  1.0371 -0.3295
  872MOL0     H20328  10.534   4.851   2.483  2.6149 -0.6129 -0.5093
  872MOL0     H20329  10.568   4.952   2.636  3.1372  0.5481 -0.4394
  872MOL0     H20330  10.464   5.073   2.387  0.5315 -1.9319  1.2749
  872MOL0     H20331  10.472   5.149   2.551  0.3077 -1.0229  1.6963
  872MOL0     H20332  10.118   4.939   2.606 -0.1849 -1.2828 -0.3661
  872MOL0     H20333  10.973   4.817   2.751 -0.0487 -1.1441  0.1258
  872MOL0     H20334  11.138   4.893   3.001 -0.0677  0.1605  0.3175
  872MOL0     H20335  11.091   4.741   2.934 -0.2049  1.0030  1.7867
  872MOL0     H20336  11.259   4.762   2.945 -1.5994 -2.4526  1.4950
  873MOL0     O20337   7.903   6.309   6.097  0.0722 -0.3206  0.1912
  873MOL0     C20338   7.903   6.420   6.041  0.8199 -0.4804  0.7375
  873MOL0     O20339   7.822   6.518   6.072 -0.4470  0.4648 -0.1323
  873MOL0     C20340   7.725   6.492   6.163  0.0763 -0.5002 -0.2263
  873MOL0     C20341   7.608   6.418   6.135  0.7634 -0.4317 -0.5986
  873MOL0     C20342   7.515   6.390   6.233 -0.3574 -0.0257  0.3050
  873MOL0     C20343   7.512   6.444   6.356 -0.2518 -0.8447  0.3734
  873MOL0     O20344   7.406   6.434   6.453  1.0760  0.9263  0.6093
  873MOL0     C20345   7.285   6.494   6.397  0.4891  0.4745  0.4003
  873MOL0     C20346   7.161   6.515   6.492  0.3740 -0.6883  0.2703
  873MOL0     C20347   7.178   6.647   6.578 -0.2882 -0.3264  0.2523
  873MOL0     C20348   7.114   6.614   6.718 -0.2348 -0.2307  0.0398
  873MOL0     C20349   7.127   6.733   6.807  0.4678  0.0969  0.5877
  873MOL0     C20350   7.027   6.730   6.918 -1.0985 -0.7654 -0.2689
  873MOL0     C20351   7.055   6.606   7.010 -0.2971  0.2203 -0.3694
  873MOL0     C20352   6.932   6.576   7.091  0.8074 -0.1673 -0.8642
  873MOL0     N20353   6.954   6.462   7.186 -0.2067 -0.4269 -0.1371
  873MOL0     C20354   7.073   6.409   7.220 -0.2849 -0.0481  0.9540
  873MOL0     C20355   7.040   6.294   7.286 -0.5096 -0.7999 -0.5525
  873MOL0     C20356   7.144   6.195   7.330 -0.1033  0.4748 -0.1798
  873MOL0     C20357   7.263   6.251   7.405 -0.2694  0.1129 -1.0798
  873MOL0     C20358   7.378   6.158   7.422 -0.0532 -0.1930  0.0733
  873MOL0     C20359   7.424   6.151   7.569  0.4637  0.4894  0.1855
  873MOL0     O20360   7.549   6.075   7.584 -0.3216 -0.1964  0.3439
  873MOL0     C20361   7.665   6.140   7.581  0.5579 -0.0167  0.0422
  873MOL0     C20362   7.674   6.271   7.543  0.5214 -0.1463  0.4509
  873MOL0     C20363   7.795   6.343   7.543  0.1540  0.5587 -0.4514
  873MOL0     C20364   7.805   6.480   7.469  0.5206  0.8229 -0.4645
  873MOL0     C20365   7.910   6.284   7.607 -0.0891  0.5377 -0.9171
  873MOL0     C20366   8.045   6.343   7.636  1.6742  0.2311  0.3946
  873MOL0     O20367   8.145   6.259   7.695 -1.0743 -0.2932  0.1914
  873MOL0     C20368   8.274   6.310   7.723 -0.6001  1.5361  0.0874
  873MOL0     C20369   8.339   6.400   7.642 -0.7178 -0.9043  0.8550
  873MOL0     C20370   8.477   6.433   7.658  0.2134  0.5434  0.2709
  873MOL0     C20371   8.556   6.378   7.759  0.3467  0.2843 -0.4767
  873MOL0     O20372   8.690   6.401   7.761  0.3078 -0.4471 -0.1338
  873MOL0     C20373   8.771   6.313   7.846 -0.4346 -0.1248  0.1415
  873MOL0     C20374   8.910   6.383   7.871 -0.2551  0.2750 -0.1730
  873MOL0     C20375   8.996   6.308   7.971 -0.7521  1.0243 -0.1496
  873MOL0     C20376   9.130   6.387   7.972  0.2135 -0.5383  0.2304
  873MOL0     C20377   9.220   6.302   8.065  0.6950 -0.2786  0.2481
  873MOL0     C20378   9.370   6.349   8.075 -0.0175 -0.3059  0.1699
  873MOL0     C20379   9.431   6.261   8.184  0.2209  0.2419 -0.2235
  873MOL0     C20380   9.540   6.333   8.262 -0.0533 -0.4724 -0.3438
  873MOL0    Cl20381   9.662   6.404   8.153  0.1175  0.1919  0.4795
  873MOL0     C20382   8.484   6.291   7.844 -0.4975 -0.4649 -0.7233
  873MOL0     C20383   8.349   6.253   7.830  0.2408 -0.6582 -0.5180
  873MOL0     O20384   8.053   6.462   7.620  0.2796  0.4781  0.8913
  873MOL0     C20385   7.893   6.156   7.661  0.3346  0.5116  0.2453
  873MOL0     C20386   7.778   6.080   7.631  0.1914 -0.0153 -0.4520
  873MOL0     N20387   6.905   6.284   7.303 -0.9191 -0.5406  0.7876
  873MOL0     N20388   6.853   6.392   7.248 -0.6091  0.2852 -0.2566
  873MOL0     C20389   7.629   6.531   6.387  0.2381  0.1777 -0.7571
  873MOL0     C20390   7.732   6.553   6.293  1.1079 -0.9012 -0.3541
  873MOL0     C20391   8.004   6.444   5.931 -0.0811 -0.2242 -0.1198
  873MOL0     C20392   8.036   6.581   5.905 -0.3118 -0.4648  0.8407
  873MOL0     C20393   8.112   6.625   5.793  0.8163 -0.1159  0.4838
  873MOL0     C20394   8.167   6.525   5.704  0.0012  1.1776 -0.1902
  873MOL0     O20395   8.236   6.538   5.589 -0.0928 -0.0216 -0.1153
  873MOL0     C20396   8.269   6.667   5.537 -0.8067 -0.6900 -0.2214
  873MOL0     C20397   8.408   6.649   5.479 -0.2450  0.1118  0.2802
  873MOL0     C20398   8.443   6.756   5.369  0.3706  0.0508  0.1152
  873MOL0     C20399   8.378   6.729   5.233 -0.4078 -0.2899  0.1472
  873MOL0     C20400   8.437   6.608   5.161 -0.5203  0.2871  0.0546
  873MOL0     C20401   8.501   6.524   5.098  0.1817  0.1738 -0.4009
  873MOL0     C20402   8.138   6.390   5.732 -0.2214  0.0150 -0.1613
  873MOL0     C20403   8.059   6.352   5.843  0.5023  0.3435  0.3412
  873MOL0     C20404   8.029   6.205   5.859  0.4279  0.7667 -0.4619
  873MOL0     H20405   7.612   6.362   6.043 -1.3580  0.1484 -1.0896
  873MOL0     H20406   7.441   6.322   6.191  1.9908 -3.1529  0.8429
  873MOL0     H20407   7.248   6.418   6.326  1.2798  0.1134  0.3652
  873MOL0     H20408   7.300   6.585   6.339  1.2216  2.0035  2.8475
  873MOL0     H20409   7.071   6.526   6.430  0.0746  0.2692  0.8512
  873MOL0     H20410   7.146   6.425   6.552  0.8973 -0.5051  0.6858
  873MOL0     H20411   7.278   6.689   6.590 -1.1831  1.2532  3.3136
  873MOL0     H20412   7.114   6.728   6.542 -0.9401 -1.2656 -0.7653
  873MOL0     H20413   7.007   6.597   6.705 -0.1461 -0.6508 -0.1555
  873MOL0     H20414   7.155   6.526   6.767  0.8514  0.5038  0.4994
  873MOL0     H20415   7.103   6.820   6.744 -4.9492 -1.0480  0.5708
  873MOL0     H20416   7.228   6.749   6.844  0.7909 -0.2429 -0.1218
  873MOL0     H20417   7.042   6.829   6.962 -0.4651  0.5827 -3.2627
  873MOL0     H20418   6.922   6.731   6.888 -0.9878 -2.0030 -0.7666
  873MOL0     H20419   7.135   6.628   7.081 -0.8958  1.6847 -0.1273
  873MOL0     H20420   7.086   6.514   6.959  1.5631 -0.6383  2.0954
  873MOL0     H20421   6.899   6.664   7.146 -1.9766 -0.9250 -1.1581
  873MOL0     H20422   6.865   6.543   7.010  2.2385 -4.4769 -0.5904
  873MOL0     H20423   7.174   6.437   7.193  0.0719 -1.9065  0.1613
  873MOL0     H20424   7.167   6.147   7.234 -1.1920  2.7299 -1.6366
  873MOL0     H20425   7.106   6.115   7.395  1.8336 -0.1961  0.2021
  873MOL0     H20426   7.299   6.342   7.355  0.8646 -0.3830 -1.2177
  873MOL0     H20427   7.235   6.280   7.507 -0.4978  0.1533 -1.1531
  873MOL0     H20428   7.342   6.059   7.395 -4.8710  1.1209  0.8282
  873MOL0     H20429   7.461   6.183   7.354  1.7240 -1.8685  1.5010
  873MOL0     H20430   7.431   6.245   7.625 -0.9891  2.5440 -2.8485
  873MOL0     H20431   7.349   6.085   7.615  0.2664 -0.0536 -0.8840
  873MOL0     H20432   7.592   6.334   7.509  0.9460  1.3867  2.1291
  873MOL0     H20433   7.739   6.477   7.381 -1.5525 -2.0951  1.0174
  873MOL0     H20434   7.904   6.491   7.424  0.3830  0.0727 -0.9763
  873MOL0     H20435   7.774   6.555   7.542  0.1608 -0.9927  1.3450
  873MOL0     H20436   8.274   6.440   7.565 -0.5252 -1.2306  0.5151
  873MOL0     H20437   8.533   6.500   7.593  0.2279  0.7386  0.4845
  873MOL0     H20438   8.718   6.277   7.935 -0.2148  0.1196  0.3720
  873MOL0     H20439   8.795   6.232   7.776 -1.4939  1.4160 -2.1607
  873MOL0     H20440   8.968   6.385   7.778  1.8753 -1.0246  1.0396
  873MOL0     H20441   8.890   6.476   7.924 -0.3735  1.2738 -1.9157
  873MOL0     H20442   9.015   6.203   7.945 -0.1978  1.2880 -0.8366
  873MOL0     H20443   8.953   6.311   8.072  0.1179 -0.3940  0.2864
  873MOL0     H20444   9.107   6.482   8.022 -0.1277 -0.9124  0.8030
  873MOL0     H20445   9.172   6.407   7.873 -1.3095  3.1202  0.1762
  873MOL0     H20446   9.185   6.314   8.168 -0.3933  2.8557 -0.3689
  873MOL0     H20447   9.227   6.199   8.029  0.6455  0.2651 -1.3671
  873MOL0     H20448   9.381   6.453   8.107 -1.9211  0.2229 -0.7527
  873MOL0     H20449   9.416   6.339   7.977 -0.8216  0.6751 -0.3266
  873MOL0     H20450   9.465   6.175   8.126  0.0426 -0.0479  0.0948
  873MOL0     H20451   9.359   6.215   8.253 -0.7375  1.8479 -0.1056
  873MOL0     H20452   9.604   6.266   8.320  1.9160 -2.3827 -4.3268
  873MOL0     H20453   9.496   6.403   8.334  0.5000  0.0116 -0.4679
  873MOL0     H20454   8.532   6.235   7.924  0.9436  1.3595 -0.2518
  873MOL0     H20455   8.306   6.178   7.895  2.2390  1.3021  3.4308
  873MOL0     H20456   7.975   6.100   7.705  0.5598  2.3595  2.3680
  873MOL0     H20457   7.775   5.977   7.665  2.6256  0.1601  0.4789
  873MOL0     H20458   7.631   6.575   6.487 -0.9795  0.0497 -0.6612
  873MOL0     H20459   7.802   6.632   6.318 -0.7814  0.6649  0.2564
  873MOL0     H20460   7.987   6.658   5.965  0.2168  0.2896  0.3150
  873MOL0     H20461   8.125   6.731   5.774 -1.9264 -0.2264 -2.8768
  873MOL0     H20462   8.194   6.694   5.462 -0.0620  2.8816  0.1155
  873MOL0     H20463   8.272   6.748   5.611  0.1795  0.0610 -1.0612
  873MOL0     H20464   8.409   6.552   5.430  2.6695  0.3796 -0.3491
  873MOL0     H20465   8.490   6.649   5.551  0.7852 -1.0391 -0.8409
  873MOL0     H20466   8.413   6.855   5.405 -2.9459 -1.2965  1.4616
  873MOL0     H20467   8.552   6.759   5.353  0.3621  2.7922  0.0881
  873MOL0     H20468   8.388   6.820   5.172 -2.1236  0.6247  1.1823
  873MOL0     H20469   8.270   6.720   5.237 -0.4776 -0.5954 -1.4723
  873MOL0     H20470   8.559   6.448   5.050  1.0246  1.9190 -2.2914
  873MOL0     H20471   8.178   6.312   5.668  0.9515  0.7517 -0.3643
  873MOL0     H20472   8.079   6.134   5.793 -2.5846 -0.9978 -1.0251
  873MOL0     H20473   8.081   6.175   5.950 -2.5732 -0.5427  0.9356
  873MOL0     H20474   7.925   6.173   5.852  1.7906 -4.3080 -1.3692
  874MOL0     O20475  10.542   8.086   7.520  0.0562 -0.1415  0.0072
  874MOL0     C20476  10.595   8.121   7.625  0.3412 -0.6752 -0.3163
  874MOL0     O20477  10.678   8.047   7.701 -0.0872 -0.5108 -0.8153
  874MOL0     C20478  10.716   7.922   7.667  0.5938 -0.1680 -0.6326
  874MOL0     C20479  10.848   7.883   7.664 -0.0515 -0.9115  0.4837
  874MOL0     C20480  10.876   7.749   7.621  0.6226  0.4351 -0.1409
  874MOL0     C20481  10.772   7.655   7.599  0.5649 -0.4170 -0.2906
  874MOL0     O20482  10.802   7.527   7.567 -0.5149 -0.0118 -0.1731
  874MOL0     C20483  10.893   7.458   7.654  0.1834 -0.1717 -0.0320
  874MOL0     C20484  10.931   7.320   7.588 -0.0224  0.4507  0.2670
  874MOL0     C20485  10.987   7.340   7.437  0.8753 -0.0077 -0.7481
  874MOL0     C20486  10.906   7.262   7.330 -0.8473  0.0209  0.8525
  874MOL0     C20487  10.938   7.268   7.173 -0.5067 -0.0603  0.2677
  874MOL0     C20488  10.894   7.404   7.111 -0.5138 -0.7629 -0.0763
  874MOL0     C20489  10.912   7.394   6.959 -0.6497 -0.7774 -0.4453
  874MOL0     C20490  11.062   7.393   6.917 -0.2173  0.4065 -0.6755
  874MOL0     N20491  11.154   7.483   6.989 -0.1352  0.2612 -0.2046
  874MOL0     C20492  11.197   7.607   6.942  0.0936  0.0172 -0.3569
  874MOL0     C20493  11.299   7.641   7.026  0.3913  0.4449 -1.0979
  874MOL0     C20494  11.405   7.744   7.008  0.0817  0.5155  0.9599
  874MOL0     C20495  11.506   7.701   6.900 -0.1622  0.2969  0.5557
  874MOL0     C20496  11.587   7.819   6.850  0.2201 -0.4318 -0.1763
  874MOL0     C20497  11.680   7.777   6.739 -0.3597  0.2135  0.7055
  874MOL0     O20498  11.747   7.883   6.670 -0.0900 -0.8393 -0.0000
  874MOL0     C20499  11.833   7.852   6.572  0.2836 -0.4623  0.9281
  874MOL0     C20500  11.884   7.723   6.548 -0.2166  0.0515 -0.0241
  874MOL0     C20501  11.992   7.700   6.465  0.2665  0.5368  0.8248
  874MOL0     C20502  12.042   7.557   6.448  0.0236 -0.5714 -0.9131
  874MOL0     C20503  12.046   7.816   6.390  0.4946  0.3069  0.8311
  874MOL0     C20504  12.148   7.796   6.282  0.0849 -0.1903  1.0342
  874MOL0     O20505  12.191   7.673   6.244  0.1284 -0.1491  0.0274
  874MOL0     C20506  12.299   7.663   6.162 -0.7150  0.0523  0.3163
  874MOL0     C20507  12.428   7.696   6.204 -0.8128 -0.3005 -0.2911
  874MOL0     C20508  12.531   7.687   6.111  0.3142  0.2259 -0.6374
  874MOL0     C20509  12.504   7.625   5.983  0.2708 -0.5587  0.9885
  874MOL0     O20510  12.598   7.637   5.886  0.0393  0.2852  0.0539
  874MOL0     C20511  12.735   7.637   5.907  0.7895 -0.6953 -0.6930
  874MOL0     C20512  12.803   7.567   5.789  0.1739 -0.1936  0.7562
  874MOL0     C20513  12.775   7.640   5.655 -0.1604  0.6831 -0.5088
  874MOL0     C20514  12.871   7.585   5.554 -0.9695  0.6461  0.2962
  874MOL0     C20515  12.806   7.597   5.413  0.1482 -0.2706  0.3272
  874MOL0     C20516  12.900   7.533   5.303 -0.3669 -0.3253 -0.5153
  874MOL0     C20517  12.839   7.548   5.163 -0.2822  0.3989  0.6078
  874MOL0     C20518  12.945   7.565   5.053 -0.3180  1.6680  0.0485
  874MOL0    Cl20519  12.873   7.576   4.886  0.5258  0.0475  0.0458
  874MOL0     C20520  12.376   7.593   5.940  0.0539 -0.6406 -0.3051
  874MOL0     C20521  12.276   7.600   6.032 -0.3588 -0.5114 -0.9306
  874MOL0     O20522  12.179   7.898   6.229  0.2650  0.1518 -0.4954
  874MOL0     C20523  11.997   7.948   6.413 -0.4991  1.1825  0.5590
  874MOL0     C20524  11.885   7.964   6.498  0.8259  0.6498  0.8836
  874MOL0     N20525  11.291   7.554   7.130 -0.1143  0.7241 -0.0329
  874MOL0     N20526  11.209   7.458   7.103 -0.1254 -0.5109 -0.9488
  874MOL0     C20527  10.644   7.694   7.625 -0.7769  0.0439 -1.2088
  874MOL0     C20528  10.614   7.827   7.652  0.1786  0.2166 -0.7465
  874MOL0     C20529  10.570   8.261   7.674 -0.4161 -0.4295 -0.0396
  874MOL0     C20530  10.479   8.340   7.612 -0.2017  0.6819  0.5836
  874MOL0     C20531  10.443   8.473   7.647  0.1732 -0.1927 -0.0352
  874MOL0     C20532  10.516   8.527   7.745 -0.1251  0.1840 -0.1447
  874MOL0     O20533  10.476   8.654   7.775  0.0120 -0.7048 -0.5415
  874MOL0     C20534  10.578   8.737   7.815  0.3032  1.0504  0.1218
  874MOL0     C20535  10.534   8.884   7.795  1.1457 -0.1609 -0.5130
  874MOL0     C20536  10.633   8.985   7.860 -0.5795  0.0246 -0.5932
  874MOL0     C20537  10.591   9.129   7.836  0.9355 -0.3438  0.1733
  874MOL0     C20538  10.666   9.226   7.915 -0.8019 -0.4595  0.1124
  874MOL0     C20539  10.744   9.299   7.972 -1.2813 -0.5703 -0.2301
  874MOL0     C20540  10.617   8.455   7.809 -0.0368 -0.0127 -0.0947
  874MOL0     C20541  10.645   8.320   7.778 -0.0051  0.2993 -0.3027
  874MOL0     C20542  10.742   8.257   7.863 -0.2319  0.1580  0.8694
  874MOL0     H20543  10.929   7.955   7.676 -0.4859 -0.4311  0.5406
  874MOL0     H20544  10.974   7.713   7.593 -0.3302 -2.3846 -0.2216
  874MOL0     H20545  10.837   7.433   7.745  1.1153 -0.6265  0.4289
  874MOL0     H20546  10.987   7.508   7.676 -0.0110 -0.6569  2.0921
  874MOL0     H20547  11.021   7.284   7.638  0.3399  0.0303 -0.6611
  874MOL0     H20548  10.860   7.237   7.596  0.7233 -0.1299  0.9326
  874MOL0     H20549  10.982   7.447   7.414  0.8528  0.2780  0.5430
  874MOL0     H20550  11.090   7.303   7.434  0.6175 -0.7725 -0.5852
  874MOL0     H20551  10.917   7.158   7.363 -0.9360 -0.0816  0.5616
  874MOL0     H20552  10.804   7.300   7.342  0.1634  3.3062 -0.0988
  874MOL0     H20553  10.870   7.197   7.126 -0.6745 -0.8694  1.6565
  874MOL0     H20554  11.042   7.239   7.155 -1.2744 -0.9221 -3.4599
  874MOL0     H20555  10.787   7.419   7.126 -0.4482 -1.8057  1.7119
  874MOL0     H20556  10.945   7.488   7.159  0.9205  0.1635 -2.9875
  874MOL0     H20557  10.863   7.481   6.914  2.9402  1.3366 -0.6134
  874MOL0     H20558  10.862   7.300   6.933 -1.1873 -1.8745  3.7004
  874MOL0     H20559  11.099   7.292   6.935 -1.2344  0.2410  0.6715
  874MOL0     H20560  11.065   7.413   6.810  0.2704  0.3266 -0.6779
  874MOL0     H20561  11.193   7.655   6.845  2.9942  0.0157 -0.5680
  874MOL0     H20562  11.461   7.759   7.101  4.1440 -1.5893 -0.9143
  874MOL0     H20563  11.361   7.837   6.971  1.1573  1.2372  1.4616
  874MOL0     H20564  11.587   7.630   6.919 -0.3512 -0.8091 -2.3451
  874MOL0     H20565  11.442   7.660   6.822  0.8586  0.5224 -0.4380
  874MOL0     H20566  11.524   7.904   6.823 -0.1398 -1.1196 -1.6076
  874MOL0     H20567  11.651   7.854   6.931 -0.3827  1.4285 -0.4452
  874MOL0     H20568  11.752   7.712   6.788  0.2013  0.5553  0.3506
  874MOL0     H20569  11.629   7.713   6.666 -0.2702  2.1507 -1.1702
  874MOL0     H20570  11.850   7.639   6.607  1.7773 -0.8249 -0.0477
  874MOL0     H20571  12.035   7.514   6.348  2.7254  1.0320 -1.8998
  874MOL0     H20572  12.006   7.485   6.523  1.2056 -2.0950 -1.7644
  874MOL0     H20573  12.150   7.553   6.461  0.0516 -1.6301 -1.3365
  874MOL0     H20574  12.440   7.742   6.301 -1.4381 -2.7266  1.0123
  874MOL0     H20575  12.628   7.730   6.131  1.4871 -2.0379 -1.1438
  874MOL0     H20576  12.782   7.734   5.921  0.5478 -0.6796  0.0930
  874MOL0     H20577  12.764   7.580   5.996 -0.7125 -0.0983  0.2183
  874MOL0     H20578  12.909   7.571   5.815 -0.0286  2.2205  1.4944
  874MOL0     H20579  12.770   7.463   5.795  3.4569 -1.2823  2.0062
  874MOL0     H20580  12.807   7.745   5.658 -1.3510  1.0304  1.0978
  874MOL0     H20581  12.669   7.632   5.631 -0.1085  1.4603 -1.0220
  874MOL0     H20582  12.878   7.476   5.559 -1.5194  0.3751 -2.7284
  874MOL0     H20583  12.967   7.635   5.569 -1.2821  1.9898 -1.7075
  874MOL0     H20584  12.718   7.532   5.419  1.1494 -1.8714 -1.4837
  874MOL0     H20585  12.771   7.700   5.399 -1.9755 -0.4682  3.2221
  874MOL0     H20586  12.902   7.428   5.334 -1.8007 -0.3917 -0.5962
  874MOL0     H20587  13.001   7.576   5.307  0.7101 -2.5324 -1.7457
  874MOL0     H20588  12.763   7.627   5.158 -0.1981  0.4030 -1.4528
  874MOL0     H20589  12.803   7.448   5.134 -0.5925  0.6239  0.2153
  874MOL0     H20590  13.022   7.487   5.059 -2.5162 -0.7265 -0.8548
  874MOL0     H20591  12.996   7.657   5.081  1.7297  0.5576  0.1915
  874MOL0     H20592  12.345   7.589   5.836 -1.7341 -0.6664  0.2058
  874MOL0     H20593  12.175   7.563   6.014  0.3585 -2.7753 -0.6497
  874MOL0     H20594  12.041   8.029   6.356  2.5338 -1.0273 -0.4881
  874MOL0     H20595  11.839   8.061   6.515 -0.8588  0.2549 -1.0157
  874MOL0     H20596  10.571   7.614   7.624 -1.0688  0.1458  1.8925
  874MOL0     H20597  10.507   7.846   7.660 -0.2106 -1.9369 -0.1655
  874MOL0     H20598  10.425   8.293   7.530 -0.6958 -0.2589  1.4226
  874MOL0     H20599  10.360   8.523   7.598  0.5537 -0.8663 -1.4097
  874MOL0     H20600  10.596   8.721   7.922 -0.8744  2.4784  0.5708
  874MOL0     H20601  10.664   8.715   7.751 -0.7891  0.4608 -1.1689
  874MOL0     H20602  10.436   8.885   7.843  0.6631 -1.6736 -1.4191
  874MOL0     H20603  10.521   8.907   7.688 -1.3130  0.0233 -0.2331
  874MOL0     H20604  10.644   8.963   7.966  0.3070 -2.0920 -1.0809
  874MOL0     H20605  10.728   8.972   7.808 -0.0241  2.2075 -0.2336
  874MOL0     H20606  10.485   9.151   7.851  1.2848  0.7117  1.2363
  874MOL0     H20607  10.607   9.155   7.731  0.2370  1.8432  0.5583
  874MOL0     H20608  10.816   9.367   8.011  0.2716 -2.0375 -0.4383
  874MOL0     H20609  10.688   8.498   7.879  1.2684  2.7101 -2.8363
  874MOL0     H20610  10.702   8.162   7.900  0.8333 -1.0794 -0.9955
  874MOL0     H20611  10.830   8.244   7.800 -1.9730  0.6702 -1.8188
  874MOL0     H20612  10.768   8.317   7.950  1.8157 -2.0983  1.9447
  875MOL0     O20613   8.582   9.919   4.821 -0.5345 -0.8648  0.0310
  875MOL0     C20614   8.541   9.936   4.707 -0.2379  0.9018  0.6796
  875MOL0     O20615   8.559  10.041   4.630  0.0191  0.2892 -0.0300
  875MOL0     C20616   8.663  10.124   4.660  1.1252 -0.1984  0.1231
  875MOL0     C20617   8.687  10.226   4.757  0.9399 -0.4870  0.0766
  875MOL0     C20618   8.811  10.291   4.769  0.6270  0.4563 -0.0977
  875MOL0     C20619   8.897  10.280   4.666 -0.3061 -0.9343 -0.3715
  875MOL0     O20620   9.005  10.366   4.676 -0.4765  0.2290  0.0221
  875MOL0     C20621   9.101  10.374   4.567  0.0650  0.2871  0.0732
  875MOL0     C20622   9.197  10.491   4.588 -0.4996  0.3634 -0.5805
  875MOL0     C20623   9.268  10.528   4.452  0.2944  0.6329 -0.6342
  875MOL0     C20624   9.375  10.426   4.408 -0.7461  0.6996 -0.5294
  875MOL0     C20625   9.446  10.464   4.283  0.3408 -0.8658  0.5986
  875MOL0     C20626   9.562  10.371   4.265  0.1308  0.1551  0.4360
  875MOL0     C20627   9.654  10.382   4.142  0.0836 -1.3631  0.3396
  875MOL0     C20628   9.724  10.519   4.146 -0.4329  0.7116 -0.1258
  875MOL0     N20629   9.815  10.535   4.031  0.9574 -0.8458  0.1799
  875MOL0     C20630   9.937  10.599   4.028 -0.0839  0.5671 -0.8872
  875MOL0     C20631   9.972  10.604   3.896 -0.3424  0.2329  0.6545
  875MOL0     C20632  10.112  10.651   3.853 -0.2651 -0.2219  0.1345
  875MOL0     C20633  10.120  10.723   3.722 -0.3103  0.4809  0.7023
  875MOL0     C20634  10.261  10.783   3.696 -0.6651  0.4097  0.1251
  875MOL0     C20635  10.246  10.907   3.604 -0.1409 -0.6375 -0.0249
  875MOL0     O20636  10.335  10.920   3.498 -0.1882 -0.0156  0.1790
  875MOL0     C20637  10.457  10.980   3.518  0.0701 -0.8800 -0.8860
  875MOL0     C20638  10.535  10.984   3.408  0.0401  0.7944  0.2269
  875MOL0     C20639  10.661  11.046   3.391 -0.8162  0.3760 -0.4635
  875MOL0     C20640  10.732  11.032   3.258  0.0854  0.3307  0.4915
  875MOL0     C20641  10.725  11.109   3.507  0.8293 -0.0712  0.3065
  875MOL0     C20642  10.854  11.174   3.518 -0.7758 -0.2290  0.1749
  875MOL0     O20643  10.957  11.158   3.425  0.2722 -0.0873  0.2726
  875MOL0     C20644  11.086  11.196   3.459 -0.5914 -0.2083  0.1151
  875MOL0     C20645  11.124  11.332   3.469  0.0632 -0.1671 -0.2875
  875MOL0     C20646  11.259  11.362   3.493 -0.5855 -0.1228  0.4458
  875MOL0     C20647  11.356  11.258   3.516 -0.3810  0.4339 -0.3117
  875MOL0     O20648  11.494  11.270   3.518  0.4010  0.1063  0.4664
  875MOL0     C20649  11.548  11.397   3.465 -0.4048  0.9293 -0.3589
  875MOL0     C20650  11.601  11.482   3.581  0.7102  0.2370 -0.4032
  875MOL0     C20651  11.633  11.626   3.550  0.9857  0.3162 -0.4418
  875MOL0     C20652  11.740  11.695   3.634 -0.2657  0.0673 -1.7202
  875MOL0     C20653  11.784  11.834   3.597  0.6718 -0.0657 -0.8256
  875MOL0     C20654  11.895  11.878   3.692 -0.3005 -0.3988 -0.1134
  875MOL0     C20655  11.968  12.009   3.645 -0.3474 -0.4477  0.3460
  875MOL0     C20656  12.060  11.990   3.522 -0.4296 -0.4846  0.1948
  875MOL0    Cl20657  12.221  11.951   3.587  0.0571 -0.1916 -0.6067
  875MOL0     C20658  11.310  11.122   3.511  1.2640 -0.5405 -0.0080
  875MOL0     C20659  11.181  11.098   3.480 -0.1628 -0.2234  0.1745
  875MOL0     O20660  10.874  11.241   3.620 -0.4448  0.2083 -0.7620
  875MOL0     C20661  10.644  11.105   3.620  0.0028 -0.4527 -0.4855
  875MOL0     C20662  10.510  11.059   3.622 -0.5593  0.1630 -0.4029
  875MOL0     N20663   9.870  10.543   3.825  0.2774 -0.0430  0.5653
  875MOL0     N20664   9.776  10.503   3.904  0.6191  0.7394  0.6140
  875MOL0     C20665   8.867  10.197   4.555 -0.5545  0.2603  0.3221
  875MOL0     C20666   8.757  10.117   4.553 -0.3614 -0.2083  0.0044
  875MOL0     C20667   8.468   9.820   4.659 -0.0356  0.0311 -0.4349
  875MOL0     C20668   8.434   9.722   4.753  0.7316  0.7474 -0.5767
  875MOL0     C20669   8.369   9.605   4.710 -0.1381  0.1998  1.0879
  875MOL0     C20670   8.331   9.586   4.577  0.8140  0.3954 -0.3841
  875MOL0     O20671   8.263   9.479   4.522 -0.0382  1.2940 -0.1412
  875MOL0     C20672   8.258   9.357   4.603 -0.2211 -0.4191 -0.7515
  875MOL0     C20673   8.391   9.267   4.604  0.3893 -0.4539  0.8813
  875MOL0     C20674   8.391   9.155   4.703 -0.0116 -0.4398 -0.7033
  875MOL0     C20675   8.523   9.077   4.671 -0.0182  0.0983  0.2083
  875MOL0     C20676   8.523   8.952   4.746 -0.1553 -1.1312 -0.5641
  875MOL0     C20677   8.530   8.854   4.816 -0.9776  0.8184 -0.4549
  875MOL0     C20678   8.367   9.685   4.488 -0.8176 -0.4477  0.0156
  875MOL0     C20679   8.433   9.801   4.525  0.6719  0.1214  0.7152
  875MOL0     C20680   8.469   9.892   4.411  0.2520 -0.2034 -0.1438
  875MOL0     H20681   8.618  10.255   4.836  1.1227  2.3212 -0.6989
  875MOL0     H20682   8.829  10.349   4.859  1.5692 -2.7245  1.9078
  875MOL0     H20683   9.040  10.395   4.479 -2.3806 -0.1265  1.5484
  875MOL0     H20684   9.168  10.288   4.561  1.4749  1.4013 -0.5944
  875MOL0     H20685   9.145  10.583   4.619  0.6654  1.1105 -0.7758
  875MOL0     H20686   9.276  10.475   4.662 -2.7872 -0.1517  1.8847
  875MOL0     H20687   9.201  10.536   4.366 -0.2128  1.6214 -0.1684
  875MOL0     H20688   9.329  10.617   4.473  5.0531 -2.3788 -0.0783
  875MOL0     H20689   9.450  10.424   4.489 -1.3871 -1.0754  0.0718
  875MOL0     H20690   9.342  10.322   4.394 -0.3630  0.4155  0.5043
  875MOL0     H20691   9.478  10.566   4.306  0.6506 -1.4511  3.0056
  875MOL0     H20692   9.383  10.457   4.194 -0.3575  0.7121  0.9296
  875MOL0     H20693   9.620  10.395   4.355  0.7797  0.7370 -0.1296
  875MOL0     H20694   9.525  10.268   4.266  1.3165 -0.3640 -1.9441
  875MOL0     H20695   9.588  10.377   4.055 -2.0350  1.1988  1.6254
  875MOL0     H20696   9.728  10.302   4.148  1.7526  0.1208  0.4296
  875MOL0     H20697   9.641  10.589   4.134 -0.7207  0.8377  2.1849
  875MOL0     H20698   9.785  10.531   4.236 -0.3495 -3.2172  0.5466
  875MOL0     H20699  10.002  10.644   4.102  0.2464  0.6144 -1.2046
  875MOL0     H20700  10.173  10.561   3.846  0.4558  0.3501 -1.3798
  875MOL0     H20701  10.158  10.707   3.934  4.3331 -3.8436  0.4220
  875MOL0     H20702  10.097  10.653   3.642  0.8046  2.7749 -1.7775
  875MOL0     H20703  10.035  10.792   3.712 -0.1390  0.5683 -0.2604
  875MOL0     H20704  10.325  10.809   3.781  2.1616 -1.0885 -1.3709
  875MOL0     H20705  10.329  10.709   3.651  4.2295  3.9487  0.8248
  875MOL0     H20706  10.148  10.899   3.555 -0.3824  0.8465  0.1586
  875MOL0     H20707  10.251  11.004   3.654 -2.3060 -0.1465 -0.6360
  875MOL0     H20708  10.504  10.934   3.317 -1.6327 -0.7486  1.5621
  875MOL0     H20709  10.664  11.052   3.175  0.7302 -1.6536 -0.5807
  875MOL0     H20710  10.748  10.926   3.241 -3.0590 -0.1590 -0.0471
  875MOL0     H20711  10.824  11.090   3.247 -0.3527  0.9437 -0.0403
  875MOL0     H20712  11.050  11.410   3.455  0.9639  0.7112 -0.2283
  875MOL0     H20713  11.306  11.458   3.512  0.8983 -1.1490  2.3977
  875MOL0     H20714  11.636  11.371   3.405 -0.6163  0.3460 -0.4184
  875MOL0     H20715  11.478  11.458   3.408 -1.9378  2.7063  3.1339
  875MOL0     H20716  11.533  11.492   3.666  0.6860  2.6270 -0.6249
  875MOL0     H20717  11.696  11.435   3.608  2.6419  3.3885 -1.1626
  875MOL0     H20718  11.543  11.686   3.564  1.5137  0.7024  1.6610
  875MOL0     H20719  11.660  11.616   3.444  3.0617 -3.3437  0.2507
  875MOL0     H20720  11.824  11.626   3.643 -0.7394 -0.4650 -1.3489
  875MOL0     H20721  11.692  11.696   3.732 -0.1351 -0.3955 -1.6511
  875MOL0     H20722  11.817  11.825   3.493 -2.7488 -0.0052 -2.0399
  875MOL0     H20723  11.702  11.907   3.594 -1.4138 -2.2227  0.5831
  875MOL0     H20724  11.974  11.805   3.709  1.6727  1.1146 -2.0887
  875MOL0     H20725  11.849  11.906   3.787  1.8326 -0.3527  0.9482
  875MOL0     H20726  12.034  12.038   3.727  0.3232  0.4829 -0.4922
  875MOL0     H20727  11.899  12.093   3.629 -0.5105 -0.5905  0.3041
  875MOL0     H20728  12.085  12.085   3.474 -0.8712  0.1337  1.1557
  875MOL0     H20729  12.046  11.920   3.440  2.1764 -0.8653 -0.0268
  875MOL0     H20730  11.369  11.035   3.537 -0.7719 -1.3330  2.3556
  875MOL0     H20731  11.142  10.997   3.475 -3.0128  0.7902 -0.1819
  875MOL0     H20732  10.673  11.159   3.709  1.0794  0.5903 -1.4338
  875MOL0     H20733  10.460  11.096   3.711 -0.8479  1.7056 -1.1647
  875MOL0     H20734   8.935  10.200   4.470  1.8952 -1.0110  2.1292
  875MOL0     H20735   8.736  10.063   4.461 -0.2418 -0.9767  0.4157
  875MOL0     H20736   8.458   9.730   4.859  2.0057  2.8511 -0.9747
  875MOL0     H20737   8.359   9.535   4.792 -0.1680 -1.6030 -0.4032
  875MOL0     H20738   8.218   9.389   4.699  0.6902 -1.3442 -0.0446
  875MOL0     H20739   8.176   9.295   4.565 -0.8719  1.1810 -2.1056
  875MOL0     H20740   8.480   9.332   4.604 -1.5595  2.5594 -2.4267
  875MOL0     H20741   8.388   9.225   4.504 -2.9070 -0.2077  0.7651
  875MOL0     H20742   8.402   9.197   4.803 -1.5541 -2.6509  0.4778
  875MOL0     H20743   8.295   9.103   4.700 -0.9398  1.2362 -0.8223
  875MOL0     H20744   8.608   9.139   4.699 -0.0521  1.1895 -1.9416
  875MOL0     H20745   8.528   9.060   4.563 -1.3356  2.5540 -0.3141
  875MOL0     H20746   8.540   8.763   4.872 -1.1274  1.2750  0.3438
  875MOL0     H20747   8.338   9.673   4.384  3.0829 -2.4199 -1.0298
  875MOL0     H20748   8.576   9.911   4.409  0.1683  0.5171  1.2462
  875MOL0     H20749   8.451   9.838   4.317  1.2343 -1.0873  0.1586
  875MOL0     H20750   8.409   9.984   4.409 -2.8951 -2.1035 -1.5258
  876MOL0     O20751   5.942   7.672   5.335  0.3852  0.0995  0.8688
  876MOL0     C20752   5.890   7.737   5.256  0.1209 -0.5840  0.2848
  876MOL0     O20753   5.961   7.804   5.163 -0.0677  0.0138  0.3263
  876MOL0     C20754   6.086   7.781   5.135 -0.6011  0.5533  0.2276
  876MOL0     C20755   6.195   7.825   5.211  0.3626  1.0058 -0.0476
  876MOL0     C20756   6.326   7.779   5.184  0.3845 -0.4180 -0.3446
  876MOL0     C20757   6.346   7.692   5.074 -0.8883 -0.5093 -0.4197
  876MOL0     O20758   6.470   7.645   5.033  0.8261  0.0886  0.1668
  876MOL0     C20759   6.596   7.714   5.062 -0.8382 -0.7884  0.0325
  876MOL0     C20760   6.659   7.741   4.924 -0.5211 -0.1473  0.8614
  876MOL0     C20761   6.608   7.866   4.855 -0.0734  0.3874  0.3250
  876MOL0     C20762   6.701   7.903   4.746  0.0549  0.0800 -0.2017
  876MOL0     C20763   6.660   8.031   4.676  0.2484  0.6209  0.4248
  876MOL0     C20764   6.743   8.032   4.547  0.1563 -0.1044  0.5596
  876MOL0     C20765   6.891   8.058   4.564  0.0240  0.8101  1.1780
  876MOL0     C20766   6.903   8.206   4.577  0.1220  0.0991  0.2453
  876MOL0     N20767   7.049   8.245   4.587 -0.0438  0.1281  0.3793
  876MOL0     C20768   7.106   8.279   4.702 -0.6130  0.1641  0.5002
  876MOL0     C20769   7.238   8.310   4.676  0.9021 -0.2859 -1.2143
  876MOL0     C20770   7.336   8.343   4.791 -0.0466 -0.3562  0.0038
  876MOL0     C20771   7.453   8.241   4.819  1.0193  0.9521 -0.2996
  876MOL0     C20772   7.529   8.304   4.936 -0.2829 -0.7240  0.0052
  876MOL0     C20773   7.639   8.203   4.974  0.2460 -0.8780 -0.0344
  876MOL0     O20774   7.757   8.268   5.023 -0.6131 -0.1111 -0.0728
  876MOL0     C20775   7.743   8.335   5.142  0.2946 -0.3836 -0.1110
  876MOL0     C20776   7.629   8.323   5.228 -0.3072  0.4648 -0.3667
  876MOL0     C20777   7.632   8.382   5.357  0.1656  0.2522  1.0884
  876MOL0     C20778   7.523   8.354   5.462 -0.2434  0.8473  0.0393
  876MOL0     C20779   7.748   8.455   5.400  0.8573 -0.0192  1.2532
  876MOL0     C20780   7.746   8.524   5.530  0.2468  0.0027 -0.7142
  876MOL0     O20781   7.847   8.492   5.618  0.7639  0.1208  0.7182
  876MOL0     C20782   7.833   8.553   5.738 -0.2667 -0.2508 -0.5578
  876MOL0     C20783   7.941   8.617   5.791  0.0714 -0.1948 -1.7743
  876MOL0     C20784   7.940   8.676   5.917  0.3028  0.0510 -0.0250
  876MOL0     C20785   7.835   8.650   6.000 -1.2932 -0.0234  0.0052
  876MOL0     O20786   7.827   8.693   6.127 -0.1211 -0.2284 -0.7659
  876MOL0     C20787   7.947   8.697   6.211 -0.6259  0.4374 -0.1120
  876MOL0     C20788   7.986   8.557   6.233 -0.7125 -0.7322 -0.4882
  876MOL0     C20789   7.878   8.488   6.306  0.5806 -0.2841 -0.1831
  876MOL0     C20790   7.902   8.348   6.364 -0.5095  0.4815  0.3784
  876MOL0     C20791   7.782   8.292   6.435 -0.4664 -0.9277  0.3139
  876MOL0     C20792   7.744   8.355   6.562  0.2134 -0.3063 -0.0299
  876MOL0     C20793   7.621   8.284   6.626  0.1234  0.0341 -1.0388
  876MOL0     C20794   7.627   8.288   6.778  1.1537 -0.0201  0.1865
  876MOL0    Cl20795   7.663   8.454   6.831  0.1627  0.1480  0.0353
  876MOL0     C20796   7.732   8.572   5.957  0.5035  0.2388 -0.4933
  876MOL0     C20797   7.727   8.527   5.827 -0.2674 -0.1223 -0.3675
  876MOL0     O20798   7.649   8.596   5.550  0.4985  0.1230  0.2527
  876MOL0     C20799   7.849   8.477   5.305 -0.2815  1.5771 -0.9450
  876MOL0     C20800   7.852   8.415   5.182 -0.4038 -0.7307 -0.4302
  876MOL0     N20801   7.250   8.303   4.539 -0.4887  1.0272 -0.0142
  876MOL0     N20802   7.136   8.274   4.482  0.3301  0.1529  0.0942
  876MOL0     C20803   6.241   7.643   4.999  0.6984 -0.3798 -0.6196
  876MOL0     C20804   6.105   7.684   5.033 -0.9591 -0.6833  0.6561
  876MOL0     C20805   5.736   7.732   5.243  0.0251  0.0079  0.5307
  876MOL0     C20806   5.678   7.796   5.124  0.5557 -0.0458 -0.1235
  876MOL0     C20807   5.542   7.799   5.103  0.1396 -0.3263  0.6741
  876MOL0     C20808   5.458   7.732   5.195 -0.6816 -1.1601  0.1524
  876MOL0     O20809   5.324   7.724   5.184  0.0403 -0.0614 -0.3698
  876MOL0     C20810   5.251   7.785   5.077  0.8082  0.9126  0.2601
  876MOL0     C20811   5.245   7.938   5.094  0.1164  0.5048  0.3563
  876MOL0     C20812   5.162   7.968   5.220  0.6675  0.1070  1.4006
  876MOL0     C20813   5.189   8.109   5.286  0.0625 -0.0671  0.5524
  876MOL0     C20814   5.102   8.126   5.403  0.6085  0.1085  0.6500
  876MOL0     C20815   5.034   8.130   5.502 -0.7504  0.4759  0.1085
  876MOL0     C20816   5.508   7.662   5.304  0.2388  0.3757  0.5784
  876MOL0     C20817   5.650   7.649   5.324  0.2553  0.1108  0.0491
  876MOL0     C20818   5.689   7.561   5.446  1.0985 -0.0404 -0.2632
  876MOL0     H20819   6.175   7.890   5.296 -1.1282  0.7446 -0.1656
  876MOL0     H20820   6.417   7.800   5.239 -0.1417 -0.3109  0.5040
  876MOL0     H20821   6.663   7.642   5.110 -1.9163 -2.1189 -0.4003
  876MOL0     H20822   6.586   7.799   5.130  0.4287  0.2462 -1.0156
  876MOL0     H20823   6.768   7.749   4.923 -0.6514  2.3562  1.2891
  876MOL0     H20824   6.632   7.649   4.871 -1.8137 -0.7703  2.4899
  876MOL0     H20825   6.507   7.845   4.819 -0.6581  0.2152  1.9642
  876MOL0     H20826   6.591   7.947   4.926 -3.2651 -1.3236  1.7072
  876MOL0     H20827   6.806   7.912   4.775 -0.4459  0.5828  1.5874
  876MOL0     H20828   6.692   7.817   4.680  0.8094  1.0811 -1.6526
  876MOL0     H20829   6.683   8.114   4.743  0.5237  0.9923 -0.1176
  876MOL0     H20830   6.553   8.031   4.653  0.4917  1.6863 -0.8651
  876MOL0     H20831   6.719   7.935   4.502 -0.3244  0.7178 -1.0288
  876MOL0     H20832   6.700   8.109   4.482  1.7756  1.5544  1.3388
  876MOL0     H20833   6.946   8.016   4.479 -1.2636  0.6800  0.3942
  876MOL0     H20834   6.945   8.010   4.647 -1.1136  0.6700  1.8636
  876MOL0     H20835   6.850   8.258   4.497  1.5005  2.2615  0.6482
  876MOL0     H20836   6.852   8.244   4.665 -0.1670  0.7730 -0.2066
  876MOL0     H20837   7.065   8.270   4.802 -4.5509  0.5331 -0.8975
  876MOL0     H20838   7.275   8.365   4.879 -2.5674 -3.7650 -0.6713
  876MOL0     H20839   7.377   8.435   4.749 -1.7625 -0.6083 -2.4325
  876MOL0     H20840   7.403   8.148   4.847 -0.6945  1.7068 -0.6819
  876MOL0     H20841   7.516   8.234   4.731  3.1430 -1.1491  1.2651
  876MOL0     H20842   7.587   8.391   4.903  0.7939 -0.8072  1.5735
  876MOL0     H20843   7.474   8.344   5.021 -0.0137 -0.1527 -0.0862
  876MOL0     H20844   7.599   8.126   5.040 -1.1488 -1.6035 -1.6580
  876MOL0     H20845   7.676   8.151   4.885  0.4202  1.9943 -1.7721
  876MOL0     H20846   7.537   8.271   5.204 -0.1606  0.2479 -0.4720
  876MOL0     H20847   7.474   8.257   5.447 -0.5274  0.7826  1.3067
  876MOL0     H20848   7.454   8.439   5.465 -0.4759  0.6544  0.2370
  876MOL0     H20849   7.574   8.336   5.557 -2.5423 -0.5346  1.0954
  876MOL0     H20850   8.034   8.616   5.735  0.4208 -0.6944 -1.1990
  876MOL0     H20851   8.021   8.742   5.949  0.1396  0.3008 -0.1246
  876MOL0     H20852   8.036   8.731   6.157  1.2225 -1.4621  1.5819
  876MOL0     H20853   7.930   8.749   6.306 -1.9973  0.9340 -0.6073
  876MOL0     H20854   8.013   8.511   6.137 -2.6448 -1.7606 -0.5866
  876MOL0     H20855   8.073   8.563   6.300 -1.4496 -3.9069  0.9404
  876MOL0     H20856   7.801   8.465   6.232 -1.7095  1.5940  1.4686
  876MOL0     H20857   7.823   8.551   6.377  2.4896  0.9913  0.2573
  876MOL0     H20858   7.979   8.378   6.436  1.3845  2.3051 -2.2348
  876MOL0     H20859   7.942   8.276   6.291 -2.9472 -1.5153  0.8764
  876MOL0     H20860   7.700   8.286   6.363  2.3223 -1.3740 -3.1201
  876MOL0     H20861   7.812   8.188   6.450  2.6349  0.1426  2.4628
  876MOL0     H20862   7.732   8.462   6.540  1.9513  0.6383  2.9510
  876MOL0     H20863   7.831   8.344   6.628  0.1172  1.1156  0.3782
  876MOL0     H20864   7.616   8.179   6.597 -1.2371  0.0954 -1.0706
  876MOL0     H20865   7.530   8.340   6.602  0.8742  1.8370  0.0573
  876MOL0     H20866   7.700   8.217   6.819  1.4487  0.2781  0.1777
  876MOL0     H20867   7.539   8.261   6.837  2.6912 -2.0931  1.7479
  876MOL0     H20868   7.646   8.546   6.019  0.3543 -0.2421 -0.8962
  876MOL0     H20869   7.646   8.457   5.809 -0.0714 -0.4771  0.1053
  876MOL0     H20870   7.935   8.529   5.346  0.3701 -1.4340  1.9331
  876MOL0     H20871   7.937   8.419   5.114  0.2193 -0.1364  0.3728
  876MOL0     H20872   6.275   7.582   4.915  1.3901  0.6342 -1.1076
  876MOL0     H20873   6.027   7.642   4.969 -2.5416  0.0666  2.0165
  876MOL0     H20874   5.735   7.862   5.060  0.5599 -0.6408 -0.7421
  876MOL0     H20875   5.500   7.860   5.024 -0.4060  0.3845  1.4829
  876MOL0     H20876   5.287   7.764   4.976 -0.1446  2.5925 -0.4615
  876MOL0     H20877   5.154   7.735   5.083  0.4944  1.6116  5.6314
  876MOL0     H20878   5.211   7.980   4.999 -0.3828 -1.7485 -0.5284
  876MOL0     H20879   5.343   7.982   5.115  1.2287 -1.2927 -0.8018
  876MOL0     H20880   5.056   7.965   5.192  0.1135 -1.4570  3.3789
  876MOL0     H20881   5.180   7.897   5.301 -1.6911 -1.9552  0.2437
  876MOL0     H20882   5.172   8.173   5.200 -0.1214  0.1817  0.7722
  876MOL0     H20883   5.290   8.123   5.326 -0.2325 -0.2252  1.3854
  876MOL0     H20884   4.981   8.140   5.595 -0.0172  1.6150  0.4332
  876MOL0     H20885   5.442   7.614   5.376 -1.0784  2.0099  0.5115
  876MOL0     H20886   5.789   7.516   5.441  1.1483  0.2116 -1.9921
  876MOL0     H20887   5.677   7.619   5.538  2.0671 -1.1385  0.5888
  876MOL0     H20888   5.618   7.478   5.457  1.2068 -0.4895 -2.5687
  877MOL0     O20889   1.762   6.296   8.457 -0.0943  0.2359  0.2643
  877MOL0     C20890   1.797   6.408   8.434 -0.0251 -0.7366  0.5969
  877MOL0     O20891   1.874   6.483   8.521  0.0339 -0.1677 -0.1150
  877MOL0     C20892   1.904   6.443   8.649 -1.2493  0.4032  0.4667
  877MOL0     C20893   1.883   6.536   8.750  0.2844 -0.3838 -0.3685
  877MOL0     C20894   1.916   6.504   8.883  0.4615 -0.9041  1.1290
  877MOL0     C20895   1.982   6.388   8.914  0.2979  0.5133 -1.0712
  877MOL0     O20896   2.029   6.378   9.043 -0.3281 -0.2695  0.0445
  877MOL0     C20897   1.945   6.301   9.125 -0.3814  0.1830  1.3975
  877MOL0     C20898   1.963   6.332   9.274 -0.2064  1.0313  0.0903
  877MOL0     C20899   1.948   6.477   9.311  0.1109  0.0836 -0.1544
  877MOL0     C20900   1.806   6.525   9.305  0.0382  0.4633 -0.0239
  877MOL0     C20901   1.781   6.651   9.391 -0.2817  0.3027 -0.5157
  877MOL0     C20902   1.642   6.710   9.372  0.4414 -0.4739  0.5160
  877MOL0     C20903   1.647   6.798   9.250 -0.8611  0.1804 -0.2123
  877MOL0     C20904   1.509   6.873   9.237 -0.4108 -0.5121  0.2884
  877MOL0     N20905   1.513   6.962   9.121 -0.0224 -0.2944 -0.2040
  877MOL0     C20906   1.536   6.912   8.998  1.1050 -0.2936 -1.0971
  877MOL0     C20907   1.536   7.008   8.913  0.3221 -0.0283  0.1994
  877MOL0     C20908   1.546   7.002   8.761  0.2961  0.1921  0.2325
  877MOL0     C20909   1.553   7.146   8.688 -0.5374  0.4038  0.5420
  877MOL0     C20910   1.585   7.140   8.530 -0.5025 -0.1658  0.2525
  877MOL0     C20911   1.465   7.086   8.453  0.6206  0.2339 -0.5910
  877MOL0     O20912   1.517   7.063   8.319  0.3634  0.3200  0.2602
  877MOL0     C20913   1.425   7.034   8.221 -0.1813  0.7570 -0.8983
  877MOL0     C20914   1.425   6.911   8.159  0.2849 -1.0210  0.4130
  877MOL0     C20915   1.345   6.884   8.050 -0.8755 -0.5357  0.8449
  877MOL0     C20916   1.361   6.750   7.983 -0.1313  0.6714  1.1636
  877MOL0     C20917   1.254   6.989   8.007  0.2917 -0.6168 -0.6119
  877MOL0     C20918   1.154   6.975   7.909  0.0979 -0.0076  0.3062
  877MOL0     O20919   1.192   6.914   7.797  0.1474  0.1899 -0.2057
  877MOL0     C20920   1.091   6.865   7.717  0.8422 -0.5728  0.4395
  877MOL0     C20921   1.035   6.948   7.624 -0.1148 -0.2045  0.2016
  877MOL0     C20922   0.923   6.912   7.555 -0.7015  1.0697  0.8846
  877MOL0     C20923   0.872   6.782   7.575 -0.4501  0.3116 -0.2205
  877MOL0     O20924   0.758   6.735   7.506 -0.3244  0.1373  0.0974
  877MOL0     C20925   0.698   6.816   7.409  0.3783 -0.0180  0.3744
  877MOL0     C20926   0.565   6.753   7.366 -0.0658  0.4438  0.0401
  877MOL0     C20927   0.551   6.601   7.376  0.1573  0.0611  0.2797
  877MOL0     C20928   0.418   6.547   7.320  0.5129 -1.2029  0.8688
  877MOL0     C20929   0.406   6.394   7.318 -0.8018 -0.9350 -0.4150
  877MOL0     C20930   0.516   6.321   7.225  0.6634 -0.1297  0.2371
  877MOL0     C20931   0.510   6.164   7.257 -0.6444  0.8730  0.7978
  877MOL0     C20932   0.634   6.080   7.209  0.5551  0.0540  0.6794
  877MOL0    Cl20933   0.632   6.075   7.022 -0.1251  0.2993 -0.2069
  877MOL0     C20934   0.927   6.701   7.662 -0.2149  0.4026 -0.7102
  877MOL0     C20935   1.032   6.743   7.738 -0.0353  0.1078 -0.4771
  877MOL0     O20936   1.043   7.022   7.933 -0.6174  0.5784  0.3533
  877MOL0     C20937   1.258   7.115   8.070  0.7913 -0.7362 -0.3239
  877MOL0     C20938   1.348   7.138   8.174  0.6668  0.0422  0.1523
  877MOL0     N20939   1.523   7.121   8.982  0.1691 -0.2460 -0.4979
  877MOL0     N20940   1.505   7.093   9.107  0.5080 -0.2380  0.1692
  877MOL0     C20941   1.990   6.286   8.817  0.4527 -0.6045  0.5665
  877MOL0     C20942   1.943   6.314   8.687 -1.4750 -0.9621 -0.0620
  877MOL0     C20943   1.773   6.464   8.293  0.6135  1.2042 -0.6624
  877MOL0     C20944   1.786   6.603   8.276 -0.4265  0.2287  0.3487
  877MOL0     C20945   1.778   6.665   8.147 -1.0360 -1.3225 -0.4708
  877MOL0     C20946   1.754   6.582   8.035  0.7672  0.1863  0.0435
  877MOL0     O20947   1.743   6.621   7.900  0.6166 -0.0535 -0.2663
  877MOL0     C20948   1.758   6.760   7.853 -0.5572 -0.1918  0.0185
  877MOL0     C20949   1.706   6.753   7.706 -0.3207  0.1161 -0.1969
  877MOL0     C20950   1.712   6.881   7.626 -0.2608  0.4270 -0.1242
  877MOL0     C20951   1.628   6.994   7.678  0.1177 -0.5103 -0.7837
  877MOL0     C20952   1.652   7.116   7.597  0.6420  0.6292  0.5267
  877MOL0     C20953   1.691   7.218   7.548  0.1262  0.5223 -0.0155
  877MOL0     C20954   1.738   6.447   8.057  0.8709 -0.1814  0.4309
  877MOL0     C20955   1.753   6.379   8.183  0.2817 -0.2714  0.7817
  877MOL0     C20956   1.747   6.231   8.191 -0.2010  0.4820 -0.1047
  877MOL0     H20957   1.834   6.631   8.728 -2.8404 -1.7354  0.1508
  877MOL0     H20958   1.896   6.572   8.965  1.3174  0.1194  0.5241
  877MOL0     H20959   1.987   6.202   9.110  0.3098  0.9372 -3.3071
  877MOL0     H20960   1.839   6.309   9.098  0.4994 -0.1910 -2.9773
  877MOL0     H20961   1.887   6.264   9.314 -0.5620 -0.8988 -3.5060
  877MOL0     H20962   2.059   6.290   9.307  0.8266  2.7470 -0.5860
  877MOL0     H20963   1.986   6.494   9.412  0.1980  1.9018 -0.4559
  877MOL0     H20964   2.004   6.542   9.244 -1.3966  1.1883 -0.3945
  877MOL0     H20965   1.782   6.548   9.201 -3.6075  0.1681  0.6375
  877MOL0     H20966   1.741   6.445   9.343  2.7304 -2.5897 -1.3371
  877MOL0     H20967   1.867   6.717   9.385 -0.1191  0.1243 -0.1884
  877MOL0     H20968   1.785   6.605   9.490  0.7064 -1.7617 -1.4553
  877MOL0     H20969   1.577   6.625   9.351  1.3236 -0.9234 -0.4723
  877MOL0     H20970   1.608   6.758   9.464  1.1781 -1.8756  1.5645
  877MOL0     H20971   1.675   6.736   9.165 -0.3996 -1.9546  1.4112
  877MOL0     H20972   1.723   6.877   9.252 -1.1832  0.6476 -2.9898
  877MOL0     H20973   1.432   6.797   9.225  2.2981 -3.3813 -0.4329
  877MOL0     H20974   1.505   6.932   9.329 -1.4669 -0.4189  0.1908
  877MOL0     H20975   1.560   6.809   8.973  1.7498 -0.3195 -0.3918
  877MOL0     H20976   1.463   6.937   8.732 -1.4107  0.5820  3.6333
  877MOL0     H20977   1.634   6.940   8.743 -1.1416 -1.3108 -2.0781
  877MOL0     H20978   1.462   7.203   8.708 -2.2818 -1.4982 -1.4735
  877MOL0     H20979   1.631   7.198   8.745 -1.1170 -0.0578  1.7936
  877MOL0     H20980   1.612   7.239   8.494 -1.2677  0.4564  1.3204
  877MOL0     H20981   1.668   7.071   8.510 -0.1796  0.7683 -1.8516
  877MOL0     H20982   1.428   6.999   8.506  0.8473  1.3398  1.5066
  877MOL0     H20983   1.381   7.156   8.448  0.0489 -0.4238 -0.1741
  877MOL0     H20984   1.491   6.831   8.191 -0.1649 -1.3680  0.4897
  877MOL0     H20985   1.424   6.682   8.042 -1.3635  0.1828  1.9501
  877MOL0     H20986   1.414   6.760   7.888 -0.2028 -2.3192  0.7015
  877MOL0     H20987   1.268   6.696   7.965  1.4706 -2.4513  1.5881
  877MOL0     H20988   1.084   7.044   7.610 -2.5108  0.8389 -1.8288
  877MOL0     H20989   0.873   6.983   7.490  0.8449  0.3409 -1.1858
  877MOL0     H20990   0.663   6.910   7.452 -0.3368  0.0321 -0.2930
  877MOL0     H20991   0.770   6.839   7.330  0.0652  2.3523  0.7072
  877MOL0     H20992   0.495   6.789   7.441  2.2457  0.0157  2.5816
  877MOL0     H20993   0.523   6.790   7.272  1.9165  1.0493 -0.6468
  877MOL0     H20994   0.562   6.574   7.482  2.3504  1.0813  0.3717
  877MOL0     H20995   0.635   6.545   7.334  0.8879  2.0008 -0.9640
  877MOL0     H20996   0.412   6.568   7.213  1.4798 -0.4143  0.9491
  877MOL0     H20997   0.335   6.585   7.381 -1.7684  1.6888 -3.4988
  877MOL0     H20998   0.428   6.357   7.419  3.3132  3.4230  0.6467
  877MOL0     H20999   0.312   6.374   7.267 -0.7391 -2.0359 -0.1207
  877MOL0     H21000   0.620   6.347   7.250  1.6121 -2.1775 -1.3297
  877MOL0     H21001   0.496   6.333   7.119  3.4751  0.9109 -0.2814
  877MOL0     H21002   0.414   6.125   7.221  0.9128 -1.7167 -0.8273
  877MOL0     H21003   0.521   6.146   7.364  2.1831  0.0408  0.4243
  877MOL0     H21004   0.639   5.975   7.240 -2.0946 -0.6924 -1.0530
  877MOL0     H21005   0.726   6.128   7.244  0.9308 -0.9126  1.0541
  877MOL0     H21006   0.898   6.596   7.660  1.4991 -0.1005 -0.7361
  877MOL0     H21007   1.086   6.680   7.808 -0.1106 -2.4476 -2.5691
  877MOL0     H21008   1.198   7.202   8.047 -1.2158 -2.0852 -0.4250
  877MOL0     H21009   1.363   7.234   8.221  2.0682  0.3716 -0.8926
  877MOL0     H21010   2.020   6.186   8.848 -1.0615 -0.8069  1.4820
  877MOL0     H21011   1.947   6.241   8.607  2.8676 -1.4157  0.3438
  877MOL0     H21012   1.793   6.675   8.357 -1.6559  0.2355  0.4799
  877MOL0     H21013   1.770   6.773   8.148  1.2130 -1.1305  0.0518
  877MOL0     H21014   1.709   6.834   7.917 -3.6398 -0.1980 -2.1658
  877MOL0     H21015   1.862   6.796   7.848 -1.6435  3.3194 -0.1004
  877MOL0     H21016   1.601   6.722   7.706 -0.1314 -0.7395 -2.7493
  877MOL0     H21017   1.764   6.675   7.656  3.7208  1.3175  2.1466
  877MOL0     H21018   1.813   6.919   7.608 -0.1030 -0.6182 -1.6089
  877MOL0     H21019   1.680   6.853   7.526  0.8252  1.1983 -0.7102
  877MOL0     H21020   1.663   7.024   7.778 -0.8745 -0.8734 -0.3189
  877MOL0     H21021   1.520   6.980   7.687  0.0210  0.4090 -0.3881
  877MOL0     H21022   1.728   7.309   7.507  1.1757 -0.6282 -1.7722
  877MOL0     H21023   1.719   6.376   7.977 -0.8918  2.6383 -1.8513
  877MOL0     H21024   1.681   6.190   8.268  1.1040  2.8644  2.4808
  877MOL0     H21025   1.710   6.189   8.097 -2.4498 -2.2985  1.8583
  877MOL0     H21026   1.849   6.196   8.211 -0.1076  0.6920 -0.1978
  878MOL0     O21027   2.003   3.137   2.450  0.0082 -0.3709 -0.4395
  878MOL0     C21028   1.980   3.117   2.573 -0.9287  0.5202  0.1535
  878MOL0     O21029   2.052   3.186   2.672  0.1298 -0.0755  0.3426
  878MOL0     C21030   2.162   3.256   2.637 -0.4954 -0.0235 -0.7032
  878MOL0     C21031   2.178   3.390   2.690 -0.0928 -0.1325  0.5659
  878MOL0     C21032   2.277   3.473   2.654  0.2728  0.0337 -0.3077
  878MOL0     C21033   2.387   3.429   2.576  0.8185  0.8018 -0.8690
  878MOL0     O21034   2.483   3.506   2.524  0.1901 -0.4882  0.6962
  878MOL0     C21035   2.541   3.603   2.618 -0.6100  0.2354  1.1295
  878MOL0     C21036   2.686   3.629   2.604 -0.6116 -0.4259 -0.0176
  878MOL0     C21037   2.772   3.502   2.607  0.1931 -0.4564 -0.6541
  878MOL0     C21038   2.920   3.532   2.596  0.2874  1.3391  0.2970
  878MOL0     C21039   2.991   3.396   2.587 -0.3492  0.0888  0.0009
  878MOL0     C21040   3.116   3.395   2.504 -0.2225  0.1279  0.1158
  878MOL0     C21041   3.212   3.275   2.533 -0.3349 -0.1840  0.3335
  878MOL0     C21042   3.150   3.142   2.526  0.4516 -0.0692  0.4560
  878MOL0     N21043   3.247   3.029   2.550 -0.5907 -0.4646 -0.0059
  878MOL0     C21044   3.298   2.943   2.456  0.3244 -0.8193 -0.3924
  878MOL0     C21045   3.363   2.844   2.517  0.4213  0.4024  0.1976
  878MOL0     C21046   3.432   2.726   2.462 -0.1665  0.3350 -1.3436
  878MOL0     C21047   3.405   2.712   2.319  0.2299 -0.0582  0.1966
  878MOL0     C21048   3.484   2.591   2.266  0.3361  1.0141 -0.0180
  878MOL0     C21049   3.633   2.620   2.226 -0.8267  0.3550  0.2754
  878MOL0     O21050   3.722   2.609   2.339 -0.2753  0.3055  0.2067
  878MOL0     C21051   3.861   2.622   2.330 -0.5253 -0.1398 -0.0871
  878MOL0     C21052   3.935   2.624   2.211  0.1582 -0.6524 -0.4068
  878MOL0     C21053   4.079   2.637   2.204 -0.0322  0.1335 -0.0801
  878MOL0     C21054   4.131   2.664   2.066 -0.0364  0.3934 -0.8850
  878MOL0     C21055   4.157   2.625   2.328  0.5559  0.5126  0.9925
  878MOL0     C21056   4.306   2.615   2.337 -0.2735 -0.6612  0.5598
  878MOL0     O21057   4.362   2.606   2.461 -0.5031  0.0341  0.1143
  878MOL0     C21058   4.495   2.583   2.462 -0.1180 -0.2522 -0.4300
  878MOL0     C21059   4.528   2.452   2.479  0.3301 -0.1701  0.2539
  878MOL0     C21060   4.660   2.408   2.470 -0.0284 -0.7301 -0.5097
  878MOL0     C21061   4.763   2.499   2.455 -0.0201 -0.0597  0.1534
  878MOL0     O21062   4.892   2.471   2.467  0.2151 -0.3672 -0.4626
  878MOL0     C21063   4.935   2.362   2.377 -1.3233 -0.1210 -0.3429
  878MOL0     C21064   5.077   2.388   2.345 -0.5147 -0.7219  0.2850
  878MOL0     C21065   5.069   2.482   2.225 -0.6319  0.7067  0.6228
  878MOL0     C21066   5.215   2.488   2.183  0.2986  0.1016 -0.4773
  878MOL0     C21067   5.241   2.599   2.077  0.4616  0.2041 -0.8089
  878MOL0     C21068   5.228   2.555   1.921 -1.0469 -0.6293 -0.1716
  878MOL0     C21069   5.226   2.686   1.826 -0.4819 -0.5840 -0.2259
  878MOL0     C21070   5.367   2.759   1.815 -0.4904  0.1245 -0.1764
  878MOL0    Cl21071   5.367   2.876   1.679 -0.4359  0.0068  0.1151
  878MOL0     C21072   4.726   2.640   2.441 -0.3829 -0.4050 -0.0614
  878MOL0     C21073   4.593   2.681   2.442  0.2043  0.3504 -0.1781
  878MOL0     O21074   4.365   2.626   2.236 -0.1523  1.1340  0.2874
  878MOL0     C21075   4.075   2.590   2.442 -0.9341  0.5718  0.0313
  878MOL0     C21076   3.935   2.597   2.446 -0.2307 -0.3255  0.0118
  878MOL0     N21077   3.344   2.868   2.653 -0.2880  0.0127  0.1714
  878MOL0     N21078   3.281   2.978   2.671  0.4199 -0.5463 -0.1903
  878MOL0     C21079   2.370   3.297   2.519  0.5727 -0.3645  0.7308
  878MOL0     C21080   2.268   3.209   2.554 -0.1182  0.0157  0.6009
  878MOL0     C21081   1.883   3.017   2.611 -0.7285  0.1004 -1.1673
  878MOL0     C21082   1.790   3.053   2.714 -0.6309  0.5466  0.7856
  878MOL0     C21083   1.697   2.966   2.757 -0.3417  0.3698 -0.1749
  878MOL0     C21084   1.676   2.842   2.693  0.5610 -0.7026  0.3921
  878MOL0     O21085   1.570   2.774   2.742  0.1050  0.3946  0.3921
  878MOL0     C21086   1.565   2.627   2.726  0.5290 -0.2308  0.4404
  878MOL0     C21087   1.459   2.579   2.813  0.1791  0.7462  0.0866
  878MOL0     C21088   1.488   2.553   2.961 -0.1139 -0.3234 -0.1219
  878MOL0     C21089   1.524   2.668   3.047 -0.0396 -1.5637 -0.2271
  878MOL0     C21090   1.548   2.620   3.191  0.4293  0.3748  0.5285
  878MOL0     C21091   1.584   2.583   3.300  1.7953  0.5003  1.2447
  878MOL0     C21092   1.761   2.799   2.597  0.0975 -0.1235 -0.0519
  878MOL0     C21093   1.874   2.883   2.560  0.1332 -0.5001  0.7610
  878MOL0     C21094   1.968   2.818   2.459  0.2874 -0.3733  0.1260
  878MOL0     H21095   2.113   3.437   2.763  0.9735 -1.5251  2.4767
  878MOL0     H21096   2.284   3.576   2.690  0.6286 -0.8626  2.3815
  878MOL0     H21097   2.519   3.572   2.721 -2.0125 -0.1366  0.7444
  878MOL0     H21098   2.493   3.700   2.601 -0.7329  0.0068  0.1192
  878MOL0     H21099   2.704   3.675   2.506  0.6479  0.3039  0.5279
  878MOL0     H21100   2.723   3.689   2.687  1.8858 -0.1045 -1.2754
  878MOL0     H21101   2.750   3.445   2.697  2.0034 -1.1074 -0.5755
  878MOL0     H21102   2.732   3.440   2.526 -2.3900  1.5149 -0.9902
  878MOL0     H21103   2.948   3.586   2.505  3.6032  0.0753  0.4259
  878MOL0     H21104   2.951   3.590   2.683 -0.9584 -0.6861  2.1778
  878MOL0     H21105   2.929   3.317   2.543  0.3375 -1.5211  1.7978
  878MOL0     H21106   3.014   3.365   2.689 -0.0126 -4.6557 -1.2814
  878MOL0     H21107   3.077   3.396   2.402  0.6844  2.8036 -0.2847
  878MOL0     H21108   3.164   3.489   2.534  0.3586 -0.6650  1.7687
  878MOL0     H21109   3.260   3.302   2.627  0.8659  0.3082 -0.4021
  878MOL0     H21110   3.293   3.260   2.461 -0.9333  0.3261 -0.4490
  878MOL0     H21111   3.076   3.135   2.607  1.4192 -2.2319  1.2138
  878MOL0     H21112   3.093   3.137   2.432 -1.1926 -2.0296  1.4593
  878MOL0     H21113   3.274   2.962   2.352  1.7059 -0.5439 -0.6700
  878MOL0     H21114   3.406   2.645   2.530  0.7144  1.6740  0.6915
  878MOL0     H21115   3.539   2.732   2.480 -0.6108 -1.8385  3.6643
  878MOL0     H21116   3.299   2.693   2.300  0.9445 -3.0162 -1.6214
  878MOL0     H21117   3.443   2.804   2.275  0.7657 -0.2040  0.3428
  878MOL0     H21118   3.478   2.504   2.333 -4.1758  1.3757  0.3766
  878MOL0     H21119   3.434   2.559   2.174  5.3224 -0.3139 -2.6456
  878MOL0     H21120   3.660   2.538   2.159  0.2115  1.8998 -1.2815
  878MOL0     H21121   3.646   2.711   2.166 -0.4951 -0.2805 -0.6402
  878MOL0     H21122   3.883   2.621   2.116 -0.2577  0.6419 -0.2472
  878MOL0     H21123   4.046   2.664   1.997 -1.0671  2.6343  0.2961
  878MOL0     H21124   4.214   2.599   2.034  0.7654  0.8426  0.2296
  878MOL0     H21125   4.179   2.762   2.055 -1.6066  1.0135 -2.6301
  878MOL0     H21126   4.442   2.387   2.494  1.1656 -1.3587  0.1082
  878MOL0     H21127   4.679   2.302   2.487  3.3906 -0.4087 -1.5881
  878MOL0     H21128   4.921   2.269   2.433  0.1898 -0.1174  0.0653
  878MOL0     H21129   4.874   2.352   2.286 -0.5875 -2.9337 -0.6045
  878MOL0     H21130   5.123   2.437   2.431  0.1583  1.5613 -1.2595
  878MOL0     H21131   5.122   2.290   2.329 -1.4479 -1.7315  3.3064
  878MOL0     H21132   5.042   2.581   2.263  1.6247 -0.0922  5.0085
  878MOL0     H21133   4.999   2.444   2.150  1.1692 -0.5451 -0.5248
  878MOL0     H21134   5.264   2.393   2.158  1.0337  0.9150 -2.3442
  878MOL0     H21135   5.276   2.524   2.266  0.7153  0.3811 -0.8959
  878MOL0     H21136   5.186   2.690   2.103  0.4954  0.3463 -1.2323
  878MOL0     H21137   5.346   2.628   2.089  1.0831 -1.0682 -2.7713
  878MOL0     H21138   5.137   2.500   1.897 -0.6814 -1.0778 -0.5617
  878MOL0     H21139   5.307   2.484   1.893 -0.6378 -1.0542  1.8964
  878MOL0     H21140   5.146   2.754   1.856 -1.4801  0.3474 -4.3059
  878MOL0     H21141   5.190   2.665   1.725  1.5408 -0.7747 -0.9603
  878MOL0     H21142   5.443   2.682   1.801 -1.7415 -1.8440  2.8231
  878MOL0     H21143   5.385   2.820   1.904 -2.2668 -0.6920  0.7950
  878MOL0     H21144   4.811   2.706   2.436 -0.5506 -0.2348 -0.8147
  878MOL0     H21145   4.568   2.783   2.414  0.2451 -0.2350 -2.5787
  878MOL0     H21146   4.126   2.586   2.538  0.2325  0.9011 -0.5585
  878MOL0     H21147   3.892   2.578   2.544  2.6549  1.6791  1.8136
  878MOL0     H21148   2.428   3.271   2.431 -1.2773  0.9388 -0.9696
  878MOL0     H21149   2.267   3.116   2.499 -1.1226 -0.1395  0.8584
  878MOL0     H21150   1.789   3.149   2.765  0.5574  1.4515 -0.8155
  878MOL0     H21151   1.635   2.993   2.841 -2.1352  1.9674 -1.9268
  878MOL0     H21152   1.558   2.590   2.624 -3.7727  2.3129 -0.4500
  878MOL0     H21153   1.653   2.576   2.765  0.6554 -1.0068 -0.8046
  878MOL0     H21154   1.443   2.480   2.769  0.5234  1.4376 -1.6650
  878MOL0     H21155   1.367   2.636   2.800 -0.0330  0.5425  0.6447
  878MOL0     H21156   1.409   2.506   3.021  1.6623 -2.0100  1.0187
  878MOL0     H21157   1.571   2.482   2.967  0.2431  0.0865 -0.1472
  878MOL0     H21158   1.443   2.741   3.040  1.6888  0.3359 -1.6190
  878MOL0     H21159   1.605   2.724   3.000 -0.8170 -1.0750 -1.0059
  878MOL0     H21160   1.618   2.564   3.400  2.3977  0.3682  1.0209
  878MOL0     H21161   1.742   2.700   2.556 -3.0967 -0.3437  1.6243
  878MOL0     H21162   2.069   2.851   2.486  0.7107 -0.7799 -0.9236
  878MOL0     H21163   1.968   2.709   2.461  1.5148 -0.4222 -1.0723
  878MOL0     H21164   1.953   2.850   2.356  0.4544  1.6960  0.6896
  879MOL0     O21165   6.905   7.120   2.839  0.1630 -0.5901 -0.1095
  879MOL0     C21166   6.919   7.180   2.734 -0.0088 -0.2549 -1.1981
  879MOL0     O21167   6.985   7.136   2.622  0.0225 -0.5064  0.8455
  879MOL0     C21168   7.007   7.005   2.587  0.4101 -0.1488  0.4240
  879MOL0     C21169   6.957   6.899   2.669 -0.3060  0.7678  0.2361
  879MOL0     C21170   6.990   6.765   2.634  0.6682  0.0369  0.9603
  879MOL0     C21171   7.083   6.734   2.530 -0.4404 -0.6293  1.4724
  879MOL0     O21172   7.138   6.613   2.521  0.2228  0.0375 -0.5005
  879MOL0     C21173   7.057   6.512   2.452  0.0824  0.2876 -0.5390
  879MOL0     C21174   7.014   6.537   2.309  0.0272  0.8328  0.6424
  879MOL0     C21175   7.125   6.524   2.208 -0.3829 -0.3963  0.1397
  879MOL0     C21176   7.079   6.538   2.060  0.0333  0.3176 -0.3550
  879MOL0     C21177   7.208   6.533   1.968  0.3370  0.7780  0.6024
  879MOL0     C21178   7.282   6.387   1.964  0.4613 -0.1650 -0.5582
  879MOL0     C21179   7.409   6.389   1.879  0.3477  1.0430  0.6415
  879MOL0     C21180   7.434   6.247   1.834  0.1489  0.4163  0.2057
  879MOL0     N21181   7.552   6.203   1.750 -0.2710  0.4254 -0.7042
  879MOL0     C21182   7.668   6.151   1.803  0.4914  0.2582 -0.8695
  879MOL0     C21183   7.751   6.146   1.698  0.5175 -0.0332  0.2009
  879MOL0     C21184   7.888   6.079   1.702 -0.4215 -0.2764 -0.4219
  879MOL0     C21185   7.990   6.145   1.801 -0.0562 -0.7689 -0.0514
  879MOL0     C21186   7.992   6.302   1.808  0.0640 -0.8867 -1.1514
  879MOL0     C21187   8.114   6.363   1.876  0.0730  0.0505  0.0569
  879MOL0     O21188   8.150   6.482   1.798 -0.1131 -0.3844 -0.3433
  879MOL0     C21189   8.255   6.563   1.837  0.3665  0.3310  1.3056
  879MOL0     C21190   8.331   6.538   1.951  0.2182 -1.2725  0.3859
  879MOL0     C21191   8.429   6.631   1.992  0.3003  0.9377 -0.0573
  879MOL0     C21192   8.507   6.590   2.116  0.3357  0.0754  0.2060
  879MOL0     C21193   8.461   6.741   1.915  0.2737  0.3396  0.2212
  879MOL0     C21194   8.551   6.846   1.949  0.1172 -0.0546 -0.6549
  879MOL0     O21195   8.656   6.807   2.028 -0.2425 -0.6499 -0.1066
  879MOL0     C21196   8.730   6.909   2.072  0.0364 -0.5852 -1.3937
  879MOL0     C21197   8.862   6.933   2.046 -0.7129 -0.5926  0.3318
  879MOL0     C21198   8.913   7.050   2.101 -0.9389 -0.1747  0.9215
  879MOL0     C21199   8.851   7.143   2.182 -0.0758 -0.1208 -0.2662
  879MOL0     O21200   8.906   7.261   2.232 -0.2210 -0.0436  0.1014
  879MOL0     C21201   9.044   7.265   2.252 -0.8602  0.3940 -0.0289
  879MOL0     C21202   9.090   7.190   2.380  0.0102 -0.1008 -0.4257
  879MOL0     C21203   9.043   7.224   2.521  0.3269 -0.0407 -0.7164
  879MOL0     C21204   9.027   7.105   2.616  0.0591 -0.2603 -0.7713
  879MOL0     C21205   9.004   7.171   2.763 -0.2961  0.9342 -0.8972
  879MOL0     C21206   8.938   7.069   2.855 -0.5123 -0.6554 -0.6238
  879MOL0     C21207   8.887   7.136   2.985 -0.5372 -0.0486 -0.0824
  879MOL0     C21208   8.854   7.025   3.089 -0.5254 -0.5373 -0.2756
  879MOL0    Cl21209   8.843   7.100   3.248  0.6415  0.1016 -0.5693
  879MOL0     C21210   8.730   7.107   2.231  1.2507  1.3655  0.2519
  879MOL0     C21211   8.665   6.993   2.174 -0.5836 -0.3470 -0.7188
  879MOL0     O21212   8.523   6.960   1.912 -0.6245 -0.2497  0.3527
  879MOL0     C21213   8.385   6.764   1.797 -0.9937 -0.2177 -1.0796
  879MOL0     C21214   8.279   6.678   1.760 -0.0004  1.0266 -0.5698
  879MOL0     N21215   7.683   6.178   1.586 -0.5385 -0.1618  0.1240
  879MOL0     N21216   7.564   6.225   1.620 -0.2874 -0.6493  0.3601
  879MOL0     C21217   7.126   6.842   2.455 -0.0637 -0.3117 -0.4248
  879MOL0     C21218   7.081   6.976   2.474 -0.2446  0.5168  0.3130
  879MOL0     C21219   6.860   7.317   2.726 -0.5917 -0.4230  0.4340
  879MOL0     C21220   6.924   7.413   2.650  0.0414  0.3834  0.6444
  879MOL0     C21221   6.871   7.542   2.615 -0.0144 -0.0727 -0.2268
  879MOL0     C21222   6.739   7.564   2.653  0.3498  0.2130 -0.7834
  879MOL0     O21223   6.673   7.681   2.619  0.2074  0.1023  0.4144
  879MOL0     C21224   6.652   7.712   2.481 -0.2052  0.1967 -0.5130
  879MOL0     C21225   6.548   7.626   2.419 -0.0339 -0.5307  0.5038
  879MOL0     C21226   6.414   7.673   2.479  1.1495 -0.4970 -0.0751
  879MOL0     C21227   6.293   7.652   2.385  0.6407 -0.1036  0.8917
  879MOL0     C21228   6.174   7.611   2.450  0.6960  0.4434 -0.5605
  879MOL0     C21229   6.066   7.573   2.499 -1.0414 -0.3008 -0.5999
  879MOL0     C21230   6.671   7.468   2.736  0.3046  0.2942 -0.0966
  879MOL0     C21231   6.730   7.351   2.781 -0.0150 -0.1621 -0.2386
  879MOL0     C21232   6.644   7.261   2.858  0.3880  0.2506  0.7120
  879MOL0     H21233   6.896   6.908   2.758 -1.9618 -2.1448 -0.4526
  879MOL0     H21234   6.964   6.684   2.701 -0.6874 -1.0020 -0.7477
  879MOL0     H21235   6.967   6.513   2.514 -0.7268  2.2656 -1.6308
  879MOL0     H21236   7.097   6.412   2.468 -0.5955 -0.0641 -0.9912
  879MOL0     H21237   6.938   6.463   2.283  1.5234 -1.0182  1.2306
  879MOL0     H21238   6.978   6.640   2.300  1.3599  1.1791 -1.5156
  879MOL0     H21239   7.193   6.607   2.230 -0.7629 -0.2886  0.9256
  879MOL0     H21240   7.181   6.433   2.230 -1.3288 -0.3562  3.0129
  879MOL0     H21241   6.984   6.489   2.035  0.7685 -1.5263  0.2715
  879MOL0     H21242   7.047   6.641   2.046  1.4118  0.8491  0.2333
  879MOL0     H21243   7.277   6.613   2.000 -1.3089  1.9046  1.4946
  879MOL0     H21244   7.192   6.557   1.862  2.3646  1.3528  0.3764
  879MOL0     H21245   7.302   6.358   2.068 -3.6024  1.5540  0.9184
  879MOL0     H21246   7.212   6.313   1.925  0.7350 -2.3156  2.6800
  879MOL0     H21247   7.495   6.421   1.939  0.5467  2.5961 -0.3999
  879MOL0     H21248   7.389   6.457   1.795 -0.5478  2.9115  2.2585
  879MOL0     H21249   7.435   6.181   1.921 -0.1020  0.8683  0.5601
  879MOL0     H21250   7.351   6.219   1.769  0.2744  1.1024 -0.2592
  879MOL0     H21251   7.675   6.120   1.907 -5.1012  0.9317  0.0213
  879MOL0     H21252   7.925   6.100   1.601 -1.6905  1.6787 -0.5404
  879MOL0     H21253   7.869   5.975   1.728 -1.1201  0.0159  0.2872
  879MOL0     H21254   7.982   6.109   1.904 -0.5487 -2.0089 -0.4966
  879MOL0     H21255   8.087   6.106   1.767  0.5612  1.2096 -0.7113
  879MOL0     H21256   7.977   6.344   1.708  0.7467 -0.4885 -1.0861
  879MOL0     H21257   7.909   6.328   1.874  0.9755  0.0537 -0.3430
  879MOL0     H21258   8.088   6.401   1.975  2.4828 -0.6039  1.0203
  879MOL0     H21259   8.193   6.289   1.892 -0.6224 -0.6574  0.2791
  879MOL0     H21260   8.300   6.465   2.024 -2.4942 -1.6797 -1.0250
  879MOL0     H21261   8.533   6.676   2.179  0.4064 -0.2054  0.5599
  879MOL0     H21262   8.601   6.542   2.088 -0.6719 -1.5865 -0.4098
  879MOL0     H21263   8.454   6.526   2.187  0.6718  0.8591  1.1943
  879MOL0     H21264   8.921   6.871   1.979 -3.5816 -0.1808 -2.8002
  879MOL0     H21265   9.012   7.074   2.063 -2.1897  1.4928 -1.5270
  879MOL0     H21266   9.101   7.227   2.167  0.7822  0.3727  1.0360
  879MOL0     H21267   9.066   7.372   2.253  1.1365  0.0235 -1.1118
  879MOL0     H21268   9.081   7.084   2.354  1.1108 -0.3830  0.2707
  879MOL0     H21269   9.199   7.205   2.380 -0.2350  2.1985 -1.2896
  879MOL0     H21270   8.955   7.289   2.526 -0.9274 -1.5792 -1.8734
  879MOL0     H21271   9.127   7.276   2.568 -0.1953 -0.5004  0.7971
  879MOL0     H21272   9.111   7.035   2.619  0.0889 -0.2969 -1.7920
  879MOL0     H21273   8.936   7.051   2.588 -0.6154 -0.2314  1.2229
  879MOL0     H21274   9.097   7.211   2.804 -1.0638 -0.5613  2.6543
  879MOL0     H21275   8.933   7.254   2.766 -1.2216  0.3536 -3.5358
  879MOL0     H21276   9.004   6.986   2.883 -1.4947 -0.5206  2.4904
  879MOL0     H21277   8.849   7.027   2.807  0.6486 -3.2574 -0.6560
  879MOL0     H21278   8.807   7.205   2.957  0.3540  0.0932 -2.5072
  879MOL0     H21279   8.969   7.199   3.021 -0.1028 -1.0095  0.6860
  879MOL0     H21280   8.938   6.955   3.093  1.6900  1.8614 -1.5885
  879MOL0     H21281   8.760   6.974   3.067  0.0036 -1.9741  0.6479
  879MOL0     H21282   8.679   7.161   2.310  0.6196  0.2456  0.6323
  879MOL0     H21283   8.563   6.970   2.204 -0.5936  1.2416  0.6531
  879MOL0     H21284   8.403   6.853   1.737  0.1489 -0.8151 -1.6378
  879MOL0     H21285   8.211   6.689   1.677 -0.6678  0.9426 -0.0476
  879MOL0     H21286   7.205   6.820   2.385 -0.4713  0.2592 -1.0851
  879MOL0     H21287   7.115   7.055   2.409  0.3043 -0.5182 -0.6950
  879MOL0     H21288   7.021   7.393   2.605 -0.0152 -0.0662  0.7199
  879MOL0     H21289   6.920   7.629   2.573 -0.2127  0.8222  1.3198
  879MOL0     H21290   6.614   7.815   2.480 -0.7199  0.0158  0.0139
  879MOL0     H21291   6.745   7.701   2.424 -0.8472 -0.8364 -1.3953
  879MOL0     H21292   6.566   7.520   2.436  2.4819 -0.5956 -1.8426
  879MOL0     H21293   6.557   7.632   2.310  1.9282  1.0673  0.6974
  879MOL0     H21294   6.405   7.617   2.573  1.6271  1.7074  1.3594
  879MOL0     H21295   6.407   7.774   2.521  1.7338 -0.8393  0.8875
  879MOL0     H21296   6.309   7.578   2.307  0.8031 -1.2790  2.0204
  879MOL0     H21297   6.275   7.745   2.330 -0.4978 -0.4918  0.5673
  879MOL0     H21298   5.973   7.533   2.534 -0.9047  1.0522  1.5189
  879MOL0     H21299   6.577   7.508   2.774 -0.3080  1.3291 -2.5231
  879MOL0     H21300   6.601   7.178   2.801  1.7326  2.1117 -3.4259
  879MOL0     H21301   6.710   7.217   2.933  2.2807  0.1217 -0.9399
  879MOL0     H21302   6.561   7.312   2.906 -0.3738 -1.5313  1.3637
  880MOL0     O21303   0.358   1.891   8.194 -0.2183  0.4127  0.1622
  880MOL0     C21304   0.292   1.962   8.267 -1.3324 -0.0643  0.0886
  880MOL0     O21305   0.168   1.943   8.288 -0.1412  0.5292 -0.3350
  880MOL0     C21306   0.095   1.827   8.253  0.5874  0.4061 -0.1467
  880MOL0     C21307  -0.044   1.835   8.265  0.1576  0.4286  0.7573
  880MOL0     C21308  -0.129   1.729   8.224  0.2682  0.8134 -0.8017
  880MOL0     C21309  -0.071   1.606   8.186 -0.1382  0.4974 -0.7692
  880MOL0     O21310  -0.138   1.488   8.149 -0.1541 -0.3135  0.2672
  880MOL0     C21311  -0.272   1.463   8.194 -0.2749  0.2857  0.0589
  880MOL0     C21312  -0.380   1.503   8.091 -0.7406  0.5718 -0.4226
  880MOL0     C21313  -0.502   1.400   8.109 -0.6669 -0.1404  0.5222
  880MOL0     C21314  -0.574   1.414   8.237 -0.0831 -0.0733 -0.4204
  880MOL0     C21315  -0.699   1.322   8.227  1.2141  0.2364  0.1935
  880MOL0     C21316  -0.766   1.302   8.366  0.0068 -0.1536  0.1932
  880MOL0     C21317  -0.882   1.214   8.356  0.4049  0.7371 -0.0270
  880MOL0     C21318  -0.958   1.193   8.489 -0.4011 -0.3784  0.0303
  880MOL0     N21319  -0.886   1.111   8.577  0.2010 -0.3665 -0.3044
  880MOL0     C21320  -0.841   0.981   8.558  0.3196 -0.5420 -0.2330
  880MOL0     C21321  -0.756   0.962   8.660  0.3537 -0.1772  0.4665
  880MOL0     C21322  -0.665   0.851   8.699 -0.8092  1.0794  0.0450
  880MOL0     C21323  -0.676   0.728   8.610 -0.0213 -0.3124 -0.5381
  880MOL0     C21324  -0.560   0.629   8.630  1.0067 -0.2222  0.9550
  880MOL0     C21325  -0.582   0.499   8.573 -0.1832 -0.8978  0.2015
  880MOL0     O21326  -0.588   0.513   8.431 -0.6798 -0.1382 -0.0080
  880MOL0     C21327  -0.618   0.398   8.366 -0.4512 -0.5268 -0.2526
  880MOL0     C21328  -0.517   0.313   8.327 -0.6995 -0.5668  1.1301
  880MOL0     C21329  -0.545   0.190   8.270 -1.0086 -0.0325  0.0425
  880MOL0     C21330  -0.427   0.108   8.227 -1.0663 -0.4336  0.1865
  880MOL0     C21331  -0.681   0.168   8.229  0.8238 -0.5943 -0.2366
  880MOL0     C21332  -0.705   0.042   8.156  0.6059 -0.0247 -0.2500
  880MOL0     O21333  -0.643  -0.076   8.199  0.5736 -0.2046  0.2331
  880MOL0     C21334  -0.650  -0.169   8.109 -1.0763  0.3056 -0.4607
  880MOL0     C21335  -0.536  -0.196   8.036  0.7300 -0.1643 -0.9111
  880MOL0     C21336  -0.538  -0.307   7.955  0.4419  0.6578  0.0425
  880MOL0     C21337  -0.647  -0.394   7.942 -0.1327  0.8387  0.2657
  880MOL0     O21338  -0.632  -0.500   7.857  0.4819 -0.1609  0.4222
  880MOL0     C21339  -0.680  -0.627   7.900  0.4476  0.0290  0.2505
  880MOL0     C21340  -0.657  -0.737   7.801  0.3865  0.8283 -1.0713
  880MOL0     C21341  -0.748  -0.863   7.834  0.1501  0.3140 -0.1739
  880MOL0     C21342  -0.730  -0.969   7.727  0.0602  0.1110  0.7749
  880MOL0     C21343  -0.772  -0.917   7.592  0.6245 -0.1848 -0.0928
  880MOL0     C21344  -0.848  -1.026   7.514  0.4553  0.9713 -0.2136
  880MOL0     C21345  -0.740  -1.124   7.462 -0.1069 -0.7017  0.2107
  880MOL0     C21346  -0.799  -1.255   7.413  0.0311 -0.1972  0.1624
  880MOL0    Cl21347  -0.921  -1.224   7.289 -0.7223 -0.4515 -0.0614
  880MOL0     C21348  -0.765  -0.375   8.023 -0.0774 -0.4885 -0.3330
  880MOL0     C21349  -0.762  -0.262   8.113 -0.5551  0.2269  1.8644
  880MOL0     O21350  -0.779   0.059   8.056  0.2107 -0.4602  0.3781
  880MOL0     C21351  -0.785   0.242   8.283 -0.0470 -0.5308 -0.3159
  880MOL0     C21352  -0.753   0.349   8.358 -0.2875  0.1902 -0.6225
  880MOL0     N21353  -0.768   1.067   8.746 -1.3251  0.2575  0.5182
  880MOL0     N21354  -0.846   1.153   8.699 -0.2288 -0.6846  0.2688
  880MOL0     C21355   0.066   1.595   8.179 -0.8124 -0.1289  0.3027
  880MOL0     C21356   0.146   1.702   8.212 -0.4857  0.0228  0.3842
  880MOL0     C21357   0.355   2.069   8.346 -0.4540 -0.0376  0.1559
  880MOL0     C21358   0.270   2.145   8.431  1.0105 -1.2459  0.8527
  880MOL0     C21359   0.312   2.258   8.491 -0.0689 -0.3781  0.3445
  880MOL0     C21360   0.443   2.309   8.478  0.2378  0.6483 -0.4131
  880MOL0     O21361   0.491   2.408   8.562  0.1536 -0.1887  0.5691
  880MOL0     C21362   0.506   2.535   8.491 -0.0590  0.8930 -0.4674
  880MOL0     C21363   0.658   2.580   8.460  0.9078  0.3797  0.0378
  880MOL0     C21364   0.724   2.647   8.588  0.1444  1.1140  0.8987
  880MOL0     C21365   0.804   2.779   8.554 -0.1184 -1.2922  0.0348
  880MOL0     C21366   0.932   2.749   8.485  0.2522  0.5649  0.8405
  880MOL0     C21367   1.026   2.725   8.408  0.0722  0.1639 -0.1753
  880MOL0     C21368   0.538   2.221   8.413  0.0501  0.7938 -0.2204
  880MOL0     C21369   0.498   2.106   8.345  0.1307  0.3025 -0.3932
  880MOL0     C21370   0.613   2.043   8.274  0.2825 -0.4206  0.5825
  880MOL0     H21371  -0.089   1.926   8.304 -0.4540  0.5619 -0.2260
  880MOL0     H21372  -0.237   1.727   8.213  0.2061 -0.6605 -0.2049
  880MOL0     H21373  -0.282   1.509   8.292 -2.2070  0.1339 -0.0450
  880MOL0     H21374  -0.281   1.358   8.223  0.3525  0.8402  2.5093
  880MOL0     H21375  -0.416   1.605   8.102 -1.9468  0.6717 -4.0245
  880MOL0     H21376  -0.338   1.498   7.990  0.1573 -1.7341  0.0078
  880MOL0     H21377  -0.576   1.403   8.029 -0.2974 -1.6835  0.0839
  880MOL0     H21378  -0.460   1.299   8.099 -2.7151 -1.2210  2.0990
  880MOL0     H21379  -0.497   1.383   8.308 -2.4431 -2.0608  1.4334
  880MOL0     H21380  -0.591   1.519   8.266  2.0985 -0.7987  4.6387
  880MOL0     H21381  -0.674   1.223   8.188 -1.8774 -0.8023  0.5803
  880MOL0     H21382  -0.766   1.371   8.156  2.8406  0.8496 -0.9534
  880MOL0     H21383  -0.690   1.259   8.432  1.1508  0.8081 -0.4422
  880MOL0     H21384  -0.796   1.401   8.403 -1.5154 -0.8172  0.7900
  880MOL0     H21385  -0.856   1.117   8.312  0.9703  0.5848  0.6312
  880MOL0     H21386  -0.950   1.253   8.279  1.0243  2.9112  0.4854
  880MOL0     H21387  -0.982   1.290   8.535  2.8075  1.0376 -0.9701
  880MOL0     H21388  -1.050   1.135   8.478 -0.2881 -0.6210  0.3670
  880MOL0     H21389  -0.873   0.913   8.479  0.2856  0.3095 -0.9647
  880MOL0     H21390  -0.703   0.833   8.800 -0.0715  1.3785  0.3884
  880MOL0     H21391  -0.560   0.883   8.700 -0.3824 -0.2603  0.0537
  880MOL0     H21392  -0.777   0.694   8.634 -0.4871  0.4703 -1.3099
  880MOL0     H21393  -0.672   0.756   8.504  2.2685  1.9976  0.0659
  880MOL0     H21394  -0.473   0.671   8.579  0.7873  0.3996  1.0739
  880MOL0     H21395  -0.531   0.634   8.735 -0.9418 -1.5922  1.6177
  880MOL0     H21396  -0.489   0.441   8.580  0.0700 -1.5857 -4.7907
  880MOL0     H21397  -0.658   0.440   8.624 -2.3879  0.8430 -0.8874
  880MOL0     H21398  -0.417   0.337   8.361 -0.3767 -1.1284  0.5869
  880MOL0     H21399  -0.421   0.006   8.265 -1.1636 -0.4527  0.1507
  880MOL0     H21400  -0.330   0.156   8.243  0.1163 -3.2064  2.0778
  880MOL0     H21401  -0.431   0.087   8.119 -3.3496 -3.1684  0.6933
  880MOL0     H21402  -0.443  -0.142   8.053  0.0536  1.0898 -1.0290
  880MOL0     H21403  -0.454  -0.335   7.893  0.4651 -0.1230  0.4148
  880MOL0     H21404  -0.640  -0.650   7.999  0.9335 -2.5582 -0.4654
  880MOL0     H21405  -0.788  -0.626   7.912  0.1387  0.1802 -2.1186
  880MOL0     H21406  -0.668  -0.712   7.695 -0.5531 -1.0928 -1.4808
  880MOL0     H21407  -0.552  -0.765   7.816 -0.6005 -1.5935  3.5011
  880MOL0     H21408  -0.853  -0.834   7.841 -0.6964 -2.4495  0.0273
  880MOL0     H21409  -0.716  -0.913   7.925  1.5571 -1.2745 -1.4626
  880MOL0     H21410  -0.795  -1.050   7.761  1.7009 -0.4397  2.7983
  880MOL0     H21411  -0.627  -1.004   7.715 -0.2967 -0.4468 -0.9964
  880MOL0     H21412  -0.842  -0.837   7.616 -2.6285 -3.0026  0.5798
  880MOL0     H21413  -0.683  -0.877   7.541  0.5970  0.2029  0.1625
  880MOL0     H21414  -0.900  -0.982   7.429  1.0354 -1.2805 -1.8214
  880MOL0     H21415  -0.916  -1.085   7.577 -0.3878  1.2736 -0.8268
  880MOL0     H21416  -0.656  -1.144   7.529 -0.8517 -0.1443  1.3471
  880MOL0     H21417  -0.685  -1.086   7.375 -1.0433  2.6804  0.9205
  880MOL0     H21418  -0.842  -1.313   7.496  1.8896 -3.5540 -1.0203
  880MOL0     H21419  -0.715  -1.306   7.364 -0.9487 -2.6572  0.8806
  880MOL0     H21420  -0.861  -0.424   8.014  0.2706 -0.8820 -2.6832
  880MOL0     H21421  -0.839  -0.246   8.187 -0.1847  0.6360  2.1683
  880MOL0     H21422  -0.889   0.228   8.258 -0.3036  2.7606 -1.6461
  880MOL0     H21423  -0.819   0.427   8.395  3.2048  1.6849  3.3296
  880MOL0     H21424   0.112   1.500   8.153 -5.7366 -2.7259 -0.0349
  880MOL0     H21425   0.253   1.683   8.215 -0.4839 -0.0390 -0.0102
  880MOL0     H21426   0.162   2.131   8.431  0.7001  0.4223 -1.6526
  880MOL0     H21427   0.254   2.318   8.560 -0.1735 -1.4612  1.2183
  880MOL0     H21428   0.451   2.539   8.397 -0.2903  1.9265 -0.3014
  880MOL0     H21429   0.472   2.612   8.561 -1.6879 -1.8585  2.0373
  880MOL0     H21430   0.646   2.658   8.383  0.4155 -0.9895 -1.3157
  880MOL0     H21431   0.715   2.494   8.424 -0.2655 -0.6599  0.6134
  880MOL0     H21432   0.651   2.680   8.661 -1.9948  0.6008 -0.9075
  880MOL0     H21433   0.783   2.568   8.635 -1.1494 -1.6875 -1.7804
  880MOL0     H21434   0.848   2.816   8.647 -0.6852  0.7631 -0.4719
  880MOL0     H21435   0.745   2.866   8.524  0.6077 -0.6599  0.4048
  880MOL0     H21436   1.107   2.691   8.346 -1.5266 -2.8048 -0.8520
  880MOL0     H21437   0.641   2.232   8.445  0.1153 -0.6581  0.1493
  880MOL0     H21438   0.594   2.056   8.167  3.1630 -3.4343 -0.4389
  880MOL0     H21439   0.705   2.094   8.302 -2.0713  2.7444  3.5407
  880MOL0     H21440   0.607   1.936   8.296 -0.8425 -0.7087 -0.9229
  881MOL0     O21441   1.185   2.132   4.673  0.0538  0.0383  0.3067
  881MOL0     C21442   1.131   2.029   4.632  0.3053  0.8913 -0.2502
  881MOL0     O21443   1.189   1.946   4.543 -0.3239 -0.1427 -0.4695
  881MOL0     C21444   1.287   2.004   4.470 -0.2429  0.1962  0.9137
  881MOL0     C21445   1.264   2.030   4.335  0.6004  0.3392 -0.4234
  881MOL0     C21446   1.362   2.074   4.251  0.3666 -0.5355  0.3724
  881MOL0     C21447   1.491   2.072   4.301  0.8642 -0.5578 -0.1989
  881MOL0     O21448   1.576   2.120   4.204  1.1506 -0.2371  0.1428
  881MOL0     C21449   1.709   2.142   4.249 -0.8781 -0.0678 -0.7949
  881MOL0     C21450   1.778   2.221   4.135 -0.1318 -0.1323 -0.0082
  881MOL0     C21451   1.847   2.356   4.176 -0.4654  0.2210 -0.7576
  881MOL0     C21452   1.762   2.452   4.256 -0.5710 -0.2182 -0.2430
  881MOL0     C21453   1.616   2.466   4.223 -0.3083 -0.6204  1.0074
  881MOL0     C21454   1.543   2.546   4.315 -0.4548  0.0978 -0.2218
  881MOL0     C21455   1.391   2.515   4.323  0.1930  0.4054  0.1559
  881MOL0     C21456   1.303   2.640   4.358  0.3556  0.1792  0.7129
  881MOL0     N21457   1.159   2.593   4.352  0.0664 -0.0464 -0.1413
  881MOL0     C21458   1.085   2.520   4.433 -0.0316  0.2599 -0.6229
  881MOL0     C21459   0.958   2.525   4.385 -0.5481  0.4054 -0.5214
  881MOL0     C21460   0.843   2.472   4.459  0.0664 -0.1614  0.6503
  881MOL0     C21461   0.833   2.519   4.606  0.3528  0.3802 -0.4782
  881MOL0     C21462   0.792   2.675   4.603  0.1001 -0.3118 -0.2987
  881MOL0     C21463   0.827   2.755   4.729  0.4238 -0.0087 -0.1503
  881MOL0     O21464   0.793   2.676   4.849  0.2618 -1.0185  0.0099
  881MOL0     C21465   0.852   2.696   4.968 -0.0574 -0.2162 -0.2301
  881MOL0     C21466   0.939   2.800   5.007 -0.6160  0.0556  0.0303
  881MOL0     C21467   0.985   2.813   5.143 -0.2784  0.7466  0.0111
  881MOL0     C21468   1.065   2.934   5.178  0.6746 -0.4115 -0.2777
  881MOL0     C21469   0.943   2.719   5.237 -0.8237 -0.3114  0.3704
  881MOL0     C21470   0.972   2.716   5.382 -0.1524 -0.9851  0.4213
  881MOL0     O21471   0.936   2.615   5.466 -0.7827  0.5369  0.0794
  881MOL0     C21472   1.017   2.590   5.581  0.7678  0.7717  0.2673
  881MOL0     C21473   1.153   2.607   5.581 -0.0201  0.4870  0.3975
  881MOL0     C21474   1.220   2.601   5.700 -0.7511 -0.2497  0.5360
  881MOL0     C21475   1.163   2.565   5.822  0.4121  0.4234  0.3972
  881MOL0     O21476   1.226   2.563   5.936  0.2546  0.1245  0.6496
  881MOL0     C21477   1.205   2.441   6.016 -0.0494 -0.5080 -0.2812
  881MOL0     C21478   1.284   2.452   6.139  1.1068 -1.1782  0.6889
  881MOL0     C21479   1.242   2.578   6.214  1.0151  0.1167 -0.3151
  881MOL0     C21480   1.349   2.691   6.203  0.3857  0.3504  0.1461
  881MOL0     C21481   1.327   2.812   6.292  1.0236  0.7430 -0.3680
  881MOL0     C21482   1.324   2.787   6.443  0.4491 -0.2357  0.1377
  881MOL0     C21483   1.463   2.750   6.490  0.2590  0.3746 -0.2688
  881MOL0     C21484   1.536   2.874   6.549 -0.2304  0.5901 -0.3132
  881MOL0    Cl21485   1.674   2.812   6.655  0.0003  0.0859 -0.0015
  881MOL0     C21486   1.025   2.551   5.819 -0.0494 -0.4629  0.3004
  881MOL0     C21487   0.951   2.560   5.702  0.7119 -0.1006  0.5204
  881MOL0     O21488   1.017   2.821   5.424  0.5087  0.2763  0.1042
  881MOL0     C21489   0.861   2.618   5.192 -0.0199  0.3929 -1.1094
  881MOL0     C21490   0.813   2.607   5.064 -0.0092  0.4900 -0.6953
  881MOL0     N21491   0.962   2.605   4.273 -0.1952 -0.4201 -0.0311
  881MOL0     N21492   1.084   2.641   4.248 -0.0331 -0.1447 -0.3860
  881MOL0     C21493   1.520   2.034   4.439 -0.4630 -0.0241 -0.1496
  881MOL0     C21494   1.413   2.010   4.521  0.1823 -0.1044 -0.3214
  881MOL0     C21495   0.996   1.996   4.692  0.0617 -0.0733 -0.2305
  881MOL0     C21496   0.918   2.100   4.726  0.3378 -0.8814  1.2859
  881MOL0     C21497   0.798   2.069   4.792 -0.3841 -0.2568  0.4433
  881MOL0     C21498   0.744   1.943   4.819  0.6105 -0.7998 -0.4524
  881MOL0     O21499   0.628   1.931   4.888  0.2700  0.6149 -0.0458
  881MOL0     C21500   0.575   1.797   4.901  0.2177  0.1208 -0.4227
  881MOL0     C21501   0.443   1.789   4.976  0.5665  0.0151 -0.2369
  881MOL0     C21502   0.322   1.866   4.919  0.1785  0.0968  0.2487
  881MOL0     C21503   0.205   1.838   5.014 -0.2915  0.1754 -0.8923
  881MOL0     C21504   0.228   1.891   5.150 -0.0997 -0.6295  0.5449
  881MOL0     C21505   0.240   1.946   5.261  0.2551 -0.1345  0.5316
  881MOL0     C21506   0.829   1.834   4.778 -0.9569 -0.3809  0.5114
  881MOL0     C21507   0.951   1.864   4.717 -0.1863  0.3737  1.1390
  881MOL0     C21508   1.043   1.742   4.680  0.5998 -0.0789 -0.3206
  881MOL0     H21509   1.159   2.014   4.310 -0.0181 -1.8019  2.9024
  881MOL0     H21510   1.344   2.119   4.154 -1.3492 -0.2055  0.8097
  881MOL0     H21511   1.747   2.039   4.243 -2.2277 -0.5651 -1.1982
  881MOL0     H21512   1.722   2.184   4.349 -0.6937 -1.5327 -0.1762
  881MOL0     H21513   1.864   2.165   4.094  0.4986  1.0955 -0.3984
  881MOL0     H21514   1.726   2.230   4.039  2.9577  1.9315 -1.6803
  881MOL0     H21515   1.935   2.328   4.234 -0.0963  0.9070 -0.9661
  881MOL0     H21516   1.890   2.397   4.085 -0.3279  0.1964 -0.7036
  881MOL0     H21517   1.765   2.419   4.360  0.8407  3.4305  1.0317
  881MOL0     H21518   1.806   2.550   4.233 -0.6275 -0.5231 -1.7854
  881MOL0     H21519   1.579   2.363   4.216  2.5755 -1.6236 -0.9571
  881MOL0     H21520   1.605   2.504   4.121 -2.0882 -1.2290  0.9379
  881MOL0     H21521   1.578   2.536   4.418 -0.8779 -2.6459 -0.2875
  881MOL0     H21522   1.568   2.649   4.289  3.6148 -0.5745  0.4001
  881MOL0     H21523   1.383   2.435   4.398  3.9034  0.7516  1.1066
  881MOL0     H21524   1.362   2.476   4.225  0.0644  1.3951 -0.2138
  881MOL0     H21525   1.308   2.681   4.459 -3.3783  0.3255  0.9589
  881MOL0     H21526   1.322   2.724   4.290  2.7277 -0.6526  0.2391
  881MOL0     H21527   1.121   2.470   4.522 -0.7470  1.9485  0.6768
  881MOL0     H21528   0.853   2.363   4.459  1.2612 -0.0647  1.7294
  881MOL0     H21529   0.751   2.501   4.406 -0.2322 -1.0891  0.6329
  881MOL0     H21530   0.756   2.458   4.655 -2.1090 -0.3236 -4.7428
  881MOL0     H21531   0.922   2.502   4.666 -1.0190  2.9819  2.6668
  881MOL0     H21532   0.844   2.719   4.518 -1.1650 -1.6988 -1.8392
  881MOL0     H21533   0.685   2.687   4.586 -0.0461 -1.3269 -0.1168
  881MOL0     H21534   0.933   2.781   4.723 -0.3437  3.4475 -0.9839
  881MOL0     H21535   0.772   2.848   4.744  1.7142  0.6841  0.4853
  881MOL0     H21536   0.959   2.872   4.928 -0.6711 -2.5553 -2.5378
  881MOL0     H21537   1.150   2.919   5.245  1.9016 -1.5951 -2.0134
  881MOL0     H21538   0.992   3.009   5.209  1.7692  0.4567  0.2833
  881MOL0     H21539   1.107   2.983   5.089  3.9510  0.4134  1.5355
  881MOL0     H21540   1.210   2.626   5.490 -0.4863  1.8673  0.3636
  881MOL0     H21541   1.323   2.634   5.698 -1.7842  3.6097 -3.3504
  881MOL0     H21542   1.100   2.414   6.032 -0.4418  0.0829 -1.7251
  881MOL0     H21543   1.253   2.356   5.967  0.6336 -2.0248  2.7601
  881MOL0     H21544   1.250   2.366   6.197  2.8337 -2.9140 -0.7650
  881MOL0     H21545   1.393   2.452   6.129  0.9221 -0.6369 -2.4393
  881MOL0     H21546   1.233   2.553   6.320 -0.6138 -0.8344 -0.6406
  881MOL0     H21547   1.142   2.613   6.188 -0.0169 -2.6374 -0.3841
  881MOL0     H21548   1.349   2.728   6.100 -2.3144  0.5852  0.1588
  881MOL0     H21549   1.447   2.650   6.230 -1.0721 -2.0047  2.3817
  881MOL0     H21550   1.410   2.878   6.266  0.8399  0.8662 -0.6458
  881MOL0     H21551   1.231   2.855   6.263  0.9656  2.3779  1.9666
  881MOL0     H21552   1.247   2.711   6.461 -0.2120  0.1010 -1.0885
  881MOL0     H21553   1.286   2.874   6.498 -4.6526 -2.1668  0.2133
  881MOL0     H21554   1.521   2.703   6.410 -1.6433  1.1737 -2.2382
  881MOL0     H21555   1.453   2.678   6.572 -1.0520  1.6078  0.6987
  881MOL0     H21556   1.468   2.933   6.612 -3.0922 -2.3005 -0.3900
  881MOL0     H21557   1.572   2.928   6.461  1.7943  0.1397  0.1978
  881MOL0     H21558   0.965   2.528   5.907 -0.3152 -0.3889  0.1396
  881MOL0     H21559   0.844   2.540   5.699  0.6482 -0.9446  4.2096
  881MOL0     H21560   0.826   2.545   5.264 -1.6813  1.3028 -0.9375
  881MOL0     H21561   0.743   2.530   5.034  2.2464 -1.5899 -1.0104
  881MOL0     H21562   1.623   2.042   4.471 -1.2673  1.0266  2.4666
  881MOL0     H21563   1.434   1.991   4.626 -0.1955  2.0051  0.1885
  881MOL0     H21564   0.947   2.204   4.717  3.3239 -1.5124  2.2856
  881MOL0     H21565   0.739   2.150   4.834 -2.4236 -1.5807  0.2796
  881MOL0     H21566   0.565   1.755   4.801 -0.1407 -0.2027 -0.2510
  881MOL0     H21567   0.646   1.737   4.959 -1.9918  0.2636  2.6544
  881MOL0     H21568   0.461   1.822   5.078 -1.5880 -3.0071  1.2618
  881MOL0     H21569   0.415   1.684   4.987 -2.3054  0.9119  2.1350
  881MOL0     H21570   0.337   1.975   4.915 -1.5551  0.3257 -1.8295
  881MOL0     H21571   0.306   1.832   4.816 -1.4388 -2.5493  1.2885
  881MOL0     H21572   0.181   1.732   5.030 -1.8408  0.6649  0.3593
  881MOL0     H21573   0.115   1.886   4.976 -1.4356  0.4499  1.9088
  881MOL0     H21574   0.240   1.989   5.359 -2.0787  4.1996 -1.0807
  881MOL0     H21575   0.814   1.733   4.817 -1.7817  0.0398  1.3373
  881MOL0     H21576   0.995   1.654   4.725 -1.4908  0.6611 -0.9840
  881MOL0     H21577   1.063   1.727   4.574  1.7299 -1.4589  0.0627
  881MOL0     H21578   1.142   1.749   4.725  1.6117 -1.6305 -2.1824
  882MOL0     O21579   3.452  11.095   9.798  0.3429  1.2241  0.3931
  882MOL0     C21580   3.421  11.000   9.729  0.6136  0.1426 -0.2243
  882MOL0     O21581   3.479  10.965   9.612 -0.5162 -0.6757  0.3043
  882MOL0     C21582   3.605  11.012   9.599 -0.1441  0.3072  0.3430
  882MOL0     C21583   3.635  11.066   9.475 -0.5409  0.6190 -0.5226
  882MOL0     C21584   3.770  11.095   9.440  0.3686 -0.0865 -0.4924
  882MOL0     C21585   3.875  11.089   9.540  0.3112 -1.1214  0.3276
  882MOL0     O21586   4.004  11.142   9.520  0.6896 -0.2654  0.2786
  882MOL0     C21587   3.997  11.285   9.511  0.1731 -0.2524  0.6244
  882MOL0     C21588   4.101  11.333   9.408 -0.3701 -0.1609 -0.0503
  882MOL0     C21589   4.158  11.475   9.423 -0.2366 -0.0714  0.2534
  882MOL0     C21590   4.250  11.507   9.310  0.7929  0.0867  0.5410
  882MOL0     C21591   4.278  11.665   9.291  0.9904  0.1591 -0.4722
  882MOL0     C21592   4.308  11.744   9.423 -0.2927 -0.1242  0.1128
  882MOL0     C21593   4.445  11.719   9.485  0.0375  0.2499 -0.3711
  882MOL0     C21594   4.483  11.833   9.581 -0.6314 -0.4899 -0.7867
  882MOL0     N21595   4.611  11.786   9.642 -0.2754  0.4963 -0.5174
  882MOL0     C21596   4.607  11.705   9.754 -0.1818  0.9049  0.2411
  882MOL0     C21597   4.735  11.688   9.788  0.5160 -0.3039  0.4820
  882MOL0     C21598   4.772  11.611   9.907  0.2429  0.4051 -0.6238
  882MOL0     C21599   4.914  11.559   9.895 -0.7360  0.9684  0.3277
  882MOL0     C21600   4.934  11.426   9.981  0.4765  0.5154 -0.0687
  882MOL0     C21601   4.916  11.460  10.127 -0.2538  0.2395 -0.9202
  882MOL0     O21602   5.032  11.551  10.155  0.3608 -0.4426  0.4152
  882MOL0     C21603   5.153  11.502  10.200 -0.6414 -0.6184  0.0277
  882MOL0     C21604   5.162  11.403  10.295  0.0602 -1.1041  0.3079
  882MOL0     C21605   5.279  11.353  10.343 -0.4273 -0.2819  0.3279
  882MOL0     C21606   5.271  11.247  10.452  0.1605 -0.0666  0.8008
  882MOL0     C21607   5.409  11.403  10.289 -0.1026  0.0525  0.2897
  882MOL0     C21608   5.540  11.339  10.312 -0.6016  0.4020  0.0456
  882MOL0     O21609   5.541  11.211  10.357  0.3866 -0.2275  0.3466
  882MOL0     C21610   5.654  11.137  10.398  0.4956 -0.2766  0.3563
  882MOL0     C21611   5.785  11.162  10.342  0.9049  0.1258  0.2782
  882MOL0     C21612   5.894  11.079  10.378 -0.1098 -0.2236  0.2495
  882MOL0     C21613   5.874  10.970  10.461 -0.6988 -0.0319  1.6729
  882MOL0     O21614   5.969  10.884  10.505  0.1093 -0.2213  0.4599
  882MOL0     C21615   6.072  10.828  10.429  0.0099  0.4434  0.3227
  882MOL0     C21616   6.007  10.734  10.325 -0.5873 -0.7384 -0.3444
  882MOL0     C21617   6.130  10.658  10.257 -0.2492  0.6385 -0.0582
  882MOL0     C21618   6.103  10.574  10.136  0.0543  0.2566  0.9531
  882MOL0     C21619   6.228  10.520  10.068 -0.5076  0.3856 -0.3623
  882MOL0     C21620   6.207  10.478   9.924 -0.5156 -0.4933  0.3056
  882MOL0     C21621   6.347  10.456   9.857 -0.0744 -0.0199  0.4735
  882MOL0     C21622   6.345  10.401   9.712  0.0254 -0.3978  0.4806
  882MOL0    Cl21623   6.281  10.237   9.698 -0.0944 -0.2373  0.4450
  882MOL0     C21624   5.744  10.953  10.518 -0.2135  0.7898 -0.7599
  882MOL0     C21625   5.639  11.034  10.488 -0.5383  0.8766  0.3106
  882MOL0     O21626   5.642  11.408  10.307 -0.0107  0.4957  0.0466
  882MOL0     C21627   5.400  11.514  10.190  0.1043 -0.1694  0.3550
  882MOL0     C21628   5.274  11.559  10.151 -0.1407  0.1448  0.3639
  882MOL0     N21629   4.814  11.766   9.698 -0.6219  0.3809  0.5392
  882MOL0     N21630   4.738  11.825   9.616  0.2650 -0.4153 -0.4031
  882MOL0     C21631   3.845  11.038   9.666 -0.3747 -0.8827  0.0134
  882MOL0     C21632   3.719  10.991   9.693  0.3506 -0.2549  0.0564
  882MOL0     C21633   3.313  10.917   9.784 -0.4881 -0.5356 -0.4273
  882MOL0     C21634   3.311  10.784   9.734  0.4182  0.2812 -0.1189
  882MOL0     C21635   3.214  10.694   9.779  0.3189  0.5302  0.2693
  882MOL0     C21636   3.114  10.722   9.875  1.0625 -0.0093 -0.7908
  882MOL0     O21637   3.020  10.635   9.911  0.6039  0.2263 -0.1512
  882MOL0     C21638   3.082  10.527   9.988 -0.3589  0.1353 -0.5259
  882MOL0     C21639   2.972  10.474  10.087  0.3909  0.1976 -0.0951
  882MOL0     C21640   2.996  10.338  10.142 -0.7755  0.1967 -0.3902
  882MOL0     C21641   2.874  10.245  10.134 -0.5602 -0.3302  0.1458
  882MOL0     C21642   2.832  10.211   9.997  0.1666  0.6573 -0.3346
  882MOL0     C21643   2.805  10.201   9.885  0.5804 -0.7539  0.6187
  882MOL0     C21644   3.125  10.844   9.934 -0.2625 -0.7347  0.7080
  882MOL0     C21645   3.218  10.944   9.891 -0.7811  0.2763  0.3686
  882MOL0     C21646   3.206  11.075   9.956 -0.0663  0.3244  0.0915
  882MOL0     H21647   3.554  11.081   9.405 -3.0444  0.1126  2.0413
  882MOL0     H21648   3.793  11.135   9.342 -0.2915 -1.2648 -1.1412
  882MOL0     H21649   4.011  11.333   9.609 -1.4637  0.9869  0.2891
  882MOL0     H21650   3.897  11.311   9.476  0.4503 -1.7690 -1.4690
  882MOL0     H21651   4.189  11.270   9.428 -1.4953 -1.8785 -0.2961
  882MOL0     H21652   4.056  11.325   9.309 -5.3686  3.3754  1.5285
  882MOL0     H21653   4.074  11.545   9.433 -0.1100  0.2705 -0.8927
  882MOL0     H21654   4.211  11.478   9.519  1.0489  0.3906 -0.4376
  882MOL0     H21655   4.336  11.441   9.322  0.5459 -0.8526 -2.2344
  882MOL0     H21656   4.222  11.483   9.207  2.9311  1.2858 -0.3992
  882MOL0     H21657   4.183  11.714   9.268 -1.0298 -3.9604 -2.0085
  882MOL0     H21658   4.354  11.688   9.215 -1.5602 -0.3845 -3.3731
  882MOL0     H21659   4.314  11.852   9.402  0.1745 -0.2591 -0.4521
  882MOL0     H21660   4.224  11.720   9.488  0.4366 -1.3289  0.6400
  882MOL0     H21661   4.525  11.708   9.413  0.0390  0.7362 -0.4509
  882MOL0     H21662   4.443  11.624   9.539  0.6657 -1.3698 -3.0727
  882MOL0     H21663   4.486  11.933   9.536 -1.1122  0.5078  1.2746
  882MOL0     H21664   4.405  11.840   9.658 -0.3256 -1.0491 -0.4235
  882MOL0     H21665   4.517  11.665   9.799 -1.1642  2.3354 -0.4223
  882MOL0     H21666   4.693  11.539   9.930 -1.5433  1.7259 -2.2052
  882MOL0     H21667   4.761  11.687   9.985  0.9878 -0.7285  0.6171
  882MOL0     H21668   4.932  11.544   9.788 -0.0574  4.2651 -0.1322
  882MOL0     H21669   4.987  11.633   9.930  0.0482 -0.4643  1.8861
  882MOL0     H21670   4.853  11.354   9.963 -0.2165  0.2249  3.5325
  882MOL0     H21671   5.028  11.375   9.960  0.2507 -0.8107  1.8541
  882MOL0     H21672   4.825  11.516  10.148  1.8603  2.9839  1.9702
  882MOL0     H21673   4.922  11.364  10.180 -0.4154 -0.2753 -1.8259
  882MOL0     H21674   5.065  11.369  10.330 -1.7422  1.2031 -2.0129
  882MOL0     H21675   5.268  11.145  10.410 -2.2634  0.3459 -0.1836
  882MOL0     H21676   5.176  11.254  10.506 -0.0805  0.5103  0.3086
  882MOL0     H21677   5.354  11.259  10.522  1.5331  2.7455 -1.1516
  882MOL0     H21678   5.813  11.245  10.278  2.2931  1.2887  2.2880
  882MOL0     H21679   5.987  11.119  10.339 -0.1750 -1.1579 -0.9214
  882MOL0     H21680   6.134  10.908  10.387 -0.4428 -1.0463 -3.6277
  882MOL0     H21681   6.139  10.774  10.496  1.0657  3.4284  1.8342
  882MOL0     H21682   5.935  10.669  10.377 -1.6317 -0.9805 -2.0246
  882MOL0     H21683   5.943  10.785  10.252 -1.4629  0.9019  1.4556
  882MOL0     H21684   6.173  10.591  10.333  0.2880 -0.4434 -1.2832
  882MOL0     H21685   6.214  10.726  10.237  1.1358 -0.9259  0.2185
  882MOL0     H21686   6.037  10.629  10.068 -1.9456 -1.0199  1.7463
  882MOL0     H21687   6.046  10.484  10.163  3.3120 -0.8221  5.1914
  882MOL0     H21688   6.308  10.594  10.066  2.0284 -2.1695 -2.5387
  882MOL0     H21689   6.263  10.443  10.138  0.1544  0.9388 -0.0733
  882MOL0     H21690   6.143  10.549   9.872 -2.5752 -3.2212 -1.1347
  882MOL0     H21691   6.170  10.375   9.917  1.3363 -1.0760 -2.5012
  882MOL0     H21692   6.401  10.376   9.908  0.0257 -0.5089 -0.3901
  882MOL0     H21693   6.395  10.552   9.874 -0.9900  1.1129 -2.6605
  882MOL0     H21694   6.440  10.416   9.661 -1.5997  0.6453 -2.5310
  882MOL0     H21695   6.267  10.459   9.662 -2.1279 -2.3844  1.3384
  882MOL0     H21696   5.726  10.872  10.588  1.0016 -0.6503 -2.0274
  882MOL0     H21697   5.541  11.006  10.525 -1.2460 -0.5137 -2.3891
  882MOL0     H21698   5.489  11.559  10.147 -2.4247  0.8506 -4.4560
  882MOL0     H21699   5.269  11.642  10.082  0.2231 -2.1450 -2.5932
  882MOL0     H21700   3.918  11.015   9.743  1.7880 -2.0399 -2.2476
  882MOL0     H21701   3.700  10.930   9.781 -0.6356  0.0132  0.0487
  882MOL0     H21702   3.379  10.751   9.655 -0.0540  1.5891 -1.1080
  882MOL0     H21703   3.217  10.594   9.737  1.1541  1.1926 -1.3342
  882MOL0     H21704   3.111  10.447   9.920 -3.2135 -0.6516 -0.9647
  882MOL0     H21705   3.172  10.566  10.036 -1.1366 -0.0015  1.1400
  882MOL0     H21706   2.886  10.473  10.019 -0.1401 -2.8433  0.4951
  882MOL0     H21707   2.959  10.541  10.172  2.3171  0.1595  0.2696
  882MOL0     H21708   3.076  10.290  10.084  1.0890  0.6945  1.6044
  882MOL0     H21709   3.021  10.341  10.249 -0.4984  0.9335 -0.4708
  882MOL0     H21710   2.793  10.303  10.179 -0.7789  1.0284 -1.8771
  882MOL0     H21711   2.884  10.162  10.204 -2.3775  0.0797  0.9426
  882MOL0     H21712   2.792  10.193   9.779  1.1078 -1.4673  0.5995
  882MOL0     H21713   3.055  10.864  10.015  0.0818  1.4319  0.5371
  882MOL0     H21714   3.107  11.081  10.003  0.0353 -0.6494  0.4666
  882MOL0     H21715   3.279  11.083  10.037  1.1501 -0.7659 -0.8418
  882MOL0     H21716   3.218  11.149   9.877  1.3409 -1.5173 -1.5393
  883MOL0     O21717  11.051   0.551   3.881  0.4146 -0.4044 -0.4582
  883MOL0     C21718  11.041   0.451   3.944 -0.4956 -0.4120  0.1242
  883MOL0     O21719  11.142   0.367   3.985  0.8289 -0.4041 -0.8331
  883MOL0     C21720  11.262   0.420   3.944 -0.1771  0.2716  0.9436
  883MOL0     C21721  11.308   0.411   3.813 -0.7077 -0.0661  0.0590
  883MOL0     C21722  11.430   0.470   3.767 -0.8982  0.4586 -0.0744
  883MOL0     C21723  11.505   0.553   3.857 -0.1863 -0.2062  0.4841
  883MOL0     O21724  11.622   0.607   3.804  0.1967  0.5937 -0.5130
  883MOL0     C21725  11.671   0.734   3.856  0.2690  0.2801 -0.3507
  883MOL0     C21726  11.809   0.715   3.929  0.3392  1.2021 -1.2064
  883MOL0     C21727  11.870   0.845   3.974 -0.9165  0.2723  1.3101
  883MOL0     C21728  11.938   0.922   3.858 -0.8924 -0.5382  0.6643
  883MOL0     C21729  12.065   0.848   3.823  0.0780  0.3183 -0.3762
  883MOL0     C21730  12.152   0.925   3.721  0.4286  1.0287  0.0789
  883MOL0     C21731  12.287   0.851   3.676  0.1022 -0.1965 -0.1849
  883MOL0     C21732  12.387   0.952   3.624  0.5434 -0.5413 -0.2958
  883MOL0     N21733  12.515   0.880   3.595 -0.1357 -0.1783 -0.1781
  883MOL0     C21734  12.527   0.775   3.510  0.1765  0.4251  0.0346
  883MOL0     C21735  12.651   0.739   3.501 -0.4913  0.6554  0.1734
  883MOL0     C21736  12.713   0.621   3.420  0.0067 -0.2564  1.0887
  883MOL0     C21737  12.862   0.643   3.388  0.3135 -0.0053 -0.0190
  883MOL0     C21738  12.953   0.561   3.478  0.6146 -0.1064 -0.2958
  883MOL0     C21739  13.018   0.637   3.599  0.4365  0.5019 -0.0252
  883MOL0     O21740  13.141   0.715   3.575  0.0155 -0.2815  0.2576
  883MOL0     C21741  13.202   0.775   3.684 -0.0056 -0.8485 -0.3622
  883MOL0     C21742  13.153   0.907   3.722 -0.1409 -0.6216 -0.1912
  883MOL0     C21743  13.205   0.962   3.840  0.7784 -0.2540  0.0692
  883MOL0     C21744  13.163   1.106   3.863  0.5825 -0.1675  0.3515
  883MOL0     C21745  13.284   0.890   3.930  0.1118  0.3455  0.0323
  883MOL0     C21746  13.332   0.944   4.058  0.3758 -0.5559 -0.0510
  883MOL0     O21747  13.375   0.849   4.146 -0.0195 -0.0362 -0.0370
  883MOL0     C21748  13.454   0.880   4.252 -0.4149  1.3759 -0.7267
  883MOL0     C21749  13.556   0.978   4.258  0.2537 -0.8014 -0.1901
  883MOL0     C21750  13.640   0.991   4.375 -0.4996  0.0555 -0.0303
  883MOL0     C21751  13.611   0.926   4.494  0.3388 -0.7667 -0.2672
  883MOL0     O21752  13.682   0.935   4.614  0.1510 -0.0412 -0.3601
  883MOL0     C21753  13.751   1.057   4.650  0.5242  0.4241  0.1460
  883MOL0     C21754  13.774   1.057   4.803  0.4061  0.1035  0.1349
  883MOL0     C21755  13.871   1.168   4.834 -0.4217 -0.0571 -0.4147
  883MOL0     C21756  13.897   1.183   4.993 -0.2190  0.2762  0.3540
  883MOL0     C21757  13.987   1.307   5.007  0.5999  0.7346  1.1614
  883MOL0     C21758  14.082   1.292   5.122 -0.2503  0.4164  1.0034
  883MOL0     C21759  14.182   1.407   5.133 -0.2841 -0.0184  0.3154
  883MOL0     C21760  14.257   1.393   5.267 -0.0395 -0.1319  0.1036
  883MOL0    Cl21761  14.337   1.547   5.306 -0.2566 -0.2125 -0.5680
  883MOL0     C21762  13.499   0.840   4.498  0.2473 -0.9165  0.2091
  883MOL0     C21763  13.426   0.813   4.377 -0.2542 -0.4451 -0.2308
  883MOL0     O21764  13.309   1.060   4.092  0.1596  0.4755 -0.4867
  883MOL0     C21765  13.323   0.757   3.890  0.2024 -0.3480  0.5033
  883MOL0     C21766  13.283   0.703   3.767 -0.2167  0.2766  0.1983
  883MOL0     N21767  12.724   0.822   3.584  0.5560  0.3575  0.5922
  883MOL0     N21768  12.644   0.916   3.639  0.3068  0.3368 -0.5884
  883MOL0     C21769  11.454   0.566   3.989  0.3503 -0.4542 -0.2483
  883MOL0     C21770  11.336   0.492   4.026 -0.0411 -0.4387 -0.4371
  883MOL0     C21771  10.902   0.398   3.976 -0.3714  0.8507  0.1821
  883MOL0     C21772  10.868   0.358   4.103  0.0041  0.3283 -0.1974
  883MOL0     C21773  10.730   0.320   4.134  0.7046  0.5309 -0.0573
  883MOL0     C21774  10.634   0.315   4.025  0.1790 -1.0126  0.7115
  883MOL0     O21775  10.509   0.280   4.057  0.4944 -0.3812  0.0104
  883MOL0     C21776  10.409   0.363   3.994  0.1040  0.7258 -0.1234
  883MOL0     C21777  10.275   0.336   4.057 -0.5200  0.6788 -0.8078
  883MOL0     C21778  10.241   0.192   4.045 -0.7739  0.3636  1.0956
  883MOL0     C21779  10.098   0.157   4.041 -0.0227 -0.3771 -0.3646
  883MOL0     C21780  10.077   0.018   4.071 -0.1540 -0.5413  0.1979
  883MOL0     C21781  10.070  -0.105   4.104 -1.0508 -0.1514 -0.7353
  883MOL0     C21782  10.670   0.359   3.899  0.3920  0.0619  0.3502
  883MOL0     C21783  10.803   0.402   3.870 -0.8902 -0.7338  0.4082
  883MOL0     C21784  10.837   0.437   3.727 -0.5588  0.0989  0.1422
  883MOL0     H21785  11.251   0.353   3.741  1.9669 -0.8994 -1.5320
  883MOL0     H21786  11.471   0.453   3.668 -1.4164  0.4017 -0.2805
  883MOL0     H21787  11.600   0.786   3.921  1.3115  1.2088  0.0682
  883MOL0     H21788  11.693   0.802   3.774  0.2299 -0.9803 -1.4542
  883MOL0     H21789  11.804   0.654   4.019  3.2957 -0.5722 -2.0849
  883MOL0     H21790  11.875   0.672   3.852 -0.3327  4.0928 -3.6063
  883MOL0     H21791  11.798   0.906   4.029 -0.5615  0.2445  1.8153
  883MOL0     H21792  11.950   0.833   4.048 -0.5648  0.1154  0.9093
  883MOL0     H21793  11.879   0.928   3.766 -0.4237  5.9918  0.3643
  883MOL0     H21794  11.965   1.025   3.881  0.1765 -0.4016 -1.0295
  883MOL0     H21795  12.039   0.754   3.773  0.8514 -0.0673 -0.0594
  883MOL0     H21796  12.116   0.835   3.919 -1.4389  1.9937  0.7249
  883MOL0     H21797  12.089   0.937   3.632 -0.6404 -0.1740  0.6392
  883MOL0     H21798  12.174   1.018   3.773 -1.3136  0.3545  2.1411
  883MOL0     H21799  12.257   0.774   3.605 -2.1237  0.9590 -0.5672
  883MOL0     H21800  12.342   0.809   3.761 -1.0097 -2.4832 -0.5188
  883MOL0     H21801  12.345   0.999   3.535 -1.1346 -3.1112 -0.9810
  883MOL0     H21802  12.414   1.025   3.701  0.4274 -0.7045 -0.1004
  883MOL0     H21803  12.448   0.718   3.462  1.1457 -1.8797  1.0353
  883MOL0     H21804  12.657   0.628   3.326  1.3749  0.0775  0.2726
  883MOL0     H21805  12.687   0.526   3.469 -0.6608 -1.7561 -1.9254
  883MOL0     H21806  12.878   0.598   3.289  2.2082  0.5842 -0.0162
  883MOL0     H21807  12.885   0.750   3.385 -3.1335  0.8870  0.8283
  883MOL0     H21808  12.904   0.470   3.513 -1.2637  0.8421 -0.2846
  883MOL0     H21809  13.037   0.532   3.415  1.8249 -1.1959  1.7068
  883MOL0     H21810  12.938   0.702   3.638 -1.3642 -1.7846  0.3265
  883MOL0     H21811  13.052   0.568   3.676 -1.2191  1.1907  1.3925
  883MOL0     H21812  13.086   0.957   3.653 -0.8293 -1.6873 -0.3075
  883MOL0     H21813  13.108   1.107   3.958  1.4559 -2.2056  0.9243
  883MOL0     H21814  13.087   1.129   3.788  0.0959  2.2649  1.4739
  883MOL0     H21815  13.239   1.185   3.863 -0.4635  0.9997  3.0884
  883MOL0     H21816  13.578   1.043   4.173  1.2741  5.0856  3.9261
  883MOL0     H21817  13.740   1.032   4.367 -0.8556  0.8323 -0.5142
  883MOL0     H21818  13.850   1.075   4.606  1.6595 -2.2505  1.3880
  883MOL0     H21819  13.694   1.148   4.630  0.4208  0.8374  2.0635
  883MOL0     H21820  13.682   1.071   4.860 -0.6324  0.7641 -1.6167
  883MOL0     H21821  13.823   0.964   4.831  0.8150 -0.5576 -2.5099
  883MOL0     H21822  13.822   1.263   4.808 -0.8654  0.6105  2.4680
  883MOL0     H21823  13.966   1.153   4.783 -0.6918 -0.2160 -0.8686
  883MOL0     H21824  13.959   1.098   5.023  1.3619  1.0670 -0.5519
  883MOL0     H21825  13.806   1.188   5.054 -0.1918 -2.8713  0.8068
  883MOL0     H21826  14.053   1.323   4.921 -1.4479 -1.5537 -1.0132
  883MOL0     H21827  13.925   1.396   5.021 -1.5962 -0.7575  1.5009
  883MOL0     H21828  14.142   1.204   5.101  0.8830  1.3989 -0.0514
  883MOL0     H21829  14.029   1.272   5.215 -1.0563  0.6972  0.6224
  883MOL0     H21830  14.128   1.502   5.130 -0.7217 -0.2884 -1.9086
  883MOL0     H21831  14.259   1.408   5.055  0.7043 -0.9935  1.2314
  883MOL0     H21832  14.323   1.306   5.257  3.0173  2.2759 -2.8275
  883MOL0     H21833  14.191   1.372   5.352 -2.9944  1.3277 -1.6885
  883MOL0     H21834  13.476   0.795   4.595  1.7480 -2.9851 -0.3288
  883MOL0     H21835  13.344   0.742   4.373  0.8844 -1.7392 -2.8778
  883MOL0     H21836  13.398   0.714   3.956  1.0384 -1.3114 -1.0295
  883MOL0     H21837  13.317   0.608   3.730 -1.3476  0.5006 -1.5408
  883MOL0     H21838  11.501   0.628   4.065  0.5244  1.6059 -1.9320
  883MOL0     H21839  11.302   0.495   4.129  2.3021 -1.9674  0.4474
  883MOL0     H21840  10.952   0.363   4.172  1.0290 -3.0900 -1.0306
  883MOL0     H21841  10.701   0.287   4.233  0.4796 -0.9901 -0.6029
  883MOL0     H21842  10.435   0.469   4.002  1.9361  0.3018 -0.0498
  883MOL0     H21843  10.395   0.348   3.887 -0.3362  1.4086 -0.1724
  883MOL0     H21844  10.196   0.405   4.027  0.5183  2.0945 -0.3913
  883MOL0     H21845  10.289   0.352   4.164 -0.3497 -1.2072 -0.5155
  883MOL0     H21846  10.301   0.161   3.959  2.3801  1.5577  2.6895
  883MOL0     H21847  10.282   0.141   4.133  0.8977  0.1208  0.2170
  883MOL0     H21848  10.069   0.166   3.936 -1.6725  1.1151  0.1691
  883MOL0     H21849  10.043   0.223   4.109 -0.9002  0.2822 -1.6676
  883MOL0     H21850  10.066  -0.207   4.137  1.3522 -0.6673 -1.7978
  883MOL0     H21851  10.599   0.351   3.816 -2.6507 -0.4753  2.8277
  883MOL0     H21852  10.857   0.544   3.720 -1.2570  0.1444 -2.2000
  883MOL0     H21853  10.925   0.378   3.699 -0.1293  1.1194 -0.7203
  883MOL0     H21854  10.745   0.412   3.672 -0.9239 -0.2684  0.9018
  884MOL0     O21855   8.001   0.022   6.974 -0.4078 -0.7891 -0.3777
  884MOL0     C21856   7.974   0.062   6.857 -1.0091 -1.0437 -0.5680
  884MOL0     O21857   7.880   0.152   6.827 -0.0063  0.2810 -0.1025
  884MOL0     C21858   7.863   0.240   6.934  0.2727 -0.2236  0.2352
  884MOL0     C21859   7.972   0.325   6.978 -0.1505 -0.7062  0.8056
  884MOL0     C21860   7.959   0.413   7.088  0.4669  0.7796 -1.3428
  884MOL0     C21861   7.830   0.424   7.143 -0.0541  0.6227 -0.5354
  884MOL0     O21862   7.827   0.512   7.252  0.0018  0.1048  0.9613
  884MOL0     C21863   7.704   0.568   7.299 -0.3885 -0.8285  0.5372
  884MOL0     C21864   7.611   0.480   7.397  0.6583  0.1296  0.2626
  884MOL0     C21865   7.479   0.532   7.452 -0.1051  0.4818  0.5377
  884MOL0     C21866   7.396   0.435   7.539 -0.0845  0.4422  0.4030
  884MOL0     C21867   7.256   0.482   7.571 -0.5269 -0.0573  0.0374
  884MOL0     C21868   7.147   0.488   7.462 -0.1718  0.6623 -0.5001
  884MOL0     C21869   7.017   0.537   7.514  0.3772 -1.4246  0.3735
  884MOL0     C21870   6.921   0.547   7.391 -0.1762 -0.0376  0.5219
  884MOL0     N21871   6.820   0.651   7.411  0.5374  0.3008 -0.9747
  884MOL0     C21872   6.733   0.663   7.519 -0.0330  0.4304  0.3532
  884MOL0     C21873   6.670   0.779   7.505 -0.6579 -1.2436 -0.5862
  884MOL0     C21874   6.567   0.836   7.595  0.3574  0.4730  0.1760
  884MOL0     C21875   6.593   0.964   7.663 -0.3022  0.1425  0.5787
  884MOL0     C21876   6.686   0.954   7.779  0.4000  0.3670  0.0735
  884MOL0     C21877   6.619   0.891   7.906 -0.0595 -0.2680  0.1143
  884MOL0     O21878   6.496   0.966   7.940 -0.5023  0.0191  0.0235
  884MOL0     C21879   6.516   1.096   7.982 -0.1574 -0.0189  0.7473
  884MOL0     C21880   6.634   1.145   8.043  0.4298  1.0229 -0.3045
  884MOL0     C21881   6.658   1.274   8.094 -0.3572  0.4113  0.3164
  884MOL0     C21882   6.797   1.302   8.149 -0.5902 -0.0253  0.3268
  884MOL0     C21883   6.552   1.363   8.081 -0.0092  0.4484  0.3405
  884MOL0     C21884   6.570   1.505   8.100 -0.4625 -0.2246  0.4210
  884MOL0     O21885   6.668   1.554   8.190  0.1374  0.3628  1.0653
  884MOL0     C21886   6.757   1.659   8.160  0.4498 -0.8762  0.6105
  884MOL0     C21887   6.718   1.780   8.104  0.0127 -0.5365 -0.0423
  884MOL0     C21888   6.815   1.874   8.058  1.0181  0.1608  0.2265
  884MOL0     C21889   6.944   1.851   8.080  0.3203  0.5999 -0.4525
  884MOL0     O21890   7.040   1.934   8.026 -0.1695 -0.2349 -0.2441
  884MOL0     C21891   7.176   1.889   8.003  0.6527 -0.2812 -0.7581
  884MOL0     C21892   7.267   1.990   7.928 -0.4337  0.7163  0.3324
  884MOL0     C21893   7.211   2.028   7.791  0.1558  0.5873  0.4007
  884MOL0     C21894   7.291   2.142   7.734 -0.6730  0.6579  0.7770
  884MOL0     C21895   7.207   2.211   7.626  0.0319  0.5867 -0.4580
  884MOL0     C21896   7.290   2.324   7.568  0.2205 -0.0336 -0.7404
  884MOL0     C21897   7.210   2.395   7.461  0.1408 -0.3743 -0.3660
  884MOL0     C21898   7.249   2.546   7.463  1.3886 -1.4391  0.0521
  884MOL0    Cl21899   7.124   2.638   7.362  0.5357 -0.2295 -0.1774
  884MOL0     C21900   6.979   1.740   8.164  0.3932 -0.0338 -0.2645
  884MOL0     C21901   6.892   1.641   8.197  0.3910  0.0619 -0.1416
  884MOL0     O21902   6.509   1.582   8.020  0.2549  0.0340 -0.2974
  884MOL0     C21903   6.432   1.320   8.017  0.6508  0.2760 -0.8991
  884MOL0     C21904   6.417   1.190   7.974  0.7538  0.6414 -0.2783
  884MOL0     N21905   6.712   0.838   7.389 -0.2535 -0.6086 -0.4509
  884MOL0     N21906   6.799   0.764   7.338  0.4653  1.1353 -0.0405
  884MOL0     C21907   7.721   0.356   7.094  0.0614  0.4570  0.3789
  884MOL0     C21908   7.734   0.260   6.993 -0.0290  1.1305 -0.6654
  884MOL0     C21909   8.037  -0.006   6.738  0.3377  0.5813 -0.3849
  884MOL0     C21910   7.987   0.025   6.609  0.3020  0.3862  0.1770
  884MOL0     C21911   8.034  -0.034   6.487  0.5943  0.2306 -1.1626
  884MOL0     C21912   8.124  -0.129   6.486 -0.8851 -0.0539  0.3328
  884MOL0     O21913   8.195  -0.171   6.370  0.1800 -0.2171  0.0203
  884MOL0     C21914   8.116  -0.206   6.262 -0.0358 -1.0593 -0.1058
  884MOL0     C21915   8.179  -0.332   6.198 -0.0746 -0.6048  0.0112
  884MOL0     C21916   8.111  -0.459   6.252 -0.2616 -1.0770 -0.5169
  884MOL0     C21917   8.185  -0.592   6.221 -0.5142 -0.8251 -0.4177
  884MOL0     C21918   8.202  -0.609   6.081 -0.8102  0.1775 -0.2505
  884MOL0     C21919   8.230  -0.614   5.964  0.4646  0.0641  0.8562
  884MOL0     C21920   8.182  -0.169   6.613 -0.0399  0.0903  0.4182
  884MOL0     C21921   8.132  -0.118   6.736 -0.8918  0.4880 -0.4492
  884MOL0     C21922   8.171  -0.193   6.865  0.0018  0.0841  0.2386
  884MOL0     H21923   8.076   0.313   6.948  0.1288  0.1465  1.3987
  884MOL0     H21924   8.048   0.455   7.133  0.2189 -0.0093 -0.0753
  884MOL0     H21925   7.646   0.596   7.211 -1.9291 -2.4509  0.9818
  884MOL0     H21926   7.714   0.663   7.352  0.3003  0.1619 -1.2770
  884MOL0     H21927   7.603   0.383   7.347 -3.5548  1.3378 -1.8305
  884MOL0     H21928   7.668   0.461   7.489  1.1839 -2.5719 -0.5459
  884MOL0     H21929   7.492   0.627   7.503 -0.6357 -0.5186  2.6587
  884MOL0     H21930   7.424   0.547   7.359  0.0112  0.9684  0.5478
  884MOL0     H21931   7.381   0.340   7.487  0.4802 -0.8229  2.4343
  884MOL0     H21932   7.439   0.412   7.637 -3.2667  0.9013  2.0436
  884MOL0     H21933   7.283   0.573   7.625  1.0310 -1.5032  1.8314
  884MOL0     H21934   7.222   0.412   7.648  3.9707 -0.0319  2.3497
  884MOL0     H21935   7.177   0.557   7.382  0.5984 -1.2650 -1.9667
  884MOL0     H21936   7.132   0.400   7.398 -2.3385  1.1406 -0.7444
  884MOL0     H21937   7.037   0.634   7.561  0.4507 -1.8911  1.3288
  884MOL0     H21938   6.985   0.462   7.587  2.0203 -0.8897  1.6794
  884MOL0     H21939   6.973   0.579   7.301 -0.0570  3.1698  1.6162
  884MOL0     H21940   6.868   0.453   7.371  0.2542 -0.8370  2.7494
  884MOL0     H21941   6.713   0.600   7.606 -1.4962  2.0235  1.2231
  884MOL0     H21942   6.557   0.764   7.676  4.1961 -0.6782 -0.1519
  884MOL0     H21943   6.475   0.835   7.536  0.5438 -1.6694 -0.1701
  884MOL0     H21944   6.645   1.028   7.591 -1.6595  0.5850 -0.0454
  884MOL0     H21945   6.491   0.996   7.684  0.0683  1.3170  0.7129
  884MOL0     H21946   6.771   0.893   7.748  0.3813  0.3413  0.0725
  884MOL0     H21947   6.735   1.046   7.813  2.4875 -1.0510  1.0905
  884MOL0     H21948   6.584   0.789   7.887  1.2046 -0.3614 -2.2046
  884MOL0     H21949   6.684   0.896   7.993  1.6723  2.0032 -1.1739
  884MOL0     H21950   6.717   1.076   8.046 -2.6032 -3.0108 -0.7430
  884MOL0     H21951   6.855   1.365   8.080  2.9113 -2.0299  1.1685
  884MOL0     H21952   6.858   1.211   8.157 -0.6937 -0.1422 -0.1382
  884MOL0     H21953   6.782   1.348   8.246 -1.7639 -0.4295  0.3478
  884MOL0     H21954   6.614   1.790   8.076 -0.0273 -2.3536 -0.6328
  884MOL0     H21955   6.790   1.962   7.999 -0.9727  0.3353  1.2272
  884MOL0     H21956   7.234   1.872   8.094  1.1130 -2.0599 -1.3418
  884MOL0     H21957   7.162   1.795   7.949  0.2366  0.4071 -1.8805
  884MOL0     H21958   7.264   2.072   8.000  1.1263  0.6812  0.4793
  884MOL0     H21959   7.361   1.936   7.916  1.1521  2.3295  3.9551
  884MOL0     H21960   7.109   2.065   7.805 -0.6667 -0.6908 -1.7003
  884MOL0     H21961   7.197   1.939   7.728  2.7926  1.8693 -2.1757
  884MOL0     H21962   7.389   2.105   7.705 -0.6355  0.4587  1.1641
  884MOL0     H21963   7.308   2.208   7.819 -1.4601 -1.2670  2.4850
  884MOL0     H21964   7.198   2.139   7.544  1.1724  3.7701 -3.5940
  884MOL0     H21965   7.107   2.241   7.658  0.3121  0.7297  0.2901
  884MOL0     H21966   7.386   2.283   7.535  0.8643  0.3058  0.6202
  884MOL0     H21967   7.310   2.398   7.646 -0.1998  0.6947 -1.3267
  884MOL0     H21968   7.104   2.404   7.485  0.6518 -1.3211  2.6517
  884MOL0     H21969   7.222   2.346   7.364 -1.7021 -0.2327 -0.6998
  884MOL0     H21970   7.347   2.542   7.414  1.1866  1.4615 -0.7696
  884MOL0     H21971   7.255   2.589   7.563  2.8054  0.1738 -0.6553
  884MOL0     H21972   7.083   1.738   8.195 -0.2003 -0.6746  1.9253
  884MOL0     H21973   6.925   1.553   8.252  0.4852 -0.3969 -0.9205
  884MOL0     H21974   6.344   1.380   7.996 -0.4191 -0.2047  1.7763
  884MOL0     H21975   6.325   1.159   7.926  2.6771 -1.6309 -2.8717
  884MOL0     H21976   7.617   0.369   7.122 -0.5881 -0.9467 -1.2653
  884MOL0     H21977   7.652   0.197   6.959 -0.9333  1.7549  0.2703
  884MOL0     H21978   7.907   0.095   6.584 -1.6329 -2.5452 -2.6454
  884MOL0     H21979   8.000  -0.000   6.390  2.2706 -2.0875 -2.6603
  884MOL0     H21980   8.014  -0.228   6.295 -0.2253 -0.2527 -0.1289
  884MOL0     H21981   8.113  -0.122   6.192 -0.0523  1.7057  2.9565
  884MOL0     H21982   8.287  -0.338   6.214  0.2813  3.4108  0.0401
  884MOL0     H21983   8.152  -0.328   6.092  3.6437 -1.4320 -1.1009
  884MOL0     H21984   8.101  -0.451   6.361  0.0602  1.8484 -0.6210
  884MOL0     H21985   8.007  -0.466   6.219 -1.2465 -2.2563  2.4534
  884MOL0     H21986   8.130  -0.676   6.265  0.6895  0.5652  4.3423
  884MOL0     H21987   8.278  -0.605   6.277 -0.6202 -4.9205 -0.8342
  884MOL0     H21988   8.254  -0.614   5.860  0.3681 -4.3491  0.6353
  884MOL0     H21989   8.263  -0.241   6.613 -0.6016 -0.5587 -0.3454
  884MOL0     H21990   8.240  -0.134   6.926  1.6899 -3.3499  1.9477
  884MOL0     H21991   8.082  -0.227   6.918  0.3916  1.0416  1.5525
  884MOL0     H21992   8.228  -0.284   6.844 -0.4857 -0.7492  2.2968
  885MOL0     O21993   7.387   6.140   3.586 -0.1126  0.1455 -1.2020
  885MOL0     C21994   7.495   6.167   3.639 -0.0827 -0.2915 -0.1733
  885MOL0     O21995   7.585   6.073   3.684  1.0251  0.0912 -0.3086
  885MOL0     C21996   7.539   5.942   3.685  0.6344 -0.6588  0.2799
  885MOL0     C21997   7.493   5.895   3.804 -0.1092 -0.0733  0.0175
  885MOL0     C21998   7.436   5.766   3.819 -0.4211 -0.1077 -0.3307
  885MOL0     C21999   7.434   5.675   3.706  0.5557  0.1053 -0.2149
  885MOL0     O22000   7.384   5.549   3.703 -0.2966 -0.6102  0.1737
  885MOL0     C22001   7.336   5.479   3.817 -0.5507  0.1372  0.1971
  885MOL0     C22002   7.306   5.334   3.777 -1.1862  0.8458  0.5485
  885MOL0     C22003   7.428   5.281   3.711 -0.1911  0.8170  0.4913
  885MOL0     C22004   7.437   5.129   3.697  1.1646 -0.4749  0.0201
  885MOL0     C22005   7.572   5.067   3.739  0.2256  0.4154  0.9170
  885MOL0     C22006   7.693   5.141   3.678 -0.7482  1.0263 -0.0934
  885MOL0     C22007   7.827   5.064   3.711  0.3817  0.6290  0.6928
  885MOL0     C22008   7.846   4.935   3.622 -0.0505  0.1338 -0.4472
  885MOL0     N22009   7.974   4.854   3.642 -0.3580 -0.5926  0.1441
  885MOL0     C22010   8.029   4.801   3.757  0.4494  0.2674  0.0758
  885MOL0     C22011   8.140   4.732   3.721 -0.0312 -1.0097  0.2324
  885MOL0     C22012   8.244   4.674   3.820  1.2418 -0.1356 -0.0349
  885MOL0     C22013   8.392   4.658   3.767 -0.0612 -0.0197  0.3901
  885MOL0     C22014   8.452   4.785   3.714 -0.6628 -0.3514  0.3792
  885MOL0     C22015   8.589   4.749   3.640 -0.0101  0.3311 -1.2180
  885MOL0     O22016   8.702   4.740   3.730 -0.1057  0.7170  0.6982
  885MOL0     C22017   8.831   4.745   3.689  0.2353  0.5267  0.0362
  885MOL0     C22018   8.932   4.749   3.787 -0.0915 -0.0555  1.1709
  885MOL0     C22019   9.064   4.762   3.740  0.2644 -0.0146 -0.1523
  885MOL0     C22020   9.167   4.778   3.849  0.5271  0.1646 -0.0434
  885MOL0     C22021   9.100   4.758   3.610  1.0015 -0.4120  0.8710
  885MOL0     C22022   9.232   4.776   3.552  0.4094  0.0387  0.1675
  885MOL0     O22023   9.245   4.786   3.413 -0.4765  0.4151 -0.0181
  885MOL0     C22024   9.364   4.806   3.344  0.1333 -0.9291 -0.1948
  885MOL0     C22025   9.356   4.778   3.201  0.6763  0.0239  0.3195
  885MOL0     C22026   9.469   4.806   3.126 -0.1338  0.6074  0.4286
  885MOL0     C22027   9.591   4.843   3.187 -0.0602  0.7891 -0.6454
  885MOL0     O22028   9.710   4.868   3.126 -0.4807  0.0359  0.6634
  885MOL0     C22029   9.753   4.755   3.045  0.0103 -0.0407 -0.9900
  885MOL0     C22030   9.762   4.796   2.905 -0.5165  0.3846  0.2390
  885MOL0     C22031   9.899   4.864   2.860  0.0836  0.5205 -0.7049
  885MOL0     C22032   9.930   4.984   2.949  0.1805  1.2694  0.2664
  885MOL0     C22033  10.059   5.041   2.895  0.2028 -0.2987 -0.5357
  885MOL0     C22034  10.136   5.108   3.007  0.2223  0.8105 -0.9168
  885MOL0     C22035  10.279   5.165   2.980 -0.7321  0.3197  0.6667
  885MOL0     C22036  10.338   5.223   3.103 -0.8396 -0.1051  0.3259
  885MOL0    Cl22037  10.518   5.258   3.086 -0.5305  0.6513 -0.2999
  885MOL0     C22038   9.587   4.881   3.318 -0.7545  0.3479 -0.0816
  885MOL0     C22039   9.475   4.870   3.390 -0.1445 -0.3307 -0.4476
  885MOL0     O22040   9.330   4.777   3.633  0.2266  0.4821  0.2509
  885MOL0     C22041   8.994   4.752   3.513  0.4740  0.7631  0.1567
  885MOL0     C22042   8.863   4.744   3.545 -0.6859  0.1329 -0.0430
  885MOL0     N22043   8.148   4.731   3.581 -0.0829 -0.3315  0.3185
  885MOL0     N22044   8.055   4.808   3.539  0.0743 -0.5379  0.5308
  885MOL0     C22045   7.492   5.724   3.586 -0.2814 -1.1270 -0.8414
  885MOL0     C22046   7.527   5.858   3.571 -0.2943 -0.2042  0.0762
  885MOL0     C22047   7.520   6.314   3.671  0.1350  0.0200  0.4761
  885MOL0     C22048   7.634   6.350   3.749 -0.6985 -0.8009 -0.8306
  885MOL0     C22049   7.663   6.489   3.782 -0.3376  0.3741 -0.5415
  885MOL0     C22050   7.603   6.591   3.724  0.0937 -0.3886 -0.2971
  885MOL0     O22051   7.647   6.715   3.748  0.1355 -0.5546  0.2295
  885MOL0     C22052   7.543   6.823   3.756  0.0281  0.3994 -0.6126
  885MOL0     C22053   7.598   6.950   3.816  0.4011 -0.1316 -0.6305
  885MOL0     C22054   7.690   7.022   3.714 -0.0102  0.3064 -0.2071
  885MOL0     C22055   7.726   7.152   3.772  0.3847 -1.2602 -0.3811
  885MOL0     C22056   7.854   7.139   3.850 -0.1926  0.0853  0.5708
  885MOL0     C22057   7.969   7.134   3.893 -0.3267  0.7745  0.2898
  885MOL0     C22058   7.489   6.565   3.644  0.2250  1.0959  0.1441
  885MOL0     C22059   7.454   6.431   3.605  0.7488  0.6842  0.0607
  885MOL0     C22060   7.338   6.422   3.512 -0.2738  0.3716 -0.0245
  885MOL0     H22061   7.509   5.966   3.884 -0.8680  0.9674 -0.7352
  885MOL0     H22062   7.393   5.734   3.913  0.3951  1.4498  0.6160
  885MOL0     H22063   7.256   5.526   3.875  0.6888  3.1720 -0.3718
  885MOL0     H22064   7.430   5.484   3.872  1.9862 -2.4174 -3.4016
  885MOL0     H22065   7.289   5.269   3.863  0.9168  1.8437  1.8069
  885MOL0     H22066   7.226   5.327   3.703 -0.4795 -1.3589 -0.0720
  885MOL0     H22067   7.453   5.323   3.613  1.3567  0.2052  0.5925
  885MOL0     H22068   7.506   5.296   3.786  0.4783  0.3722 -0.0961
  885MOL0     H22069   7.361   5.086   3.764 -2.5001 -2.9721 -5.0031
  885MOL0     H22070   7.400   5.097   3.599  2.9938  0.4838 -1.0199
  885MOL0     H22071   7.574   4.963   3.703  1.4358 -0.0189  2.1697
  885MOL0     H22072   7.570   5.054   3.847 -1.5687 -2.1637  0.6784
  885MOL0     H22073   7.694   5.147   3.569  1.7916  0.2453 -0.1977
  885MOL0     H22074   7.702   5.243   3.716  0.7024  0.6535  0.6461
  885MOL0     H22075   7.823   5.030   3.815  0.6811 -1.2794  0.1231
  885MOL0     H22076   7.909   5.135   3.699  0.1357  0.5802 -1.8847
  885MOL0     H22077   7.772   4.858   3.643 -2.1302  0.6673 -4.6854
  885MOL0     H22078   7.834   4.962   3.517  0.6472  5.5168  0.5844
  885MOL0     H22079   7.992   4.814   3.858  2.5235 -1.8361  1.2174
  885MOL0     H22080   8.205   4.577   3.852 -0.3492  0.8799  1.3084
  885MOL0     H22081   8.238   4.727   3.916 -1.0298  0.0775 -0.2529
  885MOL0     H22082   8.450   4.617   3.850 -1.5194 -4.0037 -0.3243
  885MOL0     H22083   8.390   4.584   3.687  3.1768 -0.7637  0.8968
  885MOL0     H22084   8.387   4.828   3.637  0.2736 -1.1571 -0.9004
  885MOL0     H22085   8.481   4.851   3.796  3.8945 -1.2350 -0.2956
  885MOL0     H22086   8.569   4.656   3.586  1.2202  1.5481 -4.0133
  885MOL0     H22087   8.600   4.838   3.577  1.2134  3.1884  2.6692
  885MOL0     H22088   8.905   4.752   3.892 -0.0178 -0.0567  1.1899
  885MOL0     H22089   9.131   4.775   3.952  1.8019  0.4040  0.4293
  885MOL0     H22090   9.226   4.869   3.830  0.0043  0.4564 -0.2696
  885MOL0     H22091   9.232   4.690   3.839 -0.2177 -0.5344  1.0508
  885MOL0     H22092   9.267   4.753   3.145  0.5889  1.8770 -0.4448
  885MOL0     H22093   9.467   4.796   3.017  3.0596 -0.8418  0.3872
  885MOL0     H22094   9.856   4.730   3.072  0.5565  2.5131 -0.3784
  885MOL0     H22095   9.677   4.678   3.059  0.8400 -0.6113  0.6730
  885MOL0     H22096   9.750   4.705   2.846  1.0031  1.2699 -1.5403
  885MOL0     H22097   9.680   4.859   2.869  1.0533  2.1538 -0.4637
  885MOL0     H22098   9.897   4.895   2.755 -0.8043  1.6975 -0.3587
  885MOL0     H22099   9.975   4.786   2.867  0.8677  1.2708 -0.7113
  885MOL0     H22100   9.944   4.953   3.052 -1.2223 -0.0307  0.0991
  885MOL0     H22101   9.842   5.050   2.942 -1.0760 -0.3557  0.0975
  885MOL0     H22102  10.124   4.968   2.846 -1.0243 -1.6712 -0.2056
  885MOL0     H22103  10.035   5.111   2.814  1.7623  2.5527  1.2899
  885MOL0     H22104  10.152   5.043   3.093 -0.2931 -0.4972 -1.7758
  885MOL0     H22105  10.074   5.193   3.037  0.8351  1.1399 -0.5394
  885MOL0     H22106  10.263   5.240   2.902 -0.2331 -1.2051 -0.9713
  885MOL0     H22107  10.343   5.083   2.946 -0.8488 -0.0074  1.2165
  885MOL0     H22108  10.322   5.149   3.182 -0.7763 -0.4476  0.0209
  885MOL0     H22109  10.294   5.316   3.141 -0.8448  0.4177 -0.9110
  885MOL0     H22110   9.685   4.905   3.358  0.7728 -1.5268 -2.4634
  885MOL0     H22111   9.483   4.892   3.496 -0.6741 -1.6992 -0.0951
  885MOL0     H22112   9.013   4.761   3.406 -3.1157 -2.6650 -1.0414
  885MOL0     H22113   8.791   4.730   3.465 -0.2903 -1.9113 -0.0867
  885MOL0     H22114   7.488   5.652   3.505  1.9204  0.2136 -2.2510
  885MOL0     H22115   7.563   5.904   3.479 -0.6205  0.1108  0.1043
  885MOL0     H22116   7.687   6.270   3.801 -2.3154 -1.3922 -0.0487
  885MOL0     H22117   7.741   6.507   3.855 -0.1636 -1.6706 -0.1875
  885MOL0     H22118   7.504   6.847   3.657 -1.5617 -1.1145 -0.3950
  885MOL0     H22119   7.462   6.799   3.825  0.4420  0.4070 -0.1127
  885MOL0     H22120   7.647   6.919   3.909 -2.7935 -3.3352  0.2104
  885MOL0     H22121   7.523   7.025   3.841  0.4933  0.5030 -2.1595
  885MOL0     H22122   7.784   6.966   3.706  0.2464  0.7480 -0.3824
  885MOL0     H22123   7.645   7.028   3.614 -1.2000  0.5530  0.3272
  885MOL0     H22124   7.647   7.191   3.837  0.0160 -0.2561 -1.3934
  885MOL0     H22125   7.712   7.229   3.696 -4.1747  0.5207  1.8814
  885MOL0     H22126   8.073   7.120   3.915 -0.2313  2.2523  0.8779
  885MOL0     H22127   7.434   6.648   3.600 -1.3593  0.3692  0.6581
  885MOL0     H22128   7.347   6.329   3.454  1.2358  1.8453 -2.3368
  885MOL0     H22129   7.241   6.429   3.562 -0.5132  2.0113 -0.6528
  885MOL0     H22130   7.343   6.502   3.437 -0.9012 -2.5437 -3.4827
  886MOL0     O22131   5.519   0.582  11.010 -0.3660 -0.1435 -0.0955
  886MOL0     C22132   5.515   0.566  10.888 -0.1812  0.1051  0.1142
  886MOL0     O22133   5.588   0.479  10.822  0.4269  0.1705 -0.1171
  886MOL0     C22134   5.660   0.386  10.892 -0.2316  0.0456  0.3291
  886MOL0     C22135   5.631   0.323  11.019  0.1017  0.0010  1.1016
  886MOL0     C22136   5.723   0.232  11.079 -0.2008  1.1021 -0.3658
  886MOL0     C22137   5.844   0.198  11.013 -0.2421 -0.7755  0.3897
  886MOL0     O22138   5.939   0.122  11.074  0.2049 -0.1123 -0.1973
  886MOL0     C22139   6.057   0.060  11.011  0.5697  0.6104 -0.7669
  886MOL0     C22140   6.183   0.143  11.018 -1.6233  0.2193 -1.3205
  886MOL0     C22141   6.237   0.155  11.165 -0.9003 -0.5424 -0.1048
  886MOL0     C22142   6.373   0.229  11.172  0.0783 -0.1748  0.3860
  886MOL0     C22143   6.419   0.203  11.322  0.0420  0.2887  0.1374
  886MOL0     C22144   6.553   0.274  11.354  0.2860  0.2882 -0.0332
  886MOL0     C22145   6.605   0.251  11.503 -0.1215 -0.4427 -0.6856
  886MOL0     C22146   6.757   0.272  11.513  0.0622  0.3950 -1.1770
  886MOL0     N22147   6.793   0.335  11.646  0.6624 -0.1138  0.4483
  886MOL0     C22148   6.780   0.463  11.681 -0.8286 -0.4665  0.2678
  886MOL0     C22149   6.854   0.470  11.795 -0.5182 -0.1039 -0.6412
  886MOL0     C22150   6.868   0.599  11.884  0.5299  0.4268 -0.0714
  886MOL0     C22151   6.784   0.592  12.008  0.2400  0.0174  0.4988
  886MOL0     C22152   6.828   0.684  12.127  0.1395  0.9252  0.2138
  886MOL0     C22153   6.862   0.826  12.074  0.4973  0.4456  0.1238
  886MOL0     O22154   6.758   0.886  11.995 -0.5884  0.3947  0.0949
  886MOL0     C22155   6.646   0.958  12.041 -0.0971  0.8548  0.2174
  886MOL0     C22156   6.560   1.017  11.960  0.2362  0.9385  0.0421
  886MOL0     C22157   6.437   1.073  12.006 -0.4472 -0.1851 -0.0469
  886MOL0     C22158   6.360   1.157  11.907  0.4388 -0.1209 -0.0661
  886MOL0     C22159   6.393   1.056  12.138  0.9992  0.0003 -0.1795
  886MOL0     C22160   6.260   1.088  12.187  0.5474  0.6365  0.0121
  886MOL0     O22161   6.172   1.155  12.107  0.0157  0.7900  0.5771
  886MOL0     C22162   6.039   1.154  12.151  0.8225 -0.7525  0.4396
  886MOL0     C22163   5.949   1.059  12.118  0.9257 -0.1988 -0.8720
  886MOL0     C22164   5.812   1.071  12.143 -0.4558 -0.2953 -0.2002
  886MOL0     C22165   5.758   1.186  12.190 -0.4089  0.0432  1.5201
  886MOL0     O22166   5.624   1.184  12.202 -0.0709 -0.5365 -0.8347
  886MOL0     C22167   5.568   1.319  12.211 -0.5177  0.0340  0.6300
  886MOL0     C22168   5.418   1.323  12.201  0.3593  0.0494 -0.8718
  886MOL0     C22169   5.373   1.213  12.311  0.3583 -0.1621  0.2440
  886MOL0     C22170   5.229   1.233  12.363 -1.0809  0.9409 -0.1923
  886MOL0     C22171   5.183   1.127  12.457 -0.1586 -0.5683 -0.2083
  886MOL0     C22172   5.032   1.132  12.493 -0.1594 -0.2622 -0.9451
  886MOL0     C22173   4.978   1.251  12.562 -0.1975 -0.8178  0.0167
  886MOL0     C22174   4.833   1.230  12.615  0.1538  0.5267  0.0835
  886MOL0    Cl22175   4.774   1.378  12.695 -0.0626 -0.2339 -0.1219
  886MOL0     C22176   5.846   1.300  12.201 -0.1214 -0.2650 -0.0438
  886MOL0     C22177   5.984   1.277  12.190 -0.7234 -0.9963 -0.3952
  886MOL0     O22178   6.230   1.049  12.299 -0.5309 -0.2384 -0.0786
  886MOL0     C22179   6.491   0.991  12.215  0.0632 -0.2976 -0.0208
  886MOL0     C22180   6.614   0.943  12.176  0.5871  0.0921  0.5908
  886MOL0     N22181   6.904   0.353  11.836  0.0633 -0.4812  0.2202
  886MOL0     N22182   6.859   0.267  11.744 -0.2627 -0.0988 -0.0941
  886MOL0     C22183   5.867   0.255  10.884  0.5237 -0.5481  0.7546
  886MOL0     C22184   5.781   0.349  10.829  0.4887 -0.5614 -0.2052
  886MOL0     C22185   5.421   0.654  10.814  0.5741 -0.3416 -0.0517
  886MOL0     C22186   5.386   0.615  10.688  0.6348  0.1699  0.5799
  886MOL0     C22187   5.283   0.677  10.616  0.1495 -0.4039  0.5147
  886MOL0     C22188   5.212   0.785  10.664  0.3007 -0.2644 -0.2172
  886MOL0     O22189   5.102   0.848  10.598 -0.2658 -0.2959 -0.5937
  886MOL0     C22190   4.977   0.781  10.606 -0.5452 -0.3000 -0.3488
  886MOL0     C22191   4.957   0.659  10.508  0.5602  0.4137 -0.0458
  886MOL0     C22192   4.808   0.610  10.514 -0.3317  0.5542  0.2122
  886MOL0     C22193   4.789   0.471  10.583 -0.8454 -0.2408 -0.1851
  886MOL0     C22194   4.832   0.467  10.730  0.1419  0.8026  0.8004
  886MOL0     C22195   4.840   0.463  10.851  0.6258 -0.1171  0.4663
  886MOL0     C22196   5.256   0.841  10.786 -1.1278 -0.1768  0.5126
  886MOL0     C22197   5.365   0.782  10.855 -1.0685 -0.8085  0.1023
  886MOL0     C22198   5.414   0.848  10.976  0.5141 -1.0681  0.2301
  886MOL0     H22199   5.537   0.337  11.071 -0.4334  1.7147 -0.2263
  886MOL0     H22200   5.703   0.182  11.173  1.1929 -0.1633 -0.7141
  886MOL0     H22201   6.027   0.044  10.907 -0.1704 -0.3716 -0.4213
  886MOL0     H22202   6.075  -0.032  11.068 -3.1573  0.0301 -0.2662
  886MOL0     H22203   6.262   0.098  10.958 -0.2791  2.4250 -1.3355
  886MOL0     H22204   6.154   0.240  10.976  0.1222  0.1134 -2.9138
  886MOL0     H22205   6.164   0.210  11.225 -0.7165 -0.0054 -0.3637
  886MOL0     H22206   6.250   0.053  11.204  3.7121 -1.0604 -2.2046
  886MOL0     H22207   6.440   0.196  11.093  0.8309  0.8328  0.5784
  886MOL0     H22208   6.356   0.336  11.155 -0.3205 -0.0163  1.6403
  886MOL0     H22209   6.442   0.097  11.343  2.5808  0.7904  0.2906
  886MOL0     H22210   6.348   0.238  11.397 -0.1293 -1.9511  1.0974
  886MOL0     H22211   6.621   0.220  11.288 -2.3820 -1.1541 -1.7850
  886MOL0     H22212   6.549   0.379  11.323 -0.2156  0.4654  0.6173
  886MOL0     H22213   6.574   0.158  11.550  2.4644  0.1560  2.5932
  886MOL0     H22214   6.566   0.328  11.569  1.4204  0.9511 -1.3117
  886MOL0     H22215   6.813   0.178  11.510  1.4120  1.1906 -1.8464
  886MOL0     H22216   6.786   0.344  11.436 -1.0980  2.0063 -0.1619
  886MOL0     H22217   6.730   0.539  11.621  0.5011  1.3859  1.3986
  886MOL0     H22218   6.842   0.688  11.826  0.4407  0.0142 -0.6679
  886MOL0     H22219   6.973   0.595  11.913  0.5195  0.3933 -0.0388
  886MOL0     H22220   6.687   0.635  11.979  0.9989  2.0472  0.7920
  886MOL0     H22221   6.786   0.487  12.039 -1.4961 -0.9205 -2.1575
  886MOL0     H22222   6.753   0.683  12.207 -1.1964  2.9608 -0.9336
  886MOL0     H22223   6.915   0.634  12.170 -0.7933  0.1236  1.2139
  886MOL0     H22224   6.876   0.884  12.166 -0.4852  1.3539 -0.2699
  886MOL0     H22225   6.954   0.828  12.015  0.1238  1.6544 -0.4575
  886MOL0     H22226   6.580   1.020  11.854 -1.9660 -0.4075 -0.4791
  886MOL0     H22227   6.402   1.143  11.807 -2.0684 -2.7029 -0.9075
  886MOL0     H22228   6.368   1.261  11.938 -1.8126  0.3667 -0.9209
  886MOL0     H22229   6.257   1.124  11.886  0.5294 -0.3327 -0.1883
  886MOL0     H22230   5.995   0.970  12.077  3.5023  0.5389  0.2518
  886MOL0     H22231   5.735   0.999  12.117 -1.3252  1.2626 -2.2132
  886MOL0     H22232   5.610   1.347  12.308  2.3645 -0.7943 -0.2812
  886MOL0     H22233   5.610   1.372  12.125  1.4688 -1.4858  0.5841
  886MOL0     H22234   5.382   1.422  12.230 -2.9015 -1.2301 -0.0716
  886MOL0     H22235   5.381   1.296  12.102 -1.1277  0.7892 -0.5466
  886MOL0     H22236   5.448   1.213  12.391  1.9666 -3.3244 -1.0865
  886MOL0     H22237   5.374   1.110  12.274 -0.3402 -0.5356  1.2211
  886MOL0     H22238   5.163   1.229  12.276  0.2044  1.7970 -1.2267
  886MOL0     H22239   5.215   1.336  12.398  1.3215  0.6759  1.8209
  886MOL0     H22240   5.209   1.032  12.409 -1.3054 -0.4045 -1.1947
  886MOL0     H22241   5.238   1.143  12.551  3.9503  1.3278 -2.6270
  886MOL0     H22242   5.012   1.052  12.565 -2.0060 -0.9055 -2.1058
  886MOL0     H22243   4.973   1.119  12.402  0.6574 -1.9892 -1.2734
  886MOL0     H22244   4.997   1.343  12.505  5.1124 -1.1804  0.6947
  886MOL0     H22245   5.043   1.264  12.649  3.9347  0.3772 -2.9331
  886MOL0     H22246   4.825   1.154  12.694 -0.3286  1.6230  1.1294
  886MOL0     H22247   4.769   1.201  12.532 -0.9069 -0.2697  1.1501
  886MOL0     H22248   5.820   1.390  12.256 -2.0828 -1.6970  1.5536
  886MOL0     H22249   6.053   1.358  12.213 -1.1648 -0.1187 -1.9795
  886MOL0     H22250   6.476   0.976  12.322  3.7452  1.7420  0.9194
  886MOL0     H22251   6.679   0.905  12.255  2.6885  3.1044  0.4682
  886MOL0     H22252   5.967   0.237  10.848  0.4954 -0.9831  0.8901
  886MOL0     H22253   5.814   0.403  10.741 -0.8288  0.5145 -0.0679
  886MOL0     H22254   5.424   0.528  10.635  0.2256  0.8070 -0.8041
  886MOL0     H22255   5.258   0.636  10.519  0.6527 -1.6165  0.8812
  886MOL0     H22256   4.964   0.748  10.710  2.2420 -2.2763 -0.5002
  886MOL0     H22257   4.908   0.863  10.586 -2.6960 -1.1215  2.8846
  886MOL0     H22258   5.017   0.570  10.527  0.9120  0.6910  0.1346
  886MOL0     H22259   4.981   0.694  10.407 -1.7267 -2.1495 -1.6473
  886MOL0     H22260   4.749   0.685  10.567 -1.2572  0.4909 -0.7041
  886MOL0     H22261   4.758   0.595  10.418 -2.8419  0.5317  1.4331
  886MOL0     H22262   4.826   0.387  10.523  3.8738 -0.6301  2.7640
  886MOL0     H22263   4.682   0.449  10.584 -0.6151 -1.6633 -1.6882
  886MOL0     H22264   4.834   0.461  10.958 -0.2004 -0.4796  0.4122
  886MOL0     H22265   5.205   0.923  10.835  2.0590  0.5554  2.9205
  886MOL0     H22266   5.378   0.951  10.970 -1.8778 -1.9215 -3.4797
  886MOL0     H22267   5.375   0.810  11.071 -0.4817  1.0694  0.7550
  886MOL0     H22268   5.523   0.840  10.981  0.5747 -0.9168 -0.6971
  887MOL0     O22269   6.515  10.845   9.723 -0.5354 -0.0715 -0.6228
  887MOL0     C22270   6.631  10.888   9.727  0.9168 -0.8262 -0.8364
  887MOL0     O22271   6.688  11.000   9.646  0.1766  0.1487  0.8281
  887MOL0     C22272   6.823  11.026   9.657  0.0035 -0.5359  0.6329
  887MOL0     C22273   6.874  11.132   9.727 -0.4450 -0.0417 -0.2995
  887MOL0     C22274   7.010  11.165   9.724 -0.1530 -0.2282 -0.0364
  887MOL0     C22275   7.102  11.104   9.643  0.5883  0.1992 -0.0322
  887MOL0     O22276   7.237  11.129   9.657 -0.9993  0.0393 -0.4968
  887MOL0     C22277   7.328  11.045   9.592 -0.3062 -0.3019 -0.2534
  887MOL0     C22278   7.473  11.075   9.625 -0.2452 -0.0948 -0.4563
  887MOL0     C22279   7.533  11.025   9.765 -0.1543  0.5728  0.4297
  887MOL0     C22280   7.686  11.047   9.764 -0.3104  0.1304 -0.3086
  887MOL0     C22281   7.746  11.041   9.906  0.7002 -0.1189  1.3152
  887MOL0     C22282   7.900  11.043   9.893  0.4227 -0.0292 -0.0239
  887MOL0     C22283   7.997  11.034  10.014  0.5892  0.4999 -0.7693
  887MOL0     C22284   7.969  10.921  10.112  0.2530  0.0220  0.2127
  887MOL0     N22285   7.970  10.780  10.070  0.8645  0.0044 -0.0237
  887MOL0     C22286   8.082  10.707  10.052 -0.5046  0.2799 -0.2615
  887MOL0     C22287   8.034  10.591  10.000  0.3040  0.0149 -0.4936
  887MOL0     C22288   8.129  10.472   9.988 -0.4312  0.6141  0.3829
  887MOL0     C22289   8.218  10.483   9.859  1.0655  0.4333  0.1594
  887MOL0     C22290   8.356  10.537   9.888 -0.1135  0.6731  0.2876
  887MOL0     C22291   8.451  10.535   9.767  0.3031  0.4576 -0.2209
  887MOL0     O22292   8.585  10.569   9.816  0.3434 -0.4639  1.4774
  887MOL0     C22293   8.687  10.596   9.725 -0.4663  1.1369  0.3959
  887MOL0     C22294   8.811  10.633   9.779 -0.4990 -0.3079  0.4902
  887MOL0     C22295   8.918  10.663   9.691  0.3076  0.1072  0.1041
  887MOL0     C22296   9.045  10.707   9.758 -0.5785  0.2537 -0.6582
  887MOL0     C22297   8.909  10.656   9.551 -0.1988 -0.3940  0.6733
  887MOL0     C22298   9.014  10.682   9.453  0.4253 -0.1551  0.8874
  887MOL0     O22299   9.090  10.790   9.476 -0.3762 -0.4312 -0.6179
  887MOL0     C22300   9.175  10.849   9.381  0.1426  0.2248  1.0489
  887MOL0     C22301   9.143  10.871   9.237  0.3822 -0.6464 -0.9632
  887MOL0     C22302   9.220  10.953   9.159 -0.4183 -0.8481  0.5466
  887MOL0     C22303   9.346  10.989   9.202 -0.5379 -0.6019 -0.6560
  887MOL0     O22304   9.436  11.059   9.122  0.2484  0.4090 -0.3974
  887MOL0     C22305   9.404  11.097   8.987  0.1184  0.6039  0.8977
  887MOL0     C22306   9.514  11.178   8.941 -0.3360 -0.2173  0.1066
  887MOL0     C22307   9.542  11.311   9.027  0.8868 -0.5425  0.5592
  887MOL0     C22308   9.658  11.401   8.975  0.1681 -0.3029  0.1114
  887MOL0     C22309   9.779  11.330   8.916  0.0325 -0.0747 -0.4543
  887MOL0     C22310   9.873  11.438   8.862  0.0044 -0.1105  0.0822
  887MOL0     C22311  10.017  11.385   8.839 -0.6607 -0.2601 -0.3586
  887MOL0     C22312  10.037  11.312   8.702 -0.1651  1.0119  0.3899
  887MOL0    Cl22313   9.926  11.168   8.686  0.2161 -0.0440  0.7704
  887MOL0     C22314   9.384  10.946   9.335  0.7320 -0.8629  0.7562
  887MOL0     C22315   9.299  10.879   9.424  0.9279  0.1520  0.6544
  887MOL0     O22316   9.042  10.602   9.363  0.2137 -0.0104 -0.0039
  887MOL0     C22317   8.789  10.604   9.498 -0.2035  0.4552 -0.6122
  887MOL0     C22318   8.685  10.580   9.592 -0.0417  0.6531  0.1376
  887MOL0     N22319   7.900  10.586   9.985  0.2946 -0.2615 -0.2772
  887MOL0     N22320   7.864  10.708  10.013 -0.2875 -0.2396 -0.5354
  887MOL0     C22321   7.054  11.004   9.561 -0.0959 -0.8277 -0.3120
  887MOL0     C22322   6.918  10.966   9.569  0.0860  0.2093  0.6254
  887MOL0     C22323   6.708  10.828   9.829  0.6779 -0.0890  0.0252
  887MOL0     C22324   6.718  10.895   9.955 -0.9472 -0.2749  0.8049
  887MOL0     C22325   6.776  10.831  10.061 -0.6358 -0.5436 -0.7159
  887MOL0     C22326   6.826  10.697  10.049  0.8999 -0.1603 -0.0189
  887MOL0     O22327   6.902  10.631  10.139 -0.1764  0.3529 -0.6112
  887MOL0     C22328   6.918  10.679  10.271 -0.4939 -0.0149  0.6784
  887MOL0     C22329   6.992  10.577  10.363 -0.6393 -0.4434 -0.3840
  887MOL0     C22330   7.114  10.511  10.286  0.0750 -0.6200 -0.5159
  887MOL0     C22331   7.203  10.424  10.366 -0.9316 -0.9046  0.2327
  887MOL0     C22332   7.130  10.314  10.434  0.3934  0.0508 -0.0874
  887MOL0     C22333   7.048  10.231  10.480 -0.7370  0.0685  0.6658
  887MOL0     C22334   6.800  10.630   9.929 -0.3123  0.0926 -0.4184
  887MOL0     C22335   6.747  10.694   9.814  0.0852  0.3695 -0.3393
  887MOL0     C22336   6.724  10.604   9.687  0.2870 -1.1447 -0.3072
  887MOL0     H22337   6.810  11.186   9.795 -0.4636  1.4963 -1.4917
  887MOL0     H22338   7.048  11.236   9.797  1.7688  2.3056 -3.1914
  887MOL0     H22339   7.315  11.067   9.486  1.1093  0.1826 -0.3515
  887MOL0     H22340   7.304  10.942   9.620  1.4702 -0.7117 -0.0880
  887MOL0     H22341   7.523  11.021   9.545 -0.6248 -0.3772 -0.5060
  887MOL0     H22342   7.489  11.183   9.623  2.1361 -0.3698  0.8832
  887MOL0     H22343   7.479  11.084   9.840  0.8634  0.5101  1.2406
  887MOL0     H22344   7.526  10.916   9.777 -0.4125  0.4988 -0.3557
  887MOL0     H22345   7.720  10.965   9.700 -0.0329 -1.8819  2.2441
  887MOL0     H22346   7.718  11.141   9.720  0.3206  0.0909  0.0497
  887MOL0     H22347   7.712  10.944   9.942 -0.6773 -0.1453  0.0357
  887MOL0     H22348   7.720  11.128   9.968 -1.3584 -0.2439  0.6970
  887MOL0     H22349   7.921  10.961   9.824  0.9190  0.8072 -0.8928
  887MOL0     H22350   7.924  11.142   9.854 -2.2142  1.2664  1.4247
  887MOL0     H22351   8.007  11.129  10.068  0.4095  0.5543 -0.8319
  887MOL0     H22352   8.104  11.025   9.993  1.2645  2.4374  1.3967
  887MOL0     H22353   8.037  10.929  10.198 -0.8200 -2.0658  1.3348
  887MOL0     H22354   7.871  10.938  10.156  1.3169  1.4314  2.1943
  887MOL0     H22355   8.176  10.737  10.097 -1.1465  2.3902 -0.2344
  887MOL0     H22356   8.070  10.380   9.987 -0.0729  0.3345 -1.8627
  887MOL0     H22357   8.187  10.468  10.081  0.1487 -0.5269 -0.0064
  887MOL0     H22358   8.226  10.383   9.815  2.5083  0.4931  0.2602
  887MOL0     H22359   8.160  10.547   9.791 -1.3085 -1.0138  0.6920
  887MOL0     H22360   8.362  10.636   9.934  1.2175  1.9068 -2.3209
  887MOL0     H22361   8.401  10.465   9.957  2.0455  2.1134  0.4665
  887MOL0     H22362   8.463  10.431   9.735  0.6620  1.1135 -2.3841
  887MOL0     H22363   8.403  10.602   9.695 -1.7249 -0.2729  0.3642
  887MOL0     H22364   8.832  10.645   9.885 -0.4545  0.4686  0.4001
  887MOL0     H22365   9.134  10.681   9.701  0.9863  2.0823  0.8073
  887MOL0     H22366   9.060  10.649   9.849 -0.9075  1.0132 -0.1055
  887MOL0     H22367   9.054  10.811   9.790  1.0088  0.3834 -1.4400
  887MOL0     H22368   9.051  10.831   9.197 -0.6042  0.6294 -0.0607
  887MOL0     H22369   9.185  10.975   9.059  1.7082 -4.1838 -1.1206
  887MOL0     H22370   9.394  11.010   8.923  0.5294  1.9900 -1.1522
  887MOL0     H22371   9.312  11.156   8.987 -0.4776 -0.2143 -1.7829
  887MOL0     H22372   9.605  11.118   8.939 -1.6777 -2.3772  0.5583
  887MOL0     H22373   9.494  11.203   8.836 -1.5419 -0.5633  0.2414
  887MOL0     H22374   9.553  11.275   9.129  0.2510 -1.9583  0.1570
  887MOL0     H22375   9.451  11.372   9.024 -0.0103 -1.8673 -0.5568
  887MOL0     H22376   9.686  11.463   9.061  2.8018 -0.7080 -0.3696
  887MOL0     H22377   9.625  11.471   8.898 -0.5035 -1.8138 -1.0075
  887MOL0     H22378   9.824  11.267   8.994  0.4978  0.2132 -0.4907
  887MOL0     H22379   9.753  11.260   8.836 -0.1788 -1.0330  0.4317
  887MOL0     H22380   9.885  11.527   8.924  3.6595 -1.8249  2.1733
  887MOL0     H22381   9.832  11.470   8.766  2.2426  0.2762 -0.8199
  887MOL0     H22382  10.052  11.315   8.916 -1.5665 -0.7944 -0.4045
  887MOL0     H22383  10.088  11.467   8.835 -2.2173  1.4655  3.1689
  887MOL0     H22384  10.141  11.287   8.678 -0.7769  0.0211 -1.4208
  887MOL0     H22385   9.998  11.380   8.626  0.8037  1.5035  0.3170
  887MOL0     H22386   9.481  10.978   9.372 -0.7457  0.0904  4.1639
  887MOL0     H22387   9.314  10.855   9.528 -1.2724  0.0575  0.9963
  887MOL0     H22388   8.771  10.579   9.394 -1.7692  2.0684 -0.7806
  887MOL0     H22389   8.592  10.551   9.545 -0.9230  2.8419  0.4380
  887MOL0     H22390   7.114  10.961   9.482  0.1908  2.3417 -2.0075
  887MOL0     H22391   6.908  10.892   9.490  1.3880  1.2901 -0.6253
  887MOL0     H22392   6.687  10.998   9.959  2.2729  0.8099  0.7535
  887MOL0     H22393   6.789  10.889  10.152  0.0403  2.4830 -2.5590
  887MOL0     H22394   6.958  10.781  10.276  1.0398 -0.6508  4.2377
  887MOL0     H22395   6.819  10.704  10.312 -1.2038  0.5906 -1.3037
  887MOL0     H22396   6.931  10.488  10.384  0.2710 -0.8547  0.6617
  887MOL0     H22397   7.010  10.626  10.460 -0.6801  0.9817 -1.0723
  887MOL0     H22398   7.064  10.464  10.201 -1.7025 -0.5673  0.4512
  887MOL0     H22399   7.182  10.593  10.260 -0.3198 -0.0326  0.2808
  887MOL0     H22400   7.266  10.473  10.441 -1.3610 -1.8314  1.2222
  887MOL0     H22401   7.276  10.384  10.294 -0.8338  0.7243 -0.6288
  887MOL0     H22402   6.959  10.178  10.509 -1.1440 -0.6392 -1.6657
  887MOL0     H22403   6.851  10.535   9.918  1.5442  1.2525 -2.9961
  887MOL0     H22404   6.679  10.656   9.602 -1.5519 -2.2242 -0.0501
  887MOL0     H22405   6.821  10.567   9.652 -0.2074 -4.1401  1.1584
  887MOL0     H22406   6.663  10.515   9.707  0.1281 -1.3232 -1.5172
  888MOL0     O22407   3.716   5.824   4.937  0.2665  0.3048 -0.5825
  888MOL0     C22408   3.745   5.826   4.816  0.3548 -0.6158  0.7097
  888MOL0     O22409   3.859   5.766   4.758  0.7124 -0.0138  0.0425
  888MOL0     C22410   3.953   5.720   4.849 -0.7183 -0.9132  0.0419
  888MOL0     C22411   3.939   5.601   4.935 -0.5471 -0.2552 -0.3578
  888MOL0     C22412   4.048   5.558   5.013  0.7559 -0.4068 -0.3809
  888MOL0     C22413   4.167   5.627   5.010  0.7173 -0.3609 -0.0757
  888MOL0     O22414   4.270   5.605   5.096  0.5251  0.4536 -0.3419
  888MOL0     C22415   4.313   5.476   5.133  0.4977  0.5066 -0.7494
  888MOL0     C22416   4.448   5.434   5.069  0.2473 -0.4005 -0.3138
  888MOL0     C22417   4.427   5.358   4.936 -0.3051  0.3702  0.3061
  888MOL0     C22418   4.378   5.217   4.936  0.1178  0.0752  0.6096
  888MOL0     C22419   4.347   5.170   4.799 -0.5252  0.1630 -0.4586
  888MOL0     C22420   4.471   5.120   4.732  0.6466  0.6049  0.0771
  888MOL0     C22421   4.424   5.061   4.601 -0.7529  1.1484  0.2497
  888MOL0     C22422   4.537   5.023   4.505  0.1809  0.1349  0.1261
  888MOL0     N22423   4.504   4.912   4.422  0.6185  0.1958  0.1630
  888MOL0     C22424   4.510   4.777   4.449  0.2512  0.1761  0.5768
  888MOL0     C22425   4.493   4.717   4.330 -0.5909 -0.3292  0.4055
  888MOL0     C22426   4.479   4.563   4.312  0.8686 -0.1752  0.1982
  888MOL0     C22427   4.594   4.485   4.357 -1.0303  0.0187 -0.3312
  888MOL0     C22428   4.555   4.337   4.375 -0.7326  0.0356  0.2896
  888MOL0     C22429   4.676   4.252   4.377 -0.2318  0.0381  0.0438
  888MOL0     O22430   4.646   4.117   4.360 -0.0199 -0.2974  0.3884
  888MOL0     C22431   4.744   4.021   4.366 -0.5578 -0.0108 -0.1948
  888MOL0     C22432   4.705   3.904   4.436 -0.4009 -0.3299 -0.0136
  888MOL0     C22433   4.796   3.804   4.458 -0.3150  0.0961  0.4506
  888MOL0     C22434   4.743   3.680   4.532 -0.4205  1.6692 -0.9678
  888MOL0     C22435   4.930   3.822   4.401  0.5728 -0.7307  0.3869
  888MOL0     C22436   5.023   3.709   4.399 -0.9738 -0.2738  0.3527
  888MOL0     O22437   4.973   3.586   4.412 -0.5838 -0.0194 -0.7320
  888MOL0     C22438   5.057   3.477   4.419  0.4162 -0.5220  0.1024
  888MOL0     C22439   5.126   3.433   4.302  0.4827  0.1266  0.8339
  888MOL0     C22440   5.210   3.322   4.311  1.6259  0.5450  0.8516
  888MOL0     C22441   5.239   3.261   4.434  0.1422  0.1144 -0.2512
  888MOL0     O22442   5.327   3.166   4.424 -0.6011 -0.4278  0.6993
  888MOL0     C22443   5.365   3.092   4.542 -0.6462  1.0658 -0.5924
  888MOL0     C22444   5.450   2.951   4.506 -0.1984  0.1570 -0.1546
  888MOL0     C22445   5.572   2.978   4.416 -0.2840  0.2602 -0.2697
  888MOL0     C22446   5.627   2.839   4.367 -0.0735  0.5619  0.3914
  888MOL0     C22447   5.752   2.840   4.277 -0.2711  0.8954  0.5760
  888MOL0     C22448   5.806   2.695   4.268  1.2050 -1.0312  0.2878
  888MOL0     C22449   5.929   2.689   4.176 -0.2206 -0.8977 -0.4385
  888MOL0     C22450   6.011   2.555   4.196  0.2762  0.7370  0.0678
  888MOL0    Cl22451   6.170   2.573   4.122  0.3850  0.3250  0.0277
  888MOL0     C22452   5.161   3.296   4.540  0.5700 -0.4767  0.1680
  888MOL0     C22453   5.073   3.410   4.539 -0.0196 -1.0086 -0.1015
  888MOL0     O22454   5.142   3.738   4.389  0.4515  0.5757 -0.0499
  888MOL0     C22455   4.971   3.950   4.349  0.4493  0.3776 -0.8917
  888MOL0     C22456   4.873   4.037   4.316  0.6056 -0.4648 -0.9671
  888MOL0     N22457   4.490   4.820   4.229  0.4878  0.0988 -0.1299
  888MOL0     N22458   4.494   4.935   4.286  0.0701  0.6492  0.2703
  888MOL0     C22459   4.179   5.746   4.933  0.0509  0.7012 -0.1051
  888MOL0     C22460   4.073   5.787   4.848  0.0779  0.6075 -0.3917
  888MOL0     C22461   3.633   5.860   4.725  0.5272  0.4041 -0.3349
  888MOL0     C22462   3.505   5.827   4.766  0.4004  0.1337  1.0105
  888MOL0     C22463   3.396   5.883   4.693  0.3070 -0.2214 -0.3673
  888MOL0     C22464   3.408   5.961   4.580 -0.1004 -0.4023 -0.2252
  888MOL0     O22465   3.291   6.012   4.520 -0.4028  0.8263 -0.8242
  888MOL0     C22466   3.294   6.100   4.414 -0.0285 -0.5184  0.8793
  888MOL0     C22467   3.324   6.030   4.287  0.4880 -0.7298  0.3629
  888MOL0     C22468   3.192   5.953   4.242  0.8772  0.4903  0.2129
  888MOL0     C22469   3.189   5.804   4.293 -0.1973 -0.0112 -0.3781
  888MOL0     C22470   3.117   5.713   4.215  1.5799  0.2680  0.3363
  888MOL0     C22471   3.055   5.635   4.153  1.3444  0.2296  0.9300
  888MOL0     C22472   3.541   5.976   4.531 -0.1883  1.1808 -0.0765
  888MOL0     C22473   3.655   5.924   4.601  0.7579 -0.4787  0.2019
  888MOL0     C22474   3.794   5.969   4.555 -0.3052 -0.5448 -0.4359
  888MOL0     H22475   3.842   5.552   4.937  0.0276 -1.4102  1.2731
  888MOL0     H22476   4.036   5.472   5.077 -0.9863 -0.2139 -0.4063
  888MOL0     H22477   4.236   5.400   5.116  2.3985 -2.6457  2.9975
  888MOL0     H22478   4.335   5.483   5.240 -0.0371 -0.5505 -0.5571
  888MOL0     H22479   4.507   5.523   5.046 -2.6205  1.8428  0.3734
  888MOL0     H22480   4.507   5.377   5.141  1.0228  0.2357 -0.4304
  888MOL0     H22481   4.348   5.410   4.881  0.1705  1.2257  0.4184
  888MOL0     H22482   4.515   5.360   4.871 -1.9479 -2.7512 -2.3207
  888MOL0     H22483   4.459   5.164   4.987 -0.5088 -1.7616 -0.2317
  888MOL0     H22484   4.290   5.221   5.001  1.3742  3.6382  2.3343
  888MOL0     H22485   4.294   5.244   4.738 -1.3923  2.7523  3.1395
  888MOL0     H22486   4.280   5.084   4.806  2.8820 -2.5835  1.6081
  888MOL0     H22487   4.533   5.209   4.720  0.8821  1.0431  3.4968
  888MOL0     H22488   4.523   5.047   4.796 -1.2365 -0.8672  0.0207
  888MOL0     H22489   4.361   5.129   4.543 -2.5771 -2.8947 -3.0194
  888MOL0     H22490   4.358   4.976   4.615 -2.1666  1.5462 -3.0822
  888MOL0     H22491   4.577   5.108   4.449 -1.2444  1.9614  1.7536
  888MOL0     H22492   4.624   4.994   4.565  0.3794  1.4921  0.5295
  888MOL0     H22493   4.508   4.725   4.544  0.1011 -3.3985 -1.2165
  888MOL0     H22494   4.459   4.545   4.206  0.9664  1.2785 -0.0943
  888MOL0     H22495   4.394   4.527   4.371 -0.8242 -2.2272 -3.1866
  888MOL0     H22496   4.674   4.491   4.283 -1.7659 -2.4808 -1.4167
  888MOL0     H22497   4.642   4.527   4.446 -1.2102 -0.3614 -0.0529
  888MOL0     H22498   4.502   4.321   4.469  1.0910 -2.3508  1.0197
  888MOL0     H22499   4.495   4.302   4.291 -0.6790 -1.3478  0.8014
  888MOL0     H22500   4.731   4.270   4.284 -0.9027 -0.5049 -0.4666
  888MOL0     H22501   4.747   4.282   4.455  0.2881  1.1580 -0.8249
  888MOL0     H22502   4.605   3.906   4.478 -0.2118  0.2001  0.4215
  888MOL0     H22503   4.820   3.634   4.595 -0.0639  1.8196 -1.2930
  888MOL0     H22504   4.726   3.598   4.462  0.0565 -1.7628  2.5451
  888MOL0     H22505   4.648   3.689   4.585 -1.1336 -0.5699 -1.7363
  888MOL0     H22506   5.121   3.488   4.208 -1.1075 -0.0969  0.7658
  888MOL0     H22507   5.259   3.289   4.220 -1.3302  0.6312 -0.9067
  888MOL0     H22508   5.440   3.149   4.597  2.3374 -1.7272 -1.4555
  888MOL0     H22509   5.290   3.060   4.615 -0.4281  0.9817 -0.4037
  888MOL0     H22510   5.490   2.903   4.596  0.6718  1.0385 -0.0551
  888MOL0     H22511   5.384   2.887   4.448  1.4321  1.2190 -3.4332
  888MOL0     H22512   5.640   3.037   4.478 -0.3021  0.5428 -0.5117
  888MOL0     H22513   5.555   3.041   4.327 -1.2828  1.5025  0.7597
  888MOL0     H22514   5.550   2.785   4.311 -0.0548 -0.0583  0.9568
  888MOL0     H22515   5.652   2.787   4.460 -4.2659 -0.3401  1.2406
  888MOL0     H22516   5.722   2.885   4.182 -0.5981  1.9266  1.1463
  888MOL0     H22517   5.829   2.896   4.331  1.3946 -0.9591  0.2364
  888MOL0     H22518   5.726   2.628   4.234 -0.9475  0.7853  1.4533
  888MOL0     H22519   5.828   2.679   4.374 -0.2722  1.5363  1.0775
  888MOL0     H22520   5.990   2.776   4.203 -0.7096  0.1025 -2.3741
  888MOL0     H22521   5.908   2.690   4.068  1.9717 -4.7520 -1.0942
  888MOL0     H22522   5.956   2.465   4.168  2.1937 -0.5663  0.3302
  888MOL0     H22523   6.040   2.543   4.301 -0.1575 -1.2197 -0.0112
  888MOL0     H22524   5.197   3.252   4.633  0.0975 -1.4711 -0.1101
  888MOL0     H22525   5.011   3.432   4.625  0.0961 -0.5864 -0.1255
  888MOL0     H22526   5.074   3.978   4.328  0.1877  1.5249 -0.7157
  888MOL0     H22527   4.880   4.141   4.287 -1.7901  1.2762  3.6163
  888MOL0     H22528   4.258   5.818   4.952  2.0574 -1.3065 -0.5572
  888MOL0     H22529   4.081   5.863   4.771 -1.0797 -1.6626 -2.9279
  888MOL0     H22530   3.482   5.783   4.863 -1.3680  0.4668  0.7692
  888MOL0     H22531   3.296   5.869   4.734  0.3247 -0.7879 -0.5025
  888MOL0     H22532   3.200   6.153   4.402  0.6741  0.1323 -3.6003
  888MOL0     H22533   3.376   6.170   4.431  1.3041 -1.1619 -2.2032
  888MOL0     H22534   3.413   5.969   4.304  0.6411 -0.5438  0.2322
  888MOL0     H22535   3.352   6.102   4.209 -1.4118  0.5308  0.7716
  888MOL0     H22536   3.102   6.004   4.277  0.6917 -1.3178  2.5931
  888MOL0     H22537   3.187   5.948   4.133 -0.0576 -2.6149  0.3034
  888MOL0     H22538   3.141   5.809   4.392 -0.2227  0.1568 -0.3973
  888MOL0     H22539   3.290   5.764   4.302  0.9143  1.8212 -3.1831
  888MOL0     H22540   2.992   5.569   4.097  1.3814 -0.2167  1.4075
  888MOL0     H22541   3.566   6.032   4.442  0.1617 -0.6108 -1.1593
  888MOL0     H22542   3.785   6.066   4.505 -3.4233  0.1604  1.2277
  888MOL0     H22543   3.861   5.981   4.640  0.2591 -3.1726 -0.3963
  888MOL0     H22544   3.837   5.894   4.486  1.0681  0.0450 -0.2534
  889MOL0     O22545   0.328   1.388   8.738 -0.2849  0.2326  0.4535
  889MOL0     C22546   0.320   1.487   8.656  0.2749 -0.3641 -0.1576
  889MOL0     O22547   0.224   1.582   8.653  0.8725  0.0074 -0.7448
  889MOL0     C22548   0.117   1.597   8.738 -0.1609  0.2720 -0.4911
  889MOL0     C22549   0.120   1.573   8.881 -0.1091 -0.3354  0.6792
  889MOL0     C22550   0.014   1.595   8.964 -0.6516 -0.2762 -0.7706
  889MOL0     C22551  -0.093   1.664   8.913 -0.7579 -0.2587  0.9930
  889MOL0     O22552  -0.203   1.698   8.984 -1.0812  0.1083 -0.1835
  889MOL0     C22553  -0.171   1.743   9.118 -1.0048 -1.2458 -0.2672
  889MOL0     C22554  -0.292   1.809   9.196 -0.0293  0.6931 -0.3939
  889MOL0     C22555  -0.344   1.940   9.129 -0.5417  0.7122  0.2851
  889MOL0     C22556  -0.254   2.061   9.159  0.6018 -0.2400 -0.0533
  889MOL0     C22557  -0.319   2.173   9.075 -0.4844  0.7678 -0.3962
  889MOL0     C22558  -0.203   2.268   9.034  0.1082  0.7580 -0.7126
  889MOL0     C22559  -0.256   2.383   8.953  0.3626 -0.7480  0.2635
  889MOL0     C22560  -0.146   2.481   8.903 -0.4534 -0.1271  0.5894
  889MOL0     N22561  -0.199   2.605   8.843  0.0337  0.1261 -0.3188
  889MOL0     C22562  -0.268   2.705   8.903  0.3381 -0.3187 -0.3951
  889MOL0     C22563  -0.288   2.792   8.809  0.8590 -0.0218 -0.5282
  889MOL0     C22564  -0.378   2.920   8.812  0.2477  0.6463  0.1416
  889MOL0     C22565  -0.474   2.920   8.685 -0.0181  0.2129 -0.9645
  889MOL0     C22566  -0.565   3.041   8.693 -0.0497 -0.1622 -0.0828
  889MOL0     C22567  -0.653   3.074   8.573 -0.3678 -0.2578  0.7003
  889MOL0     O22568  -0.702   3.211   8.592 -0.6756  0.6779  0.4717
  889MOL0     C22569  -0.830   3.224   8.575  0.9962 -0.3372  0.1122
  889MOL0     C22570  -0.906   3.294   8.672  0.2196  0.9962 -0.0842
  889MOL0     C22571  -1.046   3.308   8.675 -0.5036 -0.0235 -0.3805
  889MOL0     C22572  -1.108   3.411   8.761 -0.1183 -0.2027  0.8898
  889MOL0     C22573  -1.126   3.245   8.571 -0.4556  0.3556 -0.5067
  889MOL0     C22574  -1.280   3.232   8.562 -0.0186  0.4877 -0.6405
  889MOL0     O22575  -1.331   3.176   8.452  0.0358 -0.8940 -0.2884
  889MOL0     C22576  -1.460   3.137   8.448  0.5503  0.1680  0.0807
  889MOL0     C22577  -1.568   3.225   8.471 -0.5204 -0.1110 -0.1863
  889MOL0     C22578  -1.698   3.179   8.448  1.1050 -0.1211 -0.3056
  889MOL0     C22579  -1.734   3.048   8.402  0.3069  0.1176 -0.7651
  889MOL0     O22580  -1.861   3.000   8.383  0.1966  0.0918  0.5329
  889MOL0     C22581  -1.963   3.103   8.345 -0.4183  0.4792  0.5981
  889MOL0     C22582  -2.082   3.030   8.279  0.1481 -0.7188  0.2261
  889MOL0     C22583  -2.173   2.945   8.367  0.8782  0.6728 -0.8877
  889MOL0     C22584  -2.261   2.850   8.289  0.7952 -0.4857  0.0493
  889MOL0     C22585  -2.359   2.760   8.373  0.1772  0.1277  0.0265
  889MOL0     C22586  -2.456   2.834   8.462  0.0809 -0.4505  0.5363
  889MOL0     C22587  -2.565   2.733   8.503  1.3228 -0.5251 -0.1676
  889MOL0     C22588  -2.665   2.804   8.604  0.2578  0.3506 -0.5371
  889MOL0    Cl22589  -2.757   2.936   8.528  0.1288 -0.2308  0.1351
  889MOL0     C22590  -1.622   2.965   8.393 -0.8898  0.7997  0.2172
  889MOL0     C22591  -1.487   3.003   8.406 -0.0320  0.1174 -0.3867
  889MOL0     O22592  -1.345   3.278   8.663 -0.5324  0.3552  0.8317
  889MOL0     C22593  -1.053   3.165   8.476  0.9775  0.0590 -0.5044
  889MOL0     C22594  -0.914   3.158   8.476 -0.4785 -0.7133  0.0502
  889MOL0     N22595  -0.253   2.740   8.689  0.0532 -1.3666 -0.3154
  889MOL0     N22596  -0.195   2.626   8.710 -0.5327 -0.0812 -0.1007
  889MOL0     C22597  -0.102   1.687   8.769  0.2653  0.4030 -0.3854
  889MOL0     C22598   0.001   1.657   8.689 -0.5836  0.4526  0.3819
  889MOL0     C22599   0.417   1.501   8.547 -0.7877  0.8557  0.3575
  889MOL0     C22600   0.470   1.388   8.489  0.2587  0.8722  0.9578
  889MOL0     C22601   0.568   1.381   8.392 -0.4373  0.2860 -1.3390
  889MOL0     C22602   0.615   1.496   8.337  0.0649  0.0025 -0.9128
  889MOL0     O22603   0.725   1.519   8.255  0.7736 -0.3317  0.0753
  889MOL0     C22604   0.758   1.404   8.172 -0.9199  0.3452  0.3244
  889MOL0     C22605   0.901   1.415   8.141 -0.0250  0.1454  0.0309
  889MOL0     C22606   0.971   1.301   8.054 -0.3585 -0.1189 -0.9412
  889MOL0     C22607   1.105   1.337   7.997  0.0340  0.4804 -0.2885
  889MOL0     C22608   1.142   1.236   7.896 -0.2165 -0.2816  0.1353
  889MOL0     C22609   1.178   1.159   7.806 -0.6718  0.2184 -0.2988
  889MOL0     C22610   0.565   1.621   8.385  0.7242  0.4069  0.6953
  889MOL0     C22611   0.465   1.616   8.485  0.4783  0.4965  0.3434
  889MOL0     C22612   0.411   1.747   8.536  0.1518  0.1571  0.4365
  889MOL0     H22613   0.204   1.519   8.922 -2.0654 -4.3170 -0.0610
  889MOL0     H22614   0.020   1.559   9.067  1.6182  0.1704 -0.6855
  889MOL0     H22615  -0.091   1.817   9.130 -0.0458 -2.2102 -0.5359
  889MOL0     H22616  -0.139   1.652   9.170 -1.0481 -0.1940  1.6991
  889MOL0     H22617  -0.377   1.740   9.195 -0.4541  1.1264  1.8768
  889MOL0     H22618  -0.261   1.830   9.298 -2.2576  0.0871  0.4614
  889MOL0     H22619  -0.355   1.922   9.022  0.9325 -1.1079  0.4011
  889MOL0     H22620  -0.442   1.969   9.171  0.7163  4.7469  0.9390
  889MOL0     H22621  -0.257   2.100   9.261  3.1209  1.1796 -0.4519
  889MOL0     H22622  -0.151   2.037   9.132  1.0017 -3.1137  3.3225
  889MOL0     H22623  -0.389   2.217   9.147 -0.1884 -0.1658  0.4912
  889MOL0     H22624  -0.379   2.152   8.986  0.6787  0.9435 -1.2368
  889MOL0     H22625  -0.153   2.313   9.120 -3.3333  2.5439  0.5516
  889MOL0     H22626  -0.137   2.206   8.972  1.2423  0.7530  0.4533
  889MOL0     H22627  -0.319   2.445   9.018  0.6173 -0.2232  0.0180
  889MOL0     H22628  -0.304   2.348   8.861 -2.2170  1.0118  0.7957
  889MOL0     H22629  -0.075   2.508   8.982  0.2420 -1.8058  0.5922
  889MOL0     H22630  -0.078   2.421   8.841 -1.6814 -1.3859  0.3892
  889MOL0     H22631  -0.307   2.720   9.003 -0.4252  0.2201 -0.7604
  889MOL0     H22632  -0.322   3.013   8.824 -1.0707  1.5309 -0.2456
  889MOL0     H22633  -0.443   2.912   8.900 -1.1148 -2.9027 -0.9978
  889MOL0     H22634  -0.406   2.927   8.599 -2.1869  2.1923 -2.6360
  889MOL0     H22635  -0.541   2.834   8.685  0.1904  0.0443 -1.7351
  889MOL0     H22636  -0.633   3.033   8.778  1.4053 -1.3353  1.0295
  889MOL0     H22637  -0.497   3.126   8.703  2.8171 -2.2885 -0.3606
  889MOL0     H22638  -0.584   3.067   8.489  1.2221 -0.2404  1.9663
  889MOL0     H22639  -0.723   2.993   8.550  0.9848 -1.5016  0.8716
  889MOL0     H22640  -0.855   3.346   8.752 -1.0365  2.9975 -0.5203
  889MOL0     H22641  -1.172   3.374   8.842 -0.9022  2.9407  1.8403
  889MOL0     H22642  -1.168   3.474   8.694  2.6150  1.0473 -0.5470
  889MOL0     H22643  -1.047   3.491   8.803 -2.7422  3.4677 -1.6169
  889MOL0     H22644  -1.554   3.330   8.495  0.7463 -0.8156  2.5872
  889MOL0     H22645  -1.779   3.248   8.470  0.0489 -1.4846  0.2080
  889MOL0     H22646  -2.008   3.154   8.430 -3.5086 -1.5137  0.3267
  889MOL0     H22647  -1.924   3.178   8.275 -3.1323 -0.0409 -1.6983
  889MOL0     H22648  -2.139   3.103   8.220  1.4460  0.8521  0.8418
  889MOL0     H22649  -2.040   2.971   8.197 -1.3598 -2.4412  0.6149
  889MOL0     H22650  -2.241   3.007   8.427  0.3904 -2.6848  2.3433
  889MOL0     H22651  -2.110   2.896   8.441 -0.9281 -1.7050 -0.8143
  889MOL0     H22652  -2.192   2.781   8.238  0.4387  0.6604 -2.0646
  889MOL0     H22653  -2.331   2.908   8.229  0.9465 -1.1841 -0.8231
  889MOL0     H22654  -2.420   2.696   8.308 -0.3337 -1.0787  1.6392
  889MOL0     H22655  -2.301   2.693   8.438  0.5916 -0.3552 -0.8208
  889MOL0     H22656  -2.512   2.912   8.409 -0.0769 -2.5385 -2.6715
  889MOL0     H22657  -2.407   2.880   8.548 -0.3145  1.1265 -0.0461
  889MOL0     H22658  -2.526   2.646   8.556  1.3317 -2.2896 -2.9025
  889MOL0     H22659  -2.618   2.694   8.415 -0.4298 -1.3353  1.1695
  889MOL0     H22660  -2.613   2.838   8.694 -2.3359  0.0031  1.2099
  889MOL0     H22661  -2.727   2.725   8.649  1.5789 -0.4320 -0.0384
  889MOL0     H22662  -1.651   2.867   8.358 -0.8482  1.8715 -3.1630
  889MOL0     H22663  -1.411   2.928   8.391  1.0185  1.2445 -0.7878
  889MOL0     H22664  -1.113   3.114   8.401 -1.7511  1.6278  0.4651
  889MOL0     H22665  -0.864   3.100   8.399 -1.2202  0.9392 -1.7844
  889MOL0     H22666  -0.197   1.710   8.720 -1.1421 -3.3823  0.2228
  889MOL0     H22667  -0.016   1.675   8.583 -1.0723 -0.7043  0.2529
  889MOL0     H22668   0.461   1.292   8.539  3.0694  1.4228  2.7968
  889MOL0     H22669   0.611   1.285   8.367 -0.0010  0.0982  0.0847
  889MOL0     H22670   0.737   1.307   8.218 -3.9560  0.2676 -0.9781
  889MOL0     H22671   0.707   1.393   8.076  3.1225 -2.1500 -1.8332
  889MOL0     H22672   0.965   1.438   8.227  0.7778 -2.0206  0.0907
  889MOL0     H22673   0.913   1.505   8.080  2.8882  0.4784  0.9280
  889MOL0     H22674   0.976   1.209   8.113 -0.1220 -0.6662 -1.8089
  889MOL0     H22675   0.906   1.278   7.969 -1.6125  1.5468 -0.4852
  889MOL0     H22676   1.175   1.339   8.082 -2.0246 -1.9935  1.6511
  889MOL0     H22677   1.103   1.437   7.954 -0.9255 -0.0233 -1.4959
  889MOL0     H22678   1.215   1.080   7.744 -1.8431  0.6007 -1.5361
  889MOL0     H22679   0.605   1.712   8.342 -3.4772  1.7889 -0.8506
  889MOL0     H22680   0.307   1.763   8.504  1.0544 -0.1989 -2.9870
  889MOL0     H22681   0.420   1.756   8.645  1.2379  0.4417  0.3324
  889MOL0     H22682   0.463   1.831   8.489  1.6875 -0.1964  1.4338
  890MOL0     O22683   2.619   2.407  11.214 -0.1425  0.3627 -0.6266
  890MOL0     C22684   2.610   2.531  11.223  0.2826 -0.5393  0.6073
  890MOL0     O22685   2.711   2.623  11.192  0.1575 -0.1884  0.0087
  890MOL0     C22686   2.822   2.568  11.130 -0.8098 -0.1952  0.2929
  890MOL0     C22687   2.821   2.485  11.023 -0.5073 -0.2828 -0.3187
  890MOL0     C22688   2.938   2.431  10.965  0.3990  0.4337 -0.2510
  890MOL0     C22689   3.068   2.475  11.011  0.4504 -0.2565  0.0021
  890MOL0     O22690   3.180   2.414  10.955  0.4100 -0.8534  0.1176
  890MOL0     C22691   3.169   2.300  10.868  0.0617  0.3238 -0.3878
  890MOL0     C22692   3.299   2.210  10.859 -0.6892  0.4177  0.2763
  890MOL0     C22693   3.286   2.091  10.767 -0.3172 -0.4134 -0.1342
  890MOL0     C22694   3.406   2.000  10.758 -0.1858 -0.0573 -0.1728
  890MOL0     C22695   3.394   1.902  10.645 -0.5737 -0.2539  0.0629
  890MOL0     C22696   3.510   1.805  10.618  0.0104  0.2007 -0.8596
  890MOL0     C22697   3.481   1.712  10.503  0.4823  0.4947  1.0850
  890MOL0     C22698   3.335   1.659  10.499 -0.2045  0.2647  0.9387
  890MOL0     N22699   3.323   1.550  10.400  1.0184 -0.9199 -0.6117
  890MOL0     C22700   3.343   1.423  10.434 -0.2790 -0.4125 -0.4572
  890MOL0     C22701   3.284   1.351  10.334 -1.1693 -0.1670 -0.6520
  890MOL0     C22702   3.275   1.198  10.327  0.4462  0.7105 -0.1317
  890MOL0     C22703   3.400   1.131  10.399  0.6162 -0.3492 -1.0527
  890MOL0     C22704   3.378   0.978  10.408 -0.6373 -0.0811 -0.2308
  890MOL0     C22705   3.502   0.909  10.482  0.7612 -0.0635  0.0931
  890MOL0     O22706   3.507   0.928  10.626  0.2343 -0.4299 -0.0712
  890MOL0     C22707   3.616   0.902  10.709 -0.9202  0.3064  1.0005
  890MOL0     C22708   3.741   0.857  10.667 -0.6975  0.1646  0.2856
  890MOL0     C22709   3.854   0.845  10.747 -0.7838 -0.1137 -0.2261
  890MOL0     C22710   3.974   0.808  10.670  0.0098 -0.7342 -0.7018
  890MOL0     C22711   3.844   0.855  10.890 -0.4752 -0.4520  0.1642
  890MOL0     C22712   3.963   0.843  10.986  0.5468  0.0519 -0.3222
  890MOL0     O22713   3.934   0.839  11.116 -0.4550 -0.5945 -0.4874
  890MOL0     C22714   4.045   0.848  11.196 -0.2805 -0.4296  0.4867
  890MOL0     C22715   4.123   0.736  11.219 -0.2537 -0.4492  0.2585
  890MOL0     C22716   4.252   0.748  11.269 -0.1559  0.3213 -0.8034
  890MOL0     C22717   4.306   0.873  11.295  0.6436  0.2359 -0.4938
  890MOL0     O22718   4.440   0.893  11.328 -0.1738  0.1911  0.9719
  890MOL0     C22719   4.505   0.808  11.426  0.0283  0.4360  0.1732
  890MOL0     C22720   4.646   0.859  11.458 -0.3077  0.2993 -0.9454
  890MOL0     C22721   4.635   0.984  11.539  0.2931 -0.0111 -0.0144
  890MOL0     C22722   4.780   1.033  11.564  0.3569  0.3513  0.0724
  890MOL0     C22723   4.787   1.139  11.665 -0.2828  0.1742 -0.6228
  890MOL0     C22724   4.776   1.293  11.635 -1.2911 -0.1464 -0.5090
  890MOL0     C22725   4.655   1.347  11.558  0.3884  0.3900 -0.4651
  890MOL0     C22726   4.690   1.356  11.412  0.2163 -0.8218 -0.9994
  890MOL0    Cl22727   4.547   1.378  11.304 -0.1056  0.0955 -0.0362
  890MOL0     C22728   4.217   0.980  11.290 -0.0743 -0.5568 -0.0892
  890MOL0     C22729   4.086   0.973  11.256 -0.2163  0.1856 -0.1612
  890MOL0     O22730   4.071   0.822  10.947 -0.5667  0.7656 -0.8070
  890MOL0     C22731   3.720   0.894  10.938  0.2283 -0.6931  0.6986
  890MOL0     C22732   3.616   0.923  10.847 -0.7216 -1.0065 -1.3938
  890MOL0     N22733   3.211   1.440  10.254 -0.6515  0.4128 -0.5592
  890MOL0     N22734   3.226   1.553  10.298 -0.3184 -0.2341  0.1187
  890MOL0     C22735   3.065   2.571  11.110  0.8009 -1.4382 -0.5572
  890MOL0     C22736   2.947   2.612  11.167 -0.1241 -0.2151  0.1710
  890MOL0     C22737   2.479   2.589  11.249 -0.6930  0.0328 -0.4947
  890MOL0     C22738   2.455   2.723  11.207  0.8983  0.3692  0.1314
  890MOL0     C22739   2.327   2.782  11.247  0.2405 -0.4550 -0.0897
  890MOL0     C22740   2.236   2.706  11.322 -1.6587  0.4892 -0.4656
  890MOL0     O22741   2.115   2.759  11.368 -0.0456 -0.3704  0.3354
  890MOL0     C22742   2.096   2.899  11.337 -0.0344  0.1619 -0.3369
  890MOL0     C22743   1.973   2.951  11.422 -0.6954  0.1594 -0.5964
  890MOL0     C22744   1.835   2.907  11.364 -0.7291  0.1415 -0.3456
  890MOL0     C22745   1.780   3.011  11.265 -0.2650  0.1697  0.1676
  890MOL0     C22746   1.719   3.122  11.324  0.0375  0.0289 -0.8261
  890MOL0     C22747   1.688   3.224  11.381  0.8552  0.2775  0.6893
  890MOL0     C22748   2.269   2.575  11.360  0.7421  0.4519  0.3403
  890MOL0     C22749   2.385   2.511  11.323  0.2072 -1.2497  0.1695
  890MOL0     C22750   2.378   2.360  11.350 -0.0336 -0.3910 -1.3837
  890MOL0     H22751   2.727   2.456  10.978 -1.4771  3.3319 -0.9794
  890MOL0     H22752   2.942   2.362  10.880  0.3067 -0.9065  0.8008
  890MOL0     H22753   3.146   2.322  10.764 -0.2588  1.0392 -0.1749
  890MOL0     H22754   3.089   2.231  10.897 -0.8806  2.0295  1.2751
  890MOL0     H22755   3.389   2.267  10.833  0.6644 -1.0399  1.5007
  890MOL0     H22756   3.327   2.172  10.958 -0.4153  0.7517  0.3307
  890MOL0     H22757   3.205   2.032  10.812 -0.4112 -0.2193 -0.0490
  890MOL0     H22758   3.249   2.127  10.671 -1.5413 -2.1115 -0.3586
  890MOL0     H22759   3.494   2.059  10.732  0.1384 -0.8176 -0.8304
  890MOL0     H22760   3.415   1.952  10.856 -1.9847  3.7022  2.0631
  890MOL0     H22761   3.386   1.958  10.551 -0.9889  0.1056  0.3052
  890MOL0     H22762   3.301   1.845  10.656 -1.1650  0.4193 -1.1378
  890MOL0     H22763   3.596   1.862  10.584  1.7163 -0.6382  1.7540
  890MOL0     H22764   3.538   1.756  10.712 -2.7764  1.9878  1.0773
  890MOL0     H22765   3.554   1.630  10.503  0.8928  0.8087 -1.1826
  890MOL0     H22766   3.496   1.765  10.409  2.4451 -1.2268  0.3590
  890MOL0     H22767   3.308   1.626  10.600  0.3430 -0.9416  0.7045
  890MOL0     H22768   3.265   1.737  10.467 -0.6479  0.6410  2.7039
  890MOL0     H22769   3.396   1.407  10.528  1.2480  3.7634 -0.4165
  890MOL0     H22770   3.258   1.160  10.225 -1.9371  1.8154 -0.2176
  890MOL0     H22771   3.191   1.169  10.391  0.2897 -3.9002 -2.0089
  890MOL0     H22772   3.494   1.153  10.346  1.1465  3.4444  1.0940
  890MOL0     H22773   3.395   1.162  10.503 -2.6522  1.1234 -1.5159
  890MOL0     H22774   3.280   0.951  10.449 -1.8738  2.3554 -1.3750
  890MOL0     H22775   3.377   0.936  10.307  1.6674  2.1808 -1.2990
  890MOL0     H22776   3.496   0.802  10.461  0.3163 -0.4079  1.8626
  890MOL0     H22777   3.593   0.948  10.435 -1.2876  1.3804 -3.0772
  890MOL0     H22778   3.751   0.849  10.559 -1.9102 -0.9485  0.2342
  890MOL0     H22779   4.014   0.711  10.703 -2.0962 -2.8088 -3.7055
  890MOL0     H22780   4.049   0.888  10.667 -2.1010  1.2943 -2.7110
  890MOL0     H22781   3.946   0.789  10.566  0.8583 -3.9595 -0.4725
  890MOL0     H22782   4.086   0.636  11.197 -0.1739  0.3253 -4.2072
  890MOL0     H22783   4.321   0.664  11.265 -2.6296 -2.2046  2.9570
  890MOL0     H22784   4.449   0.799  11.519  1.2915 -1.4895  0.7873
  890MOL0     H22785   4.526   0.707  11.390  3.0635  1.8532 -2.4805
  890MOL0     H22786   4.689   0.774  11.513 -2.1194 -0.7911 -1.1410
  890MOL0     H22787   4.704   0.872  11.367 -1.2848 -1.7327 -1.9270
  890MOL0     H22788   4.583   0.966  11.634 -2.1283 -0.1653 -1.2766
  890MOL0     H22789   4.574   1.057  11.485  0.1177 -0.5459 -0.5567
  890MOL0     H22790   4.831   1.058  11.471  0.4746 -2.9225 -0.8683
  890MOL0     H22791   4.834   0.949  11.610  1.0596  1.0113  0.4872
  890MOL0     H22792   4.707   1.114  11.735  1.5850 -0.7431  1.3013
  890MOL0     H22793   4.886   1.124  11.709  0.4462  0.7621 -1.9781
  890MOL0     H22794   4.864   1.328  11.579  1.2394 -1.8560  2.0836
  890MOL0     H22795   4.782   1.337  11.735 -0.3029 -2.1703  0.3904
  890MOL0     H22796   4.631   1.451  11.583 -0.7623  0.7275 -2.7602
  890MOL0     H22797   4.570   1.278  11.568  2.5093 -2.9191 -3.3254
  890MOL0     H22798   4.720   1.253  11.394  1.4533 -0.3788 -1.5715
  890MOL0     H22799   4.774   1.421  11.388  0.4323 -0.8632 -0.3634
  890MOL0     H22800   4.254   1.074  11.331  1.3415 -1.2315  0.2295
  890MOL0     H22801   4.022   1.061  11.264  0.6798  0.6999  2.5690
  890MOL0     H22802   3.702   0.921  11.042  0.4801  1.9010  0.1541
  890MOL0     H22803   3.530   0.971  10.892  0.5508 -0.5530  0.6857
  890MOL0     H22804   3.155   2.609  11.158 -0.3939 -1.3243  1.7180
  890MOL0     H22805   2.941   2.673  11.256  2.6234 -0.7839  0.8257
  890MOL0     H22806   2.524   2.770  11.138  4.1597 -3.7313  0.1583
  890MOL0     H22807   2.296   2.878  11.208  0.6630 -0.8117 -1.3859
  890MOL0     H22808   2.187   2.947  11.372  1.2690 -2.9346  0.9018
  890MOL0     H22809   2.076   2.924  11.233 -1.0477  1.3028  0.0999
  890MOL0     H22810   1.976   3.058  11.400 -1.7411  0.7102  1.6613
  890MOL0     H22811   1.987   2.934  11.529 -1.3595  1.4071 -0.2858
  890MOL0     H22812   1.852   2.812  11.313 -0.9514 -0.4887  0.7278
  890MOL0     H22813   1.761   2.887  11.442 -0.5160 -0.8359 -0.3760
  890MOL0     H22814   1.710   2.960  11.199  0.5898  0.9538 -1.4152
  890MOL0     H22815   1.864   3.044  11.204  0.8428 -0.6127  1.2102
  890MOL0     H22816   1.678   3.318  11.431 -2.0402 -0.0183  0.8887
  890MOL0     H22817   2.187   2.521  11.406  0.0754  2.3619  1.5320
  890MOL0     H22818   2.469   2.306  11.377 -1.8015 -2.1513  1.7074
  890MOL0     H22819   2.311   2.335  11.433  0.6979  0.9734 -0.3390
  890MOL0     H22820   2.337   2.317  11.258 -2.3667 -2.9927  0.6753
  891MOL0     O22821   5.333   4.995   7.957 -0.5249 -0.5555  0.4275
  891MOL0     C22822   5.371   5.091   8.025  0.3801 -0.2151 -0.5856
  891MOL0     O22823   5.384   5.220   7.984  0.8063  0.5583  0.9141
  891MOL0     C22824   5.419   5.234   7.852 -0.8943  0.1206 -0.9359
  891MOL0     C22825   5.345   5.313   7.767  0.1950  0.9287  0.4404
  891MOL0     C22826   5.371   5.330   7.636 -0.3039  0.0903  0.3851
  891MOL0     C22827   5.485   5.275   7.577  0.1762  0.1971 -0.6735
  891MOL0     O22828   5.530   5.289   7.447  0.2503 -0.4456 -0.6700
  891MOL0     C22829   5.455   5.341   7.340 -0.2456  0.0627  0.2520
  891MOL0     C22830   5.547   5.331   7.211 -0.2102 -0.2308 -0.2060
  891MOL0     C22831   5.557   5.176   7.177 -0.6430  1.1968 -0.5523
  891MOL0     C22832   5.589   5.146   7.029  0.6576 -0.2384  0.6279
  891MOL0     C22833   5.580   4.995   6.999  0.8534 -0.3259  0.2936
  891MOL0     C22834   5.615   4.984   6.848  0.2182  0.4910 -0.2689
  891MOL0     C22835   5.651   4.841   6.808 -0.6984 -0.1651  1.1228
  891MOL0     C22836   5.541   4.748   6.876  0.3541 -0.0319  0.5399
  891MOL0     N22837   5.549   4.608   6.824 -0.0541 -0.2727 -0.5713
  891MOL0     C22838   5.443   4.527   6.793  0.2267  0.7167 -0.0891
  891MOL0     C22839   5.489   4.405   6.768 -0.2575  0.4332 -0.7353
  891MOL0     C22840   5.411   4.289   6.718 -0.2823  0.3359 -0.2477
  891MOL0     C22841   5.274   4.320   6.652 -0.2172  0.1753 -0.4394
  891MOL0     C22842   5.193   4.193   6.622  0.2911  0.8470  0.4083
  891MOL0     C22843   5.053   4.210   6.574 -0.4039  0.3979  0.1711
  891MOL0     O22844   5.052   4.249   6.438 -0.1517  0.5290  0.1606
  891MOL0     C22845   5.069   4.160   6.338 -0.4407  0.5200  0.4719
  891MOL0     C22846   5.090   4.215   6.212  0.4624  0.0382 -0.4641
  891MOL0     C22847   5.119   4.138   6.097 -1.0133 -0.2000 -0.2797
  891MOL0     C22848   5.158   4.217   5.970 -0.5046 -0.2935 -0.2748
  891MOL0     C22849   5.103   3.999   6.100 -0.0031 -0.4621  0.4520
  891MOL0     C22850   5.120   3.902   5.989 -0.5008 -1.3876  0.4175
  891MOL0     O22851   5.170   3.786   6.021  0.1414 -0.1401  0.1535
  891MOL0     C22852   5.208   3.705   5.921  1.3451  0.3375  0.0544
  891MOL0     C22853   5.267   3.730   5.797  0.1682 -0.2473 -0.2495
  891MOL0     C22854   5.289   3.625   5.699 -0.4594 -0.2020 -0.8044
  891MOL0     C22855   5.223   3.497   5.718 -0.6370  0.7890 -0.2082
  891MOL0     O22856   5.245   3.391   5.630 -0.4882 -0.1676 -0.3831
  891MOL0     C22857   5.140   3.316   5.586  0.2183 -0.6054 -0.8624
  891MOL0     C22858   5.196   3.187   5.516 -1.0000 -0.7319 -0.4359
  891MOL0     C22859   5.275   3.216   5.389  0.3700  0.1085  0.3885
  891MOL0     C22860   5.213   3.323   5.294 -0.1924 -0.8162  0.9907
  891MOL0     C22861   5.089   3.272   5.217 -0.4620 -0.4155  0.5229
  891MOL0     C22862   5.049   3.367   5.105  0.9500  0.7040 -0.6046
  891MOL0     C22863   4.978   3.295   4.997 -1.0173  0.0288 -1.1115
  891MOL0     C22864   5.075   3.212   4.910 -0.1638 -0.4998  0.0147
  891MOL0    Cl22865   4.998   3.118   4.772  0.2119 -0.2551  0.4336
  891MOL0     C22866   5.166   3.474   5.840 -0.0028  0.9639 -0.1238
  891MOL0     C22867   5.162   3.574   5.939  0.2228  1.2547  0.4373
  891MOL0     O22868   5.083   3.941   5.875  0.3075  0.0157  0.3249
  891MOL0     C22869   5.090   3.943   6.234 -0.2524  0.4709  0.6704
  891MOL0     C22870   5.077   4.019   6.343 -0.8438 -0.7678  0.5497
  891MOL0     N22871   5.626   4.406   6.794  0.1315  1.1980 -0.3939
  891MOL0     N22872   5.662   4.528   6.811  0.3057 -0.4403  0.9733
  891MOL0     C22873   5.570   5.217   7.662 -0.2056  0.0540  0.3193
  891MOL0     C22874   5.539   5.184   7.794 -0.9624 -0.2718  0.4205
  891MOL0     C22875   5.405   5.077   8.170 -0.4411  0.3346  0.5295
  891MOL0     C22876   5.448   5.186   8.243  0.7101  0.3737 -0.2176
  891MOL0     C22877   5.487   5.167   8.377  0.1331 -0.0276  0.0900
  891MOL0     C22878   5.482   5.047   8.446  1.3751 -0.3815  0.0350
  891MOL0     O22879   5.493   5.031   8.588 -1.0326  0.1814  0.4507
  891MOL0     C22880   5.493   5.152   8.663  0.0907 -0.2337 -0.5042
  891MOL0     C22881   5.497   5.123   8.806 -0.1910  0.3217 -0.1953
  891MOL0     C22882   5.635   5.095   8.863  0.0841  0.2511  0.5633
  891MOL0     C22883   5.632   5.099   9.017 -0.5362  0.9114  0.2967
  891MOL0     C22884   5.768   5.077   9.077  0.2714  1.1823  0.2868
  891MOL0     C22885   5.883   5.043   9.116 -1.0980 -0.3680 -0.3815
  891MOL0     C22886   5.433   4.942   8.380  0.1221  0.4908  0.5108
  891MOL0     C22887   5.396   4.951   8.246 -0.2363 -0.2097  1.1012
  891MOL0     C22888   5.353   4.820   8.183 -0.0310  0.3837 -1.2422
  891MOL0     H22889   5.254   5.356   7.807 -1.5564 -0.9978 -1.2039
  891MOL0     H22890   5.309   5.400   7.581  0.0867  0.3344  0.2574
  891MOL0     H22891   5.442   5.449   7.353 -0.1991  0.3801 -1.9946
  891MOL0     H22892   5.361   5.287   7.352 -0.0238 -0.4429 -0.2450
  891MOL0     H22893   5.500   5.379   7.124  2.1365  2.2217 -0.2690
  891MOL0     H22894   5.651   5.364   7.214 -0.5276  0.7444  0.7223
  891MOL0     H22895   5.634   5.120   7.232 -1.0636  0.8724 -0.2938
  891MOL0     H22896   5.463   5.123   7.197  0.0031  0.1477 -0.1811
  891MOL0     H22897   5.510   5.195   6.971 -0.8277 -0.7130  2.1596
  891MOL0     H22898   5.686   5.188   7.000  2.0902 -1.7030  2.9679
  891MOL0     H22899   5.482   4.952   7.019 -0.3758  2.6061  1.0214
  891MOL0     H22900   5.650   4.933   7.057 -1.3436 -2.2340  1.0561
  891MOL0     H22901   5.525   5.013   6.793  1.6489  0.7437 -2.6147
  891MOL0     H22902   5.697   5.045   6.809  0.7404 -0.8789 -1.3746
  891MOL0     H22903   5.749   4.803   6.836 -2.5425 -2.9745  4.6018
  891MOL0     H22904   5.644   4.838   6.699 -0.9281 -1.1052  1.1502
  891MOL0     H22905   5.554   4.751   6.985  2.0203  1.4740  0.3471
  891MOL0     H22906   5.442   4.780   6.843  0.0802 -1.7142 -0.3779
  891MOL0     H22907   5.339   4.559   6.795  0.0859  0.3585  2.6768
  891MOL0     H22908   5.403   4.217   6.799 -2.6415  0.6866 -0.0990
  891MOL0     H22909   5.484   4.262   6.641 -0.6543  1.3865 -1.0010
  891MOL0     H22910   5.212   4.377   6.722  1.1050 -0.3968  1.2926
  891MOL0     H22911   5.300   4.380   6.565  0.3519  0.0407 -0.3660
  891MOL0     H22912   5.246   4.133   6.547 -0.1733  1.0502 -0.0988
  891MOL0     H22913   5.184   4.127   6.708 -1.5198 -1.7316 -1.5804
  891MOL0     H22914   4.995   4.117   6.571  0.6998 -0.3845  1.6547
  891MOL0     H22915   4.996   4.274   6.642  1.4842  0.5162  1.7026
  891MOL0     H22916   5.097   4.323   6.207 -0.6482  0.2083  1.0035
  891MOL0     H22917   5.130   4.321   5.994  1.8181 -0.0474  1.7279
  891MOL0     H22918   5.096   4.189   5.884  2.3555  1.6876 -3.2213
  891MOL0     H22919   5.262   4.207   5.939 -0.3974  1.6427 -0.6580
  891MOL0     H22920   5.294   3.833   5.775 -2.0486  0.2842 -0.6448
  891MOL0     H22921   5.341   3.644   5.605 -2.2221  1.7670 -1.4536
  891MOL0     H22922   5.083   3.285   5.674  2.8577  0.6346  1.4433
  891MOL0     H22923   5.066   3.372   5.528 -0.2625 -0.3207  0.0182
  891MOL0     H22924   5.256   3.137   5.593 -0.5089  1.3365  0.5823
  891MOL0     H22925   5.128   3.104   5.494  0.7949 -1.6030 -3.3208
  891MOL0     H22926   5.300   3.127   5.330  0.9809 -0.0737  0.9048
  891MOL0     H22927   5.370   3.261   5.419  0.4420  0.0912  0.1904
  891MOL0     H22928   5.294   3.350   5.225 -2.1885  0.8666 -0.8658
  891MOL0     H22929   5.184   3.412   5.351  1.4745  0.8812 -0.6753
  891MOL0     H22930   5.132   3.180   5.176 -1.6480 -0.2532 -1.2079
  891MOL0     H22931   5.003   3.248   5.281  0.3825 -4.0114  0.5408
  891MOL0     H22932   5.138   3.423   5.076 -0.2996  3.5228  0.6936
  891MOL0     H22933   4.979   3.440   5.145  0.4906 -0.8693  1.6584
  891MOL0     H22934   4.929   3.377   4.944  1.6208  3.3670  1.1219
  891MOL0     H22935   4.905   3.223   5.036 -0.7025 -0.4942 -1.4693
  891MOL0     H22936   5.140   3.148   4.971 -1.7393  1.4100  4.0548
  891MOL0     H22937   5.140   3.287   4.863  2.3276 -0.9608  2.4723
  891MOL0     H22938   5.111   3.390   5.880  0.9579  1.9126  3.5049
  891MOL0     H22939   5.115   3.540   6.031  0.3665 -0.5455 -0.1091
  891MOL0     H22940   5.069   3.836   6.237 -0.8918  0.4886 -1.5429
  891MOL0     H22941   5.066   3.972   6.440 -1.4943  0.3376  1.0289
  891MOL0     H22942   5.669   5.184   7.634  0.7418  1.2420  2.0577
  891MOL0     H22943   5.608   5.123   7.851 -1.4304  0.4498  1.7996
  891MOL0     H22944   5.461   5.282   8.193 -2.6363  0.3005 -1.4924
  891MOL0     H22945   5.517   5.254   8.433  1.5473  0.3209 -1.1582
  891MOL0     H22946   5.584   5.210   8.642  0.2798  0.4912  1.9138
  891MOL0     H22947   5.402   5.205   8.634 -1.0380 -1.3819  0.7670
  891MOL0     H22948   5.430   5.039   8.826  2.5346 -2.8993 -3.2992
  891MOL0     H22949   5.448   5.204   8.861 -1.2490 -0.5216  0.1635
  891MOL0     H22950   5.660   4.991   8.843 -1.1912 -0.5497  2.8313
  891MOL0     H22951   5.714   5.167   8.835  1.2896 -1.3951 -0.4390
  891MOL0     H22952   5.562   5.025   9.059  0.5400 -0.5155 -0.3430
  891MOL0     H22953   5.601   5.198   9.051 -1.1200 -0.2336  3.5063
  891MOL0     H22954   5.987   5.018   9.114 -0.6738  0.8151 -4.6886
  891MOL0     H22955   5.417   4.854   8.442  2.1246 -1.4631 -1.5155
  891MOL0     H22956   5.411   4.807   8.092 -2.1662  0.0728 -2.6353
  891MOL0     H22957   5.368   4.742   8.257  1.0927  1.0464 -0.7428
  891MOL0     H22958   5.247   4.835   8.157 -0.5711 -0.4383  0.3513
  892MOL0     O22959   7.574  10.335   7.148 -0.2420 -0.2344 -0.3760
  892MOL0     C22960   7.545  10.284   7.036 -0.0267  0.3102  0.4837
  892MOL0     O22961   7.632  10.273   6.929  0.6993  0.1882 -0.0167
  892MOL0     C22962   7.770  10.309   6.933 -0.1210 -0.1604  0.9188
  892MOL0     C22963   7.841  10.302   7.050 -0.2474 -0.5403 -0.1234
  892MOL0     C22964   7.976  10.331   7.043  0.9305  0.1115 -0.1140
  892MOL0     C22965   8.045  10.343   6.918 -0.3607  0.1681  0.1194
  892MOL0     O22966   8.175  10.378   6.932 -0.1778  0.0837  0.7302
  892MOL0     C22967   8.267  10.296   6.871  0.9504 -0.7586  0.7853
  892MOL0     C22968   8.391  10.336   6.952  0.3852 -0.0341  0.2342
  892MOL0     C22969   8.523  10.327   6.871 -0.0546  0.4707  0.7059
  892MOL0     C22970   8.566  10.182   6.857 -0.2072  0.5625 -0.0320
  892MOL0     C22971   8.685  10.157   6.759  0.1420 -0.2029 -0.6388
  892MOL0     C22972   8.809  10.233   6.810 -0.4008  0.0396 -0.2037
  892MOL0     C22973   8.933  10.186   6.726  0.0400  0.6692  0.0289
  892MOL0     C22974   9.061  10.241   6.785 -0.9964  1.4040 -0.0321
  892MOL0     N22975   9.182  10.186   6.725 -0.4831  0.5041 -0.0487
  892MOL0     C22976   9.302  10.168   6.794 -0.4458 -1.0468  0.8874
  892MOL0     C22977   9.376  10.081   6.724  0.0635 -0.1868 -0.2639
  892MOL0     C22978   9.530  10.090   6.747 -0.3498 -1.1949 -0.2759
  892MOL0     C22979   9.599   9.962   6.793 -0.4675 -0.6717 -0.9361
  892MOL0     C22980   9.585   9.854   6.683 -0.3527  0.5243 -0.3243
  892MOL0     C22981   9.655   9.721   6.718  0.0757 -0.2787 -0.0458
  892MOL0     O22982   9.574   9.654   6.813 -0.4249  0.3454  0.1471
  892MOL0     C22983   9.628   9.546   6.882 -0.0355 -0.2246  0.8868
  892MOL0     C22984   9.756   9.492   6.855 -0.0707 -1.1064 -1.0150
  892MOL0     C22985   9.810   9.384   6.924  0.7518 -0.7828 -0.4839
  892MOL0     C22986   9.943   9.335   6.882  0.6629 -0.0244  0.3072
  892MOL0     C22987   9.734   9.324   7.028 -0.5912 -0.8382  0.2271
  892MOL0     C22988   9.792   9.235   7.134  0.6295 -0.0918 -0.2847
  892MOL0     O22989   9.710   9.161   7.206  0.3270 -0.0982 -0.1522
  892MOL0     C22990   9.752   9.098   7.317  0.8415 -0.5623 -0.5675
  892MOL0     C22991   9.713   9.142   7.446  0.1930 -0.8001  0.5480
  892MOL0     C22992   9.757   9.069   7.556 -0.5579  0.5615  0.5034
  892MOL0     C22993   9.843   8.953   7.546 -0.7362  0.8614  0.5636
  892MOL0     O22994   9.892   8.876   7.649 -0.1862 -0.2097  0.1679
  892MOL0     C22995   9.791   8.816   7.739 -0.1987  0.1658  0.3503
  892MOL0     C22996   9.697   8.721   7.664 -1.0991 -0.0998  0.2159
  892MOL0     C22997   9.636   8.624   7.760 -0.3364  0.4151  0.0463
  892MOL0     C22998   9.540   8.522   7.689 -0.2542 -0.3320  0.3081
  892MOL0     C22999   9.610   8.411   7.610  0.1792 -0.9944 -0.1740
  892MOL0     C23000   9.509   8.307   7.563  0.8584 -0.2209  0.2418
  892MOL0     C23001   9.410   8.369   7.454  0.0586 -0.2713 -0.2954
  892MOL0     C23002   9.310   8.276   7.389  0.6232 -1.0615  0.3162
  892MOL0    Cl23003   9.388   8.123   7.344  0.0139 -0.6826 -0.2929
  892MOL0     C23004   9.871   8.914   7.416  0.3033  0.3156  0.2120
  892MOL0     C23005   9.827   8.988   7.298 -0.3950 -0.0638  0.1101
  892MOL0     O23006   9.913   9.240   7.142  0.2270 -0.3729 -0.5648
  892MOL0     C23007   9.597   9.366   7.045  1.5477  0.0839  0.4923
  892MOL0     C23008   9.548   9.474   6.976 -0.5856 -0.9587  1.4040
  892MOL0     N23009   9.305  10.041   6.616  0.0493  0.4430 -0.2776
  892MOL0     N23010   9.192  10.107   6.617 -0.4280  0.2106 -0.3400
  892MOL0     C23011   7.972  10.327   6.798  0.1802 -0.3767 -0.0118
  892MOL0     C23012   7.830  10.316   6.805  0.6178 -0.0201 -0.0620
  892MOL0     C23013   7.403  10.242   7.014 -0.1737  0.0756  0.2980
  892MOL0     C23014   7.367  10.173   6.897  0.1359  0.6226 -0.0586
  892MOL0     C23015   7.242  10.143   6.862  0.3470  0.2097  0.1254
  892MOL0     C23016   7.136  10.186   6.942  0.8141  0.7446  0.8482
  892MOL0     O23017   7.004  10.157   6.915  0.1237  0.5643 -0.6400
  892MOL0     C23018   6.962  10.226   6.795 -0.0607  0.3997  0.0495
  892MOL0     C23019   6.813  10.212   6.777 -1.2299  0.6075  0.3621
  892MOL0     C23020   6.763  10.066   6.758  1.1203  0.8428 -0.0640
  892MOL0     C23021   6.853   9.975   6.677  0.8222  0.1042  0.1014
  892MOL0     C23022   6.860  10.021   6.538  0.5475  0.0151  0.5166
  892MOL0     C23023   6.873  10.049   6.424  0.1620 -0.3469  0.6261
  892MOL0     C23024   7.166  10.243   7.058 -0.2340  0.1467 -1.0684
  892MOL0     C23025   7.296  10.269   7.099  0.6766 -0.1884  0.7740
  892MOL0     C23026   7.307  10.311   7.250 -0.4070 -0.5739 -0.5782
  892MOL0     H23027   7.790  10.271   7.140 -2.3529  1.0743 -0.6925
  892MOL0     H23028   8.038  10.347   7.130  0.4471  1.8487 -0.0414
  892MOL0     H23029   8.265  10.342   6.772 -0.5905 -1.4429  0.4819
  892MOL0     H23030   8.241  10.190   6.881  2.2853 -1.5043 -2.5611
  892MOL0     H23031   8.378  10.442   6.977 -1.2162 -0.6530  2.3496
  892MOL0     H23032   8.391  10.275   7.042 -2.3074 -1.0157 -0.3332
  892MOL0     H23033   8.508  10.365   6.770  1.1182 -2.0347 -0.4929
  892MOL0     H23034   8.601  10.390   6.915  1.0372 -1.3953  1.5484
  892MOL0     H23035   8.583  10.142   6.958  1.7876  0.8570 -0.2107
  892MOL0     H23036   8.487  10.120   6.815  1.1980 -1.0846 -0.3717
  892MOL0     H23037   8.650  10.186   6.659 -3.4855  0.5223  0.6981
  892MOL0     H23038   8.697  10.048   6.750  2.4131  0.0973 -2.0276
  892MOL0     H23039   8.794  10.339   6.787 -0.5102  0.2527  0.8185
  892MOL0     H23040   8.818  10.215   6.917 -2.3123 -1.6603 -0.2535
  892MOL0     H23041   8.939  10.218   6.621  2.2048 -0.0895 -0.1337
  892MOL0     H23042   8.932  10.077   6.734  2.1778  0.6636  0.8900
  892MOL0     H23043   9.071  10.344   6.751 -3.3148  0.9658 -2.3682
  892MOL0     H23044   9.074  10.230   6.893 -1.0822  1.6487  0.0055
  892MOL0     H23045   9.326  10.228   6.880 -1.0715 -1.5489  1.4223
  892MOL0     H23046   9.556  10.172   6.814  3.4573 -0.9431 -1.8343
  892MOL0     H23047   9.580  10.116   6.654  0.5718  0.6969  0.6853
  892MOL0     H23048   9.701   9.999   6.811 -1.2901  0.9813  0.5732
  892MOL0     H23049   9.560   9.917   6.884 -0.4106 -0.7086 -0.9299
  892MOL0     H23050   9.480   9.828   6.669 -1.1580  0.6325  4.2050
  892MOL0     H23051   9.631   9.888   6.589  2.0262 -2.8753 -0.5619
  892MOL0     H23052   9.681   9.656   6.635 -0.4549 -0.6812  0.1032
  892MOL0     H23053   9.752   9.737   6.767  0.4556  0.3785 -0.9751
  892MOL0     H23054   9.820   9.533   6.777  0.4688 -0.3475 -0.1826
  892MOL0     H23055   9.982   9.368   6.785 -0.7834 -1.1346 -0.6911
  892MOL0     H23056   9.959   9.227   6.884 -0.5303 -0.2064  0.6196
  892MOL0     H23057  10.022   9.378   6.945  1.8099 -2.2505  0.5042
  892MOL0     H23058   9.640   9.221   7.461  0.8909 -0.3521  1.6944
  892MOL0     H23059   9.714   9.097   7.652  0.3417 -2.4814  1.8919
  892MOL0     H23060   9.846   8.766   7.818  0.8708 -1.1913 -1.1742
  892MOL0     H23061   9.738   8.897   7.790  1.8614  2.0470 -0.3459
  892MOL0     H23062   9.615   8.780   7.621  0.0269  0.8347 -0.7301
  892MOL0     H23063   9.756   8.669   7.588  1.0908 -1.9526  2.9746
  892MOL0     H23064   9.598   8.679   7.847  0.7183 -0.7713  1.3063
  892MOL0     H23065   9.721   8.564   7.794  2.0656  2.4493 -1.9442
  892MOL0     H23066   9.476   8.589   7.631  1.1864  0.5209 -0.3564
  892MOL0     H23067   9.483   8.475   7.770  0.4352 -3.9177 -1.1230
  892MOL0     H23068   9.655   8.457   7.521  1.8047 -1.2819  0.4607
  892MOL0     H23069   9.685   8.361   7.672 -0.9509  0.2819  2.3470
  892MOL0     H23070   9.444   8.276   7.646 -0.1688 -0.6259 -0.6886
  892MOL0     H23071   9.555   8.222   7.513 -2.3804 -1.2040 -1.3463
  892MOL0     H23072   9.467   8.415   7.373  2.4231  3.1402  2.9817
  892MOL0     H23073   9.356   8.454   7.496 -1.7503 -2.1914  1.5205
  892MOL0     H23074   9.281   8.337   7.303  1.5512  0.8536  1.3011
  892MOL0     H23075   9.226   8.259   7.458  1.9382  0.4792  2.3947
  892MOL0     H23076   9.939   8.829   7.408  0.6497  0.6449 -0.4580
  892MOL0     H23077   9.844   8.961   7.194  2.4452  0.3999  0.3807
  892MOL0     H23078   9.529   9.315   7.112 -1.5936  1.2421 -1.5897
  892MOL0     H23079   9.446   9.510   6.987 -0.4514 -0.3869  0.8161
  892MOL0     H23080   8.013  10.343   6.699 -3.1527  1.5739 -1.2296
  892MOL0     H23081   7.766  10.326   6.719 -0.9190 -1.2873  0.8772
  892MOL0     H23082   7.440  10.154   6.820 -2.9247 -0.3112 -2.9768
  892MOL0     H23083   7.222  10.089   6.770  0.0958  1.7472 -0.7605
  892MOL0     H23084   6.975  10.335   6.796 -2.0754  0.7126 -1.4743
  892MOL0     H23085   7.008  10.188   6.704 -1.4839  1.7294 -1.2918
  892MOL0     H23086   6.789  10.275   6.692  0.3167  0.8499  0.0758
  892MOL0     H23087   6.761  10.260   6.861 -0.2510  1.4101  0.5412
  892MOL0     H23088   6.744  10.021   6.856  1.6885 -1.8032 -1.0985
  892MOL0     H23089   6.664  10.080   6.714  2.0616  0.2241 -2.5739
  892MOL0     H23090   6.803   9.878   6.683  0.8271  0.1758  1.5602
  892MOL0     H23091   6.949   9.972   6.728  0.2892 -0.3277  1.1096
  892MOL0     H23092   6.891  10.065   6.319 -0.6282 -0.4880  0.4625
  892MOL0     H23093   7.080  10.274   7.117  1.3598  2.4828  0.2110
  892MOL0     H23094   7.394  10.261   7.293 -0.5442 -0.3677 -0.0466
  892MOL0     H23095   7.323  10.415   7.280  2.4003 -1.3647  1.0341
  892MOL0     H23096   7.218  10.282   7.306 -0.6257  0.0020 -0.6206
  893MOL0     O23097   6.755   6.348   3.037 -0.9204  0.0880 -0.5861
  893MOL0     C23098   6.863   6.342   3.095 -0.7149 -0.0271 -0.2191
  893MOL0     O23099   6.881   6.358   3.229  0.2850 -0.1657  0.1628
  893MOL0     C23100   6.766   6.348   3.301 -0.6713  0.5969  0.6806
  893MOL0     C23101   6.687   6.458   3.326  0.1825 -0.0557  0.5888
  893MOL0     C23102   6.574   6.442   3.405  0.7764 -0.1694 -0.6558
  893MOL0     C23103   6.552   6.322   3.477  0.4308  0.3123  0.6199
  893MOL0     O23104   6.447   6.317   3.562 -0.1547 -0.4354 -0.6899
  893MOL0     C23105   6.328   6.262   3.503  0.1228 -0.1821 -0.4364
  893MOL0     C23106   6.232   6.169   3.577  0.6202 -0.1888  0.0700
  893MOL0     C23107   6.303   6.080   3.675 -0.0408 -0.4997  0.6713
  893MOL0     C23108   6.208   5.965   3.709 -0.4230 -0.3919  0.0909
  893MOL0     C23109   6.273   5.885   3.827 -0.7884  0.5075  0.5326
  893MOL0     C23110   6.182   5.768   3.861  0.0207  0.0919 -0.4433
  893MOL0     C23111   6.196   5.724   4.006 -0.1920  0.2670 -0.8023
  893MOL0     C23112   6.318   5.630   4.028 -0.1912  0.2233 -0.3608
  893MOL0     N23113   6.446   5.707   4.034  0.8316 -0.0642  0.0655
  893MOL0     C23114   6.464   5.823   4.105 -0.5247  0.0543  0.5268
  893MOL0     C23115   6.595   5.859   4.085  0.7368 -0.3586 -0.9453
  893MOL0     C23116   6.663   5.976   4.138 -0.1497 -0.5508  0.8041
  893MOL0     C23117   6.740   6.045   4.025 -0.3907  0.0591  0.2410
  893MOL0     C23118   6.646   6.090   3.924  0.4005 -0.1326  0.4053
  893MOL0     C23119   6.687   6.209   3.838  0.0454 -0.3360  0.8907
  893MOL0     O23120   6.721   6.320   3.925 -0.4856 -0.0619  0.3078
  893MOL0     C23121   6.818   6.411   3.878  0.1330  0.5103 -0.1555
  893MOL0     C23122   6.828   6.452   3.739  0.2256  0.1647 -1.1040
  893MOL0     C23123   6.924   6.546   3.697 -0.5869  0.6429  0.2613
  893MOL0     C23124   6.934   6.566   3.550  0.1172  0.2060 -0.2339
  893MOL0     C23125   6.997   6.616   3.799 -1.1570 -1.2923  0.1679
  893MOL0     C23126   7.100   6.714   3.756 -0.0846 -0.9904  0.2332
  893MOL0     O23127   7.086   6.782   3.640 -0.2219 -0.8030  0.5971
  893MOL0     C23128   7.178   6.874   3.591 -0.2553 -0.8606 -1.1685
  893MOL0     C23129   7.196   6.997   3.657 -0.6179 -0.5102  0.1035
  893MOL0     C23130   7.280   7.102   3.607  0.3896 -0.5291 -0.0202
  893MOL0     C23131   7.351   7.086   3.490  0.7818  0.1900 -0.4909
  893MOL0     O23132   7.427   7.183   3.429 -0.0047 -0.8456 -0.0399
  893MOL0     C23133   7.467   7.302   3.506  0.2511 -0.3397  0.3077
  893MOL0     C23134   7.560   7.384   3.412  0.5222 -0.0127  0.6302
  893MOL0     C23135   7.628   7.506   3.480  0.3651  0.1176 -0.0273
  893MOL0     C23136   7.729   7.571   3.392  0.1835 -0.0261  0.1237
  893MOL0     C23137   7.780   7.687   3.483  0.0680  0.1019  0.2060
  893MOL0     C23138   7.929   7.708   3.454 -0.3852  0.5078 -0.2123
  893MOL0     C23139   7.960   7.776   3.321 -0.0609  0.0134  0.6641
  893MOL0     C23140   8.100   7.827   3.326  0.7763 -0.3993  0.9347
  893MOL0    Cl23141   8.217   7.691   3.326 -0.0602 -0.1086 -0.1661
  893MOL0     C23142   7.342   6.959   3.429  0.5352 -0.9136  0.1672
  893MOL0     C23143   7.259   6.858   3.480  0.1321 -0.2793 -0.0157
  893MOL0     O23144   7.195   6.734   3.833 -0.0294 -0.2386 -0.2602
  893MOL0     C23145   6.983   6.576   3.932  0.3021 -0.2191 -0.2440
  893MOL0     C23146   6.903   6.469   3.967  0.7523  1.3200 -0.3196
  893MOL0     N23147   6.649   5.769   3.996 -0.4338  0.0101 -0.3201
  893MOL0     N23148   6.560   5.677   3.969  0.2692  0.2973  0.0242
  893MOL0     C23149   6.631   6.206   3.444  0.1634  0.6926 -0.8954
  893MOL0     C23150   6.737   6.223   3.358 -0.8633 -0.0392  0.0063
  893MOL0     C23151   6.988   6.352   3.005 -0.7373 -0.3787 -0.2441
  893MOL0     C23152   7.102   6.400   3.061 -0.7638 -0.0037 -0.5017
  893MOL0     C23153   7.219   6.428   2.994 -0.0111  0.5577  0.2722
  893MOL0     C23154   7.210   6.405   2.860  0.3353 -0.3461 -0.1525
  893MOL0     O23155   7.319   6.435   2.784  0.9083  0.8104 -0.0584
  893MOL0     C23156   7.424   6.346   2.770 -0.1311  0.0597  0.1532
  893MOL0     C23157   7.404   6.248   2.646 -0.2316  0.5159  0.0865
  893MOL0     C23158   7.528   6.160   2.625 -0.4486 -0.5236 -0.1421
  893MOL0     C23159   7.562   6.081   2.748 -0.1532  0.5100 -0.1630
  893MOL0     C23160   7.654   5.969   2.712 -0.8032 -0.8658  0.4340
  893MOL0     C23161   7.715   5.883   2.664 -0.1340  0.8288 -0.2410
  893MOL0     C23162   7.103   6.342   2.792 -0.5243  0.6930  0.6231
  893MOL0     C23163   6.994   6.308   2.870 -0.4978 -0.5245 -0.8956
  893MOL0     C23164   6.890   6.215   2.812  0.4084  0.1443 -0.6124
  893MOL0     H23165   6.704   6.560   3.293 -2.2059  1.1585  2.7661
  893MOL0     H23166   6.510   6.527   3.426 -0.3204 -1.4174  1.4967
  893MOL0     H23167   6.363   6.203   3.418 -2.3994 -1.8225 -0.4576
  893MOL0     H23168   6.269   6.340   3.453 -0.2572 -1.2351 -1.6826
  893MOL0     H23169   6.159   6.232   3.629  2.6799  1.3742  1.2322
  893MOL0     H23170   6.183   6.104   3.504  2.1614  0.6589 -1.8094
  893MOL0     H23171   6.394   6.040   3.630 -0.2150 -0.0993 -0.0424
  893MOL0     H23172   6.335   6.132   3.766 -0.0160 -0.2939  0.5458
  893MOL0     H23173   6.117   6.011   3.747 -0.6529  0.3136 -1.2444
  893MOL0     H23174   6.189   5.896   3.626  0.8176  0.9696 -1.4047
  893MOL0     H23175   6.294   5.956   3.908  2.2056  3.2014 -2.3027
  893MOL0     H23176   6.366   5.838   3.793 -0.2413  1.6829  0.3534
  893MOL0     H23177   6.082   5.810   3.844  1.0581  2.7322 -0.5932
  893MOL0     H23178   6.201   5.685   3.793 -1.3259 -1.3960  0.9142
  893MOL0     H23179   6.105   5.667   4.027  0.2866 -0.7963 -1.5094
  893MOL0     H23180   6.196   5.812   4.070 -1.2460  2.4749 -3.5970
  893MOL0     H23181   6.309   5.575   4.121  4.6696 -1.9344 -0.8959
  893MOL0     H23182   6.326   5.558   3.945  0.8385  0.2079 -0.2597
  893MOL0     H23183   6.402   5.890   4.165  0.7905  2.8942 -1.0792
  893MOL0     H23184   6.730   5.959   4.223  1.9986 -1.2176 -0.9246
  893MOL0     H23185   6.584   6.044   4.170 -1.3548 -0.4915 -2.0096
  893MOL0     H23186   6.795   6.125   4.076  3.3743 -3.5494  2.4075
  893MOL0     H23187   6.813   5.983   3.972  0.8072  0.6097  1.1938
  893MOL0     H23188   6.616   6.002   3.867 -1.7840  1.2740 -0.7704
  893MOL0     H23189   6.550   6.114   3.971 -0.2515  1.5379 -1.6104
  893MOL0     H23190   6.775   6.175   3.783 -1.3196 -1.9832 -0.4227
  893MOL0     H23191   6.608   6.224   3.763  1.0320 -1.7717 -0.4940
  893MOL0     H23192   6.769   6.413   3.657  2.3979  1.0550 -3.2138
  893MOL0     H23193   6.897   6.484   3.488 -1.1705  2.0279 -1.9732
  893MOL0     H23194   7.039   6.567   3.518  0.5688 -1.0368  1.0868
  893MOL0     H23195   6.879   6.655   3.520  1.2447  0.5288 -1.4432
  893MOL0     H23196   7.122   7.008   3.735 -0.0597 -1.1841  0.7439
  893MOL0     H23197   7.281   7.195   3.662  0.3082 -1.0560  0.8794
  893MOL0     H23198   7.393   7.375   3.541 -0.6386 -1.3539  0.5871
  893MOL0     H23199   7.518   7.267   3.597  0.6702 -1.0864 -0.2037
  893MOL0     H23200   7.641   7.321   3.374 -0.0057 -0.2644 -0.0926
  893MOL0     H23201   7.502   7.421   3.327  0.5344 -0.0691  0.5977
  893MOL0     H23202   7.685   7.461   3.561  0.8002  1.4529  0.4415
  893MOL0     H23203   7.560   7.583   3.518 -0.8017  0.3766 -2.4569
  893MOL0     H23204   7.687   7.600   3.296  2.2249  0.6212 -0.6110
  893MOL0     H23205   7.798   7.489   3.373 -4.2652 -4.6083  1.5151
  893MOL0     H23206   7.726   7.779   3.458  0.7305  0.9926  1.8430
  893MOL0     H23207   7.755   7.663   3.587  0.6079 -1.5951 -0.0337
  893MOL0     H23208   7.977   7.610   3.464 -3.2227 -0.8609  1.4159
  893MOL0     H23209   7.981   7.767   3.530  0.7396  1.5782 -1.7420
  893MOL0     H23210   7.883   7.853   3.317 -1.2119 -1.1402 -0.9524
  893MOL0     H23211   7.937   7.703   3.242 -0.0393 -2.3532  2.7005
  893MOL0     H23212   8.116   7.889   3.414 -4.2349 -2.2875  3.6016
  893MOL0     H23213   8.116   7.882   3.233  2.4656 -3.9612 -1.1025
  893MOL0     H23214   7.398   6.940   3.337  1.2465 -1.2314  0.6557
  893MOL0     H23215   7.242   6.766   3.425 -0.8838 -0.3987  0.4736
  893MOL0     H23216   7.041   6.627   4.008 -0.3434  2.7015 -1.5672
  893MOL0     H23217   6.897   6.443   4.072 -0.5453 -0.1026 -0.7003
  893MOL0     H23218   6.614   6.109   3.488 -1.9900  0.9518 -1.0735
  893MOL0     H23219   6.803   6.142   3.327 -0.4146 -0.2357  1.4252
  893MOL0     H23220   7.099   6.427   3.166 -2.5356  3.6399 -1.3429
  893MOL0     H23221   7.316   6.461   3.029  0.9746 -1.1190 -0.7415
  893MOL0     H23222   7.507   6.416   2.758 -1.2804  1.3841 -0.3702
  893MOL0     H23223   7.442   6.297   2.867  0.3652 -0.7956 -0.3579
  893MOL0     H23224   7.376   6.303   2.555 -1.7186  0.6488  0.5982
  893MOL0     H23225   7.314   6.193   2.673 -0.3765  1.6364  2.1479
  893MOL0     H23226   7.511   6.097   2.537  1.6729 -0.6788 -0.4950
  893MOL0     H23227   7.617   6.214   2.592 -0.3571 -2.3112 -3.1514
  893MOL0     H23228   7.476   6.034   2.796  0.3083 -1.5213 -1.2487
  893MOL0     H23229   7.609   6.144   2.824  0.9143 -2.9931  2.2812
  893MOL0     H23230   7.757   5.804   2.605 -0.7915 -0.0764  0.4741
  893MOL0     H23231   7.105   6.316   2.686 -3.4577  1.9822  0.1575
  893MOL0     H23232   6.829   6.166   2.888 -0.1415  0.7212 -0.6790
  893MOL0     H23233   6.825   6.267   2.741  1.3296  1.6836 -0.3993
  893MOL0     H23234   6.939   6.136   2.755  1.3974  1.0594 -1.0763
  894MOL0     O23235   5.873   1.397   9.071 -0.1820 -0.4756 -0.0046
  894MOL0     C23236   5.816   1.328   8.985  0.9030  0.0909 -0.0377
  894MOL0     O23237   5.687   1.335   8.945  0.4547  0.1726 -0.3429
  894MOL0     C23238   5.602   1.414   9.012 -0.6800  0.7033  0.6730
  894MOL0     C23239   5.574   1.391   9.148 -0.7423  1.1276  0.8017
  894MOL0     C23240   5.471   1.461   9.210  0.0673 -0.3684 -1.0677
  894MOL0     C23241   5.409   1.572   9.148 -0.1988  0.6445 -0.4852
  894MOL0     O23242   5.315   1.639   9.215  0.3792 -0.5575  0.4696
  894MOL0     C23243   5.253   1.758   9.162  0.6638  0.5249 -0.6949
  894MOL0     C23244   5.186   1.829   9.274  0.0653 -0.1934  0.2661
  894MOL0     C23245   5.058   1.756   9.322  0.1446 -0.3299 -0.3446
  894MOL0     C23246   5.015   1.819   9.451 -0.0510  0.6107 -0.4904
  894MOL0     C23247   4.927   1.941   9.437 -0.4947 -0.7200 -0.1909
  894MOL0     C23248   4.889   2.028   9.569  0.7579 -1.0722 -0.4288
  894MOL0     C23249   4.843   1.941   9.690  0.6072  0.0141  0.0662
  894MOL0     C23250   4.820   2.044   9.798 -0.4072 -0.5773  0.9391
  894MOL0     N23251   4.776   1.994   9.925 -0.1874 -0.6391 -0.0664
  894MOL0     C23252   4.826   2.045  10.050  0.5158  0.3934 -0.7805
  894MOL0     C23253   4.758   1.976  10.147 -0.5548  0.6589  0.5334
  894MOL0     C23254   4.808   1.956  10.290 -1.0337  0.0298  0.2065
  894MOL0     C23255   4.752   1.830  10.364  0.3044 -0.1448 -0.2117
  894MOL0     C23256   4.823   1.694  10.329  0.3344 -0.5915 -0.0988
  894MOL0     C23257   4.729   1.580  10.373 -0.3623  0.1815 -0.2382
  894MOL0     O23258   4.742   1.563  10.516  0.5465 -0.0367  0.0108
  894MOL0     C23259   4.843   1.492  10.561 -0.3193  0.4345 -0.4322
  894MOL0     C23260   4.871   1.355  10.530  0.1546  0.2406  1.0597
  894MOL0     C23261   4.973   1.279  10.596  0.4931  0.4538 -0.2676
  894MOL0     C23262   4.997   1.135  10.555 -0.3552  0.3093 -0.5067
  894MOL0     C23263   5.060   1.347  10.684  0.4903 -1.2803 -0.1826
  894MOL0     C23264   5.179   1.287  10.751  0.0203 -0.4712  0.6648
  894MOL0     O23265   5.284   1.363  10.786  0.0256 -0.0980  0.0008
  894MOL0     C23266   5.399   1.292  10.814  0.1207  0.5018  0.4871
  894MOL0     C23267   5.417   1.258  10.949  0.0748  0.4686 -0.0445
  894MOL0     C23268   5.527   1.178  10.986  1.1955  0.3126 -0.4553
  894MOL0     C23269   5.618   1.131  10.889  0.3958  0.1298 -0.7505
  894MOL0     O23270   5.722   1.058  10.940 -0.5657 -0.6009  0.7697
  894MOL0     C23271   5.827   1.005  10.845  0.1369  0.5896 -0.4864
  894MOL0     C23272   5.918   0.901  10.919  0.7864  0.4958 -0.6724
  894MOL0     C23273   5.835   0.797  10.996 -0.6876 -0.4249  0.2332
  894MOL0     C23274   5.941   0.727  11.073  0.2454 -0.7384  0.0070
  894MOL0     C23275   5.904   0.647  11.194  0.4509  0.7156 -0.7018
  894MOL0     C23276   6.026   0.572  11.249  0.3403  0.2103  0.8214
  894MOL0     C23277   6.066   0.615  11.384 -0.0111  0.5943 -0.1719
  894MOL0     C23278   6.175   0.526  11.442 -0.5433 -0.1174  0.4952
  894MOL0    Cl23279   6.320   0.517  11.341 -0.0239 -0.1120  0.3608
  894MOL0     C23280   5.607   1.170  10.755 -0.4090 -0.1862  0.1103
  894MOL0     C23281   5.492   1.247  10.721 -0.6054  0.0979  0.5617
  894MOL0     O23282   5.173   1.173  10.780 -0.1968 -0.5126  0.0834
  894MOL0     C23283   5.041   1.485  10.704 -0.3899  0.4571 -0.1370
  894MOL0     C23284   4.930   1.548  10.651 -0.0652 -0.2311  0.1145
  894MOL0     N23285   4.674   1.893  10.079 -0.3616 -0.2171  0.0500
  894MOL0     N23286   4.677   1.907   9.950 -0.1224  0.9407 -0.7998
  894MOL0     C23287   5.434   1.591   9.015 -0.2047  1.1505  0.3631
  894MOL0     C23288   5.529   1.513   8.945 -0.0770  0.4252 -0.2881
  894MOL0     C23289   5.898   1.239   8.907 -0.4632 -0.0349 -0.4863
  894MOL0     C23290   5.898   1.251   8.770 -0.4119 -0.1482  0.2424
  894MOL0     C23291   5.983   1.169   8.686  0.3457 -0.2834 -0.0950
  894MOL0     C23292   6.078   1.079   8.755  0.2761 -0.5163  1.3951
  894MOL0     O23293   6.162   0.985   8.701  0.1258 -0.1240  0.4487
  894MOL0     C23294   6.158   0.958   8.562 -0.7381  0.5466 -0.5941
  894MOL0     C23295   6.271   1.021   8.475 -0.1022 -0.5410 -0.9150
  894MOL0     C23296   6.238   1.161   8.437  0.0177  0.3618  0.1027
  894MOL0     C23297   6.345   1.204   8.337  0.9961 -1.1117  0.5136
  894MOL0     C23298   6.478   1.233   8.387 -0.2879 -0.0828 -0.1926
  894MOL0     C23299   6.588   1.247   8.441 -0.0694 -0.1462 -0.0873
  894MOL0     C23300   6.078   1.063   8.889 -0.4799 -0.0642 -0.0943
  894MOL0     C23301   5.991   1.139   8.963 -0.2278 -0.2614 -1.2446
  894MOL0     C23302   5.970   1.103   9.107 -0.2346  1.1770  0.4859
  894MOL0     H23303   5.619   1.313   9.209 -1.2019 -0.8001 -1.2102
  894MOL0     H23304   5.435   1.440   9.310 -2.2064 -2.3431 -2.1808
  894MOL0     H23305   5.178   1.731   9.088 -0.1352  2.4518 -0.6315
  894MOL0     H23306   5.327   1.832   9.130 -0.5823  1.9989 -0.2755
  894MOL0     H23307   5.254   1.853   9.356  0.5356 -0.2727 -0.0949
  894MOL0     H23308   5.153   1.925   9.233  2.4566  1.1786  1.3111
  894MOL0     H23309   4.984   1.765   9.243  0.5351  1.7005 -0.5232
  894MOL0     H23310   5.075   1.649   9.337  2.3108  0.1612  1.3701
  894MOL0     H23311   4.943   1.752   9.498 -3.1836  5.0318  1.6214
  894MOL0     H23312   5.100   1.837   9.517  0.8657 -3.1067 -0.4043
  894MOL0     H23313   4.832   1.903   9.398 -0.5554 -1.3094  0.4911
  894MOL0     H23314   4.976   2.011   9.370 -2.4221  0.1731 -0.7223
  894MOL0     H23315   4.985   2.079   9.584 -0.2201  0.6752  0.2047
  894MOL0     H23316   4.817   2.105   9.540  1.8586 -0.1276 -0.7355
  894MOL0     H23317   4.910   1.862   9.726  0.0253 -0.8363 -0.6505
  894MOL0     H23318   4.748   1.892   9.665  0.1624  0.3014  1.1574
  894MOL0     H23319   4.919   2.091   9.808  0.6962 -2.1622 -1.6387
  894MOL0     H23320   4.743   2.111   9.761 -1.5004 -1.4480  1.5850
  894MOL0     H23321   4.912   2.107  10.070  0.3178 -0.3455  3.2221
  894MOL0     H23322   4.786   2.047  10.347  0.6036 -0.2365  1.3198
  894MOL0     H23323   4.916   1.946  10.280 -1.0949 -0.7091  0.2469
  894MOL0     H23324   4.738   1.853  10.470 -1.9579  0.7050 -0.6462
  894MOL0     H23325   4.646   1.830  10.337 -0.4788  0.9851  2.5151
  894MOL0     H23326   4.834   1.696  10.220  0.1655  0.0006 -0.1077
  894MOL0     H23327   4.924   1.680  10.370 -0.7561 -2.6353  2.1362
  894MOL0     H23328   4.625   1.597  10.345  0.1123  5.0148  0.0814
  894MOL0     H23329   4.754   1.488  10.319  1.2108  0.8201 -0.6721
  894MOL0     H23330   4.808   1.316  10.450 -0.1943  1.1312  0.8805
  894MOL0     H23331   5.009   1.077  10.647  0.4693  0.0125 -0.7959
  894MOL0     H23332   5.092   1.115  10.505  0.3274  0.6927  0.5890
  894MOL0     H23333   4.905   1.108  10.503 -2.4233  2.5662  1.6863
  894MOL0     H23334   5.341   1.286  11.022  0.8810  1.2297  0.5293
  894MOL0     H23335   5.538   1.151  11.091  0.6056 -1.4249 -0.8069
  894MOL0     H23336   5.777   0.954  10.762  0.2942 -2.3497  1.0928
  894MOL0     H23337   5.883   1.088  10.801 -0.6506  0.5326 -1.6280
  894MOL0     H23338   6.000   0.857  10.861  4.1960  0.3457  3.7645
  894MOL0     H23339   5.980   0.964  10.982 -0.5903  0.6438  0.5800
  894MOL0     H23340   5.793   0.720  10.930  0.5540 -1.3106  0.4429
  894MOL0     H23341   5.756   0.848  11.053  2.2465  2.4146  2.1596
  894MOL0     H23342   6.009   0.804  11.112 -0.8727  0.4427 -0.2849
  894MOL0     H23343   6.004   0.675  11.000  0.3863 -0.2798 -0.2003
  894MOL0     H23344   5.859   0.717  11.265 -1.4555 -0.1050 -1.0416
  894MOL0     H23345   5.830   0.576  11.157 -0.1829  1.3374 -0.6312
  894MOL0     H23346   6.108   0.579  11.176 -1.8385 -0.7789 -1.9336
  894MOL0     H23347   6.007   0.465  11.263 -0.3507  0.2462  0.2309
  894MOL0     H23348   5.985   0.606  11.456  0.7521  3.3285  1.1812
  894MOL0     H23349   6.089   0.722  11.388  1.8087  0.2706 -0.8801
  894MOL0     H23350   6.133   0.427  11.462 -0.5372 -0.1271  0.4604
  894MOL0     H23351   6.205   0.564  11.540 -0.9646  2.6844 -0.3794
  894MOL0     H23352   5.666   1.149  10.667 -0.9469 -0.0215 -0.2925
  894MOL0     H23353   5.478   1.267  10.615 -0.7902  1.3711  0.8062
  894MOL0     H23354   5.105   1.531  10.778  2.0463 -2.8213  0.0192
  894MOL0     H23355   4.919   1.654  10.672 -1.1619 -0.6391  1.7579
  894MOL0     H23356   5.379   1.668   8.961 -1.9131  0.0869  0.5231
  894MOL0     H23357   5.560   1.535   8.844 -1.4684  2.2682 -0.3599
  894MOL0     H23358   5.824   1.317   8.728 -0.8598  0.1091  1.3932
  894MOL0     H23359   5.981   1.180   8.578 -1.4692  0.2538 -0.0530
  894MOL0     H23360   6.156   0.850   8.547 -1.2837  0.2912  1.0638
  894MOL0     H23361   6.058   0.975   8.521 -2.8512 -1.2366  3.2812
  894MOL0     H23362   6.259   0.952   8.390 -1.8902 -0.4036 -0.8103
  894MOL0     H23363   6.368   1.010   8.524  0.0094 -0.8465 -1.1936
  894MOL0     H23364   6.138   1.174   8.394  0.7934  3.7347 -1.0491
  894MOL0     H23365   6.239   1.225   8.526 -0.1857 -1.3973  1.4183
  894MOL0     H23366   6.315   1.300   8.294  1.4885 -1.5578 -0.8726
  894MOL0     H23367   6.343   1.123   8.263 -1.9802 -0.8940  0.2008
  894MOL0     H23368   6.676   1.277   8.495  0.7925 -0.7367 -1.1166
  894MOL0     H23369   6.132   0.983   8.938 -2.4659 -0.1233  2.1538
  894MOL0     H23370   6.057   1.042   9.135  1.6667  2.0099 -3.0326
  894MOL0     H23371   5.969   1.189   9.174 -0.7229  0.0959  1.9282
  894MOL0     H23372   5.881   1.040   9.116  0.2925  0.0176 -1.6953
  895MOL0     O23373   8.311   8.865   8.607 -0.2144  0.4679  0.4443
  895MOL0     C23374   8.276   8.750   8.603 -0.6235 -0.7447 -0.7982
  895MOL0     O23375   8.144   8.708   8.589 -0.3483 -0.7010  0.4979
  895MOL0     C23376   8.042   8.797   8.552  0.0872  0.4364 -0.2972
  895MOL0     C23377   7.920   8.801   8.628  0.4765  0.7707  0.9341
  895MOL0     C23378   7.819   8.879   8.570  0.0793  0.7129  0.1040
  895MOL0     C23379   7.835   8.952   8.458  0.7577 -0.2696  0.2715
  895MOL0     O23380   7.715   9.014   8.425  0.1121 -0.7681 -0.4999
  895MOL0     C23381   7.707   9.113   8.317  0.8616 -0.5865  0.0524
  895MOL0     C23382   7.571   9.182   8.339  0.2804 -0.2034 -0.4342
  895MOL0     C23383   7.454   9.081   8.330  0.1435  0.0699  0.1378
  895MOL0     C23384   7.322   9.141   8.353 -0.6532  0.1757  0.5998
  895MOL0     C23385   7.267   9.206   8.228  0.4093 -0.4552 -0.2851
  895MOL0     C23386   7.130   9.267   8.261 -1.0343 -0.0213  0.3308
  895MOL0     C23387   7.018   9.168   8.290 -1.2060 -0.2063  0.4494
  895MOL0     C23388   6.921   9.131   8.172 -0.9980  0.4366  1.0031
  895MOL0     N23389   6.994   9.084   8.046 -0.0188  0.6394  0.1841
  895MOL0     C23390   7.020   8.953   8.026 -1.6673  0.3176  0.5352
  895MOL0     C23391   7.064   8.941   7.897 -0.4548 -0.0407 -0.2693
  895MOL0     C23392   7.116   8.829   7.822 -0.2547  0.4150 -0.2379
  895MOL0     C23393   7.223   8.756   7.911 -0.0562  0.2774  0.2456
  895MOL0     C23394   7.345   8.840   7.925 -0.1128 -0.9365 -0.0746
  895MOL0     C23395   7.468   8.762   7.952 -0.2866 -0.2945 -0.4707
  895MOL0     O23396   7.577   8.851   8.000  0.2109 -0.4254  0.7861
  895MOL0     C23397   7.699   8.784   7.998  0.3276 -0.4934 -0.2717
  895MOL0     C23398   7.752   8.745   7.867  0.6241  0.1428 -0.0942
  895MOL0     C23399   7.878   8.692   7.861 -0.9818  0.2315  0.1834
  895MOL0     C23400   7.931   8.669   7.721  0.4536 -0.8069 -0.0357
  895MOL0     C23401   7.954   8.661   7.983  0.0631 -0.5046 -0.2417
  895MOL0     C23402   8.091   8.613   7.985  0.9355 -0.0636  0.8591
  895MOL0     O23403   8.143   8.610   8.105  0.2408 -0.3204  0.1147
  895MOL0     C23404   8.260   8.548   8.131 -0.6832 -0.0875  0.3297
  895MOL0     C23405   8.311   8.427   8.078 -0.9985  0.0346  0.1308
  895MOL0     C23406   8.413   8.358   8.142  0.1955 -0.0982  0.0890
  895MOL0     C23407   8.483   8.413   8.252  0.2781  0.0042 -0.1968
  895MOL0     O23408   8.585   8.351   8.319  1.0080 -0.5475  0.4638
  895MOL0     C23409   8.655   8.244   8.249 -0.2966 -0.0236 -0.1000
  895MOL0     C23410   8.739   8.295   8.130  0.3618  0.5012 -0.2869
  895MOL0     C23411   8.865   8.375   8.175  0.5457  0.0261 -0.8622
  895MOL0     C23412   8.903   8.484   8.069 -0.7102  0.4854  0.7708
  895MOL0     C23413   8.842   8.618   8.089 -0.5567 -0.2657  0.9816
  895MOL0     C23414   8.912   8.722   7.995 -0.3300  0.3179 -0.1816
  895MOL0     C23415   8.871   8.862   8.038  0.5665 -0.1789 -0.8850
  895MOL0     C23416   8.917   8.978   7.944 -0.0554  0.4534  0.2034
  895MOL0    Cl23417   8.863   8.948   7.771 -0.0201 -0.7003  0.0271
  895MOL0     C23418   8.437   8.535   8.303 -0.7411 -0.2614 -0.6849
  895MOL0     C23419   8.330   8.601   8.244  0.3016 -0.6953 -0.3564
  895MOL0     O23420   8.138   8.574   7.882  0.1471 -0.3495  0.0269
  895MOL0     C23421   7.891   8.698   8.104  0.8684 -0.1946 -0.2872
  895MOL0     C23422   7.771   8.771   8.114  0.7640 -0.1049  0.3269
  895MOL0     N23423   7.078   9.068   7.846  0.2772  0.0988  0.2154
  895MOL0     N23424   7.027   9.152   7.933  0.3213  0.0188 -0.9807
  895MOL0     C23425   7.944   8.935   8.377 -0.0313 -0.1906 -0.0444
  895MOL0     C23426   8.049   8.861   8.429  0.3198 -0.5393 -0.2997
  895MOL0     C23427   8.384   8.654   8.645  0.2651 -1.0488  0.4760
  895MOL0     C23428   8.509   8.700   8.679 -0.1782  0.5815 -0.5877
  895MOL0     C23429   8.608   8.616   8.717 -0.5750  0.3479 -0.0013
  895MOL0     C23430   8.587   8.482   8.734 -0.0036  0.6275  0.5320
  895MOL0     O23431   8.676   8.393   8.780  0.3259  0.2256  0.3302
  895MOL0     C23432   8.764   8.341   8.687 -0.9792 -0.1440 -0.6554
  895MOL0     C23433   8.878   8.428   8.654  0.9534 -0.4537  0.3948
  895MOL0     C23434   8.960   8.476   8.779 -0.3653  0.1505  0.1783
  895MOL0     C23435   9.018   8.370   8.871  0.5551  0.4741 -0.4205
  895MOL0     C23436   9.107   8.444   8.957 -0.7251  0.4018  0.1264
  895MOL0     C23437   9.173   8.505   9.031  0.3180  0.4034 -0.4327
  895MOL0     C23438   8.465   8.434   8.707 -0.4495  0.3734  0.3830
  895MOL0     C23439   8.362   8.514   8.663  0.6794 -0.1659  0.1868
  895MOL0     C23440   8.230   8.440   8.632 -0.0791 -0.5937  0.8539
  895MOL0     H23441   7.889   8.758   8.723 -3.2559  1.8619  0.3985
  895MOL0     H23442   7.729   8.884   8.632  1.3464  1.3431  1.9941
  895MOL0     H23443   7.715   9.053   8.226  1.4545  0.7220 -0.7756
  895MOL0     H23444   7.795   9.178   8.317  1.2765 -1.0819  1.9391
  895MOL0     H23445   7.556   9.250   8.424  0.3291  1.6200 -1.8194
  895MOL0     H23446   7.569   9.245   8.249 -0.0050 -0.4407 -0.5939
  895MOL0     H23447   7.454   9.024   8.237  2.0785 -0.8572  0.6488
  895MOL0     H23448   7.471   9.010   8.411  0.7983 -2.2025 -1.8792
  895MOL0     H23449   7.263   9.058   8.394  0.4655 -1.6064 -1.2001
  895MOL0     H23450   7.323   9.218   8.430 -1.7131  0.1779  0.6285
  895MOL0     H23451   7.245   9.133   8.150  0.1226  2.2412 -2.9258
  895MOL0     H23452   7.335   9.288   8.203  2.4101 -1.3780  1.7910
  895MOL0     H23453   7.154   9.342   8.336  1.3877 -0.4097  0.0321
  895MOL0     H23454   7.098   9.320   8.171  0.3441  0.2603 -0.0190
  895MOL0     H23455   6.964   9.217   8.371 -0.6942 -0.0775  0.7228
  895MOL0     H23456   7.052   9.069   8.322 -0.8149 -0.6394 -1.2162
  895MOL0     H23457   6.853   9.056   8.213 -2.8168  3.3158  3.6964
  895MOL0     H23458   6.865   9.219   8.140 -3.0185 -1.1342 -0.0239
  895MOL0     H23459   6.985   8.870   8.086 -0.9390 -0.9404 -0.7023
  895MOL0     H23460   7.170   8.872   7.737  1.1228  0.8187  0.8067
  895MOL0     H23461   7.039   8.760   7.787 -0.9522  2.2361 -2.5187
  895MOL0     H23462   7.171   8.723   8.003 -1.0562  0.0054 -0.3942
  895MOL0     H23463   7.246   8.679   7.837  0.7603  1.4906 -0.7870
  895MOL0     H23464   7.358   8.888   7.827 -1.7448 -3.3113 -1.5471
  895MOL0     H23465   7.331   8.916   8.003  2.1213 -2.5540  2.0688
  895MOL0     H23466   7.420   8.696   8.025  0.0532 -0.8157 -0.7204
  895MOL0     H23467   7.494   8.698   7.868  0.5691 -2.0572  1.0668
  895MOL0     H23468   7.685   8.766   7.783  0.0137 -1.2473  0.0265
  895MOL0     H23469   7.992   8.753   7.687 -3.3229  2.9902  1.5348
  895MOL0     H23470   7.842   8.671   7.658  0.4519  0.5662 -0.0175
  895MOL0     H23471   7.968   8.566   7.714 -3.9890 -2.7444  1.2918
  895MOL0     H23472   8.266   8.388   7.987 -3.8061 -1.2253  1.9223
  895MOL0     H23473   8.435   8.266   8.090  1.9799 -0.8884  2.0630
  895MOL0     H23474   8.731   8.209   8.320  0.0699  2.9121  1.0595
  895MOL0     H23475   8.590   8.163   8.215  1.4326 -2.0912  1.2550
  895MOL0     H23476   8.763   8.209   8.066 -3.7244 -1.4351  0.4773
  895MOL0     H23477   8.662   8.337   8.065 -1.4010 -2.5874 -0.3639
  895MOL0     H23478   8.951   8.310   8.195  0.3379  0.2137  0.7203
  895MOL0     H23479   8.838   8.419   8.271  1.1484 -0.7336 -0.3321
  895MOL0     H23480   8.873   8.449   7.970 -1.2101  0.0739  1.0640
  895MOL0     H23481   9.012   8.497   8.074 -0.6511  0.7760 -0.8080
  895MOL0     H23482   8.734   8.620   8.072 -0.5462  3.2578  0.5070
  895MOL0     H23483   8.858   8.649   8.192  0.7590  2.0666  0.1584
  895MOL0     H23484   8.893   8.697   7.890  2.8366 -3.3258 -0.1115
  895MOL0     H23485   9.020   8.724   8.013 -0.1471  2.8059 -1.2038
  895MOL0     H23486   8.906   8.881   8.140  1.0717  2.9161 -1.5365
  895MOL0     H23487   8.762   8.874   8.038  0.6714  1.1746 -2.4531
  895MOL0     H23488   9.025   8.996   7.947 -0.3878  2.5878  1.6273
  895MOL0     H23489   8.874   9.070   7.985  1.0354  0.8376  0.5087
  895MOL0     H23490   8.486   8.581   8.388 -1.0976  1.0987 -1.1979
  895MOL0     H23491   8.300   8.697   8.286  3.2294  1.1686 -2.1640
  895MOL0     H23492   7.940   8.664   8.195 -0.1115 -3.4808 -0.8761
  895MOL0     H23493   7.725   8.790   8.210 -1.5687 -2.4779 -0.2111
  895MOL0     H23494   7.957   8.986   8.282  0.5872 -0.3591 -0.0502
  895MOL0     H23495   8.136   8.863   8.364 -1.8680  2.5229 -3.4683
  895MOL0     H23496   8.534   8.805   8.680 -0.1835  0.5936 -1.3181
  895MOL0     H23497   8.703   8.660   8.747  0.9398 -1.8863 -1.2767
  895MOL0     H23498   8.807   8.255   8.741  1.2291 -0.5405 -2.8810
  895MOL0     H23499   8.701   8.304   8.605 -2.3206 -1.0271  0.7022
  895MOL0     H23500   8.845   8.513   8.594  0.7427 -1.3072 -0.7266
  895MOL0     H23501   8.945   8.366   8.594 -0.8418  1.2412 -3.6848
  895MOL0     H23502   9.043   8.538   8.744 -1.6199  0.6907 -1.9982
  895MOL0     H23503   8.900   8.541   8.844  0.6628  1.5176 -0.2000
  895MOL0     H23504   9.069   8.290   8.817 -1.6479 -1.1714 -0.2258
  895MOL0     H23505   8.934   8.323   8.923  0.5687 -0.0761 -0.8855
  895MOL0     H23506   9.228   8.555   9.108 -0.0840  0.0081  0.1161
  895MOL0     H23507   8.449   8.326   8.707 -0.2487  0.2135 -3.2225
  895MOL0     H23508   8.149   8.450   8.704  0.0939  1.3211  0.8302
  895MOL0     H23509   8.195   8.488   8.540  1.0386 -0.8827  0.2527
  895MOL0     H23510   8.252   8.335   8.611  0.3116 -0.4405  0.4598
  896MOL0     O23511   4.536   0.645   9.386 -0.8472 -0.3758 -0.2117
  896MOL0     C23512   4.605   0.716   9.311 -0.8657  0.2606  0.7711
  896MOL0     O23513   4.584   0.732   9.176  0.5519  0.0491  0.8443
  896MOL0     C23514   4.496   0.640   9.127  0.7943 -0.4358  0.1219
  896MOL0     C23515   4.557   0.518   9.076  0.5896 -0.1921  0.5501
  896MOL0     C23516   4.472   0.431   9.019  0.7645  0.7495 -0.5484
  896MOL0     C23517   4.328   0.453   8.999  1.1254  0.5972 -0.8023
  896MOL0     O23518   4.254   0.346   8.953 -0.5065 -0.2078  0.5369
  896MOL0     C23519   4.116   0.337   8.972  0.4593  0.0146 -0.4354
  896MOL0     C23520   4.033   0.385   8.860 -1.0213  0.3833  0.2765
  896MOL0     C23521   3.885   0.366   8.880 -0.7304  0.1624 -0.1768
  896MOL0     C23522   3.806   0.240   8.858 -0.2361  0.4962  0.7261
  896MOL0     C23523   3.811   0.130   8.971  0.2821 -0.4423 -0.7985
  896MOL0     C23524   3.708   0.013   8.960  0.4524 -0.3366  0.5463
  896MOL0     C23525   3.748  -0.122   9.018 -0.4462 -0.8227 -0.3038
  896MOL0     C23526   3.827  -0.105   9.143 -0.0752  0.1262 -0.6581
  896MOL0     N23527   3.746  -0.043   9.251 -0.4211  0.2024 -0.6303
  896MOL0     C23528   3.619  -0.089   9.288  0.0406  0.4350 -0.2424
  896MOL0     C23529   3.571   0.001   9.382  0.6515  0.6467 -0.5571
  896MOL0     C23530   3.436  -0.006   9.458 -0.8097  0.5868  0.1360
  896MOL0     C23531   3.447  -0.099   9.580 -0.1421 -0.0792 -0.7574
  896MOL0     C23532   3.476  -0.035   9.721  1.6837  0.4837  0.7507
  896MOL0     C23533   3.615   0.020   9.733  0.0792  0.3485 -0.8272
  896MOL0     O23534   3.619   0.082   9.859 -0.1857 -0.0806  0.6370
  896MOL0     C23535   3.739   0.139   9.897  0.0898  0.2804  0.4751
  896MOL0     C23536   3.824   0.195   9.803 -0.4546  0.2338 -0.1536
  896MOL0     C23537   3.952   0.242   9.839  0.5333 -0.2328 -0.5495
  896MOL0     C23538   4.043   0.296   9.725  0.7677  0.2106 -0.7448
  896MOL0     C23539   3.995   0.230   9.977 -0.0597  0.3230 -0.4214
  896MOL0     C23540   4.131   0.265  10.032  0.2769  1.2245 -0.2312
  896MOL0     O23541   4.219   0.302   9.944 -0.2137  0.4968  0.2875
  896MOL0     C23542   4.337   0.353   9.995  0.0892 -0.1627  0.9272
  896MOL0     C23543   4.435   0.269  10.059  1.2951  0.0684  0.6232
  896MOL0     C23544   4.560   0.319  10.101  0.6307  0.0587 -0.0277
  896MOL0     C23545   4.580   0.457  10.096 -0.1718 -0.2868 -0.3136
  896MOL0     O23546   4.678   0.515  10.155  0.0914 -0.4521  0.0439
  896MOL0     C23547   4.809   0.466  10.129 -0.3592  0.5720  0.6301
  896MOL0     C23548   4.909   0.578  10.115 -0.6159  0.2715  0.1869
  896MOL0     C23549   4.929   0.623   9.964 -0.4419 -0.6065 -0.5118
  896MOL0     C23550   4.790   0.675   9.929  0.8831  0.7223  0.7041
  896MOL0     C23551   4.782   0.758   9.800 -0.2249 -0.1029 -0.5353
  896MOL0     C23552   4.648   0.819   9.762  0.1634 -0.7592  0.4499
  896MOL0     C23553   4.555   0.726   9.690 -0.9657  0.1792 -0.0718
  896MOL0     C23554   4.438   0.810   9.618  0.6343 -0.0765 -0.0234
  896MOL0    Cl23555   4.338   0.885   9.748  0.0581 -0.2956 -0.4656
  896MOL0     C23556   4.489   0.539  10.035 -0.0254 -0.0683 -0.4907
  896MOL0     C23557   4.366   0.493   9.980  0.1841  0.0373 -0.0122
  896MOL0     O23558   4.146   0.272  10.156 -0.0758 -0.4551  0.2344
  896MOL0     C23559   3.893   0.186  10.066 -0.2443 -0.7043  0.1067
  896MOL0     C23560   3.763   0.143  10.029 -0.2157  0.6206 -0.3468
  896MOL0     N23561   3.666   0.096   9.396  0.8540 -0.6983  0.8381
  896MOL0     N23562   3.772   0.067   9.327  1.1935 -0.1841 -0.0779
  896MOL0     C23563   4.272   0.569   9.062 -0.6159 -0.1090 -0.7580
  896MOL0     C23564   4.360   0.669   9.120 -0.3600  0.1974 -0.0999
  896MOL0     C23565   4.712   0.801   9.355 -0.4557 -0.7015 -0.7041
  896MOL0     C23566   4.831   0.757   9.414  0.0649  0.5248 -0.0797
  896MOL0     C23567   4.930   0.846   9.454  0.7427 -0.3169 -0.1711
  896MOL0     C23568   4.910   0.985   9.436 -0.6512  0.4035 -0.6577
  896MOL0     O23569   5.009   1.074   9.466 -0.1739  0.2992  0.2864
  896MOL0     C23570   5.005   1.101   9.608 -0.1729  0.1306 -0.4105
  896MOL0     C23571   5.077   1.236   9.637  0.2458  0.5199  0.1952
  896MOL0     C23572   4.991   1.350   9.590  0.2946  0.9116 -0.8219
  896MOL0     C23573   5.036   1.478   9.660  0.5814 -0.2212  0.0874
  896MOL0     C23574   5.167   1.520   9.616  0.1640  0.0952  0.3491
  896MOL0     C23575   5.270   1.560   9.570 -0.0650  0.0901  0.1473
  896MOL0     C23576   4.789   1.029   9.389  0.3778  0.2614  0.5167
  896MOL0     C23577   4.693   0.943   9.342 -0.3287 -0.8800 -0.2442
  896MOL0     C23578   4.550   1.008   9.323 -0.6774  0.3061  0.1015
  896MOL0     H23579   4.661   0.497   9.099  0.4207 -0.9592  0.6483
  896MOL0     H23580   4.503   0.334   8.981 -0.6666 -0.3350  0.9289
  896MOL0     H23581   4.089   0.396   9.060 -2.2816 -2.1787  0.3390
  896MOL0     H23582   4.103   0.230   8.987 -2.9146  0.5118  1.0280
  896MOL0     H23583   4.048   0.492   8.843 -2.5598  0.1224 -3.8477
  896MOL0     H23584   4.058   0.333   8.767  2.3206 -1.3537  1.9790
  896MOL0     H23585   3.861   0.402   8.981  0.8886  2.5115 -0.5557
  896MOL0     H23586   3.832   0.435   8.813  0.4303 -1.2901 -2.7110
  896MOL0     H23587   3.702   0.265   8.834 -0.1533  2.0114  1.8153
  896MOL0     H23588   3.854   0.189   8.773  0.3270  0.7741  0.8744
  896MOL0     H23589   3.802   0.182   9.067  1.6634  2.2002 -1.9893
  896MOL0     H23590   3.913   0.090   8.970 -0.4547 -2.4551 -2.3317
  896MOL0     H23591   3.617   0.052   9.008 -0.0674  1.2145 -1.5514
  896MOL0     H23592   3.687   0.007   8.853 -0.6279 -0.6003  0.7562
  896MOL0     H23593   3.806  -0.166   8.937  2.4722  2.8607 -0.4589
  896MOL0     H23594   3.664  -0.189   9.040 -0.5649 -0.1784  1.4220
  896MOL0     H23595   3.867  -0.203   9.172  1.1118  0.9993  0.8056
  896MOL0     H23596   3.912  -0.037   9.131  1.2574 -1.8406 -3.3035
  896MOL0     H23597   3.568  -0.181   9.260 -2.4080  1.7691 -0.4456
  896MOL0     H23598   3.358  -0.044   9.391 -0.3589 -0.6591  0.3039
  896MOL0     H23599   3.408   0.093   9.496 -0.5078  0.2011  1.3860
  896MOL0     H23600   3.359  -0.164   9.591  0.1877 -0.2539  1.0602
  896MOL0     H23601   3.525  -0.170   9.552  1.5550  1.8239 -1.0425
  896MOL0     H23602   3.397   0.036   9.748  2.0467  1.6986 -1.1732
  896MOL0     H23603   3.475  -0.116   9.794  0.0984  0.7032  1.0008
  896MOL0     H23604   3.688  -0.060   9.719  0.9701  1.4157 -2.8262
  896MOL0     H23605   3.625   0.104   9.663 -1.6752  3.0084  1.8647
  896MOL0     H23606   3.795   0.201   9.699 -1.3301  1.7358  0.1419
  896MOL0     H23607   4.094   0.390   9.749  1.0809 -0.4913  1.5749
  896MOL0     H23608   3.978   0.325   9.642 -0.7773  1.2712  0.7688
  896MOL0     H23609   4.109   0.216   9.693 -1.5017 -1.6971 -0.9302
  896MOL0     H23610   4.411   0.164  10.073  1.9895 -0.2153 -0.2556
  896MOL0     H23611   4.634   0.257  10.151  0.5181  0.8852  1.1996
  896MOL0     H23612   4.838   0.402  10.212  2.9714 -2.6645 -2.6710
  896MOL0     H23613   4.814   0.415  10.032 -1.1391  1.4312  0.1147
  896MOL0     H23614   4.877   0.660  10.179 -1.6431 -0.1301  0.2130
  896MOL0     H23615   5.010   0.542  10.140 -0.7064 -0.3941 -0.3611
  896MOL0     H23616   4.955   0.530   9.912  0.8325 -2.8289  3.6060
  896MOL0     H23617   5.011   0.694   9.954 -0.5014 -0.6533 -1.4314
  896MOL0     H23618   4.739   0.724  10.013  0.0485  2.4662 -0.7537
  896MOL0     H23619   4.725   0.591   9.900  1.3502  0.7869 -0.6139
  896MOL0     H23620   4.846   0.843   9.826  0.3236 -0.4859 -0.6152
  896MOL0     H23621   4.832   0.708   9.717  0.0966 -3.3424  1.4567
  896MOL0     H23622   4.683   0.897   9.693 -0.1057 -1.5652 -0.6134
  896MOL0     H23623   4.592   0.859   9.847  0.8907  0.7814  0.2470
  896MOL0     H23624   4.502   0.662   9.761 -0.6669 -1.5102 -1.3214
  896MOL0     H23625   4.614   0.672   9.617  1.0622  2.7638 -0.4965
  896MOL0     H23626   4.382   0.730   9.569  2.7408 -1.2088 -0.7076
  896MOL0     H23627   4.484   0.875   9.543  2.6508  1.9173  2.7057
  896MOL0     H23628   4.515   0.644  10.030 -0.4591 -0.0237 -3.2843
  896MOL0     H23629   4.309   0.568   9.927  2.6147  1.5166 -0.7077
  896MOL0     H23630   3.899   0.189  10.174  0.2788  0.0629  0.0667
  896MOL0     H23631   3.698   0.112  10.110  1.0700  0.9079  0.8266
  896MOL0     H23632   4.168   0.597   9.046 -0.4676 -0.1085 -1.7959
  896MOL0     H23633   4.318   0.759   9.163 -1.5630  1.1851 -3.0568
  896MOL0     H23634   4.850   0.651   9.430 -0.3689  0.7445  2.1870
  896MOL0     H23635   5.024   0.812   9.498 -0.9304  0.8339  4.9167
  896MOL0     H23636   4.901   1.113   9.641  0.5721 -1.3492  2.9015
  896MOL0     H23637   5.046   1.019   9.667 -0.5551  2.9222  4.2265
  896MOL0     H23638   5.163   1.247   9.572 -1.2434  0.6453 -1.8472
  896MOL0     H23639   5.095   1.241   9.745  2.6795 -2.4242  0.0694
  896MOL0     H23640   5.002   1.351   9.481  3.0056 -4.3366 -0.8976
  896MOL0     H23641   4.890   1.314   9.615  1.6351 -1.9408  0.9384
  896MOL0     H23642   5.039   1.473   9.769 -3.4193  0.5008  0.4043
  896MOL0     H23643   4.961   1.555   9.640  1.3244  0.8511  1.2709
  896MOL0     H23644   5.357   1.603   9.524  0.2487  0.8138  1.3697
  896MOL0     H23645   4.767   1.136   9.389  0.7000  0.3290 -0.0923
  896MOL0     H23646   4.477   0.941   9.276 -0.8307 -0.5851  1.5435
  896MOL0     H23647   4.505   1.046   9.415 -0.4901 -0.9380  0.7319
  896MOL0     H23648   4.566   1.100   9.267  1.8352  1.3687  2.3753
  897MOL0     O23649  10.338   2.104   2.298  0.4090  0.1959 -0.5003
  897MOL0     C23650  10.334   1.988   2.327 -0.3481  1.0697 -0.6991
  897MOL0     O23651  10.225   1.904   2.308 -1.0809 -0.2566 -0.9752
  897MOL0     C23652  10.101   1.959   2.266  0.6556 -0.5446 -0.3417
  897MOL0     C23653  10.017   1.865   2.209  0.2210 -0.7199  0.3990
  897MOL0     C23654   9.885   1.887   2.186  0.3004 -1.0133 -0.2311
  897MOL0     C23655   9.847   2.022   2.182  1.3812  0.3717 -0.1898
  897MOL0     O23656   9.719   2.047   2.130 -0.2045  0.1023  0.0053
  897MOL0     C23657   9.718   2.150   2.039  0.3030  0.1398 -0.4245
  897MOL0     C23658   9.594   2.151   1.956 -0.3945  0.6703  0.2303
  897MOL0     C23659   9.462   2.175   2.028 -0.4109 -0.5492 -0.6173
  897MOL0     C23660   9.403   2.051   2.094 -0.1394  0.0807 -0.1804
  897MOL0     C23661   9.264   2.081   2.146  0.7937  0.2871 -0.6984
  897MOL0     C23662   9.193   1.958   2.204  0.4773 -0.2712  0.6131
  897MOL0     C23663   9.079   1.994   2.302  0.0966 -1.2515 -0.9786
  897MOL0     C23664   9.028   1.866   2.371  0.4125 -0.8002 -1.0529
  897MOL0     N23665   9.041   1.879   2.519  0.1394  0.5522  0.7072
  897MOL0     C23666   9.163   1.891   2.584 -0.3743 -1.1886  0.0156
  897MOL0     C23667   9.124   1.881   2.716 -0.3157 -0.5895 -0.0308
  897MOL0     C23668   9.201   1.875   2.841  0.3534  0.1951 -0.0553
  897MOL0     C23669   9.344   1.933   2.823  0.4964 -1.3049  0.2419
  897MOL0     C23670   9.344   2.082   2.805  0.3295  0.0715 -0.4070
  897MOL0     C23671   9.483   2.154   2.828  0.3087  1.1214 -0.1555
  897MOL0     O23672   9.563   2.131   2.708  0.2527 -0.1757  0.3742
  897MOL0     C23673   9.690   2.172   2.712  0.0846 -0.0804  0.5907
  897MOL0     C23674   9.746   2.266   2.804  0.1499 -0.2497 -0.5448
  897MOL0     C23675   9.881   2.309   2.797 -0.2304 -0.2856  1.4031
  897MOL0     C23676   9.923   2.418   2.891 -0.3237  0.5039  0.1751
  897MOL0     C23677   9.967   2.255   2.693  0.0143 -0.6400 -0.8217
  897MOL0     C23678  10.097   2.316   2.658 -0.6125  1.0225 -0.2925
  897MOL0     O23679  10.099   2.407   2.560  0.8770 -0.3340 -0.0980
  897MOL0     C23680  10.214   2.479   2.561 -0.6234  0.0631  0.2969
  897MOL0     C23681  10.293   2.491   2.444 -0.4719 -0.0866  0.2362
  897MOL0     C23682  10.415   2.575   2.436 -0.1058 -1.0862 -0.2835
  897MOL0     C23683  10.448   2.645   2.554  0.9409  0.5006  0.2640
  897MOL0     O23684  10.563   2.724   2.549  0.2120  0.5127 -0.4716
  897MOL0     C23685  10.663   2.723   2.659  1.1755  0.6405  0.2246
  897MOL0     C23686  10.737   2.586   2.678  0.9917 -0.3364 -0.1147
  897MOL0     C23687  10.774   2.532   2.535  1.3509  0.1067 -0.1911
  897MOL0     C23688  10.854   2.642   2.456 -0.6930  0.2871 -0.1528
  897MOL0     C23689  10.919   2.589   2.332  0.5407  0.4711 -1.1279
  897MOL0     C23690  10.814   2.548   2.222  1.5972 -0.1107 -0.3862
  897MOL0     C23691  10.756   2.671   2.153  0.0770 -0.3050  0.0534
  897MOL0     C23692  10.659   2.639   2.038 -0.3814 -0.1690 -0.1848
  897MOL0    Cl23693  10.603   2.797   1.967  0.4971 -0.1884  0.1457
  897MOL0     C23694  10.376   2.631   2.670 -0.3735  0.4321  0.4117
  897MOL0     C23695  10.258   2.550   2.673  0.5232 -0.4125  0.1617
  897MOL0     O23696  10.190   2.280   2.731  0.0368  0.3964 -1.1433
  897MOL0     C23697   9.915   2.165   2.601  0.6953 -0.4018 -0.1293
  897MOL0     C23698   9.781   2.122   2.610 -0.9120  0.4546 -0.2432
  897MOL0     N23699   8.988   1.866   2.718 -0.2878 -0.4955  0.0785
  897MOL0     N23700   8.941   1.866   2.602 -0.7018  0.5691 -1.4107
  897MOL0     C23701   9.923   2.128   2.231 -0.0174  0.4705 -0.2616
  897MOL0     C23702  10.055   2.094   2.272 -0.0833  0.5081  0.3386
  897MOL0     C23703  10.464   1.919   2.366 -0.0773 -0.0865 -0.2364
  897MOL0     C23704  10.478   1.793   2.315  0.1210  0.5632 -0.0761
  897MOL0     C23705  10.591   1.721   2.358 -0.1218 -0.0146 -0.3159
  897MOL0     C23706  10.659   1.763   2.475 -1.1487  0.1331  0.6647
  897MOL0     O23707  10.760   1.685   2.535  0.3749  0.1131  0.6301
  897MOL0     C23708  10.796   1.556   2.490 -0.4347  1.0085  0.2194
  897MOL0     C23709  10.709   1.449   2.558  0.4434  0.9535 -0.0510
  897MOL0     C23710  10.686   1.465   2.706 -0.0303  0.6676 -0.6386
  897MOL0     C23711  10.620   1.349   2.788  0.3815 -0.2749  0.9492
  897MOL0     C23712  10.477   1.331   2.766  0.7416 -0.5631  1.1992
  897MOL0     C23713  10.356   1.329   2.750  0.2718  0.8125 -0.9480
  897MOL0     C23714  10.635   1.893   2.524  0.9274 -0.1268 -0.2509
  897MOL0     C23715  10.545   1.972   2.468 -1.2606 -0.7540 -1.2807
  897MOL0     C23716  10.518   2.110   2.534  1.4444 -0.1098  0.1249
  897MOL0     H23717  10.052   1.764   2.189 -2.0963 -1.7545  1.2414
  897MOL0     H23718   9.818   1.805   2.163 -1.2463  0.0875  0.1919
  897MOL0     H23719   9.799   2.127   1.969  0.5425 -1.0918  0.2367
  897MOL0     H23720   9.733   2.246   2.089 -0.2777  0.4436 -0.8241
  897MOL0     H23721   9.600   2.225   1.876 -1.2966  2.0367  1.3702
  897MOL0     H23722   9.593   2.052   1.911  1.1491 -1.1365  3.7755
  897MOL0     H23723   9.484   2.255   2.099 -0.4664 -0.4391 -0.7256
  897MOL0     H23724   9.382   2.196   1.957 -4.1063  0.8678  3.5096
  897MOL0     H23725   9.397   1.978   2.012 -1.2586  1.6240 -1.5385
  897MOL0     H23726   9.464   2.023   2.180 -1.0822 -1.6154 -0.0200
  897MOL0     H23727   9.194   2.110   2.068 -0.1624 -3.1407 -1.2949
  897MOL0     H23728   9.290   2.153   2.225  0.6576 -0.6309  0.2092
  897MOL0     H23729   9.152   1.905   2.118  0.4123  1.9500 -0.7935
  897MOL0     H23730   9.261   1.888   2.253 -1.5144 -1.3732  2.0088
  897MOL0     H23731   8.998   2.042   2.249 -1.2764  0.0924  2.0932
  897MOL0     H23732   9.119   2.068   2.372 -3.4112  0.7506 -0.9033
  897MOL0     H23733   8.930   1.834   2.333  0.8665 -0.6428 -2.3791
  897MOL0     H23734   9.086   1.778   2.344  3.9988  1.1408 -0.3207
  897MOL0     H23735   9.259   1.901   2.534 -1.5722  0.8011 -2.0514
  897MOL0     H23736   9.222   1.773   2.875  3.5750  0.5557 -0.6253
  897MOL0     H23737   9.137   1.933   2.908  0.5155 -2.3065  2.4672
  897MOL0     H23738   9.397   1.907   2.916  3.4069  1.0214 -0.6174
  897MOL0     H23739   9.414   1.885   2.754  0.2038  0.7814 -1.5981
  897MOL0     H23740   9.320   2.095   2.699 -2.0850  1.4153  0.2211
  897MOL0     H23741   9.265   2.128   2.865  2.1426  4.1752 -0.8207
  897MOL0     H23742   9.454   2.259   2.832  0.6268  1.4814 -3.9243
  897MOL0     H23743   9.531   2.125   2.921 -1.9307  1.9867  1.3589
  897MOL0     H23744   9.690   2.307   2.888  0.0374 -1.3974 -0.0375
  897MOL0     H23745   9.866   2.410   2.984  0.9351 -0.5802  0.8798
  897MOL0     H23746   9.899   2.514   2.844 -0.2282  1.0335  1.1814
  897MOL0     H23747  10.029   2.409   2.917 -0.5567  1.2231  1.4449
  897MOL0     H23748  10.255   2.436   2.359 -1.7435 -1.0541  1.3820
  897MOL0     H23749  10.472   2.598   2.347  0.3192 -1.0454 -0.0021
  897MOL0     H23750  10.733   2.807   2.646  1.2165  0.7252  0.9797
  897MOL0     H23751  10.614   2.756   2.751 -0.4276 -1.1156  0.0616
  897MOL0     H23752  10.827   2.604   2.738 -0.0367  0.0930  1.3475
  897MOL0     H23753  10.663   2.534   2.739 -0.4895  1.5053 -0.2525
  897MOL0     H23754  10.678   2.502   2.493  1.9650 -1.6264 -0.4297
  897MOL0     H23755  10.843   2.447   2.534  3.6751  1.8475  0.9485
  897MOL0     H23756  10.927   2.677   2.530 -0.4410 -1.6852  0.5789
  897MOL0     H23757  10.796   2.733   2.440 -1.8365 -0.1227  1.3579
  897MOL0     H23758  10.991   2.658   2.286 -0.9133  2.1698 -0.9375
  897MOL0     H23759  10.975   2.499   2.361 -0.1605  0.4084  0.0795
  897MOL0     H23760  10.730   2.494   2.267  0.4482 -0.6704 -2.9814
  897MOL0     H23761  10.855   2.490   2.139  1.5703  1.3729 -1.4905
  897MOL0     H23762  10.831   2.723   2.093 -3.3590  1.7323 -2.9132
  897MOL0     H23763  10.721   2.748   2.223  2.6966  4.0323 -2.9343
  897MOL0     H23764  10.579   2.577   2.077  1.6781 -2.8066  0.1594
  897MOL0     H23765  10.703   2.587   1.953 -0.2860  0.7718 -0.7326
  897MOL0     H23766  10.410   2.691   2.754  0.9624 -0.5668  0.6207
  897MOL0     H23767  10.201   2.540   2.765  1.1914 -1.3864  0.4871
  897MOL0     H23768   9.977   2.150   2.513 -1.3397  1.8143 -2.0933
  897MOL0     H23769   9.759   2.047   2.535 -1.6058  0.0276  0.3782
  897MOL0     H23770   9.885   2.229   2.220 -2.1102 -0.3181 -0.6969
  897MOL0     H23771  10.118   2.172   2.312 -1.5369  2.2528 -0.6474
  897MOL0     H23772  10.404   1.755   2.245 -0.2408  1.6222 -0.2868
  897MOL0     H23773  10.608   1.623   2.314 -0.3727 -1.5037  2.6106
  897MOL0     H23774  10.792   1.536   2.382 -0.8059  0.5127  0.3182
  897MOL0     H23775  10.899   1.531   2.519  0.9449  2.6617 -2.7336
  897MOL0     H23776  10.749   1.351   2.530 -0.0579  0.6148  0.3991
  897MOL0     H23777  10.616   1.465   2.502  1.2137  1.5984 -1.2086
  897MOL0     H23778  10.780   1.485   2.758 -0.5945 -0.2235  0.7873
  897MOL0     H23779  10.618   1.548   2.725 -0.9373  0.0261 -1.0007
  897MOL0     H23780  10.623   1.378   2.894 -1.6329  2.3015  0.4068
  897MOL0     H23781  10.678   1.257   2.775  0.0911 -0.6456  2.1878
  897MOL0     H23782  10.249   1.322   2.739  0.2171 -1.9638  0.4136
  897MOL0     H23783  10.691   1.923   2.613  0.3390 -1.7601  0.7158
  897MOL0     H23784  10.410   2.127   2.537  1.2123 -1.5727  0.3945
  897MOL0     H23785  10.551   2.105   2.638  1.7561 -1.6153 -0.0265
  897MOL0     H23786  10.567   2.197   2.487 -2.0777  2.0239  0.0267
  898MOL0     O23787   4.609   0.629   4.816 -0.2434 -0.6107  0.0247
  898MOL0     C23788   4.645   0.562   4.723  0.1248 -0.2274 -0.1244
  898MOL0     O23789   4.584   0.556   4.598 -0.0076  0.7886  0.3687
  898MOL0     C23790   4.481   0.642   4.571  0.4000  0.0347  1.0045
  898MOL0     C23791   4.366   0.654   4.651 -0.5801 -0.0363 -1.0004
  898MOL0     C23792   4.263   0.740   4.623  1.0515 -0.6191 -0.4554
  898MOL0     C23793   4.267   0.812   4.508  0.3127 -0.3337  0.8502
  898MOL0     O23794   4.167   0.906   4.502  0.7246 -0.4554  0.4006
  898MOL0     C23795   4.181   1.029   4.425 -0.8595  0.8308 -0.3628
  898MOL0     C23796   4.086   1.138   4.467 -0.2066 -0.5294  0.0806
  898MOL0     C23797   4.114   1.262   4.394  0.1091  0.3200 -0.1740
  898MOL0     C23798   4.016   1.370   4.431  0.5820 -0.3019  0.0653
  898MOL0     C23799   4.027   1.489   4.330  0.2223 -0.5595 -0.0821
  898MOL0     C23800   4.164   1.557   4.318  0.2586  0.0041 -0.3316
  898MOL0     C23801   4.154   1.697   4.237 -0.0015 -0.3988 -0.5124
  898MOL0     C23802   4.119   1.665   4.088 -0.1844 -0.2704 -0.9579
  898MOL0     N23803   4.147   1.776   4.001 -0.4722 -0.4514 -0.3226
  898MOL0     C23804   4.083   1.897   4.005 -0.4107 -0.2653  0.2524
  898MOL0     C23805   4.151   1.968   3.916 -1.5235  0.2072  0.3604
  898MOL0     C23806   4.174   2.117   3.900  0.8353 -0.6020  0.0325
  898MOL0     C23807   4.230   2.177   4.027 -1.0739  0.4656  0.2425
  898MOL0     C23808   4.263   2.319   4.007  0.2431 -0.7915 -0.6034
  898MOL0     C23809   4.322   2.371   4.137 -0.0381  0.7536 -0.2164
  898MOL0     O23810   4.219   2.388   4.235  0.0859  0.3506  0.3097
  898MOL0     C23811   4.126   2.491   4.209 -0.6604 -0.2455  0.4172
  898MOL0     C23812   3.990   2.464   4.191 -0.3188  0.1037 -0.0089
  898MOL0     C23813   3.890   2.568   4.185 -0.0024 -0.7058 -0.3312
  898MOL0     C23814   3.747   2.524   4.163 -0.1055  0.0481  0.3738
  898MOL0     C23815   3.932   2.708   4.187  0.0276 -0.3304 -1.0036
  898MOL0     C23816   3.843   2.825   4.175  0.5619 -0.4571 -0.4209
  898MOL0     O23817   3.901   2.938   4.164  0.9118  0.0466  0.7124
  898MOL0     C23818   3.874   3.044   4.247 -0.8042  0.0045  0.6250
  898MOL0     C23819   3.770   3.055   4.342 -0.3022  0.2828  0.1976
  898MOL0     C23820   3.746   3.185   4.400 -0.5996  0.7917 -0.0389
  898MOL0     C23821   3.819   3.291   4.362 -0.3421 -1.4471 -0.5077
  898MOL0     O23822   3.798   3.420   4.406  0.7115  0.7058 -0.2919
  898MOL0     C23823   3.764   3.427   4.547 -0.6246  0.2159  1.0429
  898MOL0     C23824   3.771   3.570   4.580 -0.3419 -0.2152  0.1129
  898MOL0     C23825   3.699   3.663   4.489  0.3142  0.0668  0.1674
  898MOL0     C23826   3.650   3.791   4.551 -0.0265  0.4490  0.3297
  898MOL0     C23827   3.634   3.902   4.448  0.1497  1.2497  0.1865
  898MOL0     C23828   3.578   4.030   4.515 -0.3181 -1.2501 -0.3161
  898MOL0     C23829   3.599   4.148   4.426  0.4484  0.6609 -0.5993
  898MOL0     C23830   3.589   4.277   4.502  0.4814  0.1584  0.3515
  898MOL0    Cl23831   3.668   4.398   4.396 -0.0295  0.2576  0.0815
  898MOL0     C23832   3.927   3.278   4.272  0.2340 -0.4126  0.6231
  898MOL0     C23833   3.953   3.157   4.212 -0.3323 -0.2056 -0.0302
  898MOL0     O23834   3.723   2.815   4.184  0.1908  0.5025 -0.1434
  898MOL0     C23835   4.075   2.727   4.204 -0.3577  0.2023 -0.1526
  898MOL0     C23836   4.173   2.621   4.206  0.1918 -0.7587 -0.0158
  898MOL0     N23837   4.238   1.888   3.854  0.3777  0.1738  0.8058
  898MOL0     N23838   4.239   1.769   3.903  0.2341  0.1412  0.4757
  898MOL0     C23839   4.377   0.806   4.417 -0.4386  0.0935  0.8491
  898MOL0     C23840   4.490   0.722   4.456 -0.2856 -0.3610  0.6618
  898MOL0     C23841   4.769   0.469   4.742 -0.2355 -0.3504 -0.2567
  898MOL0     C23842   4.766   0.345   4.677 -0.2778 -0.2487  0.0879
  898MOL0     C23843   4.857   0.244   4.708  0.4209  0.9632  0.0450
  898MOL0     C23844   4.970   0.272   4.786 -0.6913  0.0611 -0.7279
  898MOL0     O23845   5.057   0.175   4.825  0.3337 -0.3868  0.8286
  898MOL0     C23846   5.084   0.159   4.966 -0.7036 -0.0836  0.0840
  898MOL0     C23847   5.225   0.203   4.985  0.0620 -0.9536 -0.0243
  898MOL0     C23848   5.270   0.173   5.127 -0.4823 -0.2241 -1.1291
  898MOL0     C23849   5.401   0.223   5.152 -0.5973 -0.4380  0.0095
  898MOL0     C23850   5.495   0.141   5.076  0.5014  0.8618  0.4276
  898MOL0     C23851   5.567   0.073   4.994 -0.7256 -0.1294 -0.4745
  898MOL0     C23852   4.984   0.401   4.828  0.0516 -0.0082  0.5232
  898MOL0     C23853   4.891   0.505   4.810  0.1350  0.3023  0.2211
  898MOL0     C23854   4.916   0.646   4.867  0.2689  0.3839  0.7860
  898MOL0     H23855   4.361   0.605   4.748  3.7059 -0.5965 -0.8656
  898MOL0     H23856   4.178   0.733   4.690  1.6027  1.1084  0.4743
  898MOL0     H23857   4.165   1.001   4.320  0.3278 -2.3509  0.2056
  898MOL0     H23858   4.285   1.061   4.435 -0.8004  0.1723  1.3264
  898MOL0     H23859   3.983   1.107   4.446 -0.2513 -1.3623  1.3981
  898MOL0     H23860   4.092   1.142   4.576 -2.9460  1.7454  0.2567
  898MOL0     H23861   4.218   1.295   4.401  0.9179 -1.9582 -0.7227
  898MOL0     H23862   4.103   1.249   4.286 -1.2388  1.2263 -0.1774
  898MOL0     H23863   3.914   1.330   4.424  0.7016 -0.7475  0.8677
  898MOL0     H23864   4.027   1.408   4.533 -2.1069  0.4578  0.1655
  898MOL0     H23865   3.954   1.560   4.371  1.6055 -0.8480  3.2249
  898MOL0     H23866   4.006   1.454   4.229  2.6519 -4.1242  0.4557
  898MOL0     H23867   4.185   1.595   4.418 -1.4348  0.2761 -0.0513
  898MOL0     H23868   4.250   1.499   4.284 -0.0858  0.9015 -2.9674
  898MOL0     H23869   4.237   1.765   4.257  1.4802 -1.9583 -1.0603
  898MOL0     H23870   4.069   1.751   4.279 -0.1493  0.1488 -1.5094
  898MOL0     H23871   4.184   1.585   4.051  2.0766  0.7372  0.5791
  898MOL0     H23872   4.014   1.638   4.075 -0.1608 -2.0645  1.7251
  898MOL0     H23873   4.006   1.926   4.075 -1.3138 -3.4092  0.7322
  898MOL0     H23874   4.082   2.162   3.864  0.6429  1.0132  2.3271
  898MOL0     H23875   4.242   2.134   3.815 -2.5519  3.0775 -2.2802
  898MOL0     H23876   4.152   2.181   4.103 -1.7192  0.6592 -0.4199
  898MOL0     H23877   4.317   2.115   4.049  0.9570  2.0241 -2.7089
  898MOL0     H23878   4.329   2.332   3.921  1.1391 -4.2725 -0.5698
  898MOL0     H23879   4.173   2.374   3.976 -0.8151 -2.2287 -0.1530
  898MOL0     H23880   4.397   2.301   4.176 -0.3886  0.0894 -0.7104
  898MOL0     H23881   4.378   2.462   4.115  5.5658 -2.5236 -1.6324
  898MOL0     H23882   3.963   2.359   4.187  0.7430 -0.1619 -0.6575
  898MOL0     H23883   3.672   2.574   4.225 -1.2892 -1.6138  0.3535
  898MOL0     H23884   3.718   2.421   4.188 -3.9074  0.9108  0.1305
  898MOL0     H23885   3.735   2.548   4.058  3.8350  2.1273  0.2066
  898MOL0     H23886   3.703   2.969   4.351  2.2203 -2.0295 -1.6238
  898MOL0     H23887   3.664   3.188   4.471  0.5754  0.3413  1.3916
  898MOL0     H23888   3.660   3.394   4.558 -0.4616  0.1357  2.4179
  898MOL0     H23889   3.833   3.367   4.606  1.7269 -0.0133 -1.7101
  898MOL0     H23890   3.711   3.581   4.671 -3.7321 -0.0366 -1.9713
  898MOL0     H23891   3.877   3.593   4.595  0.7779 -2.1106 -3.6382
  898MOL0     H23892   3.618   3.614   4.435 -3.0113  3.8705  1.1869
  898MOL0     H23893   3.775   3.685   4.414  0.0539 -1.0069 -0.4261
  898MOL0     H23894   3.727   3.824   4.622  2.2058  1.1103 -2.2430
  898MOL0     H23895   3.552   3.767   4.594  0.0262 -1.5791 -0.5734
  898MOL0     H23896   3.724   3.931   4.393  0.2116 -0.2072 -0.5279
  898MOL0     H23897   3.561   3.869   4.374  0.9118  0.6252 -0.3060
  898MOL0     H23898   3.624   4.052   4.612  1.2763  0.6389 -1.4289
  898MOL0     H23899   3.471   4.013   4.526 -0.0853 -1.3858  2.2844
  898MOL0     H23900   3.521   4.151   4.350 -0.9015  1.3954  0.7558
  898MOL0     H23901   3.695   4.148   4.374  0.5328  0.0990 -0.4466
  898MOL0     H23902   3.640   4.270   4.598 -0.2433 -2.0320  0.6240
  898MOL0     H23903   3.487   4.306   4.525  0.6456  0.5690  0.5601
  898MOL0     H23904   3.976   3.369   4.239 -2.3561  1.5347  1.7613
  898MOL0     H23905   4.028   3.143   4.135 -1.1704 -0.5815 -0.7893
  898MOL0     H23906   4.108   2.830   4.208 -0.3822  0.3765 -2.6947
  898MOL0     H23907   4.278   2.643   4.222  0.5785 -1.1091 -1.9199
  898MOL0     H23908   4.380   0.869   4.329 -2.8348  1.0273  1.3622
  898MOL0     H23909   4.585   0.717   4.403 -0.2996 -1.1482  0.6965
  898MOL0     H23910   4.673   0.320   4.627 -0.8671  2.5382 -0.3909
  898MOL0     H23911   4.833   0.143   4.674 -2.9739  1.8091 -0.4873
  898MOL0     H23912   5.022   0.224   5.027 -0.2981 -1.1402  1.6749
  898MOL0     H23913   5.075   0.055   4.999  1.2170 -0.8822 -1.6750
  898MOL0     H23914   5.233   0.309   4.958  0.4183 -1.1285 -0.6336
  898MOL0     H23915   5.288   0.159   4.907 -0.0542  0.2221 -0.8106
  898MOL0     H23916   5.204   0.220   5.201 -0.9852 -1.3487 -0.8281
  898MOL0     H23917   5.254   0.067   5.153  0.0561 -0.2777 -1.0111
  898MOL0     H23918   5.438   0.213   5.254  1.7901  1.0820 -0.6069
  898MOL0     H23919   5.415   0.328   5.122 -1.0131 -0.4847 -0.3525
  898MOL0     H23920   5.615   0.001   4.931 -0.4366 -0.4653  0.1185
  898MOL0     H23921   5.065   0.432   4.894 -0.9946  4.2859  0.1050
  898MOL0     H23922   4.841   0.667   4.943  1.6330  2.3513  1.6868
  898MOL0     H23923   5.020   0.663   4.897  0.6865  0.7077 -0.7322
  898MOL0     H23924   4.894   0.718   4.787 -0.4948 -0.6029  0.0847
  899MOL0     O23925   6.930   3.615   0.445  0.0837  0.9822 -0.0203
  899MOL0     C23926   6.866   3.691   0.512  0.9838 -0.1531  0.7076
  899MOL0     O23927   6.894   3.739   0.638 -0.8048 -0.4002  0.8340
  899MOL0     C23928   7.025   3.743   0.680  0.4057  0.6648  0.3416
  899MOL0     C23929   7.096   3.858   0.667 -0.5829  0.1386 -0.3810
  899MOL0     C23930   7.228   3.858   0.711  1.1032 -0.3011  0.2672
  899MOL0     C23931   7.282   3.755   0.776  0.0992  0.5789  0.5726
  899MOL0     O23932   7.412   3.766   0.814 -0.7636 -1.0577  0.1229
  899MOL0     C23933   7.468   3.655   0.890 -0.0264 -0.6319  0.0707
  899MOL0     C23934   7.609   3.708   0.939  0.2677 -0.8662  0.1859
  899MOL0     C23935   7.689   3.614   1.023  0.1657 -1.0658  1.0355
  899MOL0     C23936   7.836   3.665   1.056 -0.3726 -0.2115 -0.3957
  899MOL0     C23937   7.906   3.575   1.149  0.1641  0.0133  0.1900
  899MOL0     C23938   8.049   3.625   1.167 -0.5265  0.4425 -0.5650
  899MOL0     C23939   8.128   3.528   1.247  1.3271 -0.6008  0.4107
  899MOL0     C23940   8.260   3.572   1.317  0.3392  0.3664 -0.1586
  899MOL0     N23941   8.364   3.620   1.218  0.6817  0.0198 -0.5978
  899MOL0     C23942   8.468   3.549   1.166 -0.2557 -0.5549 -1.1930
  899MOL0     C23943   8.522   3.629   1.070 -0.1924 -0.8029  0.7779
  899MOL0     C23944   8.645   3.619   0.977  0.1929 -0.5062 -0.4085
  899MOL0     C23945   8.757   3.708   1.039  0.7637 -0.3749  0.0987
  899MOL0     C23946   8.889   3.681   0.983  0.8521  0.6951  0.1838
  899MOL0     C23947   8.988   3.791   1.004 -0.0214  0.8030 -0.1734
  899MOL0     O23948   9.004   3.811   1.143  0.6692 -0.4250 -0.0299
  899MOL0     C23949   9.132   3.798   1.187  0.0253  0.2281 -0.3145
  899MOL0     C23950   9.256   3.756   1.128 -0.4144  0.1361 -0.2072
  899MOL0     C23951   9.372   3.747   1.209 -0.4666 -0.2615  0.1807
  899MOL0     C23952   9.501   3.706   1.149  0.3510 -0.2491  0.2527
  899MOL0     C23953   9.363   3.769   1.343  1.2593  0.2621  0.0474
  899MOL0     C23954   9.480   3.763   1.441 -0.2766  0.5962 -0.6303
  899MOL0     O23955   9.467   3.845   1.553  0.6409  0.3362 -0.0473
  899MOL0     C23956   9.548   3.828   1.655 -0.4507  0.2499 -0.3678
  899MOL0     C23957   9.620   3.939   1.705  1.0429 -0.1575  0.2065
  899MOL0     C23958   9.702   3.932   1.817 -0.3959  1.6028  0.8065
  899MOL0     C23959   9.707   3.811   1.889  0.4137  0.1587  0.4044
  899MOL0     O23960   9.780   3.819   2.003 -0.4306  0.2796 -0.2352
  899MOL0     C23961   9.875   3.711   2.021 -0.3439 -0.2834 -0.5357
  899MOL0     C23962   9.952   3.766   2.149  0.3884  0.9077  0.1807
  899MOL0     C23963  10.050   3.670   2.201 -1.1164  0.1287  0.0942
  899MOL0     C23964  10.170   3.735   2.281  1.0805 -0.0437  0.7680
  899MOL0     C23965  10.273   3.624   2.318 -0.0849 -0.4653 -0.0923
  899MOL0     C23966  10.369   3.670   2.425 -0.2856 -0.5406  0.4157
  899MOL0     C23967  10.455   3.786   2.376 -0.3889  0.1195  0.2487
  899MOL0     C23968  10.599   3.764   2.397 -0.2176  0.1180  0.1052
  899MOL0    Cl23969  10.659   3.739   2.560 -0.5589 -0.4202  0.1407
  899MOL0     C23970   9.631   3.699   1.841  0.4125  0.8230  0.2254
  899MOL0     C23971   9.556   3.706   1.719  0.1731 -0.7948  0.1268
  899MOL0     O23972   9.563   3.674   1.427 -0.2515 -0.0617 -0.2656
  899MOL0     C23973   9.239   3.818   1.403 -0.7646 -0.0218  0.2827
  899MOL0     C23974   9.126   3.827   1.326 -0.2331 -0.1387 -0.5266
  899MOL0     N23975   8.458   3.761   1.084  0.8972 -0.1598  0.3993
  899MOL0     N23976   8.350   3.745   1.154  0.4697  1.2464  0.2001
  899MOL0     C23977   7.206   3.634   0.783 -0.6546 -0.6240 -0.3229
  899MOL0     C23978   7.079   3.632   0.738 -0.2586  0.3418 -0.1080
  899MOL0     C23979   6.735   3.734   0.455 -0.1979  1.3540  0.1537
  899MOL0     C23980   6.658   3.834   0.511 -0.3594 -0.4522  0.0335
  899MOL0     C23981   6.535   3.879   0.469 -0.5544 -0.7032  0.5506
  899MOL0     C23982   6.468   3.811   0.365  0.0454  0.0977  0.1722
  899MOL0     O23983   6.344   3.840   0.326 -0.6588  0.4657  0.0400
  899MOL0     C23984   6.241   3.743   0.335  0.5071 -0.2586  0.8292
  899MOL0     C23985   6.205   3.674   0.202 -0.3697 -0.5265 -0.4232
  899MOL0     C23986   6.111   3.557   0.223  0.1206 -0.2542  0.1993
  899MOL0     C23987   6.032   3.516   0.100  0.9330 -0.9135  0.2354
  899MOL0     C23988   5.902   3.580   0.097  0.1171  0.2640  0.4651
  899MOL0     C23989   5.788   3.620   0.118 -0.0259  0.4367  0.0326
  899MOL0     C23990   6.539   3.705   0.309  0.4220 -0.8437 -0.6056
  899MOL0     C23991   6.663   3.665   0.348 -0.8260 -0.4672 -0.2978
  899MOL0     C23992   6.724   3.556   0.283 -0.5125 -0.6284  0.7417
  899MOL0     H23993   7.073   3.952   0.618 -0.2757 -0.2179 -1.2272
  899MOL0     H23994   7.274   3.956   0.701 -1.2883  1.0033  1.2489
  899MOL0     H23995   7.476   3.568   0.823  0.7211 -2.2443  2.1642
  899MOL0     H23996   7.409   3.638   0.980  1.2185  1.0100  1.2427
  899MOL0     H23997   7.669   3.721   0.849  2.1357 -1.6028  1.2798
  899MOL0     H23998   7.596   3.797   1.001  5.1312 -1.8415  3.1535
  899MOL0     H23999   7.645   3.601   1.122  0.8637 -1.2251  1.3352
  899MOL0     H24000   7.695   3.522   0.965 -1.8456 -0.2350 -0.6079
  899MOL0     H24001   7.894   3.668   0.963  1.0059  2.4383  0.4521
  899MOL0     H24002   7.838   3.768   1.092 -3.5986 -0.7968  1.9048
  899MOL0     H24003   7.911   3.470   1.117 -1.1693 -0.2506  0.7869
  899MOL0     H24004   7.856   3.581   1.246  0.9383  1.0060  0.5390
  899MOL0     H24005   8.108   3.656   1.079  2.3506 -0.7174  0.8286
  899MOL0     H24006   8.046   3.719   1.222  2.5543 -0.1534  0.8185
  899MOL0     H24007   8.158   3.451   1.175  1.1414  1.4836 -2.0384
  899MOL0     H24008   8.063   3.487   1.325 -0.7287 -0.0125 -0.9157
  899MOL0     H24009   8.247   3.645   1.397 -0.6629 -1.2334  1.1932
  899MOL0     H24010   8.301   3.488   1.374 -0.6002 -0.2639 -0.3767
  899MOL0     H24011   8.500   3.452   1.201 -0.4367  0.0706  0.8234
  899MOL0     H24012   8.610   3.663   0.883 -1.2077  2.9111  1.5451
  899MOL0     H24013   8.671   3.514   0.960 -1.1387 -0.9421  0.1043
  899MOL0     H24014   8.731   3.814   1.029 -0.3712 -0.7089 -0.6537
  899MOL0     H24015   8.781   3.685   1.144 -0.0412 -1.7952 -0.0037
  899MOL0     H24016   8.921   3.580   1.013 -0.7927 -0.7085 -2.3647
  899MOL0     H24017   8.870   3.675   0.875 -2.1846 -0.6769  0.6980
  899MOL0     H24018   9.078   3.765   0.948  1.5028  0.0792  2.4141
  899MOL0     H24019   8.955   3.887   0.962 -0.5154  2.1933  3.0963
  899MOL0     H24020   9.253   3.744   1.020  1.1467 -1.7075 -0.0999
  899MOL0     H24021   9.491   3.682   1.043 -0.2005 -0.7134  0.4045
  899MOL0     H24022   9.525   3.604   1.183 -0.8087 -1.9213 -3.4518
  899MOL0     H24023   9.586   3.772   1.170  0.9298  0.3856 -3.5306
  899MOL0     H24024   9.614   4.037   1.657 -1.4088  0.8646  2.3485
  899MOL0     H24025   9.754   4.025   1.838  2.0586  0.4109  0.3617
  899MOL0     H24026   9.837   3.611   2.043  1.7404 -0.7705  1.2134
  899MOL0     H24027   9.926   3.702   1.926 -2.2203 -1.7841 -1.4638
  899MOL0     H24028   9.997   3.861   2.118  0.7143  0.7145  0.0536
  899MOL0     H24029   9.877   3.794   2.223  0.7056 -1.7304  1.6475
  899MOL0     H24030  10.098   3.615   2.119  0.7818  1.2407  0.3880
  899MOL0     H24031   9.998   3.603   2.271  0.2774 -0.3677  0.7091
  899MOL0     H24032  10.131   3.776   2.375 -3.7980 -2.2248  0.0171
  899MOL0     H24033  10.218   3.811   2.219  0.9818 -1.3550 -1.0236
  899MOL0     H24034  10.225   3.532   2.354  2.5401 -0.8928  2.6963
  899MOL0     H24035  10.321   3.594   2.224 -0.1204 -2.4319  0.4642
  899MOL0     H24036  10.425   3.578   2.443  0.6578  0.3182  2.1053
  899MOL0     H24037  10.316   3.698   2.517  2.1129 -2.6483  2.5935
  899MOL0     H24038  10.426   3.880   2.424 -1.7914  0.0575 -0.4376
  899MOL0     H24039  10.437   3.797   2.269 -0.5751  2.9805  0.5118
  899MOL0     H24040  10.653   3.841   2.343 -0.2674  0.1306  0.0731
  899MOL0     H24041  10.623   3.676   2.336 -1.8593  2.0193 -3.5889
  899MOL0     H24042   9.634   3.603   1.892  0.0470  1.6535  1.8780
  899MOL0     H24043   9.514   3.617   1.674  1.6071 -0.0718 -2.8522
  899MOL0     H24044   9.235   3.853   1.505  3.5035 -1.3171  1.0952
  899MOL0     H24045   9.029   3.848   1.370 -1.8547 -3.5898 -2.0251
  899MOL0     H24046   7.247   3.539   0.816  0.1455 -0.2858 -0.3113
  899MOL0     H24047   7.021   3.540   0.726 -0.1794  0.5252 -2.3415
  899MOL0     H24048   6.702   3.887   0.595 -1.6329 -0.4170  0.7093
  899MOL0     H24049   6.493   3.969   0.512 -3.2620 -1.2132 -0.8512
  899MOL0     H24050   6.266   3.658   0.401  1.6767 -1.0440 -0.5709
  899MOL0     H24051   6.145   3.774   0.377  0.0832 -1.6998  0.9933
  899MOL0     H24052   6.296   3.648   0.148  0.7429  0.1578  1.0620
  899MOL0     H24053   6.153   3.744   0.137  1.1292 -0.4792 -1.6244
  899MOL0     H24054   6.172   3.467   0.239 -1.2456 -1.2238  0.0528
  899MOL0     H24055   6.043   3.573   0.307 -0.5246  0.9971 -0.5249
  899MOL0     H24056   6.009   3.412   0.073 -1.5530 -0.0908 -1.0913
  899MOL0     H24057   6.103   3.543   0.021  0.5419 -0.5577  0.0048
  899MOL0     H24058   5.702   3.677   0.147  1.4017  1.5932  2.2514
  899MOL0     H24059   6.485   3.644   0.238 -1.8992 -1.2095  1.3376
  899MOL0     H24060   6.819   3.589   0.240 -0.1499 -1.3966  0.9217
  899MOL0     H24061   6.743   3.467   0.345 -0.3301 -2.0301 -1.2224
  899MOL0     H24062   6.674   3.538   0.187 -2.1559  1.3521  1.1554
  900MOL0     O24063  10.466   4.620   5.062  0.2421  0.4309 -0.9566
  900MOL0     C24064  10.427   4.504   5.052  0.1405 -0.2161 -0.8283
  900MOL0     O24065  10.407   4.447   4.932  0.7402  0.6581 -0.7251
  900MOL0     C24066  10.411   4.518   4.821  1.0753 -0.7602  0.7204
  900MOL0     C24067  10.529   4.569   4.768  0.0276 -0.0600  0.1192
  900MOL0     C24068  10.530   4.620   4.636  0.3532 -0.5298 -0.0341
  900MOL0     C24069  10.413   4.634   4.561 -0.0782 -0.3082  0.2138
  900MOL0     O24070  10.416   4.669   4.432 -0.6353  0.5007 -0.2462
  900MOL0     C24071  10.537   4.753   4.397  0.4851 -0.1480 -0.8325
  900MOL0     C24072  10.477   4.825   4.276  0.1343  0.0768  0.4792
  900MOL0     C24073  10.531   4.961   4.243  0.0529  0.4791  1.0404
  900MOL0     C24074  10.636   4.963   4.129 -1.3356  0.0577  0.5680
  900MOL0     C24075  10.776   4.952   4.190  0.1025 -0.9103  0.8313
  900MOL0     C24076  10.872   4.922   4.081 -0.2255  0.4402  1.0519
  900MOL0     C24077  11.014   4.893   4.128  0.0868 -0.4363 -0.2371
  900MOL0     C24078  11.086   4.781   4.063  0.5700 -0.6620 -0.0535
  900MOL0     N24079  11.077   4.789   3.920 -0.0281 -0.2765  0.1518
  900MOL0     C24080  10.992   4.739   3.832  0.3531  0.1539 -0.5232
  900MOL0     C24081  11.020   4.797   3.715 -0.5157  0.4909  0.2116
  900MOL0     C24082  10.961   4.758   3.581 -0.5464  0.4778  0.0581
  900MOL0     C24083  10.882   4.876   3.527 -0.6951 -0.0921  0.1551
  900MOL0     C24084  10.776   4.947   3.628  0.3312  0.0163 -0.3770
  900MOL0     C24085  10.669   4.846   3.686  0.8325 -0.3040 -0.6062
  900MOL0     O24086  10.558   4.919   3.745 -0.0367 -0.2641  0.0298
  900MOL0     C24087  10.452   4.849   3.805  0.6606  0.1600 -0.7616
  900MOL0     C24088  10.370   4.925   3.882  0.6393 -0.0822  0.8141
  900MOL0     C24089  10.261   4.873   3.965 -0.1061  0.3993  0.3542
  900MOL0     C24090  10.183   4.979   4.038 -0.8767 -0.3426 -0.7669
  900MOL0     C24091  10.241   4.737   3.970 -0.4794  0.6532 -0.3673
  900MOL0     C24092  10.135   4.672   4.054  0.0778 -1.3449  0.4960
  900MOL0     O24093  10.157   4.544   4.075 -0.6330 -0.3745  0.7111
  900MOL0     C24094  10.061   4.491   4.158  0.3947  0.1160 -0.0753
  900MOL0     C24095   9.949   4.434   4.097 -0.6480 -0.6802  0.3782
  900MOL0     C24096   9.857   4.375   4.187  1.0398 -0.2750  0.5727
  900MOL0     C24097   9.871   4.368   4.328  0.0662  0.0148 -0.1917
  900MOL0     O24098   9.788   4.305   4.415  0.1642 -0.4058  0.6821
  900MOL0     C24099   9.648   4.307   4.378 -0.1218 -0.1448 -0.6570
  900MOL0     C24100   9.575   4.316   4.511 -0.0968  0.1385  0.8518
  900MOL0     C24101   9.424   4.356   4.501 -0.1737 -0.0940 -0.2518
  900MOL0     C24102   9.340   4.346   4.634 -0.4871 -0.6848  0.7708
  900MOL0     C24103   9.196   4.386   4.604 -0.3645  0.1800  0.6038
  900MOL0     C24104   9.110   4.269   4.556  0.0752 -0.2203  0.7104
  900MOL0     C24105   8.961   4.295   4.586 -0.9769 -0.4802 -0.0824
  900MOL0     C24106   8.868   4.213   4.498 -0.0445 -0.5168 -0.4849
  900MOL0    Cl24107   8.889   4.036   4.557 -0.0054 -0.2586 -0.1268
  900MOL0     C24108   9.980   4.441   4.380 -0.6313  0.7868 -0.5247
  900MOL0     C24109  10.069   4.499   4.297 -0.3556 -0.3600  0.2220
  900MOL0     O24110  10.033   4.735   4.084  0.4709 -0.2895  0.6283
  900MOL0     C24111  10.323   4.653   3.883 -0.1316 -0.9598 -0.6437
  900MOL0     C24112  10.415   4.715   3.800 -1.1376  0.9282  0.2464
  900MOL0     N24113  11.131   4.867   3.730 -0.3680  0.1277  0.0068
  900MOL0     N24114  11.151   4.883   3.858  0.0731 -0.2459 -0.0237
  900MOL0     C24115  10.302   4.584   4.617  0.4626  0.7321  0.4327
  900MOL0     C24116  10.292   4.533   4.749  0.1932  0.1266  0.2446
  900MOL0     C24117  10.429   4.408   5.176  0.5480 -0.4584 -0.2681
  900MOL0     C24118  10.472   4.469   5.295  0.3706  0.8867  0.8320
  900MOL0     C24119  10.464   4.408   5.419 -0.4403  0.3260  1.2215
  900MOL0     C24120  10.436   4.270   5.423 -0.7549 -0.2888  0.3324
  900MOL0     O24121  10.439   4.195   5.537 -0.1111 -0.2071  0.4108
  900MOL0     C24122  10.508   4.233   5.663 -0.3422  1.3436  1.2283
  900MOL0     C24123  10.426   4.279   5.777 -0.8157  0.1384 -0.4016
  900MOL0     C24124  10.310   4.196   5.824 -0.8256  0.5929  0.7438
  900MOL0     C24125  10.341   4.057   5.874 -0.4045  0.6215  0.4996
  900MOL0     C24126  10.370   3.959   5.762 -0.8159 -0.1928  0.0018
  900MOL0     C24127  10.395   3.894   5.666 -0.5226  0.6895 -0.0720
  900MOL0     C24128  10.386   4.205   5.308 -0.6364 -0.0357  0.0361
  900MOL0     C24129  10.395   4.270   5.183  0.3408  0.9765  0.0897
  900MOL0     C24130  10.355   4.187   5.060  0.4011 -0.6440 -0.5745
  900MOL0     H24131  10.625   4.557   4.817  0.5818  4.7382  0.7019
  900MOL0     H24132  10.627   4.636   4.591 -0.9759  2.2896 -2.2401
  900MOL0     H24133  10.620   4.691   4.360 -0.0350 -1.5790  0.3029
  900MOL0     H24134  10.559   4.819   4.481 -0.1792 -1.2834  0.2555
  900MOL0     H24135  10.485   4.754   4.193 -0.7422  1.0910 -0.4997
  900MOL0     H24136  10.371   4.848   4.289 -0.2038 -0.1086 -1.5240
  900MOL0     H24137  10.442   5.012   4.206 -2.6493 -4.9722 -1.1078
  900MOL0     H24138  10.559   5.003   4.340 -0.7557 -0.8867  1.9109
  900MOL0     H24139  10.610   4.902   4.042  2.0843 -0.4985 -0.2231
  900MOL0     H24140  10.639   5.060   4.078  1.7508 -0.6387 -0.7676
  900MOL0     H24141  10.787   4.858   4.245  1.4260 -1.9673 -1.1003
  900MOL0     H24142  10.806   5.038   4.250 -1.1719  1.5103 -1.7973
  900MOL0     H24143  10.830   4.832   4.035 -1.5984 -0.1258  3.2609
  900MOL0     H24144  10.868   5.000   4.004 -1.6430  0.5236  1.1924
  900MOL0     H24145  11.012   4.866   4.234  2.7107  0.5013  0.1181
  900MOL0     H24146  11.065   4.989   4.114 -1.4734 -0.0303 -4.4906
  900MOL0     H24147  11.192   4.783   4.087  0.1894  0.5120  1.8160
  900MOL0     H24148  11.055   4.680   4.093 -0.4090  0.4387  3.1067
  900MOL0     H24149  10.916   4.663   3.848  1.4889 -0.9976 -0.5072
  900MOL0     H24150  10.906   4.664   3.592 -2.2528  1.5897  1.6672
  900MOL0     H24151  11.037   4.744   3.503 -0.5720  0.8096 -0.0265
  900MOL0     H24152  10.949   4.954   3.491  1.5526 -2.4285 -1.0246
  900MOL0     H24153  10.835   4.836   3.436  0.3247 -0.3869 -0.2494
  900MOL0     H24154  10.825   4.994   3.714 -0.6343 -0.0819  0.2303
  900MOL0     H24155  10.719   5.025   3.576 -1.1744  0.1662  1.4127
  900MOL0     H24156  10.621   4.795   3.602  3.3992  2.7495 -4.3018
  900MOL0     H24157  10.706   4.773   3.758 -0.1786  1.2886  1.6546
  900MOL0     H24158  10.391   5.031   3.895  5.0435 -0.7851  0.6788
  900MOL0     H24159  10.096   5.015   3.982 -0.2930 -1.7348 -2.6822
  900MOL0     H24160  10.253   5.061   4.058  3.9045 -3.8927 -1.2081
  900MOL0     H24161  10.157   4.945   4.139  1.4295 -2.0998 -0.7000
  900MOL0     H24162   9.938   4.419   3.990  1.1643 -0.3784  0.1308
  900MOL0     H24163   9.782   4.314   4.138  1.1366  0.2906 -0.3051
  900MOL0     H24164   9.620   4.382   4.304 -0.6612  0.7905  0.4587
  900MOL0     H24165   9.629   4.210   4.331  0.0369 -0.5009 -0.0010
  900MOL0     H24166   9.582   4.224   4.570 -0.7685 -1.7880 -1.8935
  900MOL0     H24167   9.618   4.400   4.566 -3.6424  3.1999 -0.6392
  900MOL0     H24168   9.374   4.280   4.440 -1.7766 -0.8338  1.8526
  900MOL0     H24169   9.426   4.448   4.442  3.1652  0.3744  0.4162
  900MOL0     H24170   9.374   4.419   4.708 -0.6828 -1.8794  2.0731
  900MOL0     H24171   9.345   4.245   4.675  0.7011 -0.2928  1.6752
  900MOL0     H24172   9.160   4.443   4.690 -1.2629  2.8300 -1.3942
  900MOL0     H24173   9.187   4.457   4.521 -0.2916 -0.5904 -0.0733
  900MOL0     H24174   9.125   4.168   4.594 -1.3401 -0.7448 -0.0332
  900MOL0     H24175   9.124   4.261   4.448  0.2828 -2.8873  0.8846
  900MOL0     H24176   8.946   4.402   4.565  2.0635 -0.1196 -0.7902
  900MOL0     H24177   8.932   4.267   4.688 -2.0128 -0.4940 -0.3690
  900MOL0     H24178   8.880   4.235   4.392 -0.4721  1.5266 -0.1563
  900MOL0     H24179   8.770   4.247   4.532  0.9787  2.1494  0.0552
  900MOL0     H24180   9.987   4.456   4.488 -0.1804 -2.5513  0.0281
  900MOL0     H24181  10.151   4.552   4.345  2.2302 -0.8609 -3.2677
  900MOL0     H24182  10.299   4.547   3.872 -2.0906 -0.5045 -1.2069
  900MOL0     H24183  10.489   4.660   3.742  2.0341  3.3765  1.6650
  900MOL0     H24184  10.213   4.573   4.555 -0.8029 -0.0441  2.2924
  900MOL0     H24185  10.206   4.502   4.806 -0.6867  1.0396 -0.5450
  900MOL0     H24186  10.487   4.576   5.299  1.5765  0.8375 -1.1429
  900MOL0     H24187  10.496   4.473   5.500 -2.1759  1.0690  1.3593
  900MOL0     H24188  10.564   4.143   5.692 -2.9981 -0.8699 -0.0567
  900MOL0     H24189  10.577   4.315   5.638  0.6986  0.5848  1.5404
  900MOL0     H24190  10.374   4.373   5.758 -0.4600  0.6787  1.2009
  900MOL0     H24191  10.495   4.296   5.860  0.3797  0.1038 -1.3627
  900MOL0     H24192  10.259   4.247   5.907  1.1587 -0.9970  3.0615
  900MOL0     H24193  10.238   4.196   5.741  0.3008 -2.1687 -0.3673
  900MOL0     H24194  10.255   4.026   5.935 -0.8457 -1.5280 -1.0876
  900MOL0     H24195  10.433   4.048   5.932 -2.0639 -2.5006  2.9500
  900MOL0     H24196  10.418   3.844   5.574 -2.5894 -0.9478  0.2231
  900MOL0     H24197  10.352   4.102   5.317  2.6723 -1.1647  0.8523
  900MOL0     H24198  10.433   4.206   4.985 -1.6291  1.8633 -2.2345
  900MOL0     H24199  10.334   4.082   5.085  0.2999 -0.3522  0.6168
  900MOL0     H24200  10.259   4.224   5.021 -1.2504 -0.3762  3.2922
  901MOL0     O24201   3.494   4.649   3.831 -0.0255  0.8321 -0.3565
  901MOL0     C24202   3.585   4.646   3.749  0.3584 -0.4333 -0.0345
  901MOL0     O24203   3.570   4.628   3.612 -0.5193  0.3686 -0.4963
  901MOL0     C24204   3.472   4.681   3.535 -0.0967  0.9058 -0.5273
  901MOL0     C24205   3.379   4.774   3.584  0.2052 -1.1669 -0.2018
  901MOL0     C24206   3.278   4.816   3.499 -0.0140  0.0003  0.3165
  901MOL0     C24207   3.284   4.776   3.362  0.4867 -0.2354 -0.0325
  901MOL0     O24208   3.200   4.819   3.262  0.5589 -0.0461 -0.7820
  901MOL0     C24209   3.099   4.920   3.293  1.0712  0.6414  0.8464
  901MOL0     C24210   2.966   4.845   3.325  0.7995  0.7118 -0.5049
  901MOL0     C24211   2.868   4.931   3.402  0.2445 -0.7119  0.6885
  901MOL0     C24212   2.728   4.862   3.421 -0.3015  0.0739 -0.2934
  901MOL0     C24213   2.633   4.970   3.475  0.1058 -0.4867  0.0848
  901MOL0     C24214   2.499   4.926   3.524  0.4058 -0.5432 -0.6639
  901MOL0     C24215   2.528   4.842   3.656  0.2699  0.7203 -0.1340
  901MOL0     C24216   2.399   4.801   3.727 -0.2643 -1.4669  0.4031
  901MOL0     N24217   2.299   4.908   3.729 -0.5775  0.6945  0.6458
  901MOL0     C24218   2.273   4.992   3.825  0.0696 -0.3733  0.0393
  901MOL0     C24219   2.164   5.063   3.787 -0.0099  0.1829  0.2678
  901MOL0     C24220   2.106   5.183   3.866  0.1186  0.2138  0.7586
  901MOL0     C24221   2.189   5.312   3.845 -0.9372  0.1503  0.1378
  901MOL0     C24222   2.125   5.445   3.896 -0.2928  0.2270 -0.0442
  901MOL0     C24223   2.195   5.565   3.826  0.5907 -0.7243 -0.6565
  901MOL0     O24224   2.321   5.569   3.887  0.0274  0.1353  0.0193
  901MOL0     C24225   2.417   5.663   3.843 -0.6329 -0.4182  0.1775
  901MOL0     C24226   2.548   5.644   3.888 -0.4141 -0.7131  0.4606
  901MOL0     C24227   2.662   5.718   3.840  0.3520 -0.5748 -0.5894
  901MOL0     C24228   2.802   5.688   3.890 -0.1224  0.5826  0.4818
  901MOL0     C24229   2.630   5.830   3.760 -0.9279 -0.0218  0.2219
  901MOL0     C24230   2.731   5.920   3.720 -0.4564  0.4174  0.0095
  901MOL0     O24231   2.697   6.045   3.733 -0.1138  0.1858  0.2233
  901MOL0     C24232   2.769   6.156   3.699 -0.3879 -0.0536 -0.2569
  901MOL0     C24233   2.728   6.279   3.742  0.0823 -1.0702 -0.4107
  901MOL0     C24234   2.792   6.399   3.703  0.4081  0.5482  0.4094
  901MOL0     C24235   2.909   6.403   3.629  0.2884  0.1753 -0.1546
  901MOL0     O24236   2.974   6.524   3.601 -0.3803  0.7347 -0.1197
  901MOL0     C24237   3.111   6.515   3.592  0.3277 -0.3013 -0.5596
  901MOL0     C24238   3.171   6.649   3.621  0.5942 -0.1678  1.0232
  901MOL0     C24239   3.171   6.688   3.775 -0.0746 -0.1254  0.9080
  901MOL0     C24240   3.037   6.743   3.835 -0.2546 -0.8287  0.2263
  901MOL0     C24241   3.050   6.736   3.986  1.0495 -0.9418 -0.4271
  901MOL0     C24242   3.154   6.835   4.050 -0.2510 -0.7093  0.0059
  901MOL0     C24243   3.190   6.828   4.200  0.2437 -0.4292 -0.5999
  901MOL0     C24244   3.057   6.846   4.280 -0.2916 -0.5540  0.2645
  901MOL0    Cl24245   3.012   7.019   4.287  0.4999 -0.2202 -0.0786
  901MOL0     C24246   2.963   6.278   3.597  1.0809  0.5540 -0.6114
  901MOL0     C24247   2.894   6.153   3.637 -0.1597 -1.6063  0.5054
  901MOL0     O24248   2.840   5.878   3.678 -0.4793  0.1571 -0.5475
  901MOL0     C24249   2.494   5.867   3.724 -0.0010 -0.1278 -0.5822
  901MOL0     C24250   2.392   5.777   3.753  0.1995  0.0674 -0.1137
  901MOL0     N24251   2.135   5.021   3.656  1.2327  0.1337  0.1771
  901MOL0     N24252   2.218   4.923   3.626 -0.0836  0.1085  0.3671
  901MOL0     C24253   3.374   4.684   3.315 -0.0004  0.2303  0.7890
  901MOL0     C24254   3.465   4.633   3.406 -0.6097  0.3026  0.0999
  901MOL0     C24255   3.729   4.670   3.800  0.4440 -0.5753 -0.0216
  901MOL0     C24256   3.824   4.630   3.710 -0.2066  0.9671  0.1636
  901MOL0     C24257   3.958   4.645   3.742  0.1762  0.4761 -0.3756
  901MOL0     C24258   3.996   4.694   3.870 -0.1700 -0.2970  0.2502
  901MOL0     O24259   4.125   4.711   3.921 -0.3098 -0.1442  0.6842
  901MOL0     C24260   4.232   4.695   3.829  1.0535  1.1431  0.6931
  901MOL0     C24261   4.366   4.735   3.909  0.5312  0.6344 -0.0954
  901MOL0     C24262   4.509   4.731   3.844  0.0137 -0.1730 -0.0249
  901MOL0     C24263   4.513   4.802   3.717  0.6275  0.4231  0.1476
  901MOL0     C24264   4.488   4.709   3.600  0.9405 -0.2886  0.3117
  901MOL0     C24265   4.479   4.640   3.507 -0.3845 -0.5164  0.0910
  901MOL0     C24266   3.891   4.736   3.958  0.1022 -0.3207 -0.0698
  901MOL0     C24267   3.756   4.724   3.923  0.0972 -0.5980 -0.2005
  901MOL0     C24268   3.649   4.773   4.017 -0.0430  0.5303 -0.1490
  901MOL0     H24269   3.373   4.792   3.691 -0.7619 -1.8851 -0.1263
  901MOL0     H24270   3.206   4.887   3.539 -2.0101 -0.5097 -2.1179
  901MOL0     H24271   3.077   4.980   3.204 -0.1226  2.7227  2.4408
  901MOL0     H24272   3.135   4.983   3.375 -0.4168 -2.2713  3.9787
  901MOL0     H24273   2.937   4.810   3.226  1.1529 -0.0593 -0.3422
  901MOL0     H24274   2.992   4.762   3.391 -0.4491  1.0168  0.4076
  901MOL0     H24275   2.915   4.957   3.497  0.3858  4.1282 -0.4209
  901MOL0     H24276   2.849   5.021   3.342 -2.9914 -0.4273  1.9316
  901MOL0     H24277   2.696   4.813   3.328  2.3508 -4.2061  0.7521
  901MOL0     H24278   2.752   4.784   3.494  1.2405  1.5374  0.8415
  901MOL0     H24279   2.609   5.042   3.396  1.9872 -1.9242 -1.9135
  901MOL0     H24280   2.685   5.027   3.553  0.7385 -0.4284 -0.3769
  901MOL0     H24281   2.454   5.019   3.560 -0.2547 -2.1508  3.1804
  901MOL0     H24282   2.446   4.866   3.449 -1.3307  0.3087 -0.1597
  901MOL0     H24283   2.586   4.910   3.718  0.6060  0.9931 -0.7314
  901MOL0     H24284   2.597   4.758   3.642 -0.3704 -0.0473  1.1261
  901MOL0     H24285   2.347   4.730   3.663  1.4818 -1.2139 -1.4170
  901MOL0     H24286   2.402   4.758   3.827 -0.8711 -1.7957  0.2826
  901MOL0     H24287   2.333   5.013   3.913  1.6053  2.7113 -1.6009
  901MOL0     H24288   2.094   5.145   3.968  2.1372 -1.7721  0.3257
  901MOL0     H24289   2.006   5.201   3.824  1.8610  1.9703 -3.2358
  901MOL0     H24290   2.284   5.294   3.895 -1.7453  0.6019  1.9501
  901MOL0     H24291   2.205   5.312   3.737  2.2860 -0.7406  0.5365
  901MOL0     H24292   2.019   5.439   3.869 -0.0403 -1.5677 -0.7725
  901MOL0     H24293   2.130   5.458   4.004 -1.4046  0.7224 -0.0393
  901MOL0     H24294   2.199   5.566   3.717 -0.1606  1.5005 -0.7087
  901MOL0     H24295   2.140   5.658   3.843  3.5478  0.6463  2.9006
  901MOL0     H24296   2.548   5.579   3.974 -1.8631 -0.1982  0.8817
  901MOL0     H24297   2.798   5.612   3.969 -1.5366  0.1555  0.0358
  901MOL0     H24298   2.842   5.778   3.939  0.1475  0.0355  1.2932
  901MOL0     H24299   2.877   5.655   3.818 -0.8854  0.7892 -0.4237
  901MOL0     H24300   2.637   6.285   3.802  2.3074  2.7207  3.1001
  901MOL0     H24301   2.755   6.490   3.749 -1.9550 -0.1501 -0.0032
  901MOL0     H24302   3.142   6.443   3.668 -1.4978  1.2212  1.7724
  901MOL0     H24303   3.118   6.488   3.486 -0.6301 -0.1095 -0.6773
  901MOL0     H24304   3.275   6.637   3.588 -0.2486 -1.8939 -1.1943
  901MOL0     H24305   3.117   6.724   3.563  1.8490  0.1276  0.1948
  901MOL0     H24306   3.243   6.769   3.786 -1.7308  1.8710 -1.8523
  901MOL0     H24307   3.202   6.592   3.817 -2.2188 -1.0521  0.5448
  901MOL0     H24308   2.951   6.688   3.796 -1.7558  2.7144 -1.8377
  901MOL0     H24309   3.019   6.844   3.800 -2.1071  0.0156  3.2121
  901MOL0     H24310   2.950   6.764   4.022  2.0023  1.9816  0.2575
  901MOL0     H24311   3.072   6.634   4.017 -2.5421 -2.1533 -1.3513
  901MOL0     H24312   3.124   6.940   4.040  0.8222 -0.2347  1.4314
  901MOL0     H24313   3.254   6.842   4.006 -0.2621  1.6515  0.2312
  901MOL0     H24314   3.269   6.899   4.225 -1.5610  1.4026  0.2030
  901MOL0     H24315   3.228   6.730   4.231 -2.1152 -0.8120  1.4473
  901MOL0     H24316   3.078   6.808   4.380 -1.6372 -2.6874 -0.2183
  901MOL0     H24317   2.979   6.791   4.227  0.7520 -1.4354 -0.3963
  901MOL0     H24318   3.062   6.260   3.555  0.9017  2.5199 -2.0374
  901MOL0     H24319   2.937   6.059   3.604  0.0888 -1.3002 -0.0580
  901MOL0     H24320   2.481   5.968   3.685  0.6978  1.6672  3.3845
  901MOL0     H24321   2.286   5.794   3.735  0.1099 -0.8414 -0.5251
  901MOL0     H24322   3.377   4.659   3.209  2.2636  0.3392  0.7935
  901MOL0     H24323   3.536   4.558   3.374 -1.9436  0.2444 -3.1057
  901MOL0     H24324   3.792   4.569   3.626  0.8578 -0.9884  1.1067
  901MOL0     H24325   4.034   4.612   3.671 -2.5819  0.1992 -3.4224
  901MOL0     H24326   4.259   4.592   3.802 -0.3704  1.0893 -0.6913
  901MOL0     H24327   4.204   4.739   3.733  0.7294 -1.2216 -0.3667
  901MOL0     H24328   4.360   4.680   4.003 -4.4907 -0.5486 -0.8295
  901MOL0     H24329   4.357   4.840   3.938 -3.2860  0.3415  0.2740
  901MOL0     H24330   4.584   4.772   3.913  0.3421 -0.3264 -0.2900
  901MOL0     H24331   4.544   4.628   3.832  0.1026 -0.1945  0.4005
  901MOL0     H24332   4.608   4.853   3.700  1.5727 -0.5533  2.1502
  901MOL0     H24333   4.436   4.880   3.712  0.7456  0.4776 -1.2595
  901MOL0     H24334   4.464   4.587   3.414 -1.9756 -1.3048  0.7715
  901MOL0     H24335   3.930   4.779   4.049 -1.5805 -0.2153  0.6260
  901MOL0     H24336   3.575   4.833   3.964 -2.3387 -1.3738  0.7634
  901MOL0     H24337   3.599   4.685   4.057 -0.8831  0.5462 -1.1485
  901MOL0     H24338   3.685   4.833   4.102 -3.4869  1.6169  0.7103
  902MOL0     O24339   7.370   5.496   4.757  0.1925  0.8175 -0.3318
  902MOL0     C24340   7.412   5.479   4.873 -0.8763  0.1670 -0.5851
  902MOL0     O24341   7.532   5.411   4.902  0.3296  0.1866 -0.1857
  902MOL0     C24342   7.588   5.321   4.821 -0.8549  0.4539 -0.7920
  902MOL0     C24343   7.523   5.256   4.712  0.1710  0.3817  0.2700
  902MOL0     C24344   7.574   5.147   4.643 -0.0451  0.5653 -0.0147
  902MOL0     C24345   7.702   5.102   4.667  0.1411 -0.7058 -0.4426
  902MOL0     O24346   7.763   5.007   4.596 -0.3404 -0.0603  0.0603
  902MOL0     C24347   7.694   4.879   4.595 -0.2783 -0.4220 -0.3504
  902MOL0     C24348   7.761   4.787   4.480  0.9371 -0.0889  0.1681
  902MOL0     C24349   7.908   4.806   4.466  0.5282  0.4439  0.3029
  902MOL0     C24350   7.947   4.726   4.343  0.5390  0.4704 -0.7849
  902MOL0     C24351   8.086   4.764   4.300  0.3186 -1.5104 -0.4334
  902MOL0     C24352   8.140   4.677   4.183  0.8598  0.1307  0.1527
  902MOL0     C24353   8.165   4.526   4.210  0.6886  0.7407 -0.6596
  902MOL0     C24354   8.044   4.440   4.169 -0.2493 -0.2667 -0.5697
  902MOL0     N24355   8.029   4.439   4.028  0.1049 -1.2780  0.5987
  902MOL0     C24356   8.094   4.369   3.930 -0.1313  0.0229  0.0986
  902MOL0     C24357   8.030   4.386   3.812  1.5091 -0.3442 -0.2728
  902MOL0     C24358   8.062   4.337   3.668 -0.1807  0.0919 -0.3067
  902MOL0     C24359   8.190   4.377   3.614 -0.3089  0.1175  0.6026
  902MOL0     C24360   8.234   4.284   3.503 -0.1734  0.1478  0.3144
  902MOL0     C24361   8.350   4.345   3.417 -0.5578  0.4479 -0.7101
  902MOL0     O24362   8.463   4.380   3.501  0.0996 -0.4684 -0.0391
  902MOL0     C24363   8.573   4.427   3.434 -0.2764 -1.7153  0.2866
  902MOL0     C24364   8.693   4.417   3.505  0.3356  0.9849 -0.2102
  902MOL0     C24365   8.821   4.433   3.452 -0.7909 -0.1055  0.1941
  902MOL0     C24366   8.940   4.411   3.544 -0.0418 -0.3040 -1.1036
  902MOL0     C24367   8.833   4.464   3.311 -0.8334  0.1968  0.1827
  902MOL0     C24368   8.956   4.451   3.230 -0.4112  0.4004 -0.3201
  902MOL0     O24369   8.959   4.515   3.112 -0.0098 -0.2546 -0.1848
  902MOL0     C24370   9.056   4.484   3.014 -0.0114 -0.3759  0.0446
  902MOL0     C24371   9.151   4.581   2.968  0.0613 -0.2839  0.3331
  902MOL0     C24372   9.251   4.534   2.882  0.7027  0.0759  0.7082
  902MOL0     C24373   9.272   4.396   2.846  0.2926 -0.2719 -0.9215
  902MOL0     O24374   9.390   4.346   2.799 -0.0709  0.1278 -0.2770
  902MOL0     C24375   9.478   4.439   2.737 -0.2292 -0.4364  0.5811
  902MOL0     C24376   9.596   4.365   2.680 -0.7861  0.1430 -0.4565
  902MOL0     C24377   9.700   4.447   2.606 -0.3090 -0.6023 -0.1848
  902MOL0     C24378   9.841   4.375   2.618  0.3965 -0.4223 -0.1394
  902MOL0     C24379   9.954   4.477   2.606  0.1282 -0.0584 -0.4514
  902MOL0     C24380  10.092   4.406   2.618 -0.8276 -0.2616  1.1689
  902MOL0     C24381  10.203   4.499   2.585  0.0315 -0.1926  0.7254
  902MOL0     C24382  10.229   4.513   2.431 -1.1325 -0.3074  0.4815
  902MOL0    Cl24383  10.328   4.659   2.380  0.0868  0.3626  0.3359
  902MOL0     C24384   9.190   4.308   2.908 -0.0257  0.0496  0.2784
  902MOL0     C24385   9.074   4.354   2.978 -0.9877 -0.8433 -0.1116
  902MOL0     O24386   9.054   4.387   3.270 -0.2714  0.2714 -0.0672
  902MOL0     C24387   8.708   4.487   3.239 -0.3277  0.1069  0.4433
  902MOL0     C24388   8.584   4.466   3.306 -0.0497 -0.5751 -0.2208
  902MOL0     N24389   7.932   4.475   3.844  0.1770  0.3037  0.0269
  902MOL0     N24390   7.935   4.513   3.963 -0.8776 -0.4694 -0.2759
  902MOL0     C24391   7.772   5.172   4.756 -0.5834 -0.9608 -0.4842
  902MOL0     C24392   7.715   5.275   4.838 -0.1776  0.1704  0.3193
  902MOL0     C24393   7.335   5.521   4.991  0.0834  0.0304 -1.0910
  902MOL0     C24394   7.368   5.459   5.109 -0.1666 -0.5900 -0.5513
  902MOL0     C24395   7.301   5.490   5.225  0.5385 -0.5137  0.5063
  902MOL0     C24396   7.193   5.577   5.218  0.2140 -0.0843  0.6631
  902MOL0     O24397   7.117   5.614   5.330 -0.3467  0.0410  0.6586
  902MOL0     C24398   7.135   5.554   5.460 -0.3258  0.4897 -0.2408
  902MOL0     C24399   7.046   5.605   5.579 -0.4206  0.5906 -0.8607
  902MOL0     C24400   6.916   5.535   5.604  0.1170 -0.0081  0.2498
  902MOL0     C24401   6.849   5.565   5.745 -0.8060  0.0141 -0.2858
  902MOL0     C24402   6.933   5.498   5.846 -0.2191  0.6347  0.2861
  902MOL0     C24403   7.001   5.442   5.930  1.0768  0.5863 -0.2843
  902MOL0     C24404   7.172   5.652   5.105  0.0442 -0.2583 -0.6614
  902MOL0     C24405   7.241   5.629   4.989  0.2839  0.8194  0.8541
  902MOL0     C24406   7.210   5.708   4.868  1.2289  0.1279  0.1408
  902MOL0     H24407   7.419   5.280   4.691  0.7125  0.5605 -2.7217
  902MOL0     H24408   7.509   5.098   4.571  1.7366 -1.3012 -0.4310
  902MOL0     H24409   7.589   4.893   4.568 -0.3972  1.5284  0.8924
  902MOL0     H24410   7.704   4.835   4.695 -1.0530  0.5616  0.1918
  902MOL0     H24411   7.740   4.684   4.509 -1.4400  0.4109  0.4176
  902MOL0     H24412   7.702   4.800   4.389  3.2638  2.3790 -1.1323
  902MOL0     H24413   7.931   4.913   4.456  0.5521  0.7443  2.9748
  902MOL0     H24414   7.967   4.764   4.548 -0.8748  1.5176  1.9193
  902MOL0     H24415   7.921   4.623   4.367 -1.9526  1.3963  0.9280
  902MOL0     H24416   7.884   4.747   4.256  1.1410  1.7458 -0.9348
  902MOL0     H24417   8.149   4.753   4.388 -0.6183  0.0373  0.4728
  902MOL0     H24418   8.078   4.870   4.271 -1.3900 -1.6389 -0.5279
  902MOL0     H24419   8.075   4.695   4.097  1.6264  3.7135  0.1403
  902MOL0     H24420   8.241   4.707   4.153  0.9442 -0.5371 -0.2687
  902MOL0     H24421   8.191   4.488   4.309  0.4921 -1.7516 -1.4765
  902MOL0     H24422   8.243   4.495   4.141  1.4204  3.8015 -1.3413
  902MOL0     H24423   8.056   4.339   4.207 -0.2111  0.6100  1.9247
  902MOL0     H24424   7.955   4.483   4.217  0.4322  3.0939 -1.9935
  902MOL0     H24425   8.175   4.298   3.942 -1.6544 -1.9120 -0.5336
  902MOL0     H24426   7.982   4.371   3.601 -0.1162  2.0116  0.5329
  902MOL0     H24427   8.057   4.228   3.668 -0.4039  0.1004 -0.5116
  902MOL0     H24428   8.194   4.480   3.576  1.8685 -0.3352 -0.5644
  902MOL0     H24429   8.277   4.367   3.680  1.1692  0.0792 -1.2723
  902MOL0     H24430   8.263   4.194   3.557  0.5588 -0.1334 -0.5407
  902MOL0     H24431   8.154   4.268   3.430 -0.2659  1.6117  0.0580
  902MOL0     H24432   8.387   4.277   3.340 -2.7934  0.9457 -2.3131
  902MOL0     H24433   8.312   4.430   3.360  1.1771 -0.6922 -3.7912
  902MOL0     H24434   8.687   4.408   3.613  0.3341 -0.8675 -0.3378
  902MOL0     H24435   8.920   4.313   3.587 -1.9454  1.1292  1.5436
  902MOL0     H24436   8.923   4.481   3.626 -4.2789 -0.2261 -1.8047
  902MOL0     H24437   9.040   4.420   3.501  0.0619  0.2743 -0.7574
  902MOL0     H24438   9.127   4.686   2.981  0.1350 -0.1413 -0.6413
  902MOL0     H24439   9.330   4.601   2.850  0.8620  1.0403  2.9039
  902MOL0     H24440   9.429   4.498   2.659 -0.1029 -0.5122  0.4430
  902MOL0     H24441   9.514   4.507   2.814  0.1610  1.2099 -1.0053
  902MOL0     H24442   9.651   4.307   2.755 -0.4192 -0.5862 -1.2640
  902MOL0     H24443   9.552   4.298   2.605  2.0028  0.5823 -2.6673
  902MOL0     H24444   9.699   4.543   2.658 -0.2405 -0.3644 -0.6177
  902MOL0     H24445   9.669   4.458   2.502  0.9433 -2.4935 -0.7984
  902MOL0     H24446   9.846   4.306   2.534 -0.3372 -1.5854  0.7432
  902MOL0     H24447   9.856   4.307   2.703  3.5407  0.4186  0.1041
  902MOL0     H24448   9.970   4.522   2.507  0.5025 -0.1786 -0.4488
  902MOL0     H24449   9.939   4.560   2.676 -0.9324 -2.2176  2.0320
  902MOL0     H24450  10.085   4.326   2.544  2.1009  0.9661 -0.5826
  902MOL0     H24451  10.103   4.380   2.724 -0.9435  0.3832  1.3421
  902MOL0     H24452  10.295   4.471   2.637  0.0308  1.6028  1.7979
  902MOL0     H24453  10.178   4.603   2.609  2.4968  0.3285  1.3446
  902MOL0     H24454  10.134   4.511   2.376  0.0065 -0.3329 -1.5854
  902MOL0     H24455  10.290   4.430   2.393 -1.6968  0.2108 -1.7252
  902MOL0     H24456   9.196   4.201   2.890 -0.5113  0.0324  0.2018
  902MOL0     H24457   9.013   4.273   3.019 -0.9020 -1.6293 -1.5024
  902MOL0     H24458   8.698   4.520   3.136 -4.1367  0.1048  0.6958
  902MOL0     H24459   8.499   4.473   3.239  1.1016 -0.5469 -1.7363
  902MOL0     H24460   7.876   5.146   4.778 -0.8998 -2.3332 -0.5152
  902MOL0     H24461   7.768   5.309   4.926  0.8559 -1.5847  0.4268
  902MOL0     H24462   7.462   5.404   5.113  0.3414  0.1797 -1.3717
  902MOL0     H24463   7.340   5.444   5.314 -0.9115 -0.8472  0.9990
  902MOL0     H24464   7.123   5.445   5.454 -0.7592  0.1485  3.7406
  902MOL0     H24465   7.234   5.586   5.493 -0.3149  2.8794 -2.3695
  902MOL0     H24466   7.043   5.713   5.565 -0.3636  0.8402  0.8112
  902MOL0     H24467   7.109   5.585   5.666 -0.9622 -0.5254 -0.7014
  902MOL0     H24468   6.840   5.573   5.535  1.7103 -0.9681 -2.1832
  902MOL0     H24469   6.911   5.430   5.571 -3.0310  1.0004 -3.1649
  902MOL0     H24470   6.753   5.512   5.742 -1.0924  0.5099 -0.0922
  902MOL0     H24471   6.828   5.672   5.757 -1.9606 -0.3539  1.3883
  902MOL0     H24472   7.068   5.396   6.000  0.7376 -1.7901 -1.3940
  902MOL0     H24473   7.078   5.705   5.104 -0.2988 -0.7308  1.5065
  902MOL0     H24474   7.122   5.680   4.810  0.1866  1.2627  1.1310
  902MOL0     H24475   7.189   5.810   4.902  2.6229  1.4096 -2.4922
  902MOL0     H24476   7.300   5.710   4.805  0.8517 -1.7362 -0.4979
  903MOL0     O24477   9.722   0.757  10.552  0.1405  0.0440  0.3013
  903MOL0     C24478   9.745   0.831  10.645  0.0280 -0.1418  0.3891
  903MOL0     O24479   9.751   0.788  10.776 -0.6582  0.0880 -1.1361
  903MOL0     C24480   9.792   0.660  10.799  0.0828  0.0417 -0.3241
  903MOL0     C24481   9.724   0.604  10.915  1.3771 -0.2052  0.0641
  903MOL0     C24482   9.752   0.471  10.955 -0.6512 -0.2925  0.0741
  903MOL0     C24483   9.859   0.400  10.891  0.0584 -0.0213 -0.3518
  903MOL0     O24484   9.898   0.281  10.946  0.1459  0.0702  0.1751
  903MOL0     C24485  10.008   0.200  10.882 -0.3879 -0.2164  0.3695
  903MOL0     C24486   9.994   0.064  10.947 -0.1391  0.2834  0.3681
  903MOL0     C24487  10.120  -0.016  10.947 -0.2047 -0.9166  0.4176
  903MOL0     C24488  10.231   0.031  11.040 -0.6676  0.3213  0.3372
  903MOL0     C24489  10.345  -0.071  11.039  0.3049 -0.9473  0.6919
  903MOL0     C24490  10.462  -0.013  11.119 -0.3624  0.5741 -0.7856
  903MOL0     C24491  10.433  -0.008  11.277 -0.0727  0.4727  0.0426
  903MOL0     C24492  10.566   0.040  11.334  0.3082 -0.5002  0.1262
  903MOL0     N24493  10.575   0.065  11.482 -0.4844  0.6598 -0.9228
  903MOL0     C24494  10.474   0.090  11.575 -0.3383  0.3217  0.5342
  903MOL0     C24495  10.540   0.125  11.681 -0.1806  0.6251 -0.1354
  903MOL0     C24496  10.455   0.164  11.802 -0.1742 -0.9677 -0.2625
  903MOL0     C24497  10.525   0.286  11.860  0.0818 -0.0216  0.0439
  903MOL0     C24498  10.502   0.421  11.796 -0.2614  0.2385 -0.6910
  903MOL0     C24499  10.362   0.481  11.841  0.6798 -0.1585 -0.7065
  903MOL0     O24500  10.247   0.421  11.776  0.1514  0.4682  0.4954
  903MOL0     C24501  10.126   0.432  11.838 -0.2552 -1.3799  0.4095
  903MOL0     C24502  10.108   0.471  11.971 -0.5981 -0.5253  0.8399
  903MOL0     C24503   9.977   0.473  12.033 -0.8516 -0.1405 -0.1780
  903MOL0     C24504   9.981   0.528  12.175 -0.4193 -0.1958 -0.0532
  903MOL0     C24505   9.867   0.437  11.952 -0.4328 -0.8005  0.2661
  903MOL0     C24506   9.727   0.462  11.981  0.4305 -0.7032 -0.2253
  903MOL0     O24507   9.638   0.402  11.893 -0.6689  0.2076 -0.3032
  903MOL0     C24508   9.506   0.425  11.897  0.5069  0.0918 -1.3057
  903MOL0     C24509   9.436   0.381  12.019  0.9557  0.7892  0.1870
  903MOL0     C24510   9.300   0.422  12.043 -0.4405 -0.8701  0.0617
  903MOL0     C24511   9.233   0.499  11.939  0.8807 -0.5647 -0.4795
  903MOL0     O24512   9.104   0.536  11.945  0.6527  0.4946  0.0558
  903MOL0     C24513   9.082   0.630  12.053 -0.4738 -0.0798  0.3524
  903MOL0     C24514   8.950   0.685  12.033  0.0950 -0.1202 -0.1293
  903MOL0     C24515   8.884   0.684  11.891 -0.8862  0.1300 -0.6399
  903MOL0     C24516   8.758   0.779  11.895 -0.3797  0.1004  1.4239
  903MOL0     C24517   8.719   0.815  11.752 -0.3479 -0.0562 -0.9982
  903MOL0     C24518   8.577   0.879  11.744  0.1733  1.3153  0.3860
  903MOL0     C24519   8.563   1.015  11.819 -0.4477  0.5844 -0.3370
  903MOL0     C24520   8.421   1.064  11.814  0.3345 -0.4464 -0.1392
  903MOL0    Cl24521   8.403   1.215  11.927  0.6740  0.2171 -0.3908
  903MOL0     C24522   9.298   0.526  11.819  0.3138 -0.4561  0.1703
  903MOL0     C24523   9.435   0.496  11.807  0.8724 -0.7542 -0.2513
  903MOL0     O24524   9.696   0.535  12.080 -0.3159 -0.1453  0.4152
  903MOL0     C24525   9.899   0.374  11.826 -0.1363  0.5131 -0.6938
  903MOL0     C24526  10.027   0.376  11.762 -0.4317  0.1006 -0.1974
  903MOL0     N24527  10.674   0.110  11.670  0.5855 -0.2083  0.6530
  903MOL0     N24528  10.693   0.070  11.553  0.2477  0.5926  0.6859
  903MOL0     C24529   9.943   0.464  10.795  0.6786 -0.2192  0.0321
  903MOL0     C24530   9.908   0.591  10.743  0.6245 -0.7963  0.0241
  903MOL0     C24531   9.745   0.980  10.625 -0.0300 -0.0058 -0.2066
  903MOL0     C24532   9.824   1.060  10.712 -0.1103  0.0743  0.4597
  903MOL0     C24533   9.841   1.198  10.690  0.2003 -0.5173  0.3375
  903MOL0     C24534   9.780   1.256  10.587 -0.3472  0.6032  0.6348
  903MOL0     O24535   9.792   1.386  10.549  0.2530  0.0021  0.8538
  903MOL0     C24536   9.892   1.474  10.601  0.1809  0.4292  0.3834
  903MOL0     C24537   9.857   1.620  10.582  0.3306  0.1382 -0.3521
  903MOL0     C24538   9.770   1.640  10.463  0.6739  0.7525  0.7492
  903MOL0     C24539   9.840   1.602  10.328 -0.1667  0.7692 -0.2576
  903MOL0     C24540   9.789   1.700  10.228 -0.6109 -0.6041 -0.0696
  903MOL0     C24541   9.738   1.764  10.140 -0.5295  0.6974  0.9586
  903MOL0     C24542   9.693   1.181  10.510 -0.0461 -0.5288  0.0177
  903MOL0     C24543   9.671   1.050  10.528  1.0039  0.6633 -1.0102
  903MOL0     C24544   9.577   0.982  10.428  0.3489  0.7911 -0.8645
  903MOL0     H24545   9.638   0.652  10.959  1.0352  0.2196 -1.0457
  903MOL0     H24546   9.690   0.421  11.029 -0.9346 -2.9913 -1.8402
  903MOL0     H24547  10.110   0.237  10.892  1.7796 -5.3116  0.3067
  903MOL0     H24548   9.994   0.179  10.775  1.9013 -4.1458  0.6635
  903MOL0     H24549   9.971   0.069  11.054 -1.2007  0.3118  0.1486
  903MOL0     H24550   9.918   0.005  10.894 -1.1769  0.6416  1.4182
  903MOL0     H24551  10.094  -0.111  10.995 -2.3813 -0.8141 -0.4552
  903MOL0     H24552  10.164  -0.016  10.847  0.9436  0.0766  0.9029
  903MOL0     H24553  10.265   0.126  10.997  1.7092 -0.9930 -0.9531
  903MOL0     H24554  10.188   0.028  11.140 -0.5239 -2.7719  0.3906
  903MOL0     H24555  10.368  -0.090  10.933 -2.2377  0.9410 -0.2897
  903MOL0     H24556  10.322  -0.166  11.088  0.2987 -2.3887 -1.8862
  903MOL0     H24557  10.539  -0.091  11.109  2.2137  2.4202  2.5918
  903MOL0     H24558  10.493   0.083  11.079  0.1156 -0.1231 -2.1397
  903MOL0     H24559  10.419  -0.105  11.325  1.5279  1.1613  2.0887
  903MOL0     H24560  10.349   0.054  11.309 -0.0328 -0.1184  1.3611
  903MOL0     H24561  10.647  -0.029  11.309 -0.4324 -1.6456  0.8012
  903MOL0     H24562  10.594   0.139  11.296  1.7546 -1.1456 -0.5749
  903MOL0     H24563  10.372   0.057  11.558  0.1642 -0.5590 -0.9537
  903MOL0     H24564  10.460   0.079  11.870 -2.1351 -0.4955  0.5225
  903MOL0     H24565  10.351   0.195  11.791 -0.0518 -0.4045  0.1236
  903MOL0     H24566  10.488   0.283  11.964 -2.7276  1.2181 -0.8207
  903MOL0     H24567  10.634   0.278  11.863  0.3268  1.8615 -1.9571
  903MOL0     H24568  10.580   0.483  11.841  1.1784 -3.2201  2.0301
  903MOL0     H24569  10.507   0.426  11.686 -2.3265  1.8115 -0.7943
  903MOL0     H24570  10.364   0.471  11.950  1.1176  4.3298 -0.0852
  903MOL0     H24571  10.361   0.591  11.839 -2.0404 -0.1270 -1.8367
  903MOL0     H24572  10.185   0.525  12.024 -0.7911  1.1070 -0.4465
  903MOL0     H24573   9.993   0.636  12.168  0.9116 -0.0918  2.5473
  903MOL0     H24574  10.068   0.490  12.229 -0.9566 -1.7471 -0.2324
  903MOL0     H24575   9.890   0.510  12.234  0.9823  2.8941  3.4053
  903MOL0     H24576   9.488   0.337  12.104  0.4211  1.5663  0.9270
  903MOL0     H24577   9.249   0.394  12.135 -0.4669  0.1425  0.3604
  903MOL0     H24578   9.098   0.590  12.154 -0.0622  0.1692  0.3855
  903MOL0     H24579   9.152   0.711  12.031 -0.7616  0.1097  0.1296
  903MOL0     H24580   8.885   0.621  12.093  0.6072 -0.0008  0.5732
  903MOL0     H24581   8.948   0.786  12.075 -0.7495 -1.6220  3.8875
  903MOL0     H24582   8.842   0.585  11.872  0.6418 -0.6576 -0.0716
  903MOL0     H24583   8.957   0.706  11.812  0.2328 -0.4991  0.1933
  903MOL0     H24584   8.780   0.872  11.948  2.0116 -0.7516  2.0816
  903MOL0     H24585   8.670   0.731  11.936 -1.4770  2.5441  2.0866
  903MOL0     H24586   8.794   0.880  11.706  2.3526 -1.5163  1.0018
  903MOL0     H24587   8.715   0.729  11.685  1.7682 -0.3536 -0.8184
  903MOL0     H24588   8.518   0.801  11.793  1.4301  0.0380 -0.0582
  903MOL0     H24589   8.543   0.884  11.640  0.6439  1.4054  0.2313
  903MOL0     H24590   8.625   1.091  11.770 -1.8335  2.0439  0.1177
  903MOL0     H24591   8.592   1.000  11.924  1.1919 -2.5996 -1.1111
  903MOL0     H24592   8.360   0.985  11.859 -1.1593  1.1691  0.7647
  903MOL0     H24593   8.388   1.087  11.712 -0.4932  0.3434  0.2923
  903MOL0     H24594   9.245   0.577  11.738 -0.5554 -1.3725  0.1449
  903MOL0     H24595   9.485   0.542  11.722 -0.1096 -0.7133 -0.8219
  903MOL0     H24596   9.821   0.316  11.777  1.4584  0.7016 -3.6438
  903MOL0     H24597  10.058   0.313  11.679 -2.5341 -1.1451 -0.1066
  903MOL0     H24598  10.024   0.405  10.754  1.6313 -0.5176  2.1828
  903MOL0     H24599   9.960   0.638  10.660  0.3261 -1.4217 -0.5296
  903MOL0     H24600   9.864   1.029  10.808  3.1147  1.3583 -0.3497
  903MOL0     H24601   9.914   1.250  10.751  1.2389 -0.4646 -0.9097
  903MOL0     H24602   9.911   1.457  10.708  1.5544  0.8697  0.2377
  903MOL0     H24603   9.982   1.453  10.542 -1.1852 -1.5651 -1.1187
  903MOL0     H24604   9.946   1.684  10.578  1.3315 -1.2249 -1.0227
  903MOL0     H24605   9.798   1.640  10.672  0.8812  0.8965 -0.1495
  903MOL0     H24606   9.675   1.586  10.461  1.1769 -0.1669 -1.9522
  903MOL0     H24607   9.752   1.748  10.469  2.2005  1.0276  0.7334
  903MOL0     H24608   9.822   1.496  10.307 -1.4831  0.9533 -0.1807
  903MOL0     H24609   9.948   1.612  10.337 -0.1936 -0.2320  1.5568
  903MOL0     H24610   9.706   1.820  10.054  0.4402  0.3050  0.3292
  903MOL0     H24611   9.635   1.243  10.443  2.9727 -1.0345 -3.3844
  903MOL0     H24612   9.540   1.059  10.359 -2.8634 -0.3264 -0.5655
  903MOL0     H24613   9.615   0.891  10.380 -2.6331 -2.0105  1.6348
  903MOL0     H24614   9.487   0.956  10.484  1.3676  2.2134  1.6006
  904MOL0     O24615  10.061   2.817   3.295  0.2006  0.4813 -0.1684
  904MOL0     C24616   9.965   2.865   3.355  0.0176  0.5622  1.1400
  904MOL0     O24617   9.965   2.955   3.456 -0.1714  0.0381  0.5866
  904MOL0     C24618  10.084   3.017   3.500  0.1392 -0.2867 -0.0038
  904MOL0     C24619  10.207   2.954   3.534  0.2158  0.1869  0.4897
  904MOL0     C24620  10.317   3.008   3.585 -0.4507 -0.7835 -0.4187
  904MOL0     C24621  10.319   3.147   3.614 -0.0330 -0.1555  0.7347
  904MOL0     O24622  10.431   3.214   3.652  0.2006  0.0222 -0.6285
  904MOL0     C24623  10.555   3.141   3.675 -0.0919 -0.3560 -0.2279
  904MOL0     C24624  10.663   3.243   3.717  0.1168  0.1457 -0.2667
  904MOL0     C24625  10.642   3.296   3.857  0.4925 -0.1345 -0.2559
  904MOL0     C24626  10.752   3.395   3.889 -0.1013 -0.3420 -0.2046
  904MOL0     C24627  10.729   3.461   4.021 -0.4473  0.4118 -1.0270
  904MOL0     C24628  10.854   3.460   4.107  0.3000 -0.9109 -0.1330
  904MOL0     C24629  10.969   3.549   4.046  0.2215 -0.3580  0.0442
  904MOL0     C24630  11.062   3.591   4.155 -0.1410  0.8473 -0.7679
  904MOL0     N24631  11.176   3.629   4.074 -0.5475  0.2412  0.3124
  904MOL0     C24632  11.187   3.754   4.013 -0.4738  0.2932  0.4111
  904MOL0     C24633  11.270   3.726   3.908  0.4555  0.7737  0.0192
  904MOL0     C24634  11.300   3.839   3.820  0.0840  0.9113  0.1770
  904MOL0     C24635  11.442   3.896   3.865  0.4983  0.3493  0.6392
  904MOL0     C24636  11.447   4.007   3.971  0.4168  0.1733 -0.2643
  904MOL0     C24637  11.589   4.053   3.990 -0.2783 -0.3907  0.7372
  904MOL0     O24638  11.651   4.094   3.865  0.2730 -0.3634 -0.4367
  904MOL0     C24639  11.787   4.129   3.872 -0.8483  0.5859 -0.0988
  904MOL0     C24640  11.823   4.248   3.801  0.1882  1.1266  1.0299
  904MOL0     C24641  11.958   4.282   3.782 -1.0383 -0.5255  0.3404
  904MOL0     C24642  11.998   4.420   3.707 -0.2866 -0.7616  0.0262
  904MOL0     C24643  12.059   4.205   3.853  0.3962 -0.2820 -0.7970
  904MOL0     C24644  12.203   4.228   3.869  0.4015 -0.2049 -0.6078
  904MOL0     O24645  12.288   4.124   3.883 -0.2770  0.5198  0.9266
  904MOL0     C24646  12.406   4.166   3.938  0.3881  0.3629 -0.3451
  904MOL0     C24647  12.425   4.194   4.075 -0.0621  0.1440 -0.5999
  904MOL0     C24648  12.550   4.223   4.123  1.4570 -0.5538 -0.3130
  904MOL0     C24649  12.664   4.220   4.037  0.0424 -0.4172  0.2918
  904MOL0     O24650  12.778   4.255   4.092  0.1735  0.6598 -0.1167
  904MOL0     C24651  12.878   4.316   4.010  0.1559 -1.5230  0.1899
  904MOL0     C24652  12.972   4.367   4.118 -0.4981  0.1172 -0.6010
  904MOL0     C24653  13.032   4.259   4.209 -0.5401  0.2535 -0.4901
  904MOL0     C24654  13.120   4.320   4.315  0.7563  0.8689  0.2590
  904MOL0     C24655  13.056   4.434   4.396  0.9419  0.1457  0.5325
  904MOL0     C24656  13.121   4.446   4.531  0.0905  0.2253  0.0883
  904MOL0     C24657  13.269   4.487   4.519  0.1571 -0.1091  0.5754
  904MOL0     C24658  13.349   4.482   4.636 -0.4067 -1.1569 -0.3146
  904MOL0    Cl24659  13.506   4.569   4.614 -0.0203  0.3537  0.2603
  904MOL0     C24660  12.642   4.191   3.902 -0.6240 -1.0160 -0.1809
  904MOL0     C24661  12.520   4.150   3.855 -0.4116  0.9807 -0.8263
  904MOL0     O24662  12.236   4.349   3.871  0.0589  0.3416 -0.8221
  904MOL0     C24663  12.017   4.090   3.925  0.7134  0.0134 -0.6410
  904MOL0     C24664  11.883   4.051   3.935  0.1785 -0.3783 -0.1807
  904MOL0     N24665  11.309   3.592   3.913  0.6311 -0.5099  0.0155
  904MOL0     N24666  11.259   3.535   4.020  0.1714 -0.0026  0.7192
  904MOL0     C24667  10.198   3.214   3.585 -0.0492 -0.4978  0.2096
  904MOL0     C24668  10.081   3.153   3.531  0.2215  0.5332  0.3048
  904MOL0     C24669   9.828   2.808   3.320 -0.0732 -0.7788  0.6490
  904MOL0     C24670   9.731   2.802   3.422 -0.2770  0.6932  0.1909
  904MOL0     C24671   9.595   2.791   3.386  0.4565  0.0715 -0.2867
  904MOL0     C24672   9.554   2.759   3.252 -0.3450  0.1017  0.3704
  904MOL0     O24673   9.424   2.741   3.208  0.5085  0.2378 -0.0861
  904MOL0     C24674   9.323   2.758   3.303  0.0192  0.2443 -0.2686
  904MOL0     C24675   9.309   2.915   3.320 -0.1887 -0.1716 -0.9350
  904MOL0     C24676   9.263   2.964   3.454 -0.5229  0.2905 -0.0928
  904MOL0     C24677   9.319   3.101   3.508 -0.5662  0.1037  0.3508
  904MOL0     C24678   9.251   3.139   3.631 -0.0593 -0.0166  0.2362
  904MOL0     C24679   9.180   3.193   3.719  0.0195  0.4665  0.2204
  904MOL0     C24680   9.656   2.739   3.166  0.4417 -0.3200  1.0051
  904MOL0     C24681   9.789   2.773   3.184 -0.9789  0.8072 -0.4971
  904MOL0     C24682   9.890   2.745   3.069 -0.1750  0.2815  0.3478
  904MOL0     H24683  10.201   2.847   3.518 -3.0876  0.4704 -0.8380
  904MOL0     H24684  10.403   2.946   3.608 -0.0516 -1.4287 -3.2395
  904MOL0     H24685  10.584   3.093   3.582 -2.6701  0.0099 -1.3104
  904MOL0     H24686  10.535   3.066   3.753 -1.8838  0.7617  0.4685
  904MOL0     H24687  10.753   3.180   3.712 -1.1378 -1.6197 -2.4785
  904MOL0     H24688  10.660   3.329   3.650  0.7334 -0.1817 -0.7232
  904MOL0     H24689  10.547   3.351   3.861  1.0122  0.7516  2.8343
  904MOL0     H24690  10.634   3.213   3.928 -1.2047  1.3245  1.3672
  904MOL0     H24691  10.846   3.339   3.884 -0.4058 -0.7672 -1.3944
  904MOL0     H24692  10.745   3.472   3.811 -0.8503 -0.4493 -0.2500
  904MOL0     H24693  10.655   3.403   4.078 -0.8181 -0.8598 -2.6939
  904MOL0     H24694  10.708   3.567   4.009  1.6155  0.6894 -2.8803
  904MOL0     H24695  10.814   3.495   4.203 -0.1905  0.9616 -0.9879
  904MOL0     H24696  10.887   3.357   4.124 -0.9743 -1.6175 -1.6440
  904MOL0     H24697  10.926   3.640   4.002  0.7726 -0.0971  0.0448
  904MOL0     H24698  11.013   3.492   3.964  1.5264  0.1965  0.3369
  904MOL0     H24699  11.021   3.663   4.226 -0.4576 -1.3271  1.3591
  904MOL0     H24700  11.089   3.504   4.216  6.0225  2.3294 -0.6582
  904MOL0     H24701  11.133   3.847   4.026  0.2269  0.8607 -0.5955
  904MOL0     H24702  11.221   3.915   3.823  1.2590  2.1771  0.0664
  904MOL0     H24703  11.302   3.790   3.723  0.6452  2.2975 -0.5371
  904MOL0     H24704  11.512   3.816   3.891  2.2949  1.7542  0.3036
  904MOL0     H24705  11.473   3.938   3.769 -1.0527  3.5722  1.3958
  904MOL0     H24706  11.392   4.092   3.931 -3.3940 -3.6628 -4.3161
  904MOL0     H24707  11.396   3.974   4.062 -2.0694 -1.1993 -2.0264
  904MOL0     H24708  11.584   4.145   4.049 -0.1272 -0.7308  1.2950
  904MOL0     H24709  11.638   3.972   4.045  0.5014 -1.8438 -1.9307
  904MOL0     H24710  11.743   4.308   3.759 -0.5479 -0.9007 -0.6510
  904MOL0     H24711  11.915   4.460   3.647 -0.2387 -0.6190  0.0546
  904MOL0     H24712  12.085   4.403   3.643  2.0749  0.8083  2.6200
  904MOL0     H24713  12.024   4.491   3.785  2.0613 -2.1020  0.5344
  904MOL0     H24714  12.345   4.211   4.145  2.5307 -3.4921  3.7571
  904MOL0     H24715  12.572   4.255   4.224  1.6973 -0.7775 -0.2934
  904MOL0     H24716  12.936   4.251   3.944  1.6716  1.4378 -1.5613
  904MOL0     H24717  12.842   4.403   3.956 -1.7979 -1.0527  2.1199
  904MOL0     H24718  13.058   4.425   4.083  0.7644  1.1356  3.5797
  904MOL0     H24719  12.913   4.439   4.175  0.8718  3.1693 -2.7843
  904MOL0     H24720  13.093   4.184   4.157 -2.1862 -2.4068  1.1268
  904MOL0     H24721  12.952   4.202   4.257  0.3847 -0.0827  0.7051
  904MOL0     H24722  13.206   4.367   4.266  1.3762 -0.2284  0.2614
  904MOL0     H24723  13.155   4.243   4.383  0.2296 -0.5401 -1.0163
  904MOL0     H24724  13.053   4.527   4.339 -2.4279  1.2854  2.2852
  904MOL0     H24725  12.952   4.405   4.415  0.3984 -1.2136 -3.4550
  904MOL0     H24726  13.120   4.349   4.582  3.3850 -0.5253 -1.0171
  904MOL0     H24727  13.066   4.533   4.566 -1.6839  0.6198 -3.2614
  904MOL0     H24728  13.273   4.586   4.473 -0.0279 -1.4975 -2.6819
  904MOL0     H24729  13.311   4.424   4.440 -2.7873  1.2336 -2.2967
  904MOL0     H24730  13.358   4.379   4.672  1.5829 -2.2861 -3.5958
  904MOL0     H24731  13.288   4.539   4.707  0.0999 -1.7026  0.5891
  904MOL0     H24732  12.730   4.188   3.837 -2.0756  1.7862 -2.5265
  904MOL0     H24733  12.498   4.109   3.758 -2.1699 -2.9365  1.0026
  904MOL0     H24734  12.089   4.019   3.966  1.3328  1.3159  0.5975
  904MOL0     H24735  11.847   3.958   3.976  2.0638 -1.0791 -0.0280
  904MOL0     H24736  10.217   3.321   3.584 -2.1876 -0.0712  0.5262
  904MOL0     H24737   9.986   3.203   3.515 -2.1089 -1.1715  6.1721
  904MOL0     H24738   9.759   2.823   3.524 -0.3707  0.6529  0.2252
  904MOL0     H24739   9.519   2.804   3.462  1.7186 -0.4459  1.1223
  904MOL0     H24740   9.231   2.713   3.264  1.8673 -1.7829 -2.5894
  904MOL0     H24741   9.329   2.705   3.399 -3.0535  1.2452  0.6014
  904MOL0     H24742   9.230   2.956   3.256 -1.9154 -1.3590  0.3732
  904MOL0     H24743   9.398   2.970   3.286 -1.2655  0.8839 -2.1801
  904MOL0     H24744   9.154   2.963   3.451 -0.5401 -0.2004  0.5394
  904MOL0     H24745   9.295   2.890   3.528 -0.4192 -0.3856 -0.8051
  904MOL0     H24746   9.316   3.180   3.432  0.9097 -0.3331 -0.1863
  904MOL0     H24747   9.423   3.088   3.538 -1.1623  0.8506  2.9706
  904MOL0     H24748   9.118   3.242   3.791 -0.1210 -1.2030  1.2904
  904MOL0     H24749   9.627   2.714   3.064 -1.9987  3.1881  0.6718
  904MOL0     H24750   9.955   2.832   3.059 -2.0106  1.6325 -0.6246
  904MOL0     H24751   9.962   2.669   3.099  1.6612  1.8498  0.0850
  904MOL0     H24752   9.843   2.712   2.976  0.0383  1.5226 -0.2212
  905MOL0     O24753  10.221   7.478   3.622  0.1448  0.7836 -0.4017
  905MOL0     C24754  10.242   7.358   3.613  0.3457  0.8651 -0.0794
  905MOL0     O24755  10.333   7.296   3.529  0.6627 -0.2183  0.1115
  905MOL0     C24756  10.447   7.359   3.488 -0.5064 -0.1429  0.4007
  905MOL0     C24757  10.511   7.305   3.373  0.1733 -0.4990  0.4785
  905MOL0     C24758  10.617   7.369   3.315 -0.7997 -0.6986 -0.6975
  905MOL0     C24759  10.676   7.486   3.379 -0.3015  0.3350 -0.0702
  905MOL0     O24760  10.786   7.541   3.318 -0.0744 -0.1433 -0.0101
  905MOL0     C24761  10.877   7.620   3.391  0.1775 -0.0125 -0.2430
  905MOL0     C24762  11.004   7.640   3.304  0.5478 -0.5996 -0.0524
  905MOL0     C24763  10.968   7.727   3.180 -0.4425  0.0794  0.0509
  905MOL0     C24764  11.098   7.789   3.118  0.0580  0.1225  0.1112
  905MOL0     C24765  11.177   7.684   3.049 -0.7795 -0.7638 -0.2157
  905MOL0     C24766  11.276   7.738   2.952 -0.5125  0.0799 -0.5479
  905MOL0     C24767  11.316   7.637   2.840 -0.0312  0.5796  0.0185
  905MOL0     C24768  11.359   7.729   2.725  0.2041  0.0479  1.0991
  905MOL0     N24769  11.399   7.659   2.607 -0.0913  1.0573  0.8566
  905MOL0     C24770  11.519   7.590   2.593  0.3166  0.5786 -0.6944
  905MOL0     C24771  11.504   7.503   2.492 -0.6154  0.0344 -1.0623
  905MOL0     C24772  11.627   7.434   2.435  0.0704  0.9036 -0.9373
  905MOL0     C24773  11.668   7.485   2.299 -0.7760  0.3521 -0.0527
  905MOL0     C24774  11.574   7.443   2.181 -0.1330 -0.2330 -0.1647
  905MOL0     C24775  11.669   7.420   2.054  0.0678 -0.4881 -0.0054
  905MOL0     O24776  11.751   7.300   2.082  0.1405 -0.7530  0.5212
  905MOL0     C24777  11.884   7.302   2.084  0.2024  0.2441 -0.4399
  905MOL0     C24778  11.962   7.384   2.003 -0.4443 -0.1864 -0.2021
  905MOL0     C24779  12.103   7.391   2.007  0.8846  0.7303 -0.5288
  905MOL0     C24780  12.174   7.470   1.897 -0.1772  0.2171 -0.1231
  905MOL0     C24781  12.168   7.297   2.096 -0.0622 -0.2061 -0.4482
  905MOL0     C24782  12.318   7.279   2.104  0.1937 -0.1629 -0.1176
  905MOL0     O24783  12.367   7.174   2.175  0.9495  0.5680  0.4146
  905MOL0     C24784  12.506   7.148   2.172 -0.0754 -0.2973 -0.0235
  905MOL0     C24785  12.559   7.065   2.269 -1.3202  0.6711  0.1696
  905MOL0     C24786  12.697   7.034   2.275 -0.4978 -0.3042  0.1237
  905MOL0     C24787  12.785   7.084   2.181 -0.2418 -0.2662 -0.0121
  905MOL0     O24788  12.916   7.045   2.199 -0.0214  0.2673  0.8291
  905MOL0     C24789  13.001   7.063   2.088 -0.0310  0.1309 -0.4093
  905MOL0     C24790  13.151   7.015   2.111  1.3519  0.2443  0.9772
  905MOL0     C24791  13.214   7.097   2.213 -0.3053 -0.0513  1.0181
  905MOL0     C24792  13.355   7.037   2.219 -0.0448 -0.4501  0.9146
  905MOL0     C24793  13.420   7.076   2.352  0.1200 -0.2231 -0.4147
  905MOL0     C24794  13.577   7.085   2.330 -0.3262  0.3581 -0.4069
  905MOL0     C24795  13.641   7.103   2.474 -0.0755 -0.0427  0.1672
  905MOL0     C24796  13.793   7.118   2.464 -0.0728 -0.9397  0.8495
  905MOL0    Cl24797  13.860   6.957   2.406 -0.0117 -0.4729  0.4240
  905MOL0     C24798  12.740   7.168   2.083  0.5009  0.7556  0.5907
  905MOL0     C24799  12.602   7.196   2.070  0.7125  0.0099 -0.6775
  905MOL0     O24800  12.379   7.379   2.087 -0.5298  0.3954  0.0167
  905MOL0     C24801  12.095   7.212   2.177  0.0780 -0.0548 -0.2383
  905MOL0     C24802  11.958   7.214   2.167  0.3201 -0.0154  0.6376
  905MOL0     N24803  11.370   7.515   2.441  0.3069 -0.2014 -0.2191
  905MOL0     N24804  11.316   7.604   2.510  0.3283  0.3637 -0.1944
  905MOL0     C24805  10.626   7.523   3.498 -0.2112 -0.4832 -0.1119
  905MOL0     C24806  10.514   7.466   3.553  0.5801 -0.0071  0.5853
  905MOL0     C24807  10.155   7.270   3.678  0.5917 -0.5902 -0.3000
  905MOL0     C24808  10.207   7.180   3.766 -0.3968  0.2276 -0.7519
  905MOL0     C24809  10.119   7.095   3.836 -0.5079 -1.1262 -0.6168
  905MOL0     C24810   9.987   7.112   3.830 -0.4925 -0.9053  0.6491
  905MOL0     O24811   9.914   7.033   3.909  0.0706 -0.0924  0.3901
  905MOL0     C24812   9.774   7.035   3.901  0.5371 -0.0080 -0.3873
  905MOL0     C24813   9.723   6.901   3.959 -0.7677 -0.2799  0.6931
  905MOL0     C24814   9.568   6.885   3.939  0.5462  0.3758  0.0053
  905MOL0     C24815   9.509   6.750   3.977 -0.2480  0.6783 -0.2022
  905MOL0     C24816   9.501   6.734   4.129  1.1059 -0.1201 -0.2659
  905MOL0     C24817   9.493   6.703   4.243 -0.2991 -0.4515 -0.7276
  905MOL0     C24818   9.925   7.217   3.747 -0.1763 -0.0019 -0.4172
  905MOL0     C24819  10.012   7.288   3.665 -0.1019 -0.3191  0.0657
  905MOL0     C24820   9.941   7.384   3.562  0.4568 -0.0318 -0.6517
  905MOL0     H24821  10.464   7.217   3.331 -0.0365 -0.6483  1.0129
  905MOL0     H24822  10.681   7.334   3.235  2.7791  0.2629  1.5323
  905MOL0     H24823  10.898   7.563   3.482  1.7507 -1.9836 -1.7608
  905MOL0     H24824  10.834   7.718   3.412 -0.6565 -0.6855  1.3575
  905MOL0     H24825  11.072   7.686   3.377  0.4850  0.8235 -0.8608
  905MOL0     H24826  11.052   7.545   3.280  0.8447 -1.4561  3.4257
  905MOL0     H24827  10.922   7.659   3.107 -0.6271 -1.0565  1.2038
  905MOL0     H24828  10.895   7.805   3.204  1.2055  1.7675 -0.1917
  905MOL0     H24829  11.057   7.870   3.057  0.3472  1.2741  1.3920
  905MOL0     H24830  11.155   7.850   3.189  3.5380 -3.5305  0.8268
  905MOL0     H24831  11.114   7.612   2.996 -1.7379  1.1513 -1.7808
  905MOL0     H24832  11.229   7.629   3.129  0.4883  0.3059 -0.2749
  905MOL0     H24833  11.224   7.827   2.915 -4.3808 -1.9694 -0.5203
  905MOL0     H24834  11.362   7.766   3.013 -1.3538  1.0198  0.2568
  905MOL0     H24835  11.240   7.565   2.807  0.2013 -0.6674  1.9990
  905MOL0     H24836  11.397   7.576   2.880 -1.2110 -0.2873  1.2145
  905MOL0     H24837  11.275   7.793   2.697 -1.4824 -1.5367  2.3247
  905MOL0     H24838  11.440   7.798   2.749  0.4753  0.5484 -1.0518
  905MOL0     H24839  11.608   7.621   2.647  0.1363  3.4677 -1.8760
  905MOL0     H24840  11.611   7.326   2.433  0.4788  0.8367 -0.7944
  905MOL0     H24841  11.717   7.445   2.496 -0.9648 -0.0410  0.8281
  905MOL0     H24842  11.687   7.593   2.310  1.6419 -0.2307  3.2859
  905MOL0     H24843  11.767   7.439   2.286 -1.1656 -0.8007  0.8712
  905MOL0     H24844  11.523   7.350   2.208 -0.2543  0.1949  1.1331
  905MOL0     H24845  11.497   7.515   2.151 -3.4182 -3.8406 -1.3685
  905MOL0     H24846  11.604   7.410   1.966  1.1699  2.9243 -1.3787
  905MOL0     H24847  11.732   7.506   2.030 -2.0288  0.7304 -1.4512
  905MOL0     H24848  11.914   7.421   1.913  0.6426 -0.5423 -0.9396
  905MOL0     H24849  12.279   7.439   1.892  0.5694  2.5166  0.0577
  905MOL0     H24850  12.183   7.571   1.939 -1.1681 -0.5813  2.1239
  905MOL0     H24851  12.127   7.481   1.799 -2.4786  2.1315  1.0921
  905MOL0     H24852  12.500   7.022   2.350  0.8309 -1.8915  0.5488
  905MOL0     H24853  12.737   6.984   2.362  1.2227  1.6890  0.5658
  905MOL0     H24854  12.974   6.997   2.005 -0.2260 -0.4977  0.1533
  905MOL0     H24855  13.020   7.168   2.062 -0.1790  0.0103 -1.0142
  905MOL0     H24856  13.151   6.908   2.132  3.5671 -0.2676 -1.2352
  905MOL0     H24857  13.199   7.036   2.015 -2.9720  1.1719 -1.2497
  905MOL0     H24858  13.164   7.077   2.308  0.1781 -1.1766  1.0431
  905MOL0     H24859  13.203   7.198   2.172 -0.0598 -1.7060 -3.6398
  905MOL0     H24860  13.408   7.071   2.129  1.0740 -2.5898  0.6943
  905MOL0     H24861  13.356   6.928   2.211 -0.3427 -0.3732 -5.0359
  905MOL0     H24862  13.381   7.167   2.398 -0.4443 -0.6336 -0.0645
  905MOL0     H24863  13.391   7.009   2.434 -1.7620  2.3242  1.1681
  905MOL0     H24864  13.606   7.166   2.262  1.1282  0.9517  0.8430
  905MOL0     H24865  13.616   6.996   2.281 -2.5348 -0.3345 -1.0141
  905MOL0     H24866  13.612   7.020   2.538 -0.5937  1.0025  1.3287
  905MOL0     H24867  13.599   7.193   2.520 -0.3970  0.8176 -1.6735
  905MOL0     H24868  13.838   7.130   2.563 -0.0952 -0.0688  0.7643
  905MOL0     H24869  13.835   7.206   2.415 -1.2671 -0.0673  1.3577
  905MOL0     H24870  12.812   7.201   2.008  0.9469  1.2868  1.2391
  905MOL0     H24871  12.564   7.252   1.985 -3.1422 -0.9020  0.2243
  905MOL0     H24872  12.133   7.138   2.247  0.9359  0.3751 -0.2246
  905MOL0     H24873  11.907   7.137   2.224  0.4309 -1.6197 -1.3215
  905MOL0     H24874  10.661   7.608   3.556  0.9245 -1.1827  0.2554
  905MOL0     H24875  10.480   7.515   3.643 -0.9007 -2.1581  1.2889
  905MOL0     H24876  10.314   7.173   3.782 -0.5884  2.1179  2.0873
  905MOL0     H24877  10.155   7.020   3.905  1.9555 -1.9258 -2.6267
  905MOL0     H24878   9.737   7.118   3.962  2.0925 -0.5165  1.3266
  905MOL0     H24879   9.735   7.034   3.799 -0.2239 -2.4390 -0.1330
  905MOL0     H24880   9.742   6.893   4.067 -0.2225  1.6900  0.7947
  905MOL0     H24881   9.777   6.817   3.915  0.4022  0.7589  0.0731
  905MOL0     H24882   9.521   6.968   3.991 -2.0886  0.0578 -1.7031
  905MOL0     H24883   9.551   6.907   3.833 -1.0859 -0.0711  0.1483
  905MOL0     H24884   9.563   6.660   3.946  1.7052  1.7792 -0.1503
  905MOL0     H24885   9.407   6.756   3.939  0.8106  0.1934 -3.3836
  905MOL0     H24886   9.485   6.677   4.347 -0.1014 -0.8271 -0.8033
  905MOL0     H24887   9.822   7.250   3.756  0.0309  0.3416  0.9509
  905MOL0     H24888   9.936   7.489   3.592  2.3511 -0.2230  0.4799
  905MOL0     H24889   9.999   7.392   3.470  0.5851  1.6128 -0.4644
  905MOL0     H24890   9.842   7.342   3.540  0.1932 -1.7326  2.9503
  906MOL0     O24891   6.649   5.689   8.952 -0.1230  0.2612  0.1732
  906MOL0     C24892   6.538   5.633   8.945  0.3279 -0.7536 -0.3502
  906MOL0     O24893   6.505   5.523   8.883 -0.0051 -0.0581 -0.3531
  906MOL0     C24894   6.592   5.414   8.866  0.0847 -0.5312  0.0285
  906MOL0     C24895   6.695   5.417   8.776  0.6659 -0.3216 -0.6176
  906MOL0     C24896   6.777   5.305   8.771 -0.4389 -0.5468  0.1408
  906MOL0     C24897   6.776   5.201   8.867 -0.2041  0.0206  1.1042
  906MOL0     O24898   6.882   5.115   8.881 -0.4572 -0.0674  0.4976
  906MOL0     C24899   6.926   5.028   8.773 -0.2135  0.5866  0.7089
  906MOL0     C24900   7.074   4.999   8.793 -0.0340  0.2821  0.1249
  906MOL0     C24901   7.149   5.132   8.758  0.1537 -0.3987 -0.1238
  906MOL0     C24902   7.299   5.130   8.805  1.0337 -0.6776 -0.3631
  906MOL0     C24903   7.371   5.257   8.755  1.1509  0.7264 -0.1212
  906MOL0     C24904   7.509   5.259   8.814  0.2264  0.8135  0.1752
  906MOL0     C24905   7.576   5.396   8.781  0.7215  0.3905 -0.0978
  906MOL0     C24906   7.721   5.403   8.814  0.5219 -0.5981  0.6263
  906MOL0     N24907   7.788   5.309   8.735 -0.8231  0.3959  0.0578
  906MOL0     C24908   7.828   5.320   8.606 -0.8689 -0.9675 -0.1410
  906MOL0     C24909   7.915   5.218   8.579 -0.4867 -0.2576  0.0722
  906MOL0     C24910   7.985   5.190   8.447  0.2922 -0.3824 -0.1621
  906MOL0     C24911   8.131   5.211   8.454 -0.1499 -0.4406  0.0419
  906MOL0     C24912   8.165   5.360   8.478  0.2024 -0.1836  0.1684
  906MOL0     C24913   8.317   5.386   8.442 -0.6351 -0.5314  0.0078
  906MOL0     O24914   8.333   5.390   8.300  0.0273  0.2928  0.0721
  906MOL0     C24915   8.462   5.430   8.260 -0.0310 -0.3767 -0.2260
  906MOL0     C24916   8.481   5.442   8.124 -0.6527 -0.3517  0.7119
  906MOL0     C24917   8.604   5.476   8.057 -0.3486  0.2778 -1.0007
  906MOL0     C24918   8.602   5.490   7.910  1.1119 -0.8085  0.5891
  906MOL0     C24919   8.716   5.508   8.138  0.5996  0.1823 -0.3973
  906MOL0     C24920   8.863   5.530   8.081  0.5949  1.1779 -0.6947
  906MOL0     O24921   8.960   5.502   8.178 -1.3908  0.2225  0.0350
  906MOL0     C24922   9.102   5.507   8.158 -0.5535 -0.0103  0.0993
  906MOL0     C24923   9.163   5.606   8.070 -0.0203 -0.3318 -0.7566
  906MOL0     C24924   9.296   5.593   8.044  0.3063 -0.1256 -0.1702
  906MOL0     C24925   9.375   5.505   8.110  0.2122  0.3674 -1.3303
  906MOL0     O24926   9.508   5.503   8.099 -0.7206 -0.4673  0.2498
  906MOL0     C24927   9.580   5.493   8.224  0.1154  0.0846  0.1325
  906MOL0     C24928   9.724   5.548   8.202  0.4280  0.5539 -0.1226
  906MOL0     C24929   9.809   5.480   8.095 -0.6585  0.7435  0.9016
  906MOL0     C24930   9.950   5.535   8.102 -0.1288 -0.0602 -0.6032
  906MOL0     C24931   9.953   5.686   8.106 -0.0862  1.2315  0.3152
  906MOL0     C24932  10.088   5.733   8.060 -1.1157  0.0930 -0.7703
  906MOL0     C24933  10.105   5.883   8.080 -0.0394  0.0785  0.2765
  906MOL0     C24934  10.226   5.927   7.992  0.7598  0.5188  0.8753
  906MOL0    Cl24935  10.211   6.106   8.017  0.0401  0.4913  0.1124
  906MOL0     C24936   9.314   5.406   8.197 -0.6831 -0.6134 -0.1960
  906MOL0     C24937   9.178   5.409   8.226 -0.5678 -0.7769  0.6007
  906MOL0     O24938   8.885   5.565   7.968  0.2192  0.2330 -0.0959
  906MOL0     C24939   8.690   5.502   8.279 -0.0652 -0.2187  0.3475
  906MOL0     C24940   8.575   5.448   8.339  0.0553 -1.0702  0.6884
  906MOL0     N24941   7.912   5.137   8.688 -0.2288 -0.3602 -0.0689
  906MOL0     N24942   7.840   5.191   8.785  0.0031  0.3130  0.1442
  906MOL0     C24943   6.671   5.208   8.954 -0.9352 -0.3129 -0.2881
  906MOL0     C24944   6.582   5.311   8.960 -0.0789 -0.1407 -0.0251
  906MOL0     C24945   6.417   5.707   9.014  0.0853 -0.2236 -0.6702
  906MOL0     C24946   6.321   5.629   9.089 -0.5958  0.6004 -0.7565
  906MOL0     C24947   6.209   5.686   9.134  0.0653 -0.4677 -0.4519
  906MOL0     C24948   6.193   5.823   9.122  1.0840  0.8582  0.1573
  906MOL0     O24949   6.076   5.880   9.167  0.1695  0.6420  0.6888
  906MOL0     C24950   5.951   5.800   9.181 -0.0430 -0.7782  0.1956
  906MOL0     C24951   5.837   5.904   9.209  0.0891 -0.4974  0.3356
  906MOL0     C24952   5.709   5.835   9.252  0.0504 -0.2786 -0.3414
  906MOL0     C24953   5.597   5.908   9.177  0.4948 -0.7518 -0.6427
  906MOL0     C24954   5.585   5.910   9.029 -0.4122  0.0281 -0.1768
  906MOL0     C24955   5.563   5.894   8.912 -0.1721 -1.0910  0.4462
  906MOL0     C24956   6.288   5.908   9.067 -0.3076  0.7843 -0.6976
  906MOL0     C24957   6.397   5.847   9.003  0.3051  0.6667  0.1358
  906MOL0     C24958   6.482   5.950   8.923  0.6771 -0.1350  0.4441
  906MOL0     H24959   6.714   5.501   8.711  0.0425  0.7216  0.5102
  906MOL0     H24960   6.866   5.312   8.709  0.8018  0.6344  1.9648
  906MOL0     H24961   6.917   5.071   8.673  0.7484 -1.0125 -0.1022
  906MOL0     H24962   6.865   4.937   8.775 -4.0722  2.8618 -0.9361
  906MOL0     H24963   7.094   4.957   8.892 -3.6481 -2.9238 -0.2529
  906MOL0     H24964   7.103   4.925   8.717 -1.9999 -0.7266  0.2939
  906MOL0     H24965   7.159   5.145   8.650  0.6362 -0.9236 -0.1496
  906MOL0     H24966   7.101   5.218   8.807 -0.3811 -0.9621  0.3575
  906MOL0     H24967   7.299   5.124   8.914 -1.9307  3.6595  0.1154
  906MOL0     H24968   7.363   5.049   8.768  0.3537 -1.0841 -0.6671
  906MOL0     H24969   7.309   5.342   8.786 -1.6029 -0.9751 -0.5701
  906MOL0     H24970   7.383   5.257   8.646  3.5084 -0.0388  0.0853
  906MOL0     H24971   7.505   5.244   8.922  1.7819  3.5244  0.6903
  906MOL0     H24972   7.565   5.182   8.760 -1.7729  0.4615 -1.5569
  906MOL0     H24973   7.530   5.467   8.851 -0.3405  0.0156 -0.3953
  906MOL0     H24974   7.555   5.424   8.678  1.8292  0.7185 -0.2520
  906MOL0     H24975   7.759   5.505   8.803 -0.4818 -0.3397 -0.7947
  906MOL0     H24976   7.744   5.382   8.919  4.2962  3.4688  0.8845
  906MOL0     H24977   7.816   5.398   8.532 -0.8910 -1.8754 -1.1207
  906MOL0     H24978   7.942   5.252   8.368  0.9169  0.2175 -0.0390
  906MOL0     H24979   7.968   5.084   8.431  0.7201 -0.0662 -3.3348
  906MOL0     H24980   8.163   5.153   8.541 -2.2091 -1.0864  0.4343
  906MOL0     H24981   8.173   5.177   8.359 -0.5196  0.9729 -0.6627
  906MOL0     H24982   8.096   5.421   8.419 -1.2059 -1.2427  0.6735
  906MOL0     H24983   8.135   5.381   8.581  0.7021 -2.1809  0.7703
  906MOL0     H24984   8.357   5.479   8.484  3.5991 -2.0685 -0.1719
  906MOL0     H24985   8.387   5.311   8.480 -0.8298 -0.5608  0.3172
  906MOL0     H24986   8.395   5.434   8.057 -0.3865 -1.0717  0.4429
  906MOL0     H24987   8.651   5.584   7.885 -2.0226  0.6969 -0.3544
  906MOL0     H24988   8.499   5.490   7.872  1.0500 -0.7386  0.7560
  906MOL0     H24989   8.652   5.402   7.868 -2.0551 -3.0369  1.0992
  906MOL0     H24990   9.099   5.670   8.011 -0.5360 -1.7483 -1.7942
  906MOL0     H24991   9.331   5.656   7.963 -4.0451 -0.1952 -2.4239
  906MOL0     H24992   9.536   5.556   8.301 -0.5265  0.8664 -0.8489
  906MOL0     H24993   9.584   5.389   8.259 -1.1411 -0.5157 -1.3466
  906MOL0     H24994   9.712   5.656   8.185 -4.7347  0.2234 -0.1584
  906MOL0     H24995   9.775   5.531   8.297 -1.5801 -1.4166  0.6913
  906MOL0     H24996   9.765   5.500   7.997  1.4019  0.2607 -0.1883
  906MOL0     H24997   9.821   5.373   8.113  4.2593  0.4854 -2.2022
  906MOL0     H24998  10.002   5.501   8.012 -3.4552 -2.5249 -1.8163
  906MOL0     H24999   9.997   5.493   8.191  0.8752 -0.2671 -1.2178
  906MOL0     H25000   9.898   5.740   8.028 -0.0199  1.1792  0.2316
  906MOL0     H25001   9.936   5.730   8.205  1.6645  0.8561  0.8174
  906MOL0     H25002  10.108   5.703   7.957  3.3922  1.8619 -0.6538
  906MOL0     H25003  10.157   5.688   8.132 -1.3382  0.7543 -0.1235
  906MOL0     H25004  10.126   5.908   8.184 -1.7492  1.7162  0.2794
  906MOL0     H25005  10.009   5.930   8.056  0.7497  0.9249 -1.3999
  906MOL0     H25006  10.208   5.906   7.886 -0.3572  0.7165  1.0212
  906MOL0     H25007  10.323   5.884   8.021 -0.1867 -1.3405  1.4237
  906MOL0     H25008   9.373   5.330   8.246 -1.2725 -2.1254 -1.7284
  906MOL0     H25009   9.125   5.328   8.276 -2.9140 -0.7289 -1.5814
  906MOL0     H25010   8.772   5.529   8.345  0.1035 -1.2311  0.5701
  906MOL0     H25011   8.568   5.420   8.444 -0.5992 -1.2639  0.5957
  906MOL0     H25012   6.680   5.140   9.038  1.4372  0.7814  0.4362
  906MOL0     H25013   6.507   5.313   9.038 -0.8927  0.5367 -0.7959
  906MOL0     H25014   6.341   5.522   9.092 -3.6959 -0.0772  1.3305
  906MOL0     H25015   6.133   5.622   9.178  0.2411  0.7678  1.8265
  906MOL0     H25016   5.926   5.749   9.088 -0.4730  2.3292 -1.5298
  906MOL0     H25017   5.953   5.732   9.267 -1.2629  2.2348  2.7877
  906MOL0     H25018   5.825   5.964   9.118 -0.3019 -0.0558  0.6738
  906MOL0     H25019   5.870   5.975   9.286 -1.9033 -0.6731  1.4157
  906MOL0     H25020   5.695   5.729   9.233 -2.3290 -0.1441  0.3376
  906MOL0     H25021   5.697   5.834   9.361  2.5097 -1.1327 -0.0131
  906MOL0     H25022   5.603   6.008   9.219  0.0234 -1.3407  0.9103
  906MOL0     H25023   5.505   5.870   9.225  1.9366 -0.5174  2.5743
  906MOL0     H25024   5.537   5.882   8.809  1.8719  1.1412 -0.4521
  906MOL0     H25025   6.275   6.015   9.065 -0.6676  1.0351  4.0945
  906MOL0     H25026   6.567   5.903   8.872  0.6445  1.0982 -0.7937
  906MOL0     H25027   6.420   5.987   8.841  2.1315 -0.0443 -0.6579
  906MOL0     H25028   6.526   6.028   8.985  1.1845 -0.2258  0.2061
  907MOL0     O25029   4.896   7.868   1.432  0.7216  0.0043  1.3211
  907MOL0     C25030   4.866   7.929   1.529 -0.1169  0.8090 -0.1819
  907MOL0     O25031   4.955   8.005   1.598 -0.2678  0.9676  0.8654
  907MOL0     C25032   5.088   7.996   1.561  0.1058 -0.4168 -0.0824
  907MOL0     C25033   5.142   8.009   1.435 -0.7091 -0.4766 -0.3374
  907MOL0     C25034   5.279   7.998   1.405 -0.0545  0.0484 -0.1057
  907MOL0     C25035   5.371   7.982   1.511  0.0931  0.7010 -0.6176
  907MOL0     O25036   5.503   7.970   1.479  0.0926 -0.1813 -0.3522
  907MOL0     C25037   5.579   7.919   1.588  0.4607  0.1424  0.1504
  907MOL0     C25038   5.720   7.866   1.541 -0.0139 -0.0207 -0.8150
  907MOL0     C25039   5.822   7.852   1.658 -0.8116 -0.1265 -0.4047
  907MOL0     C25040   5.817   7.710   1.719 -0.2199 -0.8798  0.2477
  907MOL0     C25041   5.923   7.701   1.826 -0.3469 -0.3976  0.4563
  907MOL0     C25042   5.929   7.556   1.870 -0.1016 -0.1986  0.0362
  907MOL0     C25043   6.043   7.547   1.973 -0.5505 -0.1077 -0.1402
  907MOL0     C25044   6.085   7.407   2.000  0.5354 -0.9911  0.3227
  907MOL0     N25045   5.988   7.325   2.075 -0.6760  0.2054 -0.2137
  907MOL0     C25046   5.872   7.269   2.036  0.2425  0.9534 -0.4498
  907MOL0     C25047   5.827   7.203   2.147  0.0264 -0.5835 -0.5670
  907MOL0     C25048   5.700   7.128   2.165 -0.4260  0.4826 -0.6944
  907MOL0     C25049   5.711   7.008   2.258 -0.2155  0.1893 -0.5438
  907MOL0     C25050   5.577   6.927   2.261  0.0988  0.0229 -0.1010
  907MOL0     C25051   5.594   6.799   2.348  0.4211 -0.2227  0.5683
  907MOL0     O25052   5.598   6.841   2.483  0.5834 -0.0897 -0.6651
  907MOL0     C25053   5.583   6.755   2.584  0.6193  0.3131  0.9159
  907MOL0     C25054   5.578   6.812   2.709  0.1827  0.0953 -0.2550
  907MOL0     C25055   5.549   6.734   2.819 -0.0831  0.6960 -0.5029
  907MOL0     C25056   5.518   6.809   2.949  0.7088  0.5523  0.2009
  907MOL0     C25057   5.552   6.588   2.806 -0.2902  0.2845  0.1004
  907MOL0     C25058   5.551   6.487   2.916 -0.4268 -0.0304 -0.5669
  907MOL0     O25059   5.540   6.357   2.887 -0.2779  0.2029  0.8563
  907MOL0     C25060   5.579   6.266   2.989 -0.1187  0.2934 -0.5553
  907MOL0     C25061   5.713   6.269   3.053  0.2365 -0.5765  0.0301
  907MOL0     C25062   5.750   6.181   3.145  0.6199  0.0792 -0.0033
  907MOL0     C25063   5.663   6.075   3.188  0.4715 -0.2867  0.5673
  907MOL0     O25064   5.704   5.987   3.291  0.5234 -0.3139 -0.0550
  907MOL0     C25065   5.680   5.849   3.262 -0.1383 -0.6267 -0.1782
  907MOL0     C25066   5.773   5.765   3.336  1.0373 -0.5911  0.1562
  907MOL0     C25067   5.915   5.742   3.279 -0.1744 -0.1607 -0.3538
  907MOL0     C25068   5.996   5.673   3.389 -0.6614  0.3143 -0.7666
  907MOL0     C25069   6.116   5.611   3.322  0.4975  0.9049  0.0681
  907MOL0     C25070   6.221   5.564   3.421 -0.3484 -0.2257  0.3391
  907MOL0     C25071   6.315   5.681   3.443 -0.1153 -0.1598  0.1455
  907MOL0     C25072   6.408   5.668   3.561 -0.8842  0.1114  0.6695
  907MOL0    Cl25073   6.525   5.801   3.570  0.3508 -0.1650 -0.2632
  907MOL0     C25074   5.537   6.068   3.125 -0.3132 -0.2135 -0.2146
  907MOL0     C25075   5.494   6.157   3.026 -1.3277 -0.5953 -0.1696
  907MOL0     O25076   5.550   6.531   3.033  0.3613 -0.3286 -0.4425
  907MOL0     C25077   5.570   6.534   2.678 -0.4492  0.4308 -0.2520
  907MOL0     C25078   5.586   6.618   2.568 -0.1132  0.6680  0.1471
  907MOL0     N25079   5.908   7.228   2.250 -0.6086  0.8607  0.7030
  907MOL0     N25080   6.006   7.303   2.206 -0.0121  0.1894 -0.1511
  907MOL0     C25081   5.323   7.975   1.640  0.9462 -0.2768 -0.8637
  907MOL0     C25082   5.183   7.988   1.667  0.4406 -0.3844 -0.5251
  907MOL0     C25083   4.727   7.911   1.577  0.1540  0.0134 -0.9611
  907MOL0     C25084   4.713   7.920   1.716  0.8733 -1.0629 -1.0769
  907MOL0     C25085   4.577   7.917   1.766  0.0262 -0.0455 -0.3187
  907MOL0     C25086   4.458   7.910   1.687 -0.7430  0.3396 -1.3886
  907MOL0     O25087   4.332   7.927   1.739  0.1428 -0.4560  0.0491
  907MOL0     C25088   4.214   7.950   1.645 -0.7562 -0.3028  0.4939
  907MOL0     C25089   4.138   7.816   1.638 -0.0066  0.5458 -0.0106
  907MOL0     C25090   4.104   7.757   1.772 -0.0682  1.0156  0.3746
  907MOL0     C25091   4.028   7.841   1.881 -0.6989  0.0095 -0.3684
  907MOL0     C25092   3.911   7.916   1.850 -0.0635 -0.5751  0.2340
  907MOL0     C25093   3.808   7.974   1.836 -0.0995  0.9263  0.4103
  907MOL0     C25094   4.481   7.889   1.547 -0.5851  0.5634 -0.1142
  907MOL0     C25095   4.616   7.889   1.493  0.1458  0.2859  0.0694
  907MOL0     C25096   4.626   7.867   1.341  0.1480 -1.4328 -0.3718
  907MOL0     H25097   5.082   8.021   1.346 -2.1884  0.4581  0.7393
  907MOL0     H25098   5.307   8.002   1.301  0.8124 -0.5908  0.0952
  907MOL0     H25099   5.518   7.838   1.630 -2.1892  1.5605 -0.7660
  907MOL0     H25100   5.586   8.002   1.659 -0.3762  1.7013 -1.5143
  907MOL0     H25101   5.710   7.787   1.466  0.1241 -0.1942 -0.6500
  907MOL0     H25102   5.755   7.952   1.483 -3.3021  0.4095 -2.4041
  907MOL0     H25103   5.925   7.875   1.629  0.7230 -1.7870  3.1002
  907MOL0     H25104   5.802   7.923   1.739 -1.3406 -2.9207  2.0759
  907MOL0     H25105   5.723   7.684   1.768  0.6879  2.1434  4.0914
  907MOL0     H25106   5.838   7.645   1.634  1.1277  3.0830 -2.7707
  907MOL0     H25107   5.903   7.773   1.906 -2.3643  2.4275 -2.3518
  907MOL0     H25108   6.022   7.729   1.790 -1.5659 -1.2835 -4.2467
  907MOL0     H25109   5.836   7.516   1.913  1.4550 -2.0214  1.9156
  907MOL0     H25110   5.952   7.495   1.782 -3.3447 -0.9633 -0.4225
  907MOL0     H25111   6.019   7.607   2.061  0.3287  0.8159 -0.5017
  907MOL0     H25112   6.131   7.588   1.922 -0.2321 -1.4335 -0.6870
  907MOL0     H25113   6.110   7.361   1.904  3.1015  1.4113 -0.2743
  907MOL0     H25114   6.179   7.397   2.054  0.4374  0.6183  0.8171
  907MOL0     H25115   5.840   7.270   1.933  1.4797 -0.7793 -0.9064
  907MOL0     H25116   5.676   7.087   2.066 -2.2512  1.5443 -0.7488
  907MOL0     H25117   5.621   7.200   2.189  0.9752  2.1448 -0.8490
  907MOL0     H25118   5.791   6.938   2.229 -1.5702 -1.3351 -0.7166
  907MOL0     H25119   5.730   7.053   2.355  1.3349 -0.2675 -0.5958
  907MOL0     H25120   5.493   6.989   2.294  0.4176  0.1496  0.4738
  907MOL0     H25121   5.547   6.904   2.158 -1.2997 -1.0507  0.5079
  907MOL0     H25122   5.509   6.736   2.319 -1.8358  2.5261  0.7130
  907MOL0     H25123   5.686   6.749   2.318 -0.1503  1.0036 -4.0425
  907MOL0     H25124   5.588   6.920   2.717 -1.9018  0.3618 -0.6466
  907MOL0     H25125   5.594   6.819   3.027 -0.9997 -0.8634  2.1639
  907MOL0     H25126   5.430   6.758   2.991 -0.3091  1.1798 -1.0920
  907MOL0     H25127   5.485   6.909   2.920  3.7888  1.7308  0.4486
  907MOL0     H25128   5.794   6.335   3.021  1.7724 -1.8907  1.0541
  907MOL0     H25129   5.853   6.169   3.178  0.6023 -3.8886 -0.9299
  907MOL0     H25130   5.579   5.830   3.301  0.4579  1.3417  2.6441
  907MOL0     H25131   5.687   5.820   3.157  0.1166 -1.9155  0.1780
  907MOL0     H25132   5.784   5.811   3.435  1.1730  1.2976 -0.7081
  907MOL0     H25133   5.725   5.667   3.349  0.1668 -0.1423  0.3779
  907MOL0     H25134   5.964   5.837   3.255 -1.1683 -0.0386 -2.1047
  907MOL0     H25135   5.932   5.688   3.186  1.6399  2.1232 -1.4300
  907MOL0     H25136   5.928   5.600   3.433  0.3018 -0.9044 -1.2434
  907MOL0     H25137   6.033   5.744   3.464  0.7701 -0.8551 -0.3419
  907MOL0     H25138   6.099   5.532   3.249  1.6675  0.1444  0.6020
  907MOL0     H25139   6.153   5.692   3.258 -0.6288  0.7656 -0.7856
  907MOL0     H25140   6.275   5.474   3.391 -1.9724 -2.0828  2.5871
  907MOL0     H25141   6.167   5.540   3.514  0.7360 -1.0546  0.7683
  907MOL0     H25142   6.254   5.771   3.449 -1.2762 -0.7394 -2.0678
  907MOL0     H25143   6.377   5.687   3.354  0.5409  1.0758  0.6581
  907MOL0     H25144   6.451   5.568   3.565 -2.1343 -0.4316  1.4993
  907MOL0     H25145   6.341   5.668   3.648 -0.9346  0.0049  0.6308
  907MOL0     H25146   5.457   6.023   3.183 -0.7559  2.1017  1.0900
  907MOL0     H25147   5.395   6.166   2.983 -1.0862 -0.5168 -0.7156
  907MOL0     H25148   5.575   6.428   2.654 -3.4804 -0.2692  1.6875
  907MOL0     H25149   5.595   6.574   2.470  2.8941  0.6284  0.3506
  907MOL0     H25150   5.374   7.964   1.735 -0.2306 -0.1205 -0.1951
  907MOL0     H25151   5.144   7.985   1.768 -1.7607 -0.3485 -1.3182
  907MOL0     H25152   4.794   7.925   1.787 -0.1435  2.2262  0.0659
  907MOL0     H25153   4.563   7.906   1.873 -2.3290  1.0397 -0.4406
  907MOL0     H25154   4.154   8.033   1.686  1.3128  0.9976  1.0603
  907MOL0     H25155   4.245   7.991   1.549  1.5264 -1.2132  0.7832
  907MOL0     H25156   4.203   7.749   1.581 -1.1188 -0.9880  0.4406
  907MOL0     H25157   4.043   7.837   1.588  0.2846  0.2538 -0.7018
  907MOL0     H25158   4.038   7.673   1.748 -0.9773  1.6558  0.5820
  907MOL0     H25159   4.187   7.703   1.819 -1.3481  0.6881  2.3607
  907MOL0     H25160   4.106   7.907   1.919  1.0095 -2.0380 -0.1458
  907MOL0     H25161   4.006   7.781   1.970  2.0145 -0.7964 -0.1640
  907MOL0     H25162   3.725   8.041   1.829 -1.3157 -0.3309  2.0143
  907MOL0     H25163   4.402   7.892   1.473 -1.2880  0.5452  0.6337
  907MOL0     H25164   4.540   7.919   1.299  1.5829  2.1895  0.7383
  907MOL0     H25165   4.711   7.914   1.291 -0.1207 -0.7042 -0.1635
  907MOL0     H25166   4.625   7.760   1.318 -1.2669 -0.9822 -2.7374
  908MOL0     O25167   1.268   7.746   6.892 -0.6679  0.3956  0.3679
  908MOL0     C25168   1.227   7.835   6.970  0.0690 -0.6211  0.4527
  908MOL0     O25169   1.268   7.964   6.969 -0.0591  0.5132  0.7646
  908MOL0     C25170   1.359   7.996   6.871 -0.7426  0.5814 -0.2183
  908MOL0     C25171   1.492   7.958   6.894  0.0019 -0.8550 -0.9980
  908MOL0     C25172   1.581   7.982   6.788 -0.2177 -0.8029  0.1812
  908MOL0     C25173   1.540   8.049   6.668  0.6802 -0.0990  0.1740
  908MOL0     O25174   1.625   8.082   6.575 -0.0395 -0.2206 -0.3256
  908MOL0     C25175   1.735   7.989   6.547  0.4563 -0.6475  0.0686
  908MOL0     C25176   1.812   8.042   6.424  0.0779 -0.5635  0.7490
  908MOL0     C25177   1.946   7.967   6.408  0.3340  0.6107 -0.0221
  908MOL0     C25178   2.029   8.019   6.296 -0.0363  0.0049 -0.3166
  908MOL0     C25179   2.169   7.949   6.293  0.4094  0.5347  0.1795
  908MOL0     C25180   2.276   8.011   6.385 -0.2967 -0.0635  0.6979
  908MOL0     C25181   2.420   7.965   6.373 -0.4593  0.2597  0.2475
  908MOL0     C25182   2.512   8.061   6.456 -0.5049  0.0426 -0.6700
  908MOL0     N25183   2.652   8.047   6.414 -0.0754  1.1427  0.6608
  908MOL0     C25184   2.712   7.922   6.387  0.1451 -0.0994 -0.6565
  908MOL0     C25185   2.842   7.946   6.363 -0.2807 -0.2653 -0.3449
  908MOL0     C25186   2.944   7.852   6.323 -0.1015  0.2566  0.7900
  908MOL0     C25187   2.918   7.819   6.174 -0.4170  0.6523 -0.4097
  908MOL0     C25188   3.013   7.705   6.134 -0.0750 -0.0993 -0.7467
  908MOL0     C25189   2.989   7.684   5.975  0.3050  0.4524  0.5409
  908MOL0     O25190   3.041   7.783   5.887  0.2783 -0.6296 -0.5705
  908MOL0     C25191   3.174   7.774   5.869  0.4924  0.3091  0.3496
  908MOL0     C25192   3.223   7.667   5.798  0.4883 -0.3310  0.1505
  908MOL0     C25193   3.357   7.636   5.793 -0.2937 -0.2391  0.3156
  908MOL0     C25194   3.399   7.530   5.699  0.1950 -0.4643 -0.1865
  908MOL0     C25195   3.457   7.709   5.869  0.9316  1.0640 -0.4309
  908MOL0     C25196   3.610   7.693   5.870  0.3159  0.6042  0.0139
  908MOL0     O25197   3.667   7.711   5.991 -0.5138 -0.1558 -0.5390
  908MOL0     C25198   3.803   7.703   6.008  1.0769  0.3761  0.2326
  908MOL0     C25199   3.863   7.573   6.018 -0.1350 -0.0990 -0.4298
  908MOL0     C25200   3.995   7.561   6.069  0.1659 -0.1418 -0.7007
  908MOL0     C25201   4.069   7.677   6.107  0.3089  0.4776  0.2153
  908MOL0     O25202   4.197   7.663   6.163  0.4700  0.2041  0.2839
  908MOL0     C25203   4.215   7.726   6.288  1.5270  0.6555  0.1244
  908MOL0     C25204   4.343   7.683   6.342  1.5802  0.7614  0.4466
  908MOL0     C25205   4.469   7.705   6.254 -0.4232 -0.5188  0.2586
  908MOL0     C25206   4.525   7.572   6.198 -0.6949 -0.6601 -0.6003
  908MOL0     C25207   4.687   7.562   6.188 -0.6621 -0.8061 -0.3870
  908MOL0     C25208   4.751   7.605   6.320  0.2837 -0.2405  0.2085
  908MOL0     C25209   4.902   7.560   6.338 -0.6612  0.4988  0.3826
  908MOL0     C25210   4.971   7.572   6.480  0.4127  0.6762 -0.3058
  908MOL0    Cl25211   4.929   7.727   6.567 -0.1651  0.4397 -0.3528
  908MOL0     C25212   4.014   7.806   6.084  0.5079  0.4727 -0.2602
  908MOL0     C25213   3.886   7.820   6.029 -0.3462  0.2424 -0.2156
  908MOL0     O25214   3.666   7.641   5.771  0.5847  0.1321 -0.3275
  908MOL0     C25215   3.403   7.824   5.932 -0.5936  0.4428 -0.0434
  908MOL0     C25216   3.266   7.850   5.942 -0.6337 -0.1714  0.1459
  908MOL0     N25217   2.867   8.079   6.404  0.1183  0.2011  0.0677
  908MOL0     N25218   2.748   8.137   6.431 -0.3831  0.0843 -0.6984
  908MOL0     C25219   1.407   8.091   6.653  0.0675 -0.7693  0.8227
  908MOL0     C25220   1.317   8.061   6.754 -0.1689  0.1267 -1.3074
  908MOL0     C25221   1.117   7.817   7.067 -1.0550  0.4350 -0.2306
  908MOL0     C25222   1.062   7.929   7.125  0.1590 -0.1081  0.4352
  908MOL0     C25223   0.960   7.925   7.224 -0.7299 -0.4590  0.1565
  908MOL0     C25224   0.921   7.798   7.278 -0.3438  0.3573  0.2895
  908MOL0     O25225   0.826   7.799   7.376 -0.4488  0.5925  0.6808
  908MOL0     C25226   0.841   7.695   7.467 -0.1173 -0.2890 -0.8631
  908MOL0     C25227   0.747   7.705   7.587  0.4177 -0.6603 -0.2738
  908MOL0     C25228   0.599   7.688   7.561 -0.6066  0.2578 -0.2782
  908MOL0     C25229   0.563   7.535   7.571  0.6529 -0.0491  0.4476
  908MOL0     C25230   0.416   7.514   7.589 -0.3449 -0.0822  0.2944
  908MOL0     C25231   0.308   7.458   7.606  0.2475  0.1326  0.0632
  908MOL0     C25232   0.976   7.681   7.224 -0.0963 -0.2295 -0.3302
  908MOL0     C25233   1.072   7.691   7.123  0.3424 -0.4230  0.7634
  908MOL0     C25234   1.136   7.560   7.080  0.6706  0.4166  0.1126
  908MOL0     H25235   1.510   7.897   6.982 -3.0247 -0.5932 -0.0910
  908MOL0     H25236   1.681   7.944   6.806 -0.5502 -2.5113 -1.2988
  908MOL0     H25237   1.712   7.883   6.535  3.1562 -1.1656 -1.4152
  908MOL0     H25238   1.810   7.995   6.627 -0.3210 -2.4351  0.9778
  908MOL0     H25239   1.760   8.019   6.331 -0.4910 -1.3765  1.2583
  908MOL0     H25240   1.822   8.151   6.426 -1.3591 -0.3718 -0.7318
  908MOL0     H25241   2.003   7.972   6.501 -2.3473 -0.2007  1.8077
  908MOL0     H25242   1.921   7.862   6.390  1.1143  0.4870 -0.3988
  908MOL0     H25243   1.967   7.997   6.209 -0.2972  0.5026 -0.2574
  908MOL0     H25244   2.033   8.128   6.305 -4.6984  0.3354  0.6832
  908MOL0     H25245   2.207   7.970   6.192 -2.8109  4.5820 -0.4621
  908MOL0     H25246   2.168   7.841   6.312 -2.0241  0.2126 -1.2397
  908MOL0     H25247   2.280   8.118   6.361 -0.6258  0.4332  2.6482
  908MOL0     H25248   2.246   8.001   6.490  2.6611  0.7622  1.7296
  908MOL0     H25249   2.453   7.965   6.268  0.3383 -0.2656  0.4839
  908MOL0     H25250   2.432   7.857   6.389 -1.4211 -0.0003 -0.6214
  908MOL0     H25251   2.486   8.166   6.441  1.2726  0.5011 -0.7086
  908MOL0     H25252   2.504   8.043   6.564 -1.7176  1.6750 -0.4483
  908MOL0     H25253   2.664   7.828   6.362 -2.6708  1.0108  0.1473
  908MOL0     H25254   2.935   7.764   6.387  0.4453 -1.2146 -1.0631
  908MOL0     H25255   3.040   7.904   6.331  1.5561 -2.4055 -0.4737
  908MOL0     H25256   2.818   7.779   6.155  0.8456 -3.0073 -0.0790
  908MOL0     H25257   2.931   7.910   6.115 -1.1370  1.1694  0.2086
  908MOL0     H25258   3.112   7.740   6.164  0.6806 -1.8415 -1.0911
  908MOL0     H25259   2.985   7.614   6.189  1.0244 -0.6111 -0.9947
  908MOL0     H25260   3.034   7.590   5.940 -1.4822 -0.3119  0.1922
  908MOL0     H25261   2.882   7.677   5.956  0.4425  0.3636 -0.2307
  908MOL0     H25262   3.157   7.619   5.726 -0.9035 -1.1220  1.8892
  908MOL0     H25263   3.450   7.449   5.751  3.4882  2.2141  1.1192
  908MOL0     H25264   3.467   7.573   5.626 -0.3652  0.2379 -0.3089
  908MOL0     H25265   3.316   7.491   5.640 -1.2153  0.2102  1.2585
  908MOL0     H25266   3.814   7.482   5.986  0.8490 -1.8591  2.6428
  908MOL0     H25267   4.047   7.467   6.080 -1.7392 -1.0297  1.6830
  908MOL0     H25268   4.209   7.834   6.277 -0.1001  0.3898 -2.1674
  908MOL0     H25269   4.139   7.691   6.359 -0.3318 -0.0972 -2.1357
  908MOL0     H25270   4.357   7.738   6.435 -2.4533 -0.5519  2.0142
  908MOL0     H25271   4.341   7.576   6.363  1.5773  0.6126 -0.2725
  908MOL0     H25272   4.542   7.743   6.326 -0.0022 -1.7272  0.4913
  908MOL0     H25273   4.447   7.771   6.170 -2.3969  0.1793  1.2433
  908MOL0     H25274   4.471   7.545   6.107  1.6041  1.1968 -2.6679
  908MOL0     H25275   4.503   7.494   6.271 -0.9162  1.9328  2.3184
  908MOL0     H25276   4.711   7.456   6.177 -0.3821 -0.6704 -1.2146
  908MOL0     H25277   4.731   7.622   6.107  0.1444 -1.0628 -0.1540
  908MOL0     H25278   4.687   7.563   6.398  1.6338 -2.4960  0.1681
  908MOL0     H25279   4.748   7.715   6.324  0.7224 -0.0798 -2.1051
  908MOL0     H25280   4.966   7.617   6.269 -0.3194 -0.0122  0.2730
  908MOL0     H25281   4.905   7.453   6.315  0.2190  0.4774  0.5780
  908MOL0     H25282   5.079   7.564   6.463  0.5359  2.6672 -0.7469
  908MOL0     H25283   4.932   7.492   6.544 -1.6542  0.9201 -1.1765
  908MOL0     H25284   4.080   7.889   6.108 -0.8317  1.2792  0.8107
  908MOL0     H25285   3.848   7.918   5.999  1.5310  1.3889  0.9829
  908MOL0     H25286   3.467   7.884   5.996 -0.5135 -1.5123  1.8631
  908MOL0     H25287   3.235   7.926   6.014  0.9503  0.5307  0.1388
  908MOL0     H25288   1.384   8.140   6.559 -5.4878 -1.6740  1.3863
  908MOL0     H25289   1.214   8.093   6.752 -0.4201 -0.7325 -2.3793
  908MOL0     H25290   1.082   8.025   7.079  4.9384  0.0598  2.2366
  908MOL0     H25291   0.917   8.015   7.267  1.1756  0.3507  0.4825
  908MOL0     H25292   0.830   7.596   7.422 -0.8007 -0.6040 -0.0369
  908MOL0     H25293   0.942   7.699   7.507 -1.1722  0.2572  1.9869
  908MOL0     H25294   0.752   7.808   7.625 -2.1030 -1.0300  1.2627
  908MOL0     H25295   0.792   7.636   7.659  1.6588  1.7803  1.4323
  908MOL0     H25296   0.540   7.742   7.635 -0.3280 -0.6409  0.6337
  908MOL0     H25297   0.584   7.718   7.457  0.1565 -0.0278 -0.4803
  908MOL0     H25298   0.612   7.495   7.660 -0.3731 -0.5031  0.8193
  908MOL0     H25299   0.610   7.478   7.490 -0.2342 -0.0615 -0.0729
  908MOL0     H25300   0.206   7.427   7.618  0.7265 -1.2954  0.6853
  908MOL0     H25301   0.942   7.579   7.242  1.1371 -1.3149 -3.4922
  908MOL0     H25302   1.149   7.500   7.171  0.6956  3.3833  2.2487
  908MOL0     H25303   1.071   7.507   7.011 -1.0046  0.4326  1.6252
  908MOL0     H25304   1.236   7.562   7.036  1.4442 -0.8419  1.6642
  909MOL0     O25305   9.332   0.370   6.853  0.3008 -0.2215 -0.2192
  909MOL0     C25306   9.404   0.409   6.940 -0.5221 -0.1828 -0.1603
  909MOL0     O25307   9.432   0.535   6.968  0.2801 -0.1890  0.0488
  909MOL0     C25308   9.393   0.637   6.879  0.3929  0.9928 -0.4324
  909MOL0     C25309   9.441   0.638   6.756 -0.4486  0.0436  0.2815
  909MOL0     C25310   9.399   0.739   6.670 -0.0996 -0.0079  0.5367
  909MOL0     C25311   9.303   0.837   6.709 -0.6812  0.4496  0.0704
  909MOL0     O25312   9.246   0.928   6.615 -0.1363 -0.0090  1.3897
  909MOL0     C25313   9.294   0.924   6.475 -0.2001  0.4735 -0.7327
  909MOL0     C25314   9.236   1.051   6.405 -0.2068 -0.5096  0.3651
  909MOL0     C25315   9.287   1.059   6.264  0.0320  0.0376  0.1100
  909MOL0     C25316   9.213   1.153   6.173 -1.0921 -0.2956  0.8800
  909MOL0     C25317   9.296   1.184   6.052  0.5818 -0.0021  0.0744
  909MOL0     C25318   9.216   1.263   5.944 -0.8663  0.8714 -0.3240
  909MOL0     C25319   9.120   1.173   5.867  0.5101 -0.1506  0.4540
  909MOL0     C25320   9.112   1.218   5.719  0.3871 -0.6249  1.0823
  909MOL0     N25321   9.070   1.355   5.716  0.4379  0.0182 -0.4207
  909MOL0     C25322   8.944   1.406   5.733 -0.0140  0.6081 -0.2509
  909MOL0     C25323   8.950   1.542   5.740 -0.1824 -0.4275 -1.0638
  909MOL0     C25324   8.823   1.616   5.778  0.2040 -0.7879  0.0779
  909MOL0     C25325   8.787   1.679   5.639  0.1517  0.0276  0.7066
  909MOL0     C25326   8.647   1.739   5.614  0.1748 -0.1439  0.1621
  909MOL0     C25327   8.619   1.854   5.707 -0.0449 -0.4355  0.1463
  909MOL0     O25328   8.679   1.976   5.667  0.1737  0.7521 -0.7179
  909MOL0     C25329   8.708   2.061   5.771 -0.2516 -0.1453  0.6589
  909MOL0     C25330   8.824   2.142   5.744  0.1468  0.7730  0.2012
  909MOL0     C25331   8.881   2.224   5.843  0.4282 -0.9290 -1.0771
  909MOL0     C25332   9.004   2.300   5.808 -0.5699  1.0454 -0.7390
  909MOL0     C25333   8.814   2.224   5.975 -0.0769  0.2920 -0.6134
  909MOL0     C25334   8.867   2.301   6.094  0.6125  0.9138  0.3224
  909MOL0     O25335   8.996   2.345   6.086  0.9090 -0.0826  0.4419
  909MOL0     C25336   9.039   2.442   6.169 -0.2016 -0.3512  0.1476
  909MOL0     C25337   8.977   2.562   6.185  0.5222 -0.8171  0.4835
  909MOL0     C25338   9.028   2.654   6.276  0.8282  0.2232  0.6809
  909MOL0     C25339   9.147   2.634   6.341 -0.4409  0.0770  0.6522
  909MOL0     O25340   9.181   2.725   6.431  0.4496 -0.0347  0.3419
  909MOL0     C25341   9.303   2.790   6.391  0.0878 -1.0615 -1.1339
  909MOL0     C25342   9.319   2.892   6.503 -0.2070  0.7485 -0.2897
  909MOL0     C25343   9.198   2.996   6.515 -1.3989 -0.7179  0.1910
  909MOL0     C25344   9.238   3.118   6.604 -0.0044  0.1538 -0.3878
  909MOL0     C25345   9.127   3.224   6.600  0.1278  0.0331 -1.2132
  909MOL0     C25346   9.008   3.190   6.695 -0.9396  1.0107  0.2315
  909MOL0     C25347   8.905   3.295   6.694  0.2535 -0.4871 -1.0241
  909MOL0     C25348   8.776   3.254   6.765  0.4132 -0.2091 -0.2244
  909MOL0    Cl25349   8.704   3.116   6.680  0.1310  0.0481  0.1078
  909MOL0     C25350   9.218   2.514   6.317  0.0011 -0.4274  0.6514
  909MOL0     C25351   9.167   2.420   6.232  1.0457  0.8823 -0.0086
  909MOL0     O25352   8.783   2.321   6.181  0.5706 -0.0246 -0.3094
  909MOL0     C25353   8.698   2.152   5.997 -0.4640  0.7446 -0.1691
  909MOL0     C25354   8.645   2.067   5.897 -0.1594 -0.7413  0.6766
  909MOL0     N25355   9.082   1.573   5.717 -0.4451 -0.4850 -0.6640
  909MOL0     N25356   9.155   1.465   5.700 -0.0998  1.0542  0.3374
  909MOL0     C25357   9.262   0.837   6.846  0.5019  0.4518  0.0183
  909MOL0     C25358   9.299   0.727   6.928 -0.1741  0.0098  0.8410
  909MOL0     C25359   9.476   0.304   7.016 -0.2182  0.9313 -0.6191
  909MOL0     C25360   9.550   0.346   7.121  0.1454  0.0536  0.2291
  909MOL0     C25361   9.627   0.266   7.207  0.3722  0.2387  0.0059
  909MOL0     C25362   9.640   0.127   7.180  0.6756 -0.3376  0.6103
  909MOL0     O25363   9.705   0.032   7.260 -0.4589 -0.2084  0.4058
  909MOL0     C25364   9.828   0.073   7.322  0.2447 -0.6068 -0.1374
  909MOL0     C25365   9.894  -0.042   7.402 -0.3319 -0.0705 -0.7071
  909MOL0     C25366   9.938  -0.150   7.300  1.0039  0.1086 -0.1733
  909MOL0     C25367   9.997  -0.278   7.346 -0.8662  0.6731 -0.6367
  909MOL0     C25368  10.126  -0.236   7.422 -0.2622  0.1181  0.5240
  909MOL0     C25369  10.229  -0.220   7.485  0.0361 -0.9048  0.5208
  909MOL0     C25370   9.547   0.071   7.084  0.2590  0.0812 -0.1283
  909MOL0     C25371   9.467   0.159   7.004 -0.6230  0.6245  0.3290
  909MOL0     C25372   9.403   0.086   6.890  0.1613  0.6389 -0.0268
  909MOL0     H25373   9.511   0.564   6.716 -0.5902 -0.1350  0.3630
  909MOL0     H25374   9.434   0.732   6.567 -2.0234 -0.0481 -0.1546
  909MOL0     H25375   9.255   0.835   6.424 -0.8264  2.1345 -3.3665
  909MOL0     H25376   9.403   0.929   6.465 -0.1032 -1.3453 -1.0425
  909MOL0     H25377   9.126   1.051   6.400 -0.2534 -1.1022  1.2309
  909MOL0     H25378   9.268   1.142   6.455 -2.9217 -0.1210  1.5766
  909MOL0     H25379   9.389   1.099   6.262 -0.4426  1.3718 -2.6955
  909MOL0     H25380   9.287   0.962   6.214  0.7600  1.8500 -3.7662
  909MOL0     H25381   9.121   1.100   6.148 -0.8075 -0.8133  0.9174
  909MOL0     H25382   9.196   1.252   6.216  0.7141  0.3176  0.2848
  909MOL0     H25383   9.333   1.088   6.013 -3.0462 -1.1006 -1.0669
  909MOL0     H25384   9.386   1.237   6.082 -0.0004  0.8477  0.3612
  909MOL0     H25385   9.160   1.336   6.003 -2.5548 -1.1694  0.7723
  909MOL0     H25386   9.288   1.315   5.881  1.6371  0.0191  1.6607
  909MOL0     H25387   9.026   1.168   5.924  0.4094 -0.6188  0.2550
  909MOL0     H25388   9.156   1.070   5.859 -0.8709 -0.6889  0.8600
  909MOL0     H25389   9.207   1.210   5.666 -1.1731  2.7381 -2.7446
  909MOL0     H25390   9.036   1.162   5.664 -0.7550 -1.6717  3.5346
  909MOL0     H25391   8.854   1.352   5.759 -0.0846  1.0731  0.4968
  909MOL0     H25392   8.851   1.695   5.849  1.4125 -0.5093 -0.6843
  909MOL0     H25393   8.747   1.553   5.825  0.7851 -1.8313 -0.3575
  909MOL0     H25394   8.875   1.742   5.621  1.6177 -1.2769  2.8055
  909MOL0     H25395   8.794   1.596   5.568 -0.7271 -0.9644  1.7482
  909MOL0     H25396   8.645   1.765   5.508  1.2622 -0.0437  0.1567
  909MOL0     H25397   8.573   1.658   5.621 -0.5384  0.3002 -1.7513
  909MOL0     H25398   8.511   1.866   5.721  0.3132  3.8934  0.4875
  909MOL0     H25399   8.662   1.830   5.805  0.2970 -1.3651 -0.2206
  909MOL0     H25400   8.878   2.144   5.649  0.5034 -0.4581  0.3568
  909MOL0     H25401   9.004   2.307   5.699  0.2426 -0.5939 -0.8683
  909MOL0     H25402   9.087   2.237   5.842 -2.7235 -1.5291  0.1149
  909MOL0     H25403   9.021   2.396   5.857 -2.4385  0.5261  1.0878
  909MOL0     H25404   8.892   2.583   6.121  1.3606  4.1693  0.6125
  909MOL0     H25405   8.969   2.743   6.295 -1.0163 -0.3716 -1.7976
  909MOL0     H25406   9.388   2.722   6.392 -0.5774 -1.9197 -1.3502
  909MOL0     H25407   9.293   2.833   6.291 -1.6060 -1.8264 -1.3298
  909MOL0     H25408   9.318   2.841   6.600 -2.3129  1.1660 -0.0433
  909MOL0     H25409   9.415   2.941   6.484 -1.1978  3.9395  2.0083
  909MOL0     H25410   9.117   2.950   6.572 -2.3138  1.0037  0.3402
  909MOL0     H25411   9.171   3.025   6.412  0.1314 -0.1317 -0.0708
  909MOL0     H25412   9.328   3.168   6.569 -0.0449 -0.3062 -1.1688
  909MOL0     H25413   9.255   3.089   6.709 -0.0506  2.0269  0.1714
  909MOL0     H25414   9.155   3.322   6.641 -0.9145 -0.5962  1.1589
  909MOL0     H25415   9.087   3.235   6.499 -3.7475  3.2054  0.3978
  909MOL0     H25416   9.044   3.182   6.798  4.5727  0.7291 -1.3968
  909MOL0     H25417   8.970   3.090   6.671  2.0541 -0.1752 -0.0142
  909MOL0     H25418   8.887   3.310   6.587  2.5417 -0.1361 -1.4056
  909MOL0     H25419   8.942   3.389   6.737 -2.9641 -0.3344  1.8528
  909MOL0     H25420   8.703   3.335   6.762  1.3204  0.7769  2.3092
  909MOL0     H25421   8.802   3.239   6.870  1.8115  0.6764 -0.4215
  909MOL0     H25422   9.311   2.499   6.372  1.3594  4.1162  0.0655
  909MOL0     H25423   9.221   2.326   6.230 -0.6157 -0.3018  3.2568
  909MOL0     H25424   8.643   2.146   6.090 -0.6183 -2.4467 -0.3411
  909MOL0     H25425   8.554   2.012   5.919 -0.7304  0.2895  0.9453
  909MOL0     H25426   9.181   0.903   6.875  1.3770  0.8395  1.7035
  909MOL0     H25427   9.269   0.728   7.032 -0.3225  1.0162  0.7995
  909MOL0     H25428   9.559   0.451   7.146  0.5118  0.6305 -2.0834
  909MOL0     H25429   9.683   0.302   7.292 -0.1243  1.3477 -0.1267
  909MOL0     H25430   9.889   0.117   7.244  0.4102  1.8446  1.2774
  909MOL0     H25431   9.806   0.154   7.392 -0.7939 -0.8412 -0.1706
  909MOL0     H25432   9.828  -0.097   7.471  0.1335  1.0137  0.6561
  909MOL0     H25433   9.980  -0.003   7.456  0.1010  0.2664 -1.6242
  909MOL0     H25434   9.850  -0.178   7.242  0.4651  0.3300  0.5316
  909MOL0     H25435  10.009  -0.091   7.240  1.1294  2.4776  2.1172
  909MOL0     H25436  10.021  -0.348   7.265 -2.1723 -1.3690  0.6478
  909MOL0     H25437   9.932  -0.331   7.416  1.4872 -1.1897  0.2892
  909MOL0     H25438  10.318  -0.202   7.542  1.9521 -1.1461 -2.2044
  909MOL0     H25439   9.553  -0.035   7.062  2.3809  0.1540 -0.0297
  909MOL0     H25440   9.300   0.050   6.901  0.8921 -1.2168  1.2044
  909MOL0     H25441   9.408   0.147   6.800 -1.5478 -0.0104 -0.6052
  909MOL0     H25442   9.461  -0.006   6.880  0.8944  1.0062  0.8217
  910MOL0     O25443   8.652   3.135   3.204  0.3257  0.4046  0.1102
  910MOL0     C25444   8.712   3.025   3.220 -0.2279 -0.0452 -0.6830
  910MOL0     O25445   8.849   3.008   3.264 -0.1357  0.7440  1.1711
  910MOL0     C25446   8.917   3.127   3.291  0.7065  0.2330  0.1733
  910MOL0     C25447   9.031   3.163   3.220 -1.4546  0.1091 -0.1014
  910MOL0     C25448   9.108   3.274   3.266 -0.0776  0.8226 -0.1140
  910MOL0     C25449   9.060   3.354   3.365  0.2011 -0.2415 -0.4398
  910MOL0     O25450   9.144   3.458   3.403 -0.4621  0.5040  0.0899
  910MOL0     C25451   9.141   3.494   3.539  0.3449 -0.6334 -0.0093
  910MOL0     C25452   9.260   3.576   3.569  0.0976  0.3111  0.8750
  910MOL0     C25453   9.397   3.534   3.516 -0.6695 -0.1694 -0.4432
  910MOL0     C25454   9.510   3.614   3.585 -0.2363 -0.1979  0.1248
  910MOL0     C25455   9.488   3.771   3.580 -0.1789  1.6100 -0.2097
  910MOL0     C25456   9.615   3.844   3.644  0.0156  0.9073  0.4836
  910MOL0     C25457   9.578   3.967   3.729 -0.1892  0.9020 -0.1321
  910MOL0     C25458   9.711   4.029   3.808  1.4945 -0.3865 -0.5560
  910MOL0     N25459   9.671   4.164   3.855 -0.4831  0.6635  0.2198
  910MOL0     C25460   9.707   4.284   3.799 -0.1103 -0.6155 -0.1522
  910MOL0     C25461   9.643   4.382   3.869 -1.1517 -0.7424  1.1468
  910MOL0     C25462   9.641   4.527   3.856 -0.7502  0.2973  0.5134
  910MOL0     C25463   9.778   4.593   3.810  0.6494  0.1362 -0.0939
  910MOL0     C25464   9.780   4.738   3.852  0.0250  0.2577 -1.0207
  910MOL0     C25465   9.888   4.821   3.773  0.1246  0.2136  0.1656
  910MOL0     O25466   9.846   4.830   3.634 -1.1636 -0.0399 -0.2914
  910MOL0     C25467   9.948   4.819   3.542 -0.9018 -0.3563 -0.5467
  910MOL0     C25468  10.076   4.886   3.557 -0.0351  1.1918  0.6124
  910MOL0     C25469  10.174   4.856   3.465 -0.2339 -0.6552  0.8552
  910MOL0     C25470  10.292   4.939   3.493 -1.1938  1.1057 -0.5178
  910MOL0     C25471  10.152   4.780   3.347 -0.3736  0.5750 -0.4158
  910MOL0     C25472  10.251   4.767   3.243  0.5146  0.5385 -0.6061
  910MOL0     O25473  10.216   4.687   3.140  0.2263 -0.6704 -0.1894
  910MOL0     C25474  10.301   4.675   3.032  0.3230  0.3807  1.4519
  910MOL0     C25475  10.315   4.777   2.942 -0.6368  0.0649 -0.7127
  910MOL0     C25476  10.395   4.772   2.822  0.3485  0.2614 -0.3200
  910MOL0     C25477  10.459   4.651   2.793 -0.1429  0.7610 -0.5969
  910MOL0     O25478  10.511   4.647   2.672  0.2074  0.3704 -0.3222
  910MOL0     C25479  10.593   4.528   2.650  0.1992 -0.4457  0.4862
  910MOL0     C25480  10.676   4.563   2.527  0.2890 -0.0575 -0.3450
  910MOL0     C25481  10.824   4.539   2.561  0.4183 -1.1016 -0.4909
  910MOL0     C25482  10.919   4.561   2.441  0.6587 -0.2086  0.4091
  910MOL0     C25483  11.059   4.544   2.492  1.0075  0.2773 -0.3378
  910MOL0     C25484  11.165   4.590   2.390 -0.4711  0.3263 -0.5662
  910MOL0     C25485  11.302   4.572   2.440 -0.2897  0.1003 -0.2515
  910MOL0     C25486  11.335   4.664   2.556  0.7438 -0.1404  1.0880
  910MOL0    Cl25487  11.502   4.629   2.605  0.2659  0.0771 -0.1395
  910MOL0     C25488  10.443   4.540   2.891 -0.3581 -0.0790  0.2020
  910MOL0     C25489  10.359   4.555   3.004  0.0722  0.6503 -0.1837
  910MOL0     O25490  10.357   4.823   3.259  0.6317 -0.2203  0.0119
  910MOL0     C25491  10.029   4.732   3.333  0.8009  0.1705 -0.3903
  910MOL0     C25492   9.933   4.740   3.433  0.3524 -0.1438 -0.1674
  910MOL0     N25493   9.583   4.325   3.977 -0.6549 -0.3355  0.3375
  910MOL0     N25494   9.590   4.196   3.960 -0.0680  0.6272  0.8492
  910MOL0     C25495   8.947   3.315   3.440 -0.4742  0.1691  1.5471
  910MOL0     C25496   8.881   3.194   3.415 -0.0965  0.3608 -0.3517
  910MOL0     C25497   8.631   2.901   3.206  1.0543  0.0556  0.9412
  910MOL0     C25498   8.505   2.910   3.145  0.3271 -0.6328  0.1940
  910MOL0     C25499   8.414   2.807   3.133 -0.5713  0.4397  0.5580
  910MOL0     C25500   8.451   2.680   3.180 -0.1014  0.0765  0.2895
  910MOL0     O25501   8.373   2.568   3.161  0.0985 -0.3941 -0.2531
  910MOL0     C25502   8.281   2.568   3.052 -0.0186  0.0141 -0.1555
  910MOL0     C25503   8.218   2.435   3.022 -0.5927  0.5312  0.0968
  910MOL0     C25504   8.332   2.323   3.009 -0.2611 -0.0686 -0.3127
  910MOL0     C25505   8.284   2.181   3.063 -0.4153 -0.2263 -0.3445
  910MOL0     C25506   8.162   2.154   2.992  0.3688 -0.2002  0.3000
  910MOL0     C25507   8.055   2.133   2.945 -0.0013  0.1318  0.0988
  910MOL0     C25508   8.572   2.666   3.241 -0.2816 -0.0050  0.0116
  910MOL0     C25509   8.667   2.767   3.250 -0.3557 -0.3409 -1.1232
  910MOL0     C25510   8.801   2.741   3.308  0.2597  0.0415  0.6107
  910MOL0     H25511   9.069   3.089   3.151  0.1632  2.0379 -1.3977
  910MOL0     H25512   9.205   3.289   3.219 -1.2661  1.8129 -2.4266
  910MOL0     H25513   9.147   3.409   3.607 -1.0676 -0.3869  0.4413
  910MOL0     H25514   9.058   3.556   3.572 -1.3641 -2.0913 -1.3843
  910MOL0     H25515   9.240   3.666   3.511 -1.2503 -1.2476 -1.2087
  910MOL0     H25516   9.262   3.590   3.677  0.9194 -1.1533  1.0841
  910MOL0     H25517   9.412   3.426   3.526 -2.1512 -0.8790 -4.1113
  910MOL0     H25518   9.417   3.549   3.409  2.4648 -0.0214  0.0898
  910MOL0     H25519   9.531   3.589   3.689  0.6147 -0.1519 -0.0283
  910MOL0     H25520   9.594   3.587   3.520  1.0225  1.5364  0.9679
  910MOL0     H25521   9.396   3.782   3.639 -0.4620  0.0270 -0.3042
  910MOL0     H25522   9.466   3.792   3.475  2.1250 -2.6917 -1.8069
  910MOL0     H25523   9.665   3.783   3.720 -1.6210 -1.3148 -0.1275
  910MOL0     H25524   9.689   3.874   3.568 -1.3551  4.6378  0.4047
  910MOL0     H25525   9.500   3.942   3.801  1.0131 -0.2676  0.8072
  910MOL0     H25526   9.551   4.035   3.648  1.5491  0.4984 -1.1111
  910MOL0     H25527   9.743   3.960   3.887 -1.1358  1.2103  2.1013
  910MOL0     H25528   9.800   4.039   3.745  2.7864  1.1825  1.4236
  910MOL0     H25529   9.761   4.294   3.705 -0.4093  1.2486 -0.1755
  910MOL0     H25530   9.615   4.562   3.956 -1.7113 -0.4537  0.5351
  910MOL0     H25531   9.573   4.559   3.777  0.7424 -0.0294 -0.9607
  910MOL0     H25532   9.853   4.526   3.852  0.3839 -1.1689 -1.5889
  910MOL0     H25533   9.795   4.587   3.702  2.9168 -1.7031  0.2839
  910MOL0     H25534   9.683   4.784   3.834  0.3115  0.7156 -1.4234
  910MOL0     H25535   9.800   4.740   3.960  0.6498 -0.2426 -1.1159
  910MOL0     H25536   9.901   4.920   3.817  1.5060  0.3056 -0.4094
  910MOL0     H25537   9.981   4.765   3.786 -1.1071 -1.5501  2.0839
  910MOL0     H25538  10.092   4.946   3.646 -0.1255 -1.5052  2.5969
  910MOL0     H25539  10.379   4.872   3.499 -2.1119 -0.0225  0.7302
  910MOL0     H25540  10.282   4.995   3.586 -0.6213  0.1021  0.1647
  910MOL0     H25541  10.314   5.012   3.414  2.1012 -1.1002 -1.9023
  910MOL0     H25542  10.246   4.859   2.957  0.1602  1.0266 -2.0909
  910MOL0     H25543  10.404   4.850   2.747  2.7209  0.1874 -0.1904
  910MOL0     H25544  10.667   4.506   2.728  0.5945 -2.7617 -0.4523
  910MOL0     H25545  10.528   4.442   2.631  0.6986 -0.0919 -3.7273
  910MOL0     H25546  10.646   4.502   2.441 -1.0472 -0.0677  0.1151
  910MOL0     H25547  10.668   4.669   2.503 -3.3617 -0.2035 -0.3611
  910MOL0     H25548  10.832   4.434   2.592 -1.2431 -1.2040 -0.3110
  910MOL0     H25549  10.851   4.605   2.644  1.0916 -0.9511 -0.8230
  910MOL0     H25550  10.908   4.660   2.397  2.3709  1.1781  2.8630
  910MOL0     H25551  10.891   4.485   2.368  2.4366 -0.2011 -0.3324
  910MOL0     H25552  11.064   4.598   2.587 -1.6301  1.0693 -0.5652
  910MOL0     H25553  11.078   4.438   2.507  0.0059 -0.1679 -1.8979
  910MOL0     H25554  11.134   4.691   2.361 -3.3635  0.3781  2.0685
  910MOL0     H25555  11.152   4.515   2.312  0.4249 -3.1351  2.3671
  910MOL0     H25556  11.374   4.590   2.359  0.2723 -0.9914 -0.0106
  910MOL0     H25557  11.311   4.467   2.470  2.1495 -0.3987 -2.3863
  910MOL0     H25558  11.264   4.645   2.638 -0.2315 -2.0289 -0.1110
  910MOL0     H25559  11.325   4.770   2.531  0.6515  0.2125  2.5251
  910MOL0     H25560  10.484   4.444   2.861  0.3716  0.9584 -2.4509
  910MOL0     H25561  10.330   4.471   3.066 -0.3503  0.1729 -1.0018
  910MOL0     H25562  10.001   4.671   3.248  0.4314 -0.0821 -0.0915
  910MOL0     H25563   9.843   4.680   3.428  0.5623 -0.4547 -0.2290
  910MOL0     H25564   8.902   3.369   3.523 -3.8614 -0.9285  0.6027
  910MOL0     H25565   8.795   3.180   3.480  1.3545  3.0219  2.3790
  910MOL0     H25566   8.465   3.002   3.104  1.1693 -1.2064 -2.0838
  910MOL0     H25567   8.320   2.819   3.080 -0.8238 -1.9342  0.3229
  910MOL0     H25568   8.207   2.645   3.076 -1.5159 -1.6349  0.7365
  910MOL0     H25569   8.327   2.596   2.957  3.5212 -4.2377 -0.0039
  910MOL0     H25570   8.164   2.432   2.926 -0.0451 -1.4188 -0.2101
  910MOL0     H25571   8.137   2.402   3.088  0.7410 -0.0461  1.5003
  910MOL0     H25572   8.352   2.316   2.902 -1.1464  1.9838 -0.6451
  910MOL0     H25573   8.424   2.353   3.061 -0.8472  0.1923  0.6074
  910MOL0     H25574   8.267   2.173   3.171  0.2835 -5.0542 -0.3771
  910MOL0     H25575   8.355   2.099   3.052  2.0392  1.3980  2.0610
  910MOL0     H25576   7.955   2.126   2.906 -0.5007 -0.2521  1.4143
  910MOL0     H25577   8.594   2.566   3.274  0.2268  0.7953  2.2873
  910MOL0     H25578   8.879   2.781   3.243 -0.6239  0.9771  0.0897
  910MOL0     H25579   8.813   2.800   3.400  1.5341  0.3581  0.2493
  910MOL0     H25580   8.809   2.635   3.333 -0.0053  0.3034  1.8850
  911MOL0     O25581   4.917   8.547  10.778 -0.4169 -0.7554 -0.1645
  911MOL0     C25582   4.811   8.546  10.834  0.3860 -0.6492 -0.2470
  911MOL0     O25583   4.769   8.649  10.916  0.6793  0.3413 -0.8107
  911MOL0     C25584   4.856   8.754  10.935 -0.8006  1.2468 -0.2957
  911MOL0     C25585   4.945   8.739  11.041 -1.1171 -0.3051 -0.0683
  911MOL0     C25586   5.044   8.833  11.058 -0.4145  0.3183 -0.3861
  911MOL0     C25587   5.054   8.946  10.985  1.0415  1.3367 -0.2113
  911MOL0     O25588   5.167   9.025  11.007  0.3478 -0.0852  1.3741
  911MOL0     C25589   5.231   9.118  10.916  0.6082  0.1415 -0.0389
  911MOL0     C25590   5.377   9.099  10.931  0.1603 -0.7296 -0.0572
  911MOL0     C25591   5.447   9.226  10.882  0.4009 -0.2265  0.0997
  911MOL0     C25592   5.593   9.220  10.902  0.8172  0.3411 -0.3791
  911MOL0     C25593   5.666   9.352  10.877 -0.5777  0.6566  0.4750
  911MOL0     C25594   5.816   9.325  10.865 -0.4005  0.4748  0.0790
  911MOL0     C25595   5.896   9.446  10.821 -0.0331 -0.0132 -0.3018
  911MOL0     C25596   5.948   9.535  10.946  0.4222  1.0071 -0.5904
  911MOL0     N25597   6.080   9.591  10.919 -0.3595  0.4960  0.4743
  911MOL0     C25598   6.105   9.709  10.848  0.0828 -0.0990  0.7867
  911MOL0     C25599   6.236   9.726  10.857  0.4778 -0.7634 -0.7688
  911MOL0     C25600   6.316   9.836  10.792 -0.0752  0.1050 -0.0614
  911MOL0     C25601   6.353   9.969  10.872  0.0825  1.3240  0.2861
  911MOL0     C25602   6.443  10.061  10.776 -0.0165 -0.0283  0.3047
  911MOL0     C25603   6.589  10.030  10.770  0.8499  0.1811  0.2721
  911MOL0     O25604   6.642  10.066  10.892 -0.0791 -0.3527 -0.2872
  911MOL0     C25605   6.721  10.176  10.894  0.1223 -0.1666  0.1070
  911MOL0     C25606   6.708  10.288  10.805 -0.1858  0.1659 -0.3224
  911MOL0     C25607   6.807  10.385  10.800  0.3950 -0.3508 -0.0565
  911MOL0     C25608   6.809  10.472  10.676 -0.5323  0.8222 -0.8156
  911MOL0     C25609   6.918  10.382  10.886 -0.7906  0.1724 -0.0562
  911MOL0     C25610   7.038  10.468  10.902  0.6137 -0.1744  0.4875
  911MOL0     O25611   7.053  10.571  10.812  0.6512 -0.7185 -0.2071
  911MOL0     C25612   7.124  10.683  10.845  0.6565 -0.0409 -0.0947
  911MOL0     C25613   7.223  10.732  10.764  1.2686  0.3027 -0.1691
  911MOL0     C25614   7.299  10.846  10.805  1.5163 -0.5924  0.9701
  911MOL0     C25615   7.279  10.914  10.925  0.6439 -0.7969 -0.9181
  911MOL0     O25616   7.364  11.006  10.976  0.1925 -0.2744  0.6289
  911MOL0     C25617   7.407  10.991  11.106 -0.5133 -0.4843 -0.9560
  911MOL0     C25618   7.497  11.116  11.133 -0.2426  0.2278  0.3932
  911MOL0     C25619   7.644  11.077  11.106  0.5521 -0.2174  0.4331
  911MOL0     C25620   7.742  11.196  11.106  0.3798  0.4251  0.5844
  911MOL0     C25621   7.882  11.175  11.039  0.1446  0.0130  0.2269
  911MOL0     C25622   7.954  11.310  11.069 -0.4684  0.3066  0.5107
  911MOL0     C25623   8.094  11.296  11.022  1.0398 -0.8041 -0.2977
  911MOL0     C25624   8.165  11.424  11.073 -0.4322  0.3254 -0.1145
  911MOL0    Cl25625   8.223  11.414  11.246 -0.3101  0.5872 -0.3155
  911MOL0     C25626   7.175  10.873  11.011  0.1829  1.7199  0.7926
  911MOL0     C25627   7.101  10.756  10.961 -0.3113 -0.9807 -0.6491
  911MOL0     O25628   7.114  10.447  10.993  0.3584 -1.0246  0.1466
  911MOL0     C25629   6.915  10.282  10.981  0.1337 -0.3094 -0.0813
  911MOL0     C25630   6.821  10.178  10.983  0.6774 -0.3379  0.3924
  911MOL0     N25631   6.281   9.631  10.947  0.2661 -0.6923  0.1630
  911MOL0     N25632   6.193   9.549  10.987 -0.0412 -0.0874 -0.0105
  911MOL0     C25633   4.965   8.968  10.878 -0.2474 -0.0431  0.0562
  911MOL0     C25634   4.856   8.877  10.862 -0.9693  0.2553  0.3238
  911MOL0     C25635   4.721   8.434  10.831  1.1077  0.8486  0.1752
  911MOL0     C25636   4.583   8.458  10.854 -0.1468 -0.3100 -0.5264
  911MOL0     C25637   4.500   8.351  10.881 -0.4865  0.9109  0.6541
  911MOL0     C25638   4.540   8.220  10.871 -0.3020 -0.6566 -0.6849
  911MOL0     O25639   4.448   8.126  10.900 -0.4211 -0.3511  0.3574
  911MOL0     C25640   4.357   8.087  10.791 -0.3329 -0.3575 -0.5773
  911MOL0     C25641   4.424   8.023  10.671  0.2974  0.2996 -0.4888
  911MOL0     C25642   4.324   7.963  10.583  0.4728 -0.1530  0.0540
  911MOL0     C25643   4.389   7.885  10.466  0.4718 -0.0206 -0.7522
  911MOL0     C25644   4.467   7.971  10.375  0.5713  0.0395  1.0378
  911MOL0     C25645   4.536   8.041  10.298 -0.0904 -0.4483 -0.7108
  911MOL0     C25646   4.672   8.192  10.842 -0.3206  0.2436  0.1222
  911MOL0     C25647   4.771   8.298  10.820 -0.3863  0.2893 -0.2814
  911MOL0     C25648   4.915   8.245  10.787 -0.4067 -0.1415 -0.0256
  911MOL0     H25649   4.949   8.645  11.093 -0.1734 -0.4297 -0.3482
  911MOL0     H25650   5.111   8.822  11.143  0.6496  0.6452 -1.1552
  911MOL0     H25651   5.197   9.215  10.955 -2.7375 -1.3121  1.0138
  911MOL0     H25652   5.196   9.103  10.814 -0.9297 -0.1004  0.4994
  911MOL0     H25653   5.407   9.076  11.033  2.6429  0.1895 -0.5145
  911MOL0     H25654   5.415   9.018  10.868  1.0277  0.0953 -0.6182
  911MOL0     H25655   5.427   9.229  10.774  2.2312 -0.6373 -0.2868
  911MOL0     H25656   5.406   9.321  10.919  0.9220 -0.0653  0.2599
  911MOL0     H25657   5.615   9.195  11.006 -0.6334  1.3642  0.2038
  911MOL0     H25658   5.628   9.149  10.827 -3.2994  1.3118 -3.5749
  911MOL0     H25659   5.648   9.435  10.946  1.5166  1.0788  0.5950
  911MOL0     H25660   5.624   9.383  10.781 -0.4237 -2.2649 -0.6398
  911MOL0     H25661   5.856   9.279  10.956 -1.0975  3.5054  2.0581
  911MOL0     H25662   5.828   9.257  10.780 -0.1543 -0.2060  0.6468
  911MOL0     H25663   5.843   9.507  10.747 -2.0236 -0.9409  0.2740
  911MOL0     H25664   5.991   9.408  10.783 -0.8875 -0.3426 -2.2146
  911MOL0     H25665   5.884   9.623  10.960  0.8317  0.9218  2.5104
  911MOL0     H25666   5.948   9.469  11.034  1.0921  0.4642 -0.9853
  911MOL0     H25667   6.032   9.773  10.799 -0.2664 -0.6735  0.5574
  911MOL0     H25668   6.248   9.867  10.712  1.3309  2.0674 -0.5877
  911MOL0     H25669   6.410   9.805  10.745  0.2401  0.9340  0.0146
  911MOL0     H25670   6.263  10.021  10.905 -0.0291  0.6315  1.1267
  911MOL0     H25671   6.406   9.937  10.963 -0.2730  1.4921  0.5550
  911MOL0     H25672   6.413  10.051  10.672  0.0104  0.3193  0.2631
  911MOL0     H25673   6.435  10.166  10.803 -1.5876 -0.3447  1.1921
  911MOL0     H25674   6.605   9.922  10.759 -0.6993 -0.2937  2.1160
  911MOL0     H25675   6.640  10.070  10.682  0.6572 -1.0645 -0.4250
  911MOL0     H25676   6.632  10.289  10.726 -1.4177  0.5525  0.8305
  911MOL0     H25677   6.907  10.480  10.629  0.8413  1.0117  1.9133
  911MOL0     H25678   6.767  10.567  10.710 -1.2522  0.7890 -1.5749
  911MOL0     H25679   6.738  10.452  10.595 -1.3291  2.7651 -0.6572
  911MOL0     H25680   7.235  10.705  10.659  1.7966  3.5244 -1.0479
  911MOL0     H25681   7.384  10.878  10.746  2.8295 -2.1176  1.9496
  911MOL0     H25682   7.321  10.991  11.173 -0.5495 -3.0392 -0.9094
  911MOL0     H25683   7.463  10.897  11.116 -1.2182 -0.9161 -1.0250
  911MOL0     H25684   7.481  11.204  11.070 -0.8718 -0.4668 -0.4361
  911MOL0     H25685   7.485  11.152  11.235 -1.9708 -1.9676  1.0318
  911MOL0     H25686   7.643  11.033  11.006 -1.6294  1.4196 -0.3235
  911MOL0     H25687   7.671  11.007  11.186 -0.9100 -0.0216  1.1147
  911MOL0     H25688   7.751  11.233  11.209  0.1104 -0.4603  0.9409
  911MOL0     H25689   7.689  11.266  11.041 -0.5270  0.5723  1.4598
  911MOL0     H25690   7.950  11.103  11.085  2.4650  1.6780 -0.3741
  911MOL0     H25691   7.871  11.152  10.933  1.1737  1.1049 -0.1410
  911MOL0     H25692   7.937  11.335  11.175  2.1319 -3.0994  1.9326
  911MOL0     H25693   7.901  11.390  11.016 -1.4861  0.8108  2.2065
  911MOL0     H25694   8.093  11.305  10.913 -1.5132  0.2941 -0.2576
  911MOL0     H25695   8.133  11.199  11.054  0.0628 -0.6545  1.4668
  911MOL0     H25696   8.105  11.515  11.065  0.3200  0.6586 -2.5738
  911MOL0     H25697   8.256  11.439  11.014 -0.7820  1.0581 -0.4848
  911MOL0     H25698   7.155  10.918  11.108  0.5069  0.5370  1.4324
  911MOL0     H25699   7.017  10.715  11.017 -2.0353  1.7429 -1.0315
  911MOL0     H25700   6.995  10.274  11.053  0.3763 -0.3201 -0.3511
  911MOL0     H25701   6.826  10.101  11.059  0.4489 -0.0031  0.7505
  911MOL0     H25702   4.979   9.056  10.815 -3.0846  0.8988  0.5864
  911MOL0     H25703   4.794   8.892  10.774 -1.2873 -0.2476  0.4592
  911MOL0     H25704   4.550   8.560  10.871 -0.5871 -0.3357 -1.1784
  911MOL0     H25705   4.399   8.384  10.905 -0.0536  1.5286  1.7497
  911MOL0     H25706   4.280   8.020  10.830 -1.4404  1.3857  0.3690
  911MOL0     H25707   4.316   8.179  10.748  0.4535  1.5381  2.3528
  911MOL0     H25708   4.499   7.950  10.703  0.4246  1.3780  1.9004
  911MOL0     H25709   4.481   8.097  10.614 -2.4752  1.2746 -2.1725
  911MOL0     H25710   4.270   7.891  10.644 -1.6630 -1.0536 -2.6571
  911MOL0     H25711   4.253   8.040  10.551  0.5958  1.2997  3.0026
  911MOL0     H25712   4.303   7.838  10.417 -1.3028  0.4219  1.7714
  911MOL0     H25713   4.444   7.800  10.508 -1.7330 -1.0909  0.1723
  911MOL0     H25714   4.576   8.102  10.220 -0.1373  0.8260  0.2302
  911MOL0     H25715   4.710   8.091  10.827  3.5175  1.5151  0.2756
  911MOL0     H25716   4.963   8.311  10.713 -0.0872 -0.8528 -0.4642
  911MOL0     H25717   4.976   8.259  10.877 -0.7110  0.5447  0.0794
  911MOL0     H25718   4.921   8.145  10.744 -0.1170  0.0489 -0.4329
  912MOL0     O25719   5.500   3.060   3.260  0.4791  0.2719  0.0356
  912MOL0     C25720   5.468   3.044   3.144 -0.3630  0.2832 -0.6498
  912MOL0     O25721   5.370   2.959   3.104 -0.0448  0.0772 -0.1840
  912MOL0     C25722   5.374   2.825   3.164  0.2819  0.1043  0.0305
  912MOL0     C25723   5.379   2.801   3.303  0.0884  0.1957 -0.3747
  912MOL0     C25724   5.359   2.672   3.362 -0.2761 -0.2497 -0.0070
  912MOL0     C25725   5.347   2.559   3.277  0.2434  0.1923 -0.0507
  912MOL0     O25726   5.315   2.438   3.324 -0.0381  0.3178 -0.3056
  912MOL0     C25727   5.346   2.403   3.461 -0.0379  0.2529  0.2326
  912MOL0     C25728   5.317   2.262   3.480  0.8695 -0.1425 -0.2069
  912MOL0     C25729   5.180   2.219   3.420 -0.6979  0.5098  0.3858
  912MOL0     C25730   5.138   2.072   3.455 -0.1610 -0.7546  0.2989
  912MOL0     C25731   5.220   1.970   3.379 -0.3656  0.0898 -0.3063
  912MOL0     C25732   5.204   1.961   3.227  0.3735  0.2254  0.0459
  912MOL0     C25733   5.321   2.011   3.149  0.2790 -1.0899  0.6818
  912MOL0     C25734   5.293   2.044   3.004  1.2020 -1.2451 -0.1171
  912MOL0     N25735   5.272   1.922   2.932  0.0753 -0.7545 -0.0146
  912MOL0     C25736   5.161   1.878   2.855  0.4239  0.1899 -0.2498
  912MOL0     C25737   5.193   1.762   2.786  0.2093  0.5155 -0.2855
  912MOL0     C25738   5.107   1.675   2.698  0.1636  0.5421  0.5485
  912MOL0     C25739   4.965   1.655   2.758  0.3583 -0.4578  0.2686
  912MOL0     C25740   4.890   1.568   2.656  0.0002  0.7280  0.5788
  912MOL0     C25741   4.853   1.623   2.528  0.1683  0.0602  0.3885
  912MOL0     O25742   4.773   1.734   2.532  0.3037 -0.2336  0.4523
  912MOL0     C25743   4.644   1.717   2.566 -0.6983  0.0861 -0.2511
  912MOL0     C25744   4.571   1.597   2.584 -0.5161  0.0613 -0.1733
  912MOL0     C25745   4.439   1.588   2.620 -0.4686 -0.4715 -0.8136
  912MOL0     C25746   4.391   1.440   2.627 -0.1391 -0.1244 -0.2311
  912MOL0     C25747   4.366   1.701   2.618  1.2069  0.2434  0.6491
  912MOL0     C25748   4.216   1.694   2.628  0.1741 -0.1808 -0.0237
  912MOL0     O25749   4.168   1.805   2.674  0.3288 -0.1141 -0.0607
  912MOL0     C25750   4.041   1.805   2.711  0.1217 -0.3586 -0.0324
  912MOL0     C25751   3.934   1.817   2.627  0.2743 -0.0413  0.2373
  912MOL0     C25752   3.797   1.797   2.657 -0.2049  0.7635 -0.8672
  912MOL0     C25753   3.762   1.769   2.793 -0.5895 -0.4058  0.7262
  912MOL0     O25754   3.634   1.754   2.829 -0.3341 -0.0830  0.4771
  912MOL0     C25755   3.607   1.659   2.931  0.5543  0.0448 -0.4109
  912MOL0     C25756   3.623   1.504   2.900 -0.1468  0.3638 -0.0531
  912MOL0     C25757   3.608   1.428   3.026 -0.1333  1.4661 -1.0907
  912MOL0     C25758   3.604   1.275   2.996 -0.7131 -0.5760 -0.1591
  912MOL0     C25759   3.610   1.181   3.121 -0.0491 -0.4022 -0.6161
  912MOL0     C25760   3.487   1.171   3.200  0.0527 -0.0398 -0.4198
  912MOL0     C25761   3.495   1.053   3.301 -0.3129  0.5971  1.1186
  912MOL0     C25762   3.524   1.099   3.446  0.3874  0.1782  0.9017
  912MOL0    Cl25763   3.667   1.193   3.459 -0.2985 -0.2326 -0.2876
  912MOL0     C25764   3.873   1.751   2.880 -0.3291  0.0757  0.2837
  912MOL0     C25765   4.007   1.771   2.845  0.6150  0.8512  0.1835
  912MOL0     O25766   4.152   1.608   2.568 -0.1744  0.6273 -0.2160
  912MOL0     C25767   4.423   1.824   2.599  0.2242 -0.3101  0.3683
  912MOL0     C25768   4.563   1.831   2.570 -0.9761  0.1213 -0.4559
  912MOL0     N25769   5.321   1.733   2.837  0.1409 -0.0338  0.3038
  912MOL0     N25770   5.368   1.819   2.911 -0.1211 -0.2618 -0.6018
  912MOL0     C25771   5.362   2.580   3.137 -1.0019 -0.3926  0.7501
  912MOL0     C25772   5.372   2.710   3.079 -0.5941  0.0609  0.0998
  912MOL0     C25773   5.541   3.104   3.035 -0.6030 -0.5648 -0.0042
  912MOL0     C25774   5.562   3.037   2.911  0.3983  0.1249  0.5890
  912MOL0     C25775   5.653   3.095   2.821 -0.4404  0.5855  0.2872
  912MOL0     C25776   5.721   3.211   2.847  1.0439 -0.8876  0.4127
  912MOL0     O25777   5.824   3.239   2.755 -0.0885 -0.1237 -1.0434
  912MOL0     C25778   5.930   3.329   2.804  0.2501  0.0396 -0.9517
  912MOL0     C25779   6.062   3.290   2.742  1.2839 -0.5804  0.2511
  912MOL0     C25780   6.074   3.323   2.591  0.2401  0.0442 -0.3700
  912MOL0     C25781   6.203   3.260   2.527 -0.0549  0.1644 -0.3016
  912MOL0     C25782   6.322   3.289   2.608 -0.8811 -0.0825 -0.3466
  912MOL0     C25783   6.408   3.280   2.695 -0.8172 -0.6110 -0.6224
  912MOL0     C25784   5.685   3.283   2.956 -0.1903 -0.4733 -0.4855
  912MOL0     C25785   5.598   3.238   3.048  0.5127  0.2299  0.1766
  912MOL0     C25786   5.560   3.335   3.162 -0.0256  0.3690 -0.7763
  912MOL0     H25787   5.396   2.886   3.369 -1.6774  0.3897 -0.1107
  912MOL0     H25788   5.343   2.672   3.469 -1.8041 -1.4232 -0.2055
  912MOL0     H25789   5.293   2.464   3.535 -0.2416  0.5822 -0.1797
  912MOL0     H25790   5.452   2.428   3.473  0.7832 -2.0656 -1.5834
  912MOL0     H25791   5.388   2.184   3.449  0.0516 -2.1328  2.5776
  912MOL0     H25792   5.301   2.251   3.587  0.4893 -0.6916 -0.3177
  912MOL0     H25793   5.103   2.284   3.462 -2.0939  0.2776 -1.6901
  912MOL0     H25794   5.183   2.234   3.312  3.2478 -1.9969 -0.0630
  912MOL0     H25795   5.151   2.064   3.563  1.2855 -3.8253 -0.0093
  912MOL0     H25796   5.033   2.075   3.424 -0.9513 -1.1169  2.7344
  912MOL0     H25797   5.175   1.877   3.415 -1.0479  0.4154 -0.2947
  912MOL0     H25798   5.328   1.968   3.397  0.1391  2.0039 -2.5377
  912MOL0     H25799   5.194   1.854   3.210  1.0589  0.3091 -0.9877
  912MOL0     H25800   5.108   2.005   3.200  0.5712 -0.4140 -1.7890
  912MOL0     H25801   5.406   1.942   3.161 -0.8261 -2.4712  0.8716
  912MOL0     H25802   5.355   2.105   3.193  0.6041 -2.1961  2.9693
  912MOL0     H25803   5.196   2.093   2.995  1.6326 -0.4985 -0.7722
  912MOL0     H25804   5.366   2.110   2.957 -1.0222  1.4467 -0.0164
  912MOL0     H25805   5.065   1.927   2.844  0.6834  0.7233 -0.1930
  912MOL0     H25806   5.165   1.582   2.692  1.6598  1.3164  2.1780
  912MOL0     H25807   5.098   1.713   2.596 -0.8568 -2.2158 -0.4979
  912MOL0     H25808   4.965   1.600   2.853 -1.1099 -1.6433 -0.3778
  912MOL0     H25809   4.917   1.753   2.769  0.7045 -0.0086 -1.8217
  912MOL0     H25810   4.965   1.491   2.636  2.1034  2.2032  2.2583
  912MOL0     H25811   4.795   1.527   2.690  0.0206  0.3890  0.2318
  912MOL0     H25812   4.938   1.633   2.459  0.2709 -3.1144 -0.1244
  912MOL0     H25813   4.801   1.540   2.479  1.8579 -1.3396  0.8363
  912MOL0     H25814   4.625   1.505   2.562  0.2982  0.6260 -0.5837
  912MOL0     H25815   4.310   1.414   2.696 -0.0580 -2.2593 -0.8441
  912MOL0     H25816   4.474   1.375   2.658  1.5882  1.9469 -0.3382
  912MOL0     H25817   4.349   1.407   2.532 -0.6685 -0.9185  0.2553
  912MOL0     H25818   3.963   1.823   2.522  1.0243  3.7828  0.5096
  912MOL0     H25819   3.719   1.792   2.581 -2.0036 -1.2129  0.9509
  912MOL0     H25820   3.664   1.686   3.020 -0.4847  1.1396 -0.0463
  912MOL0     H25821   3.502   1.679   2.955  0.3979 -0.9815 -0.2211
  912MOL0     H25822   3.551   1.473   2.823  0.1985  3.3091 -1.7175
  912MOL0     H25823   3.723   1.491   2.857  1.7306  2.4044  3.2734
  912MOL0     H25824   3.517   1.451   3.083 -0.6704 -0.9625 -0.8232
  912MOL0     H25825   3.692   1.444   3.093 -0.5361 -2.7391  0.7284
  912MOL0     H25826   3.679   1.246   2.922 -0.6490  0.7630 -0.6451
  912MOL0     H25827   3.515   1.250   2.937 -0.7988 -1.3430  0.2738
  912MOL0     H25828   3.636   1.082   3.082 -0.0221 -0.4339 -0.5182
  912MOL0     H25829   3.688   1.209   3.193  2.1584  0.4297 -3.1518
  912MOL0     H25830   3.403   1.163   3.129  0.7915 -0.3420 -1.2742
  912MOL0     H25831   3.485   1.265   3.257  2.2601 -0.1496 -0.0843
  912MOL0     H25832   3.571   0.983   3.265  0.1584  3.0962 -3.5582
  912MOL0     H25833   3.400   1.001   3.319 -1.5426  2.4498  0.3725
  912MOL0     H25834   3.540   1.018   3.517 -2.3631  0.4327  1.9138
  912MOL0     H25835   3.445   1.165   3.484  0.9342  0.7722  1.0456
  912MOL0     H25836   3.856   1.722   2.983 -1.1704 -2.0385 -0.3960
  912MOL0     H25837   4.072   1.753   2.930  1.3648  2.7224  0.0698
  912MOL0     H25838   4.368   1.918   2.598 -0.0687 -0.4830 -0.2439
  912MOL0     H25839   4.608   1.927   2.548  2.2236 -1.1853 -0.2164
  912MOL0     H25840   5.368   2.491   3.074 -1.4091 -0.5024  0.8662
  912MOL0     H25841   5.386   2.725   2.973  4.6865  3.3898  0.9386
  912MOL0     H25842   5.523   2.937   2.896  2.0276 -0.4789  0.1044
  912MOL0     H25843   5.676   3.042   2.728 -0.1561 -0.2147  0.8024
  912MOL0     H25844   5.885   3.425   2.778 -0.2163 -0.2910 -1.4158
  912MOL0     H25845   5.943   3.330   2.912  3.8732 -0.2405 -1.2645
  912MOL0     H25846   6.061   3.181   2.749  0.0510 -0.6363 -0.4165
  912MOL0     H25847   6.148   3.338   2.791  1.5174 -0.8481  0.1020
  912MOL0     H25848   5.984   3.298   2.534 -1.1157 -0.9690  2.0282
  912MOL0     H25849   6.074   3.432   2.581 -4.8554  0.4027  0.3995
  912MOL0     H25850   6.217   3.306   2.429  0.5610 -1.1117 -0.8401
  912MOL0     H25851   6.198   3.151   2.514 -1.3074  0.2623 -0.7114
  912MOL0     H25852   6.494   3.278   2.758 -0.5734 -1.6850 -0.9757
  912MOL0     H25853   5.722   3.385   2.963  0.8485 -0.7955 -1.0935
  912MOL0     H25854   5.484   3.411   3.144 -2.3477 -2.1179 -2.2627
  912MOL0     H25855   5.543   3.279   3.254  0.1835  1.1049 -0.2861
  912MOL0     H25856   5.650   3.391   3.187  1.2807 -2.8719  2.8484
  913MOL0     O25857  10.049   7.925   4.945 -0.2609 -0.0872 -0.1509
  913MOL0     C25858  10.072   8.038   4.904 -0.4686 -1.0280  0.3499
  913MOL0     O25859  10.183   8.113   4.936 -0.4385 -0.3166  0.4782
  913MOL0     C25860  10.268   8.086   5.039 -0.2485  0.0495 -0.1223
  913MOL0     C25861  10.400   8.133   5.027  0.4391 -0.9077  0.6600
  913MOL0     C25862  10.500   8.092   5.112  0.0761 -0.4517 -0.2381
  913MOL0     C25863  10.471   8.011   5.216  0.5124 -0.5801 -1.0818
  913MOL0     O25864  10.577   7.979   5.303 -1.0244  0.3230  0.1402
  913MOL0     C25865  10.558   7.947   5.438 -0.0384 -0.1171  0.9426
  913MOL0     C25866  10.670   7.969   5.532 -0.7524  0.3716 -0.0576
  913MOL0     C25867  10.780   7.874   5.500  0.6491 -0.1581 -0.5313
  913MOL0     C25868  10.915   7.935   5.545 -0.7635 -0.3432  0.0420
  913MOL0     C25869  11.014   7.827   5.529 -0.5508  0.7337  0.7412
  913MOL0     C25870  11.145   7.871   5.570  0.2543  0.5769  0.8551
  913MOL0     C25871  11.245   7.753   5.559  0.4311  0.9450 -0.2930
  913MOL0     C25872  11.388   7.784   5.598 -0.7423 -0.5370 -0.1180
  913MOL0     N25873  11.415   7.750   5.745  0.1099  0.6512  0.3520
  913MOL0     C25874  11.424   7.619   5.791 -0.1299 -0.6532  0.1445
  913MOL0     C25875  11.424   7.635   5.924  0.2320  1.3410 -0.3767
  913MOL0     C25876  11.445   7.520   6.015  0.5998 -1.0722 -0.1528
  913MOL0     C25877  11.433   7.552   6.164 -1.2292  0.0371  0.2097
  913MOL0     C25878  11.562   7.638   6.198  0.0745 -0.2611  0.4459
  913MOL0     C25879  11.623   7.592   6.335  0.1237  0.8607 -0.7245
  913MOL0     O25880  11.615   7.451   6.369 -0.3820  0.1759  0.4480
  913MOL0     C25881  11.696   7.367   6.300 -0.3333 -0.2373  0.0982
  913MOL0     C25882  11.679   7.241   6.357 -0.0595 -0.3251 -1.0871
  913MOL0     C25883  11.759   7.134   6.325 -0.2869  0.0243  0.2393
  913MOL0     C25884  11.727   6.995   6.403  0.0350 -0.2601 -0.2969
  913MOL0     C25885  11.849   7.146   6.214 -0.8998 -0.9044  0.2868
  913MOL0     C25886  11.948   7.033   6.165  0.3257 -0.1924 -0.1933
  913MOL0     O25887  12.046   7.059   6.074  0.4747 -0.7854  0.6710
  913MOL0     C25888  12.141   6.978   6.030 -0.2730 -0.1759 -0.3456
  913MOL0     C25889  12.156   6.848   6.042  0.6439  0.0404 -0.7743
  913MOL0     C25890  12.265   6.783   5.984 -0.2062  0.7692 -0.0524
  913MOL0     C25891  12.365   6.846   5.909 -0.3505 -0.2351  0.6296
  913MOL0     O25892  12.470   6.770   5.866  0.0492 -0.3541  0.0182
  913MOL0     C25893  12.590   6.837   5.832  0.3088 -0.8218 -0.8647
  913MOL0     C25894  12.706   6.739   5.839  0.2537  1.1588  0.5175
  913MOL0     C25895  12.715   6.651   5.714 -0.5862  0.7166 -0.2367
  913MOL0     C25896  12.835   6.570   5.724  0.2262  0.5448 -0.5360
  913MOL0     C25897  12.854   6.483   5.600 -0.2932 -0.0182 -0.3968
  913MOL0     C25898  13.002   6.442   5.592  0.7437 -0.1318 -0.0123
  913MOL0     C25899  13.099   6.559   5.556  0.4107  0.2921  0.3821
  913MOL0     C25900  13.243   6.528   5.590 -0.8313 -0.1871 -0.5592
  913MOL0    Cl25901  13.265   6.464   5.742  0.0163 -0.4602 -0.3014
  913MOL0     C25902  12.356   6.987   5.902 -0.4616  0.3422 -0.0674
  913MOL0     C25903  12.243   7.048   5.961  0.0619 -0.2021 -0.3064
  913MOL0     O25904  11.931   6.924   6.218 -0.5078  0.6071  0.1439
  913MOL0     C25905  11.856   7.271   6.152 -0.1294  0.5517 -0.9980
  913MOL0     C25906  11.786   7.383   6.197  0.5859  0.7754  0.3625
  913MOL0     N25907  11.423   7.764   5.960  0.5655  0.5485  0.3026
  913MOL0     N25908  11.427   7.841   5.847  0.6932  0.6578  0.4347
  913MOL0     C25909  10.344   7.968   5.233  0.2538 -0.7308  0.9147
  913MOL0     C25910  10.247   8.005   5.146 -0.4072  1.5796  0.3512
  913MOL0     C25911   9.984   8.097   4.804  0.2059 -0.2001  0.3210
  913MOL0     C25912   9.848   8.077   4.827  0.2932 -0.1640  0.0319
  913MOL0     C25913   9.756   8.118   4.730  0.2287 -0.9724  0.0816
  913MOL0     C25914   9.793   8.189   4.620 -0.4713  0.6816 -0.0122
  913MOL0     O25915   9.685   8.228   4.542  0.3093  0.7406 -0.2635
  913MOL0     C25916   9.702   8.218   4.405  0.9093  0.1116 -0.0680
  913MOL0     C25917   9.732   8.070   4.360  0.7716  0.4383 -1.7700
  913MOL0     C25918   9.782   8.086   4.219  0.4904  0.9784  0.8993
  913MOL0     C25919   9.802   7.949   4.154  0.1559  0.7662 -0.1922
  913MOL0     C25920   9.675   7.891   4.103 -0.3459 -0.5456  0.5677
  913MOL0     C25921   9.585   7.835   4.054  1.0552  0.0032  0.9051
  913MOL0     C25922   9.928   8.211   4.594  0.3295  0.1052  0.1754
  913MOL0     C25923  10.020   8.167   4.688 -0.1548  0.1375 -1.2802
  913MOL0     C25924  10.164   8.188   4.661 -0.8239  0.4033 -0.7487
  913MOL0     H25925  10.422   8.185   4.934 -0.4247  1.0304  1.4998
  913MOL0     H25926  10.603   8.120   5.094  0.4426 -1.9453 -0.6890
  913MOL0     H25927  10.512   7.848   5.448  0.6013 -0.3470  1.6722
  913MOL0     H25928  10.477   8.013   5.472 -0.2518 -0.6386  1.4810
  913MOL0     H25929  10.697   8.074   5.518 -2.0518  0.4080 -2.9743
  913MOL0     H25930  10.645   7.950   5.637  1.4277 -0.0685  0.4331
  913MOL0     H25931  10.767   7.777   5.550  0.3664  0.5864  0.9089
  913MOL0     H25932  10.778   7.862   5.392 -0.5719  3.3717 -1.0109
  913MOL0     H25933  10.949   8.019   5.483  3.9966  0.8652  3.6628
  913MOL0     H25934  10.902   7.976   5.645 -2.1171  2.4631 -1.1826
  913MOL0     H25935  11.009   7.803   5.423 -3.7142  0.2611  0.8934
  913MOL0     H25936  10.994   7.732   5.579  0.8641  1.0460  1.9666
  913MOL0     H25937  11.186   7.956   5.514  1.6838  0.9255  2.3344
  913MOL0     H25938  11.133   7.907   5.672 -3.7700 -0.4297  0.8725
  913MOL0     H25939  11.241   7.710   5.459 -0.1479 -0.0110  0.1276
  913MOL0     H25940  11.207   7.666   5.614  0.6980  0.5884 -0.6696
  913MOL0     H25941  11.446   7.719   5.532  0.1330  1.1902 -1.1388
  913MOL0     H25942  11.415   7.885   5.564  0.1270 -0.8461 -0.3579
  913MOL0     H25943  11.436   7.526   5.736 -0.0810 -1.8982  2.1705
  913MOL0     H25944  11.542   7.471   5.999  1.5685  0.6601  0.0826
  913MOL0     H25945  11.375   7.443   5.984 -0.4243 -0.4314  0.5016
  913MOL0     H25946  11.345   7.611   6.193 -0.9883  1.2377 -1.3550
  913MOL0     H25947  11.444   7.456   6.215 -3.3707  1.6793  4.2344
  913MOL0     H25948  11.635   7.632   6.116 -1.9306  3.4950 -1.9412
  913MOL0     H25949  11.536   7.744   6.211  0.4908 -0.0689 -0.2266
  913MOL0     H25950  11.728   7.621   6.343 -0.2109  1.8000  0.6694
  913MOL0     H25951  11.573   7.650   6.413 -1.8776  2.9238 -3.3910
  913MOL0     H25952  11.604   7.229   6.434  0.3651  1.5362 -0.3439
  913MOL0     H25953  11.818   6.962   6.453  1.5431  4.3047  0.4747
  913MOL0     H25954  11.692   6.913   6.340  1.2683 -0.0339 -1.3062
  913MOL0     H25955  11.650   7.004   6.480 -1.6908 -0.3821 -1.9408
  913MOL0     H25956  12.078   6.800   6.100  2.8421 -0.3077  2.0526
  913MOL0     H25957  12.272   6.677   6.006 -0.2729  1.2524  2.5359
  913MOL0     H25958  12.591   6.875   5.729  0.0730 -2.5627 -1.5362
  913MOL0     H25959  12.604   6.920   5.902  0.0406 -1.1187 -0.4548
  913MOL0     H25960  12.798   6.797   5.849  1.4730 -0.6331  0.3185
  913MOL0     H25961  12.703   6.674   5.927 -0.6462 -0.6746 -0.7873
  913MOL0     H25962  12.716   6.718   5.628 -1.8138  0.4850 -0.4583
  913MOL0     H25963  12.625   6.588   5.712  0.8643 -1.5686  1.6136
  913MOL0     H25964  12.826   6.497   5.805  0.9305  1.3627  0.2995
  913MOL0     H25965  12.913   6.645   5.741 -1.5902  2.1474  1.2609
  913MOL0     H25966  12.790   6.396   5.618  0.2730 -1.0394 -2.9034
  913MOL0     H25967  12.810   6.534   5.514 -0.2787  3.7837  1.6049
  913MOL0     H25968  13.020   6.369   5.513 -1.7934 -1.5819  0.6530
  913MOL0     H25969  13.018   6.396   5.690  0.0059 -1.1691 -0.3642
  913MOL0     H25970  13.069   6.649   5.612  0.2998  0.5732 -0.1251
  913MOL0     H25971  13.087   6.586   5.451 -1.6793  0.0146  0.4895
  913MOL0     H25972  13.303   6.619   5.587 -0.1353 -0.5786  0.9672
  913MOL0     H25973  13.284   6.467   5.509 -1.0954 -0.1442 -0.7263
  913MOL0     H25974  12.429   7.057   5.864 -0.6958 -0.2045 -1.5855
  913MOL0     H25975  12.236   7.155   5.940  0.1047 -0.1606 -0.1081
  913MOL0     H25976  11.932   7.300   6.080 -1.4435  0.5395 -2.4245
  913MOL0     H25977  11.823   7.465   6.134  2.4091 -0.7887 -0.7183
  913MOL0     H25978  10.311   7.898   5.309 -0.9684 -0.9323  0.2276
  913MOL0     H25979  10.144   7.974   5.158 -0.4769  1.4719 -0.4375
  913MOL0     H25980   9.804   8.024   4.911  0.9680 -0.9978 -0.1395
  913MOL0     H25981   9.652   8.091   4.743  0.0122  0.3645  1.6151
  913MOL0     H25982   9.614   8.246   4.345 -0.3663 -0.8927  1.2524
  913MOL0     H25983   9.773   8.293   4.370  0.0215  1.2539  0.4687
  913MOL0     H25984   9.639   8.013   4.364  0.5251  0.9183  0.4782
  913MOL0     H25985   9.794   8.004   4.421  1.1244  0.3786 -2.1887
  913MOL0     H25986   9.700   8.135   4.166 -2.4482 -3.3858  0.8981
  913MOL0     H25987   9.874   8.144   4.231  1.0745  0.1554  0.5382
  913MOL0     H25988   9.851   7.877   4.220  1.8512 -0.5731 -2.7611
  913MOL0     H25989   9.871   7.958   4.070 -1.9858  3.3463 -1.8464
  913MOL0     H25990   9.506   7.775   4.013  1.8944  1.4305 -3.2041
  913MOL0     H25991   9.964   8.264   4.507 -1.8497  0.6445 -0.4646
  913MOL0     H25992  10.219   8.250   4.733  0.0507  0.1112 -1.1491
  913MOL0     H25993  10.213   8.091   4.663 -1.8880 -0.1487 -0.9823
  913MOL0     H25994  10.180   8.244   4.568  1.3652  1.6437  0.2836
  914MOL0     O25995   7.902  11.013   4.088 -0.3175  0.1729 -0.7983
  914MOL0     C25996   7.852  10.901   4.091  0.1247 -0.2008 -0.1732
  914MOL0     O25997   7.920  10.782   4.069 -0.8483  0.4295 -0.6642
  914MOL0     C25998   8.058  10.775   4.055  1.1412  0.9581  0.5004
  914MOL0     C25999   8.104  10.655   4.008  0.1822  0.6607 -1.0196
  914MOL0     C26000   8.240  10.637   3.980 -0.2146 -0.2167 -0.7267
  914MOL0     C26001   8.328  10.744   4.000  0.4043 -0.0363  0.4193
  914MOL0     O26002   8.462  10.742   3.975 -0.3542  0.9265  0.0970
  914MOL0     C26003   8.509  10.629   3.905 -0.3145  0.9409 -0.7803
  914MOL0     C26004   8.656  10.630   3.898 -0.6750 -0.1695  0.3003
  914MOL0     C26005   8.726  10.594   3.765 -1.1268  0.2197  0.2381
  914MOL0     C26006   8.697  10.697   3.655  0.5292 -0.1280  0.1872
  914MOL0     C26007   8.763  10.681   3.521 -1.3440 -0.0482  0.5455
  914MOL0     C26008   8.912  10.719   3.548  1.0762 -0.3802 -0.1248
  914MOL0     C26009   8.994  10.721   3.425 -0.5101  0.6570 -0.1760
  914MOL0     C26010   9.143  10.692   3.452  0.3943 -0.0580  1.0377
  914MOL0     N26011   9.228  10.736   3.337 -0.3650  0.4575 -0.2416
  914MOL0     C26012   9.293  10.855   3.325  0.4226 -0.0875  1.0918
  914MOL0     C26013   9.343  10.855   3.201  0.4736  0.1492  0.2599
  914MOL0     C26014   9.444  10.957   3.140 -0.0878  0.5698 -1.3857
  914MOL0     C26015   9.574  10.990   3.208  0.9580 -0.5323  0.8746
  914MOL0     C26016   9.557  11.041   3.356  0.6988 -0.1635  0.0029
  914MOL0     C26017   9.685  11.103   3.406 -0.2512 -0.3594 -0.0270
  914MOL0     O26018   9.730  11.215   3.328 -0.4756 -0.9530  0.7987
  914MOL0     C26019   9.844  11.281   3.347 -0.4139  0.6704  0.9120
  914MOL0     C26020   9.853  11.410   3.300 -0.5698 -0.4387  0.2689
  914MOL0     C26021   9.968  11.492   3.292 -0.0912 -0.1022 -0.5045
  914MOL0     C26022   9.954  11.626   3.225 -0.1765 -0.1348 -0.6396
  914MOL0     C26023  10.086  11.438   3.354  0.1920  0.7433 -0.3443
  914MOL0     C26024  10.209  11.517   3.358 -0.1765  1.1674  0.2470
  914MOL0     O26025  10.291  11.476   3.459 -0.2179  0.3804 -0.0364
  914MOL0     C26026  10.421  11.510   3.458  1.0358 -0.0821  0.5353
  914MOL0     C26027  10.509  11.475   3.359  0.2025 -0.1513 -0.7040
  914MOL0     C26028  10.639  11.520   3.362 -0.0638  0.2964  0.3745
  914MOL0     C26029  10.694  11.590   3.464 -0.5137 -1.1350  0.0374
  914MOL0     O26030  10.826  11.640   3.483 -0.8580  0.6189 -0.1221
  914MOL0     C26031  10.892  11.664   3.359  0.5585  0.3286 -0.5200
  914MOL0     C26032  10.997  11.781   3.380 -1.0736 -0.5050 -0.0684
  914MOL0     C26033  11.115  11.733   3.471  1.0346  0.3218 -0.2682
  914MOL0     C26034  11.252  11.790   3.431  0.5413  0.1617  0.1978
  914MOL0     C26035  11.306  11.774   3.296  0.6977 -0.5299 -0.7549
  914MOL0     C26036  11.451  11.832   3.284 -0.1585  0.3819  0.6133
  914MOL0     C26037  11.506  11.812   3.139  0.2683 -0.3614 -0.0090
  914MOL0     C26038  11.645  11.868   3.124 -0.6176 -0.6012 -0.0648
  914MOL0    Cl26039  11.687  11.914   2.954  0.0679 -0.5372 -0.0631
  914MOL0     C26040  10.603  11.614   3.572  0.4096 -0.1213  0.4576
  914MOL0     C26041  10.466  11.580   3.571  0.1842 -0.2399  0.4193
  914MOL0     O26042  10.239  11.605   3.281 -0.8232  0.2540  0.1992
  914MOL0     C26043  10.083  11.306   3.403  0.2623 -0.2433  0.3999
  914MOL0     C26044   9.966  11.224   3.394  0.7241 -0.2002  0.8775
  914MOL0     N26045   9.312  10.728   3.143 -0.0882 -0.3728 -0.4013
  914MOL0     N26046   9.253  10.656   3.231 -0.1128  0.5245  0.4788
  914MOL0     C26047   8.281  10.860   4.054 -0.8250  0.1752 -0.0816
  914MOL0     C26048   8.145  10.876   4.089 -0.3541 -0.8034 -0.3782
  914MOL0     C26049   7.712  10.895   4.127 -0.4468 -0.1384  0.7237
  914MOL0     C26050   7.647  10.772   4.106  0.4957 -0.4965  0.3367
  914MOL0     C26051   7.520  10.741   4.145 -0.1866 -0.2468 -0.0211
  914MOL0     C26052   7.440  10.836   4.207  0.5788 -1.4890  0.8759
  914MOL0     O26053   7.307  10.816   4.241 -0.2073 -0.2354  0.2156
  914MOL0     C26054   7.234  10.919   4.317 -0.4266  0.1570 -0.7205
  914MOL0     C26055   7.171  11.019   4.210  0.9432 -0.0818 -0.1873
  914MOL0     C26056   7.100  10.939   4.096  0.3199 -0.0515 -0.3038
  914MOL0     C26057   7.012  11.015   3.996 -1.0922 -0.1478  0.2333
  914MOL0     C26058   6.897  11.064   4.077  0.1108  0.6494 -0.1047
  914MOL0     C26059   6.795  11.112   4.129  0.8727  0.5962  0.7773
  914MOL0     C26060   7.501  10.965   4.222 -0.0984  0.1342  0.0962
  914MOL0     C26061   7.632  11.002   4.183  0.0243  0.6971 -0.3450
  914MOL0     C26062   7.686  11.142   4.196 -0.3633  0.4312  0.2428
  914MOL0     H26063   8.027  10.579   4.000  1.0422 -0.3223 -0.2807
  914MOL0     H26064   8.268  10.535   3.955 -0.7349 -1.2969  2.5576
  914MOL0     H26065   8.467  10.642   3.804 -0.6643 -0.4195 -0.8295
  914MOL0     H26066   8.486  10.528   3.938  1.6417  1.3337  2.1599
  914MOL0     H26067   8.699  10.720   3.943  2.8422 -1.0741 -0.9121
  914MOL0     H26068   8.689  10.545   3.959 -0.8328 -0.8932 -0.5913
  914MOL0     H26069   8.834  10.588   3.784 -0.8730  0.7564 -0.9145
  914MOL0     H26070   8.691  10.495   3.737 -0.3433 -0.3512  1.1951
  914MOL0     H26071   8.593  10.713   3.626  0.7410 -2.6451 -2.4180
  914MOL0     H26072   8.716  10.795   3.701 -0.2141 -0.2045  0.6578
  914MOL0     H26073   8.722  10.758   3.454 -0.5757 -0.2215 -0.1352
  914MOL0     H26074   8.743  10.580   3.485  0.3629 -0.3503  0.3802
  914MOL0     H26075   8.913  10.812   3.605 -0.5269 -0.9522  0.8787
  914MOL0     H26076   8.949  10.643   3.617 -0.2908 -0.7567  0.2228
  914MOL0     H26077   8.974  10.822   3.385 -0.2611  2.1094  3.0926
  914MOL0     H26078   8.951  10.641   3.364  0.6282 -0.3201  0.2568
  914MOL0     H26079   9.190  10.744   3.536  0.9078  1.3991 -0.1044
  914MOL0     H26080   9.159  10.586   3.471 -1.4063 -1.1845 -2.7829
  914MOL0     H26081   9.300  10.940   3.393  1.6269 -0.0977  1.0052
  914MOL0     H26082   9.402  11.056   3.119  0.7133  0.5865 -3.1155
  914MOL0     H26083   9.474  10.920   3.042  1.5829  0.3463 -0.8224
  914MOL0     H26084   9.625  10.894   3.223 -2.6840 -2.8245  0.0500
  914MOL0     H26085   9.619  11.059   3.136 -1.1071  0.4077  0.3894
  914MOL0     H26086   9.480  11.116   3.375 -0.7444 -1.5021 -0.3590
  914MOL0     H26087   9.540  10.949   3.414 -2.8450 -0.8243 -1.8104
  914MOL0     H26088   9.681  11.124   3.513  0.9697 -2.9374  0.6046
  914MOL0     H26089   9.758  11.023   3.392 -0.1179 -0.2732  0.1853
  914MOL0     H26090   9.763  11.442   3.250 -0.5169 -2.0413 -0.9333
  914MOL0     H26091   9.863  11.684   3.247  0.5800  0.9499 -0.2505
  914MOL0     H26092   9.957  11.587   3.123 -1.4335 -0.3724 -0.6094
  914MOL0     H26093  10.030  11.701   3.248  0.5232 -0.7352 -0.9902
  914MOL0     H26094  10.466  11.412   3.282  0.6176  1.7902 -2.6179
  914MOL0     H26095  10.707  11.496   3.281  2.3849  0.1673  2.3592
  914MOL0     H26096  10.941  11.575   3.320 -3.0445 -0.4658 -3.9010
  914MOL0     H26097  10.818  11.690   3.283 -0.0761  0.2548  0.0631
  914MOL0     H26098  11.039  11.813   3.284 -0.3074 -1.9128 -0.2188
  914MOL0     H26099  10.949  11.862   3.436  1.5913 -0.3948  2.3205
  914MOL0     H26100  11.105  11.624   3.471 -1.8347  0.5199  0.1542
  914MOL0     H26101  11.087  11.765   3.572 -2.8494  3.7166 -2.1379
  914MOL0     H26102  11.322  11.760   3.510 -0.8655 -0.2008  1.3708
  914MOL0     H26103  11.230  11.895   3.453  2.0074  1.0785 -2.3482
  914MOL0     H26104  11.319  11.666   3.287 -0.4992 -1.0256  2.0797
  914MOL0     H26105  11.233  11.808   3.222 -2.3902 -1.1253  1.7958
  914MOL0     H26106  11.518  11.789   3.359  1.4175  1.4143 -0.1588
  914MOL0     H26107  11.439  11.939   3.301 -1.5014  0.5845 -1.2699
  914MOL0     H26108  11.435  11.856   3.069 -2.3163 -0.9121  2.1163
  914MOL0     H26109  11.509  11.705   3.117  0.4075 -0.2877 -0.3530
  914MOL0     H26110  11.710  11.786   3.155 -0.4872 -0.4452  0.0785
  914MOL0     H26111  11.667  11.953   3.189 -0.8327 -0.4314 -0.2090
  914MOL0     H26112  10.650  11.669   3.653 -1.7265  0.2041  1.5307
  914MOL0     H26113  10.403  11.613   3.653  1.7037 -0.4279  1.7186
  914MOL0     H26114  10.176  11.264   3.441  0.4701  0.1606  0.3438
  914MOL0     H26115   9.982  11.125   3.434  2.5198 -1.6220 -2.8653
  914MOL0     H26116   8.360  10.933   4.065  0.1087 -0.9265  0.7508
  914MOL0     H26117   8.119  10.972   4.131 -0.5286 -1.1693  0.3848
  914MOL0     H26118   7.706  10.693   4.061  0.4381 -0.0189 -0.6196
  914MOL0     H26119   7.482  10.639   4.147  0.5545 -0.6563  4.2530
  914MOL0     H26120   7.155  10.867   4.373 -1.0591 -0.5991 -2.2370
  914MOL0     H26121   7.298  10.974   4.387  0.7047 -1.8305 -0.1260
  914MOL0     H26122   7.248  11.084   4.166  2.5871 -0.0217  2.5254
  914MOL0     H26123   7.100  11.084   4.263 -0.2520 -2.5854  1.4508
  914MOL0     H26124   7.179  10.899   4.032  1.2885  1.2113  0.0476
  914MOL0     H26125   7.043  10.853   4.131 -2.8123  0.3388 -3.8211
  914MOL0     H26126   6.984  10.942   3.921 -2.3706  0.4887  0.0522
  914MOL0     H26127   7.056  11.098   3.940 -2.4642 -2.2147 -4.3052
  914MOL0     H26128   6.703  11.152   4.166 -1.2724 -2.2282 -1.0838
  914MOL0     H26129   7.449  11.043   4.278 -1.6807 -0.2352 -0.8001
  914MOL0     H26130   7.752  11.153   4.282 -1.0774 -0.7773  0.9863
  914MOL0     H26131   7.745  11.173   4.109 -0.1498  2.0198  0.9211
  914MOL0     H26132   7.608  11.217   4.213 -0.2668  0.6628 -0.3090
  915MOL0     O26133   2.663   0.321  11.366 -0.0293  0.5080 -0.0420
  915MOL0     C26134   2.745   0.353  11.278  1.2025 -0.4548 -0.1002
  915MOL0     O26135   2.714   0.434  11.168 -0.5103 -0.5450  0.1156
  915MOL0     C26136   2.582   0.484  11.147 -0.3755  0.8554  0.5050
  915MOL0     C26137   2.572   0.583  11.043 -0.2726  0.0522 -0.2622
  915MOL0     C26138   2.442   0.631  11.016  0.6107 -0.3712  0.6086
  915MOL0     C26139   2.327   0.608  11.091  0.0013  0.7705 -0.8156
  915MOL0     O26140   2.212   0.675  11.061  0.3272  0.0108  0.1973
  915MOL0     C26141   2.103   0.688  11.151 -0.0303  0.4239  0.6759
  915MOL0     C26142   2.004   0.785  11.076 -0.4195 -0.0813  0.5069
  915MOL0     C26143   1.941   0.719  10.954  0.2434 -0.3313 -1.1465
  915MOL0     C26144   1.846   0.600  10.994  0.2527  0.5885  1.0944
  915MOL0     C26145   1.727   0.584  10.896  0.1300  0.0054  0.3782
  915MOL0     C26146   1.776   0.588  10.749 -0.1187  0.0918  0.4721
  915MOL0     C26147   1.667   0.580  10.650 -0.3678  0.6389  0.0550
  915MOL0     C26148   1.704   0.584  10.496 -0.1497 -0.1311 -0.4296
  915MOL0     N26149   1.590   0.570  10.407  0.3357  1.0425  0.1789
  915MOL0     C26150   1.563   0.454  10.338  0.2585  0.0346  0.8911
  915MOL0     C26151   1.466   0.491  10.245 -0.5084 -1.5856 -0.8847
  915MOL0     C26152   1.412   0.400  10.142 -1.0904  0.0181 -0.1060
  915MOL0     C26153   1.285   0.332  10.196  0.5703  0.2618  0.4159
  915MOL0     C26154   1.226   0.215  10.111 -0.0907 -0.0048 -1.2407
  915MOL0     C26155   1.086   0.188  10.147  0.8300  0.6714  0.3921
  915MOL0     O26156   1.051   0.156  10.283 -0.7357 -0.1486 -0.4597
  915MOL0     C26157   0.926   0.166  10.332 -0.0313 -0.0081 -0.3516
  915MOL0     C26158   0.913   0.165  10.471  0.5595 -0.7446 -1.1029
  915MOL0     C26159   0.786   0.185  10.538 -0.0645 -0.1686  0.4905
  915MOL0     C26160   0.773   0.202  10.684  1.2664  0.3754 -0.2098
  915MOL0     C26161   0.670   0.194  10.459 -0.0309  0.2345  0.5392
  915MOL0     C26162   0.527   0.213  10.491 -0.1872  0.2164 -1.1541
  915MOL0     O26163   0.494   0.314  10.583 -0.3523 -0.6845  0.2914
  915MOL0     C26164   0.366   0.362  10.600 -0.2808 -0.8596 -0.5134
  915MOL0     C26165   0.276   0.397  10.496 -0.3418  0.4833  0.6846
  915MOL0     C26166   0.151   0.448  10.518 -0.3609  0.8984  0.6088
  915MOL0     C26167   0.107   0.481  10.645 -0.5604 -0.5629  0.5114
  915MOL0     O26168  -0.023   0.524  10.668 -0.4795 -0.5294  0.6327
  915MOL0     C26169  -0.124   0.485  10.576  0.0402 -0.5291  0.1124
  915MOL0     C26170  -0.259   0.499  10.646 -0.0331 -0.4147  0.2430
  915MOL0     C26171  -0.281   0.644  10.691  0.3236 -0.1949  0.2670
  915MOL0     C26172  -0.392   0.648  10.803 -0.6887  0.8012 -0.0867
  915MOL0     C26173  -0.464   0.783  10.823 -1.0557 -0.0708  0.0714
  915MOL0     C26174  -0.363   0.890  10.875 -0.1159 -0.1561  0.1794
  915MOL0     C26175  -0.430   1.022  10.884 -0.1113 -0.0871  0.8877
  915MOL0     C26176  -0.557   1.036  10.969 -0.8647 -0.2905  0.1810
  915MOL0    Cl26177  -0.636   1.191  10.949 -0.2056 -0.1496  0.1779
  915MOL0     C26178   0.201   0.469  10.749  0.0564  0.3809 -0.1511
  915MOL0     C26179   0.326   0.404  10.723 -0.2144 -0.4804 -0.1460
  915MOL0     O26180   0.446   0.139  10.434 -0.0350 -0.1154 -0.0964
  915MOL0     C26181   0.681   0.180  10.313  0.4189  0.5157 -0.6549
  915MOL0     C26182   0.808   0.164  10.253 -1.5144  0.6916 -0.6254
  915MOL0     N26183   1.419   0.619  10.274  0.2986 -0.4028 -0.8532
  915MOL0     N26184   1.498   0.661  10.375  0.1883 -0.4295  0.0451
  915MOL0     C26185   2.350   0.515  11.196  0.7238  0.1191  1.1176
  915MOL0     C26186   2.465   0.445  11.214 -0.2661  0.2642  1.2994
  915MOL0     C26187   2.893   0.319  11.295  0.6307  0.0064 -0.1400
  915MOL0     C26188   2.985   0.345  11.195  0.5090 -0.3187 -0.6271
  915MOL0     C26189   3.118   0.318  11.211  0.7077 -0.7868  0.3683
  915MOL0     C26190   3.165   0.248  11.321 -0.2485 -0.3879  0.7796
  915MOL0     O26191   3.293   0.222  11.354  0.5717 -0.1091  0.1817
  915MOL0     C26192   3.399   0.285  11.285 -0.1129  0.0839 -0.3845
  915MOL0     C26193   3.433   0.411  11.353 -0.4837 -0.7191  0.5201
  915MOL0     C26194   3.486   0.414  11.500  0.7282 -0.2942  0.0876
  915MOL0     C26195   3.640   0.391  11.513  0.7689 -0.4745  0.4699
  915MOL0     C26196   3.675   0.392  11.653  0.9595  0.6510 -0.3004
  915MOL0     C26197   3.704   0.383  11.763 -0.8696 -0.2459 -0.3920
  915MOL0     C26198   3.081   0.221  11.423  0.1423 -0.0157 -0.0233
  915MOL0     C26199   2.945   0.250  11.410 -0.0024 -0.7372  1.1834
  915MOL0     C26200   2.854   0.210  11.524  0.2616  0.2588  0.2602
  915MOL0     H26201   2.647   0.619  10.973 -2.2437 -0.6832 -2.9049
  915MOL0     H26202   2.429   0.708  10.941 -0.1050  2.4431  3.3879
  915MOL0     H26203   2.132   0.738  11.243 -0.8902  3.2199 -0.4667
  915MOL0     H26204   2.053   0.594  11.176 -0.6032  1.0045  1.7672
  915MOL0     H26205   1.930   0.814  11.151  0.4265  0.3283  1.2059
  915MOL0     H26206   2.060   0.874  11.046 -1.1546  0.2435  0.0931
  915MOL0     H26207   1.878   0.798  10.912 -0.2222 -0.6166 -0.9937
  915MOL0     H26208   2.015   0.684  10.881  1.8685 -0.3056  0.4056
  915MOL0     H26209   1.902   0.506  10.987  2.5499  1.9937 -2.3886
  915MOL0     H26210   1.799   0.606  11.093 -2.6415 -0.8884 -0.0527
  915MOL0     H26211   1.668   0.675  10.910 -0.1661 -0.3442  1.5228
  915MOL0     H26212   1.664   0.498  10.919 -0.1925 -0.3773 -1.7292
  915MOL0     H26213   1.845   0.670  10.727 -2.1104  2.1668  1.6066
  915MOL0     H26214   1.829   0.493  10.734 -2.0913 -1.3435  2.0147
  915MOL0     H26215   1.597   0.663  10.666  0.3495  0.8696  2.3057
  915MOL0     H26216   1.613   0.487  10.667 -1.0414  1.1501  0.7572
  915MOL0     H26217   1.749   0.682  10.478 -2.4296  1.0947  0.2161
  915MOL0     H26218   1.781   0.509  10.474 -2.9913 -2.4319 -3.7084
  915MOL0     H26219   1.618   0.361  10.336 -2.3209 -1.6266 -1.7674
  915MOL0     H26220   1.489   0.322  10.130 -1.9137 -0.7202 -0.7223
  915MOL0     H26221   1.408   0.447  10.044  3.6304  0.5899 -0.2791
  915MOL0     H26222   1.296   0.300  10.300  1.0319  0.5280  0.4498
  915MOL0     H26223   1.205   0.407  10.188  0.3882 -0.1154 -4.7824
  915MOL0     H26224   1.238   0.239  10.005  1.9873 -0.0698 -1.0507
  915MOL0     H26225   1.276   0.118  10.120 -1.5811 -0.6143  1.7533
  915MOL0     H26226   1.030   0.279  10.123  0.4574  0.1675 -0.7298
  915MOL0     H26227   1.041   0.112  10.082 -1.4515  1.3679  1.0746
  915MOL0     H26228   0.997   0.144  10.535 -2.4424 -1.1012  3.1601
  915MOL0     H26229   0.874   0.188  10.724  2.7179  0.6757 -3.4244
  915MOL0     H26230   0.698   0.141  10.734 -0.1980  3.9701  2.4198
  915MOL0     H26231   0.739   0.301  10.714  0.6592 -0.4199  1.9074
  915MOL0     H26232   0.309   0.394  10.393 -3.0001 -1.0073 -0.2046
  915MOL0     H26233   0.104   0.471  10.423  1.7191  0.4898 -0.5948
  915MOL0     H26234  -0.114   0.548  10.487 -3.1108  2.7482  1.7966
  915MOL0     H26235  -0.108   0.381  10.545 -1.0199 -0.4543 -0.7633
  915MOL0     H26236  -0.338   0.463  10.579 -1.4008  1.1221  0.9599
  915MOL0     H26237  -0.258   0.434  10.734 -2.4709  0.2222  0.8195
  915MOL0     H26238  -0.313   0.705  10.606  1.9251  0.0414 -0.1936
  915MOL0     H26239  -0.189   0.680  10.739  0.9031 -0.0352 -0.9332
  915MOL0     H26240  -0.347   0.627  10.901 -1.4208  3.7454  1.0056
  915MOL0     H26241  -0.467   0.570  10.788 -0.0791 -0.1838  1.6473
  915MOL0     H26242  -0.506   0.811  10.726  0.6496 -3.4841 -1.8566
  915MOL0     H26243  -0.541   0.770  10.899 -1.3271  0.6960 -0.0673
  915MOL0     H26244  -0.285   0.901  10.799 -1.8628  2.9846 -1.3566
  915MOL0     H26245  -0.315   0.864  10.970  1.6174 -0.7146 -0.8078
  915MOL0     H26246  -0.459   1.042  10.780  0.0182  1.5126  1.1425
  915MOL0     H26247  -0.358   1.100  10.909 -0.0005  0.0352  0.2223
  915MOL0     H26248  -0.512   1.031  11.069  1.1249  1.2994 -0.5582
  915MOL0     H26249  -0.632   0.957  10.962  0.5516 -1.5989 -1.0486
  915MOL0     H26250   0.180   0.496  10.852  2.4141  0.5513  0.3387
  915MOL0     H26251   0.381   0.403  10.816 -0.8892 -1.1054  0.2630
  915MOL0     H26252   0.590   0.193  10.255 -0.9757 -0.0335  1.2915
  915MOL0     H26253   0.816   0.165  10.145  2.0994 -0.9277 -0.5097
  915MOL0     H26254   2.267   0.490  11.261  2.0676 -0.0892  2.8522
  915MOL0     H26255   2.452   0.375  11.296  1.0912 -2.8957 -0.9663
  915MOL0     H26256   2.949   0.402  11.110 -0.5327 -0.1950 -0.1114
  915MOL0     H26257   3.181   0.364  11.135  0.6005  2.5173  2.0846
  915MOL0     H26258   3.489   0.226  11.302 -0.1144 -0.0896 -0.9526
  915MOL0     H26259   3.377   0.291  11.178 -1.0333 -0.8766 -0.2658
  915MOL0     H26260   3.343   0.474  11.349  0.6122  0.9883  1.6098
  915MOL0     H26261   3.504   0.463  11.289 -0.2444 -0.4995  0.9607
  915MOL0     H26262   3.456   0.506  11.551 -3.1502 -2.9642  3.2436
  915MOL0     H26263   3.425   0.340  11.554 -2.7827  2.2899  0.0485
  915MOL0     H26264   3.691   0.476  11.467  1.0156 -0.6809  0.3627
  915MOL0     H26265   3.673   0.294  11.474  0.9284 -0.6107  0.9468
  915MOL0     H26266   3.730   0.378  11.867 -2.4022 -0.0565  0.0141
  915MOL0     H26267   3.114   0.164  11.509  1.9274 -1.6290 -1.6546
  915MOL0     H26268   2.915   0.156  11.596  1.4631  2.0510  0.6650
  915MOL0     H26269   2.815   0.301  11.570 -1.3914  1.3187 -2.9335
  915MOL0     H26270   2.772   0.147  11.488  1.0775 -2.2396  2.4490
  916MOL0     O26271   2.630   4.066   4.218  0.8939 -0.1307  0.2785
  916MOL0     C26272   2.581   4.082   4.332 -0.2215 -0.3202  0.4282
  916MOL0     O26273   2.478   4.176   4.368 -0.2982 -0.1858 -0.3974
  916MOL0     C26274   2.393   4.243   4.284  1.0421  0.0289 -0.0369
  916MOL0     C26275   2.383   4.248   4.146 -0.1455  0.2660 -0.8918
  916MOL0     C26276   2.302   4.333   4.082 -0.5854 -0.2676  0.5392
  916MOL0     C26277   2.213   4.415   4.154  0.1285  0.3929 -0.0644
  916MOL0     O26278   2.103   4.485   4.111  0.5393  0.1738 -0.2429
  916MOL0     C26279   2.102   4.496   3.964  0.1024 -0.2917 -1.1301
  916MOL0     C26280   2.041   4.637   3.946 -0.0029  0.0710  0.1165
  916MOL0     C26281   2.002   4.658   3.800  0.2018 -0.2387  0.0476
  916MOL0     C26282   1.897   4.768   3.787  0.4643  0.7758  0.3157
  916MOL0     C26283   1.883   4.788   3.628 -0.6932 -0.0971  0.0103
  916MOL0     C26284   1.803   4.921   3.592 -0.2312  0.6364  0.3244
  916MOL0     C26285   1.720   4.977   3.717 -0.3025  1.7577  1.3598
  916MOL0     C26286   1.633   5.103   3.696 -0.9105  0.5529  0.5938
  916MOL0     N26287   1.659   5.195   3.808  0.0834 -0.5262  0.0074
  916MOL0     C26288   1.649   5.162   3.942 -0.2034 -0.4968  0.4352
  916MOL0     C26289   1.648   5.280   4.005 -0.0050  0.0569  0.8509
  916MOL0     C26290   1.621   5.310   4.151 -0.8289 -0.5934  0.1960
  916MOL0     C26291   1.558   5.188   4.235  0.6020  0.5494 -0.0448
  916MOL0     C26292   1.410   5.161   4.189 -1.2829 -0.3581  0.7264
  916MOL0     C26293   1.329   5.109   4.304 -0.5907 -0.0271  0.4002
  916MOL0     O26294   1.306   5.217   4.401  0.1858  0.0551 -0.5237
  916MOL0     C26295   1.279   5.184   4.540  0.5086  0.2956  0.6673
  916MOL0     C26296   1.227   5.065   4.580  0.3397 -0.1676 -0.7273
  916MOL0     C26297   1.212   5.032   4.714  0.1395  0.1646  0.7321
  916MOL0     C26298   1.151   4.888   4.734 -0.4331 -0.3286  0.2071
  916MOL0     C26299   1.233   5.128   4.810 -1.7762 -0.7784  0.5929
  916MOL0     C26300   1.212   5.115   4.955 -0.4514  0.4692 -0.4504
  916MOL0     O26301   1.280   5.219   5.023 -0.0931  0.9735  0.7436
  916MOL0     C26302   1.305   5.207   5.156 -0.5152 -0.5927 -0.0160
  916MOL0     C26303   1.358   5.088   5.224 -0.6210  0.2237 -0.2847
  916MOL0     C26304   1.387   5.087   5.364  0.0301 -0.6737 -0.4751
  916MOL0     C26305   1.384   5.204   5.440 -1.1136 -0.5203  0.3120
  916MOL0     O26306   1.434   5.218   5.562  0.4066 -0.3853 -0.1187
  916MOL0     C26307   1.455   5.104   5.648 -0.1278 -0.1062 -0.6418
  916MOL0     C26308   1.529   5.149   5.764  0.2485 -0.3029  0.3655
  916MOL0     C26309   1.586   5.033   5.831  0.1011 -0.8649  0.3546
  916MOL0     C26310   1.685   5.080   5.946  0.3708 -0.2414  0.2862
  916MOL0     C26311   1.700   4.964   6.045  0.3060  0.2566  0.8204
  916MOL0     C26312   1.770   5.005   6.176 -0.2865  0.2557 -0.0619
  916MOL0     C26313   1.897   5.093   6.145  0.4315 -0.3377 -0.1786
  916MOL0     C26314   1.990   5.106   6.264 -0.6522 -0.9293  0.5733
  916MOL0    Cl26315   2.154   5.156   6.216  0.1829  0.0875 -0.4608
  916MOL0     C26316   1.324   5.314   5.382  0.1253  0.2745 -0.3502
  916MOL0     C26317   1.287   5.318   5.247  0.4356 -0.3543 -0.8208
  916MOL0     O26318   1.155   5.026   5.012 -0.9114 -0.3753 -0.5336
  916MOL0     C26319   1.265   5.263   4.766 -0.4803  0.7647  0.2965
  916MOL0     C26320   1.298   5.281   4.631 -0.7615 -0.4400  0.4157
  916MOL0     N26321   1.680   5.382   3.913  0.6524  0.6811 -0.2151
  916MOL0     N26322   1.680   5.324   3.793 -0.5536 -0.1345 -0.0075
  916MOL0     C26323   2.242   4.429   4.285  0.0840  0.1827 -0.1366
  916MOL0     C26324   2.324   4.340   4.355  0.7092 -0.2752 -0.1139
  916MOL0     C26325   2.647   4.020   4.455  0.0121 -1.0751  1.0427
  916MOL0     C26326   2.569   4.020   4.573  0.5843 -0.4383  0.0074
  916MOL0     C26327   2.631   3.976   4.692 -0.1398 -0.2896  0.0371
  916MOL0     C26328   2.763   3.925   4.698 -1.1945 -0.4593  0.0750
  916MOL0     O26329   2.814   3.914   4.825 -0.3507 -0.1602  0.2413
  916MOL0     C26330   2.956   3.904   4.844 -0.6527  0.2460 -0.3000
  916MOL0     C26331   3.024   4.036   4.814  0.4207 -0.4055  0.5810
  916MOL0     C26332   3.174   4.020   4.824  0.0329  0.0780  0.3898
  916MOL0     C26333   3.228   4.153   4.777 -0.5506 -0.9129 -0.4782
  916MOL0     C26334   3.368   4.165   4.808 -0.1596  0.2615 -1.0122
  916MOL0     C26335   3.478   4.198   4.841  0.6977  0.2973 -0.1633
  916MOL0     C26336   2.837   3.925   4.573 -0.6873 -0.5039  0.1280
  916MOL0     C26337   2.776   3.957   4.451  0.0175 -0.5712  0.1462
  916MOL0     C26338   2.856   3.933   4.324  0.2548 -1.3799 -0.2854
  916MOL0     H26339   2.454   4.183   4.097 -0.2350 -0.6039  0.1019
  916MOL0     H26340   2.304   4.312   3.976  5.1653 -0.3367  0.3625
  916MOL0     H26341   2.038   4.420   3.916 -2.2630 -0.5150  2.0378
  916MOL0     H26342   2.202   4.496   3.920  1.0828  0.9247  0.9610
  916MOL0     H26343   1.953   4.640   4.010  0.0713 -1.4171  0.3122
  916MOL0     H26344   2.109   4.714   3.983  2.1187 -0.2801 -2.6513
  916MOL0     H26345   2.097   4.680   3.751 -0.5131  0.7124 -0.9845
  916MOL0     H26346   1.968   4.564   3.755  1.3684  0.6317 -2.8590
  916MOL0     H26347   1.799   4.748   3.830 -0.0604  4.0472  0.8735
  916MOL0     H26348   1.935   4.855   3.842  1.9913 -1.8225  3.7861
  916MOL0     H26349   1.851   4.696   3.579  2.4566 -1.7194  0.7007
  916MOL0     H26350   1.979   4.803   3.577 -0.6567 -0.7515 -0.1233
  916MOL0     H26351   1.868   4.998   3.550  1.9340 -1.0931  0.2818
  916MOL0     H26352   1.721   4.893   3.526 -0.8949  0.6373  1.1359
  916MOL0     H26353   1.803   5.012   3.779 -0.0549  2.2252  0.7723
  916MOL0     H26354   1.657   4.895   3.753 -1.3050  0.3481 -2.9481
  916MOL0     H26355   1.675   5.152   3.608  3.2322 -0.0097  2.0340
  916MOL0     H26356   1.527   5.079   3.696 -0.5074 -1.5327  2.0056
  916MOL0     H26357   1.631   5.062   3.981  0.5715 -0.6343  0.4421
  916MOL0     H26358   1.568   5.405   4.162  1.3535  0.7079  0.0384
  916MOL0     H26359   1.722   5.332   4.188 -0.8786  2.7516 -1.2818
  916MOL0     H26360   1.617   5.098   4.214  0.3395  0.9579 -3.0046
  916MOL0     H26361   1.559   5.196   4.344  0.2899  0.0781 -0.0045
  916MOL0     H26362   1.365   5.254   4.152  1.4850 -0.2800 -3.0322
  916MOL0     H26363   1.390   5.084   4.114 -2.1736  0.7790 -0.2658
  916MOL0     H26364   1.236   5.078   4.254  0.0250 -1.5472  0.1274
  916MOL0     H26365   1.373   5.024   4.358 -2.5746 -0.7007  1.0523
  916MOL0     H26366   1.185   5.001   4.502  0.4732 -1.4281  0.1965
  916MOL0     H26367   1.224   4.809   4.716  0.8809  0.7384  0.6929
  916MOL0     H26368   1.071   4.873   4.661 -0.3178 -0.3013  0.0752
  916MOL0     H26369   1.112   4.878   4.835 -1.0698  0.6564  0.0790
  916MOL0     H26370   1.374   4.998   5.165  0.6286  1.6891 -2.3044
  916MOL0     H26371   1.419   4.999   5.420  0.3247 -0.4274 -0.2539
  916MOL0     H26372   1.354   5.064   5.664 -0.8467  1.9925  0.3591
  916MOL0     H26373   1.507   5.021   5.599  1.4310 -0.9297  2.1591
  916MOL0     H26374   1.604   5.219   5.726 -2.0125  0.8951 -2.3255
  916MOL0     H26375   1.466   5.203   5.836  1.6229 -0.0610  1.4299
  916MOL0     H26376   1.649   4.985   5.755  0.7090 -2.4051  1.7754
  916MOL0     H26377   1.510   4.962   5.865 -2.0624  0.4760 -1.4539
  916MOL0     H26378   1.648   5.173   5.989 -1.1141  1.0080 -3.3520
  916MOL0     H26379   1.774   5.095   5.884 -0.5773 -1.8143 -1.5536
  916MOL0     H26380   1.602   4.921   6.069 -0.8302  1.4743 -1.3215
  916MOL0     H26381   1.759   4.881   6.008 -0.9035 -0.6498  0.8564
  916MOL0     H26382   1.800   4.909   6.219 -0.6570 -0.2170 -0.8181
  916MOL0     H26383   1.711   5.063   6.247  1.4095  4.6370 -1.9146
  916MOL0     H26384   1.869   5.187   6.098  1.2515 -1.7579 -3.8682
  916MOL0     H26385   1.947   5.035   6.067  1.6602  0.8038 -0.2792
  916MOL0     H26386   2.000   5.008   6.312 -0.0956 -0.6096  1.1219
  916MOL0     H26387   1.945   5.167   6.343  0.7284 -0.4077  0.9736
  916MOL0     H26388   1.284   5.395   5.441 -3.6843 -0.3462 -1.7878
  916MOL0     H26389   1.236   5.404   5.205 -1.8000 -0.4739  1.4412
  916MOL0     H26390   1.267   5.345   4.837 -2.5010 -1.1432  2.7566
  916MOL0     H26391   1.326   5.384   4.610  2.0469 -0.5640  2.9299
  916MOL0     H26392   2.189   4.500   4.349 -1.3247 -1.1188  0.1918
  916MOL0     H26393   2.334   4.350   4.462 -1.1251  0.7630  0.0167
  916MOL0     H26394   2.471   4.068   4.579  1.1364  0.8222 -0.7813
  916MOL0     H26395   2.567   3.976   4.780  1.5644 -0.2421  1.3338
  916MOL0     H26396   2.975   3.882   4.949 -1.6740 -0.1014 -0.1757
  916MOL0     H26397   2.993   3.825   4.779 -0.6248 -0.4083  0.4965
  916MOL0     H26398   2.991   4.119   4.877 -1.8921 -0.9489  0.1564
  916MOL0     H26399   3.000   4.073   4.714  0.5692 -0.8369  0.3808
  916MOL0     H26400   3.192   3.999   4.930 -1.3134 -1.6510  0.3087
  916MOL0     H26401   3.221   3.938   4.769  1.1181  2.0396 -1.8299
  916MOL0     H26402   3.175   4.236   4.826 -1.2400 -0.5728 -1.7403
  916MOL0     H26403   3.196   4.157   4.672 -3.9305  2.2434  0.4614
  916MOL0     H26404   3.582   4.198   4.864  0.6878  0.4295 -0.1167
  916MOL0     H26405   2.934   3.878   4.563 -0.4433  0.4500 -3.0504
  916MOL0     H26406   2.860   4.030   4.274 -0.6938 -1.1140  0.1154
  916MOL0     H26407   2.956   3.897   4.350  0.9128  1.1590  0.9446
  916MOL0     H26408   2.806   3.866   4.252  0.0227 -1.5297  0.0096
  917MOL0     O26409   8.420  11.075   2.998  0.3097  0.0549  0.0202
  917MOL0     C26410   8.516  11.037   3.060 -0.2683 -0.2974 -0.1198
  917MOL0     O26411   8.515  10.931   3.145  0.0082  0.2037  0.1078
  917MOL0     C26412   8.419  10.833   3.139  0.3228 -0.0156 -0.0775
  917MOL0     C26413   8.295  10.828   3.070 -0.1358 -0.2063 -0.5593
  917MOL0     C26414   8.217  10.716   3.081 -0.3069  0.8775  0.1332
  917MOL0     C26415   8.254  10.608   3.165  0.5287  0.1027 -0.1675
  917MOL0     O26416   8.193  10.484   3.180 -0.1867  0.8264 -0.5817
  917MOL0     C26417   8.052  10.496   3.160 -0.4712  0.2280 -0.0789
  917MOL0     C26418   7.974  10.384   3.227  0.3529  0.5498  0.6572
  917MOL0     C26419   8.014  10.246   3.161  0.1826 -0.0245 -0.5491
  917MOL0     C26420   7.900  10.140   3.177 -1.3430 -0.7765 -0.3907
  917MOL0     C26421   7.949  10.001   3.143 -0.7332 -0.6184  0.1050
  917MOL0     C26422   7.835   9.895   3.160  0.0538  0.1061 -0.8510
  917MOL0     C26423   7.886   9.752   3.158 -0.3102  0.0815 -0.0626
  917MOL0     C26424   7.777   9.643   3.202 -0.0054  0.5630 -0.6463
  917MOL0     N26425   7.763   9.635   3.349  0.6458 -0.0853  0.4190
  917MOL0     C26426   7.640   9.649   3.409  0.6076  0.1486 -0.0080
  917MOL0     C26427   7.662   9.608   3.540  0.7624 -0.6053  0.1327
  917MOL0     C26428   7.557   9.609   3.649 -0.4471  0.8970 -0.4021
  917MOL0     C26429   7.417   9.565   3.608  0.8730 -0.0920  0.8776
  917MOL0     C26430   7.304   9.641   3.681 -0.0336 -0.2194 -0.5921
  917MOL0     C26431   7.164   9.589   3.643  0.9296  0.5650  0.1071
  917MOL0     O26432   7.150   9.593   3.493 -0.2525 -0.9600  0.3307
  917MOL0     C26433   7.084   9.486   3.440  0.5638  0.9451 -0.4082
  917MOL0     C26434   7.110   9.447   3.304 -0.0319 -0.6229  0.1120
  917MOL0     C26435   7.040   9.340   3.246  0.0811 -0.1518 -0.2833
  917MOL0     C26436   7.078   9.297   3.107  0.4043  0.0232  0.3313
  917MOL0     C26437   6.943   9.268   3.326  0.3978  0.1185  0.1205
  917MOL0     C26438   6.871   9.149   3.277 -0.4836 -0.7629 -0.7876
  917MOL0     O26439   6.734   9.167   3.266 -0.6474  0.2653  0.4759
  917MOL0     C26440   6.658   9.055   3.244 -0.3131  0.1159  0.9115
  917MOL0     C26441   6.646   8.943   3.326  0.9303 -0.0966 -0.5218
  917MOL0     C26442   6.576   8.830   3.289  0.2967 -0.2600  0.0076
  917MOL0     C26443   6.503   8.821   3.165 -0.6818  1.0822 -0.2164
  917MOL0     O26444   6.446   8.703   3.122 -0.1793 -0.2138  0.3762
  917MOL0     C26445   6.305   8.703   3.144  0.1265 -0.6278 -1.1513
  917MOL0     C26446   6.272   8.591   3.244  0.7097  0.9602 -0.6962
  917MOL0     C26447   6.117   8.584   3.281 -0.5545 -0.3083  0.0695
  917MOL0     C26448   6.038   8.529   3.162  0.9118  0.1476  0.6391
  917MOL0     C26449   5.884   8.543   3.186  0.4728  0.1980 -1.0666
  917MOL0     C26450   5.824   8.447   3.085 -0.4384  0.0907  0.4109
  917MOL0     C26451   5.674   8.483   3.071  0.3384 -0.2344  0.2264
  917MOL0     C26452   5.585   8.436   3.186  0.6704  0.2011  0.1500
  917MOL0    Cl26453   5.626   8.508   3.349  0.3949  0.3131  0.2083
  917MOL0     C26454   6.507   8.938   3.084 -0.3112 -0.8650 -0.1373
  917MOL0     C26455   6.592   9.045   3.122 -0.2091 -0.2023 -0.2499
  917MOL0     O26456   6.931   9.047   3.248 -0.0407 -0.0770 -0.2688
  917MOL0     C26457   6.921   9.305   3.461  0.6551  0.8301 -0.8996
  917MOL0     C26458   6.993   9.409   3.512 -0.3149  0.3072 -0.0677
  917MOL0     N26459   7.789   9.556   3.556  0.2471  0.3449  0.2757
  917MOL0     N26460   7.850   9.580   3.441 -0.5826  0.2047  0.3044
  917MOL0     C26461   8.371  10.618   3.241  0.2776  0.1566  0.1252
  917MOL0     C26462   8.450  10.736   3.236 -0.4172 -0.2056  0.0859
  917MOL0     C26463   8.641  11.125   3.053  0.6808 -0.3060  0.2518
  917MOL0     C26464   8.631  11.245   2.974  0.0956  0.1895 -0.0848
  917MOL0     C26465   8.742  11.330   2.964 -0.2368 -0.0840  0.8212
  917MOL0     C26466   8.853  11.311   3.036  0.5965 -0.7602  0.0754
  917MOL0     O26467   8.965  11.391   3.040  0.9403  0.6572  0.3229
  917MOL0     C26468   8.963  11.502   2.959 -0.6125 -0.9735  0.2715
  917MOL0     C26469   9.097  11.561   3.003 -0.2962 -0.6951 -0.1909
  917MOL0     C26470   9.096  11.643   3.134 -0.1817  0.0824  0.3228
  917MOL0     C26471   9.229  11.714   3.157 -0.3310  0.4122 -0.2425
  917MOL0     C26472   9.223  11.791   3.286 -0.7050  0.5456  0.5575
  917MOL0     C26473   9.204  11.848   3.391 -0.6211 -1.1232  0.6241
  917MOL0     C26474   8.863  11.199   3.117  0.0025 -0.4069  0.6057
  917MOL0     C26475   8.763  11.102   3.119  0.7546  0.2110  0.1225
  917MOL0     C26476   8.787  10.975   3.204  0.3230  0.3685  0.3092
  917MOL0     H26477   8.276  10.910   3.001  2.8129  0.8188 -0.2852
  917MOL0     H26478   8.130  10.702   3.018  1.0009 -1.3385 -1.3426
  917MOL0     H26479   8.037  10.476   3.054  2.7187 -1.8278 -0.2732
  917MOL0     H26480   8.007  10.593   3.183  0.4338  0.2365  1.8343
  917MOL0     H26481   7.990  10.386   3.335 -0.0947  0.1052  0.7307
  917MOL0     H26482   7.869  10.404   3.204  0.4862  0.3742 -0.1570
  917MOL0     H26483   8.023  10.250   3.052  2.8631 -0.5461 -0.4111
  917MOL0     H26484   8.108  10.214   3.207 -1.4892 -0.2230  3.0589
  917MOL0     H26485   7.885  10.139   3.285  0.2282 -3.1809 -0.1187
  917MOL0     H26486   7.808  10.156   3.120  0.2011 -2.5269 -3.7014
  917MOL0     H26487   8.024   9.980   3.221 -1.9550  0.9583  1.7972
  917MOL0     H26488   7.990   9.991   3.042 -1.9439 -2.8806 -0.2238
  917MOL0     H26489   7.793   9.906   3.260  3.9548 -0.5630  1.0604
  917MOL0     H26490   7.764   9.897   3.076 -0.6683 -0.3756 -0.2638
  917MOL0     H26491   7.968   9.745   3.231  1.6097 -2.3074 -2.2358
  917MOL0     H26492   7.922   9.732   3.057 -1.4527  1.7520 -0.8411
  917MOL0     H26493   7.678   9.662   3.161  0.3837  2.6891 -0.6874
  917MOL0     H26494   7.818   9.545   3.174 -0.1290  0.6714 -1.2200
  917MOL0     H26495   7.546   9.682   3.365  0.4022 -0.5691 -0.1198
  917MOL0     H26496   7.542   9.704   3.702 -3.3142  0.7048 -0.6848
  917MOL0     H26497   7.594   9.535   3.721 -3.1206 -3.0256 -2.6892
  917MOL0     H26498   7.404   9.583   3.501 -1.4610  2.4210  1.4736
  917MOL0     H26499   7.403   9.459   3.628  3.5054  0.1675  5.4043
  917MOL0     H26500   7.319   9.633   3.789 -1.4554 -1.9503 -0.4840
  917MOL0     H26501   7.318   9.747   3.655 -3.0447  0.7116  1.1243
  917MOL0     H26502   7.156   9.487   3.681  2.3402  0.1408 -0.6563
  917MOL0     H26503   7.097   9.661   3.691  1.6709  1.5091 -0.2281
  917MOL0     H26504   7.180   9.511   3.252 -0.3861  0.9862  1.5042
  917MOL0     H26505   7.170   9.352   3.085  0.5015  0.4440  1.6751
  917MOL0     H26506   6.991   9.312   3.043  1.2481  0.6799 -0.6871
  917MOL0     H26507   7.092   9.189   3.103 -0.6505 -0.1155  0.0135
  917MOL0     H26508   6.702   8.959   3.417 -0.4538 -0.6668  0.4747
  917MOL0     H26509   6.571   8.742   3.352 -0.0431 -0.0258  0.3123
  917MOL0     H26510   6.258   8.801   3.158  2.2238  0.2581  0.1908
  917MOL0     H26511   6.261   8.679   3.047 -2.7783  0.8769 -0.3286
  917MOL0     H26512   6.301   8.498   3.195  1.6267 -1.3265  3.6616
  917MOL0     H26513   6.337   8.609   3.330  2.6971  1.0586 -2.1455
  917MOL0     H26514   6.078   8.686   3.290 -0.1594  0.6335 -5.4642
  917MOL0     H26515   6.104   8.519   3.368 -2.3581  0.9796  0.8320
  917MOL0     H26516   6.065   8.423   3.153  1.2405  0.3840 -3.0813
  917MOL0     H26517   6.071   8.584   3.073  0.2207 -0.4433 -0.0012
  917MOL0     H26518   5.862   8.514   3.289  2.7974 -1.9132 -1.0669
  917MOL0     H26519   5.864   8.649   3.167 -4.5247 -0.2135  0.4974
  917MOL0     H26520   5.832   8.346   3.125 -1.0282 -0.8615 -1.7367
  917MOL0     H26521   5.878   8.455   2.990 -0.4886 -2.0584  0.1654
  917MOL0     H26522   5.628   8.436   2.983 -0.4838 -4.4650  2.6399
  917MOL0     H26523   5.660   8.589   3.048  0.1380 -0.7971 -2.7199
  917MOL0     H26524   5.567   8.329   3.189 -0.8020  0.4408  0.6989
  917MOL0     H26525   5.492   8.488   3.163 -0.1668 -1.3746 -0.1439
  917MOL0     H26526   6.452   8.936   2.991  0.8550 -2.0286 -0.8279
  917MOL0     H26527   6.609   9.124   3.049 -0.6801  1.4523  1.3485
  917MOL0     H26528   6.874   9.242   3.536 -0.7106 -0.3459 -2.6650
  917MOL0     H26529   6.964   9.430   3.615  2.6271  0.8320  0.7355
  917MOL0     H26530   8.412  10.537   3.300  1.7100 -0.0278 -1.0592
  917MOL0     H26531   8.534  10.753   3.302 -1.2460  2.9452  0.4527
  917MOL0     H26532   8.550  11.273   2.909  0.0327  0.9165  0.2939
  917MOL0     H26533   8.730  11.412   2.894  3.2498  0.3961  0.6237
  917MOL0     H26534   8.965  11.470   2.855  1.6294  0.2521 -0.1182
  917MOL0     H26535   8.878  11.567   2.982 -1.1350 -1.0641 -1.2901
  917MOL0     H26536   9.136  11.628   2.925 -0.9302  3.0523  2.4577
  917MOL0     H26537   9.169  11.478   3.002 -1.7985 -2.2377 -4.6789
  917MOL0     H26538   9.019  11.719   3.125  0.0358  0.3526  0.7349
  917MOL0     H26539   9.100  11.576   3.220  0.1034 -0.5234 -0.1456
  917MOL0     H26540   9.255  11.784   3.077  3.1679 -0.4357  0.0134
  917MOL0     H26541   9.310  11.641   3.168  0.7459  1.5321 -0.5428
  917MOL0     H26542   9.190  11.888   3.489 -2.1384 -1.1061  0.4153
  917MOL0     H26543   8.947  11.185   3.184 -0.1587  1.6479  1.3142
  917MOL0     H26544   8.718  10.976   3.289  0.8608  2.5363  0.7629
  917MOL0     H26545   8.767  10.884   3.146 -3.8115  0.5000  1.2285
  917MOL0     H26546   8.886  10.969   3.250 -1.2246 -1.0420  3.8255
  918MOL0     O26547   3.730   9.242   2.646 -1.2277 -0.1004 -0.3616
  918MOL0     C26548   3.692   9.189   2.540 -0.1279 -0.6994 -0.3477
  918MOL0     O26549   3.769   9.174   2.425  0.2847 -0.5773  0.6868
  918MOL0     C26550   3.906   9.205   2.430 -0.2711  0.4101 -0.1376
  918MOL0     C26551   3.952   9.317   2.365  0.1143 -0.5495 -0.7708
  918MOL0     C26552   4.089   9.342   2.354 -0.5295 -0.2653 -0.0943
  918MOL0     C26553   4.187   9.255   2.399 -0.2650  0.4699  0.0159
  918MOL0     O26554   4.320   9.287   2.354  0.3933  0.7406 -0.4193
  918MOL0     C26555   4.415   9.302   2.456 -0.2731  0.3580 -0.6548
  918MOL0     C26556   4.546   9.331   2.393 -0.1094  0.7495  0.1127
  918MOL0     C26557   4.548   9.457   2.309 -0.4754  0.1618 -0.4895
  918MOL0     C26558   4.686   9.506   2.273  0.6131 -0.2019 -0.4245
  918MOL0     C26559   4.684   9.617   2.170  0.2962 -0.8172 -0.2506
  918MOL0     C26560   4.639   9.757   2.212  0.7652 -0.4681  0.5673
  918MOL0     C26561   4.721   9.818   2.325 -0.7081 -0.8164 -0.2248
  918MOL0     C26562   4.700   9.961   2.342  0.2390 -0.8388  0.5319
  918MOL0     N26563   4.777  10.001   2.458  0.1693 -0.2941 -1.1249
  918MOL0     C26564   4.911   9.996   2.479 -0.2651  0.5271 -0.0251
  918MOL0     C26565   4.926  10.068   2.595  0.1546 -0.6164 -0.2333
  918MOL0     C26566   5.061  10.100   2.657 -0.0209  0.0948 -0.1573
  918MOL0     C26567   5.067  10.180   2.782  0.1363 -1.3137 -0.4347
  918MOL0     C26568   5.180  10.148   2.878 -0.1287 -0.4389 -0.1972
  918MOL0     C26569   5.235  10.279   2.937 -0.4161 -0.1122 -0.3099
  918MOL0     O26570   5.322  10.225   3.039 -0.0582 -0.2391  0.2833
  918MOL0     C26571   5.382  10.315   3.125 -0.1311  0.2402 -0.0312
  918MOL0     C26572   5.472  10.259   3.213  0.3830 -0.2780 -0.1835
  918MOL0     C26573   5.558  10.337   3.300 -0.3816  1.3784 -0.4298
  918MOL0     C26574   5.650  10.259   3.390  0.0407 -0.5074 -0.7625
  918MOL0     C26575   5.543  10.478   3.296 -0.5133 -0.2165 -0.2526
  918MOL0     C26576   5.625  10.584   3.381 -0.5201  0.4195 -0.1854
  918MOL0     O26577   5.698  10.525   3.486 -0.3811 -0.4873  0.2614
  918MOL0     C26578   5.783  10.603   3.564  0.8794  0.8268  0.1062
  918MOL0     C26579   5.739  10.673   3.680 -0.5914 -0.5348  0.7266
  918MOL0     C26580   5.823  10.739   3.765  1.7072  0.4581 -0.7644
  918MOL0     C26581   5.955  10.734   3.741 -0.9318 -0.5495  0.6275
  918MOL0     O26582   6.041  10.803   3.824  0.4110 -0.1814  0.9250
  918MOL0     C26583   5.997  10.839   3.953 -0.0159 -0.2456 -0.0603
  918MOL0     C26584   6.107  10.874   4.047  0.1901  0.8262 -0.4507
  918MOL0     C26585   6.211  10.772   4.047 -0.2917  0.4017 -0.0502
  918MOL0     C26586   6.328  10.810   4.147  0.7902 -0.5405 -0.4267
  918MOL0     C26587   6.464  10.744   4.110  0.5536  0.0376 -0.4951
  918MOL0     C26588   6.581  10.835   4.164  0.1741 -0.3839 -0.2239
  918MOL0     C26589   6.705  10.736   4.182  0.4968 -0.6482  0.5326
  918MOL0     C26590   6.759  10.748   4.325 -0.4806 -0.1754  0.3757
  918MOL0    Cl26591   6.901  10.640   4.329  0.3619 -0.4485  0.3998
  918MOL0     C26592   6.005  10.664   3.626  0.3484  0.1299  0.1645
  918MOL0     C26593   5.918  10.600   3.537  0.5884  0.5003 -0.2125
  918MOL0     O26594   5.622  10.703   3.345  0.3801  0.3149  0.5478
  918MOL0     C26595   5.450  10.532   3.204  0.3418  0.1921 -0.3006
  918MOL0     C26596   5.369  10.451   3.121 -0.7987 -0.1751  0.4872
  918MOL0     N26597   4.809  10.099   2.648  0.7799 -1.0845  0.2296
  918MOL0     N26598   4.716  10.066   2.565 -0.0847 -1.0946  0.0212
  918MOL0     C26599   4.145   9.151   2.477 -0.5542 -0.4941  0.3221
  918MOL0     C26600   4.007   9.121   2.488  0.0436 -0.9532 -0.3791
  918MOL0     C26601   3.552   9.143   2.542  0.0779  0.4632 -1.0473
  918MOL0     C26602   3.501   9.105   2.422  0.4755  0.6954 -0.2962
  918MOL0     C26603   3.379   9.036   2.416 -0.4667 -0.2685 -0.3936
  918MOL0     C26604   3.296   9.022   2.528  0.5486  0.1807 -0.7228
  918MOL0     O26605   3.165   8.964   2.538 -1.2098 -0.2097 -0.0213
  918MOL0     C26606   3.116   8.874   2.438  0.6649 -0.5662 -0.2884
  918MOL0     C26607   3.138   8.725   2.478  0.0362 -0.6558 -0.5657
  918MOL0     C26608   3.280   8.679   2.463  0.4381 -0.1468 -0.3306
  918MOL0     C26609   3.284   8.537   2.514 -0.1368  0.4893  0.3128
  918MOL0     C26610   3.209   8.434   2.433 -0.5231  0.9106 -0.5099
  918MOL0     C26611   3.124   8.371   2.370  0.3707 -0.3999  0.0458
  918MOL0     C26612   3.339   9.091   2.638 -0.1891 -0.1765  0.3142
  918MOL0     C26613   3.470   9.140   2.657 -0.3499 -0.1083  1.0476
  918MOL0     C26614   3.506   9.187   2.799 -0.0027 -0.3497 -0.1446
  918MOL0     H26615   3.878   9.386   2.326 -1.2616 -0.3242  1.9952
  918MOL0     H26616   4.109   9.434   2.299 -0.1765 -1.3583 -1.8793
  918MOL0     H26617   4.424   9.218   2.525  1.2006  3.2573  3.0187
  918MOL0     H26618   4.391   9.378   2.531  0.0509 -0.4757  0.3278
  918MOL0     H26619   4.616   9.338   2.477  0.6807  2.8249 -0.6591
  918MOL0     H26620   4.577   9.253   2.322 -0.9984  0.3012  0.2022
  918MOL0     H26621   4.493   9.451   2.214 -0.8577 -1.8741 -0.1780
  918MOL0     H26622   4.507   9.537   2.372  1.9189 -0.9100  2.7084
  918MOL0     H26623   4.734   9.541   2.365  0.2967 -2.4242  0.6599
  918MOL0     H26624   4.741   9.420   2.234 -2.2546 -2.2965 -0.2196
  918MOL0     H26625   4.617   9.600   2.086 -0.2593  2.6658 -0.6665
  918MOL0     H26626   4.780   9.626   2.118 -0.3989 -1.1918 -1.6406
  918MOL0     H26627   4.621   9.820   2.124  0.1050 -3.3972 -1.5650
  918MOL0     H26628   4.537   9.736   2.245 -0.9287  4.0044 -0.9865
  918MOL0     H26629   4.825   9.794   2.302 -0.8097 -2.3706  0.7970
  918MOL0     H26630   4.691   9.771   2.419 -1.0354 -0.0713  0.0535
  918MOL0     H26631   4.733  10.023   2.257 -0.4323  2.1630  2.3255
  918MOL0     H26632   4.599   9.994   2.365  0.2002 -1.2589  0.9491
  918MOL0     H26633   4.985   9.959   2.409  1.1004  4.2537 -0.8108
  918MOL0     H26634   5.117  10.151   2.579 -2.2125 -0.0339 -1.9208
  918MOL0     H26635   5.112  10.004   2.673  1.3178  0.6380 -0.9817
  918MOL0     H26636   5.071  10.279   2.737 -3.9916 -1.0828 -0.6637
  918MOL0     H26637   4.970  10.169   2.831 -1.7345  0.3242 -3.4666
  918MOL0     H26638   5.143  10.093   2.965 -3.8395  4.0069  1.4584
  918MOL0     H26639   5.263  10.093   2.834 -0.4718 -0.8995 -0.2674
  918MOL0     H26640   5.300  10.338   2.871 -0.2066  0.9919  0.8451
  918MOL0     H26641   5.150  10.335   2.977 -0.2884 -1.0523  1.3340
  918MOL0     H26642   5.478  10.151   3.201  0.6561 -0.0356 -2.6455
  918MOL0     H26643   5.752  10.294   3.371 -0.0582  1.6481  2.1097
  918MOL0     H26644   5.631  10.152   3.375 -2.3544  0.0827 -2.3148
  918MOL0     H26645   5.632  10.296   3.491 -0.3221 -1.8347 -0.3144
  918MOL0     H26646   5.630  10.666   3.684 -0.6871 -0.4257 -0.8878
  918MOL0     H26647   5.772  10.799   3.839 -0.6077  1.2134 -2.8355
  918MOL0     H26648   5.920  10.917   3.945  0.9264  0.6140 -1.0513
  918MOL0     H26649   5.954  10.744   3.986  2.4806 -1.5300 -0.2781
  918MOL0     H26650   6.148  10.973   4.024  0.0558  1.0789  0.3804
  918MOL0     H26651   6.061  10.874   4.146  2.3675  0.8368  0.6347
  918MOL0     H26652   6.248  10.768   3.944  0.4579  0.6754  0.2015
  918MOL0     H26653   6.164  10.680   4.084  1.6018 -0.5338  0.1524
  918MOL0     H26654   6.297  10.779   4.247 -1.8167 -0.5660 -1.1536
  918MOL0     H26655   6.352  10.916   4.135  2.1654 -0.5057  1.9985
  918MOL0     H26656   6.469  10.644   4.153  0.0882 -1.1772 -3.0639
  918MOL0     H26657   6.472  10.728   4.002  0.0291 -2.5307 -0.2117
  918MOL0     H26658   6.528  10.871   4.253 -0.1559  2.4868 -1.4683
  918MOL0     H26659   6.604  10.929   4.114 -0.8061  1.5059  2.6539
  918MOL0     H26660   6.785  10.765   4.113 -0.3845 -0.0118 -0.2480
  918MOL0     H26661   6.681  10.635   4.147  3.0459 -0.4101 -2.3603
  918MOL0     H26662   6.694  10.719   4.408  0.1589  0.3190  1.0705
  918MOL0     H26663   6.780  10.855   4.337 -2.6275  0.1563  1.5548
  918MOL0     H26664   6.112  10.680   3.615  0.0832  4.7484  1.8963
  918MOL0     H26665   5.956  10.548   3.449  3.4529 -0.9237  1.7098
  918MOL0     H26666   5.437  10.639   3.191 -0.6341  0.0086 -0.9458
  918MOL0     H26667   5.302  10.492   3.046  1.2296 -0.4817 -1.6495
  918MOL0     H26668   4.223   9.097   2.531 -0.8146 -0.1415  1.0689
  918MOL0     H26669   3.987   9.021   2.527  2.3269 -1.3401 -0.0777
  918MOL0     H26670   3.554   9.102   2.328 -1.2446  1.2018 -1.3170
  918MOL0     H26671   3.348   8.996   2.320 -1.6618 -1.0021  0.2629
  918MOL0     H26672   3.009   8.888   2.423  0.6039  1.1792  1.3528
  918MOL0     H26673   3.170   8.888   2.344 -2.7461  2.2704 -2.0464
  918MOL0     H26674   3.066   8.669   2.417 -0.0260 -2.0095  0.7100
  918MOL0     H26675   3.097   8.705   2.577 -1.4723 -2.3636 -1.4751
  918MOL0     H26676   3.306   8.696   2.358 -2.7119  3.1281 -0.7770
  918MOL0     H26677   3.346   8.743   2.523  2.2351 -0.8030 -1.5287
  918MOL0     H26678   3.243   8.526   2.615  1.8156 -0.8507  1.0190
  918MOL0     H26679   3.387   8.502   2.518  0.0658  1.1734  1.3922
  918MOL0     H26680   3.046   8.322   2.315  1.3160 -1.0254 -0.7700
  918MOL0     H26681   3.272   9.089   2.724 -1.5452 -2.0826 -0.7153
  918MOL0     H26682   3.545   9.290   2.793 -0.5618  0.0020  1.7668
  918MOL0     H26683   3.425   9.180   2.872 -1.1395 -3.5083 -1.5310
  918MOL0     H26684   3.589   9.134   2.847  2.3177  2.2187 -1.0348
  919MOL0     O26685  11.104   5.859   7.104  0.3651 -0.8103 -0.2441
  919MOL0     C26686  11.134   5.957   7.030 -0.0540  0.0063 -0.3720
  919MOL0     O26687  11.123   5.957   6.892  0.0822 -0.7733  0.3795
  919MOL0     C26688  11.104   5.833   6.838 -0.2793  0.4732  0.9709
  919MOL0     C26689  11.225   5.761   6.795  0.2824 -0.7148  0.0935
  919MOL0     C26690  11.204   5.647   6.719 -1.1031 -0.3434  0.2711
  919MOL0     C26691  11.072   5.597   6.688  0.4704  0.0905 -0.4907
  919MOL0     O26692  11.059   5.485   6.608 -0.1638  0.5826  0.8470
  919MOL0     C26693  10.929   5.429   6.581 -0.1387 -0.5946 -0.4904
  919MOL0     C26694  10.932   5.394   6.431  1.2353 -0.4397  0.5628
  919MOL0     C26695  10.826   5.303   6.388 -0.7701  0.1620  0.0052
  919MOL0     C26696  10.847   5.154   6.427  0.7988  0.2153  0.1118
  919MOL0     C26697  10.727   5.057   6.386  0.6240  0.8354 -0.2934
  919MOL0     C26698  10.721   5.032   6.239  0.1788 -0.3217 -0.2192
  919MOL0     C26699  10.635   4.912   6.207  0.5400 -0.1015 -0.1512
  919MOL0     C26700  10.495   4.969   6.160 -0.0553 -0.1429 -0.8517
  919MOL0     N26701  10.423   5.050   6.257 -0.4558  1.0124  0.6476
  919MOL0     C26702  10.325   4.997   6.343 -0.0220  0.4150 -0.5324
  919MOL0     C26703  10.259   5.102   6.396 -0.9368  0.5250 -0.2914
  919MOL0     C26704  10.135   5.093   6.478 -0.1135 -0.7243  0.1244
  919MOL0     C26705  10.169   5.041   6.618  0.5350 -0.5740 -0.5022
  919MOL0     C26706  10.252   5.144   6.695 -0.4976  0.7028  0.4729
  919MOL0     C26707  10.221   5.122   6.848 -0.0864 -1.2729  0.7081
  919MOL0     O26708  10.086   5.124   6.880  0.1007 -1.0474 -0.5016
  919MOL0     C26709  10.034   5.253   6.903 -0.2372  0.0822  0.4664
  919MOL0     C26710  10.007   5.289   7.033  0.1444  0.1038  0.2133
  919MOL0     C26711   9.949   5.410   7.065 -0.4172  0.8181 -0.4298
  919MOL0     C26712   9.938   5.425   7.219 -0.9703  1.2957 -0.6141
  919MOL0     C26713   9.916   5.500   6.964 -0.4719  0.0026 -0.0049
  919MOL0     C26714   9.836   5.630   7.001  0.0941  0.3220 -0.1355
  919MOL0     O26715   9.831   5.714   6.896  0.4481 -0.4036  0.2253
  919MOL0     C26716   9.781   5.834   6.903 -0.0772  0.4935  0.0064
  919MOL0     C26717   9.806   5.902   6.777 -0.5399  0.8623 -0.3835
  919MOL0     C26718   9.761   6.037   6.765 -1.6305  0.0795 -0.0873
  919MOL0     C26719   9.691   6.100   6.871 -0.2353 -0.7774 -0.3902
  919MOL0     O26720   9.643   6.224   6.833  0.4042 -0.2653  0.3973
  919MOL0     C26721   9.566   6.301   6.927 -0.4974 -0.2208  0.2916
  919MOL0     C26722   9.520   6.441   6.869 -0.1846 -0.0276  0.2996
  919MOL0     C26723   9.429   6.522   6.954 -0.4216  0.3168 -0.5196
  919MOL0     C26724   9.284   6.466   6.964 -0.0118 -0.1564 -0.5095
  919MOL0     C26725   9.204   6.530   7.083 -0.6778 -0.1005  0.0807
  919MOL0     C26726   9.188   6.692   7.082  0.1116  0.1838  0.5015
  919MOL0     C26727   9.110   6.768   7.193  0.1375  0.4030 -0.3113
  919MOL0     C26728   9.021   6.879   7.124 -0.5806  0.9020 -0.3675
  919MOL0    Cl26729   8.974   6.990   7.262 -0.3114  0.3274  0.6328
  919MOL0     C26730   9.670   6.038   6.990 -0.1095  1.0342  0.8260
  919MOL0     C26731   9.710   5.904   7.005 -0.6978  0.5005 -0.6247
  919MOL0     O26732   9.802   5.650   7.116  0.4889  0.0109 -0.6147
  919MOL0     C26733   9.960   5.475   6.836 -0.0920 -0.2979  0.3751
  919MOL0     C26734  10.012   5.351   6.805  0.8613 -0.5868 -0.3787
  919MOL0     N26735  10.316   5.216   6.343  0.2459  0.2908 -0.7832
  919MOL0     N26736  10.409   5.180   6.257  0.5940 -0.7998  0.2106
  919MOL0     C26737  10.957   5.667   6.734  0.1252  0.6649  0.4406
  919MOL0     C26738  10.980   5.791   6.800 -0.9691 -0.2522 -1.0061
  919MOL0     C26739  11.179   6.088   7.086  0.2358 -1.1177  0.4394
  919MOL0     C26740  11.171   6.202   7.004 -0.7741  0.5449 -0.7040
  919MOL0     C26741  11.210   6.332   7.049  0.1698 -0.0092  0.4377
  919MOL0     C26742  11.244   6.354   7.186 -0.4280 -0.6521 -0.2718
  919MOL0     O26743  11.247   6.487   7.221  0.3166  0.2792 -0.2680
  919MOL0     C26744  11.292   6.521   7.360 -0.1299  0.4080  0.2542
  919MOL0     C26745  11.292   6.677   7.372  0.4321 -0.3165  0.2055
  919MOL0     C26746  11.399   6.739   7.279  0.2098  0.5670  0.2463
  919MOL0     C26747  11.533   6.744   7.345 -0.0613 -0.2158 -0.2167
  919MOL0     C26748  11.631   6.826   7.265  0.4020  1.0586 -0.7559
  919MOL0     C26749  11.713   6.885   7.200 -0.2287 -0.6764 -0.1950
  919MOL0     C26750  11.251   6.239   7.268  0.8377 -0.0394  0.5138
  919MOL0     C26751  11.227   6.108   7.220 -0.0799  0.1316 -0.4207
  919MOL0     C26752  11.259   5.994   7.307 -0.0737 -0.1645  0.6328
  919MOL0     H26753  11.320   5.797   6.832 -0.9630  2.5957  0.3708
  919MOL0     H26754  11.289   5.587   6.689 -0.5378  1.0889 -1.1237
  919MOL0     H26755  10.850   5.504   6.588  2.2178  2.0382 -0.3881
  919MOL0     H26756  10.912   5.331   6.627 -1.8229 -0.9324 -1.7274
  919MOL0     H26757  10.922   5.481   6.365 -0.6160  1.9726  3.7169
  919MOL0     H26758  11.032   5.358   6.405  2.5573  3.6957 -0.8146
  919MOL0     H26759  10.729   5.333   6.429 -0.3770  0.0132  1.0833
  919MOL0     H26760  10.825   5.296   6.279  1.7909 -0.0665 -0.0505
  919MOL0     H26761  10.946   5.115   6.400  1.4254  0.1161  2.2772
  919MOL0     H26762  10.854   5.141   6.536  2.0876 -2.0227 -0.1922
  919MOL0     H26763  10.628   5.087   6.421 -0.0263 -1.5615  0.0891
  919MOL0     H26764  10.761   4.964   6.432  2.3419  1.5393 -0.0387
  919MOL0     H26765  10.691   5.124   6.187 -0.4031 -0.3031  0.1499
  919MOL0     H26766  10.818   5.011   6.192  0.2284  0.5811 -0.5567
  919MOL0     H26767  10.612   4.848   6.293  1.6079  0.1701  0.3559
  919MOL0     H26768  10.684   4.850   6.131 -2.6166 -2.4537 -0.4914
  919MOL0     H26769  10.525   5.024   6.069  2.7092  0.7063  0.4569
  919MOL0     H26770  10.437   4.878   6.147  0.8205 -1.2750  2.4016
  919MOL0     H26771  10.302   4.892   6.348 -0.8987  0.5847 -0.8403
  919MOL0     H26772  10.059   5.026   6.436 -2.1824  0.9950  0.9018
  919MOL0     H26773  10.085   5.189   6.493 -0.0112 -0.9344  2.0383
  919MOL0     H26774  10.080   5.011   6.674  0.0259  0.0019 -0.9952
  919MOL0     H26775  10.227   4.949   6.606  0.9488 -0.1293 -2.1904
  919MOL0     H26776  10.359   5.133   6.675 -0.2919  1.8225  0.8659
  919MOL0     H26777  10.228   5.249   6.674  0.2434  0.6467 -0.7527
  919MOL0     H26778  10.255   5.025   6.885 -1.5301 -1.8804  0.5381
  919MOL0     H26779  10.268   5.204   6.903 -2.6595 -0.3245  1.6393
  919MOL0     H26780  10.017   5.216   7.112  2.3273 -0.4633 -0.5035
  919MOL0     H26781  10.016   5.368   7.271  1.2734  1.5537 -3.3978
  919MOL0     H26782   9.846   5.374   7.246 -0.4664  1.6841  2.0540
  919MOL0     H26783   9.944   5.529   7.254  0.7299  1.3125 -0.8651
  919MOL0     H26784   9.856   5.842   6.701  2.1915 -0.1288  2.0030
  919MOL0     H26785   9.765   6.093   6.672 -2.7075  3.2818  1.6564
  919MOL0     H26786   9.480   6.241   6.957  0.9587 -2.5303  0.1326
  919MOL0     H26787   9.631   6.318   7.014 -0.3182 -1.7527  0.4789
  919MOL0     H26788   9.613   6.495   6.849  0.6754 -0.8925  1.8288
  919MOL0     H26789   9.466   6.426   6.775 -1.4132 -0.8780  1.1201
  919MOL0     H26790   9.434   6.623   6.912  3.3004 -0.1088 -1.3953
  919MOL0     H26791   9.473   6.527   7.054 -0.0844 -1.9611 -0.5153
  919MOL0     H26792   9.292   6.359   6.984 -1.9975 -0.1395  0.7712
  919MOL0     H26793   9.227   6.488   6.873 -0.1680  2.0673  0.0575
  919MOL0     H26794   9.107   6.481   7.087  0.2485 -2.1923 -1.3529
  919MOL0     H26795   9.263   6.502   7.171 -0.3118 -3.1275 -1.0181
  919MOL0     H26796   9.137   6.724   6.991 -1.4886  1.8305  1.9162
  919MOL0     H26797   9.290   6.733   7.078  0.3305 -0.2781  1.1089
  919MOL0     H26798   9.186   6.807   7.261  2.5987 -2.9238 -0.8970
  919MOL0     H26799   9.053   6.693   7.248  1.5536 -0.6563 -0.2333
  919MOL0     H26800   8.933   6.834   7.078 -1.1561  0.6788  0.8941
  919MOL0     H26801   9.074   6.934   7.046  4.0444  0.7147  2.2875
  919MOL0     H26802   9.613   6.083   7.070  0.1864  1.0956  1.0025
  919MOL0     H26803   9.680   5.865   7.102 -0.3732  1.3023 -0.1969
  919MOL0     H26804   9.935   5.536   6.751 -1.5084 -2.7845 -1.1118
  919MOL0     H26805  10.042   5.315   6.707  3.7087 -1.4004  0.6841
  919MOL0     H26806  10.852   5.644   6.721  0.4808 -1.4724  0.9691
  919MOL0     H26807  10.897   5.852   6.835 -0.7451 -0.7154  0.3996
  919MOL0     H26808  11.133   6.190   6.903 -0.1535 -1.3620 -0.7531
  919MOL0     H26809  11.196   6.408   6.972  1.6029 -0.4470 -0.2859
  919MOL0     H26810  11.225   6.480   7.437  0.1023  1.2719  0.9235
  919MOL0     H26811  11.394   6.486   7.379 -0.4178 -1.1078 -0.7556
  919MOL0     H26812  11.313   6.707   7.475  0.1900 -0.6615  0.3543
  919MOL0     H26813  11.193   6.709   7.339  1.2531  0.6762 -1.4992
  919MOL0     H26814  11.393   6.695   7.179  0.2046  1.2533 -0.0621
  919MOL0     H26815  11.362   6.842   7.278 -1.8795 -0.0785  2.2777
  919MOL0     H26816  11.573   6.645   7.372  0.4113 -0.1304 -0.5767
  919MOL0     H26817  11.523   6.792   7.442  0.1037  1.3010 -0.9278
  919MOL0     H26818  11.788   6.934   7.141 -1.9012  1.3735 -0.7400
  919MOL0     H26819  11.267   6.239   7.375 -0.6434 -1.3213  0.7829
  919MOL0     H26820  11.326   5.926   7.254 -1.1174 -0.8477  0.1518
  919MOL0     H26821  11.310   6.025   7.399  0.2040  0.2868  0.3256
  919MOL0     H26822  11.171   5.942   7.347 -0.6087  2.0397  2.5806
  920MOL0     O26823   8.730   6.821   1.221 -0.0992  0.6179 -0.0753
  920MOL0     C26824   8.761   6.768   1.113  0.0032  0.0564 -0.6556
  920MOL0     O26825   8.882   6.715   1.085  0.4858 -0.5088  0.4209
  920MOL0     C26826   8.987   6.741   1.171  0.0392  0.5114  0.3600
  920MOL0     C26827   9.067   6.854   1.153  0.7981  0.7259 -0.2540
  920MOL0     C26828   9.180   6.885   1.227 -0.9496 -0.1710 -0.3670
  920MOL0     C26829   9.220   6.796   1.327 -1.2983  0.6587 -0.1281
  920MOL0     O26830   9.339   6.806   1.400  0.6199  0.5145 -0.3250
  920MOL0     C26831   9.408   6.922   1.422 -0.1891  0.5678  0.7299
  920MOL0     C26832   9.323   7.050   1.468 -0.7763 -0.5206 -0.4513
  920MOL0     C26833   9.417   7.152   1.531 -0.2151  0.3532  1.1070
  920MOL0     C26834   9.340   7.272   1.582  0.0145 -0.1640  0.2767
  920MOL0     C26835   9.422   7.358   1.678 -0.4595 -0.3408  0.4240
  920MOL0     C26836   9.442   7.300   1.816 -0.3281 -0.1770 -0.1641
  920MOL0     C26837   9.317   7.278   1.917 -0.3033  0.2897 -0.4480
  920MOL0     C26838   9.228   7.409   1.939  0.4399  0.0344 -0.0879
  920MOL0     N26839   9.304   7.514   2.005  0.3674  0.1762 -0.3083
  920MOL0     C26840   9.343   7.631   1.953  0.7811  0.3238  0.7024
  920MOL0     C26841   9.369   7.708   2.062  0.4067  0.1691  0.9755
  920MOL0     C26842   9.402   7.854   2.069 -0.8141  0.8557 -0.6964
  920MOL0     C26843   9.498   7.882   2.193  0.1850 -0.2335  0.9675
  920MOL0     C26844   9.630   7.808   2.176  0.0897  0.0643  0.1582
  920MOL0     C26845   9.696   7.767   2.311 -0.1280  0.2396  0.6395
  920MOL0     O26846   9.746   7.880   2.390  0.0278  0.8415  0.4738
  920MOL0     C26847   9.876   7.915   2.364  0.2814 -0.3385  0.1295
  920MOL0     C26848   9.944   7.873   2.254  0.8041 -0.1444 -0.1580
  920MOL0     C26849  10.076   7.902   2.231 -0.0876  0.1110 -0.5104
  920MOL0     C26850  10.158   7.806   2.133 -0.0392 -0.4464  0.0052
  920MOL0     C26851  10.142   7.993   2.304  0.4945 -0.5189  0.1764
  920MOL0     C26852  10.276   8.063   2.291 -0.7418  0.3785 -0.2719
  920MOL0     O26853  10.392   7.982   2.284  0.0800  0.0546  0.0817
  920MOL0     C26854  10.504   8.046   2.242  0.4455 -0.1667 -0.9338
  920MOL0     C26855  10.590   8.105   2.341  0.0317  0.0939  0.1259
  920MOL0     C26856  10.698   8.180   2.292  0.0608 -0.3684 -0.5559
  920MOL0     C26857  10.723   8.187   2.156 -0.5030 -0.2097 -0.0614
  920MOL0     O26858  10.842   8.250   2.111 -0.3681 -0.3930 -0.7538
  920MOL0     C26859  10.832   8.366   2.023 -0.0877 -0.8749 -0.6410
  920MOL0     C26860  10.972   8.414   1.967  0.2450  0.1586 -0.0805
  920MOL0     C26861  11.041   8.312   1.880 -0.1820 -0.7727  0.0113
  920MOL0     C26862  11.157   8.369   1.797  0.1327 -0.4226 -0.6976
  920MOL0     C26863  11.218   8.264   1.707  0.7551  0.7963  0.5214
  920MOL0     C26864  11.310   8.152   1.769  0.1418 -0.4371  0.1059
  920MOL0     C26865  11.422   8.209   1.856  0.0030  0.3620  0.2151
  920MOL0     C26866  11.543   8.245   1.765 -0.0732 -0.2995 -0.4248
  920MOL0    Cl26867  11.688   8.226   1.874 -0.1225 -0.1687  0.0027
  920MOL0     C26868  10.642   8.131   2.068 -0.3047  0.4170 -0.1166
  920MOL0     C26869  10.524   8.065   2.105 -0.0512 -0.6674 -0.1675
  920MOL0     O26870  10.270   8.178   2.260  0.6916  0.2972 -0.2228
  920MOL0     C26871  10.067   8.045   2.409  0.0204  0.8468 -0.4368
  920MOL0     C26872   9.940   8.012   2.437 -0.6612 -0.2465  0.2906
  920MOL0     N26873   9.333   7.645   2.181  0.5426  0.8147  0.3965
  920MOL0     N26874   9.301   7.527   2.142  0.5919 -0.5934  0.2818
  920MOL0     C26875   9.139   6.678   1.344  0.2293  0.1600  0.0599
  920MOL0     C26876   9.026   6.651   1.270  0.2233 -0.2697  0.6373
  920MOL0     C26877   8.665   6.792   1.000  0.1983  0.3908  0.2484
  920MOL0     C26878   8.536   6.836   1.034  0.0659 -0.1012  0.0350
  920MOL0     C26879   8.435   6.853   0.943  0.1015  0.6468  0.2145
  920MOL0     C26880   8.455   6.816   0.812  0.4414 -0.1207  0.2444
  920MOL0     O26881   8.350   6.835   0.731  0.7975 -0.0690  0.5865
  920MOL0     C26882   8.361   6.799   0.590 -0.3273 -0.0205 -0.3577
  920MOL0     C26883   8.247   6.850   0.499  1.0246  0.2238  0.3768
  920MOL0     C26884   8.234   7.000   0.499 -0.5679 -0.4111  0.4041
  920MOL0     C26885   8.196   7.056   0.362  0.2040 -0.3799  0.2036
  920MOL0     C26886   8.231   7.193   0.351  0.4969 -0.2157 -0.3356
  920MOL0     C26887   8.265   7.307   0.340  0.1095  0.3751 -0.3248
  920MOL0     C26888   8.586   6.774   0.769 -0.0197 -0.9472  0.0658
  920MOL0     C26889   8.689   6.771   0.862  0.0970  0.5143  0.1153
  920MOL0     C26890   8.832   6.720   0.809  0.5986 -0.5165 -0.0377
  920MOL0     H26891   9.049   6.910   1.062 -2.6655 -0.5355 -0.4933
  920MOL0     H26892   9.237   6.974   1.202 -1.1586 -0.1332 -0.7112
  920MOL0     H26893   9.456   6.947   1.326 -2.1643 -1.2739 -0.8548
  920MOL0     H26894   9.485   6.907   1.498 -0.1108  0.8506  0.7071
  920MOL0     H26895   9.267   7.101   1.390 -0.3897 -1.2303 -1.2151
  920MOL0     H26896   9.251   7.014   1.541  1.8303 -1.7268  1.7233
  920MOL0     H26897   9.468   7.100   1.613  0.2865  0.0535  0.6068
  920MOL0     H26898   9.494   7.173   1.457 -2.6944 -0.6659 -1.9806
  920MOL0     H26899   9.323   7.337   1.496  3.0159 -0.5969 -0.7768
  920MOL0     H26900   9.236   7.249   1.604 -2.3556  6.4808 -1.4009
  920MOL0     H26901   9.364   7.450   1.691  0.3422  0.0617  1.2122
  920MOL0     H26902   9.515   7.393   1.632 -0.0020  1.7268  2.7325
  920MOL0     H26903   9.498   7.208   1.798 -0.7809 -0.0678 -2.4604
  920MOL0     H26904   9.500   7.368   1.878 -0.6649 -2.3925  2.7999
  920MOL0     H26905   9.339   7.251   2.021  0.1474 -1.4141 -0.9561
  920MOL0     H26906   9.255   7.196   1.881  1.6435 -1.5478  0.1802
  920MOL0     H26907   9.194   7.451   1.845 -0.3803  3.0187  1.4201
  920MOL0     H26908   9.138   7.396   2.000  0.0877  0.6485 -0.4713
  920MOL0     H26909   9.341   7.662   1.849 -0.4727 -0.4392  0.4807
  920MOL0     H26910   9.306   7.903   2.082 -0.8811  0.0276  3.3131
  920MOL0     H26911   9.453   7.887   1.978  1.8349  0.4651  0.5377
  920MOL0     H26912   9.524   7.989   2.193  0.7104 -0.3562  1.0256
  920MOL0     H26913   9.453   7.845   2.284 -1.0562 -1.5389 -0.1398
  920MOL0     H26914   9.617   7.712   2.124  1.3369  0.3827 -0.7897
  920MOL0     H26915   9.698   7.866   2.113  0.4481 -1.3053 -0.7667
  920MOL0     H26916   9.620   7.730   2.380 -2.4006  2.6176 -0.4386
  920MOL0     H26917   9.756   7.677   2.296  1.2624  1.3604 -0.8082
  920MOL0     H26918   9.903   7.806   2.179  2.6895  0.3979 -1.7498
  920MOL0     H26919  10.090   7.780   2.051 -1.2794  2.9355 -0.1808
  920MOL0     H26920  10.186   7.716   2.188 -2.0089 -1.2326 -0.2053
  920MOL0     H26921  10.243   7.861   2.092 -0.9209  1.0557  0.1221
  920MOL0     H26922  10.566   8.083   2.445  0.1679 -1.7182 -0.1920
  920MOL0     H26923  10.765   8.225   2.365 -0.1438 -3.0155  1.4486
  920MOL0     H26924  10.762   8.361   1.940  1.4134  0.2421 -2.0442
  920MOL0     H26925  10.798   8.449   2.085 -0.3700 -1.2328 -0.3067
  920MOL0     H26926  10.961   8.508   1.913  0.4007 -0.7775 -1.8286
  920MOL0     H26927  11.034   8.420   2.057  3.7481  0.3861 -2.3145
  920MOL0     H26928  10.970   8.264   1.811  0.4492  0.7999 -1.8391
  920MOL0     H26929  11.076   8.231   1.945  0.2318 -1.7380 -1.3537
  920MOL0     H26930  11.228   8.419   1.863 -1.8433  0.7227  0.6915
  920MOL0     H26931  11.117   8.450   1.735  1.3471  0.9842  0.2902
  920MOL0     H26932  11.137   8.208   1.659  3.4728 -1.6818 -1.5548
  920MOL0     H26933  11.278   8.302   1.623 -1.0379  0.6500 -0.8970
  920MOL0     H26934  11.358   8.084   1.698  0.4124 -0.0063 -0.1275
  920MOL0     H26935  11.239   8.091   1.825 -2.3715 -0.1231 -2.5242
  920MOL0     H26936  11.452   8.136   1.932  0.9803 -2.4870 -2.6808
  920MOL0     H26937  11.407   8.303   1.910 -1.1109 -0.1836  0.8862
  920MOL0     H26938  11.527   8.349   1.737 -1.0879  0.1027  1.4948
  920MOL0     H26939  11.548   8.179   1.678 -1.0101 -0.4860 -0.3451
  920MOL0     H26940  10.670   8.139   1.963  1.6333 -3.1000 -0.0249
  920MOL0     H26941  10.445   8.018   2.048 -1.2948  1.3203 -0.1949
  920MOL0     H26942  10.115   8.127   2.462 -0.4333  0.9040 -0.1068
  920MOL0     H26943   9.886   8.075   2.508  1.9182  0.4044  1.8005
  920MOL0     H26944   9.167   6.613   1.426  2.0050 -0.1177 -0.7229
  920MOL0     H26945   8.955   6.570   1.286 -3.0351  2.2694  0.0092
  920MOL0     H26946   8.515   6.858   1.138 -0.2153  1.7785 -0.3868
  920MOL0     H26947   8.333   6.888   0.961 -0.3197 -0.1021 -0.6353
  920MOL0     H26948   8.455   6.832   0.546 -1.3209 -0.0770 -2.6452
  920MOL0     H26949   8.368   6.691   0.577  0.2748  0.1801 -1.9407
  920MOL0     H26950   8.150   6.818   0.540 -0.8533  4.2372 -0.4116
  920MOL0     H26951   8.245   6.801   0.402  2.7048  0.2435  0.3120
  920MOL0     H26952   8.154   7.017   0.572 -1.7416 -2.5672 -0.3126
  920MOL0     H26953   8.327   7.040   0.541 -1.3903  0.4578  1.4797
  920MOL0     H26954   8.091   7.034   0.339  0.1070 -2.5664  2.4166
  920MOL0     H26955   8.260   7.011   0.286  3.3747  2.3572  1.0415
  920MOL0     H26956   8.297   7.409   0.343  2.3098 -0.2719  0.5301
  920MOL0     H26957   8.603   6.743   0.666  0.7810 -0.8227  0.1568
  920MOL0     H26958   8.823   6.705   0.701 -3.0250 -1.3196  0.2454
  920MOL0     H26959   8.910   6.795   0.826  0.0124 -0.2401  1.6580
  920MOL0     H26960   8.858   6.625   0.854 -1.8729 -0.7891  0.9809
  921MOL0     O26961   4.670   9.333   9.889 -0.3497  0.1407  0.2328
  921MOL0     C26962   4.636   9.287   9.778 -0.6155 -0.6827 -0.1267
  921MOL0     O26963   4.721   9.265   9.676  0.0178  0.1946 -0.4215
  921MOL0     C26964   4.855   9.281   9.675  0.9671  0.3672 -0.9592
  921MOL0     C26965   4.923   9.377   9.760 -0.3200 -0.2217  0.3810
  921MOL0     C26966   5.065   9.393   9.733  0.2417  0.1933 -1.0620
  921MOL0     C26967   5.127   9.318   9.632  0.4205 -0.0235 -0.5251
  921MOL0     O26968   5.260   9.311   9.620 -0.5929 -0.0201  0.3565
  921MOL0     C26969   5.345   9.427   9.663 -0.1966  0.1127  0.2617
  921MOL0     C26970   5.486   9.389   9.633  0.1062 -0.0381  0.1575
  921MOL0     C26971   5.585   9.488   9.686  0.6458 -0.4598  0.1129
  921MOL0     C26972   5.721   9.473   9.617  0.1886 -0.3386  0.1825
  921MOL0     C26973   5.810   9.357   9.664 -0.0193  0.1921  0.0530
  921MOL0     C26974   5.871   9.384   9.800  0.9466 -0.7343 -0.3193
  921MOL0     C26975   5.958   9.275   9.860  0.2296 -0.4531  0.5524
  921MOL0     C26976   6.103   9.268   9.797  1.2563 -0.4457  0.6811
  921MOL0     N26977   6.168   9.146   9.857  0.1713 -0.1046  0.3311
  921MOL0     C26978   6.223   9.138   9.976 -0.4731 -0.3793  0.1856
  921MOL0     C26979   6.286   9.017   9.975 -0.5532  0.5291 -0.3965
  921MOL0     C26980   6.372   8.963  10.082 -0.2109 -0.3880  0.9056
  921MOL0     C26981   6.521   8.969  10.039  0.3178  0.6156 -0.9098
  921MOL0     C26982   6.581   8.853   9.970 -0.1016 -0.1184 -0.0575
  921MOL0     C26983   6.704   8.878   9.886  0.3969 -0.3305  0.6365
  921MOL0     O26984   6.813   8.907   9.975  0.1924 -0.0908  0.4693
  921MOL0     C26985   6.935   8.930   9.918 -0.0892  0.1582 -0.6828
  921MOL0     C26986   7.038   8.955  10.002 -1.0661 -0.4681  0.5016
  921MOL0     C26987   7.164   8.982   9.950  0.3874 -0.6053 -0.5048
  921MOL0     C26988   7.266   9.000  10.061 -0.3399  0.2409 -0.0592
  921MOL0     C26989   7.191   8.996   9.810  0.6505 -0.6524 -0.3413
  921MOL0     C26990   7.322   9.049   9.757 -0.0455  0.0048 -0.2198
  921MOL0     O26991   7.343   9.014   9.627  0.5089  0.5367 -0.6246
  921MOL0     C26992   7.463   9.046   9.578 -0.2839 -0.1223  0.4482
  921MOL0     C26993   7.475   9.146   9.486  0.4834 -0.9495 -0.1615
  921MOL0     C26994   7.603   9.185   9.436  0.2314  0.0756 -0.6371
  921MOL0     C26995   7.726   9.117   9.480  0.0461 -0.8289  0.1706
  921MOL0     O26996   7.851   9.155   9.438  0.4183 -0.2628  0.5547
  921MOL0     C26997   7.880   9.296   9.418 -0.0753  0.3035 -0.2607
  921MOL0     C26998   8.030   9.301   9.441  0.4191  0.1586 -0.9510
  921MOL0     C26999   8.111   9.219   9.341 -0.2230  0.3521 -0.2727
  921MOL0     C27000   8.268   9.222   9.377  0.1224  0.2244 -0.0460
  921MOL0     C27001   8.353   9.167   9.263  0.2472 -0.4407 -0.7430
  921MOL0     C27002   8.486   9.239   9.259  0.4658  0.5130  0.0942
  921MOL0     C27003   8.592   9.172   9.172  0.3303  0.4213  0.0779
  921MOL0     C27004   8.733   9.232   9.198 -0.1612 -0.6840  0.4786
  921MOL0    Cl27005   8.797   9.176   9.352 -0.1530 -0.0807 -0.4828
  921MOL0     C27006   7.709   9.019   9.580  0.2980 -0.3576  1.4614
  921MOL0     C27007   7.577   8.980   9.624  0.0241  0.0101  0.3321
  921MOL0     O27008   7.399   9.118   9.823 -0.4682 -0.1519 -0.0614
  921MOL0     C27009   7.088   8.960   9.726  0.3772 -0.6282  0.2225
  921MOL0     C27010   6.966   8.925   9.781 -0.3172  0.6357  0.1141
  921MOL0     N27011   6.247   8.948   9.869  0.1142 -0.5960 -0.1543
  921MOL0     N27012   6.174   9.020   9.798  0.1992 -0.1828  0.1354
  921MOL0     C27013   5.056   9.231   9.550 -0.4288 -0.4670  0.2789
  921MOL0     C27014   4.922   9.225   9.567  0.0698 -0.1338 -0.5862
  921MOL0     C27015   4.492   9.271   9.748 -0.5058  0.1211  0.5237
  921MOL0     C27016   4.397   9.355   9.811  0.8319  0.3530 -0.6330
  921MOL0     C27017   4.261   9.348   9.784 -0.6144 -1.0566 -0.2428
  921MOL0     C27018   4.213   9.258   9.690 -0.1789 -0.8559  0.6758
  921MOL0     O27019   4.080   9.255   9.655  0.2702  0.1041 -1.1683
  921MOL0     C27020   3.982   9.284   9.756 -0.3890  0.4028  0.2296
  921MOL0     C27021   3.888   9.156   9.775 -0.5566 -0.2568  1.5023
  921MOL0     C27022   3.806   9.150   9.904 -0.7513  0.6537 -0.4572
  921MOL0     C27023   3.715   9.023   9.895 -0.8110 -1.2818  0.6215
  921MOL0     C27024   3.646   9.040  10.018  0.4198 -1.3573  0.0741
  921MOL0     C27025   3.600   9.044  10.132 -0.7659  0.3057  0.4796
  921MOL0     C27026   4.306   9.176   9.623  0.5142 -0.3238 -0.1324
  921MOL0     C27027   4.438   9.172   9.656 -0.7646 -0.1628  0.4951
  921MOL0     C27028   4.516   9.067   9.587  0.9637 -0.8051 -0.1949
  921MOL0     H27029   4.896   9.435   9.848  3.4578  1.2094  0.7618
  921MOL0     H27030   5.125   9.455   9.799  0.2650  1.5428 -2.2964
  921MOL0     H27031   5.344   9.447   9.770 -1.7927  0.1692  0.2544
  921MOL0     H27032   5.315   9.516   9.608 -0.3787  0.4706  0.9306
  921MOL0     H27033   5.497   9.287   9.672 -1.5664 -0.3150 -0.0200
  921MOL0     H27034   5.500   9.378   9.525 -1.0668 -0.7498  0.0616
  921MOL0     H27035   5.551   9.592   9.677  2.9673  0.2856 -1.1511
  921MOL0     H27036   5.603   9.467   9.792  0.2802  0.4913  0.3794
  921MOL0     H27037   5.710   9.471   9.508 -2.6726 -0.7736  0.3951
  921MOL0     H27038   5.778   9.563   9.643 -3.1551  1.6100  1.4185
  921MOL0     H27039   5.887   9.343   9.587  1.2025  1.3586  1.0173
  921MOL0     H27040   5.739   9.273   9.667 -1.5204  1.4244  0.2246
  921MOL0     H27041   5.919   9.482   9.806 -2.0059  1.0076 -2.5653
  921MOL0     H27042   5.783   9.403   9.863 -0.2104  2.8387 -2.6938
  921MOL0     H27043   5.909   9.181   9.835  2.5455 -2.0717  1.6974
  921MOL0     H27044   5.960   9.297   9.967 -0.9702  3.5059 -0.0797
  921MOL0     H27045   6.096   9.247   9.690 -0.0164 -2.8515  1.1627
  921MOL0     H27046   6.164   9.359   9.803  2.6442 -1.4209  2.3292
  921MOL0     H27047   6.237   9.214  10.053  2.5666  1.2469 -1.7813
  921MOL0     H27048   6.336   8.864  10.113 -0.5157 -0.1030  1.4691
  921MOL0     H27049   6.365   9.024  10.172  1.6730  0.8245  0.2987
  921MOL0     H27050   6.549   9.066   9.998  0.8204  2.3245  3.0129
  921MOL0     H27051   6.583   8.973  10.129 -0.3596 -2.0884 -0.2266
  921MOL0     H27052   6.615   8.784  10.048  0.7346  0.7803  0.4045
  921MOL0     H27053   6.511   8.791   9.913  1.6498 -0.9341 -1.4373
  921MOL0     H27054   6.718   8.785   9.828 -0.5757  0.2160 -0.5194
  921MOL0     H27055   6.695   8.963   9.817 -0.9623 -2.1558 -1.5886
  921MOL0     H27056   7.027   8.953  10.110  0.1935 -2.3336  0.6281
  921MOL0     H27057   7.356   8.973  10.006 -1.0033 -0.4211 -0.8354
  921MOL0     H27058   7.247   8.934  10.146  0.9623  0.3311  0.3253
  921MOL0     H27059   7.257   9.102  10.100 -2.0726  0.2105 -0.2842
  921MOL0     H27060   7.379   9.191   9.460 -0.0783  0.2938  3.4740
  921MOL0     H27061   7.625   9.266   9.367 -1.7499  2.4103  1.2782
  921MOL0     H27062   7.856   9.329   9.316  2.8467  1.8408 -0.5712
  921MOL0     H27063   7.830   9.362   9.489  2.1088  0.7468  0.9733
  921MOL0     H27064   8.073   9.402   9.433 -2.0527  1.2180 -1.8994
  921MOL0     H27065   8.045   9.269   9.544  1.3146 -1.3716 -1.5375
  921MOL0     H27066   8.097   9.267   9.244 -5.3844  0.7185  0.4147
  921MOL0     H27067   8.069   9.119   9.327  1.5409 -0.0504 -3.6709
  921MOL0     H27068   8.283   9.149   9.458  0.1220  0.4650  0.1733
  921MOL0     H27069   8.308   9.311   9.426 -1.2706 -0.8124  3.3103
  921MOL0     H27070   8.367   9.064   9.297  2.3612  0.7229  2.3723
  921MOL0     H27071   8.314   9.171   9.161  0.7088 -0.6157 -0.9249
  921MOL0     H27072   8.524   9.257   9.360  3.1063 -1.6624 -0.3851
  921MOL0     H27073   8.476   9.338   9.214 -2.1546  1.4216  2.3795
  921MOL0     H27074   8.561   9.175   9.068 -1.1013 -0.0461  0.4606
  921MOL0     H27075   8.582   9.065   9.193  0.6743  0.4307  0.2895
  921MOL0     H27076   8.740   9.341   9.210  2.2567 -1.0799  4.5748
  921MOL0     H27077   8.793   9.209   9.110  0.2857  0.8322  0.3607
  921MOL0     H27078   7.792   8.962   9.621  2.5065 -0.6945 -2.9646
  921MOL0     H27079   7.563   8.900   9.695  0.6242 -2.7109 -2.4043
  921MOL0     H27080   7.088   8.955   9.617 -0.9501 -0.5889  0.2050
  921MOL0     H27081   6.892   8.906   9.704  1.8090  2.2145 -2.5057
  921MOL0     H27082   5.091   9.152   9.485 -1.4861  1.3369 -2.6844
  921MOL0     H27083   4.867   9.152   9.508 -0.4743 -2.3887  2.4519
  921MOL0     H27084   4.438   9.427   9.881  3.6742 -2.4177  0.8068
  921MOL0     H27085   4.192   9.415   9.834 -1.2046 -1.1198 -0.9653
  921MOL0     H27086   4.022   9.307   9.855  0.7139 -0.0201 -0.1062
  921MOL0     H27087   3.921   9.370   9.727 -1.7988 -1.2996 -2.3880
  921MOL0     H27088   3.961   9.075   9.774  1.1914  1.2568  0.4655
  921MOL0     H27089   3.820   9.159   9.690  0.6310  2.2504  0.5269
  921MOL0     H27090   3.871   9.143   9.992  2.4040 -0.0827 -2.6746
  921MOL0     H27091   3.736   9.232   9.920 -1.2193  0.0727  0.5587
  921MOL0     H27092   3.780   8.937   9.875 -0.3103 -0.3924 -1.9040
  921MOL0     H27093   3.652   9.034   9.806 -0.1170 -2.2572 -0.0095
  921MOL0     H27094   3.566   9.055  10.233 -2.0183  3.9040 -0.2151
  921MOL0     H27095   4.268   9.112   9.544 -1.6727 -0.3768  0.8865
  921MOL0     H27096   4.560   9.002   9.663  2.9235  1.4026  0.7013
  921MOL0     H27097   4.459   9.001   9.522 -0.9191 -0.2702  0.8545
  921MOL0     H27098   4.600   9.108   9.530  0.2664  0.7161 -0.1798
  922MOL0     O27099  10.459  11.084  11.157  0.5164  0.1210  0.0871
  922MOL0     C27100  10.518  11.038  11.263 -0.3499 -0.1747  0.2408
  922MOL0     O27101  10.651  11.037  11.288  0.1465 -0.5593  0.4598
  922MOL0     C27102  10.742  11.126  11.237  0.7809  0.1688 -0.1781
  922MOL0     C27103  10.857  11.119  11.309 -0.7596 -0.7203 -0.1415
  922MOL0     C27104  10.959  11.201  11.271 -0.5954 -0.8437  0.3691
  922MOL0     C27105  10.960  11.297  11.163  0.0322  0.1006  0.1497
  922MOL0     O27106  11.051  11.385  11.120 -0.7980 -0.1145 -0.1728
  922MOL0     C27107  11.157  11.333  11.044  0.8407  0.6816 -0.6702
  922MOL0     C27108  11.200  11.446  10.946 -0.0926  0.2206  0.0580
  922MOL0     C27109  11.279  11.558  11.014 -0.2691 -0.2319  1.2027
  922MOL0     C27110  11.362  11.627  10.912 -0.8962 -0.4851  0.3793
  922MOL0     C27111  11.465  11.729  10.967 -0.6705  0.4978 -0.2278
  922MOL0     C27112  11.419  11.868  11.020 -0.0308  0.3951 -0.0417
  922MOL0     C27113  11.396  11.860  11.170 -0.1928 -0.9574  0.3503
  922MOL0     C27114  11.325  11.984  11.226 -0.2822  0.2431  0.4537
  922MOL0     N27115  11.405  12.104  11.211 -0.5713 -0.6694 -0.1497
  922MOL0     C27116  11.405  12.210  11.108 -0.3814  0.2365 -0.4241
  922MOL0     C27117  11.511  12.285  11.133  0.4707 -0.8306  0.6472
  922MOL0     C27118  11.558  12.404  11.056 -0.4096  0.6005  0.4713
  922MOL0     C27119  11.593  12.364  10.914  0.2390  0.1774  0.5694
  922MOL0     C27120  11.608  12.485  10.819  0.4332 -0.6449 -0.1774
  922MOL0     C27121  11.617  12.449  10.667  0.6873 -0.2445 -0.3987
  922MOL0     O27122  11.694  12.327  10.649  0.0994 -1.0574 -1.0065
  922MOL0     C27123  11.733  12.290  10.525  0.7915  0.9189 -0.0595
  922MOL0     C27124  11.648  12.312  10.413  0.4331 -0.2661 -0.0594
  922MOL0     C27125  11.682  12.270  10.288  0.2753  0.3972  0.3079
  922MOL0     C27126  11.597  12.286  10.171  0.5597 -0.2389 -0.4170
  922MOL0     C27127  11.800  12.199  10.274  0.2712 -0.0194 -0.6587
  922MOL0     C27128  11.828  12.158  10.142 -0.0560  0.1823 -0.3883
  922MOL0     O27129  11.914  12.235  10.067  0.1153 -0.5732  0.2219
  922MOL0     C27130  11.964  12.202   9.944  0.6382 -0.1844 -0.4819
  922MOL0     C27131  12.092  12.234   9.919 -0.2352  0.3809  0.1558
  922MOL0     C27132  12.161  12.201   9.803  0.7018 -0.5121  0.3267
  922MOL0     C27133  12.091  12.133   9.706  0.4876  0.5889 -0.5116
  922MOL0     O27134  12.148  12.088   9.597 -0.1396  0.2965  0.5549
  922MOL0     C27135  12.244  11.979   9.614 -0.0901 -0.7523  0.3826
  922MOL0     C27136  12.341  11.969   9.504 -0.9789 -0.4129  0.9998
  922MOL0     C27137  12.450  12.075   9.527  0.3852 -0.5245 -0.7734
  922MOL0     C27138  12.573  12.067   9.432 -0.9750  0.1243  0.4100
  922MOL0     C27139  12.680  12.163   9.458 -0.1126 -0.6078  0.1509
  922MOL0     C27140  12.797  12.147   9.353  1.8446 -0.0328  0.2582
  922MOL0     C27141  12.936  12.197   9.405  0.0219 -0.0231  0.3059
  922MOL0     C27142  13.016  12.256   9.287  0.5578  0.6269 -0.1664
  922MOL0    Cl27143  13.066  12.134   9.179  0.0670 -0.0165  0.1426
  922MOL0     C27144  11.952  12.105   9.730 -0.4785 -0.2340  0.2446
  922MOL0     C27145  11.891  12.145   9.846  0.1360 -0.0922  0.7339
  922MOL0     O27146  11.794  12.045  10.116  0.2647 -0.5156  0.3897
  922MOL0     C27147  11.878  12.175  10.388 -0.0135  0.8247 -1.0620
  922MOL0     C27148  11.848  12.224  10.511 -0.4189 -0.1704 -0.3934
  922MOL0     N27149  11.578  12.237  11.250 -0.4677  0.2814 -0.1377
  922MOL0     N27150  11.513  12.133  11.291  0.9436  0.3661 -0.3513
  922MOL0     C27151  10.834  11.296  11.100  1.0653 -0.0389  1.4465
  922MOL0     C27152  10.727  11.211  11.127  0.0816 -0.0571  0.4697
  922MOL0     C27153  10.443  10.951  11.356 -0.5226 -0.1262 -0.6103
  922MOL0     C27154  10.508  10.845  11.425 -0.3384 -0.0863 -0.3253
  922MOL0     C27155  10.448  10.774  11.531 -0.1650 -0.1070 -0.8790
  922MOL0     C27156  10.315  10.793  11.563  0.1129 -0.1193 -0.2585
  922MOL0     O27157  10.247  10.726  11.659 -0.3905 -0.1536 -0.0204
  922MOL0     C27158  10.150  10.635  11.608  0.4579  0.1449 -0.1707
  922MOL0     C27159  10.119  10.525  11.716 -0.3405 -0.5321 -0.4439
  922MOL0     C27160  10.021  10.419  11.652 -0.3338  0.1794  0.6483
  922MOL0     C27161   9.873  10.465  11.644  0.2964 -0.4769 -0.5965
  922MOL0     C27162   9.818  10.500  11.774  0.4943 -0.3005 -0.7204
  922MOL0     C27163   9.786  10.532  11.891 -0.1386  0.1191  1.1776
  922MOL0     C27164  10.249  10.890  11.486  0.8763 -0.3269 -0.6650
  922MOL0     C27165  10.310  10.976  11.389  1.2851  0.2183 -0.2463
  922MOL0     C27166  10.231  11.095  11.335 -0.0232  0.6829  0.5073
  922MOL0     H27167  10.872  11.073  11.406  3.4834  2.6409  1.1486
  922MOL0     H27168  11.050  11.198  11.330  0.4676  0.2879 -1.1252
  922MOL0     H27169  11.119  11.244  10.992 -2.0740  0.5538  1.4422
  922MOL0     H27170  11.235  11.299  11.113  0.9083 -1.2561 -1.6269
  922MOL0     H27171  11.249  11.400  10.860  0.3202  0.7904 -0.0152
  922MOL0     H27172  11.104  11.476  10.902 -0.8808 -0.5659  1.1604
  922MOL0     H27173  11.204  11.630  11.050 -2.3289 -0.6944 -1.7333
  922MOL0     H27174  11.344  11.521  11.093 -2.3069 -0.5617  2.8269
  922MOL0     H27175  11.414  11.551  10.853  0.0943  0.7407 -0.3642
  922MOL0     H27176  11.303  11.686  10.842  0.6831  1.3918  0.5548
  922MOL0     H27177  11.525  11.766  10.883  1.1411  1.5396  1.4467
  922MOL0     H27178  11.531  11.676  11.036  1.0767 -2.7609 -3.9642
  922MOL0     H27179  11.494  11.943  10.993  1.5849 -1.1171  0.0693
  922MOL0     H27180  11.325  11.893  10.969  1.0841  1.7643 -1.5559
  922MOL0     H27181  11.494  11.852  11.219  1.6186 -4.3020 -3.2742
  922MOL0     H27182  11.331  11.774  11.186 -2.0612  0.1798 -0.7560
  922MOL0     H27183  11.222  12.001  11.194 -0.8245  2.3783  2.9757
  922MOL0     H27184  11.309  11.976  11.334  1.9997 -0.6697  0.7757
  922MOL0     H27185  11.335  12.223  11.026 -2.0131  1.6192  1.1058
  922MOL0     H27186  11.649  12.440  11.106 -0.2965 -0.1312  0.8006
  922MOL0     H27187  11.481  12.481  11.071 -0.6422  0.1532  1.7399
  922MOL0     H27188  11.679  12.297  10.919 -0.8941 -1.5948 -1.8540
  922MOL0     H27189  11.515  12.294  10.882 -0.0146  0.6807  0.0673
  922MOL0     H27190  11.524  12.554  10.830  0.2467 -0.7171 -1.1303
  922MOL0     H27191  11.695  12.545  10.851 -1.0743  1.5745  0.0159
  922MOL0     H27192  11.517  12.439  10.623 -0.2616 -1.0041  1.8095
  922MOL0     H27193  11.662  12.524  10.601  1.3293 -1.7616 -1.7519
  922MOL0     H27194  11.556  12.368  10.424  1.0032  0.6314  0.2572
  922MOL0     H27195  11.505  12.331  10.209 -2.4289 -1.4733 -5.2758
  922MOL0     H27196  11.565  12.188  10.132  0.2687  1.4725 -5.1746
  922MOL0     H27197  11.639  12.352  10.094  0.6146  1.4702  1.0226
  922MOL0     H27198  12.151  12.277  10.000 -1.6377 -1.1884  2.0991
  922MOL0     H27199  12.266  12.228   9.795  0.5559  0.5113  1.5968
  922MOL0     H27200  12.294  11.998   9.709 -0.6898  4.7547 -0.0999
  922MOL0     H27201  12.176  11.894   9.613 -0.9160 -0.1871 -2.6202
  922MOL0     H27202  12.375  11.866   9.517 -0.8064 -0.3389  1.1610
  922MOL0     H27203  12.293  11.985   9.407  3.1101  3.8638 -0.7392
  922MOL0     H27204  12.479  12.081   9.633  0.3660 -0.4027 -0.7761
  922MOL0     H27205  12.402  12.172   9.509  0.0780  0.4423  3.8101
  922MOL0     H27206  12.551  12.076   9.325  1.6428  3.4560 -0.0281
  922MOL0     H27207  12.617  11.969   9.453 -3.0084 -1.0622 -0.5907
  922MOL0     H27208  12.648  12.266   9.439 -0.0155 -0.7678 -0.9515
  922MOL0     H27209  12.721  12.158   9.560 -3.0435  2.4931  1.7015
  922MOL0     H27210  12.765  12.193   9.259  1.0084 -4.0326 -1.6115
  922MOL0     H27211  12.814  12.042   9.331 -2.2927 -0.8012 -0.1580
  922MOL0     H27212  12.994  12.111   9.440  0.5347  0.5653  0.9237
  922MOL0     H27213  12.935  12.267   9.488 -2.1977  0.2111  0.1219
  922MOL0     H27214  13.102  12.299   9.339  0.2665  2.5880 -1.2223
  922MOL0     H27215  12.972  12.342   9.234  0.9654  0.6981 -0.3911
  922MOL0     H27216  11.895  12.050   9.655  2.0447 -2.7568 -0.0060
  922MOL0     H27217  11.786  12.123   9.859 -0.1612  1.7267  1.7194
  922MOL0     H27218  11.967  12.112  10.389 -0.5059 -0.0343  2.4977
  922MOL0     H27219  11.908  12.209  10.600  0.4250  1.2271 -0.6885
  922MOL0     H27220  10.829  11.356  11.010  3.4733  0.2785  1.4550
  922MOL0     H27221  10.644  11.200  11.058  1.2070 -2.5046 -0.5943
  922MOL0     H27222  10.610  10.819  11.399 -0.7979  0.3082 -2.7401
  922MOL0     H27223  10.512  10.711  11.593 -0.0993  1.0126  0.2440
  922MOL0     H27224  10.057  10.688  11.586 -1.4998 -1.8935  2.5057
  922MOL0     H27225  10.190  10.585  11.519  0.1735 -1.1772  0.4092
  922MOL0     H27226  10.070  10.562  11.806  0.1292 -0.5024 -0.1976
  922MOL0     H27227  10.212  10.477  11.746  0.7243 -0.4431 -3.2300
  922MOL0     H27228  10.052  10.396  11.550  0.0113  1.7436  0.3672
  922MOL0     H27229  10.027  10.335  11.721  0.9196  0.1329  0.5096
  922MOL0     H27230   9.818  10.380  11.604 -0.2374 -0.4211  0.0139
  922MOL0     H27231   9.857  10.551  11.579  2.5987  2.2153  2.1006
  922MOL0     H27232   9.763  10.547  11.994 -1.4744 -0.5693  0.9992
  922MOL0     H27233  10.154  10.913  11.535  1.5044 -2.0280  1.5297
  922MOL0     H27234  10.231  11.086  11.226  1.4015  0.2038  0.5166
  922MOL0     H27235  10.128  11.093  11.371 -1.0813  1.9530 -2.1788
  922MOL0     H27236  10.268  11.194  11.363 -1.5321  1.4361 -0.0617
  923MOL0     O27237   1.630   1.649  11.253 -0.3077  0.6037 -0.4656
  923MOL0     C27238   1.547   1.565  11.220 -0.3029 -0.3549  0.8702
  923MOL0     O27239   1.544   1.510  11.107  0.4702  0.9228 -0.6445
  923MOL0     C27240   1.648   1.523  11.020  0.2489 -0.1766  0.6482
  923MOL0     C27241   1.786   1.534  11.046 -0.0786 -0.6886 -0.2331
  923MOL0     C27242   1.889   1.515  10.953 -0.3251 -0.0505  0.4112
  923MOL0     C27243   1.855   1.480  10.825  0.3178  0.3912  0.0346
  923MOL0     O27244   1.957   1.451  10.744 -0.0586  1.0695  0.2520
  923MOL0     C27245   1.935   1.473  10.602 -0.7046 -0.1342 -0.4006
  923MOL0     C27246   2.079   1.508  10.557 -0.0532  1.1156  0.2118
  923MOL0     C27247   2.168   1.380  10.555 -0.0840  0.6093  0.0272
  923MOL0     C27248   2.314   1.417  10.526  0.4334 -0.3460  0.1412
  923MOL0     C27249   2.409   1.298  10.486  0.2440  0.0291 -0.7724
  923MOL0     C27250   2.528   1.338  10.412  0.0919 -0.3817  0.0141
  923MOL0     C27251   2.615   1.217  10.403  0.4119  0.3760 -0.2395
  923MOL0     C27252   2.749   1.252  10.331  1.2691  0.3758 -1.0819
  923MOL0     N27253   2.843   1.138  10.331 -1.1347 -1.2437  0.3024
  923MOL0     C27254   2.858   1.048  10.235  0.6922 -0.7271 -0.6425
  923MOL0     C27255   2.957   0.968  10.276 -1.2991 -0.3277 -0.3942
  923MOL0     C27256   3.032   0.855  10.217 -0.6147  1.3241  0.3275
  923MOL0     C27257   2.935   0.736  10.200  0.4359 -0.6099  0.4076
  923MOL0     C27258   2.973   0.633  10.094 -0.0307  0.1114 -0.7230
  923MOL0     C27259   3.112   0.575  10.086  0.1602  0.2330 -0.2798
  923MOL0     O27260   3.156   0.552  10.219 -0.3290  0.0393 -0.2605
  923MOL0     C27261   3.280   0.535  10.237  0.1382 -0.4411 -0.4600
  923MOL0     C27262   3.315   0.529  10.368  0.0908  0.6268  0.4550
  923MOL0     C27263   3.442   0.486  10.407 -0.6539 -0.1594 -0.0673
  923MOL0     C27264   3.465   0.498  10.559 -0.2213  0.1240 -0.1665
  923MOL0     C27265   3.538   0.455  10.308 -0.4583  0.3244  0.6308
  923MOL0     C27266   3.666   0.417  10.354 -0.3191  0.3705 -1.0213
  923MOL0     O27267   3.729   0.502  10.439 -0.0142 -0.0612  0.2732
  923MOL0     C27268   3.831   0.459  10.521 -0.0517 -0.2317 -0.6543
  923MOL0     C27269   3.933   0.373  10.478 -0.3928 -0.0206  0.0984
  923MOL0     C27270   4.036   0.327  10.567  0.1113 -0.1476 -0.8666
  923MOL0     C27271   4.027   0.354  10.706  0.5941  0.3682 -0.0610
  923MOL0     O27272   4.133   0.313  10.787 -0.2645  0.3980 -0.4879
  923MOL0     C27273   4.214   0.425  10.833  0.1153  0.0014  0.0718
  923MOL0     C27274   4.334   0.384  10.915  0.9910  0.3320 -0.3132
  923MOL0     C27275   4.430   0.314  10.827 -0.1448  1.0269  0.2383
  923MOL0     C27276   4.542   0.247  10.902  0.0276  0.7027 -0.0244
  923MOL0     C27277   4.624   0.151  10.816 -0.7590  0.2105 -0.2818
  923MOL0     C27278   4.766   0.120  10.868  0.4704  0.3440  0.7625
  923MOL0     C27279   4.829  -0.006  10.794 -0.2306  0.0540 -0.0697
  923MOL0     C27280   4.844   0.018  10.646  0.2459 -0.4641  0.9100
  923MOL0    Cl27281   4.982  -0.085  10.605 -0.0058 -0.1664 -0.0909
  923MOL0     C27282   3.929   0.440  10.744  0.1207  0.9646 -0.9354
  923MOL0     C27283   3.828   0.486  10.660  0.1542 -0.2949  0.8053
  923MOL0     O27284   3.713   0.310  10.306 -0.1981 -0.5148 -0.1024
  923MOL0     C27285   3.508   0.472  10.171  1.2840 -0.7518  0.2031
  923MOL0     C27286   3.377   0.507  10.136 -0.3772 -0.2698 -0.3435
  923MOL0     N27287   3.000   1.017  10.401  0.6634 -0.0242  0.5241
  923MOL0     N27288   2.928   1.117  10.436 -0.3347  0.8511  0.9485
  923MOL0     C27289   1.716   1.463  10.799 -0.5011 -0.4063  0.5487
  923MOL0     C27290   1.615   1.495  10.890 -0.0263  0.6955 -0.3425
  923MOL0     C27291   1.441   1.519  11.313 -0.5788  0.4077 -0.6756
  923MOL0     C27292   1.397   1.382  11.311 -0.0448 -0.5129  0.7485
  923MOL0     C27293   1.295   1.338  11.398 -0.1047 -0.3156 -0.0712
  923MOL0     C27294   1.237   1.422  11.496  0.1973 -0.2075  0.1709
  923MOL0     O27295   1.128   1.372  11.554 -0.2679  0.2721  0.0823
  923MOL0     C27296   1.056   1.455  11.645  0.2543 -0.0930  0.0014
  923MOL0     C27297   0.915   1.400  11.679  0.6458 -0.9338 -0.0513
  923MOL0     C27298   0.927   1.256  11.743  0.0079  1.0988  0.9574
  923MOL0     C27299   0.844   1.242  11.866  0.1105 -0.5242  0.2461
  923MOL0     C27300   0.709   1.202  11.820  0.3111 -0.3235  0.0893
  923MOL0     C27301   0.599   1.160  11.792 -0.8502  0.4038 -0.1818
  923MOL0     C27302   1.294   1.549  11.516 -0.3750  0.3105 -0.6733
  923MOL0     C27303   1.388   1.601  11.425 -0.5156 -0.2141 -0.2581
  923MOL0     C27304   1.415   1.750  11.444 -0.5489 -0.3330  0.5068
  923MOL0     H27305   1.828   1.568  11.140 -1.6550  1.0156 -0.0767
  923MOL0     H27306   1.995   1.531  10.969 -0.5090  0.1571  1.5310
  923MOL0     H27307   1.870   1.560  10.591  1.3951  1.7803  1.3862
  923MOL0     H27308   1.887   1.385  10.557  1.2718 -0.8948 -1.1242
  923MOL0     H27309   2.085   1.549  10.456 -1.1427  1.2382  0.1912
  923MOL0     H27310   2.123   1.579  10.629  1.1263  2.1757 -1.4914
  923MOL0     H27311   2.154   1.325  10.648 -0.3280  2.1077  0.8850
  923MOL0     H27312   2.134   1.319  10.470  0.0387 -1.7858  1.6188
  923MOL0     H27313   2.308   1.472  10.432  0.2747 -1.0958 -0.2948
  923MOL0     H27314   2.357   1.476  10.608 -0.2757 -0.5931  0.6973
  923MOL0     H27315   2.362   1.214  10.435  1.5641 -2.6766  2.1311
  923MOL0     H27316   2.436   1.251  10.581 -0.0061  0.1890 -0.6205
  923MOL0     H27317   2.506   1.374  10.310 -2.2850  3.1748  1.5617
  923MOL0     H27318   2.580   1.413  10.472  1.1821  0.5858 -2.0238
  923MOL0     H27319   2.558   1.135  10.360  1.7539 -0.7824  0.1288
  923MOL0     H27320   2.636   1.178  10.503 -1.9372 -1.7486 -0.4710
  923MOL0     H27321   2.697   1.268  10.236 -0.6005 -1.2616 -0.4145
  923MOL0     H27322   2.791   1.346  10.368 -1.6328  1.1845  0.5263
  923MOL0     H27323   2.805   1.048  10.141 -0.7856  0.6756  0.1358
  923MOL0     H27324   3.124   0.815  10.261 -0.3900 -0.2436 -1.4418
  923MOL0     H27325   3.066   0.876  10.116 -2.5457  0.0940 -0.6397
  923MOL0     H27326   2.909   0.682  10.292  1.6108 -0.5446  0.7919
  923MOL0     H27327   2.840   0.778  10.165  1.6825  0.6978 -1.6319
  923MOL0     H27328   2.912   0.546  10.119 -1.1778  0.4938 -2.0796
  923MOL0     H27329   2.953   0.676   9.996 -1.0093  0.6169 -0.3129
  923MOL0     H27330   3.117   0.487  10.022 -2.1820  0.3860 -0.7637
  923MOL0     H27331   3.180   0.652  10.048  1.0383  0.4727  1.6184
  923MOL0     H27332   3.243   0.554  10.447 -0.9408  2.1424 -0.8928
  923MOL0     H27333   3.529   0.414  10.585 -1.9899 -1.1676  0.1673
  923MOL0     H27334   3.378   0.492  10.624  1.2272 -2.8027  1.7416
  923MOL0     H27335   3.508   0.598  10.572  0.3860 -0.2685  1.0064
  923MOL0     H27336   3.935   0.335  10.376  0.2655 -0.8974  0.4164
  923MOL0     H27337   4.120   0.266  10.536 -1.3807 -2.5196 -0.5206
  923MOL0     H27338   4.245   0.486  10.748  1.3836  1.2552  1.3643
  923MOL0     H27339   4.154   0.494  10.894  1.4296 -1.2150  2.9298
  923MOL0     H27340   4.377   0.472  10.964  3.5157 -2.0286  2.0103
  923MOL0     H27341   4.292   0.317  10.990 -2.9352  0.5290 -2.1215
  923MOL0     H27342   4.474   0.379  10.750 -1.7790  0.5437 -1.1827
  923MOL0     H27343   4.378   0.237  10.769  1.4302 -0.5447  0.8236
  923MOL0     H27344   4.499   0.204  10.993 -0.7113  0.0979 -0.6488
  923MOL0     H27345   4.606   0.332  10.928  0.0892  0.4542  0.6642
  923MOL0     H27346   4.565   0.059  10.804  0.6533 -1.0546  1.6867
  923MOL0     H27347   4.641   0.200  10.720 -1.5119 -1.2221 -1.1920
  923MOL0     H27348   4.763   0.076  10.968  1.0097 -2.9189 -0.5191
  923MOL0     H27349   4.836   0.204  10.856 -0.1552  0.8151  0.3543
  923MOL0     H27350   4.765  -0.094  10.807 -1.5050  0.7070 -1.5657
  923MOL0     H27351   4.929  -0.027  10.833  0.0705 -0.7570 -1.2172
  923MOL0     H27352   4.866   0.125  10.636  2.7204 -1.0375 -0.7258
  923MOL0     H27353   4.755   0.009  10.583  0.7969 -0.4230  0.1127
  923MOL0     H27354   3.911   0.467  10.848  1.2061 -0.1671 -0.4338
  923MOL0     H27355   3.744   0.534  10.709 -0.2560 -0.3898  0.2009
  923MOL0     H27356   3.586   0.457  10.097  1.7918 -0.0651  0.5948
  923MOL0     H27357   3.355   0.518  10.030 -3.4026  0.3354  0.2459
  923MOL0     H27358   1.683   1.425  10.703 -1.9554  0.7674  0.5592
  923MOL0     H27359   1.513   1.478  10.858 -0.5846 -0.4235  1.8630
  923MOL0     H27360   1.429   1.321  11.227 -0.2149 -0.5917  0.7409
  923MOL0     H27361   1.271   1.233  11.383  0.5956 -0.2936 -1.5545
  923MOL0     H27362   1.110   1.450  11.741 -1.8267 -1.5081  1.1787
  923MOL0     H27363   1.036   1.560  11.622  0.4817 -0.1413 -0.4167
  923MOL0     H27364   0.858   1.410  11.587  0.5504  3.3531  0.2820
  923MOL0     H27365   0.859   1.464  11.747  0.3644  0.1852 -1.3002
  923MOL0     H27366   0.905   1.178  11.668  1.0705  2.3874 -0.7688
  923MOL0     H27367   1.029   1.241  11.781 -0.3933  0.8935  1.9806
  923MOL0     H27368   0.861   1.338  11.915  3.3491 -1.1648  0.6146
  923MOL0     H27369   0.887   1.164  11.929 -0.9749 -0.7118  0.7780
  923MOL0     H27370   0.514   1.101  11.761 -1.8471  1.0663  1.1924
  923MOL0     H27371   1.256   1.616  11.592 -3.0569 -1.1546 -0.6101
  923MOL0     H27372   1.520   1.777  11.453 -1.2097  1.9883  1.9322
  923MOL0     H27373   1.371   1.796  11.355  2.2186  0.6756 -0.4476
  923MOL0     H27374   1.382   1.792  11.539 -1.7278  6.4563 -2.3194
  924MOL0     O27375   4.038  10.432   9.654 -0.6002  0.4122  0.0701
  924MOL0     C27376   3.978  10.505   9.576  0.3067 -0.4848 -0.4880
  924MOL0     O27377   4.040  10.584   9.486  0.0812 -0.7602 -0.3183
  924MOL0     C27378   4.172  10.566   9.452  0.3044  0.4946 -0.1777
  924MOL0     C27379   4.253  10.677   9.472 -0.4835 -0.1544  0.4747
  924MOL0     C27380   4.397  10.660   9.461  1.0284 -0.1323 -0.0861
  924MOL0     C27381   4.450  10.541   9.407  0.1404  0.3358 -0.2230
  924MOL0     O27382   4.591  10.533   9.399  0.7991  0.0053 -0.5285
  924MOL0     C27383   4.655  10.408   9.374 -0.3362  0.3953  0.1384
  924MOL0     C27384   4.804  10.418   9.354  0.0158 -0.3174  0.1998
  924MOL0     C27385   4.834  10.494   9.224 -0.4407  0.6443 -0.6502
  924MOL0     C27386   4.991  10.503   9.207 -0.0605  0.2099 -0.2943
  924MOL0     C27387   5.011  10.516   9.048  0.9927 -0.2822  0.2340
  924MOL0     C27388   5.099  10.626   9.007  0.4896  0.0412  0.0077
  924MOL0     C27389   5.085  10.635   8.853 -0.1234 -0.4224  0.6971
  924MOL0     C27390   5.169  10.750   8.802  0.2226 -0.1211 -0.2809
  924MOL0     N27391   5.305  10.745   8.847 -0.7440 -0.4346  0.2631
  924MOL0     C27392   5.390  10.854   8.867  0.5728  0.3620 -0.1134
  924MOL0     C27393   5.523  10.807   8.853  0.8165 -0.8180 -1.0362
  924MOL0     C27394   5.661  10.877   8.861  0.6511 -0.4408  0.2813
  924MOL0     C27395   5.695  10.989   8.762  0.0891 -0.4455 -1.2129
  924MOL0     C27396   5.817  11.075   8.809  0.1476 -0.5585 -0.2160
  924MOL0     C27397   5.946  11.000   8.816  0.0200 -0.2767 -0.1983
  924MOL0     O27398   6.019  11.013   8.694 -0.4361  0.1278 -0.0445
  924MOL0     C27399   6.010  10.908   8.604 -0.5851 -0.1491 -0.3449
  924MOL0     C27400   6.008  10.937   8.473  0.5343 -0.3575  0.0494
  924MOL0     C27401   6.001  10.851   8.368  0.0444 -0.4331  0.2474
  924MOL0     C27402   5.994  10.914   8.225 -0.6436 -0.2637 -0.8768
  924MOL0     C27403   5.990  10.718   8.401 -0.3821  0.1314  0.4525
  924MOL0     C27404   5.998  10.602   8.297  0.4997  0.1470  0.2348
  924MOL0     O27405   5.957  10.473   8.335 -0.4095  0.4815 -0.4171
  924MOL0     C27406   5.917  10.388   8.231 -0.1108  0.4219 -0.2973
  924MOL0     C27407   5.783  10.377   8.199 -0.2945  0.0190  0.2978
  924MOL0     C27408   5.728  10.279   8.115  1.1049 -0.0630  0.0636
  924MOL0     C27409   5.815  10.182   8.055  0.8843 -0.0078 -0.7758
  924MOL0     O27410   5.773  10.077   7.980  0.2594  0.4330 -0.3091
  924MOL0     C27411   5.662  10.109   7.894 -0.5237 -0.3958  0.1703
  924MOL0     C27412   5.702  10.093   7.745 -0.8166 -0.2592  0.1417
  924MOL0     C27413   5.820  10.181   7.703  0.7677  0.1560 -0.6545
  924MOL0     C27414   5.854  10.177   7.554  0.7502  0.0671 -0.5698
  924MOL0     C27415   5.958  10.266   7.509 -0.2639 -0.3124 -0.3611
  924MOL0     C27416   5.996  10.236   7.368 -0.1682  0.0710 -0.5322
  924MOL0     C27417   6.081  10.348   7.316  0.7633  0.1548 -0.0280
  924MOL0     C27418   6.109  10.313   7.166 -0.3759  0.6012  0.1443
  924MOL0    Cl27419   6.231  10.443   7.126 -0.1812  0.6991 -0.1370
  924MOL0     C27420   5.952  10.198   8.097  0.5471 -0.0119  0.5069
  924MOL0     C27421   6.003  10.294   8.176  0.3465  0.3805  0.5160
  924MOL0     O27422   6.010  10.634   8.179  0.3678 -0.4004  0.0743
  924MOL0     C27423   5.960  10.678   8.531  0.5494 -0.2729  0.8551
  924MOL0     C27424   5.989  10.769   8.634  0.2839 -0.4110 -0.0535
  924MOL0     N27425   5.511  10.675   8.828  0.5920  0.2730 -0.0600
  924MOL0     N27426   5.390  10.638   8.813 -0.3186 -0.2391 -0.3977
  924MOL0     C27427   4.357  10.441   9.364 -1.0448  0.1807  0.3468
  924MOL0     C27428   4.219  10.444   9.404 -0.4172  0.0082 -1.5365
  924MOL0     C27429   3.829  10.505   9.585 -0.0692  0.1136  0.0487
  924MOL0     C27430   3.765  10.413   9.667  0.2592  0.6908 -0.4662
  924MOL0     C27431   3.628  10.403   9.679 -0.6275 -0.3873 -0.7996
  924MOL0     C27432   3.540  10.495   9.612 -0.3859  0.2686 -0.4178
  924MOL0     O27433   3.398  10.476   9.615 -0.5829 -0.7001 -0.0529
  924MOL0     C27434   3.357  10.345   9.635  0.5613  0.8607  0.3392
  924MOL0     C27435   3.208  10.333   9.585  0.5674  0.5342 -0.5322
  924MOL0     C27436   3.168  10.191   9.594 -0.3468  0.3907  0.2853
  924MOL0     C27437   3.021  10.154   9.567  0.6850  0.3479 -0.0098
  924MOL0     C27438   2.972  10.022   9.617 -0.1623 -0.5258  0.3574
  924MOL0     C27439   2.941   9.912   9.651 -0.3896 -0.4723 -0.6117
  924MOL0     C27440   3.610  10.598   9.542  0.5401  0.1878 -0.0213
  924MOL0     C27441   3.752  10.603   9.529  0.4727 -0.6889 -0.9758
  924MOL0     C27442   3.800  10.725   9.449 -0.6881  0.8284  0.3656
  924MOL0     H27443   4.200  10.769   9.493  0.8103  0.7600 -0.1433
  924MOL0     H27444   4.457  10.749   9.480  1.2158 -0.1640 -0.5220
  924MOL0     H27445   4.609  10.358   9.288 -0.7287  1.9190 -0.5711
  924MOL0     H27446   4.667  10.349   9.466 -1.2219  1.0173  0.6666
  924MOL0     H27447   4.840  10.471   9.443 -1.0936  0.6882  0.0820
  924MOL0     H27448   4.851  10.320   9.355  0.0119 -0.3574 -1.3734
  924MOL0     H27449   4.787  10.450   9.135  0.1417 -1.1654 -0.1187
  924MOL0     H27450   4.794  10.595   9.216  3.2748  2.2060 -1.6407
  924MOL0     H27451   5.043  10.584   9.257  2.3434 -1.2522 -0.2794
  924MOL0     H27452   5.042  10.414   9.245  2.1037  0.5591 -2.1522
  924MOL0     H27453   4.912  10.530   9.003  1.3463  0.7987 -0.2570
  924MOL0     H27454   5.062  10.425   9.012  1.0820 -0.8085  1.6412
  924MOL0     H27455   5.076  10.712   9.072  1.1976 -1.7374  2.8080
  924MOL0     H27456   5.201  10.603   9.038  1.0036  1.9443 -0.0933
  924MOL0     H27457   4.983  10.650   8.816  0.7931  2.6765 -0.9055
  924MOL0     H27458   5.116  10.547   8.796 -1.1246 -0.8444  0.7746
  924MOL0     H27459   5.170  10.741   8.693 -1.3445  1.1410 -0.4488
  924MOL0     H27460   5.130  10.848   8.831  0.6456 -0.8297  3.0179
  924MOL0     H27461   5.360  10.956   8.888 -1.9939 -0.2811 -0.2911
  924MOL0     H27462   5.740  10.802   8.849  0.1665 -0.5653 -3.0144
  924MOL0     H27463   5.669  10.923   8.960  0.0883 -0.4008  0.3114
  924MOL0     H27464   5.707  10.964   8.656  0.9488 -0.8898 -1.0249
  924MOL0     H27465   5.606  11.052   8.756 -0.9075 -1.8613 -1.9265
  924MOL0     H27466   5.829  11.168   8.753 -3.0963  0.8681  1.2313
  924MOL0     H27467   5.794  11.107   8.911 -0.5975  2.2277 -1.1807
  924MOL0     H27468   6.005  11.058   8.888 -0.1719  0.3521 -0.5324
  924MOL0     H27469   5.941  10.901   8.863 -3.4339  1.1686  2.9849
  924MOL0     H27470   6.025  11.041   8.446 -1.1612 -0.3754 -1.2733
  924MOL0     H27471   5.913  10.870   8.166 -1.4267  1.7372 -1.3832
  924MOL0     H27472   6.090  10.897   8.177 -1.0786  0.4458 -2.0688
  924MOL0     H27473   5.982  11.023   8.228 -0.3746 -0.2482  0.0483
  924MOL0     H27474   5.714  10.448   8.245  0.3189  2.0230 -1.7067
  924MOL0     H27475   5.621  10.281   8.097 -0.0715 -0.6550  5.3989
  924MOL0     H27476   5.572  10.051   7.916  0.8744 -3.1448 -0.9057
  924MOL0     H27477   5.634  10.214   7.904  2.5575  0.5892 -0.2676
  924MOL0     H27478   5.740   9.993   7.723  0.4659 -0.9760  4.5616
  924MOL0     H27479   5.620  10.128   7.680  1.3751  0.8965 -2.1825
  924MOL0     H27480   5.913  10.160   7.757 -0.0296 -3.8304 -0.4975
  924MOL0     H27481   5.797  10.285   7.724 -1.1723  0.0094 -1.8092
  924MOL0     H27482   5.757  10.207   7.513 -1.1769 -0.8620  2.9373
  924MOL0     H27483   5.883  10.079   7.515  0.8161 -0.3256  0.4316
  924MOL0     H27484   5.910  10.364   7.518 -0.5683 -0.1277 -3.2413
  924MOL0     H27485   6.039  10.259   7.583 -0.8997  1.5272  0.5931
  924MOL0     H27486   5.906  10.236   7.305  0.7267  1.4056 -1.8724
  924MOL0     H27487   6.046  10.139   7.355 -0.9228 -0.2676 -1.0586
  924MOL0     H27488   6.175  10.374   7.366  0.5875  1.7210 -0.4558
  924MOL0     H27489   6.024  10.441   7.317  0.4451  0.0107 -1.7054
  924MOL0     H27490   6.014  10.317   7.111 -1.1275  0.4234  1.3973
  924MOL0     H27491   6.159  10.216   7.161  1.0299  1.2928  0.2040
  924MOL0     H27492   6.027  10.130   8.059  1.0676  1.3023 -0.9347
  924MOL0     H27493   6.110  10.288   8.187  0.4606  0.7655 -0.3011
  924MOL0     H27494   5.931  10.579   8.563 -0.4724 -1.0499 -2.1495
  924MOL0     H27495   5.988  10.756   8.742 -1.2612  4.6117  0.8295
  924MOL0     H27496   4.399  10.352   9.318 -1.2213  1.6577 -2.8711
  924MOL0     H27497   4.160  10.352   9.407  0.3767 -0.4971 -0.0019
  924MOL0     H27498   3.826  10.349   9.731  1.0951  2.1858  0.2811
  924MOL0     H27499   3.595  10.321   9.742  0.0929  0.2883  0.4950
  924MOL0     H27500   3.409  10.271   9.574  0.0937  1.1181 -0.3857
  924MOL0     H27501   3.362  10.321   9.741  0.2692  0.8453  0.3518
  924MOL0     H27502   3.205  10.375   9.485  4.0361 -1.0585 -1.4601
  924MOL0     H27503   3.139  10.384   9.653  0.7629 -0.4934  0.4867
  924MOL0     H27504   3.229  10.113   9.548 -0.5917 -1.5139  2.9585
  924MOL0     H27505   3.172  10.158   9.698 -3.3789 -1.4960 -0.0660
  924MOL0     H27506   3.006  10.165   9.459 -0.1412  1.4247  0.1986
  924MOL0     H27507   2.947  10.219   9.616 -0.2487 -0.5465 -0.2067
  924MOL0     H27508   2.894   9.827   9.696 -3.6919  0.2648 -2.3804
  924MOL0     H27509   3.545  10.668   9.491 -2.2010 -1.3379  1.1400
  924MOL0     H27510   3.729  10.796   9.407 -0.4811  0.4761 -0.6073
  924MOL0     H27511   3.889  10.771   9.493  0.6351 -2.6504  1.6405
  924MOL0     H27512   3.837  10.688   9.353 -3.7206 -0.7097 -0.3504
  925MOL0     O27513   6.436   4.104  11.178  0.3748 -0.3478  0.2285
  925MOL0     C27514   6.408   4.016  11.260  0.5699  0.2310 -0.3160
  925MOL0     O27515   6.453   4.011  11.385 -0.0660 -0.4982 -0.3921
  925MOL0     C27516   6.544   4.097  11.449 -0.3023 -0.3382  0.8711
  925MOL0     C27517   6.595   4.221  11.400 -0.6939  0.2129  0.7087
  925MOL0     C27518   6.698   4.294  11.468 -0.6123  0.3055  0.1263
  925MOL0     C27519   6.758   4.226  11.576  0.3939  0.5023  0.3634
  925MOL0     O27520   6.864   4.285  11.651 -0.2997  0.2988 -0.1986
  925MOL0     C27521   6.918   4.410  11.602 -0.8855 -0.0507  0.4029
  925MOL0     C27522   7.021   4.471  11.703 -0.0194 -0.9093  0.6767
  925MOL0     C27523   7.143   4.378  11.744 -0.0331  0.2064  1.1115
  925MOL0     C27524   7.111   4.284  11.851 -0.6735 -0.5426  0.8896
  925MOL0     C27525   7.239   4.214  11.890  0.0007  0.0380  0.0853
  925MOL0     C27526   7.333   4.297  11.971 -0.3165 -0.7935 -0.4561
  925MOL0     C27527   7.424   4.207  12.057  0.7160 -0.7744 -0.1685
  925MOL0     C27528   7.545   4.280  12.115  0.4927  0.2086 -0.8412
  925MOL0     N27529   7.642   4.319  12.012  0.3573  0.6840 -0.6232
  925MOL0     C27530   7.728   4.242  11.934  0.1491  0.1196  0.1924
  925MOL0     C27531   7.778   4.324  11.838 -1.0878  0.2003 -0.1306
  925MOL0     C27532   7.877   4.284  11.735 -0.1187  0.2003 -0.4998
  925MOL0     C27533   8.007   4.333  11.802  0.1850  0.4776 -0.0146
  925MOL0     C27534   8.112   4.328  11.700 -0.3125  0.3457  0.1226
  925MOL0     C27535   8.240   4.384  11.761  0.1320  0.3076  0.2230
  925MOL0     O27536   8.295   4.290  11.863  0.0694 -0.6498 -0.4761
  925MOL0     C27537   8.419   4.303  11.925 -0.5434  0.4969  0.2524
  925MOL0     C27538   8.511   4.396  11.894  0.7541 -0.2651 -0.0027
  925MOL0     C27539   8.636   4.403  11.947 -0.3211  0.3823 -0.3891
  925MOL0     C27540   8.731   4.510  11.884 -0.3431 -0.0396 -0.1669
  925MOL0     C27541   8.673   4.305  12.048 -0.2125 -0.1824  0.0788
  925MOL0     C27542   8.809   4.290  12.106  0.4809 -0.3970  0.7223
  925MOL0     O27543   8.821   4.204  12.207  0.2262 -0.1259 -0.3339
  925MOL0     C27544   8.947   4.168  12.242  0.4822  0.4238 -0.6004
  925MOL0     C27545   8.992   4.043  12.197 -0.2608 -0.1578  0.2953
  925MOL0     C27546   9.130   4.018  12.221  0.1663  0.2381 -0.5615
  925MOL0     C27547   9.218   4.108  12.290  0.6206  0.1400  1.1275
  925MOL0     O27548   9.339   4.076  12.335  0.0190  0.2341  0.4650
  925MOL0     C27549   9.419   4.013  12.233 -0.2658 -0.1283  0.8569
  925MOL0     C27550   9.565   4.034  12.266  0.0550 -0.4695  0.2839
  925MOL0     C27551   9.625   3.960  12.392 -0.5272 -0.7630 -0.1976
  925MOL0     C27552   9.775   3.971  12.382  0.1509  0.0767  0.2095
  925MOL0     C27553   9.850   3.931  12.507  0.4019 -0.2613  0.9579
  925MOL0     C27554   9.808   4.002  12.642 -0.5869  0.4251 -0.5901
  925MOL0     C27555   9.912   3.966  12.748 -0.0083  0.3878 -0.0112
  925MOL0     C27556  10.024   4.064  12.795  0.9116 -0.6338 -0.3400
  925MOL0    Cl27557  10.164   4.046  12.682  0.0131  0.1850 -0.1788
  925MOL0     C27558   9.175   4.239  12.327 -0.9926  0.1403 -0.7699
  925MOL0     C27559   9.040   4.263  12.308  0.5110  0.0886  0.1520
  925MOL0     O27560   8.900   4.342  12.045 -0.2972 -0.6626  0.2763
  925MOL0     C27561   8.571   4.211  12.082  0.3641  0.3733 -0.5672
  925MOL0     C27562   8.454   4.203  12.017  0.1858  0.2163 -0.1467
  925MOL0     N27563   7.726   4.454  11.861  0.0170  0.3014 -0.2406
  925MOL0     N27564   7.642   4.448  11.966  0.0819  0.0656  0.0949
  925MOL0     C27565   6.707   4.103  11.619  0.0828 -0.1295 -0.6755
  925MOL0     C27566   6.586   4.050  11.572 -0.0669  0.7858  0.7371
  925MOL0     C27567   6.294   3.928  11.232 -0.3706  0.5591  0.7786
  925MOL0     C27568   6.210   3.889  11.338  1.0593 -1.3986  0.0473
  925MOL0     C27569   6.092   3.811  11.317 -0.0847  0.5526 -0.4553
  925MOL0     C27570   6.063   3.759  11.190 -0.0636 -0.4650  0.4889
  925MOL0     O27571   5.948   3.682  11.167  0.3619 -0.6973  0.2117
  925MOL0     C27572   5.878   3.627  11.273 -0.9041 -0.1821  0.5272
  925MOL0     C27573   5.758   3.563  11.213  0.0115  0.4217 -0.1778
  925MOL0     C27574   5.687   3.454  11.305  0.6035 -0.0171  0.3086
  925MOL0     C27575   5.584   3.383  11.219  0.2835  1.6797  0.0300
  925MOL0     C27576   5.502   3.305  11.317 -0.3700  0.4583  0.6135
  925MOL0     C27577   5.437   3.232  11.395 -0.0119  0.7116 -0.7733
  925MOL0     C27578   6.144   3.794  11.084 -0.2326 -0.4770 -0.2940
  925MOL0     C27579   6.258   3.873  11.095  0.1692  0.0396 -0.6481
  925MOL0     C27580   6.341   3.905  10.969  0.5137 -0.3082  0.2677
  925MOL0     H27581   6.554   4.258  11.307 -0.9652 -1.8675 -0.0515
  925MOL0     H27582   6.734   4.382  11.414  2.6264 -1.8591 -1.5836
  925MOL0     H27583   6.844   4.490  11.594  0.4393  1.4285  2.1342
  925MOL0     H27584   6.971   4.392  11.508  1.5369  1.8796  1.2965
  925MOL0     H27585   7.051   4.563  11.652  2.7106 -3.1684 -2.2720
  925MOL0     H27586   6.977   4.501  11.798  1.9718 -0.8259  1.6163
  925MOL0     H27587   7.176   4.323  11.655  1.4661  0.9305  1.1925
  925MOL0     H27588   7.226   4.443  11.774 -0.4651  0.3945  1.9196
  925MOL0     H27589   7.073   4.348  11.931 -0.5032  3.2230 -1.7488
  925MOL0     H27590   7.032   4.211  11.830 -1.1002  0.0626  0.3210
  925MOL0     H27591   7.294   4.172  11.806  1.9431  1.0968  0.7758
  925MOL0     H27592   7.227   4.129  11.958  3.8966  0.0455  0.9897
  925MOL0     H27593   7.384   4.360  11.898  2.2238 -2.1825 -0.0138
  925MOL0     H27594   7.284   4.351  12.052 -1.4309 -0.7079 -1.1730
  925MOL0     H27595   7.458   4.120  12.000  1.5002 -0.8382  0.3876
  925MOL0     H27596   7.362   4.176  12.142  0.3497 -0.3475 -0.2780
  925MOL0     H27597   7.513   4.362  12.181 -1.4762 -1.3670  0.2898
  925MOL0     H27598   7.593   4.217  12.190  1.3906  3.4747  1.5808
  925MOL0     H27599   7.739   4.134  11.939 -0.1246  0.1292  1.2759
  925MOL0     H27600   7.867   4.347  11.645 -1.3807  2.1083  0.9046
  925MOL0     H27601   7.862   4.181  11.703 -1.2167 -0.1089  0.9343
  925MOL0     H27602   7.989   4.437  11.831  1.7770  0.1545  2.4214
  925MOL0     H27603   8.023   4.267  11.888 -1.6186 -1.1520 -0.8505
  925MOL0     H27604   8.123   4.222  11.675 -0.0945 -0.0301  1.7065
  925MOL0     H27605   8.083   4.401  11.625 -0.3357  3.1449  2.6678
  925MOL0     H27606   8.319   4.391  11.686  0.5377  0.4805  0.6696
  925MOL0     H27607   8.220   4.483  11.803  0.4258  0.5568 -0.2100
  925MOL0     H27608   8.483   4.462  11.813  1.0774  1.3171  1.1477
  925MOL0     H27609   8.675   4.576  11.816 -0.9615 -0.7645 -0.3738
  925MOL0     H27610   8.808   4.456  11.828  0.8272  1.1354  0.2598
  925MOL0     H27611   8.776   4.567  11.965  1.1870 -0.1839 -0.8750
  925MOL0     H27612   8.927   3.972  12.146  3.0256 -3.1988 -0.1013
  925MOL0     H27613   9.172   3.923  12.188  0.1029  0.0583 -0.1274
  925MOL0     H27614   9.399   3.905  12.225 -0.1534 -0.0088 -1.7970
  925MOL0     H27615   9.400   4.064  12.138 -1.4208  1.1828  1.7609
  925MOL0     H27616   9.622   4.008  12.176 -0.6589  2.0043 -0.9582
  925MOL0     H27617   9.585   4.140  12.279  4.1474 -0.6379 -2.5778
  925MOL0     H27618   9.603   3.853  12.389  2.4357 -1.5009  0.6626
  925MOL0     H27619   9.595   4.004  12.488 -0.2897 -2.5293  0.7351
  925MOL0     H27620   9.809   4.073  12.365 -0.0126  0.0686 -0.1974
  925MOL0     H27621   9.805   3.911  12.295 -1.3690 -1.7872  0.8920
  925MOL0     H27622   9.833   3.824  12.523 -1.1095 -0.2243 -0.1595
  925MOL0     H27623   9.953   3.954  12.480  0.1374 -0.6065 -0.4076
  925MOL0     H27624   9.707   3.969  12.667  0.2849  0.2979  3.5322
  925MOL0     H27625   9.811   4.111  12.630 -0.2438  0.5212  0.2350
  925MOL0     H27626   9.959   3.869  12.728 -0.2972 -0.7748  3.9224
  925MOL0     H27627   9.846   3.954  12.835  1.0598 -0.2081  0.7373
  925MOL0     H27628  10.068   4.023  12.886  0.8903 -1.9346 -0.8911
  925MOL0     H27629   9.984   4.164  12.814 -2.7509 -2.2566  1.4393
  925MOL0     H27630   9.236   4.315  12.373 -0.9019 -0.0442 -0.5804
  925MOL0     H27631   9.003   4.363  12.326 -3.7842 -1.2911  0.0779
  925MOL0     H27632   8.588   4.134  12.158  2.2182 -0.6781 -1.9638
  925MOL0     H27633   8.378   4.133  12.049 -1.0904  1.1591 -1.0087
  925MOL0     H27634   6.753   4.055  11.705  3.6155  1.1022 -1.6939
  925MOL0     H27635   6.531   3.976  11.629  1.3419  0.1006  1.2400
  925MOL0     H27636   6.215   3.936  11.436 -0.1390  1.5234 -1.1753
  925MOL0     H27637   6.023   3.805  11.400  1.8931  2.2455  1.4444
  925MOL0     H27638   5.937   3.547  11.320  0.0048  0.9180  1.2990
  925MOL0     H27639   5.854   3.703  11.347  4.1078 -0.0975  2.4900
  925MOL0     H27640   5.794   3.513  11.122 -1.6404  0.2001 -0.7282
  925MOL0     H27641   5.685   3.639  11.186 -1.0172  0.3014  2.0315
  925MOL0     H27642   5.759   3.380  11.340 -1.0237 -1.6623  0.3146
  925MOL0     H27643   5.652   3.503  11.396  1.8654 -1.6302  1.7379
  925MOL0     H27644   5.617   3.316  11.139 -2.0093  0.9931 -0.4171
  925MOL0     H27645   5.516   3.463  11.188 -1.4270  1.4925  2.8976
  925MOL0     H27646   5.378   3.174  11.462  0.7169 -1.7651 -2.1635
  925MOL0     H27647   6.129   3.742  10.989  2.1358  2.4336 -2.4848
  925MOL0     H27648   6.303   4.000  10.931  0.1302 -0.2700  0.7445
  925MOL0     H27649   6.448   3.918  10.987  0.7022 -1.8413  0.3659
  925MOL0     H27650   6.331   3.818  10.904 -0.3592  0.9191 -1.3025
  926MOL0     O27651   7.908   3.627   1.793  0.7220 -0.6090  0.1410
  926MOL0     C27652   7.789   3.658   1.787  0.7501  1.1679 -0.2565
  926MOL0     O27653   7.733   3.755   1.707 -0.4237 -0.0100  0.0430
  926MOL0     C27654   7.795   3.836   1.617 -0.6501 -0.2892  0.1358
  926MOL0     C27655   7.741   3.849   1.490  0.2038  0.1568  0.8855
  926MOL0     C27656   7.815   3.906   1.384  0.4938  0.0449  0.2719
  926MOL0     C27657   7.942   3.956   1.405  0.0687 -0.5224  0.8131
  926MOL0     O27658   7.998   4.032   1.304 -0.8642  0.1094 -0.4628
  926MOL0     C27659   8.147   4.023   1.300  0.0848  0.0604  0.3099
  926MOL0     C27660   8.207   4.047   1.159 -0.2903 -0.5065  0.0902
  926MOL0     C27661   8.171   4.184   1.105  0.5579  0.3419  0.0917
  926MOL0     C27662   8.211   4.198   0.959  0.1050 -0.3420  0.3744
  926MOL0     C27663   8.163   4.330   0.886 -0.2899 -0.1966 -0.3364
  926MOL0     C27664   8.205   4.321   0.739  0.1114 -0.4045 -0.0218
  926MOL0     C27665   8.155   4.439   0.662 -0.0377 -0.0099  0.0171
  926MOL0     C27666   8.243   4.565   0.702 -0.1862  0.3786  0.2891
  926MOL0     N27667   8.221   4.674   0.603 -0.2804  0.0839  0.0650
  926MOL0     C27668   8.275   4.806   0.607  0.0451  0.5872  0.6237
  926MOL0     C27669   8.225   4.871   0.504 -0.3316  0.1004  0.0745
  926MOL0     C27670   8.247   5.014   0.461 -0.3886  0.4917 -0.1553
  926MOL0     C27671   8.383   5.005   0.373  0.1942 -0.5531  0.2456
  926MOL0     C27672   8.431   5.135   0.306  0.4518  0.2347 -0.1395
  926MOL0     C27673   8.412   5.266   0.388  0.3631 -0.0131 -0.1805
  926MOL0     O27674   8.466   5.255   0.517 -0.3976  0.6503 -0.7262
  926MOL0     C27675   8.450   5.366   0.591 -0.8182 -0.0611  0.3291
  926MOL0     C27676   8.529   5.476   0.559  0.0600  0.3863  0.7380
  926MOL0     C27677   8.496   5.600   0.609 -0.2099  0.4746  0.1828
  926MOL0     C27678   8.565   5.721   0.549  0.1249  0.0136  0.3461
  926MOL0     C27679   8.414   5.610   0.714 -0.2279 -0.8731 -0.3290
  926MOL0     C27680   8.385   5.736   0.786 -0.4738  0.8300 -0.5072
  926MOL0     O27681   8.263   5.739   0.840  0.3132 -1.0006  0.4727
  926MOL0     C27682   8.227   5.865   0.887  0.1763  0.4650 -0.3270
  926MOL0     C27683   8.302   5.928   0.989 -0.6564 -0.1361 -0.6485
  926MOL0     C27684   8.306   6.067   1.009  0.5646  0.1280  0.6789
  926MOL0     C27685   8.230   6.152   0.917 -0.1414 -0.7667 -0.0363
  926MOL0     O27686   8.246   6.280   0.929  0.4319 -0.4437 -0.2909
  926MOL0     C27687   8.132   6.349   0.883 -0.0686  0.6144 -1.8313
  926MOL0     C27688   8.156   6.492   0.925  0.1312  0.1985 -1.3603
  926MOL0     C27689   8.027   6.573   0.894  0.2770  0.8881 -0.1403
  926MOL0     C27690   8.026   6.720   0.929 -0.2049 -0.6415 -0.7853
  926MOL0     C27691   7.978   6.736   1.074  0.1170 -0.5673  0.6740
  926MOL0     C27692   7.945   6.883   1.102  0.6607  0.2287  1.2297
  926MOL0     C27693   7.877   6.907   1.234 -0.2345 -0.2110 -0.5775
  926MOL0     C27694   7.759   7.005   1.220 -0.0951 -0.7166 -0.1732
  926MOL0    Cl27695   7.618   6.934   1.139 -0.1999  0.3808 -0.2626
  926MOL0     C27696   8.140   6.087   0.827  0.6250 -0.5746  0.1361
  926MOL0     C27697   8.144   5.949   0.817  0.4498  0.6836 -0.1802
  926MOL0     O27698   8.475   5.820   0.808 -0.1524 -0.0235  0.3444
  926MOL0     C27699   8.349   5.495   0.764 -0.0249  0.2071  0.5739
  926MOL0     C27700   8.374   5.373   0.706 -0.7337  0.1176 -0.5634
  926MOL0     N27701   8.149   4.780   0.428  0.2139  1.0795 -0.8067
  926MOL0     N27702   8.128   4.675   0.498 -0.6564  0.8086 -0.1639
  926MOL0     C27703   8.002   3.939   1.529 -0.4025  0.3050  0.0042
  926MOL0     C27704   7.930   3.881   1.633  0.9382  0.3452 -1.2781
  926MOL0     C27705   7.692   3.599   1.890  0.6768  0.3496 -0.1300
  926MOL0     C27706   7.707   3.463   1.927  0.2695 -1.1313 -0.0713
  926MOL0     C27707   7.615   3.407   2.024 -0.5383  0.1597  0.2861
  926MOL0     C27708   7.515   3.485   2.081 -0.1868  0.7572  0.8287
  926MOL0     O27709   7.442   3.407   2.162  0.5252 -0.1270 -1.0028
  926MOL0     C27710   7.390   3.464   2.286 -0.3253 -0.8936 -0.4705
  926MOL0     C27711   7.303   3.358   2.355  0.4817  0.4256 -0.5177
  926MOL0     C27712   7.157   3.401   2.382  0.6231  0.0381  1.2930
  926MOL0     C27713   7.070   3.416   2.250 -0.5900 -0.5449  1.0405
  926MOL0     C27714   7.062   3.551   2.192 -1.1277  0.1907  0.6826
  926MOL0     C27715   7.032   3.660   2.139  0.1021 -0.0110  0.2666
  926MOL0     C27716   7.508   3.623   2.040 -0.2908  0.9017  0.3799
  926MOL0     C27717   7.601   3.684   1.951  0.1670 -0.5534 -0.0122
  926MOL0     C27718   7.592   3.835   1.951  0.1416  0.0448 -0.1829
  926MOL0     H27719   7.645   3.801   1.472 -1.6348  3.2427  1.7233
  926MOL0     H27720   7.770   3.920   1.286  1.3463 -2.5976 -0.5699
  926MOL0     H27721   8.168   3.922   1.336 -2.7724  0.1634  2.6577
  926MOL0     H27722   8.195   4.105   1.353  1.4233 -0.1598 -0.5063
  926MOL0     H27723   8.313   4.024   1.145 -0.4397  0.2102 -2.7880
  926MOL0     H27724   8.160   3.977   1.088  0.5403  0.4993 -1.5099
  926MOL0     H27725   8.063   4.197   1.110  0.6438  1.8686 -1.2970
  926MOL0     H27726   8.223   4.250   1.175 -0.9868  2.3773 -0.5956
  926MOL0     H27727   8.320   4.186   0.957  0.1773 -0.0060  1.4337
  926MOL0     H27728   8.173   4.118   0.896  0.3862 -1.2897  1.3764
  926MOL0     H27729   8.204   4.416   0.940 -1.0324  2.3654 -3.5668
  926MOL0     H27730   8.054   4.336   0.896 -0.0664  2.2193  2.1230
  926MOL0     H27731   8.313   4.306   0.728  0.1074 -0.4101 -0.0534
  926MOL0     H27732   8.146   4.240   0.696 -3.6382  2.7238 -1.4196
  926MOL0     H27733   8.051   4.457   0.690  0.1658  2.6425 -0.6483
  926MOL0     H27734   8.162   4.433   0.553  1.5722  2.5215 -0.0987
  926MOL0     H27735   8.217   4.602   0.802 -0.4084 -0.4280  0.5374
  926MOL0     H27736   8.346   4.529   0.702  0.0376  0.8944 -2.0494
  926MOL0     H27737   8.332   4.843   0.692 -0.1584 -1.2222  1.6260
  926MOL0     H27738   8.261   5.088   0.541  2.1626  1.5899 -1.5262
  926MOL0     H27739   8.162   5.046   0.399 -0.5721 -0.8182 -0.6045
  926MOL0     H27740   8.458   4.962   0.441  0.1257  0.1719  0.7833
  926MOL0     H27741   8.384   4.933   0.291 -2.0551 -0.3865  0.0309
  926MOL0     H27742   8.535   5.117   0.276  1.7170  0.9946  3.4008
  926MOL0     H27743   8.365   5.146   0.219 -0.7092 -2.0792  0.3683
  926MOL0     H27744   8.470   5.346   0.341  0.4003 -0.5641 -1.1053
  926MOL0     H27745   8.310   5.304   0.395  0.5527  1.2313 -2.9675
  926MOL0     H27746   8.613   5.446   0.497  0.5117 -3.4918  2.8667
  926MOL0     H27747   8.662   5.751   0.589 -0.3513  0.9740  0.8141
  926MOL0     H27748   8.509   5.815   0.556 -1.0007 -0.6860  1.0872
  926MOL0     H27749   8.586   5.696   0.444  0.1161  3.4122 -0.5700
  926MOL0     H27750   8.378   5.875   1.046  0.0120  2.9793  1.6516
  926MOL0     H27751   8.366   6.114   1.087  1.1023  1.1706 -0.3216
  926MOL0     H27752   8.146   6.338   0.775 -0.8191 -0.4391 -1.8438
  926MOL0     H27753   8.036   6.321   0.927  0.5777  1.0824 -0.0217
  926MOL0     H27754   8.168   6.496   1.033  0.3491 -0.8228 -1.3364
  926MOL0     H27755   8.243   6.539   0.878  1.0441 -0.8545 -0.7850
  926MOL0     H27756   7.931   6.535   0.930  0.0997  3.1914  2.1666
  926MOL0     H27757   8.017   6.571   0.785  1.9667 -0.4437 -0.3094
  926MOL0     H27758   7.960   6.777   0.863  0.1993  0.5956 -0.1499
  926MOL0     H27759   8.120   6.776   0.921  0.6858 -2.3457 -5.0110
  926MOL0     H27760   7.889   6.675   1.091  0.1188 -0.0439  2.7827
  926MOL0     H27761   8.042   6.705   1.157 -1.9025 -1.1710  2.0878
  926MOL0     H27762   7.879   6.926   1.026  1.6753 -0.9202 -0.3633
  926MOL0     H27763   8.032   6.947   1.086  2.1954 -2.6024 -4.2220
  926MOL0     H27764   7.952   6.942   1.305  0.6816 -4.6207  0.9666
  926MOL0     H27765   7.840   6.816   1.281 -0.2594 -0.1627 -0.5026
  926MOL0     H27766   7.797   7.095   1.169  0.7713 -2.0584 -2.0041
  926MOL0     H27767   7.732   7.050   1.316  0.1473  3.4279 -1.8426
  926MOL0     H27768   8.069   6.128   0.755  2.9909 -3.2491 -4.1295
  926MOL0     H27769   8.086   5.891   0.745  1.1387 -0.8654  0.4708
  926MOL0     H27770   8.275   5.494   0.843 -1.2207  0.3801 -0.5012
  926MOL0     H27771   8.322   5.282   0.732  0.0551 -0.7466 -1.8907
  926MOL0     H27772   8.101   3.980   1.549  1.0210 -1.9798 -1.9128
  926MOL0     H27773   7.987   3.877   1.725  1.2323  0.2745 -1.4617
  926MOL0     H27774   7.796   3.413   1.891  0.3790 -2.3037  1.7280
  926MOL0     H27775   7.630   3.307   2.064  2.8585  0.8329  0.9946
  926MOL0     H27776   7.470   3.506   2.348 -2.1656  1.0598  0.7317
  926MOL0     H27777   7.323   3.548   2.264  0.1580 -0.3097  0.2095
  926MOL0     H27778   7.361   3.341   2.446  0.1429 -0.9598 -0.5411
  926MOL0     H27779   7.292   3.271   2.290 -2.5389  1.6245 -1.8321
  926MOL0     H27780   7.101   3.326   2.438  0.1445 -0.1829  0.5258
  926MOL0     H27781   7.147   3.503   2.423 -1.4933  2.2378 -3.8376
  926MOL0     H27782   6.972   3.375   2.275  0.2286 -4.2819 -1.2341
  926MOL0     H27783   7.117   3.352   2.176  1.8523  1.8073  0.3865
  926MOL0     H27784   7.027   3.757   2.093 -0.7176 -0.7488 -1.2428
  926MOL0     H27785   7.426   3.687   2.071 -0.8478 -0.0014  0.8138
  926MOL0     H27786   7.545   3.871   2.043 -0.5032 -2.9811  0.8085
  926MOL0     H27787   7.695   3.872   1.947 -0.8079  2.8456 -1.0533
  926MOL0     H27788   7.534   3.863   1.863  1.5306  1.0358 -0.8130
  927MOL0     O27789  10.159  10.302   0.948 -0.6894 -0.0838 -0.4798
  927MOL0     C27790  10.264  10.274   1.014 -0.0898 -0.0639  0.5382
  927MOL0     O27791  10.381  10.246   0.956  0.8725 -0.0959  0.1428
  927MOL0     C27792  10.389  10.193   0.826 -0.2079  0.4874  0.1065
  927MOL0     C27793  10.357  10.272   0.713 -0.5494 -0.4260 -0.2523
  927MOL0     C27794  10.370  10.212   0.585 -0.4463  0.4894 -0.3279
  927MOL0     C27795  10.406  10.081   0.562 -0.6730 -0.2214  0.0840
  927MOL0     O27796  10.439  10.035   0.437  0.0993 -0.3103 -0.7721
  927MOL0     C27797  10.325  10.054   0.346 -0.5070 -0.3762  0.0944
  927MOL0     C27798  10.352   9.960   0.234  0.0579 -0.1032 -0.6178
  927MOL0     C27799  10.465  10.000   0.134  0.5153  0.9215 -0.2304
  927MOL0     C27800  10.471   9.905   0.017 -0.9118  0.3350 -0.4536
  927MOL0     C27801  10.347   9.870  -0.065 -0.3042  0.8521 -0.1822
  927MOL0     C27802  10.293   9.984  -0.146 -0.1254  0.5791 -0.6308
  927MOL0     C27803  10.235   9.956  -0.288 -0.3397  1.0153  0.4354
  927MOL0     C27804  10.174  10.085  -0.350  1.0396 -0.9229  0.7293
  927MOL0     N27805  10.034  10.107  -0.311  0.1530 -0.9730  0.0162
  927MOL0     C27806   9.958  10.224  -0.320  0.0838 -0.2342 -0.0728
  927MOL0     C27807   9.833  10.191  -0.280  0.5554  0.1785 -0.5120
  927MOL0     C27808   9.713  10.271  -0.306 -0.0147 -0.0415  0.1243
  927MOL0     C27809   9.697  10.393  -0.211 -0.5015  0.2359  0.5761
  927MOL0     C27810   9.565  10.462  -0.239 -0.8058  0.4487 -0.0552
  927MOL0     C27811   9.549  10.607  -0.192  0.4941 -0.3473  0.4015
  927MOL0     O27812   9.636  10.694  -0.265 -0.0004  0.3262 -0.2288
  927MOL0     C27813   9.582  10.819  -0.281 -0.2951  1.0276 -0.1016
  927MOL0     C27814   9.554  10.892  -0.169 -0.1906 -0.7060 -0.3757
  927MOL0     C27815   9.501  11.023  -0.180 -0.2664  0.1744 -0.4467
  927MOL0     C27816   9.472  11.107  -0.058  0.2047 -0.0343 -0.6524
  927MOL0     C27817   9.473  11.074  -0.311 -0.1828 -0.0255 -0.0303
  927MOL0     C27818   9.433  11.210  -0.349 -0.4187  0.3226 -1.6359
  927MOL0     O27819   9.403  11.234  -0.473 -0.7115 -0.0965 -0.5692
  927MOL0     C27820   9.404  11.354  -0.532  0.7514 -0.1811 -0.0292
  927MOL0     C27821   9.444  11.480  -0.476  0.1521 -1.5231  0.0050
  927MOL0     C27822   9.445  11.596  -0.557  0.5986  0.4021  0.3942
  927MOL0     C27823   9.395  11.589  -0.689  0.1785 -0.4418 -0.7216
  927MOL0     O27824   9.401  11.698  -0.779 -0.0265  0.2862 -1.1715
  927MOL0     C27825   9.493  11.801  -0.749  0.7272  0.0553  0.4625
  927MOL0     C27826   9.502  11.904  -0.859 -0.8285 -0.9668 -0.6317
  927MOL0     C27827   9.608  11.892  -0.964  0.2080  0.5688  0.4250
  927MOL0     C27828   9.597  11.743  -1.025 -0.0872 -0.6321  0.3365
  927MOL0     C27829   9.698  11.716  -1.138 -0.3891 -0.3685  0.5327
  927MOL0     C27830   9.741  11.569  -1.162 -0.0111  0.2258 -0.0174
  927MOL0     C27831   9.837  11.518  -1.060 -1.1121 -0.5243 -0.6306
  927MOL0     C27832   9.981  11.555  -1.080 -0.3302  1.1746 -0.3321
  927MOL0    Cl27833  10.084  11.506  -0.947  0.1177 -0.1957 -0.0427
  927MOL0     C27834   9.353  11.469  -0.733  0.3546 -0.3639  0.3931
  927MOL0     C27835   9.362  11.354  -0.663  0.9441 -0.0424  0.7075
  927MOL0     O27836   9.438  11.294  -0.258 -0.0930 -0.3634 -0.3476
  927MOL0     C27837   9.499  10.993  -0.426 -0.7602  0.2061 -0.8278
  927MOL0     C27838   9.550  10.861  -0.410  0.3703  0.7034  0.5525
  927MOL0     N27839   9.836  10.061  -0.230  0.7901  0.2364  0.7869
  927MOL0     N27840   9.953  10.009  -0.254  0.1350 -0.9185 -0.2323
  927MOL0     C27841  10.430   9.995   0.677  0.0467  0.1062  0.4999
  927MOL0     C27842  10.418  10.055   0.804 -0.3711  0.6055  0.0832
  927MOL0     C27843  10.268  10.297   1.161  0.4237  0.1125  0.1219
  927MOL0     C27844  10.374  10.255   1.242 -0.2856  0.6119 -0.7458
  927MOL0     C27845  10.397  10.285   1.374  0.2639 -0.4695 -0.4538
  927MOL0     C27846  10.292  10.345   1.441  0.8337 -0.8559 -0.6280
  927MOL0     O27847  10.278  10.381   1.574  0.4910  0.6200 -0.1489
  927MOL0     C27848  10.380  10.354   1.665 -0.4808  0.2734 -0.4547
  927MOL0     C27849  10.422  10.214   1.698 -0.0807  0.4837  0.7689
  927MOL0     C27850  10.506  10.207   1.827 -0.2694 -0.3815  0.4100
  927MOL0     C27851  10.505  10.057   1.867  0.6129 -0.1774  0.0784
  927MOL0     C27852  10.530  10.036   2.005  0.5408 -0.4269  0.2599
  927MOL0     C27853  10.534  10.028   2.124  0.0981  0.0987  0.5334
  927MOL0     C27854  10.180  10.389   1.370  0.0860  0.1126  0.1193
  927MOL0     C27855  10.167  10.371   1.235 -0.6795 -0.6491 -0.0981
  927MOL0     C27856  10.056  10.447   1.164 -0.0630  0.5527  1.0014
  927MOL0     H27857  10.333  10.377   0.723  2.8086  0.4527 -0.1972
  927MOL0     H27858  10.360  10.269   0.493 -3.4202 -3.0009 -2.4558
  927MOL0     H27859  10.333  10.157   0.310 -0.9837 -0.4257 -0.1534
  927MOL0     H27860  10.233  10.018   0.394 -1.1403 -0.3627 -1.0840
  927MOL0     H27861  10.363   9.869   0.294 -3.0901  0.4889  1.1079
  927MOL0     H27862  10.262   9.946   0.173 -0.4845 -0.7646  0.3067
  927MOL0     H27863  10.440  10.099   0.096 -1.0408  1.3031  1.6200
  927MOL0     H27864  10.559   9.999   0.191 -0.5595 -2.4142  1.7698
  927MOL0     H27865  10.553   9.927  -0.052  0.6042 -4.1357 -0.4239
  927MOL0     H27866  10.507   9.813   0.066  0.0261 -0.9745 -3.4071
  927MOL0     H27867  10.267   9.827  -0.004  0.9637  0.6878  1.4158
  927MOL0     H27868  10.382   9.793  -0.135  1.3649  1.9998 -0.6723
  927MOL0     H27869  10.221  10.034  -0.081  2.1549  0.7203  1.9737
  927MOL0     H27870  10.363  10.067  -0.160 -0.9407  1.8538  2.0787
  927MOL0     H27871  10.157   9.879  -0.284 -0.6864  1.4092  3.6861
  927MOL0     H27872  10.319   9.932  -0.354 -1.2195  0.2126 -0.4278
  927MOL0     H27873  10.235  10.166  -0.309  1.2926 -0.7927  0.1078
  927MOL0     H27874  10.190  10.083  -0.458 -0.4981 -0.8984  0.4815
  927MOL0     H27875   9.975  10.322  -0.363  0.8936 -1.4333 -2.6571
  927MOL0     H27876   9.621  10.211  -0.303 -0.4732  0.6691  1.0282
  927MOL0     H27877   9.713  10.301  -0.411 -1.8815 -0.3344  0.0004
  927MOL0     H27878   9.705  10.363  -0.106 -2.0951 -0.5635  0.4981
  927MOL0     H27879   9.778  10.467  -0.215 -0.4521  0.2720  1.7489
  927MOL0     H27880   9.561  10.464  -0.348  0.6463 -1.9240 -0.2120
  927MOL0     H27881   9.491  10.392  -0.199 -2.0234  2.8600  2.2793
  927MOL0     H27882   9.444  10.637  -0.187  0.2729 -1.3478  3.0430
  927MOL0     H27883   9.582  10.616  -0.088  2.7830 -0.7599 -0.2326
  927MOL0     H27884   9.558  10.855  -0.067 -0.7948  2.0075  0.6952
  927MOL0     H27885   9.474  11.050   0.035 -3.5550 -0.5444 -0.7011
  927MOL0     H27886   9.371  11.149  -0.067  0.3814  0.4195 -0.5426
  927MOL0     H27887   9.543  11.189  -0.052  0.1718 -0.0778  2.9760
  927MOL0     H27888   9.505  11.485  -0.386 -1.1751 -2.7901  1.0150
  927MOL0     H27889   9.497  11.686  -0.526 -0.1738  1.2735 -0.7765
  927MOL0     H27890   9.456  11.844  -0.656  0.1845 -0.8806  0.6964
  927MOL0     H27891   9.597  11.768  -0.737  1.3839  2.4227  1.7675
  927MOL0     H27892   9.407  11.910  -0.913  0.3286 -1.6876 -2.8444
  927MOL0     H27893   9.517  12.000  -0.808 -1.8420 -0.0176 -2.0342
  927MOL0     H27894   9.706  11.896  -0.915  0.0319 -1.8641  1.0980
  927MOL0     H27895   9.603  11.974  -1.037  1.5678  1.0743  0.8704
  927MOL0     H27896   9.497  11.745  -1.068 -1.6891  0.9782  3.7047
  927MOL0     H27897   9.599  11.663  -0.950  0.0892 -2.0473 -1.1343
  927MOL0     H27898   9.653  11.746  -1.232 -0.2546 -1.1735  0.2084
  927MOL0     H27899   9.790  11.774  -1.121 -0.6106  0.2326 -0.2915
  927MOL0     H27900   9.799  11.550  -1.253  1.8134 -1.1985  1.3749
  927MOL0     H27901   9.646  11.514  -1.158 -1.2579  2.3391  2.9729
  927MOL0     H27902   9.823  11.410  -1.053  0.0853 -0.6753 -0.3357
  927MOL0     H27903   9.810  11.556  -0.961  0.5280 -1.0621  0.0596
  927MOL0     H27904   9.977  11.664  -1.079 -1.3646  1.1454 -0.0484
  927MOL0     H27905  10.008  11.515  -1.179  0.6489 -1.4759  0.9079
  927MOL0     H27906   9.312  11.453  -0.833  1.0267 -1.3445  0.2632
  927MOL0     H27907   9.326  11.256  -0.694 -1.6349  0.2684  2.4278
  927MOL0     H27908   9.467  11.017  -0.527  1.0430  2.3295 -0.9515
  927MOL0     H27909   9.572  10.790  -0.489  0.1591  0.3732  0.7911
  927MOL0     H27910  10.461   9.892   0.660  0.9030 -0.2404  3.6050
  927MOL0     H27911  10.440   9.996   0.892 -0.9929 -0.4734 -0.4526
  927MOL0     H27912  10.454  10.196   1.199  1.7368  2.4931  0.1946
  927MOL0     H27913  10.494  10.275   1.422  0.4936 -3.0338 -1.3161
  927MOL0     H27914  10.463  10.419   1.634 -1.0262  0.5495 -1.3940
  927MOL0     H27915  10.344  10.406   1.755  1.3119  2.2395 -0.7676
  927MOL0     H27916  10.487  10.165   1.624  1.4658 -3.0232  4.0691
  927MOL0     H27917  10.331  10.153   1.706 -1.0189  1.1963 -2.8859
  927MOL0     H27918  10.610  10.241   1.821 -0.0643 -1.2195 -3.0488
  927MOL0     H27919  10.455  10.269   1.901 -1.0696  0.7595 -1.0461
  927MOL0     H27920  10.577  10.007   1.802 -1.0115  1.2815 -3.0858
  927MOL0     H27921  10.409  10.012   1.841  2.0777 -1.4973 -3.8605
  927MOL0     H27922  10.519  10.017   2.230  2.0123  1.3788  1.0001
  927MOL0     H27923  10.120  10.463   1.421  1.2067  2.4115 -1.6987
  927MOL0     H27924  10.020  10.523   1.234 -0.0227 -0.3934  2.0878
  927MOL0     H27925  10.081  10.504   1.074 -1.4977 -1.9366 -1.1101
  927MOL0     H27926   9.969  10.390   1.128 -0.2080  0.1723  1.9201
  928MOL0     O27927   5.210   1.882   6.039  0.3986 -0.7704 -0.2527
  928MOL0     C27928   5.170   1.858   5.921 -0.5756  0.2934 -0.5977
  928MOL0     O27929   5.074   1.765   5.884 -0.2615 -0.5142  0.2614
  928MOL0     C27930   4.988   1.740   5.989  1.1352  0.1132 -0.3320
  928MOL0     C27931   4.893   1.826   6.049 -0.4854 -0.7052  0.9235
  928MOL0     C27932   4.809   1.777   6.151 -0.0938 -0.4483 -0.9730
  928MOL0     C27933   4.820   1.646   6.189  0.0037  0.0552 -0.1887
  928MOL0     O27934   4.738   1.606   6.288  0.2835 -0.6646 -0.1378
  928MOL0     C27935   4.654   1.495   6.254 -0.4519 -0.6859 -0.9725
  928MOL0     C27936   4.582   1.429   6.375 -0.7025 -0.4811 -0.4781
  928MOL0     C27937   4.461   1.517   6.421 -0.3934 -0.1608  0.0998
  928MOL0     C27938   4.383   1.452   6.542 -0.4630  0.1503  0.0784
  928MOL0     C27939   4.252   1.523   6.564  0.1113  0.4637  0.0502
  928MOL0     C27940   4.266   1.668   6.598 -0.4211  0.2523 -0.2478
  928MOL0     C27941   4.314   1.696   6.744 -0.3110  0.0076  0.2549
  928MOL0     C27942   4.217   1.648   6.848  0.1850 -0.3779 -0.6550
  928MOL0     N27943   4.254   1.710   6.977 -0.3320 -0.6596 -0.3231
  928MOL0     C27944   4.351   1.667   7.065  0.1646 -0.1550  0.2639
  928MOL0     C27945   4.329   1.744   7.179  1.1678 -1.1961 -0.0449
  928MOL0     C27946   4.401   1.751   7.308 -0.9407  1.5165 -0.9436
  928MOL0     C27947   4.513   1.645   7.333  0.2585  0.3857  0.2620
  928MOL0     C27948   4.474   1.493   7.343 -0.8437 -0.2617  0.0163
  928MOL0     C27949   4.382   1.457   7.459  0.5414 -0.3500  0.0821
  928MOL0     O27950   4.345   1.322   7.456  0.2335 -0.0931 -0.1521
  928MOL0     C27951   4.248   1.283   7.374 -0.2215  0.2881  0.4166
  928MOL0     C27952   4.179   1.352   7.269  0.4029  0.3903  0.0131
  928MOL0     C27953   4.084   1.284   7.194  0.0200 -0.6751 -0.2870
  928MOL0     C27954   4.019   1.363   7.080  0.0979 -0.3794 -0.9346
  928MOL0     C27955   4.044   1.155   7.227 -0.5758  0.1921  0.7071
  928MOL0     C27956   3.936   1.091   7.165  0.2966 -0.4476 -0.9592
  928MOL0     O27957   3.843   1.040   7.258  0.9024  0.0837  0.4713
  928MOL0     C27958   3.743   0.960   7.207  0.2300  0.0986  0.0897
  928MOL0     C27959   3.624   1.014   7.162 -0.8713 -0.2964  0.8996
  928MOL0     C27960   3.515   0.929   7.129 -0.5675 -0.6716  0.0558
  928MOL0     C27961   3.532   0.789   7.137  0.2120 -1.1166 -0.3508
  928MOL0     O27962   3.430   0.696   7.113 -0.1928 -0.4093  0.5927
  928MOL0     C27963   3.346   0.672   7.225  0.1999  0.6090  0.0549
  928MOL0     C27964   3.197   0.689   7.201  0.0378 -0.4784 -0.2702
  928MOL0     C27965   3.115   0.628   7.323 -0.4706 -0.8830 -0.4425
  928MOL0     C27966   2.971   0.676   7.330  0.4193 -0.3004 -0.1597
  928MOL0     C27967   2.874   0.593   7.411 -0.2789  0.9816  0.6493
  928MOL0     C27968   2.918   0.561   7.560 -0.3279  0.2154 -1.0648
  928MOL0     C27969   2.814   0.477   7.631 -0.3674  0.2980  0.2662
  928MOL0     C27970   2.702   0.557   7.695  0.4221  0.1293 -0.0361
  928MOL0    Cl27971   2.573   0.450   7.757 -0.1674 -0.0279  0.2624
  928MOL0     C27972   3.657   0.737   7.163 -0.7819  0.1856 -0.3312
  928MOL0     C27973   3.761   0.825   7.187 -0.0246 -0.4118 -0.6288
  928MOL0     O27974   3.945   1.069   7.046 -0.1195 -0.3195  0.8204
  928MOL0     C27975   4.102   1.093   7.340  0.1274  0.2290  0.2010
  928MOL0     C27976   4.203   1.154   7.406  0.4399  0.6217  0.0917
  928MOL0     N27977   4.212   1.817   7.153  0.4290 -0.0367  0.4324
  928MOL0     N27978   4.177   1.795   7.039  1.6484  0.7266  0.8532
  928MOL0     C27979   4.917   1.560   6.138  0.2976  0.3304  0.0540
  928MOL0     C27980   5.001   1.604   6.040  0.3682 -0.6299  0.0528
  928MOL0     C27981   5.240   1.921   5.808  0.5871 -0.5100 -0.7108
  928MOL0     C27982   5.276   1.835   5.702  0.9667 -0.9130 -0.9291
  928MOL0     C27983   5.341   1.879   5.587 -0.2641  0.1261  0.5377
  928MOL0     C27984   5.389   2.011   5.580 -0.0002  0.5055  0.0796
  928MOL0     O27985   5.450   2.062   5.472  0.3317  0.4374 -0.0030
  928MOL0     C27986   5.447   1.989   5.351 -0.4769 -0.8633  0.8140
  928MOL0     C27987   5.559   2.045   5.259  0.8789  0.1074 -0.0902
  928MOL0     C27988   5.551   1.971   5.130 -0.2108 -0.0058 -0.7990
  928MOL0     C27989   5.631   2.030   5.015 -0.0257  0.5583 -0.4564
  928MOL0     C27990   5.558   2.140   4.951  1.5731 -0.4283 -0.3027
  928MOL0     C27991   5.488   2.232   4.906  0.3536  0.3902 -0.5994
  928MOL0     C27992   5.350   2.096   5.686 -0.3870 -0.1665 -0.0460
  928MOL0     C27993   5.269   2.058   5.791 -1.0307 -0.7863  0.0514
  928MOL0     C27994   5.251   2.160   5.899 -0.2919 -0.6291 -0.1254
  928MOL0     H27995   4.888   1.928   6.012  1.9148 -0.9260 -0.1434
  928MOL0     H27996   4.729   1.838   6.191  1.0634  0.7386 -0.3960
  928MOL0     H27997   4.719   1.414   6.219 -0.0990 -1.0418  0.4405
  928MOL0     H27998   4.586   1.524   6.174 -2.0435  2.1669  1.2422
  928MOL0     H27999   4.543   1.330   6.352  0.5288 -1.2816  0.7023
  928MOL0     H28000   4.656   1.408   6.453 -0.0201  1.9629 -0.3609
  928MOL0     H28001   4.502   1.611   6.457  0.5350 -0.2682 -0.6244
  928MOL0     H28002   4.377   1.531   6.352 -2.4189 -1.4593  2.1664
  928MOL0     H28003   4.368   1.344   6.529 -0.4549 -0.0651  1.6597
  928MOL0     H28004   4.450   1.465   6.627  0.9268  0.0190 -0.9595
  928MOL0     H28005   4.208   1.466   6.646  0.4331  0.9857  0.5875
  928MOL0     H28006   4.183   1.514   6.479  0.3281 -2.0220  0.0673
  928MOL0     H28007   4.332   1.711   6.522 -1.1474 -2.4268 -2.5669
  928MOL0     H28008   4.167   1.710   6.577 -1.2228  0.4390  3.3033
  928MOL0     H28009   4.320   1.805   6.743  2.7825 -0.0677 -0.0019
  928MOL0     H28010   4.409   1.647   6.767 -0.2633 -0.2792 -0.5077
  928MOL0     H28011   4.119   1.685   6.818 -0.6779 -0.7396  1.5626
  928MOL0     H28012   4.218   1.540   6.864 -0.2790 -0.4229 -0.9119
  928MOL0     H28013   4.426   1.593   7.040 -1.4234 -1.1888 -1.6845
  928MOL0     H28014   4.333   1.735   7.392  1.3943  0.2853  0.8372
  928MOL0     H28015   4.437   1.854   7.310  0.2461  1.1088 -0.1536
  928MOL0     H28016   4.582   1.649   7.248 -0.4647  0.4373 -0.3292
  928MOL0     H28017   4.567   1.672   7.424 -0.2806  0.4553  0.5628
  928MOL0     H28018   4.456   1.450   7.244  1.0756 -2.6030  0.5927
  928MOL0     H28019   4.567   1.440   7.367 -0.7169  0.9744  2.6652
  928MOL0     H28020   4.428   1.480   7.556  1.5217  1.1603 -0.7015
  928MOL0     H28021   4.285   1.508   7.457 -1.9442 -4.4587  1.6435
  928MOL0     H28022   4.210   1.454   7.248  1.2904  0.4521  1.5328
  928MOL0     H28023   4.008   1.465   7.118 -1.7898 -1.7256  2.7004
  928MOL0     H28024   3.924   1.318   7.048 -0.0652  0.5044 -1.7407
  928MOL0     H28025   4.079   1.345   6.991 -1.4644 -1.7732 -1.7693
  928MOL0     H28026   3.615   1.121   7.175 -1.3507  0.0246 -1.5243
  928MOL0     H28027   3.420   0.970   7.098  0.3571  1.6327  0.1161
  928MOL0     H28028   3.358   0.565   7.245 -0.9343  0.5495  0.4851
  928MOL0     H28029   3.377   0.718   7.319 -0.5831 -0.6424  0.9480
  928MOL0     H28030   3.167   0.793   7.187 -0.8889 -0.6990 -0.0132
  928MOL0     H28031   3.165   0.639   7.110  1.8297  0.9821 -1.7848
  928MOL0     H28032   3.165   0.641   7.420 -1.7463 -0.8515  0.2362
  928MOL0     H28033   3.106   0.520   7.306 -2.8900 -0.3637 -3.1324
  928MOL0     H28034   2.936   0.685   7.227  1.2760 -1.8032 -0.6231
  928MOL0     H28035   2.975   0.776   7.373 -0.8544 -1.0747  1.9061
  928MOL0     H28036   2.784   0.654   7.401  0.4475  2.1398  0.9337
  928MOL0     H28037   2.877   0.498   7.355  2.3016  0.7112  1.1086
  928MOL0     H28038   2.909   0.654   7.616 -1.2641 -1.5998  2.0805
  928MOL0     H28039   3.020   0.523   7.565 -0.3082  0.3829  0.2880
  928MOL0     H28040   2.858   0.434   7.722  1.0584 -0.4668 -0.7424
  928MOL0     H28041   2.774   0.402   7.562 -2.0464  1.3131  0.0936
  928MOL0     H28042   2.657   0.615   7.614 -0.0993 -0.8751 -0.4872
  928MOL0     H28043   2.736   0.623   7.775  2.9193 -2.7100  1.4393
  928MOL0     H28044   3.675   0.630   7.163  0.3122  0.3283 -2.1493
  928MOL0     H28045   3.854   0.781   7.220 -1.1373 -3.3585 -1.1663
  928MOL0     H28046   4.067   0.994   7.365  0.7160 -0.0216  0.0481
  928MOL0     H28047   4.231   1.100   7.496 -0.4906 -0.8824 -0.4907
  928MOL0     H28048   4.921   1.456   6.171 -9.7370 -1.2146 -0.5545
  928MOL0     H28049   5.071   1.535   5.992 -1.0006 -2.6923  0.8808
  928MOL0     H28050   5.254   1.730   5.716 -0.1718 -0.4259  1.2955
  928MOL0     H28051   5.353   1.806   5.508  2.5498  0.0462  0.9498
  928MOL0     H28052   5.459   1.881   5.359 -3.4692 -1.3841 -0.4679
  928MOL0     H28053   5.352   1.995   5.298 -0.0836 -1.4590  0.0107
  928MOL0     H28054   5.656   2.025   5.306  1.0266  0.2524 -0.3297
  928MOL0     H28055   5.533   2.148   5.232  0.8786 -0.4724 -2.4761
  928MOL0     H28056   5.583   1.869   5.153  0.6265  1.2758  5.5796
  928MOL0     H28057   5.446   1.973   5.100 -0.3256 -1.1020 -0.4934
  928MOL0     H28058   5.643   1.947   4.945  0.5159 -0.4753  0.8279
  928MOL0     H28059   5.732   2.063   5.041  1.3387 -2.1613 -1.9087
  928MOL0     H28060   5.428   2.313   4.869 -1.8359 -0.1993  1.4069
  928MOL0     H28061   5.388   2.197   5.677  2.0188 -0.7942  1.8654
  928MOL0     H28062   5.172   2.125   5.965  1.4679 -2.0451  1.3705
  928MOL0     H28063   5.339   2.172   5.964 -0.5354  4.7184 -0.3968
  928MOL0     H28064   5.239   2.253   5.843  1.7256 -1.7112 -2.6143
  929MOL0     O28065  10.901   4.204   9.488 -0.0205 -0.2738  0.1701
  929MOL0     C28066  10.854   4.121   9.419 -0.2779 -0.4989 -0.6220
  929MOL0     O28067  10.933   4.049   9.335  0.2941 -0.9807  0.1153
  929MOL0     C28068  11.060   4.088   9.311  0.1746  0.4717  0.7530
  929MOL0     C28069  11.172   4.030   9.375  0.6032  0.4545 -0.2504
  929MOL0     C28070  11.301   4.075   9.351 -0.6689  0.2105  0.5274
  929MOL0     C28071  11.324   4.174   9.259  0.3907  1.1215 -0.1909
  929MOL0     O28072  11.459   4.200   9.240  0.1103  0.6023  0.3692
  929MOL0     C28073  11.478   4.258   9.107 -0.9628 -0.3079 -0.0359
  929MOL0     C28074  11.634   4.275   9.073 -0.3719 -0.2451 -0.2020
  929MOL0     C28075  11.686   4.386   9.155  0.4189  0.3273 -1.2969
  929MOL0     C28076  11.836   4.431   9.136 -0.3389 -0.1659  1.1681
  929MOL0     C28077  11.940   4.351   9.211  0.6480  1.2835  0.1438
  929MOL0     C28078  12.084   4.390   9.181 -0.2317  0.1257 -0.7766
  929MOL0     C28079  12.180   4.287   9.233  0.0093  0.1592 -0.2002
  929MOL0     C28080  12.175   4.151   9.161 -0.4052  0.2020 -0.0097
  929MOL0     N28081  12.225   4.043   9.244  0.3098  0.3766 -0.0622
  929MOL0     C28082  12.355   4.023   9.267 -0.8875 -0.2290  0.9428
  929MOL0     C28083  12.361   3.919   9.356 -0.7502 -0.2022 -0.8097
  929MOL0     C28084  12.490   3.851   9.404  0.3506 -0.4554 -0.9261
  929MOL0     C28085  12.491   3.861   9.554  0.6461 -0.0582  0.6308
  929MOL0     C28086  12.547   4.001   9.608  0.6823 -0.1597  0.1542
  929MOL0     C28087  12.525   4.012   9.759 -0.0221  0.2532 -0.0097
  929MOL0     O28088  12.605   3.912   9.816 -0.4440  0.1346  0.1718
  929MOL0     C28089  12.557   3.819   9.900 -1.0877 -1.0339 -0.6389
  929MOL0     C28090  12.430   3.765   9.888 -0.6688 -0.2108 -0.6712
  929MOL0     C28091  12.375   3.674   9.978 -0.3168  0.1419  0.2220
  929MOL0     C28092  12.245   3.613   9.937 -0.5081  0.1555 -0.5095
  929MOL0     C28093  12.462   3.636  10.088 -0.1838  0.7341  0.0802
  929MOL0     C28094  12.426   3.549  10.205 -0.0665  0.7268 -1.0521
  929MOL0     O28095  12.293   3.537  10.228 -0.5011 -0.1620 -1.1333
  929MOL0     C28096  12.237   3.480  10.339 -0.0883 -0.2968 -0.7104
  929MOL0     C28097  12.285   3.388  10.434  0.1198 -0.0508  0.3396
  929MOL0     C28098  12.208   3.340  10.540  0.5555  0.8975 -0.8852
  929MOL0     C28099  12.077   3.382  10.562  1.1583 -0.3591 -0.0818
  929MOL0     O28100  12.009   3.319  10.654  0.6839  0.4144  0.3860
  929MOL0     C28101  11.867   3.350  10.679 -0.4382 -0.6405 -0.7079
  929MOL0     C28102  11.796   3.229  10.747  0.7283 -0.5347 -0.3773
  929MOL0     C28103  11.638   3.245  10.755  0.8496 -0.3760 -0.3698
  929MOL0     C28104  11.557   3.101  10.742 -0.4811 -0.8289 -0.0344
  929MOL0     C28105  11.595   2.999  10.847  0.5984 -0.7223 -0.2398
  929MOL0     C28106  11.499   2.878  10.842 -0.7212  0.7535 -0.2686
  929MOL0     C28107  11.523   2.778  10.957  0.5845  0.0509 -0.0875
  929MOL0     C28108  11.442   2.648  10.940 -0.5115 -0.0734  0.0082
  929MOL0    Cl28109  11.274   2.673  10.895 -0.1345  0.3660  0.1604
  929MOL0     C28110  12.029   3.473  10.468  0.4658  0.7409 -0.4280
  929MOL0     C28111  12.101   3.519  10.361  0.0013  0.0164 -0.3300
  929MOL0     O28112  12.515   3.479  10.258  0.0114  0.9422 -0.5328
  929MOL0     C28113  12.600   3.673  10.089 -0.1237  0.7549 -1.2220
  929MOL0     C28114  12.646   3.778  10.004  0.5643  0.3339  0.0025
  929MOL0     N28115  12.235   3.887   9.383  0.5235 -0.3609 -0.1064
  929MOL0     N28116  12.150   3.958   9.315 -0.0190 -0.2330  0.6549
  929MOL0     C28117  11.214   4.227   9.191  0.4419  0.3804 -0.0932
  929MOL0     C28118  11.084   4.180   9.201 -1.2998  0.6904 -0.2118
  929MOL0     C28119  10.705   4.095   9.418  0.2340 -0.1292 -0.9964
  929MOL0     C28120  10.664   3.973   9.364  0.6792  0.6698 -0.2024
  929MOL0     C28121  10.528   3.938   9.348  0.5216  0.0902 -0.1156
  929MOL0     C28122  10.430   4.032   9.373  0.7818  0.0370 -0.0668
  929MOL0     O28123  10.298   4.008   9.349  0.0856  0.7101 -0.2267
  929MOL0     C28124  10.259   3.889   9.266 -0.0421 -0.2216 -0.2744
  929MOL0     C28125  10.110   3.894   9.261  0.3934 -0.1921  0.7981
  929MOL0     C28126  10.048   3.777   9.179 -0.5053 -1.1290 -0.5666
  929MOL0     C28127  10.122   3.735   9.055 -0.6526  0.1952 -0.5838
  929MOL0     C28128  10.050   3.628   8.974 -0.8779  0.6522 -0.0278
  929MOL0     C28129   9.969   3.550   8.919 -0.2308 -0.4831  0.2410
  929MOL0     C28130  10.472   4.159   9.416  0.7097 -0.1128  0.3611
  929MOL0     C28131  10.605   4.196   9.444  0.5843 -0.3114  1.2672
  929MOL0     C28132  10.632   4.323   9.521  0.0357 -0.7840  0.1399
  929MOL0     H28133  11.153   3.950   9.445  0.4874 -1.6541 -2.5774
  929MOL0     H28134  11.382   4.022   9.399 -0.9688 -1.0828 -0.3462
  929MOL0     H28135  11.430   4.356   9.099 -0.0496  0.1981  0.4430
  929MOL0     H28136  11.441   4.183   9.037  1.6798  0.4142 -2.3943
  929MOL0     H28137  11.695   4.186   9.089  2.5811  1.8948  1.6343
  929MOL0     H28138  11.637   4.307   8.968  0.4868 -1.4351 -0.5598
  929MOL0     H28139  11.626   4.477   9.147  2.3198  2.1297  2.3363
  929MOL0     H28140  11.663   4.355   9.258  3.4369 -0.8003 -0.8538
  929MOL0     H28141  11.863   4.414   9.031 -2.3564 -0.2229  0.6345
  929MOL0     H28142  11.851   4.536   9.165  0.8571 -0.0754  0.3343
  929MOL0     H28143  11.916   4.246   9.191 -1.3240  0.7767  4.1833
  929MOL0     H28144  11.922   4.356   9.318  0.1379 -0.7887  0.1973
  929MOL0     H28145  12.098   4.401   9.073  0.2170  0.1044 -0.7239
  929MOL0     H28146  12.094   4.481   9.242 -0.0994 -2.5701  3.7071
  929MOL0     H28147  12.158   4.280   9.340 -2.1009  3.3625 -0.2725
  929MOL0     H28148  12.284   4.321   9.232  0.1926 -0.2120  1.6570
  929MOL0     H28149  12.070   4.119   9.155 -0.5356  0.5412  0.4660
  929MOL0     H28150  12.218   4.147   9.060 -2.1646  0.2272 -0.8060
  929MOL0     H28151  12.437   4.083   9.228  0.2840 -0.1248  3.3853
  929MOL0     H28152  12.574   3.912   9.369  0.9237 -0.1979  0.8231
  929MOL0     H28153  12.489   3.748   9.368  1.1233  0.3054 -3.3575
  929MOL0     H28154  12.395   3.824   9.591  1.2116 -0.4010  1.8402
  929MOL0     H28155  12.561   3.782   9.585  0.3555  0.0749  1.6555
  929MOL0     H28156  12.647   4.035   9.581 -0.4276  5.0484  1.5428
  929MOL0     H28157  12.478   4.078   9.573 -1.3063 -1.2609  1.3967
  929MOL0     H28158  12.568   4.109   9.787  0.3781  0.7036 -2.0167
  929MOL0     H28159  12.417   4.007   9.774 -0.1540  0.8808 -0.6817
  929MOL0     H28160  12.370   3.796   9.802  0.3420 -0.7664 -1.5946
  929MOL0     H28161  12.269   3.515   9.893  3.3128  1.4900 -1.8017
  929MOL0     H28162  12.197   3.672   9.859  2.8945 -0.4019 -3.3026
  929MOL0     H28163  12.182   3.612  10.026  1.0497  0.2387  0.6503
  929MOL0     H28164  12.387   3.350  10.426  0.3982  1.0091 -1.6482
  929MOL0     H28165  12.248   3.281  10.622 -1.5730  0.4503 -0.1099
  929MOL0     H28166  11.860   3.437  10.744  2.8748 -1.3490  0.8026
  929MOL0     H28167  11.809   3.368  10.588 -0.2643  0.1676 -0.6605
  929MOL0     H28168  11.809   3.141  10.683 -3.5401 -3.8864  2.7756
  929MOL0     H28169  11.843   3.202  10.842 -1.6230 -1.5251  0.5832
  929MOL0     H28170  11.606   3.316  10.678  0.1922  1.6582  1.6551
  929MOL0     H28171  11.617   3.296  10.849 -0.8540  1.6054 -1.7519
  929MOL0     H28172  11.579   3.061  10.643 -0.3821  1.2551 -0.8990
  929MOL0     H28173  11.450   3.118  10.754 -0.1435  1.6355 -0.1330
  929MOL0     H28174  11.700   2.971  10.831  0.5953  0.4971 -2.7882
  929MOL0     H28175  11.581   3.029  10.952  1.8167  0.6730 -0.4481
  929MOL0     H28176  11.510   2.832  10.743  1.3651  0.3857  0.0895
  929MOL0     H28177  11.401   2.925  10.853 -1.5217 -0.0857 -2.9311
  929MOL0     H28178  11.495   2.825  11.051  0.3459  0.7181 -0.4835
  929MOL0     H28179  11.629   2.754  10.961  0.7405  0.8873  1.3689
  929MOL0     H28180  11.448   2.588  11.031 -2.8757  0.5271  0.6380
  929MOL0     H28181  11.494   2.574  10.879  0.5704 -0.2880  1.1532
  929MOL0     H28182  11.924   3.496  10.484 -0.1590  0.1834 -3.1569
  929MOL0     H28183  12.050   3.572  10.281  0.6238 -0.3409 -0.9803
  929MOL0     H28184  12.663   3.632  10.168  1.1600  1.9463 -1.5940
  929MOL0     H28185  12.750   3.811  10.002  0.5919  0.2655  0.2172
  929MOL0     H28186  11.241   4.302   9.118  5.8539 -0.3661  0.7444
  929MOL0     H28187  11.003   4.221   9.142 -1.7026  0.8975  0.4825
  929MOL0     H28188  10.740   3.898   9.347 -0.8373 -0.2747 -4.1635
  929MOL0     H28189  10.509   3.832   9.333  0.2869 -0.0481  1.0596
  929MOL0     H28190  10.303   3.895   9.167  2.0611 -1.6419  0.5069
  929MOL0     H28191  10.307   3.801   9.312  2.6084  0.2646 -1.9304
  929MOL0     H28192  10.084   3.981   9.199  0.3659  1.1115  2.5693
  929MOL0     H28193  10.071   3.905   9.362  0.8622 -0.7696  1.0426
  929MOL0     H28194  10.036   3.689   9.243  0.7844  0.0734  1.4421
  929MOL0     H28195   9.942   3.800   9.163  0.1242  2.7998 -0.2406
  929MOL0     H28196  10.219   3.696   9.090 -1.0766 -0.3299  0.0414
  929MOL0     H28197  10.134   3.823   8.992 -1.4242 -0.7555 -2.1159
  929MOL0     H28198   9.907   3.478   8.869  0.2485 -0.3850 -0.5165
  929MOL0     H28199  10.393   4.234   9.424 -1.4755 -1.9635 -1.9287
  929MOL0     H28200  10.702   4.392   9.473  0.1733 -2.6349 -2.5607
  929MOL0     H28201  10.540   4.377   9.543  1.4255  5.1722 -5.6790
  929MOL0     H28202  10.684   4.296   9.614  0.3265 -0.5962  0.0303
  930MOL0     O28203   0.085   0.575   6.796 -0.7451 -0.2819  0.2473
  930MOL0     C28204   0.078   0.479   6.870 -0.4637 -0.6050  0.1012
  930MOL0     O28205   0.150   0.367   6.861  0.9185  0.1612  0.0043
  930MOL0     C28206   0.224   0.344   6.747 -0.4857 -0.1053  0.3595
  930MOL0     C28207   0.183   0.256   6.641  0.7290  0.4140 -0.3121
  930MOL0     C28208   0.255   0.251   6.522  0.0621  0.6878 -0.6173
  930MOL0     C28209   0.362   0.335   6.501 -0.5534 -0.2644  0.4950
  930MOL0     O28210   0.431   0.349   6.383 -0.1937  0.0665  0.3059
  930MOL0     C28211   0.407   0.259   6.280  0.5408 -0.6346  0.0148
  930MOL0     C28212   0.500   0.295   6.162 -0.8137  0.2866  0.2029
  930MOL0     C28213   0.650   0.318   6.199  0.1241  0.5556  0.3987
  930MOL0     C28214   0.740   0.335   6.070  0.5663 -0.3841 -0.6923
  930MOL0     C28215   0.883   0.354   6.122 -0.3970 -0.1973 -0.3098
  930MOL0     C28216   0.977   0.373   6.004  0.8404 -0.4548 -1.0484
  930MOL0     C28217   0.944   0.497   5.918 -0.7230  0.8950  0.1362
  930MOL0     C28218   1.061   0.512   5.825 -0.2407  0.3885 -0.1334
  930MOL0     N28219   1.033   0.601   5.716  0.4558  0.9813  0.7743
  930MOL0     C28220   0.975   0.729   5.723 -0.0493  0.4169 -0.8416
  930MOL0     C28221   0.953   0.770   5.600 -0.6357  0.1295 -1.0879
  930MOL0     C28222   0.870   0.895   5.568 -0.6786  0.5646  0.0051
  930MOL0     C28223   0.923   1.030   5.626  0.4615  0.3889 -0.3982
  930MOL0     C28224   0.839   1.148   5.580 -0.3404 -1.2964  0.4647
  930MOL0     C28225   0.877   1.200   5.441  0.6065  0.8683 -0.5871
  930MOL0     O28226   0.769   1.281   5.387  0.2943 -0.3649 -0.4252
  930MOL0     C28227   0.733   1.400   5.440  0.2483  0.1435 -1.3244
  930MOL0     C28228   0.618   1.458   5.390 -0.3347  0.7848  0.4880
  930MOL0     C28229   0.579   1.591   5.416  0.1968  0.1579  0.6602
  930MOL0     C28230   0.472   1.654   5.329 -0.6284 -0.9173 -0.6836
  930MOL0     C28231   0.648   1.663   5.517 -0.6746  0.2543 -0.4815
  930MOL0     C28232   0.621   1.804   5.559  0.5155  0.1739 -0.8291
  930MOL0     O28233   0.691   1.848   5.670 -0.2242  0.0207  0.3522
  930MOL0     C28234   0.690   1.979   5.698 -0.1293  0.4960 -0.7499
  930MOL0     C28235   0.584   2.030   5.773 -0.2833 -1.0016 -0.4540
  930MOL0     C28236   0.573   2.164   5.809  0.2279 -0.1700  0.4038
  930MOL0     C28237   0.654   2.257   5.747  0.4854  0.8774  0.3692
  930MOL0     O28238   0.641   2.393   5.761  0.3366  0.4258 -0.2770
  930MOL0     C28239   0.520   2.446   5.822 -0.2106  0.1108 -0.0664
  930MOL0     C28240   0.533   2.592   5.823 -0.2213  0.4706 -0.4510
  930MOL0     C28241   0.482   2.642   5.678  0.3204  0.1779 -0.6603
  930MOL0     C28242   0.491   2.797   5.675  0.2498  0.8268  0.3100
  930MOL0     C28243   0.628   2.855   5.692  0.1083  0.3125 -0.2980
  930MOL0     C28244   0.602   3.005   5.715  0.1382  0.3125 -0.0932
  930MOL0     C28245   0.734   3.097   5.738 -0.4030 -0.2473 -0.0989
  930MOL0     C28246   0.863   3.055   5.653 -0.3068 -0.1232  0.4879
  930MOL0    Cl28247   1.003   3.163   5.691 -0.3699  0.1407  0.2175
  930MOL0     C28248   0.756   2.207   5.664 -0.4109 -0.2650 -0.0632
  930MOL0     C28249   0.774   2.070   5.645  0.6542 -0.2030  0.1557
  930MOL0     O28250   0.539   1.874   5.499  0.0525  0.6667 -0.2874
  930MOL0     C28251   0.745   1.587   5.596  0.8697 -0.4829  0.6426
  930MOL0     C28252   0.792   1.468   5.546 -0.0169 -1.0190  0.8276
  930MOL0     N28253   1.006   0.664   5.517  0.3696 -0.1138 -0.1744
  930MOL0     N28254   1.058   0.574   5.585  1.1593  0.0569  0.6661
  930MOL0     C28255   0.408   0.402   6.612 -0.7889  0.6424  0.1488
  930MOL0     C28256   0.347   0.413   6.737  0.0434 -0.2099  0.4205
  930MOL0     C28257  -0.009   0.490   6.993 -0.3401  0.0355 -0.7272
  930MOL0     C28258  -0.027   0.615   7.054 -1.6167  0.1471  0.2493
  930MOL0     C28259  -0.065   0.638   7.185  0.5048  0.0068 -0.6201
  930MOL0     C28260  -0.120   0.531   7.252 -0.0078  1.2818  0.5017
  930MOL0     O28261  -0.153   0.540   7.389  0.7061  0.8668 -0.2715
  930MOL0     C28262  -0.290   0.572   7.412 -0.5816 -0.7933  1.0233
  930MOL0     C28263  -0.321   0.596   7.566 -0.2698  0.9065 -0.4559
  930MOL0     C28264  -0.441   0.677   7.592 -0.8553 -0.5518  0.3012
  930MOL0     C28265  -0.504   0.637   7.727 -0.4861 -0.1079 -0.7598
  930MOL0     C28266  -0.631   0.701   7.753 -0.4881  0.3824  0.4271
  930MOL0     C28267  -0.739   0.741   7.793 -0.5508  0.9966 -0.5323
  930MOL0     C28268  -0.134   0.399   7.185  0.2781 -0.4927  0.8212
  930MOL0     C28269  -0.078   0.383   7.061  0.0043  1.0673 -0.5154
  930MOL0     C28270  -0.084   0.241   7.009 -0.3879  0.3670  0.5611
  930MOL0     H28271   0.097   0.191   6.650  2.5897 -3.2107 -4.6174
  930MOL0     H28272   0.215   0.198   6.436  1.0076 -2.5167  0.7755
  930MOL0     H28273   0.304   0.251   6.245 -0.2188 -0.7158  2.1551
  930MOL0     H28274   0.448   0.160   6.302  2.8017 -0.3973 -2.4945
  930MOL0     H28275   0.495   0.209   6.095 -0.5510  0.0481  0.4803
  930MOL0     H28276   0.466   0.376   6.097 -0.0992  0.9645  0.6504
  930MOL0     H28277   0.656   0.411   6.257 -0.9268  0.9051 -0.0265
  930MOL0     H28278   0.694   0.231   6.250  3.2983  1.0895 -1.1842
  930MOL0     H28279   0.726   0.248   6.004 -0.3118 -2.4945  2.0616
  930MOL0     H28280   0.718   0.421   6.007  4.1458  0.3537 -1.1135
  930MOL0     H28281   0.907   0.266   6.182  0.3473  1.2165  1.5971
  930MOL0     H28282   0.877   0.445   6.182 -0.8159 -1.0161  0.9222
  930MOL0     H28283   1.075   0.382   6.053 -0.2863 -1.1645  1.5335
  930MOL0     H28284   0.972   0.279   5.947 -1.4799 -0.3083 -1.1557
  930MOL0     H28285   0.926   0.587   5.977 -2.9463  0.3534  0.3770
  930MOL0     H28286   0.859   0.472   5.854  0.7724 -1.1226 -1.2155
  930MOL0     H28287   1.150   0.551   5.875  0.9408 -3.0296  0.7259
  930MOL0     H28288   1.100   0.415   5.791 -1.1290 -0.1398  0.3441
  930MOL0     H28289   0.940   0.770   5.817  0.1774 -2.6831  0.7368
  930MOL0     H28290   0.767   0.875   5.599 -0.6577  0.3909 -0.0373
  930MOL0     H28291   0.868   0.899   5.459  1.1526  0.9240 -0.0538
  930MOL0     H28292   0.913   1.026   5.735  2.2936 -1.7139 -0.2251
  930MOL0     H28293   1.029   1.047   5.605  1.1551  0.4790  2.6549
  930MOL0     H28294   0.735   1.115   5.582 -0.0108 -2.5526 -1.3489
  930MOL0     H28295   0.842   1.233   5.649 -1.2233 -0.8539 -0.0321
  930MOL0     H28296   0.968   1.259   5.457 -0.2005  1.4464  2.6807
  930MOL0     H28297   0.882   1.116   5.372  0.5519  1.2966 -1.1172
  930MOL0     H28298   0.565   1.393   5.320 -1.0364  2.3445 -0.4982
  930MOL0     H28299   0.463   1.602   5.232  0.8272  0.5264 -1.6521
  930MOL0     H28300   0.489   1.759   5.304  0.7328 -0.5528  1.5554
  930MOL0     H28301   0.377   1.638   5.381  1.0831 -3.8170  1.8902
  930MOL0     H28302   0.504   1.969   5.812 -0.0717  0.4571  2.5296
  930MOL0     H28303   0.486   2.193   5.868  0.5306  4.5635 -1.0351
  930MOL0     H28304   0.444   2.410   5.753  2.8168 -0.7204 -3.2549
  930MOL0     H28305   0.510   2.406   5.923  2.8247  0.5287  0.5070
  930MOL0     H28306   0.480   2.638   5.907 -1.1437 -1.6954  0.2209
  930MOL0     H28307   0.640   2.611   5.829 -0.6377  2.7685  1.1187
  930MOL0     H28308   0.379   2.611   5.662 -0.1843  0.8644  1.0008
  930MOL0     H28309   0.543   2.589   5.605 -1.7938 -4.7246  0.6603
  930MOL0     H28310   0.431   2.830   5.761  2.4279 -0.0603  2.3079
  930MOL0     H28311   0.454   2.835   5.580  0.0087 -2.6894 -1.1717
  930MOL0     H28312   0.681   2.813   5.778 -2.2093  2.4880  2.4445
  930MOL0     H28313   0.684   2.838   5.600  1.2468  1.6097  0.1225
  930MOL0     H28314   0.543   3.015   5.807  0.4163 -1.6148  0.3180
  930MOL0     H28315   0.541   3.036   5.629  2.5630  1.9253 -1.3700
  930MOL0     H28316   0.758   3.077   5.843 -5.1191 -2.0348  0.8914
  930MOL0     H28317   0.704   3.202   5.739  1.0369  0.1926 -0.4615
  930MOL0     H28318   0.824   3.070   5.552 -3.0371  4.0397  1.9017
  930MOL0     H28319   0.888   2.950   5.670  1.0719  0.7176  4.7978
  930MOL0     H28320   0.813   2.275   5.603 -0.2498  0.6901  1.1109
  930MOL0     H28321   0.853   2.040   5.576  1.6015  1.8924  0.2627
  930MOL0     H28322   0.805   1.632   5.675  1.0132 -1.2485  0.9755
  930MOL0     H28323   0.880   1.443   5.605 -0.8909  0.6818  3.0266
  930MOL0     H28324   0.503   0.454   6.610 -1.5266  2.0374 -1.1621
  930MOL0     H28325   0.391   0.469   6.819  0.5662 -2.0843  1.5015
  930MOL0     H28326   0.008   0.685   6.978 -2.3834 -2.4209 -2.7229
  930MOL0     H28327  -0.043   0.732   7.235  1.2195 -0.5548  0.1521
  930MOL0     H28328  -0.316   0.657   7.348  3.8768 -1.1606 -1.7543
  930MOL0     H28329  -0.359   0.496   7.373 -0.3412 -0.7012  0.4011
  930MOL0     H28330  -0.232   0.640   7.611 -0.7767  0.6699  0.8099
  930MOL0     H28331  -0.324   0.491   7.596  4.2962 -0.1558 -2.7233
  930MOL0     H28332  -0.416   0.783   7.584  1.0941 -0.9538  0.7387
  930MOL0     H28333  -0.512   0.677   7.509 -1.5998 -0.0140  0.9204
  930MOL0     H28334  -0.434   0.664   7.807 -1.4073 -2.8260  1.0830
  930MOL0     H28335  -0.524   0.530   7.734 -0.6792 -0.0691 -0.7410
  930MOL0     H28336  -0.836   0.779   7.819 -0.0140  2.6127 -0.7479
  930MOL0     H28337  -0.195   0.321   7.230 -2.7802  0.8045 -0.7700
  930MOL0     H28338   0.016   0.198   7.023 -0.9147 -0.8676  0.7201
  930MOL0     H28339  -0.157   0.178   7.061 -1.3114  1.8071  1.0755
  930MOL0     H28340  -0.092   0.255   6.901  1.2423  0.7168  0.4633
  931MOL0     O28341   1.181  10.919   6.457 -0.2809 -0.3231  0.1614
  931MOL0     C28342   1.073  10.914   6.398 -0.0711 -0.8068  0.0281
  931MOL0     O28343   0.995  11.018   6.392 -0.0081 -0.1598 -0.2022
  931MOL0     C28344   1.036  11.151   6.409  0.4343  0.5262  0.3061
  931MOL0     C28345   0.934  11.243   6.410 -0.3059  0.1666 -0.2143
  931MOL0     C28346   0.954  11.381   6.407 -0.4381 -0.7797  0.0305
  931MOL0     C28347   1.084  11.424   6.421 -0.6552 -0.0560  0.0150
  931MOL0     O28348   1.121  11.558   6.422  0.6073  0.2867 -0.2584
  931MOL0     C28349   1.031  11.655   6.489 -0.6784 -0.0065  0.9084
  931MOL0     C28350   1.080  11.795   6.479  0.0127 -0.3909 -0.2635
  931MOL0     C28351   1.189  11.811   6.371 -0.7118 -0.9325 -0.5666
  931MOL0     C28352   1.224  11.960   6.355 -0.4928  1.2584 -0.0732
  931MOL0     C28353   1.287  12.027   6.479 -0.0148 -0.0760  0.0246
  931MOL0     C28354   1.424  11.992   6.513  0.0173  0.8954 -0.5460
  931MOL0     C28355   1.490  12.086   6.607  0.4487  0.4285 -0.1808
  931MOL0     C28356   1.421  12.127   6.741 -0.0165  0.5463  0.1906
  931MOL0     N28357   1.359  12.017   6.815 -0.3376 -0.0502  0.7843
  931MOL0     C28358   1.426  11.904   6.856 -0.9084 -0.5125  0.4823
  931MOL0     C28359   1.324  11.820   6.900 -0.3221  1.0154  0.5493
  931MOL0     C28360   1.350  11.689   6.971  1.1142 -0.7238 -0.5547
  931MOL0     C28361   1.405  11.583   6.875  0.5324  0.2909 -0.6740
  931MOL0     C28362   1.387  11.442   6.949  0.2719  0.5750 -0.3972
  931MOL0     C28363   1.426  11.318   6.852  0.2772  0.0901 -0.8623
  931MOL0     O28364   1.551  11.343   6.791 -0.5942  0.2684 -1.2901
  931MOL0     C28365   1.666  11.299   6.861  0.0187  0.2277  0.4927
  931MOL0     C28366   1.794  11.322   6.801  0.2444 -0.3795  0.0124
  931MOL0     C28367   1.906  11.259   6.848 -0.7391  0.7259  0.8636
  931MOL0     C28368   2.038  11.279   6.770 -0.1705  0.5257 -0.4565
  931MOL0     C28369   1.902  11.176   6.966  0.2255 -0.5042 -0.1315
  931MOL0     C28370   2.016  11.098   7.016  0.1758 -0.2933 -0.2379
  931MOL0     O28371   2.146  11.135   6.984  0.6571  0.2419  0.2388
  931MOL0     C28372   2.247  11.042   6.988 -0.5574 -0.1271  0.1541
  931MOL0     C28373   2.314  11.027   6.868 -0.0249  0.3938 -0.0728
  931MOL0     C28374   2.413  10.923   6.857 -0.4905 -0.7719 -0.0340
  931MOL0     C28375   2.452  10.845   6.965 -0.3662 -0.4587  0.4599
  931MOL0     O28376   2.554  10.748   6.950 -0.2322 -0.3444  0.3510
  931MOL0     C28377   2.557  10.630   7.040 -0.1551  0.6084 -0.3145
  931MOL0     C28378   2.688  10.547   7.018  0.1955  0.9396 -0.7210
  931MOL0     C28379   2.650  10.414   6.953  0.3253  0.1814 -0.0497
  931MOL0     C28380   2.765  10.315   6.924  0.2860  0.1394  0.0738
  931MOL0     C28381   2.720  10.177   6.868  1.0794 -1.1618 -0.1962
  931MOL0     C28382   2.833  10.071   6.875  0.4648  0.5873 -0.0017
  931MOL0     C28383   2.803   9.932   6.815 -0.1266  0.1094  0.1985
  931MOL0     C28384   2.941   9.860   6.781  0.7317  0.3473 -0.0619
  931MOL0    Cl28385   3.060   9.856   6.926 -0.1916  0.7743 -0.3824
  931MOL0     C28386   2.381  10.865   7.080  0.5228  0.7351 -0.7328
  931MOL0     C28387   2.284  10.963   7.095 -0.6651 -0.3618  0.4232
  931MOL0     O28388   1.983  11.003   7.097  0.5562 -0.3068 -0.2843
  931MOL0     C28389   1.775  11.162   7.022 -0.1362 -0.3114 -0.9904
  931MOL0     C28390   1.657  11.221   6.980 -0.7983 -0.0866  0.3529
  931MOL0     N28391   1.203  11.882   6.873 -0.2619  0.5110 -0.7779
  931MOL0     N28392   1.222  12.002   6.832 -0.2871 -0.1779 -0.8685
  931MOL0     C28393   1.189  11.332   6.427  0.0051 -0.1574  0.4102
  931MOL0     C28394   1.169  11.197   6.419  0.3414  0.0517  0.2064
  931MOL0     C28395   1.033  10.782   6.341 -0.6022  1.7471  0.5981
  931MOL0     C28396   0.902  10.779   6.276  0.5478  0.9366 -1.3235
  931MOL0     C28397   0.849  10.652   6.225 -0.6357 -0.0608  0.3303
  931MOL0     C28398   0.928  10.534   6.243 -0.2792  0.4711  0.2831
  931MOL0     O28399   0.890  10.413   6.184 -0.5148  0.0762  0.2033
  931MOL0     C28400   0.786  10.396   6.092  0.1376 -0.0583 -0.1238
  931MOL0     C28401   0.651  10.380   6.173 -0.1773  0.1191  0.0726
  931MOL0     C28402   0.658  10.273   6.275 -0.3682  0.5517 -0.6301
  931MOL0     C28403   0.523  10.262   6.336  0.4605 -0.0840 -0.2090
  931MOL0     C28404   0.423  10.186   6.263  0.3131  0.4336  0.9227
  931MOL0     C28405   0.334  10.115   6.219  0.0605  0.6440  0.4870
  931MOL0     C28406   1.049  10.539   6.308  0.5415 -0.0929 -0.2386
  931MOL0     C28407   1.100  10.663   6.364 -0.1420  0.6532 -0.3452
  931MOL0     C28408   1.230  10.651   6.435 -0.3741  0.2179  0.4272
  931MOL0     H28409   0.829  11.216   6.398 -0.4955  1.3699 -1.5636
  931MOL0     H28410   0.875  11.456   6.403  1.0540  1.0360  1.8389
  931MOL0     H28411   1.032  11.620   6.592  3.7252 -2.4473  0.2694
  931MOL0     H28412   0.931  11.650   6.446 -0.8321 -0.8508  1.3533
  931MOL0     H28413   0.995  11.857   6.447 -0.7884 -1.4407 -0.2268
  931MOL0     H28414   1.132  11.829   6.569 -0.6083  1.4675 -0.5442
  931MOL0     H28415   1.280  11.758   6.401  0.4847  2.3302  2.1920
  931MOL0     H28416   1.148  11.764   6.281 -0.8257 -0.8762 -0.5444
  931MOL0     H28417   1.279  11.965   6.261  2.0891 -1.9373  1.0854
  931MOL0     H28418   1.127  12.010   6.346  0.1235  2.5023  0.0732
  931MOL0     H28419   1.225  12.011   6.568  0.2053  1.4533  0.4848
  931MOL0     H28420   1.281  12.136   6.469  0.8854  0.0757  1.0462
  931MOL0     H28421   1.441  11.890   6.549  2.0618  0.8732 -1.4440
  931MOL0     H28422   1.484  11.996   6.422 -0.4792 -0.8500 -0.9942
  931MOL0     H28423   1.522  12.170   6.545 -0.2340 -0.0495 -1.2117
  931MOL0     H28424   1.586  12.045   6.638  1.6764  1.7421 -2.0466
  931MOL0     H28425   1.492  12.171   6.812 -0.1723 -2.5671  2.5163
  931MOL0     H28426   1.342  12.196   6.710 -1.5327 -1.0991  0.2413
  931MOL0     H28427   1.533  11.883   6.856 -0.6998  0.4996  0.0571
  931MOL0     H28428   1.255  11.658   7.016  0.6591 -0.6380 -1.4300
  931MOL0     H28429   1.421  11.693   7.054  0.5017  0.5631 -0.0660
  931MOL0     H28430   1.342  11.575   6.786  0.4812 -1.9084 -0.5127
  931MOL0     H28431   1.511  11.602   6.861  1.2212 -2.1956  0.5701
  931MOL0     H28432   1.452  11.436   7.037 -0.6997  0.4756  0.3300
  931MOL0     H28433   1.283  11.431   6.981  0.2324 -2.0328 -1.1172
  931MOL0     H28434   1.423  11.223   6.906  2.4184 -0.0918 -1.0059
  931MOL0     H28435   1.345  11.304   6.780 -0.2649 -0.2200 -0.2080
  931MOL0     H28436   1.788  11.370   6.704  1.2203  0.4066  0.3123
  931MOL0     H28437   2.016  11.326   6.674  3.7344 -3.7116 -3.8585
  931MOL0     H28438   2.088  11.186   6.743 -1.2669  0.0522 -0.8865
  931MOL0     H28439   2.107  11.343   6.826  1.1036 -0.9824 -0.2416
  931MOL0     H28440   2.289  11.088   6.781  2.9211  1.5398 -0.2218
  931MOL0     H28441   2.465  10.914   6.762 -2.6950 -0.6505 -1.3012
  931MOL0     H28442   2.566  10.664   7.144  2.7778  3.5773 -1.3607
  931MOL0     H28443   2.463  10.575   7.033  0.1188  0.2096 -0.8872
  931MOL0     H28444   2.751  10.599   6.944 -0.1790  3.3690  0.5639
  931MOL0     H28445   2.759  10.534   7.101  1.2900 -2.1772 -2.0066
  931MOL0     H28446   2.601  10.442   6.859  1.9489  0.4889 -0.8335
  931MOL0     H28447   2.583  10.358   7.019 -0.2163  2.2126  1.2547
  931MOL0     H28448   2.823  10.296   7.015  0.9826 -0.6921 -0.5326
  931MOL0     H28449   2.834  10.368   6.859 -0.3550 -0.1994 -0.8948
  931MOL0     H28450   2.631  10.136   6.917  1.8970 -2.1871  0.4693
  931MOL0     H28451   2.684  10.191   6.766 -1.3347  1.9552  0.9062
  931MOL0     H28452   2.879  10.062   6.973  1.6082  1.6003 -0.4072
  931MOL0     H28453   2.908  10.120   6.812  0.7172  1.7313  1.1450
  931MOL0     H28454   2.748   9.964   6.727  0.3608  2.5001  0.7072
  931MOL0     H28455   2.750   9.872   6.889 -1.4689  0.0872 -0.7524
  931MOL0     H28456   2.980   9.923   6.700  0.1671  2.2438  1.0606
  931MOL0     H28457   2.926   9.758   6.745  3.2895  0.5784 -2.1887
  931MOL0     H28458   2.419  10.810   7.165  0.2232 -0.1305 -1.1484
  931MOL0     H28459   2.238  10.986   7.191  1.8195 -1.1698  1.8944
  931MOL0     H28460   1.758  11.102   7.111 -0.6318  2.2851  0.7759
  931MOL0     H28461   1.565  11.210   7.035  0.0745 -1.6313  1.5795
  931MOL0     H28462   1.283  11.377   6.456  0.5313 -1.2835  0.5152
  931MOL0     H28463   1.263  11.142   6.420  0.7304  0.6314 -1.3691
  931MOL0     H28464   0.839  10.867   6.288 -0.0125  0.3158  0.8226
  931MOL0     H28465   0.746  10.641   6.193  0.2779 -1.0140 -2.5767
  931MOL0     H28466   0.767  10.485   6.032 -2.0618 -1.7073 -2.0468
  931MOL0     H28467   0.812  10.311   6.028  0.9835 -0.4429  0.7081
  931MOL0     H28468   0.575  10.363   6.096 -2.0385  0.9921  1.6299
  931MOL0     H28469   0.618  10.475   6.215 -0.0093  1.5068 -2.6984
  931MOL0     H28470   0.684  10.181   6.222  0.7561 -0.9070  2.2317
  931MOL0     H28471   0.738  10.289   6.348 -1.1802 -1.4538  0.7811
  931MOL0     H28472   0.473  10.355   6.365  1.4713  1.0460 -1.9634
  931MOL0     H28473   0.534  10.205   6.429 -0.6202  0.0051 -0.0094
  931MOL0     H28474   0.268  10.036   6.188 -1.6526  1.7057  1.2576
  931MOL0     H28475   1.109  10.449   6.312 -3.1206 -2.7731 -0.5803
  931MOL0     H28476   1.286  10.558   6.423  1.3358  1.1217  1.0168
  931MOL0     H28477   1.297  10.722   6.385  0.0432  0.7742  1.7360
  931MOL0     H28478   1.215  10.682   6.539 -2.8927  0.0966  0.1533
  932MOL0     O28479   2.717  10.142   1.037  0.0603  0.1203  0.3444
  932MOL0     C28480   2.622  10.153   1.113 -0.8644  0.4973 -0.2530
  932MOL0     O28481   2.642  10.153   1.244  0.7201  0.3596 -0.3868
  932MOL0     C28482   2.764  10.162   1.297 -0.0373 -0.5335  0.1654
  932MOL0     C28483   2.827  10.289   1.311 -0.1159 -0.5822 -0.4844
  932MOL0     C28484   2.959  10.305   1.356 -0.6080 -0.3661 -0.0604
  932MOL0     C28485   3.033  10.187   1.394 -0.4325 -0.1386 -1.1137
  932MOL0     O28486   3.166  10.207   1.430 -0.0092 -0.5066 -0.1734
  932MOL0     C28487   3.241  10.093   1.471 -0.1160 -0.0621 -0.4764
  932MOL0     C28488   3.371  10.141   1.531  0.3575 -0.4708 -0.4183
  932MOL0     C28489   3.477  10.171   1.415 -0.0867  0.8597  0.1444
  932MOL0     C28490   3.600  10.228   1.477 -0.6457  0.1024  0.2929
  932MOL0     C28491   3.694  10.293   1.375  0.2174  1.0289  0.0850
  932MOL0     C28492   3.797  10.209   1.303  0.1102 -0.1545  0.5799
  932MOL0     C28493   3.914  10.299   1.244  0.3409  0.2288 -0.3965
  932MOL0     C28494   4.019  10.211   1.181 -0.4388 -0.3822  0.1431
  932MOL0     N28495   4.119  10.302   1.128 -0.3464 -0.0101  0.5262
  932MOL0     C28496   4.242  10.333   1.185 -0.4225  0.0995 -0.3370
  932MOL0     C28497   4.284  10.433   1.112  0.2749 -0.9192  0.2181
  932MOL0     C28498   4.412  10.503   1.155  0.8427 -0.6422 -0.4604
  932MOL0     C28499   4.497  10.540   1.041 -0.3652 -0.7846 -0.3506
  932MOL0     C28500   4.622  10.626   1.086 -0.2955  0.0042  0.6598
  932MOL0     C28501   4.731  10.650   0.974 -0.4133 -0.5111 -0.2252
  932MOL0     O28502   4.859  10.660   1.039 -0.1593  0.0278 -0.4261
  932MOL0     C28503   4.974  10.643   0.974  0.3357  0.4106  0.0773
  932MOL0     C28504   5.094  10.640   1.046  0.0072  0.7570  0.2311
  932MOL0     C28505   5.212  10.625   0.980  0.3096 -0.7597  0.7686
  932MOL0     C28506   5.337  10.649   1.070  0.2126  0.4617 -0.2494
  932MOL0     C28507   5.218  10.617   0.842 -0.4523 -0.5085  0.4451
  932MOL0     C28508   5.346  10.612   0.766 -0.7265  0.1739 -0.0944
  932MOL0     O28509   5.472  10.606   0.826  0.7738 -0.4960  0.0283
  932MOL0     C28510   5.576  10.625   0.746 -1.2644 -0.0600  0.0707
  932MOL0     C28511   5.610  10.552   0.632 -0.2170 -0.3946  0.0801
  932MOL0     C28512   5.719  10.581   0.557  1.1335  0.2028  0.1493
  932MOL0     C28513   5.807  10.685   0.588 -0.5391 -0.4877 -0.2102
  932MOL0     O28514   5.909  10.722   0.510  0.4596 -0.4170  0.2713
  932MOL0     C28515   5.895  10.719   0.367  0.1515  0.8594  0.1979
  932MOL0     C28516   6.035  10.742   0.306  0.5830  0.8868  0.0011
  932MOL0     C28517   6.097  10.881   0.322  0.7589 -0.3875  0.1221
  932MOL0     C28518   5.994  10.988   0.274 -0.1238 -0.6508 -0.1062
  932MOL0     C28519   6.062  11.125   0.243 -0.7219 -0.1026  1.1349
  932MOL0     C28520   5.961  11.245   0.229  1.1328  0.4141 -0.8461
  932MOL0     C28521   5.880  11.282   0.361 -1.4671  0.8211 -0.2939
  932MOL0     C28522   5.786  11.402   0.345  0.2796 -0.1142 -0.1999
  932MOL0    Cl28523   5.679  11.434   0.484  0.2797 -0.6321 -0.2812
  932MOL0     C28524   5.786  10.756   0.701 -0.2965 -0.4238 -0.1650
  932MOL0     C28525   5.672  10.724   0.782  0.3502 -0.4392 -0.0863
  932MOL0     O28526   5.324  10.616   0.642 -0.1622 -0.0658 -0.5647
  932MOL0     C28527   5.099  10.625   0.768 -0.1549  0.3324 -1.2750
  932MOL0     C28528   4.979  10.641   0.833 -0.1121  0.1804  0.2640
  932MOL0     N28529   4.194  10.464   1.008  0.3769  0.6153  0.3263
  932MOL0     N28530   4.099  10.383   1.019  0.1266 -1.0761 -0.3641
  932MOL0     C28531   2.972  10.058   1.388  0.5203 -0.6190  0.0037
  932MOL0     C28532   2.839  10.056   1.342 -0.4973  0.5677 -0.5710
  932MOL0     C28533   2.484  10.163   1.062 -0.5290  0.1441 -0.3020
  932MOL0     C28534   2.456  10.100   0.931  0.7941 -0.3885  0.4602
  932MOL0     C28535   2.334  10.116   0.872  0.1065  0.1530  0.3305
  932MOL0     C28536   2.230  10.189   0.928  0.6595 -0.1875  0.0181
  932MOL0     O28537   2.107  10.224   0.880  0.2442  0.9696 -0.0902
  932MOL0     C28538   2.027  10.122   0.813  1.0970 -0.1752  0.1328
  932MOL0     C28539   1.883  10.175   0.776 -0.7274  0.4858  0.2229
  932MOL0     C28540   1.903  10.280   0.667  1.3605  0.6693  0.0464
  932MOL0     C28541   1.777  10.362   0.642 -0.3385 -0.6775 -1.5364
  932MOL0     C28542   1.792  10.428   0.516  0.7416  1.0362 -0.1253
  932MOL0     C28543   1.817  10.467   0.402  0.9887 -0.2107 -0.3499
  932MOL0     C28544   2.253  10.255   1.052 -0.5033  0.7179  0.3364
  932MOL0     C28545   2.381  10.240   1.116  0.5681 -0.5328  0.0628
  932MOL0     C28546   2.416  10.329   1.231  0.6875 -0.4523 -0.9507
  932MOL0     H28547   2.777  10.377   1.272  0.4140  0.4773  1.1193
  932MOL0     H28548   3.001  10.404   1.371  0.3688 -1.0501  2.1030
  932MOL0     H28549   3.265  10.024   1.389 -2.5970 -1.5561 -0.0675
  932MOL0     H28550   3.190  10.043   1.554  3.3175  1.1776  2.6261
  932MOL0     H28551   3.352  10.238   1.577  2.8917  1.9730 -4.0590
  932MOL0     H28552   3.418  10.073   1.603 -0.6768 -0.6145  0.1459
  932MOL0     H28553   3.509  10.074   1.377  0.6822  0.9569  0.5278
  932MOL0     H28554   3.436  10.240   1.340  0.8157  3.1066  1.6132
  932MOL0     H28555   3.565  10.314   1.536 -1.8864  1.1507 -1.8516
  932MOL0     H28556   3.648  10.153   1.540  0.8808  0.8506  0.0583
  932MOL0     H28557   3.744  10.370   1.435 -1.5048  0.7605  1.9862
  932MOL0     H28558   3.637  10.352   1.304 -0.0691  3.5201  2.2344
  932MOL0     H28559   3.840  10.128   1.363  3.9989 -0.5464 -2.3196
  932MOL0     H28560   3.753  10.156   1.219 -0.3666 -3.5009  2.7726
  932MOL0     H28561   3.947  10.364   1.325  0.3229 -0.7524  0.4161
  932MOL0     H28562   3.872  10.360   1.164  2.6370  1.4104 -0.7767
  932MOL0     H28563   4.051  10.134   1.252 -0.1266 -0.9127 -0.5613
  932MOL0     H28564   3.970  10.157   1.099 -0.9187  0.2197  0.0261
  932MOL0     H28565   4.290  10.293   1.274 -2.1131 -1.4096 -0.0234
  932MOL0     H28566   4.451  10.425   1.222 -5.3652 -0.1348  4.8116
  932MOL0     H28567   4.381  10.585   1.220 -4.6868 -4.5069  2.6669
  932MOL0     H28568   4.538  10.455   0.986  0.5432 -0.0450 -0.8298
  932MOL0     H28569   4.431  10.600   0.978  0.5441 -1.3100 -1.8367
  932MOL0     H28570   4.588  10.724   1.117  0.5024 -0.6431  3.9269
  932MOL0     H28571   4.677  10.589   1.173 -0.9425  0.0241  1.0827
  932MOL0     H28572   4.731  10.560   0.912 -1.5408 -0.9806  0.4165
  932MOL0     H28573   4.708  10.742   0.920  2.1876  1.4330  1.7545
  932MOL0     H28574   5.093  10.656   1.153  2.6175  1.5618  0.2077
  932MOL0     H28575   5.383  10.557   1.107 -0.5257  0.0754 -0.2730
  932MOL0     H28576   5.307  10.704   1.159  1.0349  0.0694  0.2783
  932MOL0     H28577   5.400  10.718   1.013 -0.1037 -0.4726 -1.8055
  932MOL0     H28578   5.544  10.479   0.586  0.3324  0.4058 -2.1251
  932MOL0     H28579   5.733  10.522   0.467  0.7777 -0.1787  0.3405
  932MOL0     H28580   5.855  10.620   0.340  1.2115  0.7645 -1.1572
  932MOL0     H28581   5.816  10.780   0.324 -2.2311 -1.3426  1.1707
  932MOL0     H28582   6.108  10.670   0.345 -1.7386 -0.5119  2.0329
  932MOL0     H28583   6.027  10.720   0.199 -0.8609 -1.4636  0.5165
  932MOL0     H28584   6.186  10.884   0.258  0.2669  0.7759 -0.5511
  932MOL0     H28585   6.130  10.913   0.421 -1.3099  0.3938  0.6050
  932MOL0     H28586   5.928  11.001   0.360 -0.2463  2.9727 -0.5969
  932MOL0     H28587   5.940  10.960   0.183  0.1207  2.0187 -1.1416
  932MOL0     H28588   6.141  11.159   0.311 -0.6510  1.0351  0.5148
  932MOL0     H28589   6.119  11.113   0.151 -3.3165  2.4632 -1.0143
  932MOL0     H28590   5.885  11.214   0.156 -0.9418 -0.9729  1.7253
  932MOL0     H28591   6.008  11.331   0.182 -0.1773  0.4954 -2.0907
  932MOL0     H28592   5.951  11.314   0.438 -1.4511 -1.2764  0.6302
  932MOL0     H28593   5.825  11.201   0.409  0.8557  0.7657  2.5656
  932MOL0     H28594   5.728  11.375   0.256  0.7962  1.0380 -0.9214
  932MOL0     H28595   5.837  11.490   0.304 -0.0188 -1.1662 -3.0397
  932MOL0     H28596   5.836  10.848   0.731  0.6722 -0.3193 -1.9350
  932MOL0     H28597   5.651  10.790   0.866  2.5890  1.3857 -0.8682
  932MOL0     H28598   5.102  10.600   0.663  0.8988  1.8042 -1.6266
  932MOL0     H28599   4.894  10.645   0.765 -0.8093  2.4799  1.1534
  932MOL0     H28600   3.013   9.962   1.419 -1.9939 -2.4334 -1.8182
  932MOL0     H28601   2.790   9.960   1.329 -1.8351  0.5520  3.4115
  932MOL0     H28602   2.531  10.048   0.871 -0.6723  0.5961 -2.4037
  932MOL0     H28603   2.319  10.062   0.779 -0.0341  0.0215  0.4296
  932MOL0     H28604   2.086  10.086   0.728 -0.3350  0.4165 -1.1757
  932MOL0     H28605   2.007  10.045   0.887 -1.8648  1.8222  1.5829
  932MOL0     H28606   1.835  10.221   0.863 -0.9291  0.3688  0.1727
  932MOL0     H28607   1.821  10.093   0.739  1.8458 -0.6519 -1.8871
  932MOL0     H28608   1.983  10.345   0.703  1.2549  2.0603 -2.0379
  932MOL0     H28609   1.937  10.224   0.579 -1.9202 -0.6476 -0.5168
  932MOL0     H28610   1.768  10.432   0.725  1.4393 -2.6709  0.4617
  932MOL0     H28611   1.684  10.304   0.649 -1.2217  0.8894  1.2338
  932MOL0     H28612   1.834  10.512   0.306  1.0119 -1.8006 -1.1367
  932MOL0     H28613   2.182  10.322   1.100  0.7368  1.4386  1.2412
  932MOL0     H28614   2.339  10.406   1.235  3.0008  1.9735 -0.3882
  932MOL0     H28615   2.424  10.279   1.329  0.0593 -0.5100 -0.9222
  932MOL0     H28616   2.509  10.383   1.217 -0.0205  1.1982  0.3928
  933MOL0     O28617   0.819   8.363   4.005  1.0813 -0.1929 -0.0125
  933MOL0     C28618   0.712   8.386   4.072  0.3516  0.4361 -0.6481
  933MOL0     O28619   0.669   8.506   4.119  0.0554  0.0573  0.6168
  933MOL0     C28620   0.731   8.618   4.069 -1.1321  0.0969  0.2109
  933MOL0     C28621   0.820   8.691   4.149  0.2630  0.4104 -1.3912
  933MOL0     C28622   0.889   8.793   4.092 -0.1048 -0.7238 -0.6597
  933MOL0     C28623   0.885   8.822   3.958  0.3209 -0.4553 -0.8822
  933MOL0     O28624   0.965   8.923   3.903  0.2975  0.5743 -0.0625
  933MOL0     C28625   0.896   9.044   3.873 -1.3396  0.0641 -0.0488
  933MOL0     C28626   0.973   9.150   3.784 -0.5841  0.5805 -0.0338
  933MOL0     C28627   0.894   9.284   3.756 -0.7092 -0.2624  0.1446
  933MOL0     C28628   0.978   9.368   3.671  0.3141  0.0497  0.4603
  933MOL0     C28629   0.920   9.500   3.656 -0.0199  0.7616 -0.1636
  933MOL0     C28630   1.009   9.611   3.594  0.0637 -0.1163  0.5184
  933MOL0     C28631   1.010   9.610   3.439  0.5918 -0.2153 -0.0890
  933MOL0     C28632   1.123   9.700   3.382 -0.2189 -0.6329 -0.4478
  933MOL0     N28633   1.104   9.847   3.399 -1.1257 -0.0542  0.0266
  933MOL0     C28634   1.201   9.943   3.432 -0.3442  0.0943 -0.0488
  933MOL0     C28635   1.135  10.065   3.439 -0.3634  0.2006 -0.0846
  933MOL0     C28636   1.188  10.205   3.458  0.7322 -0.4325  0.1063
  933MOL0     C28637   1.198  10.252   3.608 -0.2404  0.2868  0.5701
  933MOL0     C28638   1.340  10.216   3.653  0.8019  0.5297  1.2167
  933MOL0     C28639   1.357  10.233   3.809  0.4738  0.6273 -0.4276
  933MOL0     O28640   1.497  10.201   3.844  0.7370  0.1783 -1.3275
  933MOL0     C28641   1.538  10.234   3.972  0.6810  0.7086 -0.2730
  933MOL0     C28642   1.677  10.219   3.979 -0.4797 -0.0275 -0.5517
  933MOL0     C28643   1.747  10.237   4.101 -0.4925 -0.9859 -0.8323
  933MOL0     C28644   1.894  10.212   4.098 -0.2445  0.6458 -0.4456
  933MOL0     C28645   1.674  10.258   4.223  0.1559  0.4452 -0.5473
  933MOL0     C28646   1.734  10.253   4.359  1.0112  0.6399 -1.1705
  933MOL0     O28647   1.668  10.321   4.457  0.8484  0.0583  0.2369
  933MOL0     C28648   1.708  10.304   4.597  0.2415 -0.8302  0.6246
  933MOL0     C28649   1.795  10.382   4.667  0.3590  0.4544 -0.1623
  933MOL0     C28650   1.855  10.340   4.781 -0.1682 -0.5507 -0.3162
  933MOL0     C28651   1.814  10.215   4.843 -0.3643 -0.7230  0.0135
  933MOL0     O28652   1.872  10.161   4.959  0.6508 -0.3883  0.9313
  933MOL0     C28653   1.958  10.235   5.047 -0.0241 -0.5312  0.2831
  933MOL0     C28654   2.107  10.245   4.995 -0.3002  0.3018  0.6128
  933MOL0     C28655   2.171  10.375   5.057 -0.6356  0.3655  0.1541
  933MOL0     C28656   2.230  10.362   5.202  0.7211  0.2786 -0.3459
  933MOL0     C28657   2.319  10.483   5.229 -0.1116  0.2788  1.7073
  933MOL0     C28658   2.316  10.554   5.360 -0.1731  0.0875  0.2586
  933MOL0     C28659   2.419  10.667   5.331  0.4838  0.0395  0.4999
  933MOL0     C28660   2.444  10.754   5.449  0.4885  0.4114  0.0764
  933MOL0    Cl28661   2.530  10.665   5.584 -0.1986  0.3595  0.1730
  933MOL0     C28662   1.731  10.133   4.777 -0.4846 -0.4651  0.3330
  933MOL0     C28663   1.675  10.178   4.655 -0.1037  0.5113 -0.0699
  933MOL0     O28664   1.835  10.182   4.382 -0.2100 -0.5543 -1.1303
  933MOL0     C28665   1.531  10.271   4.213  0.9239  0.2799 -0.3516
  933MOL0     C28666   1.462  10.256   4.085  0.3442 -0.3266 -0.5688
  933MOL0     N28667   0.999  10.033   3.426  0.2629  0.3425  0.1857
  933MOL0     N28668   0.989   9.911   3.378 -0.1225 -0.8357 -0.4228
  933MOL0     C28669   0.794   8.754   3.879 -1.0123  1.4039  1.0520
  933MOL0     C28670   0.718   8.651   3.937 -0.1663  0.5144 -0.2624
  933MOL0     C28671   0.640   8.257   4.106 -0.0658  0.7609  0.7535
  933MOL0     C28672   0.697   8.128   4.083 -0.1727  0.0825  0.3870
  933MOL0     C28673   0.627   8.010   4.107 -0.2034 -0.2640  0.5135
  933MOL0     C28674   0.507   8.012   4.171 -0.0769 -0.8680 -0.6814
  933MOL0     O28675   0.425   7.909   4.206 -0.3901 -0.5018  0.4302
  933MOL0     C28676   0.502   7.788   4.234  0.9560  0.0059  0.8676
  933MOL0     C28677   0.408   7.701   4.319  0.0221  0.0324  0.5803
  933MOL0     C28678   0.384   7.777   4.455 -0.7567  0.3886  0.0671
  933MOL0     C28679   0.278   7.708   4.541  0.3503 -1.5133  0.2435
  933MOL0     C28680   0.294   7.764   4.675 -0.2192 -0.5930  0.3839
  933MOL0     C28681   0.330   7.802   4.781  0.8849  0.3672 -0.1353
  933MOL0     C28682   0.445   8.128   4.201  0.5202 -0.7056 -0.0654
  933MOL0     C28683   0.510   8.251   4.168  0.1546 -0.4182  0.2293
  933MOL0     C28684   0.424   8.375   4.187  0.3405 -0.0859 -0.8568
  933MOL0     H28685   0.822   8.671   4.255  0.8796  1.2399 -1.2329
  933MOL0     H28686   0.950   8.848   4.163 -0.4452  2.5768 -2.6827
  933MOL0     H28687   0.870   9.093   3.968  2.0659  0.7948  0.6379
  933MOL0     H28688   0.804   9.020   3.819 -2.1827  2.0680  0.3730
  933MOL0     H28689   1.065   9.163   3.841 -0.6848 -1.2237  0.6080
  933MOL0     H28690   0.999   9.105   3.688  4.7773  1.0871  0.8773
  933MOL0     H28691   0.808   9.270   3.690  1.0704  0.8882 -2.5585
  933MOL0     H28692   0.878   9.332   3.853  0.5021 -1.1842  0.8315
  933MOL0     H28693   1.081   9.369   3.707  0.0668  2.3161  1.2594
  933MOL0     H28694   0.979   9.325   3.570 -0.0904 -1.4293  1.0528
  933MOL0     H28695   0.908   9.548   3.753  2.4180  2.0791 -0.4445
  933MOL0     H28696   0.825   9.497   3.601 -2.2739  0.8972  3.3769
  933MOL0     H28697   0.970   9.709   3.621  0.9598  0.6090 -0.6888
  933MOL0     H28698   1.112   9.593   3.627 -0.4925 -2.6620  1.1207
  933MOL0     H28699   0.911   9.642   3.407  0.1023  1.8722  3.1197
  933MOL0     H28700   1.029   9.513   3.391 -1.4189 -2.0570  2.5168
  933MOL0     H28701   1.207   9.668   3.444 -0.2451  0.5317  0.2212
  933MOL0     H28702   1.139   9.677   3.276 -0.0064  1.2673 -0.8727
  933MOL0     H28703   1.308   9.946   3.445 -0.6795  0.7467  3.9453
  933MOL0     H28704   1.120  10.264   3.396  1.1346 -1.0561 -0.9518
  933MOL0     H28705   1.285  10.227   3.412 -0.5699  4.3945 -0.8315
  933MOL0     H28706   1.188  10.359   3.627  0.4255  0.8789 -2.0075
  933MOL0     H28707   1.128  10.193   3.667 -0.4585 -1.7583 -1.5645
  933MOL0     H28708   1.361  10.109   3.650  2.0209  0.7616 -1.5598
  933MOL0     H28709   1.405  10.279   3.592 -0.5761  1.3776  0.5844
  933MOL0     H28710   1.346  10.336   3.843  2.1331 -0.1019  2.7316
  933MOL0     H28711   1.278  10.176   3.858  1.9681  0.1736  1.6045
  933MOL0     H28712   1.734  10.197   3.889  1.8727  2.2956  0.2418
  933MOL0     H28713   1.902  10.113   4.144 -2.1478 -0.3716 -2.1401
  933MOL0     H28714   1.955  10.291   4.143  0.7835 -0.3883  0.0213
  933MOL0     H28715   1.929  10.199   3.995  4.0840  0.9923  0.7594
  933MOL0     H28716   1.834  10.473   4.623  0.0223  0.2934 -0.8084
  933MOL0     H28717   1.929  10.403   4.830 -2.5172  1.0177  1.4742
  933MOL0     H28718   1.911  10.334   5.060  0.2391 -0.5567  1.5302
  933MOL0     H28719   1.945  10.191   5.147 -2.5481 -1.3882 -0.3350
  933MOL0     H28720   2.159  10.152   5.022 -2.2549 -1.4515 -1.2476
  933MOL0     H28721   2.117  10.254   4.886  2.7795 -1.7639  0.5624
  933MOL0     H28722   2.087  10.446   5.065 -0.3393  0.8331 -0.7448
  933MOL0     H28723   2.251  10.408   4.990 -0.3258 -1.1948 -0.2818
  933MOL0     H28724   2.289  10.271   5.214  1.2953  0.5614 -0.9402
  933MOL0     H28725   2.153  10.357   5.279  0.6477 -3.3479 -0.4715
  933MOL0     H28726   2.415  10.452   5.186 -1.0519  1.2671 -1.3580
  933MOL0     H28727   2.283  10.562   5.161 -1.4284 -3.0139 -1.7964
  933MOL0     H28728   2.367  10.489   5.431  0.7171  0.7104  0.2163
  933MOL0     H28729   2.215  10.585   5.386  0.0877  0.7471  0.5078
  933MOL0     H28730   2.379  10.739   5.258 -2.6076  0.7783  2.7486
  933MOL0     H28731   2.515  10.624   5.299  0.1156 -0.2650 -0.2267
  933MOL0     H28732   2.345  10.777   5.491 -0.4469 -2.5414 -0.2858
  933MOL0     H28733   2.488  10.852   5.430 -0.7268  0.5362 -2.4774
  933MOL0     H28734   1.704  10.036   4.817  1.4632 -1.4048 -0.5063
  933MOL0     H28735   1.607  10.104   4.615 -1.0043 -0.5353  3.0881
  933MOL0     H28736   1.467  10.268   4.301  1.9849  0.1178  0.4394
  933MOL0     H28737   1.354  10.251   4.075  0.2550 -0.4346  0.3767
  933MOL0     H28738   0.786   8.780   3.774  2.3510 -0.4352  0.1788
  933MOL0     H28739   0.644   8.602   3.873 -1.1133 -1.0101  1.8887
  933MOL0     H28740   0.795   8.108   4.041  0.0906 -0.7864  1.3676
  933MOL0     H28741   0.663   7.910   4.083  0.5306 -0.1950  1.2903
  933MOL0     H28742   0.532   7.729   4.146  0.2073 -0.2160  0.7520
  933MOL0     H28743   0.595   7.803   4.290 -1.0999 -2.0372  5.3110
  933MOL0     H28744   0.456   7.605   4.339  1.8310  1.0821  1.5117
  933MOL0     H28745   0.309   7.684   4.274 -0.2454 -0.2238  1.2548
  933MOL0     H28746   0.472   7.775   4.519  0.7607 -1.9908 -1.9098
  933MOL0     H28747   0.349   7.880   4.443 -3.6275 -0.3893  0.8771
  933MOL0     H28748   0.296   7.600   4.544 -0.0105 -1.7100 -2.1384
  933MOL0     H28749   0.175   7.725   4.509 -0.3523  0.4947  3.1165
  933MOL0     H28750   0.373   7.848   4.868  0.9674  0.7829 -0.3944
  933MOL0     H28751   0.343   8.121   4.237 -0.5832  4.0628 -1.5169
  933MOL0     H28752   0.335   8.336   4.238  1.0642 -1.0845 -0.3302
  933MOL0     H28753   0.479   8.441   4.256  1.3203 -2.4439  0.7497
  933MOL0     H28754   0.389   8.433   4.101 -2.2552 -0.0223  0.1503
  934MOL0     O28755   4.426   7.580   2.628 -0.1921 -0.2423 -0.6139
  934MOL0     C28756   4.542   7.617   2.649  0.3980 -1.2276 -0.6152
  934MOL0     O28757   4.635   7.618   2.559  0.7427 -0.2156  0.0866
  934MOL0     C28758   4.608   7.576   2.431  0.0897 -0.1381  0.1899
  934MOL0     C28759   4.613   7.664   2.318 -0.3031 -0.5763 -0.1072
  934MOL0     C28760   4.576   7.625   2.189  0.4667  0.9857  0.1017
  934MOL0     C28761   4.537   7.482   2.174  0.1592  0.8673 -0.7031
  934MOL0     O28762   4.490   7.426   2.064  0.3719  0.4026 -0.7180
  934MOL0     C28763   4.412   7.509   1.980  0.5001  0.0211 -0.3282
  934MOL0     C28764   4.489   7.579   1.867 -0.7297 -0.3491  0.3446
  934MOL0     C28765   4.539   7.466   1.769  0.7277 -0.0068 -0.5140
  934MOL0     C28766   4.603   7.533   1.652 -0.3839  0.2385  0.1339
  934MOL0     C28767   4.640   7.420   1.553 -0.0633 -0.5689 -1.0741
  934MOL0     C28768   4.720   7.468   1.437  0.2229 -0.7510  0.4456
  934MOL0     C28769   4.851   7.527   1.477  0.1480 -0.3176 -0.3270
  934MOL0     C28770   4.925   7.552   1.346 -0.0479 -0.0947  0.9253
  934MOL0     N28771   5.062   7.588   1.384  0.8206 -0.3814 -0.4312
  934MOL0     C28772   5.114   7.647   1.497  0.3897  0.3258  0.8566
  934MOL0     C28773   5.249   7.623   1.504 -0.5177 -0.5939  0.5235
  934MOL0     C28774   5.347   7.638   1.613  0.3331  0.4932  0.2055
  934MOL0     C28775   5.353   7.503   1.689  0.2744 -0.0374 -0.1398
  934MOL0     C28776   5.469   7.490   1.790 -0.6481  0.3959  0.4200
  934MOL0     C28777   5.466   7.595   1.896  1.2818 -0.2768 -0.6455
  934MOL0     O28778   5.577   7.586   1.977  0.3422  0.0165 -0.0942
  934MOL0     C28779   5.574   7.538   2.102 -0.3576 -0.5753  0.3936
  934MOL0     C28780   5.477   7.461   2.168  0.1535  0.4047 -0.3774
  934MOL0     C28781   5.500   7.409   2.298  0.1777  0.2010  0.9703
  934MOL0     C28782   5.379   7.342   2.365 -0.4891  0.7201 -0.2654
  934MOL0     C28783   5.626   7.424   2.363 -0.1381 -0.3459  0.1241
  934MOL0     C28784   5.655   7.392   2.509 -0.1983 -0.8186 -0.1357
  934MOL0     O28785   5.589   7.287   2.560 -0.6040 -0.3794  0.2047
  934MOL0     C28786   5.622   7.245   2.687 -0.0634  0.3062 -0.4344
  934MOL0     C28787   5.567   7.296   2.805  0.2215  0.5409  0.8748
  934MOL0     C28788   5.598   7.239   2.936 -1.0320  0.7279 -0.0974
  934MOL0     C28789   5.698   7.144   2.947  0.6135 -0.4899  0.1125
  934MOL0     O28790   5.741   7.093   3.068 -0.5821 -0.1896  0.1327
  934MOL0     C28791   5.688   7.146   3.193 -1.6770 -0.2894  0.0621
  934MOL0     C28792   5.751   7.066   3.309  0.5939 -0.0332  0.5629
  934MOL0     C28793   5.720   6.912   3.294  0.5161 -0.1663  0.6605
  934MOL0     C28794   5.652   6.838   3.415 -0.1619 -0.1621  0.2532
  934MOL0     C28795   5.675   6.686   3.420 -0.0924 -0.3615  1.0248
  934MOL0     C28796   5.639   6.634   3.559 -0.0710 -0.3048  0.0819
  934MOL0     C28797   5.723   6.503   3.580  0.2157  0.6455 -0.1035
  934MOL0     C28798   5.700   6.421   3.719 -0.4939  0.6252 -0.0889
  934MOL0    Cl28799   5.536   6.393   3.752 -0.0299 -0.3843 -0.0186
  934MOL0     C28800   5.754   7.091   2.830 -0.4631  0.1853 -0.1512
  934MOL0     C28801   5.718   7.142   2.704  0.3592  0.3328 -1.0686
  934MOL0     O28802   5.740   7.460   2.572  0.2369  0.2552  0.3913
  934MOL0     C28803   5.725   7.499   2.293  0.7562  0.1926  0.1620
  934MOL0     C28804   5.696   7.546   2.169 -0.3490  0.0588  0.4709
  934MOL0     N28805   5.280   7.563   1.380  0.1452  0.6174  0.6579
  934MOL0     N28806   5.165   7.539   1.316  0.0353  0.5251  1.9281
  934MOL0     C28807   4.544   7.393   2.285  0.0110  0.1913  0.7052
  934MOL0     C28808   4.583   7.440   2.409  0.3490  0.1451 -0.2965
  934MOL0     C28809   4.589   7.642   2.787  0.0702  0.2796  0.1214
  934MOL0     C28810   4.733   7.634   2.820  0.8341  0.0391  0.7647
  934MOL0     C28811   4.789   7.654   2.946  0.5274  0.2750  0.2532
  934MOL0     C28812   4.701   7.674   3.061 -0.0935 -0.4825  0.6016
  934MOL0     O28813   4.740   7.699   3.197  0.6720 -0.0315  0.0412
  934MOL0     C28814   4.864   7.653   3.232  0.0148  0.4653 -0.3791
  934MOL0     C28815   4.916   7.736   3.348 -0.6365 -0.2616  0.9796
  934MOL0     C28816   4.950   7.874   3.299  0.7809  0.3288  1.6059
  934MOL0     C28817   4.888   7.999   3.371 -0.5160 -0.0817  0.6314
  934MOL0     C28818   4.749   8.029   3.355 -0.9508  0.2500  0.6476
  934MOL0     C28819   4.632   8.037   3.354  0.1367 -0.0376  0.7213
  934MOL0     C28820   4.562   7.697   3.028 -0.5107 -0.2243 -0.5222
  934MOL0     C28821   4.504   7.675   2.901 -0.4514 -0.0824  0.5165
  934MOL0     C28822   4.353   7.701   2.894  0.2380 -0.2135  0.1409
  934MOL0     H28823   4.634   7.767   2.345 -2.3347  0.1148 -0.9978
  934MOL0     H28824   4.567   7.699   2.109 -1.0308  0.9192  0.1762
  934MOL0     H28825   4.369   7.598   2.029  1.3456  1.6173 -2.3513
  934MOL0     H28826   4.328   7.450   1.943 -1.2607  1.0927  1.7005
  934MOL0     H28827   4.427   7.654   1.817 -0.1750 -0.0640  0.0719
  934MOL0     H28828   4.578   7.637   1.893  0.2613 -0.1645 -2.9447
  934MOL0     H28829   4.620   7.411   1.819  2.8866  3.5513  0.2946
  934MOL0     H28830   4.463   7.393   1.743  1.4770 -0.7927 -0.5445
  934MOL0     H28831   4.542   7.611   1.604 -0.2511  0.5309  0.4404
  934MOL0     H28832   4.684   7.592   1.693  0.3280 -0.2735 -0.4979
  934MOL0     H28833   4.547   7.375   1.516 -0.5003  0.8046 -1.7445
  934MOL0     H28834   4.709   7.358   1.611 -0.5570  0.3619  0.5773
  934MOL0     H28835   4.732   7.381   1.371 -1.3432 -0.2234 -0.6011
  934MOL0     H28836   4.664   7.544   1.381 -2.5295 -2.2620  0.9688
  934MOL0     H28837   4.916   7.467   1.541  4.0434  3.5244 -0.2135
  934MOL0     H28838   4.833   7.618   1.535  0.5886  0.3761 -1.2501
  934MOL0     H28839   4.934   7.469   1.276 -2.7680  1.7237 -1.8480
  934MOL0     H28840   4.879   7.638   1.297  2.0994  0.0791 -0.9499
  934MOL0     H28841   5.053   7.703   1.567 -2.9029  0.1872 -1.6422
  934MOL0     H28842   5.324   7.712   1.690  2.4171  1.1820  0.2259
  934MOL0     H28843   5.447   7.670   1.582  1.0956 -0.7403  1.2661
  934MOL0     H28844   5.257   7.491   1.741  1.0650 -1.5046  1.0495
  934MOL0     H28845   5.354   7.419   1.619  0.0863  1.1456 -1.6214
  934MOL0     H28846   5.470   7.389   1.831  1.1418  0.5870  0.9423
  934MOL0     H28847   5.564   7.505   1.738  0.1578  0.3790  1.8338
  934MOL0     H28848   5.476   7.693   1.849 -0.8571 -0.2015 -1.0672
  934MOL0     H28849   5.371   7.601   1.951  1.9148  3.6543  0.3072
  934MOL0     H28850   5.379   7.444   2.125 -0.1561  1.5279 -0.1334
  934MOL0     H28851   5.290   7.350   2.302  1.4694 -0.6951 -3.4560
  934MOL0     H28852   5.352   7.374   2.466 -0.3332  1.6762 -0.5207
  934MOL0     H28853   5.403   7.236   2.380 -0.3355  1.0774  2.5746
  934MOL0     H28854   5.501   7.381   2.795  0.3534  0.7140  1.4432
  934MOL0     H28855   5.563   7.290   3.025  1.0550  1.3606  0.4125
  934MOL0     H28856   5.707   7.254   3.201 -1.1579  0.0492 -3.7492
  934MOL0     H28857   5.581   7.122   3.192 -1.0524 -3.7099  1.0852
  934MOL0     H28858   5.859   7.074   3.321  0.4737 -0.2166  1.9387
  934MOL0     H28859   5.721   7.090   3.411  1.3915  0.5116  0.6786
  934MOL0     H28860   5.817   6.867   3.273  1.3372  2.1864 -0.9647
  934MOL0     H28861   5.658   6.895   3.206  0.2384  0.1533  0.7960
  934MOL0     H28862   5.545   6.852   3.394  0.3393  1.2675 -1.6387
  934MOL0     H28863   5.679   6.881   3.511 -0.1187 -0.8622  0.5574
  934MOL0     H28864   5.619   6.641   3.337 -1.7820 -2.1958  3.0292
  934MOL0     H28865   5.779   6.662   3.397 -0.2106  1.4958 -2.1392
  934MOL0     H28866   5.530   6.629   3.562 -0.1247  1.0361  2.3265
  934MOL0     H28867   5.679   6.713   3.623 -2.3453 -0.5897  1.9675
  934MOL0     H28868   5.828   6.536   3.581 -0.3327  2.5231  0.5271
  934MOL0     H28869   5.704   6.432   3.499 -2.6252  1.9908 -0.7452
  934MOL0     H28870   5.742   6.479   3.802 -2.0523  2.5237 -0.5468
  934MOL0     H28871   5.759   6.330   3.714 -1.3211  0.0968 -0.4083
  934MOL0     H28872   5.840   7.026   2.834 -0.0932  0.7035  3.2907
  934MOL0     H28873   5.771   7.107   2.616  2.1229 -0.6006  0.2746
  934MOL0     H28874   5.817   7.522   2.347  1.3405 -0.7140 -0.4253
  934MOL0     H28875   5.777   7.600   2.121 -1.0137  1.4208  0.8253
  934MOL0     H28876   4.512   7.290   2.276  0.4102  0.2235 -1.5323
  934MOL0     H28877   4.587   7.379   2.498 -1.2089  1.2079  0.5614
  934MOL0     H28878   4.796   7.617   2.733  0.8718 -2.5514  1.2166
  934MOL0     H28879   4.897   7.646   2.944  0.4561 -0.6533 -0.7905
  934MOL0     H28880   4.858   7.548   3.262 -1.6209 -1.0678 -5.0979
  934MOL0     H28881   4.931   7.646   3.145 -1.5353 -0.5707 -1.5593
  934MOL0     H28882   5.006   7.693   3.392  0.2728 -1.6644 -1.9696
  934MOL0     H28883   4.834   7.747   3.419 -0.7873  1.9155  0.5427
  934MOL0     H28884   5.059   7.878   3.297  0.7799  3.2977  1.9993
  934MOL0     H28885   4.919   7.880   3.194 -1.9449 -0.7472  2.2761
  934MOL0     H28886   4.947   8.083   3.335  2.3171 -2.1392  0.0862
  934MOL0     H28887   4.913   7.988   3.477  3.2735  0.9492 -0.0120
  934MOL0     H28888   4.525   8.029   3.353  0.1687 -1.3551  2.5776
  934MOL0     H28889   4.486   7.705   3.106 -0.3803  1.8830 -0.5522
  934MOL0     H28890   4.343   7.801   2.851  1.5469 -0.7329 -1.4430
  934MOL0     H28891   4.288   7.629   2.843 -1.3869  0.7856  0.7104
  934MOL0     H28892   4.305   7.705   2.992 -0.3965 -1.4093 -0.1011
  935MOL0     O28893   6.637   1.267  11.356  0.0047 -0.2010  0.3146
  935MOL0     C28894   6.563   1.370  11.337  0.5291  0.6642 -0.5203
  935MOL0     O28895   6.564   1.441  11.219  0.1147 -0.2518 -0.6484
  935MOL0     C28896   6.654   1.411  11.120 -0.0426  0.3277 -0.5673
  935MOL0     C28897   6.614   1.406  10.989 -0.8237 -0.3317  0.7593
  935MOL0     C28898   6.699   1.397  10.876 -0.2409  0.1174 -0.5906
  935MOL0     C28899   6.840   1.395  10.912  0.7457 -0.4167 -0.0941
  935MOL0     O28900   6.948   1.381  10.819 -0.5529  0.1132 -0.5939
  935MOL0     C28901   6.909   1.351  10.687  0.2416 -0.6702  0.3034
  935MOL0     C28902   6.916   1.203  10.653  0.3186 -0.0475 -0.7177
  935MOL0     C28903   6.793   1.125  10.668  0.2277 -1.1235  0.5098
  935MOL0     C28904   6.725   1.082  10.532  0.5318  0.0010 -0.5632
  935MOL0     C28905   6.673   1.200  10.459 -0.8560 -0.1599 -0.3164
  935MOL0     C28906   6.610   1.156  10.333 -0.6020  0.2084 -0.7075
  935MOL0     C28907   6.720   1.131  10.224 -1.2018 -0.0251  0.5983
  935MOL0     C28908   6.659   1.094  10.082  0.0100 -0.0552  0.6849
  935MOL0     N28909   6.754   1.008  10.009 -0.3444  0.0570  0.5684
  935MOL0     C28910   6.862   1.068   9.948  0.4443 -0.5469  0.5464
  935MOL0     C28911   6.929   0.971   9.891 -0.5946  0.6226  0.0733
  935MOL0     C28912   7.065   0.970   9.826 -0.4514 -0.0288 -0.2950
  935MOL0     C28913   7.062   0.949   9.672 -0.1037  1.2469 -0.3302
  935MOL0     C28914   7.209   0.925   9.619 -0.1632 -1.0886 -0.2200
  935MOL0     C28915   7.287   1.058   9.609  0.2796  0.0074  0.1757
  935MOL0     O28916   7.209   1.128   9.502 -0.5021 -0.6403 -0.0851
  935MOL0     C28917   7.279   1.148   9.388 -0.2452  0.4690 -0.4043
  935MOL0     C28918   7.402   1.205   9.381  0.2573  0.1369  0.2655
  935MOL0     C28919   7.466   1.221   9.254 -0.4633 -0.1576 -0.3661
  935MOL0     C28920   7.609   1.270   9.252  0.4218  0.8658 -0.4475
  935MOL0     C28921   7.394   1.199   9.136  0.7751  0.4209  0.6667
  935MOL0     C28922   7.446   1.223   8.997  0.4450  0.6895  0.2749
  935MOL0     O28923   7.398   1.155   8.899  0.2141 -0.1375 -0.0105
  935MOL0     C28924   7.449   1.159   8.773  1.3782 -0.3598 -0.0327
  935MOL0     C28925   7.586   1.179   8.745  0.2400  0.4993 -0.2955
  935MOL0     C28926   7.626   1.163   8.610  0.2577 -0.6096 -0.7272
  935MOL0     C28927   7.533   1.159   8.511  0.0319  0.6243  0.3505
  935MOL0     O28928   7.592   1.161   8.388  0.1038  0.0636 -0.2109
  935MOL0     C28929   7.513   1.192   8.269 -0.7580  0.2150  0.2978
  935MOL0     C28930   7.602   1.181   8.140  0.4727 -0.0306 -0.6697
  935MOL0     C28931   7.699   1.296   8.134  0.3066 -0.2134 -0.5173
  935MOL0     C28932   7.796   1.273   8.024 -0.0718 -0.5703  0.0310
  935MOL0     C28933   7.877   1.398   7.996  0.5219 -0.2763  0.7895
  935MOL0     C28934   7.803   1.514   7.920 -0.5519 -0.1647  0.8221
  935MOL0     C28935   7.765   1.479   7.770  0.6497 -0.5524  0.4034
  935MOL0     C28936   7.703   1.600   7.692 -0.4116  0.3573 -0.2979
  935MOL0    Cl28937   7.783   1.751   7.726 -0.3652  0.1280 -0.3534
  935MOL0     C28938   7.394   1.151   8.538  0.4530 -0.4551  0.6721
  935MOL0     C28939   7.353   1.150   8.670 -0.4516  0.1164 -0.9212
  935MOL0     O28940   7.538   1.304   8.990  0.4866 -0.6317  0.1262
  935MOL0     C28941   7.264   1.135   9.144  0.1335 -0.4710  0.4119
  935MOL0     C28942   7.202   1.115   9.265 -0.2520  0.5711 -0.4656
  935MOL0     N28943   6.863   0.853   9.928 -0.3736 -0.7498 -0.5271
  935MOL0     N28944   6.752   0.882   9.990 -0.3677  0.0835 -0.3285
  935MOL0     C28945   6.881   1.401  11.046 -0.4304 -0.1975  0.1705
  935MOL0     C28946   6.788   1.404  11.146  0.5634  0.0597 -0.6789
  935MOL0     C28947   6.472   1.426  11.433  0.0323 -0.0668  0.0421
  935MOL0     C28948   6.360   1.487  11.382  0.4272 -0.2630 -0.1598
  935MOL0     C28949   6.269   1.546  11.466  0.1022  0.0963  0.4027
  935MOL0     C28950   6.268   1.527  11.598 -1.2003  0.7226 -0.3048
  935MOL0     O28951   6.171   1.596  11.661 -0.1821  0.8595 -0.2260
  935MOL0     C28952   6.118   1.558  11.780 -0.1657  0.4365 -0.0574
  935MOL0     C28953   5.981   1.519  11.761  0.5784  0.8432 -0.5884
  935MOL0     C28954   5.912   1.495  11.908  0.8744 -0.4775 -0.4056
  935MOL0     C28955   5.848   1.629  11.954 -0.0635  0.1850 -0.9352
  935MOL0     C28956   5.780   1.611  12.084 -0.5568 -0.5334  0.0969
  935MOL0     C28957   5.716   1.620  12.188 -0.2723  0.0952 -0.5175
  935MOL0     C28958   6.379   1.466  11.654 -0.3201  0.1357 -0.0183
  935MOL0     C28959   6.480   1.422  11.576 -0.4544  0.4445  0.2171
  935MOL0     C28960   6.616   1.380  11.642  0.1252  0.3210 -0.5762
  935MOL0     H28961   6.508   1.421  10.975 -0.5767 -1.1316 -3.0452
  935MOL0     H28962   6.651   1.400  10.779 -0.2934  3.3914 -0.5609
  935MOL0     H28963   6.969   1.394  10.606 -1.5549 -1.2994 -1.4298
  935MOL0     H28964   6.811   1.391  10.662 -0.1342 -1.3431  0.6811
  935MOL0     H28965   6.966   1.192  10.556 -0.1407  4.9634 -1.7954
  935MOL0     H28966   6.990   1.154  10.717 -0.1630  0.7892  0.5034
  935MOL0     H28967   6.809   1.029  10.718 -0.1550 -1.9770 -0.9452
  935MOL0     H28968   6.721   1.176  10.732  0.0131 -1.3870  0.4803
  935MOL0     H28969   6.799   1.018  10.484 -0.9329 -3.2436  1.1918
  935MOL0     H28970   6.636   1.024  10.559 -0.1540  1.9215  1.6717
  935MOL0     H28971   6.758   1.267  10.444 -0.6968 -0.2403  0.2025
  935MOL0     H28972   6.599   1.252  10.520 -0.3594  0.5522 -0.3077
  935MOL0     H28973   6.551   1.066  10.347 -2.6812  1.2539 -2.1396
  935MOL0     H28974   6.540   1.234  10.299  0.5500  2.5965  1.9326
  935MOL0     H28975   6.783   1.046  10.254 -2.4689 -0.7605  1.2310
  935MOL0     H28976   6.780   1.222  10.218 -1.1641  0.0132  1.4327
  935MOL0     H28977   6.559   1.051  10.094 -1.3407  1.8441 -2.5997
  935MOL0     H28978   6.643   1.189  10.030 -2.3075 -0.5579  0.3571
  935MOL0     H28979   6.880   1.174   9.937 -1.7229 -0.3176 -1.6285
  935MOL0     H28980   7.137   0.903   9.874  3.3990  4.3285  0.7489
  935MOL0     H28981   7.103   1.067   9.859  1.8317 -0.8328 -0.4190
  935MOL0     H28982   7.005   0.858   9.654 -0.7606  1.7500 -0.8249
  935MOL0     H28983   7.017   1.027   9.610  0.8493 -0.5921 -3.5590
  935MOL0     H28984   7.255   0.853   9.688 -0.5706 -2.8477 -1.6992
  935MOL0     H28985   7.206   0.878   9.521 -0.6032  0.4957 -0.9885
  935MOL0     H28986   7.291   1.118   9.700  1.9318 -1.4552  1.1307
  935MOL0     H28987   7.389   1.045   9.572  0.5262  5.3762 -1.8350
  935MOL0     H28988   7.465   1.225   9.467  2.5774 -1.4617 -0.9657
  935MOL0     H28989   7.617   1.374   9.219 -0.7968  0.5627 -1.8015
  935MOL0     H28990   7.660   1.205   9.181 -1.7354  0.8437 -2.0987
  935MOL0     H28991   7.648   1.255   9.353 -1.2918  0.0059  0.1243
  935MOL0     H28992   7.669   1.195   8.814 -1.0935  0.1646  1.4544
  935MOL0     H28993   7.734   1.164   8.593  0.0962 -1.2732 -1.9522
  935MOL0     H28994   7.423   1.131   8.269 -1.8358  1.7507 -0.0928
  935MOL0     H28995   7.479   1.296   8.272 -1.3542  0.0001  1.2030
  935MOL0     H28996   7.655   1.086   8.150  2.0167  0.9319  0.8844
  935MOL0     H28997   7.541   1.180   8.049 -3.2392 -0.6296  1.6122
  935MOL0     H28998   7.752   1.306   8.229  0.2163 -1.2618 -0.3447
  935MOL0     H28999   7.654   1.390   8.098 -0.0040  0.3782  1.3020
  935MOL0     H29000   7.745   1.238   7.934 -0.8395 -2.2570  1.0667
  935MOL0     H29001   7.868   1.197   8.056  2.0651  1.5053  0.4415
  935MOL0     H29002   7.921   1.438   8.088 -1.0812  1.4477  0.8798
  935MOL0     H29003   7.959   1.369   7.931 -0.8078  0.9983 -1.5894
  935MOL0     H29004   7.876   1.594   7.911 -1.9912  0.9344 -2.5050
  935MOL0     H29005   7.707   1.545   7.963 -1.5783 -1.6232 -0.3086
  935MOL0     H29006   7.692   1.398   7.762  1.2101 -0.8705 -2.0110
  935MOL0     H29007   7.853   1.446   7.714  1.2308  2.6221 -0.7579
  935MOL0     H29008   7.601   1.610   7.730 -0.0783 -1.5217  1.2370
  935MOL0     H29009   7.688   1.592   7.584 -3.9665  0.6591  0.0443
  935MOL0     H29010   7.321   1.142   8.458 -0.3652 -0.8333  1.4433
  935MOL0     H29011   7.247   1.155   8.694 -1.4370 -4.6653 -3.0492
  935MOL0     H29012   7.207   1.103   9.058  0.0585 -1.3702  0.7743
  935MOL0     H29013   7.099   1.083   9.282  0.8151 -2.1376  1.7224
  935MOL0     H29014   6.986   1.411  11.073 -0.5567  1.4436  0.1385
  935MOL0     H29015   6.818   1.420  11.249  1.2621  2.1330 -1.1668
  935MOL0     H29016   6.347   1.511  11.277 -3.7170 -0.0943  0.2399
  935MOL0     H29017   6.209   1.617  11.411  1.0201 -0.5425 -1.5136
  935MOL0     H29018   6.182   1.484  11.828 -0.5670  1.7127  2.5751
  935MOL0     H29019   6.135   1.635  11.855  3.2157 -0.9978  0.8310
  935MOL0     H29020   5.971   1.423  11.709  1.1600 -0.2948  1.2789
  935MOL0     H29021   5.925   1.600  11.714 -1.6137  0.8235  1.7820
  935MOL0     H29022   5.841   1.413  11.910 -1.6796  1.6004 -0.8798
  935MOL0     H29023   5.990   1.478  11.983  1.9182  4.9561  0.1756
  935MOL0     H29024   5.772   1.666  11.885 -1.2780 -0.7222 -0.1169
  935MOL0     H29025   5.929   1.703  11.953 -0.8026  1.0288 -2.5156
  935MOL0     H29026   5.662   1.653  12.274 -1.1374  0.5671 -1.2242
  935MOL0     H29027   6.393   1.473  11.762  2.3965  3.6748 -0.4214
  935MOL0     H29028   6.617   1.416  11.745  1.7831 -1.5005  0.1099
  935MOL0     H29029   6.628   1.271  11.645  0.6594  0.2962 -2.3357
  935MOL0     H29030   6.695   1.427  11.583  0.1084  0.6449 -0.3440
  936MOL0     O29031  11.276  10.427   7.540 -0.0057 -0.0270  0.1573
  936MOL0     C29032  11.254  10.307   7.508 -0.8295  0.2771 -0.5446
  936MOL0     O29033  11.328  10.237   7.415  0.4648  0.0724  0.4954
  936MOL0     C29034  11.463  10.269   7.396 -0.3785 -0.5859 -0.1497
  936MOL0     C29035  11.568  10.186   7.441  0.7362  0.0185  0.5098
  936MOL0     C29036  11.701  10.224   7.409 -0.0903  0.4665  0.1086
  936MOL0     C29037  11.727  10.339   7.342 -0.2825 -0.2606  0.6924
  936MOL0     O29038  11.860  10.390   7.312  0.9946 -0.2429 -0.0656
  936MOL0     C29039  11.962  10.291   7.323 -0.1119  0.0444  0.0952
  936MOL0     C29040  12.090  10.342   7.263 -0.0253  0.7668  0.2708
  936MOL0     C29041  12.228  10.271   7.296  0.3273  0.7465  0.6587
  936MOL0     C29042  12.291  10.303   7.428  0.4900 -0.2129  0.2423
  936MOL0     C29043  12.411  10.212   7.460 -0.6271  0.7934 -0.5653
  936MOL0     C29044  12.520  10.239   7.350 -0.1258  0.6506 -0.8800
  936MOL0     C29045  12.649  10.172   7.393 -0.2598 -0.6655 -0.1909
  936MOL0     C29046  12.633  10.022   7.396  0.4082 -0.1660  0.5710
  936MOL0     N29047  12.767   9.959   7.385  0.2470  0.6326 -0.1200
  936MOL0     C29048  12.786   9.821   7.396  0.0875 -0.5039 -0.0266
  936MOL0     C29049  12.915   9.804   7.411 -0.1098 -0.3747 -0.6606
  936MOL0     C29050  12.971   9.679   7.462  0.8499  0.5191 -0.3787
  936MOL0     C29051  13.073   9.627   7.348 -0.4285 -0.7482 -0.0490
  936MOL0     C29052  13.211   9.651   7.405 -0.0437  0.6196  0.1411
  936MOL0     C29053  13.306   9.621   7.290  0.5238  0.2521  0.4627
  936MOL0     O29054  13.424   9.570   7.350 -0.1958 -0.0512  0.2782
  936MOL0     C29055  13.557   9.565   7.292  0.9445 -0.6924 -0.0996
  936MOL0     C29056  13.577   9.508   7.166  0.0822 -0.2938 -0.0264
  936MOL0     C29057  13.705   9.486   7.111 -0.6296  0.0414  0.0498
  936MOL0     C29058  13.705   9.442   6.964 -0.5438  0.5049  0.3140
  936MOL0     C29059  13.816   9.477   7.196  0.6284  0.1715 -0.2961
  936MOL0     C29060  13.955   9.435   7.155 -0.3671  0.0523  0.4901
  936MOL0     O29061  14.059   9.503   7.221 -1.1616  0.7658  0.5748
  936MOL0     C29062  14.181   9.472   7.172  0.2392  0.2433 -0.1633
  936MOL0     C29063  14.241   9.345   7.195 -0.6793  0.2899  0.2436
  936MOL0     C29064  14.364   9.316   7.132  0.2861  0.4599 -0.2909
  936MOL0     C29065  14.436   9.410   7.066  0.1712 -0.6869  0.2089
  936MOL0     O29066  14.553   9.360   7.008  0.2401 -1.0583 -0.2823
  936MOL0     C29067  14.607   9.425   6.888  0.5899  0.2320  0.1489
  936MOL0     C29068  14.668   9.315   6.793  0.1194 -0.4277  0.5857
  936MOL0     C29069  14.564   9.200   6.767 -0.4592 -0.0853 -0.5104
  936MOL0     C29070  14.605   9.118   6.639 -0.4800 -0.9887 -0.8091
  936MOL0     C29071  14.505   9.012   6.601  0.6228  0.5525  0.0254
  936MOL0     C29072  14.516   8.881   6.686  0.5041  0.1995 -0.5359
  936MOL0     C29073  14.408   8.770   6.656  0.4472 -0.0274  0.4557
  936MOL0     C29074  14.421   8.719   6.515 -1.0140  0.4217 -0.2102
  936MOL0    Cl29075  14.563   8.613   6.513  0.0381 -0.2250  0.6425
  936MOL0     C29076  14.378   9.538   7.046  0.4552 -0.0522  0.0097
  936MOL0     C29077  14.249   9.567   7.100 -0.4738  0.7672 -0.4309
  936MOL0     O29078  13.971   9.350   7.071  0.5569 -0.6358 -0.1099
  936MOL0     C29079  13.798   9.532   7.322 -0.1610  0.4092 -0.6009
  936MOL0     C29080  13.673   9.578   7.372  1.0988 -0.0172 -0.3758
  936MOL0     N29081  12.972   9.928   7.418  0.3720  0.0545  0.6984
  936MOL0     N29082  12.889  10.021   7.391  0.3008  0.4032 -0.6694
  936MOL0     C29083  11.615  10.412   7.286  0.3420 -0.6036  0.5080
  936MOL0     C29084  11.487  10.373   7.317  1.1269 -0.4074 -0.4298
  936MOL0     C29085  11.156  10.220   7.577  0.3266 -0.7150 -0.0206
  936MOL0     C29086  11.081  10.286   7.674 -0.6588 -0.0468 -1.2271
  936MOL0     C29087  10.975  10.231   7.739 -1.0875 -0.5059 -0.6972
  936MOL0     C29088  10.929  10.106   7.715  0.8017 -0.2845 -0.5252
  936MOL0     O29089  10.827  10.057   7.790  0.8569  0.6217  0.2578
  936MOL0     C29090  10.756   9.934   7.750 -0.4531 -0.0851 -0.6271
  936MOL0     C29091  10.608   9.930   7.779 -0.1269 -0.1178 -0.6168
  936MOL0     C29092  10.540  10.049   7.712 -0.2982 -0.2725 -0.4480
  936MOL0     C29093  10.390  10.060   7.749  0.8639 -0.5811 -0.6774
  936MOL0     C29094  10.316  10.126   7.640  0.3861 -0.2811 -0.2705
  936MOL0     C29095  10.251  10.183   7.551 -0.5127 -0.4170 -0.2812
  936MOL0     C29096  11.003  10.030   7.617  0.3183 -0.0591  0.2338
  936MOL0     C29097  11.112  10.090   7.546  0.6772  0.9879 -0.2311
  936MOL0     C29098  11.178  10.005   7.441  0.5349 -0.5877  0.0933
  936MOL0     H29099  11.549  10.082   7.467  1.2703 -0.1239  0.3516
  936MOL0     H29100  11.787  10.162   7.432 -1.2656 -0.5222  2.0914
  936MOL0     H29101  11.939  10.208   7.256  3.0463 -1.3456  0.5706
  936MOL0     H29102  11.971  10.252   7.425 -0.8651  1.6076  0.8026
  936MOL0     H29103  12.087  10.344   7.154  3.6894 -0.0807  0.0211
  936MOL0     H29104  12.089  10.443   7.306 -1.6762  1.3508 -1.0429
  936MOL0     H29105  12.229  10.163   7.282  2.5341  1.0500 -3.0280
  936MOL0     H29106  12.300  10.302   7.219 -1.3215 -1.3259 -1.8836
  936MOL0     H29107  12.326  10.406   7.432 -0.5371  0.1021  1.2342
  936MOL0     H29108  12.207  10.298   7.497 -2.1330 -0.7216 -2.7705
  936MOL0     H29109  12.394  10.104   7.461  3.3470 -0.0076 -1.7591
  936MOL0     H29110  12.447  10.241   7.559 -0.2265  2.2211 -1.1047
  936MOL0     H29111  12.490  10.206   7.250 -4.2961 -2.8412  1.2158
  936MOL0     H29112  12.542  10.347   7.347 -0.7878  0.9678  2.3666
  936MOL0     H29113  12.680  10.217   7.488 -1.6339  1.1866 -0.5532
  936MOL0     H29114  12.726  10.200   7.320 -0.1440 -1.0984 -0.2373
  936MOL0     H29115  12.586   9.981   7.486  0.3368 -1.0510  0.1324
  936MOL0     H29116  12.573   9.994   7.309  0.2198  0.2228  0.5690
  936MOL0     H29117  12.704   9.749   7.392  0.6883 -1.1659 -0.8191
  936MOL0     H29118  12.888   9.609   7.476 -0.2908  1.9611  0.2336
  936MOL0     H29119  13.014   9.692   7.562  0.2496  0.8999 -0.1693
  936MOL0     H29120  13.057   9.524   7.316  0.5916 -0.8177 -0.3514
  936MOL0     H29121  13.062   9.687   7.257 -1.4305  1.2376  1.3187
  936MOL0     H29122  13.213   9.758   7.429  0.3932  0.9869 -1.4451
  936MOL0     H29123  13.236   9.581   7.485  3.5093  1.0351 -0.4311
  936MOL0     H29124  13.258   9.551   7.222 -1.5876  0.9680  1.1523
  936MOL0     H29125  13.325   9.708   7.226 -1.8195  0.7023  0.3014
  936MOL0     H29126  13.488   9.491   7.106  0.3674  3.1319 -1.6840
  936MOL0     H29127  13.612   9.467   6.913 -1.7443 -2.4794  0.8411
  936MOL0     H29128  13.714   9.335   6.946 -3.9990  0.1874 -0.1055
  936MOL0     H29129  13.792   9.489   6.917 -0.9463  1.6245  0.6564
  936MOL0     H29130  14.196   9.272   7.262 -0.1221  2.2035  2.8355
  936MOL0     H29131  14.397   9.215   7.152 -0.7729  0.4195  1.4387
  936MOL0     H29132  14.522   9.475   6.841  1.2964  2.2023  0.8371
  936MOL0     H29133  14.684   9.501   6.905  0.4838  0.5476 -0.7433
  936MOL0     H29134  14.703   9.353   6.697  0.6162 -0.3472  0.7979
  936MOL0     H29135  14.749   9.268   6.849  1.1334  0.4557 -0.1150
  936MOL0     H29136  14.461   9.235   6.755 -1.1256 -2.2745 -1.8161
  936MOL0     H29137  14.568   9.141   6.859  0.8825  1.8060  0.7070
  936MOL0     H29138  14.711   9.089   6.640  0.4586  2.0221 -1.2986
  936MOL0     H29139  14.579   9.184   6.555 -1.2967 -2.0938 -1.4427
  936MOL0     H29140  14.404   9.052   6.586 -0.7677 -2.4326  0.6388
  936MOL0     H29141  14.553   8.990   6.505  0.7229 -0.6109  0.3250
  936MOL0     H29142  14.515   8.900   6.794 -0.2340 -2.0278 -0.1110
  936MOL0     H29143  14.608   8.834   6.650 -0.3357 -1.0814 -1.0385
  936MOL0     H29144  14.304   8.802   6.664  0.6361  0.7670 -0.0870
  936MOL0     H29145  14.427   8.687   6.725 -1.2371 -2.5042 -1.8468
  936MOL0     H29146  14.445   8.801   6.447  3.1739 -0.2826  0.1344
  936MOL0     H29147  14.326   8.673   6.487 -0.6929 -0.4231  0.0644
  936MOL0     H29148  14.429   9.604   6.977  1.9530 -1.2960 -0.1249
  936MOL0     H29149  14.193   9.658   7.082 -1.6978  0.2728  0.7188
  936MOL0     H29150  13.881   9.539   7.392  0.6450 -2.0159 -1.2217
  936MOL0     H29151  13.652   9.613   7.472 -2.2337 -0.7425 -0.7074
  936MOL0     H29152  11.634  10.493   7.216  1.1052 -1.9615 -0.9149
  936MOL0     H29153  11.400  10.435   7.295 -0.1261 -1.7689  0.5548
  936MOL0     H29154  11.121  10.381   7.710  1.9581 -0.7398 -2.0591
  936MOL0     H29155  10.921  10.289   7.813 -2.7054 -0.8534 -1.5515
  936MOL0     H29156  10.774   9.902   7.646 -0.8311 -4.2656  0.4139
  936MOL0     H29157  10.813   9.857   7.802  2.4734  1.0308 -1.9244
  936MOL0     H29158  10.589   9.943   7.886  0.3495  1.7380 -0.7205
  936MOL0     H29159  10.561   9.838   7.743 -1.9165  1.1494 -1.6644
  936MOL0     H29160  10.600  10.131   7.753  3.8642 -2.0865 -2.3387
  936MOL0     H29161  10.548  10.052   7.603  3.3705  0.4578 -0.2956
  936MOL0     H29162  10.384  10.123   7.839 -0.2681  0.2961 -1.3380
  936MOL0     H29163  10.353   9.959   7.771 -0.6028  0.6429  3.5939
  936MOL0     H29164  10.198  10.236   7.475 -0.5799  0.6143  0.4608
  936MOL0     H29165  10.969   9.929   7.597  1.0616 -0.1710 -0.5090
  936MOL0     H29166  11.150  10.039   7.342 -0.6344 -0.4275  0.4694
  936MOL0     H29167  11.288  10.008   7.447  0.8101  0.0416 -3.5379
  936MOL0     H29168  11.152   9.899   7.447  2.8694 -1.1530  2.3560
  937MOL0     O29169   2.158   2.837   9.205  0.0283 -0.5923 -0.4661
  937MOL0     C29170   2.126   2.722   9.219 -1.0051  0.7935 -1.1513
  937MOL0     O29171   2.173   2.640   9.323  1.3769  0.5752  0.6188
  937MOL0     C29172   2.279   2.673   9.406 -0.3246  0.4837 -0.5883
  937MOL0     C29173   2.389   2.580   9.415 -0.8519 -0.5177 -0.0217
  937MOL0     C29174   2.495   2.610   9.501 -0.0663  0.3955 -0.8017
  937MOL0     C29175   2.509   2.722   9.577 -0.1261 -0.5198 -0.0558
  937MOL0     O29176   2.629   2.742   9.645 -0.2418  0.6461  0.2930
  937MOL0     C29177   2.686   2.867   9.612 -0.2200 -1.1899  0.7539
  937MOL0     C29178   2.808   2.891   9.706  0.3232 -1.2758 -0.7530
  937MOL0     C29179   2.920   2.784   9.707 -0.4703  0.1305 -0.3767
  937MOL0     C29180   3.013   2.776   9.587  0.9898 -0.3329 -0.5398
  937MOL0     C29181   3.119   2.671   9.618  0.7641 -0.4393 -0.2005
  937MOL0     C29182   3.208   2.616   9.510 -0.2457  0.4144  0.2247
  937MOL0     C29183   3.302   2.514   9.552  0.2439 -0.1314 -0.4385
  937MOL0     C29184   3.412   2.473   9.455 -0.4240 -0.1071 -0.2841
  937MOL0     N29185   3.369   2.438   9.318 -0.9946  0.4365 -0.4898
  937MOL0     C29186   3.256   2.370   9.285 -0.1118 -0.3945  1.1917
  937MOL0     C29187   3.288   2.324   9.159  0.2340  0.1535  0.2851
  937MOL0     C29188   3.210   2.245   9.067 -0.3165 -0.6390  0.2171
  937MOL0     C29189   3.164   2.341   8.951 -0.4435 -0.7537  0.3555
  937MOL0     C29190   3.090   2.268   8.846 -0.0908 -0.4036 -0.9139
  937MOL0     C29191   2.948   2.323   8.816  0.0141 -0.0405  0.3838
  937MOL0     O29192   2.949   2.455   8.764  0.4913  0.1978 -0.0412
  937MOL0     C29193   2.995   2.476   8.637  0.4537 -0.2537  0.2293
  937MOL0     C29194   3.085   2.574   8.602  0.1518  0.5983  0.0639
  937MOL0     C29195   3.130   2.592   8.473  0.7491 -0.3452  0.0874
  937MOL0     C29196   3.241   2.692   8.446 -0.0163 -1.1118 -0.1766
  937MOL0     C29197   3.082   2.507   8.370 -0.3988 -0.8275  0.4237
  937MOL0     C29198   3.135   2.508   8.224  0.0730 -0.3934 -1.6346
  937MOL0     O29199   3.091   2.411   8.148 -0.7206  0.1524 -0.9007
  937MOL0     C29200   3.131   2.391   8.017  0.3193 -0.1382  0.0704
  937MOL0     C29201   3.072   2.279   7.959 -0.3603  0.3513  0.0427
  937MOL0     C29202   3.112   2.232   7.829 -0.1836 -0.3994 -0.0703
  937MOL0     C29203   3.213   2.296   7.756  0.2301 -0.2831 -0.3052
  937MOL0     O29204   3.244   2.245   7.633  0.3798  0.4451  0.5340
  937MOL0     C29205   3.254   2.331   7.523 -0.0865 -0.1844  0.2670
  937MOL0     C29206   3.108   2.379   7.484  0.2920 -0.1191 -0.1716
  937MOL0     C29207   3.018   2.254   7.473  0.6965 -0.0704 -0.1549
  937MOL0     C29208   2.876   2.292   7.421  0.5318 -0.3051  0.0015
  937MOL0     C29209   2.795   2.169   7.379 -0.1499 -0.3574  0.0574
  937MOL0     C29210   2.666   2.220   7.298  0.0314  0.6354  0.1447
  937MOL0     C29211   2.616   2.107   7.199  0.0207 -1.0928  0.0902
  937MOL0     C29212   2.468   2.110   7.183  0.2301 -0.6994 -0.2458
  937MOL0    Cl29213   2.400   2.249   7.102  0.0281 -0.2317 -0.0528
  937MOL0     C29214   3.278   2.401   7.817  0.1990 -0.7151 -1.1155
  937MOL0     C29215   3.238   2.450   7.942  0.3296  0.1449  0.1583
  937MOL0     O29216   3.223   2.591   8.194  0.7256  0.2956  0.4012
  937MOL0     C29217   2.995   2.408   8.409 -1.0939  0.9503 -0.2118
  937MOL0     C29218   2.940   2.398   8.534 -0.1073  0.8415 -0.1113
  937MOL0     N29219   3.409   2.375   9.123  0.7564  0.1484  0.0476
  937MOL0     N29220   3.458   2.447   9.219 -0.2958 -0.2172 -0.2870
  937MOL0     C29221   2.400   2.818   9.576  0.0644  0.4726 -0.2447
  937MOL0     C29222   2.293   2.795   9.484  0.6895  0.8537  0.8939
  937MOL0     C29223   2.021   2.667   9.134  0.8589 -0.0141  0.0760
  937MOL0     C29224   2.004   2.526   9.122 -0.5200 -0.3249 -0.1546
  937MOL0     C29225   1.909   2.468   9.031  0.6562  0.2063  0.8777
  937MOL0     C29226   1.831   2.545   8.937  0.5909 -0.1128  1.0201
  937MOL0     O29227   1.734   2.482   8.852 -0.1168  0.2558 -0.8885
  937MOL0     C29228   1.645   2.561   8.780 -0.0631 -0.4023  0.2578
  937MOL0     C29229   1.555   2.470   8.697 -1.4336 -0.4219  0.1943
  937MOL0     C29230   1.437   2.554   8.643  0.5240 -0.4661  1.1400
  937MOL0     C29231   1.327   2.458   8.581 -0.1816  0.1199 -0.3193
  937MOL0     C29232   1.374   2.402   8.444  0.3037 -0.1626 -0.2262
  937MOL0     C29233   1.414   2.363   8.338 -0.5457  0.1267 -0.1476
  937MOL0     C29234   1.851   2.684   8.957  0.8014  0.2989 -0.5629
  937MOL0     C29235   1.928   2.748   9.057 -0.6909 -0.0769  0.7689
  937MOL0     C29236   1.913   2.897   9.072  0.0273  0.6047  0.7021
  937MOL0     H29237   2.395   2.483   9.367 -0.6180 -0.7349  0.4343
  937MOL0     H29238   2.581   2.544   9.507  0.0399  0.5430 -0.7206
  937MOL0     H29239   2.611   2.945   9.623  2.0096  1.4247 -1.0006
  937MOL0     H29240   2.721   2.857   9.508 -1.4536 -1.6386  0.3691
  937MOL0     H29241   2.849   2.991   9.688 -4.8780  1.5632  1.3138
  937MOL0     H29242   2.771   2.882   9.808  1.7748  0.8315  0.0161
  937MOL0     H29243   2.992   2.801   9.788 -0.0429  0.8810 -0.9010
  937MOL0     H29244   2.872   2.688   9.731 -1.1407  1.1201  2.8382
  937MOL0     H29245   2.950   2.744   9.504  2.5262 -1.0806 -1.4701
  937MOL0     H29246   3.053   2.876   9.564  1.7889 -0.1233  1.5227
  937MOL0     H29247   3.056   2.590   9.656 -0.0549  0.3912  0.2739
  937MOL0     H29248   3.176   2.700   9.707 -2.9174 -1.0919  2.6782
  937MOL0     H29249   3.139   2.566   9.441  0.7281  0.0400 -0.4976
  937MOL0     H29250   3.250   2.698   9.451  3.2814 -1.6646 -0.4061
  937MOL0     H29251   3.261   2.416   9.582  0.8480 -0.0126  0.8308
  937MOL0     H29252   3.347   2.552   9.643 -0.0290  0.2426 -0.4554
  937MOL0     H29253   3.489   2.550   9.448  1.4682 -1.7801  0.8477
  937MOL0     H29254   3.471   2.390   9.495 -0.3684 -1.5298 -3.1023
  937MOL0     H29255   3.162   2.351   9.336 -0.9981  2.6590  0.9500
  937MOL0     H29256   3.117   2.210   9.113 -2.4877  1.6509 -2.1289
  937MOL0     H29257   3.268   2.158   9.035  1.9444  0.7590  0.2874
  937MOL0     H29258   3.117   2.431   8.991 -0.8866 -0.1273 -1.4827
  937MOL0     H29259   3.258   2.372   8.903 -0.6222 -0.3330  0.2694
  937MOL0     H29260   3.158   2.263   8.760  0.9004  0.2152 -0.1903
  937MOL0     H29261   3.067   2.171   8.889 -1.4942  0.6227  0.7890
  937MOL0     H29262   2.902   2.253   8.746  2.5959 -1.6401  0.1294
  937MOL0     H29263   2.882   2.325   8.903  1.7723  3.3638  1.8109
  937MOL0     H29264   3.123   2.636   8.682  0.3587 -0.8124  1.1076
  937MOL0     H29265   3.209   2.752   8.360  0.7369 -5.6314 -4.0017
  937MOL0     H29266   3.339   2.645   8.437  0.9978  0.6005  1.2007
  937MOL0     H29267   3.255   2.765   8.526  1.9906  0.1522 -1.5925
  937MOL0     H29268   2.998   2.222   8.015  0.9098  0.7409  2.2258
  937MOL0     H29269   3.056   2.152   7.781 -2.9123  1.6626 -0.5616
  937MOL0     H29270   3.317   2.414   7.555  1.7315 -1.1938 -0.5005
  937MOL0     H29271   3.316   2.285   7.445  1.0950  0.3014  0.8807
  937MOL0     H29272   3.064   2.436   7.566 -0.8220 -2.6536  1.1281
  937MOL0     H29273   3.100   2.426   7.386  0.2190  2.9848  1.2015
  937MOL0     H29274   3.012   2.199   7.567  0.0274  1.7332  0.8974
  937MOL0     H29275   3.060   2.178   7.406 -1.3873 -2.7016  1.3576
  937MOL0     H29276   2.871   2.365   7.339 -3.5907  0.3279  0.5869
  937MOL0     H29277   2.827   2.356   7.494 -2.1171 -1.5506 -0.5358
  937MOL0     H29278   2.854   2.108   7.310  3.9561  2.6702  0.5089
  937MOL0     H29279   2.759   2.112   7.465 -2.5568 -1.7529 -1.7423
  937MOL0     H29280   2.688   2.306   7.234 -1.2672 -1.0568 -2.7835
  937MOL0     H29281   2.596   2.243   7.380  0.0564 -2.6077  1.2390
  937MOL0     H29282   2.626   2.006   7.241 -3.2514 -1.4615  0.2119
  937MOL0     H29283   2.662   2.105   7.100 -1.1691  1.9000 -0.6205
  937MOL0     H29284   2.415   2.097   7.278  0.3523  1.9865  0.2604
  937MOL0     H29285   2.440   2.044   7.101  0.5149  2.8159 -3.4053
  937MOL0     H29286   3.358   2.453   7.767  0.6154 -0.1343  0.1235
  937MOL0     H29287   3.286   2.545   7.964  3.7914 -1.3478 -0.4240
  937MOL0     H29288   2.962   2.336   8.336 -0.7097 -0.4255  0.9228
  937MOL0     H29289   2.868   2.319   8.552 -0.1063  0.9172  0.2335
  937MOL0     H29290   2.399   2.911   9.632  0.8846 -0.3375  1.1665
  937MOL0     H29291   2.219   2.875   9.477  1.8145  1.7994 -0.7671
  937MOL0     H29292   2.071   2.464   9.180 -1.7871 -0.7793  0.8907
  937MOL0     H29293   1.889   2.363   9.009  1.3835  0.7068 -2.9171
  937MOL0     H29294   1.599   2.627   8.854  0.2973 -0.0801  0.1970
  937MOL0     H29295   1.686   2.635   8.710 -0.9431 -0.4521 -0.3215
  937MOL0     H29296   1.517   2.387   8.756  0.1926 -1.4496 -0.1501
  937MOL0     H29297   1.616   2.423   8.619 -0.3043 -2.1199  2.0313
  937MOL0     H29298   1.380   2.603   8.723 -1.1822  1.1323 -0.9174
  937MOL0     H29299   1.456   2.631   8.567 -1.4697 -0.3967  0.6544
  937MOL0     H29300   1.234   2.515   8.587 -0.3259 -0.2097  3.8505
  937MOL0     H29301   1.314   2.367   8.641 -0.0594  0.0566 -0.3901
  937MOL0     H29302   1.436   2.331   8.238  1.6432 -5.5349  1.6898
  937MOL0     H29303   1.788   2.745   8.893  2.0323  0.5802 -1.5624
  937MOL0     H29304   1.993   2.961   9.033  2.0690 -2.0233  0.3479
  937MOL0     H29305   1.828   2.942   9.019  1.0053  2.4705  0.6246
  937MOL0     H29306   1.890   2.909   9.179  0.0029 -1.2059  0.9271
  938MOL0     O29307   8.178   2.827   2.800  0.9249 -0.0827 -0.2969
  938MOL0     C29308   8.145   2.824   2.680  0.3844 -0.2682  0.9618
  938MOL0     O29309   8.032   2.761   2.629  0.1356 -0.4515 -0.4172
  938MOL0     C29310   7.979   2.656   2.697 -0.9405  0.1294  0.8331
  938MOL0     C29311   7.907   2.662   2.821 -0.4248 -0.1126  0.1075
  938MOL0     C29312   7.846   2.547   2.868  0.0446 -0.8767 -0.6682
  938MOL0     C29313   7.835   2.421   2.805 -0.5434  0.0175 -0.1227
  938MOL0     O29314   7.781   2.310   2.854  0.4828  0.2619 -0.6458
  938MOL0     C29315   7.633   2.305   2.868 -0.0446 -0.2974 -0.8175
  938MOL0     C29316   7.576   2.249   2.735 -1.4739  0.2384  0.1165
  938MOL0     C29317   7.449   2.173   2.753 -0.6555  0.4761 -0.2952
  938MOL0     C29318   7.472   2.034   2.805 -0.6620  1.1401  0.1057
  938MOL0     C29319   7.341   1.976   2.862  1.2849  0.1299  0.0278
  938MOL0     C29320   7.378   1.831   2.907  0.4520 -0.8007 -0.4841
  938MOL0     C29321   7.258   1.767   2.971  0.1777  0.4272  0.1646
  938MOL0     C29322   7.290   1.624   3.016 -1.4033 -0.3642 -0.3837
  938MOL0     N29323   7.174   1.573   3.080 -0.3792  0.9268 -1.3352
  938MOL0     C29324   7.076   1.489   3.021 -0.8816 -0.1980  0.6488
  938MOL0     C29325   6.989   1.465   3.125 -0.2931  0.0246  0.5935
  938MOL0     C29326   6.869   1.389   3.100  0.5818  0.0637 -0.7880
  938MOL0     C29327   6.919   1.243   3.077  0.1191  0.2787  0.2353
  938MOL0     C29328   6.789   1.158   3.043  0.1734 -0.6418  0.5132
  938MOL0     C29329   6.811   1.006   3.061 -0.3053 -0.9688  0.9298
  938MOL0     O29330   6.889   0.957   2.945 -0.3139 -0.4752 -1.0418
  938MOL0     C29331   6.836   0.843   2.893 -0.4695 -0.6916 -0.0428
  938MOL0     C29332   6.766   0.847   2.776 -0.6265 -0.3787  0.7924
  938MOL0     C29333   6.709   0.728   2.730 -0.6665 -0.3547 -0.1892
  938MOL0     C29334   6.637   0.748   2.595 -0.0298 -0.5305  0.2140
  938MOL0     C29335   6.738   0.603   2.794 -0.5339  0.5951 -0.0941
  938MOL0     C29336   6.707   0.473   2.741 -0.0252  0.7427  0.3864
  938MOL0     O29337   6.727   0.367   2.822  0.0854  0.3587 -0.1634
  938MOL0     C29338   6.723   0.230   2.782  0.1248 -0.7524  0.0005
  938MOL0     C29339   6.765   0.178   2.653  0.9499  0.7851  0.5898
  938MOL0     C29340   6.780   0.038   2.632 -0.2251 -0.5216  0.7594
  938MOL0     C29341   6.745  -0.047   2.736 -0.5296 -0.2643 -0.3348
  938MOL0     O29342   6.749  -0.175   2.717 -0.5901 -0.1452 -0.2605
  938MOL0     C29343   6.839  -0.261   2.795  0.6907 -0.0843 -0.0945
  938MOL0     C29344   6.815  -0.414   2.779 -0.2717  0.0039  0.9924
  938MOL0     C29345   6.667  -0.447   2.800  0.0943  0.8340  0.1426
  938MOL0     C29346   6.629  -0.572   2.723 -0.0999 -0.4725  0.8738
  938MOL0     C29347   6.697  -0.705   2.759  0.1312 -0.6928 -0.0212
  938MOL0     C29348   6.622  -0.826   2.714 -0.3683  1.2180 -0.3059
  938MOL0     C29349   6.667  -0.949   2.797 -0.1847  0.1270 -0.1513
  938MOL0     C29350   6.575  -1.056   2.759 -0.0278  1.5717 -0.9610
  938MOL0    Cl29351   6.597  -1.215   2.850  0.5241  0.1191 -0.2102
  938MOL0     C29352   6.701  -0.003   2.861  0.5545  0.1155  0.3996
  938MOL0     C29353   6.689   0.137   2.879  0.4685  0.3674 -0.2119
  938MOL0     O29354   6.681   0.462   2.618  0.3964 -0.0832  0.2094
  938MOL0     C29355   6.811   0.598   2.911 -0.1854 -0.4065  0.2887
  938MOL0     C29356   6.849   0.720   2.967  0.1282 -0.1141  0.3283
  938MOL0     N29357   7.024   1.527   3.242 -0.2306  0.0267 -0.2708
  938MOL0     N29358   7.137   1.588   3.214  0.3583  0.0973  0.6815
  938MOL0     C29359   7.908   2.415   2.685 -0.5168 -0.4077  0.6548
  938MOL0     C29360   7.978   2.530   2.632  0.2695 -0.1087  1.0619
  938MOL0     C29361   8.212   2.911   2.575 -0.7813 -0.3338 -0.8851
  938MOL0     C29362   8.138   2.939   2.463  0.0352  0.3594  0.8664
  938MOL0     C29363   8.177   3.039   2.368 -0.3574  0.3094 -0.2026
  938MOL0     C29364   8.302   3.106   2.382  1.0850 -0.7061  0.5236
  938MOL0     O29365   8.321   3.198   2.287  0.3311  0.4411  0.3529
  938MOL0     C29366   8.454   3.261   2.275  0.0066  0.0496 -0.3954
  938MOL0     C29367   8.551   3.163   2.202 -0.2548  0.4587 -0.9148
  938MOL0     C29368   8.689   3.233   2.202  0.2618 -0.7622 -0.3821
  938MOL0     C29369   8.768   3.155   2.093  0.2639 -0.7413 -0.2221
  938MOL0     C29370   8.896   3.221   2.066 -0.0589  0.5731 -0.0279
  938MOL0     C29371   8.994   3.283   2.030 -0.6364  0.0208 -0.2149
  938MOL0     C29372   8.390   3.049   2.482 -0.5105  0.3016  0.0408
  938MOL0     C29373   8.346   2.956   2.582 -0.1910 -0.1922 -0.4223
  938MOL0     C29374   8.433   2.924   2.698 -0.2140  0.1787 -0.4223
  938MOL0     H29375   7.911   2.760   2.867  0.8943 -1.2914  2.7146
  938MOL0     H29376   7.799   2.547   2.967  1.2854 -2.5238 -0.0404
  938MOL0     H29377   7.596   2.404   2.893 -0.5620 -0.1395 -2.1489
  938MOL0     H29378   7.614   2.240   2.955 -2.5239  1.2984 -0.0765
  938MOL0     H29379   7.554   2.341   2.679 -1.6682  0.7093  0.9602
  938MOL0     H29380   7.644   2.177   2.689  0.9401  1.1832  2.0165
  938MOL0     H29381   7.393   2.227   2.831  2.9108  0.3949  2.6155
  938MOL0     H29382   7.396   2.172   2.658 -1.5531  2.5747  0.1373
  938MOL0     H29383   7.515   1.971   2.727 -1.0826  1.0920 -0.0923
  938MOL0     H29384   7.552   2.036   2.880 -1.8553  0.7526  1.4398
  938MOL0     H29385   7.265   1.978   2.783 -0.0892 -1.1692  1.2626
  938MOL0     H29386   7.307   2.032   2.949  0.9101  0.3345 -0.2490
  938MOL0     H29387   7.412   1.772   2.822  2.4233 -0.2519 -0.1285
  938MOL0     H29388   7.457   1.845   2.982 -1.0468 -0.3647  1.0805
  938MOL0     H29389   7.179   1.767   2.896  0.1608 -0.3111  0.1716
  938MOL0     H29390   7.221   1.828   3.054  1.3573 -0.0129  1.0368
  938MOL0     H29391   7.324   1.563   2.931  2.5236  0.5786  0.3320
  938MOL0     H29392   7.368   1.621   3.093 -0.5382 -0.8356 -1.2508
  938MOL0     H29393   7.065   1.461   2.916  1.8367  4.1395 -1.0981
  938MOL0     H29394   6.826   1.424   3.006 -2.8669 -0.3019  0.5332
  938MOL0     H29395   6.802   1.387   3.186  0.7529 -0.4224 -0.6611
  938MOL0     H29396   6.991   1.239   2.995 -0.2245 -1.2444 -0.0114
  938MOL0     H29397   6.972   1.197   3.161 -0.2873 -5.1050 -2.1011
  938MOL0     H29398   6.706   1.189   3.108 -0.2685 -0.9425  0.0951
  938MOL0     H29399   6.767   1.187   2.940 -0.8554 -1.7472  0.3978
  938MOL0     H29400   6.876   0.982   3.146  0.0153 -2.8138  0.2069
  938MOL0     H29401   6.711   0.963   3.077 -0.0204 -3.2136 -2.3774
  938MOL0     H29402   6.757   0.938   2.718  3.1014 -0.7269 -0.5998
  938MOL0     H29403   6.606   0.850   2.573  1.0897  0.1874  1.7274
  938MOL0     H29404   6.553   0.680   2.579 -0.4533  0.2948 -1.2081
  938MOL0     H29405   6.712   0.719   2.520  0.1450  2.6475 -0.9636
  938MOL0     H29406   6.795   0.248   2.575  1.8662 -0.4410 -0.1908
  938MOL0     H29407   6.818   0.001   2.537 -0.8352  2.5163 -0.7984
  938MOL0     H29408   6.943  -0.243   2.765  0.7742 -0.9125 -0.3253
  938MOL0     H29409   6.821  -0.235   2.900 -0.7832 -2.4662  0.3296
  938MOL0     H29410   6.839  -0.440   2.676  1.5916  2.9258  0.5718
  938MOL0     H29411   6.870  -0.473   2.853 -0.7320 -0.8390  0.6781
  938MOL0     H29412   6.616  -0.356   2.768  2.8133  3.9798  3.8459
  938MOL0     H29413   6.636  -0.468   2.903  0.0941 -1.7267 -0.3049
  938MOL0     H29414   6.648  -0.551   2.617  0.2516 -2.2509  0.5620
  938MOL0     H29415   6.522  -0.595   2.726  0.4623 -3.3460  1.8933
  938MOL0     H29416   6.801  -0.705   2.727  0.4441 -2.1768  0.9194
  938MOL0     H29417   6.700  -0.713   2.868  1.7043 -4.2319 -0.1845
  938MOL0     H29418   6.647  -0.833   2.608  0.8371  1.8544 -0.0837
  938MOL0     H29419   6.515  -0.804   2.722 -0.3605  1.8855 -1.7025
  938MOL0     H29420   6.665  -0.928   2.904  0.3039 -0.7997  0.0493
  938MOL0     H29421   6.772  -0.967   2.772 -0.4873  0.7896 -2.0409
  938MOL0     H29422   6.594  -1.072   2.653 -0.1614  0.1043 -0.7870
  938MOL0     H29423   6.471  -1.022   2.769 -1.9530 -2.2920 -4.4321
  938MOL0     H29424   6.673  -0.078   2.933  3.8241 -0.2194  1.4655
  938MOL0     H29425   6.659   0.165   2.979 -3.2719  1.1825 -1.3793
  938MOL0     H29426   6.839   0.509   2.968 -0.0377  0.1895  1.1805
  938MOL0     H29427   6.907   0.732   3.058 -2.4261  0.8139  1.9369
  938MOL0     H29428   7.921   2.323   2.629  3.7560 -0.2288  0.9832
  938MOL0     H29429   8.035   2.522   2.539  0.1830  0.0246  0.9966
  938MOL0     H29430   8.034   2.908   2.460 -0.7486  2.1360  4.3369
  938MOL0     H29431   8.105   3.072   2.294  1.1264  0.1113 -1.7911
  938MOL0     H29432   8.451   3.344   2.205  0.5885 -0.0989 -0.6011
  938MOL0     H29433   8.491   3.289   2.374 -0.3102  2.6336 -0.9316
  938MOL0     H29434   8.513   3.137   2.103  1.4661  0.4277 -1.6003
  938MOL0     H29435   8.554   3.060   2.239  0.2264 -0.6263 -3.7323
  938MOL0     H29436   8.678   3.335   2.162  3.8853 -2.1169 -6.0823
  938MOL0     H29437   8.737   3.232   2.300  2.1656 -3.0354 -1.2475
  938MOL0     H29438   8.711   3.153   2.000 -2.4543 -3.1208  1.3250
  938MOL0     H29439   8.791   3.052   2.123 -0.4499 -0.8081  0.1075
  938MOL0     H29440   9.083   3.337   2.004  1.1906 -3.5109 -2.0717
  938MOL0     H29441   8.496   3.072   2.486 -0.8797  2.0119  0.7535
  938MOL0     H29442   8.476   2.823   2.699  4.0960  1.8305  1.4514
  938MOL0     H29443   8.515   2.995   2.702 -0.1028 -0.0154  1.7269
  938MOL0     H29444   8.381   2.937   2.793  1.2638  0.2905  0.3882
  939MOL0     O29445   7.044   8.081   4.014 -0.7300 -0.3663 -0.0111
  939MOL0     C29446   7.141   8.009   4.048 -0.4357  0.3407  0.5171
  939MOL0     O29447   7.272   8.056   4.027 -0.1535  0.5320  0.0010
  939MOL0     C29448   7.283   8.183   3.986 -0.3470 -0.4872 -0.2748
  939MOL0     C29449   7.289   8.224   3.848 -0.4776 -0.3362  0.7503
  939MOL0     C29450   7.307   8.356   3.811 -0.2487 -0.0237 -0.4570
  939MOL0     C29451   7.328   8.456   3.904  0.1387 -0.7661 -1.1718
  939MOL0     O29452   7.370   8.583   3.862  0.8594 -0.2222  0.8409
  939MOL0     C29453   7.420   8.673   3.956 -0.8083 -1.0216  0.7974
  939MOL0     C29454   7.487   8.787   3.877 -0.1511  0.3780  0.2470
  939MOL0     C29455   7.627   8.764   3.829  0.3761  0.7799  0.2768
  939MOL0     C29456   7.692   8.879   3.748 -0.0426  0.4526 -0.4735
  939MOL0     C29457   7.822   8.826   3.683 -0.5516  0.2835 -0.3593
  939MOL0     C29458   7.918   8.943   3.641  0.5660  0.7342 -1.0760
  939MOL0     C29459   7.844   9.042   3.553 -0.1555  0.1416 -0.3265
  939MOL0     C29460   7.953   9.118   3.475  1.3048  0.1023 -0.8771
  939MOL0     N29461   8.034   9.198   3.573  0.2454  0.4737  0.8819
  939MOL0     C29462   7.998   9.302   3.647 -0.9604 -0.5569  0.3682
  939MOL0     C29463   8.087   9.311   3.744  0.1364 -0.1079  0.0344
  939MOL0     C29464   8.097   9.430   3.836 -0.2009 -0.1127  0.7725
  939MOL0     C29465   8.233   9.490   3.821  0.4778  0.2435  0.1915
  939MOL0     C29466   8.332   9.450   3.929 -0.2464  0.2125 -0.1804
  939MOL0     C29467   8.304   9.511   4.069  0.0561  0.4108 -0.0331
  939MOL0     O29468   8.417   9.579   4.128 -0.1456 -0.1033  0.5374
  939MOL0     C29469   8.521   9.498   4.161 -0.1448  0.7782 -0.5879
  939MOL0     C29470   8.636   9.514   4.101 -0.1183 -0.0929  0.3111
  939MOL0     C29471   8.741   9.427   4.122  0.3693 -0.0132  0.3749
  939MOL0     C29472   8.864   9.458   4.047 -1.2100 -0.8842  0.2496
  939MOL0     C29473   8.733   9.328   4.219  1.3457 -0.3582 -0.4447
  939MOL0     C29474   8.831   9.227   4.251 -0.2470  0.8111 -0.0383
  939MOL0     O29475   8.924   9.187   4.160  0.7068 -0.9403  0.2971
  939MOL0     C29476   9.014   9.087   4.197  0.9122  0.4066  0.0826
  939MOL0     C29477   9.137   9.125   4.272 -0.2915  0.2670 -0.0380
  939MOL0     C29478   9.233   9.029   4.297  0.4801  0.1973 -0.1037
  939MOL0     C29479   9.208   8.897   4.264 -0.0837 -0.4463  0.8687
  939MOL0     O29480   9.311   8.807   4.258  0.1415 -0.1559  0.1137
  939MOL0     C29481   9.387   8.783   4.143 -0.2573  0.5042  0.8772
  939MOL0     C29482   9.323   8.714   4.030 -0.0955 -0.6582  0.0253
  939MOL0     C29483   9.327   8.565   4.056  1.0641 -0.6024  0.8803
  939MOL0     C29484   9.264   8.491   3.945 -0.0840 -0.9359  1.1282
  939MOL0     C29485   9.240   8.346   3.991 -0.8091 -0.1784  1.1035
  939MOL0     C29486   9.204   8.257   3.872  0.1204 -0.0216  0.2441
  939MOL0     C29487   9.071   8.300   3.807  0.3341 -0.3066  0.1226
  939MOL0     C29488   9.038   8.207   3.688 -0.0317  0.4044 -0.4683
  939MOL0    Cl29489   8.954   8.052   3.729  0.4817  0.1768  0.1202
  939MOL0     C29490   9.085   8.860   4.211  0.6097  0.6190 -0.6321
  939MOL0     C29491   8.990   8.952   4.168  0.8350 -0.4239  0.4472
  939MOL0     O29492   8.820   9.177   4.361 -0.2214 -0.6895 -0.2917
  939MOL0     C29493   8.611   9.318   4.288  0.6976 -0.6622 -0.8297
  939MOL0     C29494   8.506   9.412   4.266  0.2594 -0.8567  0.4303
  939MOL0     N29495   8.174   9.212   3.723  0.1096 -0.1974 -0.8982
  939MOL0     N29496   8.141   9.139   3.627  0.1838  0.1160  0.4212
  939MOL0     C29497   7.329   8.415   4.042  0.0748  0.3875  0.4042
  939MOL0     C29498   7.308   8.283   4.078 -0.7478 -0.1662 -0.1411
  939MOL0     C29499   7.118   7.864   4.100 -0.5827 -0.1033  0.5067
  939MOL0     C29500   7.224   7.773   4.097  0.0439 -1.0758 -0.0820
  939MOL0     C29501   7.204   7.646   4.147  0.0531  0.0582 -0.2848
  939MOL0     C29502   7.080   7.599   4.188  0.4637  0.8145  0.6868
  939MOL0     O29503   7.067   7.465   4.212 -0.6536 -0.0456 -0.4718
  939MOL0     C29504   6.930   7.422   4.237  0.1324  0.7822  0.7688
  939MOL0     C29505   6.937   7.274   4.273  0.9409 -0.5571 -0.3429
  939MOL0     C29506   6.800   7.192   4.305 -0.2164  0.5615 -0.1792
  939MOL0     C29507   6.671   7.272   4.310  0.4532 -0.3517 -1.0183
  939MOL0     C29508   6.555   7.186   4.353 -1.6337 -0.7101 -0.3966
  939MOL0     C29509   6.461   7.120   4.381 -0.0362 -0.0112 -0.0684
  939MOL0     C29510   6.977   7.685   4.193  0.0581 -0.4938 -0.5844
  939MOL0     C29511   6.993   7.818   4.157  0.2364  0.0020  0.3505
  939MOL0     C29512   6.875   7.915   4.163 -0.0975 -0.4154  0.4727
  939MOL0     H29513   7.292   8.153   3.766  1.9682 -1.8080  1.9862
  939MOL0     H29514   7.316   8.385   3.706  2.4811 -0.0429 -0.3002
  939MOL0     H29515   7.496   8.628   4.020  2.5201 -0.1839 -2.2233
  939MOL0     H29516   7.339   8.718   4.013 -3.6189 -1.5343 -2.4619
  939MOL0     H29517   7.425   8.825   3.795  0.7320  0.7011 -0.2875
  939MOL0     H29518   7.486   8.868   3.951 -2.0375  3.2219 -2.6179
  939MOL0     H29519   7.687   8.723   3.911 -0.4585  2.1354  1.6266
  939MOL0     H29520   7.618   8.688   3.751  0.3979  2.0521 -1.0045
  939MOL0     H29521   7.629   8.931   3.676  2.4207  2.8582 -1.0833
  939MOL0     H29522   7.723   8.952   3.824 -0.1623  1.3026 -1.2329
  939MOL0     H29523   7.803   8.756   3.601  3.1356 -1.7100  0.2775
  939MOL0     H29524   7.870   8.772   3.765 -1.5335 -0.2829 -0.1363
  939MOL0     H29525   7.956   8.984   3.734  1.4625 -1.7269 -0.2602
  939MOL0     H29526   8.003   8.898   3.588 -0.0058 -2.0485  0.1941
  939MOL0     H29527   7.781   9.114   3.604  2.9763  1.7803  1.4931
  939MOL0     H29528   7.770   8.991   3.491 -1.5371 -0.0403  1.4036
  939MOL0     H29529   8.014   9.046   3.420  2.6533  0.5807 -0.0497
  939MOL0     H29530   7.901   9.193   3.414  0.7966 -0.6139 -1.3303
  939MOL0     H29531   7.921   9.368   3.609  0.1075 -1.0263 -2.9140
  939MOL0     H29532   8.078   9.393   3.937  2.2401 -0.4400  1.1612
  939MOL0     H29533   8.011   9.494   3.812 -0.8970 -1.4007 -0.2790
  939MOL0     H29534   8.265   9.480   3.717 -0.7391  4.1458 -0.7185
  939MOL0     H29535   8.227   9.599   3.823 -0.2238  0.2938 -1.9769
  939MOL0     H29536   8.340   9.341   3.937  1.9421  0.4332  2.5184
  939MOL0     H29537   8.431   9.483   3.894 -0.6375 -0.7607 -2.3843
  939MOL0     H29538   8.221   9.581   4.053 -0.2958 -0.1337 -0.6911
  939MOL0     H29539   8.260   9.434   4.132  2.4025  1.0391  2.5334
  939MOL0     H29540   8.654   9.596   4.033 -1.3986 -0.5422 -0.6017
  939MOL0     H29541   8.937   9.378   4.031 -0.5347 -0.3800  0.7129
  939MOL0     H29542   8.912   9.547   4.089 -1.6765  0.1776 -1.4012
  939MOL0     H29543   8.828   9.487   3.948  2.4993 -2.6269 -1.8180
  939MOL0     H29544   9.154   9.226   4.307  1.0400 -0.9250  3.1954
  939MOL0     H29545   9.332   9.053   4.335  1.7270 -1.1577 -2.3236
  939MOL0     H29546   9.427   8.878   4.105  0.2320  0.3892  1.0973
  939MOL0     H29547   9.479   8.730   4.166  0.0531 -0.6367 -2.4101
  939MOL0     H29548   9.225   8.760   4.017  1.4722  2.8185 -0.4653
  939MOL0     H29549   9.381   8.743   3.942  1.0437  1.0334  1.2650
  939MOL0     H29550   9.264   8.543   4.144 -1.9750 -1.4120 -1.3147
  939MOL0     H29551   9.430   8.530   4.057  1.4628  0.4120 -1.0767
  939MOL0     H29552   9.329   8.500   3.857 -0.5898  0.1301  0.8446
  939MOL0     H29553   9.167   8.531   3.915 -0.2733 -1.9208  0.3860
  939MOL0     H29554   9.325   8.298   4.041  0.2577  0.7837  0.2691
  939MOL0     H29555   9.158   8.358   4.062 -0.8160 -0.0896  1.0803
  939MOL0     H29556   9.203   8.153   3.908  0.5862  0.4304  1.6242
  939MOL0     H29557   9.277   8.257   3.790  1.5547 -0.8524  1.4631
  939MOL0     H29558   9.087   8.397   3.758 -2.5372  1.2266  1.9707
  939MOL0     H29559   8.988   8.308   3.878  0.2171 -1.9505  0.2128
  939MOL0     H29560   9.127   8.174   3.634 -0.4944 -2.2416  0.2310
  939MOL0     H29561   8.974   8.267   3.622  0.8305  3.5781  1.3250
  939MOL0     H29562   9.084   8.758   4.176 -3.0775  0.9792 -2.0610
  939MOL0     H29563   8.894   8.932   4.121  1.8192 -0.6603 -1.5632
  939MOL0     H29564   8.590   9.241   4.362 -2.5437  2.2346  1.6002
  939MOL0     H29565   8.416   9.428   4.324 -2.2074  2.1947 -3.6650
  939MOL0     H29566   7.354   8.481   4.125 -3.2922  2.1563  0.1746
  939MOL0     H29567   7.310   8.254   4.183 -1.8073 -0.0218 -0.0680
  939MOL0     H29568   7.323   7.795   4.059  0.7924 -1.4605  1.5283
  939MOL0     H29569   7.287   7.576   4.155 -0.0883 -0.1422 -0.5404
  939MOL0     H29570   6.874   7.481   4.310  0.0032  1.8441 -0.1664
  939MOL0     H29571   6.876   7.416   4.142  3.2966  2.1461 -1.2543
  939MOL0     H29572   7.010   7.266   4.355  0.7542 -1.1482 -0.2284
  939MOL0     H29573   6.976   7.218   4.187 -0.2235 -0.1809 -1.1273
  939MOL0     H29574   6.785   7.105   4.241 -0.6779  1.1020 -0.8202
  939MOL0     H29575   6.810   7.147   4.404 -1.5306  0.4740 -0.0670
  939MOL0     H29576   6.653   7.311   4.209  2.3045 -0.6513 -1.4955
  939MOL0     H29577   6.673   7.352   4.385 -1.4891  0.6744 -1.9827
  939MOL0     H29578   6.376   7.063   4.410 -0.0792 -0.1378 -0.4329
  939MOL0     H29579   6.876   7.661   4.223 -0.4280  2.9704  1.0847
  939MOL0     H29580   6.834   7.936   4.063  1.8351 -2.6564 -0.8861
  939MOL0     H29581   6.797   7.880   4.232  2.8105 -2.0414  3.1769
  939MOL0     H29582   6.906   8.011   4.206  1.5860 -2.4919  4.3476
  940MOL0     O29583   2.445   8.487   6.211  0.1212 -0.3319 -0.8113
  940MOL0     C29584   2.395   8.596   6.224  0.1281  0.9174  0.0380
  940MOL0     O29585   2.446   8.719   6.192 -0.1599 -0.0606 -0.6737
  940MOL0     C29586   2.582   8.727   6.168  0.3987 -0.2688  0.0220
  940MOL0     C29587   2.627   8.840   6.096 -0.0744 -0.1905  0.0374
  940MOL0     C29588   2.765   8.874   6.075  0.0222  0.3389  1.2378
  940MOL0     C29589   2.866   8.794   6.132  0.1037  0.2915  0.3551
  940MOL0     O29590   2.990   8.845   6.109 -0.2606  0.6309 -0.9202
  940MOL0     C29591   3.108   8.761   6.114  0.3585  1.0054 -0.1818
  940MOL0     C29592   3.240   8.830   6.095  0.4849 -0.4151  0.5239
  940MOL0     C29593   3.262   8.923   6.207 -0.8738 -1.0383 -0.3799
  940MOL0     C29594   3.322   8.843   6.336  0.2830 -0.4210  0.9803
  940MOL0     C29595   3.381   8.940   6.434 -0.2142  0.9301  0.8902
  940MOL0     C29596   3.429   8.874   6.562 -0.2659 -0.2328  0.3483
  940MOL0     C29597   3.574   8.834   6.555  0.0281 -0.0593 -0.6613
  940MOL0     C29598   3.609   8.743   6.677 -0.1618  0.0763  0.5397
  940MOL0     N29599   3.746   8.690   6.670 -0.5761 -0.3477  0.6477
  940MOL0     C29600   3.801   8.584   6.599  0.3138 -0.3157  0.0364
  940MOL0     C29601   3.938   8.586   6.635  0.8323 -0.8058 -1.0238
  940MOL0     C29602   4.042   8.501   6.570 -0.1108 -0.2630  0.1150
  940MOL0     C29603   4.173   8.565   6.516  0.2470 -0.0432 -0.0698
  940MOL0     C29604   4.291   8.555   6.622  0.8634  0.0827 -0.2393
  940MOL0     C29605   4.430   8.596   6.571  0.2139  1.6875  0.1909
  940MOL0     O29606   4.475   8.486   6.488  0.7659  0.1088 -0.8823
  940MOL0     C29607   4.598   8.506   6.428  0.4992 -1.4865  0.3768
  940MOL0     C29608   4.621   8.425   6.320  0.2714 -0.0476 -0.1992
  940MOL0     C29609   4.739   8.438   6.242 -1.0183 -1.3159 -0.0402
  940MOL0     C29610   4.753   8.345   6.122 -0.3322  0.2393  0.2262
  940MOL0     C29611   4.837   8.538   6.286 -0.5804  0.6651  0.0746
  940MOL0     C29612   4.976   8.525   6.237 -0.4716 -0.5424 -0.7244
  940MOL0     O29613   5.042   8.644   6.238 -0.2194  0.6505 -0.7852
  940MOL0     C29614   5.160   8.656   6.175 -0.0271  0.3650 -0.7527
  940MOL0     C29615   5.274   8.589   6.219 -0.2340 -0.1558 -0.3839
  940MOL0     C29616   5.388   8.574   6.142 -0.0884  0.6361 -0.2721
  940MOL0     C29617   5.401   8.647   6.027  0.1299 -0.0503 -0.5496
  940MOL0     O29618   5.528   8.654   5.963  0.2498 -0.4730  0.1592
  940MOL0     C29619   5.637   8.565   6.003  0.2344 -0.0901 -0.6533
  940MOL0     C29620   5.746   8.585   5.895 -0.1811  0.1577 -0.6939
  940MOL0     C29621   5.880   8.503   5.933  0.7575 -0.5044 -0.6903
  940MOL0     C29622   5.990   8.548   5.832  0.2728 -0.3917 -0.0234
  940MOL0     C29623   6.089   8.431   5.827 -0.6888  0.6956  0.8628
  940MOL0     C29624   6.219   8.466   5.758 -0.1303 -0.3634 -0.2249
  940MOL0     C29625   6.315   8.345   5.789  0.2727 -0.2045 -0.2651
  940MOL0     C29626   6.451   8.364   5.708 -0.9342  0.9634  0.1778
  940MOL0    Cl29627   6.547   8.221   5.723  0.3418  0.3065 -0.0341
  940MOL0     C29628   5.289   8.723   5.980  0.3829 -0.0254 -0.2551
  940MOL0     C29629   5.166   8.713   6.054 -0.4288 -0.5367  0.3864
  940MOL0     O29630   5.022   8.418   6.200 -0.4280  0.5064 -0.2566
  940MOL0     C29631   4.813   8.612   6.400 -0.2005  0.1186  0.0558
  940MOL0     C29632   4.689   8.604   6.466 -0.4023  0.4919 -0.6201
  940MOL0     N29633   3.959   8.698   6.717 -0.4215 -0.4492 -0.2424
  940MOL0     N29634   3.843   8.745   6.741  0.3088 -0.0636  0.3975
  940MOL0     C29635   2.829   8.676   6.201  0.0165 -0.2502  0.7555
  940MOL0     C29636   2.693   8.641   6.220 -0.0834 -0.0196 -0.7972
  940MOL0     C29637   2.256   8.585   6.264 -0.4318 -0.3714 -0.1383
  940MOL0     C29638   2.155   8.643   6.172  0.3929 -0.1018  0.0570
  940MOL0     C29639   2.022   8.654   6.192 -0.0742  0.0992 -0.1627
  940MOL0     C29640   1.962   8.586   6.300  0.4985 -0.7435 -1.5315
  940MOL0     O29641   1.828   8.561   6.302 -0.3096 -0.3512  0.3374
  940MOL0     C29642   1.761   8.631   6.408 -0.0969  0.7240 -0.3072
  940MOL0     C29643   1.627   8.670   6.357 -0.2746 -0.2666  0.8475
  940MOL0     C29644   1.609   8.774   6.241 -0.3617  0.1673 -0.3379
  940MOL0     C29645   1.636   8.917   6.306 -0.0447  0.5181  1.1529
  940MOL0     C29646   1.523   8.952   6.383  0.3108 -0.1752 -0.0656
  940MOL0     C29647   1.444   9.012   6.447  0.0739  0.6574 -0.5764
  940MOL0     C29648   2.054   8.509   6.387  0.3703 -0.0604  0.8344
  940MOL0     C29649   2.192   8.515   6.374 -0.6992  0.6501  0.7853
  940MOL0     C29650   2.278   8.454   6.478  0.0814  0.5891  0.8885
  940MOL0     H29651   2.563   8.919   6.057 -0.4618 -0.1824  0.6855
  940MOL0     H29652   2.802   8.956   6.015  0.3509  0.7031  1.9183
  940MOL0     H29653   3.101   8.683   6.037 -2.5050 -0.1626  1.1011
  940MOL0     H29654   3.094   8.702   6.206  0.8173  0.5013 -0.4316
  940MOL0     H29655   3.327   8.763   6.085  2.4128  1.9988  0.2760
  940MOL0     H29656   3.248   8.884   6.001  2.3217 -0.1065  0.8226
  940MOL0     H29657   3.340   8.993   6.176 -1.6950  0.2346  0.3517
  940MOL0     H29658   3.175   8.981   6.238 -2.1102 -2.2109 -1.5212
  940MOL0     H29659   3.239   8.783   6.375 -1.6597  1.0975 -0.5978
  940MOL0     H29660   3.405   8.779   6.303 -0.6822 -2.0782  1.6449
  940MOL0     H29661   3.298   9.004   6.467 -0.7158 -0.8253  3.3586
  940MOL0     H29662   3.462   9.003   6.399  3.0104 -0.3270  5.2487
  940MOL0     H29663   3.419   8.955   6.634 -0.7982  0.7905 -0.8398
  940MOL0     H29664   3.370   8.787   6.594 -1.3322  0.7899  1.2456
  940MOL0     H29665   3.626   8.930   6.563  0.1702 -0.2160  0.4753
  940MOL0     H29666   3.595   8.790   6.457 -0.3946  0.4805 -0.9970
  940MOL0     H29667   3.596   8.807   6.765 -1.2522 -1.0628  1.2460
  940MOL0     H29668   3.538   8.660   6.681 -1.8446  1.4883  1.7168
  940MOL0     H29669   3.750   8.515   6.532  0.9586  1.0261 -1.9165
  940MOL0     H29670   4.003   8.464   6.475  1.9503  0.4838 -1.0912
  940MOL0     H29671   4.063   8.423   6.644  0.0768 -0.3833 -0.0624
  940MOL0     H29672   4.210   8.519   6.424 -0.8617  1.0261 -1.0755
  940MOL0     H29673   4.156   8.672   6.505  1.6860  0.0206 -2.1781
  940MOL0     H29674   4.267   8.626   6.701  0.9098  1.0467 -1.0740
  940MOL0     H29675   4.311   8.452   6.653  0.6090  0.5590  1.6600
  940MOL0     H29676   4.428   8.693   6.521 -1.4465  1.2389 -0.6900
  940MOL0     H29677   4.495   8.595   6.659  0.6592  0.1185 -0.1258
  940MOL0     H29678   4.543   8.354   6.295 -0.0313  0.6607 -1.3646
  940MOL0     H29679   4.659   8.299   6.090 -0.2737 -0.5698  1.1834
  940MOL0     H29680   4.829   8.272   6.150 -0.1876  0.7551  1.2318
  940MOL0     H29681   4.785   8.403   6.035 -0.6309  1.1643  0.7217
  940MOL0     H29682   5.271   8.547   6.319 -2.7747 -0.1470 -0.3958
  940MOL0     H29683   5.471   8.523   6.191 -0.3637 -1.4381 -1.7975
  940MOL0     H29684   5.670   8.587   6.105 -0.3455 -2.1166  0.0182
  940MOL0     H29685   5.594   8.465   5.993 -3.5936  1.3735 -0.7519
  940MOL0     H29686   5.713   8.544   5.799 -1.3198 -2.0851  0.5723
  940MOL0     H29687   5.763   8.693   5.892 -1.7837  0.4397 -0.2973
  940MOL0     H29688   5.857   8.396   5.927  0.6129 -0.6593  1.6761
  940MOL0     H29689   5.923   8.523   6.031  2.2176 -2.6592 -0.8326
  940MOL0     H29690   6.037   8.640   5.867  0.0258  0.2447 -1.3142
  940MOL0     H29691   5.940   8.559   5.735  0.4798 -0.4013 -0.1322
  940MOL0     H29692   6.100   8.401   5.932 -0.6564 -1.1023  0.3772
  940MOL0     H29693   6.042   8.347   5.775  3.1801 -0.9693 -0.3545
  940MOL0     H29694   6.252   8.561   5.800 -1.7697 -0.7790  2.1736
  940MOL0     H29695   6.201   8.488   5.652 -0.8464 -1.5800 -0.3779
  940MOL0     H29696   6.266   8.252   5.760  0.6968 -0.4230 -0.2764
  940MOL0     H29697   6.336   8.340   5.896 -5.1960 -0.2963  1.0829
  940MOL0     H29698   6.509   8.446   5.751  0.7359  1.4230 -2.6627
  940MOL0     H29699   6.430   8.388   5.603 -2.2144 -0.3672  0.0975
  940MOL0     H29700   5.302   8.786   5.893  1.3435  1.0446  0.6410
  940MOL0     H29701   5.081   8.769   6.016  0.7170  0.4504 -0.8184
  940MOL0     H29702   4.885   8.676   6.450  0.8366  0.7817 -2.1715
  940MOL0     H29703   4.668   8.668   6.551 -0.6867 -1.5655  0.9245
  940MOL0     H29704   2.902   8.610   6.247  1.6567 -1.4132 -3.0833
  940MOL0     H29705   2.652   8.560   6.280  2.1588 -2.0927 -1.8783
  940MOL0     H29706   2.195   8.695   6.086 -1.6695 -2.5909 -2.6232
  940MOL0     H29707   1.952   8.694   6.119 -0.3890  0.4583  0.3354
  940MOL0     H29708   1.753   8.567   6.496  1.6035  0.4244 -0.3382
  940MOL0     H29709   1.825   8.712   6.445 -1.7104  1.1517  1.6642
  940MOL0     H29710   1.577   8.708   6.447  0.0224  4.3150 -0.6423
  940MOL0     H29711   1.588   8.574   6.322 -3.7590  1.8391 -1.7312
  940MOL0     H29712   1.688   8.764   6.166  0.6204 -1.0683  0.8190
  940MOL0     H29713   1.514   8.757   6.189 -0.4004 -2.7018  0.5124
  940MOL0     H29714   1.659   8.989   6.227 -1.5981 -1.6335 -1.4093
  940MOL0     H29715   1.716   8.912   6.381  0.4693 -0.1358  0.5772
  940MOL0     H29716   1.380   9.075   6.505  0.5169  0.9755 -0.4226
  940MOL0     H29717   2.015   8.452   6.470 -0.1820 -1.3388 -0.2800
  940MOL0     H29718   2.373   8.420   6.435 -0.3139  1.7537 -1.0378
  940MOL0     H29719   2.313   8.521   6.557  2.0812 -0.8164  1.2533
  940MOL0     H29720   2.226   8.369   6.521  0.7889  0.7798  2.1727
  941MOL0     O29721   3.495   6.338   2.116  0.0150  0.5856 -0.3239
  941MOL0     C29722   3.485   6.222   2.154  0.5871 -0.2952  0.2937
  941MOL0     O29723   3.585   6.150   2.213  0.1647  0.1279  0.4639
  941MOL0     C29724   3.703   6.210   2.248 -0.2050  0.7289  0.2795
  941MOL0     C29725   3.795   6.226   2.145 -0.4732 -0.0242 -0.3367
  941MOL0     C29726   3.906   6.311   2.173 -0.2264  0.2570 -0.3062
  941MOL0     C29727   3.937   6.353   2.304 -0.4380  0.1536 -0.5924
  941MOL0     O29728   4.054   6.430   2.325 -0.0009 -0.8185  0.2232
  941MOL0     C29729   4.044   6.560   2.393 -0.5789 -0.3491 -0.0175
  941MOL0     C29730   4.192   6.607   2.434  0.4456  0.1873  0.2341
  941MOL0     C29731   4.182   6.754   2.470 -0.0170  0.3378 -1.3292
  941MOL0     C29732   4.293   6.835   2.407 -0.0330 -0.3511 -0.5249
  941MOL0     C29733   4.245   6.891   2.274  0.4251 -0.3835  0.5103
  941MOL0     C29734   4.370   6.958   2.202  0.2891  0.2071 -0.6944
  941MOL0     C29735   4.329   7.019   2.075  0.4210 -0.0054 -0.4359
  941MOL0     C29736   4.436   7.097   2.001 -0.9550 -1.5431 -1.4275
  941MOL0     N29737   4.552   7.018   1.966 -0.2364 -0.4137 -1.2251
  941MOL0     C29738   4.545   6.934   1.867  0.1255  0.5328 -0.2661
  941MOL0     C29739   4.663   6.859   1.880 -0.2559 -0.8493  0.6334
  941MOL0     C29740   4.685   6.741   1.793  0.3572 -0.1394  0.0197
  941MOL0     C29741   4.823   6.694   1.781 -0.7188  0.1704  0.0052
  941MOL0     C29742   4.842   6.566   1.692  0.1013 -1.1473 -0.6494
  941MOL0     C29743   4.762   6.444   1.758 -0.6880  0.4847  1.1200
  941MOL0     O29744   4.832   6.326   1.714  0.4641 -0.5268 -0.4196
  941MOL0     C29745   4.777   6.204   1.747  0.2125 -0.0859 -0.8233
  941MOL0     C29746   4.671   6.157   1.667 -1.0077 -0.3422 -0.7588
  941MOL0     C29747   4.606   6.037   1.705  0.1696 -0.4597 -0.0438
  941MOL0     C29748   4.493   5.996   1.619 -0.3164 -0.2039  0.6117
  941MOL0     C29749   4.638   5.972   1.825  0.5735 -0.1502  0.5547
  941MOL0     C29750   4.578   5.842   1.874  0.3851  0.2926  0.1542
  941MOL0     O29751   4.543   5.823   2.007  0.0814 -0.4653 -0.2366
  941MOL0     C29752   4.436   5.732   2.015 -0.8797 -0.3960 -0.5110
  941MOL0     C29753   4.319   5.733   1.941  0.2259  0.8884 -0.4537
  941MOL0     C29754   4.213   5.640   1.967 -0.4577  0.2154  0.2326
  941MOL0     C29755   4.230   5.538   2.055  0.0404  0.1264 -0.0570
  941MOL0     O29756   4.129   5.453   2.068 -0.4825  0.0766 -0.6072
  941MOL0     C29757   4.132   5.373   2.192 -0.6397 -0.5634  0.7635
  941MOL0     C29758   3.988   5.316   2.227  0.6153 -1.0937 -0.1034
  941MOL0     C29759   3.938   5.214   2.128  1.8116  0.8167 -0.4356
  941MOL0     C29760   3.799   5.178   2.153  1.6398 -0.2574 -0.5632
  941MOL0     C29761   3.728   5.080   2.058 -0.2919  0.8312 -0.4081
  941MOL0     C29762   3.581   5.053   2.101 -0.4476 -0.0599  0.1977
  941MOL0     C29763   3.554   4.989   2.242  0.5118 -0.6300  1.3950
  941MOL0     C29764   3.414   4.975   2.287  0.4484 -0.7284 -0.3712
  941MOL0    Cl29765   3.331   5.132   2.308  0.4779  0.1932 -0.0632
  941MOL0     C29766   4.358   5.536   2.123 -0.0862  0.9521  0.4621
  941MOL0     C29767   4.464   5.633   2.098 -0.3228  0.1910 -0.5628
  941MOL0     O29768   4.583   5.747   1.790  1.2316  0.0555  0.1227
  941MOL0     C29769   4.730   6.040   1.907 -0.3970  1.2927  0.0791
  941MOL0     C29770   4.808   6.146   1.867  0.2286  0.2884 -0.6526
  941MOL0     N29771   4.718   6.895   1.998  0.8861  1.0249  0.8995
  941MOL0     N29772   4.662   6.998   2.048  0.2229 -0.1703 -0.8344
  941MOL0     C29773   3.842   6.334   2.400 -0.5680 -0.0640 -0.0216
  941MOL0     C29774   3.720   6.268   2.374  0.0499 -0.2280 -0.9625
  941MOL0     C29775   3.356   6.154   2.134 -0.2090  0.5891 -0.1322
  941MOL0     C29776   3.340   6.031   2.196  0.0219  0.0250 -0.7933
  941MOL0     C29777   3.232   5.953   2.199 -0.5041  0.0626 -0.6451
  941MOL0     C29778   3.117   6.000   2.127  0.2593  0.2478 -0.2408
  941MOL0     O29779   3.013   5.911   2.111 -1.3519  0.5990 -0.2352
  941MOL0     C29780   2.895   5.957   2.041  1.0489  0.2997 -0.1200
  941MOL0     C29781   2.796   5.847   2.055 -0.1137  0.8455  0.1218
  941MOL0     C29782   2.664   5.865   1.974  0.3470  0.4461  0.2456
  941MOL0     C29783   2.547   5.770   2.011  0.4595  0.0005 -0.3657
  941MOL0     C29784   2.480   5.819   2.132  0.6426  0.4264 -0.2909
  941MOL0     C29785   2.409   5.827   2.228 -0.5552 -0.3347 -0.6917
  941MOL0     C29786   3.126   6.118   2.065 -0.4029  0.1701 -0.0992
  941MOL0     C29787   3.244   6.195   2.068 -0.2021 -0.9984  0.6933
  941MOL0     C29788   3.237   6.320   2.004  0.3746  0.1369  0.6726
  941MOL0     H29789   3.784   6.173   2.051 -0.1867 -1.4442  0.4022
  941MOL0     H29790   3.975   6.331   2.092  0.8786 -0.4084  0.4428
  941MOL0     H29791   3.979   6.551   2.480 -2.5714 -1.0414 -1.4994
  941MOL0     H29792   3.987   6.636   2.339 -0.5390 -0.6113 -0.4319
  941MOL0     H29793   4.229   6.552   2.520  0.6041  1.0184  0.7066
  941MOL0     H29794   4.254   6.582   2.347  1.6535 -1.6158  1.5513
  941MOL0     H29795   4.081   6.792   2.453 -0.6013  1.1182  2.7379
  941MOL0     H29796   4.188   6.753   2.580 -1.7140  0.9068 -1.2081
  941MOL0     H29797   4.313   6.928   2.460 -2.8803  1.1266 -1.8182
  941MOL0     H29798   4.384   6.775   2.396 -1.4728 -2.9082  0.6444
  941MOL0     H29799   4.175   6.974   2.289 -0.5722 -0.5037 -2.6375
  941MOL0     H29800   4.202   6.804   2.223 -1.8965 -1.0595  3.3933
  941MOL0     H29801   4.413   7.039   2.261 -0.4358 -0.2071  0.4396
  941MOL0     H29802   4.442   6.877   2.183 -0.9589 -1.7340  2.1229
  941MOL0     H29803   4.249   7.089   2.101 -0.7586 -1.6941  0.6678
  941MOL0     H29804   4.290   6.935   2.017  0.4392  0.6527 -1.4343
  941MOL0     H29805   4.385   7.140   1.914 -0.8571 -1.8340 -1.6304
  941MOL0     H29806   4.468   7.177   2.068 -0.5107 -3.8707  1.3902
  941MOL0     H29807   4.467   6.941   1.792  0.1070  2.7577 -0.1231
  941MOL0     H29808   4.650   6.768   1.693 -3.1972 -1.4437  0.7832
  941MOL0     H29809   4.631   6.656   1.836  1.4966  0.0982  2.0718
  941MOL0     H29810   4.886   6.773   1.739  2.3363 -0.8792  2.2013
  941MOL0     H29811   4.857   6.675   1.884 -1.6391 -1.4164  0.0438
  941MOL0     H29812   4.788   6.578   1.598 -0.3353  0.7998 -0.1869
  941MOL0     H29813   4.948   6.539   1.689 -0.0320 -1.9376  0.7011
  941MOL0     H29814   4.773   6.443   1.867  1.2816 -0.4161  0.9621
  941MOL0     H29815   4.658   6.438   1.726 -0.5090 -2.1346  0.7972
  941MOL0     H29816   4.636   6.208   1.578  1.4476  0.0225 -1.5913
  941MOL0     H29817   4.507   6.062   1.533  0.2128  0.5899  1.2882
  941MOL0     H29818   4.395   6.015   1.664  0.8369  2.0852  2.3838
  941MOL0     H29819   4.512   5.894   1.584  3.5139  0.5712 -0.0299
  941MOL0     H29820   4.296   5.817   1.876  0.7073  1.1042 -0.3504
  941MOL0     H29821   4.114   5.648   1.923 -0.7913  3.5126  1.3343
  941MOL0     H29822   4.213   5.300   2.183 -0.6589 -0.4799 -0.2199
  941MOL0     H29823   4.154   5.434   2.280  0.8978 -1.2943  0.9273
  941MOL0     H29824   3.990   5.289   2.333 -1.3063 -0.2788  0.1836
  941MOL0     H29825   3.918   5.400   2.220  2.5428  0.4652 -1.9970
  941MOL0     H29826   4.003   5.127   2.133  0.5875 -0.0594  1.1311
  941MOL0     H29827   3.940   5.258   2.028  0.4469 -2.1086 -1.8655
  941MOL0     H29828   3.743   5.271   2.139  0.6489 -1.0715 -2.4405
  941MOL0     H29829   3.800   5.145   2.257 -0.5111  1.1260 -0.0369
  941MOL0     H29830   3.745   5.111   1.955  2.7068  0.2163 -0.1849
  941MOL0     H29831   3.778   4.983   2.061 -1.4681  0.1792 -1.0289
  941MOL0     H29832   3.542   4.974   2.037 -1.4409 -0.6716  1.5040
  941MOL0     H29833   3.520   5.144   2.095  0.1325  0.7642  4.2078
  941MOL0     H29834   3.601   5.058   2.313 -0.8523  1.1240  0.6730
  941MOL0     H29835   3.610   4.895   2.239  1.0665 -0.3293 -1.7213
  941MOL0     H29836   3.413   4.930   2.387  0.2888  1.3599  0.6277
  941MOL0     H29837   3.359   4.909   2.219 -0.3881  0.4394 -0.8489
  941MOL0     H29838   4.384   5.451   2.185 -1.9413 -0.3885 -0.5286
  941MOL0     H29839   4.556   5.621   2.153  0.1014 -1.0263 -1.5029
  941MOL0     H29840   4.756   6.006   2.007  0.9944 -0.2383 -0.7393
  941MOL0     H29841   4.885   6.187   1.932  2.6367 -2.9331 -1.2379
  941MOL0     H29842   3.861   6.363   2.503  0.4195 -1.6933  0.2866
  941MOL0     H29843   3.640   6.254   2.445 -1.1004  1.4793 -1.8446
  941MOL0     H29844   3.417   5.992   2.262 -0.5446 -1.4866 -0.9866
  941MOL0     H29845   3.240   5.859   2.253 -1.4170 -0.4992 -1.4315
  941MOL0     H29846   2.850   6.054   2.066 -2.2002 -1.2390  0.5291
  941MOL0     H29847   2.922   5.963   1.936  2.0473  0.6901  0.1511
  941MOL0     H29848   2.774   5.837   2.162  3.7438  2.1352  1.1859
  941MOL0     H29849   2.847   5.752   2.035  1.7584  1.7327  0.4614
  941MOL0     H29850   2.642   5.972   1.988 -0.4328  0.2453  0.5614
  941MOL0     H29851   2.684   5.854   1.867 -1.8304 -1.0793 -0.0575
  941MOL0     H29852   2.595   5.672   2.022 -0.5202 -0.3737  0.9317
  941MOL0     H29853   2.471   5.766   1.933  0.0469  2.4112 -0.1714
  941MOL0     H29854   2.347   5.830   2.315  0.4661 -2.0088  0.1471
  941MOL0     H29855   3.039   6.150   2.009 -0.9837 -1.3407 -0.1155
  941MOL0     H29856   3.257   6.391   2.085 -1.3560  3.8471 -1.8735
  941MOL0     H29857   3.309   6.318   1.922 -2.3915  2.5619 -2.0237
  941MOL0     H29858   3.141   6.354   1.965  0.1959  1.2590  1.9970
  942MOL0     O29859   0.605   5.800   5.998  0.6563 -0.2712  0.6470
  942MOL0     C29860   0.720   5.779   5.968  0.6445  0.8400 -0.0159
  942MOL0     O29861   0.812   5.717   6.040 -0.4875  0.3313  0.3006
  942MOL0     C29862   0.796   5.658   6.165 -0.7964  0.7903 -0.4867
  942MOL0     C29863   0.930   5.630   6.212  0.5661  0.2975  0.4016
  942MOL0     C29864   0.937   5.544   6.328 -0.1944  0.3264 -0.5125
  942MOL0     C29865   0.825   5.509   6.398 -0.5243  0.7687  0.4350
  942MOL0     O29866   0.831   5.428   6.506  0.5660 -0.1724 -0.1714
  942MOL0     C29867   0.722   5.335   6.508  0.4750  0.6712  0.7177
  942MOL0     C29868   0.754   5.212   6.599  0.3062 -0.1738  0.3428
  942MOL0     C29869   0.888   5.148   6.573 -1.0044 -0.2717  0.7929
  942MOL0     C29870   0.904   5.013   6.641 -0.6435  0.6015  0.4393
  942MOL0     C29871   1.039   4.948   6.629  0.4368 -0.1210 -1.1751
  942MOL0     C29872   1.046   4.824   6.726  0.4358  0.3683 -0.7261
  942MOL0     C29873   1.188   4.759   6.723 -0.8345  0.9766 -0.6146
  942MOL0     C29874   1.178   4.628   6.805  0.4247 -1.0614 -0.3311
  942MOL0     N29875   1.313   4.578   6.828  0.1624  0.5256  0.2493
  942MOL0     C29876   1.354   4.496   6.932 -0.9151 -1.1365  0.6887
  942MOL0     C29877   1.474   4.449   6.897 -0.2345  0.1064  0.2057
  942MOL0     C29878   1.558   4.371   6.989 -0.9141  0.5136  0.1464
  942MOL0     C29879   1.685   4.444   7.040  0.0348 -0.7777  0.8031
  942MOL0     C29880   1.655   4.591   7.092  0.6361  0.8545 -0.0863
  942MOL0     C29881   1.795   4.647   7.143  0.7231  0.9377 -0.5828
  942MOL0     O29882   1.866   4.558   7.242 -0.0930 -0.1577  0.1730
  942MOL0     C29883   1.983   4.617   7.289 -0.1375  0.4003 -0.5021
  942MOL0     C29884   2.058   4.547   7.384 -0.6583 -0.4899  0.8163
  942MOL0     C29885   2.186   4.590   7.433  1.1771  0.3330 -0.4770
  942MOL0     C29886   2.247   4.490   7.524  1.0912  0.0313  0.8598
  942MOL0     C29887   2.248   4.700   7.379  0.0308  0.1826 -0.0712
  942MOL0     C29888   2.389   4.750   7.410  0.7368 -0.3563 -0.0168
  942MOL0     O29889   2.463   4.682   7.494 -0.1616  0.5454  0.7088
  942MOL0     C29890   2.593   4.729   7.516 -0.3284 -0.5396  0.5728
  942MOL0     C29891   2.690   4.746   7.412  1.3912  0.0825 -1.1335
  942MOL0     C29892   2.819   4.754   7.449 -0.2389 -0.1157  0.4049
  942MOL0     C29893   2.864   4.752   7.588 -0.0271 -0.3109  0.2824
  942MOL0     O29894   2.997   4.768   7.619 -0.4349 -0.4659 -0.9057
  942MOL0     C29895   3.048   4.746   7.755 -0.2811  0.3188  0.6494
  942MOL0     C29896   3.201   4.780   7.769  0.4412  0.2469 -0.3413
  942MOL0     C29897   3.287   4.690   7.682 -0.3574 -0.5224 -0.7108
  942MOL0     C29898   3.427   4.750   7.639 -1.0405  0.4722 -0.7152
  942MOL0     C29899   3.487   4.683   7.517 -0.2852 -0.1427  0.2823
  942MOL0     C29900   3.620   4.740   7.477  1.1414  0.5158  0.1715
  942MOL0     C29901   3.677   4.672   7.352 -0.6360 -0.1548  0.9563
  942MOL0     C29902   3.789   4.760   7.284  0.9389 -0.0046 -0.1726
  942MOL0    Cl29903   3.835   4.692   7.132  0.5083 -0.1113  0.0820
  942MOL0     C29904   2.765   4.756   7.684 -0.1107  0.8079 -0.4101
  942MOL0     C29905   2.631   4.744   7.651  0.7979 -0.0885  0.4374
  942MOL0     O29906   2.430   4.850   7.360  0.1934 -0.4900  0.2151
  942MOL0     C29907   2.174   4.770   7.281  0.5393 -0.1276 -1.0787
  942MOL0     C29908   2.045   4.738   7.242  0.5766  0.6538  0.2729
  942MOL0     N29909   1.514   4.517   6.781 -0.4465 -0.3369 -0.1172
  942MOL0     N29910   1.417   4.580   6.738  0.7691  1.2301 -0.0226
  942MOL0     C29911   0.698   5.568   6.362 -0.3057 -0.3888  0.1271
  942MOL0     C29912   0.682   5.630   6.233  0.1386  0.1378 -0.0291
  942MOL0     C29913   0.769   5.853   5.845 -0.1257  1.1530 -0.3734
  942MOL0     C29914   0.698   5.957   5.795  0.3193  0.9284 -0.0934
  942MOL0     C29915   0.722   6.019   5.674 -0.2079  0.0021 -0.3464
  942MOL0     C29916   0.838   5.985   5.604 -0.5536  0.4053 -0.1185
  942MOL0     O29917   0.862   6.044   5.484  0.2394 -0.0379  0.2593
  942MOL0     C29918   0.875   5.959   5.369  0.6580  0.4462  0.5707
  942MOL0     C29919   0.774   5.847   5.344  0.4980 -0.0565 -0.0699
  942MOL0     C29920   0.787   5.787   5.199 -0.0071  0.8055 -1.3271
  942MOL0     C29921   0.690   5.668   5.177  0.8465  0.1187  0.7329
  942MOL0     C29922   0.589   5.707   5.086  0.6554  0.1703 -0.0546
  942MOL0     C29923   0.501   5.724   5.005  0.7473  0.1663  0.5694
  942MOL0     C29924   0.919   5.879   5.654  0.1363 -0.2904  0.5396
  942MOL0     C29925   0.874   5.806   5.763 -0.6664  0.1245 -0.2218
  942MOL0     C29926   0.953   5.687   5.790  0.0323 -0.0405  0.2617
  942MOL0     H29927   1.019   5.652   6.155 -0.7359  3.1418 -0.7400
  942MOL0     H29928   1.032   5.501   6.360 -0.0810 -0.1780 -1.4931
  942MOL0     H29929   0.704   5.307   6.404 -0.2241 -2.1080  1.4987
  942MOL0     H29930   0.623   5.366   6.541 -1.7749 -3.8887 -0.9826
  942MOL0     H29931   0.746   5.243   6.703  0.2781  0.4582  0.1604
  942MOL0     H29932   0.673   5.138   6.602 -0.8467  0.7713 -2.9688
  942MOL0     H29933   0.892   5.151   6.464 -2.2281  0.1811  0.7417
  942MOL0     H29934   0.963   5.214   6.618 -1.7053  1.2747 -0.2216
  942MOL0     H29935   0.879   5.032   6.746  0.0563  2.8511  0.2453
  942MOL0     H29936   0.830   4.944   6.599  1.4331 -0.5975 -1.4486
  942MOL0     H29937   1.116   5.014   6.672  0.7361 -2.4623  2.3397
  942MOL0     H29938   1.063   4.910   6.530  0.0097  2.8162 -2.5248
  942MOL0     H29939   1.016   4.857   6.826 -0.5184  1.2769 -1.2778
  942MOL0     H29940   0.973   4.756   6.680 -0.4783  1.4085 -0.8686
  942MOL0     H29941   1.261   4.825   6.770 -0.5755  0.9685 -1.0018
  942MOL0     H29942   1.231   4.737   6.625  0.9402  0.0930  0.3170
  942MOL0     H29943   1.125   4.643   6.899 -0.4555 -2.7133 -0.5399
  942MOL0     H29944   1.126   4.555   6.742 -1.2999 -0.6848  0.5892
  942MOL0     H29945   1.309   4.465   7.026  0.8521  0.2234  2.0680
  942MOL0     H29946   1.591   4.280   6.939 -2.3196 -0.9119  1.6909
  942MOL0     H29947   1.499   4.343   7.076 -0.1331  0.4719  0.6688
  942MOL0     H29948   1.737   4.394   7.122  2.2237  0.0575  0.0077
  942MOL0     H29949   1.758   4.442   6.958 -0.0890  0.9377  0.5980
  942MOL0     H29950   1.615   4.655   7.013  0.0382  0.6045  0.0083
  942MOL0     H29951   1.582   4.572   7.172 -2.8536 -0.0207 -3.2226
  942MOL0     H29952   1.854   4.653   7.051  0.0807  0.7929 -1.0098
  942MOL0     H29953   1.782   4.749   7.180 -2.1910  0.2927  0.3702
  942MOL0     H29954   2.017   4.456   7.427  0.6683 -0.6864  1.7362
  942MOL0     H29955   2.267   4.546   7.616  1.0432  1.5586 -0.0424
  942MOL0     H29956   2.340   4.446   7.487  0.0997 -0.5961 -1.0074
  942MOL0     H29957   2.179   4.407   7.549  1.9447 -0.6601  0.9359
  942MOL0     H29958   2.651   4.759   7.311 -2.6186  0.6816  0.3142
  942MOL0     H29959   2.890   4.775   7.369 -2.2476 -0.0559 -1.4330
  942MOL0     H29960   2.990   4.805   7.825  2.2675  0.2992  2.9524
  942MOL0     H29961   3.046   4.638   7.774  2.2133  0.2517  0.8595
  942MOL0     H29962   3.214   4.885   7.739 -0.5381  0.8702  1.2693
  942MOL0     H29963   3.225   4.760   7.873 -0.9534  0.4744  0.0454
  942MOL0     H29964   3.237   4.685   7.585 -0.6164  0.6730 -0.6551
  942MOL0     H29965   3.304   4.585   7.707  2.8580 -0.2310 -1.1797
  942MOL0     H29966   3.497   4.748   7.723 -0.2338  1.7028 -1.3309
  942MOL0     H29967   3.410   4.851   7.603 -2.0220 -0.8831 -4.5845
  942MOL0     H29968   3.493   4.575   7.534 -0.4806  0.0359  1.6370
  942MOL0     H29969   3.426   4.691   7.427 -0.6276  1.7918  0.6395
  942MOL0     H29970   3.688   4.724   7.561  1.5053 -1.2402 -0.4082
  942MOL0     H29971   3.598   4.847   7.467  2.4937  1.2836  3.9410
  942MOL0     H29972   3.588   4.655   7.291 -0.7860  0.5954  0.9512
  942MOL0     H29973   3.727   4.578   7.376 -0.2259  0.2894  1.8990
  942MOL0     H29974   3.865   4.762   7.362 -1.3116 -1.3338  2.2044
  942MOL0     H29975   3.743   4.858   7.265  1.9545  0.9142  1.8239
  942MOL0     H29976   2.798   4.765   7.787 -2.1555 -1.5932  0.5645
  942MOL0     H29977   2.560   4.761   7.731  1.1678  1.2832  0.5075
  942MOL0     H29978   2.227   4.852   7.233  0.6275 -0.6162 -1.8466
  942MOL0     H29979   1.994   4.791   7.162 -0.2089 -2.0379 -1.1659
  942MOL0     H29980   0.605   5.571   6.417 -0.2289 -1.4811  0.3276
  942MOL0     H29981   0.592   5.670   6.189  0.8800  1.1563 -0.6816
  942MOL0     H29982   0.609   5.996   5.843 -0.8887 -1.1082 -0.5766
  942MOL0     H29983   0.647   6.091   5.644  0.4316  0.2663 -1.3731
  942MOL0     H29984   0.856   6.027   5.286 -0.1500 -0.3832  0.0672
  942MOL0     H29985   0.974   5.913   5.369  2.0940  3.2747  1.7210
  942MOL0     H29986   0.672   5.884   5.360 -0.0756 -0.4534 -2.4110
  942MOL0     H29987   0.788   5.765   5.415  0.0261 -0.8177 -0.8287
  942MOL0     H29988   0.765   5.871   5.133 -2.2799  0.7130 -0.7598
  942MOL0     H29989   0.889   5.750   5.189  0.6921  2.5038 -0.8484
  942MOL0     H29990   0.652   5.643   5.276  2.1208  1.6435  1.6631
  942MOL0     H29991   0.747   5.586   5.132 -0.6326  0.1015 -1.2639
  942MOL0     H29992   0.434   5.738   4.923  1.4806  0.6890  0.0351
  942MOL0     H29993   0.996   5.836   5.591  1.3201 -0.2374  1.9091
  942MOL0     H29994   1.036   5.717   5.854 -0.6717  0.8721  0.7662
  942MOL0     H29995   0.893   5.608   5.837 -1.1011 -0.1719 -1.3326
  942MOL0     H29996   0.987   5.651   5.693 -0.4269  2.1125 -0.7396
  943MOL0     O29997   1.384   5.609   1.710 -0.4160 -0.5141  0.7015
  943MOL0     C29998   1.445   5.612   1.815 -0.6504 -0.8540  0.3614
  943MOL0     O29999   1.530   5.512   1.870  0.2991 -0.6015  1.1927
  943MOL0     C30000   1.579   5.424   1.780  0.0183  0.4173 -0.0697
  943MOL0     C30001   1.589   5.289   1.823 -0.2839 -0.0801 -1.2902
  943MOL0     C30002   1.658   5.187   1.762 -0.3296 -0.3301 -0.0242
  943MOL0     C30003   1.732   5.213   1.646  0.0356 -1.1795  0.3952
  943MOL0     O30004   1.814   5.109   1.608 -0.3731 -0.2482  0.0250
  943MOL0     C30005   1.848   5.110   1.468  0.4143 -0.5029 -1.3991
  943MOL0     C30006   1.931   4.983   1.442  0.3643 -0.3506 -0.1724
  943MOL0     C30007   1.842   4.852   1.452 -0.2272 -0.0242  0.3934
  943MOL0     C30008   1.929   4.726   1.437 -1.2420 -0.9048 -0.3034
  943MOL0     C30009   1.840   4.606   1.426  0.7986 -0.4089  1.3033
  943MOL0     C30010   1.926   4.487   1.405  0.0020  0.0621 -0.3387
  943MOL0     C30011   1.869   4.351   1.412 -0.7439  0.7469 -0.1784
  943MOL0     C30012   1.745   4.331   1.323 -0.6747 -0.3992 -0.4767
  943MOL0     N30013   1.779   4.369   1.177  0.0251 -0.5703  0.0898
  943MOL0     C30014   1.740   4.480   1.107  0.2918 -0.0477  0.5590
  943MOL0     C30015   1.795   4.465   0.986  0.1783 -0.7339 -0.3417
  943MOL0     C30016   1.765   4.575   0.882  0.1241 -0.0815 -0.2965
  943MOL0     C30017   1.844   4.552   0.754  1.3021 -0.2393 -0.1910
  943MOL0     C30018   1.781   4.629   0.633 -0.4648  0.3013  0.3761
  943MOL0     C30019   1.864   4.626   0.508 -0.1584  0.5485 -1.1208
  943MOL0     O30020   1.997   4.683   0.531  0.3062  0.0821 -0.0633
  943MOL0     C30021   2.029   4.809   0.506 -0.5700 -0.3705  0.4549
  943MOL0     C30022   2.162   4.855   0.528  0.3580  0.1775  0.5160
  943MOL0     C30023   2.209   4.981   0.496 -0.2134 -0.0584  0.8811
  943MOL0     C30024   2.355   5.013   0.497 -0.5671  0.0851 -0.1152
  943MOL0     C30025   2.107   5.074   0.462 -0.2851  0.3568  0.3254
  943MOL0     C30026   2.138   5.226   0.444  0.6538 -0.5562 -0.1959
  943MOL0     O30027   2.032   5.309   0.412 -0.0679 -0.3159  0.5070
  943MOL0     C30028   2.059   5.439   0.373 -0.6519  0.5874 -0.4052
  943MOL0     C30029   1.997   5.539   0.445  0.4508 -0.6685 -0.1284
  943MOL0     C30030   2.023   5.671   0.429  0.2545 -0.4097  0.1683
  943MOL0     C30031   2.123   5.710   0.335  0.0875  0.3690  0.4556
  943MOL0     O30032   2.171   5.835   0.332 -0.6228  0.2519  0.6467
  943MOL0     C30033   2.138   5.927   0.438  0.1633 -0.0225  0.1045
  943MOL0     C30034   2.218   6.053   0.404  0.1711  0.3282 -0.2763
  943MOL0     C30035   2.369   6.030   0.410 -0.3760  0.2768 -0.5936
  943MOL0     C30036   2.446   6.140   0.333  0.0731  0.1543  0.6984
  943MOL0     C30037   2.591   6.137   0.353 -0.6629  0.2964 -0.0988
  943MOL0     C30038   2.635   6.194   0.487 -0.9787  0.4195  0.5111
  943MOL0     C30039   2.630   6.346   0.500  0.3709 -0.7800  0.2976
  943MOL0     C30040   2.773   6.402   0.509 -0.1010  0.2864 -0.7991
  943MOL0    Cl30041   2.868   6.345   0.644 -0.2946  0.0351 -0.0667
  943MOL0     C30042   2.172   5.606   0.248 -0.3376 -0.8562 -0.4457
  943MOL0     C30043   2.140   5.472   0.269 -0.7123 -0.3568  0.1171
  943MOL0     O30044   2.245   5.265   0.472  0.6369  0.1431 -0.1694
  943MOL0     C30045   1.971   5.031   0.441 -0.6459 -1.3435 -0.0402
  943MOL0     C30046   1.930   4.906   0.466  0.4146 -0.0940  0.4161
  943MOL0     N30047   1.861   4.342   0.974  0.3923 -0.0837 -0.0324
  943MOL0     N30048   1.852   4.292   1.097 -0.3847 -0.2207  0.3967
  943MOL0     C30049   1.718   5.346   1.594  0.1505 -0.6145 -0.0389
  943MOL0     C30050   1.641   5.451   1.656 -1.2701  0.0388 -0.2107
  943MOL0     C30051   1.409   5.719   1.914  0.5510  0.0581  0.4480
  943MOL0     C30052   1.278   5.766   1.903 -0.3028  0.2247  0.4650
  943MOL0     C30053   1.225   5.844   2.006 -0.3551 -0.5092 -0.1547
  943MOL0     C30054   1.301   5.893   2.110  0.2597 -0.3567  0.6071
  943MOL0     O30055   1.241   5.962   2.215  0.4504  0.3471  0.2795
  943MOL0     C30056   1.322   6.066   2.277 -0.1378  0.5029 -0.8127
  943MOL0     C30057   1.212   6.148   2.346 -0.4369 -0.5365 -0.9760
  943MOL0     C30058   1.272   6.275   2.395  0.1278  0.3787  0.2834
  943MOL0     C30059   1.163   6.371   2.456  0.2006 -0.5664  1.4221
  943MOL0     C30060   1.221   6.492   2.500 -0.3748 -1.1014  0.5656
  943MOL0     C30061   1.259   6.588   2.570 -0.8271 -0.2370 -1.2364
  943MOL0     C30062   1.437   5.867   2.108 -0.7574  0.0934  0.8423
  943MOL0     C30063   1.483   5.777   2.009 -0.4706 -0.9264  0.3546
  943MOL0     C30064   1.636   5.743   2.025 -0.0462  1.0648 -0.1531
  943MOL0     H30065   1.534   5.262   1.913  3.0758 -1.5214  0.5155
  943MOL0     H30066   1.670   5.088   1.803 -1.5929 -0.5277 -0.0779
  943MOL0     H30067   1.914   5.195   1.448  0.8350  0.1928  2.2450
  943MOL0     H30068   1.761   5.122   1.404  1.1083  3.1856 -1.9285
  943MOL0     H30069   1.975   4.991   1.343  2.7239 -0.1774  0.8174
  943MOL0     H30070   2.009   4.979   1.518 -2.4207  0.3889  2.9816
  943MOL0     H30071   1.807   4.857   1.555 -2.8458  1.8638 -0.4860
  943MOL0     H30072   1.764   4.849   1.376  0.1825  1.7465 -0.1472
  943MOL0     H30073   2.004   4.739   1.359 -0.6781 -2.1483  0.0037
  943MOL0     H30074   1.989   4.729   1.528  1.2361 -0.6289 -1.8628
  943MOL0     H30075   1.768   4.622   1.345  0.3359  0.6085  1.8907
  943MOL0     H30076   1.784   4.589   1.519 -4.1247 -0.0515 -1.2848
  943MOL0     H30077   1.968   4.504   1.306  0.4628  1.5504  0.0837
  943MOL0     H30078   2.016   4.479   1.466  1.4661 -1.0996 -2.5581
  943MOL0     H30079   1.846   4.318   1.514 -2.5568  1.4180 -0.3379
  943MOL0     H30080   1.947   4.285   1.373 -0.0880  0.1393  2.0147
  943MOL0     H30081   1.715   4.226   1.333 -1.8961  0.1141  2.3198
  943MOL0     H30082   1.668   4.392   1.370 -0.3383 -1.5630  1.7295
  943MOL0     H30083   1.691   4.571   1.142 -2.9029 -1.6512  0.5477
  943MOL0     H30084   1.785   4.674   0.925 -1.9998  0.8341 -1.2672
  943MOL0     H30085   1.664   4.564   0.844  1.4979 -2.3407 -3.7120
  943MOL0     H30086   1.946   4.573   0.784  1.8351 -1.9339 -0.6789
  943MOL0     H30087   1.837   4.447   0.725 -0.4298 -0.3402  0.4402
  943MOL0     H30088   1.681   4.595   0.605  0.0878  0.1195 -1.5312
  943MOL0     H30089   1.765   4.734   0.660 -5.1550 -0.4404  1.4012
  943MOL0     H30090   1.887   4.522   0.482 -0.2515  1.0205 -3.2869
  943MOL0     H30091   1.810   4.666   0.422 -1.8050 -0.5429 -0.6426
  943MOL0     H30092   2.241   4.791   0.568  1.7584  1.4361 -0.1119
  943MOL0     H30093   2.383   5.072   0.409  1.3523  0.4071  0.6676
  943MOL0     H30094   2.414   4.921   0.490 -0.1605  0.4146 -1.2090
  943MOL0     H30095   2.381   5.065   0.589  2.5213 -0.5903 -0.4941
  943MOL0     H30096   1.945   5.490   0.527  2.0140  0.4068  1.6084
  943MOL0     H30097   1.970   5.740   0.494 -1.2406  0.1856 -1.5725
  943MOL0     H30098   2.029   5.941   0.434  0.0040 -0.9394  0.8744
  943MOL0     H30099   2.172   5.896   0.538  0.4186  1.3615  0.4649
  943MOL0     H30100   2.183   6.076   0.303 -0.4970 -0.7675 -0.3192
  943MOL0     H30101   2.183   6.132   0.471 -1.2206  1.0877 -1.8360
  943MOL0     H30102   2.387   5.938   0.353 -2.8044  1.2307 -3.1508
  943MOL0     H30103   2.396   6.021   0.515 -2.2258  3.2021  0.2605
  943MOL0     H30104   2.410   6.238   0.364 -1.3127  0.6034 -1.9953
  943MOL0     H30105   2.427   6.151   0.226  1.1355 -0.1745  0.4724
  943MOL0     H30106   2.630   6.035   0.347 -0.2827  0.3428  1.3671
  943MOL0     H30107   2.636   6.203   0.278 -1.5682 -0.6826 -1.5487
  943MOL0     H30108   2.739   6.163   0.496 -0.8948  0.4469 -0.3200
  943MOL0     H30109   2.587   6.137   0.568  3.1334 -0.3382  2.6690
  943MOL0     H30110   2.565   6.379   0.582 -1.2949 -3.5206  0.2160
  943MOL0     H30111   2.583   6.388   0.411  2.5651  1.7100  0.1835
  943MOL0     H30112   2.775   6.511   0.511  3.6361  0.3842  2.7837
  943MOL0     H30113   2.823   6.385   0.413 -2.3180  2.3330 -2.4301
  943MOL0     H30114   2.237   5.634   0.165 -1.2552  0.5796 -0.6933
  943MOL0     H30115   2.179   5.395   0.204  0.7430 -1.9543  2.7325
  943MOL0     H30116   1.899   5.103   0.403  1.1064 -0.8612 -2.6798
  943MOL0     H30117   1.827   4.880   0.446  0.5630 -1.1621  0.9680
  943MOL0     H30118   1.784   5.378   1.513 -0.9923  0.4908 -0.5631
  943MOL0     H30119   1.630   5.558   1.638 -0.9773  0.1668  0.3755
  943MOL0     H30120   1.212   5.732   1.824  1.1529 -0.7881 -0.3671
  943MOL0     H30121   1.120   5.869   2.004 -0.3408 -0.3804  0.4208
  943MOL0     H30122   1.396   6.035   2.351 -0.9223 -1.9634 -0.9670
  943MOL0     H30123   1.370   6.127   2.201  1.2342  4.2327  2.6897
  943MOL0     H30124   1.164   6.096   2.429 -1.0875 -2.8444 -2.6840
  943MOL0     H30125   1.137   6.165   2.268 -2.0210  1.0160  0.7811
  943MOL0     H30126   1.344   6.253   2.474 -0.9389 -2.4406  0.5895
  943MOL0     H30127   1.335   6.316   2.315 -1.1232 -1.2287 -1.6467
  943MOL0     H30128   1.129   6.323   2.548  0.7231  1.2928  2.6179
  943MOL0     H30129   1.085   6.389   2.380  1.6184  3.0633  0.6187
  943MOL0     H30130   1.297   6.667   2.631 -1.4452  0.4016 -1.6627
  943MOL0     H30131   1.498   5.900   2.191  1.4843 -2.4437  0.3500
  943MOL0     H30132   1.673   5.690   1.936  1.2827 -2.0695  2.0975
  943MOL0     H30133   1.686   5.840   2.034  0.5173  0.9520 -1.7271
  943MOL0     H30134   1.652   5.686   2.117  1.3480  0.9024 -0.4676
  944MOL0     O30135  11.392   3.027   0.573  0.0391 -0.1724  0.1179
  944MOL0     C30136  11.383   3.145   0.594  0.2109  0.3455 -0.7457
  944MOL0     O30137  11.475   3.239   0.552  0.1301 -0.1925  0.0054
  944MOL0     C30138  11.563   3.227   0.453 -0.1235 -0.3679  0.6090
  944MOL0     C30139  11.670   3.313   0.457 -0.0648  1.0775  0.1253
  944MOL0     C30140  11.776   3.309   0.371 -0.5382  0.2774  0.2543
  944MOL0     C30141  11.776   3.219   0.269 -0.4484  0.8940  0.3031
  944MOL0     O30142  11.895   3.221   0.200 -0.5809  0.0691 -0.1631
  944MOL0     C30143  11.932   3.092   0.154 -0.2470 -0.1579 -0.4461
  944MOL0     C30144  12.065   3.097   0.076 -0.4677 -0.7519 -0.1136
  944MOL0     C30145  12.180   3.143   0.172 -0.9239  0.5149 -0.2328
  944MOL0     C30146  12.311   3.119   0.097 -0.3688  0.4565  0.1710
  944MOL0     C30147  12.428   3.176   0.176  0.0538 -0.2597 -0.4306
  944MOL0     C30148  12.569   3.146   0.117  0.5957  0.0586  0.7316
  944MOL0     C30149  12.684   3.210   0.198  0.6266 -0.5527  0.4146
  944MOL0     C30150  12.822   3.158   0.160  0.3160  1.1972  0.6471
  944MOL0     N30151  12.846   3.201   0.022  0.0532 -0.0002 -0.4144
  944MOL0     C30152  12.805   3.132  -0.085 -0.1707 -0.0297 -0.1637
  944MOL0     C30153  12.820   3.212  -0.193  1.3780  0.4799 -0.6034
  944MOL0     C30154  12.801   3.197  -0.337 -0.2278 -0.0289 -0.8023
  944MOL0     C30155  12.683   3.123  -0.390 -0.0913 -0.0365  0.3483
  944MOL0     C30156  12.719   3.073  -0.531 -0.1761 -0.1350  0.1850
  944MOL0     C30157  12.757   2.921  -0.538 -0.0226 -0.1588  0.1282
  944MOL0     O30158  12.883   2.885  -0.489  0.0054  1.0344 -0.2782
  944MOL0     C30159  12.973   2.828  -0.576  0.6474 -0.5858 -0.6289
  944MOL0     C30160  12.961   2.694  -0.609  0.0691  0.0337 -1.4901
  944MOL0     C30161  13.043   2.626  -0.695 -0.3114 -0.0048 -1.5557
  944MOL0     C30162  13.020   2.474  -0.708  0.4225  0.2078  0.3477
  944MOL0     C30163  13.153   2.698  -0.752 -0.7677  1.2546 -1.1429
  944MOL0     C30164  13.259   2.639  -0.835  0.3142 -0.1749  0.6063
  944MOL0     O30165  13.347   2.725  -0.902 -0.7872  0.0599  0.0042
  944MOL0     C30166  13.446   2.670  -0.966 -2.0398 -0.2007  0.2348
  944MOL0     C30167  13.432   2.661  -1.107 -0.2107 -0.4623 -0.4584
  944MOL0     C30168  13.522   2.588  -1.186 -0.1293 -0.0231  0.6961
  944MOL0     C30169  13.630   2.519  -1.120 -0.2450 -0.1240 -0.1667
  944MOL0     O30170  13.700   2.426  -1.191  0.8694  0.3703  1.2380
  944MOL0     C30171  13.754   2.320  -1.113  0.0001  0.9281  0.3204
  944MOL0     C30172  13.774   2.190  -1.190 -0.7360  0.0091 -0.3106
  944MOL0     C30173  13.858   2.228  -1.317  0.7979 -0.1154  0.8473
  944MOL0     C30174  13.892   2.091  -1.383 -0.7744 -0.1682 -0.0354
  944MOL0     C30175  13.985   2.115  -1.500  0.5376  0.2148  0.5232
  944MOL0     C30176  14.055   1.984  -1.536  0.4202 -1.0014 -0.8869
  944MOL0     C30177  14.118   1.996  -1.671 -0.5447  0.4869  0.3088
  944MOL0     C30178  14.175   1.869  -1.736  0.0398 -1.0871  0.0972
  944MOL0    Cl30179  14.327   1.847  -1.647 -0.2575 -0.0618  0.6803
  944MOL0     C30180  13.645   2.542  -0.977  0.3300  0.0760 -0.8943
  944MOL0     C30181  13.561   2.623  -0.901  0.4550 -0.2766  0.6620
  944MOL0     O30182  13.263   2.516  -0.848 -0.0005 -0.3941 -0.2550
  944MOL0     C30183  13.158   2.839  -0.726  0.7778  0.2353  0.8303
  944MOL0     C30184  13.073   2.903  -0.637  0.3154  0.6307 -0.0789
  944MOL0     N30185  12.880   3.325  -0.149 -0.2620  0.2988 -0.0296
  944MOL0     N30186  12.901   3.324  -0.020  0.1595  0.1403 -0.3502
  944MOL0     C30187  11.675   3.125   0.264  0.0496  0.7396 -0.0880
  944MOL0     C30188  11.569   3.124   0.359 -0.2099  0.7813  0.6994
  944MOL0     C30189  11.252   3.193   0.656  0.3391  0.1329 -0.6423
  944MOL0     C30190  11.145   3.106   0.683 -0.1427  0.6351  0.6352
  944MOL0     C30191  11.018   3.152   0.727  0.0084  0.2093  0.3931
  944MOL0     C30192  10.996   3.290   0.761 -0.7822 -0.6710  0.3639
  944MOL0     O30193  10.879   3.353   0.802 -0.5487  0.5182  0.1356
  944MOL0     C30194  10.763   3.265   0.794 -0.7376  0.0357  0.5106
  944MOL0     C30195  10.757   3.196   0.924 -0.6762 -0.5359  0.1397
  944MOL0     C30196  10.709   3.298   1.030  0.5646  0.1065 -0.1799
  944MOL0     C30197  10.733   3.243   1.168 -0.4505 -0.5239  0.3854
  944MOL0     C30198  10.681   3.331   1.273  0.2751 -1.0857 -0.2746
  944MOL0     C30199  10.625   3.386   1.368  0.6741 -1.2843 -0.1563
  944MOL0     C30200  11.106   3.373   0.745  0.7571 -0.9312 -0.2315
  944MOL0     C30201  11.231   3.329   0.691 -0.5038 -0.8687 -0.5040
  944MOL0     C30202  11.330   3.443   0.684  0.0339  1.0829  0.2599
  944MOL0     H30203  11.669   3.399   0.524  1.3462  2.6235 -1.7051
  944MOL0     H30204  11.861   3.376   0.382  1.7137 -2.5205  1.5769
  944MOL0     H30205  11.855   3.048   0.091  0.4611 -1.5527 -0.3733
  944MOL0     H30206  11.936   3.031   0.245  2.7187  0.3876 -0.0901
  944MOL0     H30207  12.089   2.993   0.053  1.2158 -0.6153  0.8731
  944MOL0     H30208  12.063   3.160  -0.013 -2.9775  0.4906  0.7034
  944MOL0     H30209  12.168   3.247   0.206  3.9101  1.0017  0.8060
  944MOL0     H30210  12.167   3.079   0.259 -4.3784  0.0647 -0.9301
  944MOL0     H30211  12.332   3.011   0.094  0.3222  0.5848  0.2407
  944MOL0     H30212  12.307   3.146  -0.009  2.2643  0.7741  0.0949
  944MOL0     H30213  12.424   3.136   0.278 -1.4835  1.2337  0.1593
  944MOL0     H30214  12.419   3.284   0.192  1.1023  0.2746 -2.9786
  944MOL0     H30215  12.571   3.037   0.109 -2.4096 -0.0438  0.2510
  944MOL0     H30216  12.563   3.180   0.013  1.7594 -3.4650 -0.6334
  944MOL0     H30217  12.667   3.179   0.302  1.7476 -0.8254  0.5279
  944MOL0     H30218  12.681   3.318   0.188 -0.6294 -0.6993 -1.1119
  944MOL0     H30219  12.885   3.204   0.236 -2.7062  2.6162  2.4825
  944MOL0     H30220  12.831   3.050   0.178  3.1834  1.2265 -0.0673
  944MOL0     H30221  12.769   3.030  -0.088  0.2734 -0.1885 -3.8093
  944MOL0     H30222  12.889   3.142  -0.371  0.6296  0.1908  0.9630
  944MOL0     H30223  12.818   3.294  -0.384  0.0056 -0.9366 -2.7284
  944MOL0     H30224  12.647   3.046  -0.322 -2.6613  0.3146 -0.5006
  944MOL0     H30225  12.597   3.191  -0.398 -0.2561 -0.2708  0.1038
  944MOL0     H30226  12.632   3.099  -0.593  0.0916  1.2761  0.3621
  944MOL0     H30227  12.794   3.143  -0.569  1.9955 -1.9259  0.9889
  944MOL0     H30228  12.688   2.861  -0.478 -0.4359 -1.4328 -1.5614
  944MOL0     H30229  12.734   2.881  -0.638 -0.3933  2.2954 -0.8436
  944MOL0     H30230  12.881   2.641  -0.559  0.5643 -1.3608 -2.1332
  944MOL0     H30231  12.962   2.441  -0.621 -1.1034 -0.5119 -0.8842
  944MOL0     H30232  13.112   2.416  -0.706 -0.8769 -2.0410 -0.7593
  944MOL0     H30233  12.971   2.453  -0.804 -2.0874 -0.5315  1.6952
  944MOL0     H30234  13.340   2.698  -1.152  0.5423  2.9490  0.5010
  944MOL0     H30235  13.492   2.576  -1.289  1.9284 -1.8855  0.2420
  944MOL0     H30236  13.855   2.352  -1.083  0.9040 -0.9991 -0.5394
  944MOL0     H30237  13.692   2.300  -1.024  1.0203 -5.9886  0.0180
  944MOL0     H30238  13.838   2.125  -1.129  0.0922  0.1223 -1.0408
  944MOL0     H30239  13.685   2.130  -1.212 -0.1485 -4.2540  6.0818
  944MOL0     H30240  13.945   2.292  -1.300  0.7151  2.1726 -4.8248
  944MOL0     H30241  13.796   2.285  -1.387  1.4203  0.3484  0.6606
  944MOL0     H30242  13.802   2.031  -1.398  1.3637 -3.6743  0.1370
  944MOL0     H30243  13.949   2.038  -1.306 -1.4568 -0.4985  0.2467
  944MOL0     H30244  13.920   2.139  -1.585  0.1613  0.4260  0.8686
  944MOL0     H30245  14.054   2.194  -1.470  0.0653  0.9107 -0.1863
  944MOL0     H30246  13.989   1.897  -1.531 -1.3394  0.2207 -1.6620
  944MOL0     H30247  14.133   1.969  -1.460  0.9421  1.1837 -0.9274
  944MOL0     H30248  14.187   2.080  -1.680 -0.7320  0.6250  0.1619
  944MOL0     H30249  14.036   2.019  -1.739 -1.3400 -0.9751  0.7393
  944MOL0     H30250  14.190   1.892  -1.842 -0.3095  1.9034  0.6108
  944MOL0     H30251  14.109   1.782  -1.727 -1.9792  0.3279 -0.1901
  944MOL0     H30252  13.727   2.492  -0.928 -0.4525  1.3725  1.9223
  944MOL0     H30253  13.572   2.634  -0.793  2.3328  0.8594  0.4053
  944MOL0     H30254  13.237   2.900  -0.770 -0.8233  0.9213 -1.2850
  944MOL0     H30255  13.088   3.010  -0.630  1.8694  0.5767 -1.8415
  944MOL0     H30256  11.676   3.049   0.186  0.7893  2.2092 -1.5805
  944MOL0     H30257  11.496   3.045   0.354  0.3513  0.2947 -0.2191
  944MOL0     H30258  11.171   3.002   0.667  0.6507  1.1534 -1.9449
  944MOL0     H30259  10.941   3.082   0.759 -0.1752  0.6792  0.9992
  944MOL0     H30260  10.669   3.321   0.788 -0.3440  0.8810  1.9421
  944MOL0     H30261  10.771   3.192   0.712  1.1765  1.4104 -0.6123
  944MOL0     H30262  10.853   3.157   0.961 -0.4755 -0.5631 -0.4070
  944MOL0     H30263  10.686   3.114   0.911  0.8096 -2.3213  2.3313
  944MOL0     H30264  10.745   3.399   1.009 -2.1676  1.3659  0.7425
  944MOL0     H30265  10.603   3.311   1.008  0.7460 -0.1917 -1.3436
  944MOL0     H30266  10.840   3.239   1.190 -0.5115  1.3897  1.1935
  944MOL0     H30267  10.694   3.141   1.176  2.0075 -1.8198 -2.4587
  944MOL0     H30268  10.584   3.419   1.461 -0.7393 -3.1820 -0.0453
  944MOL0     H30269  11.093   3.478   0.767  2.0656 -0.6929 -0.5100
  944MOL0     H30270  11.413   3.439   0.755 -1.8867  0.0842  2.5834
  944MOL0     H30271  11.357   3.447   0.578 -0.0757  0.4721  0.2071
  944MOL0     H30272  11.294   3.542   0.712  0.5489  0.5729  2.9966
  945MOL0     O30273   5.590   7.938   9.547 -0.6162  0.0242 -0.2974
  945MOL0     C30274   5.519   7.941   9.449  0.7527 -0.2923 -0.6589
  945MOL0     O30275   5.400   8.004   9.439 -0.2803  0.5586 -0.4366
  945MOL0     C30276   5.353   8.085   9.537  0.2637 -0.8274 -0.4830
  945MOL0     C30277   5.215   8.086   9.565  0.0805  0.1513  0.0106
  945MOL0     C30278   5.161   8.170   9.658  0.2400  0.2654  0.5709
  945MOL0     C30279   5.245   8.255   9.733 -0.1939  0.2955  0.6517
  945MOL0     O30280   5.165   8.334   9.811  0.1888  0.4663  0.8586
  945MOL0     C30281   5.215   8.438   9.882  0.7788  0.3539 -0.3098
  945MOL0     C30282   5.261   8.396  10.027  0.6667  1.0019 -0.3104
  945MOL0     C30283   5.356   8.487  10.088 -0.5244 -0.1895 -0.1335
  945MOL0     C30284   5.284   8.618  10.132  0.6373 -0.4032  0.8509
  945MOL0     C30285   5.374   8.734  10.179 -0.1610  0.0527  0.5663
  945MOL0     C30286   5.298   8.868  10.201  0.8270  0.4049 -1.2073
  945MOL0     C30287   5.401   8.994  10.218  0.8063  1.1412 -0.8596
  945MOL0     C30288   5.339   9.134  10.239  0.2469  0.4031 -0.4361
  945MOL0     N30289   5.438   9.232  10.205 -0.0557  0.3958 -0.6103
  945MOL0     C30290   5.533   9.274  10.301  1.0417  0.4595 -0.2905
  945MOL0     C30291   5.593   9.383  10.246  0.9965  0.6532 -0.0948
  945MOL0     C30292   5.714   9.456  10.299  0.3392 -0.1959 -0.3559
  945MOL0     C30293   5.771   9.421  10.439 -0.0518 -0.1531  0.1239
  945MOL0     C30294   5.865   9.297  10.441 -0.3726 -0.2614  0.1383
  945MOL0     C30295   6.019   9.337  10.439 -0.4446 -0.9023 -0.3961
  945MOL0     O30296   6.044   9.392  10.312  0.0657  0.9165 -0.1694
  945MOL0     C30297   6.174   9.399  10.264 -0.1077  0.1880 -0.4946
  945MOL0     C30298   6.188   9.482  10.156  0.1503 -1.0752  0.9446
  945MOL0     C30299   6.314   9.508  10.094  0.0899  0.4856 -1.6673
  945MOL0     C30300   6.313   9.594   9.972 -0.2526  0.1449  0.2303
  945MOL0     C30301   6.431   9.433  10.141  0.1500  0.2571 -0.6532
  945MOL0     C30302   6.562   9.436  10.070 -0.0832 -0.4720  0.2964
  945MOL0     O30303   6.643   9.335  10.113 -0.0828  0.4397  0.4221
  945MOL0     C30304   6.767   9.340  10.058 -0.7672 -0.4798 -0.5261
  945MOL0     C30305   6.860   9.425  10.103  0.0070 -0.5521  0.6884
  945MOL0     C30306   6.988   9.445  10.056  0.4777 -0.4869  1.2744
  945MOL0     C30307   7.035   9.360   9.944  0.0370 -0.7215  0.1159
  945MOL0     O30308   7.169   9.370   9.899 -0.2627  0.2001  0.0164
  945MOL0     C30309   7.275   9.358   9.997 -0.2928 -0.2444  0.2048
  945MOL0     C30310   7.339   9.492  10.009  0.9736 -0.4847 -0.2188
  945MOL0     C30311   7.414   9.533   9.887 -0.9869 -0.2016  1.5528
  945MOL0     C30312   7.360   9.643   9.797 -0.1704 -0.3641 -0.3030
  945MOL0     C30313   7.458   9.710   9.706  1.0175  0.3804  0.4977
  945MOL0     C30314   7.384   9.843   9.652 -0.5314  0.9791 -0.5446
  945MOL0     C30315   7.461   9.931   9.564  0.0317  0.7122 -0.4304
  945MOL0     C30316   7.374  10.054   9.529  0.2285 -0.5412 -0.1430
  945MOL0    Cl30317   7.422  10.110   9.370  0.1216 -0.1562 -0.5280
  945MOL0     C30318   6.931   9.285   9.889  0.2783  0.4692 -0.8572
  945MOL0     C30319   6.809   9.263   9.950 -0.9676  0.0680 -0.3820
  945MOL0     O30320   6.595   9.532   9.996 -0.7768  0.0920 -0.2335
  945MOL0     C30321   6.410   9.348  10.248 -0.4275  0.0575 -0.1679
  945MOL0     C30322   6.290   9.336  10.316  0.6344  0.1315  0.6937
  945MOL0     N30323   5.540   9.405  10.121 -0.7447 -0.4654 -0.1212
  945MOL0     N30324   5.458   9.306  10.089 -0.2849  0.2679 -0.1627
  945MOL0     C30325   5.391   8.253   9.708  0.4971 -0.9731 -0.2182
  945MOL0     C30326   5.443   8.173   9.606  0.4531  0.1363 -0.3782
  945MOL0     C30327   5.550   7.851   9.339 -0.0436  0.6961  0.5875
  945MOL0     C30328   5.516   7.894   9.206 -0.7786  0.9618  1.0630
  945MOL0     C30329   5.554   7.815   9.090 -0.5388 -0.4002  0.0389
  945MOL0     C30330   5.637   7.704   9.113 -0.2721  0.3280  0.3608
  945MOL0     O30331   5.693   7.638   9.003 -0.6263  0.2745  0.1630
  945MOL0     C30332   5.624   7.654   8.879 -0.4519  0.6746 -0.1413
  945MOL0     C30333   5.648   7.538   8.780  0.7582 -0.8146  0.0466
  945MOL0     C30334   5.795   7.534   8.738  0.3353 -1.1199 -0.5573
  945MOL0     C30335   5.857   7.668   8.701  0.5017  1.0390 -0.5183
  945MOL0     C30336   5.901   7.655   8.560  0.5746  1.2690 -0.4620
  945MOL0     C30337   5.958   7.647   8.453  0.4399 -0.5092  0.0436
  945MOL0     C30338   5.660   7.659   9.242 -0.4634  1.0402  0.2858
  945MOL0     C30339   5.620   7.728   9.355 -0.7491  0.2434 -0.0345
  945MOL0     C30340   5.655   7.672   9.485 -0.2927 -0.1107  0.0936
  945MOL0     H30341   5.161   8.018   9.501  3.7442 -2.1908 -0.9190
  945MOL0     H30342   5.055   8.187   9.674  0.4897  1.1878  1.3938
  945MOL0     H30343   5.135   8.511   9.872  0.9390  0.7035  0.8323
  945MOL0     H30344   5.303   8.475   9.828  0.5682 -0.6333 -1.3651
  945MOL0     H30345   5.175   8.396  10.095  2.0909  3.7536  1.6976
  945MOL0     H30346   5.308   8.297  10.023 -0.0683  0.6144  0.3958
  945MOL0     H30347   5.396   8.431  10.172 -2.9128  0.1666  1.3405
  945MOL0     H30348   5.431   8.508  10.011 -1.7399 -3.4948 -2.4878
  945MOL0     H30349   5.232   8.650  10.041 -0.6651 -0.5908  1.5112
  945MOL0     H30350   5.207   8.598  10.207 -0.0535 -1.3995 -0.0892
  945MOL0     H30351   5.433   8.748  10.088 -0.4687  0.8667  0.4818
  945MOL0     H30352   5.444   8.696  10.255  1.6897  1.2276 -0.4796
  945MOL0     H30353   5.235   8.894  10.115  0.3794  0.8154 -0.7644
  945MOL0     H30354   5.240   8.857  10.293  0.8668  2.8298 -0.8185
  945MOL0     H30355   5.472   8.995  10.135  2.2712 -1.2982  0.2530
  945MOL0     H30356   5.467   8.968  10.301 -0.4215  0.4095 -0.0810
  945MOL0     H30357   5.270   9.141  10.154  1.0474  0.4789 -1.0959
  945MOL0     H30358   5.296   9.152  10.338  1.3731  2.9496 -0.3213
  945MOL0     H30359   5.560   9.230  10.396  1.4104 -1.3506 -1.1669
  945MOL0     H30360   5.688   9.563  10.298  1.5087  0.2820  3.5565
  945MOL0     H30361   5.792   9.438  10.225 -1.3129 -3.2915 -1.5332
  945MOL0     H30362   5.839   9.506  10.440 -0.5395  0.3905 -2.8245
  945MOL0     H30363   5.696   9.418  10.518  0.9328  1.5380  1.1691
  945MOL0     H30364   5.856   9.246  10.537  0.0332 -2.3739 -0.9017
  945MOL0     H30365   5.841   9.240  10.351 -0.3760 -0.0329 -0.0070
  945MOL0     H30366   6.039   9.413  10.515 -1.6986 -2.7433  1.9263
  945MOL0     H30367   6.077   9.249  10.472 -0.5764 -0.1039  2.2199
  945MOL0     H30368   6.103   9.537  10.117  0.8053 -1.7899 -1.7162
  945MOL0     H30369   6.362   9.540   9.890 -0.6772 -2.6166  1.6964
  945MOL0     H30370   6.373   9.685   9.978  0.6568 -0.4265 -0.0642
  945MOL0     H30371   6.209   9.608   9.939 -1.4732 -3.1753  2.1893
  945MOL0     H30372   6.821   9.491  10.179  0.9353  0.3814  0.3855
  945MOL0     H30373   7.059   9.512  10.104  0.6285  0.9790 -0.8471
  945MOL0     H30374   7.243   9.329  10.097 -0.7596 -1.0888 -0.1771
  945MOL0     H30375   7.352   9.290   9.959 -2.4623 -1.7408 -1.7954
  945MOL0     H30376   7.268   9.570  10.038  0.7433 -1.5013  2.1791
  945MOL0     H30377   7.405   9.485  10.096  2.7452 -0.8457 -1.5411
  945MOL0     H30378   7.423   9.447   9.820 -3.4254 -1.0417  2.2270
  945MOL0     H30379   7.518   9.560   9.907  0.0536  1.2698 -4.0320
  945MOL0     H30380   7.307   9.711   9.865 -0.1685  0.9210 -1.5558
  945MOL0     H30381   7.281   9.607   9.730 -1.4375  1.7686 -0.0507
  945MOL0     H30382   7.554   9.729   9.755  1.7445 -3.0991  0.6969
  945MOL0     H30383   7.481   9.651   9.617 -0.8432  0.3476  0.0068
  945MOL0     H30384   7.343   9.897   9.738 -1.7176 -1.6918  0.6829
  945MOL0     H30385   7.291   9.814   9.600 -1.5972  0.6548  1.4468
  945MOL0     H30386   7.481   9.876   9.471  2.6003  0.0056  0.4650
  945MOL0     H30387   7.558   9.967   9.599  0.4930 -0.3126 -0.6075
  945MOL0     H30388   7.384  10.139   9.597  0.4662 -0.6901  0.0086
  945MOL0     H30389   7.270  10.021   9.528  0.7444 -2.3173  0.4908
  945MOL0     H30390   6.959   9.234   9.797  0.6827  0.9930 -1.0359
  945MOL0     H30391   6.732   9.201   9.905  0.3284 -1.9597  0.0812
  945MOL0     H30392   6.481   9.267  10.262 -0.6409 -1.0163 -4.1276
  945MOL0     H30393   6.294   9.277  10.407  2.0719 -0.1570  0.4701
  945MOL0     H30394   5.459   8.320   9.760 -0.4223 -0.2222  0.0466
  945MOL0     H30395   5.550   8.170   9.589  0.7567  0.7386  1.2961
  945MOL0     H30396   5.480   7.996   9.193  0.0756  1.0959 -0.5143
  945MOL0     H30397   5.532   7.862   8.995 -0.9871  0.3735  0.5078
  945MOL0     H30398   5.515   7.651   8.888 -0.6222  0.4520 -1.8890
  945MOL0     H30399   5.636   7.747   8.823 -2.6794  1.2647  0.2539
  945MOL0     H30400   5.578   7.536   8.696 -2.2955  0.7199  2.3465
  945MOL0     H30401   5.626   7.450   8.841  3.3633 -1.6520 -0.1107
  945MOL0     H30402   5.844   7.491   8.825 -2.3780 -0.7086  1.2795
  945MOL0     H30403   5.802   7.471   8.649  0.2104 -0.7791 -0.8129
  945MOL0     H30404   5.943   7.688   8.766 -0.2510 -1.8401  1.5774
  945MOL0     H30405   5.799   7.760   8.711  2.1011  2.0109  0.3642
  945MOL0     H30406   6.006   7.637   8.357  2.4196 -1.8817  1.1043
  945MOL0     H30407   5.714   7.566   9.260 -1.6019  0.3885  0.4512
  945MOL0     H30408   5.730   7.734   9.534 -1.0015  0.7011  0.1719
  945MOL0     H30409   5.568   7.658   9.550  1.2362 -2.6365  1.8018
  945MOL0     H30410   5.702   7.573   9.497  0.0950  0.4117  6.3938
  946MOL0     O30411  10.655   4.208   4.738 -0.2077 -0.2306  0.0659
  946MOL0     C30412  10.574   4.222   4.653  0.3949  0.6543 -0.1679
  946MOL0     O30413  10.599   4.276   4.534  0.0621 -0.8227  0.1244
  946MOL0     C30414  10.725   4.327   4.499  0.4868  0.5521 -0.1317
  946MOL0     C30415  10.756   4.317   4.366  0.0336 -0.2934  0.1970
  946MOL0     C30416  10.883   4.380   4.324 -0.1190  1.0502  0.4708
  946MOL0     C30417  10.964   4.457   4.407 -1.3759 -0.3066  0.0359
  946MOL0     O30418  11.070   4.518   4.349 -0.2168 -0.2559 -0.1270
  946MOL0     C30419  11.161   4.593   4.428 -0.7356 -0.1342 -1.2484
  946MOL0     C30420  11.280   4.511   4.486  0.1172 -0.5060 -0.5546
  946MOL0     C30421  11.350   4.417   4.384 -1.1213 -0.0702 -0.7603
  946MOL0     C30422  11.498   4.405   4.414 -0.0187  0.9915 -0.4667
  946MOL0     C30423  11.582   4.351   4.304  0.4075 -0.1092  0.3806
  946MOL0     C30424  11.611   4.463   4.200 -0.5299  0.2624  0.3775
  946MOL0     C30425  11.723   4.410   4.106  0.2477  0.2586  0.0968
  946MOL0     C30426  11.802   4.532   4.060  0.1727 -0.3285  0.1808
  946MOL0     N30427  11.915   4.545   4.154 -0.1199 -0.5169  0.3680
  946MOL0     C30428  12.050   4.521   4.126  1.0063 -0.5381  0.2903
  946MOL0     C30429  12.115   4.549   4.241  0.2615 -0.1129  0.4667
  946MOL0     C30430  12.265   4.530   4.271  0.0700  0.0323  0.7289
  946MOL0     C30431  12.349   4.542   4.146  0.2437  0.4513  0.0954
  946MOL0     C30432  12.502   4.570   4.186  0.5770  0.6620  0.2266
  946MOL0     C30433  12.539   4.718   4.199  0.3074  0.0669 -0.3893
  946MOL0     O30434  12.641   4.725   4.295 -0.3179 -0.3553 -0.1373
  946MOL0     C30435  12.769   4.732   4.247 -0.7889  0.1492 -0.1285
  946MOL0     C30436  12.818   4.735   4.118 -0.2042  0.4146  0.4660
  946MOL0     C30437  12.960   4.756   4.092  0.3961 -0.4701 -0.4122
  946MOL0     C30438  12.989   4.744   3.944 -0.1775 -0.8179 -0.3309
  946MOL0     C30439  13.049   4.786   4.199 -0.3247 -0.7598 -0.0390
  946MOL0     C30440  13.193   4.828   4.178 -0.3778 -0.4720  0.1936
  946MOL0     O30441  13.266   4.832   4.286 -0.6700 -0.5120 -0.6487
  946MOL0     C30442  13.401   4.866   4.269  0.0092  0.3474  0.0052
  946MOL0     C30443  13.442   4.991   4.228  0.4469  0.6641  0.1948
  946MOL0     C30444  13.579   5.026   4.218  0.4723  0.5788 -0.4727
  946MOL0     C30445  13.679   4.934   4.245 -0.2410  0.8854 -0.5583
  946MOL0     O30446  13.809   4.969   4.224  0.5150 -0.6270  0.0926
  946MOL0     C30447  13.912   4.908   4.294 -0.3795  0.8280 -0.1729
  946MOL0     C30448  14.036   4.999   4.318  0.7066  0.8291  0.0815
  946MOL0     C30449  14.070   5.078   4.195  0.0988 -0.7074 -0.0885
  946MOL0     C30450  14.205   5.150   4.225  0.4196 -0.2245  0.3081
  946MOL0     C30451  14.226   5.274   4.140 -0.1528 -0.5291 -0.4796
  946MOL0     C30452  14.250   5.262   3.993  0.2668 -0.2051  0.5239
  946MOL0     C30453  14.130   5.252   3.907  0.3423  0.7837  0.5056
  946MOL0     C30454  14.167   5.252   3.762 -0.3009  0.5265 -0.0412
  946MOL0    Cl30455  14.014   5.248   3.664  0.1578 -0.1619 -0.3058
  946MOL0     C30456  13.630   4.801   4.285 -0.4624 -0.2920  0.0750
  946MOL0     C30457  13.497   4.763   4.298  1.0014  0.1714 -0.0144
  946MOL0     O30458  13.226   4.875   4.068 -0.4214 -0.5435  0.4795
  946MOL0     C30459  13.001   4.784   4.328 -0.2267  0.1014 -0.3202
  946MOL0     C30460  12.869   4.764   4.345 -0.6878 -0.3671 -0.3759
  946MOL0     N30461  12.018   4.574   4.339  0.3181  0.9357 -0.0073
  946MOL0     N30462  11.897   4.573   4.283 -0.6734 -0.0805  0.1156
  946MOL0     C30463  10.937   4.455   4.550 -0.5895 -0.3551  0.2734
  946MOL0     C30464  10.815   4.399   4.586 -0.1313  0.3243 -0.3712
  946MOL0     C30465  10.433   4.170   4.667 -0.8747  0.7984  0.2546
  946MOL0     C30466  10.335   4.250   4.623 -0.0131  0.1151 -0.3203
  946MOL0     C30467  10.197   4.209   4.640 -1.0684  0.1099 -0.8350
  946MOL0     C30468  10.161   4.074   4.677  0.4225  0.5606  0.4620
  946MOL0     O30469  10.027   4.020   4.678 -1.1334 -0.5158 -0.0819
  946MOL0     C30470   9.908   4.104   4.683 -0.8125 -0.1713  0.2246
  946MOL0     C30471   9.789   4.015   4.732  0.3394 -0.5260  0.1058
  946MOL0     C30472   9.773   3.900   4.630 -0.1555 -0.2362 -0.4030
  946MOL0     C30473   9.653   3.823   4.675  0.8984  0.3128  0.0326
  946MOL0     C30474   9.533   3.901   4.637 -0.4101 -0.5448 -0.2919
  946MOL0     C30475   9.445   3.968   4.588 -0.7066 -0.6555  0.2770
  946MOL0     C30476  10.276   3.994   4.703 -0.3961 -0.2308 -0.6638
  946MOL0     C30477  10.410   4.040   4.703 -0.6362  0.2836  0.1926
  946MOL0     C30478  10.531   3.944   4.737 -0.0555 -0.1512 -0.8593
  946MOL0     H30479  10.691   4.255   4.305 -3.9756  0.0814  3.6435
  946MOL0     H30480  10.909   4.374   4.219  0.1393  3.0619  0.3809
  946MOL0     H30481  11.116   4.634   4.518 -0.4571  1.7551 -1.9349
  946MOL0     H30482  11.201   4.681   4.377 -0.7646  0.4447 -0.2950
  946MOL0     H30483  11.357   4.574   4.530  0.7292 -3.1220  2.4665
  946MOL0     H30484  11.241   4.437   4.556  1.9530 -2.3271 -1.3399
  946MOL0     H30485  11.301   4.320   4.380 -1.0573 -0.1461  0.1320
  946MOL0     H30486  11.343   4.465   4.286 -0.2127  0.0964 -0.7565
  946MOL0     H30487  11.539   4.498   4.455 -0.7154  1.8482 -1.6502
  946MOL0     H30488  11.493   4.335   4.498  0.1916 -0.8365 -1.9056
  946MOL0     H30489  11.550   4.257   4.256  1.0666 -0.3988  0.5003
  946MOL0     H30490  11.674   4.327   4.358 -0.2119  0.3351  1.6785
  946MOL0     H30491  11.524   4.481   4.135  0.3843 -1.1894 -1.3380
  946MOL0     H30492  11.644   4.558   4.243 -1.7104  1.5605 -1.4304
  946MOL0     H30493  11.670   4.351   4.031  1.0113 -2.5834  1.6709
  946MOL0     H30494  11.787   4.352   4.174 -0.2907  1.7798  2.0160
  946MOL0     H30495  11.836   4.514   3.958  0.6276  1.1973  0.0426
  946MOL0     H30496  11.748   4.627   4.066 -0.1346 -0.2692 -2.3853
  946MOL0     H30497  12.103   4.504   4.032 -1.0372 -0.5708 -0.9182
  946MOL0     H30498  12.282   4.435   4.323 -1.1934 -0.8974 -0.4725
  946MOL0     H30499  12.298   4.607   4.340 -0.1180 -0.1082  0.9815
  946MOL0     H30500  12.338   4.447   4.093  1.3968  0.4973 -0.2489
  946MOL0     H30501  12.307   4.624   4.087 -4.4570 -0.2964  1.9345
  946MOL0     H30502  12.530   4.510   4.273  2.9965  0.3293 -0.7185
  946MOL0     H30503  12.565   4.518   4.113  2.0525  1.2751  1.0238
  946MOL0     H30504  12.558   4.749   4.096 -0.7935  0.2407 -0.5476
  946MOL0     H30505  12.462   4.787   4.235  1.3764  0.9047  0.3639
  946MOL0     H30506  12.748   4.709   4.039  0.1958  0.3474  0.1293
  946MOL0     H30507  12.913   4.695   3.883 -0.6740  0.0727 -0.4388
  946MOL0     H30508  13.082   4.687   3.936  0.1363 -0.7590  2.2867
  946MOL0     H30509  13.006   4.844   3.902 -0.6928 -0.4243  0.3902
  946MOL0     H30510  13.369   5.069   4.207  0.2663  0.5131  0.2628
  946MOL0     H30511  13.608   5.125   4.186  0.4875  0.7511  0.0602
  946MOL0     H30512  13.884   4.891   4.399 -0.6760  0.9054 -0.2384
  946MOL0     H30513  13.946   4.816   4.246  1.6901  0.1044  2.3920
  946MOL0     H30514  14.019   5.070   4.399  0.5872 -2.7140  3.5116
  946MOL0     H30515  14.125   4.942   4.347  0.1643  0.6909  1.5887
  946MOL0     H30516  13.986   5.145   4.175  1.7194  0.9850 -1.5776
  946MOL0     H30517  14.080   5.014   4.106 -2.2437  0.4849 -1.3028
  946MOL0     H30518  14.288   5.082   4.203  1.1961  1.4624 -2.5090
  946MOL0     H30519  14.200   5.179   4.330 -0.9196  0.1767  0.1590
  946MOL0     H30520  14.147   5.347   4.161  2.0083  1.2206  2.2926
  946MOL0     H30521  14.317   5.319   4.181  0.3208  0.9647 -2.9235
  946MOL0     H30522  14.318   5.181   3.965 -1.0004 -1.6731  1.5117
  946MOL0     H30523  14.295   5.353   3.953 -0.0703 -0.5475 -0.6911
  946MOL0     H30524  14.059   5.334   3.921  0.1277  0.9250 -1.1945
  946MOL0     H30525  14.072   5.162   3.932  3.2085 -1.3053  0.1084
  946MOL0     H30526  14.231   5.166   3.740 -1.2219 -0.0892 -0.3925
  946MOL0     H30527  14.220   5.348   3.755  1.0009 -0.1518  0.2199
  946MOL0     H30528  13.705   4.723   4.292  0.4262  0.6405  1.9032
  946MOL0     H30529  13.462   4.669   4.342  0.0472  2.0663  3.7146
  946MOL0     H30530  13.077   4.813   4.399 -0.4199  0.6416 -0.3296
  946MOL0     H30531  12.831   4.750   4.446  2.1214 -4.1219  0.4000
  946MOL0     H30532  11.003   4.489   4.629  0.7150 -4.0131  0.9520
  946MOL0     H30533  10.790   4.415   4.691  2.0973  2.3883 -0.0569
  946MOL0     H30534  10.369   4.343   4.581  3.0435 -0.5654  0.4279
  946MOL0     H30535  10.122   4.282   4.615 -1.2384  0.4609  0.5721
  946MOL0     H30536   9.932   4.185   4.752  0.4459 -0.3981  0.0632
  946MOL0     H30537   9.887   4.132   4.580 -1.1726 -2.2055 -0.3024
  946MOL0     H30538   9.699   4.071   4.757  1.5860  1.3703  0.6073
  946MOL0     H30539   9.826   3.980   4.829  3.3124 -0.0279 -0.7342
  946MOL0     H30540   9.775   3.933   4.525  5.6283 -0.0231 -0.5307
  946MOL0     H30541   9.858   3.832   4.626  1.3099  1.5585 -2.4215
  946MOL0     H30542   9.656   3.800   4.782  1.1685  1.0029  0.1820
  946MOL0     H30543   9.652   3.730   4.617  0.5135  0.5538 -0.3534
  946MOL0     H30544   9.390   4.038   4.528  1.3638 -1.1546 -2.4258
  946MOL0     H30545  10.258   3.891   4.734 -0.4508  0.3418  1.3290
  946MOL0     H30546  10.499   3.845   4.769  0.8578 -0.5543 -1.1691
  946MOL0     H30547  10.596   3.925   4.651  1.6826  1.1542  0.0801
  946MOL0     H30548  10.587   3.973   4.826  1.2340 -0.9869 -1.3776
  947MOL0     O30549  10.127   8.094  10.384 -0.5034  0.5145 -0.7471
  947MOL0     C30550  10.101   8.055  10.265  0.3915 -0.4381 -0.3680
  947MOL0     O30551   9.979   8.064  10.209 -0.1813  0.6659  0.7744
  947MOL0     C30552   9.872   8.077  10.293 -0.5415  0.2182  1.0340
  947MOL0     C30553   9.808   7.987  10.365 -0.5942 -0.3525  0.1819
  947MOL0     C30554   9.689   8.015  10.435  0.7539 -0.5286 -0.6847
  947MOL0     C30555   9.649   8.154  10.444 -0.7098  0.8691  0.1684
  947MOL0     O30556   9.544   8.186  10.523  0.5185 -0.3434 -0.8063
  947MOL0     C30557   9.550   8.152  10.661  0.5973  0.3902  0.7553
  947MOL0     C30558   9.603   8.263  10.749 -0.3731 -0.0729 -0.1340
  947MOL0     C30559   9.744   8.305  10.728 -0.0750  0.7451  0.0749
  947MOL0     C30560   9.833   8.189  10.777  0.5860 -0.6518 -0.8485
  947MOL0     C30561   9.972   8.234  10.785  0.0040  0.5924  0.5525
  947MOL0     C30562  10.076   8.127  10.849  0.8008 -0.2662  0.1820
  947MOL0     C30563  10.220   8.170  10.828 -0.2173  1.1281  0.6411
  947MOL0     C30564  10.252   8.317  10.830  1.1311 -0.2960  0.4680
  947MOL0     N30565  10.393   8.333  10.803  0.0456 -0.1369 -0.2255
  947MOL0     C30566  10.439   8.317  10.675 -0.1649 -0.7472 -1.5359
  947MOL0     C30567  10.574   8.317  10.704  0.1942  0.3409  1.0662
  947MOL0     C30568  10.683   8.321  10.606 -0.6294 -0.0914 -0.1786
  947MOL0     C30569  10.708   8.465  10.567  0.5323  0.2117  0.2075
  947MOL0     C30570  10.851   8.480  10.507  0.4960 -0.0538  0.0027
  947MOL0     C30571  10.961   8.461  10.608 -0.5907  0.3352 -0.8696
  947MOL0     O30572  10.991   8.584  10.681  0.9553  0.0799 -0.5982
  947MOL0     C30573  11.108   8.583  10.756 -1.3755 -0.3482  0.4535
  947MOL0     C30574  11.124   8.704  10.827 -0.1599 -0.4164  1.3439
  947MOL0     C30575  11.239   8.718  10.912  0.6073  0.5942  0.9996
  947MOL0     C30576  11.259   8.857  10.966 -0.3186 -0.2550 -0.1373
  947MOL0     C30577  11.329   8.611  10.934  0.0365 -0.2733 -0.7425
  947MOL0     C30578  11.450   8.618  11.025 -0.9518  0.6889 -0.5239
  947MOL0     O30579  11.553   8.532  10.991 -0.3174 -0.1250  0.0281
  947MOL0     C30580  11.678   8.536  11.057  0.5191 -0.4237 -0.0981
  947MOL0     C30581  11.693   8.501  11.195  0.4447  0.2331  0.2410
  947MOL0     C30582  11.821   8.487  11.247 -0.2606  0.6558  0.5398
  947MOL0     C30583  11.935   8.517  11.165  0.3705  0.4895 -0.2065
  947MOL0     O30584  12.063   8.515  11.212  0.4308 -0.5040 -0.1522
  947MOL0     C30585  12.096   8.429  11.319 -1.0156  0.1432  0.1930
  947MOL0     C30586  12.253   8.414  11.331 -0.3766 -0.6236  0.7433
  947MOL0     C30587  12.300   8.303  11.229 -1.1925 -0.1108  0.4141
  947MOL0     C30588  12.438   8.251  11.282  0.0561  0.7192  0.3026
  947MOL0     C30589  12.483   8.120  11.204 -0.3273 -0.8772 -0.8868
  947MOL0     C30590  12.605   8.045  11.276 -0.2236 -0.4206 -0.1659
  947MOL0     C30591  12.717   8.143  11.275  0.5083 -0.1305 -0.5134
  947MOL0     C30592  12.853   8.079  11.276 -0.2993  0.4552 -0.4122
  947MOL0    Cl30593  12.854   7.954  11.398 -0.2832 -0.3037 -0.1637
  947MOL0     C30594  11.914   8.564  11.032 -0.4852 -0.5609  0.2917
  947MOL0     C30595  11.789   8.587  10.980  0.2783 -0.2335 -0.2514
  947MOL0     O30596  11.445   8.690  11.124 -0.6436 -1.0362  0.6076
  947MOL0     C30597  11.308   8.494  10.867  0.4391  0.4223  0.6158
  947MOL0     C30598  11.208   8.486  10.768  0.6566  0.0340  0.4303
  947MOL0     N30599  10.602   8.329  10.840 -0.8295 -0.3333 -0.1461
  947MOL0     N30600  10.488   8.324  10.895  0.1336 -0.0553  0.1138
  947MOL0     C30601   9.716   8.246  10.367 -0.1366 -0.4553  0.4953
  947MOL0     C30602   9.826   8.208  10.287 -0.6905 -0.1796 -0.4092
  947MOL0     C30603  10.218   8.008  10.171  0.1906  0.1298 -0.6006
  947MOL0     C30604  10.187   7.945  10.050 -0.0150  1.0468  0.6255
  947MOL0     C30605  10.288   7.876   9.974  0.8392 -0.1984  0.7433
  947MOL0     C30606  10.412   7.864  10.030 -0.4766  0.0241  0.2028
  947MOL0     O30607  10.506   7.770   9.991  0.3742  0.5234 -0.6791
  947MOL0     C30608  10.593   7.806   9.880 -0.1489 -0.6895  0.0869
  947MOL0     C30609  10.639   7.680   9.815  0.5642 -0.5914  0.7634
  947MOL0     C30610  10.704   7.694   9.676  0.2987 -0.1245  1.0386
  947MOL0     C30611  10.600   7.739   9.572  0.0158  0.1845  0.3171
  947MOL0     C30612  10.659   7.818   9.461 -0.0241 -0.2379 -0.6394
  947MOL0     C30613  10.687   7.880   9.365 -1.3546 -0.6785 -0.2182
  947MOL0     C30614  10.438   7.934  10.146 -0.5780  0.2431  0.1103
  947MOL0     C30615  10.351   8.014  10.222  0.7422  0.3285  0.4574
  947MOL0     C30616  10.397   8.083  10.347 -0.2611  0.3474  0.8932
  947MOL0     H30617   9.847   7.887  10.353  0.3639 -0.2866  2.3647
  947MOL0     H30618   9.620   7.948  10.484 -1.2535  1.1657 -1.0507
  947MOL0     H30619   9.586   8.051  10.677 -2.3293 -1.2490 -1.7901
  947MOL0     H30620   9.449   8.137  10.700  0.1666 -0.2078 -0.5354
  947MOL0     H30621   9.545   8.351  10.719  1.4077 -0.2215 -4.8901
  947MOL0     H30622   9.588   8.232  10.852  0.7914  1.9692  0.6992
  947MOL0     H30623   9.748   8.315  10.619 -3.3786 -2.1877 -0.4786
  947MOL0     H30624   9.774   8.397  10.779 -2.7707  0.3926  2.5217
  947MOL0     H30625   9.800   8.142  10.870 -2.4830 -1.5051 -2.2516
  947MOL0     H30626   9.820   8.114  10.698 -0.2896 -0.9812 -0.4009
  947MOL0     H30627   9.970   8.327  10.842  0.5194  0.7424  0.3276
  947MOL0     H30628  10.006   8.252  10.683 -0.8231 -2.5166 -0.3879
  947MOL0     H30629  10.041   8.124  10.952 -0.2162  1.8535 -0.0519
  947MOL0     H30630  10.065   8.025  10.810  1.3792 -0.5015  0.6205
  947MOL0     H30631  10.254   8.119  10.738 -1.0377  0.5328  0.6532
  947MOL0     H30632  10.274   8.134  10.916 -1.1168  1.5088  1.3721
  947MOL0     H30633  10.197   8.374  10.754  1.9973 -0.8958 -0.6586
  947MOL0     H30634  10.231   8.362  10.927 -0.2805  2.0889 -0.8303
  947MOL0     H30635  10.387   8.313  10.580 -0.7034  1.8412 -1.4290
  947MOL0     H30636  10.652   8.269  10.516 -0.6678  0.7415 -0.6564
  947MOL0     H30637  10.767   8.264  10.647 -2.7805 -4.1299 -0.8431
  947MOL0     H30638  10.630   8.492  10.495 -1.1856 -0.3714  1.7534
  947MOL0     H30639  10.702   8.540  10.647 -0.3391  1.3038 -0.8465
  947MOL0     H30640  10.871   8.405  10.430 -1.2315 -0.7103  0.1499
  947MOL0     H30641  10.860   8.573  10.450  3.4621  0.0529  0.4846
  947MOL0     H30642  10.936   8.391  10.688  3.8081  0.7488  1.1516
  947MOL0     H30643  11.053   8.434  10.555  0.6540 -1.6261  2.0607
  947MOL0     H30644  11.058   8.787  10.804 -0.8223 -0.9851  1.1423
  947MOL0     H30645  11.364   8.882  10.943  0.8049 -1.4455  3.1137
  947MOL0     H30646  11.257   8.871  11.074  2.5707  1.6740 -0.1969
  947MOL0     H30647  11.190   8.931  10.924 -0.1752 -0.5158 -0.8591
  947MOL0     H30648  11.610   8.465  11.255 -1.1006  2.5853 -0.3852
  947MOL0     H30649  11.841   8.466  11.351  1.3603  0.3196  0.1934
  947MOL0     H30650  12.063   8.475  11.413  3.0958  2.5416  0.6955
  947MOL0     H30651  12.057   8.327  11.325 -0.2216 -0.1901 -0.1823
  947MOL0     H30652  12.298   8.502  11.284 -0.7266 -1.5823 -1.5077
  947MOL0     H30653  12.286   8.392  11.433  2.1923 -2.0699 -0.3190
  947MOL0     H30654  12.310   8.342  11.127  0.8080 -0.7320  0.3229
  947MOL0     H30655  12.226   8.223  11.215 -0.7241 -0.1761 -2.3130
  947MOL0     H30656  12.439   8.232  11.390  1.3951 -1.1452  0.0149
  947MOL0     H30657  12.505   8.335  11.264  1.8244  0.1415  3.5579
  947MOL0     H30658  12.394   8.057  11.208 -1.2327  0.4174  2.2870
  947MOL0     H30659  12.499   8.142  11.098  0.8467 -2.2227 -1.0248
  947MOL0     H30660  12.627   7.960  11.210 -0.2374 -0.3406 -0.2730
  947MOL0     H30661  12.581   8.009  11.376  2.1729  1.7735  1.3046
  947MOL0     H30662  12.715   8.206  11.364  1.0485 -0.0543 -0.5498
  947MOL0     H30663  12.712   8.200  11.182  0.1855 -1.4489 -1.3403
  947MOL0     H30664  12.926   8.156  11.302  0.8430 -0.4245 -0.9536
  947MOL0     H30665  12.899   8.026  11.193  1.0884 -0.4386  0.8802
  947MOL0     H30666  12.005   8.589  10.978  0.6297 -0.3557  2.1758
  947MOL0     H30667  11.772   8.608  10.875  1.4293 -1.1863 -0.6541
  947MOL0     H30668  11.352   8.402  10.903 -0.6501 -0.5337 -0.4079
  947MOL0     H30669  11.188   8.395  10.711  1.3330  0.2712 -0.2063
  947MOL0     H30670   9.681   8.349  10.370  0.9370 -0.0840  0.8169
  947MOL0     H30671   9.870   8.285  10.225 -2.0735  1.9859  1.1590
  947MOL0     H30672  10.090   7.941  10.001  2.0291  0.5838 -3.9138
  947MOL0     H30673  10.270   7.804   9.895  1.4721 -0.5819  0.9416
  947MOL0     H30674  10.544   7.873   9.809  0.4797 -0.8210 -0.4819
  947MOL0     H30675  10.679   7.866   9.913 -1.5953  2.6987 -1.7630
  947MOL0     H30676  10.552   7.614   9.807 -0.2590  0.3247  1.8061
  947MOL0     H30677  10.709   7.627   9.881 -0.2267 -1.4599  0.9377
  947MOL0     H30678  10.782   7.771   9.682 -0.7291  0.8806  1.7687
  947MOL0     H30679  10.751   7.600   9.647 -1.1990 -0.7441  0.5323
  947MOL0     H30680  10.521   7.798   9.618 -0.3521 -1.3436  1.7484
  947MOL0     H30681  10.556   7.650   9.527  2.9279 -1.1715 -0.1081
  947MOL0     H30682  10.702   7.920   9.266 -1.1778  0.5894  0.3130
  947MOL0     H30683  10.533   7.922  10.197  0.1952 -0.0212 -1.3342
  947MOL0     H30684  10.359   8.032  10.436  1.1059 -1.2219  0.6259
  947MOL0     H30685  10.506   8.083  10.353 -0.2906 -1.3867  1.9448
  947MOL0     H30686  10.367   8.188  10.353 -0.7441  0.2764 -0.1318
  948MOL0     O30687   3.208  10.675   5.307  0.3262 -0.4601  0.0483
  948MOL0     C30688   3.189  10.694   5.189 -0.3102  0.8265  0.8581
  948MOL0     O30689   3.211  10.810   5.129 -0.0275  0.1434  0.0101
  948MOL0     C30690   3.318  10.883   5.156 -0.2255 -0.2455  0.7867
  948MOL0     C30691   3.450  10.840   5.142 -0.4163 -0.4245  0.9754
  948MOL0     C30692   3.563  10.931   5.160 -0.3681  0.5380  0.1508
  948MOL0     C30693   3.540  11.071   5.171  0.2408  0.4713 -0.2036
  948MOL0     O30694   3.646  11.158   5.177  0.0331  0.1181  0.3332
  948MOL0     C30695   3.615  11.301   5.202  0.3638  0.5907  0.0320
  948MOL0     C30696   3.743  11.386   5.201  0.2043 -0.2969  0.3863
  948MOL0     C30697   3.825  11.355   5.066  0.3457 -0.2073  0.0622
  948MOL0     C30698   3.939  11.451   5.060 -0.3803 -0.4131 -0.0564
  948MOL0     C30699   4.041  11.442   4.947  0.2142  0.9162 -0.1208
  948MOL0     C30700   4.107  11.306   4.944 -0.6642 -0.6734  0.0572
  948MOL0     C30701   4.213  11.313   4.841  0.4922 -0.4053 -0.2588
  948MOL0     C30702   4.305  11.190   4.859 -0.1043 -0.0909 -0.3424
  948MOL0     N30703   4.395  11.179   4.740 -0.0744  0.3266 -0.5602
  948MOL0     C30704   4.529  11.183   4.762 -0.1106  0.1805 -0.1122
  948MOL0     C30705   4.583  11.137   4.642 -0.3707 -0.4641 -0.1535
  948MOL0     C30706   4.735  11.109   4.593 -0.2137 -0.3915  0.0631
  948MOL0     C30707   4.849  11.137   4.691 -0.1618  0.5726 -0.4334
  948MOL0     C30708   4.900  11.292   4.691  1.0041  1.1442 -0.6220
  948MOL0     C30709   4.973  11.323   4.819  0.7201 -0.1549  0.6261
  948MOL0     O30710   5.085  11.248   4.855 -0.2766 -0.6419  0.5424
  948MOL0     C30711   5.194  11.273   4.777 -0.0412  0.7640  0.4648
  948MOL0     C30712   5.233  11.379   4.702  0.3412  0.1399  0.2171
  948MOL0     C30713   5.361  11.392   4.643 -1.0137  0.9196  0.8259
  948MOL0     C30714   5.402  11.523   4.587  0.2664 -0.4252  0.2189
  948MOL0     C30715   5.445  11.280   4.639 -0.8456 -0.0048  0.7482
  948MOL0     C30716   5.582  11.276   4.577  0.4623  0.4881  0.7052
  948MOL0     O30717   5.618  11.159   4.512 -0.2573 -0.9566 -0.1106
  948MOL0     C30718   5.741  11.134   4.481  0.3350  0.0562 -0.1525
  948MOL0     C30719   5.780  11.008   4.513  0.6990 -0.0008  0.3451
  948MOL0     C30720   5.911  10.961   4.490  0.6338 -0.3798 -0.7791
  948MOL0     C30721   6.002  11.047   4.436 -0.0520  0.2131  0.1089
  948MOL0     O30722   6.119  11.011   4.393 -0.8301 -0.8511 -0.6050
  948MOL0     C30723   6.234  11.069   4.466  1.0120  0.8715 -0.2069
  948MOL0     C30724   6.337  10.958   4.487 -0.2105  0.1263  0.1200
  948MOL0     C30725   6.481  11.019   4.504 -0.3617 -0.1939 -0.0079
  948MOL0     C30726   6.498  11.107   4.626 -0.3973 -0.0136  0.2722
  948MOL0     C30727   6.643  11.159   4.635 -0.5443  1.0668  0.3863
  948MOL0     C30728   6.694  11.188   4.781 -0.3013  0.1249 -0.0973
  948MOL0     C30729   6.836  11.241   4.783 -0.1756 -0.4897 -1.1151
  948MOL0     C30730   6.875  11.278   4.923 -0.3700  0.0595  0.0500
  948MOL0    Cl30731   7.051  11.298   4.963 -0.0143 -0.2312 -0.6808
  948MOL0     C30732   5.964  11.184   4.412 -0.5005  0.6114 -0.0181
  948MOL0     C30733   5.831  11.221   4.432 -0.4306 -0.2897 -0.4636
  948MOL0     O30734   5.667  11.357   4.624 -0.3914  0.6342  0.5175
  948MOL0     C30735   5.404  11.164   4.705  1.1772 -0.7502 -0.9729
  948MOL0     C30736   5.281  11.160   4.770 -0.1706  0.1360 -0.6425
  948MOL0     N30737   4.480  11.108   4.559  0.2105  0.6516 -0.3257
  948MOL0     N30738   4.368  11.131   4.615 -0.5081 -0.4282 -0.2213
  948MOL0     C30739   3.404  11.109   5.193 -0.1335 -0.0387  0.0900
  948MOL0     C30740   3.299  11.020   5.192  0.3854  0.9439  0.5495
  948MOL0     C30741   3.127  10.585   5.104 -0.6798  0.6461 -0.2282
  948MOL0     C30742   3.093  10.465   5.171  0.5112  0.1972 -0.2495
  948MOL0     C30743   3.034  10.360   5.100 -0.2419  0.1792 -0.2359
  948MOL0     C30744   3.012  10.363   4.961 -0.3775  0.5819 -0.1403
  948MOL0     O30745   2.961  10.260   4.880 -0.7060 -0.4810 -0.1761
  948MOL0     C30746   2.927  10.135   4.948 -1.1647 -0.9975  0.9772
  948MOL0     C30747   2.797  10.131   5.023  0.1901  0.0942 -0.2141
  948MOL0     C30748   2.680  10.170   4.933 -0.7874  1.0673  0.1304
  948MOL0     C30749   2.548  10.208   5.016 -0.6950  0.3418  0.7011
  948MOL0     C30750   2.495  10.077   5.068 -0.5934  0.4026 -1.1807
  948MOL0     C30751   2.443   9.984   5.127  0.1120 -0.4442 -1.0467
  948MOL0     C30752   3.050  10.483   4.892 -0.2529  0.3820  0.5751
  948MOL0     C30753   3.104  10.597   4.962  0.5049  0.6780 -0.5633
  948MOL0     C30754   3.119  10.719   4.883 -0.8582 -0.1002 -0.1302
  948MOL0     H30755   3.461  10.733   5.129 -1.7005 -0.5556  0.8455
  948MOL0     H30756   3.661  10.884   5.162  0.9164  2.8825  4.1851
  948MOL0     H30757   3.567  11.312   5.300 -0.3673 -3.1557  0.2405
  948MOL0     H30758   3.551  11.330   5.119 -0.5635 -1.4493 -0.0144
  948MOL0     H30759   3.707  11.489   5.215 -3.6406 -1.4845  0.3302
  948MOL0     H30760   3.800  11.350   5.287 -0.9364  0.9752  1.7149
  948MOL0     H30761   3.861  11.252   5.071  1.4932  0.2282  2.2117
  948MOL0     H30762   3.753  11.372   4.986 -0.0366  0.0070  0.4463
  948MOL0     H30763   3.886  11.547   5.056 -3.5901 -1.8985  2.2273
  948MOL0     H30764   3.984  11.467   5.158 -0.4448  3.7328 -0.5101
  948MOL0     H30765   4.104  11.530   4.965  0.2709  0.9345 -0.4106
  948MOL0     H30766   3.998  11.448   4.847  0.1583  0.0829 -0.1543
  948MOL0     H30767   4.142  11.281   5.044  0.1477 -2.1775 -0.5662
  948MOL0     H30768   4.029  11.238   4.908 -2.5287  0.3730  1.9290
  948MOL0     H30769   4.263  11.411   4.840  1.8802 -1.0614  0.8046
  948MOL0     H30770   4.174  11.307   4.739  1.0143  0.8422 -0.5514
  948MOL0     H30771   4.363  11.201   4.951 -2.0705 -2.2821  1.3196
  948MOL0     H30772   4.241  11.101   4.869  1.1255 -0.8569  1.1033
  948MOL0     H30773   4.582  11.213   4.852 -0.9477 -0.9907  0.7950
  948MOL0     H30774   4.743  11.167   4.500  5.3143 -0.4978  0.1730
  948MOL0     H30775   4.730  11.001   4.576 -0.3319 -0.5351  0.9521
  948MOL0     H30776   4.829  11.097   4.791  2.3990 -0.2575 -0.1938
  948MOL0     H30777   4.940  11.084   4.662  0.1527  0.4619  0.7126
  948MOL0     H30778   4.980  11.294   4.616  1.7535 -1.1200  0.0464
  948MOL0     H30779   4.819  11.360   4.660  1.2183  1.3299 -0.7781
  948MOL0     H30780   4.996  11.429   4.821 -3.1148  1.0455 -3.3573
  948MOL0     H30781   4.894  11.309   4.894  0.7352 -0.4398  0.5894
  948MOL0     H30782   5.173  11.469   4.688 -3.2124 -2.2014 -1.1954
  948MOL0     H30783   5.401  11.600   4.664  2.6757 -1.8180  1.7776
  948MOL0     H30784   5.347  11.561   4.500 -2.7212  0.2294  2.2534
  948MOL0     H30785   5.504  11.513   4.548 -0.3197  0.7435 -1.7669
  948MOL0     H30786   5.711  10.942   4.565 -0.1641  0.5160 -0.1228
  948MOL0     H30787   5.928  10.857   4.513  1.2254 -0.5306 -1.8247
  948MOL0     H30788   6.278  11.155   4.415  1.6864  0.7643  0.1880
  948MOL0     H30789   6.197  11.105   4.562  0.0049  2.7400 -1.2393
  948MOL0     H30790   6.310  10.909   4.581 -1.1745  1.0919  0.3577
  948MOL0     H30791   6.329  10.883   4.408  0.8760  0.9371 -0.7925
  948MOL0     H30792   6.488  11.074   4.409 -1.1938 -1.1222 -0.6297
  948MOL0     H30793   6.564  10.950   4.492  1.8490  1.9315  1.9554
  948MOL0     H30794   6.475  11.043   4.712  1.4718 -0.7035  0.3131
  948MOL0     H30795   6.413  11.175   4.632 -1.8969 -1.1493 -4.2348
  948MOL0     H30796   6.710  11.081   4.598 -2.1626  0.1487 -0.7213
  948MOL0     H30797   6.658  11.241   4.565  1.7192  0.3853 -0.0143
  948MOL0     H30798   6.678  11.100   4.844  0.7295 -0.0258 -0.0256
  948MOL0     H30799   6.627  11.264   4.821  0.1148 -0.5814  2.0706
  948MOL0     H30800   6.856  11.326   4.717 -0.2507 -1.1926 -2.0591
  948MOL0     H30801   6.907  11.167   4.745  0.5223  0.8636 -2.5635
  948MOL0     H30802   6.820  11.213   4.993  0.9521 -1.2809 -0.1004
  948MOL0     H30803   6.836  11.377   4.946 -0.0332  0.6066 -1.6804
  948MOL0     H30804   6.028  11.248   4.352 -0.9520  0.0942 -1.0828
  948MOL0     H30805   5.793  11.321   4.416  0.1478  0.1425  0.7751
  948MOL0     H30806   5.472  11.080   4.706 -0.1166 -1.8386  0.1145
  948MOL0     H30807   5.266  11.080   4.842  0.4199 -0.8935 -1.6294
  948MOL0     H30808   3.376  11.213   5.204  1.4349  0.2949  1.2028
  948MOL0     H30809   3.197  11.058   5.193 -0.5184 -0.9783 -3.0604
  948MOL0     H30810   3.099  10.453   5.279  0.6324 -0.9126 -0.3691
  948MOL0     H30811   3.012  10.272   5.159 -2.1402  1.6090  1.3051
  948MOL0     H30812   2.907  10.063   4.868  0.9495  0.6410 -1.1864
  948MOL0     H30813   3.009  10.096   5.008 -1.5348 -1.0186  1.4727
  948MOL0     H30814   2.795  10.204   5.104  1.6258  2.1911 -1.9412
  948MOL0     H30815   2.782  10.031   5.065  3.1053  0.7775  2.8159
  948MOL0     H30816   2.719  10.247   4.866 -1.0158  1.0151 -0.0651
  948MOL0     H30817   2.654  10.085   4.869  2.9586 -0.1407 -0.0004
  948MOL0     H30818   2.479  10.248   4.941  0.2737  0.7486  0.0130
  948MOL0     H30819   2.556  10.280   5.098 -2.2741  0.3693  0.8695
  948MOL0     H30820   2.403   9.900   5.180  0.1083  0.5906  0.6539
  948MOL0     H30821   3.027  10.482   4.786 -3.0397  0.8456  1.1106
  948MOL0     H30822   3.067  10.806   4.923  2.9257  3.7250 -2.6295
  948MOL0     H30823   3.225  10.746   4.880 -1.0007  0.3620 -1.4471
  948MOL0     H30824   3.088  10.714   4.778  0.5476  1.2844 -0.6466
  949MOL0     O30825   5.846   8.120   3.735 -1.0624 -0.4693  0.7757
  949MOL0     C30826   5.856   8.101   3.613 -0.4531 -0.4348 -0.7906
  949MOL0     O30827   5.968   8.127   3.542 -1.0826 -0.2832 -0.2821
  949MOL0     C30828   6.077   8.179   3.610  0.0663  0.9236 -0.7534
  949MOL0     C30829   6.169   8.102   3.683  0.5495  0.2180  0.4350
  949MOL0     C30830   6.283   8.162   3.739  0.5617  0.9312  0.0417
  949MOL0     C30831   6.321   8.296   3.711  0.0091  1.1423  0.0667
  949MOL0     O30832   6.443   8.345   3.759 -0.0010 -0.0455  0.3187
  949MOL0     C30833   6.500   8.474   3.712 -0.4233 -0.6415 -0.0891
  949MOL0     C30834   6.610   8.511   3.819 -0.0890  0.4940  0.6174
  949MOL0     C30835   6.670   8.657   3.817  0.1906  0.5462 -0.2646
  949MOL0     C30836   6.768   8.678   3.703  0.8954 -0.1463  0.1790
  949MOL0     C30837   6.829   8.821   3.694 -0.1127  0.3556 -0.5919
  949MOL0     C30838   6.947   8.818   3.597 -1.0449 -0.0375 -0.8248
  949MOL0     C30839   7.031   8.950   3.598 -0.0307 -0.6344 -0.1976
  949MOL0     C30840   7.155   8.936   3.522  1.2966 -1.2777  0.3069
  949MOL0     N30841   7.260   9.036   3.536 -0.0777  0.5284  0.4809
  949MOL0     C30842   7.302   9.114   3.432 -0.3375  0.1468 -0.5951
  949MOL0     C30843   7.412   9.176   3.480 -0.3538 -0.4261 -0.2990
  949MOL0     C30844   7.488   9.277   3.396  0.2343 -0.7883  0.5543
  949MOL0     C30845   7.516   9.223   3.259 -0.0314 -0.2022  0.2042
  949MOL0     C30846   7.602   9.320   3.178  0.3226 -0.4486  0.0532
  949MOL0     C30847   7.684   9.257   3.061  0.0905  0.1137 -0.2778
  949MOL0     O30848   7.769   9.152   3.114 -0.0855  0.0743 -0.8104
  949MOL0     C30849   7.858   9.096   3.022 -0.9751 -0.0499 -0.7813
  949MOL0     C30850   7.819   9.041   2.900 -0.3657 -0.5943 -1.0672
  949MOL0     C30851   7.913   8.995   2.802 -0.7274 -0.1207 -0.8084
  949MOL0     C30852   7.868   8.926   2.678 -0.4017  0.1157 -0.0208
  949MOL0     C30853   8.051   9.007   2.841  0.0107 -0.0655 -0.7757
  949MOL0     C30854   8.155   8.961   2.760  0.4478  0.4842  0.3208
  949MOL0     O30855   8.249   8.906   2.842 -1.1937  0.3479  0.5340
  949MOL0     C30856   8.378   8.891   2.795 -0.4386  0.3845  0.1850
  949MOL0     C30857   8.438   8.760   2.793 -0.4584  0.7385  0.5061
  949MOL0     C30858   8.564   8.748   2.728 -0.2909  0.3684 -0.2311
  949MOL0     C30859   8.624   8.847   2.659 -1.0663  0.4176 -0.5174
  949MOL0     O30860   8.749   8.811   2.605 -0.0393 -0.3348  0.0891
  949MOL0     C30861   8.849   8.920   2.595 -0.4632  0.0904 -0.5686
  949MOL0     C30862   8.904   8.963   2.736  0.3071  0.2547  0.4581
  949MOL0     C30863   8.981   9.091   2.730  0.2750 -0.2364  0.1905
  949MOL0     C30864   9.053   9.113   2.872  0.0690 -1.0100  0.9112
  949MOL0     C30865   9.094   9.260   2.897  0.5765  0.3812 -0.8029
  949MOL0     C30866   9.166   9.259   3.039  0.3214  0.3340 -0.0943
  949MOL0     C30867   9.217   9.391   3.077  0.2218  0.2783  0.3188
  949MOL0     C30868   9.296   9.392   3.215  0.3867  0.4218  0.1244
  949MOL0    Cl30869   9.198   9.328   3.346 -0.0643 -0.2711  0.3335
  949MOL0     C30870   8.570   8.973   2.660  0.4965  0.1256 -0.5066
  949MOL0     C30871   8.448   9.001   2.730  1.0729 -0.1078  0.3913
  949MOL0     O30872   8.171   8.978   2.636 -0.0057  0.2515 -0.4216
  949MOL0     C30873   8.095   9.062   2.967  0.1890  0.4020 -0.3595
  949MOL0     C30874   7.992   9.113   3.045 -0.2169  0.0496  0.1976
  949MOL0     N30875   7.427   9.140   3.613 -0.4264  0.2201  0.2061
  949MOL0     N30876   7.345   9.044   3.640  0.1329 -0.5858 -0.0069
  949MOL0     C30877   6.224   8.371   3.642 -0.2479  0.0181 -0.5144
  949MOL0     C30878   6.103   8.315   3.602  0.4909  0.2004 -0.1296
  949MOL0     C30879   5.737   8.048   3.552  0.0847 -0.1574  0.3537
  949MOL0     C30880   5.653   7.970   3.633 -0.0025 -0.5951 -1.0113
  949MOL0     C30881   5.534   7.910   3.588 -0.4840  0.3291 -1.0437
  949MOL0     C30882   5.499   7.921   3.452 -0.2662 -0.4420  0.3636
  949MOL0     O30883   5.395   7.868   3.394  0.1716 -0.4482 -0.5217
  949MOL0     C30884   5.435   7.757   3.313 -0.0153 -0.2519 -0.1438
  949MOL0     C30885   5.302   7.684   3.280  0.2044 -0.7488 -0.0308
  949MOL0     C30886   5.306   7.533   3.256 -0.1884  0.1030  0.0734
  949MOL0     C30887   5.351   7.484   3.117 -0.0733 -0.9124  0.0904
  949MOL0     C30888   5.262   7.542   3.012  0.1154  0.1942  0.6638
  949MOL0     C30889   5.194   7.583   2.921  0.6154 -0.2520 -0.6295
  949MOL0     C30890   5.580   7.999   3.369 -0.1643 -0.0177  1.0364
  949MOL0     C30891   5.696   8.067   3.414 -0.6667  0.3574  0.6044
  949MOL0     C30892   5.765   8.159   3.315 -0.3062 -0.1928 -0.2426
  949MOL0     H30893   6.134   8.000   3.697 -1.0833  0.7203  0.1639
  949MOL0     H30894   6.343   8.094   3.799 -0.6647 -1.3549 -1.1737
  949MOL0     H30895   6.428   8.557   3.710  0.0501 -0.2047  0.4899
  949MOL0     H30896   6.539   8.449   3.613  1.2142 -1.8096  0.8036
  949MOL0     H30897   6.577   8.484   3.920  0.4962 -3.4032 -0.0882
  949MOL0     H30898   6.700   8.450   3.809  1.3910  1.9528  3.6652
  949MOL0     H30899   6.585   8.726   3.813 -0.3425 -0.0738  0.1674
  949MOL0     H30900   6.718   8.678   3.914 -1.7108 -0.5450  0.9814
  949MOL0     H30901   6.851   8.610   3.724  0.2906 -1.9465 -2.7539
  949MOL0     H30902   6.731   8.652   3.604  3.4395  2.3092 -1.5920
  949MOL0     H30903   6.865   8.851   3.793 -2.8621  1.2588  0.2441
  949MOL0     H30904   6.759   8.901   3.665  0.3505  2.2215  2.8408
  949MOL0     H30905   7.006   8.730   3.625 -0.1181  1.3697  2.0490
  949MOL0     H30906   6.916   8.802   3.493 -0.9024 -0.3560 -0.8193
  949MOL0     H30907   7.060   8.966   3.702 -2.2773 -0.4349  0.4492
  949MOL0     H30908   6.975   9.039   3.567  1.8682  0.7448  0.1366
  949MOL0     H30909   7.203   8.844   3.555  1.6653 -1.0448  0.4262
  949MOL0     H30910   7.128   8.917   3.418 -1.1680  1.2285  0.3626
  949MOL0     H30911   7.249   9.111   3.337 -2.2510 -0.3735  0.4358
  949MOL0     H30912   7.577   9.307   3.451  0.6415 -1.0127  0.0328
  949MOL0     H30913   7.423   9.365   3.392 -4.4285 -3.8444  1.0224
  949MOL0     H30914   7.560   9.123   3.263  1.4693  0.4230  0.0261
  949MOL0     H30915   7.419   9.208   3.210  0.1423 -2.4747  0.4364
  949MOL0     H30916   7.541   9.407   3.151  1.2285  0.2393  0.1750
  949MOL0     H30917   7.683   9.359   3.240  1.4071 -3.4641  0.7146
  949MOL0     H30918   7.609   9.217   2.991  1.4364  1.1492 -2.4195
  949MOL0     H30919   7.728   9.339   3.004 -4.4280  1.3989 -2.4417
  949MOL0     H30920   7.715   9.050   2.870 -1.6759 -0.4903  2.8652
  949MOL0     H30921   7.765   8.893   2.695  0.0663 -0.7380  1.3681
  949MOL0     H30922   7.929   8.837   2.660  1.1469  0.6114  2.2710
  949MOL0     H30923   7.880   8.996   2.595  5.4594 -0.7836 -0.3403
  949MOL0     H30924   8.401   8.668   2.838  1.0330 -0.7925 -1.2593
  949MOL0     H30925   8.602   8.647   2.735  2.0653  1.2157  0.0844
  949MOL0     H30926   8.940   8.898   2.538  1.0239  3.9578  0.0235
  949MOL0     H30927   8.810   9.016   2.559  2.6309  2.6877  2.3690
  949MOL0     H30928   8.814   8.990   2.792  0.4440  2.8834 -0.4558
  949MOL0     H30929   8.967   8.884   2.777  1.6708 -0.1737 -2.2111
  949MOL0     H30930   8.919   9.171   2.689  3.0543  1.2065 -1.5506
  949MOL0     H30931   9.058   9.086   2.653  1.4714 -2.0364  1.4200
  949MOL0     H30932   9.136   9.043   2.888  0.9525  0.0321  1.0933
  949MOL0     H30933   8.972   9.097   2.944 -0.3046  1.3823  1.1005
  949MOL0     H30934   9.167   9.281   2.818  1.1958 -0.4199 -0.4533
  949MOL0     H30935   9.010   9.328   2.878  0.8446  1.2614  0.9511
  949MOL0     H30936   9.247   9.185   3.046  0.8024  0.9971  2.1800
  949MOL0     H30937   9.090   9.225   3.111 -1.8285  0.5510 -2.1556
  949MOL0     H30938   9.131   9.458   3.082  0.3821  0.4892  0.2921
  949MOL0     H30939   9.293   9.432   3.009  0.2773 -0.6420 -0.1792
  949MOL0     H30940   9.329   9.494   3.238  2.4116 -0.3317  0.7731
  949MOL0     H30941   9.387   9.331   3.216 -1.1295 -1.9563 -0.0814
  949MOL0     H30942   8.599   9.057   2.597  1.4568 -2.1627 -3.3263
  949MOL0     H30943   8.395   9.095   2.733 -1.4867 -1.3713 -1.1438
  949MOL0     H30944   8.195   9.070   3.008 -0.3779 -0.7944  1.3575
  949MOL0     H30945   8.019   9.166   3.135 -0.5975  0.6352 -0.0288
  949MOL0     H30946   6.248   8.472   3.610 -0.7634  0.9515  1.8496
  949MOL0     H30947   6.021   8.371   3.559  0.3653 -0.9294 -1.4491
  949MOL0     H30948   5.679   7.943   3.734  2.9219  0.7745 -1.2921
  949MOL0     H30949   5.469   7.866   3.663  1.9101 -0.8761  0.4255
  949MOL0     H30950   5.488   7.795   3.225  0.3874 -0.2703  0.0909
  949MOL0     H30951   5.494   7.679   3.362  0.9686  0.5945  0.0602
  949MOL0     H30952   5.262   7.732   3.190 -1.5804 -0.2785  0.9683
  949MOL0     H30953   5.238   7.707   3.365  0.4868 -0.6246  0.1509
  949MOL0     H30954   5.385   7.495   3.322  1.0194  2.4203  0.0474
  949MOL0     H30955   5.212   7.484   3.285  0.2840 -1.4154 -0.8338
  949MOL0     H30956   5.340   7.375   3.114  0.0689 -0.9914 -4.3091
  949MOL0     H30957   5.457   7.508   3.100 -0.0089 -1.3019 -0.0725
  949MOL0     H30958   5.136   7.639   2.850  2.3269  0.4776 -1.5277
  949MOL0     H30959   5.538   8.003   3.269  2.8694 -0.8857 -0.3694
  949MOL0     H30960   5.717   8.155   3.217  0.0426  2.8901 -0.6282
  949MOL0     H30961   5.774   8.262   3.349  0.1715 -0.4661  0.4737
  949MOL0     H30962   5.867   8.120   3.307 -0.0697  0.6121 -1.4594
  950MOL0     O30963   8.232   1.788  10.916 -0.0181  0.1817  0.2509
  950MOL0     C30964   8.290   1.895  10.901 -0.1244 -0.3087 -0.1303
  950MOL0     O30965   8.405   1.934  10.977  0.0422 -0.8183 -0.2794
  950MOL0     C30966   8.441   1.828  11.056  0.6265 -0.1341 -0.2782
  950MOL0     C30967   8.377   1.806  11.189  1.2694  0.1261  0.0281
  950MOL0     C30968   8.414   1.688  11.265  0.2035 -0.0149 -0.3669
  950MOL0     C30969   8.514   1.602  11.211 -0.4401  0.7653  0.2266
  950MOL0     O30970   8.545   1.489  11.287  0.4491 -1.2741 -0.4180
  950MOL0     C30971   8.686   1.466  11.319  0.3847  0.1561 -1.1801
  950MOL0     C30972   8.693   1.323  11.376  0.5392 -0.4440 -0.6442
  950MOL0     C30973   8.831   1.311  11.434  0.3749  0.0826  0.1347
  950MOL0     C30974   8.869   1.170  11.470  0.6780 -0.2142 -0.3448
  950MOL0     C30975   8.909   1.079  11.353 -0.0016 -0.9030 -0.5222
  950MOL0     C30976   8.963   0.944  11.400  0.1907 -0.4308  0.2995
  950MOL0     C30977   9.103   0.967  11.447 -0.8531 -0.7356 -0.8170
  950MOL0     C30978   9.161   0.829  11.485 -0.2603  0.4891  0.1699
  950MOL0     N30979   9.251   0.835  11.606 -0.1537  0.1183 -0.7089
  950MOL0     C30980   9.388   0.837  11.611  0.0066  0.2882 -0.7050
  950MOL0     C30981   9.426   0.855  11.743  0.1668  0.4615  0.7036
  950MOL0     C30982   9.566   0.840  11.803  0.2633  0.0149  0.2331
  950MOL0     C30983   9.670   0.835  11.691 -0.0821  0.1440 -0.2523
  950MOL0     C30984   9.807   0.879  11.743 -0.3284  0.2964  0.1505
  950MOL0     C30985   9.865   0.788  11.848  0.9975  0.6612  0.8468
  950MOL0     O30986   9.980   0.839  11.910  0.2138  0.4653 -0.1477
  950MOL0     C30987  10.098   0.832  11.843 -0.0197  0.3499  0.3830
  950MOL0     C30988  10.119   0.801  11.711 -0.0249  0.6689  0.3309
  950MOL0     C30989  10.248   0.804  11.662  1.9900  0.5149 -0.3231
  950MOL0     C30990  10.268   0.783  11.522 -0.4713 -0.1767  0.5047
  950MOL0     C30991  10.362   0.826  11.748  0.3765  0.5572  0.7259
  950MOL0     C30992  10.502   0.832  11.688  0.0204  1.0719 -0.6383
  950MOL0     O30993  10.547   0.725  11.624  0.2600 -0.0842  0.3940
  950MOL0     C30994  10.661   0.754  11.546 -0.2735 -0.2016 -0.2343
  950MOL0     C30995  10.778   0.676  11.573 -0.3043  0.0922  0.5065
  950MOL0     C30996  10.900   0.695  11.492  0.3525 -0.0465 -0.5195
  950MOL0     C30997  10.895   0.786  11.387  0.7894  0.2822 -0.3209
  950MOL0     O30998  11.007   0.800  11.300  0.3370 -0.0635  0.0934
  950MOL0     C30999  11.139   0.780  11.352 -0.1700 -0.6895 -0.7625
  950MOL0     C31000  11.167   0.864  11.474  0.7054 -0.1715 -0.1199
  950MOL0     C31001  11.310   0.833  11.517  0.5553  0.3523  0.2576
  950MOL0     C31002  11.396   0.954  11.495  0.5807 -0.6791 -0.1226
  950MOL0     C31003  11.528   0.929  11.566 -0.3944  0.0265  0.4870
  950MOL0     C31004  11.638   1.016  11.506  0.1077  0.7641 -0.1600
  950MOL0     C31005  11.782   0.986  11.562 -0.0027 -0.2837 -0.1720
  950MOL0     C31006  11.839   0.849  11.538  0.1833  0.2541  0.3707
  950MOL0    Cl31007  12.010   0.842  11.571 -0.5244 -0.4626  0.3570
  950MOL0     C31008  10.779   0.861  11.367 -0.1681  0.0234 -0.4026
  950MOL0     C31009  10.667   0.843  11.447  0.4257 -0.4138 -0.6585
  950MOL0     O31010  10.581   0.920  11.730  0.4891  0.0748 -0.4942
  950MOL0     C31011  10.337   0.858  11.881  0.3232 -0.0101  0.0814
  950MOL0     C31012  10.204   0.857  11.923 -0.4812 -0.7471 -0.6892
  950MOL0     N31013   9.305   0.873  11.807 -0.1402  0.3542 -0.3648
  950MOL0     N31014   9.204   0.859  11.731  1.0080  0.1241 -0.1376
  950MOL0     C31015   8.579   1.634  11.084 -0.1643  0.1180  0.7610
  950MOL0     C31016   8.539   1.738  11.011  0.4155 -0.8754  0.2995
  950MOL0     C31017   8.231   1.994  10.806 -0.2721  0.7617  0.2817
  950MOL0     C31018   8.170   1.946  10.686  0.6938  0.3981 -0.0282
  950MOL0     C31019   8.108   2.035  10.592 -0.7309  0.4095  1.1698
  950MOL0     C31020   8.109   2.171  10.612 -0.2442 -0.5455  0.2187
  950MOL0     O31021   8.044   2.262  10.535 -0.2918 -0.6118  0.0042
  950MOL0     C31022   7.968   2.216  10.424  0.5271 -0.0420  0.8060
  950MOL0     C31023   7.864   2.317  10.388  0.2646 -0.8443 -0.3109
  950MOL0     C31024   7.910   2.424  10.279  0.4359  0.3099 -0.6851
  950MOL0     C31025   7.788   2.516  10.251 -0.8414 -0.4970  0.3050
  950MOL0     C31026   7.698   2.442  10.159 -0.2439  0.6238  0.4742
  950MOL0     C31027   7.637   2.386  10.073 -1.2573 -0.6066  0.9064
  950MOL0     C31028   8.186   2.217  10.719  0.1998 -0.1578  0.2395
  950MOL0     C31029   8.247   2.131  10.810 -0.0057  0.3185  0.4207
  950MOL0     C31030   8.323   2.203  10.915  0.6085  0.3168 -0.2300
  950MOL0     H31031   8.310   1.879  11.233  2.2283  0.8060  0.3810
  950MOL0     H31032   8.389   1.688  11.371 -1.5300  2.9488 -0.6715
  950MOL0     H31033   8.718   1.543  11.390 -1.0225 -1.7776  1.7463
  950MOL0     H31034   8.751   1.445  11.234  1.3339 -1.8953 -0.0267
  950MOL0     H31035   8.620   1.326  11.458  3.4582  1.7774  2.1077
  950MOL0     H31036   8.662   1.242  11.309 -0.8396 -3.0146  2.7908
  950MOL0     H31037   8.907   1.337  11.359 -0.1132  1.9926  0.2534
  950MOL0     H31038   8.828   1.374  11.523 -3.2071  1.1160 -0.5670
  950MOL0     H31039   8.956   1.180  11.537  1.6964  2.1781 -1.9002
  950MOL0     H31040   8.785   1.126  11.525 -0.7460 -0.1610 -2.3825
  950MOL0     H31041   8.981   1.139  11.297  1.7731  2.0003  4.2432
  950MOL0     H31042   8.818   1.062  11.295 -2.3821  1.0799  2.3314
  950MOL0     H31043   8.902   0.909  11.483 -0.3062  2.9006  1.4765
  950MOL0     H31044   8.978   0.883  11.310 -2.4873  1.1198 -1.3361
  950MOL0     H31045   9.104   1.030  11.537 -0.4030 -2.1033  0.1533
  950MOL0     H31046   9.164   1.023  11.375 -3.3454 -1.0459 -3.3401
  950MOL0     H31047   9.079   0.764  11.516 -0.6474  2.3639  3.5288
  950MOL0     H31048   9.213   0.787  11.398 -1.2947 -1.0032  0.2306
  950MOL0     H31049   9.451   0.834  11.522 -1.2962  2.0013 -1.7646
  950MOL0     H31050   9.567   0.748  11.863  0.1069  0.2612  0.6166
  950MOL0     H31051   9.582   0.926  11.868 -3.2754  2.8462 -2.2372
  950MOL0     H31052   9.661   0.732  11.653 -3.6291  0.0240  0.5490
  950MOL0     H31053   9.650   0.903  11.608  0.0910  0.8392  0.2716
  950MOL0     H31054   9.877   0.886  11.659  0.1118  0.1179  0.5020
  950MOL0     H31055   9.814   0.986  11.768  0.1190  0.8872 -2.2169
  950MOL0     H31056   9.792   0.773  11.928 -0.1181 -0.9859 -0.3961
  950MOL0     H31057   9.884   0.692  11.798 -1.6093  0.8554 -0.6903
  950MOL0     H31058  10.042   0.757  11.648 -0.5444  0.5919  1.0115
  950MOL0     H31059  10.307   0.682  11.507  3.5446  1.3247 -0.3714
  950MOL0     H31060  10.336   0.857  11.480 -0.6557  0.7411  1.7617
  950MOL0     H31061  10.176   0.785  11.462 -0.4673 -1.4619  0.4300
  950MOL0     H31062  10.762   0.596  11.644 -1.0554 -0.3871 -0.1772
  950MOL0     H31063  10.982   0.630  11.517  0.9831  1.6475  2.3327
  950MOL0     H31064  11.150   0.676  11.382  1.1027 -1.0505 -2.3050
  950MOL0     H31065  11.209   0.806  11.271 -1.4580  1.3433 -1.2910
  950MOL0     H31066  11.145   0.970  11.456 -0.3034 -0.7979 -3.3853
  950MOL0     H31067  11.097   0.832  11.552  0.2291 -1.7973 -1.1508
  950MOL0     H31068  11.348   0.740  11.474 -0.4544 -0.4108  0.9772
  950MOL0     H31069  11.311   0.807  11.623 -0.5334  1.4618  0.5597
  950MOL0     H31070  11.353   1.044  11.540 -1.0798 -0.0414 -2.7169
  950MOL0     H31071  11.393   0.978  11.388 -1.0279  1.4038  0.3186
  950MOL0     H31072  11.519   0.953  11.673  1.1764  0.3305  0.5702
  950MOL0     H31073  11.558   0.826  11.547  2.2997  0.9695 -0.9674
  950MOL0     H31074  11.608   1.114  11.544  2.0607  0.7983  1.4988
  950MOL0     H31075  11.637   1.019  11.397  2.0616  2.5144 -0.1963
  950MOL0     H31076  11.782   1.015  11.668 -2.0860 -2.0371  0.4045
  950MOL0     H31077  11.853   1.056  11.518  2.4684 -1.8111  1.1756
  950MOL0     H31078  11.816   0.819  11.435 -0.3142 -0.9689  0.8137
  950MOL0     H31079  11.790   0.773  11.600 -1.3111 -2.9080 -4.1233
  950MOL0     H31080  10.779   0.941  11.293  0.5879  0.8901  0.5057
  950MOL0     H31081  10.587   0.917  11.442  0.4176 -0.5163 -3.4508
  950MOL0     H31082  10.416   0.876  11.954 -0.2498  0.9491  0.4830
  950MOL0     H31083  10.183   0.898  12.022  1.3080  1.8045 -1.2379
  950MOL0     H31084   8.665   1.576  11.051 -0.6657  0.0949 -0.5351
  950MOL0     H31085   8.588   1.763  10.917 -1.1353 -2.3186 -0.9632
  950MOL0     H31086   8.180   1.839  10.667  1.8045  0.2382  1.3541
  950MOL0     H31087   8.073   1.987  10.502  2.3854 -1.4608  0.7995
  950MOL0     H31088   8.028   2.192  10.336 -2.7806 -0.9053 -1.3970
  950MOL0     H31089   7.917   2.122  10.447  0.4138 -0.0015  0.7244
  950MOL0     H31090   7.838   2.374  10.478 -2.0798 -0.3861 -1.1746
  950MOL0     H31091   7.772   2.265  10.359  1.2674 -1.7973 -1.9590
  950MOL0     H31092   7.998   2.480  10.312 -0.6493  2.0922 -0.7063
  950MOL0     H31093   7.935   2.376  10.184  1.0472 -0.4934 -0.1390
  950MOL0     H31094   7.831   2.598  10.193  2.7874 -1.4705  1.3244
  950MOL0     H31095   7.735   2.549  10.340 -0.3745  1.3420 -0.0650
  950MOL0     H31096   7.582   2.355   9.986 -1.5564  0.5590  0.6580
  950MOL0     H31097   8.195   2.325  10.719 -2.5760  0.3795 -4.7289
  950MOL0     H31098   8.318   2.150  11.010  2.8644 -0.0583 -0.2644
  950MOL0     H31099   8.429   2.197  10.887  0.1324 -0.5620 -1.9631
  950MOL0     H31100   8.283   2.304  10.926 -0.6008 -0.2087  0.3684
  951MOL0     O31101  10.404   9.971  10.300  0.7806  0.1451  0.3643
  951MOL0     C31102  10.487  10.058  10.303  0.6550  0.4573 -0.0309
  951MOL0     O31103  10.497  10.168  10.219 -0.1812  0.6608  0.2114
  951MOL0     C31104  10.402  10.195  10.115 -0.0893 -0.1471 -1.0430
  951MOL0     C31105  10.337  10.321  10.100  0.3558 -0.8099 -0.1759
  951MOL0     C31106  10.235  10.338  10.003 -0.2607  0.1147  0.0385
  951MOL0     C31107  10.192  10.235   9.930 -0.5774  0.1608 -0.4889
  951MOL0     O31108  10.092  10.263   9.842  0.1442 -0.6563  0.3332
  951MOL0     C31109  10.044  10.172   9.748  1.2003  0.3042 -0.0961
  951MOL0     C31110   9.935  10.237   9.660  0.2930 -0.0293 -0.4073
  951MOL0     C31111   9.893  10.150   9.539  1.3481  0.3694  0.4155
  951MOL0     C31112  10.002  10.085   9.458 -0.4594 -0.6404 -0.9598
  951MOL0     C31113   9.948  10.058   9.321 -0.3643  0.4036  0.2195
  951MOL0     C31114   9.880   9.914   9.319  0.1461  0.0472 -0.5358
  951MOL0     C31115   9.821   9.879   9.178  0.9818  0.2503  0.1378
  951MOL0     C31116   9.908   9.897   9.052  0.1586 -0.5747  0.1951
  951MOL0     N31117   9.845   9.858   8.921 -0.5995  0.4961  0.1437
  951MOL0     C31118   9.759   9.936   8.858 -0.3707  0.3561  0.3922
  951MOL0     C31119   9.753   9.881   8.731 -0.5002  0.4314  0.8606
  951MOL0     C31120   9.672   9.940   8.618  0.1897 -0.6177  0.1959
  951MOL0     C31121   9.555   9.850   8.562  0.4459  0.1848  0.2497
  951MOL0     C31122   9.576   9.696   8.557  0.3470  0.2110  0.1959
  951MOL0     C31123   9.447   9.625   8.516  0.1145  1.0048  0.5361
  951MOL0     O31124   9.415   9.657   8.381  0.2827 -0.0438 -0.2270
  951MOL0     C31125   9.302   9.604   8.318  0.7765 -0.0998  0.4251
  951MOL0     C31126   9.268   9.648   8.187 -0.5638 -0.0730 -0.8111
  951MOL0     C31127   9.163   9.592   8.109 -0.0300  1.1507 -0.4712
  951MOL0     C31128   9.147   9.638   7.967 -0.3308 -0.3589 -0.2088
  951MOL0     C31129   9.073   9.497   8.179 -0.7027  0.4531  0.3771
  951MOL0     C31130   8.954   9.437   8.111 -0.4741  0.8532 -0.3456
  951MOL0     O31131   8.851   9.379   8.184 -0.2499 -0.0570 -0.1109
  951MOL0     C31132   8.739   9.318   8.136  0.3725 -0.2508  0.1588
  951MOL0     C31133   8.673   9.360   8.016 -0.0823  0.6932 -0.5723
  951MOL0     C31134   8.551   9.299   7.980 -0.6188  0.5971 -0.2576
  951MOL0     C31135   8.487   9.207   8.057 -0.2568 -1.1205 -0.4038
  951MOL0     O31136   8.366   9.171   8.014  0.9702 -0.0661  0.3584
  951MOL0     C31137   8.297   9.065   8.082 -0.6694 -0.0544 -0.6397
  951MOL0     C31138   8.172   9.020   8.006 -0.5161 -0.2409  0.4992
  951MOL0     C31139   8.068   9.133   7.989 -0.5613  0.6274  0.6620
  951MOL0     C31140   7.924   9.080   7.955  0.7117 -0.2489 -0.4898
  951MOL0     C31141   7.813   9.194   7.967 -0.3903  0.7412 -0.3572
  951MOL0     C31142   7.676   9.149   7.929 -0.6533  0.3661 -0.1609
  951MOL0     C31143   7.578   9.263   7.948 -1.1769 -0.0600  0.0829
  951MOL0     C31144   7.437   9.213   7.918 -0.6541  0.9904  0.0326
  951MOL0    Cl31145   7.315   9.343   7.900  0.3125  0.3458  0.0411
  951MOL0     C31146   8.537   9.181   8.187  0.2737 -0.4771  0.2634
  951MOL0     C31147   8.660   9.240   8.225 -0.1366 -1.6370  0.0929
  951MOL0     O31148   8.952   9.437   7.990 -1.0536 -0.5797  0.6012
  951MOL0     C31149   9.106   9.463   8.306  0.0855  0.3924 -0.6827
  951MOL0     C31150   9.220   9.504   8.377 -0.0117 -0.1275  0.3140
  951MOL0     N31151   9.857   9.789   8.715  0.1593 -0.5414 -0.5973
  951MOL0     N31152   9.902   9.767   8.833  0.2677 -0.1037  0.5542
  951MOL0     C31153  10.250  10.110   9.938 -0.4715  0.3234 -0.8665
  951MOL0     C31154  10.352  10.088  10.035 -0.3311  0.2726 -0.1328
  951MOL0     C31155  10.583  10.042  10.417 -0.3064  0.0961  0.1513
  951MOL0     C31156  10.567   9.945  10.516  0.2714  0.2956  1.3176
  951MOL0     C31157  10.644   9.923  10.631 -0.4958  0.5461  0.5583
  951MOL0     C31158  10.758  10.005  10.650  0.7353  0.3859  0.2387
  951MOL0     O31159  10.835   9.968  10.755  0.3138  0.7985 -0.6566
  951MOL0     C31160  10.968  10.028  10.776  0.3754  0.8508 -0.7730
  951MOL0     C31161  10.946  10.151  10.856 -0.9288  0.5478  0.2465
  951MOL0     C31162  11.068  10.234  10.868  0.4256  1.1087  0.0527
  951MOL0     C31163  11.182  10.157  10.932 -0.7486 -0.5144  0.4114
  951MOL0     C31164  11.188  10.155  11.079 -0.3580 -0.4555 -0.9257
  951MOL0     C31165  11.199  10.154  11.201  0.1309 -0.3216 -0.0845
  951MOL0     C31166  10.782  10.105  10.559 -0.2742  0.6137 -0.6442
  951MOL0     C31167  10.699  10.123  10.444  0.2414  0.7683  0.9166
  951MOL0     C31168  10.741  10.230  10.337 -0.8718 -0.0546 -1.1605
  951MOL0     H31169  10.356  10.411  10.158 -2.1489  1.4331 -2.5797
  951MOL0     H31170  10.185  10.433   9.987 -0.4327 -0.3232 -2.3261
  951MOL0     H31171   9.991  10.095   9.805 -1.9330  0.8395 -2.0006
  951MOL0     H31172  10.121  10.128   9.685  0.5997 -2.2172  0.8110
  951MOL0     H31173   9.845  10.258   9.718 -0.1897 -0.6827 -0.9155
  951MOL0     H31174   9.984  10.329   9.627  1.3427 -0.0958  0.8760
  951MOL0     H31175   9.843  10.059   9.573 -1.6294  2.6300  2.5825
  951MOL0     H31176   9.823  10.205   9.475  1.6492  1.0484  0.6541
  951MOL0     H31177  10.080  10.159   9.434 -1.2417  0.2176 -0.9008
  951MOL0     H31178  10.054  10.005   9.512 -0.5174 -1.1899 -1.7008
  951MOL0     H31179  10.025  10.082   9.247 -1.0737  1.2647 -0.2478
  951MOL0     H31180   9.868  10.122   9.284  0.4215  1.7893  0.8419
  951MOL0     H31181   9.946   9.840   9.366 -0.2425  1.0530  1.7148
  951MOL0     H31182   9.799   9.927   9.391 -1.2305  4.6495 -2.5751
  951MOL0     H31183   9.747   9.960   9.170  2.3128  1.4397 -0.8072
  951MOL0     H31184   9.780   9.778   9.183  2.1718 -0.2156  1.1331
  951MOL0     H31185   9.937  10.002   9.046 -0.1735 -0.5111 -0.4007
  951MOL0     H31186   9.994   9.830   9.059  1.3606  1.0657  2.9795
  951MOL0     H31187   9.708  10.020   8.904 -0.7372  1.2681 -1.5648
  951MOL0     H31188   9.740   9.961   8.535 -1.5281 -1.4845 -1.5227
  951MOL0     H31189   9.632  10.038   8.643  1.2816  0.0407 -0.5439
  951MOL0     H31190   9.460   9.868   8.614  0.8454 -1.5255  1.6631
  951MOL0     H31191   9.531   9.888   8.462 -3.4580 -5.5813 -1.4915
  951MOL0     H31192   9.661   9.655   8.502  0.4074 -1.8541  1.6834
  951MOL0     H31193   9.581   9.665   8.662  1.0275 -0.1601  0.0600
  951MOL0     H31194   9.463   9.517   8.520  1.9052  1.1409 -1.2761
  951MOL0     H31195   9.365   9.665   8.577 -0.7803  0.6858 -0.4316
  951MOL0     H31196   9.329   9.729   8.147  3.4679 -3.8246 -3.1882
  951MOL0     H31197   9.165   9.561   7.892  0.1209  0.1376 -0.6212
  951MOL0     H31198   9.224   9.714   7.954 -0.0270 -0.5318  0.5572
  951MOL0     H31199   9.053   9.689   7.941  0.8501  0.3877 -3.4677
  951MOL0     H31200   8.730   9.425   7.950  3.1136 -1.6337 -0.3370
  951MOL0     H31201   8.507   9.333   7.887 -1.4337  1.0602  0.2864
  951MOL0     H31202   8.370   8.984   8.091  1.0167  1.5256  0.9668
  951MOL0     H31203   8.297   9.091   8.188  1.9985  0.3855 -0.6537
  951MOL0     H31204   8.191   8.976   7.907  1.4773  0.1929  0.6632
  951MOL0     H31205   8.117   8.937   8.052 -1.4072 -0.0472 -0.1711
  951MOL0     H31206   8.108   9.189   7.904  1.1177 -3.8815 -1.8808
  951MOL0     H31207   8.064   9.200   8.075 -0.2725  1.9490 -0.3071
  951MOL0     H31208   7.903   8.995   8.020  0.2502 -0.2712 -0.6617
  951MOL0     H31209   7.928   9.027   7.859  0.8220 -0.5994 -0.2888
  951MOL0     H31210   7.812   9.222   8.072  0.0414 -3.1000  0.7979
  951MOL0     H31211   7.851   9.279   7.910 -2.0589  1.1316 -0.9616
  951MOL0     H31212   7.662   9.064   7.997  1.8975 -0.3384 -0.3878
  951MOL0     H31213   7.682   9.120   7.824 -1.0379 -2.3878  0.4901
  951MOL0     H31214   7.601   9.334   7.868  0.3948 -3.0185 -2.3127
  951MOL0     H31215   7.591   9.315   8.044 -1.9505  1.4348 -0.5792
  951MOL0     H31216   7.399   9.140   7.990  1.1686 -2.0087 -1.8400
  951MOL0     H31217   7.442   9.146   7.832 -2.7085 -1.4785  1.6955
  951MOL0     H31218   8.502   9.093   8.240  0.3113 -1.8991 -1.9419
  951MOL0     H31219   8.699   9.213   8.322 -0.2511 -0.6772  0.4175
  951MOL0     H31220   9.037   9.399   8.359  0.6668  0.1055 -0.2622
  951MOL0     H31221   9.238   9.455   8.472 -0.1295 -0.6825  0.0516
  951MOL0     H31222  10.222  10.028   9.874 -0.7783 -1.4733  1.4317
  951MOL0     H31223  10.377   9.984  10.050 -1.6578 -0.0000  0.3578
  951MOL0     H31224  10.476   9.887  10.514  0.2933  0.0910  3.5090
  951MOL0     H31225  10.611   9.845  10.699 -1.9911  0.2606 -0.4404
  951MOL0     H31226  11.023   9.952  10.831 -1.7722  0.7435  1.3861
  951MOL0     H31227  11.017  10.054  10.682  0.5181  0.6399 -0.7592
  951MOL0     H31228  10.903  10.116  10.951 -1.6362 -1.8969 -0.8830
  951MOL0     H31229  10.872  10.213  10.804 -1.4144  0.2164  0.5309
  951MOL0     H31230  11.104  10.265  10.769  3.6775  2.3473  1.4632
  951MOL0     H31231  11.056  10.328  10.921  2.2675  0.3727  1.9499
  951MOL0     H31232  11.270  10.207  10.891 -0.3536 -0.0518  1.7646
  951MOL0     H31233  11.190  10.057  10.889 -1.4186  0.6361 -2.6484
  951MOL0     H31234  11.205  10.152  11.308 -1.8990 -1.8740  0.0677
  951MOL0     H31235  10.868  10.169  10.573 -0.7206  1.1713 -0.4046
  951MOL0     H31236  10.664  10.307  10.330 -1.2126 -0.4601 -1.9751
  951MOL0     H31237  10.844  10.264  10.355 -0.7426  0.6051 -2.9069
  951MOL0     H31238  10.744  10.200  10.232 -2.2186 -0.6183 -1.0500
  952MOL0     O31239   7.348   7.296   4.625  0.1569  0.8597  0.3189
  952MOL0     C31240   7.409   7.297   4.729 -0.1802  0.3148 -0.2699
  952MOL0     O31241   7.463   7.179   4.783 -0.9637 -0.9653  1.3981
  952MOL0     C31242   7.472   7.065   4.707 -0.5040 -0.1685  0.1153
  952MOL0     C31243   7.551   7.069   4.592 -0.7245 -0.8793 -0.2431
  952MOL0     C31244   7.572   6.956   4.516  0.5743  0.3312  0.2262
  952MOL0     C31245   7.505   6.839   4.539  0.0653 -0.4064  0.1883
  952MOL0     O31246   7.496   6.743   4.441  0.1852  1.2442  0.2031
  952MOL0     C31247   7.594   6.740   4.329 -0.6659 -0.5559 -0.2258
  952MOL0     C31248   7.597   6.614   4.247  0.3439  0.6075 -0.1389
  952MOL0     C31249   7.477   6.619   4.149 -0.4373 -0.1225  0.4181
  952MOL0     C31250   7.457   6.472   4.092  0.6711  0.4207  0.2000
  952MOL0     C31251   7.347   6.473   3.982  0.3686 -0.0637  0.2748
  952MOL0     C31252   7.306   6.332   3.927  0.0658 -0.0725 -0.9200
  952MOL0     C31253   7.200   6.263   4.017 -0.4624 -0.3972  0.5759
  952MOL0     C31254   7.156   6.131   3.957  0.4083  0.0914  0.7114
  952MOL0     N31255   7.158   6.025   4.056  0.2493  0.3635 -1.1424
  952MOL0     C31256   7.262   5.954   4.107 -0.6469 -0.0176 -0.0889
  952MOL0     C31257   7.207   5.869   4.212  0.4206 -0.5820  1.0754
  952MOL0     C31258   7.285   5.771   4.307  0.1573  0.3513  0.8787
  952MOL0     C31259   7.297   5.637   4.239 -0.3462 -0.6490 -0.5077
  952MOL0     C31260   7.316   5.538   4.347 -0.2514  0.5448 -0.5068
  952MOL0     C31261   7.322   5.394   4.292  0.7869 -0.5437  0.5266
  952MOL0     O31262   7.445   5.376   4.216  0.8989 -0.3426 -0.1415
  952MOL0     C31263   7.468   5.244   4.180  0.0001  0.1788 -0.4662
  952MOL0     C31264   7.601   5.196   4.181  0.3637  0.0793  0.2998
  952MOL0     C31265   7.635   5.069   4.132  0.3789  0.2344  0.5364
  952MOL0     C31266   7.785   5.038   4.139  0.7366  0.1321 -0.0217
  952MOL0     C31267   7.528   4.975   4.103  0.0164 -0.3483  0.1685
  952MOL0     C31268   7.555   4.837   4.043 -0.8720  0.1372  0.0339
  952MOL0     O31269   7.462   4.787   3.950  0.1449  0.3986 -0.1331
  952MOL0     C31270   7.458   4.662   3.886  0.9222  0.5380 -1.5027
  952MOL0     C31271   7.336   4.612   3.830  0.2022 -0.4955  0.8632
  952MOL0     C31272   7.329   4.484   3.777 -0.9640 -0.4550 -0.0703
  952MOL0     C31273   7.426   4.394   3.795 -0.0862  0.1674  0.0320
  952MOL0     O31274   7.410   4.254   3.776  0.0931 -0.5271 -0.6651
  952MOL0     C31275   7.371   4.178   3.892  0.8024 -0.0174 -0.4758
  952MOL0     C31276   7.493   4.135   3.990 -0.4673  0.1325  0.4387
  952MOL0     C31277   7.454   4.013   4.077  0.0547  0.1014 -0.2870
  952MOL0     C31278   7.579   3.930   4.100 -0.0539  1.0017 -0.2087
  952MOL0     C31279   7.542   3.780   4.138 -0.8094  0.2989 -0.4577
  952MOL0     C31280   7.662   3.693   4.121 -0.1622 -0.1828 -0.2968
  952MOL0     C31281   7.794   3.755   4.178  0.0521 -0.0179  0.3247
  952MOL0     C31282   7.904   3.652   4.160 -0.5062  0.0427 -0.2244
  952MOL0    Cl31283   7.943   3.551   4.309  0.4746 -0.1580 -0.0328
  952MOL0     C31284   7.545   4.443   3.847 -0.1874  0.4731 -0.2049
  952MOL0     C31285   7.570   4.570   3.887  0.1720 -0.1844  0.9309
  952MOL0     O31286   7.642   4.767   4.103 -0.6217  0.5018  0.1440
  952MOL0     C31287   7.387   5.010   4.122 -0.6038  0.8277 -0.7172
  952MOL0     C31288   7.365   5.152   4.162  0.9822  0.1080  0.6652
  952MOL0     N31289   7.070   5.905   4.219 -0.1503  0.2159  0.1636
  952MOL0     N31290   7.043   5.996   4.132 -0.6940 -0.8613 -0.3159
  952MOL0     C31291   7.429   6.831   4.662 -0.4299  0.0675  0.1301
  952MOL0     C31292   7.411   6.945   4.741 -0.6785 -0.5334  0.0079
  952MOL0     C31293   7.419   7.422   4.805  0.0909 -0.2393  0.9045
  952MOL0     C31294   7.511   7.517   4.756  0.1182  0.4800  0.0200
  952MOL0     C31295   7.537   7.631   4.830 -0.2523  0.6602  0.2310
  952MOL0     C31296   7.488   7.657   4.955  0.4846 -0.2089 -0.2250
  952MOL0     O31297   7.526   7.767   5.029  0.0560  0.2781 -0.1827
  952MOL0     C31298   7.527   7.762   5.174 -0.4015  0.7211  0.1316
  952MOL0     C31299   7.630   7.659   5.219  0.6890 -0.7127 -0.3258
  952MOL0     C31300   7.763   7.669   5.144  1.1162  0.3116 -0.7627
  952MOL0     C31301   7.860   7.556   5.188 -0.4859 -0.0470  0.1923
  952MOL0     C31302   7.991   7.582   5.134  0.2181 -0.0386  0.3629
  952MOL0     C31303   8.096   7.621   5.074  0.4317  1.0222 -0.6800
  952MOL0     C31304   7.397   7.553   5.008 -0.5309 -0.4824 -0.2566
  952MOL0     C31305   7.368   7.441   4.930  0.7044  0.4634  0.0673
  952MOL0     C31306   7.271   7.341   4.981  0.2035 -0.4681  1.2609
  952MOL0     H31307   7.595   7.162   4.559 -2.1853  0.3780  1.1804
  952MOL0     H31308   7.635   6.980   4.431  1.4026  3.0547  1.5031
  952MOL0     H31309   7.694   6.748   4.372 -0.8315  1.0192 -0.0525
  952MOL0     H31310   7.586   6.830   4.267 -0.4864 -0.1581  0.3268
  952MOL0     H31311   7.689   6.598   4.189  0.3108 -3.1706  0.5938
  952MOL0     H31312   7.576   6.531   4.315 -0.7294  2.2279  1.6030
  952MOL0     H31313   7.382   6.641   4.199 -0.8636  2.5155 -1.3737
  952MOL0     H31314   7.497   6.691   4.070 -0.1277 -1.2839 -0.5965
  952MOL0     H31315   7.550   6.435   4.048 -0.6179 -0.3183 -2.1082
  952MOL0     H31316   7.430   6.410   4.178  0.8155 -1.1414 -0.8413
  952MOL0     H31317   7.389   6.537   3.903  1.1945  1.5836  1.9811
  952MOL0     H31318   7.258   6.524   4.017  0.9772  1.0338  0.2741
  952MOL0     H31319   7.261   6.342   3.828 -0.9596 -3.2024 -0.8914
  952MOL0     H31320   7.393   6.265   3.920 -0.7796 -1.0182 -3.4744
  952MOL0     H31321   7.113   6.330   4.019  1.0521  1.9755 -2.9540
  952MOL0     H31322   7.245   6.247   4.115  1.0881 -4.6438 -0.6010
  952MOL0     H31323   7.062   6.128   3.900  1.7871 -1.4406 -1.6850
  952MOL0     H31324   7.228   6.096   3.883 -0.5486  0.5651 -0.4789
  952MOL0     H31325   7.364   5.966   4.071 -1.1731 -1.7899 -2.4643
  952MOL0     H31326   7.232   5.765   4.403 -1.5028  0.4158  0.0051
  952MOL0     H31327   7.391   5.795   4.319  1.3255 -3.7679  0.2896
  952MOL0     H31328   7.213   5.611   4.174  0.8323  1.0833 -2.8755
  952MOL0     H31329   7.390   5.641   4.182  1.0703  0.6611  1.7507
  952MOL0     H31330   7.412   5.548   4.398 -1.1428 -2.0076  1.9891
  952MOL0     H31331   7.234   5.535   4.420 -0.5559  0.7774 -0.8347
  952MOL0     H31332   7.306   5.314   4.365  0.2376 -0.2567  0.7258
  952MOL0     H31333   7.240   5.382   4.221 -1.0930  0.0128  2.4965
  952MOL0     H31334   7.683   5.260   4.213 -0.6263  1.9571 -0.6770
  952MOL0     H31335   7.840   5.129   4.113 -0.5912  0.5115 -1.6951
  952MOL0     H31336   7.806   4.955   4.071  0.8280  0.7768 -0.7892
  952MOL0     H31337   7.821   5.014   4.239 -1.1165 -1.6780  0.2868
  952MOL0     H31338   7.257   4.684   3.819  0.5815 -0.4255 -2.7714
  952MOL0     H31339   7.231   4.447   3.746 -1.6854  0.5675  0.9083
  952MOL0     H31340   7.294   4.233   3.948  0.0420  0.1983 -1.7090
  952MOL0     H31341   7.339   4.076   3.871  1.0234 -0.9768  3.1006
  952MOL0     H31342   7.578   4.116   3.925 -2.0074 -0.8812 -1.3666
  952MOL0     H31343   7.514   4.220   4.056  0.6940 -0.7840  1.2852
  952MOL0     H31344   7.390   3.943   4.021  2.7293 -1.0439 -2.1594
  952MOL0     H31345   7.403   4.034   4.171 -1.3146 -2.2445 -0.4304
  952MOL0     H31346   7.632   3.972   4.186  0.9632 -0.8398  0.1264
  952MOL0     H31347   7.638   3.932   4.008 -0.1560  1.6220 -0.2614
  952MOL0     H31348   7.513   3.775   4.244 -0.6068 -3.8614 -0.4323
  952MOL0     H31349   7.452   3.746   4.086 -0.3340  0.2069 -1.2373
  952MOL0     H31350   7.671   3.667   4.015  0.4173  0.5748 -0.4438
  952MOL0     H31351   7.636   3.601   4.173 -3.1444  0.7843  0.1009
  952MOL0     H31352   7.773   3.795   4.278 -3.1892 -1.3839  0.3001
  952MOL0     H31353   7.829   3.835   4.112  1.4527  0.2171  1.2927
  952MOL0     H31354   7.999   3.704   4.144  0.2007  0.0628  3.3310
  952MOL0     H31355   7.889   3.590   4.071  0.1796  0.5031 -0.6719
  952MOL0     H31356   7.625   4.370   3.857  0.1808  1.0872  2.0327
  952MOL0     H31357   7.666   4.604   3.925 -0.0035  0.2163  1.0311
  952MOL0     H31358   7.314   4.935   4.091 -0.5987  0.4808  0.0826
  952MOL0     H31359   7.261   5.184   4.166  1.1913  0.9438 -0.1821
  952MOL0     H31360   7.375   6.740   4.686 -3.1175  1.8366  1.2324
  952MOL0     H31361   7.345   6.948   4.828 -0.0042 -1.7565  0.5930
  952MOL0     H31362   7.563   7.483   4.667  3.9462  0.8707  1.9076
  952MOL0     H31363   7.610   7.689   4.774  0.5381 -1.2072 -0.7522
  952MOL0     H31364   7.552   7.861   5.215  0.2054 -0.3012  2.3814
  952MOL0     H31365   7.428   7.724   5.200 -0.2591  1.5914  2.1153
  952MOL0     H31366   7.594   7.555   5.218 -0.7353 -0.3919  3.1608
  952MOL0     H31367   7.655   7.677   5.324  1.9074 -0.6280 -0.6167
  952MOL0     H31368   7.758   7.670   5.035  3.8046  0.4971 -0.9673
  952MOL0     H31369   7.815   7.762   5.170 -2.1372  2.1979 -0.5702
  952MOL0     H31370   7.825   7.455   5.164 -0.6129 -0.4222  1.8549
  952MOL0     H31371   7.867   7.562   5.297  0.4097  1.7337  0.0739
  952MOL0     H31372   8.174   7.683   5.035 -0.6697  1.0461 -2.9814
  952MOL0     H31373   7.339   7.551   5.100 -0.8601  2.0460 -0.3153
  952MOL0     H31374   7.330   7.249   4.992  1.8632  0.2320 -1.2000
  952MOL0     H31375   7.232   7.374   5.078  0.7599  2.4551  0.5666
  952MOL0     H31376   7.188   7.327   4.911  1.0713 -1.6513  0.4458
  953MOL0     O31377  10.847   7.273   0.943 -1.0306  0.1326  0.1290
  953MOL0     C31378  10.751   7.342   0.923 -0.1302  0.6011 -0.1366
  953MOL0     O31379  10.749   7.439   0.831 -0.3811 -0.5967 -0.4021
  953MOL0     C31380  10.858   7.498   0.764  0.7647 -0.5221 -0.0872
  953MOL0     C31381  10.992   7.507   0.817  0.0776 -0.1923  0.3926
  953MOL0     C31382  11.095   7.574   0.744 -0.3598 -0.1950 -0.0360
  953MOL0     C31383  11.062   7.624   0.616 -0.1788  0.5134  0.3455
  953MOL0     O31384  11.154   7.683   0.527 -0.3571  0.2281  0.2982
  953MOL0     C31385  11.293   7.629   0.538  0.0003 -0.0319  0.5787
  953MOL0     C31386  11.383   7.733   0.467 -1.0130 -0.6800 -0.1181
  953MOL0     C31387  11.351   7.733   0.320 -0.9324 -0.0413 -0.2800
  953MOL0     C31388  11.427   7.834   0.237 -0.5332 -0.5902  1.1976
  953MOL0     C31389  11.375   7.845   0.100  0.0758  0.7087  1.4509
  953MOL0     C31390  11.436   7.956   0.002  0.4509  0.3488 -0.4489
  953MOL0     C31391  11.402   7.933  -0.147  0.5172 -1.4395 -0.6769
  953MOL0     C31392  11.254   7.961  -0.182  0.1633  0.6169  0.3109
  953MOL0     N31393  11.193   8.093  -0.167  0.2546 -0.0426 -0.4061
  953MOL0     C31394  11.249   8.215  -0.198  0.5165 -0.1935  0.5715
  953MOL0     C31395  11.150   8.300  -0.180 -0.1295 -0.2521 -0.1825
  953MOL0     C31396  11.144   8.457  -0.192 -0.3060  0.2101 -0.2247
  953MOL0     C31397  11.061   8.495  -0.312  0.0690  0.3117  0.0993
  953MOL0     C31398  10.916   8.441  -0.321 -0.0965 -0.1743  0.9320
  953MOL0     C31399  10.839   8.517  -0.431  0.7895  0.0271 -0.6833
  953MOL0     O31400  10.824   8.657  -0.397  0.9460 -0.1305  0.9648
  953MOL0     C31401  10.767   8.753  -0.482 -0.0150 -0.4966 -0.5345
  953MOL0     C31402  10.776   8.878  -0.429  1.1123  0.4971  0.2705
  953MOL0     C31403  10.739   8.991  -0.511 -0.0121 -0.0319 -1.2272
  953MOL0     C31404  10.766   9.125  -0.457  0.4418 -0.4869  0.0808
  953MOL0     C31405  10.683   8.970  -0.642 -0.4211 -0.1921  0.4074
  953MOL0     C31406  10.662   9.072  -0.744  0.3995 -0.6081 -0.2847
  953MOL0     O31407  10.636   9.201  -0.704  0.1219 -0.2452  0.5790
  953MOL0     C31408  10.594   9.294  -0.797 -0.9948 -0.2410  0.0609
  953MOL0     C31409  10.617   9.433  -0.765 -0.0331 -0.2893  0.8359
  953MOL0     C31410  10.538   9.542  -0.820 -0.3882  0.6179 -0.9495
  953MOL0     C31411  10.458   9.515  -0.935  0.0438  0.4895  0.1961
  953MOL0     O31412  10.386   9.618  -0.996 -0.5783  0.3947 -0.2361
  953MOL0     C31413  10.312   9.597  -1.112  0.2803  0.6290 -0.5897
  953MOL0     C31414  10.169   9.553  -1.089 -0.5873  0.0549  0.0176
  953MOL0     C31415  10.108   9.547  -1.228  0.6733  0.4452  0.6042
  953MOL0     C31416  10.150   9.418  -1.311 -0.8461 -0.0976 -0.0252
  953MOL0     C31417  10.024   9.369  -1.381 -0.0449 -0.3823  0.0081
  953MOL0     C31418   9.978   9.452  -1.496  0.5657  0.5519 -0.0949
  953MOL0     C31419   9.863   9.391  -1.587  0.3039  0.2594 -0.2462
  953MOL0     C31420   9.883   9.422  -1.735 -0.0017  0.3389 -0.8421
  953MOL0    Cl31421   9.792   9.306  -1.837  0.1131 -0.2240  0.2085
  953MOL0     C31422  10.437   9.374  -0.968  0.8798 -0.1724 -0.6227
  953MOL0     C31423  10.498   9.268  -0.899 -0.3999 -0.1509 -1.1957
  953MOL0     O31424  10.677   9.039  -0.861 -0.1771 -0.4468  0.0230
  953MOL0     C31425  10.676   8.835  -0.685  0.7570 -0.7885 -0.0194
  953MOL0     C31426  10.719   8.739  -0.603 -0.1632  0.1522 -0.8725
  953MOL0     N31427  11.037   8.233  -0.135  0.1535 -0.0922  0.0602
  953MOL0     N31428  11.066   8.114  -0.121  0.2751 -0.3673 -0.0745
  953MOL0     C31429  10.932   7.606   0.563 -0.0134  0.2712 -0.1379
  953MOL0     C31430  10.829   7.548   0.631 -0.2686  0.2350 -0.4923
  953MOL0     C31431  10.621   7.321   0.998  0.6100  0.3482 -0.0433
  953MOL0     C31432  10.500   7.353   0.935 -0.3323  0.8492  0.6170
  953MOL0     C31433  10.372   7.328   0.995 -0.1614 -1.2952 -0.2257
  953MOL0     C31434  10.364   7.269   1.118 -0.6865 -0.5166 -0.3455
  953MOL0     O31435  10.249   7.219   1.177  0.8752  0.0547 -0.0845
  953MOL0     C31436  10.122   7.257   1.126  0.1472 -0.2408  0.1370
  953MOL0     C31437  10.015   7.180   1.195  0.0602  0.7093 -0.2961
  953MOL0     C31438  10.044   7.177   1.352 -0.4640 -0.8158  0.5290
  953MOL0     C31439   9.921   7.149   1.432 -0.7339  0.3520  0.5968
  953MOL0     C31440   9.861   7.018   1.391  0.5911  0.3749  0.4713
  953MOL0     C31441   9.820   6.904   1.377  0.4249  1.0496  0.5598
  953MOL0     C31442  10.479   7.229   1.181 -0.4194 -0.6050  1.0527
  953MOL0     C31443  10.606   7.264   1.123  0.5198  0.4461 -1.1452
  953MOL0     C31444  10.721   7.225   1.209 -0.0277 -0.1344 -0.2287
  953MOL0     H31445  10.999   7.482   0.922  1.6306 -1.3770  0.0466
  953MOL0     H31446  11.188   7.591   0.796 -0.9152  4.4812 -0.1672
  953MOL0     H31447  11.302   7.529   0.493 -2.0977 -0.3890  0.8471
  953MOL0     H31448  11.325   7.622   0.642 -1.6570 -2.4746  1.0044
  953MOL0     H31449  11.363   7.826   0.521  4.4736  0.3928  0.6795
  953MOL0     H31450  11.491   7.715   0.474 -1.1481 -1.5875 -0.2086
  953MOL0     H31451  11.378   7.632   0.289 -3.9466 -0.9739 -0.1698
  953MOL0     H31452  11.243   7.752   0.309 -1.0415 -1.3005 -1.7145
  953MOL0     H31453  11.438   7.929   0.291  3.2282  1.1794 -2.0997
  953MOL0     H31454  11.530   7.800   0.225 -0.8903 -2.3240  2.7378
  953MOL0     H31455  11.266   7.843   0.098  0.0178  2.5331  0.5260
  953MOL0     H31456  11.406   7.752   0.051  0.6915  2.4497 -1.7304
  953MOL0     H31457  11.393   8.055   0.023  0.2376  0.9425 -3.2565
  953MOL0     H31458  11.545   7.969   0.003  0.7035 -1.2997  2.1060
  953MOL0     H31459  11.430   7.828  -0.156  0.7072 -1.3822 -0.7512
  953MOL0     H31460  11.473   7.997  -0.200  1.3808 -0.0270  1.9740
  953MOL0     H31461  11.250   7.949  -0.291  0.6446  3.2190 -0.0638
  953MOL0     H31462  11.194   7.880  -0.139  1.1241 -1.0378 -1.3174
  953MOL0     H31463  11.352   8.244  -0.215 -0.4488  3.7658  0.5004
  953MOL0     H31464  11.246   8.497  -0.204 -0.3104  0.2004 -0.2921
  953MOL0     H31465  11.096   8.505  -0.106  0.0452  0.8268 -0.3653
  953MOL0     H31466  11.055   8.604  -0.307 -0.8106  0.4668 -2.6775
  953MOL0     H31467  11.113   8.475  -0.406 -2.1409 -0.0577 -1.1160
  953MOL0     H31468  10.908   8.336  -0.348 -0.6817  0.4879 -1.7798
  953MOL0     H31469  10.858   8.460  -0.230 -1.3112 -0.4788  0.2481
  953MOL0     H31470  10.891   8.505  -0.526  2.3533  0.4514  0.0972
  953MOL0     H31471  10.734   8.486  -0.433 -1.0162  4.7886  2.6478
  953MOL0     H31472  10.821   8.891  -0.331 -0.5597 -1.1373  1.3224
  953MOL0     H31473  10.854   9.159  -0.512 -1.0603  0.8371 -1.6439
  953MOL0     H31474  10.789   9.140  -0.351 -1.2926  2.3777  0.1556
  953MOL0     H31475  10.684   9.195  -0.473  1.4602  1.4937  2.7368
  953MOL0     H31476  10.695   9.445  -0.691  0.2412  2.3783  0.2207
  953MOL0     H31477  10.532   9.640  -0.774  3.0312  0.2387  0.5713
  953MOL0     H31478  10.318   9.701  -1.147  0.3074  0.4027 -1.2638
  953MOL0     H31479  10.362   9.521  -1.172  2.8202 -0.4507  2.6247
  953MOL0     H31480  10.165   9.457  -1.037 -0.3830 -0.4283 -0.8379
  953MOL0     H31481  10.128   9.629  -1.022  1.6044  3.0104 -1.7596
  953MOL0     H31482  10.147   9.634  -1.281  1.8343 -0.6620 -0.4062
  953MOL0     H31483  10.000   9.560  -1.223  0.2445  0.3526 -4.1308
  953MOL0     H31484  10.183   9.338  -1.244  3.0719  2.5480  1.5233
  953MOL0     H31485  10.238   9.430  -1.374  0.1542  1.0316  1.5318
  953MOL0     H31486  10.053   9.273  -1.424  0.9148 -0.4150  0.6810
  953MOL0     H31487   9.940   9.365  -1.312  0.5469  1.6081  0.9128
  953MOL0     H31488  10.067   9.476  -1.555  1.1038 -0.5407  0.2294
  953MOL0     H31489   9.938   9.542  -1.450 -0.1949 -0.7253  1.8964
  953MOL0     H31490   9.773   9.440  -1.547  1.1975  1.9761 -0.2213
  953MOL0     H31491   9.853   9.284  -1.570  1.0637 -0.2868 -2.8141
  953MOL0     H31492   9.990   9.404  -1.750 -0.1593 -1.7566  0.0816
  953MOL0     H31493   9.860   9.526  -1.760  2.2288  0.5562 -2.1990
  953MOL0     H31494  10.363   9.345  -1.041 -1.3711 -0.6313  1.6957
  953MOL0     H31495  10.470   9.163  -0.908 -1.8372  0.1835 -0.8958
  953MOL0     H31496  10.637   8.798  -0.779 -2.3841 -2.5373  1.8111
  953MOL0     H31497  10.700   8.635  -0.630 -1.3042 -0.0908  0.7104
  953MOL0     H31498  10.912   7.642   0.463 -1.2768  0.8741  0.3095
  953MOL0     H31499  10.733   7.530   0.585 -1.2462  2.9084  0.3330
  953MOL0     H31500  10.499   7.384   0.831 -2.2697 -2.2220 -0.3980
  953MOL0     H31501  10.278   7.349   0.944 -0.4225 -0.9654  0.3759
  953MOL0     H31502  10.105   7.364   1.134  0.1955  0.0167 -2.3662
  953MOL0     H31503  10.114   7.229   1.020  0.2496  0.0556  0.0504
  953MOL0     H31504  10.032   7.076   1.164 -1.5062  0.1288  0.6804
  953MOL0     H31505   9.923   7.226   1.160  0.7842  1.8243 -0.7746
  953MOL0     H31506  10.118   7.098   1.367  0.0872 -0.3653  0.2291
  953MOL0     H31507  10.084   7.272   1.387 -1.3982 -0.2398  0.0786
  953MOL0     H31508   9.847   7.230   1.434 -2.0811 -0.6831 -1.9551
  953MOL0     H31509   9.953   7.138   1.536  1.9702  0.0914 -0.1796
  953MOL0     H31510   9.794   6.803   1.353  1.1800  1.2916 -1.4747
  953MOL0     H31511  10.488   7.160   1.265  0.8164 -0.3125  1.1768
  953MOL0     H31512  10.792   7.308   1.209  0.2092 -0.3352 -0.7223
  953MOL0     H31513  10.700   7.202   1.314  0.9773  0.1154  0.0329
  953MOL0     H31514  10.781   7.143   1.170  1.5884 -0.3109  2.3368
  954MOL0     O31515   2.912   7.604   7.463  0.5653 -0.5046 -0.3723
  954MOL0     C31516   2.798   7.650   7.425  1.3109  0.6257  0.4744
  954MOL0     O31517   2.675   7.585   7.439  0.0572  0.6658  0.3742
  954MOL0     C31518   2.637   7.484   7.524  0.1135 -0.9492  0.8434
  954MOL0     C31519   2.719   7.405   7.588 -0.2673 -0.4547 -0.6768
  954MOL0     C31520   2.684   7.307   7.677 -0.3571 -0.7046  0.4545
  954MOL0     C31521   2.548   7.287   7.704  0.2205  0.6330  0.6370
  954MOL0     O31522   2.518   7.196   7.798  0.3480  0.5259 -0.4314
  954MOL0     C31523   2.378   7.163   7.835  0.1173  0.2773 -0.5473
  954MOL0     C31524   2.377   7.054   7.945  0.2918 -1.0943 -0.5603
  954MOL0     C31525   2.441   7.108   8.078 -0.2876 -0.0288 -0.3762
  954MOL0     C31526   2.449   7.013   8.210  0.8081 -0.5522 -0.4810
  954MOL0     C31527   2.517   6.888   8.180  0.2864 -0.0759 -0.5339
  954MOL0     C31528   2.528   6.814   8.317  0.1211  0.1466 -0.3605
  954MOL0     C31529   2.613   6.686   8.293 -0.0039 -0.6940 -0.0851
  954MOL0     C31530   2.611   6.587   8.410  0.7896  0.0625 -0.5299
  954MOL0     N31531   2.630   6.453   8.368 -0.6325 -0.2348 -0.6477
  954MOL0     C31532   2.565   6.345   8.423  0.4569  0.9294 -0.4279
  954MOL0     C31533   2.632   6.234   8.386 -0.1839 -0.2865 -0.2560
  954MOL0     C31534   2.606   6.091   8.424  0.4258 -0.1803 -0.0810
  954MOL0     C31535   2.465   6.025   8.391  0.6675 -0.2944  0.5222
  954MOL0     C31536   2.441   5.906   8.487 -0.0508  0.2256  0.3031
  954MOL0     C31537   2.331   5.808   8.438 -0.7728 -0.4957  0.1036
  954MOL0     O31538   2.373   5.751   8.313  0.1543 -0.1287 -0.0988
  954MOL0     C31539   2.312   5.635   8.274  0.5491 -0.2973 -0.5104
  954MOL0     C31540   2.369   5.554   8.182 -0.9065 -0.9061 -0.9959
  954MOL0     C31541   2.307   5.443   8.131 -0.1395 -0.0282  0.2842
  954MOL0     C31542   2.387   5.346   8.043  1.1344 -0.2225 -0.0845
  954MOL0     C31543   2.173   5.412   8.167  0.1793  0.2014 -0.0740
  954MOL0     C31544   2.093   5.282   8.133  0.5121  0.4584  0.3695
  954MOL0     O31545   1.959   5.297   8.115  0.1221  0.0846  0.6543
  954MOL0     C31546   1.889   5.182   8.081 -0.8970  0.1917  0.3254
  954MOL0     C31547   1.883   5.065   8.153  0.7918  0.1244 -0.6415
  954MOL0     C31548   1.810   4.956   8.099  1.3527 -0.7876  0.5841
  954MOL0     C31549   1.739   4.965   7.978 -0.7855 -0.2283  0.4886
  954MOL0     O31550   1.669   4.856   7.929  0.1365 -0.1232  0.4416
  954MOL0     C31551   1.592   4.785   8.016  1.2233 -0.4493 -0.5921
  954MOL0     C31552   1.475   4.730   7.928  0.5409  0.5830 -0.0479
  954MOL0     C31553   1.387   4.632   8.002 -1.2138  0.0835  0.3788
  954MOL0     C31554   1.276   4.562   7.912  0.4345 -0.0170 -0.3561
  954MOL0     C31555   1.172   4.472   7.992 -0.3983  0.5659 -0.6411
  954MOL0     C31556   1.056   4.437   7.891  0.1593 -0.2708 -0.2683
  954MOL0     C31557   0.963   4.332   7.953  0.6614 -0.2077 -0.1104
  954MOL0     C31558   0.856   4.404   8.042 -0.2252 -0.6306 -0.2282
  954MOL0    Cl31559   0.732   4.285   8.109 -0.2934  0.1047 -0.1264
  954MOL0     C31560   1.758   5.080   7.901  0.5424 -0.2610 -0.1260
  954MOL0     C31561   1.820   5.193   7.956 -0.3593 -0.0427  0.3469
  954MOL0     O31562   2.157   5.177   8.135 -0.8863 -0.1496  0.3412
  954MOL0     C31563   2.105   5.505   8.244  0.0292 -0.0117  0.0304
  954MOL0     C31564   2.177   5.616   8.308  0.3013  0.2393 -0.2166
  954MOL0     N31565   2.742   6.273   8.313 -0.6815 -0.3222 -0.1392
  954MOL0     N31566   2.753   6.403   8.318 -0.9543  0.1870 -0.5499
  954MOL0     C31567   2.448   7.356   7.627  0.2048 -0.4586  0.4689
  954MOL0     C31568   2.499   7.456   7.528  1.0449  0.1813 -0.0826
  954MOL0     C31569   2.798   7.767   7.338 -0.5163 -0.7160 -0.7713
  954MOL0     C31570   2.926   7.825   7.293  0.1952 -0.9066  0.1696
  954MOL0     C31571   2.931   7.928   7.207  0.0172 -0.6759 -0.4162
  954MOL0     C31572   2.818   7.973   7.142 -0.8367  0.1048 -0.3287
  954MOL0     O31573   2.832   8.068   7.056  0.3667 -0.5113  0.2835
  954MOL0     C31574   2.956   8.088   6.979  0.2560 -0.0881  0.2858
  954MOL0     C31575   2.993   7.954   6.909 -0.0783  0.6644  0.1087
  954MOL0     C31576   3.077   7.987   6.787  0.7976  0.5245 -0.8080
  954MOL0     C31577   3.070   7.873   6.688 -0.0951 -0.2615 -0.0932
  954MOL0     C31578   3.120   7.740   6.728  0.8056 -0.8736  0.2693
  954MOL0     C31579   3.171   7.635   6.768  0.5609 -0.9493  0.1468
  954MOL0     C31580   2.695   7.936   7.186 -0.0540 -0.4760 -0.0592
  954MOL0     C31581   2.682   7.839   7.294 -0.6947  0.0926  0.7504
  954MOL0     C31582   2.541   7.814   7.347  0.9507  0.0304  0.0397
  954MOL0     H31583   2.826   7.423   7.586 -0.4672  1.4658  1.8610
  954MOL0     H31584   2.757   7.266   7.746 -1.3494 -0.3887  1.7444
  954MOL0     H31585   2.316   7.132   7.750 -0.8618 -1.5827  0.7694
  954MOL0     H31586   2.328   7.252   7.875  0.8803  0.9394 -1.0306
  954MOL0     H31587   2.281   7.004   7.965 -0.6222  0.3375 -1.1759
  954MOL0     H31588   2.447   6.979   7.908  1.0680 -1.3633  1.3464
  954MOL0     H31589   2.545   7.133   8.053 -0.6561 -0.2260 -2.1884
  954MOL0     H31590   2.391   7.202   8.104  2.7229  1.9456 -1.1360
  954MOL0     H31591   2.504   7.073   8.283  0.1857 -3.2980  2.4226
  954MOL0     H31592   2.350   6.989   8.250  1.2623  0.2330  1.2165
  954MOL0     H31593   2.620   6.901   8.146  0.2156  2.7398  0.0260
  954MOL0     H31594   2.467   6.832   8.101  1.6686  0.2012 -1.6479
  954MOL0     H31595   2.564   6.884   8.393  0.0575  0.5277 -0.6812
  954MOL0     H31596   2.432   6.774   8.352 -0.3727  3.5364  2.8259
  954MOL0     H31597   2.714   6.713   8.261 -0.6685  1.3587 -0.6380
  954MOL0     H31598   2.555   6.635   8.216 -2.1465 -0.7058  1.4448
  954MOL0     H31599   2.693   6.606   8.480  0.3918  0.9111 -0.2865
  954MOL0     H31600   2.521   6.586   8.473  1.8412  1.6876  1.1205
  954MOL0     H31601   2.487   6.339   8.498  2.3961 -1.1499  1.5868
  954MOL0     H31602   2.608   6.084   8.533 -0.7205  0.6448  0.0039
  954MOL0     H31603   2.684   6.023   8.386 -0.4244 -1.0250 -0.3656
  954MOL0     H31604   2.384   6.099   8.394 -1.2501 -2.3070  0.5318
  954MOL0     H31605   2.455   5.994   8.287  3.1611 -0.2703  0.2026
  954MOL0     H31606   2.529   5.842   8.493 -0.1072 -0.0192 -1.1597
  954MOL0     H31607   2.431   5.943   8.589 -0.1676  2.1559 -0.3609
  954MOL0     H31608   2.316   5.742   8.523 -1.0815 -2.4511 -1.3821
  954MOL0     H31609   2.234   5.858   8.427  0.8781  2.9618 -0.0545
  954MOL0     H31610   2.470   5.563   8.143 -1.6657 -2.1542 -3.4472
  954MOL0     H31611   2.438   5.280   8.113 -2.8846 -2.5305  0.9568
  954MOL0     H31612   2.465   5.395   7.984  0.3100  0.4253 -0.6588
  954MOL0     H31613   2.331   5.286   7.970  3.3327 -1.6979 -0.6467
  954MOL0     H31614   1.940   5.072   8.246  0.7525  1.6592 -0.7051
  954MOL0     H31615   1.790   4.870   8.162  0.6137  0.1439  1.6544
  954MOL0     H31616   1.645   4.700   8.059 -1.1837 -2.7030 -1.7949
  954MOL0     H31617   1.556   4.851   8.095 -0.8716  0.4504 -2.1939
  954MOL0     H31618   1.417   4.815   7.892  0.4852  0.5823  0.0399
  954MOL0     H31619   1.521   4.687   7.839  0.3687  1.5396 -0.6138
  954MOL0     H31620   1.342   4.674   8.093  0.2724  2.3091  0.1459
  954MOL0     H31621   1.458   4.555   8.033 -2.3147 -0.1916  2.4302
  954MOL0     H31622   1.319   4.504   7.830 -3.0423 -1.0459 -1.6402
  954MOL0     H31623   1.212   4.632   7.857 -3.4798 -1.0876  2.3464
  954MOL0     H31624   1.221   4.380   8.023 -0.3485  1.0874  0.9224
  954MOL0     H31625   1.137   4.515   8.087  0.4580 -1.2275  0.5453
  954MOL0     H31626   1.110   4.404   7.801  1.4388 -0.0678  0.4041
  954MOL0     H31627   0.992   4.519   7.857  0.6416  0.0313 -0.4665
  954MOL0     H31628   1.027   4.269   8.016  3.5281  2.9010  0.4104
  954MOL0     H31629   0.910   4.279   7.874  3.9883 -0.1940 -2.5546
  954MOL0     H31630   0.817   4.488   7.985  1.8137  0.3140 -0.3201
  954MOL0     H31631   0.909   4.451   8.125 -0.0667 -2.2207  0.6203
  954MOL0     H31632   1.703   5.081   7.807  0.0769 -0.1719  0.1427
  954MOL0     H31633   1.820   5.286   7.901 -0.3130  0.3056  0.9246
  954MOL0     H31634   2.002   5.499   8.278  0.0835 -3.7408 -0.1357
  954MOL0     H31635   2.112   5.681   8.365 -2.2721  0.0795 -2.7471
  954MOL0     H31636   2.342   7.335   7.636 -0.1951  1.0705 -0.1624
  954MOL0     H31637   2.430   7.516   7.470  2.4977  0.1571 -1.9156
  954MOL0     H31638   3.022   7.782   7.320  0.9909  1.9954  2.4572
  954MOL0     H31639   3.034   7.962   7.194 -0.1469 -0.1450 -0.3848
  954MOL0     H31640   2.941   8.170   6.908  0.5829 -2.2410 -2.4359
  954MOL0     H31641   3.043   8.128   7.032  0.4381 -0.4578  0.2682
  954MOL0     H31642   2.902   7.903   6.877  0.4021  0.1900 -0.5314
  954MOL0     H31643   3.051   7.887   6.974  2.4129  1.1095 -1.5092
  954MOL0     H31644   3.030   8.077   6.749 -2.5739 -0.2874  1.0803
  954MOL0     H31645   3.180   8.019   6.809  0.5771  1.1593 -0.6976
  954MOL0     H31646   3.135   7.909   6.608  0.4576 -0.8004  0.1149
  954MOL0     H31647   2.970   7.865   6.644 -0.3116 -0.7935  0.4873
  954MOL0     H31648   3.220   7.543   6.797  2.2427  0.5105  2.3122
  954MOL0     H31649   2.609   7.993   7.152  0.7186  1.5820  1.2177
  954MOL0     H31650   2.508   7.718   7.306 -0.1722  0.4701 -0.1365
  954MOL0     H31651   2.547   7.805   7.456 -0.7801  1.0210  0.2608
  954MOL0     H31652   2.470   7.894   7.324 -0.5410 -0.6948  1.9144
  955MOL0     O31653   7.153  10.902   1.355 -0.1392  0.3936 -0.7543
  955MOL0     C31654   7.074  10.845   1.273 -0.3770 -0.5546 -0.1912
  955MOL0     O31655   6.961  10.898   1.218 -0.0853 -0.0984 -0.1001
  955MOL0     C31656   6.940  11.033   1.234  0.1181  0.3086  1.1438
  955MOL0     C31657   7.040  11.129   1.200 -0.0394 -0.0323 -0.3580
  955MOL0     C31658   7.017  11.272   1.211  0.3859  0.3190  0.2314
  955MOL0     C31659   6.883  11.314   1.256 -0.2548 -0.2514  0.4652
  955MOL0     O31660   6.864  11.448   1.246  0.1131 -0.0049  0.4130
  955MOL0     C31661   6.779  11.534   1.337 -0.3906 -0.7754  0.1638
  955MOL0     C31662   6.878  11.612   1.429  0.4287 -0.6700 -1.2039
  955MOL0     C31663   6.811  11.743   1.476  0.9434 -0.5949  0.3074
  955MOL0     C31664   6.892  11.822   1.572  0.5485  0.5310 -0.5146
  955MOL0     C31665   6.815  11.950   1.624  0.4284 -0.6920  0.3837
  955MOL0     C31666   6.705  11.924   1.722  0.5177 -0.6381  0.7847
  955MOL0     C31667   6.634  12.058   1.764  0.5302  0.1186  0.0151
  955MOL0     C31668   6.736  12.159   1.813  0.6948  0.4932  0.1435
  955MOL0     N31669   6.679  12.265   1.902  0.3271  0.2585  0.3018
  955MOL0     C31670   6.558  12.325   1.898  0.1376  0.5314 -0.4257
  955MOL0     C31671   6.555  12.405   2.003 -0.2686 -0.2425 -0.3581
  955MOL0     C31672   6.435  12.495   2.038  0.1742  0.6539  0.0998
  955MOL0     C31673   6.449  12.649   2.020  0.4631 -0.5523 -0.4205
  955MOL0     C31674   6.392  12.725   2.136  0.1506 -1.1908 -0.4172
  955MOL0     C31675   6.394  12.876   2.094 -1.1586  0.5372  0.1938
  955MOL0     O31676   6.511  12.933   2.156  0.2637 -0.2592  0.3633
  955MOL0     C31677   6.527  13.068   2.190  0.3823 -0.0304  0.3731
  955MOL0     C31678   6.663  13.116   2.193 -0.3105  0.6712  0.0725
  955MOL0     C31679   6.689  13.250   2.231 -0.9448 -0.4658  0.1507
  955MOL0     C31680   6.827  13.301   2.229 -0.6574  0.0479  0.7136
  955MOL0     C31681   6.579  13.339   2.263 -0.2388  0.2201 -1.0810
  955MOL0     C31682   6.597  13.479   2.323  0.1205 -0.8428 -0.0415
  955MOL0     O31683   6.498  13.523   2.413  0.2822 -0.3236  0.0769
  955MOL0     C31684   6.502  13.657   2.450 -0.3561  0.1094  0.9038
  955MOL0     C31685   6.433  13.755   2.375  0.1052 -0.0219  0.3415
  955MOL0     C31686   6.435  13.889   2.414 -0.1234 -0.1125  0.1761
  955MOL0     C31687   6.503  13.925   2.534  0.4218  0.2138  0.4431
  955MOL0     O31688   6.518  14.051   2.578  0.3134 -0.0122 -0.0047
  955MOL0     C31689   6.414  14.143   2.530 -0.0016 -0.8977  0.5430
  955MOL0     C31690   6.404  14.266   2.618 -0.1887 -0.1471  0.5259
  955MOL0     C31691   6.539  14.354   2.604 -0.1441  0.3972 -0.1623
  955MOL0     C31692   6.547  14.443   2.487 -0.3869 -0.1672 -0.3138
  955MOL0     C31693   6.676  14.520   2.471 -0.6541  0.6048 -0.3516
  955MOL0     C31694   6.687  14.581   2.334  0.2549  0.3466 -0.7578
  955MOL0     C31695   6.584  14.700   2.314 -0.8475  0.4160  0.2734
  955MOL0     C31696   6.580  14.750   2.165 -0.4894  0.3916 -0.2008
  955MOL0    Cl31697   6.730  14.805   2.103  0.0244 -0.6675  0.1426
  955MOL0     C31698   6.575  13.830   2.606  0.2241  0.7782  0.0422
  955MOL0     C31699   6.576  13.697   2.560  0.0135  0.5759  0.0994
  955MOL0     O31700   6.691  13.553   2.289 -0.6826  0.7712  0.1518
  955MOL0     C31701   6.449  13.288   2.263 -0.1996 -1.1122  0.1345
  955MOL0     C31702   6.419  13.160   2.222  0.3915 -0.4778  0.0793
  955MOL0     N31703   6.674  12.398   2.074  0.8620  0.2831 -0.3809
  955MOL0     N31704   6.732  12.293   2.024 -0.4905 -0.1892  0.5364
  955MOL0     C31705   6.788  11.223   1.294  0.1818  0.2869  0.6876
  955MOL0     C31706   6.817  11.081   1.274  0.6780  0.5504 -0.1654
  955MOL0     C31707   7.131  10.725   1.220 -0.6156 -0.0819  0.4566
  955MOL0     C31708   7.234  10.660   1.282 -0.1067 -0.3538  0.3233
  955MOL0     C31709   7.280  10.533   1.244 -0.2401 -0.5425 -0.2647
  955MOL0     C31710   7.225  10.468   1.132 -0.0575 -0.8131 -0.0215
  955MOL0     O31711   7.259  10.345   1.089  0.3402  0.3885 -0.6895
  955MOL0     C31712   7.190  10.229   1.152  0.1697 -0.2408 -1.5726
  955MOL0     C31713   7.080  10.165   1.063 -0.6834 -0.8342 -0.2556
  955MOL0     C31714   7.138  10.107   0.936  0.6894 -0.2344  0.3190
  955MOL0     C31715   7.075   9.976   0.882  1.3491  0.3756 -0.6955
  955MOL0     C31716   6.942  10.017   0.840  0.1587  1.2078 -0.4042
  955MOL0     C31717   6.823  10.030   0.798  0.1618  0.9594 -0.7172
  955MOL0     C31718   7.132  10.544   1.053 -0.1386 -0.0689 -0.2527
  955MOL0     C31719   7.078  10.668   1.096  0.3827 -0.6404  0.2152
  955MOL0     C31720   6.973  10.721   1.006  0.8553 -0.1454  1.3084
  955MOL0     H31721   7.127  11.094   1.147 -1.0135 -0.2183 -1.8873
  955MOL0     H31722   7.086  11.351   1.182  0.6793  1.3932  3.3960
  955MOL0     H31723   6.710  11.480   1.402  0.0440  1.4075  2.6259
  955MOL0     H31724   6.722  11.606   1.277 -0.3600 -1.4904 -0.7536
  955MOL0     H31725   6.894  11.549   1.516  0.2321 -1.2797 -1.6062
  955MOL0     H31726   6.973  11.645   1.386 -0.1398 -1.3594 -3.1235
  955MOL0     H31727   6.782  11.801   1.388 -1.3470  0.5369  1.7148
  955MOL0     H31728   6.712  11.720   1.518 -1.0206  2.5401 -2.1255
  955MOL0     H31729   6.925  11.759   1.655  0.8619  0.7903 -0.4392
  955MOL0     H31730   6.987  11.862   1.533  1.0803 -0.2235 -0.0323
  955MOL0     H31731   6.777  12.008   1.539  0.0878  5.0197  3.8549
  955MOL0     H31732   6.892  12.018   1.663  0.6026 -0.5274 -0.2373
  955MOL0     H31733   6.625  11.865   1.676 -0.0202 -0.6397  1.6986
  955MOL0     H31734   6.740  11.873   1.813 -0.1436 -1.8025  0.4071
  955MOL0     H31735   6.565  12.037   1.846  0.1046  1.0967 -0.0820
  955MOL0     H31736   6.581  12.102   1.679  0.2978  2.3118  1.2210
  955MOL0     H31737   6.821  12.114   1.864  2.7616  2.3087 -1.4668
  955MOL0     H31738   6.784  12.212   1.730 -2.1386  0.8970 -1.3997
  955MOL0     H31739   6.490  12.314   1.814 -0.6490 -2.5163  0.4847
  955MOL0     H31740   6.400  12.464   2.137 -0.3523  0.2579 -0.2016
  955MOL0     H31741   6.354  12.470   1.968 -0.8852  1.4756  0.9892
  955MOL0     H31742   6.554  12.675   2.002  0.1838  0.4945 -0.6473
  955MOL0     H31743   6.380  12.686   1.944 -1.0069 -2.0174  0.1396
  955MOL0     H31744   6.287  12.695   2.147 -0.1074  0.1520  1.0068
  955MOL0     H31745   6.433  12.702   2.234 -0.0768 -0.8664 -0.2466
  955MOL0     H31746   6.392  12.891   1.985 -1.3374 -2.1577 -0.2281
  955MOL0     H31747   6.296  12.909   2.131 -1.6456 -2.6201  2.0161
  955MOL0     H31748   6.753  13.057   2.183 -0.8796 -0.8348  2.7006
  955MOL0     H31749   6.887  13.210   2.225 -0.3250  0.1628  2.4107
  955MOL0     H31750   6.859  13.360   2.315 -1.2094  2.6813 -0.7735
  955MOL0     H31751   6.850  13.365   2.144  0.9585 -0.4474  0.7592
  955MOL0     H31752   6.356  13.751   2.300 -0.2776  0.7500  0.6823
  955MOL0     H31753   6.402  13.958   2.337  1.2181 -0.0772 -0.4081
  955MOL0     H31754   6.437  14.184   2.432  1.6529  1.5317  1.8522
  955MOL0     H31755   6.315  14.098   2.519 -0.6171 -0.3878  3.1865
  955MOL0     H31756   6.312  14.321   2.595  1.5340  2.6743 -0.0857
  955MOL0     H31757   6.389  14.222   2.717  0.5548  0.3712  0.8807
  955MOL0     H31758   6.628  14.292   2.611 -1.0346 -0.7928  1.3280
  955MOL0     H31759   6.532  14.413   2.696 -1.2868 -0.2801  0.2148
  955MOL0     H31760   6.466  14.516   2.494  0.0691  0.1683  3.0858
  955MOL0     H31761   6.533  14.372   2.405  1.1160 -1.9969  0.9152
  955MOL0     H31762   6.672  14.591   2.555 -2.2385  1.4618 -1.1090
  955MOL0     H31763   6.769  14.464   2.484 -0.2258  1.4345  0.2168
  955MOL0     H31764   6.680  14.502   2.259  2.1767 -1.6330  0.9691
  955MOL0     H31765   6.790  14.616   2.326  0.7102 -1.0480 -1.2646
  955MOL0     H31766   6.620  14.782   2.376  1.0765  0.2242 -0.5323
  955MOL0     H31767   6.481  14.672   2.340 -0.7452 -1.1895 -0.8819
  955MOL0     H31768   6.497  14.821   2.159 -0.5186  0.3294 -0.5290
  955MOL0     H31769   6.552  14.669   2.097  0.9670 -0.3208  0.0059
  955MOL0     H31770   6.631  13.844   2.698  0.1192 -5.0220  1.3621
  955MOL0     H31771   6.636  13.617   2.603 -1.1395  0.1818  0.9919
  955MOL0     H31772   6.365  13.356   2.279  0.2100 -0.3600 -0.8026
  955MOL0     H31773   6.315  13.127   2.224 -0.1240  1.0535 -0.0902
  955MOL0     H31774   6.691  11.255   1.329  0.5808  0.3578  1.7825
  955MOL0     H31775   6.753  10.998   1.303  1.5387  0.3833  1.3589
  955MOL0     H31776   7.274  10.701   1.375  1.6248 -0.5081 -0.3324
  955MOL0     H31777   7.350  10.478   1.306 -1.2674  0.6321  2.0494
  955MOL0     H31778   7.272  10.160   1.171 -0.2718 -1.0040 -2.3953
  955MOL0     H31779   7.141  10.267   1.242  1.6012  3.2529 -2.0901
  955MOL0     H31780   7.001  10.236   1.038 -1.4402 -1.8841 -0.9403
  955MOL0     H31781   7.032  10.097   1.134  1.6156 -1.9199  0.3283
  955MOL0     H31782   7.103  10.180   0.863 -4.5597 -0.3048  2.3163
  955MOL0     H31783   7.245  10.087   0.934  1.2520  1.1579  4.8045
  955MOL0     H31784   7.063   9.902   0.961  1.7604  1.9893  0.9396
  955MOL0     H31785   7.121   9.932   0.793  2.3748 -2.7824  1.2265
  955MOL0     H31786   6.721  10.055   0.776 -0.6083 -0.4948  0.9311
  955MOL0     H31787   7.099  10.503   0.958  0.5916  0.7170 -0.8588
  955MOL0     H31788   6.979  10.829   0.992  2.6138 -0.3570  0.1111
  955MOL0     H31789   6.984  10.670   0.910  0.3667  1.5105  0.3419
  955MOL0     H31790   6.869  10.704   1.032  0.0011  1.9122 -0.4626
  956MOL0     O31791   9.310   3.381   7.579 -0.4662 -0.0994 -0.4024
  956MOL0     C31792   9.373   3.431   7.488 -0.3234 -0.0270  1.0007
  956MOL0     O31793   9.331   3.529   7.402 -0.4945 -0.3142 -0.4580
  956MOL0     C31794   9.225   3.611   7.429  0.7670 -0.1651  0.2925
  956MOL0     C31795   9.145   3.618   7.549 -1.2264  0.3099 -0.4423
  956MOL0     C31796   9.040   3.711   7.569 -0.6374 -0.2868  0.4868
  956MOL0     C31797   9.016   3.803   7.465 -0.4035  0.6425  0.0777
  956MOL0     O31798   8.911   3.893   7.473  0.1173 -0.1474 -0.3948
  956MOL0     C31799   8.876   3.947   7.603 -0.5398 -0.5537 -0.2090
  956MOL0     C31800   8.782   4.066   7.584 -0.5213 -0.0268  0.1337
  956MOL0     C31801   8.650   4.022   7.522  0.1561  0.1542 -0.3637
  956MOL0     C31802   8.549   4.135   7.555  0.5735 -0.0370 -1.1675
  956MOL0     C31803   8.411   4.083   7.517  0.2663 -0.7176 -1.1296
  956MOL0     C31804   8.318   4.202   7.502 -0.7628  0.1056 -0.0051
  956MOL0     C31805   8.167   4.182   7.490  0.8117 -0.5008 -0.0263
  956MOL0     C31806   8.097   4.139   7.621 -0.5216 -0.0748 -0.6631
  956MOL0     N31807   8.148   4.023   7.679  0.0079  0.1086 -0.5497
  956MOL0     C31808   8.141   3.899   7.628  0.0140  0.2556 -0.0207
  956MOL0     C31809   8.192   3.815   7.730  0.7032 -0.2491  0.4548
  956MOL0     C31810   8.213   3.665   7.742  0.5596 -0.6242 -0.0957
  956MOL0     C31811   8.351   3.626   7.793  0.3363  0.2598 -0.3586
  956MOL0     C31812   8.462   3.708   7.725 -0.2744 -1.2108 -0.3284
  956MOL0     C31813   8.578   3.613   7.705  0.2214 -0.3345  0.1761
  956MOL0     O31814   8.539   3.529   7.594 -0.4482 -1.1856 -0.1158
  956MOL0     C31815   8.613   3.424   7.562  0.3143 -0.4199 -0.0458
  956MOL0     C31816   8.751   3.408   7.600 -0.1902  0.5751  0.0975
  956MOL0     C31817   8.834   3.309   7.539 -0.0349  0.0961  0.3158
  956MOL0     C31818   8.982   3.324   7.564 -0.0193  0.2725 -0.8598
  956MOL0     C31819   8.774   3.222   7.449 -0.0272 -0.3550 -0.4164
  956MOL0     C31820   8.837   3.100   7.380 -0.7868 -0.3388  0.1042
  956MOL0     O31821   8.758   3.026   7.300  0.2929 -0.6151 -0.6672
  956MOL0     C31822   8.820   2.948   7.204 -0.4450  0.3536  0.4345
  956MOL0     C31823   8.893   2.994   7.093 -0.9088 -0.2641 -0.0438
  956MOL0     C31824   8.952   2.900   7.003  0.7070  0.0563  1.0896
  956MOL0     C31825   8.931   2.762   7.025 -0.7404 -0.1538  0.8271
  956MOL0     O31826   8.979   2.667   6.937 -0.1069 -0.0673  0.4244
  956MOL0     C31827   8.977   2.702   6.801  0.2273 -0.7469  0.1405
  956MOL0     C31828   8.997   2.577   6.709  0.6466 -0.3632  0.4286
  956MOL0     C31829   9.139   2.526   6.702 -0.4046  0.0935  0.2444
  956MOL0     C31830   9.147   2.384   6.654  0.3025  0.6469  0.0130
  956MOL0     C31831   9.291   2.342   6.626 -1.2313 -0.0731  0.1165
  956MOL0     C31832   9.312   2.211   6.556  0.4686  0.3051  0.1865
  956MOL0     C31833   9.466   2.187   6.538 -0.2604  0.5449 -0.9878
  956MOL0     C31834   9.531   2.255   6.426 -0.3997  0.5930 -0.3461
  956MOL0    Cl31835   9.456   2.215   6.275  0.1656  0.2164  0.1685
  956MOL0     C31836   8.843   2.719   7.125  0.5843  0.3183  0.6576
  956MOL0     C31837   8.789   2.811   7.212  0.0672 -0.6170 -0.2081
  956MOL0     O31838   8.960   3.075   7.396 -0.9692  0.1547  1.1458
  956MOL0     C31839   8.640   3.242   7.410  0.0190 -0.4382 -0.4610
  956MOL0     C31840   8.560   3.347   7.464  0.0282 -0.6829 -1.2144
  956MOL0     N31841   8.217   3.887   7.843 -0.8500 -0.2826  0.1155
  956MOL0     N31842   8.194   4.012   7.810  0.3854 -0.3463  0.4572
  956MOL0     C31843   9.081   3.798   7.342  0.2805 -0.7823 -0.1651
  956MOL0     C31844   9.182   3.698   7.323  0.2420 -0.7079 -0.2042
  956MOL0     C31845   9.505   3.367   7.458 -0.5205  0.2875 -0.2164
  956MOL0     C31846   9.579   3.433   7.357  0.2452  0.0659 -0.7319
  956MOL0     C31847   9.700   3.387   7.319 -0.3207 -0.4792 -0.6420
  956MOL0     C31848   9.747   3.266   7.368 -0.5366  0.9804  0.3525
  956MOL0     O31849   9.865   3.209   7.326 -0.9473 -0.3452 -0.0278
  956MOL0     C31850   9.981   3.283   7.320 -1.1524 -1.3240 -0.3554
  956MOL0     C31851  10.113   3.196   7.359 -0.0564  0.1480  0.0326
  956MOL0     C31852  10.104   3.116   7.486  0.5473 -1.0876  0.6567
  956MOL0     C31853  10.224   3.034   7.518 -0.9979  1.3977  0.4168
  956MOL0     C31854  10.221   2.895   7.458 -0.7889 -0.5724  0.3551
  956MOL0     C31855  10.198   2.786   7.416 -0.4638  0.7493 -0.0867
  956MOL0     C31856   9.675   3.198   7.470 -0.6742  0.2706  0.6877
  956MOL0     C31857   9.548   3.246   7.520 -0.0903  0.1664 -0.3683
  956MOL0     C31858   9.483   3.177   7.641 -0.0960  0.6558 -0.5155
  956MOL0     H31859   9.171   3.559   7.636  1.8119  3.0477  0.7293
  956MOL0     H31860   8.987   3.694   7.662  0.1745  0.7260  1.1473
  956MOL0     H31861   8.964   3.978   7.660 -1.0937  0.9068 -0.0930
  956MOL0     H31862   8.817   3.877   7.662  1.6459 -2.0249  0.3228
  956MOL0     H31863   8.779   4.119   7.680  0.4325  0.7545 -0.2520
  956MOL0     H31864   8.830   4.147   7.528 -1.4312 -0.2203 -0.9831
  956MOL0     H31865   8.666   4.014   7.414  1.3902 -0.8564 -0.1237
  956MOL0     H31866   8.624   3.919   7.549  0.9696 -0.3716 -1.5191
  956MOL0     H31867   8.555   4.171   7.658  3.4630  1.2768 -1.6825
  956MOL0     H31868   8.570   4.227   7.500 -0.3337  1.1261  0.3290
  956MOL0     H31869   8.378   4.019   7.599  0.3692  1.1056  0.3765
  956MOL0     H31870   8.418   4.017   7.429 -0.3969 -0.1117 -1.6474
  956MOL0     H31871   8.340   4.263   7.590 -2.6419  2.3478 -0.9922
  956MOL0     H31872   8.348   4.262   7.415 -0.1475 -0.6422 -0.3211
  956MOL0     H31873   8.154   4.096   7.423 -2.9951 -1.0329  1.1885
  956MOL0     H31874   8.120   4.267   7.442  3.8547 -0.3587 -3.1812
  956MOL0     H31875   8.094   4.223   7.692  1.0391 -0.3043 -0.2876
  956MOL0     H31876   7.997   4.108   7.589 -0.4736 -1.1985  0.2268
  956MOL0     H31877   8.110   3.862   7.530  1.6453 -0.8923 -0.1438
  956MOL0     H31878   8.190   3.617   7.646  2.1460  0.3030 -0.9931
  956MOL0     H31879   8.142   3.628   7.817  0.6480  1.1741  0.9380
  956MOL0     H31880   8.353   3.644   7.901 -2.2387  0.6488 -0.3226
  956MOL0     H31881   8.368   3.522   7.765  2.1226  0.4174  0.0303
  956MOL0     H31882   8.432   3.733   7.623  2.6244 -0.6023 -1.1153
  956MOL0     H31883   8.480   3.799   7.782 -0.4124 -1.0255 -0.5832
  956MOL0     H31884   8.660   3.683   7.688  0.4397 -1.0252 -1.9356
  956MOL0     H31885   8.601   3.555   7.795  2.9265  0.0739 -0.1805
  956MOL0     H31886   8.800   3.479   7.666  2.7265 -4.2888  3.8670
  956MOL0     H31887   9.035   3.236   7.602  2.0035  1.5910 -0.5075
  956MOL0     H31888   8.994   3.393   7.648 -0.4274 -2.5573  1.7385
  956MOL0     H31889   9.030   3.353   7.471 -3.2303  1.1752 -2.3620
  956MOL0     H31890   8.902   3.102   7.088  2.1987 -0.3855  0.5463
  956MOL0     H31891   9.018   2.947   6.930  1.3624  0.2759  1.8025
  956MOL0     H31892   8.878   2.741   6.775  1.6043  2.6432 -0.6293
  956MOL0     H31893   9.050   2.781   6.780  0.0274 -0.0318  1.9452
  956MOL0     H31894   8.922   2.501   6.732  1.7324 -1.5314  0.2173
  956MOL0     H31895   8.973   2.608   6.607  0.5778 -0.0409  0.5393
  956MOL0     H31896   9.180   2.523   6.804  2.1504 -2.1236 -0.7294
  956MOL0     H31897   9.195   2.602   6.647 -2.9983  2.7911  1.0773
  956MOL0     H31898   9.092   2.374   6.560 -0.0408 -2.0354  0.4130
  956MOL0     H31899   9.092   2.318   6.722  0.0770  1.5755  0.7561
  956MOL0     H31900   9.352   2.418   6.577  0.2320 -1.0396  0.3709
  956MOL0     H31901   9.339   2.333   6.724  3.5733  2.8321 -1.6245
  956MOL0     H31902   9.250   2.195   6.467  0.0514 -3.9345  1.0142
  956MOL0     H31903   9.265   2.149   6.632  1.6734 -0.7232  0.1257
  956MOL0     H31904   9.482   2.080   6.528 -1.2191  0.4798 -2.0338
  956MOL0     H31905   9.524   2.217   6.626  2.5189 -1.1665 -2.1120
  956MOL0     H31906   9.635   2.221   6.422 -0.1990  1.1267  0.1162
  956MOL0     H31907   9.525   2.364   6.436  0.1230  0.4416  2.5558
  956MOL0     H31908   8.828   2.612   7.130 -1.0686  0.4849 -0.0848
  956MOL0     H31909   8.718   2.779   7.287 -0.5703  0.6565 -0.2321
  956MOL0     H31910   8.589   3.179   7.337  2.3818  0.4099 -3.0110
  956MOL0     H31911   8.457   3.352   7.432 -0.1344 -2.8660 -1.1973
  956MOL0     H31912   9.045   3.879   7.280  0.4469  1.0630  1.9888
  956MOL0     H31913   9.231   3.692   7.227 -0.3066  0.1937 -0.5545
  956MOL0     H31914   9.549   3.516   7.294 -1.0094  0.9215  0.9104
  956MOL0     H31915   9.752   3.428   7.233  0.7058  2.3103  1.1773
  956MOL0     H31916   9.998   3.318   7.218  1.3555  2.2326  1.0720
  956MOL0     H31917   9.989   3.371   7.385  0.9075 -1.2482 -0.6245
  956MOL0     H31918  10.199   3.263   7.370 -1.9164  2.5110  1.0067
  956MOL0     H31919  10.123   3.119   7.283  1.9544 -2.3705  2.6350
  956MOL0     H31920  10.071   3.189   7.560  0.0718  2.8908 -3.1047
  956MOL0     H31921  10.023   3.042   7.482  2.2513 -3.0001 -1.1744
  956MOL0     H31922  10.213   3.004   7.622 -2.4380 -3.2892 -0.8497
  956MOL0     H31923  10.315   3.090   7.492 -0.0870 -1.1999 -2.6384
  956MOL0     H31924  10.171   2.687   7.388  0.8090 -0.1178  1.5778
  956MOL0     H31925   9.718   3.104   7.505  2.3564  1.3036  0.0044
  956MOL0     H31926   9.562   3.110   7.675 -0.4180  0.9617  0.8673
  956MOL0     H31927   9.448   3.242   7.722  0.4795 -0.1478  0.3962
  956MOL0     H31928   9.398   3.113   7.617 -0.1606  0.0443  1.2619
  957MOL0     O31929   9.264   3.044   9.827 -0.3042  0.0359 -0.1454
  957MOL0     C31930   9.197   3.073   9.927 -0.2274  0.0147 -0.0669
  957MOL0     O31931   9.063   3.081   9.937 -0.0324 -0.5001  0.0014
  957MOL0     C31932   8.992   3.042   9.827  0.7413  0.9461 -0.1498
  957MOL0     C31933   9.005   3.085   9.693 -0.1693 -1.0367 -0.1595
  957MOL0     C31934   8.916   3.052   9.593  0.9851 -0.0006 -0.3953
  957MOL0     C31935   8.811   2.967   9.615  0.4686  0.5830  0.2177
  957MOL0     O31936   8.735   2.922   9.505  0.8013 -0.4403  0.0559
  957MOL0     C31937   8.620   2.846   9.532  1.1927 -0.7001  0.3393
  957MOL0     C31938   8.549   2.817   9.399  0.0775 -1.0331  0.2837
  957MOL0     C31939   8.478   2.937   9.358 -0.2081 -0.7401  0.0209
  957MOL0     C31940   8.560   3.051   9.289  0.0038 -0.3868  0.2821
  957MOL0     C31941   8.486   3.119   9.167 -0.1654 -0.7394  0.0573
  957MOL0     C31942   8.384   3.207   9.227 -0.0210  0.6482 -0.4534
  957MOL0     C31943   8.288   3.272   9.122  0.9762  0.0805  0.6251
  957MOL0     C31944   8.237   3.184   9.006  0.5567  0.0502 -0.2496
  957MOL0     N31945   8.142   3.257   8.922 -0.1278 -0.4816 -0.3152
  957MOL0     C31946   8.014   3.228   8.876  0.1883 -0.1049 -1.2092
  957MOL0     C31947   7.964   3.335   8.811  0.7573 -0.3378 -0.1187
  957MOL0     C31948   7.830   3.339   8.759 -0.3729 -0.7538  0.2998
  957MOL0     C31949   7.805   3.252   8.635  0.1448  0.1357 -0.8195
  957MOL0     C31950   7.777   3.093   8.675 -0.0189  0.1512 -0.6967
  957MOL0     C31951   7.638   3.071   8.749  0.6503 -0.4012  0.4578
  957MOL0     O31952   7.604   2.935   8.719 -0.3239 -0.2761 -0.2910
  957MOL0     C31953   7.487   2.884   8.772  0.7926 -0.8069  0.0100
  957MOL0     C31954   7.407   2.939   8.873 -0.1660 -0.8182  0.3383
  957MOL0     C31955   7.290   2.882   8.933 -0.1384  0.0257 -0.3953
  957MOL0     C31956   7.213   2.958   9.040 -0.2821  0.4380  0.7846
  957MOL0     C31957   7.250   2.747   8.890 -0.4507  0.1745  0.7978
  957MOL0     C31958   7.140   2.674   8.949  0.1258  1.6318 -0.3082
  957MOL0     O31959   7.018   2.743   8.995 -0.4618 -0.3924  0.7502
  957MOL0     C31960   6.942   2.672   9.086 -0.4542  0.3421  0.3845
  957MOL0     C31961   6.955   2.710   9.220 -0.0616  0.8604 -0.4047
  957MOL0     C31962   6.863   2.660   9.319 -0.2633  0.3507 -0.7612
  957MOL0     C31963   6.750   2.587   9.276 -0.1719 -0.0931 -0.8574
  957MOL0     O31964   6.662   2.545   9.383 -0.0703  0.2900 -0.1930
  957MOL0     C31965   6.548   2.466   9.343 -0.1479 -0.3761  0.5444
  957MOL0     C31966   6.478   2.419   9.470  0.1585 -0.6133  0.4890
  957MOL0     C31967   6.341   2.352   9.450  0.0406  1.4155 -0.7613
  957MOL0     C31968   6.218   2.436   9.481 -0.1184  0.2720  1.2762
  957MOL0     C31969   6.094   2.380   9.410 -0.1862 -0.5555 -0.3859
  957MOL0     C31970   5.977   2.477   9.438 -0.3927  0.2798  0.0251
  957MOL0     C31971   5.848   2.428   9.381  0.0510  0.0506 -0.0021
  957MOL0     C31972   5.816   2.487   9.247 -0.3125  0.5800 -0.7643
  957MOL0    Cl31973   5.945   2.464   9.116 -0.0076  0.1209  0.2943
  957MOL0     C31974   6.728   2.558   9.140 -0.7750  0.4310 -0.3967
  957MOL0     C31975   6.824   2.605   9.044 -0.3972 -0.1760 -0.3801
  957MOL0     O31976   7.157   2.553   8.950  0.3313 -0.2734  0.4418
  957MOL0     C31977   7.331   2.689   8.794 -0.4167  0.9375  0.4172
  957MOL0     C31978   7.443   2.753   8.732  0.0338 -0.2870 -0.3101
  957MOL0     N31979   8.065   3.429   8.795  0.1111 -0.3354 -1.2684
  957MOL0     N31980   8.167   3.379   8.867  0.4535  0.4033 -0.0141
  957MOL0     C31981   8.790   2.921   9.742  0.2263  0.4544  0.5143
  957MOL0     C31982   8.877   2.949   9.847 -0.7843 -0.4175 -0.8537
  957MOL0     C31983   9.270   3.088  10.057 -1.0067  0.8019 -0.2596
  957MOL0     C31984   9.193   3.110  10.175  0.5379  0.3241 -0.6064
  957MOL0     C31985   9.260   3.119  10.299  0.2003  0.4167  0.8248
  957MOL0     C31986   9.394   3.089  10.318  0.8910 -0.0517  0.2139
  957MOL0     O31987   9.451   3.095  10.434 -0.3261  0.1863  0.3279
  957MOL0     C31988   9.459   2.967  10.497 -0.3717  0.0559  0.5283
  957MOL0     C31989   9.458   2.990  10.650 -0.7189 -0.2257  0.3375
  957MOL0     C31990   9.586   3.055  10.700  0.0361 -0.1531 -0.7317
  957MOL0     C31991   9.680   2.947  10.727 -0.4294  0.3595  0.4461
  957MOL0     C31992   9.789   2.999  10.808 -0.5737 -0.1470  0.0314
  957MOL0     C31993   9.887   3.045  10.869 -0.0628  0.2529  0.6699
  957MOL0     C31994   9.467   3.065  10.202  0.4396  0.4836 -0.2722
  957MOL0     C31995   9.414   3.062  10.073  0.5059 -0.1608 -0.2910
  957MOL0     C31996   9.511   3.022   9.961 -0.4111  0.5586  0.0132
  957MOL0     H31997   9.089   3.151   9.671  0.9659 -2.3036  0.2223
  957MOL0     H31998   8.915   3.087   9.491  0.1927  0.7535 -0.1429
  957MOL0     H31999   8.554   2.895   9.605  1.1572 -2.2907  1.4063
  957MOL0     H32000   8.646   2.753   9.582 -3.5250 -1.6702  1.4391
  957MOL0     H32001   8.625   2.784   9.328  2.7701  1.7719  1.6267
  957MOL0     H32002   8.482   2.734   9.422  0.4603 -1.4880 -0.2374
  957MOL0     H32003   8.405   2.899   9.286 -1.2647 -3.4865  2.3395
  957MOL0     H32004   8.410   2.971   9.437  2.5119 -0.0005  2.1937
  957MOL0     H32005   8.586   3.121   9.369 -0.8648  1.6499 -1.1386
  957MOL0     H32006   8.655   3.009   9.257  1.2559 -0.8518  4.1337
  957MOL0     H32007   8.440   3.042   9.104 -0.4796 -1.3566  1.0323
  957MOL0     H32008   8.557   3.178   9.108 -1.2653 -0.9725 -1.5846
  957MOL0     H32009   8.323   3.152   9.299  1.7359 -0.1574  0.4702
  957MOL0     H32010   8.436   3.285   9.283 -1.4091  2.5286 -1.6370
  957MOL0     H32011   8.358   3.338   9.070  1.0844 -1.1958 -0.9120
  957MOL0     H32012   8.201   3.320   9.167  0.1827 -0.7089 -0.0343
  957MOL0     H32013   8.329   3.154   8.956  1.5130  0.0032  1.4452
  957MOL0     H32014   8.196   3.089   9.043  2.2750 -1.3718 -1.8216
  957MOL0     H32015   7.964   3.131   8.880 -1.8397  0.8843 -1.4475
  957MOL0     H32016   7.797   3.440   8.733 -0.3056 -0.8792 -0.2933
  957MOL0     H32017   7.763   3.303   8.837 -0.9888 -1.1560 -0.4015
  957MOL0     H32018   7.718   3.287   8.578 -1.0909 -1.6783 -0.1480
  957MOL0     H32019   7.890   3.266   8.568  0.7599 -3.7556 -1.1040
  957MOL0     H32020   7.775   3.046   8.576  0.8890  1.0279 -1.1521
  957MOL0     H32021   7.842   3.032   8.739 -0.0597  1.5248  0.7049
  957MOL0     H32022   7.656   3.092   8.855  1.3297  0.6081  0.1580
  957MOL0     H32023   7.568   3.150   8.719 -0.7079 -0.6550  2.6982
  957MOL0     H32024   7.437   3.041   8.897  4.6451 -1.1135 -3.1186
  957MOL0     H32025   7.112   2.985   9.007  1.2017  1.1726 -3.9022
  957MOL0     H32026   7.277   3.044   9.061  1.3149 -0.4859 -0.1583
  957MOL0     H32027   7.205   2.909   9.138 -0.9937  0.5990  0.8180
  957MOL0     H32028   7.034   2.776   9.256  1.8514 -1.5822  0.1856
  957MOL0     H32029   6.885   2.679   9.423 -0.1722 -2.7135 -0.1211
  957MOL0     H32030   6.470   2.517   9.284  2.2076  1.4932 -1.1588
  957MOL0     H32031   6.574   2.373   9.293  2.0177 -0.2138  1.2853
  957MOL0     H32032   6.544   2.352   9.525  1.2599 -0.0471 -0.1117
  957MOL0     H32033   6.468   2.508   9.533 -0.3960 -1.0441  1.0237
  957MOL0     H32034   6.336   2.261   9.510  2.1814  0.7360 -1.4981
  957MOL0     H32035   6.322   2.315   9.349 -1.8954  1.2431 -0.3575
  957MOL0     H32036   6.234   2.535   9.436 -2.8257  0.0326 -0.4362
  957MOL0     H32037   6.198   2.447   9.588  1.8208 -0.6193  1.7715
  957MOL0     H32038   6.111   2.380   9.302 -0.8171 -0.1081 -0.4891
  957MOL0     H32039   6.063   2.282   9.450 -1.1073 -0.5062 -0.9482
  957MOL0     H32040   5.999   2.580   9.407  1.8370  0.2145  1.1683
  957MOL0     H32041   5.962   2.466   9.545 -2.1171 -1.1334 -0.3233
  957MOL0     H32042   5.761   2.453   9.443  0.2430 -0.1480  0.3532
  957MOL0     H32043   5.842   2.320   9.363  0.4337  0.4592 -3.2681
  957MOL0     H32044   5.798   2.594   9.262  1.8180  0.9228 -0.4220
  957MOL0     H32045   5.724   2.436   9.215  0.3972 -1.2533 -0.0272
  957MOL0     H32046   6.638   2.504   9.112  0.1775 -0.8258 -1.1552
  957MOL0     H32047   6.791   2.592   8.942 -3.7209  1.2562  0.3668
  957MOL0     H32048   7.316   2.595   8.743 -0.3433  1.2666 -0.2250
  957MOL0     H32049   7.493   2.701   8.652 -0.1459 -0.1783 -0.4949
  957MOL0     H32050   8.702   2.859   9.756 -0.4561  1.5739  1.3126
  957MOL0     H32051   8.877   2.913   9.950 -2.4882  1.6731 -0.0366
  957MOL0     H32052   9.086   3.126  10.176  0.8371  2.8147 -1.3026
  957MOL0     H32053   9.200   3.148  10.385 -3.7179 -0.8300 -1.2724
  957MOL0     H32054   9.376   2.901  10.472  0.4856 -0.5657 -0.7603
  957MOL0     H32055   9.546   2.907  10.471 -2.2208 -2.4692 -0.2275
  957MOL0     H32056   9.444   2.890  10.693  0.5495 -0.5982 -0.0570
  957MOL0     H32057   9.371   3.052  10.672  1.0759  1.8591  2.1058
  957MOL0     H32058   9.626   3.131  10.632  1.5285  1.0979  1.4209
  957MOL0     H32059   9.574   3.105  10.797  0.3329  0.0564 -0.8044
  957MOL0     H32060   9.718   2.910  10.631 -1.0754 -1.3403  0.8132
  957MOL0     H32061   9.634   2.865  10.783  0.4677 -0.7397 -0.3895
  957MOL0     H32062   9.971   3.084  10.923  0.0326 -0.1460  0.8074
  957MOL0     H32063   9.573   3.048  10.218  0.9184  3.5501  0.4509
  957MOL0     H32064   9.486   3.084   9.874 -2.4192 -0.0692  0.0907
  957MOL0     H32065   9.615   3.049   9.979 -0.5006  0.5929  0.5000
  957MOL0     H32066   9.507   2.914   9.940  1.5059  0.4935 -0.2152
  958MOL0     O32067   8.641   0.816   2.604  0.0116 -0.5379  0.2093
  958MOL0     C32068   8.648   0.745   2.498 -0.0522 -0.4857  0.0570
  958MOL0     O32069   8.762   0.713   2.433 -0.4320 -0.8125 -0.3565
  958MOL0     C32070   8.880   0.773   2.478  0.0192  0.0692  0.5671
  958MOL0     C32071   8.943   0.860   2.390 -0.0630 -0.0980 -0.1543
  958MOL0     C32072   9.074   0.900   2.420  0.3871  0.2204  0.9310
  958MOL0     C32073   9.139   0.849   2.537  0.1364 -0.1837  0.5844
  958MOL0     O32074   9.267   0.866   2.584  0.2024 -0.8756  1.1769
  958MOL0     C32075   9.329   0.972   2.514  0.3282  0.2400 -0.2873
  958MOL0     C32076   9.445   1.024   2.605  1.6985 -1.0167 -0.8537
  958MOL0     C32077   9.549   1.118   2.546 -0.1467 -1.2721  0.8259
  958MOL0     C32078   9.642   1.039   2.458  0.4545 -0.5101  0.1470
  958MOL0     C32079   9.740   1.123   2.387  0.3904 -0.4289 -0.2239
  958MOL0     C32080   9.855   1.184   2.457  0.5755 -0.3478 -0.6757
  958MOL0     C32081   9.947   1.075   2.505 -0.0358 -0.2598  0.5106
  958MOL0     C32082  10.076   1.137   2.566  0.5358 -0.1653  0.2931
  958MOL0     N32083  10.156   1.054   2.663 -0.0007  0.7044 -0.7258
  958MOL0     C32084  10.284   0.997   2.646 -0.1483 -0.2715 -0.5581
  958MOL0     C32085  10.299   0.916   2.755 -0.0299  0.2466  1.2044
  958MOL0     C32086  10.427   0.847   2.784  0.9848  0.1198 -0.3836
  958MOL0     C32087  10.488   0.884   2.922  0.3567 -0.3013  0.6718
  958MOL0     C32088  10.533   1.036   2.943  0.3840  0.1713  0.2036
  958MOL0     C32089  10.619   1.051   3.071  0.1707  0.4040  0.5076
  958MOL0     O32090  10.668   1.189   3.081  0.4565 -0.2300 -0.1435
  958MOL0     C32091  10.766   1.197   3.173  0.0992  0.3324 -0.7632
  958MOL0     C32092  10.746   1.250   3.301  0.6993  0.1557  0.9791
  958MOL0     C32093  10.849   1.253   3.389 -0.1660  0.1506  0.4033
  958MOL0     C32094  10.812   1.306   3.534 -0.6382  0.9925  0.8915
  958MOL0     C32095  10.972   1.217   3.353  1.0044  0.5983 -0.3354
  958MOL0     C32096  11.088   1.234   3.440  0.0004  0.0989  0.7234
  958MOL0     O32097  11.190   1.131   3.424 -0.3310 -0.3400  0.2283
  958MOL0     C32098  11.309   1.145   3.493 -0.0047 -0.0490 -0.1694
  958MOL0     C32099  11.413   1.224   3.451 -0.4836 -0.1742  0.9997
  958MOL0     C32100  11.524   1.247   3.533  0.1971  0.0502 -0.4403
  958MOL0     C32101  11.531   1.179   3.655 -0.1223  0.8901  0.7863
  958MOL0     O32102  11.628   1.213   3.746 -0.8398 -0.4825 -0.0063
  958MOL0     C32103  11.615   1.341   3.805  0.0565 -0.2152  0.4002
  958MOL0     C32104  11.695   1.341   3.939 -0.7799 -0.9073 -0.9879
  958MOL0     C32105  11.714   1.485   4.003  1.0178  0.0032 -0.1863
  958MOL0     C32106  11.811   1.561   3.918  0.1560  0.2005 -0.3799
  958MOL0     C32107  11.838   1.691   3.992  0.5027  0.3127 -0.0438
  958MOL0     C32108  11.725   1.787   3.954 -0.7282 -0.4828 -0.7847
  958MOL0     C32109  11.752   1.925   4.001 -0.7185  0.1836 -0.6705
  958MOL0     C32110  11.621   2.008   4.026 -0.1359  0.9326 -1.0199
  958MOL0    Cl32111  11.537   1.932   4.164 -0.0564 -0.2400  0.0132
  958MOL0     C32112  11.443   1.077   3.688  0.3442 -1.1851  0.0114
  958MOL0     C32113  11.328   1.070   3.610 -0.0782 -0.1724 -0.1886
  958MOL0     O32114  11.105   1.341   3.495 -0.0110 -0.0198 -0.2965
  958MOL0     C32115  10.991   1.157   3.225 -0.3906  1.1299  0.1467
  958MOL0     C32116  10.890   1.149   3.139 -0.3271  0.2916  0.4360
  958MOL0     N32117  10.193   0.934   2.840 -0.0482 -0.1050  0.5243
  958MOL0     N32118  10.114   1.013   2.789 -0.2333  0.3374  0.3975
  958MOL0     C32119   9.061   0.770   2.618 -0.1079  0.2921 -0.0946
  958MOL0     C32120   8.936   0.726   2.588 -0.7835  0.9676  0.1867
  958MOL0     C32121   8.523   0.699   2.448  0.5031  0.5501  0.0085
  958MOL0     C32122   8.418   0.786   2.431  0.1335 -0.3663 -0.0480
  958MOL0     C32123   8.296   0.747   2.369  0.1019  0.6671  0.4344
  958MOL0     C32124   8.273   0.614   2.328  0.8504  0.3081 -0.3725
  958MOL0     O32125   8.149   0.583   2.275  0.1197 -0.0307  0.1193
  958MOL0     C32126   8.132   0.450   2.233  1.0824 -0.2717 -0.7578
  958MOL0     C32127   8.001   0.434   2.170 -0.4140  0.7763  0.2737
  958MOL0     C32128   7.874   0.430   2.255  0.3671  0.9637 -0.3908
  958MOL0     C32129   7.834   0.296   2.302  0.2082  0.3885 -0.4937
  958MOL0     C32130   7.739   0.231   2.210 -0.0391  0.1269 -0.0833
  958MOL0     C32131   7.675   0.168   2.132  0.4066 -0.6207 -0.3878
  958MOL0     C32132   8.377   0.524   2.347 -0.0328  0.7890 -0.2833
  958MOL0     C32133   8.504   0.565   2.406  0.3532  0.0204 -0.4349
  958MOL0     C32134   8.621   0.461   2.422 -0.0827  0.0565  1.2566
  958MOL0     H32135   8.903   0.901   2.298 -1.8136  0.5103  0.8332
  958MOL0     H32136   9.117   0.957   2.339  2.8311 -1.6823  0.7803
  958MOL0     H32137   9.267   1.062   2.504 -0.7400 -0.3573  0.7262
  958MOL0     H32138   9.364   0.941   2.415 -1.6783 -0.5642 -0.7997
  958MOL0     H32139   9.390   1.068   2.689 -0.3421 -0.3443 -2.4342
  958MOL0     H32140   9.493   0.937   2.651  0.7184 -0.7777  0.7269
  958MOL0     H32141   9.496   1.196   2.491 -1.1573  0.7443  4.3441
  958MOL0     H32142   9.602   1.168   2.627  2.8351  1.8704 -2.6854
  958MOL0     H32143   9.679   0.945   2.501  1.4199  0.0846  0.6406
  958MOL0     H32144   9.584   1.015   2.368 -1.3744  0.9723  0.8598
  958MOL0     H32145   9.678   1.208   2.358 -1.9671 -0.8839  2.9811
  958MOL0     H32146   9.772   1.070   2.296 -1.0122 -0.5412 -0.6753
  958MOL0     H32147   9.907   1.252   2.388 -0.6519  1.7036  0.3398
  958MOL0     H32148   9.821   1.247   2.539  1.0930 -1.0161  0.0627
  958MOL0     H32149   9.965   0.996   2.432 -1.7339 -0.4162  0.2029
  958MOL0     H32150   9.893   1.023   2.585  0.8412  1.8794  2.6306
  958MOL0     H32151  10.130   1.155   2.473  4.2249 -1.9886  1.8720
  958MOL0     H32152  10.061   1.230   2.622 -1.1472 -0.4632  0.3945
  958MOL0     H32153  10.348   1.003   2.558 -1.1304 -0.8985 -1.3522
  958MOL0     H32154  10.508   0.877   2.716 -0.0232 -1.1846 -2.2773
  958MOL0     H32155  10.406   0.739   2.776  1.5284 -0.2748  2.4728
  958MOL0     H32156  10.415   0.857   2.999 -1.5991  1.9161 -0.2715
  958MOL0     H32157  10.579   0.823   2.927  0.9453  0.1059 -2.5760
  958MOL0     H32158  10.594   1.075   2.860  1.3416 -2.3866 -0.4038
  958MOL0     H32159  10.445   1.100   2.952 -0.8822 -1.5210  0.3067
  958MOL0     H32160  10.553   1.036   3.156 -0.2761  0.3038  0.1476
  958MOL0     H32161  10.700   0.977   3.074  0.7902  1.0622  0.3799
  958MOL0     H32162  10.645   1.281   3.325  1.2239  0.8702  2.4305
  958MOL0     H32163  10.705   1.332   3.539 -1.6251 -1.7542 -2.5740
  958MOL0     H32164  10.884   1.385   3.557  0.5878  0.7311 -1.7046
  958MOL0     H32165  10.820   1.219   3.600 -3.7580  0.6120  0.9493
  958MOL0     H32166  11.410   1.282   3.359  1.3054 -0.6749  0.5874
  958MOL0     H32167  11.606   1.312   3.504  1.0452 -1.9533 -2.8623
  958MOL0     H32168  11.658   1.414   3.736  0.1430 -0.3328  0.3286
  958MOL0     H32169  11.508   1.362   3.819 -0.6663 -0.5798 -3.3816
  958MOL0     H32170  11.655   1.272   4.014 -0.3100 -1.5409 -1.3110
  958MOL0     H32171  11.798   1.315   3.912 -0.4419  0.0417 -0.6753
  958MOL0     H32172  11.753   1.481   4.105  2.4478  2.1396 -0.5683
  958MOL0     H32173  11.612   1.525   4.006  0.7449 -0.5950 -1.0050
  958MOL0     H32174  11.782   1.594   3.818  0.3545  1.0064 -0.1838
  958MOL0     H32175  11.905   1.505   3.916 -0.3273 -0.7426  1.3671
  958MOL0     H32176  11.835   1.682   4.101 -1.3591  0.4676 -0.0581
  958MOL0     H32177  11.932   1.730   3.953  1.0529 -2.3464 -1.6372
  958MOL0     H32178  11.631   1.750   3.994 -0.1039 -2.1002 -0.7602
  958MOL0     H32179  11.706   1.808   3.848  0.1390  3.1255 -0.3696
  958MOL0     H32180  11.812   1.972   3.923  0.4406 -2.5825 -1.5928
  958MOL0     H32181  11.814   1.925   4.091 -1.4037 -1.5008 -0.1629
  958MOL0     H32182  11.555   2.007   3.939 -0.2328  0.4423 -0.9459
  958MOL0     H32183  11.645   2.113   4.044 -1.6226  1.0365  0.6007
  958MOL0     H32184  11.454   1.024   3.782 -0.6646 -0.7959  0.3583
  958MOL0     H32185  11.242   1.003   3.615 -0.6967  0.1753 -3.7389
  958MOL0     H32186  11.093   1.138   3.192 -0.4113  1.6901 -0.2551
  958MOL0     H32187  10.902   1.108   3.039  1.8075 -3.0198  1.8463
  958MOL0     H32188   9.092   0.755   2.721 -0.1490  1.0998  0.0384
  958MOL0     H32189   8.881   0.656   2.650  0.2768  1.0011  1.1880
  958MOL0     H32190   8.415   0.888   2.469 -0.0111 -0.2774 -0.2977
  958MOL0     H32191   8.226   0.830   2.367 -0.8103 -0.0221  1.8551
  958MOL0     H32192   8.208   0.409   2.166  1.9529 -0.2704  0.2170
  958MOL0     H32193   8.141   0.381   2.317  3.1356  2.6780  1.6658
  958MOL0     H32194   8.001   0.345   2.107 -0.0432  0.1266  1.1682
  958MOL0     H32195   7.979   0.519   2.105  1.3061  0.9104 -0.1753
  958MOL0     H32196   7.893   0.489   2.345  2.5598 -0.1574 -0.0666
  958MOL0     H32197   7.787   0.478   2.209 -0.7820  0.3938  1.1114
  958MOL0     H32198   7.776   0.308   2.394 -2.0157  2.8736 -2.0499
  958MOL0     H32199   7.921   0.231   2.317 -0.3641 -0.0926  0.9444
  958MOL0     H32200   7.612   0.117   2.062 -1.5689 -1.1723  1.6785
  958MOL0     H32201   8.354   0.418   2.336 -2.1625  0.7681  2.8950
  958MOL0     H32202   8.680   0.468   2.330 -0.2093  0.7282  1.2189
  958MOL0     H32203   8.692   0.466   2.505 -0.7611  1.6069  1.7891
  958MOL0     H32204   8.579   0.360   2.429  0.2395 -0.3496 -1.5589
  959MOL0     O32205   2.878  10.214   3.504  0.3605 -0.4480  0.4590
  959MOL0     C32206   2.832  10.148   3.596  0.0843 -0.5317  0.0676
  959MOL0     O32207   2.702  10.140   3.621  0.2589 -0.0538 -0.0360
  959MOL0     C32208   2.606  10.176   3.540  0.0268  0.2845  0.0251
  959MOL0     C32209   2.584  10.314   3.550 -0.4658 -0.3105 -0.0950
  959MOL0     C32210   2.473  10.371   3.492  0.3622 -0.1469  0.9804
  959MOL0     C32211   2.380  10.286   3.422  0.0862 -1.4593 -0.5564
  959MOL0     O32212   2.263  10.348   3.390  0.5729  0.6005  0.7988
  959MOL0     C32213   2.148  10.271   3.385  0.5311  0.1669 -0.1124
  959MOL0     C32214   2.024  10.365   3.373  0.3370  0.7882  0.2283
  959MOL0     C32215   2.013  10.462   3.493  0.3879 -0.2364  1.2507
  959MOL0     C32216   1.869  10.499   3.513  1.2082 -0.1244 -0.3792
  959MOL0     C32217   1.860  10.530   3.664  1.0383 -0.4092  0.0907
  959MOL0     C32218   1.724  10.606   3.687 -0.1206  0.0994  0.2648
  959MOL0     C32219   1.603  10.522   3.710  1.0528 -0.3933 -0.1755
  959MOL0     C32220   1.458  10.583   3.687  0.3427 -0.3672  0.2561
  959MOL0     N32221   1.419  10.597   3.549 -0.4646  0.0018  0.8408
  959MOL0     C32222   1.369  10.711   3.494 -0.0231 -0.2281 -0.1400
  959MOL0     C32223   1.360  10.695   3.359 -0.4888  0.7123  0.1000
  959MOL0     C32224   1.311  10.788   3.267  1.1056 -0.0593 -0.4896
  959MOL0     C32225   1.383  10.802   3.142  0.4935 -0.5303  0.8481
  959MOL0     C32226   1.528  10.866   3.149  0.4321  0.7756 -0.8795
  959MOL0     C32227   1.636  10.760   3.140 -0.5690 -0.3726 -0.0690
  959MOL0     O32228   1.765  10.818   3.125 -0.4001  0.1805  0.4039
  959MOL0     C32229   1.850  10.823   3.235 -0.0135  0.8744  0.3679
  959MOL0     C32230   1.986  10.817   3.221 -0.1058  0.2017 -0.2755
  959MOL0     C32231   2.065  10.834   3.341  0.5250 -0.0146 -0.2063
  959MOL0     C32232   2.208  10.832   3.317  0.4395  0.1316  0.7450
  959MOL0     C32233   2.013  10.867   3.463 -0.5999  0.4738  0.0534
  959MOL0     C32234   2.097  10.900   3.593 -0.0915  0.1269  0.0329
  959MOL0     O32235   2.029  10.955   3.695 -0.6266  0.2686  0.2525
  959MOL0     C32236   2.098  10.962   3.814 -0.0581 -0.6064  0.5274
  959MOL0     C32237   2.204  11.050   3.829 -0.3475  0.4246 -0.7865
  959MOL0     C32238   2.281  11.060   3.955 -0.0723  0.2314  0.6364
  959MOL0     C32239   2.228  10.992   4.064 -0.5679  0.9955  0.6306
  959MOL0     O32240   2.290  10.997   4.188 -0.1626 -0.2966 -0.2479
  959MOL0     C32241   2.310  10.872   4.257  0.0445  0.2522  0.9169
  959MOL0     C32242   2.456  10.818   4.234  0.7667 -0.5957 -0.4527
  959MOL0     C32243   2.491  10.708   4.331 -0.1759  0.0941  1.2037
  959MOL0     C32244   2.510  10.746   4.483 -1.0627  0.1530 -0.0120
  959MOL0     C32245   2.524  10.612   4.567 -0.6688 -0.3901  0.4101
  959MOL0     C32246   2.527  10.654   4.715 -0.5200 -0.8589 -1.0281
  959MOL0     C32247   2.524  10.540   4.816  0.8800  0.0600 -0.8606
  959MOL0     C32248   2.576  10.586   4.945  0.5978 -0.8969 -0.5616
  959MOL0    Cl32249   2.750  10.621   4.931 -0.5518  0.2282  0.4114
  959MOL0     C32250   2.103  10.919   4.043  0.3338  0.4572 -0.7571
  959MOL0     C32251   2.039  10.906   3.927 -0.1442 -0.6232  0.5490
  959MOL0     O32252   2.211  10.852   3.603  1.3333  0.3478  0.2261
  959MOL0     C32253   1.873  10.861   3.479  0.7395 -0.7069  0.0740
  959MOL0     C32254   1.800  10.836   3.365  0.7887  0.8584  0.2521
  959MOL0     N32255   1.400  10.569   3.331 -0.4330  0.0674  0.2954
  959MOL0     N32256   1.428  10.511   3.438 -0.8234 -1.0142 -1.4731
  959MOL0     C32257   2.398  10.147   3.411 -0.4389  0.4143 -0.2391
  959MOL0     C32258   2.510  10.089   3.478 -0.6058 -0.8274 -0.0705
  959MOL0     C32259   2.932  10.105   3.696 -0.0914  0.8945  0.1062
  959MOL0     C32260   2.911  10.160   3.817 -0.4509 -0.5280 -0.1124
  959MOL0     C32261   2.982  10.107   3.921  0.6998 -0.0854 -0.3762
  959MOL0     C32262   3.096  10.029   3.908  0.0658  0.7740 -0.1709
  959MOL0     O32263   3.174   9.985   4.016 -0.7970  0.0801 -0.1452
  959MOL0     C32264   3.268   9.877   3.997 -0.8691  0.5162 -0.0477
  959MOL0     C32265   3.316   9.836   4.140 -0.1547  0.5826 -0.3644
  959MOL0     C32266   3.215   9.756   4.222 -0.5362  0.0774  0.3231
  959MOL0     C32267   3.286   9.672   4.330  0.2030  0.3749  0.4793
  959MOL0     C32268   3.334   9.761   4.436 -0.1170  1.3885  0.1870
  959MOL0     C32269   3.396   9.840   4.512 -0.1392  1.1958  0.1225
  959MOL0     C32270   3.115   9.976   3.776  0.4957 -1.5423 -0.7590
  959MOL0     C32271   3.037  10.009   3.671  0.2952 -0.5772  0.4184
  959MOL0     C32272   3.052   9.948   3.536 -0.2613  0.8964  1.2240
  959MOL0     H32273   2.661  10.365   3.607 -0.0807 -0.6010 -0.3528
  959MOL0     H32274   2.454  10.476   3.509  2.6876  1.1205 -2.9061
  959MOL0     H32275   2.144  10.196   3.465 -2.0039 -1.0445 -1.2490
  959MOL0     H32276   2.155  10.212   3.294  0.7302 -0.0800  0.0606
  959MOL0     H32277   2.031  10.421   3.280 -0.8011  0.0214 -0.3380
  959MOL0     H32278   1.942  10.294   3.359  0.3260  0.8067  0.1989
  959MOL0     H32279   2.055  10.413   3.582  0.7858 -3.7670 -0.6600
  959MOL0     H32280   2.069  10.553   3.473  1.3056 -0.6706  1.7760
  959MOL0     H32281   1.843  10.586   3.451 -0.2492 -2.3312 -3.1210
  959MOL0     H32282   1.798  10.420   3.486  1.3775 -0.4806  0.2126
  959MOL0     H32283   1.939  10.602   3.687  0.5492  0.3877 -0.6685
  959MOL0     H32284   1.856  10.450   3.738  2.0496  0.0526  0.6744
  959MOL0     H32285   1.743  10.679   3.766 -2.8572  1.1378  0.0814
  959MOL0     H32286   1.702  10.664   3.597  0.7505 -1.4326 -0.9867
  959MOL0     H32287   1.606  10.501   3.818 -2.5346 -0.9276 -0.0567
  959MOL0     H32288   1.617  10.428   3.657 -0.4900 -1.8207  1.7828
  959MOL0     H32289   1.380  10.521   3.732 -1.5876  2.4002  1.0098
  959MOL0     H32290   1.453  10.678   3.741  0.7657 -1.8369  3.0730
  959MOL0     H32291   1.341  10.802   3.545  0.1276 -0.4594  0.3692
  959MOL0     H32292   1.304  10.881   3.323 -0.8529  0.3891 -1.3928
  959MOL0     H32293   1.216  10.754   3.225  2.0280  0.5238 -3.2603
  959MOL0     H32294   1.386  10.700   3.102 -2.3913 -1.7627  3.3115
  959MOL0     H32295   1.319  10.863   3.077 -0.2890 -2.5813 -0.4027
  959MOL0     H32296   1.538  10.931   3.061 -1.0132 -0.0660 -1.7198
  959MOL0     H32297   1.551  10.915   3.243  3.9108 -4.0066  1.1450
  959MOL0     H32298   1.633  10.696   3.230 -0.0723  0.7123  0.7379
  959MOL0     H32299   1.619  10.703   3.049  2.1416 -1.4761  0.0251
  959MOL0     H32300   2.042  10.789   3.132  0.1643 -1.3166  0.3474
  959MOL0     H32301   2.251  10.929   3.344 -1.4927  0.6513  2.1463
  959MOL0     H32302   2.230  10.806   3.213  0.6629  0.8742  0.6016
  959MOL0     H32303   2.271  10.758   3.368  0.5726 -0.1546  0.1812
  959MOL0     H32304   2.232  11.105   3.740  1.7781  1.4032  0.4092
  959MOL0     H32305   2.364  11.125   3.977  1.2997 -1.6246  1.1932
  959MOL0     H32306   2.298  10.887   4.364  0.6952  0.9244  0.9011
  959MOL0     H32307   2.232  10.799   4.231  0.8578 -0.4476  0.3680
  959MOL0     H32308   2.455  10.784   4.130 -0.9357 -0.5407 -0.4828
  959MOL0     H32309   2.532  10.896   4.242  0.6929 -0.5625 -0.0653
  959MOL0     H32310   2.589  10.666   4.303 -0.0721  2.4151 -2.6408
  959MOL0     H32311   2.415  10.631   4.318  1.9247 -1.6104 -2.7790
  959MOL0     H32312   2.423  10.806   4.512 -0.6624  1.3596 -1.1503
  959MOL0     H32313   2.597  10.813   4.490 -1.5943  0.7668  0.9878
  959MOL0     H32314   2.436  10.551   4.544 -2.5667  1.7072  1.7090
  959MOL0     H32315   2.616  10.559   4.540 -0.6654 -0.0654 -0.2099
  959MOL0     H32316   2.453  10.732   4.733 -0.2665 -0.6526 -0.8650
  959MOL0     H32317   2.627  10.699   4.721 -0.7920 -0.3554 -0.1866
  959MOL0     H32318   2.573  10.450   4.775 -0.4692 -0.8007 -0.6589
  959MOL0     H32319   2.420  10.510   4.829  1.9639 -3.9496  0.2374
  959MOL0     H32320   2.567  10.506   5.019 -1.5611  0.5608  0.8893
  959MOL0     H32321   2.532  10.679   4.982 -1.3035 -1.2196 -1.8945
  959MOL0     H32322   2.060  10.873   4.131  2.8407  0.7650  0.7330
  959MOL0     H32323   1.938  10.867   3.936 -1.4451  1.9278 -1.6618
  959MOL0     H32324   1.837  10.875   3.580 -1.8851  0.7536 -0.9662
  959MOL0     H32325   1.695  10.823   3.390  0.4648  0.8356 -1.0385
  959MOL0     H32326   2.330  10.084   3.356 -0.3303  0.8483 -0.8809
  959MOL0     H32327   2.530   9.982   3.475 -1.7702 -1.0455 -0.7107
  959MOL0     H32328   2.829  10.229   3.835 -1.2552 -1.6945  0.9630
  959MOL0     H32329   2.953  10.142   4.020 -0.9045  0.2344 -0.9396
  959MOL0     H32330   3.217   9.792   3.951 -0.1560 -0.6181  1.1913
  959MOL0     H32331   3.361   9.904   3.946  0.4526 -2.3912  0.5807
  959MOL0     H32332   3.348   9.924   4.197 -2.1414  0.8769  0.3702
  959MOL0     H32333   3.402   9.771   4.121  1.5200  2.0843  1.4886
  959MOL0     H32334   3.138   9.821   4.263 -2.4736 -1.6281 -0.4244
  959MOL0     H32335   3.156   9.702   4.147  1.4212  1.4302 -2.3772
  959MOL0     H32336   3.373   9.621   4.286  0.9827 -2.3789  4.5636
  959MOL0     H32337   3.229   9.588   4.371  0.2559  0.4488  0.7079
  959MOL0     H32338   3.455   9.911   4.567  0.2601  0.0307  1.2564
  959MOL0     H32339   3.194   9.902   3.764  0.2102 -2.0845  0.5809
  959MOL0     H32340   2.961   9.915   3.485 -0.4185  0.0447  2.0317
  959MOL0     H32341   3.105  10.013   3.465 -1.4516 -0.1432 -0.6993
  959MOL0     H32342   3.117   9.863   3.557 -1.7743 -0.1342  1.8796
  960MOL0     O32343   9.723   0.940   7.424  0.7332 -0.3512  0.7117
  960MOL0     C32344   9.632   0.867   7.368  0.0966 -0.0563  0.1478
  960MOL0     O32345   9.645   0.732   7.365 -0.1928  0.3556  0.0294
  960MOL0     C32346   9.746   0.650   7.415 -0.0102 -0.1717 -0.0647
  960MOL0     C32347   9.748   0.607   7.549 -0.7930 -0.2441  0.3582
  960MOL0     C32348   9.828   0.496   7.594  0.1182  0.3856 -0.3982
  960MOL0     C32349   9.900   0.421   7.505 -1.1546  0.5808 -0.4075
  960MOL0     O32350   9.962   0.300   7.545  0.0084  0.6986 -0.6358
  960MOL0     C32351  10.060   0.323   7.647  1.0081  0.4273 -0.4632
  960MOL0     C32352  10.115   0.180   7.694  1.1194  0.2618  0.5292
  960MOL0     C32353  10.235   0.164   7.589 -0.4407  0.1284 -0.2314
  960MOL0     C32354  10.369   0.195   7.656  0.6738 -0.2848 -0.8290
  960MOL0     C32355  10.495   0.201   7.571  0.6985 -0.3409 -1.1561
  960MOL0     C32356  10.616   0.226   7.664  0.0866 -0.1192 -0.2623
  960MOL0     C32357  10.620   0.362   7.749  0.0782  0.4800  0.8145
  960MOL0     C32358  10.623   0.339   7.899 -0.2548 -0.5177  0.3731
  960MOL0     N32359  10.604   0.465   7.979 -0.2691 -0.0914 -0.3243
  960MOL0     C32360  10.690   0.520   8.073 -0.6789  0.7858  0.3213
  960MOL0     C32361  10.636   0.638   8.108  0.3029  0.8527 -0.1549
  960MOL0     C32362  10.698   0.710   8.224 -0.4559 -0.2488  0.5361
  960MOL0     C32363  10.827   0.788   8.180 -0.8633  0.2721  0.1362
  960MOL0     C32364  10.783   0.924   8.116 -0.8245 -0.3449 -0.4954
  960MOL0     C32365  10.905   0.977   8.011  0.2595  0.3301  1.2791
  960MOL0     O32366  11.013   1.019   8.094 -0.2858 -0.3249  0.1594
  960MOL0     C32367  11.146   1.007   8.054 -0.2335 -0.7121  0.1922
  960MOL0     C32368  11.194   0.953   7.932  0.5819  0.5225  0.2593
  960MOL0     C32369  11.333   0.944   7.898  0.6248 -1.2787  0.3000
  960MOL0     C32370  11.371   0.880   7.761 -0.5743  1.0038 -0.2956
  960MOL0     C32371  11.418   1.009   7.983  0.6060  0.4853 -0.3053
  960MOL0     C32372  11.569   1.024   7.956  0.1841  0.1350  0.8005
  960MOL0     O32373  11.640   1.129   8.018 -0.7555 -0.3935  1.1256
  960MOL0     C32374  11.765   1.166   7.962  0.1635  1.6268 -0.1901
  960MOL0     C32375  11.791   1.186   7.828  1.0230 -0.3114  0.1030
  960MOL0     C32376  11.920   1.200   7.773  0.0467  0.2971 -0.7548
  960MOL0     C32377  12.028   1.217   7.855 -0.0749  0.2382 -1.1285
  960MOL0     O32378  12.155   1.249   7.820  0.0204  0.4066 -0.2485
  960MOL0     C32379  12.193   1.261   7.687  0.2320 -0.0279  0.6369
  960MOL0     C32380  12.340   1.324   7.675 -0.2336 -0.2965 -0.1262
  960MOL0     C32381  12.389   1.346   7.532  0.0344 -0.3681  0.5533
  960MOL0     C32382  12.531   1.412   7.544  0.1091  0.2368 -0.2532
  960MOL0     C32383  12.586   1.443   7.407  0.3652  0.3463  0.8803
  960MOL0     C32384  12.587   1.329   7.296 -0.8575  0.2389 -0.3557
  960MOL0     C32385  12.662   1.351   7.160  0.3084 -0.2871 -1.0485
  960MOL0     C32386  12.642   1.239   7.062  0.8677  0.3384 -0.6370
  960MOL0    Cl32387  12.460   1.204   7.026 -0.5950 -0.1682 -0.2263
  960MOL0     C32388  11.999   1.200   7.991 -0.0866  1.1017  0.1891
  960MOL0     C32389  11.874   1.175   8.044 -0.7804 -1.1329 -0.2154
  960MOL0     O32390  11.620   0.934   7.886  0.6090  0.2246 -0.6719
  960MOL0     C32391  11.367   1.084   8.094 -0.2444  0.1898 -0.0086
  960MOL0     C32392  11.236   1.090   8.120  0.0481  0.5720 -0.1218
  960MOL0     N32393  10.507   0.643   8.052  0.2503 -0.8225 -0.1534
  960MOL0     N32394  10.497   0.551   7.971  0.1512  0.2980 -0.0824
  960MOL0     C32395   9.896   0.462   7.370  0.3991 -0.1808  1.0239
  960MOL0     C32396   9.829   0.581   7.327  0.6096 -0.0036 -0.5212
  960MOL0     C32397   9.525   0.932   7.295 -0.7341  1.4530  0.2578
  960MOL0     C32398   9.531   0.920   7.156 -0.2170 -0.2280 -0.9942
  960MOL0     C32399   9.452   0.997   7.071  0.8256 -0.1479  0.2472
  960MOL0     C32400   9.352   1.088   7.123 -0.5346  0.4255  0.0145
  960MOL0     O32401   9.267   1.157   7.048 -0.4368  0.4654 -0.2114
  960MOL0     C32402   9.267   1.293   7.073 -0.3845 -0.3964  0.0088
  960MOL0     C32403   9.208   1.367   6.944  0.3813 -0.6217 -0.3075
  960MOL0     C32404   9.314   1.376   6.832  0.5753 -0.1053  0.8675
  960MOL0     C32405   9.384   1.241   6.794  0.1992 -0.4589  0.9553
  960MOL0     C32406   9.461   1.255   6.673  0.7664  0.0607  0.0002
  960MOL0     C32407   9.531   1.268   6.577  0.5804  0.0430 -0.0832
  960MOL0     C32408   9.348   1.092   7.268  1.0801 -0.3158  1.1388
  960MOL0     C32409   9.431   1.023   7.354  0.4935  0.6277  0.3965
  960MOL0     C32410   9.414   1.051   7.499 -0.0659  0.5164 -0.2631
  960MOL0     H32411   9.685   0.663   7.618  0.5491 -0.4714  1.8095
  960MOL0     H32412   9.812   0.458   7.694  1.8116 -1.3320 -0.7296
  960MOL0     H32413  10.026   0.373   7.738  2.4086  1.8248 -0.6773
  960MOL0     H32414  10.144   0.380   7.606 -0.5920  4.2500  1.0816
  960MOL0     H32415  10.157   0.184   7.795 -1.1761 -1.0853  1.6035
  960MOL0     H32416  10.035   0.107   7.690 -0.5435  2.0157 -3.1471
  960MOL0     H32417  10.238   0.063   7.546 -4.3913 -0.3114  0.1530
  960MOL0     H32418  10.243   0.238   7.509  2.0316 -2.9101 -3.1315
  960MOL0     H32419  10.363   0.283   7.721  2.3465 -2.3003  2.3018
  960MOL0     H32420  10.381   0.116   7.731 -0.6959 -1.2519 -1.5818
  960MOL0     H32421  10.489   0.274   7.490 -4.5121 -0.0938 -0.8920
  960MOL0     H32422  10.497   0.104   7.521  0.0270 -0.9061 -0.1253
  960MOL0     H32423  10.603   0.142   7.733  0.4306  0.7681  0.9119
  960MOL0     H32424  10.706   0.213   7.603 -1.8505 -2.4653 -2.8333
  960MOL0     H32425  10.527   0.417   7.728  0.3972  0.1045 -2.0075
  960MOL0     H32426  10.708   0.419   7.716 -0.8287  1.7833  0.5583
  960MOL0     H32427  10.540   0.272   7.926  1.5878 -3.3656 -0.5668
  960MOL0     H32428  10.711   0.281   7.928 -0.0338 -1.4631 -1.9668
  960MOL0     H32429  10.782   0.474   8.107  1.7211  3.9525 -1.2892
  960MOL0     H32430  10.720   0.625   8.289 -0.8035 -0.8864 -0.1605
  960MOL0     H32431  10.627   0.778   8.271  2.9032  2.5819  1.9431
  960MOL0     H32432  10.903   0.814   8.254  2.4989 -1.3089 -2.5011
  960MOL0     H32433  10.872   0.724   8.103  1.1874  3.0334 -1.1203
  960MOL0     H32434  10.693   0.925   8.054 -0.7738 -0.5107 -0.5724
  960MOL0     H32435  10.779   1.002   8.193  0.8224 -1.6345  0.9656
  960MOL0     H32436  10.935   0.902   7.938  1.6014  2.4739 -0.5330
  960MOL0     H32437  10.875   1.063   7.950  1.2035 -0.0341  0.2843
  960MOL0     H32438  11.128   0.889   7.874  0.2962 -1.0024  2.1499
  960MOL0     H32439  11.287   0.886   7.692  1.1434 -0.3753 -2.7120
  960MOL0     H32440  11.401   0.775   7.754  1.4779  1.5885 -1.0968
  960MOL0     H32441  11.454   0.924   7.705 -0.9722  1.8728 -0.2077
  960MOL0     H32442  11.707   1.176   7.760  1.6786 -2.1025 -0.4981
  960MOL0     H32443  11.941   1.209   7.667 -2.5586  0.8827 -1.2883
  960MOL0     H32444  12.204   1.162   7.640  0.6599 -0.0209  0.7161
  960MOL0     H32445  12.133   1.332   7.629 -0.3212 -1.3815 -0.5483
  960MOL0     H32446  12.342   1.421   7.726 -2.8154  0.0703 -0.5786
  960MOL0     H32447  12.404   1.254   7.729  1.4486  1.4413  0.2226
  960MOL0     H32448  12.325   1.413   7.474  2.4456  1.1442 -0.4772
  960MOL0     H32449  12.386   1.247   7.485 -0.9055 -1.3675  2.5799
  960MOL0     H32450  12.595   1.348   7.606  0.0330  1.0536  0.6859
  960MOL0     H32451  12.520   1.502   7.605  0.7383  0.9739 -1.1838
  960MOL0     H32452  12.523   1.520   7.360  1.4304  0.5701 -0.2227
  960MOL0     H32453  12.690   1.477   7.413  1.5857 -2.7971 -0.6107
  960MOL0     H32454  12.483   1.304   7.276 -0.8457  0.0548 -0.1919
  960MOL0     H32455  12.629   1.234   7.332 -2.2640  0.5707  2.3923
  960MOL0     H32456  12.768   1.365   7.183  0.3239  0.2156 -1.3869
  960MOL0     H32457  12.621   1.442   7.115 -1.2692 -0.7560 -0.6154
  960MOL0     H32458  12.686   1.148   7.105 -1.5362  0.4112  2.2891
  960MOL0     H32459  12.691   1.268   6.969 -0.2674  0.1000 -1.3160
  960MOL0     H32460  12.089   1.186   8.051  1.3484 -0.7124 -2.2211
  960MOL0     H32461  11.866   1.148   8.149  3.8575  1.6654  1.1808
  960MOL0     H32462  11.445   1.128   8.155  0.0064  0.6532 -0.6534
  960MOL0     H32463  11.204   1.155   8.200  3.2124  2.5060 -0.2798
  960MOL0     H32464   9.956   0.407   7.298  1.8211  1.1121  1.1538
  960MOL0     H32465   9.838   0.606   7.222 -1.3738 -1.4522 -1.0872
  960MOL0     H32466   9.603   0.851   7.112  0.1133 -0.7627  0.2980
  960MOL0     H32467   9.461   0.993   6.963  0.7775  1.5206  0.1634
  960MOL0     H32468   9.192   1.319   7.148  1.0637 -0.3164  1.4657
  960MOL0     H32469   9.368   1.327   7.097 -1.1973  1.1466  1.4506
  960MOL0     H32470   9.178   1.466   6.979  0.8309 -0.1148 -1.3034
  960MOL0     H32471   9.111   1.324   6.919 -0.1647 -0.7137  1.7808
  960MOL0     H32472   9.263   1.415   6.744  2.6772  1.1083  0.1224
  960MOL0     H32473   9.398   1.439   6.864  0.5903  0.1262  0.3819
  960MOL0     H32474   9.317   1.157   6.771  0.1637  0.0757 -1.0505
  960MOL0     H32475   9.455   1.229   6.876  1.4769  2.9738  0.4950
  960MOL0     H32476   9.593   1.267   6.489  1.8926  0.1231  0.8175
  960MOL0     H32477   9.278   1.167   7.304  1.3873  0.9254 -0.7192
  960MOL0     H32478   9.339   1.125   7.529 -0.9749  0.5360 -2.3631
  960MOL0     H32479   9.385   0.957   7.547 -0.7879  0.5756 -0.5600
  960MOL0     H32480   9.515   1.080   7.530  1.0865  0.6183 -3.6842
  961MOL0     O32481   1.083   1.596   5.104 -0.8575 -0.0066 -0.0772
  961MOL0     C32482   1.117   1.713   5.073  0.5228 -0.1341  0.3508
  961MOL0     O32483   1.231   1.742   5.009 -0.2866 -0.5109 -0.3961
  961MOL0     C32484   1.317   1.649   4.972 -0.0198 -0.0892  0.0145
  961MOL0     C32485   1.380   1.656   4.855 -0.2580  0.2109  0.1366
  961MOL0     C32486   1.455   1.550   4.803 -0.8772 -0.8392  0.0179
  961MOL0     C32487   1.495   1.442   4.874  1.1182  0.7446 -0.1111
  961MOL0     O32488   1.564   1.325   4.832 -0.4696 -0.3846  0.2068
  961MOL0     C32489   1.635   1.341   4.709 -0.1624 -0.6255 -0.5118
  961MOL0     C32490   1.735   1.228   4.700 -0.0567  0.0628  0.4279
  961MOL0     C32491   1.802   1.212   4.563 -0.6764 -0.2439  0.0525
  961MOL0     C32492   1.881   1.341   4.518 -0.3469 -0.3083  0.7671
  961MOL0     C32493   1.917   1.335   4.367  0.0920 -0.6811  0.5570
  961MOL0     C32494   2.045   1.416   4.342 -0.3584 -0.3443  0.5030
  961MOL0     C32495   2.027   1.573   4.332  0.5586  0.9883 -0.7689
  961MOL0     C32496   1.963   1.625   4.209 -0.2713  1.2691 -0.1546
  961MOL0     N32497   2.051   1.625   4.089  0.1209 -0.5396 -0.2046
  961MOL0     C32498   2.156   1.706   4.087 -0.1337  0.5072  0.2604
  961MOL0     C32499   2.212   1.688   3.962 -0.0588  0.6951  0.6072
  961MOL0     C32500   2.327   1.768   3.897 -0.1272 -0.3246 -0.6464
  961MOL0     C32501   2.305   1.820   3.757 -0.8304 -0.4917  1.1264
  961MOL0     C32502   2.183   1.902   3.739  0.2623  0.8089 -0.9523
  961MOL0     C32503   2.180   2.031   3.812  0.3454  0.1327  0.4706
  961MOL0     O32504   2.313   2.080   3.832 -1.3186  0.2967 -0.0798
  961MOL0     C32505   2.338   2.169   3.937 -0.1151  0.3516 -0.0613
  961MOL0     C32506   2.470   2.188   3.971 -0.1132  0.3274  0.1485
  961MOL0     C32507   2.514   2.255   4.090  0.7428 -0.1912 -0.5604
  961MOL0     C32508   2.654   2.258   4.130 -0.3071  0.3391 -0.3068
  961MOL0     C32509   2.408   2.322   4.158 -1.1701 -1.3584 -0.5802
  961MOL0     C32510   2.434   2.413   4.268 -0.5846 -0.5006  0.2098
  961MOL0     O32511   2.566   2.455   4.296 -0.3031  0.6879 -0.0152
  961MOL0     C32512   2.608   2.541   4.399 -0.3730 -0.0762  0.3068
  961MOL0     C32513   2.548   2.560   4.518  0.1425  0.1746  0.7642
  961MOL0     C32514   2.586   2.656   4.616 -0.7539  0.7991  1.0439
  961MOL0     C32515   2.697   2.735   4.588 -0.3380  0.1335  1.2143
  961MOL0     O32516   2.742   2.831   4.665  0.3091 -0.1545 -0.1702
  961MOL0     C32517   2.649   2.942   4.677  0.0966  1.2259  0.2892
  961MOL0     C32518   2.697   3.063   4.592 -0.4599 -0.1125 -1.0222
  961MOL0     C32519   2.848   3.080   4.603 -0.3241 -0.0703 -0.0394
  961MOL0     C32520   2.896   3.204   4.529 -0.4286 -0.0520 -0.3948
  961MOL0     C32521   3.038   3.254   4.566  0.0388  0.7305 -0.4639
  961MOL0     C32522   3.082   3.375   4.484 -0.3269  0.0530  0.9592
  961MOL0     C32523   3.229   3.417   4.517 -0.3598  0.6621 -0.3924
  961MOL0     C32524   3.282   3.550   4.469  0.8392  0.5692 -0.3639
  961MOL0    Cl32525   3.192   3.684   4.556 -0.2881  0.2318 -0.1885
  961MOL0     C32526   2.774   2.707   4.472  0.2833  0.4725  0.3554
  961MOL0     C32527   2.731   2.614   4.379 -0.0131  1.0700  0.6316
  961MOL0     O32528   2.337   2.454   4.324 -0.2389  0.3544 -0.5656
  961MOL0     C32529   2.278   2.299   4.122 -0.2073 -0.1121  0.3185
  961MOL0     C32530   2.239   2.224   4.010 -0.8048 -0.6189 -0.1895
  961MOL0     N32531   2.126   1.599   3.893 -0.1789  0.1292  0.1222
  961MOL0     N32532   2.027   1.559   3.967  0.3781  0.0410  0.4354
  961MOL0     C32533   1.444   1.436   5.008  0.3248  0.4094 -0.0371
  961MOL0     C32534   1.359   1.538   5.058  0.2732  0.5600  0.1654
  961MOL0     C32535   1.021   1.826   5.105 -1.0233  0.2931 -0.0474
  961MOL0     C32536   1.065   1.953   5.063  0.4624  0.8807  0.2591
  961MOL0     C32537   0.985   2.064   5.093  0.6769  0.4113 -0.3147
  961MOL0     C32538   0.857   2.055   5.160  0.0867 -0.5206 -0.9602
  961MOL0     O32539   0.795   2.173   5.200  0.0765 -0.0130  0.7029
  961MOL0     C32540   0.671   2.172   5.282 -0.0060  0.9117 -0.1039
  961MOL0     C32541   0.614   2.314   5.274  0.6046  0.4340 -1.0487
  961MOL0     C32542   0.505   2.368   5.383  0.1556 -0.0904 -0.0161
  961MOL0     C32543   0.394   2.264   5.418  0.5633  0.4606 -0.3561
  961MOL0     C32544   0.288   2.325   5.496  0.3356  0.8277  0.4139
  961MOL0     C32545   0.193   2.381   5.558 -0.0975  0.9957 -0.6853
  961MOL0     C32546   0.817   1.927   5.199 -0.1507  0.2055  0.2927
  961MOL0     C32547   0.893   1.812   5.170  0.3953 -0.7313  0.4802
  961MOL0     C32548   0.828   1.671   5.198 -0.6029 -0.4319 -0.2737
  961MOL0     H32549   1.361   1.737   4.784 -0.0732 -0.0403 -0.2012
  961MOL0     H32550   1.490   1.553   4.700 -0.1660 -1.5786  0.2304
  961MOL0     H32551   1.689   1.436   4.711  0.6673 -1.0371  3.0326
  961MOL0     H32552   1.562   1.326   4.628  0.6052 -0.4721 -1.2373
  961MOL0     H32553   1.810   1.230   4.779  1.5379 -0.1769 -1.0343
  961MOL0     H32554   1.677   1.141   4.731 -0.0216  0.3000  1.1904
  961MOL0     H32555   1.878   1.133   4.560  0.9949  1.3424 -1.2883
  961MOL0     H32556   1.728   1.190   4.486 -0.5068  0.2415 -0.2509
  961MOL0     H32557   1.826   1.435   4.531 -2.8320 -1.6781  0.5988
  961MOL0     H32558   1.981   1.342   4.562 -0.0590  0.3076  0.1279
  961MOL0     H32559   1.835   1.365   4.302  2.0513  0.9053 -1.3253
  961MOL0     H32560   1.934   1.232   4.336 -0.5489 -0.4139 -0.7417
  961MOL0     H32561   2.125   1.396   4.414  0.9319  0.2799 -0.7021
  961MOL0     H32562   2.083   1.393   4.242  3.3361  3.6832  0.6844
  961MOL0     H32563   2.124   1.621   4.349  0.2358  2.1021 -1.9041
  961MOL0     H32564   1.954   1.601   4.408 -1.2586  1.0976 -2.4918
  961MOL0     H32565   1.875   1.564   4.188  0.4222  0.4924 -0.8871
  961MOL0     H32566   1.934   1.731   4.217 -1.5258  0.9969 -0.7984
  961MOL0     H32567   2.199   1.778   4.154  0.5112 -1.0962  1.6344
  961MOL0     H32568   2.407   1.694   3.889 -1.7452 -2.2789  0.3374
  961MOL0     H32569   2.358   1.851   3.960  2.1640 -1.5393 -0.0611
  961MOL0     H32570   2.387   1.880   3.717 -2.7047  1.7081  0.3141
  961MOL0     H32571   2.292   1.737   3.688 -1.3674  0.8149 -0.4186
  961MOL0     H32572   2.177   1.934   3.634 -0.3914 -1.8998 -1.8113
  961MOL0     H32573   2.104   1.829   3.760  2.8394 -2.1009 -0.6829
  961MOL0     H32574   2.110   2.093   3.755  0.7615 -1.6160 -2.1055
  961MOL0     H32575   2.142   2.000   3.910  2.3928 -0.0626  1.2461
  961MOL0     H32576   2.546   2.136   3.915 -0.6364 -0.1527 -0.1291
  961MOL0     H32577   2.652   2.241   4.238 -0.1300  1.1489 -0.1695
  961MOL0     H32578   2.699   2.354   4.102 -0.6739  0.8595  0.8174
  961MOL0     H32579   2.716   2.181   4.084  1.1422 -0.4275  2.6613
  961MOL0     H32580   2.455   2.505   4.519  0.6170 -0.6714  0.2208
  961MOL0     H32581   2.527   2.670   4.706  1.8352 -0.5164  3.1001
  961MOL0     H32582   2.545   2.916   4.656 -0.0021 -0.8110  2.7927
  961MOL0     H32583   2.655   2.963   4.784  0.0489 -0.3485  0.6298
  961MOL0     H32584   2.686   3.036   4.486  3.3011  0.9502 -1.8220
  961MOL0     H32585   2.640   3.153   4.616  4.2656  2.3777  2.5747
  961MOL0     H32586   2.908   2.998   4.562  1.0802  0.2912  1.2037
  961MOL0     H32587   2.868   3.088   4.710  1.1785  2.6524 -0.4177
  961MOL0     H32588   2.826   3.283   4.557  0.3459  0.1224  1.0989
  961MOL0     H32589   2.876   3.190   4.422  2.1440 -0.4184 -0.8902
  961MOL0     H32590   3.030   3.278   4.673 -2.6092  0.4680 -0.5401
  961MOL0     H32591   3.116   3.178   4.556  2.2883  2.4361  2.3282
  961MOL0     H32592   3.014   3.459   4.499 -0.8482 -0.4573  1.5072
  961MOL0     H32593   3.087   3.344   4.380  0.5704  0.2755  0.9266
  961MOL0     H32594   3.296   3.339   4.479 -0.8907 -0.5626  1.0571
  961MOL0     H32595   3.240   3.413   4.626 -3.1413 -1.9050 -0.1004
  961MOL0     H32596   3.257   3.545   4.362 -4.6405 -2.6377  0.6363
  961MOL0     H32597   3.388   3.567   4.487  1.5072  0.8564 -3.8302
  961MOL0     H32598   2.862   2.766   4.452  0.0475 -0.5024 -4.9335
  961MOL0     H32599   2.797   2.594   4.295 -1.9507  3.6546 -1.6989
  961MOL0     H32600   2.199   2.348   4.178  1.4932  0.5827  2.2670
  961MOL0     H32601   2.134   2.216   3.984 -1.0501  0.4180  0.4284
  961MOL0     H32602   1.458   1.346   5.068 -1.0488  0.2686  0.1068
  961MOL0     H32603   1.319   1.528   5.158  0.0989  1.4964  0.1958
  961MOL0     H32604   1.162   1.969   5.017 -1.1128  3.5913 -2.5235
  961MOL0     H32605   1.002   2.170   5.073 -1.6587  0.7081 -1.0299
  961MOL0     H32606   0.596   2.096   5.257  1.5682 -0.3201 -1.2245
  961MOL0     H32607   0.708   2.158   5.384 -0.0096  3.0422  0.2297
  961MOL0     H32608   0.568   2.316   5.175 -1.0390  1.4944 -0.3066
  961MOL0     H32609   0.700   2.380   5.267 -0.3642  1.7364 -0.9975
  961MOL0     H32610   0.567   2.391   5.470  3.5580 -0.9360 -2.0296
  961MOL0     H32611   0.461   2.459   5.342 -2.6953 -1.3755 -0.0862
  961MOL0     H32612   0.434   2.184   5.482 -0.2616  1.1879  1.1271
  961MOL0     H32613   0.359   2.210   5.329  2.8461 -2.0941  0.1854
  961MOL0     H32614   0.114   2.416   5.621  0.2043  0.4658 -0.0038
  961MOL0     H32615   0.722   1.921   5.252 -1.3651  1.0009 -1.6639
  961MOL0     H32616   0.839   1.639   5.302 -1.6922  0.3461  0.0927
  961MOL0     H32617   0.723   1.699   5.189 -0.9190 -0.8951  1.6589
  961MOL0     H32618   0.842   1.586   5.130 -0.5026 -0.0592 -0.7206
  962MOL0     O32619   4.882   5.501   3.552 -0.1642  0.4236 -0.2824
  962MOL0     C32620   4.768   5.536   3.574 -0.4952 -1.1174  0.2718
  962MOL0     O32621   4.740   5.624   3.676  0.7809  0.1491  0.2554
  962MOL0     C32622   4.838   5.643   3.774  1.0166  0.2262 -0.9651
  962MOL0     C32623   4.873   5.768   3.816  0.3557 -0.1294  0.1294
  962MOL0     C32624   4.960   5.778   3.935 -0.1454 -0.5501  0.9817
  962MOL0     C32625   5.020   5.667   3.993 -0.2205 -0.4398  0.9869
  962MOL0     O32626   5.085   5.670   4.117 -0.0447  0.7303 -0.9309
  962MOL0     C32627   5.228   5.675   4.118  0.7531 -0.9104  0.4304
  962MOL0     C32628   5.271   5.659   4.264 -0.7205  0.9335 -0.4408
  962MOL0     C32629   5.263   5.787   4.336  0.4997 -0.1413 -0.8863
  962MOL0     C32630   5.259   5.768   4.488 -0.1112 -0.1139  0.7760
  962MOL0     C32631   5.291   5.897   4.557  0.6052 -0.2265  0.0544
  962MOL0     C32632   5.302   5.880   4.707 -0.2052 -0.5370 -0.0049
  962MOL0     C32633   5.322   6.016   4.786  0.3906  0.4140  0.1146
  962MOL0     C32634   5.257   6.134   4.726 -0.2363 -0.5734  0.5202
  962MOL0     N32635   5.226   6.222   4.840  0.4623  0.1421  0.9331
  962MOL0     C32636   5.110   6.205   4.916 -0.4920 -0.8641 -0.0427
  962MOL0     C32637   5.099   6.316   4.990  1.1365  1.2584 -0.5193
  962MOL0     C32638   4.983   6.334   5.096 -0.2503 -0.4095 -0.8582
  962MOL0     C32639   4.861   6.419   5.074  0.2957 -0.2318  0.0368
  962MOL0     C32640   4.897   6.562   5.026 -0.1361  0.1375 -0.0277
  962MOL0     C32641   4.910   6.654   5.146 -0.1160 -0.0823 -0.1823
  962MOL0     O32642   4.911   6.785   5.104 -0.1824 -0.7460  0.0606
  962MOL0     C32643   4.807   6.866   5.076 -1.3335  0.2780  0.0211
  962MOL0     C32644   4.836   7.003   5.044 -0.9691 -0.1374 -0.4094
  962MOL0     C32645   4.741   7.100   5.048  0.4736 -1.1143  0.7737
  962MOL0     C32646   4.781   7.235   4.990  0.4001  0.2531 -0.7010
  962MOL0     C32647   4.599   7.055   5.049  0.1810  0.4293 -1.6165
  962MOL0     C32648   4.484   7.130   5.015 -0.4151  0.5770  0.2847
  962MOL0     O32649   4.384   7.116   5.100 -0.0742 -0.8638  0.9020
  962MOL0     C32650   4.263   7.162   5.076  0.3501 -0.2267  0.7929
  962MOL0     C32651   4.226   7.277   5.003 -0.7770  0.7524 -0.7824
  962MOL0     C32652   4.087   7.314   5.006 -0.7764 -0.7069 -0.2856
  962MOL0     C32653   3.985   7.245   5.070 -0.1749 -0.5343 -0.4238
  962MOL0     O32654   3.846   7.283   5.079 -0.5927  0.0432  0.5022
  962MOL0     C32655   3.816   7.410   5.023 -0.7913 -0.0128 -1.1264
  962MOL0     C32656   3.685   7.448   5.072 -0.0845 -0.4536  0.4616
  962MOL0     C32657   3.615   7.571   5.014  0.2343 -0.5889 -0.3559
  962MOL0     C32658   3.604   7.565   4.858  0.1994 -0.0235 -0.8961
  962MOL0     C32659   3.513   7.682   4.807  0.7475  0.2497  0.7961
  962MOL0     C32660   3.468   7.686   4.658 -0.3335  1.2877 -0.3060
  962MOL0     C32661   3.395   7.821   4.633  0.0408  0.0133 -0.3143
  962MOL0     C32662   3.294   7.831   4.520 -0.4258 -0.3884  0.1454
  962MOL0    Cl32663   3.356   7.744   4.383 -0.3522 -0.3003  0.3891
  962MOL0     C32664   4.032   7.142   5.142 -0.4585 -0.2850 -0.6977
  962MOL0     C32665   4.167   7.104   5.149  0.1162 -0.0665 -0.1765
  962MOL0     O32666   4.483   7.191   4.904  0.1886  0.3448 -0.6103
  962MOL0     C32667   4.578   6.920   5.090  0.3650 -0.7340 -0.6491
  962MOL0     C32668   4.679   6.828   5.100 -0.0636 -0.7311  0.2966
  962MOL0     N32669   5.195   6.400   4.948 -0.5448  0.8207  0.0146
  962MOL0     N32670   5.266   6.349   4.857  0.1504 -0.0866 -0.6713
  962MOL0     C32671   4.981   5.538   3.949 -0.0265  0.6348 -0.1771
  962MOL0     C32672   4.892   5.531   3.840 -1.3322 -0.2780 -0.2166
  962MOL0     C32673   4.651   5.479   3.500  0.4421  0.2203  0.4648
  962MOL0     C32674   4.531   5.484   3.565 -0.6915  1.2521  0.2499
  962MOL0     C32675   4.414   5.418   3.516 -0.0910 -0.7949  0.0059
  962MOL0     C32676   4.418   5.346   3.394 -0.4920  0.3002  0.5011
  962MOL0     O32677   4.300   5.293   3.327  0.5692 -0.0065 -0.8436
  962MOL0     C32678   4.303   5.185   3.225 -0.2151 -0.3975  0.0081
  962MOL0     C32679   4.325   5.047   3.298 -0.6100  0.0483  0.3782
  962MOL0     C32680   4.199   4.997   3.361 -0.2454  0.0993 -0.8265
  962MOL0     C32681   4.211   4.861   3.420  0.6483 -0.3701  0.0980
  962MOL0     C32682   4.082   4.800   3.435 -0.2580  0.0514  0.9356
  962MOL0     C32683   3.978   4.739   3.418  0.8722  0.1862 -0.0256
  962MOL0     C32684   4.542   5.344   3.318  0.6464  0.7882 -0.6792
  962MOL0     C32685   4.659   5.409   3.374 -0.3931  0.3486 -0.7606
  962MOL0     C32686   4.785   5.398   3.298 -0.0248 -0.5208 -0.2778
  962MOL0     H32687   4.826   5.859   3.780  3.4251  1.4258 -0.3094
  962MOL0     H32688   4.971   5.872   3.987 -2.5586  0.1874  0.3210
  962MOL0     H32689   5.255   5.773   4.075 -1.8974 -1.3169 -2.5541
  962MOL0     H32690   5.265   5.599   4.049 -1.5533 -0.5336 -1.3537
  962MOL0     H32691   5.203   5.585   4.307  1.5479 -0.9735  0.0923
  962MOL0     H32692   5.371   5.614   4.256 -2.2155 -2.9041  0.4220
  962MOL0     H32693   5.346   5.850   4.306 -0.5111  0.3475 -2.8217
  962MOL0     H32694   5.164   5.828   4.312 -1.4797 -2.9226  1.6056
  962MOL0     H32695   5.160   5.736   4.524  0.5741 -2.6416  0.5862
  962MOL0     H32696   5.320   5.685   4.525  2.4739  2.2497  2.1462
  962MOL0     H32697   5.204   5.957   4.529  0.4755 -0.1035  0.7105
  962MOL0     H32698   5.387   5.930   4.516  1.9810 -2.9153  0.8486
  962MOL0     H32699   5.211   5.835   4.749 -0.6018 -0.6105 -0.9317
  962MOL0     H32700   5.382   5.809   4.732  0.9249  1.0716  1.1685
  962MOL0     H32701   5.429   6.038   4.776  0.9853 -1.9896  0.5876
  962MOL0     H32702   5.292   6.003   4.891 -2.0660 -2.4552 -0.8193
  962MOL0     H32703   5.330   6.183   4.662 -1.0119  0.1692  0.1724
  962MOL0     H32704   5.165   6.106   4.673  0.4179  0.3768 -1.2026
  962MOL0     H32705   5.041   6.121   4.926 -0.3980 -1.2834 -2.3506
  962MOL0     H32706   5.032   6.385   5.180  1.4713 -1.2845 -1.2882
  962MOL0     H32707   4.971   6.236   5.144 -1.0123 -1.1476 -2.4846
  962MOL0     H32708   4.798   6.375   4.996 -0.1249 -0.5249  0.5344
  962MOL0     H32709   4.797   6.424   5.163 -0.9337  1.0062 -0.8595
  962MOL0     H32710   4.985   6.561   4.961 -0.5458  0.6771 -0.5982
  962MOL0     H32711   4.810   6.594   4.969 -1.2449 -1.3635  0.7603
  962MOL0     H32712   4.831   6.635   5.219 -0.2568 -0.5488 -0.4529
  962MOL0     H32713   5.002   6.628   5.197 -1.6832  0.0005  2.9044
  962MOL0     H32714   4.941   7.022   5.025 -1.1829 -0.8161 -2.5107
  962MOL0     H32715   4.701   7.307   5.010 -0.1596 -0.9903  1.8139
  962MOL0     H32716   4.806   7.222   4.884 -1.2392 -2.4993 -0.8632
  962MOL0     H32717   4.873   7.274   5.034 -0.1722  1.6594 -0.6991
  962MOL0     H32718   4.297   7.343   4.954  1.3389 -1.5945 -1.0760
  962MOL0     H32719   4.058   7.398   4.944 -3.0925  0.2662  1.9318
  962MOL0     H32720   3.897   7.480   5.047 -0.6573 -0.2296 -0.9462
  962MOL0     H32721   3.809   7.403   4.914  1.7150  0.2294 -1.3605
  962MOL0     H32722   3.611   7.368   5.076 -0.9864  0.4106  1.5686
  962MOL0     H32723   3.692   7.481   5.176 -1.9066  0.7026  0.2532
  962MOL0     H32724   3.674   7.660   5.036 -0.2965  0.4423 -2.7366
  962MOL0     H32725   3.518   7.581   5.064  0.8070 -1.9721  1.1362
  962MOL0     H32726   3.559   7.470   4.827 -1.0856  0.8606 -1.8747
  962MOL0     H32727   3.703   7.585   4.816 -0.3405  0.8907 -1.7945
  962MOL0     H32728   3.425   7.681   4.871  0.1920  1.5475  0.0946
  962MOL0     H32729   3.571   7.773   4.823  1.0222  0.4321 -0.9768
  962MOL0     H32730   3.398   7.609   4.625  0.9386  0.0256 -0.1028
  962MOL0     H32731   3.558   7.683   4.596  0.0199  1.0438  0.2192
  962MOL0     H32732   3.473   7.896   4.615 -1.1309  1.2172 -0.5399
  962MOL0     H32733   3.353   7.860   4.726  0.1006  1.5454 -0.8921
  962MOL0     H32734   3.285   7.937   4.495  0.2448 -0.0087  1.4772
  962MOL0     H32735   3.194   7.793   4.545 -0.6220  0.5930  0.8958
  962MOL0     H32736   3.958   7.077   5.188 -0.9513  1.4049  0.9979
  962MOL0     H32737   4.190   7.024   5.218  0.2142  1.1393  1.2288
  962MOL0     H32738   4.474   6.890   5.099 -0.0290  0.6332 -0.3086
  962MOL0     H32739   4.650   6.724   5.106  0.8407 -0.9248  1.7751
  962MOL0     H32740   5.017   5.451   4.003  0.6074  1.6161  1.0481
  962MOL0     H32741   4.872   5.432   3.801 -0.5403 -1.0953  1.3508
  962MOL0     H32742   4.516   5.543   3.655  0.8004  0.4288  1.0832
  962MOL0     H32743   4.320   5.443   3.563 -0.5152  0.9706 -1.6670
  962MOL0     H32744   4.207   5.182   3.173  0.0214  1.6133 -0.6409
  962MOL0     H32745   4.381   5.206   3.151  0.1007  0.6955  0.6208
  962MOL0     H32746   4.414   5.066   3.358 -1.9103  1.2695  2.0105
  962MOL0     H32747   4.359   4.976   3.222  1.5658  0.7766  0.6148
  962MOL0     H32748   4.175   5.060   3.447 -0.0363 -1.0971  0.1486
  962MOL0     H32749   4.116   5.003   3.290 -1.1453  2.0838  0.3134
  962MOL0     H32750   4.257   4.876   3.519  1.3136  0.2167 -0.2938
  962MOL0     H32751   4.268   4.791   3.358 -0.4173 -2.2302  1.1147
  962MOL0     H32752   3.894   4.680   3.391  1.3427  0.0107 -1.1746
  962MOL0     H32753   4.565   5.277   3.235  4.9427  0.0332  0.8520
  962MOL0     H32754   4.832   5.494   3.276  0.0481  0.1824  2.5773
  962MOL0     H32755   4.859   5.337   3.351 -0.6654  0.5044  1.9194
  962MOL0     H32756   4.763   5.357   3.199  1.4884  1.0574 -1.3140
  963MOL0     O32757   8.644   3.054   5.559  0.0517  0.3004 -0.9732
  963MOL0     C32758   8.603   3.110   5.660  0.0691  0.1646 -0.0242
  963MOL0     O32759   8.661   3.220   5.710 -0.0537 -0.0473  0.5014
  963MOL0     C32760   8.775   3.274   5.665 -0.2848  0.6206  0.4201
  963MOL0     C32761   8.793   3.321   5.533 -0.4106 -0.2586 -0.5774
  963MOL0     C32762   8.917   3.392   5.498  0.3460  0.1822  0.7096
  963MOL0     C32763   9.015   3.419   5.589 -0.1936 -0.0930 -0.9566
  963MOL0     O32764   9.132   3.486   5.556  1.1046  0.4440  0.4557
  963MOL0     C32765   9.168   3.495   5.421  0.7636  0.3087 -0.1326
  963MOL0     C32766   9.309   3.574   5.417  0.3848  0.3957  0.1718
  963MOL0     C32767   9.404   3.554   5.301  1.3193 -0.6545  0.4268
  963MOL0     C32768   9.430   3.398   5.274  0.0313 -0.1478 -0.2717
  963MOL0     C32769   9.530   3.390   5.151 -0.0539  0.6971 -1.0593
  963MOL0     C32770   9.482   3.470   5.021 -0.1484  0.4774 -0.3290
  963MOL0     C32771   9.561   3.409   4.903  0.9557 -0.2212  0.4058
  963MOL0     C32772   9.609   3.520   4.814 -0.0329  0.4518  0.0830
  963MOL0     N32773   9.712   3.476   4.711  0.2843  0.7300  0.0545
  963MOL0     C32774   9.705   3.365   4.633 -0.1480  0.4994 -0.6752
  963MOL0     C32775   9.827   3.374   4.560  0.7259 -0.6891  0.2771
  963MOL0     C32776   9.867   3.272   4.462 -0.2667  0.4070 -0.2015
  963MOL0     C32777   9.890   3.325   4.320 -1.0933  1.0611  0.2373
  963MOL0     C32778   9.885   3.221   4.212  0.2794 -0.4007 -0.2658
  963MOL0     C32779   9.893   3.291   4.071  0.1949  1.5299  0.0188
  963MOL0     O32780   9.787   3.393   4.041  0.1483 -0.3255 -0.1507
  963MOL0     C32781   9.844   3.496   3.982  0.3574 -0.5516 -0.9367
  963MOL0     C32782   9.877   3.486   3.852  0.1362 -0.6818  0.0050
  963MOL0     C32783   9.930   3.594   3.775 -1.0597  0.7342 -0.0672
  963MOL0     C32784   9.938   3.563   3.629 -0.0933  0.4470  0.7668
  963MOL0     C32785   9.960   3.717   3.833  0.4158 -0.6177 -1.1668
  963MOL0     C32786  10.007   3.838   3.762 -1.1185 -0.1750 -0.5755
  963MOL0     O32787  10.092   3.918   3.840  0.4360 -0.3805 -0.1296
  963MOL0     C32788  10.131   4.031   3.778  0.2446  0.4258  0.6942
  963MOL0     C32789  10.246   4.032   3.695 -0.2938 -0.2492  0.8541
  963MOL0     C32790  10.304   4.154   3.649 -0.7639  1.2472  0.3742
  963MOL0     C32791  10.239   4.273   3.668 -0.3614 -0.2527  0.5843
  963MOL0     O32792  10.287   4.401   3.625  0.6844  0.6880 -0.2392
  963MOL0     C32793  10.383   4.403   3.526  0.6194 -0.1019  0.0063
  963MOL0     C32794  10.417   4.548   3.479  0.5452  0.3444  0.0598
  963MOL0     C32795  10.563   4.564   3.419  1.1283  0.2854  0.3718
  963MOL0     C32796  10.576   4.465   3.309 -0.4548  0.0213  0.2051
  963MOL0     C32797  10.708   4.493   3.242 -0.8833  0.1957  0.1316
  963MOL0     C32798  10.750   4.373   3.155  0.3659  0.8960  0.0413
  963MOL0     C32799  10.855   4.405   3.049 -1.0687 -0.7852 -0.3399
  963MOL0     C32800  10.958   4.501   3.102 -0.2131  0.1205  0.4148
  963MOL0    Cl32801  11.106   4.475   3.000 -0.0267  0.6548 -0.7078
  963MOL0     C32802  10.113   4.274   3.735  1.2042 -0.2422  0.1562
  963MOL0     C32803  10.063   4.155   3.796 -0.9278 -0.2806 -0.3607
  963MOL0     O32804   9.967   3.856   3.645 -0.3044 -1.0729  0.5227
  963MOL0     C32805   9.915   3.737   3.969 -0.8314  0.1423 -0.6420
  963MOL0     C32806   9.859   3.624   4.039 -0.9483 -1.3625 -0.0924
  963MOL0     N32807   9.885   3.500   4.594 -0.2317 -0.6358  0.7809
  963MOL0     N32808   9.811   3.555   4.682  0.5164 -0.0507 -0.2046
  963MOL0     C32809   8.991   3.376   5.721  0.0690 -0.2498  0.9372
  963MOL0     C32810   8.873   3.300   5.753 -0.0374 -1.0344 -0.7032
  963MOL0     C32811   8.492   3.053   5.740  0.7402 -1.0020  0.6436
  963MOL0     C32812   8.435   3.128   5.845 -0.7205 -0.2702  0.1023
  963MOL0     C32813   8.327   3.090   5.925 -1.3356  0.4837 -0.4541
  963MOL0     C32814   8.266   2.969   5.892  0.7808 -1.0091 -1.0503
  963MOL0     O32815   8.162   2.920   5.973  0.4799 -0.4962 -0.5314
  963MOL0     C32816   8.081   2.815   5.912 -0.3439 -0.0797 -0.4933
  963MOL0     C32817   7.950   2.801   5.981 -0.3067 -0.1778  0.3562
  963MOL0     C32818   7.964   2.704   6.109  0.1550  0.6412  0.6347
  963MOL0     C32819   7.824   2.685   6.173 -0.2025 -0.1927  0.2304
  963MOL0     C32820   7.733   2.597   6.090  0.5223 -0.9345 -0.4440
  963MOL0     C32821   7.676   2.527   6.015 -0.2589  1.0225  0.6057
  963MOL0     C32822   8.318   2.890   5.791 -0.3044 -1.5955 -0.4798
  963MOL0     C32823   8.427   2.931   5.713  0.6908 -0.0434 -0.4389
  963MOL0     C32824   8.471   2.850   5.601  0.2812 -0.1625 -0.5572
  963MOL0     H32825   8.708   3.315   5.467 -0.9909  0.1939  0.1117
  963MOL0     H32826   8.929   3.413   5.392  0.5373 -2.1584  0.2121
  963MOL0     H32827   9.108   3.569   5.368  2.5973  1.0779 -1.2186
  963MOL0     H32828   9.180   3.400   5.368  2.8847  0.7578 -0.5376
  963MOL0     H32829   9.298   3.682   5.432  4.0406  0.4596  5.3693
  963MOL0     H32830   9.368   3.544   5.504 -0.0398  0.0920  0.3575
  963MOL0     H32831   9.363   3.609   5.216  2.2944  3.6203  2.4645
  963MOL0     H32832   9.505   3.594   5.314  0.5284  1.1327  1.3368
  963MOL0     H32833   9.464   3.348   5.365  1.6449  1.9165  0.3368
  963MOL0     H32834   9.345   3.337   5.242  0.8218 -1.1095 -0.6185
  963MOL0     H32835   9.559   3.286   5.131 -1.5593 -0.2345  1.1483
  963MOL0     H32836   9.622   3.439   5.184  2.2926 -3.1851 -1.1539
  963MOL0     H32837   9.376   3.443   5.020  0.6435 -3.6818  2.3819
  963MOL0     H32838   9.500   3.577   5.031 -1.3218  0.5163  1.7876
  963MOL0     H32839   9.496   3.348   4.840 -1.6298 -1.7106  4.1598
  963MOL0     H32840   9.643   3.346   4.938  0.2608 -0.4484  1.6840
  963MOL0     H32841   9.529   3.550   4.746  1.5464  0.7924 -1.7032
  963MOL0     H32842   9.649   3.603   4.872  3.4984 -0.7625 -0.3652
  963MOL0     H32843   9.638   3.280   4.639  4.3810 -3.4617  1.2509
  963MOL0     H32844   9.803   3.183   4.464  1.7371 -1.1110  1.2409
  963MOL0     H32845   9.963   3.234   4.498  0.5861  0.9942 -1.7466
  963MOL0     H32846   9.809   3.394   4.293 -2.9339 -1.8356 -2.2999
  963MOL0     H32847   9.985   3.379   4.318  1.2364 -2.5243  2.6694
  963MOL0     H32848   9.972   3.156   4.221 -1.1565 -2.3636  0.2024
  963MOL0     H32849   9.796   3.158   4.222  0.4266 -0.5331  0.2547
  963MOL0     H32850   9.993   3.333   4.059 -0.1615  1.6271 -3.6173
  963MOL0     H32851   9.887   3.210   3.999  3.6202 -0.7569  2.0114
  963MOL0     H32852   9.839   3.397   3.801 -3.7121  0.0249  1.3207
  963MOL0     H32853   9.945   3.457   3.602  0.2534  0.8150 -0.6873
  963MOL0     H32854  10.026   3.602   3.578  0.4512  1.3745  2.3415
  963MOL0     H32855   9.850   3.608   3.583  1.0488  2.4573  0.4226
  963MOL0     H32856  10.297   3.938   3.677 -2.1139 -0.7466 -2.6664
  963MOL0     H32857  10.404   4.160   3.605  0.0541 -1.3910  1.6843
  963MOL0     H32858  10.477   4.355   3.554  1.5548  2.9433  2.7812
  963MOL0     H32859  10.346   4.361   3.432 -0.0268  0.7449 -0.1338
  963MOL0     H32860  10.337   4.572   3.408 -1.6978  0.9137  2.6141
  963MOL0     H32861  10.399   4.613   3.565 -2.7441 -1.0740  0.6330
  963MOL0     H32862  10.632   4.555   3.503 -0.3195  1.1763  1.6966
  963MOL0     H32863  10.573   4.658   3.364 -3.4432  0.9047  0.2285
  963MOL0     H32864  10.491   4.469   3.241  0.5122  1.4068 -1.0002
  963MOL0     H32865  10.578   4.367   3.358  1.4527  1.2122  2.6911
  963MOL0     H32866  10.702   4.582   3.178  1.5903  0.4449  0.1341
  963MOL0     H32867  10.779   4.505   3.325 -0.8370 -2.0087  0.4557
  963MOL0     H32868  10.661   4.337   3.101  1.1943  0.5126 -1.0926
  963MOL0     H32869  10.786   4.297   3.226  0.6625  1.4842  0.5284
  963MOL0     H32870  10.818   4.434   2.951  1.7033 -3.9157 -2.5333
  963MOL0     H32871  10.908   4.313   3.024 -0.6541  0.0083 -2.6150
  963MOL0     H32872  10.987   4.468   3.202  1.1618 -0.3978 -0.1251
  963MOL0     H32873  10.928   4.606   3.100  0.3539  0.2918 -1.6111
  963MOL0     H32874  10.057   4.365   3.752  1.0670 -0.7718  3.2370
  963MOL0     H32875   9.976   4.173   3.858 -0.4519 -0.6867  0.4496
  963MOL0     H32876   9.910   3.837   4.013  0.5616  0.9247 -2.1367
  963MOL0     H32877   9.819   3.642   4.138 -1.1260 -1.3715 -0.1641
  963MOL0     H32878   9.064   3.402   5.797  2.0324 -2.7207  0.0020
  963MOL0     H32879   8.869   3.279   5.860  2.3675  2.0588  0.1735
  963MOL0     H32880   8.491   3.213   5.885 -0.0174 -1.2662  1.2898
  963MOL0     H32881   8.293   3.145   6.012 -1.4787 -0.4456  0.0939
  963MOL0     H32882   8.063   2.835   5.806 -1.6463  0.6506 -0.1554
  963MOL0     H32883   8.133   2.719   5.919  1.9778  1.0992 -0.5727
  963MOL0     H32884   7.892   2.761   5.897  2.5804  0.0256 -1.9055
  963MOL0     H32885   7.910   2.898   6.009  2.3255 -0.2268  5.2997
  963MOL0     H32886   8.016   2.612   6.083 -0.5744  0.7392 -1.3229
  963MOL0     H32887   8.021   2.755   6.187 -1.1529  0.5099  1.7038
  963MOL0     H32888   7.782   2.785   6.176 -0.3839 -0.2052  4.3425
  963MOL0     H32889   7.837   2.652   6.277  0.5154 -0.8281 -0.0479
  963MOL0     H32890   7.621   2.458   5.954  0.3093 -0.0559  1.2883
  963MOL0     H32891   8.276   2.795   5.760 -0.0124 -1.9288  0.1232
  963MOL0     H32892   8.469   2.900   5.504  2.5371 -2.1549 -1.7608
  963MOL0     H32893   8.576   2.821   5.617  0.6487  2.1631  2.2048
  963MOL0     H32894   8.401   2.767   5.591  0.6762 -0.3946 -1.5857
  964MOL0     O32895   1.918   0.851   0.498 -0.5745  0.8878  0.0585
  964MOL0     C32896   1.950   0.775   0.406  0.6469  0.2117  0.7126
  964MOL0     O32897   2.062   0.708   0.396  0.3500 -0.0982 -0.2866
  964MOL0     C32898   2.163   0.738   0.484 -0.8319 -0.7023  0.1554
  964MOL0     C32899   2.285   0.803   0.444 -0.5436  0.2447 -0.0695
  964MOL0     C32900   2.386   0.830   0.535 -0.2959 -0.4387  0.2118
  964MOL0     C32901   2.376   0.790   0.671  0.3159 -0.1123  0.6556
  964MOL0     O32902   2.477   0.819   0.754 -0.2767 -0.2904  0.0024
  964MOL0     C32903   2.500   0.718   0.862 -0.6688 -0.8918  0.7007
  964MOL0     C32904   2.636   0.734   0.915  0.3104 -0.8952  0.5214
  964MOL0     C32905   2.753   0.713   0.820 -1.0798  0.7995 -0.3279
  964MOL0     C32906   2.886   0.755   0.861 -0.2899  0.0880  0.0467
  964MOL0     C32907   3.001   0.710   0.772  0.7776 -0.1801 -0.1488
  964MOL0     C32908   3.016   0.800   0.654 -0.1006  0.3305 -0.3674
  964MOL0     C32909   3.148   0.779   0.583 -0.1770  0.5498  0.4054
  964MOL0     C32910   3.265   0.862   0.647  0.2535 -0.8153  0.1978
  964MOL0     N32911   3.389   0.815   0.595 -1.0073  0.6594  0.5304
  964MOL0     C32912   3.473   0.737   0.663 -0.4741  0.4251  0.9075
  964MOL0     C32913   3.563   0.691   0.569 -0.3938 -1.6777  0.7697
  964MOL0     C32914   3.684   0.612   0.603 -0.1926 -0.0358  0.0478
  964MOL0     C32915   3.813   0.687   0.559 -0.2165 -0.0689 -0.4454
  964MOL0     C32916   3.829   0.826   0.609 -0.2741  0.5307 -0.2173
  964MOL0     C32917   3.967   0.887   0.595 -0.0095 -0.1025  0.1747
  964MOL0     O32918   4.043   0.833   0.699  0.0920  0.2681 -0.0304
  964MOL0     C32919   4.176   0.872   0.714 -0.6110 -0.0880 -0.8303
  964MOL0     C32920   4.240   0.826   0.827 -0.4336 -0.3009 -0.3919
  964MOL0     C32921   4.376   0.830   0.845 -0.3738 -0.0767  0.7580
  964MOL0     C32922   4.432   0.772   0.973  0.4892  0.1129 -0.4428
  964MOL0     C32923   4.459   0.891   0.746 -0.6067  0.1188 -0.4850
  964MOL0     C32924   4.603   0.920   0.747 -0.6812  0.6378 -0.3152
  964MOL0     O32925   4.674   0.881   0.633 -0.1723  0.1158 -0.4106
  964MOL0     C32926   4.811   0.853   0.653 -0.0706  0.0126 -0.4026
  964MOL0     C32927   4.870   0.823   0.777  0.5322 -0.3994  0.1593
  964MOL0     C32928   5.001   0.772   0.792  0.9683 -0.1026 -0.2072
  964MOL0     C32929   5.086   0.756   0.683 -0.0207 -0.5471 -0.8963
  964MOL0     O32930   5.224   0.702   0.690  0.0864  0.0705 -0.7566
  964MOL0     C32931   5.317   0.812   0.685  0.0633 -0.4669 -0.4744
  964MOL0     C32932   5.444   0.783   0.762 -1.1370 -0.3682  0.4344
  964MOL0     C32933   5.538   0.676   0.703 -0.2463  0.4509 -0.4228
  964MOL0     C32934   5.656   0.641   0.791 -0.3032 -0.1759  0.0681
  964MOL0     C32935   5.780   0.739   0.766  0.3921 -0.5976  0.3866
  964MOL0     C32936   5.890   0.710   0.865  0.4578 -0.8245 -0.1155
  964MOL0     C32937   6.007   0.812   0.865 -1.1135  0.5398  0.1662
  964MOL0     C32938   6.087   0.789   0.990 -0.8076  0.3279 -0.2277
  964MOL0    Cl32939   6.149   0.622   1.013 -0.0143  0.2187 -0.0844
  964MOL0     C32940   5.036   0.793   0.557 -0.3741 -0.5375 -0.4564
  964MOL0     C32941   4.901   0.842   0.545 -0.3396  0.1402  0.1843
  964MOL0     O32942   4.640   1.000   0.833  0.0111 -0.9406 -0.0544
  964MOL0     C32943   4.389   0.959   0.648 -1.1473 -0.0170 -1.1273
  964MOL0     C32944   4.256   0.961   0.644 -0.3374 -0.4173  0.3594
  964MOL0     N32945   3.534   0.737   0.444  0.1937  0.3478 -0.0525
  964MOL0     N32946   3.428   0.803   0.465 -0.3585  0.9020 -0.1242
  964MOL0     C32947   2.255   0.729   0.708 -0.0781  0.9019  0.2505
  964MOL0     C32948   2.149   0.695   0.621 -0.3491 -0.2561  0.1861
  964MOL0     C32949   1.858   0.781   0.294 -0.5741  0.6600 -0.3933
  964MOL0     C32950   1.916   0.748   0.167  0.3737  0.9632 -0.7782
  964MOL0     C32951   1.828   0.730   0.052 -0.6010  0.4698 -0.3306
  964MOL0     C32952   1.692   0.746   0.061  0.0546 -0.4431  0.9429
  964MOL0     O32953   1.616   0.727  -0.053  0.1480  0.8328  1.0914
  964MOL0     C32954   1.473   0.718  -0.046  0.5128 -0.6411 -0.0086
  964MOL0     C32955   1.412   0.693  -0.177  0.3879  0.1960  0.0689
  964MOL0     C32956   1.425   0.819  -0.263  0.8500  0.2844  0.3685
  964MOL0     C32957   1.344   0.806  -0.395 -0.1791  0.0198  0.2007
  964MOL0     C32958   1.355   0.949  -0.455  0.3458  1.2921  0.1118
  964MOL0     C32959   1.355   1.058  -0.506 -0.5398 -0.3396 -0.2767
  964MOL0     C32960   1.641   0.793   0.185 -0.5000 -0.0288  0.7655
  964MOL0     C32961   1.717   0.811   0.297  0.1146  0.6045 -0.0287
  964MOL0     C32962   1.637   0.856   0.417  0.2131 -0.5464 -0.4347
  964MOL0     H32963   2.292   0.849   0.346  2.1276  0.3013  0.0769
  964MOL0     H32964   2.473   0.887   0.503 -0.5865  1.3272  2.3680
  964MOL0     H32965   2.498   0.617   0.819  0.3622 -0.1131 -1.2705
  964MOL0     H32966   2.424   0.723   0.941 -2.1930  0.5420 -0.7903
  964MOL0     H32967   2.654   0.827   0.970  2.8597 -0.7211 -0.4889
  964MOL0     H32968   2.642   0.655   0.990  3.4368 -0.5789  0.7205
  964MOL0     H32969   2.760   0.608   0.789  1.1430  1.0907 -1.0146
  964MOL0     H32970   2.725   0.764   0.727 -2.7138  0.4691 -0.0460
  964MOL0     H32971   2.870   0.863   0.860 -1.5906 -0.0907 -0.6903
  964MOL0     H32972   2.903   0.726   0.965  1.0972 -2.0970 -0.7333
  964MOL0     H32973   2.987   0.606   0.741  1.0080  0.0676 -1.1004
  964MOL0     H32974   3.084   0.710   0.844  0.8097 -1.0531 -0.1821
  964MOL0     H32975   2.926   0.773   0.598 -0.7538 -4.9320  2.5849
  964MOL0     H32976   3.023   0.906   0.680  4.8318  0.3379 -0.8527
  964MOL0     H32977   3.135   0.799   0.476  1.7879 -1.3143 -0.2574
  964MOL0     H32978   3.170   0.672   0.585  0.3756  0.6402 -0.4173
  964MOL0     H32979   3.246   0.969   0.629  0.5912  0.0942  4.2214
  964MOL0     H32980   3.267   0.857   0.756 -1.7174  0.0265  0.3107
  964MOL0     H32981   3.479   0.711   0.768 -1.3298 -0.9219  0.6475
  964MOL0     H32982   3.672   0.509   0.569  0.0143  0.3222 -1.1426
  964MOL0     H32983   3.697   0.605   0.712  0.8683  0.0378 -0.0631
  964MOL0     H32984   3.901   0.622   0.571  0.9335  1.3118 -1.1680
  964MOL0     H32985   3.796   0.700   0.452 -0.0329  0.3851 -0.4220
  964MOL0     H32986   3.752   0.881   0.553 -2.3864 -1.9284  0.0549
  964MOL0     H32987   3.802   0.831   0.715 -4.5810  1.6896 -1.1529
  964MOL0     H32988   4.017   0.865   0.500 -0.5335  1.8717 -0.5998
  964MOL0     H32989   3.953   0.995   0.600  2.3265  0.3397 -1.1986
  964MOL0     H32990   4.168   0.775   0.890  1.8784 -1.3886  1.5190
  964MOL0     H32991   4.349   0.736   1.036  0.7027 -0.9706 -0.7657
  964MOL0     H32992   4.479   0.853   1.030 -2.4549  0.1754  2.1698
  964MOL0     H32993   4.488   0.679   0.961  1.1767  0.8264 -3.5512
  964MOL0     H32994   4.800   0.820   0.859 -0.4817  0.8658 -0.6264
  964MOL0     H32995   5.027   0.745   0.895 -0.0567 -1.0695 -0.1891
  964MOL0     H32996   5.341   0.840   0.582 -0.3111  0.3894 -0.3403
  964MOL0     H32997   5.276   0.907   0.721 -1.3028 -0.8962 -0.8464
  964MOL0     H32998   5.496   0.880   0.759 -2.4704  0.4852  2.5091
  964MOL0     H32999   5.423   0.747   0.863 -3.2868 -3.1760 -0.8965
  964MOL0     H33000   5.570   0.702   0.601 -4.6699 -0.4033 -2.2560
  964MOL0     H33001   5.474   0.590   0.681  1.8693 -0.4736 -3.7573
  964MOL0     H33002   5.688   0.538   0.772  1.7441  0.5192 -0.4417
  964MOL0     H33003   5.606   0.654   0.887 -1.0160  0.7463 -0.4098
  964MOL0     H33004   5.826   0.726   0.668  0.1665 -1.4531  0.3816
  964MOL0     H33005   5.748   0.843   0.770  3.0414  0.4492 -2.2328
  964MOL0     H33006   5.922   0.609   0.838 -3.8728 -2.0984 -1.2149
  964MOL0     H33007   5.840   0.711   0.962 -1.5509 -0.8640 -1.0993
  964MOL0     H33008   5.976   0.917   0.860  0.7906  1.2726  2.0293
  964MOL0     H33009   6.078   0.802   0.782 -0.6485 -2.0917  0.7979
  964MOL0     H33010   6.022   0.806   1.076 -0.6161 -2.0042  0.4579
  964MOL0     H33011   6.179   0.848   0.989 -0.5454 -0.0316 -2.2010
  964MOL0     H33012   5.092   0.766   0.469 -2.1680 -0.4997 -1.6764
  964MOL0     H33013   4.872   0.869   0.444  1.0400  2.4283  0.3283
  964MOL0     H33014   4.427   1.023   0.569  0.2878  1.1352  0.4365
  964MOL0     H33015   4.203   1.011   0.563 -3.4204 -1.7856  1.3864
  964MOL0     H33016   2.242   0.697   0.811  0.0984  2.9176  0.9488
  964MOL0     H33017   2.071   0.628   0.656 -1.7284  1.0501 -0.2460
  964MOL0     H33018   2.022   0.727   0.169  0.5721  1.7734  1.8333
  964MOL0     H33019   1.872   0.699  -0.042 -1.4133  1.4615 -1.0610
  964MOL0     H33020   1.445   0.639   0.025  0.6530  0.5608  1.4407
  964MOL0     H33021   1.420   0.808  -0.013 -2.2319 -2.0127 -0.3364
  964MOL0     H33022   1.305   0.680  -0.156  0.3172  2.3919  1.4174
  964MOL0     H33023   1.456   0.604  -0.222 -0.4328  0.4036 -1.2176
  964MOL0     H33024   1.388   0.905  -0.207  0.7037  0.3864  0.1166
  964MOL0     H33025   1.524   0.842  -0.303 -0.5317 -0.1934 -3.7978
  964MOL0     H33026   1.239   0.776  -0.384  0.6066 -2.9531  0.3610
  964MOL0     H33027   1.398   0.742  -0.465  0.9920  2.1064 -0.9004
  964MOL0     H33028   1.365   1.156  -0.547  0.9411 -0.5867 -0.5868
  964MOL0     H33029   1.536   0.811   0.208 -0.1487 -0.8939  3.3903
  964MOL0     H33030   1.688   0.815   0.505 -2.4765 -2.2887  0.4507
  964MOL0     H33031   1.634   0.965   0.409  0.8526 -0.3873  1.2425
  964MOL0     H33032   1.534   0.818   0.427 -0.4544  1.5690  1.4774
  965MOL0     O33033   8.260   1.893   7.613 -0.9423  0.3209  0.4709
  965MOL0     C33034   8.274   2.003   7.559 -0.3186  0.5395 -0.0473
  965MOL0     O33035   8.344   2.108   7.610  0.4733 -0.0206  0.3641
  965MOL0     C33036   8.466   2.073   7.666  0.0673 -0.8286 -0.5576
  965MOL0     C33037   8.496   2.125   7.792  0.1698 -0.2542 -0.8330
  965MOL0     C33038   8.612   2.100   7.862  0.0220  0.8762 -0.2270
  965MOL0     C33039   8.706   2.016   7.796 -0.2229 -0.7034 -0.1282
  965MOL0     O33040   8.823   2.006   7.856 -0.0967  0.5964 -0.4450
  965MOL0     C33041   8.926   1.900   7.835  0.0188 -0.1117  0.1061
  965MOL0     C33042   9.021   1.902   7.961 -0.4118  0.6817 -0.2301
  965MOL0     C33043   9.166   1.857   7.937  0.0635 -0.1163  0.3529
  965MOL0     C33044   9.193   1.717   7.989  0.1503  0.2538 -0.7474
  965MOL0     C33045   9.331   1.648   7.959  0.3966  0.0960 -0.4891
  965MOL0     C33046   9.454   1.721   8.021 -0.4724  0.5223 -0.0665
  965MOL0     C33047   9.566   1.611   8.044 -0.8245  0.6117  0.5062
  965MOL0     C33048   9.696   1.672   8.101  0.7766  0.8610  0.7089
  965MOL0     N33049   9.804   1.576   8.099 -0.3220  0.1960 -0.4755
  965MOL0     C33050   9.837   1.477   8.003 -0.2090  0.7148  0.4035
  965MOL0     C33051   9.958   1.434   8.052 -0.2963  0.9844 -0.1810
  965MOL0     C33052  10.043   1.326   7.985  0.1954 -0.0723  0.3208
  965MOL0     C33053  10.179   1.393   7.948  0.1584  0.3012  0.5109
  965MOL0     C33054  10.167   1.503   7.841  0.3512  0.7854 -0.2471
  965MOL0     C33055  10.107   1.450   7.712  0.8601 -0.5440  0.6041
  965MOL0     O33056  10.106   1.541   7.609 -0.1237  0.6348 -0.2964
  965MOL0     C33057  10.015   1.636   7.569 -0.1493  0.1752 -0.0015
  965MOL0     C33058   9.882   1.647   7.621 -0.6853  0.0678 -0.9905
  965MOL0     C33059   9.789   1.731   7.564 -0.9730  0.3657 -0.7942
  965MOL0     C33060   9.671   1.764   7.653 -0.2864  0.1851  0.2557
  965MOL0     C33061   9.818   1.786   7.445 -1.0145  1.8236 -0.1232
  965MOL0     C33062   9.723   1.863   7.371  0.4415  0.2275  0.2108
  965MOL0     O33063   9.771   1.942   7.269  0.8334  0.9497  0.0628
  965MOL0     C33064   9.711   2.063   7.227 -0.3871  1.4735 -0.6415
  965MOL0     C33065   9.739   2.087   7.092 -0.4282 -0.9098  0.6771
  965MOL0     C33066   9.683   2.206   7.044  0.1710  1.2836 -0.8745
  965MOL0     C33067   9.603   2.287   7.136  0.9887 -0.3409  0.5041
  965MOL0     O33068   9.540   2.400   7.090  0.6110 -0.4426 -0.5595
  965MOL0     C33069   9.540   2.424   6.950  0.0191 -0.6393  0.1234
  965MOL0     C33070   9.437   2.538   6.920  0.2053 -0.3066 -0.4250
  965MOL0     C33071   9.456   2.671   7.001  0.0600  0.0069  0.1988
  965MOL0     C33072   9.350   2.780   6.984  0.1646  0.6514  0.7035
  965MOL0     C33073   9.402   2.914   7.011  1.0268 -0.2853 -0.5685
  965MOL0     C33074   9.421   2.938   7.168  0.0216  0.0037  0.3204
  965MOL0     C33075   9.272   2.921   7.230  0.6204 -0.2835  0.0430
  965MOL0     C33076   9.278   2.973   7.371  0.6060  0.2325  0.9642
  965MOL0    Cl33077   9.388   2.873   7.474  0.3891 -0.0820 -0.0408
  965MOL0     C33078   9.581   2.253   7.274 -0.3629 -0.0476 -0.3628
  965MOL0     C33079   9.641   2.142   7.321 -1.4594  0.4077 -0.0631
  965MOL0     O33080   9.611   1.866   7.417  0.2995  0.2737 -0.3361
  965MOL0     C33081   9.950   1.768   7.379  0.1707  0.6420  1.6260
  965MOL0     C33082  10.047   1.700   7.447  0.6620 -0.5828 -0.5301
  965MOL0     N33083   9.979   1.495   8.178 -1.1879  0.6347  0.2872
  965MOL0     N33084   9.897   1.585   8.199  0.6518  0.1908  0.2513
  965MOL0     C33085   8.677   1.952   7.679  0.3011  1.0160  0.2033
  965MOL0     C33086   8.555   1.976   7.616  0.0987 -0.7405 -0.4397
  965MOL0     C33087   8.203   2.034   7.435  0.9029 -0.5899 -0.3328
  965MOL0     C33088   8.227   2.147   7.357 -1.3349 -0.1527 -0.2101
  965MOL0     C33089   8.160   2.183   7.238  0.4851  0.2690 -0.1540
  965MOL0     C33090   8.064   2.098   7.183 -0.4601 -0.3024 -0.0204
  965MOL0     O33091   8.012   2.129   7.058  0.2155 -0.1725  0.6180
  965MOL0     C33092   8.064   2.248   6.995  0.4701  0.8943 -0.0176
  965MOL0     C33093   8.017   2.232   6.853 -1.3367 -0.4770 -0.5330
  965MOL0     C33094   8.072   2.109   6.782 -0.3008 -0.5422  0.0172
  965MOL0     C33095   8.025   2.108   6.630  0.2973 -0.4548  0.0972
  965MOL0     C33096   8.067   2.221   6.553 -0.0294 -0.1303  0.7002
  965MOL0     C33097   8.095   2.321   6.487 -0.7899  0.6299  0.0830
  965MOL0     C33098   8.035   1.981   7.251 -0.4733  0.6270  0.2505
  965MOL0     C33099   8.091   1.952   7.384 -0.7685  0.2355  0.0894
  965MOL0     C33100   8.040   1.821   7.438 -0.1206  1.3552  1.0397
  965MOL0     H33101   8.416   2.188   7.829  1.7181 -0.1650  2.7400
  965MOL0     H33102   8.617   2.155   7.956 -3.2615  0.6510  0.1826
  965MOL0     H33103   8.971   1.921   7.738  0.8594 -0.2880  0.4555
  965MOL0     H33104   8.895   1.795   7.834  1.8703 -0.7076  1.4168
  965MOL0     H33105   9.039   2.007   7.988  1.5756  0.7992 -1.7703
  965MOL0     H33106   8.973   1.850   8.043 -1.0489 -0.5942 -1.3813
  965MOL0     H33107   9.181   1.853   7.829  0.5386  2.5614  0.2532
  965MOL0     H33108   9.245   1.924   7.971  1.3995 -1.2889 -0.3470
  965MOL0     H33109   9.179   1.705   8.097 -3.1102 -0.9898 -1.1932
  965MOL0     H33110   9.113   1.651   7.955 -0.0062  0.0617 -0.0353
  965MOL0     H33111   9.349   1.654   7.851 -0.0381 -2.6512 -0.7772
  965MOL0     H33112   9.318   1.548   7.999  0.5828  0.3023  0.0974
  965MOL0     H33113   9.500   1.790   7.950 -1.7175  2.2712  0.7619
  965MOL0     H33114   9.420   1.779   8.107 -0.6256  1.6549 -0.8738
  965MOL0     H33115   9.595   1.564   7.950 -3.1601  0.3590 -0.1488
  965MOL0     H33116   9.531   1.536   8.116 -0.9793  0.0791 -0.1209
  965MOL0     H33117   9.723   1.759   8.041 -1.7319 -0.1148 -2.0385
  965MOL0     H33118   9.672   1.707   8.202  1.4818 -0.3582  1.3197
  965MOL0     H33119   9.770   1.448   7.922 -2.4522  1.9555  1.6953
  965MOL0     H33120   9.991   1.291   7.895  0.0693 -0.1686  0.4318
  965MOL0     H33121  10.061   1.242   8.052  0.9346  0.6416  1.0434
  965MOL0     H33122  10.219   1.440   8.038 -1.2971  2.3553  0.1739
  965MOL0     H33123  10.244   1.314   7.910  0.7559  0.7372  0.6119
  965MOL0     H33124  10.115   1.591   7.882  0.0619  0.8165 -0.6766
  965MOL0     H33125  10.264   1.552   7.825  1.5940 -0.6414  2.3091
  965MOL0     H33126  10.167   1.368   7.671 -1.0464 -1.7570  0.1023
  965MOL0     H33127  10.002   1.419   7.719 -0.5413  3.4865  0.1720
  965MOL0     H33128   9.853   1.586   7.706  0.3891  1.3988  0.3754
  965MOL0     H33129   9.659   1.873   7.658 -0.8226  0.1493 -0.2713
  965MOL0     H33130   9.686   1.717   7.750 -0.7176  0.5394  0.4974
  965MOL0     H33131   9.577   1.724   7.615 -0.6259 -0.3741  1.6288
  965MOL0     H33132   9.798   2.020   7.032  1.2331 -0.3253  1.5872
  965MOL0     H33133   9.701   2.224   6.939  1.1922 -1.3316 -1.2241
  965MOL0     H33134   9.639   2.461   6.921 -0.8504  0.2445 -1.8703
  965MOL0     H33135   9.511   2.343   6.883 -1.0417  2.7584 -4.0171
  965MOL0     H33136   9.439   2.564   6.813 -0.0576 -1.8171 -0.8168
  965MOL0     H33137   9.343   2.484   6.935  0.7133 -1.1757 -0.3256
  965MOL0     H33138   9.554   2.719   6.990  0.6063 -0.5280  2.2476
  965MOL0     H33139   9.457   2.640   7.106 -2.0250 -0.0902  0.2286
  965MOL0     H33140   9.262   2.750   7.041  1.4408 -3.1429  0.9772
  965MOL0     H33141   9.317   2.780   6.880  3.2909 -1.7996 -0.4578
  965MOL0     H33142   9.495   2.937   6.958  1.2055  3.5267  1.0904
  965MOL0     H33143   9.334   2.983   6.961  1.0166 -0.7072 -1.1463
  965MOL0     H33144   9.465   3.037   7.184 -1.1226  0.1597  3.1311
  965MOL0     H33145   9.488   2.861   7.205 -0.2926 -0.9592 -1.0382
  965MOL0     H33146   9.238   2.817   7.224  1.0430 -0.4284  0.1268
  965MOL0     H33147   9.195   2.981   7.179  0.9933  1.2212  1.2007
  965MOL0     H33148   9.180   2.969   7.418 -0.1234  1.6311 -0.3514
  965MOL0     H33149   9.303   3.079   7.370 -1.2310  0.7029 -0.3766
  965MOL0     H33150   9.533   2.325   7.341 -2.7434 -1.6122 -0.3007
  965MOL0     H33151   9.648   2.114   7.426  0.1413  1.6300  0.1884
  965MOL0     H33152   9.968   1.813   7.282 -0.6664  1.9175  2.0341
  965MOL0     H33153  10.151   1.683   7.420  1.3344  0.9431  0.9190
  965MOL0     H33154   8.740   1.876   7.634 -1.6736  0.2418 -1.4583
  965MOL0     H33155   8.518   1.926   7.527  1.9137 -1.7981 -0.6527
  965MOL0     H33156   8.308   2.215   7.382  1.7868 -1.6934 -4.8206
  965MOL0     H33157   8.179   2.280   7.193  0.9388 -0.3499 -1.3605
  965MOL0     H33158   8.024   2.339   7.041  2.1104  1.0402  1.2166
  965MOL0     H33159   8.173   2.255   6.997  0.5509 -0.0629 -0.3740
  965MOL0     H33160   8.055   2.326   6.811 -0.5943  0.7356  2.5623
  965MOL0     H33161   7.910   2.229   6.831 -0.8745 -0.3146 -3.0976
  965MOL0     H33162   8.181   2.099   6.787 -0.1872  0.5040 -0.0754
  965MOL0     H33163   8.040   2.017   6.831 -0.4503 -1.1252 -1.1645
  965MOL0     H33164   7.916   2.113   6.638  0.2411 -3.0074  2.7067
  965MOL0     H33165   8.055   2.013   6.586 -1.6079 -1.6416  1.1897
  965MOL0     H33166   8.122   2.404   6.424 -2.3309  0.1129 -1.3311
  965MOL0     H33167   7.967   1.913   7.203  2.1123 -3.4212  1.7845
  965MOL0     H33168   7.936   1.806   7.409 -0.6546  0.5397  3.2441
  965MOL0     H33169   8.096   1.734   7.403 -1.6486  0.4058  0.8759
  965MOL0     H33170   8.049   1.823   7.547  1.2004  0.4229  0.9726
  966MOL0     O33171   7.058   7.285   6.345  0.1671  0.2908 -0.7093
  966MOL0     C33172   7.056   7.186   6.418 -0.3623 -0.3387  0.2331
  966MOL0     O33173   7.157   7.147   6.492 -0.0511  0.2473  0.5507
  966MOL0     C33174   7.282   7.199   6.458 -0.1875 -0.4647 -0.3851
  966MOL0     C33175   7.360   7.161   6.350 -0.1087  0.0149 -0.1193
  966MOL0     C33176   7.478   7.232   6.327  0.3761 -0.5653 -0.2505
  966MOL0     C33177   7.523   7.336   6.410  0.7154 -0.5781  0.8169
  966MOL0     O33178   7.624   7.419   6.392 -0.9271 -0.2364  0.2599
  966MOL0     C33179   7.747   7.367   6.354 -0.2006  0.2243 -0.9816
  966MOL0     C33180   7.824   7.309   6.474  0.2994  0.4038  0.2162
  966MOL0     C33181   7.842   7.415   6.591  0.2978  0.2520 -0.4915
  966MOL0     C33182   7.957   7.382   6.679 -0.8775  0.7645  0.4652
  966MOL0     C33183   7.984   7.484   6.785 -0.4054 -0.6446  0.6230
  966MOL0     C33184   8.086   7.579   6.728 -0.6903  0.1829  0.2670
  966MOL0     C33185   8.108   7.711   6.812 -0.3994  0.3432  0.8071
  966MOL0     C33186   8.230   7.794   6.770 -0.0426  0.2689  0.3608
  966MOL0     N33187   8.359   7.780   6.847 -0.9786 -0.4090 -0.3601
  966MOL0     C33188   8.467   7.860   6.827 -0.0629  0.3186 -0.1005
  966MOL0     C33189   8.551   7.828   6.925  0.2120  0.6193 -0.4982
  966MOL0     C33190   8.669   7.914   6.956 -0.0569  0.4789 -0.8491
  966MOL0     C33191   8.719   7.936   7.105  0.0633 -0.3886  0.3920
  966MOL0     C33192   8.663   8.068   7.173 -0.1897  0.3671  0.0419
  966MOL0     C33193   8.710   8.069   7.319 -0.4369 -0.7741  0.2617
  966MOL0     O33194   8.641   7.969   7.390 -0.6661  0.2019 -0.0663
  966MOL0     C33195   8.697   7.910   7.501 -0.0676 -0.9686 -0.2880
  966MOL0     C33196   8.634   7.802   7.551 -0.2093  1.2015 -0.4359
  966MOL0     C33197   8.671   7.744   7.675 -0.2253 -0.0047  1.2109
  966MOL0     C33198   8.590   7.618   7.715 -0.6457  0.2369 -0.2154
  966MOL0     C33199   8.768   7.812   7.751  0.7981  0.1823 -0.3086
  966MOL0     C33200   8.815   7.772   7.891 -0.0950 -0.1372  0.7624
  966MOL0     O33201   8.826   7.644   7.917  0.3205 -0.6517 -0.4907
  966MOL0     C33202   8.891   7.602   8.033 -0.0572 -0.5045  0.0040
  966MOL0     C33203   9.028   7.634   8.040  0.7535  0.0753  0.2433
  966MOL0     C33204   9.103   7.598   8.148 -0.5615  0.2780  0.7256
  966MOL0     C33205   9.041   7.526   8.251 -0.0101  0.5265 -0.0499
  966MOL0     O33206   9.114   7.501   8.368 -0.0323  1.1558 -0.2044
  966MOL0     C33207   9.050   7.510   8.490 -0.2744  0.6410  0.2211
  966MOL0     C33208   9.153   7.484   8.595 -0.2430 -0.0955 -0.4191
  966MOL0     C33209   9.077   7.491   8.729  0.9282 -0.6324  0.6853
  966MOL0     C33210   9.167   7.442   8.835  0.0466  0.0353 -0.0014
  966MOL0     C33211   9.119   7.450   8.986  0.0684 -0.1171 -0.0711
  966MOL0     C33212   9.226   7.391   9.069  0.1037  0.5050 -0.7390
  966MOL0     C33213   9.192   7.397   9.220  0.1782 -0.1771  0.4080
  966MOL0     C33214   9.273   7.293   9.307 -0.3481  0.2062 -0.2453
  966MOL0    Cl33215   9.244   7.303   9.480  0.7086  0.3217 -0.6878
  966MOL0     C33216   8.912   7.473   8.229  0.3980 -0.7011  0.2143
  966MOL0     C33217   8.842   7.508   8.117 -0.0188 -0.4410 -0.3085
  966MOL0     O33218   8.835   7.861   7.968  0.3825 -0.2256 -0.5126
  966MOL0     C33219   8.826   7.929   7.702 -0.6349  0.0745  0.0734
  966MOL0     C33220   8.791   7.977   7.581  0.3364 -0.4635  0.6557
  966MOL0     N33221   8.503   7.732   7.002 -0.7281  0.0277  0.2154
  966MOL0     N33222   8.392   7.698   6.949 -0.2678  0.5364 -0.0273
  966MOL0     C33223   7.443   7.374   6.511 -0.5002  0.3286  0.0588
  966MOL0     C33224   7.316   7.311   6.534 -0.5920 -0.2103 -0.9241
  966MOL0     C33225   6.944   7.095   6.425  0.2029  0.5119 -0.1264
  966MOL0     C33226   6.962   6.968   6.491 -1.1761 -0.3170  0.3874
  966MOL0     C33227   6.857   6.876   6.497  0.5183 -0.2460 -0.0504
  966MOL0     C33228   6.739   6.897   6.425 -0.1874  0.6420 -0.1466
  966MOL0     O33229   6.646   6.796   6.420 -0.4245 -0.3701  0.2184
  966MOL0     C33230   6.519   6.831   6.487  0.1213  0.4121 -0.1251
  966MOL0     C33231   6.490   6.727   6.592  0.5740 -0.0486 -0.3637
  966MOL0     C33232   6.560   6.766   6.728  0.5714 -0.1069  0.1209
  966MOL0     C33233   6.545   6.667   6.837  0.1489  0.7903 -1.2091
  966MOL0     C33234   6.590   6.528   6.811 -0.1786 -0.5498 -0.6381
  966MOL0     C33235   6.636   6.422   6.781 -0.7138 -0.5192  0.6185
  966MOL0     C33236   6.719   7.005   6.341  0.2623  0.1028  0.5656
  966MOL0     C33237   6.821   7.109   6.346 -0.8838  0.2188  0.7691
  966MOL0     C33238   6.800   7.220   6.254  0.4276  0.1309 -0.1570
  966MOL0     H33239   7.337   7.069   6.297 -0.6062  1.1150 -1.9178
  966MOL0     H33240   7.533   7.209   6.237 -0.8539  2.7274 -2.0140
  966MOL0     H33241   7.805   7.452   6.315 -0.1753 -0.5525 -2.7471
  966MOL0     H33242   7.747   7.286   6.280  0.7865 -0.9250  0.2305
  966MOL0     H33243   7.772   7.220   6.509  0.5940  1.2878  3.1876
  966MOL0     H33244   7.925   7.279   6.445  0.4506  1.6048 -0.5804
  966MOL0     H33245   7.861   7.514   6.548  1.6355  0.4226  0.4665
  966MOL0     H33246   7.752   7.403   6.652  1.9133 -2.7771  1.5173
  966MOL0     H33247   7.948   7.279   6.713 -0.9032 -1.3821 -4.9835
  966MOL0     H33248   8.045   7.378   6.615 -1.1704  0.7487  0.0584
  966MOL0     H33249   8.020   7.434   6.876 -1.1352  0.9964  1.8651
  966MOL0     H33250   7.888   7.530   6.808 -0.8399 -1.5533  0.6586
  966MOL0     H33251   8.184   7.531   6.723 -0.4041  0.7863 -0.0975
  966MOL0     H33252   8.060   7.611   6.627  0.1518  2.5901  0.7493
  966MOL0     H33253   8.113   7.699   6.921 -1.6346 -3.3834  0.6049
  966MOL0     H33254   8.023   7.772   6.782  0.1281  0.0405 -1.5154
  966MOL0     H33255   8.249   7.778   6.664  3.6624  2.3910  0.5407
  966MOL0     H33256   8.213   7.902   6.766  1.4477  0.4974 -0.3441
  966MOL0     H33257   8.483   7.946   6.763  2.5900  0.6954  0.9121
  966MOL0     H33258   8.668   8.016   6.915 -1.0346  1.1773  0.8127
  966MOL0     H33259   8.758   7.873   6.908 -0.6832 -0.3936 -1.3021
  966MOL0     H33260   8.696   7.844   7.160 -1.3816 -0.7100 -0.6841
  966MOL0     H33261   8.827   7.948   7.116  0.4858 -3.1188  0.0203
  966MOL0     H33262   8.700   8.146   7.106 -0.1083 -0.7354 -1.2625
  966MOL0     H33263   8.554   8.062   7.173 -0.1337 -3.9028  0.4954
  966MOL0     H33264   8.819   8.053   7.318 -0.0787  1.3664 -0.3534
  966MOL0     H33265   8.698   8.163   7.373  2.7383 -0.2885  0.3635
  966MOL0     H33266   8.553   7.756   7.495 -0.3796  1.5281 -0.4594
  966MOL0     H33267   8.552   7.623   7.817  2.0237  1.0556  0.8330
  966MOL0     H33268   8.650   7.527   7.706  1.1968  1.5261 -2.1391
  966MOL0     H33269   8.507   7.605   7.646 -2.0718  2.2151  1.0295
  966MOL0     H33270   9.070   7.702   7.967  2.3370  0.9858  1.9117
  966MOL0     H33271   9.204   7.637   8.160  0.2955 -0.2699 -3.2235
  966MOL0     H33272   9.023   7.616   8.494  2.6109  1.4108  1.2672
  966MOL0     H33273   8.974   7.432   8.499  1.9223 -1.5781  0.8260
  966MOL0     H33274   9.184   7.380   8.585  0.0418 -0.4179  2.8927
  966MOL0     H33275   9.234   7.557   8.589 -0.7918  0.4624 -1.3657
  966MOL0     H33276   8.995   7.419   8.724 -1.8418  2.2537  1.5206
  966MOL0     H33277   9.039   7.591   8.748 -1.8387 -1.0459 -1.8715
  966MOL0     H33278   9.263   7.494   8.828  1.0450 -1.1215  3.3489
  966MOL0     H33279   9.198   7.340   8.813  0.3569  0.2978 -0.8442
  966MOL0     H33280   9.098   7.555   9.013  0.3769  0.2054 -1.0733
  966MOL0     H33281   9.027   7.392   9.002  0.3403 -0.2485  1.1107
  966MOL0     H33282   9.326   7.435   9.055  0.1246  0.3017 -1.2191
  966MOL0     H33283   9.225   7.288   9.034  0.2295  0.3546 -0.3033
  966MOL0     H33284   9.086   7.376   9.232  0.1694 -2.2392 -2.3669
  966MOL0     H33285   9.210   7.500   9.252  0.8145 -0.1456 -0.0269
  966MOL0     H33286   9.377   7.318   9.284 -0.8792  2.1713 -0.6989
  966MOL0     H33287   9.251   7.193   9.266 -1.0522  0.8296 -1.4589
  966MOL0     H33288   8.863   7.415   8.306 -1.6703  0.4091 -0.1957
  966MOL0     H33289   8.746   7.458   8.108  1.1382 -2.8810 -0.0457
  966MOL0     H33290   8.890   7.987   7.768  0.6065 -1.4670  0.2827
  966MOL0     H33291   8.825   8.072   7.540 -3.4480  0.0504 -1.7823
  966MOL0     H33292   7.483   7.453   6.573 -0.1023 -1.1186  1.7209
  966MOL0     H33293   7.246   7.360   6.602 -1.9687  0.6072 -2.8496
  966MOL0     H33294   7.051   6.943   6.547 -0.9322 -0.0769  0.1110
  966MOL0     H33295   6.857   6.788   6.560  3.9516  0.3004  0.9455
  966MOL0     H33296   6.519   6.930   6.534 -1.4395 -0.0112  0.8397
  966MOL0     H33297   6.436   6.836   6.415  0.4744 -1.5474 -0.7230
  966MOL0     H33298   6.521   6.625   6.567  1.2315 -0.6930  2.6042
  966MOL0     H33299   6.383   6.731   6.612  1.0797 -0.0964  2.9177
  966MOL0     H33300   6.666   6.787   6.717  0.3448  0.5941 -0.8766
  966MOL0     H33301   6.511   6.860   6.757  1.6325  1.0328 -1.6368
  966MOL0     H33302   6.442   6.647   6.867  1.0316 -1.5528  0.6681
  966MOL0     H33303   6.593   6.695   6.931 -1.3978 -0.1271 -0.0840
  966MOL0     H33304   6.688   6.337   6.741  3.1558  1.2766  1.4257
  966MOL0     H33305   6.630   7.005   6.279  0.0622 -0.3575  0.8491
  966MOL0     H33306   6.792   7.312   6.312  1.8410 -0.5682  1.2162
  966MOL0     H33307   6.883   7.220   6.182 -0.4757 -1.7799 -1.2771
  966MOL0     H33308   6.710   7.207   6.193  0.5047 -2.7899  0.2351
  967MOL0     O33309   2.141   4.428   6.877  0.4464 -0.3033  0.8658
  967MOL0     C33310   2.164   4.532   6.818 -0.4619 -1.0128  1.0237
  967MOL0     O33311   2.275   4.605   6.826 -0.0697 -0.9419 -0.0708
  967MOL0     C33312   2.374   4.557   6.910 -0.0802  0.8337  0.2434
  967MOL0     C33313   2.502   4.521   6.859  0.0077  0.0204  0.8920
  967MOL0     C33314   2.600   4.467   6.940  0.2088 -0.0482 -0.2381
  967MOL0     C33315   2.591   4.449   7.080  0.7281 -0.3723  0.1488
  967MOL0     O33316   2.707   4.419   7.148 -0.2051  0.4912 -0.6767
  967MOL0     C33317   2.691   4.385   7.290 -0.6176  0.2048 -0.6511
  967MOL0     C33318   2.830   4.364   7.366 -0.1708  0.0768 -0.4351
  967MOL0     C33319   2.824   4.344   7.520  0.3421  1.2636 -0.5546
  967MOL0     C33320   2.897   4.211   7.554 -0.0590 -0.2903  0.4127
  967MOL0     C33321   2.884   4.191   7.704 -0.0188  0.3114  0.2993
  967MOL0     C33322   2.934   4.050   7.750 -0.0815  0.0458  0.5820
  967MOL0     C33323   3.083   4.014   7.716  0.2339 -0.2925 -0.0537
  967MOL0     C33324   3.182   4.090   7.804 -0.0227 -0.8863 -0.4059
  967MOL0     N33325   3.316   4.039   7.766  0.1146  0.3130  0.2174
  967MOL0     C33326   3.377   4.063   7.645  0.1450 -0.3928 -0.3770
  967MOL0     C33327   3.505   4.031   7.665 -0.2412  0.6109  0.0257
  967MOL0     C33328   3.607   4.056   7.558 -0.6125 -0.5096 -0.7163
  967MOL0     C33329   3.651   3.917   7.497 -0.4085 -0.4735 -0.0318
  967MOL0     C33330   3.534   3.838   7.434  0.6414 -0.2798  0.4931
  967MOL0     C33331   3.589   3.701   7.373  0.5912  0.5049  0.5604
  967MOL0     O33332   3.486   3.632   7.289 -0.5025 -0.3058  0.4012
  967MOL0     C33333   3.525   3.551   7.177  0.1858 -0.6639  0.6981
  967MOL0     C33334   3.662   3.527   7.142  0.1224 -1.0463 -0.8043
  967MOL0     C33335   3.703   3.438   7.038  0.3476 -0.5421 -0.0099
  967MOL0     C33336   3.851   3.427   7.003 -0.7699  0.6408  0.5645
  967MOL0     C33337   3.603   3.377   6.960  0.4884 -0.8470  0.0326
  967MOL0     C33338   3.629   3.288   6.844 -0.1000 -0.0272  0.2871
  967MOL0     O33339   3.726   3.197   6.867  0.4244  0.2578  0.4137
  967MOL0     C33340   3.819   3.176   6.771  0.2047  0.6021  0.3855
  967MOL0     C33341   3.866   3.262   6.677  1.0495  0.8965  0.5452
  967MOL0     C33342   3.970   3.230   6.584 -0.0730  0.5057  0.7423
  967MOL0     C33343   4.014   3.100   6.574  0.0620  0.7259 -0.4894
  967MOL0     O33344   4.108   3.067   6.483 -0.6483 -0.2996  0.7297
  967MOL0     C33345   4.164   3.162   6.381  0.3144  1.0626 -0.2748
  967MOL0     C33346   4.076   3.186   6.264  0.1664 -0.1022 -0.4931
  967MOL0     C33347   4.014   3.057   6.210  0.2721 -0.2025  0.3484
  967MOL0     C33348   4.072   3.011   6.072 -0.3987  0.2451  1.4294
  967MOL0     C33349   3.995   2.887   6.026 -1.2319  0.0228 -0.3557
  967MOL0     C33350   4.045   2.838   5.890 -0.0882  0.6943  0.0242
  967MOL0     C33351   3.946   2.732   5.822 -0.0784 -0.4523  0.5403
  967MOL0     C33352   3.993   2.672   5.688  0.5905 -0.4946  0.0895
  967MOL0    Cl33353   4.024   2.807   5.568 -0.2899  0.0776  0.0789
  967MOL0     C33354   3.960   3.006   6.661  0.1639 -0.1963  0.4946
  967MOL0     C33355   3.869   3.045   6.758 -0.3283 -0.3706 -0.2078
  967MOL0     O33356   3.551   3.294   6.750 -0.0380  0.9648 -0.0077
  967MOL0     C33357   3.463   3.404   6.996  0.3503 -0.2793 -0.0178
  967MOL0     C33358   3.424   3.492   7.104 -1.0132  0.0911  0.4350
  967MOL0     N33359   3.518   3.979   7.790  0.9646  0.4347  0.1126
  967MOL0     N33360   3.406   3.986   7.851  1.1039 -0.2873  0.1682
  967MOL0     C33361   2.467   4.481   7.128 -0.1526  0.1714 -0.7519
  967MOL0     C33362   2.351   4.529   7.054 -0.1805 -0.6189 -0.0380
  967MOL0     C33363   2.064   4.588   6.722 -0.1741  0.2926 -0.6273
  967MOL0     C33364   1.929   4.540   6.731  0.7744  0.3738  0.1351
  967MOL0     C33365   1.821   4.578   6.638 -0.3149 -1.1580  0.1300
  967MOL0     C33366   1.863   4.662   6.541 -0.0044  0.6719 -0.0926
  967MOL0     O33367   1.778   4.718   6.448  0.0549  0.4351  0.1154
  967MOL0     C33368   1.633   4.689   6.458 -0.6084 -0.3443  0.3121
  967MOL0     C33369   1.578   4.747   6.328 -0.3391  0.4605  0.3651
  967MOL0     C33370   1.436   4.691   6.297 -0.0738 -0.1760 -0.0794
  967MOL0     C33371   1.403   4.716   6.153 -0.7414 -0.1033  0.4575
  967MOL0     C33372   1.330   4.842   6.125  0.2612  0.7214  0.2482
  967MOL0     C33373   1.266   4.939   6.098  0.0670 -0.2443 -1.2617
  967MOL0     C33374   1.995   4.706   6.529 -0.1935  0.5055 -0.6859
  967MOL0     C33375   2.096   4.684   6.622 -0.3874 -0.1029  0.0251
  967MOL0     C33376   2.229   4.750   6.587 -0.1503  0.6153 -0.7828
  967MOL0     H33377   2.523   4.548   6.756 -1.6703 -1.5707  0.0844
  967MOL0     H33378   2.688   4.438   6.885  0.5349  1.2020 -0.3932
  967MOL0     H33379   2.635   4.294   7.315 -0.0215 -0.0700 -0.2911
  967MOL0     H33380   2.642   4.471   7.337 -0.6825 -0.2625  0.1656
  967MOL0     H33381   2.878   4.283   7.311 -0.8203  1.1189 -2.6845
  967MOL0     H33382   2.886   4.453   7.337 -2.1732  1.4481 -0.3197
  967MOL0     H33383   2.871   4.424   7.579  2.6335  1.4253 -2.4477
  967MOL0     H33384   2.721   4.324   7.550  0.8643 -1.5591 -0.3517
  967MOL0     H33385   2.859   4.129   7.492  0.0650 -1.2875  1.6206
  967MOL0     H33386   3.001   4.223   7.524 -0.7246  1.3533 -1.4536
  967MOL0     H33387   2.780   4.210   7.730  0.1100  2.9970 -0.7766
  967MOL0     H33388   2.947   4.265   7.756  0.3959  1.0705 -1.2243
  967MOL0     H33389   2.924   4.031   7.858  0.4852 -0.7847  0.5006
  967MOL0     H33390   2.868   3.975   7.705 -1.2790  0.2299  1.9360
  967MOL0     H33391   3.108   4.019   7.609 -1.6428 -0.9297 -0.5541
  967MOL0     H33392   3.104   3.909   7.738  1.7035 -0.5486 -2.3225
  967MOL0     H33393   3.171   4.194   7.772  0.2027 -1.0059 -0.8701
  967MOL0     H33394   3.146   4.063   7.904 -1.7597 -2.3038 -1.3732
  967MOL0     H33395   3.341   4.127   7.565  3.5296  1.3038 -0.7259
  967MOL0     H33396   3.687   4.107   7.613 -0.0839  1.2721 -2.9819
  967MOL0     H33397   3.563   4.112   7.475 -0.6181 -2.6363 -2.2236
  967MOL0     H33398   3.730   3.930   7.422  0.8157  0.0939  1.3038
  967MOL0     H33399   3.685   3.849   7.575  1.3132  0.7412  0.3222
  967MOL0     H33400   3.453   3.829   7.508  2.4214  1.4652  2.7950
  967MOL0     H33401   3.484   3.894   7.355  0.4624  0.4722  1.1323
  967MOL0     H33402   3.682   3.725   7.319  0.4865 -0.2035  0.0578
  967MOL0     H33403   3.621   3.641   7.458  1.8177  1.4936  0.8316
  967MOL0     H33404   3.742   3.573   7.198  0.2561 -1.9286 -0.2436
  967MOL0     H33405   3.898   3.522   7.029 -0.4866  0.6661 -0.0120
  967MOL0     H33406   3.859   3.439   6.894 -0.4221  2.0675  0.7193
  967MOL0     H33407   3.907   3.345   7.050 -0.2790 -0.3961 -1.6901
  967MOL0     H33408   3.817   3.359   6.673 -5.1644 -1.7225  0.5781
  967MOL0     H33409   4.004   3.297   6.505 -0.0545  0.5360  0.7757
  967MOL0     H33410   4.206   3.259   6.408 -2.2108  3.1496 -3.0931
  967MOL0     H33411   4.239   3.103   6.327 -3.3031 -3.7089 -0.7316
  967MOL0     H33412   4.010   3.270   6.287  0.9516  0.6232 -0.7749
  967MOL0     H33413   4.142   3.223   6.184  1.1784  0.8924  0.7568
  967MOL0     H33414   3.905   3.061   6.204  0.1639 -3.1977 -1.7905
  967MOL0     H33415   4.036   2.971   6.274  0.4427 -0.3862  0.0447
  967MOL0     H33416   4.181   3.000   6.082  0.2020  0.2031 -3.0808
  967MOL0     H33417   4.064   3.086   5.993 -3.1367 -2.3399 -0.9899
  967MOL0     H33418   4.002   2.809   6.102  1.0312 -0.3929 -0.8976
  967MOL0     H33419   3.895   2.921   5.997 -1.4410 -2.0255 -2.3830
  967MOL0     H33420   4.144   2.792   5.903 -0.7662 -0.8519 -0.0341
  967MOL0     H33421   4.057   2.912   5.811  2.4517  0.7801  0.3818
  967MOL0     H33422   3.847   2.778   5.816  1.1653  2.2070 -2.1435
  967MOL0     H33423   3.944   2.648   5.892 -1.0538  0.7795  2.0625
  967MOL0     H33424   3.921   2.599   5.650 -2.1494  1.6283  0.8913
  967MOL0     H33425   4.091   2.625   5.698  2.4172  2.4086 -2.2597
  967MOL0     H33426   3.988   2.904   6.637 -0.0046 -0.1712  0.1961
  967MOL0     H33427   3.817   2.967   6.814 -1.0698 -1.6816 -2.5957
  967MOL0     H33428   3.397   3.350   6.928 -0.2956 -0.7117  0.9273
  967MOL0     H33429   3.321   3.484   7.136 -0.0557 -0.6034  3.6848
  967MOL0     H33430   2.457   4.485   7.236  0.8593  1.4839 -0.6822
  967MOL0     H33431   2.254   4.554   7.095  0.5289 -0.7503  1.7844
  967MOL0     H33432   1.899   4.462   6.800 -2.9408  0.9359 -0.6810
  967MOL0     H33433   1.719   4.548   6.657 -0.4588  0.1033  1.5604
  967MOL0     H33434   1.623   4.580   6.462  0.2439 -0.4265  0.4575
  967MOL0     H33435   1.586   4.729   6.549 -0.0465 -1.6671  1.2214
  967MOL0     H33436   1.639   4.708   6.246  0.7062  2.9097 -0.0907
  967MOL0     H33437   1.588   4.855   6.320  1.5897  0.1717 -2.4796
  967MOL0     H33438   1.429   4.586   6.328 -1.3717 -0.2627 -0.6236
  967MOL0     H33439   1.363   4.743   6.359 -0.4183  0.5433 -1.0578
  967MOL0     H33440   1.337   4.636   6.117 -0.5608  0.0801 -0.3108
  967MOL0     H33441   1.495   4.706   6.094 -0.3131  2.7514  0.5021
  967MOL0     H33442   1.218   5.035   6.092  1.6626  1.0472  2.6611
  967MOL0     H33443   2.016   4.782   6.454 -0.8013  0.1595 -1.2211
  967MOL0     H33444   2.229   4.778   6.481  2.4966  0.1798 -0.9722
  967MOL0     H33445   2.244   4.840   6.647 -1.1958 -1.2818  2.6363
  967MOL0     H33446   2.318   4.686   6.595 -1.9155 -1.8870 -0.0331
  968MOL0     O33447  10.840   7.941   3.668  0.0803  0.0593  0.1131
  968MOL0     C33448  10.877   7.851   3.732 -0.2588  0.4447  0.7556
  968MOL0     O33449  11.009   7.820   3.751 -0.3296 -0.2344  0.2442
  968MOL0     C33450  11.120   7.890   3.715  0.0617 -0.5894  0.2377
  968MOL0     C33451  11.242   7.834   3.730 -0.6702  0.5965 -0.5036
  968MOL0     C33452  11.362   7.891   3.692 -0.1185 -0.3544 -0.2186
  968MOL0     C33453  11.367   8.019   3.635  0.4273 -0.1306  0.7049
  968MOL0     O33454  11.490   8.070   3.611  0.1062  0.3872  0.0567
  968MOL0     C33455  11.495   8.186   3.529 -0.0446  0.1992 -0.0825
  968MOL0     C33456  11.641   8.218   3.486 -0.7264  0.0218  0.5841
  968MOL0     C33457  11.658   8.345   3.407  0.2218 -0.0063  0.3521
  968MOL0     C33458  11.624   8.340   3.260 -0.4437  1.0815  0.4369
  968MOL0     C33459  11.677   8.468   3.189  0.1120 -0.5348 -0.3525
  968MOL0     C33460  11.626   8.467   3.046 -0.2451  0.0562 -0.5312
  968MOL0     C33461  11.661   8.603   2.974  0.2738  0.1382 -0.6443
  968MOL0     C33462  11.803   8.631   2.963  0.1650  0.9207 -0.4095
  968MOL0     N33463  11.883   8.524   2.902 -0.7513  0.2074 -0.1301
  968MOL0     C33464  11.991   8.445   2.954  0.2223  0.3960 -0.3817
  968MOL0     C33465  12.019   8.360   2.854  0.0883 -0.3126 -0.2252
  968MOL0     C33466  12.126   8.251   2.860 -0.3332 -0.0758  0.2677
  968MOL0     C33467  12.103   8.121   2.942  0.8020  0.2290  0.6488
  968MOL0     C33468  12.028   8.009   2.867 -0.0532  0.8006 -0.0227
  968MOL0     C33469  11.979   7.888   2.945 -0.3728 -0.1830 -0.9556
  968MOL0     O33470  11.892   7.931   3.050 -0.3419  0.6958  0.4276
  968MOL0     C33471  11.809   7.830   3.111  0.3017  0.3189  0.4427
  968MOL0     C33472  11.701   7.875   3.186 -0.8421 -1.0388 -0.2262
  968MOL0     C33473  11.604   7.793   3.237  0.3525 -0.8109  0.0154
  968MOL0     C33474  11.484   7.864   3.289 -0.0862 -0.6739  0.4944
  968MOL0     C33475  11.622   7.653   3.229 -0.8274  0.2391 -0.5035
  968MOL0     C33476  11.516   7.558   3.277 -0.5016  0.2475  0.8483
  968MOL0     O33477  11.444   7.592   3.374 -0.3174 -0.1188 -0.2646
  968MOL0     C33478  11.352   7.514   3.433  0.7096 -0.4003  0.8532
  968MOL0     C33479  11.267   7.419   3.373 -0.1725  0.1710 -0.1445
  968MOL0     C33480  11.182   7.336   3.445 -0.1083 -0.4117  0.2116
  968MOL0     C33481  11.168   7.355   3.579  0.3000 -1.1939  0.5899
  968MOL0     O33482  11.078   7.290   3.655  0.2866  0.2319  0.1071
  968MOL0     C33483  10.959   7.215   3.604  0.6227  0.5638  0.8422
  968MOL0     C33484  10.843   7.228   3.707 -0.2349  0.2289  0.7443
  968MOL0     C33485  10.749   7.108   3.712 -0.1752  1.0619  0.0543
  968MOL0     C33486  10.700   7.055   3.573 -0.1180 -1.4072 -0.3734
  968MOL0     C33487  10.619   6.927   3.587 -0.2896 -0.0335 -0.5109
  968MOL0     C33488  10.596   6.860   3.450 -0.6985 -0.2570  0.3837
  968MOL0     C33489  10.516   6.733   3.461  0.3890 -0.5143  0.0697
  968MOL0     C33490  10.555   6.626   3.356 -0.2508  0.1973  0.2605
  968MOL0    Cl33491  10.556   6.683   3.186 -0.4705 -0.1561 -0.6551
  968MOL0     C33492  11.238   7.459   3.639  1.0024  0.1344  0.3670
  968MOL0     C33493  11.334   7.530   3.573  0.4475  0.5328  0.0032
  968MOL0     O33494  11.511   7.448   3.223  0.2139  0.1328 -0.3915
  968MOL0     C33495  11.739   7.610   3.162 -0.3522  0.0761  0.2114
  968MOL0     C33496  11.835   7.701   3.107  0.4261  0.3451  0.0316
  968MOL0     N33497  11.934   8.380   2.748 -0.5224 -0.0994 -0.4733
  968MOL0     N33498  11.854   8.471   2.775  0.4619  0.2086  0.0971
  968MOL0     C33499  11.249   8.089   3.628  0.0176 -0.6168  0.0176
  968MOL0     C33500  11.128   8.025   3.665 -0.0016 -0.8677  0.2974
  968MOL0     C33501  10.775   7.763   3.798  0.1247 -1.9226 -0.0255
  968MOL0     C33502  10.642   7.808   3.805  0.5616  0.0522 -0.8098
  968MOL0     C33503  10.546   7.723   3.853 -0.9617 -0.3338  0.1774
  968MOL0     C33504  10.572   7.586   3.891  0.1215 -1.0034  0.3662
  968MOL0     O33505  10.456   7.509   3.914 -0.1487 -0.4252 -0.6145
  968MOL0     C33506  10.477   7.375   3.955 -0.7112 -0.2384  0.5340
  968MOL0     C33507  10.526   7.353   4.099 -0.4344  0.0837 -0.0912
  968MOL0     C33508  10.597   7.214   4.113 -0.6894  0.6654 -0.5770
  968MOL0     C33509  10.496   7.100   4.084  0.4620 -0.3546 -0.0880
  968MOL0     C33510  10.572   6.976   4.081 -0.8454  0.0019  0.3179
  968MOL0     C33511  10.639   6.876   4.091  0.8424 -0.0629 -0.1293
  968MOL0     C33512  10.701   7.555   3.904 -0.1323  0.4811  0.0121
  968MOL0     C33513  10.802   7.638   3.857 -0.3890  0.3607  0.8458
  968MOL0     C33514  10.936   7.578   3.854 -0.0684  0.4171  0.1695
  968MOL0     H33515  11.240   7.735   3.775  0.0527  0.0074 -1.6953
  968MOL0     H33516  11.457   7.845   3.717  0.3850  1.4797  1.4602
  968MOL0     H33517  11.447   8.274   3.572  1.6005  1.0675  0.0421
  968MOL0     H33518  11.434   8.163   3.441 -0.0190 -0.6478  0.1144
  968MOL0     H33519  11.698   8.203   3.579  1.3009 -0.4031 -0.6492
  968MOL0     H33520  11.665   8.141   3.412 -0.9821  2.7737 -2.6086
  968MOL0     H33521  11.588   8.417   3.450 -1.9202  0.3714 -3.4075
  968MOL0     H33522  11.761   8.378   3.421  0.0325  0.6095  0.3410
  968MOL0     H33523  11.671   8.252   3.216 -3.1229  0.2343 -0.9914
  968MOL0     H33524  11.517   8.322   3.246 -0.2091 -2.0219  1.8798
  968MOL0     H33525  11.785   8.457   3.198  0.1300  0.5048  1.0137
  968MOL0     H33526  11.644   8.564   3.231  3.2928  1.1704 -1.4538
  968MOL0     H33527  11.670   8.392   2.980  0.8807  3.8570 -4.5997
  968MOL0     H33528  11.519   8.448   3.057 -0.2569 -1.9888 -3.1062
  968MOL0     H33529  11.612   8.688   3.024  0.2280  1.7309 -3.2403
  968MOL0     H33530  11.610   8.593   2.878 -1.5144  0.3623  0.2297
  968MOL0     H33531  11.804   8.709   2.886  0.3683 -0.1396 -1.5104
  968MOL0     H33532  11.843   8.664   3.060 -0.8335 -0.2475  0.4278
  968MOL0     H33533  12.042   8.449   3.049  0.7385  0.2216 -0.6482
  968MOL0     H33534  12.215   8.295   2.906  0.2981 -1.8638  0.8294
  968MOL0     H33535  12.153   8.225   2.758 -2.2998 -0.0285 -0.3043
  968MOL0     H33536  12.199   8.087   2.982 -0.4663 -3.0833  1.2548
  968MOL0     H33537  12.046   8.162   3.026  0.1037  1.7680 -0.5271
  968MOL0     H33538  11.939   8.052   2.819  0.0829 -0.3327 -1.3616
  968MOL0     H33539  12.092   7.965   2.790  0.9513  2.5573 -0.2415
  968MOL0     H33540  11.923   7.822   2.879 -0.1803 -0.5203 -0.7829
  968MOL0     H33541  12.061   7.832   2.990 -2.3224 -2.7785 -0.4322
  968MOL0     H33542  11.700   7.983   3.194 -0.3991 -1.1043  0.9051
  968MOL0     H33543  11.492   7.971   3.265  3.6816 -1.3885 -2.2432
  968MOL0     H33544  11.489   7.856   3.398  0.3721  3.9483  1.0165
  968MOL0     H33545  11.393   7.818   3.250 -2.3476  1.5537  2.7028
  968MOL0     H33546  11.270   7.420   3.264  1.1449  0.2472 -0.1269
  968MOL0     H33547  11.111   7.269   3.398 -2.2021  0.6084  1.7363
  968MOL0     H33548  10.932   7.246   3.502 -0.5807  0.1795  1.0204
  968MOL0     H33549  10.989   7.110   3.598 -0.3323  0.0071  3.8497
  968MOL0     H33550  10.878   7.230   3.810 -1.9655 -2.2717  1.4974
  968MOL0     H33551  10.787   7.318   3.681  4.2340  3.1634  0.3355
  968MOL0     H33552  10.660   7.132   3.771 -0.0675 -3.3634  2.4798
  968MOL0     H33553  10.795   7.023   3.762  0.1552  0.5560 -1.0691
  968MOL0     H33554  10.787   7.022   3.515  1.3242  1.4004  0.0408
  968MOL0     H33555  10.655   7.134   3.514  0.5320 -1.1616 -0.5492
  968MOL0     H33556  10.668   6.857   3.656  0.4311  1.4802  0.5696
  968MOL0     H33557  10.529   6.952   3.645  1.0127  0.9840  1.1955
  968MOL0     H33558  10.693   6.836   3.405 -1.8714 -1.4878 -1.6487
  968MOL0     H33559  10.544   6.925   3.379 -1.0568 -2.9328 -1.9962
  968MOL0     H33560  10.413   6.769   3.458  1.3698  2.9619  2.2878
  968MOL0     H33561  10.542   6.697   3.561 -1.1908  0.0579  0.7133
  968MOL0     H33562  10.484   6.542   3.353 -1.3447  1.0637  1.1395
  968MOL0     H33563  10.653   6.581   3.375 -0.7154 -1.3806 -0.8632
  968MOL0     H33564  11.223   7.473   3.745 -2.5412  3.7856 -0.3739
  968MOL0     H33565  11.397   7.599   3.629 -0.3796  0.6262  0.8505
  968MOL0     H33566  11.740   7.502   3.163 -5.9603 -0.2701  1.8661
  968MOL0     H33567  11.927   7.657   3.068 -0.2649 -0.5505 -0.6348
  968MOL0     H33568  11.250   8.188   3.584 -0.4533 -0.8332 -0.4967
  968MOL0     H33569  11.040   8.088   3.659  1.3182  1.6585  3.8231
  968MOL0     H33570  10.611   7.905   3.768 -1.6350  0.3912  1.7062
  968MOL0     H33571  10.441   7.739   3.833 -1.1944 -1.3659  0.4939
  968MOL0     H33572  10.384   7.319   3.943  0.8486 -2.7218 -1.0552
  968MOL0     H33573  10.537   7.321   3.881  0.0664  0.4178  0.6583
  968MOL0     H33574  10.450   7.369   4.176  1.0558 -0.0537  1.4639
  968MOL0     H33575  10.603   7.429   4.114 -0.3655  0.4068 -1.8404
  968MOL0     H33576  10.681   7.214   4.043 -0.8076  1.6704 -0.7246
  968MOL0     H33577  10.639   7.197   4.212 -0.5680 -2.9867 -1.1086
  968MOL0     H33578  10.457   7.117   3.983  0.5708  0.7350  0.0333
  968MOL0     H33579  10.418   7.106   4.159 -1.5146 -0.5482 -2.0300
  968MOL0     H33580  10.689   6.781   4.101  0.9009  0.0419  0.6132
  968MOL0     H33581  10.732   7.460   3.947 -0.6241  1.1338  1.9342
  968MOL0     H33582  10.977   7.595   3.754 -0.6224  2.4310  0.2546
  968MOL0     H33583  10.992   7.633   3.930  0.2192  1.5669 -0.8435
  968MOL0     H33584  10.937   7.474   3.887  0.6252  0.2819 -0.2634
  969MOL0     O33585   4.716   1.174   2.316 -0.3399  0.0619  0.5239
  969MOL0     C33586   4.679   1.098   2.226  0.6527 -0.1218 -0.2081
  969MOL0     O33587   4.729   0.973   2.203 -0.1813  0.1667  0.4295
  969MOL0     C33588   4.804   0.910   2.299 -0.0340  0.3519 -0.7851
  969MOL0     C33589   4.784   0.917   2.435  0.7459  0.0636 -0.5038
  969MOL0     C33590   4.867   0.853   2.524  0.5734  0.4441  0.5805
  969MOL0     C33591   4.956   0.757   2.483  1.0843 -0.5127 -0.2475
  969MOL0     O33592   5.035   0.686   2.564  0.3483 -0.2174 -0.0653
  969MOL0     C33593   5.034   0.727   2.707  0.1123 -0.8636  0.1413
  969MOL0     C33594   5.150   0.664   2.771 -0.0600 -0.1697  0.2576
  969MOL0     C33595   5.276   0.699   2.697  0.6019 -0.0448  0.6894
  969MOL0     C33596   5.393   0.624   2.774  0.3379  0.5005  0.5908
  969MOL0     C33597   5.527   0.696   2.762  0.8083  0.1370  0.5154
  969MOL0     C33598   5.620   0.681   2.884  0.9668  0.5515 -0.9069
  969MOL0     C33599   5.759   0.735   2.857  0.1771 -0.0509 -0.5123
  969MOL0     C33600   5.867   0.706   2.959 -0.2799  0.0089 -0.2548
  969MOL0     N33601   5.823   0.754   3.091 -0.5317 -0.4647  0.1387
  969MOL0     C33602   5.891   0.853   3.156 -0.2122 -0.1717  0.9260
  969MOL0     C33603   5.831   0.867   3.275 -0.3802 -0.0588 -0.0927
  969MOL0     C33604   5.865   0.969   3.384 -0.0319 -0.4906  0.3433
  969MOL0     C33605   6.012   0.954   3.435  0.5945  0.4226 -0.2141
  969MOL0     C33606   6.056   1.061   3.536  0.0786 -0.5664 -0.2337
  969MOL0     C33607   6.186   1.024   3.607 -0.3274  0.0656 -0.3432
  969MOL0     O33608   6.284   1.008   3.508  0.0023  0.0440  0.5046
  969MOL0     C33609   6.406   1.049   3.557  0.4749 -0.1759  0.2921
  969MOL0     C33610   6.460   1.162   3.489  0.7780  0.2424 -0.8257
  969MOL0     C33611   6.594   1.200   3.505 -0.0048  0.3901  0.2914
  969MOL0     C33612   6.656   1.315   3.427 -0.1792 -0.2177 -0.6041
  969MOL0     C33613   6.665   1.126   3.595  0.6481  0.6664  0.4120
  969MOL0     C33614   6.813   1.129   3.620  0.0730 -0.6310  0.1627
  969MOL0     O33615   6.867   1.258   3.632  0.5040  0.0922 -0.9009
  969MOL0     C33616   6.992   1.270   3.693 -0.9721 -0.8522 -0.0995
  969MOL0     C33617   7.014   1.223   3.820  0.4654  0.3162 -0.0516
  969MOL0     C33618   7.132   1.253   3.885 -0.5009 -0.1498 -0.1841
  969MOL0     C33619   7.239   1.313   3.821 -0.2402 -0.5289 -0.2723
  969MOL0     O33620   7.352   1.343   3.891 -0.1372  0.8743  0.4491
  969MOL0     C33621   7.407   1.239   3.977 -0.3477 -0.6368  1.0396
  969MOL0     C33622   7.557   1.277   3.983  0.6137 -0.6823 -0.5519
  969MOL0     C33623   7.632   1.232   4.109  0.1534 -0.8365 -0.1435
  969MOL0     C33624   7.746   1.338   4.134 -0.0659  0.2987 -0.1331
  969MOL0     C33625   7.837   1.265   4.232  0.0887  0.0379  0.0243
  969MOL0     C33626   7.933   1.371   4.290 -0.1684 -0.1992  0.5948
  969MOL0     C33627   8.032   1.420   4.188 -0.8900 -0.2706  0.9559
  969MOL0     C33628   8.135   1.522   4.230  0.0165 -0.0108  0.0488
  969MOL0    Cl33629   8.250   1.536   4.103 -0.3072 -0.1832 -0.5649
  969MOL0     C33630   7.215   1.354   3.687 -0.4393 -0.4041  0.3366
  969MOL0     C33631   7.096   1.336   3.622  0.3505  0.0123  0.3812
  969MOL0     O33632   6.881   1.022   3.624  0.4313 -0.5389  0.2573
  969MOL0     C33633   6.612   1.019   3.679 -0.1673  0.1100  0.0485
  969MOL0     C33634   6.483   0.978   3.658  0.1307  0.0460 -0.0790
  969MOL0     N33635   5.738   0.771   3.289  1.2601 -0.6061  0.1651
  969MOL0     N33636   5.731   0.703   3.179  0.7637 -1.0098  0.0064
  969MOL0     C33637   4.958   0.738   2.344  0.3071 -0.7065  0.8079
  969MOL0     C33638   4.889   0.814   2.255 -0.5408 -0.2185 -1.6869
  969MOL0     C33639   4.562   1.145   2.144  0.4185  0.2894  0.0255
  969MOL0     C33640   4.512   1.053   2.052  0.2911  0.1608  0.1654
  969MOL0     C33641   4.433   1.101   1.944  0.8044 -0.0818  0.6419
  969MOL0     C33642   4.378   1.224   1.939 -0.5718 -0.3736  0.3465
  969MOL0     O33643   4.288   1.262   1.847 -0.5176 -0.6873  0.2613
  969MOL0     C33644   4.203   1.162   1.794  0.1427  0.1139 -0.7303
  969MOL0     C33645   4.079   1.231   1.743  0.9042  0.2800  0.1519
  969MOL0     C33646   4.078   1.287   1.601  0.5849 -0.1911 -0.7241
  969MOL0     C33647   3.938   1.306   1.531 -0.5323 -0.1127 -0.3309
  969MOL0     C33648   3.860   1.388   1.617  0.3903  0.3508 -1.0898
  969MOL0     C33649   3.790   1.459   1.688 -0.4642 -0.2792 -0.5383
  969MOL0     C33650   4.412   1.314   2.042  1.2163 -0.1999 -1.0691
  969MOL0     C33651   4.503   1.279   2.138  0.3821  0.3921 -0.3170
  969MOL0     C33652   4.517   1.376   2.256 -0.3128  0.6858  0.4321
  969MOL0     H33653   4.707   0.984   2.469  0.0592 -0.0487 -1.7938
  969MOL0     H33654   4.855   0.876   2.629  1.5115 -0.6148  0.9346
  969MOL0     H33655   4.942   0.691   2.754 -0.7158  1.8856  0.7545
  969MOL0     H33656   5.044   0.835   2.716 -4.8706 -0.2617  0.8332
  969MOL0     H33657   5.159   0.703   2.872  1.9860 -0.6848  0.3232
  969MOL0     H33658   5.136   0.555   2.765  3.1667 -0.7015  0.7760
  969MOL0     H33659   5.262   0.673   2.592  1.3926  0.9124  0.3367
  969MOL0     H33660   5.297   0.806   2.713  0.3783 -0.0156  0.7978
  969MOL0     H33661   5.366   0.606   2.878 -0.5135  2.0944  0.6685
  969MOL0     H33662   5.414   0.529   2.724  1.4501  1.2827 -0.4924
  969MOL0     H33663   5.492   0.799   2.751 -2.3699 -0.6492  2.0999
  969MOL0     H33664   5.583   0.660   2.675  1.0107 -3.1277  1.8599
  969MOL0     H33665   5.577   0.721   2.976  1.3557 -1.0702  0.0189
  969MOL0     H33666   5.622   0.573   2.903  0.1550  0.6039 -0.4708
  969MOL0     H33667   5.750   0.844   2.847 -1.4042 -0.3491 -3.8862
  969MOL0     H33668   5.795   0.709   2.757 -1.4180  1.4404 -1.5359
  969MOL0     H33669   5.877   0.597   2.963 -0.9578 -0.0808 -0.7394
  969MOL0     H33670   5.965   0.746   2.931  0.7984 -2.4766 -0.2594
  969MOL0     H33671   5.979   0.908   3.121  1.6647 -1.6847  3.0054
  969MOL0     H33672   5.797   0.967   3.469 -0.5865  0.8818 -0.0431
  969MOL0     H33673   5.844   1.066   3.338  2.5967  0.7683  1.5533
  969MOL0     H33674   6.037   0.854   3.472 -0.3441  1.0437  2.2920
  969MOL0     H33675   6.074   0.958   3.345 -0.7956  4.5290 -1.2348
  969MOL0     H33676   6.056   1.162   3.494 -0.9749 -1.1346 -1.6898
  969MOL0     H33677   5.982   1.069   3.616  0.4154 -0.8802  0.1101
  969MOL0     H33678   6.212   1.084   3.695 -1.3313  3.7435 -2.3534
  969MOL0     H33679   6.173   0.925   3.652  0.2949 -1.6511 -3.6653
  969MOL0     H33680   6.397   1.210   3.415 -1.2366  0.2869  0.8084
  969MOL0     H33681   6.588   1.354   3.350 -0.8305  1.0366  0.5616
  969MOL0     H33682   6.748   1.288   3.376 -0.3769 -0.9913 -0.5737
  969MOL0     H33683   6.685   1.398   3.493 -0.5723 -0.4463 -0.1359
  969MOL0     H33684   6.933   1.172   3.870 -0.6808  0.6148 -1.5317
  969MOL0     H33685   7.148   1.212   3.985 -1.4066  0.6662  0.3238
  969MOL0     H33686   7.367   1.246   4.079  2.8182 -0.6525  2.4041
  969MOL0     H33687   7.402   1.134   3.949  1.4979 -0.7937  1.1360
  969MOL0     H33688   7.610   1.236   3.897  1.7798  0.4153 -0.3878
  969MOL0     H33689   7.560   1.386   3.978 -0.7952 -0.5975 -0.1215
  969MOL0     H33690   7.677   1.133   4.101  0.8733 -0.3829 -2.6534
  969MOL0     H33691   7.559   1.241   4.190  0.1171 -2.0193 -0.0245
  969MOL0     H33692   7.695   1.422   4.182 -0.2259 -0.1971  0.5755
  969MOL0     H33693   7.796   1.362   4.039  1.7864  0.1124  0.7609
  969MOL0     H33694   7.789   1.215   4.317  1.8733  1.3591  1.9290
  969MOL0     H33695   7.902   1.196   4.179  2.8683  2.0918  0.5403
  969MOL0     H33696   7.992   1.320   4.367 -0.0208 -2.3147 -0.8452
  969MOL0     H33697   7.894   1.463   4.335  0.6094  1.0634 -1.2124
  969MOL0     H33698   7.978   1.466   4.105  0.2478  0.9279  0.8458
  969MOL0     H33699   8.096   1.339   4.152  0.1061  1.2179 -0.7941
  969MOL0     H33700   8.183   1.501   4.326  3.9067  0.5298 -1.6024
  969MOL0     H33701   8.081   1.617   4.231 -0.6771 -0.3347 -1.9959
  969MOL0     H33702   7.294   1.406   3.634 -1.4334  1.2649  0.4124
  969MOL0     H33703   7.087   1.372   3.520  0.2867 -1.7321 -0.2476
  969MOL0     H33704   6.665   0.968   3.758 -0.4910 -1.8717 -0.9519
  969MOL0     H33705   6.439   0.898   3.716 -1.2548  1.1091  0.3813
  969MOL0     H33706   5.014   0.654   2.305 -0.6812 -0.3409 -1.5310
  969MOL0     H33707   4.895   0.769   2.156  1.3874 -4.3789  0.0487
  969MOL0     H33708   4.556   0.954   2.057  0.6608  0.3265  0.1574
  969MOL0     H33709   4.417   1.037   1.858 -1.7594 -1.1403  1.7820
  969MOL0     H33710   4.255   1.107   1.715 -0.8294  0.6040 -1.7479
  969MOL0     H33711   4.172   1.084   1.864 -0.8956  1.8347  0.8130
  969MOL0     H33712   4.053   1.305   1.820  3.2435 -1.9503  3.3785
  969MOL0     H33713   4.000   1.156   1.740  0.1801  0.9894  0.8423
  969MOL0     H33714   4.130   1.384   1.603  2.5778 -1.2345  0.0904
  969MOL0     H33715   4.137   1.218   1.540  1.5576 -0.5073  0.5395
  969MOL0     H33716   3.892   1.208   1.514 -0.4485 -0.4637  1.3070
  969MOL0     H33717   3.945   1.355   1.434  2.8837  2.0417  0.8316
  969MOL0     H33718   3.749   1.524   1.763 -1.6601 -0.5905 -0.9059
  969MOL0     H33719   4.357   1.407   2.036 -1.1293 -1.5496 -1.6949
  969MOL0     H33720   4.441   1.454   2.256 -1.4434 -0.3823  0.1141
  969MOL0     H33721   4.501   1.335   2.357 -0.4433  4.1615  1.9554
  969MOL0     H33722   4.618   1.416   2.243  0.8346 -2.5525 -2.1394
  970MOL0     O33723   1.670   8.049   9.079  0.1024  0.1753  0.1227
  970MOL0     C33724   1.733   8.134   9.146  0.1327  0.9373  0.9178
  970MOL0     O33725   1.712   8.164   9.272  0.2843 -0.1402  0.4133
  970MOL0     C33726   1.639   8.085   9.357 -0.0692 -0.7179 -0.1512
  970MOL0     C33727   1.534   8.145   9.424 -0.4457 -0.1053 -0.0596
  970MOL0     C33728   1.454   8.073   9.514  0.8525 -0.7398  0.8048
  970MOL0     C33729   1.459   7.934   9.528  0.1308 -0.2486  0.3305
  970MOL0     O33730   1.359   7.862   9.600  0.3746  0.0124 -0.1375
  970MOL0     C33731   1.367   7.718   9.600 -0.0288  0.6299  0.6618
  970MOL0     C33732   1.254   7.663   9.684  0.1843  0.0077 -0.4009
  970MOL0     C33733   1.228   7.513   9.647 -0.5039  1.3728  0.5171
  970MOL0     C33734   1.106   7.445   9.705 -0.5941  0.3198  0.3059
  970MOL0     C33735   1.089   7.302   9.653  0.2289  0.6976  0.0091
  970MOL0     C33736   1.034   7.298   9.508  0.6807  1.0187 -0.6445
  970MOL0     C33737   1.048   7.142   9.464  0.9068  0.4797  1.5002
  970MOL0     C33738   1.188   7.105   9.402 -0.3797  0.7330  0.3103
  970MOL0     N33739   1.193   6.959   9.403 -0.0888 -0.7215  0.3706
  970MOL0     C33740   1.120   6.866   9.344 -0.8138 -0.4574  0.2416
  970MOL0     C33741   1.179   6.745   9.375 -0.0634 -0.3466 -0.4021
  970MOL0     C33742   1.145   6.606   9.344  0.3244 -0.6872 -0.4091
  970MOL0     C33743   1.147   6.508   9.469  0.5113 -0.2571 -0.0558
  970MOL0     C33744   1.137   6.361   9.431 -0.3268  0.3088 -1.0015
  970MOL0     C33745   1.175   6.274   9.548  0.0324 -0.9364 -0.2540
  970MOL0     O33746   1.316   6.274   9.565 -0.5369 -0.5755  0.1052
  970MOL0     C33747   1.363   6.187   9.666 -0.0138 -0.1481  0.2358
  970MOL0     C33748   1.285   6.141   9.771 -0.9415  0.3963  0.1538
  970MOL0     C33749   1.331   6.048   9.858  0.7236  0.0492  0.1227
  970MOL0     C33750   1.235   6.007   9.966 -0.3031  0.0309 -0.4207
  970MOL0     C33751   1.460   5.986   9.840 -0.3532  0.1687 -0.4946
  970MOL0     C33752   1.516   5.878   9.932  0.5108 -1.0064  0.6470
  970MOL0     O33753   1.432   5.785   9.965  0.2252 -0.1594 -0.0293
  970MOL0     C33754   1.464   5.684  10.051 -0.3908 -0.2396  0.1708
  970MOL0     C33755   1.391   5.664  10.159 -0.0055  1.2824 -0.7945
  970MOL0     C33756   1.430   5.561  10.257  0.7155 -0.1570 -0.1467
  970MOL0     C33757   1.542   5.481  10.244  0.4276  0.2280  0.8866
  970MOL0     O33758   1.580   5.369  10.315 -0.4506  0.2059  0.7009
  970MOL0     C33759   1.524   5.349  10.446 -0.6333  0.6774 -0.3285
  970MOL0     C33760   1.614   5.242  10.524 -0.7634  0.8404  0.3819
  970MOL0     C33761   1.735   5.322  10.568 -0.7230 -0.5433  0.0986
  970MOL0     C33762   1.866   5.246  10.559  0.0015 -0.2601 -0.3855
  970MOL0     C33763   1.982   5.312  10.630  0.0098 -0.9187 -0.7455
  970MOL0     C33764   2.115   5.237  10.612  0.6024 -0.2846 -0.0466
  970MOL0     C33765   2.229   5.287  10.701  0.1395  0.2873  0.5897
  970MOL0     C33766   2.236   5.435  10.680  0.8773  0.4990 -0.4693
  970MOL0    Cl33767   2.379   5.499  10.769  0.0575 -0.1377  0.0366
  970MOL0     C33768   1.616   5.509  10.128 -0.4648  0.7739 -0.8334
  970MOL0     C33769   1.576   5.604  10.030  0.3437 -0.0053 -0.6072
  970MOL0     O33770   1.636   5.886   9.962  0.0267 -0.3985 -0.0582
  970MOL0     C33771   1.536   6.031   9.729 -0.4177 -0.1802  0.0951
  970MOL0     C33772   1.492   6.135   9.644 -0.4849  0.6057  0.5436
  970MOL0     N33773   1.273   6.780   9.470 -0.0036 -0.1607 -0.7210
  970MOL0     N33774   1.276   6.901   9.495 -0.6467  0.3679  0.2568
  970MOL0     C33775   1.567   7.874   9.463  0.0607  0.6783 -0.1639
  970MOL0     C33776   1.657   7.948   9.381  0.2887  0.9700  0.4686
  970MOL0     C33777   1.809   8.235   9.063 -0.5395  0.1039 -0.0856
  970MOL0     C33778   1.880   8.182   8.953 -0.3993 -0.7758  0.0656
  970MOL0     C33779   1.962   8.257   8.869 -0.9319  0.1833 -0.1018
  970MOL0     C33780   1.986   8.393   8.898  0.2757 -0.3813 -0.5313
  970MOL0     O33781   2.079   8.455   8.816  0.3512  0.3341 -0.3620
  970MOL0     C33782   2.135   8.571   8.867 -1.1939  0.7931  0.9434
  970MOL0     C33783   2.241   8.645   8.783  0.8794 -1.0018 -0.3962
  970MOL0     C33784   2.285   8.774   8.852 -0.6997  0.5561 -0.3705
  970MOL0     C33785   2.380   8.857   8.763 -0.3428 -0.8797  0.0391
  970MOL0     C33786   2.374   8.992   8.820  0.1709 -0.0708 -0.4008
  970MOL0     C33787   2.375   9.103   8.871  0.2618  0.4111 -0.4660
  970MOL0     C33788   1.919   8.449   9.011 -0.1553  0.0718 -0.0169
  970MOL0     C33789   1.833   8.372   9.095  0.3218  0.9288 -0.2883
  970MOL0     C33790   1.761   8.444   9.205 -0.5869 -0.0117 -0.2799
  970MOL0     H33791   1.508   8.250   9.413 -1.4665 -0.3840 -0.4210
  970MOL0     H33792   1.378   8.138   9.557  1.5762  1.9299 -1.6806
  970MOL0     H33793   1.460   7.699   9.655 -0.5747  0.4816  1.5560
  970MOL0     H33794   1.380   7.673   9.501 -0.5197  4.4062 -1.2819
  970MOL0     H33795   1.272   7.683   9.790  2.0596 -1.2358 -0.4337
  970MOL0     H33796   1.166   7.723   9.657 -0.8557 -1.2160  0.1834
  970MOL0     H33797   1.241   7.496   9.540 -0.0519  0.9013  0.6462
  970MOL0     H33798   1.315   7.466   9.694 -0.4811 -1.8607 -2.3555
  970MOL0     H33799   1.115   7.447   9.814  2.4194 -1.5508  0.2258
  970MOL0     H33800   1.016   7.498   9.675 -2.0318 -0.5342  2.8560
  970MOL0     H33801   1.013   7.259   9.719  3.3929  0.2599  3.7356
  970MOL0     H33802   1.182   7.247   9.671 -0.3907 -1.7600 -3.3200
  970MOL0     H33803   0.929   7.327   9.495 -0.4364 -0.7933  3.0088
  970MOL0     H33804   1.098   7.369   9.454  2.5749  0.2342  0.4739
  970MOL0     H33805   0.963   7.108   9.405  0.5288 -2.5007  3.5618
  970MOL0     H33806   1.029   7.075   9.547 -4.0078  0.1809  0.3958
  970MOL0     H33807   1.197   7.155   9.305 -0.9698  1.1982  0.4874
  970MOL0     H33808   1.270   7.153   9.455 -0.2474  0.6265  0.2009
  970MOL0     H33809   1.037   6.890   9.277  0.0396 -2.6557 -1.7524
  970MOL0     H33810   1.229   6.567   9.286  1.4048  0.7349  0.1547
  970MOL0     H33811   1.048   6.608   9.294  0.6005 -0.6123 -0.9394
  970MOL0     H33812   1.241   6.532   9.519 -0.6585  3.0842  0.8392
  970MOL0     H33813   1.068   6.536   9.539 -0.7742 -2.7125 -0.4319
  970MOL0     H33814   1.034   6.341   9.400 -1.4262  1.5204  1.5537
  970MOL0     H33815   1.205   6.332   9.351 -0.8395  0.3220 -1.4470
  970MOL0     H33816   1.125   6.319   9.635  1.9275 -0.4786  0.6388
  970MOL0     H33817   1.132   6.174   9.536  2.9730 -2.5441  1.4806
  970MOL0     H33818   1.181   6.170   9.777 -0.7750  1.2363 -0.7015
  970MOL0     H33819   1.285   6.007  10.063 -0.8908  0.5880 -0.1032
  970MOL0     H33820   1.201   5.903   9.963 -2.0652  0.5455  0.5183
  970MOL0     H33821   1.152   6.078   9.966 -0.5763 -0.2833 -0.6708
  970MOL0     H33822   1.304   5.724  10.182 -1.4509 -1.3706  1.2762
  970MOL0     H33823   1.357   5.530  10.332 -1.0135 -2.8935 -2.7556
  970MOL0     H33824   1.528   5.438  10.510  0.7588 -0.4942  1.3121
  970MOL0     H33825   1.425   5.307  10.426 -0.2364 -0.1781 -0.5457
  970MOL0     H33826   1.571   5.203  10.616 -1.9652  0.8006 -0.1773
  970MOL0     H33827   1.638   5.158  10.459 -0.6714  2.3657 -1.6715
  970MOL0     H33828   1.723   5.333  10.676  1.7802 -4.7305  1.0532
  970MOL0     H33829   1.743   5.419  10.519 -2.1249 -0.2423  0.4313
  970MOL0     H33830   1.897   5.239  10.454  0.6759 -2.2284 -0.1087
  970MOL0     H33831   1.839   5.144  10.590 -2.4114  0.6263  0.6023
  970MOL0     H33832   1.996   5.414  10.592  0.3774 -1.6016 -2.5447
  970MOL0     H33833   1.954   5.308  10.736  1.9032 -0.1674 -0.1718
  970MOL0     H33834   2.147   5.237  10.508  0.5683 -0.5006 -0.0579
  970MOL0     H33835   2.106   5.134  10.648  2.6735 -0.9717 -1.3588
  970MOL0     H33836   2.331   5.251  10.686  1.2261  3.5112 -0.5075
  970MOL0     H33837   2.206   5.263  10.805 -0.1051  0.1041  0.4938
  970MOL0     H33838   2.145   5.479  10.722 -1.1164 -1.4953 -2.4163
  970MOL0     H33839   2.244   5.474  10.578  1.3603  1.5904 -0.0363
  970MOL0     H33840   1.702   5.444  10.115  0.0125  0.8611  1.4354
  970MOL0     H33841   1.638   5.633   9.946 -0.6020  0.0218 -1.3068
  970MOL0     H33842   1.640   6.002   9.728 -0.3095  0.1261 -1.8113
  970MOL0     H33843   1.546   6.178   9.560 -1.7101 -0.0647 -0.6242
  970MOL0     H33844   1.586   7.769   9.483  1.1002  1.0066  0.6859
  970MOL0     H33845   1.738   7.905   9.323  1.1254 -1.1689  3.0284
  970MOL0     H33846   1.876   8.075   8.934 -0.1333 -0.5253 -1.5269
  970MOL0     H33847   2.000   8.203   8.783 -1.3963  1.2999 -1.0269
  970MOL0     H33848   2.055   8.645   8.880 -2.5647 -0.2039 -1.1301
  970MOL0     H33849   2.175   8.545   8.965 -1.3761 -1.2163  0.5334
  970MOL0     H33850   2.189   8.690   8.698  0.3963  4.3523  2.3269
  970MOL0     H33851   2.330   8.584   8.768  1.6877  0.0143  0.0984
  970MOL0     H33852   2.190   8.824   8.874 -0.0645  1.3817  0.5694
  970MOL0     H33853   2.336   8.759   8.948 -0.3528 -1.0964 -0.7722
  970MOL0     H33854   2.355   8.855   8.657 -2.0844 -0.5917  0.4040
  970MOL0     H33855   2.483   8.821   8.768  0.3233  0.5214 -2.0967
  970MOL0     H33856   2.378   9.193   8.929  1.0127  1.5067 -2.1229
  970MOL0     H33857   1.936   8.555   9.025  6.0740 -0.7246  1.7871
  970MOL0     H33858   1.804   8.416   9.302 -1.6907 -0.9271 -0.0236
  970MOL0     H33859   1.766   8.552   9.191  0.7132 -0.1680 -1.2220
  970MOL0     H33860   1.654   8.423   9.214  0.0391 -3.1432  1.0998
  971MOL0     O33861   7.785  10.040   4.896  0.1729  0.5957 -0.0792
  971MOL0     C33862   7.714  10.129   4.942  0.3819  0.1063  0.2833
  971MOL0     O33863   7.754  10.242   4.992  0.6909 -0.2693  0.9581
  971MOL0     C33864   7.878  10.272   4.962  0.6223 -0.1483  0.1544
  971MOL0     C33865   7.911  10.325   4.832 -0.2628 -0.3759 -0.3741
  971MOL0     C33866   8.043  10.368   4.815 -0.4300 -0.5865 -0.3286
  971MOL0     C33867   8.135  10.384   4.919 -0.4536 -0.2496  0.6512
  971MOL0     O33868   8.263  10.441   4.916  0.6401  0.2765  0.7460
  971MOL0     C33869   8.326  10.466   4.786 -0.3244  0.3098  0.5048
  971MOL0     C33870   8.281  10.599   4.734 -0.4595  0.3572  0.1490
  971MOL0     C33871   8.261  10.603   4.578 -0.0763 -0.0286  1.1704
  971MOL0     C33872   8.254  10.747   4.521 -0.4233  0.6038 -0.1013
  971MOL0     C33873   8.121  10.823   4.540 -0.2441  0.1151 -0.2859
  971MOL0     C33874   8.006  10.790   4.455  0.0745 -0.3626  0.0979
  971MOL0     C33875   7.910  10.911   4.456 -0.0329  0.4404 -0.6103
  971MOL0     C33876   7.867  10.964   4.589 -0.2296 -0.8805  0.5814
  971MOL0     N33877   7.758  10.891   4.659  0.2413  0.6181  0.0712
  971MOL0     C33878   7.770  10.771   4.718  0.7528 -0.2691  0.1820
  971MOL0     C33879   7.651  10.730   4.745  0.6000 -0.0865 -0.4914
  971MOL0     C33880   7.636  10.597   4.825  0.4062  0.1598 -1.1355
  971MOL0     C33881   7.595  10.623   4.976  0.3057 -0.0650  0.3199
  971MOL0     C33882   7.474  10.712   5.011  0.3338 -0.9679  0.6003
  971MOL0     C33883   7.351  10.695   4.918  0.3739 -0.6523 -0.2696
  971MOL0     O33884   7.253  10.621   4.989  0.8889  0.2362  0.4064
  971MOL0     C33885   7.140  10.585   4.915 -0.5449 -0.8556 -0.5770
  971MOL0     C33886   7.037  10.514   4.979  0.8222  0.0521  0.7301
  971MOL0     C33887   6.918  10.491   4.898 -1.0210  0.4769 -0.3088
  971MOL0     C33888   6.803  10.423   4.971 -0.8824  0.2623  0.3144
  971MOL0     C33889   6.912  10.520   4.760 -0.8591 -0.1672  0.3336
  971MOL0     C33890   6.797  10.479   4.685 -0.0752 -0.2206 -0.3701
  971MOL0     O33891   6.763  10.350   4.687 -0.0500 -0.1818 -0.1467
  971MOL0     C33892   6.669  10.296   4.605  0.7593 -0.0633 -0.0120
  971MOL0     C33893   6.597  10.182   4.644 -0.7087  0.2309 -0.3944
  971MOL0     C33894   6.518  10.121   4.558  0.8732 -0.3618  0.6634
  971MOL0     C33895   6.492  10.180   4.426  0.5185  0.4971 -0.9468
  971MOL0     O33896   6.404  10.113   4.344  0.1321  0.8853 -0.3929
  971MOL0     C33897   6.302  10.020   4.394  0.6336 -0.0812  0.2003
  971MOL0     C33898   6.185  10.026   4.296  0.1108  0.0222 -0.4469
  971MOL0     C33899   6.092   9.909   4.308  1.1050  1.0401  0.5870
  971MOL0     C33900   5.993   9.926   4.423  0.5835  1.2857 -0.3547
  971MOL0     C33901   5.901   9.803   4.443 -0.1539  0.5510 -0.8313
  971MOL0     C33902   5.977   9.681   4.485  0.7124  0.6463  1.2131
  971MOL0     C33903   5.896   9.550   4.474 -0.4347  0.2406 -0.2511
  971MOL0     C33904   5.796   9.527   4.590  0.0110  0.5976  0.0902
  971MOL0    Cl33905   5.869   9.544   4.753 -0.0939  0.2993  0.2909
  971MOL0     C33906   6.568  10.289   4.377 -0.7553 -0.0235  0.4324
  971MOL0     C33907   6.660  10.341   4.468  0.2895  0.3528  0.8077
  971MOL0     O33908   6.748  10.561   4.617 -0.1618  0.3307 -0.4125
  971MOL0     C33909   7.012  10.594   4.706 -0.0531 -0.7007  0.2754
  971MOL0     C33910   7.130  10.625   4.780  0.1284  0.3759  0.2791
  971MOL0     N33911   7.559  10.821   4.708 -1.1532  0.5938 -0.1408
  971MOL0     N33912   7.623  10.926   4.652  0.0593  0.1498  0.4834
  971MOL0     C33913   8.099  10.332   5.044  0.5374 -0.0260  0.4212
  971MOL0     C33914   7.971  10.283   5.067 -0.0708 -0.2479  0.1321
  971MOL0     C33915   7.565  10.117   4.924  0.9755 -0.7202  0.0632
  971MOL0     C33916   7.491  10.234   4.919  0.2119 -0.6332 -0.3455
  971MOL0     C33917   7.356  10.239   4.895 -0.1801 -0.0510 -0.0923
  971MOL0     C33918   7.288  10.120   4.893 -0.9815 -0.0551 -0.3496
  971MOL0     O33919   7.144  10.113   4.909 -0.6891  0.0625 -0.3949
  971MOL0     C33920   7.073  10.144   4.787 -1.0188 -0.2528 -0.1144
  971MOL0     C33921   6.962  10.046   4.768  0.6408 -0.1306  0.0779
  971MOL0     C33922   7.017   9.898   4.738 -0.4119 -1.0363 -0.1989
  971MOL0     C33923   6.920   9.791   4.788 -0.1398 -0.4421 -0.2008
  971MOL0     C33924   6.806   9.764   4.697  0.5471  0.6268 -0.7558
  971MOL0     C33925   6.694   9.749   4.640  0.1918 -0.3928  0.2022
  971MOL0     C33926   7.359  10.000   4.907 -0.9217 -0.2242  0.1559
  971MOL0     C33927   7.499   9.996   4.912  0.4236  1.0727 -0.6934
  971MOL0     C33928   7.559   9.865   4.937  0.4375 -0.6979 -0.9961
  971MOL0     H33929   7.838  10.334   4.753 -1.2919  0.3015  0.6192
  971MOL0     H33930   8.060  10.404   4.714 -1.0234  1.4604  0.2569
  971MOL0     H33931   8.285  10.393   4.716 -0.1836  1.6050 -0.9917
  971MOL0     H33932   8.435  10.461   4.778 -0.4855 -1.4336 -1.4193
  971MOL0     H33933   8.185  10.617   4.784  0.7166 -2.0385  3.5792
  971MOL0     H33934   8.356  10.670   4.771  0.1046 -0.4290  0.5146
  971MOL0     H33935   8.346  10.549   4.537 -0.1547  0.8977 -0.2684
  971MOL0     H33936   8.167  10.556   4.547 -0.0522 -0.1777  1.3246
  971MOL0     H33937   8.342  10.800   4.558  1.5999 -0.8373 -2.5354
  971MOL0     H33938   8.272  10.729   4.415 -4.0000 -0.1349 -0.6964
  971MOL0     H33939   8.160  10.925   4.528  2.1907 -0.5439  1.2686
  971MOL0     H33940   8.107  10.823   4.648  1.0807 -1.0845 -0.0801
  971MOL0     H33941   8.028  10.767   4.350 -0.5008  2.1050 -0.6333
  971MOL0     H33942   7.958  10.703   4.500  1.2498 -0.7344  0.6837
  971MOL0     H33943   7.822  10.883   4.397  0.4775  0.8679 -1.5985
  971MOL0     H33944   7.972  10.983   4.402  0.0401  1.0720  0.3050
  971MOL0     H33945   7.952  10.971   4.658  1.5511 -1.2562 -1.4524
  971MOL0     H33946   7.832  11.066   4.572  2.1734  0.1071  1.0550
  971MOL0     H33947   7.858  10.716   4.750  0.3081  0.4869  2.9757
  971MOL0     H33948   7.728  10.539   4.831  0.5328  0.5002  1.1730
  971MOL0     H33949   7.556  10.536   4.782  1.3219 -3.6740  1.9780
  971MOL0     H33950   7.594  10.525   5.024  1.2864  0.3731  1.2762
  971MOL0     H33951   7.683  10.655   5.032  0.1859 -0.9628  1.0479
  971MOL0     H33952   7.441  10.708   5.115  1.1893  0.8683  0.9816
  971MOL0     H33953   7.501  10.817   4.997 -4.4346  0.4093 -0.0663
  971MOL0     H33954   7.300  10.789   4.896 -0.6304 -1.5839 -2.1350
  971MOL0     H33955   7.383  10.648   4.825  2.5059  2.5604 -1.3090
  971MOL0     H33956   7.025  10.471   5.078 -3.0778 -1.4745 -0.1976
  971MOL0     H33957   6.706  10.465   4.941 -0.5576  0.8408  0.0778
  971MOL0     H33958   6.815  10.414   5.080  1.3946 -3.2231 -0.0722
  971MOL0     H33959   6.792  10.319   4.939  1.4956 -0.3791  1.3954
  971MOL0     H33960   6.618  10.138   4.741 -1.2367  2.4626  0.7819
  971MOL0     H33961   6.472  10.023   4.572 -1.6351  0.6266 -0.0321
  971MOL0     H33962   6.331   9.914   4.391 -1.6480 -0.7503 -0.9453
  971MOL0     H33963   6.258  10.050   4.489 -2.8426 -2.9001 -0.2986
  971MOL0     H33964   6.138  10.124   4.313 -0.9139 -0.7640  1.4765
  971MOL0     H33965   6.218  10.038   4.192 -1.7116  1.9400 -0.8740
  971MOL0     H33966   6.148   9.815   4.300  0.0252  0.4164  0.0299
  971MOL0     H33967   6.034   9.917   4.216 -1.3874 -5.8954  0.9864
  971MOL0     H33968   5.933  10.018   4.416  1.3510  2.1376  2.7231
  971MOL0     H33969   6.052   9.933   4.515  0.0349 -0.8674  0.2001
  971MOL0     H33970   5.841   9.816   4.533 -1.2074  0.0763 -1.4354
  971MOL0     H33971   5.835   9.794   4.355  0.1358  0.8558 -1.0822
  971MOL0     H33972   6.028   9.693   4.581  2.2108 -0.4523  0.5890
  971MOL0     H33973   6.061   9.659   4.419 -0.6505 -1.0413 -0.0465
  971MOL0     H33974   5.967   9.467   4.481  1.4984  1.6319 -2.2246
  971MOL0     H33975   5.844   9.537   4.379  0.7083 -4.5516 -0.4793
  971MOL0     H33976   5.749   9.429   4.582  3.8541 -1.4023  0.1617
  971MOL0     H33977   5.719   9.606   4.586 -0.1320  0.4778  0.4231
  971MOL0     H33978   6.551  10.322   4.275  1.9798  1.3337  0.3296
  971MOL0     H33979   6.729  10.414   4.425 -0.3082  0.2615 -0.3381
  971MOL0     H33980   6.999  10.625   4.603 -0.1322  1.7934  0.9583
  971MOL0     H33981   7.204  10.689   4.734 -0.5898 -0.2470 -1.8748
  971MOL0     H33982   8.166  10.346   5.128  1.3087  1.3268 -0.3770
  971MOL0     H33983   7.942  10.250   5.167  1.4971 -2.5075 -0.0873
  971MOL0     H33984   7.531  10.334   4.931  1.9577 -1.4617  1.2186
  971MOL0     H33985   7.307  10.335   4.881 -0.8796 -0.4982 -0.8135
  971MOL0     H33986   7.035  10.247   4.788  2.3670  1.1244  1.5152
  971MOL0     H33987   7.147  10.151   4.706 -0.0687 -0.9056  0.6724
  971MOL0     H33988   6.905  10.069   4.678  0.2579 -2.5155 -0.3721
  971MOL0     H33989   6.885  10.055   4.845 -0.6886 -1.3033 -1.0503
  971MOL0     H33990   7.041   9.885   4.632  0.2884  2.2647 -0.5717
  971MOL0     H33991   7.104   9.876   4.801 -2.1584 -2.7903  1.7565
  971MOL0     H33992   6.881   9.808   4.889 -0.7269  0.7252 -0.6062
  971MOL0     H33993   6.969   9.693   4.790  2.0300  0.5398 -1.4296
  971MOL0     H33994   6.602   9.730   4.589  0.4071  0.0881 -0.3715
  971MOL0     H33995   7.301   9.910   4.918  0.2655 -0.9578  0.6068
  971MOL0     H33996   7.493   9.782   4.963  1.0933 -1.6589 -2.2586
  971MOL0     H33997   7.617   9.828   4.852 -0.4747 -3.5099 -0.5070
  971MOL0     H33998   7.628   9.881   5.021 -1.8611  0.3959  0.7792
  972MOL0     O33999   1.053   8.846  10.697 -0.6018 -0.1032 -0.2880
  972MOL0     C34000   1.098   8.780  10.790 -0.4010  0.3527  0.8900
  972MOL0     O34001   1.055   8.777  10.920 -0.1835 -0.9714 -0.3301
  972MOL0     C34002   0.933   8.816  10.959 -0.1450 -0.0927 -0.1170
  972MOL0     C34003   0.865   8.928  10.910  0.0586  0.4272 -0.3180
  972MOL0     C34004   0.735   8.964  10.953  0.1772  0.2339  1.0233
  972MOL0     C34005   0.661   8.878  11.041 -0.2413 -0.1141  0.4778
  972MOL0     O34006   0.528   8.876  11.076  0.5635  0.2448 -0.5695
  972MOL0     C34007   0.435   8.913  10.971  0.4438  0.7345 -1.1882
  972MOL0     C34008   0.295   8.955  11.013 -0.3571  0.2567 -0.3170
  972MOL0     C34009   0.286   9.075  11.107 -0.7578 -1.3124 -0.0515
  972MOL0     C34010   0.161   9.163  11.082  0.3630  0.2473  0.0158
  972MOL0     C34011   0.194   9.264  10.976  0.0679  0.4016 -0.4666
  972MOL0     C34012   0.069   9.350  10.938  0.5771 -0.1640  0.1241
  972MOL0     C34013  -0.060   9.269  10.891  0.2077  0.3683  0.0770
  972MOL0     C34014  -0.161   9.353  10.810 -0.3221 -0.1863 -0.9267
  972MOL0     N34015  -0.190   9.480  10.884 -0.6250 -0.5469  0.7638
  972MOL0     C34016  -0.264   9.481  10.999 -0.4889  0.0905  0.2338
  972MOL0     C34017  -0.217   9.588  11.067  1.0384  0.0855 -0.0406
  972MOL0     C34018  -0.263   9.627  11.205 -0.0760  0.7835 -0.2388
  972MOL0     C34019  -0.196   9.755  11.250 -0.2413 -0.1484  0.3476
  972MOL0     C34020  -0.233   9.785  11.396 -0.1304  0.4286  0.2419
  972MOL0     C34021  -0.166   9.905  11.464 -0.2242  0.1468  0.2364
  972MOL0     O34022  -0.040   9.925  11.405  0.1965 -0.8845 -0.5774
  972MOL0     C34023   0.054   9.986  11.485  0.3430  0.7063  0.2669
  972MOL0     C34024   0.026  10.082  11.580 -0.3131  0.7329 -0.4526
  972MOL0     C34025   0.126  10.126  11.665 -1.2742  0.9467 -0.2771
  972MOL0     C34026   0.078  10.205  11.783 -1.1447  0.7168  0.1546
  972MOL0     C34027   0.259  10.086  11.645 -0.1166  0.4912  0.5234
  972MOL0     C34028   0.373  10.138  11.713 -0.6662  0.4199  0.3102
  972MOL0     O34029   0.494  10.127  11.647  0.8416 -1.1985 -0.1476
  972MOL0     C34030   0.613  10.156  11.701 -0.7797  0.3706  0.4017
  972MOL0     C34031   0.656  10.142  11.827 -0.1782 -0.7973  0.0982
  972MOL0     C34032   0.796  10.157  11.859  0.5065  0.1188 -0.5488
  972MOL0     C34033   0.883  10.211  11.755  0.7261 -0.4868 -0.6200
  972MOL0     O34034   1.017  10.220  11.792 -0.2383  0.3718  0.5018
  972MOL0     C34035   1.113  10.201  11.692 -0.3949 -0.0600  1.0888
  972MOL0     C34036   1.243  10.198  11.772 -0.8897  0.2336 -0.0784
  972MOL0     C34037   1.352  10.160  11.672  0.7364 -0.8241  0.3030
  972MOL0     C34038   1.487  10.155  11.760  0.1395 -0.6954  0.6390
  972MOL0     C34039   1.599  10.127  11.658  0.0735  1.0262  0.7095
  972MOL0     C34040   1.727  10.118  11.739 -0.0964 -0.3005  0.1503
  972MOL0     C34041   1.843  10.174  11.657 -0.7837 -0.4713  1.3728
  972MOL0     C34042   1.977  10.110  11.686 -0.0251 -0.1067  0.3550
  972MOL0    Cl34043   2.120  10.189  11.608  0.0229  0.4685  0.1751
  972MOL0     C34044   0.835  10.233  11.630 -0.4488  0.1969  0.9365
  972MOL0     C34045   0.708  10.195  11.595  0.1742  0.0584 -0.6949
  972MOL0     O34046   0.361  10.198  11.823  0.2624  0.3188 -0.1380
  972MOL0     C34047   0.284   9.995  11.538 -0.4830  0.7442 -0.8110
  972MOL0     C34048   0.183   9.941  11.464  0.3553 -0.4457  0.8351
  972MOL0     N34049  -0.121   9.647  10.987 -0.5503 -0.1662 -0.5088
  972MOL0     N34050  -0.107   9.589  10.879 -0.1508  0.9941  0.0759
  972MOL0     C34051   0.733   8.767  11.092  0.4622  0.4587 -1.0400
  972MOL0     C34052   0.866   8.742  11.051  0.1152 -0.3316 -0.1308
  972MOL0     C34053   1.210   8.692  10.760 -0.3632 -0.6734  1.0268
  972MOL0     C34054   1.321   8.695  10.852  0.3429 -0.2040 -0.2140
  972MOL0     C34055   1.441   8.628  10.821  0.3854  0.1131  0.2874
  972MOL0     C34056   1.451   8.555  10.704 -0.3427  0.9596 -0.4015
  972MOL0     O34057   1.578   8.485  10.690  0.0543  0.0684 -0.2883
  972MOL0     C34058   1.591   8.401  10.580  0.0865  0.1553  0.1000
  972MOL0     C34059   1.538   8.267  10.604  0.5213 -0.1921  0.1323
  972MOL0     C34060   1.597   8.180  10.503  0.2647 -0.3989 -0.5472
  972MOL0     C34061   1.550   8.201  10.355 -0.4023 -0.2159 -0.4186
  972MOL0     C34062   1.440   8.103  10.326 -0.6454 -0.0207  0.2478
  972MOL0     C34063   1.341   8.036  10.313 -0.8026  0.7586  0.1254
  972MOL0     C34064   1.344   8.548  10.613 -0.0749  0.7292 -0.4977
  972MOL0     C34065   1.226   8.613  10.639 -0.3128  0.5492 -0.2358
  972MOL0     C34066   1.112   8.594  10.537 -0.9058  0.2844  1.0167
  972MOL0     H34067   0.910   8.995  10.838 -0.8552  0.5464 -0.7864
  972MOL0     H34068   0.693   9.055  10.914 -0.2257  0.3355  1.6772
  972MOL0     H34069   0.428   8.826  10.904 -0.3909  0.4101 -0.6945
  972MOL0     H34070   0.465   9.000  10.911  2.9146  1.0838  0.4268
  972MOL0     H34071   0.250   8.981  10.916  1.1911  3.6392 -0.2768
  972MOL0     H34072   0.238   8.874  11.059  0.0497  1.0146  1.6036
  972MOL0     H34073   0.271   9.039  11.209  0.9530 -0.4766  0.5445
  972MOL0     H34074   0.370   9.145  11.096 -2.4556  0.9702  0.6601
  972MOL0     H34075   0.076   9.100  11.054 -0.6886  0.1955  3.0414
  972MOL0     H34076   0.137   9.212  11.176  1.9522  2.5619 -0.6805
  972MOL0     H34077   0.236   9.218  10.886 -3.8789 -3.2009 -0.7834
  972MOL0     H34078   0.274   9.328  11.014 -0.0976  1.8882 -2.4789
  972MOL0     H34079   0.053   9.423  11.018  0.5510  1.4102 -1.2603
  972MOL0     H34080   0.087   9.412  10.850 -0.7191 -1.1816 -0.8958
  972MOL0     H34081  -0.110   9.226  10.978  0.7714  0.5117  0.4827
  972MOL0     H34082  -0.039   9.179  10.833 -0.8758 -1.5704  2.5152
  972MOL0     H34083  -0.112   9.383  10.717  0.7065  2.0338  0.2549
  972MOL0     H34084  -0.251   9.295  10.788  0.7083 -2.0131 -0.5625
  972MOL0     H34085  -0.335   9.403  11.025 -1.4341 -0.1864 -2.8090
  972MOL0     H34086  -0.237   9.542  11.269 -0.5162 -2.8519 -4.4367
  972MOL0     H34087  -0.372   9.634  11.210 -0.0772  1.6189 -1.1105
  972MOL0     H34088  -0.087   9.764  11.239 -0.1833  1.6341  1.7946
  972MOL0     H34089  -0.223   9.836  11.182  1.4625  0.4379  0.3161
  972MOL0     H34090  -0.338   9.798  11.420  0.3643 -1.0067  3.7802
  972MOL0     H34091  -0.200   9.695  11.449  2.0116  1.0701  0.1145
  972MOL0     H34092  -0.219   9.998  11.441  0.6823  0.9324  1.2074
  972MOL0     H34093  -0.163   9.886  11.571 -3.2876  3.4771  1.1038
  972MOL0     H34094  -0.073  10.125  11.590  0.9876  4.7500 -2.6572
  972MOL0     H34095   0.097  10.149  11.875 -3.3155  2.4514  1.7650
  972MOL0     H34096  -0.030  10.224  11.783 -1.3899 -0.5785 -0.0796
  972MOL0     H34097   0.120  10.306  11.782  0.8380 -0.0037  1.9844
  972MOL0     H34098   0.587  10.107  11.902 -0.7942 -0.1134 -0.1417
  972MOL0     H34099   0.824  10.141  11.962  1.5969  1.7132 -0.5695
  972MOL0     H34100   1.093  10.104  11.644 -1.3492 -1.6703  4.3982
  972MOL0     H34101   1.105  10.280  11.617  0.2575 -1.6426 -0.7095
  972MOL0     H34102   1.247  10.295  11.822 -0.1110  1.5450 -2.5275
  972MOL0     H34103   1.244  10.119  11.847  1.0248  1.1163  0.8860
  972MOL0     H34104   1.363  10.240  11.598  2.5727  0.2471  1.6320
  972MOL0     H34105   1.330  10.062  11.629 -3.1201  0.1253 -0.1898
  972MOL0     H34106   1.477  10.082  11.840 -1.3923 -0.7836  0.4028
  972MOL0     H34107   1.511  10.256  11.793  0.6872 -0.1658 -1.2502
  972MOL0     H34108   1.577  10.033  11.606 -1.2302  0.9252  1.4072
  972MOL0     H34109   1.583  10.203  11.582  0.8700  0.8558  0.3573
  972MOL0     H34110   1.748  10.017  11.776 -0.4285 -0.6163 -0.5066
  972MOL0     H34111   1.703  10.171  11.832 -0.6494 -2.7300  1.4675
  972MOL0     H34112   1.852  10.281  11.677 -0.1749 -0.5026  1.2934
  972MOL0     H34113   1.820  10.160  11.551 -1.1301 -0.7034  1.4764
  972MOL0     H34114   1.968  10.003  11.666  1.5676 -0.2827  0.4250
  972MOL0     H34115   1.998  10.129  11.792  3.9405 -2.2218  0.1452
  972MOL0     H34116   0.899  10.291  11.565  1.2840  0.9413  3.1663
  972MOL0     H34117   0.672  10.193  11.493 -3.3954 -0.3917  0.4344
  972MOL0     H34118   0.378   9.951  11.507 -0.8096 -0.3449 -0.3008
  972MOL0     H34119   0.198   9.868  11.385 -0.2754 -3.7028  3.5067
  972MOL0     H34120   0.697   8.690  11.159 -1.2289  1.5238 -0.6606
  972MOL0     H34121   0.922   8.661  11.097  0.9439 -1.0380 -2.2490
  972MOL0     H34122   1.308   8.749  10.945  0.5636  0.1637 -0.3949
  972MOL0     H34123   1.519   8.624  10.897  2.7166 -2.1079 -2.0273
  972MOL0     H34124   1.551   8.444  10.488  0.6049  0.8426  0.1922
  972MOL0     H34125   1.699   8.392  10.566  0.1637 -0.1632  0.8091
  972MOL0     H34126   1.429   8.267  10.592  0.4625 -0.9865  0.5906
  972MOL0     H34127   1.556   8.237  10.708 -0.7645 -1.1216  0.1158
  972MOL0     H34128   1.705   8.195  10.509 -0.0932  2.6992 -0.1406
  972MOL0     H34129   1.586   8.078  10.539  0.8497 -0.2816 -0.0249
  972MOL0     H34130   1.632   8.186  10.285  1.5132 -3.4658  2.1926
  972MOL0     H34131   1.505   8.296  10.323 -0.9399 -1.2169 -2.8249
  972MOL0     H34132   1.262   7.964  10.321  0.5603 -0.8517 -0.5657
  972MOL0     H34133   1.342   8.489  10.522 -1.5680  2.5797 -1.7528
  972MOL0     H34134   1.092   8.684  10.478  2.4103  1.7064  1.8319
  972MOL0     H34135   1.145   8.522  10.461 -1.9935  1.4742 -0.6505
  972MOL0     H34136   1.020   8.547  10.573 -1.2201 -0.4129 -0.5947
  973MOL0     O34137   2.088   6.687   1.075 -0.3239 -0.1024  0.0684
  973MOL0     C34138   1.966   6.685   1.083  0.2632  0.1240 -0.0276
  973MOL0     O34139   1.902   6.675   1.203  0.0471 -0.0791  0.3209
  973MOL0     C34140   1.972   6.710   1.312 -0.2529 -0.1809  0.2438
  973MOL0     C34141   2.032   6.614   1.392  0.2123  0.5325 -0.8225
  973MOL0     C34142   2.085   6.646   1.508  0.4563 -0.7133  0.0488
  973MOL0     C34143   2.091   6.774   1.568 -0.6306  0.0005 -0.1192
  973MOL0     O34144   2.154   6.788   1.693 -0.0297  0.5833 -0.0629
  973MOL0     C34145   2.184   6.919   1.743  0.3935 -0.8979 -1.0929
  973MOL0     C34146   2.194   6.907   1.894  0.2848 -0.9639 -0.3608
  973MOL0     C34147   2.329   6.945   1.957 -0.4162 -0.4732  0.5069
  973MOL0     C34148   2.427   6.837   1.933 -1.2886  0.4020  0.3239
  973MOL0     C34149   2.570   6.879   1.991 -0.4240 -0.2900 -0.0196
  973MOL0     C34150   2.580   6.864   2.149 -0.5101 -0.7884  0.5517
  973MOL0     C34151   2.722   6.865   2.194  0.0483 -0.5466 -0.2365
  973MOL0     C34152   2.748   6.946   2.329  0.7391  0.0058 -0.0777
  973MOL0     N34153   2.881   6.909   2.379  0.4455  0.5824  0.2857
  973MOL0     C34154   2.917   6.840   2.499  0.0254 -1.1898  0.3215
  973MOL0     C34155   3.051   6.877   2.511  1.1476  0.0508  0.0905
  973MOL0     C34156   3.142   6.832   2.618 -0.0038  0.0757  0.1788
  973MOL0     C34157   3.087   6.885   2.757  0.4405 -0.2873  0.2821
  973MOL0     C34158   3.134   6.810   2.877 -0.4771  0.0695  0.2339
  973MOL0     C34159   3.275   6.752   2.871 -0.6524 -0.1285 -0.0582
  973MOL0     O34160   3.366   6.860   2.846  0.1821  0.1031 -0.4354
  973MOL0     C34161   3.499   6.833   2.858  0.4745  0.2834 -0.6771
  973MOL0     C34162   3.562   6.724   2.793  0.4337  0.1164 -0.1285
  973MOL0     C34163   3.697   6.717   2.804  0.2746  0.8309  0.0204
  973MOL0     C34164   3.762   6.606   2.720 -0.6167  0.2220 -0.2688
  973MOL0     C34165   3.773   6.798   2.896  0.6288 -0.6056  0.3717
  973MOL0     C34166   3.925   6.779   2.926 -0.0940 -0.5001  0.4646
  973MOL0     O34167   3.982   6.851   3.032 -0.1414 -0.0284  0.1010
  973MOL0     C34168   4.119   6.879   3.041 -0.5671  0.6492 -0.0009
  973MOL0     C34169   4.208   6.882   2.928  0.0716 -0.6169 -0.5476
  973MOL0     C34170   4.352   6.907   2.942  0.8902 -0.0858 -0.7426
  973MOL0     C34171   4.416   6.900   3.072  0.4721 -0.0928 -0.4907
  973MOL0     O34172   4.554   6.903   3.093  0.1340 -0.3789 -0.0599
  973MOL0     C34173   4.625   6.814   3.007 -0.2543 -0.0892  0.4795
  973MOL0     C34174   4.766   6.805   3.059 -0.3166 -0.3360 -0.1285
  973MOL0     C34175   4.804   6.677   3.119  0.1676 -0.8772 -1.0660
  973MOL0     C34176   4.832   6.568   3.019 -0.5376  0.1438  0.4902
  973MOL0     C34177   4.856   6.437   3.080 -0.2920  0.6366  0.0725
  973MOL0     C34178   4.899   6.336   2.973 -0.3710 -0.2542 -0.1329
  973MOL0     C34179   4.912   6.206   3.050 -0.3949 -0.8586  0.8691
  973MOL0     C34180   4.981   6.085   2.969 -0.3183 -0.0565  0.0483
  973MOL0    Cl34181   5.154   6.122   2.952 -0.4787 -0.1772 -0.2926
  973MOL0     C34182   4.326   6.895   3.176 -0.2533 -0.7135 -0.0821
  973MOL0     C34183   4.182   6.891   3.164  0.3104 -0.2165  0.3689
  973MOL0     O34184   3.989   6.698   2.856  0.2195  0.3990 -0.3277
  973MOL0     C34185   3.705   6.895   2.963  0.7653  0.1828  0.4740
  973MOL0     C34186   3.575   6.917   2.940 -0.7087 -0.9259  0.3309
  973MOL0     N34187   3.089   6.949   2.399  0.2137 -0.6309  0.1036
  973MOL0     N34188   2.989   6.964   2.327 -0.5821  0.0968  0.5752
  973MOL0     C34189   2.021   6.876   1.488  0.6183  0.4552  0.3274
  973MOL0     C34190   1.963   6.848   1.360 -0.6561 -0.1963  0.9280
  973MOL0     C34191   1.877   6.671   0.961 -0.0636 -0.4137  0.7254
  973MOL0     C34192   1.744   6.627   0.974 -0.1531  0.5196 -0.4227
  973MOL0     C34193   1.660   6.597   0.863  0.4890 -0.0835  0.1676
  973MOL0     C34194   1.701   6.616   0.735 -0.4536 -0.0805  0.2099
  973MOL0     O34195   1.623   6.582   0.625  0.1531  0.3191  0.4318
  973MOL0     C34196   1.481   6.576   0.628  1.1114  0.0781  0.4565
  973MOL0     C34197   1.424   6.645   0.498  0.0462  0.3347  0.7372
  973MOL0     C34198   1.275   6.614   0.510 -1.0729 -0.8209 -0.4022
  973MOL0     C34199   1.205   6.664   0.382 -0.2799 -0.5364  0.0668
  973MOL0     C34200   1.239   6.586   0.261  0.0151 -0.2708 -1.1049
  973MOL0     C34201   1.266   6.507   0.172 -0.7315  0.0325 -0.0038
  973MOL0     C34202   1.834   6.651   0.722 -0.3074 -0.8802  0.7451
  973MOL0     C34203   1.927   6.678   0.829  0.4099 -0.3878 -0.3311
  973MOL0     C34204   2.070   6.720   0.800 -0.0459 -0.0581  0.8226
  973MOL0     H34205   2.026   6.511   1.360 -0.3657  0.8250 -1.6693
  973MOL0     H34206   2.137   6.576   1.572  2.1269 -1.1186 -1.6359
  973MOL0     H34207   2.111   6.996   1.715  0.4132  0.3829  1.9377
  973MOL0     H34208   2.282   6.946   1.703  0.3444 -0.1591 -0.7275
  973MOL0     H34209   2.115   6.966   1.941  2.1506 -1.3784  3.7938
  973MOL0     H34210   2.158   6.807   1.919  0.5134 -1.9125 -3.3729
  973MOL0     H34211   2.350   7.043   1.912 -2.6209 -0.1480  0.0695
  973MOL0     H34212   2.324   6.971   2.063  1.7218 -0.5545  0.6808
  973MOL0     H34213   2.399   6.745   1.986  1.9975 -1.6724 -1.2400
  973MOL0     H34214   2.438   6.809   1.828 -0.9759 -0.0685  0.4779
  973MOL0     H34215   2.600   6.978   1.955 -1.3701 -0.3514 -1.0448
  973MOL0     H34216   2.652   6.812   1.960  0.1237  1.1610 -1.9820
  973MOL0     H34217   2.529   6.949   2.196  1.0317  0.8560 -0.6420
  973MOL0     H34218   2.525   6.775   2.182 -1.3684 -0.2560  0.5874
  973MOL0     H34219   2.784   6.917   2.121 -0.7009  1.3004  0.3682
  973MOL0     H34220   2.756   6.762   2.203 -0.0593 -0.7745 -2.1647
  973MOL0     H34221   2.744   7.054   2.312 -1.4267  0.2490  1.5453
  973MOL0     H34222   2.667   6.937   2.402  2.6829  1.2011  2.4100
  973MOL0     H34223   2.851   6.788   2.568 -1.1221 -0.7226 -0.3863
  973MOL0     H34224   3.246   6.855   2.593 -0.5149  3.0760  0.4450
  973MOL0     H34225   3.139   6.723   2.616  0.5621  0.0509 -2.1045
  973MOL0     H34226   3.121   6.989   2.772  0.4039 -0.0232 -1.2956
  973MOL0     H34227   2.978   6.887   2.755  0.3232 -0.3095  2.8857
  973MOL0     H34228   3.109   6.865   2.968  3.0067  0.0959  1.3308
  973MOL0     H34229   3.074   6.726   2.912  0.7250  0.2536  2.9969
  973MOL0     H34230   3.306   6.691   2.956 -0.2143 -3.4179 -2.3760
  973MOL0     H34231   3.274   6.685   2.784 -1.1567  0.2505 -0.3484
  973MOL0     H34232   3.497   6.664   2.730 -1.9697  0.9258  1.4248
  973MOL0     H34233   3.855   6.633   2.668  0.8279 -1.7568  1.1349
  973MOL0     H34234   3.698   6.554   2.648  0.3231  2.1780 -2.6788
  973MOL0     H34235   3.788   6.538   2.801  0.6788 -0.7198 -1.4074
  973MOL0     H34236   4.160   6.885   2.831 -0.9337  0.5585 -0.0436
  973MOL0     H34237   4.414   6.926   2.855  2.5490 -2.7990 -0.2470
  973MOL0     H34238   4.579   6.716   2.993  0.8369 -0.5552  0.0220
  973MOL0     H34239   4.639   6.870   2.914 -1.4853  2.3374  1.6555
  973MOL0     H34240   4.840   6.840   2.986 -3.0865  1.8152 -2.1698
  973MOL0     H34241   4.782   6.874   3.142 -2.8306 -0.1780  0.3119
  973MOL0     H34242   4.735   6.653   3.200  0.0303  2.9157  0.1264
  973MOL0     H34243   4.902   6.694   3.166 -1.6035  1.4892  2.2149
  973MOL0     H34244   4.925   6.609   2.979 -1.0896  3.0156  1.8952
  973MOL0     H34245   4.751   6.571   2.945 -0.3874  1.6518  0.3552
  973MOL0     H34246   4.919   6.442   3.169 -0.4460  0.6298  0.1830
  973MOL0     H34247   4.761   6.406   3.124  0.3575  1.2551  1.9818
  973MOL0     H34248   4.997   6.358   2.930 -0.7322 -1.6228 -1.7788
  973MOL0     H34249   4.819   6.331   2.899  0.4577 -0.5247 -1.0262
  973MOL0     H34250   4.814   6.183   3.093 -2.0222 -3.2330 -3.4820
  973MOL0     H34251   4.986   6.236   3.124  1.8663 -0.6097 -1.3573
  973MOL0     H34252   4.940   6.076   2.868 -1.8430  3.2906  0.2199
  973MOL0     H34253   4.967   5.994   3.029 -0.5812  1.9480  3.2449
  973MOL0     H34254   4.368   6.886   3.276  2.2755 -0.0893 -1.0315
  973MOL0     H34255   4.111   6.895   3.246 -0.7663  1.7296 -0.5874
  973MOL0     H34256   3.748   6.966   3.032 -1.3257 -0.9175  3.0756
  973MOL0     H34257   3.537   7.007   2.988  4.5192  3.0842 -1.9516
  973MOL0     H34258   2.041   6.976   1.526  1.7023  0.9218 -1.3684
  973MOL0     H34259   1.917   6.926   1.300 -0.0014 -0.0659  0.5871
  973MOL0     H34260   1.701   6.603   1.071 -1.3864  2.6898 -0.3570
  973MOL0     H34261   1.558   6.563   0.879 -0.1222  2.1813  1.5722
  973MOL0     H34262   1.438   6.476   0.633 -0.2540  0.2701 -3.6596
  973MOL0     H34263   1.439   6.637   0.708  1.4129  1.2740 -0.2689
  973MOL0     H34264   1.471   6.610   0.405  1.8185  1.8462  1.0104
  973MOL0     H34265   1.439   6.753   0.505 -2.8696  0.9847 -1.3034
  973MOL0     H34266   1.262   6.506   0.519 -1.8323 -0.6779  0.2990
  973MOL0     H34267   1.229   6.671   0.592  2.5248  3.2385 -0.8142
  973MOL0     H34268   1.235   6.769   0.369  0.6171 -0.9143 -1.1563
  973MOL0     H34269   1.099   6.648   0.399 -0.3668  1.3763  1.7041
  973MOL0     H34270   1.299   6.433   0.102 -3.6845 -3.2124  1.7217
  973MOL0     H34271   1.870   6.671   0.621 -3.4356  3.4093  0.1959
  973MOL0     H34272   2.145   6.658   0.851  0.3648 -0.0472  0.2370
  973MOL0     H34273   2.084   6.705   0.693 -0.0326 -0.0219  0.8196
  973MOL0     H34274   2.086   6.825   0.823 -1.4303  0.6871 -1.3769
  974MOL0     O34275   7.057   7.104   3.939  0.2052 -0.9941 -0.5313
  974MOL0     C34276   6.966   7.180   3.902  0.2169 -0.7386  0.4407
  974MOL0     O34277   6.987   7.309   3.858  0.3151 -0.3433 -0.0585
  974MOL0     C34278   7.116   7.361   3.858 -0.5968 -0.0899  0.6169
  974MOL0     C34279   7.231   7.333   3.939  1.0242  0.2569  0.2868
  974MOL0     C34280   7.348   7.399   3.924  0.9085  0.1227  0.3248
  974MOL0     C34281   7.366   7.497   3.832  0.0291  0.4737 -0.9168
  974MOL0     O34282   7.487   7.565   3.826 -0.3049  0.1914  0.4238
  974MOL0     C34283   7.608   7.533   3.906  0.8975  0.1428 -0.3442
  974MOL0     C34284   7.722   7.628   3.878  0.1550  0.0816 -0.4055
  974MOL0     C34285   7.853   7.539   3.818  0.9148 -0.4367 -0.0588
  974MOL0     C34286   7.984   7.632   3.820 -0.1403  1.1424 -0.4860
  974MOL0     C34287   8.102   7.549   3.753 -0.5131  0.6971  0.4766
  974MOL0     C34288   8.237   7.625   3.755 -0.6281 -0.5158 -0.5966
  974MOL0     C34289   8.338   7.567   3.640  0.5312 -0.4770 -0.1105
  974MOL0     C34290   8.476   7.637   3.643  0.0206 -1.3294 -0.5888
  974MOL0     N34291   8.569   7.605   3.751  0.0250  0.3901  0.2802
  974MOL0     C34292   8.633   7.480   3.776 -0.8196  0.2964  0.5149
  974MOL0     C34293   8.734   7.503   3.862  1.2260 -1.0434  0.4952
  974MOL0     C34294   8.814   7.388   3.901  0.9249 -0.0072  0.0464
  974MOL0     C34295   8.806   7.369   4.065 -0.3103 -0.5119 -0.3050
  974MOL0     C34296   8.659   7.366   4.107 -0.0783  0.5527 -1.1223
  974MOL0     C34297   8.645   7.361   4.257 -0.1939  0.3705  0.5690
  974MOL0     O34298   8.713   7.244   4.312  0.4590  0.0943 -0.4685
  974MOL0     C34299   8.675   7.113   4.297  0.0509  0.4110  0.1053
  974MOL0     C34300   8.761   7.013   4.342  0.1129 -0.1011  0.5112
  974MOL0     C34301   8.736   6.874   4.338  0.4847 -0.6501  0.5847
  974MOL0     C34302   8.842   6.779   4.396  0.5095  0.1596 -0.2302
  974MOL0     C34303   8.613   6.824   4.284 -0.5102  1.2521 -0.4256
  974MOL0     C34304   8.575   6.685   4.277  0.2665  0.0070  0.3840
  974MOL0     O34305   8.629   6.603   4.362  0.8236 -0.1876  0.4410
  974MOL0     C34306   8.589   6.475   4.379 -0.6160 -0.5788 -0.2594
  974MOL0     C34307   8.652   6.404   4.483  0.6318  0.0780 -0.2462
  974MOL0     C34308   8.619   6.270   4.510  0.7163 -0.2700 -0.4069
  974MOL0     C34309   8.515   6.211   4.433 -0.1348  0.7222 -0.2263
  974MOL0     O34310   8.472   6.091   4.483  0.2150 -0.0721  0.6187
  974MOL0     C34311   8.352   6.030   4.436 -0.5684  0.5066 -0.2842
  974MOL0     C34312   8.303   5.919   4.533 -0.0992 -0.1054 -0.3526
  974MOL0     C34313   8.234   5.985   4.658 -0.3631  0.4476  0.5755
  974MOL0     C34314   8.101   5.919   4.701 -0.3366  0.4767 -0.1964
  974MOL0     C34315   8.047   6.002   4.826 -0.0653 -1.1354 -0.3319
  974MOL0     C34316   7.920   5.964   4.897 -0.9008  0.5065  0.2805
  974MOL0     C34317   7.919   6.025   5.041 -0.1161 -0.3775  0.1405
  974MOL0     C34318   7.962   5.925   5.149 -0.3440 -0.2260 -0.2406
  974MOL0    Cl34319   8.128   5.876   5.147 -0.3725  0.0361 -0.6989
  974MOL0     C34320   8.463   6.271   4.318 -0.4446 -0.5621 -0.2661
  974MOL0     C34321   8.498   6.404   4.295 -0.5701  0.7834  1.0740
  974MOL0     O34322   8.482   6.662   4.203 -0.0907  0.2274 -0.1430
  974MOL0     C34323   8.526   6.927   4.231  0.2736 -1.0032 -0.5237
  974MOL0     C34324   8.560   7.068   4.234  0.3325  0.3959 -0.1386
  974MOL0     N34325   8.732   7.634   3.903  0.5271 -0.3751 -0.4465
  974MOL0     N34326   8.638   7.695   3.835 -0.1925  0.3251  0.6279
  974MOL0     C34327   7.256   7.549   3.761  0.1195  0.3857  0.0378
  974MOL0     C34328   7.136   7.474   3.766 -0.1249 -0.4862  0.5391
  974MOL0     C34329   6.816   7.140   3.923 -0.2359  0.4312 -0.8941
  974MOL0     C34330   6.710   7.234   3.904 -0.2985  0.9923 -0.1512
  974MOL0     C34331   6.579   7.201   3.914  0.1867  0.0330 -0.4805
  974MOL0     C34332   6.539   7.076   3.958  0.1250 -0.2884 -0.4428
  974MOL0     O34333   6.406   7.046   3.939  0.2986 -0.3268 -0.0825
  974MOL0     C34334   6.308   7.075   4.048 -0.5708 -0.1490 -0.2142
  974MOL0     C34335   6.196   6.967   4.030  0.1333 -0.4023  0.3380
  974MOL0     C34336   6.112   6.997   3.902 -0.3681  0.2451 -0.2422
  974MOL0     C34337   6.037   6.866   3.865  1.1613  0.4216 -0.9845
  974MOL0     C34338   5.987   6.878   3.737 -0.4306 -0.0965 -0.5944
  974MOL0     C34339   5.947   6.905   3.628  0.3015  0.4683 -0.3606
  974MOL0     C34340   6.633   6.978   3.978 -0.7580 -0.0919  1.0766
  974MOL0     C34341   6.773   7.006   3.964 -0.2016 -0.1952 -0.1335
  974MOL0     C34342   6.873   6.890   4.003  0.5676 -0.2494  0.4581
  974MOL0     H34343   7.237   7.246   4.005  0.1511  0.5068  0.7022
  974MOL0     H34344   7.435   7.359   3.975  0.9123 -0.8088 -0.3778
  974MOL0     H34345   7.646   7.434   3.881  2.2159  0.2684  0.9899
  974MOL0     H34346   7.586   7.541   4.013  0.0220  1.4292 -0.6029
  974MOL0     H34347   7.694   7.710   3.812 -0.3103 -0.5264 -0.9826
  974MOL0     H34348   7.756   7.673   3.971  0.7638 -1.5767  0.2208
  974MOL0     H34349   7.874   7.451   3.878 -0.0486  0.3303  1.4539
  974MOL0     H34350   7.839   7.496   3.718  0.9251 -1.6699  0.4565
  974MOL0     H34351   7.970   7.729   3.771 -1.6156  2.5138  2.4022
  974MOL0     H34352   7.998   7.650   3.927 -1.0891  2.0545 -0.4975
  974MOL0     H34353   8.075   7.519   3.652  2.2370  0.5840 -0.3157
  974MOL0     H34354   8.114   7.456   3.810 -2.3966  0.0043 -0.1875
  974MOL0     H34355   8.218   7.730   3.732  0.9500 -0.1276 -0.2754
  974MOL0     H34356   8.289   7.612   3.850 -1.9132 -1.2014  0.0318
  974MOL0     H34357   8.296   7.587   3.541 -0.5412 -1.3611  0.1501
  974MOL0     H34358   8.340   7.458   3.648 -0.3498 -0.5134 -0.3093
  974MOL0     H34359   8.529   7.611   3.551  1.5365  1.6892 -0.6899
  974MOL0     H34360   8.463   7.745   3.649  0.4268 -1.3488  1.3874
  974MOL0     H34361   8.598   7.387   3.732 -0.0476  0.5154 -0.6011
  974MOL0     H34362   8.917   7.418   3.879 -0.4677  3.6467 -2.5199
  974MOL0     H34363   8.788   7.306   3.833  0.7856 -0.6303  0.8326
  974MOL0     H34364   8.851   7.272   4.091  1.0842  0.0039 -0.6876
  974MOL0     H34365   8.861   7.450   4.113  1.1211 -0.5480 -1.7798
  974MOL0     H34366   8.608   7.458   4.079  0.4017  1.2497  0.2146
  974MOL0     H34367   8.617   7.279   4.056 -0.8696  0.8628 -1.0163
  974MOL0     H34368   8.698   7.445   4.303  0.4557  0.4564 -0.3174
  974MOL0     H34369   8.540   7.370   4.286 -0.2438  3.7436 -0.2410
  974MOL0     H34370   8.853   7.048   4.386 -0.6251  0.1890  1.8827
  974MOL0     H34371   8.804   6.721   4.481 -3.3506  0.8452 -1.3109
  974MOL0     H34372   8.921   6.841   4.441  0.8334  1.5975 -2.5994
  974MOL0     H34373   8.878   6.713   4.317  2.1524 -0.1784  0.7543
  974MOL0     H34374   8.731   6.454   4.538 -0.8501  1.2805  0.8819
  974MOL0     H34375   8.651   6.230   4.606  3.6259 -0.8546 -1.5158
  974MOL0     H34376   8.288   6.111   4.400  3.6320  2.9713 -3.0887
  974MOL0     H34377   8.381   5.972   4.348 -0.3827 -0.7036  0.5472
  974MOL0     H34378   8.224   5.857   4.489  0.8187 -2.5480  1.2676
  974MOL0     H34379   8.387   5.855   4.560 -0.7231  0.2979  3.0712
  974MOL0     H34380   8.221   6.093   4.644 -1.6519  0.2353 -0.0366
  974MOL0     H34381   8.305   5.976   4.740 -0.5368 -0.6712  0.6150
  974MOL0     H34382   8.121   5.818   4.736  1.3471  0.8240 -0.0801
  974MOL0     H34383   8.028   5.911   4.620  1.8662 -0.7317 -2.2166
  974MOL0     H34384   8.128   6.009   4.899 -0.9208 -1.2866  0.6648
  974MOL0     H34385   8.028   6.102   4.784  2.3575 -0.5798 -0.2786
  974MOL0     H34386   7.902   5.857   4.908  0.3411 -0.1119 -2.6940
  974MOL0     H34387   7.841   5.995   4.828  1.6422  1.3260 -2.5040
  974MOL0     H34388   7.823   6.073   5.061  1.0289  2.7435 -1.1247
  974MOL0     H34389   7.984   6.114   5.044 -1.9207  0.9681  2.6585
  974MOL0     H34390   7.895   5.840   5.131 -2.8188  1.8262 -1.3702
  974MOL0     H34391   7.942   5.975   5.243  0.1689 -0.2928 -0.0911
  974MOL0     H34392   8.386   6.234   4.251 -0.0021  0.5679 -1.4438
  974MOL0     H34393   8.453   6.436   4.201 -1.1035 -1.0409  0.6626
  974MOL0     H34394   8.439   6.899   4.173  0.8813 -1.3794 -1.2795
  974MOL0     H34395   8.486   7.136   4.194 -0.0916 -0.0815 -0.1834
  974MOL0     H34396   7.255   7.641   3.703  0.0034 -1.4980 -3.2240
  974MOL0     H34397   7.065   7.519   3.697 -1.2940 -0.6296  1.6109
  974MOL0     H34398   6.732   7.336   3.875  2.5422 -0.1769 -2.5549
  974MOL0     H34399   6.506   7.280   3.900  0.8443  0.9803  1.1551
  974MOL0     H34400   6.362   7.058   4.142  0.2617  3.0523  0.0189
  974MOL0     H34401   6.276   7.180   4.049 -0.1698 -0.0219  0.6944
  974MOL0     H34402   6.127   6.961   4.115  1.1994 -1.0513  1.1784
  974MOL0     H34403   6.260   6.879   4.015  3.7744  2.0852 -0.0407
  974MOL0     H34404   6.044   7.080   3.918  1.5308  1.7488  0.4241
  974MOL0     H34405   6.179   7.019   3.819  0.2093  0.5366  0.2873
  974MOL0     H34406   5.945   6.856   3.925  0.0572  3.4771 -1.9827
  974MOL0     H34407   6.094   6.773   3.866  2.6299  1.2547  1.0173
  974MOL0     H34408   5.896   6.925   3.536 -0.2444 -0.3906 -0.2610
  974MOL0     H34409   6.594   6.883   4.013 -1.6492 -0.1092  0.0943
  974MOL0     H34410   6.952   6.873   3.930  2.6959 -1.9617  2.9482
  974MOL0     H34411   6.932   6.923   4.090 -0.2757  0.9162  0.6124
  974MOL0     H34412   6.827   6.793   4.027  1.8322 -1.2425 -0.9529
  975MOL0     O34413   0.577   6.457  10.368 -0.4408 -0.5770 -0.2898
  975MOL0     C34414   0.671   6.527  10.389  0.3365 -0.1291  0.1827
  975MOL0     O34415   0.792   6.480  10.380 -0.2012 -0.0596  0.3431
  975MOL0     C34416   0.894   6.574  10.382  0.2875  0.0390  0.6351
  975MOL0     C34417   0.954   6.612  10.497  0.8546  0.0410  0.4902
  975MOL0     C34418   1.071   6.696  10.499 -0.1075 -0.4829  0.6103
  975MOL0     C34419   1.135   6.724  10.385 -0.6153 -0.8586  0.4682
  975MOL0     O34420   1.255   6.791  10.394  0.2198  0.4796  0.0221
  975MOL0     C34421   1.356   6.733  10.314 -0.0358 -0.6911  0.2932
  975MOL0     C34422   1.493   6.780  10.350 -0.1576 -0.4353 -0.5676
  975MOL0     C34423   1.506   6.940  10.342  0.3289  0.0621 -1.4032
  975MOL0     C34424   1.647   6.985  10.302  0.2643 -0.2339  0.2968
  975MOL0     C34425   1.653   7.135  10.304 -0.9222 -1.0257  0.0024
  975MOL0     C34426   1.790   7.174  10.361  0.1071 -0.4022 -0.4990
  975MOL0     C34427   1.820   7.318  10.350 -0.3215  0.0005  0.6894
  975MOL0     C34428   1.886   7.352  10.220 -0.1519 -0.4271  0.1299
  975MOL0     N34429   1.909   7.499  10.194 -0.1922  0.2088 -0.6945
  975MOL0     C34430   2.031   7.564  10.192 -0.8245  0.3305 -0.0716
  975MOL0     C34431   1.993   7.694  10.186 -0.4667 -0.6214  0.0478
  975MOL0     C34432   2.086   7.813  10.200 -0.7710  0.7144  0.4270
  975MOL0     C34433   2.169   7.824  10.078 -0.4405  0.2380 -0.2572
  975MOL0     C34434   2.083   7.864   9.955 -0.4186 -0.2201 -0.2295
  975MOL0     C34435   2.177   7.909   9.836 -0.6727  0.1838  0.8996
  975MOL0     O34436   2.265   8.008   9.871 -0.4277  0.1596 -0.1104
  975MOL0     C34437   2.312   8.087   9.779 -0.1105 -0.0571 -0.3040
  975MOL0     C34438   2.450   8.083   9.724  0.8384  0.0744  0.2885
  975MOL0     C34439   2.505   8.179   9.635 -0.0090  0.5491  0.0239
  975MOL0     C34440   2.652   8.168   9.597  0.4081 -0.1708  0.0927
  975MOL0     C34441   2.417   8.286   9.610 -0.3196 -0.0918  0.7799
  975MOL0     C34442   2.473   8.415   9.545  0.1924  0.0255 -0.2504
  975MOL0     O34443   2.585   8.460   9.601 -0.1100  0.2196 -0.3647
  975MOL0     C34444   2.659   8.553   9.536  0.8397  0.2240 -0.5203
  975MOL0     C34445   2.790   8.518   9.506  0.5619 -0.2228 -0.1680
  975MOL0     C34446   2.875   8.612   9.446  0.1005 -0.6541 -0.2956
  975MOL0     C34447   2.832   8.741   9.418  0.4497 -0.0963 -0.1558
  975MOL0     O34448   2.909   8.843   9.365  0.4252  0.5116 -0.6833
  975MOL0     C34449   3.047   8.820   9.336 -0.7196  0.0326 -0.2547
  975MOL0     C34450   3.108   8.951   9.277 -0.4061 -0.4866 -0.2088
  975MOL0     C34451   3.148   8.936   9.124  0.5740 -0.1831 -0.0445
  975MOL0     C34452   3.281   8.867   9.091 -0.1601 -0.2051  1.0359
  975MOL0     C34453   3.399   8.943   9.146 -0.3454 -0.7287 -0.8904
  975MOL0     C34454   3.528   8.938   9.070 -0.2783  0.5656 -0.0068
  975MOL0     C34455   3.501   9.008   8.926 -0.3636 -0.3032 -0.0201
  975MOL0     C34456   3.620   9.085   8.868 -0.0336  0.1386 -0.4137
  975MOL0    Cl34457   3.592   9.160   8.706  0.3388 -0.2171  0.4112
  975MOL0     C34458   2.705   8.778   9.466  0.0194 -0.6683  0.2435
  975MOL0     C34459   2.616   8.686   9.522  0.0471 -0.7073 -0.6421
  975MOL0     O34460   2.405   8.473   9.464 -0.2180  0.8701 -0.1312
  975MOL0     C34461   2.277   8.291   9.652 -0.2444  0.0786 -0.6286
  975MOL0     C34462   2.226   8.193   9.741  0.3085 -0.1725 -0.8704
  975MOL0     N34463   1.855   7.701  10.162  0.0108  0.1056  0.2146
  975MOL0     N34464   1.803   7.586  10.174  0.4968 -0.5363 -0.5111
  975MOL0     C34465   1.079   6.681  10.263  0.2290  0.2007 -0.0745
  975MOL0     C34466   0.961   6.608  10.262  0.2676 -0.1889 -0.1682
  975MOL0     C34467   0.654   6.670  10.383  1.3966  0.6176  0.6438
  975MOL0     C34468   0.624   6.710  10.250 -0.8732 -0.2035 -0.0772
  975MOL0     C34469   0.598   6.846  10.227  0.1423  0.2476 -0.1442
  975MOL0     C34470   0.580   6.934  10.330 -0.1288  0.9065  0.2928
  975MOL0     O34471   0.553   7.064  10.315 -0.3203 -0.7040 -0.4116
  975MOL0     C34472   0.585   7.144  10.197  0.0526  0.8572  0.1569
  975MOL0     C34473   0.561   7.291  10.220  0.6060 -0.8518 -0.6851
  975MOL0     C34474   0.680   7.354  10.287  0.3418 -0.1085 -1.1928
  975MOL0     C34475   0.652   7.486  10.358 -1.0830 -1.0251  0.1800
  975MOL0     C34476   0.776   7.522  10.430  0.2828  0.3444  0.8949
  975MOL0     C34477   0.869   7.548  10.503  0.1629  0.4207 -0.1889
  975MOL0     C34478   0.599   6.894  10.459 -0.0112  0.0549  0.7792
  975MOL0     C34479   0.636   6.766  10.489 -0.4308  0.3167  0.0779
  975MOL0     C34480   0.656   6.728  10.635 -0.4275 -0.1868  0.0326
  975MOL0     H34481   0.917   6.568  10.589 -0.2410 -1.7189 -0.7392
  975MOL0     H34482   1.126   6.732  10.586  1.3626 -0.4221 -0.2992
  975MOL0     H34483   1.341   6.750  10.207  0.1444 -1.6450  0.1131
  975MOL0     H34484   1.355   6.624  10.326 -1.2202 -1.1218 -2.6354
  975MOL0     H34485   1.521   6.741  10.448 -1.1560  1.0306  0.3387
  975MOL0     H34486   1.565   6.745  10.275  2.6301  1.2322  1.1385
  975MOL0     H34487   1.425   6.981  10.281 -0.3502  1.7919  0.5492
  975MOL0     H34488   1.489   6.978  10.443 -0.0908 -1.6628 -0.7823
  975MOL0     H34489   1.724   6.945  10.370 -1.9922 -3.2477  1.2917
  975MOL0     H34490   1.666   6.943  10.203 -3.3041  2.7783 -1.9255
  975MOL0     H34491   1.572   7.178  10.364  0.9964  1.1903  1.1212
  975MOL0     H34492   1.660   7.172  10.202  1.7129  1.4793  0.9526
  975MOL0     H34493   1.800   7.143  10.466  0.8962 -0.7117 -0.6604
  975MOL0     H34494   1.870   7.120  10.310  1.4988  2.0556 -1.0730
  975MOL0     H34495   1.889   7.349  10.429  2.4626  1.3149 -2.0568
  975MOL0     H34496   1.729   7.380  10.349 -0.1367  0.2724 -0.4347
  975MOL0     H34497   1.977   7.292  10.222  0.9523  1.1966  0.4113
  975MOL0     H34498   1.816   7.326  10.140 -1.4374  0.4742  0.9153
  975MOL0     H34499   2.137   7.543  10.209 -0.0515  3.7284  0.0439
  975MOL0     H34500   2.146   7.809  10.292 -2.4926  0.7089  1.5900
  975MOL0     H34501   2.017   7.898  10.198  0.9453  2.1920 -2.0034
  975MOL0     H34502   2.245   7.902  10.090 -3.3325  3.6805 -2.2602
  975MOL0     H34503   2.234   7.737  10.062  3.0221  1.7079  3.8172
  975MOL0     H34504   2.031   7.771   9.929  2.2120 -1.5875 -1.0586
  975MOL0     H34505   2.019   7.948   9.983  2.5586  2.4458 -0.8370
  975MOL0     H34506   2.239   7.822   9.815 -0.7952  0.2417  0.2809
  975MOL0     H34507   2.121   7.942   9.748  1.2375  0.6702 -0.1881
  975MOL0     H34508   2.520   8.010   9.762  2.7484  2.2902  1.2328
  975MOL0     H34509   2.714   8.220   9.670  1.4160  0.3577 -1.0979
  975MOL0     H34510   2.665   8.208   9.496 -0.9077  0.9922  0.3483
  975MOL0     H34511   2.676   8.062   9.609  0.3310 -0.6303 -3.0197
  975MOL0     H34512   2.825   8.419   9.534 -2.2374 -1.2126  0.1270
  975MOL0     H34513   2.966   8.571   9.404  1.4635  0.7711  1.1222
  975MOL0     H34514   3.091   8.790   9.432  0.0807 -1.4163 -1.0362
  975MOL0     H34515   3.055   8.741   9.261 -1.3935 -1.8049  1.5130
  975MOL0     H34516   3.040   9.037   9.277  0.8746  0.6030  1.8905
  975MOL0     H34517   3.188   8.980   9.346  0.6998 -1.5361 -1.0175
  975MOL0     H34518   3.156   9.038   9.085  0.5242 -0.2091 -0.1216
  975MOL0     H34519   3.068   8.888   9.067 -0.2169 -0.4166  1.2150
  975MOL0     H34520   3.293   8.864   8.983 -1.2106  0.9010  0.8615
  975MOL0     H34521   3.286   8.767   9.136  0.6649 -0.9961 -0.7166
  975MOL0     H34522   3.371   9.049   9.150 -2.5845 -1.2746 -1.0437
  975MOL0     H34523   3.409   8.911   9.250 -5.8309  1.8565  0.7813
  975MOL0     H34524   3.536   8.830   9.055  0.2813  0.9010 -2.4797
  975MOL0     H34525   3.610   8.986   9.125  0.6009 -0.8303 -0.0661
  975MOL0     H34526   3.415   9.075   8.924 -0.0104  0.1503 -0.0921
  975MOL0     H34527   3.484   8.931   8.851 -0.5237  1.8245 -2.2967
  975MOL0     H34528   3.699   9.012   8.851 -2.5187 -2.6364 -0.7886
  975MOL0     H34529   3.658   9.165   8.932 -2.4259  2.4119 -1.5970
  975MOL0     H34530   2.658   8.875   9.458 -1.7205 -1.5693 -1.5634
  975MOL0     H34531   2.525   8.713   9.575  0.8927 -2.2332  1.7697
  975MOL0     H34532   2.205   8.369   9.630 -1.6788 -1.4140 -1.4350
  975MOL0     H34533   2.127   8.200   9.786  1.9299 -0.9230  3.2624
  975MOL0     H34534   1.135   6.708  10.174  0.6094  2.9455  0.9049
  975MOL0     H34535   0.922   6.558  10.174 -1.4406  1.4222 -0.3875
  975MOL0     H34536   0.605   6.637  10.172 -1.6007 -2.1718  1.8441
  975MOL0     H34537   0.587   6.884  10.126 -0.4613 -0.6714 -0.4368
  975MOL0     H34538   0.689   7.121  10.171  0.0535 -1.2289  1.7118
  975MOL0     H34539   0.534   7.101  10.111 -0.6064 -1.1028  1.4534
  975MOL0     H34540   0.472   7.310  10.281  1.1618  1.2878 -0.4663
  975MOL0     H34541   0.549   7.345  10.126 -2.1044 -0.7345 -0.3441
  975MOL0     H34542   0.713   7.295  10.372 -2.1650  0.3818  0.2261
  975MOL0     H34543   0.753   7.362  10.206  1.4610 -0.5550 -0.2439
  975MOL0     H34544   0.565   7.485  10.425 -1.4627  2.5068 -0.0638
  975MOL0     H34545   0.639   7.567  10.286 -1.1777 -3.1860 -2.3952
  975MOL0     H34546   0.958   7.567  10.559  1.1581  2.4613 -2.3067
  975MOL0     H34547   0.584   6.967  10.538 -1.6196  1.3526 -0.6392
  975MOL0     H34548   0.570   6.663  10.655  1.9028 -2.8749  2.0242
  975MOL0     H34549   0.748   6.675  10.661  0.1084  1.5929  1.9816
  975MOL0     H34550   0.658   6.814  10.702  2.5759 -0.2421  0.1334
  976MOL0     O34551   4.696   4.442   2.915 -0.4578 -0.3751  0.1406
  976MOL0     C34552   4.700   4.370   3.012 -0.7461 -0.0709 -0.2043
  976MOL0     O34553   4.616   4.373   3.112  0.0151  0.2176  0.2663
  976MOL0     C34554   4.501   4.449   3.124  0.5531 -0.0419  0.4106
  976MOL0     C34555   4.493   4.590   3.098  0.2894 -0.0625 -1.0959
  976MOL0     C34556   4.365   4.652   3.101 -0.4148  0.1948  1.1035
  976MOL0     C34557   4.248   4.577   3.119 -0.3708  0.4684 -0.7057
  976MOL0     O34558   4.128   4.640   3.096 -0.4561 -0.6359 -0.2733
  976MOL0     C34559   4.012   4.560   3.080  1.1447  0.3143  0.1467
  976MOL0     C34560   3.905   4.644   3.022  0.1338 -0.4574  0.9719
  976MOL0     C34561   3.768   4.581   3.052 -0.0656  0.4096  0.2706
  976MOL0     C34562   3.750   4.460   2.958  0.4310  0.0686 -0.5994
  976MOL0     C34563   3.601   4.423   2.940 -0.2955 -0.4096 -0.4122
  976MOL0     C34564   3.539   4.387   3.079 -1.1793  0.5466  0.3287
  976MOL0     C34565   3.593   4.269   3.152  0.7538 -0.6799 -0.3487
  976MOL0     C34566   3.560   4.145   3.069  0.0594 -0.5561  0.2755
  976MOL0     N34567   3.683   4.084   3.032  0.0538  1.1391  0.5077
  976MOL0     C34568   3.732   4.098   2.911 -0.5571  0.8643  0.7651
  976MOL0     C34569   3.856   4.036   2.910 -0.3130 -0.1725  0.4325
  976MOL0     C34570   3.968   4.050   2.807  1.0380 -0.3425  0.3187
  976MOL0     C34571   4.043   4.175   2.840 -0.6524  0.0276 -1.1799
  976MOL0     C34572   4.169   4.180   2.751  0.1671  0.4218  0.9173
  976MOL0     C34573   4.251   4.304   2.775  0.1558  1.1905 -0.3755
  976MOL0     O34574   4.168   4.415   2.744  0.3689  0.5378  0.4237
  976MOL0     C34575   4.238   4.536   2.747 -0.7199  0.2280 -0.1316
  976MOL0     C34576   4.151   4.648   2.746 -0.5385  0.5676 -0.3747
  976MOL0     C34577   4.206   4.782   2.753  0.8785 -1.1185 -0.3462
  976MOL0     C34578   4.109   4.897   2.764  1.2516 -0.4378 -0.3823
  976MOL0     C34579   4.350   4.796   2.760  0.8509  0.1169  0.7938
  976MOL0     C34580   4.430   4.922   2.775 -0.0499  0.6447  0.5529
  976MOL0     O34581   4.528   4.921   2.865  0.6844  0.5206 -0.5814
  976MOL0     C34582   4.611   5.021   2.874 -0.1553 -0.0785  0.1044
  976MOL0     C34583   4.586   5.151   2.928  0.1819  0.1418  1.1368
  976MOL0     C34584   4.679   5.252   2.934 -0.4102 -0.0275  0.2858
  976MOL0     C34585   4.813   5.225   2.894 -0.0343 -0.2576 -0.0436
  976MOL0     O34586   4.931   5.306   2.904  0.1720 -0.1187  0.0730
  976MOL0     C34587   4.913   5.446   2.920  0.3959 -0.2398  0.1230
  976MOL0     C34588   5.023   5.527   2.870  0.0659 -0.9062 -0.0620
  976MOL0     C34589   5.021   5.524   2.707  0.7286  0.1321 -0.5400
  976MOL0     C34590   5.106   5.635   2.638  0.4689 -0.1850  0.0985
  976MOL0     C34591   5.098   5.603   2.485 -0.2849 -0.7754 -0.9458
  976MOL0     C34592   5.168   5.698   2.395  0.4708  0.1212  1.5162
  976MOL0     C34593   5.186   5.653   2.248 -0.3857 -0.7378 -0.5180
  976MOL0     C34594   5.262   5.751   2.170  0.4250  0.1665 -0.6834
  976MOL0    Cl34595   5.305   5.692   2.008 -0.2063 -0.1178  0.0920
  976MOL0     C34596   4.844   5.093   2.849 -0.4170  0.4596  0.3246
  976MOL0     C34597   4.746   4.996   2.841  0.4299  0.8792  0.0973
  976MOL0     O34598   4.393   5.018   2.706  0.2332  0.1426 -0.4798
  976MOL0     C34599   4.433   4.684   2.760 -0.6626 -0.2956 -1.1817
  976MOL0     C34600   4.378   4.561   2.761  0.5050 -0.3863  0.0933
  976MOL0     N34601   3.871   3.974   3.030 -0.1109 -0.2047  0.7854
  976MOL0     N34602   3.766   3.996   3.104 -0.8228  0.3297 -0.5273
  976MOL0     C34603   4.260   4.440   3.153 -0.6384  0.2915 -0.3611
  976MOL0     C34604   4.382   4.379   3.159  0.8050 -0.3002  0.2819
  976MOL0     C34605   4.799   4.265   3.027 -0.5659 -0.7918 -0.2922
  976MOL0     C34606   4.871   4.260   3.147  0.1210 -0.7853  0.4061
  976MOL0     C34607   4.982   4.175   3.162  0.3717  0.2041 -0.1782
  976MOL0     C34608   5.009   4.093   3.047  0.2158  0.2142  0.9293
  976MOL0     O34609   5.102   3.995   3.047 -0.5040 -0.0342  0.4761
  976MOL0     C34610   5.201   3.989   3.156 -0.8148 -0.4498 -0.2829
  976MOL0     C34611   5.294   4.099   3.126 -0.0450  0.4222  0.0458
  976MOL0     C34612   5.377   4.132   3.247  0.6490  0.6144  0.2931
  976MOL0     C34613   5.443   4.265   3.235  0.4574  0.4475 -0.3147
  976MOL0     C34614   5.362   4.382   3.270 -0.6709  0.7717  0.7561
  976MOL0     C34615   5.290   4.478   3.297 -0.2985  1.3488 -0.8332
  976MOL0     C34616   4.935   4.097   2.923 -0.2038  0.4880 -0.0948
  976MOL0     C34617   4.828   4.187   2.915 -1.1939 -0.9368  1.0201
  976MOL0     C34618   4.748   4.187   2.784  0.1222  0.0858  0.1449
  976MOL0     H34619   4.586   4.630   3.058 -0.2781  2.2001 -0.3234
  976MOL0     H34620   4.354   4.753   3.062 -2.3118 -0.1897  0.5109
  976MOL0     H34621   3.984   4.500   3.167 -3.3170 -1.9809 -2.4962
  976MOL0     H34622   4.030   4.492   2.996  0.0444  0.5046 -0.2522
  976MOL0     H34623   3.905   4.736   3.080 -0.0957  0.5028 -0.4959
  976MOL0     H34624   3.917   4.670   2.916  0.1552 -0.9383  0.8554
  976MOL0     H34625   3.776   4.549   3.156  0.2902  2.7783  1.0316
  976MOL0     H34626   3.688   4.651   3.026 -0.5490 -1.5611 -4.5564
  976MOL0     H34627   3.781   4.483   2.855  3.0723 -0.4291  0.0250
  976MOL0     H34628   3.804   4.371   2.991 -1.7189  0.1065  3.7434
  976MOL0     H34629   3.589   4.350   2.859  2.1568  1.1067 -2.2800
  976MOL0     H34630   3.540   4.507   2.905  0.6743 -0.3290 -2.0284
  976MOL0     H34631   3.548   4.476   3.143  0.5297  0.2556  0.5642
  976MOL0     H34632   3.433   4.373   3.057 -1.0945  1.5753 -0.8576
  976MOL0     H34633   3.557   4.263   3.255  1.7704  3.0575  0.4064
  976MOL0     H34634   3.700   4.276   3.173  0.0537  0.6216  3.7063
  976MOL0     H34635   3.508   4.079   3.139 -0.2745 -2.4547 -1.6609
  976MOL0     H34636   3.492   4.173   2.988 -1.3011 -0.7837  1.2946
  976MOL0     H34637   3.691   4.155   2.828 -0.2930 -0.7167 -0.5065
  976MOL0     H34638   3.923   4.049   2.707  2.9447 -0.0245 -0.5907
  976MOL0     H34639   4.026   3.957   2.805  0.5650 -0.6727  1.2442
  976MOL0     H34640   3.986   4.268   2.828  0.8490  0.8445 -2.2268
  976MOL0     H34641   4.076   4.158   2.942 -0.1823  2.1067 -0.9416
  976MOL0     H34642   4.232   4.091   2.760  0.8748  0.5242 -2.0108
  976MOL0     H34643   4.135   4.175   2.647  0.7724 -4.3287  0.7322
  976MOL0     H34644   4.296   4.308   2.875  0.5663 -0.0357 -0.4990
  976MOL0     H34645   4.337   4.300   2.707  1.6944  0.4331  1.5060
  976MOL0     H34646   4.047   4.622   2.730 -1.2432 -0.3780  4.3287
  976MOL0     H34647   4.156   4.969   2.832 -1.0213 -1.0379  1.9794
  976MOL0     H34648   4.015   4.860   2.807  1.5533 -0.6200  0.1404
  976MOL0     H34649   4.086   4.935   2.665 -0.8132 -0.0691  0.1903
  976MOL0     H34650   4.482   5.160   2.958  0.0465  0.6167  0.5439
  976MOL0     H34651   4.640   5.347   2.969  0.5638  1.1189 -1.5877
  976MOL0     H34652   4.811   5.473   2.893 -0.1322 -1.8794  0.3703
  976MOL0     H34653   4.911   5.465   3.027 -3.0609 -0.8605  0.2873
  976MOL0     H34654   5.022   5.634   2.892 -2.3879 -0.7380 -0.6750
  976MOL0     H34655   5.120   5.499   2.913 -0.5496 -2.3510  0.4644
  976MOL0     H34656   4.916   5.535   2.679  1.1219  1.2353 -1.6798
  976MOL0     H34657   5.055   5.426   2.674  1.0645  0.5471 -1.4616
  976MOL0     H34658   5.210   5.624   2.670  0.4763 -0.7334 -0.0979
  976MOL0     H34659   5.073   5.737   2.658  2.4783 -0.0442  3.4821
  976MOL0     H34660   5.142   5.505   2.464  0.2738 -1.1487  1.5948
  976MOL0     H34661   4.991   5.602   2.463  0.0307  3.6459 -4.0581
  976MOL0     H34662   5.269   5.702   2.438  0.2305 -2.4361  2.5494
  976MOL0     H34663   5.113   5.792   2.398  0.6770  0.2415  1.5028
  976MOL0     H34664   5.087   5.642   2.204 -2.1239  1.7404  2.4236
  976MOL0     H34665   5.251   5.565   2.253  0.7919  0.0374 -1.5444
  976MOL0     H34666   5.357   5.785   2.211 -1.3024  3.1427  1.1704
  976MOL0     H34667   5.200   5.840   2.166 -1.3731 -0.4845  4.7114
  976MOL0     H34668   4.947   5.063   2.839 -1.8249 -4.5962 -2.6894
  976MOL0     H34669   4.768   4.895   2.808  2.8006  1.6157 -0.7843
  976MOL0     H34670   4.540   4.702   2.749 -1.1192  1.4347 -3.5660
  976MOL0     H34671   4.437   4.469   2.755  1.1741 -0.2008  2.7374
  976MOL0     H34672   4.171   4.383   3.181  0.1329 -0.6619  0.2277
  976MOL0     H34673   4.386   4.271   3.164 -0.2249 -0.2883  2.3671
  976MOL0     H34674   4.846   4.328   3.228  1.0366 -1.2089  1.0539
  976MOL0     H34675   5.036   4.182   3.256  2.8998 -1.1830 -1.4217
  976MOL0     H34676   5.155   4.003   3.254 -1.3128  2.1491 -0.8255
  976MOL0     H34677   5.259   3.896   3.152  0.1374  0.1122  0.1045
  976MOL0     H34678   5.238   4.186   3.094 -0.8147  0.0311  0.3063
  976MOL0     H34679   5.371   4.066   3.055 -0.8984 -0.4974 -0.4713
  976MOL0     H34680   5.320   4.128   3.340 -1.0438  2.7323 -0.5546
  976MOL0     H34681   5.460   4.063   3.264  1.0166  0.7065 -1.0231
  976MOL0     H34682   5.493   4.274   3.138  0.8624  1.0411 -0.0605
  976MOL0     H34683   5.529   4.278   3.302  1.0261  0.3905 -1.0204
  976MOL0     H34684   5.225   4.561   3.310 -3.3214 -1.0454  0.7918
  976MOL0     H34685   4.957   4.031   2.839 -1.9388 -1.3054  0.7681
  976MOL0     H34686   4.757   4.288   2.743  3.0066 -0.0846  0.1594
  976MOL0     H34687   4.793   4.106   2.725 -2.9313 -1.3298 -0.4127
  976MOL0     H34688   4.645   4.153   2.791 -0.7977  1.4600 -4.1528
  977MOL0     O34689   1.364   9.780   3.186 -0.4322 -0.8152  0.6388
  977MOL0     C34690   1.404   9.779   3.073  0.0372 -0.5589 -0.1988
  977MOL0     O34691   1.344   9.829   2.962 -0.3957 -0.0392 -0.0658
  977MOL0     C34692   1.220   9.888   2.951  0.5066  0.5672  0.4060
  977MOL0     C34693   1.146   9.940   3.051  0.1502  0.4743 -0.3681
  977MOL0     C34694   1.029  10.006   3.022 -0.1780  0.6861  0.2401
  977MOL0     C34695   0.984  10.021   2.890  0.3476  0.2536 -0.5438
  977MOL0     O34696   0.867  10.085   2.880 -0.0687 -0.0951  0.0359
  977MOL0     C34697   0.816  10.110   2.747 -0.3023 -0.0006 -0.9155
  977MOL0     C34698   0.683  10.162   2.760  0.7640  0.8901  0.1750
  977MOL0     C34699   0.577  10.056   2.801 -0.7777  0.0227 -0.6605
  977MOL0     C34700   0.454  10.126   2.863  0.2465  0.2235 -0.3681
  977MOL0     C34701   0.360  10.184   2.761  0.3232  0.1113 -0.0207
  977MOL0     C34702   0.245  10.253   2.833 -0.3086 -0.1621  0.5419
  977MOL0     C34703   0.136  10.303   2.737 -0.5787 -0.1715 -0.8620
  977MOL0     C34704   0.055  10.185   2.697  0.0221 -0.2345  0.0950
  977MOL0     N34705  -0.075  10.213   2.638 -1.4629  1.0149 -0.2670
  977MOL0     C34706  -0.124  10.334   2.596 -0.1499  0.5359  0.3870
  977MOL0     C34707  -0.247  10.310   2.549 -0.6345 -0.2966 -0.0193
  977MOL0     C34708  -0.338  10.409   2.488  1.1437  0.7767  0.2991
  977MOL0     C34709  -0.285  10.492   2.377 -0.6698 -0.9351 -0.5127
  977MOL0     C34710  -0.273  10.437   2.237 -0.1852 -0.7649  0.8462
  977MOL0     C34711  -0.184  10.319   2.244 -0.2025  0.6054 -0.9594
  977MOL0     O34712  -0.047  10.345   2.275 -0.5512  0.3616  0.1552
  977MOL0     C34713   0.034  10.239   2.308  0.0153 -1.2699  0.7262
  977MOL0     C34714   0.004  10.106   2.331  0.8642  0.5315  0.9541
  977MOL0     C34715   0.095  10.012   2.372 -0.0879  0.5383 -0.8692
  977MOL0     C34716   0.046   9.867   2.408  0.5801 -0.3060  0.2672
  977MOL0     C34717   0.224  10.036   2.374 -0.3592 -0.1965 -0.5537
  977MOL0     C34718   0.332   9.942   2.413 -0.1945 -0.1487  0.2235
  977MOL0     O34719   0.307   9.837   2.491 -0.2922 -1.0224 -0.1171
  977MOL0     C34720   0.387   9.728   2.497 -0.1528 -0.4039 -0.2179
  977MOL0     C34721   0.525   9.740   2.525  0.2434  0.9164  0.3936
  977MOL0     C34722   0.606   9.636   2.568  0.5202  0.5580  0.3606
  977MOL0     C34723   0.553   9.505   2.555  0.0485 -0.1329  0.0330
  977MOL0     O34724   0.616   9.390   2.583 -0.4543  0.3154 -0.5020
  977MOL0     C34725   0.754   9.386   2.572  0.1145 -0.4777 -0.3737
  977MOL0     C34726   0.795   9.252   2.515  1.7598 -0.0308  0.7454
  977MOL0     C34727   0.766   9.223   2.357 -0.4420 -0.7510 -0.1989
  977MOL0     C34728   0.855   9.109   2.304  0.6042  1.2367 -0.5754
  977MOL0     C34729   0.798   9.060   2.163  0.6339 -0.1765  0.4468
  977MOL0     C34730   0.868   8.931   2.102 -0.8732 -0.2257  0.2547
  977MOL0     C34731   1.014   8.945   2.055 -0.3478  0.6908 -0.3744
  977MOL0     C34732   1.072   8.804   2.054  0.4910 -0.9662  0.3123
  977MOL0    Cl34733   1.248   8.840   2.057  0.0300 -0.0778 -0.1239
  977MOL0     C34734   0.423   9.486   2.517 -0.3315  0.1948  0.6361
  977MOL0     C34735   0.340   9.594   2.496 -0.9990  0.1274  0.5247
  977MOL0     O34736   0.443   9.971   2.370  0.4687 -0.3562 -0.1265
  977MOL0     C34737   0.264  10.168   2.345  0.8587  0.2664 -0.5032
  977MOL0     C34738   0.169  10.273   2.315 -1.2367 -0.0069 -0.3845
  977MOL0     N34739  -0.285  10.182   2.573 -0.3463  0.1717 -0.1216
  977MOL0     N34740  -0.178  10.118   2.616  0.9358 -0.1184  0.3258
  977MOL0     C34741   1.065   9.972   2.785 -0.3908 -0.2655  0.2468
  977MOL0     C34742   1.175   9.896   2.817  0.3860  0.6950  0.7323
  977MOL0     C34743   1.545   9.732   3.064  0.5415  0.0247  0.6493
  977MOL0     C34744   1.639   9.808   2.995 -1.3086  0.2297  0.4852
  977MOL0     C34745   1.777   9.755   2.979  0.3862  0.3337  0.5650
  977MOL0     C34746   1.805   9.631   3.025 -0.6540  0.4404  0.1894
  977MOL0     O34747   1.933   9.577   3.029  0.1674  0.8227  1.0462
  977MOL0     C34748   2.036   9.653   2.951 -0.0043 -0.6555  0.0630
  977MOL0     C34749   2.167   9.589   2.950  0.1958  0.0815 -1.2458
  977MOL0     C34750   2.163   9.435   2.926  1.3309 -0.7011  0.3416
  977MOL0     C34751   2.084   9.412   2.796 -0.8094  0.7475  0.8277
  977MOL0     C34752   2.114   9.278   2.740  0.4101  0.5230  0.4648
  977MOL0     C34753   2.126   9.176   2.679 -0.4347  0.0546  0.9619
  977MOL0     C34754   1.705   9.546   3.072  1.0325  1.1455  1.2000
  977MOL0     C34755   1.574   9.596   3.095 -0.3193 -0.4170 -0.2848
  977MOL0     C34756   1.461   9.498   3.136 -0.7209 -0.6662 -0.7050
  977MOL0     H34757   1.174   9.933   3.156 -1.3214 -3.9897 -0.0322
  977MOL0     H34758   0.963  10.050   3.096  0.1114 -0.1666  1.0228
  977MOL0     H34759   0.802  10.019   2.688  0.3237 -0.8235  0.1811
  977MOL0     H34760   0.880  10.181   2.694 -1.6650  0.2596 -2.2971
  977MOL0     H34761   0.677  10.235   2.841 -3.0766  1.1499 -0.1417
  977MOL0     H34762   0.653  10.200   2.662  0.8291  0.1275 -0.1455
  977MOL0     H34763   0.549  10.000   2.711  1.8961 -2.4414 -0.1029
  977MOL0     H34764   0.627   9.995   2.877 -0.8424 -1.4540 -1.7561
  977MOL0     H34765   0.399  10.053   2.922 -0.9919  2.0141  0.8197
  977MOL0     H34766   0.484  10.209   2.928 -1.3893  0.4695  0.1009
  977MOL0     H34767   0.324  10.105   2.694  1.7142 -1.2568  0.7598
  977MOL0     H34768   0.419  10.252   2.698  1.3656 -0.5940  0.1603
  977MOL0     H34769   0.198  10.187   2.906 -0.0357 -1.8914 -0.7707
  977MOL0     H34770   0.283  10.345   2.877  1.9702  2.0035 -4.9816
  977MOL0     H34771   0.173  10.339   2.640 -2.9316 -1.4600 -2.3532
  977MOL0     H34772   0.083  10.381   2.791  0.3576 -0.8812  1.1682
  977MOL0     H34773   0.108  10.131   2.618  0.6144 -0.3759  0.5892
  977MOL0     H34774   0.043  10.114   2.780 -2.5526  0.6814  0.5923
  977MOL0     H34775  -0.073  10.430   2.594  2.0943 -0.5855 -1.3478
  977MOL0     H34776  -0.393  10.464   2.565  0.5230 -1.0305  1.2118
  977MOL0     H34777  -0.418  10.348   2.444 -0.4371  1.1224  2.5248
  977MOL0     H34778  -0.349  10.581   2.367  2.4305  1.5676  0.3063
  977MOL0     H34779  -0.189  10.538   2.403  1.5116 -1.6312 -6.0735
  977MOL0     H34780  -0.372  10.404   2.204  0.4432 -2.1366  0.2434
  977MOL0     H34781  -0.227  10.511   2.171  0.3966 -0.7863  1.2200
  977MOL0     H34782  -0.214  10.233   2.304  3.0294  0.1328  0.1626
  977MOL0     H34783  -0.181  10.273   2.145 -0.8307 -0.4425 -0.5096
  977MOL0     H34784  -0.097  10.070   2.316  1.1700 -0.3784  1.0060
  977MOL0     H34785   0.115   9.799   2.358  0.4437 -0.2308 -0.0243
  977MOL0     H34786  -0.055   9.836   2.381  0.4017 -0.5168  1.1371
  977MOL0     H34787   0.043   9.851   2.516  1.1048  1.2316  0.5352
  977MOL0     H34788   0.566   9.840   2.530 -1.4350  1.8046 -2.0059
  977MOL0     H34789   0.701   9.663   2.614  0.4503  0.7270  0.4084
  977MOL0     H34790   0.785   9.459   2.497 -1.0538 -1.2652 -1.6636
  977MOL0     H34791   0.795   9.392   2.674  1.7635 -2.7845 -0.8222
  977MOL0     H34792   0.900   9.247   2.543  2.3417  0.7138 -1.1862
  977MOL0     H34793   0.744   9.175   2.574 -0.2322 -0.1038 -0.9386
  977MOL0     H34794   0.784   9.317   2.303 -1.3156  0.5113  1.5873
  977MOL0     H34795   0.658   9.204   2.353 -0.3968 -2.8158  3.6628
  977MOL0     H34796   0.870   9.028   2.376 -0.5550  1.1685 -0.3969
  977MOL0     H34797   0.953   9.154   2.285  0.9424  0.5072 -0.5732
  977MOL0     H34798   0.692   9.035   2.173  0.2657  1.5361  1.3032
  977MOL0     H34799   0.806   9.144   2.092 -1.5950 -2.3397 -2.6496
  977MOL0     H34800   0.801   8.907   2.019 -2.6255 -1.0474  1.8327
  977MOL0     H34801   0.867   8.851   2.176  1.4964  0.0180  0.6448
  977MOL0     H34802   1.071   9.008   2.123 -0.2336  2.2041 -1.7855
  977MOL0     H34803   1.021   8.995   1.958  2.4151  1.4282  0.1212
  977MOL0     H34804   1.042   8.748   1.965  2.3994 -1.0561 -0.3244
  977MOL0     H34805   1.044   8.735   2.134  0.4781  0.1377  1.2845
  977MOL0     H34806   0.379   9.390   2.493 -0.7108  0.5379 -0.0772
  977MOL0     H34807   0.237   9.568   2.475 -0.5452  0.4392 -2.4836
  977MOL0     H34808   0.369  10.198   2.347  1.5812 -1.7865  3.8085
  977MOL0     H34809   0.187  10.378   2.296 -2.4409  0.6807  1.9265
  977MOL0     H34810   1.028   9.973   2.683  0.2115 -0.2433  0.0239
  977MOL0     H34811   1.232   9.856   2.734 -1.8128  0.5896 -0.8142
  977MOL0     H34812   1.618   9.907   2.957 -0.9048  0.6044  1.2322
  977MOL0     H34813   1.838   9.825   2.924 -3.6235  4.3089  0.5875
  977MOL0     H34814   2.009   9.665   2.845  0.7102  0.8694  0.0189
  977MOL0     H34815   2.041   9.752   2.998 -0.6884 -0.1570 -0.8544
  977MOL0     H34816   2.218   9.607   3.045  0.2615 -3.5550 -0.4533
  977MOL0     H34817   2.231   9.623   2.868  0.3482 -2.9952 -2.5375
  977MOL0     H34818   2.265   9.397   2.913  1.4911 -0.1343 -0.1214
  977MOL0     H34819   2.113   9.374   3.002 -0.9744 -1.7755 -1.8931
  977MOL0     H34820   2.122   9.484   2.722  1.0584 -0.4004  0.6096
  977MOL0     H34821   1.976   9.429   2.806 -1.2484 -1.6619  0.6651
  977MOL0     H34822   2.138   9.089   2.618 -2.0493 -0.7360  1.7110
  977MOL0     H34823   1.732   9.446   3.105 -2.6573 -0.3419  0.2391
  977MOL0     H34824   1.390   9.520   3.216  1.5448  0.5704  1.0913
  977MOL0     H34825   1.410   9.461   3.046  0.1407 -1.1767 -0.9968
  977MOL0     H34826   1.517   9.412   3.173 -1.9006 -1.1109  0.0916
  978MOL0     O34827   7.749   4.968   8.225 -0.2564 -0.7355  0.5139
  978MOL0     C34828   7.666   4.881   8.219 -0.0273  0.4465  0.0757
  978MOL0     O34829   7.682   4.757   8.165 -0.0538 -0.6369 -0.5135
  978MOL0     C34830   7.801   4.729   8.101 -0.0261 -0.5943  0.2604
  978MOL0     C34831   7.879   4.621   8.147 -0.6765  0.3439 -0.6461
  978MOL0     C34832   7.998   4.579   8.078 -0.0631 -1.1719  1.0817
  978MOL0     C34833   8.039   4.656   7.973 -0.0038  0.2959  0.5481
  978MOL0     O34834   8.157   4.629   7.902 -0.6025 -0.0401  0.0010
  978MOL0     C34835   8.190   4.495   7.868 -0.0818 -0.0576 -0.5812
  978MOL0     C34836   8.323   4.469   7.933  0.4477 -0.0518  0.4044
  978MOL0     C34837   8.344   4.324   7.934 -0.3318  0.2740  0.2897
  978MOL0     C34838   8.484   4.275   7.966 -0.3443  0.2358 -0.3790
  978MOL0     C34839   8.491   4.126   7.951 -0.4435 -0.4829 -0.9395
  978MOL0     C34840   8.627   4.076   8.004 -0.3399 -0.0375  0.0403
  978MOL0     C34841   8.655   3.939   7.952  0.7087 -0.7919  0.0074
  978MOL0     C34842   8.787   3.871   8.011  1.4995  0.4151  0.1671
  978MOL0     N34843   8.807   3.733   7.984 -0.4600  0.1673 -0.0735
  978MOL0     C34844   8.758   3.629   8.059 -0.0479 -0.9220  0.6672
  978MOL0     C34845   8.801   3.525   7.983  0.3012 -0.5074  0.7803
  978MOL0     C34846   8.783   3.378   8.014 -0.8111 -0.5146  0.4839
  978MOL0     C34847   8.891   3.328   8.109  0.3940  0.4358  0.2492
  978MOL0     C34848   9.021   3.305   8.028 -0.4259  0.2086 -0.0880
  978MOL0     C34849   9.125   3.250   8.122  0.0145  0.1425 -0.5309
  978MOL0     O34850   9.167   3.348   8.214 -0.1602  0.1112 -0.4521
  978MOL0     C34851   9.299   3.401   8.217 -0.0458 -0.6973 -0.8809
  978MOL0     C34852   9.402   3.383   8.125 -0.3901 -0.0599  0.2155
  978MOL0     C34853   9.535   3.440   8.142 -0.5182 -0.9455  0.0995
  978MOL0     C34854   9.627   3.424   8.022 -0.1337 -0.7413 -0.1715
  978MOL0     C34855   9.567   3.505   8.264  0.1666  0.1486  0.6091
  978MOL0     C34856   9.703   3.551   8.308 -0.3225  0.1778  0.5869
  978MOL0     O34857   9.705   3.644   8.418  0.3696  0.1149 -0.1325
  978MOL0     C34858   9.823   3.702   8.439  0.0559 -0.2950  0.0789
  978MOL0     C34859   9.861   3.818   8.369  0.1461 -0.1920 -0.8383
  978MOL0     C34860   9.987   3.865   8.398 -0.1036 -0.2731 -0.6439
  978MOL0     C34861  10.078   3.804   8.481  0.2688 -0.4006 -0.4782
  978MOL0     O34862  10.195   3.868   8.499  0.0374  0.7798 -0.5605
  978MOL0     C34863  10.267   3.841   8.624 -0.7502 -0.6661  0.1149
  978MOL0     C34864  10.399   3.910   8.643 -1.0476 -0.1881  0.2728
  978MOL0     C34865  10.504   3.883   8.533 -0.1453 -0.2343 -0.3036
  978MOL0     C34866  10.583   3.750   8.562  0.5121 -0.6170 -0.2063
  978MOL0     C34867  10.681   3.722   8.454 -0.7786  0.1123 -1.0702
  978MOL0     C34868  10.771   3.603   8.493  0.3413 -1.6200 -0.4578
  978MOL0     C34869  10.882   3.638   8.597  0.4353 -0.5222  0.2227
  978MOL0     C34870  10.949   3.513   8.650  0.1891 -0.4215 -0.8827
  978MOL0    Cl34871  11.113   3.567   8.699 -0.3634  0.1136 -0.1071
  978MOL0     C34872  10.034   3.688   8.546 -0.1965 -0.3534  0.4145
  978MOL0     C34873   9.908   3.637   8.521 -0.0569  0.2570  0.1551
  978MOL0     O34874   9.804   3.494   8.266  0.0453 -0.6536  0.5183
  978MOL0     C34875   9.456   3.526   8.352  0.5890  0.2529 -0.1295
  978MOL0     C34876   9.325   3.478   8.328 -1.4805  0.1691 -1.3068
  978MOL0     N34877   8.880   3.568   7.879 -0.4505  0.0766  0.5412
  978MOL0     N34878   8.872   3.695   7.876  0.2008  0.2120  0.1042
  978MOL0     C34879   7.963   4.756   7.929  0.8624 -0.0446 -0.8578
  978MOL0     C34880   7.839   4.793   7.981  0.2814  0.0633  0.3609
  978MOL0     C34881   7.527   4.928   8.253 -0.1312 -0.1851 -0.2741
  978MOL0     C34882   7.425   4.894   8.165 -0.8205 -0.4409  0.0641
  978MOL0     C34883   7.293   4.910   8.215 -0.0788  0.9974 -0.0192
  978MOL0     C34884   7.276   4.964   8.341  0.5034 -0.1452 -0.6397
  978MOL0     O34885   7.152   4.973   8.407 -0.0001 -0.1958 -0.0830
  978MOL0     C34886   7.030   4.983   8.333  0.3603 -0.5220 -0.1226
  978MOL0     C34887   6.935   4.858   8.331 -0.2688 -0.0478 -0.0578
  978MOL0     C34888   6.998   4.718   8.335  0.5550  0.8606  0.6550
  978MOL0     C34889   6.912   4.610   8.391  0.8162  0.1419 -0.0291
  978MOL0     C34890   6.891   4.638   8.544 -0.1836 -0.1731  1.4449
  978MOL0     C34891   6.868   4.665   8.657 -0.2642 -0.3807  0.7622
  978MOL0     C34892   7.380   5.012   8.415 -0.2615  0.1644 -0.5857
  978MOL0     C34893   7.513   4.990   8.374  0.0268  0.6390  0.2116
  978MOL0     C34894   7.634   5.014   8.476  0.3356  0.1379  0.5071
  978MOL0     H34895   7.854   4.556   8.231 -0.0403 -0.5342 -1.1170
  978MOL0     H34896   8.051   4.488   8.103 -2.4532 -4.0579 -3.1245
  978MOL0     H34897   8.206   4.493   7.760 -0.9549  0.6799 -0.7348
  978MOL0     H34898   8.115   4.419   7.891 -1.1706  1.4756  1.2888
  978MOL0     H34899   8.406   4.530   7.895 -1.8833  3.9135  1.1394
  978MOL0     H34900   8.318   4.492   8.040 -0.8786 -1.9910  0.8227
  978MOL0     H34901   8.289   4.277   8.016  3.1298 -1.0989  1.9824
  978MOL0     H34902   8.315   4.264   7.847  2.8450 -3.0038  1.2814
  978MOL0     H34903   8.543   4.311   7.881  1.6810 -1.6544  0.1321
  978MOL0     H34904   8.519   4.312   8.064  0.7534  2.0227 -1.3775
  978MOL0     H34905   8.484   4.098   7.846 -0.6673  0.9416 -1.3254
  978MOL0     H34906   8.410   4.072   8.002  1.9449 -1.5841  1.9939
  978MOL0     H34907   8.700   4.151   7.972  2.3952 -3.5124 -2.4980
  978MOL0     H34908   8.641   4.068   8.112  2.8764  0.1035 -0.2902
  978MOL0     H34909   8.660   3.937   7.843  0.2505  0.5274 -0.0563
  978MOL0     H34910   8.572   3.877   7.985  0.9360 -0.3545  1.4675
  978MOL0     H34911   8.869   3.932   7.970  1.2857  1.5130  1.3009
  978MOL0     H34912   8.793   3.889   8.119  1.2743  0.4548  0.1717
  978MOL0     H34913   8.707   3.634   8.155 -1.0277 -1.1401  0.1751
  978MOL0     H34914   8.794   3.327   7.918 -0.9046  1.1530 -0.4514
  978MOL0     H34915   8.685   3.366   8.062 -1.3894  1.4107 -0.1088
  978MOL0     H34916   8.904   3.395   8.195 -0.3496  0.6604  0.1962
  978MOL0     H34917   8.844   3.242   8.157  1.3347 -0.1371  0.1772
  978MOL0     H34918   9.007   3.226   7.954  1.1267 -0.5921  0.4462
  978MOL0     H34919   9.064   3.391   7.975 -0.2740  0.2189  0.0527
  978MOL0     H34920   9.094   3.158   8.173 -0.0755  1.1408  1.2694
  978MOL0     H34921   9.214   3.225   8.064 -1.0375  1.5896 -2.9377
  978MOL0     H34922   9.385   3.324   8.036 -0.5312  0.2532  0.0343
  978MOL0     H34923   9.614   3.326   7.975  1.1616  0.1653 -2.6414
  978MOL0     H34924   9.732   3.432   8.052 -1.1524  1.2208  3.4007
  978MOL0     H34925   9.597   3.493   7.942 -0.8934  1.0500  1.5567
  978MOL0     H34926   9.789   3.867   8.304 -1.2512 -0.5853  0.3390
  978MOL0     H34927  10.033   3.948   8.346  0.9382  1.1410  2.3661
  978MOL0     H34928  10.200   3.868   8.707 -1.0626 -0.4031 -0.2183
  978MOL0     H34929  10.286   3.734   8.631 -0.3703 -0.5177  1.8627
  978MOL0     H34930  10.390   4.019   8.640  3.2298  0.3231  0.7836
  978MOL0     H34931  10.428   3.867   8.739  0.8717 -1.4663 -0.8055
  978MOL0     H34932  10.579   3.962   8.537 -1.1939  0.7420  0.6920
  978MOL0     H34933  10.451   3.886   8.438  0.4510  0.2004 -0.6289
  978MOL0     H34934  10.519   3.664   8.583  0.7590 -1.0029 -1.0032
  978MOL0     H34935  10.636   3.774   8.655  0.7501 -0.2727 -0.4288
  978MOL0     H34936  10.616   3.697   8.370 -3.3252 -2.0953  1.3798
  978MOL0     H34937  10.738   3.810   8.423  0.7591 -0.2573  0.5348
  978MOL0     H34938  10.834   3.579   8.407 -0.8910 -2.9117 -1.0342
  978MOL0     H34939  10.713   3.516   8.524 -1.6491 -0.4104 -0.6127
  978MOL0     H34940  10.823   3.691   8.671 -3.0357 -1.9981 -1.2870
  978MOL0     H34941  10.958   3.712   8.570 -1.9156  2.1717  0.5983
  978MOL0     H34942  10.958   3.434   8.574  2.6372  0.9319 -2.1526
  978MOL0     H34943  10.904   3.462   8.735 -0.6263  0.2520 -0.9018
  978MOL0     H34944  10.098   3.628   8.610 -1.4801 -0.9655  1.1583
  978MOL0     H34945   9.874   3.547   8.571 -1.1599  0.1624 -0.7399
  978MOL0     H34946   9.455   3.588   8.441 -3.0075  0.7760 -0.3670
  978MOL0     H34947   9.253   3.489   8.408  0.8175  1.2790  0.7419
  978MOL0     H34948   7.985   4.817   7.842 -3.3438  1.5177 -1.0833
  978MOL0     H34949   7.792   4.884   7.947  0.7641 -0.0398 -0.6283
  978MOL0     H34950   7.444   4.848   8.069 -1.4595 -3.0311  1.0923
  978MOL0     H34951   7.201   4.875   8.170  1.2303  0.5831 -2.4944
  978MOL0     H34952   6.990   5.077   8.372  5.3253  1.7174  0.2731
  978MOL0     H34953   7.053   4.997   8.227 -0.7097 -0.0187 -0.3064
  978MOL0     H34954   6.867   4.877   8.248 -2.6936 -0.3795  1.7537
  978MOL0     H34955   6.878   4.875   8.422 -2.1309 -1.5777 -0.8547
  978MOL0     H34956   7.017   4.690   8.231 -2.1494  1.6625 -0.1301
  978MOL0     H34957   7.091   4.710   8.392  2.5820 -0.7868 -2.5936
  978MOL0     H34958   6.961   4.513   8.377  1.6089  0.3237  1.3027
  978MOL0     H34959   6.815   4.606   8.342 -0.3181 -1.4688  2.1787
  978MOL0     H34960   6.825   4.710   8.744  0.8141  4.3679 -0.8608
  978MOL0     H34961   7.362   5.053   8.514  1.3049 -0.4537 -0.0071
  978MOL0     H34962   7.594   5.036   8.575  0.4148 -1.0323  0.8187
  978MOL0     H34963   7.705   4.931   8.481  4.0172  3.0708  1.3291
  978MOL0     H34964   7.691   5.099   8.439 -1.3292  2.0984  2.1921
  979MOL0     O34965   6.459   9.199   5.899  0.9258  0.1866 -0.1881
  979MOL0     C34966   6.453   9.078   5.925 -0.4813  0.1616  0.1508
  979MOL0     O34967   6.351   9.016   5.992 -0.0057 -0.9568 -0.3399
  979MOL0     C34968   6.249   9.092   6.046  0.5172  0.0877 -0.0132
  979MOL0     C34969   6.270   9.181   6.157 -0.5668  0.4114  0.2818
  979MOL0     C34970   6.159   9.252   6.215 -0.5467  0.9075 -1.0118
  979MOL0     C34971   6.033   9.244   6.152 -0.3608  0.1381 -0.0092
  979MOL0     O34972   5.937   9.311   6.209 -0.0987  0.3992  0.0134
  979MOL0     C34973   5.834   9.232   6.270 -0.0012 -0.7381 -0.4769
  979MOL0     C34974   5.694   9.294   6.304 -0.3049 -0.0867  0.4137
  979MOL0     C34975   5.696   9.440   6.356  0.4356  0.1072 -0.2107
  979MOL0     C34976   5.554   9.486   6.404  0.0371 -0.5733  0.1570
  979MOL0     C34977   5.549   9.614   6.478  0.9227 -0.1947 -0.1007
  979MOL0     C34978   5.408   9.645   6.535  0.5479  0.1018 -1.1133
  979MOL0     C34979   5.382   9.802   6.556  0.4503  1.1884 -0.6365
  979MOL0     C34980   5.478   9.838   6.669 -0.2284 -0.1936 -0.7800
  979MOL0     N34981   5.438   9.773   6.798 -0.8870  0.3955  0.2598
  979MOL0     C34982   5.318   9.744   6.856  0.7199 -0.6485 -0.5863
  979MOL0     C34983   5.346   9.696   6.979  0.4050 -0.9776 -0.2007
  979MOL0     C34984   5.249   9.664   7.095  0.2369  0.0536  0.2639
  979MOL0     C34985   5.221   9.514   7.103 -0.7520  0.3055 -0.8587
  979MOL0     C34986   5.139   9.466   6.983  0.4810 -0.3972  0.3333
  979MOL0     C34987   4.999   9.525   6.970  0.2803 -0.0887 -0.1270
  979MOL0     O34988   4.925   9.456   6.862 -0.0998 -0.5013  0.0965
  979MOL0     C34989   4.801   9.431   6.897 -0.5431  0.5886  0.1328
  979MOL0     C34990   4.717   9.516   6.958  0.3701 -0.1469 -1.0769
  979MOL0     C34991   4.583   9.489   6.995  0.4144 -0.3930 -0.8005
  979MOL0     C34992   4.518   9.612   7.061  0.2797 -0.7400  0.3824
  979MOL0     C34993   4.534   9.354   6.983  0.2623 -0.2175 -0.4276
  979MOL0     C34994   4.397   9.301   7.024  0.3554  0.0923 -0.1275
  979MOL0     O34995   4.372   9.167   7.003  0.5009 -0.1584 -0.2291
  979MOL0     C34996   4.241   9.115   7.003  0.3713  0.3125  0.0141
  979MOL0     C34997   4.130   9.187   6.971 -0.4055 -0.3448 -0.2768
  979MOL0     C34998   3.996   9.140   6.988  0.8521 -0.3554 -0.1643
  979MOL0     C34999   3.977   9.016   7.051 -0.3687 -0.4053 -0.0754
  979MOL0     O35000   3.848   8.971   7.063  0.0657 -0.2085  0.0245
  979MOL0     C35001   3.815   8.863   7.154  0.0105 -0.6463 -0.1139
  979MOL0     C35002   3.668   8.839   7.183  0.1267 -0.8365 -0.4574
  979MOL0     C35003   3.592   8.749   7.094  0.7583 -0.4193 -0.0760
  979MOL0     C35004   3.440   8.731   7.128 -0.1769 -0.2071  0.5323
  979MOL0     C35005   3.360   8.641   7.025  0.0488 -0.3350  0.7327
  979MOL0     C35006   3.405   8.502   6.993  0.0713  0.3763  0.6049
  979MOL0     C35007   3.336   8.460   6.867  0.4373 -0.1781  1.0101
  979MOL0     C35008   3.189   8.454   6.875  0.5478  0.3013 -0.4080
  979MOL0    Cl35009   3.121   8.379   6.731  0.0726 -0.0248 -0.1402
  979MOL0     C35010   4.089   8.937   7.081 -0.8123 -0.3154  0.7039
  979MOL0     C35011   4.218   8.989   7.058  0.4938  0.0085  0.3334
  979MOL0     O35012   4.311   9.380   7.065 -0.4669  0.3811  0.3200
  979MOL0     C35013   4.627   9.262   6.921 -0.8015 -0.3252  0.0936
  979MOL0     C35014   4.752   9.299   6.868  0.7048  0.1565 -0.1755
  979MOL0     N35015   5.489   9.701   6.991  0.2744 -0.3515 -0.4907
  979MOL0     N35016   5.540   9.740   6.881 -0.0655 -0.8524  0.1431
  979MOL0     C35017   6.018   9.164   6.040  0.6233  0.1222  0.4984
  979MOL0     C35018   6.116   9.087   5.996 -1.2139 -0.6320  0.0738
  979MOL0     C35019   6.571   9.003   5.877 -0.1566  0.6282  0.4275
  979MOL0     C35020   6.573   8.869   5.897 -0.0958  0.1457 -0.3046
  979MOL0     C35021   6.681   8.784   5.866  0.4905 -0.1466  0.6122
  979MOL0     C35022   6.792   8.840   5.795 -0.7889  0.3019 -0.4951
  979MOL0     O35023   6.913   8.780   5.788  0.3813 -0.1255 -0.3384
  979MOL0     C35024   6.944   8.668   5.868  0.6446  0.0512  0.2157
  979MOL0     C35025   7.093   8.653   5.853 -0.7035 -0.1023 -0.1921
  979MOL0     C35026   7.176   8.785   5.891  0.4744  0.7258  0.4745
  979MOL0     C35027   7.325   8.757   5.868  0.2962 -0.4606  0.1668
  979MOL0     C35028   7.414   8.825   5.974 -0.0777  0.2305  1.0412
  979MOL0     C35029   7.479   8.885   6.051  0.0987  0.6308  0.4641
  979MOL0     C35030   6.784   8.972   5.768 -0.7706  0.2431  0.3534
  979MOL0     C35031   6.677   9.051   5.801  0.2380 -1.0739  0.1679
  979MOL0     C35032   6.680   9.198   5.752 -0.3887 -0.2457  0.0287
  979MOL0     H35033   6.370   9.176   6.198 -1.0589 -2.7250  1.3559
  979MOL0     H35034   6.170   9.318   6.300 -0.7398 -2.6393  2.0056
  979MOL0     H35035   5.882   9.205   6.364  0.4905  1.4132 -0.0550
  979MOL0     H35036   5.812   9.144   6.209 -1.8189  0.5883 -1.8935
  979MOL0     H35037   5.626   9.290   6.219 -3.6357  0.2111  2.8788
  979MOL0     H35038   5.645   9.221   6.368  0.4457 -1.7207 -0.8185
  979MOL0     H35039   5.771   9.437   6.436 -1.3066 -1.2649  1.4888
  979MOL0     H35040   5.732   9.507   6.278  0.8379 -0.2831 -0.3643
  979MOL0     H35041   5.494   9.485   6.312  1.4953  1.0477 -0.8863
  979MOL0     H35042   5.517   9.412   6.475  2.2363  0.3262  2.3865
  979MOL0     H35043   5.587   9.702   6.424  0.0339  0.2396 -0.0374
  979MOL0     H35044   5.611   9.594   6.566 -0.0266 -1.6155  0.2723
  979MOL0     H35045   5.340   9.595   6.465  1.1970 -2.1280 -0.2586
  979MOL0     H35046   5.397   9.595   6.632  2.2499 -0.6056 -1.2477
  979MOL0     H35047   5.279   9.830   6.579  0.0912  2.2646 -3.2728
  979MOL0     H35048   5.410   9.852   6.463 -0.3126  1.6662 -0.6231
  979MOL0     H35049   5.579   9.815   6.637  0.8001  0.8452  1.4903
  979MOL0     H35050   5.469   9.946   6.687 -4.1404 -0.7880  2.3900
  979MOL0     H35051   5.218   9.749   6.816 -0.1891 -2.6632  1.2120
  979MOL0     H35052   5.153   9.711   7.070 -0.3203 -0.1774  1.8852
  979MOL0     H35053   5.279   9.706   7.191  0.0016  1.9306 -0.4244
  979MOL0     H35054   5.320   9.469   7.108  1.9868  5.5482 -1.1631
  979MOL0     H35055   5.163   9.472   7.186 -1.0766 -2.8504 -2.5136
  979MOL0     H35056   5.186   9.498   6.890  0.1533  0.2320  0.3751
  979MOL0     H35057   5.131   9.357   6.976  1.6258 -0.3991 -1.6453
  979MOL0     H35058   4.950   9.503   7.065 -0.4366 -1.5932 -0.8051
  979MOL0     H35059   5.005   9.633   6.955  0.9303  0.0397  1.0269
  979MOL0     H35060   4.747   9.620   6.972 -3.2123  1.1003 -1.5871
  979MOL0     H35061   4.569   9.643   7.152 -0.3319  3.7273 -0.5637
  979MOL0     H35062   4.411   9.606   7.083 -0.4275 -4.2931 -2.9321
  979MOL0     H35063   4.525   9.690   6.985 -1.1415 -0.3156  0.6584
  979MOL0     H35064   4.126   9.285   6.926  1.4341 -0.6939 -1.3234
  979MOL0     H35065   3.906   9.193   6.959 -0.0449 -2.1214 -0.7805
  979MOL0     H35066   3.865   8.766   7.144 -0.9261 -1.3518  1.6747
  979MOL0     H35067   3.859   8.895   7.249 -2.0635 -1.7210  1.2756
  979MOL0     H35068   3.662   8.787   7.279  2.7729 -0.1471  0.1859
  979MOL0     H35069   3.612   8.931   7.201 -1.2797 -1.9493  1.1919
  979MOL0     H35070   3.644   8.652   7.101  3.5718  0.9503 -0.3949
  979MOL0     H35071   3.599   8.778   6.989 -0.2790 -0.8133 -0.2634
  979MOL0     H35072   3.383   8.823   7.145 -1.0327 -0.7848  0.8116
  979MOL0     H35073   3.443   8.671   7.219  1.6217  1.9656  2.0121
  979MOL0     H35074   3.253   8.650   7.045  0.0085  1.9325 -0.1147
  979MOL0     H35075   3.372   8.691   6.928  0.2029 -0.6014  0.6119
  979MOL0     H35076   3.391   8.435   7.079  5.0306 -0.7143  0.8756
  979MOL0     H35077   3.511   8.506   6.968 -0.0423 -1.0998 -0.1597
  979MOL0     H35078   3.363   8.357   6.844 -0.7923  0.4256 -4.4718
  979MOL0     H35079   3.365   8.523   6.782 -0.1518  0.7912  1.5019
  979MOL0     H35080   3.145   8.553   6.890  1.3931  0.9076 -1.7073
  979MOL0     H35081   3.155   8.392   6.958  1.0541  2.3283  1.3992
  979MOL0     H35082   4.072   8.832   7.102 -1.0339 -0.4534 -0.1634
  979MOL0     H35083   4.305   8.929   7.085  1.2674  0.8308 -0.2646
  979MOL0     H35084   4.603   9.157   6.912 -0.0364 -0.5098  0.1598
  979MOL0     H35085   4.821   9.221   6.838  1.0526  0.5654 -0.4448
  979MOL0     H35086   5.926   9.158   5.983  1.7407  0.0457 -1.3681
  979MOL0     H35087   6.106   9.029   5.905 -0.7178 -1.3628  0.4695
  979MOL0     H35088   6.491   8.828   5.955  0.4189  0.7224  0.8702
  979MOL0     H35089   6.682   8.679   5.893  1.0421 -0.5839 -0.9989
  979MOL0     H35090   6.906   8.687   5.968 -0.5621 -1.5175  0.0828
  979MOL0     H35091   6.898   8.577   5.829 -1.0059  1.0325 -0.2143
  979MOL0     H35092   7.109   8.626   5.749  0.1502  0.0227 -0.1050
  979MOL0     H35093   7.130   8.576   5.922 -1.6711 -0.8588 -0.5096
  979MOL0     H35094   7.156   8.873   5.829  1.5869 -0.9758 -2.5304
  979MOL0     H35095   7.164   8.793   5.999  2.0266 -2.9589  1.0636
  979MOL0     H35096   7.360   8.798   5.773  0.8736  0.5378  0.7934
  979MOL0     H35097   7.342   8.649   5.871  1.8891 -0.2996 -1.4381
  979MOL0     H35098   7.548   8.931   6.119  2.5928  0.3125 -1.7196
  979MOL0     H35099   6.870   9.015   5.719 -2.6374  0.1099 -3.3522
  979MOL0     H35100   6.753   9.201   5.671  0.5676  0.7618  0.8893
  979MOL0     H35101   6.587   9.235   5.706  0.5128  1.0016 -0.8528
  979MOL0     H35102   6.713   9.266   5.832  1.2450 -0.3933 -0.4947
  980MOL0     O35103   9.939   7.726  10.882  0.9037 -0.8941 -0.1015
  980MOL0     C35104   9.858   7.807  10.837  0.0203 -0.3708  0.0457
  980MOL0     O35105   9.859   7.844  10.703 -0.0160  0.8656 -0.6857
  980MOL0     C35106   9.931   7.774  10.603  0.5389  0.6660 -0.9939
  980MOL0     C35107   9.880   7.653  10.549 -0.4519 -0.2083  0.2163
  980MOL0     C35108   9.947   7.582  10.449 -0.7142  0.1400  0.1720
  980MOL0     C35109  10.075   7.621  10.408  0.7662 -0.8319 -0.1605
  980MOL0     O35110  10.147   7.553  10.311 -0.1026 -0.0003 -0.1872
  980MOL0     C35111  10.088   7.581  10.180 -0.4558  0.0220  0.6452
  980MOL0     C35112  10.185   7.537  10.068  0.4896 -0.2325  0.0836
  980MOL0     C35113  10.124   7.522   9.923 -0.0625  0.3655  0.5374
  980MOL0     C35114  10.094   7.375   9.883  1.3030  0.1626  0.8798
  980MOL0     C35115  10.046   7.340   9.744 -0.5230 -0.2877 -0.1230
  980MOL0     C35116  10.009   7.196   9.740 -0.2550 -0.2817  0.4138
  980MOL0     C35117   9.986   7.139   9.599  0.8847  0.2040  0.4437
  980MOL0     C35118   9.987   6.988   9.615  1.1395 -1.4455  0.0679
  980MOL0     N35119   9.882   6.941   9.710  0.7068  0.1328  0.0367
  980MOL0     C35120   9.749   6.966   9.694  0.5801  1.1944  0.0011
  980MOL0     C35121   9.684   6.877   9.770 -0.1079  0.4688  0.0993
  980MOL0     C35122   9.539   6.886   9.811  0.2123 -0.6288  0.1244
  980MOL0     C35123   9.525   6.988   9.926 -0.5271  0.1560  0.8936
  980MOL0     C35124   9.395   6.966  10.008 -0.3566  0.1474  0.1958
  980MOL0     C35125   9.277   6.999   9.925  0.6987  0.2481  0.7569
  980MOL0     O35126   9.151   6.979   9.994 -0.2553 -0.5857  0.2878
  980MOL0     C35127   9.033   7.032   9.936 -0.3843 -0.0486  0.2508
  980MOL0     C35128   8.925   7.048  10.020 -0.4029 -0.3769 -0.1684
  980MOL0     C35129   8.817   7.131   9.985  0.2745 -0.5652 -0.8955
  980MOL0     C35130   8.701   7.146  10.081  0.0320 -0.7022  0.5857
  980MOL0     C35131   8.809   7.194   9.859  0.1983 -0.4762 -0.2703
  980MOL0     C35132   8.719   7.299   9.813 -0.4535 -1.0840  0.2100
  980MOL0     O35133   8.748   7.348   9.687 -0.5682 -0.4575  0.0225
  980MOL0     C35134   8.645   7.392   9.601 -0.3978  0.0158  0.0118
  980MOL0     C35135   8.544   7.307   9.569  0.3420  0.3132  0.8264
  980MOL0     C35136   8.445   7.333   9.463 -0.9182  0.1026 -0.5823
  980MOL0     C35137   8.451   7.455   9.400 -0.6108 -0.5700 -0.5549
  980MOL0     O35138   8.365   7.507   9.313 -0.1149 -0.3911 -0.0878
  980MOL0     C35139   8.308   7.412   9.223  0.1256  0.2566  0.2412
  980MOL0     C35140   8.249   7.492   9.103 -0.2938  0.3020 -0.2207
  980MOL0     C35141   8.140   7.592   9.156 -0.6398 -0.5726  0.2691
  980MOL0     C35142   8.042   7.653   9.056 -0.5922  0.1794  0.3121
  980MOL0     C35143   7.921   7.730   9.115 -0.1395 -0.2231  0.0427
  980MOL0     C35144   7.968   7.832   9.220 -0.2360 -0.7907  0.0275
  980MOL0     C35145   7.845   7.917   9.257  0.2081 -1.2452  0.5275
  980MOL0     C35146   7.845   7.972   9.402  0.0718 -0.0467 -0.7917
  980MOL0    Cl35147   7.930   8.126   9.428  0.4976  0.6979 -0.0412
  980MOL0     C35148   8.550   7.546   9.434  0.7827  0.5871 -0.3504
  980MOL0     C35149   8.652   7.514   9.529 -1.0466 -0.2014 -0.4643
  980MOL0     O35150   8.619   7.330   9.880 -0.4756  0.0267 -0.1508
  980MOL0     C35151   8.912   7.159   9.769  0.4563  0.1435 -0.0814
  980MOL0     C35152   9.030   7.087   9.806  0.8065 -0.3483 -0.5043
  980MOL0     N35153   9.783   6.802   9.835  0.0565  0.3277  0.3038
  980MOL0     N35154   9.896   6.837   9.799  0.0545 -0.4494  0.2771
  980MOL0     C35155  10.121   7.743  10.462  0.5249 -0.2764 -0.3380
  980MOL0     C35156  10.054   7.813  10.561  0.4039  0.3561 -0.1039
  980MOL0     C35157   9.771   7.887  10.947 -0.9515  0.5061  0.0916
  980MOL0     C35158   9.638   7.908  10.915  0.2583 -1.0814  0.7790
  980MOL0     C35159   9.555   7.981  10.996 -0.0151 -0.5290  0.9997
  980MOL0     C35160   9.600   8.022  11.117  1.1583 -0.1695 -0.5460
  980MOL0     O35161   9.533   8.097  11.218 -0.8675  0.9588 -0.1827
  980MOL0     C35162   9.412   8.169  11.177 -0.6707 -0.1942  0.1675
  980MOL0     C35163   9.288   8.079  11.142  0.1280 -0.0396  0.2140
  980MOL0     C35164   9.152   8.120  11.199 -0.1595  0.7987 -0.3658
  980MOL0     C35165   9.076   8.000  11.265  0.2359  0.5047  0.6361
  980MOL0     C35166   8.933   8.032  11.276  0.3403 -0.5186 -0.6096
  980MOL0     C35167   8.814   8.057  11.283  0.7169 -0.9915  0.8616
  980MOL0     C35168   9.731   7.991  11.158  0.1587 -0.7287  0.2474
  980MOL0     C35169   9.818   7.924  11.076  0.1748  0.0596  0.4321
  980MOL0     C35170   9.954   7.883  11.125  0.0449 -0.2270 -0.1827
  980MOL0     H35171   9.780   7.633  10.585 -0.6541  0.2411 -0.0849
  980MOL0     H35172   9.910   7.492  10.400  1.0575  0.2004 -1.4196
  980MOL0     H35173  10.074   7.689  10.170 -2.4376 -0.4152 -3.0667
  980MOL0     H35174   9.993   7.527  10.181 -1.1656  1.2189  2.0624
  980MOL0     H35175  10.255   7.619  10.048 -0.9352  0.4776 -2.3827
  980MOL0     H35176  10.221   7.440  10.104 -0.5226 -0.1642  1.3749
  980MOL0     H35177  10.029   7.575   9.927 -1.1365 -1.5239  3.3201
  980MOL0     H35178  10.197   7.563   9.853  0.4025  1.4484  1.6307
  980MOL0     H35179  10.183   7.316   9.906  1.9188  0.1994 -1.2381
  980MOL0     H35180  10.011   7.343   9.946 -1.0178  3.3493 -0.2683
  980MOL0     H35181  10.130   7.359   9.676 -0.0512  1.7290  0.9549
  980MOL0     H35182   9.973   7.412   9.707  0.3050  1.4278  1.4320
  980MOL0     H35183  10.098   7.142   9.774  0.4091  0.8718  0.5410
  980MOL0     H35184   9.919   7.175   9.798 -1.2967  0.2823 -0.9671
  980MOL0     H35185  10.065   7.169   9.529 -2.5270 -0.7134 -4.2542
  980MOL0     H35186   9.890   7.171   9.558  0.6169  1.7151  2.1288
  980MOL0     H35187   9.955   6.946   9.519 -2.0114  0.0713  0.3057
  980MOL0     H35188  10.090   6.963   9.638  0.9481 -1.7689  0.5967
  980MOL0     H35189   9.708   7.044   9.631  1.9634  0.5888 -1.7324
  980MOL0     H35190   9.508   6.785   9.839  0.1321 -0.3642  1.0028
  980MOL0     H35191   9.467   6.906   9.731  0.7711 -2.6699 -0.9679
  980MOL0     H35192   9.610   6.962   9.990 -1.3078 -0.6793  1.6203
  980MOL0     H35193   9.522   7.089   9.884  1.4215  0.9414  2.4728
  980MOL0     H35194   9.400   6.864  10.046  2.1318  0.0782 -0.1651
  980MOL0     H35195   9.387   7.018  10.104 -1.4333 -2.5051  1.6346
  980MOL0     H35196   9.288   7.105   9.899 -0.0395 -0.0551 -0.8908
  980MOL0     H35197   9.284   6.947   9.830  0.9072  0.5563  0.6025
  980MOL0     H35198   8.925   6.995  10.115 -2.0697  0.4138  0.3111
  980MOL0     H35199   8.702   7.250  10.114 -0.4362 -1.1609  2.1600
  980MOL0     H35200   8.707   7.074  10.163  3.3308 -2.4947 -1.0357
  980MOL0     H35201   8.603   7.124  10.037 -0.6221  0.8320  1.2033
  980MOL0     H35202   8.542   7.213   9.623  0.8581  0.5025  1.1759
  980MOL0     H35203   8.368   7.259   9.443  1.0046 -2.5111  0.9600
  980MOL0     H35204   8.376   7.335   9.186 -0.3022  0.0613 -0.1568
  980MOL0     H35205   8.230   7.351   9.270  0.4130  0.4943  1.0380
  980MOL0     H35206   8.329   7.552   9.058  1.8969 -0.9664  1.7283
  980MOL0     H35207   8.219   7.422   9.024 -0.2820  1.5932 -1.3939
  980MOL0     H35208   8.197   7.673   9.202 -0.0275  0.3423 -1.9918
  980MOL0     H35209   8.080   7.545   9.235 -0.9653  2.5555  2.0426
  980MOL0     H35210   8.022   7.571   8.987  0.4389  1.0978 -1.1346
  980MOL0     H35211   8.101   7.725   8.998 -0.0071  0.1864  0.9134
  980MOL0     H35212   7.864   7.769   9.031 -0.2890  0.2533  0.3586
  980MOL0     H35213   7.853   7.659   9.164  0.4664 -0.6272  0.3229
  980MOL0     H35214   8.055   7.893   9.195 -1.9945  2.8280  1.9197
  980MOL0     H35215   7.988   7.777   9.312  0.6645  3.2743  2.5408
  980MOL0     H35216   7.759   7.850   9.251  0.4020 -1.3964 -0.7707
  980MOL0     H35217   7.818   7.992   9.182 -2.2157 -2.9087 -0.4137
  980MOL0     H35218   7.898   7.901   9.465 -0.1274 -0.3630 -0.9765
  980MOL0     H35219   7.744   7.974   9.445 -0.0871  1.8892 -1.1524
  980MOL0     H35220   8.567   7.638   9.379  1.0564  0.9408  0.3180
  980MOL0     H35221   8.740   7.572   9.555 -1.2848 -0.5281  1.1369
  980MOL0     H35222   8.907   7.188   9.665 -0.3469  0.6090  0.0818
  980MOL0     H35223   9.108   7.089   9.730 -0.4250  1.4710 -1.7851
  980MOL0     H35224  10.209   7.785  10.414 -0.0700 -0.3770 -1.5445
  980MOL0     H35225  10.093   7.911  10.589 -0.6799  2.5387 -5.1292
  980MOL0     H35226   9.598   7.865  10.824 -1.4101  0.4091  0.7353
  980MOL0     H35227   9.455   7.995  10.956  0.6328 -2.8703 -1.7662
  980MOL0     H35228   9.392   8.225  11.269 -0.9391  0.9705 -0.5757
  980MOL0     H35229   9.436   8.241  11.098  0.7780  1.0580  1.6745
  980MOL0     H35230   9.322   7.979  11.172  0.8080 -0.2322 -1.1047
  980MOL0     H35231   9.277   8.067  11.034  0.1806 -0.7168  0.2765
  980MOL0     H35232   9.180   8.194  11.274 -1.5702  1.1943 -0.2068
  980MOL0     H35233   9.089   8.167  11.123 -0.9284 -1.7823 -1.4557
  980MOL0     H35234   9.118   7.972  11.362  0.1666 -1.3626  0.1564
  980MOL0     H35235   9.088   7.907  11.208 -1.5058 -1.1566  2.7817
  980MOL0     H35236   8.711   8.089  11.284  0.8591 -0.3455 -0.9470
  980MOL0     H35237   9.759   8.031  11.255 -0.3115 -1.8202  0.8485
  980MOL0     H35238   9.968   7.938  11.219 -1.9112  1.8783 -1.0432
  980MOL0     H35239   9.956   7.774  11.138 -0.4886 -0.5408 -2.3599
  980MOL0     H35240  10.030   7.918  11.055 -0.6958  2.0328  0.0664
  981MOL0     O35241   8.867   9.436   1.139  0.4071 -0.4196  0.5911
  981MOL0     C35242   8.887   9.326   1.176 -0.1602 -0.5907  0.2855
  981MOL0     O35243   8.984   9.247   1.129 -0.3737  0.2453  0.0502
  981MOL0     C35244   9.052   9.272   1.009 -1.1420  0.0946 -0.6820
  981MOL0     C35245   9.047   9.180   0.906  0.6608  0.2371 -0.0736
  981MOL0     C35246   9.102   9.202   0.774  0.1281 -1.3668 -0.3286
  981MOL0     C35247   9.174   9.323   0.746 -0.3333  0.0882 -0.8321
  981MOL0     O35248   9.235   9.356   0.628 -0.4105 -0.2548 -1.3001
  981MOL0     C35249   9.286   9.252   0.548  0.2152 -0.2835 -0.1178
  981MOL0     C35250   9.198   9.242   0.424 -0.3792 -0.9025 -0.4384
  981MOL0     C35251   9.226   9.368   0.338  0.5716 -0.8739  0.2619
  981MOL0     C35252   9.162   9.347   0.210  0.8558 -0.2051  0.6852
  981MOL0     C35253   9.233   9.430   0.100  1.1079 -0.1880 -0.3626
  981MOL0     C35254   9.202   9.375  -0.036 -0.8065 -0.0008 -0.0799
  981MOL0     C35255   9.280   9.456  -0.143  0.2226  0.5487 -0.2654
  981MOL0     C35256   9.314   9.371  -0.268  0.7316  0.9184  0.8288
  981MOL0     N35257   9.199   9.379  -0.364  0.3018  1.0446 -0.2972
  981MOL0     C35258   9.066   9.333  -0.335  0.4370  0.2890 -0.2981
  981MOL0     C35259   8.992   9.363  -0.443 -0.5272  0.7598 -1.4852
  981MOL0     C35260   8.844   9.311  -0.446 -0.3123 -0.7681 -0.1482
  981MOL0     C35261   8.798   9.245  -0.572  0.1322 -0.6331 -0.2576
  981MOL0     C35262   8.699   9.131  -0.556  0.5381  0.0170 -0.0388
  981MOL0     C35263   8.561   9.180  -0.534  0.9554  0.1219  0.4561
  981MOL0     O35264   8.467   9.077  -0.565 -0.1206 -1.0713  0.2132
  981MOL0     C35265   8.398   9.011  -0.464 -0.4557  0.6700  0.7707
  981MOL0     C35266   8.436   9.029  -0.330 -0.2565  0.8931  0.7381
  981MOL0     C35267   8.390   8.954  -0.219 -0.2810 -0.3217 -0.0847
  981MOL0     C35268   8.446   8.975  -0.081 -0.4828  0.1869  0.2521
  981MOL0     C35269   8.281   8.867  -0.242 -0.6290  0.7097  0.0962
  981MOL0     C35270   8.206   8.779  -0.140 -0.4331 -0.0689  0.7847
  981MOL0     O35271   8.120   8.682  -0.187  0.0424 -0.2131 -0.9389
  981MOL0     C35272   8.020   8.648  -0.094  0.1544 -0.6441 -0.0096
  981MOL0     C35273   7.894   8.708  -0.105  0.2186 -0.3907 -1.2433
  981MOL0     C35274   7.793   8.685  -0.008 -0.7370 -0.1765  1.2461
  981MOL0     C35275   7.812   8.585   0.092 -0.2109 -0.1635  0.0656
  981MOL0     O35276   7.714   8.529   0.173 -0.6773 -0.6142  0.6794
  981MOL0     C35277   7.578   8.556   0.143  1.4375  0.3704  1.4076
  981MOL0     C35278   7.496   8.440   0.203  0.0567 -0.0788 -0.5120
  981MOL0     C35279   7.551   8.296   0.162 -0.0170  0.3304  0.3059
  981MOL0     C35280   7.446   8.185   0.220 -0.2360 -1.3504 -0.2989
  981MOL0     C35281   7.481   8.034   0.205 -0.0597 -0.4693 -0.2231
  981MOL0     C35282   7.601   8.001   0.285  0.1644 -0.6652 -1.1415
  981MOL0     C35283   7.599   7.859   0.347 -0.1338 -0.4366  0.5456
  981MOL0     C35284   7.698   7.846   0.462 -0.7413 -0.6640 -0.1746
  981MOL0    Cl35285   7.860   7.781   0.414 -0.2635  0.4779 -0.4602
  981MOL0     C35286   7.935   8.526   0.092 -0.7705  0.3438  0.4344
  981MOL0     C35287   8.041   8.547   0.007  0.1443 -0.3074 -1.2960
  981MOL0     O35288   8.212   8.814  -0.021 -0.7066  0.3779  0.7532
  981MOL0     C35289   8.226   8.855  -0.375 -0.0215 -0.5014  0.5665
  981MOL0     C35290   8.289   8.918  -0.483 -0.5515 -0.0788  0.3177
  981MOL0     N35291   9.065   9.447  -0.524  0.0198 -0.1239 -0.8665
  981MOL0     N35292   9.188   9.451  -0.474 -0.2843  0.0462 -0.1919
  981MOL0     C35293   9.182   9.413   0.855  0.3214  1.6222  0.6076
  981MOL0     C35294   9.127   9.389   0.985  1.2716 -0.1697  1.2344
  981MOL0     C35295   8.806   9.286   1.298 -0.0475  0.0744 -1.2574
  981MOL0     C35296   8.669   9.315   1.304  0.4050  0.4579  0.0550
  981MOL0     C35297   8.584   9.248   1.398 -0.4334 -0.3175 -0.0481
  981MOL0     C35298   8.643   9.159   1.489  0.5212 -0.5645  0.6452
  981MOL0     O35299   8.550   9.078   1.553 -0.1743  0.0719 -0.1507
  981MOL0     C35300   8.587   8.988   1.664 -0.4676  0.0622  0.8694
  981MOL0     C35301   8.614   8.846   1.600  0.3657 -0.0573 -0.3391
  981MOL0     C35302   8.677   8.746   1.703  0.4854  0.9855 -0.3900
  981MOL0     C35303   8.790   8.656   1.655  1.1371  1.2643 -0.7385
  981MOL0     C35304   8.806   8.552   1.756 -0.4209  1.0695  0.6658
  981MOL0     C35305   8.794   8.460   1.838  0.3875 -0.0348  0.5791
  981MOL0     C35306   8.784   9.137   1.483 -0.0595  0.6458 -0.8722
  981MOL0     C35307   8.863   9.212   1.402  0.1910  0.6617 -0.4158
  981MOL0     C35308   9.006   9.209   1.434 -0.6182  0.6955  0.5881
  981MOL0     H35309   8.979   9.096   0.918 -2.5085  2.6795  0.4366
  981MOL0     H35310   9.074   9.129   0.699 -1.7297 -0.1667 -0.8779
  981MOL0     H35311   9.275   9.151   0.589  3.6431 -0.0231  1.7807
  981MOL0     H35312   9.390   9.283   0.531  0.1323  0.0452 -0.0183
  981MOL0     H35313   9.227   9.150   0.372 -1.2831 -1.4529 -0.0043
  981MOL0     H35314   9.095   9.229   0.457 -0.6205 -2.4861 -1.6645
  981MOL0     H35315   9.179   9.457   0.381  0.6508 -1.1146  0.8553
  981MOL0     H35316   9.333   9.388   0.325  0.5586 -0.9816 -0.0330
  981MOL0     H35317   9.162   9.245   0.170  1.7626 -0.0080  0.1615
  981MOL0     H35318   9.060   9.388   0.206  0.7123 -0.4813 -3.9790
  981MOL0     H35319   9.339   9.414   0.120  0.8405 -0.4496  0.9010
  981MOL0     H35320   9.202   9.535   0.095 -0.3754 -0.4633  1.7557
  981MOL0     H35321   9.235   9.271  -0.042 -0.7533 -0.2924  3.2926
  981MOL0     H35322   9.096   9.372  -0.063 -0.2468  0.5247 -2.5896
  981MOL0     H35323   9.383   9.465  -0.108  0.5581 -1.3543 -0.6535
  981MOL0     H35324   9.235   9.555  -0.159 -0.4871  0.3431  0.3966
  981MOL0     H35325   9.403   9.418  -0.310 -0.8487  0.4163 -3.6196
  981MOL0     H35326   9.338   9.269  -0.239  2.0590  1.5990  2.2645
  981MOL0     H35327   9.040   9.263  -0.256 -2.2642  0.8177 -0.6421
  981MOL0     H35328   8.780   9.399  -0.434 -1.7455 -2.0291  2.2835
  981MOL0     H35329   8.835   9.243  -0.360 -0.8207 -0.2796  0.1903
  981MOL0     H35330   8.759   9.320  -0.642 -1.6154 -4.2638 -3.5503
  981MOL0     H35331   8.888   9.196  -0.610  1.1796 -1.1307  2.6408
  981MOL0     H35332   8.709   9.069  -0.646  0.4558 -1.0793  0.6846
  981MOL0     H35333   8.723   9.071  -0.468  0.0806 -2.4013 -1.4577
  981MOL0     H35334   8.542   9.235  -0.442 -1.2351  1.9890 -0.9814
  981MOL0     H35335   8.547   9.255  -0.613  3.9813  0.3846  0.0591
  981MOL0     H35336   8.511   9.096  -0.290  0.9776 -1.7067  3.1971
  981MOL0     H35337   8.466   8.883  -0.026  0.8901  1.2472  1.6181
  981MOL0     H35338   8.376   9.035  -0.022 -1.3533  0.0253 -0.5862
  981MOL0     H35339   8.531   9.043  -0.091 -1.3567  1.2266 -0.3446
  981MOL0     H35340   7.872   8.772  -0.190 -1.0856  1.3030  0.3016
  981MOL0     H35341   7.698   8.736   0.001 -0.8986 -0.3852  0.7662
  981MOL0     H35342   7.542   8.655   0.173  0.3304  0.1729  0.8043
  981MOL0     H35343   7.570   8.562   0.034  2.0351  1.9158  1.4258
  981MOL0     H35344   7.492   8.447   0.312  4.6832  1.8894 -0.2163
  981MOL0     H35345   7.393   8.439   0.168 -0.2351 -1.1743  0.3353
  981MOL0     H35346   7.652   8.267   0.192 -0.8730 -2.4185  0.7895
  981MOL0     H35347   7.535   8.274   0.056 -3.3442 -3.7717  1.3917
  981MOL0     H35348   7.350   8.186   0.169 -0.2753  0.9940 -0.3124
  981MOL0     H35349   7.420   8.213   0.322 -0.7568 -0.7244 -0.5947
  981MOL0     H35350   7.394   7.979   0.243  2.1153 -3.0348  1.3776
  981MOL0     H35351   7.480   8.000   0.101  0.4350  1.8237 -1.0244
  981MOL0     H35352   7.591   8.073   0.367  1.0162  1.2650 -2.6433
  981MOL0     H35353   7.694   8.022   0.232  0.9704  1.0261  0.8118
  981MOL0     H35354   7.616   7.792   0.263  3.8136  0.7425  0.2140
  981MOL0     H35355   7.503   7.844   0.397  0.0132  2.6481  2.0247
  981MOL0     H35356   7.653   7.777   0.534 -3.3506  2.6018  1.5793
  981MOL0     H35357   7.695   7.947   0.504 -2.1204 -0.0675 -1.6048
  981MOL0     H35358   7.963   8.456   0.170 -3.5462 -1.7252 -0.2498
  981MOL0     H35359   8.139   8.501   0.015 -0.7565 -2.0136  0.8526
  981MOL0     H35360   8.137   8.797  -0.400  0.5019 -0.5131 -1.5003
  981MOL0     H35361   8.251   8.896  -0.582  2.3723 -3.7417 -0.1923
  981MOL0     H35362   9.226   9.509   0.828 -0.8546  1.7414 -1.0944
  981MOL0     H35363   9.141   9.453   1.072  1.4138  1.6003 -0.0391
  981MOL0     H35364   8.623   9.369   1.223  1.2508  0.2940 -0.5525
  981MOL0     H35365   8.477   9.265   1.393 -0.2913  0.9946  0.9290
  981MOL0     H35366   8.678   9.017   1.718  1.2555 -3.2683  0.0475
  981MOL0     H35367   8.504   8.984   1.735 -1.4674 -0.1363 -0.2793
  981MOL0     H35368   8.679   8.866   1.514 -2.6358  2.4743 -2.2412
  981MOL0     H35369   8.526   8.806   1.550  2.3421 -2.9543 -1.8176
  981MOL0     H35370   8.712   8.805   1.788  0.5207 -1.1365  1.1395
  981MOL0     H35371   8.594   8.684   1.737 -0.2566  0.9054 -2.2093
  981MOL0     H35372   8.883   8.712   1.640  2.4179 -1.0137 -1.8471
  981MOL0     H35373   8.767   8.601   1.563  0.5882  0.5950 -0.2165
  981MOL0     H35374   8.783   8.382   1.911 -0.6030  0.4193  0.9232
  981MOL0     H35375   8.818   9.075   1.566 -2.8684  0.7993  0.5494
  981MOL0     H35376   9.032   9.175   1.534 -0.1890  2.2655  1.0426
  981MOL0     H35377   9.050   9.150   1.354 -1.1393  1.0593  0.0160
  981MOL0     H35378   9.040   9.312   1.417  1.1397 -0.1236 -1.1804
  982MOL0     O35379   4.404   1.273   9.176 -0.1141  0.6228 -0.8026
  982MOL0     C35380   4.298   1.212   9.183  0.4979 -0.0466 -0.6286
  982MOL0     O35381   4.224   1.199   9.296 -0.7352 -0.7217 -0.0262
  982MOL0     C35382   4.255   1.279   9.409  0.4787  0.1536  0.0015
  982MOL0     C35383   4.219   1.412   9.413 -0.0296  0.2937  0.5395
  982MOL0     C35384   4.247   1.485   9.529  0.3282 -0.9101  0.7579
  982MOL0     C35385   4.301   1.425   9.650  0.0411 -0.5694  0.3720
  982MOL0     O35386   4.317   1.488   9.766 -0.3102  0.2082  0.8594
  982MOL0     C35387   4.392   1.611   9.760  0.4888  0.1101  0.5741
  982MOL0     C35388   4.514   1.597   9.843 -0.5410  0.7499  0.2819
  982MOL0     C35389   4.609   1.486   9.775 -0.8092 -0.5519  0.1172
  982MOL0     C35390   4.747   1.468   9.851  0.0332  0.3329  0.6560
  982MOL0     C35391   4.744   1.408   9.991 -0.7848  1.0304  0.7278
  982MOL0     C35392   4.715   1.250   9.984 -0.8227  0.1034  0.8182
  982MOL0     C35393   4.733   1.180  10.113 -0.1806  0.4327  1.1647
  982MOL0     C35394   4.759   1.029  10.096  0.6288  0.0522  0.0917
  982MOL0     N35395   4.899   0.993  10.085 -0.7444 -0.5853 -0.1346
  982MOL0     C35396   4.974   0.939  10.182  0.0708 -0.1599  0.4859
  982MOL0     C35397   5.095   0.920  10.127 -0.1390 -0.2204 -0.1729
  982MOL0     C35398   5.208   0.846  10.193  0.7726 -0.3604 -0.0375
  982MOL0     C35399   5.262   0.907  10.313  0.2079 -0.5900 -0.8661
  982MOL0     C35400   5.380   1.004  10.289  0.5067  0.0791  0.8569
  982MOL0     C35401   5.407   1.077  10.415  0.5219 -0.3921 -0.2337
  982MOL0     O35402   5.549   1.116  10.405 -0.0060 -0.0290 -0.8104
  982MOL0     C35403   5.636   1.010  10.418  0.3769 -0.4950 -1.6785
  982MOL0     C35404   5.620   0.903  10.510 -0.1395 -1.8323 -0.4703
  982MOL0     C35405   5.726   0.815  10.527  0.3596 -0.2153 -0.0652
  982MOL0     C35406   5.710   0.694  10.617  0.3267 -0.2692 -0.1538
  982MOL0     C35407   5.846   0.841  10.463 -0.1956  0.1081  0.0547
  982MOL0     C35408   5.977   0.771  10.496  0.4446 -0.9637  0.1971
  982MOL0     O35409   6.052   0.757  10.388 -0.1538 -0.4119  0.9196
  982MOL0     C35410   6.190   0.749  10.386  1.0174  0.0995  0.0203
  982MOL0     C35411   6.278   0.801  10.480 -1.2404 -0.5167 -0.6098
  982MOL0     C35412   6.414   0.789  10.455  1.4280 -0.6289  0.2109
  982MOL0     C35413   6.456   0.722  10.336  0.3068 -0.0004 -0.7546
  982MOL0     O35414   6.585   0.697  10.296 -0.4794  0.2754 -1.0769
  982MOL0     C35415   6.690   0.747  10.384  0.3565 -0.6044 -0.9029
  982MOL0     C35416   6.823   0.728  10.327  0.6755  0.0785  1.1655
  982MOL0     C35417   6.873   0.583  10.330  0.1826  0.0345 -0.7411
  982MOL0     C35418   6.993   0.551  10.236 -1.0655  0.3600 -0.7510
  982MOL0     C35419   7.061   0.406  10.255 -0.1953  0.3803 -0.5679
  982MOL0     C35420   6.963   0.293  10.242 -0.4629 -0.0461 -0.7401
  982MOL0     C35421   7.020   0.156  10.259  0.2133 -0.0563  0.1653
  982MOL0     C35422   6.988   0.070  10.129  0.1726 -0.0732  0.1882
  982MOL0    Cl35423   7.094   0.086   9.988 -0.1127 -0.0131  0.8554
  982MOL0     C35424   6.367   0.662  10.251  0.6600 -0.5997 -0.3422
  982MOL0     C35425   6.234   0.672  10.280  0.5254 -0.1850  1.0829
  982MOL0     O35426   6.009   0.761  10.611 -0.3150  0.1010 -0.4375
  982MOL0     C35427   5.853   0.945  10.375 -1.3290  0.3143 -0.3900
  982MOL0     C35428   5.754   1.033  10.357  0.1282 -0.1622 -0.6890
  982MOL0     N35429   5.103   0.977  10.003 -0.6877 -0.6734 -0.3547
  982MOL0     N35430   4.979   1.008   9.974  0.4455  0.5584  0.5108
  982MOL0     C35431   4.336   1.288   9.636  0.2817 -0.1904 -0.2888
  982MOL0     C35432   4.318   1.217   9.514 -0.4654 -0.1187 -0.0508
  982MOL0     C35433   4.267   1.122   9.073 -0.1403  0.6715  0.6087
  982MOL0     C35434   4.152   1.047   9.095 -0.0051  0.6294  1.2475
  982MOL0     C35435   4.107   0.957   8.998  0.1150 -0.6216 -0.6884
  982MOL0     C35436   4.185   0.946   8.888  0.5074 -0.2470  0.5160
  982MOL0     O35437   4.154   0.847   8.792  0.4111  0.4804 -0.1379
  982MOL0     C35438   4.012   0.850   8.747  0.2728  1.5173 -0.4172
  982MOL0     C35439   4.016   0.791   8.601  0.2751 -0.2943 -0.1229
  982MOL0     C35440   4.139   0.839   8.521  0.6700  0.3109 -0.7768
  982MOL0     C35441   4.161   0.766   8.387  1.0100  0.5357  0.5392
  982MOL0     C35442   4.037   0.762   8.301  1.1039  0.0561  0.4935
  982MOL0     C35443   3.933   0.778   8.238 -0.4070  0.0696 -0.2227
  982MOL0     C35444   4.307   1.009   8.856  0.4715  0.5378  1.0043
  982MOL0     C35445   4.345   1.103   8.951 -0.8374 -0.4214  0.2854
  982MOL0     C35446   4.470   1.184   8.916 -0.2189  0.0295 -0.2831
  982MOL0     H35447   4.185   1.469   9.326  1.8681  3.7192  1.8614
  982MOL0     H35448   4.201   1.583   9.534  1.1188 -0.4387 -0.5672
  982MOL0     H35449   4.338   1.696   9.802  2.3603  0.4607  2.4126
  982MOL0     H35450   4.420   1.642   9.659 -2.1468  1.6327  0.2090
  982MOL0     H35451   4.573   1.689   9.846  0.1123  0.5942 -3.4036
  982MOL0     H35452   4.486   1.562   9.943 -1.7086 -0.2763 -0.3690
  982MOL0     H35453   4.564   1.387   9.759 -1.0499 -0.2639 -1.1040
  982MOL0     H35454   4.640   1.524   9.677 -0.2003 -1.4579 -0.0635
  982MOL0     H35455   4.799   1.405   9.779 -2.9292 -0.2966 -1.1148
  982MOL0     H35456   4.806   1.560   9.856 -0.1731  0.4185  1.7524
  982MOL0     H35457   4.665   1.463  10.043 -1.6296  1.5951 -1.0869
  982MOL0     H35458   4.841   1.426  10.039 -1.8328  2.0212  2.5897
  982MOL0     H35459   4.622   1.237   9.927  0.3649  0.5685 -1.3261
  982MOL0     H35460   4.796   1.216   9.918 -1.0967  0.0910  0.4848
  982MOL0     H35461   4.646   1.187  10.179  0.2192 -3.4248  2.3572
  982MOL0     H35462   4.819   1.228  10.161 -0.5814  2.7592 -0.2824
  982MOL0     H35463   4.710   0.976  10.178  1.5188  1.2858  1.4723
  982MOL0     H35464   4.702   0.998  10.008 -2.0927  0.4080  1.6276
  982MOL0     H35465   4.939   0.918  10.283  1.3405 -0.1272  0.9590
  982MOL0     H35466   5.293   0.819  10.130  1.2053  0.4648  0.1768
  982MOL0     H35467   5.156   0.752  10.212 -0.3225 -0.4449 -3.0589
  982MOL0     H35468   5.179   0.956  10.365  1.1613  0.1994 -0.0311
  982MOL0     H35469   5.301   0.822  10.370  0.6564  0.6923  0.8344
  982MOL0     H35470   5.467   0.948  10.252 -0.7272 -1.5861  0.2864
  982MOL0     H35471   5.343   1.067  10.207  2.8468 -0.2717 -0.5576
  982MOL0     H35472   5.347   1.168  10.419  1.4599  0.2201  0.3809
  982MOL0     H35473   5.384   1.026  10.509 -1.6481  0.2268 -0.3797
  982MOL0     H35474   5.533   0.901  10.574  0.8373 -0.2273  0.9695
  982MOL0     H35475   5.801   0.634  10.608  0.0781 -0.7824  0.6468
  982MOL0     H35476   5.617   0.640  10.594  0.9528 -0.4509 -2.5927
  982MOL0     H35477   5.693   0.714  10.723  0.2464 -2.5483  0.3115
  982MOL0     H35478   6.246   0.849  10.572 -3.0031 -0.1339 -1.3819
  982MOL0     H35479   6.475   0.847  10.524 -0.5065  2.4013 -0.4505
  982MOL0     H35480   6.676   0.852  10.413  3.3943 -0.6651  1.2095
  982MOL0     H35481   6.684   0.697  10.481  0.9053  1.6364  0.3704
  982MOL0     H35482   6.812   0.767  10.225  0.5963  0.7946  1.4387
  982MOL0     H35483   6.895   0.798  10.371 -1.2193  2.4572  0.7283
  982MOL0     H35484   6.789   0.531  10.285  0.4607 -0.0238 -1.1978
  982MOL0     H35485   6.890   0.538  10.428 -0.9716  0.1501 -0.4771
  982MOL0     H35486   7.077   0.613  10.269 -1.6186  0.5087  0.4170
  982MOL0     H35487   6.958   0.562  10.133 -1.4674  0.5582 -0.5924
  982MOL0     H35488   7.135   0.392  10.176  1.1616  0.1304  0.7065
  982MOL0     H35489   7.112   0.412  10.351  2.6291  3.0517 -2.0577
  982MOL0     H35490   6.900   0.307  10.154  0.8087 -1.2092 -1.8875
  982MOL0     H35491   6.901   0.305  10.332 -1.5571  1.2268 -1.6338
  982MOL0     H35492   6.976   0.110  10.348 -0.2461 -1.6183 -0.8345
  982MOL0     H35493   7.126   0.151  10.285  0.5686  0.5007 -1.0960
  982MOL0     H35494   6.890   0.101  10.092  0.0923  1.6276  1.7033
  982MOL0     H35495   6.977  -0.030  10.174 -2.3635  0.5340  1.0852
  982MOL0     H35496   6.392   0.603  10.163  1.6064  0.0363 -0.5122
  982MOL0     H35497   6.163   0.638  10.206 -0.9799 -2.1982  3.3334
  982MOL0     H35498   5.947   0.958  10.322 -0.7336  0.0862  0.5740
  982MOL0     H35499   5.763   1.125  10.301 -0.1537  0.0981 -0.3147
  982MOL0     H35500   4.375   1.234   9.721 -0.5066 -1.1111 -0.5003
  982MOL0     H35501   4.349   1.113   9.513  1.7047  0.4726 -1.4140
  982MOL0     H35502   4.089   1.066   9.181 -1.4790 -0.8778  0.5615
  982MOL0     H35503   4.018   0.896   9.012 -1.2657  0.7997 -2.7395
  982MOL0     H35504   3.942   0.789   8.804  2.0942  1.1099  1.4716
  982MOL0     H35505   3.955   0.943   8.747  1.0723  2.0322  1.1356
  982MOL0     H35506   3.923   0.810   8.548  1.2006  1.8416 -1.1116
  982MOL0     H35507   4.022   0.681   8.599  2.1103 -0.2406 -2.1246
  982MOL0     H35508   4.118   0.946   8.503 -1.8085  0.0485  0.0991
  982MOL0     H35509   4.231   0.824   8.578 -0.0372  2.2867  1.0285
  982MOL0     H35510   4.199   0.666   8.405 -2.1228 -0.5473  1.9248
  982MOL0     H35511   4.234   0.821   8.328 -0.2933  0.0923 -1.6136
  982MOL0     H35512   3.852   0.812   8.177 -1.3955  0.7355  1.3947
  982MOL0     H35513   4.365   0.998   8.765 -0.9483  1.9046 -0.1287
  982MOL0     H35514   4.543   1.183   8.998  0.8929  0.5828 -1.2180
  982MOL0     H35515   4.517   1.138   8.828  0.6947 -0.4968  0.4674
  982MOL0     H35516   4.441   1.286   8.886  0.1451 -0.5817 -2.9644
  983MOL0     O35517   0.502  11.335   8.380 -0.1112  0.1963 -0.1611
  983MOL0     C35518   0.443  11.241   8.330 -0.3736  0.5950  0.1460
  983MOL0     O35519   0.489  11.110   8.331  0.4405  0.6228  0.3705
  983MOL0     C35520   0.610  11.087   8.390 -0.7396  0.6543 -0.4170
  983MOL0     C35521   0.732  11.097   8.316 -0.2470 -0.1363  0.3361
  983MOL0     C35522   0.855  11.059   8.380 -0.2087 -0.7428 -0.5255
  983MOL0     C35523   0.851  11.030   8.516  1.0941  0.5641 -0.7589
  983MOL0     O35524   0.974  11.015   8.571  0.3185  0.3524  0.2229
  983MOL0     C35525   0.999  10.891   8.636  0.5694  0.6914 -1.0002
  983MOL0     C35526   1.143  10.858   8.651  0.4107  0.4414 -0.0068
  983MOL0     C35527   1.222  10.841   8.514  0.4566 -0.3618 -0.5464
  983MOL0     C35528   1.370  10.795   8.541  0.6455 -0.3815  0.4821
  983MOL0     C35529   1.448  10.784   8.408  0.7170  0.0431  0.0526
  983MOL0     C35530   1.407  10.669   8.318  0.2903  0.6829  0.0785
  983MOL0     C35531   1.462  10.532   8.368 -0.0944  0.1896  0.1483
  983MOL0     C35532   1.362  10.423   8.355 -0.6769 -0.0927 -0.6752
  983MOL0     N35533   1.251  10.455   8.451 -0.7296  0.4937  0.1951
  983MOL0     C35534   1.257  10.437   8.588  0.1734 -0.5087  0.3226
  983MOL0     C35535   1.133  10.459   8.635  0.3500 -0.0735 -0.0738
  983MOL0     C35536   1.068  10.446   8.776 -0.2991 -0.2345  0.0467
  983MOL0     C35537   0.938  10.365   8.784 -0.2269 -0.5529  0.6539
  983MOL0     C35538   0.914  10.316   8.935  0.0114  0.1993  0.7503
  983MOL0     C35539   0.798  10.362   9.013  0.1707 -0.7356  0.4860
  983MOL0     O35540   0.785  10.504   8.984 -0.3940  0.8373  0.0995
  983MOL0     C35541   0.666  10.566   9.015  0.0167  1.1214  0.6448
  983MOL0     C35542   0.642  10.690   8.975 -0.2778 -0.4698  0.0569
  983MOL0     C35543   0.532  10.768   9.002 -0.5161  0.4706 -0.1682
  983MOL0     C35544   0.546  10.908   8.949 -0.0466  0.0187 -0.2543
  983MOL0     C35545   0.422  10.705   9.075 -0.4705 -0.1888  0.4828
  983MOL0     C35546   0.295  10.770   9.100 -0.0826  0.2671  1.1348
  983MOL0     O35547   0.306  10.907   9.120  0.0726 -0.1197  0.7720
  983MOL0     C35548   0.194  10.981   9.169  0.0370 -0.0725  0.3391
  983MOL0     C35549   0.144  10.959   9.298 -0.1679  0.1910 -0.6173
  983MOL0     C35550   0.024  11.024   9.333 -0.3463  0.1966 -0.3742
  983MOL0     C35551  -0.046  11.105   9.245 -0.0418 -0.0622 -0.0461
  983MOL0     O35552  -0.165  11.144   9.304  0.1349 -0.0145  0.2140
  983MOL0     C35553  -0.271  11.196   9.218  0.2593 -0.9613 -0.4326
  983MOL0     C35554  -0.403  11.207   9.293 -0.0586 -0.3459 -0.0064
  983MOL0     C35555  -0.520  11.239   9.187 -0.1978 -0.0357 -0.3865
  983MOL0     C35556  -0.536  11.397   9.204 -0.0750  0.7930 -0.7881
  983MOL0     C35557  -0.668  11.441   9.135  0.5433  0.4795  0.0623
  983MOL0     C35558  -0.796  11.388   9.215 -0.5969 -0.0058  0.2968
  983MOL0     C35559  -0.920  11.429   9.136 -0.4068  0.2182  0.3544
  983MOL0     C35560  -1.036  11.324   9.166  0.3922 -0.7994  0.1910
  983MOL0    Cl35561  -1.002  11.186   9.055 -0.1563  0.0547  0.0224
  983MOL0     C35562  -0.002  11.121   9.110 -1.2339 -0.4493 -0.0824
  983MOL0     C35563   0.122  11.058   9.076  0.7490 -0.6010 -0.4686
  983MOL0     O35564   0.194  10.707   9.088 -0.9686  0.8653 -0.0097
  983MOL0     C35565   0.438  10.573   9.112  1.1908  0.7613 -0.1045
  983MOL0     C35566   0.563  10.510   9.088  0.3724 -0.1872  0.2641
  983MOL0     N35567   1.048  10.489   8.529  0.0559  0.4192  0.0839
  983MOL0     N35568   1.118  10.473   8.424 -0.1001 -0.0817  0.2988
  983MOL0     C35569   0.728  11.022   8.588 -0.2194  0.2538 -0.9163
  983MOL0     C35570   0.604  11.049   8.524 -0.1038 -0.1609 -0.4969
  983MOL0     C35571   0.307  11.257   8.268 -0.3860 -0.1166 -0.2450
  983MOL0     C35572   0.192  11.242   8.349  0.6563  0.8515 -0.5256
  983MOL0     C35573   0.067  11.269   8.288  0.2042  0.3061 -0.6804
  983MOL0     C35574   0.053  11.298   8.153 -0.4513  0.1815  0.0257
  983MOL0     O35575  -0.079  11.301   8.110  0.4219 -0.4636 -0.0385
  983MOL0     C35576  -0.128  11.393   8.012  0.1570 -0.4844 -0.2981
  983MOL0     C35577  -0.182  11.322   7.892 -0.0718 -0.4523 -0.1684
  983MOL0     C35578  -0.068  11.282   7.815  0.3846 -0.2854  0.0256
  983MOL0     C35579  -0.088  11.242   7.669  0.4032 -0.4954 -0.0458
  983MOL0     C35580  -0.192  11.152   7.646  0.1189 -0.4771 -0.2768
  983MOL0     C35581  -0.281  11.072   7.632 -1.7700 -0.4655  0.6635
  983MOL0     C35582   0.172  11.331   8.089  0.0558  0.5484  0.1727
  983MOL0     C35583   0.297  11.310   8.143 -0.1677 -0.4127  0.5266
  983MOL0     C35584   0.407  11.369   8.055 -0.1882 -0.1473  0.1083
  983MOL0     H35585   0.723  11.118   8.210  0.7948 -1.2602  0.0034
  983MOL0     H35586   0.947  11.061   8.323 -0.3242 -2.1527 -0.7779
  983MOL0     H35587   0.952  10.805   8.587  2.2257 -1.9905  1.7256
  983MOL0     H35588   0.957  10.875   8.736  4.0883 -1.0525  0.4116
  983MOL0     H35589   1.188  10.935   8.715 -1.6077  2.5814 -1.0088
  983MOL0     H35590   1.145  10.764   8.706 -1.3008  2.3867  3.7524
  983MOL0     H35591   1.171  10.760   8.462  0.0244 -0.6524  0.3133
  983MOL0     H35592   1.211  10.934   8.456 -0.8870  0.8017  1.4316
  983MOL0     H35593   1.427  10.866   8.601 -0.5884  0.3667  0.8055
  983MOL0     H35594   1.355  10.695   8.583  0.7710  0.2654  2.1376
  983MOL0     H35595   1.555  10.788   8.426  1.2248  3.0663 -2.8516
  983MOL0     H35596   1.438  10.876   8.350 -1.2308 -1.4962 -2.2733
  983MOL0     H35597   1.300  10.650   8.312  0.3417 -0.3498  1.8664
  983MOL0     H35598   1.448  10.697   8.220 -2.1240  0.6381 -0.9971
  983MOL0     H35599   1.503  10.530   8.470  2.7702 -2.1746 -0.8753
  983MOL0     H35600   1.545  10.492   8.309  0.9870 -0.6383  2.1291
  983MOL0     H35601   1.331  10.395   8.255  2.1250 -1.9519 -1.1354
  983MOL0     H35602   1.412  10.333   8.393 -0.2107  0.6057  0.4433
  983MOL0     H35603   1.343  10.420   8.650  0.6879  0.0455 -0.2248
  983MOL0     H35604   1.050  10.546   8.816 -0.9867  0.2192 -1.3201
  983MOL0     H35605   1.142  10.398   8.840  0.5913 -0.2367 -0.9469
  983MOL0     H35606   0.855  10.427   8.750  1.5725  0.7311 -1.7193
  983MOL0     H35607   0.941  10.281   8.713  1.7931 -0.1358  0.1653
  983MOL0     H35608   0.911  10.206   8.937 -0.9331 -0.0635 -3.9515
  983MOL0     H35609   0.999  10.350   8.995 -1.4711  3.6040  1.1341
  983MOL0     H35610   0.705  10.311   8.986 -1.0361  0.4937  2.1139
  983MOL0     H35611   0.807  10.346   9.121  2.7665 -1.8924  0.1825
  983MOL0     H35612   0.727  10.726   8.919  1.7877 -0.9833  2.6546
  983MOL0     H35613   0.453  10.928   8.894 -0.3481 -0.1595  0.1835
  983MOL0     H35614   0.629  10.908   8.878 -0.1784  1.3086 -0.4290
  983MOL0     H35615   0.563  10.975   9.034  1.0620  0.6204 -0.9375
  983MOL0     H35616   0.199  10.907   9.376 -1.7464  1.6620  1.6190
  983MOL0     H35617  -0.016  11.002   9.431 -0.6865 -1.5624 -0.8642
  983MOL0     H35618  -0.246  11.289   9.166 -3.0392 -2.0226 -4.4951
  983MOL0     H35619  -0.284  11.121   9.140  0.1489 -3.7085  2.0643
  983MOL0     H35620  -0.424  11.121   9.358  1.7566 -0.5841  0.3225
  983MOL0     H35621  -0.389  11.292   9.361 -0.6908 -0.8249  0.7404
  983MOL0     H35622  -0.609  11.181   9.212 -0.6422  0.7427 -0.1299
  983MOL0     H35623  -0.491  11.220   9.083 -1.2756  0.3316 -0.7656
  983MOL0     H35624  -0.456  11.444   9.146  0.0408 -0.9362 -2.1133
  983MOL0     H35625  -0.530  11.427   9.309 -1.2569 -3.6134  0.7895
  983MOL0     H35626  -0.673  11.549   9.124 -0.6085  0.7605  2.8008
  983MOL0     H35627  -0.672  11.419   9.027  0.3607 -0.0524  0.1732
  983MOL0     H35628  -0.796  11.435   9.314  0.3663  0.4468  0.0947
  983MOL0     H35629  -0.793  11.280   9.231 -2.4015 -0.0303  0.6638
  983MOL0     H35630  -0.909  11.438   9.028 -0.6899 -0.1488  0.2974
  983MOL0     H35631  -0.954  11.520   9.187  1.7576  0.5529  1.3387
  983MOL0     H35632  -1.132  11.372   9.148  1.4457  1.1127 -0.6713
  983MOL0     H35633  -1.045  11.284   9.267 -2.1743  1.0572  0.7741
  983MOL0     H35634  -0.059  11.190   9.049 -1.2052  0.2818  0.6803
  983MOL0     H35635   0.172  11.064   8.980  1.9181 -1.1328  0.0856
  983MOL0     H35636   0.353  10.529   9.164  0.0796 -0.5768 -2.8813
  983MOL0     H35637   0.566  10.412   9.136 -0.8355 -0.9872 -1.2106
  983MOL0     H35638   0.720  10.999   8.694 -2.3652 -0.3323 -1.1543
  983MOL0     H35639   0.519  11.033   8.590 -0.8202  0.1550 -1.3308
  983MOL0     H35640   0.191  11.206   8.451 -2.4452 -1.8562 -1.3486
  983MOL0     H35641  -0.029  11.256   8.336 -0.9806 -1.0936 -3.2539
  983MOL0     H35642  -0.212  11.447   8.057  2.1811  0.8209  2.1911
  983MOL0     H35643  -0.054  11.471   7.990 -1.2641  0.7464 -0.9308
  983MOL0     H35644  -0.249  11.397   7.847 -3.7624 -1.0727  3.6105
  983MOL0     H35645  -0.241  11.236   7.925  0.4758  0.3827  3.4087
  983MOL0     H35646  -0.008  11.372   7.798 -1.2652  0.5472 -1.8934
  983MOL0     H35647  -0.017  11.195   7.856  1.5338 -0.2342 -1.2298
  983MOL0     H35648   0.007  11.200   7.633  0.9615 -0.7790  1.6547
  983MOL0     H35649  -0.102  11.329   7.604  0.6361 -1.0954 -0.9256
  983MOL0     H35650  -0.375  11.020   7.629 -1.0617 -1.7872  0.0321
  983MOL0     H35651   0.176  11.375   7.990  2.7648  0.0701  0.0051
  983MOL0     H35652   0.392  11.334   7.953 -0.8298  0.8436 -0.1573
  983MOL0     H35653   0.415  11.478   8.068  1.7724 -0.1332 -0.9068
  983MOL0     H35654   0.500  11.320   8.085 -0.0086 -0.0746 -0.3211
  984MOL0     O35655   7.402   5.187   3.285 -0.3328 -0.0653 -0.1817
  984MOL0     C35656   7.387   5.307   3.316 -0.8188  1.2037 -0.1861
  984MOL0     O35657   7.485   5.403   3.330  0.3838 -0.1975 -0.7036
  984MOL0     C35658   7.621   5.370   3.323  0.5813 -0.3523  0.3407
  984MOL0     C35659   7.696   5.386   3.435 -0.7789 -0.1437 -0.1561
  984MOL0     C35660   7.828   5.345   3.436  0.2936  0.3488  0.2719
  984MOL0     C35661   7.889   5.290   3.328 -0.8613  0.1557  0.1958
  984MOL0     O35662   8.014   5.238   3.311  0.6799 -1.0095 -0.2132
  984MOL0     C35663   8.098   5.252   3.423 -0.4083  0.2466 -0.1862
  984MOL0     C35664   8.248   5.237   3.382 -0.2510  0.6166 -1.0261
  984MOL0     C35665   8.338   5.253   3.512 -0.3644 -0.1326 -0.6377
  984MOL0     C35666   8.471   5.164   3.503  0.5025  0.6812 -0.4826
  984MOL0     C35667   8.590   5.233   3.445  0.6522  0.1121 -0.1482
  984MOL0     C35668   8.697   5.134   3.443  0.6924 -0.4615  0.4018
  984MOL0     C35669   8.817   5.195   3.367 -0.2708  0.4943 -0.4436
  984MOL0     C35670   8.934   5.112   3.364 -0.2042 -0.0547 -0.0643
  984MOL0     N35671   9.056   5.184   3.308  0.5778  1.3298 -0.3955
  984MOL0     C35672   9.188   5.147   3.328 -0.2237 -0.4255 -0.7986
  984MOL0     C35673   9.261   5.235   3.253 -0.2321 -0.4159 -0.2777
  984MOL0     C35674   9.404   5.213   3.231 -0.7111 -0.3778 -0.4728
  984MOL0     C35675   9.498   5.337   3.254 -0.7919  0.1330 -0.3395
  984MOL0     C35676   9.566   5.420   3.142  0.1246 -0.0157 -0.2613
  984MOL0     C35677   9.655   5.331   3.052 -0.7868 -0.6791  0.0537
  984MOL0     O35678   9.749   5.245   3.114  0.3048  0.3597  0.8326
  984MOL0     C35679   9.850   5.290   3.194  0.1761  1.0198  0.3206
  984MOL0     C35680   9.901   5.422   3.197  0.6183 -0.1933  0.1831
  984MOL0     C35681  10.008   5.455   3.285 -0.1233  0.2686  0.6777
  984MOL0     C35682  10.038   5.600   3.283 -0.5808 -0.0332  0.1818
  984MOL0     C35683  10.059   5.362   3.381  0.2744  0.6854 -0.3272
  984MOL0     C35684  10.173   5.395   3.484  1.3851  0.2249 -0.3950
  984MOL0     O35685  10.201   5.287   3.567 -0.6484 -0.2922 -0.4953
  984MOL0     C35686  10.301   5.304   3.661 -0.5649  0.5006 -0.2992
  984MOL0     C35687  10.425   5.238   3.625  0.1217 -0.0407  0.6090
  984MOL0     C35688  10.522   5.251   3.722  1.3563 -0.2441  0.1298
  984MOL0     C35689  10.506   5.320   3.847  0.1477  0.9601  0.6484
  984MOL0     O35690  10.610   5.339   3.936 -0.6472  0.5210  0.0051
  984MOL0     C35691  10.736   5.397   3.887 -0.1630 -0.4491  0.2130
  984MOL0     C35692  10.839   5.283   3.874 -0.1232 -1.0389 -0.6815
  984MOL0     C35693  10.960   5.328   3.809 -1.1302  0.2773 -0.3612
  984MOL0     C35694  11.082   5.235   3.804 -0.0825  0.4783  0.3114
  984MOL0     C35695  11.211   5.306   3.767  0.6103  0.2978  0.0897
  984MOL0     C35696  11.256   5.415   3.868 -0.0023 -0.2231 -0.1287
  984MOL0     C35697  11.409   5.464   3.849 -0.7541 -0.6260  0.0261
  984MOL0     C35698  11.444   5.536   3.718  0.4698 -0.1225  0.4863
  984MOL0    Cl35699  11.621   5.569   3.703 -0.0455 -0.1057 -0.5003
  984MOL0     C35700  10.385   5.374   3.875 -0.7786 -0.4335 -1.0650
  984MOL0     C35701  10.272   5.363   3.783  1.0076 -0.6114  0.7008
  984MOL0     O35702  10.237   5.499   3.476  0.5372  0.2436 -0.0748
  984MOL0     C35703  10.004   5.237   3.376  0.4943  0.8298  0.4572
  984MOL0     C35704   9.908   5.194   3.283  0.3894 -0.2357  0.3343
  984MOL0     N35705   9.167   5.320   3.189 -0.4178  0.4386 -0.0179
  984MOL0     N35706   9.050   5.291   3.232 -0.5414 -0.2672  0.5722
  984MOL0     C35707   7.804   5.259   3.219 -0.2740  0.4536  1.2409
  984MOL0     C35708   7.673   5.298   3.213  0.1771 -0.2610 -0.2036
  984MOL0     C35709   7.248   5.351   3.350  0.5885 -0.1515 -0.2499
  984MOL0     C35710   7.220   5.486   3.386  0.6215  0.9230 -1.3484
  984MOL0     C35711   7.098   5.530   3.423  1.4206 -0.2192  0.4935
  984MOL0     C35712   6.985   5.445   3.408  0.6843  0.3418 -0.9291
  984MOL0     O35713   6.857   5.481   3.427  0.8731 -0.1320  0.0707
  984MOL0     C35714   6.819   5.603   3.490 -0.2157 -0.1588 -0.0396
  984MOL0     C35715   6.830   5.731   3.400 -0.6233 -0.0078 -0.1282
  984MOL0     C35716   6.775   5.693   3.266  0.7212  0.6856 -0.4120
  984MOL0     C35717   6.733   5.816   3.189  0.7484  0.2190 -0.9790
  984MOL0     C35718   6.843   5.909   3.161  0.3321  0.3825  0.4983
  984MOL0     C35719   6.935   5.986   3.128  0.2413 -0.6143 -0.1410
  984MOL0     C35720   7.004   5.322   3.352  0.5069 -0.1218 -0.6057
  984MOL0     C35721   7.126   5.270   3.327 -0.4261  0.5792 -0.0417
  984MOL0     C35722   7.129   5.132   3.281 -0.6584  0.5024  0.0874
  984MOL0     H35723   7.649   5.433   3.521 -2.2227 -2.5397  0.4896
  984MOL0     H35724   7.894   5.352   3.521  5.5381 -0.3226 -3.2870
  984MOL0     H35725   8.074   5.175   3.497  0.1781  0.6355  0.4209
  984MOL0     H35726   8.093   5.353   3.465 -0.9901  0.1174  0.0599
  984MOL0     H35727   8.248   5.136   3.340 -1.1807  0.2618 -0.2155
  984MOL0     H35728   8.279   5.310   3.306  2.8842  1.2494  0.6783
  984MOL0     H35729   8.369   5.358   3.521 -2.1973  0.4564 -0.6832
  984MOL0     H35730   8.282   5.229   3.604  0.1531  0.9368 -0.0218
  984MOL0     H35731   8.503   5.136   3.604  1.2337  1.3366 -0.5234
  984MOL0     H35732   8.452   5.070   3.451  1.0129 -0.5145  1.3723
  984MOL0     H35733   8.611   5.310   3.519 -1.9261 -2.6675  3.9086
  984MOL0     H35734   8.579   5.282   3.348 -1.0910  0.3427  0.1440
  984MOL0     H35735   8.730   5.129   3.547  0.2120 -0.2297  0.5636
  984MOL0     H35736   8.666   5.042   3.392  1.0276  0.3832 -1.4076
  984MOL0     H35737   8.837   5.289   3.418  1.5826 -0.4652  0.6924
  984MOL0     H35738   8.781   5.205   3.264  0.5175 -3.5216 -1.2653
  984MOL0     H35739   8.963   5.073   3.462 -2.2038 -2.8667 -0.4692
  984MOL0     H35740   8.914   5.023   3.303  0.3817 -0.5437  0.4369
  984MOL0     H35741   9.233   5.067   3.386  1.0667 -0.8688 -2.3389
  984MOL0     H35742   9.408   5.164   3.133 -0.2302 -0.7229 -0.2865
  984MOL0     H35743   9.438   5.138   3.303 -1.2941  1.1657  1.5004
  984MOL0     H35744   9.446   5.405   3.322 -0.5272 -1.2981  1.3781
  984MOL0     H35745   9.576   5.296   3.318  0.0347 -1.1356 -2.0865
  984MOL0     H35746   9.480   5.463   3.089 -1.8239 -0.6393  2.1638
  984MOL0     H35747   9.631   5.500   3.178 -1.1711 -0.2504  2.9450
  984MOL0     H35748   9.586   5.263   3.001 -1.6145 -0.4884  0.8815
  984MOL0     H35749   9.694   5.401   2.978  0.8241 -0.9881  0.5625
  984MOL0     H35750   9.856   5.497   3.132 -1.1705 -1.6939 -0.4028
  984MOL0     H35751  10.008   5.635   3.383  0.0289  0.7917  0.0925
  984MOL0     H35752   9.985   5.664   3.212  2.1104  0.4927 -1.5005
  984MOL0     H35753  10.143   5.624   3.264  0.0950 -1.5375  1.7455
  984MOL0     H35754  10.454   5.180   3.538  1.8753 -0.0842  1.1999
  984MOL0     H35755  10.620   5.210   3.698  1.8849  0.5543  0.8875
  984MOL0     H35756  10.718   5.449   3.792 -2.3211  0.1879  0.9202
  984MOL0     H35757  10.777   5.472   3.955 -0.8518 -0.4401  0.6227
  984MOL0     H35758  10.870   5.247   3.972 -1.6765 -0.8388 -0.0863
  984MOL0     H35759  10.796   5.202   3.815  1.1102 -0.9812 -1.7076
  984MOL0     H35760  10.997   5.404   3.879 -0.5611 -0.6514  0.3669
  984MOL0     H35761  10.944   5.377   3.713 -0.3970 -0.4344 -0.8604
  984MOL0     H35762  11.060   5.166   3.722  1.1923  2.9164 -2.2519
  984MOL0     H35763  11.094   5.169   3.890  1.4054  0.0601 -0.1850
  984MOL0     H35764  11.287   5.236   3.733  0.5219  1.0402 -1.7868
  984MOL0     H35765  11.185   5.370   3.682 -1.7744  3.1267  2.6838
  984MOL0     H35766  11.259   5.373   3.968 -2.6992  0.6333  0.3912
  984MOL0     H35767  11.189   5.501   3.863 -0.3037 -0.4179  0.5014
  984MOL0     H35768  11.476   5.380   3.869  1.6810  1.6047  1.9569
  984MOL0     H35769  11.446   5.531   3.927 -1.1720  1.4758 -1.4992
  984MOL0     H35770  11.386   5.629   3.722 -1.0176 -1.0700  2.7990
  984MOL0     H35771  11.420   5.480   3.627 -2.8987 -0.4665  1.4572
  984MOL0     H35772  10.376   5.423   3.971 -0.5133  1.9628 -2.1786
  984MOL0     H35773  10.172   5.397   3.804 -1.2791 -2.8292 -4.8376
  984MOL0     H35774  10.038   5.157   3.441 -0.7021 -0.9105 -0.9721
  984MOL0     H35775   9.881   5.089   3.278 -2.4574  0.4266  0.3232
  984MOL0     H35776   7.836   5.196   3.137 -1.0199  1.8761 -0.1799
  984MOL0     H35777   7.623   5.271   3.120  3.2901 -0.7529 -1.8916
  984MOL0     H35778   7.299   5.560   3.388  2.8157 -1.2401 -1.8031
  984MOL0     H35779   7.097   5.637   3.442  2.4368 -0.0326 -0.3845
  984MOL0     H35780   6.713   5.596   3.518  0.1458 -0.1811  1.3838
  984MOL0     H35781   6.887   5.611   3.575 -0.2123  0.4190 -0.0890
  984MOL0     H35782   6.936   5.751   3.383 -0.4443 -0.2321  0.6890
  984MOL0     H35783   6.780   5.814   3.451  2.2963  0.4314  2.3449
  984MOL0     H35784   6.843   5.631   3.208  0.6480 -2.4852  2.6064
  984MOL0     H35785   6.685   5.634   3.283  0.1398  1.9227  1.1046
  984MOL0     H35786   6.655   5.871   3.242  2.6692  1.2240  0.9741
  984MOL0     H35787   6.678   5.778   3.103  0.3931 -0.8033 -0.3258
  984MOL0     H35788   7.009   6.054   3.090  0.9803 -1.8131 -0.9143
  984MOL0     H35789   6.919   5.259   3.334 -0.6601  0.1433  3.0580
  984MOL0     H35790   7.032   5.082   3.278  0.6651 -2.2599 -0.2594
  984MOL0     H35791   7.167   5.139   3.178 -1.1579 -0.1110 -0.1455
  984MOL0     H35792   7.194   5.068   3.342 -1.8728 -0.8588  0.0250
  985MOL0     O35793   8.545   8.425   0.924  0.8539  0.4701  0.6279
  985MOL0     C35794   8.516   8.383   0.808 -0.3344 -0.6320  1.3890
  985MOL0     O35795   8.402   8.406   0.741  0.4660  0.9053 -1.2710
  985MOL0     C35796   8.315   8.515   0.786  0.9131  0.4860  0.2526
  985MOL0     C35797   8.176   8.500   0.774  0.4835  0.8999 -0.6921
  985MOL0     C35798   8.090   8.603   0.808 -0.5782 -0.1978 -1.1563
  985MOL0     C35799   8.138   8.722   0.856  0.5250  0.2241 -0.4983
  985MOL0     O35800   8.038   8.818   0.886 -0.3217 -0.3836 -0.1324
  985MOL0     C35801   8.068   8.922   0.983  0.1507  1.0796 -0.0201
  985MOL0     C35802   7.942   8.983   1.029 -0.3269 -0.7332  0.0739
  985MOL0     C35803   7.868   8.915   1.148  1.1474  0.3822  0.3180
  985MOL0     C35804   7.841   8.763   1.109 -0.2379 -0.0992 -0.3608
  985MOL0     C35805   7.764   8.697   1.221 -0.0125  0.2515 -0.7140
  985MOL0     C35806   7.728   8.554   1.192 -0.8149 -0.2496  0.3635
  985MOL0     C35807   7.648   8.500   1.308 -0.5324 -0.2612  0.0242
  985MOL0     C35808   7.584   8.361   1.279  0.1350  0.0052 -0.1812
  985MOL0     N35809   7.669   8.246   1.315  0.5670 -0.5570 -0.5368
  985MOL0     C35810   7.787   8.213   1.244 -0.6049 -0.5712 -0.1151
  985MOL0     C35811   7.844   8.110   1.310 -0.5448  0.5228  0.7666
  985MOL0     C35812   7.962   8.033   1.265  0.0937  0.8875  0.0976
  985MOL0     C35813   8.069   8.031   1.374 -0.3611  0.8474  0.7688
  985MOL0     C35814   8.198   7.965   1.325 -0.0393 -0.0505  0.6958
  985MOL0     C35815   8.303   7.953   1.433 -0.5078  1.1062  0.1526
  985MOL0     O35816   8.356   8.082   1.458  0.6957  0.1300  0.0552
  985MOL0     C35817   8.422   8.098   1.577 -0.0405 -0.2976  0.0836
  985MOL0     C35818   8.390   8.208   1.658 -0.1864  0.0488 -0.3399
  985MOL0     C35819   8.439   8.213   1.795  0.6692 -0.7004 -0.3373
  985MOL0     C35820   8.386   8.332   1.872 -0.6447 -0.0474  0.1731
  985MOL0     C35821   8.539   8.117   1.839 -0.7680 -0.7643  0.1499
  985MOL0     C35822   8.617   8.129   1.969  0.3900  0.3610  0.0970
  985MOL0     O35823   8.755   8.116   1.944  0.3071  0.0844 -0.0824
  985MOL0     C35824   8.840   8.104   2.051 -0.6891 -0.5592 -0.3753
  985MOL0     C35825   8.973   8.165   2.042  0.7404 -0.3537 -1.1268
  985MOL0     C35826   9.064   8.158   2.150  0.8271 -0.5736  0.3555
  985MOL0     C35827   9.022   8.094   2.271  0.2496  0.1851  0.7993
  985MOL0     O35828   9.100   8.068   2.383  0.2614 -0.1499  0.0367
  985MOL0     C35829   9.200   7.970   2.341 -0.2505 -1.9506  1.1407
  985MOL0     C35830   9.252   7.890   2.456 -0.3279  0.4709 -0.0436
  985MOL0     C35831   9.374   7.953   2.520  0.5800 -0.0466 -0.3161
  985MOL0     C35832   9.425   7.842   2.614  0.1098 -0.2117 -1.3171
  985MOL0     C35833   9.535   7.885   2.708  1.1959  0.6460 -0.5559
  985MOL0     C35834   9.556   7.784   2.816 -0.4110 -0.6079 -0.2287
  985MOL0     C35835   9.690   7.785   2.885  0.0451  0.6589 -0.2349
  985MOL0     C35836   9.720   7.662   2.978  0.6299  0.1049 -0.4960
  985MOL0    Cl35837   9.666   7.510   2.899  0.5458  0.5321 -0.1554
  985MOL0     C35838   8.894   8.050   2.284  0.4551 -0.0040  0.4008
  985MOL0     C35839   8.807   8.039   2.165  0.0640 -0.8514  0.3730
  985MOL0     O35840   8.563   8.164   2.082  0.0870 -0.8074 -0.1437
  985MOL0     C35841   8.577   8.013   1.753  0.8939 -0.6337 -0.1152
  985MOL0     C35842   8.508   8.006   1.633 -0.4513  0.2600  1.1093
  985MOL0     N35843   7.771   8.082   1.424 -0.2715  0.2009 -0.6029
  985MOL0     N35844   7.665   8.167   1.425  0.0200 -0.0341  0.3264
  985MOL0     C35845   8.278   8.741   0.867 -0.8620  1.0761  0.6034
  985MOL0     C35846   8.363   8.636   0.830  0.1123 -0.3393 -0.2479
  985MOL0     C35847   8.617   8.292   0.745 -0.5198 -0.2206 -0.5174
  985MOL0     C35848   8.690   8.206   0.824 -0.0104 -0.2199 -0.4791
  985MOL0     C35849   8.778   8.119   0.767  0.4279 -0.3109 -0.4422
  985MOL0     C35850   8.811   8.128   0.629  0.6363  0.0839 -0.0289
  985MOL0     O35851   8.888   8.039   0.564  0.2041 -0.2706 -0.2368
  985MOL0     C35852   8.947   7.933   0.638 -0.0571  0.9468  0.1193
  985MOL0     C35853   9.014   7.832   0.542 -0.3486 -1.0864 -0.7849
  985MOL0     C35854   9.142   7.876   0.470  0.6674  0.0765 -0.3935
  985MOL0     C35855   9.240   7.934   0.575  0.2477 -0.8425  0.6872
  985MOL0     C35856   9.360   7.975   0.510 -0.3784 -0.6635 -0.1778
  985MOL0     C35857   9.465   7.985   0.447 -0.2955  0.1095 -0.4931
  985MOL0     C35858   8.745   8.216   0.554  0.6519 -0.0056  0.7281
  985MOL0     C35859   8.645   8.294   0.609  0.8453  0.2508  0.3946
  985MOL0     C35860   8.577   8.385   0.511 -0.3700  0.2998  0.3309
  985MOL0     H35861   8.153   8.407   0.722 -1.3403  0.8689  0.1027
  985MOL0     H35862   7.984   8.593   0.787 -0.9357 -1.9795  1.0800
  985MOL0     H35863   8.126   9.004   0.941 -1.6406  1.7727 -1.2655
  985MOL0     H35864   8.132   8.885   1.064 -0.9428  1.1373  0.8988
  985MOL0     H35865   7.959   9.087   1.060 -1.1592 -0.7049  0.4644
  985MOL0     H35866   7.882   8.998   0.939 -0.7316  3.7280  0.8371
  985MOL0     H35867   7.935   8.927   1.233  0.5138  1.7440  0.6618
  985MOL0     H35868   7.772   8.965   1.163  0.9763  0.1297  0.0594
  985MOL0     H35869   7.778   8.748   1.020 -0.7508 -0.7114  0.0995
  985MOL0     H35870   7.936   8.710   1.099 -0.3217 -0.7282  1.8127
  985MOL0     H35871   7.680   8.756   1.256  1.1425 -0.6474  4.4249
  985MOL0     H35872   7.826   8.708   1.310 -2.1237  2.3583  0.6009
  985MOL0     H35873   7.666   8.560   1.102  1.7530  2.1704 -1.4091
  985MOL0     H35874   7.819   8.500   1.167 -0.5088 -0.3799  1.6600
  985MOL0     H35875   7.567   8.565   1.341  0.6568 -0.5822  4.1505
  985MOL0     H35876   7.704   8.492   1.402  0.0005  0.4994 -0.2259
  985MOL0     H35877   7.488   8.354   1.331 -0.3937  0.6063 -1.0541
  985MOL0     H35878   7.555   8.348   1.174 -1.4714 -0.1245  0.2517
  985MOL0     H35879   7.827   8.260   1.155  0.2771 -1.4604 -0.2066
  985MOL0     H35880   7.996   8.084   1.174  1.4284  5.0545  2.6158
  985MOL0     H35881   7.930   7.929   1.255  1.2813  0.5697 -0.5999
  985MOL0     H35882   8.084   8.127   1.426 -5.1822  1.0253  2.3008
  985MOL0     H35883   8.025   7.962   1.445 -1.5407 -2.3678 -2.7857
  985MOL0     H35884   8.180   7.867   1.278  1.5360 -0.4759  0.9320
  985MOL0     H35885   8.236   8.034   1.250 -0.9931 -1.1660 -0.8768
  985MOL0     H35886   8.259   7.912   1.524  1.8861 -1.1971  0.4202
  985MOL0     H35887   8.383   7.889   1.394 -0.9594 -0.1565  1.2302
  985MOL0     H35888   8.318   8.275   1.612 -1.4747 -0.8475  0.2892
  985MOL0     H35889   8.451   8.366   1.952 -2.2908 -1.7709  2.3787
  985MOL0     H35890   8.300   8.296   1.930 -0.3736 -0.2601  0.4395
  985MOL0     H35891   8.360   8.413   1.803 -0.9041  1.7814  2.3298
  985MOL0     H35892   9.009   8.216   1.953 -0.2002  0.0955 -1.2609
  985MOL0     H35893   9.165   8.197   2.145  1.8384 -3.1002 -0.9413
  985MOL0     H35894   9.157   7.914   2.258  2.0550 -0.0912 -1.4904
  985MOL0     H35895   9.280   8.027   2.294 -1.8159  1.4454  2.2429
  985MOL0     H35896   9.177   7.870   2.533  0.3506 -0.7423  0.3272
  985MOL0     H35897   9.283   7.794   2.416  2.4963 -0.0842  3.0880
  985MOL0     H35898   9.337   8.034   2.584  1.4038 -1.5140  2.1786
  985MOL0     H35899   9.452   7.984   2.451  0.4993  2.7587  0.7026
  985MOL0     H35900   9.466   7.756   2.560  1.3001 -0.2473 -0.4031
  985MOL0     H35901   9.339   7.807   2.672 -0.1057 -3.2006 -3.2443
  985MOL0     H35902   9.627   7.891   2.648  0.4615  1.8952 -1.6040
  985MOL0     H35903   9.524   7.979   2.763  1.4468  0.8713 -0.8901
  985MOL0     H35904   9.533   7.689   2.767 -1.1890 -0.8062  0.4909
  985MOL0     H35905   9.474   7.790   2.889  0.2017  2.2591  0.3610
  985MOL0     H35906   9.689   7.871   2.952 -3.4535 -0.9739  2.1217
  985MOL0     H35907   9.764   7.784   2.804  2.2700 -1.1829  1.6807
  985MOL0     H35908   9.680   7.667   3.080  0.5380  0.0265 -0.5280
  985MOL0     H35909   9.828   7.649   2.986  0.3268 -2.1678  0.6823
  985MOL0     H35910   8.873   8.003   2.380  0.5189 -0.5559  0.1538
  985MOL0     H35911   8.717   7.977   2.168  1.4440 -2.9438  1.1258
  985MOL0     H35912   8.651   7.937   1.777  0.5091 -1.4614 -1.4279
  985MOL0     H35913   8.523   7.918   1.571 -0.5906  1.3953 -0.6064
  985MOL0     H35914   8.317   8.839   0.892 -4.5198  2.5511  1.1665
  985MOL0     H35915   8.469   8.661   0.826  0.1840 -0.7187 -0.9622
  985MOL0     H35916   8.682   8.200   0.932 -0.9306 -1.6968 -0.5922
  985MOL0     H35917   8.818   8.048   0.839  2.1345  1.4560  0.4518
  985MOL0     H35918   9.022   7.968   0.709  1.8289  0.5511 -1.5887
  985MOL0     H35919   8.881   7.871   0.701  0.5310 -1.5917 -1.6173
  985MOL0     H35920   8.931   7.802   0.477 -1.0273 -3.0682  0.8819
  985MOL0     H35921   9.042   7.742   0.597 -1.5433 -1.5409 -0.8761
  985MOL0     H35922   9.187   7.794   0.413  0.7655 -0.7025  0.7711
  985MOL0     H35923   9.113   7.951   0.395 -2.2040  0.8426  1.3140
  985MOL0     H35924   9.262   7.850   0.642 -0.7591 -1.1647  0.6353
  985MOL0     H35925   9.200   8.011   0.641  0.5253 -2.1011  2.4272
  985MOL0     H35926   9.553   7.985   0.386 -0.4722  1.2120 -0.7635
  985MOL0     H35927   8.765   8.213   0.447  0.8797 -0.8062  0.7859
  985MOL0     H35928   8.535   8.475   0.559 -0.6822  0.2300  0.1905
  985MOL0     H35929   8.653   8.417   0.440 -2.1099 -2.7753 -3.2545
  985MOL0     H35930   8.500   8.332   0.453  0.7911  1.1862 -2.1480
  986MOL0     O35931   4.934   4.937  10.007 -0.5749  0.4525 -0.5008
  986MOL0     C35932   4.886   4.920  10.117  0.0516 -0.0291 -0.4935
  986MOL0     O35933   4.943   4.849  10.219 -0.3420 -0.1038  0.2257
  986MOL0     C35934   5.070   4.810  10.190  0.2980 -0.2418  0.3199
  986MOL0     C35935   5.173   4.874  10.245  0.1850 -0.0281 -0.3755
  986MOL0     C35936   5.305   4.828  10.229  0.3785  0.4207 -0.3592
  986MOL0     C35937   5.332   4.718  10.147 -0.2053  0.6500 -0.3288
  986MOL0     O35938   5.462   4.656  10.144 -0.8152 -0.7345 -0.0936
  986MOL0     C35939   5.570   4.716  10.223  1.5770 -0.8493 -0.3556
  986MOL0     C35940   5.703   4.648  10.185 -0.3676  0.1165  0.6734
  986MOL0     C35941   5.818   4.720  10.256 -0.4301 -0.3477 -0.2035
  986MOL0     C35942   5.815   4.703  10.409  0.1792 -0.1552  0.0779
  986MOL0     C35943   5.932   4.762  10.488 -0.1786  0.9892 -0.0107
  986MOL0     C35944   5.932   4.725  10.642 -0.0602  0.0267 -0.0242
  986MOL0     C35945   6.022   4.809  10.719  0.3067  0.4386  0.0894
  986MOL0     C35946   6.169   4.783  10.689 -0.4240  0.2126 -0.8882
  986MOL0     N35947   6.271   4.844  10.788 -0.0808  0.8804 -0.1296
  986MOL0     C35948   6.383   4.778  10.841  0.9741  1.2235  0.5690
  986MOL0     C35949   6.424   4.857  10.942  0.3268 -0.4185 -0.8268
  986MOL0     C35950   6.553   4.848  11.026 -0.2831 -0.3006 -0.7471
  986MOL0     C35951   6.656   4.881  10.916 -0.1752  0.0192  0.5419
  986MOL0     C35952   6.799   4.882  10.970 -0.4215 -0.5953  0.7350
  986MOL0     C35953   6.844   4.760  11.041  0.8328 -0.0883  1.3176
  986MOL0     O35954   6.984   4.762  11.076 -0.0471  0.2015 -0.3632
  986MOL0     C35955   7.087   4.726  10.980 -0.0444  0.5033 -0.0116
  986MOL0     C35956   7.055   4.675  10.859 -0.0469  0.1762 -0.2720
  986MOL0     C35957   7.164   4.645  10.765  0.2599 -0.3987 -0.0795
  986MOL0     C35958   7.134   4.612  10.617  0.6883 -0.3496 -0.6520
  986MOL0     C35959   7.301   4.661  10.809  0.2983 -0.0522 -0.7945
  986MOL0     C35960   7.428   4.654  10.721  0.0639 -0.3455  0.7599
  986MOL0     O35961   7.530   4.721  10.777 -0.7230 -0.6083  0.9090
  986MOL0     C35962   7.665   4.723  10.739  0.0518 -0.2569  1.2124
  986MOL0     C35963   7.695   4.741  10.604  0.6623  0.2744 -0.1846
  986MOL0     C35964   7.838   4.758  10.582 -0.0320  0.4952  0.0895
  986MOL0     C35965   7.932   4.757  10.688 -0.0706 -1.1822  0.7121
  986MOL0     O35966   8.063   4.765  10.663  0.8081 -0.2421  0.0013
  986MOL0     C35967   8.128   4.896  10.678  0.4337  0.9354 -0.6070
  986MOL0     C35968   8.269   4.876  10.742  0.0758  0.3547  0.2403
  986MOL0     C35969   8.377   4.833  10.649 -0.9912 -0.1310  0.2319
  986MOL0     C35970   8.514   4.804  10.709 -0.6307  0.7443  0.9721
  986MOL0     C35971   8.622   4.796  10.606 -0.5213 -0.7089  0.7426
  986MOL0     C35972   8.756   4.782  10.677  0.0329 -0.8405  1.1311
  986MOL0     C35973   8.873   4.825  10.568  1.0060  0.2605  0.9404
  986MOL0     C35974   9.012   4.804  10.622 -0.1837  0.4098 -0.0614
  986MOL0    Cl35975   9.066   4.907  10.768 -0.0736 -0.4286  0.1541
  986MOL0     C35976   7.897   4.743  10.816  1.0755 -0.2487  0.0390
  986MOL0     C35977   7.757   4.727  10.841 -0.2160  0.5775 -1.1922
  986MOL0     O35978   7.432   4.599  10.617  0.0164  0.0700 -0.1608
  986MOL0     C35979   7.323   4.709  10.941 -0.2249  0.1755  0.2749
  986MOL0     C35980   7.217   4.746  11.023 -0.6246  0.3111  0.7141
  986MOL0     N35981   6.338   4.960  10.953 -0.3853  0.7576  0.4904
  986MOL0     N35982   6.241   4.956  10.865  0.7603 -0.0266  0.8304
  986MOL0     C35983   5.220   4.656  10.084  1.2658 -0.0711  1.1221
  986MOL0     C35984   5.096   4.707  10.103 -0.0919  0.3439 -0.5445
  986MOL0     C35985   4.762   5.005  10.157 -0.2896  0.2353  0.9554
  986MOL0     C35986   4.711   4.994  10.287 -0.4030 -0.6625  0.2127
  986MOL0     C35987   4.598   5.074  10.322 -0.0226 -0.3008  0.7008
  986MOL0     C35988   4.519   5.155  10.241  0.1475  0.0675  0.6721
  986MOL0     O35989   4.405   5.229  10.268  0.0363 -0.4018 -0.0240
  986MOL0     C35990   4.361   5.236  10.408 -0.3856  0.5989  0.1662
  986MOL0     C35991   4.225   5.313  10.404 -0.6171  0.5100 -0.0352
  986MOL0     C35992   4.132   5.253  10.297  0.3422  0.0818  0.0632
  986MOL0     C35993   3.987   5.307  10.297 -0.4074 -0.1186  0.2881
  986MOL0     C35994   3.926   5.308  10.429  0.2563  1.1602 -0.3594
  986MOL0     C35995   3.873   5.319  10.537  0.4391 -0.1121  0.4223
  986MOL0     C35996   4.575   5.160  10.105 -0.4591 -0.1032  0.3761
  986MOL0     C35997   4.680   5.077  10.062  0.4561 -1.6166  0.0390
  986MOL0     C35998   4.696   5.066   9.912 -0.3420 -0.2146  0.2929
  986MOL0     H35999   5.146   4.949  10.318 -0.0680  0.0219 -0.5181
  986MOL0     H36000   5.375   4.858  10.306 -1.2247 -1.3264  1.8883
  986MOL0     H36001   5.548   4.682  10.325 -0.2469 -1.6272 -0.9425
  986MOL0     H36002   5.572   4.825  10.227  0.5785 -0.8272 -0.1056
  986MOL0     H36003   5.702   4.541  10.209 -0.0499  0.4395  2.2311
  986MOL0     H36004   5.723   4.656  10.077  1.2621 -0.8106  0.8776
  986MOL0     H36005   5.917   4.685  10.224 -0.7522 -3.3404  1.6505
  986MOL0     H36006   5.815   4.827  10.234  1.1023 -0.7318 -2.6139
  986MOL0     H36007   5.725   4.753  10.446 -0.4907 -1.2007 -0.0717
  986MOL0     H36008   5.812   4.594  10.424  3.6163 -0.5725 -1.2861
  986MOL0     H36009   5.938   4.870  10.474  0.1091  1.1596  1.3266
  986MOL0     H36010   6.023   4.725  10.439  0.7392  0.3541  2.0496
  986MOL0     H36011   5.829   4.727  10.678  0.1034 -4.2698  1.2249
  986MOL0     H36012   5.955   4.618  10.654 -3.0915 -0.6294  0.6866
  986MOL0     H36013   6.012   4.785  10.825  0.9101  0.6411  0.1961
  986MOL0     H36014   5.996   4.915  10.710  2.1244  0.8707 -0.5335
  986MOL0     H36015   6.183   4.675  10.701 -0.8914  0.2792  0.4020
  986MOL0     H36016   6.197   4.814  10.588  0.3933  3.1074  0.1295
  986MOL0     H36017   6.424   4.680  10.817  2.2291  1.7655  0.4182
  986MOL0     H36018   6.573   4.748  11.066 -2.0906  0.2495  1.8183
  986MOL0     H36019   6.549   4.921  11.108 -2.2013  0.3641 -1.3633
  986MOL0     H36020   6.653   4.797  10.846 -2.0910  1.5368 -1.2929
  986MOL0     H36021   6.640   4.964  10.847 -0.1539 -0.8197 -0.4989
  986MOL0     H36022   6.859   4.891  10.878 -0.6983  1.9984  0.7323
  986MOL0     H36023   6.818   4.978  11.018 -0.4258 -0.1005 -0.2191
  986MOL0     H36024   6.796   4.749  11.139 -0.7281  3.1298  1.0618
  986MOL0     H36025   6.835   4.676  10.972  1.7144  0.4589  0.5046
  986MOL0     H36026   6.955   4.677  10.816 -0.2215  0.0721  0.1303
  986MOL0     H36027   7.192   4.681  10.555  3.2223 -2.7330 -1.0888
  986MOL0     H36028   7.027   4.619  10.594  0.7371 -0.2426 -0.8524
  986MOL0     H36029   7.167   4.511  10.593  1.2612 -0.2736 -0.1940
  986MOL0     H36030   7.619   4.740  10.526 -2.3394 -0.4594  2.5603
  986MOL0     H36031   7.879   4.766  10.481  1.6309 -2.6184  0.4085
  986MOL0     H36032   8.123   4.948  10.582  1.9029 -0.2656 -1.3797
  986MOL0     H36033   8.069   4.952  10.750  0.9563 -1.1479  1.5773
  986MOL0     H36034   8.305   4.976  10.764 -1.6000  1.0020  0.2171
  986MOL0     H36035   8.293   4.828  10.837 -0.1853  0.9348  0.6007
  986MOL0     H36036   8.389   4.919  10.584  1.0238  2.6708  3.8999
  986MOL0     H36037   8.346   4.742  10.597 -0.7094  1.6030 -3.1859
  986MOL0     H36038   8.518   4.712  10.768 -0.3181  0.1153  0.0059
  986MOL0     H36039   8.529   4.894  10.771 -1.5233  1.3845  0.2806
  986MOL0     H36040   8.606   4.706  10.547  0.6150 -0.7515  0.4829
  986MOL0     H36041   8.613   4.884  10.541 -3.9224 -1.1486  0.3954
  986MOL0     H36042   8.770   4.683  10.720  0.8535 -0.8535  0.8495
  986MOL0     H36043   8.761   4.854  10.759 -1.2205  0.2501  0.3037
  986MOL0     H36044   8.869   4.931  10.544 -1.5896  0.1187  0.4859
  986MOL0     H36045   8.870   4.760  10.480  4.0306  0.1345  0.8379
  986MOL0     H36046   9.085   4.833  10.545 -0.6985 -1.0002 -1.1297
  986MOL0     H36047   9.013   4.697  10.645 -0.0707  0.4986  0.3617
  986MOL0     H36048   7.966   4.747  10.899  2.0032 -1.2983 -0.6533
  986MOL0     H36049   7.726   4.717  10.945 -1.0388  1.4711 -1.3381
  986MOL0     H36050   7.426   4.726  10.973 -0.6054  2.5566  0.4108
  986MOL0     H36051   7.226   4.793  11.121  1.4534 -1.1996  1.3276
  986MOL0     H36052   5.234   4.563  10.029 -1.4369  1.2795 -2.2440
  986MOL0     H36053   5.012   4.652  10.062  0.4246 -0.7973 -0.1098
  986MOL0     H36054   4.777   4.954  10.364  3.2409  3.1372 -0.5702
  986MOL0     H36055   4.586   5.062  10.429  2.3292 -2.6329  0.8128
  986MOL0     H36056   4.345   5.136  10.450  0.3356 -1.0202 -3.0745
  986MOL0     H36057   4.436   5.285  10.471  1.1828 -0.1593 -1.0384
  986MOL0     H36058   4.239   5.418  10.378  0.8593  0.4602  0.4911
  986MOL0     H36059   4.190   5.293  10.506  3.3970  0.3273  1.4740
  986MOL0     H36060   4.180   5.268  10.200  0.6511  3.2456  0.5985
  986MOL0     H36061   4.135   5.144  10.300  2.1200  0.0105 -2.0883
  986MOL0     H36062   3.923   5.246  10.233 -0.3723 -0.1160  0.2506
  986MOL0     H36063   3.988   5.407  10.253 -2.9750  0.4227  1.3061
  986MOL0     H36064   3.832   5.333  10.635  3.4087  0.2947  1.7098
  986MOL0     H36065   4.518   5.210  10.027  2.6114 -0.7388 -2.5443
  986MOL0     H36066   4.792   5.109   9.883  1.4582 -3.5571  0.8517
  986MOL0     H36067   4.700   4.960   9.886  2.3684 -0.4454  1.3251
  986MOL0     H36068   4.610   5.112   9.862  0.2023  1.6772  0.9996
  987MOL0     O36069   9.175   0.587  11.025 -0.0110 -0.0426  0.4316
  987MOL0     C36070   9.154   0.568  10.903 -0.6809 -0.0686 -0.1938
  987MOL0     O36071   9.205   0.647  10.803  0.3982  0.0028 -0.2577
  987MOL0     C36072   9.253   0.774  10.828  0.1267 -0.4192 -0.3523
  987MOL0     C36073   9.369   0.821  10.759  0.6844  0.2688  0.4169
  987MOL0     C36074   9.425   0.956  10.776 -0.2915  0.7370 -0.3737
  987MOL0     C36075   9.369   1.044  10.865  0.8060 -0.4830 -1.6387
  987MOL0     O36076   9.413   1.172  10.881 -0.3565 -0.3466 -0.1360
  987MOL0     C36077   9.466   1.238  10.764  0.5571 -0.2603  0.3385
  987MOL0     C36078   9.487   1.386  10.793 -0.5094 -0.9436 -0.2512
  987MOL0     C36079   9.357   1.470  10.813  1.5984 -0.5079  0.6330
  987MOL0     C36080   9.388   1.620  10.830  0.0280 -1.1175 -0.0031
  987MOL0     C36081   9.300   1.701  10.744 -0.0491  0.7228  0.4936
  987MOL0     C36082   9.351   1.718  10.595 -0.5798 -0.2856 -0.3719
  987MOL0     C36083   9.241   1.800  10.527 -0.7195  0.4361  0.4138
  987MOL0     C36084   9.276   1.811  10.381  0.3636 -0.1474  0.3608
  987MOL0     N36085   9.166   1.860  10.298 -0.6926  0.9438 -0.3819
  987MOL0     C36086   9.060   1.941  10.333 -0.1489 -0.6845  0.1042
  987MOL0     C36087   8.986   1.931  10.221 -0.2190 -0.8755  0.0906
  987MOL0     C36088   8.840   1.959  10.205  0.2818 -0.9594 -0.3976
  987MOL0     C36089   8.779   1.949  10.069 -0.6022  0.2227 -0.9022
  987MOL0     C36090   8.636   2.015  10.043  0.4239 -0.1805 -0.7127
  987MOL0     C36091   8.596   1.977   9.905  0.4808 -0.7413 -0.4533
  987MOL0     O36092   8.457   1.998   9.882 -0.1941 -0.2139 -0.1628
  987MOL0     C36093   8.377   1.888   9.900 -0.3006 -0.5627 -0.1104
  987MOL0     C36094   8.404   1.775   9.976  0.9970  0.3369  0.3048
  987MOL0     C36095   8.322   1.664   9.977  0.5390 -1.0367  0.5248
  987MOL0     C36096   8.371   1.548  10.069 -0.0347  0.1006 -0.0756
  987MOL0     C36097   8.197   1.671   9.905  0.6604 -0.1571 -0.0975
  987MOL0     C36098   8.085   1.583   9.918 -0.7921 -0.0579  0.5906
  987MOL0     O36099   8.054   1.570  10.048 -0.4867  0.1697  0.2662
  987MOL0     C36100   7.933   1.516  10.083  0.1221 -0.1274  0.6161
  987MOL0     C36101   7.932   1.406  10.171  0.2707  0.4602 -0.6557
  987MOL0     C36102   7.808   1.340  10.200  0.0421  0.1309 -1.0234
  987MOL0     C36103   7.694   1.382  10.135  0.2558 -0.4272  0.3348
  987MOL0     O36104   7.587   1.308  10.171  0.9225 -0.2494  0.1198
  987MOL0     C36105   7.473   1.307  10.083  0.0134 -0.0816  0.9256
  987MOL0     C36106   7.381   1.182  10.079 -0.3181 -0.6137  0.3598
  987MOL0     C36107   7.315   1.174  10.214  0.8494 -0.4434 -0.6926
  987MOL0     C36108   7.200   1.069  10.216  0.0173  0.0786  0.4856
  987MOL0     C36109   7.134   1.052  10.351 -0.0315  0.6606 -1.0171
  987MOL0     C36110   7.194   0.927  10.419 -0.2181 -0.0084 -0.1939
  987MOL0     C36111   7.147   0.914  10.559  0.3585  0.3874 -0.1092
  987MOL0     C36112   7.202   0.769  10.605 -0.9387  0.4313 -0.2182
  987MOL0    Cl36113   7.134   0.623  10.523 -0.2904 -0.1090  0.3118
  987MOL0     C36114   7.696   1.496  10.048  0.2295 -0.0858 -0.3322
  987MOL0     C36115   7.820   1.559  10.017  0.7339  0.5406  0.3162
  987MOL0     O36116   8.033   1.527   9.823  0.4081 -0.5516 -1.1310
  987MOL0     C36117   8.176   1.786   9.826  0.1455  0.2835  0.1905
  987MOL0     C36118   8.264   1.891   9.826  0.7992 -0.5827 -0.6796
  987MOL0     N36119   9.060   1.868  10.121  0.2966  0.2397 -0.4773
  987MOL0     N36120   9.170   1.840  10.164 -0.2694  0.1956  0.2925
  987MOL0     C36121   9.261   0.997  10.941 -0.4010  0.0107 -0.3358
  987MOL0     C36122   9.204   0.864  10.926  0.9500 -0.8607  0.2320
  987MOL0     C36123   9.074   0.438  10.876 -0.0560  0.2846  1.3637
  987MOL0     C36124   9.027   0.364  10.989  0.4334  0.7198  1.0235
  987MOL0     C36125   8.949   0.250  10.973  0.6607 -1.1496 -0.6016
  987MOL0     C36126   8.918   0.213  10.850 -0.0580  0.2367 -0.6691
  987MOL0     O36127   8.835   0.100  10.843  0.5939 -0.4939 -0.1833
  987MOL0     C36128   8.897  -0.026  10.799  0.3112 -0.7345 -0.1247
  987MOL0     C36129   8.835  -0.149  10.876 -0.5319 -0.1768  1.1100
  987MOL0     C36130   8.861  -0.153  11.033  0.7700 -0.4487  0.2522
  987MOL0     C36131   8.802  -0.281  11.104  0.0555  0.2232  0.2718
  987MOL0     C36132   8.664  -0.302  11.073  0.1699 -0.1056  0.1706
  987MOL0     C36133   8.542  -0.306  11.075 -0.2853 -0.5131  0.9192
  987MOL0     C36134   8.962   0.276  10.737  0.3300 -0.2934  0.0489
  987MOL0     C36135   9.040   0.392  10.745 -0.0687  0.1237  0.5893
  987MOL0     C36136   9.060   0.472  10.621 -0.1881  0.6153 -0.6433
  987MOL0     H36137   9.411   0.754  10.685  1.9155 -1.0939  2.2290
  987MOL0     H36138   9.504   0.976  10.704  1.4013 -0.6135  1.0227
  987MOL0     H36139   9.404   1.217  10.676  2.4262  1.6267 -1.5442
  987MOL0     H36140   9.570   1.206  10.752  1.5316  2.2967  1.2494
  987MOL0     H36141   9.545   1.397  10.885 -4.6755  2.5045  2.3386
  987MOL0     H36142   9.538   1.435  10.710 -0.5321  0.2206  0.4033
  987MOL0     H36143   9.288   1.453  10.729  0.3669  1.4789  1.1754
  987MOL0     H36144   9.299   1.441  10.901  1.6012 -0.8831  0.5133
  987MOL0     H36145   9.356   1.647  10.932  0.2984  1.6498 -0.5499
  987MOL0     H36146   9.491   1.657  10.824 -0.8792  1.6780  0.0748
  987MOL0     H36147   9.291   1.805  10.778  2.1061  1.1273 -0.0492
  987MOL0     H36148   9.198   1.662  10.752  0.6121 -1.0190  1.0683
  987MOL0     H36149   9.451   1.762  10.593 -1.7499  2.7008  0.4414
  987MOL0     H36150   9.356   1.615  10.559  0.7833 -1.5727  3.1109
  987MOL0     H36151   9.230   1.900  10.570 -0.2435  0.4017  0.6222
  987MOL0     H36152   9.146   1.747  10.544  0.8335 -2.6334  0.2293
  987MOL0     H36153   9.361   1.880  10.381 -0.8062  1.3384 -0.7162
  987MOL0     H36154   9.308   1.715  10.338 -1.6037 -1.1315  0.9607
  987MOL0     H36155   9.024   1.959  10.433 -0.3466 -0.3093 -0.0311
  987MOL0     H36156   8.808   2.055  10.247  1.3299 -0.4891 -0.6527
  987MOL0     H36157   8.779   1.885  10.258  1.3256 -2.0973 -0.7490
  987MOL0     H36158   8.840   1.995   9.991  0.2869 -0.8619 -0.8638
  987MOL0     H36159   8.784   1.846  10.033  2.7792  0.0514 -0.1804
  987MOL0     H36160   8.564   1.978  10.117  1.0889  0.0926  0.0884
  987MOL0     H36161   8.649   2.123  10.056  1.8879 -0.0506 -2.7991
  987MOL0     H36162   8.653   2.033   9.830  3.5441 -3.6742 -0.5457
  987MOL0     H36163   8.628   1.876   9.879 -0.2630 -0.3077 -3.4572
  987MOL0     H36164   8.503   1.758  10.018  0.9060 -2.1188 -0.2989
  987MOL0     H36165   8.346   1.579  10.171 -2.6613 -2.8256  0.3118
  987MOL0     H36166   8.479   1.530  10.060  0.2042 -0.3739  2.8482
  987MOL0     H36167   8.317   1.457  10.039 -1.4130  1.1511 -0.8963
  987MOL0     H36168   8.021   1.377  10.226  0.5250  1.8121 -0.3218
  987MOL0     H36169   7.805   1.253  10.263 -0.1028 -0.7127 -2.1556
  987MOL0     H36170   7.411   1.397  10.088 -1.4740 -0.9675 -0.5407
  987MOL0     H36171   7.515   1.315   9.982 -0.1033 -0.6831  0.8298
  987MOL0     H36172   7.303   1.175  10.003 -0.9665  0.8830  0.8619
  987MOL0     H36173   7.453   1.100  10.066  0.5902  0.3752 -1.1260
  987MOL0     H36174   7.281   1.274  10.242  2.3657 -0.3520  1.0523
  987MOL0     H36175   7.390   1.145  10.289  1.9848 -2.0097 -2.3526
  987MOL0     H36176   7.236   0.980  10.162  1.6584  0.2746  1.1948
  987MOL0     H36177   7.132   1.106  10.139 -4.4149 -2.2401  2.8764
  987MOL0     H36178   7.147   1.145  10.408 -0.0825  0.5955 -0.8994
  987MOL0     H36179   7.027   1.043  10.332 -0.7883  1.6501  2.1455
  987MOL0     H36180   7.304   0.925  10.425 -0.2653 -2.1782  0.8709
  987MOL0     H36181   7.161   0.843  10.357 -0.8096  1.6214 -2.2000
  987MOL0     H36182   7.039   0.917  10.575  0.3317  0.4729 -0.3045
  987MOL0     H36183   7.195   0.989  10.622 -0.9256  0.4217  0.8656
  987MOL0     H36184   7.180   0.771  10.712  0.4105  3.6473  0.0982
  987MOL0     H36185   7.309   0.748  10.611 -1.3886 -1.8022  1.3590
  987MOL0     H36186   7.605   1.523   9.995 -1.3641  0.4240  2.4534
  987MOL0     H36187   7.821   1.648   9.955 -0.7051  0.2362 -0.1704
  987MOL0     H36188   8.084   1.798   9.770  0.2374 -1.8709 -0.5069
  987MOL0     H36189   8.227   1.976   9.768 -2.4381 -1.1435  0.3805
  987MOL0     H36190   9.222   1.061  11.020 -1.4244 -1.9468  0.8226
  987MOL0     H36191   9.119   0.843  10.990  0.4966  2.2435  0.8179
  987MOL0     H36192   9.059   0.385  11.091 -0.5794  2.3430  1.0456
  987MOL0     H36193   8.906   0.204  11.062 -0.0630 -0.8539 -0.7881
  987MOL0     H36194   8.900  -0.043  10.691 -0.9808  1.8837 -0.6512
  987MOL0     H36195   9.002  -0.033  10.828  1.3126 -1.9784 -3.5590
  987MOL0     H36196   8.873  -0.242  10.833 -3.2730 -0.0110 -2.0739
  987MOL0     H36197   8.728  -0.146  10.852  0.2448  2.9170 -3.2364
  987MOL0     H36198   8.969  -0.144  11.052  0.1849  4.1753  2.8408
  987MOL0     H36199   8.831  -0.060  11.082  0.9589 -0.3558  0.1929
  987MOL0     H36200   8.818  -0.266  11.211  2.4923  1.9144 -0.2508
  987MOL0     H36201   8.849  -0.374  11.071  0.0186  0.2984  0.0070
  987MOL0     H36202   8.436  -0.317  11.084 -0.4315  1.0400  1.5620
  987MOL0     H36203   8.941   0.227  10.642  0.4393 -0.6826  0.2230
  987MOL0     H36204   9.064   0.581  10.629  3.7636  0.5918 -0.0332
  987MOL0     H36205   9.160   0.444  10.584 -0.7818 -0.8325 -1.2307
  987MOL0     H36206   8.991   0.437  10.544 -0.8486 -0.3418  0.3641
  988MOL0     O36207   1.612  10.554   8.753  0.5595 -0.0456 -0.0581
  988MOL0     C36208   1.706  10.475   8.785  1.0768  0.1657 -0.2060
  988MOL0     O36209   1.687  10.356   8.856  0.2722 -0.1693 -0.6562
  988MOL0     C36210   1.563  10.312   8.876  0.1630  0.1450  0.4849
  988MOL0     C36211   1.501  10.215   8.798 -0.1519  0.3536  0.2345
  988MOL0     C36212   1.379  10.168   8.827  0.2964  0.6839 -0.6142
  988MOL0     C36213   1.311  10.210   8.946  0.5073 -0.0099  0.8198
  988MOL0     O36214   1.205  10.142   8.996  0.8004  0.7443  0.7805
  988MOL0     C36215   1.203   9.996   8.987 -0.3528 -1.1370 -0.0355
  988MOL0     C36216   1.129   9.934   9.099 -0.2219  0.6387  0.2122
  988MOL0     C36217   0.986   9.974   9.116 -0.2039  0.0860  0.3317
  988MOL0     C36218   0.888   9.871   9.171 -0.0633  1.0489 -0.0335
  988MOL0     C36219   0.737   9.919   9.155  0.0236  0.1491  0.7997
  988MOL0     C36220   0.645   9.808   9.223 -0.7453 -0.1933  0.1549
  988MOL0     C36221   0.500   9.868   9.236 -0.2951  0.3704  1.1016
  988MOL0     C36222   0.402   9.780   9.323 -0.3499 -1.0527  1.0168
  988MOL0     N36223   0.403   9.637   9.273  0.1241 -0.1611 -0.7145
  988MOL0     C36224   0.371   9.601   9.142 -0.0157  0.2840 -0.6707
  988MOL0     C36225   0.368   9.461   9.151  0.7408 -1.4581 -0.6773
  988MOL0     C36226   0.365   9.358   9.048 -0.3131 -0.0308  0.8113
  988MOL0     C36227   0.444   9.406   8.924  0.2220  0.0240 -0.6926
  988MOL0     C36228   0.593   9.424   8.974  0.7177  0.0808  0.1416
  988MOL0     C36229   0.695   9.425   8.859  0.0483 -0.1216 -0.3648
  988MOL0     O36230   0.704   9.288   8.817 -0.2018  0.1248  0.0371
  988MOL0     C36231   0.806   9.258   8.724  0.5642 -0.3495  0.1628
  988MOL0     C36232   0.873   9.351   8.641  0.1644 -0.1054 -0.3952
  988MOL0     C36233   0.966   9.311   8.544 -0.0864 -1.2266  1.0444
  988MOL0     C36234   1.011   9.426   8.457 -1.5690 -0.2131  0.4644
  988MOL0     C36235   0.987   9.170   8.527  0.0018 -0.0968 -0.5465
  988MOL0     C36236   1.081   9.110   8.428 -1.1263 -0.0912 -0.5990
  988MOL0     O36237   1.116   8.974   8.431  0.1807  0.2855 -0.4446
  988MOL0     C36238   1.187   8.929   8.324 -0.7772  0.1762  0.0618
  988MOL0     C36239   1.318   8.964   8.307 -0.2005  0.1062 -0.7075
  988MOL0     C36240   1.385   8.913   8.199 -0.6098 -0.7264 -0.9562
  988MOL0     C36241   1.329   8.835   8.105  0.5468  0.6840  0.9613
  988MOL0     O36242   1.401   8.814   7.989  0.3903 -0.0009 -0.2705
  988MOL0     C36243   1.382   8.694   7.912  0.3299  0.0278  0.5471
  988MOL0     C36244   1.499   8.657   7.822 -0.1999  0.4026  0.5248
  988MOL0     C36245   1.518   8.767   7.715  0.1971  0.2692  0.0952
  988MOL0     C36246   1.626   8.728   7.611  0.3230 -0.3320  0.9571
  988MOL0     C36247   1.604   8.830   7.497 -0.0209  0.3081  0.6220
  988MOL0     C36248   1.740   8.816   7.407  0.4880 -0.5067 -0.5683
  988MOL0     C36249   1.760   8.675   7.376 -0.6085  0.4585  0.1209
  988MOL0     C36250   1.887   8.667   7.274  0.8708  0.6718 -0.1406
  988MOL0    Cl36251   2.029   8.755   7.320  0.0407  0.3344 -0.2351
  988MOL0     C36252   1.190   8.797   8.116  0.5470  0.0720  0.3564
  988MOL0     C36253   1.128   8.844   8.236 -0.2645  0.5235 -1.1980
  988MOL0     O36254   1.136   9.187   8.347  0.0372  0.6281  0.2045
  988MOL0     C36255   0.919   9.079   8.611  0.1844  0.0907  0.1883
  988MOL0     C36256   0.823   9.123   8.709 -0.8128 -0.7030  0.8785
  988MOL0     N36257   0.386   9.428   9.285 -0.5300  0.4428  0.6297
  988MOL0     N36258   0.393   9.531   9.361  0.0348  0.2324 -0.2530
  988MOL0     C36259   1.363  10.323   9.011 -0.2181 -0.2953  0.0578
  988MOL0     C36260   1.488  10.368   8.974 -0.8134  0.3096 -0.5643
  988MOL0     C36261   1.849  10.501   8.740 -1.3018 -0.7609  0.4166
  988MOL0     C36262   1.960  10.405   8.774  0.4258 -0.8981 -0.3741
  988MOL0     C36263   2.091  10.417   8.730  0.0779 -1.1500  0.3754
  988MOL0     C36264   2.122  10.523   8.644  0.3061 -0.8490 -0.0569
  988MOL0     O36265   2.253  10.552   8.604  0.2129  0.2146  0.0697
  988MOL0     C36266   2.292  10.490   8.483 -0.1288 -1.5617 -0.5778
  988MOL0     C36267   2.225  10.540   8.355 -0.6800 -0.8933 -0.9179
  988MOL0     C36268   2.313  10.491   8.245  0.2162 -0.6256  0.7652
  988MOL0     C36269   2.276  10.529   8.101  0.0990  0.2305 -0.4176
  988MOL0     C36270   2.180  10.430   8.048  0.6040  0.2521 -0.0473
  988MOL0     C36271   2.111  10.339   8.018  0.5642  0.6144  0.9482
  988MOL0     C36272   2.014  10.609   8.600 -0.7608  0.0233  0.7239
  988MOL0     C36273   1.883  10.602   8.645 -0.4295  1.1876 -0.6068
  988MOL0     C36274   1.790  10.710   8.599  0.2554  0.0669 -0.5155
  988MOL0     H36275   1.555  10.168   8.716 -1.9680 -0.3917 -0.5804
  988MOL0     H36276   1.328  10.097   8.762 -0.3547  2.2535 -1.8771
  988MOL0     H36277   1.309   9.971   8.982  0.5457  1.9653  1.1928
  988MOL0     H36278   1.161   9.970   8.889 -1.4263  0.2966  0.0117
  988MOL0     H36279   1.140   9.827   9.080  2.7867  1.0734 -1.0864
  988MOL0     H36280   1.178   9.963   9.192  1.5276 -1.4784  0.0370
  988MOL0     H36281   0.984  10.058   9.186  0.5096  1.3016 -1.0650
  988MOL0     H36282   0.953  10.015   9.020  1.3875  2.0867  0.5747
  988MOL0     H36283   0.899   9.782   9.109 -0.7302 -0.3679  1.8186
  988MOL0     H36284   0.908   9.854   9.277 -2.0348 -1.9137 -0.0400
  988MOL0     H36285   0.707   9.919   9.049  1.7171  2.9750  0.2102
  988MOL0     H36286   0.720  10.015   9.203 -2.9097  0.7100 -1.0852
  988MOL0     H36287   0.650   9.723   9.154 -0.5696  0.9779 -1.3243
  988MOL0     H36288   0.682   9.769   9.319 -1.1732 -1.5249 -0.1902
  988MOL0     H36289   0.471   9.865   9.130  4.2624 -1.4321 -0.3315
  988MOL0     H36290   0.485   9.968   9.277 -2.3132 -0.4064  2.4324
  988MOL0     H36291   0.428   9.767   9.429 -1.6127  0.4729  1.5525
  988MOL0     H36292   0.299   9.817   9.319  0.7888  2.2677 -0.3466
  988MOL0     H36293   0.364   9.661   9.052  2.4094 -1.8881 -2.4875
  988MOL0     H36294   0.261   9.353   9.017 -0.3891  1.3375  0.8019
  988MOL0     H36295   0.400   9.262   9.086 -0.0512 -0.4006 -0.3244
  988MOL0     H36296   0.440   9.333   8.842  1.1673 -1.1515  0.2839
  988MOL0     H36297   0.396   9.499   8.894  1.4949  1.4098  1.3875
  988MOL0     H36298   0.614   9.515   9.032  2.9628  1.4484 -2.5717
  988MOL0     H36299   0.601   9.341   9.045  1.0316  0.6764  0.8223
  988MOL0     H36300   0.658   9.484   8.775  1.2844  1.3269  0.0637
  988MOL0     H36301   0.789   9.472   8.889  0.4061 -0.9856 -0.0896
  988MOL0     H36302   0.847   9.456   8.653 -1.2447 -0.6807  2.5649
  988MOL0     H36303   0.979   9.425   8.352  3.3177  2.1606 -1.3953
  988MOL0     H36304   1.119   9.413   8.441 -1.9419 -1.6243 -1.3215
  988MOL0     H36305   0.988   9.520   8.507  1.7234  0.2301  1.3738
  988MOL0     H36306   1.365   9.041   8.366 -0.2220  0.2059 -0.8188
  988MOL0     H36307   1.488   8.946   8.186 -0.8736  0.8360  0.5815
  988MOL0     H36308   1.369   8.612   7.984  0.3151 -0.5260 -0.0841
  988MOL0     H36309   1.284   8.699   7.864  0.0008  1.3940  1.2879
  988MOL0     H36310   1.587   8.650   7.886  0.1756  1.0769  0.0949
  988MOL0     H36311   1.484   8.557   7.781 -0.8776  0.2623  1.0954
  988MOL0     H36312   1.544   8.862   7.763  2.2708 -1.4036  2.4475
  988MOL0     H36313   1.422   8.781   7.663  2.0575 -0.4894 -3.9335
  988MOL0     H36314   1.584   8.636   7.571 -1.9735  1.2492 -0.5408
  988MOL0     H36315   1.726   8.728   7.656  1.2007  0.7275 -0.8616
  988MOL0     H36316   1.517   8.803   7.435  0.1747  0.3037  0.3474
  988MOL0     H36317   1.598   8.931   7.537  1.1383  1.4218 -1.8332
  988MOL0     H36318   1.812   8.863   7.475 -1.7715  0.5827  1.2065
  988MOL0     H36319   1.718   8.877   7.318  2.2251  2.7183  1.0260
  988MOL0     H36320   1.669   8.621   7.350 -0.4707 -2.0769  4.0618
  988MOL0     H36321   1.790   8.612   7.460 -0.4234 -2.5008 -1.9665
  988MOL0     H36322   1.858   8.713   7.179  2.6998  4.7710  1.0853
  988MOL0     H36323   1.912   8.561   7.278 -1.5472  0.0560  0.4605
  988MOL0     H36324   1.137   8.748   8.036 -2.0308  2.2559  0.5709
  988MOL0     H36325   1.020   8.838   8.239 -0.2137 -1.1570  2.4471
  988MOL0     H36326   0.938   8.975   8.585 -1.4156  0.6284 -3.8016
  988MOL0     H36327   0.756   9.070   8.776 -1.8499  0.3299  0.6966
  988MOL0     H36328   1.330  10.376   9.099  2.6352 -1.6159  2.0706
  988MOL0     H36329   1.537  10.440   9.038 -1.1781 -0.8201  1.0505
  988MOL0     H36330   1.922  10.321   8.832  0.5604 -0.8983 -0.2890
  988MOL0     H36331   2.182  10.362   8.750 -0.4690 -1.3739  2.4142
  988MOL0     H36332   2.398  10.516   8.479 -0.7595  2.3358  1.9549
  988MOL0     H36333   2.291  10.381   8.474 -1.0532 -1.4902 -1.5421
  988MOL0     H36334   2.216  10.649   8.354  1.9898 -0.4644  2.2135
  988MOL0     H36335   2.127  10.494   8.341 -0.3201 -1.1169 -2.9918
  988MOL0     H36336   2.415  10.530   8.254 -0.1634  0.3349  1.0237
  988MOL0     H36337   2.332  10.384   8.253  2.0310 -0.4348 -0.3478
  988MOL0     H36338   2.371  10.527   8.046  0.3027  0.4742 -0.0762
  988MOL0     H36339   2.241  10.632   8.094  2.7997  1.1827 -6.7683
  988MOL0     H36340   2.062  10.245   8.004 -1.6468  2.1025 -2.7245
  988MOL0     H36341   2.031  10.691   8.530  1.0102 -1.2332 -0.4183
  988MOL0     H36342   1.712  10.664   8.538 -0.7253  1.8351 -0.6438
  988MOL0     H36343   1.745  10.752   8.689  4.6169 -1.3836  2.7504
  988MOL0     H36344   1.845  10.784   8.540  3.5236 -0.0316  2.0836
  989MOL0     O36345  10.779   6.588   4.361  0.3325 -0.3319 -0.2991
  989MOL0     C36346  10.749   6.471   4.369 -0.5059  1.0027  0.2068
  989MOL0     O36347  10.736   6.384   4.262 -0.2393  0.6314  0.1487
  989MOL0     C36348  10.746   6.431   4.131 -0.9108  0.2229 -0.1658
  989MOL0     C36349  10.651   6.524   4.088 -0.0023 -0.1915 -0.2305
  989MOL0     C36350  10.643   6.553   3.952  0.0301  0.3653 -0.1633
  989MOL0     C36351  10.730   6.500   3.853 -0.4981 -0.2362 -1.0473
  989MOL0     O36352  10.725   6.544   3.727 -0.1444 -0.7918  0.7671
  989MOL0     C36353  10.849   6.595   3.670  0.8703 -0.2313 -0.3159
  989MOL0     C36354  10.879   6.501   3.551 -0.1035  0.1690  0.8471
  989MOL0     C36355  10.966   6.591   3.458 -0.3830  0.1072  0.1078
  989MOL0     C36356  10.985   6.512   3.327  0.4755  0.1074  0.6998
  989MOL0     C36357  11.091   6.587   3.230  0.3559 -0.1610  0.7732
  989MOL0     C36358  11.066   6.738   3.208 -0.2135  0.0805  0.0412
  989MOL0     C36359  10.945   6.754   3.108  0.4611 -0.3235 -0.2064
  989MOL0     C36360  10.855   6.880   3.134  0.8818 -0.2389  0.1140
  989MOL0     N36361  10.917   7.007   3.101  0.2674  0.8999 -0.5349
  989MOL0     C36362  10.941   7.056   2.975 -0.4233  0.3872 -0.1451
  989MOL0     C36363  10.978   7.186   2.994 -0.9010  0.3054 -0.3607
  989MOL0     C36364  11.031   7.279   2.893 -0.1484 -0.2342  0.2834
  989MOL0     C36365  11.174   7.254   2.848  0.0062  0.0827  0.6229
  989MOL0     C36366  11.193   7.117   2.789 -0.4730 -0.4722  0.2894
  989MOL0     C36367  11.336   7.087   2.744 -0.8295 -0.1977  0.0141
  989MOL0     O36368  11.352   6.950   2.726 -0.1847 -0.1391  0.0649
  989MOL0     C36369  11.482   6.906   2.692  0.8829  0.6482 -0.5869
  989MOL0     C36370  11.587   6.976   2.631  0.0402 -0.4626 -1.0861
  989MOL0     C36371  11.705   6.923   2.591 -0.1024 -0.3191 -0.8926
  989MOL0     C36372  11.802   7.014   2.519 -0.4707  0.5399 -0.4787
  989MOL0     C36373  11.725   6.786   2.615 -0.3613 -0.0479  0.7042
  989MOL0     C36374  11.848   6.710   2.590 -0.1185  0.0110 -0.2648
  989MOL0     O36375  11.882   6.594   2.656 -0.4038 -0.3524  0.0062
  989MOL0     C36376  11.975   6.510   2.604  0.1526 -0.3702 -0.0457
  989MOL0     C36377  11.933   6.412   2.519 -0.2467 -0.0997 -0.4057
  989MOL0     C36378  12.020   6.326   2.449 -0.0088  0.5988  0.2827
  989MOL0     C36379  12.158   6.339   2.469  0.3291  0.4486 -0.2581
  989MOL0     O36380  12.238   6.256   2.406  0.2871 -0.0814 -0.2692
  989MOL0     C36381  12.225   6.121   2.452 -0.4823  0.0334  0.0512
  989MOL0     C36382  12.299   6.031   2.356  0.0834 -0.2585 -0.1133
  989MOL0     C36383  12.201   6.012   2.240 -0.7777  0.1714  0.5104
  989MOL0     C36384  12.294   5.981   2.121 -0.9386 -0.0782 -0.4664
  989MOL0     C36385  12.361   5.841   2.129  0.1486  0.2647  0.3417
  989MOL0     C36386  12.262   5.737   2.175  0.2025  0.5470 -0.6701
  989MOL0     C36387  12.306   5.595   2.127  0.5120 -1.2664  0.4842
  989MOL0     C36388  12.206   5.489   2.156  1.0628 -0.6556  1.0178
  989MOL0    Cl36389  12.183   5.487   2.340 -0.4415  0.1054 -0.5652
  989MOL0     C36390  12.208   6.424   2.571 -0.5585  0.1455  0.8065
  989MOL0     C36391  12.115   6.513   2.641  0.5027 -0.2685 -0.6678
  989MOL0     O36392  11.906   6.757   2.490  0.0141 -0.1046 -0.0620
  989MOL0     C36393  11.616   6.706   2.662 -0.2234 -0.2862  0.2474
  989MOL0     C36394  11.505   6.770   2.715 -0.1452  0.0573 -0.1664
  989MOL0     N36395  11.004   7.201   3.135  0.3990 -0.7606 -0.1438
  989MOL0     N36396  10.956   7.098   3.203 -0.4252  0.2302  0.2750
  989MOL0     C36397  10.816   6.399   3.903  0.4274  1.0581  1.1078
  989MOL0     C36398  10.825   6.363   4.037 -0.0725 -0.4961 -0.2708
  989MOL0     C36399  10.769   6.406   4.502  0.1287  0.5326  0.2177
  989MOL0     C36400  10.783   6.266   4.510 -0.5998  0.1342  0.1593
  989MOL0     C36401  10.805   6.206   4.636  0.2538 -0.4049  0.3699
  989MOL0     C36402  10.799   6.279   4.754 -0.1232  0.0843  0.3569
  989MOL0     O36403  10.829   6.217   4.872  0.5666 -0.5933 -0.4645
  989MOL0     C36404  10.817   6.277   5.003 -0.2480  0.2797  0.1203
  989MOL0     C36405  10.950   6.293   5.071 -0.1628  0.1928 -0.6374
  989MOL0     C36406  10.944   6.381   5.200 -1.0734  0.0478  0.0166
  989MOL0     C36407  10.960   6.535   5.168 -0.0192 -0.5796 -0.0069
  989MOL0     C36408  10.829   6.586   5.121 -0.3980 -0.4824 -0.6700
  989MOL0     C36409  10.722   6.639   5.094  0.1303  0.4903 -0.6076
  989MOL0     C36410  10.792   6.417   4.735 -0.0049  0.5981 -0.0504
  989MOL0     C36411  10.780   6.485   4.618 -0.0380  0.5736  0.4136
  989MOL0     C36412  10.774   6.645   4.628  0.6544 -0.1469 -0.2714
  989MOL0     H36413  10.581   6.568   4.158  1.1784 -1.7155  2.0208
  989MOL0     H36414  10.569   6.622   3.911 -0.3203  0.6244  0.8792
  989MOL0     H36415  10.926   6.576   3.746 -0.8609 -1.2218  1.2743
  989MOL0     H36416  10.854   6.701   3.646  0.5051 -0.4386 -1.3317
  989MOL0     H36417  10.933   6.410   3.576  0.4681  0.2141 -0.1842
  989MOL0     H36418  10.782   6.474   3.509 -2.6060 -0.5359  6.1426
  989MOL0     H36419  10.910   6.683   3.438 -3.2884 -1.8462 -1.4402
  989MOL0     H36420  11.062   6.616   3.503 -0.1145 -2.0639  0.8628
  989MOL0     H36421  11.006   6.407   3.347 -2.7895 -1.0152 -1.0423
  989MOL0     H36422  10.892   6.503   3.269  0.6641  0.6467  0.3051
  989MOL0     H36423  11.090   6.546   3.128  0.6621 -0.9420  1.0770
  989MOL0     H36424  11.193   6.574   3.269  1.7562  3.6473 -1.0741
  989MOL0     H36425  11.051   6.785   3.306 -3.3224 -0.8858  0.1307
  989MOL0     H36426  11.155   6.778   3.158  1.0393 -1.5052  0.9265
  989MOL0     H36427  10.890   6.661   3.122  2.2216 -1.2267  1.1937
  989MOL0     H36428  10.979   6.750   3.004  1.5344  0.0549  0.1153
  989MOL0     H36429  10.762   6.872   3.077  0.2642  0.3457  1.0012
  989MOL0     H36430  10.842   6.870   3.243  1.1310  1.3464  0.3248
  989MOL0     H36431  10.935   6.986   2.893  0.9163 -2.3517  1.9307
  989MOL0     H36432  11.032   7.383   2.928  2.0231 -0.0843 -0.1084
  989MOL0     H36433  10.960   7.269   2.810 -1.2489 -2.2001  1.3783
  989MOL0     H36434  11.212   7.331   2.780  3.3553  0.8622  3.1746
  989MOL0     H36435  11.239   7.271   2.933  1.6009 -1.2320 -0.2825
  989MOL0     H36436  11.180   7.041   2.866  2.2832 -0.3562  0.9389
  989MOL0     H36437  11.119   7.088   2.713  0.7834 -2.9047 -0.0894
  989MOL0     H36438  11.354   7.146   2.653 -2.3559 -1.9874 -1.5345
  989MOL0     H36439  11.412   7.117   2.817  0.8851 -1.2580 -1.2536
  989MOL0     H36440  11.569   7.081   2.609  2.4269 -0.2044 -2.1271
  989MOL0     H36441  11.905   6.995   2.552  0.2034  2.3302 -1.3970
  989MOL0     H36442  11.778   7.120   2.534 -4.3742 -0.2920  0.0247
  989MOL0     H36443  11.804   6.995   2.411 -0.0872  1.7902 -0.7180
  989MOL0     H36444  11.826   6.409   2.504 -0.2159 -1.5027 -0.4081
  989MOL0     H36445  11.978   6.273   2.363 -0.1511 -0.2229  0.8479
  989MOL0     H36446  12.278   6.108   2.547 -0.7335 -1.2813  0.0398
  989MOL0     H36447  12.127   6.082   2.480  0.3607 -0.2882  2.9632
  989MOL0     H36448  12.395   6.073   2.326 -0.9383  2.5812  0.2578
  989MOL0     H36449  12.314   5.929   2.391 -3.4262 -0.1230  2.3757
  989MOL0     H36450  12.146   6.103   2.212 -1.0195 -0.3897 -0.9130
  989MOL0     H36451  12.122   5.941   2.264  1.1780 -1.5576  2.2671
  989MOL0     H36452  12.356   6.071   2.126 -2.3778  0.8664  1.8756
  989MOL0     H36453  12.225   5.993   2.037 -0.6439 -1.5507 -0.9596
  989MOL0     H36454  12.384   5.801   2.030  0.1205 -1.7091  1.0874
  989MOL0     H36455  12.446   5.849   2.197 -0.2587  1.6010  0.7249
  989MOL0     H36456  12.164   5.745   2.127  0.4708 -3.2964 -2.1981
  989MOL0     H36457  12.254   5.738   2.284 -0.9425  0.2573 -0.7467
  989MOL0     H36458  12.409   5.577   2.161  0.7599  0.7726  0.9339
  989MOL0     H36459  12.298   5.595   2.018 -1.1668 -2.0050  0.5784
  989MOL0     H36460  12.241   5.395   2.113  2.7878  0.7916 -0.9262
  989MOL0     H36461  12.112   5.509   2.105  2.0676 -1.6021 -1.3522
  989MOL0     H36462  12.315   6.428   2.588 -0.1033  1.9276 -1.8824
  989MOL0     H36463  12.143   6.581   2.721  1.3739 -3.1985  1.7064
  989MOL0     H36464  11.631   6.599   2.655  0.9100 -0.0468 -1.9058
  989MOL0     H36465  11.429   6.707   2.761  0.1131 -2.3890 -2.7432
  989MOL0     H36466  10.877   6.344   3.832 -1.7530 -2.1756  1.5391
  989MOL0     H36467  10.869   6.268   4.066 -1.6214 -1.4819 -1.0105
  989MOL0     H36468  10.769   6.192   4.432 -0.4272 -0.0029  0.2572
  989MOL0     H36469  10.814   6.098   4.636  1.0435 -0.3761 -1.3679
  989MOL0     H36470  10.783   6.380   4.991  0.3589  0.5058  0.2835
  989MOL0     H36471  10.744   6.222   5.062  0.6928 -1.2735 -0.1066
  989MOL0     H36472  11.018   6.344   5.002 -0.7292  0.2146 -1.1860
  989MOL0     H36473  10.994   6.197   5.101 -0.6210 -0.2653 -1.3937
  989MOL0     H36474  10.858   6.343   5.256 -0.1592 -4.5067 -1.1982
  989MOL0     H36475  11.028   6.359   5.266  0.0735  0.0492 -1.3840
  989MOL0     H36476  11.041   6.567   5.102 -1.7952  1.8183 -1.1806
  989MOL0     H36477  10.985   6.576   5.267 -0.5661 -2.5863  1.0191
  989MOL0     H36478  10.625   6.675   5.069  0.5682  2.1181 -0.0629
  989MOL0     H36479  10.807   6.483   4.819  0.3742  1.6527 -0.9274
  989MOL0     H36480  10.871   6.690   4.605  0.6428  0.0541  0.0531
  989MOL0     H36481  10.684   6.686   4.582  0.4103  0.2465  0.5299
  989MOL0     H36482  10.769   6.674   4.734  1.6434  1.4126 -0.6168
  990MOL0     O36483   7.588   0.848   4.172 -0.1014 -0.4090 -0.2361
  990MOL0     C36484   7.588   0.736   4.216  0.1205  0.5815  0.0678
  990MOL0     O36485   7.699   0.675   4.274 -0.4159 -0.1791  0.0604
  990MOL0     C36486   7.817   0.749   4.252 -0.4169  0.0619 -0.2459
  990MOL0     C36487   7.885   0.787   4.369 -1.2549  0.0895 -0.1548
  990MOL0     C36488   8.011   0.852   4.350 -0.3539 -0.0003 -1.0731
  990MOL0     C36489   8.066   0.881   4.232  0.0980 -0.5627  0.3156
  990MOL0     O36490   8.176   0.953   4.207 -0.1542 -1.0354 -0.0015
  990MOL0     C36491   8.224   1.046   4.306  0.1372 -0.0675  0.7057
  990MOL0     C36492   8.340   1.125   4.250 -0.3887 -0.1428 -0.9006
  990MOL0     C36493   8.405   1.217   4.360  0.6669 -0.3823 -0.1988
  990MOL0     C36494   8.514   1.311   4.298  0.8088  1.2732  0.5170
  990MOL0     C36495   8.623   1.367   4.399  0.0667  0.4910 -0.1201
  990MOL0     C36496   8.751   1.415   4.333 -0.1963  0.1250 -0.7132
  990MOL0     C36497   8.853   1.480   4.430  0.0840 -0.5069 -0.4428
  990MOL0     C36498   8.848   1.628   4.406 -0.7678 -0.9526 -0.7574
  990MOL0     N36499   8.954   1.700   4.479  0.3378  0.2771 -0.2473
  990MOL0     C36500   8.991   1.688   4.613 -0.3011  0.7158  0.3974
  990MOL0     C36501   9.115   1.738   4.622 -0.1132 -0.8812  0.2088
  990MOL0     C36502   9.207   1.743   4.741  0.1756 -0.8358  1.3383
  990MOL0     C36503   9.289   1.620   4.760 -0.7440 -0.0783 -0.0355
  990MOL0     C36504   9.369   1.640   4.887 -0.8696 -0.2098 -0.7617
  990MOL0     C36505   9.399   1.500   4.954  1.1703  0.2581 -0.0324
  990MOL0     O36506   9.436   1.517   5.095  0.6236 -0.1650  0.2612
  990MOL0     C36507   9.521   1.420   5.139 -0.1497  0.3041 -0.4450
  990MOL0     C36508   9.486   1.285   5.113 -0.6030  0.3070 -0.5497
  990MOL0     C36509   9.573   1.176   5.158 -0.1055  0.6929  0.5799
  990MOL0     C36510   9.519   1.031   5.139  1.1733 -0.6036 -0.4460
  990MOL0     C36511   9.692   1.206   5.223  0.0810 -0.5739  0.6005
  990MOL0     C36512   9.800   1.100   5.265 -0.3481 -0.4086  1.0818
  990MOL0     O36513   9.844   1.111   5.395  0.7458 -0.4459 -0.7374
  990MOL0     C36514   9.887   0.996   5.459  0.5644  0.4507  0.5410
  990MOL0     C36515   9.975   1.016   5.569 -0.8795  0.3452  0.5308
  990MOL0     C36516  10.015   0.906   5.645 -0.5044  0.2189 -0.0717
  990MOL0     C36517   9.964   0.778   5.630  1.1571  0.0006 -0.1350
  990MOL0     O36518   9.999   0.692   5.730  0.7780  0.6052 -0.0698
  990MOL0     C36519   9.954   0.559   5.709  0.6368 -0.6461  0.1541
  990MOL0     C36520   9.997   0.473   5.830  0.8196  0.2480  0.3141
  990MOL0     C36521   9.947   0.331   5.823  0.3136  0.7261 -0.1573
  990MOL0     C36522   9.800   0.323   5.877 -0.5226 -0.0255 -0.1497
  990MOL0     C36523   9.740   0.206   5.795 -0.4338  0.4405 -0.4461
  990MOL0     C36524   9.786   0.053   5.829  0.1145 -0.7746 -0.3455
  990MOL0     C36525   9.747  -0.002   5.965  0.7485  1.1989 -0.2350
  990MOL0     C36526   9.588  -0.016   5.971  0.3631 -0.4666 -0.2034
  990MOL0    Cl36527   9.554  -0.143   6.088 -0.1255  0.3206 -0.3190
  990MOL0     C36528   9.875   0.759   5.518 -0.5482  0.8833  0.2352
  990MOL0     C36529   9.847   0.866   5.426 -0.7737  0.7305  1.2691
  990MOL0     O36530   9.853   1.023   5.181 -0.0448 -0.0753  0.1975
  990MOL0     C36531   9.726   1.344   5.250 -0.7966 -0.3136  0.2049
  990MOL0     C36532   9.644   1.453   5.201 -0.7233 -0.0627  0.3958
  990MOL0     N36533   9.155   1.762   4.491  0.2291 -0.2859 -0.1135
  990MOL0     N36534   9.061   1.744   4.405  0.2202 -0.4831 -0.3660
  990MOL0     C36535   8.000   0.837   4.116  0.2397 -0.2088 -0.0111
  990MOL0     C36536   7.878   0.769   4.122  0.6039  0.2499 -0.8202
  990MOL0     C36537   7.457   0.671   4.234 -0.0501  0.1909 -0.4376
  990MOL0     C36538   7.344   0.710   4.160  0.4250  0.3074  1.1665
  990MOL0     C36539   7.225   0.639   4.168  0.2365  0.1051 -0.3938
  990MOL0     C36540   7.204   0.542   4.264  0.3628 -0.4696  0.7347
  990MOL0     O36541   7.085   0.490   4.289  0.4081  1.8895  0.2854
  990MOL0     C36542   6.970   0.545   4.232  0.4081  1.3608  0.8789
  990MOL0     C36543   6.847   0.502   4.307  0.5133 -0.2312  0.8569
  990MOL0     C36544   6.819   0.351   4.317  0.0005 -0.1916  0.2571
  990MOL0     C36545   6.779   0.285   4.191 -0.8048  0.2972 -0.6356
  990MOL0     C36546   6.639   0.320   4.164  0.9886 -0.1985 -0.8432
  990MOL0     C36547   6.524   0.340   4.132 -0.4650 -0.1742 -0.4978
  990MOL0     C36548   7.308   0.508   4.342 -0.8900 -0.0552 -0.8136
  990MOL0     C36549   7.431   0.564   4.329 -0.6826 -0.0265 -0.5271
  990MOL0     C36550   7.528   0.485   4.414 -0.3837  0.2907 -0.5176
  990MOL0     H36551   7.840   0.772   4.466  0.1083 -2.1054  0.2046
  990MOL0     H36552   8.056   0.880   4.445 -2.3060 -2.9731  0.9063
  990MOL0     H36553   8.254   1.001   4.401  0.3156  2.0894  1.7290
  990MOL0     H36554   8.141   1.114   4.327  1.8210  2.5896 -0.7222
  990MOL0     H36555   8.413   1.053   4.211  0.5506 -0.3942  1.1732
  990MOL0     H36556   8.305   1.187   4.168 -2.3889  0.5086  0.3652
  990MOL0     H36557   8.325   1.273   4.408 -0.2015 -0.1796 -1.8066
  990MOL0     H36558   8.457   1.163   4.440  0.5963  1.7384  1.3563
  990MOL0     H36559   8.569   1.244   4.231 -0.1526 -0.2972  1.2339
  990MOL0     H36560   8.469   1.390   4.237  0.3112 -1.5931 -3.2628
  990MOL0     H36561   8.642   1.281   4.464  2.0968  2.6459  2.3420
  990MOL0     H36562   8.588   1.443   4.468 -1.3850 -0.6210  0.4168
  990MOL0     H36563   8.808   1.336   4.283 -0.0619 -0.7045  0.6832
  990MOL0     H36564   8.718   1.489   4.260 -0.9347 -0.7323 -1.2734
  990MOL0     H36565   8.954   1.441   4.415  0.7879  0.7074  0.9159
  990MOL0     H36566   8.824   1.450   4.531  2.5427 -2.4386 -0.2192
  990MOL0     H36567   8.845   1.643   4.298 -1.5452 -1.0043 -0.7500
  990MOL0     H36568   8.752   1.665   4.443 -1.3782 -1.3049 -1.9398
  990MOL0     H36569   8.927   1.645   4.690 -0.2701 -0.1831 -0.0599
  990MOL0     H36570   9.146   1.753   4.831 -0.6947  1.0640  0.5808
  990MOL0     H36571   9.272   1.829   4.725  2.1373 -2.3864  0.4750
  990MOL0     H36572   9.228   1.531   4.774 -0.0561 -0.4817  0.4876
  990MOL0     H36573   9.357   1.613   4.675 -3.1458 -2.0873 -1.9328
  990MOL0     H36574   9.466   1.688   4.868 -1.0097  0.4695  0.1865
  990MOL0     H36575   9.315   1.702   4.959  0.0964  1.9214 -1.7914
  990MOL0     H36576   9.309   1.437   4.957  0.5692  1.0793 -0.3242
  990MOL0     H36577   9.466   1.431   4.903 -0.0725  0.7937 -2.5558
  990MOL0     H36578   9.399   1.251   5.056 -0.3906  0.1159 -0.7624
  990MOL0     H36579   9.415   1.036   5.173  2.3834  3.0143  3.5471
  990MOL0     H36580   9.568   0.957   5.202  1.6549 -1.2711 -1.5599
  990MOL0     H36581   9.518   1.000   5.034  1.0346  0.0022 -0.6272
  990MOL0     H36582  10.010   1.117   5.586 -2.2816  1.0847 -0.7198
  990MOL0     H36583  10.064   0.916   5.741 -1.8897  0.3088  0.6515
  990MOL0     H36584   9.846   0.553   5.689  1.0602 -0.8526 -2.3749
  990MOL0     H36585  10.010   0.503   5.634 -0.9469 -1.1514 -0.7134
  990MOL0     H36586  10.106   0.466   5.826  0.7689  0.0906 -2.0897
  990MOL0     H36587   9.976   0.515   5.929  0.5802  1.4054 -0.2102
  990MOL0     H36588  10.013   0.262   5.877 -1.6565 -1.6248 -0.5351
  990MOL0     H36589   9.953   0.300   5.718 -0.9405  3.2923 -1.0684
  990MOL0     H36590   9.752   0.418   5.852  0.6298  1.4621  2.7877
  990MOL0     H36591   9.803   0.307   5.985  3.1953  1.0459  0.0546
  990MOL0     H36592   9.632   0.216   5.804 -0.2566  3.2410 -0.7629
  990MOL0     H36593   9.758   0.225   5.689 -0.7580 -1.1059 -0.8000
  990MOL0     H36594   9.894   0.043   5.844  0.3911  0.6155 -1.2396
  990MOL0     H36595   9.743  -0.015   5.756 -1.1106  0.2662 -0.6346
  990MOL0     H36596   9.791   0.043   6.054 -1.0492 -1.5074  2.1977
  990MOL0     H36597   9.781  -0.106   5.963  1.3499  1.3864  0.0251
  990MOL0     H36598   9.546  -0.040   5.873  1.6085 -0.2466 -0.8118
  990MOL0     H36599   9.553   0.076   6.018  1.9907 -0.7179  1.6484
  990MOL0     H36600   9.841   0.657   5.509  2.6213 -0.2855  0.4694
  990MOL0     H36601   9.778   0.853   5.343  0.6117 -1.0655  0.3135
  990MOL0     H36602   9.818   1.358   5.305 -1.2077 -0.0943  0.8386
  990MOL0     H36603   9.667   1.559   5.206 -2.1239  0.4737 -2.4369
  990MOL0     H36604   8.047   0.849   4.018 -1.1617 -1.8113 -0.9441
  990MOL0     H36605   7.824   0.740   4.032 -0.0759 -3.0540  0.4746
  990MOL0     H36606   7.375   0.782   4.085  0.0871 -1.0030 -0.2910
  990MOL0     H36607   7.139   0.663   4.107  0.6548 -3.0906 -2.4364
  990MOL0     H36608   6.970   0.654   4.236  0.3535  1.5877 -2.4325
  990MOL0     H36609   6.967   0.518   4.126  1.7354  1.1269  0.8752
  990MOL0     H36610   6.764   0.537   4.244  1.3236 -0.1982 -0.2375
  990MOL0     H36611   6.843   0.556   4.402  1.7863  2.8220 -0.6688
  990MOL0     H36612   6.905   0.290   4.349  1.2099  1.6015  0.5706
  990MOL0     H36613   6.746   0.333   4.396  2.8637 -4.9680  2.3193
  990MOL0     H36614   6.796   0.177   4.196 -0.4399  0.3628 -0.3420
  990MOL0     H36615   6.853   0.315   4.116 -0.2312  0.5368  0.0075
  990MOL0     H36616   6.430   0.376   4.094 -0.3673 -1.3004 -1.8595
  990MOL0     H36617   7.285   0.435   4.419  0.1916  3.5145  3.2988
  990MOL0     H36618   7.562   0.564   4.482  0.3715  0.8629 -1.5200
  990MOL0     H36619   7.481   0.402   4.467 -1.8367  1.8782  0.8138
  990MOL0     H36620   7.612   0.452   4.352  2.5231 -0.5716  3.4647
  991MOL0     O36621   8.980   2.948   8.071  0.1459  0.1402 -0.8305
  991MOL0     C36622   8.931   2.948   7.955 -0.0819 -0.2355 -0.3589
  991MOL0     O36623   9.007   2.924   7.846  0.1681  0.0715 -0.0033
  991MOL0     C36624   9.142   2.917   7.867 -0.3140  0.1834  0.6985
  991MOL0     C36625   9.227   3.020   7.878 -0.9199 -0.5892  0.6909
  991MOL0     C36626   9.365   2.993   7.888  0.1749 -0.0253  0.4117
  991MOL0     C36627   9.423   2.862   7.882 -0.4458  0.3316  0.0121
  991MOL0     O36628   9.561   2.827   7.893  0.4829 -0.3502 -0.3385
  991MOL0     C36629   9.622   2.874   8.009  0.3217  0.3922  0.7790
  991MOL0     C36630   9.775   2.872   7.998 -0.1600 -0.1703  0.2158
  991MOL0     C36631   9.837   3.018   7.996 -0.7774  0.7530  0.8935
  991MOL0     C36632   9.981   3.025   7.942  1.0143 -1.0714 -0.2266
  991MOL0     C36633  10.020   3.172   7.891 -0.1525  0.6212 -0.3125
  991MOL0     C36634  10.040   3.287   7.992  0.5644  0.0169 -0.4800
  991MOL0     C36635  10.165   3.269   8.080  0.1545 -0.1404 -0.3111
  991MOL0     C36636  10.192   3.385   8.181 -0.7695  1.0263  0.4607
  991MOL0     N36637  10.195   3.518   8.111 -0.1077  0.6157  0.1930
  991MOL0     C36638  10.089   3.607   8.112 -0.3536  0.1583 -0.6181
  991MOL0     C36639  10.132   3.709   8.041 -0.5846  0.0110 -0.3167
  991MOL0     C36640  10.056   3.840   8.029  0.2695 -0.3884  0.4829
  991MOL0     C36641   9.899   3.823   8.017 -0.5325  1.1563  0.1086
  991MOL0     C36642   9.842   3.966   8.017  0.2301  0.4211 -0.4344
  991MOL0     C36643   9.688   3.951   8.050 -0.9549 -0.2056 -0.0431
  991MOL0     O36644   9.630   4.067   8.105  0.4745  0.5762  0.3240
  991MOL0     C36645   9.501   4.049   8.153  0.7870  0.5378 -0.4116
  991MOL0     C36646   9.420   3.939   8.123  0.6337 -0.2354 -0.3256
  991MOL0     C36647   9.281   3.939   8.160 -0.6352 -0.2105 -0.7993
  991MOL0     C36648   9.202   3.810   8.138 -1.2172 -0.0043 -0.5596
  991MOL0     C36649   9.238   4.038   8.244  1.0527  0.7556  0.2817
  991MOL0     C36650   9.094   4.055   8.291 -0.8330 -0.0794  0.0330
  991MOL0     O36651   9.060   4.160   8.370 -0.2387  0.3519  0.7379
  991MOL0     C36652   8.924   4.176   8.406 -0.1187 -0.5087 -0.4391
  991MOL0     C36653   8.834   4.205   8.307  0.1667  1.1511 -0.3507
  991MOL0     C36654   8.694   4.218   8.329 -0.2455 -0.0691  0.7681
  991MOL0     C36655   8.651   4.198   8.460 -0.1120  0.6891  0.0760
  991MOL0     O36656   8.512   4.181   8.476  0.0431 -0.6358 -0.2277
  991MOL0     C36657   8.446   4.150   8.602  0.6884  0.4529  0.3839
  991MOL0     C36658   8.311   4.222   8.596  0.0668  0.1960 -0.0921
  991MOL0     C36659   8.243   4.240   8.464 -0.4768  0.3397  0.2907
  991MOL0     C36660   8.089   4.285   8.464 -0.7122  0.7519 -0.1738
  991MOL0     C36661   8.027   4.288   8.328  0.1508 -1.1011  0.4386
  991MOL0     C36662   8.016   4.155   8.258  0.3984 -0.8372  0.4798
  991MOL0     C36663   7.954   4.163   8.122  1.1182 -0.3185  0.1927
  991MOL0     C36664   7.951   4.029   8.054 -0.4850  0.1787  0.3599
  991MOL0    Cl36665   7.872   4.054   7.895  0.3760 -0.0708  0.6637
  991MOL0     C36666   8.736   4.178   8.565 -1.1760  0.0301 -0.0406
  991MOL0     C36667   8.878   4.164   8.538 -1.1005 -0.9952 -0.2032
  991MOL0     O36668   9.013   3.976   8.247  0.3692 -0.7952 -0.3187
  991MOL0     C36669   9.325   4.139   8.279 -0.4048 -0.5678  0.9830
  991MOL0     C36670   9.457   4.155   8.233  0.6151 -0.6375 -0.1101
  991MOL0     N36671  10.262   3.683   8.000  0.1148  1.2978  0.2705
  991MOL0     N36672  10.299   3.562   8.038 -0.2033  0.2218 -0.5036
  991MOL0     C36673   9.330   2.755   7.883 -0.5025 -0.0683 -0.6079
  991MOL0     C36674   9.194   2.789   7.860 -0.3294 -0.4499 -0.4530
  991MOL0     C36675   8.787   2.987   7.942 -0.0367  0.6422  0.3796
  991MOL0     C36676   8.747   3.022   7.810 -0.1467  0.1916  0.0107
  991MOL0     C36677   8.619   3.077   7.793 -0.2131 -0.1888  0.3836
  991MOL0     C36678   8.533   3.070   7.901 -0.0690 -0.4899 -0.5182
  991MOL0     O36679   8.403   3.121   7.899 -0.5818 -0.5981 -0.2143
  991MOL0     C36680   8.352   3.214   7.805  0.0405  0.2025 -0.3746
  991MOL0     C36681   8.208   3.252   7.824  0.1979 -0.3915  0.1419
  991MOL0     C36682   8.149   3.326   7.705  0.1487 -0.1172  0.6098
  991MOL0     C36683   8.063   3.233   7.616  0.2579  0.1001  0.1713
  991MOL0     C36684   7.999   3.294   7.505 -0.8392 -0.2258  0.6118
  991MOL0     C36685   7.943   3.352   7.415 -0.1580 -0.7161  0.1556
  991MOL0     C36686   8.577   3.030   8.029 -0.2746 -0.4710  0.2078
  991MOL0     C36687   8.702   2.984   8.050 -0.0505 -0.2472  0.2918
  991MOL0     C36688   8.735   2.945   8.196 -0.2540 -0.2770 -0.4870
  991MOL0     H36689   9.205   3.123   7.854  0.7624 -0.8894 -2.8978
  991MOL0     H36690   9.444   3.067   7.890  1.6065 -1.4027 -1.2330
  991MOL0     H36691   9.580   2.823   8.096  0.0292 -0.6160  0.0603
  991MOL0     H36692   9.583   2.975   8.027 -1.9836 -0.7253  2.6627
  991MOL0     H36693   9.820   2.823   8.085 -0.3972 -1.8702 -0.5904
  991MOL0     H36694   9.795   2.808   7.913 -1.8949 -3.1137  1.8617
  991MOL0     H36695   9.778   3.075   7.923  0.9029 -0.7183 -1.8099
  991MOL0     H36696   9.837   3.058   8.097  1.0334  0.5381  1.0063
  991MOL0     H36697  10.054   3.001   8.020  1.9296  0.5979 -0.5227
  991MOL0     H36698   9.991   2.952   7.861 -2.3301 -0.9850 -0.8438
  991MOL0     H36699   9.955   3.208   7.811  0.4959 -0.5120 -1.3830
  991MOL0     H36700  10.109   3.158   7.830 -2.6001 -2.9976 -3.5069
  991MOL0     H36701  10.039   3.381   7.936  0.7288 -0.6109 -1.5627
  991MOL0     H36702   9.951   3.288   8.057 -1.3179  0.1993 -2.9044
  991MOL0     H36703  10.248   3.241   8.014  0.5008 -1.3727  0.5910
  991MOL0     H36704  10.150   3.180   8.142  0.0043 -0.8939 -1.4045
  991MOL0     H36705  10.109   3.380   8.253 -0.5081 -2.4547  0.6657
  991MOL0     H36706  10.284   3.372   8.240 -0.2230  1.4975 -0.2672
  991MOL0     H36707   9.999   3.603   8.172 -1.0474  1.5862 -1.5300
  991MOL0     H36708  10.100   3.894   7.944 -2.6888 -0.0396 -0.9858
  991MOL0     H36709  10.077   3.900   8.117 -1.2861 -1.1435  1.4162
  991MOL0     H36710   9.868   3.760   7.933  0.8893 -0.6955  0.8915
  991MOL0     H36711   9.876   3.771   8.110  1.3171  1.0400  0.5362
  991MOL0     H36712   9.882   4.035   8.092 -0.5828 -0.5697  0.9662
  991MOL0     H36713   9.842   4.019   7.921  0.6666  2.4848  0.6579
  991MOL0     H36714   9.633   3.923   7.960 -1.7004 -0.4469  0.4682
  991MOL0     H36715   9.675   3.871   8.124  0.3541 -0.1254  0.2947
  991MOL0     H36716   9.443   3.861   8.052  0.4719  1.9883 -3.0079
  991MOL0     H36717   9.275   3.736   8.104 -1.0293 -0.1374  0.1114
  991MOL0     H36718   9.128   3.823   8.059 -1.5141 -1.2446 -0.5082
  991MOL0     H36719   9.155   3.772   8.230 -1.2183  3.3027  0.9454
  991MOL0     H36720   8.877   4.211   8.208  2.0977 -1.4390  0.2356
  991MOL0     H36721   8.625   4.240   8.249  0.1147  3.1812  1.2145
  991MOL0     H36722   8.433   4.042   8.607 -4.5089  0.8777  3.2038
  991MOL0     H36723   8.500   4.186   8.690 -0.9739  1.9134  0.8761
  991MOL0     H36724   8.241   4.169   8.660  2.2474  2.0334  4.2070
  991MOL0     H36725   8.320   4.322   8.641 -1.2014  0.2322  0.1199
  991MOL0     H36726   8.257   4.143   8.414 -4.9532 -0.4501  0.1654
  991MOL0     H36727   8.304   4.314   8.411 -1.9355  0.8060 -0.7961
  991MOL0     H36728   8.087   4.378   8.522  0.1117  1.7178 -1.6282
  991MOL0     H36729   8.042   4.207   8.524  1.2849 -0.6004 -0.2658
  991MOL0     H36730   7.928   4.333   8.342  1.2420  0.6063  3.7293
  991MOL0     H36731   8.093   4.358   8.276  2.0175 -1.9821  1.4906
  991MOL0     H36732   7.963   4.089   8.327  0.2132 -0.8435  0.3312
  991MOL0     H36733   8.120   4.126   8.242  0.0450 -0.9270 -2.0604
  991MOL0     H36734   8.005   4.233   8.056 -1.6084  2.4155  0.7100
  991MOL0     H36735   7.853   4.202   8.138  1.3802  0.0897  0.8935
  991MOL0     H36736   7.890   3.954   8.106  0.7028 -2.3475 -1.6789
  991MOL0     H36737   8.051   3.987   8.047 -0.5931 -0.7589  3.0968
  991MOL0     H36738   8.692   4.164   8.663 -0.3499 -1.1047  0.1881
  991MOL0     H36739   8.953   4.133   8.610 -0.2402 -0.7501 -0.9796
  991MOL0     H36740   9.297   4.225   8.339  0.4930 -0.2776  1.0115
  991MOL0     H36741   9.511   4.245   8.262 -0.5522  0.3819 -0.9661
  991MOL0     H36742   9.367   2.653   7.878  1.9978  0.6884  0.6711
  991MOL0     H36743   9.130   2.702   7.843  1.2365 -1.0903 -3.8979
  991MOL0     H36744   8.819   3.016   7.729 -0.3509 -1.6515 -0.0859
  991MOL0     H36745   8.587   3.103   7.692  2.5860 -0.8715 -0.7886
  991MOL0     H36746   8.399   3.311   7.821 -0.3556  0.3779 -0.2594
  991MOL0     H36747   8.374   3.191   7.700  0.6710 -1.3169  0.0638
  991MOL0     H36748   8.190   3.305   7.918 -1.5984 -1.4560  0.4474
  991MOL0     H36749   8.142   3.167   7.844 -3.1738  1.9470 -0.2035
  991MOL0     H36750   8.083   3.410   7.730 -1.4195 -1.0399 -0.2949
  991MOL0     H36751   8.230   3.359   7.639  0.0991  0.3971  0.7996
  991MOL0     H36752   7.980   3.192   7.675  2.8975 -0.6875  3.6915
  991MOL0     H36753   8.120   3.152   7.570 -1.6950  0.6749 -3.6702
  991MOL0     H36754   7.873   3.403   7.352  0.1062 -2.1356 -1.3483
  991MOL0     H36755   8.508   3.041   8.112 -1.2625 -1.6904 -0.4100
  991MOL0     H36756   8.649   2.946   8.263 -0.1177 -3.1145 -0.1200
  991MOL0     H36757   8.777   2.843   8.198 -0.5700 -0.3988  0.2267
  991MOL0     H36758   8.809   3.008   8.245 -1.7916  0.9005  0.3966
  992MOL0     O36759   9.628   5.009   2.599 -0.6235 -0.0189 -0.0932
  992MOL0     C36760   9.529   4.946   2.569 -0.1331  0.3727 -0.9156
  992MOL0     O36761   9.519   4.857   2.466  0.7879 -0.0464 -0.3898
  992MOL0     C36762   9.633   4.820   2.402 -0.2178  0.5051 -0.1888
  992MOL0     C36763   9.619   4.797   2.266  0.0579  0.9947 -0.1829
  992MOL0     C36764   9.723   4.737   2.192 -0.4803 -0.7260 -0.3517
  992MOL0     C36765   9.852   4.708   2.252  0.4877 -0.2907  0.8230
  992MOL0     O36766   9.965   4.674   2.181 -0.3970  0.0088 -0.2024
  992MOL0     C36767   9.953   4.625   2.043 -0.1299 -0.0870 -0.3255
  992MOL0     C36768  10.096   4.602   2.000  0.0823 -0.1501  0.3808
  992MOL0     C36769  10.191   4.714   2.014 -0.0910 -0.8705 -0.2024
  992MOL0     C36770  10.327   4.681   1.950  0.0832  0.3610  1.0579
  992MOL0     C36771  10.403   4.558   2.021  0.2958 -0.4280 -0.4484
  992MOL0     C36772  10.505   4.499   1.933 -1.0077  0.3931  0.0176
  992MOL0     C36773  10.596   4.399   2.001  0.0250 -0.1590  0.5357
  992MOL0     C36774  10.656   4.442   2.128 -0.4584  0.5507  1.0735
  992MOL0     N36775  10.766   4.540   2.108  1.0163  0.3708 -0.2741
  992MOL0     C36776  10.750   4.671   2.108  0.4676  0.1879 -0.7552
  992MOL0     C36777  10.868   4.724   2.073 -0.4215 -0.4206 -0.3942
  992MOL0     C36778  10.902   4.872   2.069 -0.9858 -0.2674 -0.7707
  992MOL0     C36779  11.055   4.906   2.028 -0.4929  0.1312  0.2342
  992MOL0     C36780  11.089   4.867   1.885 -0.2757  0.6803 -0.1634
  992MOL0     C36781  11.235   4.903   1.838  0.1361  1.0827 -0.2966
  992MOL0     O36782  11.244   4.934   1.700  0.9515  0.4419 -0.2421
  992MOL0     C36783  11.361   4.961   1.635  0.1905 -0.5997  0.7605
  992MOL0     C36784  11.483   4.980   1.694 -0.2272 -0.1528 -0.1961
  992MOL0     C36785  11.601   4.996   1.622 -0.2375  0.1996 -0.9123
  992MOL0     C36786  11.734   5.010   1.699 -0.4995 -0.2619 -0.0291
  992MOL0     C36787  11.596   4.969   1.487  0.6504 -0.5878 -0.3932
  992MOL0     C36788  11.713   4.995   1.403 -0.0417  0.9879 -0.6715
  992MOL0     O36789  11.666   5.026   1.283 -0.1826 -0.0127  0.0428
  992MOL0     C36790  11.751   5.061   1.189 -0.2775 -0.2194  0.4290
  992MOL0     C36791  11.869   4.984   1.148  1.0581  0.4825 -0.4648
  992MOL0     C36792  11.929   5.024   1.028  0.3194 -0.0467  0.4269
  992MOL0     C36793  11.879   5.132   0.955  0.4895 -0.6973  0.0216
  992MOL0     O36794  11.955   5.164   0.840 -0.1559  0.3890  0.0925
  992MOL0     C36795  11.891   5.236   0.732 -0.0913 -0.9210  0.3748
  992MOL0     C36796  11.986   5.265   0.619 -0.0808  0.6228 -0.5254
  992MOL0     C36797  12.024   5.146   0.523 -1.0687 -0.1761 -0.3770
  992MOL0     C36798  12.143   5.193   0.429  0.2051  0.2200 -0.0341
  992MOL0     C36799  12.282   5.183   0.499 -0.2642 -0.0513  0.4942
  992MOL0     C36800  12.307   5.052   0.572 -0.3973  0.4780  0.1539
  992MOL0     C36801  12.450   5.028   0.636  0.1386 -0.7682 -0.9070
  992MOL0     C36802  12.569   5.065   0.547  0.3405  0.4036 -0.0813
  992MOL0    Cl36803  12.608   5.232   0.530 -0.1019 -0.6630 -0.5848
  992MOL0     C36804  11.764   5.199   1.002 -0.0416  0.3758  0.8967
  992MOL0     C36805  11.704   5.168   1.121  1.0854 -0.1371  0.7420
  992MOL0     O36806  11.832   4.974   1.441  0.5500  0.7344  0.3757
  992MOL0     C36807  11.472   4.929   1.431 -0.8259  0.0929 -0.0479
  992MOL0     C36808  11.356   4.929   1.506 -0.4061 -0.5023  0.9916
  992MOL0     N36809  10.953   4.617   2.059 -1.1449  0.4657 -0.1415
  992MOL0     N36810  10.892   4.507   2.084  0.1360  0.1017  1.4773
  992MOL0     C36811   9.867   4.743   2.384 -0.1567 -0.3674  0.6306
  992MOL0     C36812   9.753   4.791   2.457 -0.0904  0.3961  0.2191
  992MOL0     C36813   9.398   4.933   2.657  0.6993  0.1910 -0.0208
  992MOL0     C36814   9.300   4.833   2.626  0.5855  0.0745 -0.2365
  992MOL0     C36815   9.170   4.828   2.696 -0.2341 -0.5550 -0.1478
  992MOL0     C36816   9.146   4.921   2.797  0.5655 -0.4944  0.3188
  992MOL0     O36817   9.028   4.905   2.859 -0.3380  0.0181 -0.3234
  992MOL0     C36818   8.967   5.022   2.907 -0.1775  0.0038 -0.3562
  992MOL0     C36819   8.819   4.995   2.915  0.7666  0.1287 -0.0579
  992MOL0     C36820   8.783   4.880   3.020  0.2205  0.2143  0.0571
  992MOL0     C36821   8.637   4.846   3.029  0.2376  0.0694  0.3881
  992MOL0     C36822   8.553   4.962   3.071  0.5943  0.4880  0.4624
  992MOL0     C36823   8.495   5.059   3.111  0.3268 -0.6913  0.3777
  992MOL0     C36824   9.242   5.019   2.827 -0.1543  0.4910 -0.2250
  992MOL0     C36825   9.357   5.032   2.747  0.4652 -0.3911  0.7182
  992MOL0     C36826   9.449   5.129   2.798  0.5322 -0.7486  0.2586
  992MOL0     H36827   9.520   4.824   2.229 -1.3637 -1.9043  1.2499
  992MOL0     H36828   9.709   4.703   2.090  1.6312 -1.3084 -0.4956
  992MOL0     H36829   9.909   4.704   1.981  0.9818  0.8721  0.0533
  992MOL0     H36830   9.889   4.537   2.037 -1.3479  0.7188  0.2813
  992MOL0     H36831  10.119   4.507   2.050  0.0383 -0.6319 -0.4878
  992MOL0     H36832  10.093   4.587   1.892 -0.8807 -0.8482  0.4937
  992MOL0     H36833  10.156   4.803   1.961  2.7871 -1.1178 -2.8113
  992MOL0     H36834  10.205   4.743   2.118 -2.5994 -0.1110 -0.0234
  992MOL0     H36835  10.305   4.645   1.849  1.7352 -2.2126  1.5049
  992MOL0     H36836  10.388   4.771   1.941 -4.2634  3.6759  1.7598
  992MOL0     H36837  10.337   4.476   2.049 -0.9586  0.6093 -0.2641
  992MOL0     H36838  10.430   4.599   2.119 -0.7294 -0.2044 -0.2493
  992MOL0     H36839  10.461   4.458   1.841  1.9724  0.7034 -1.6813
  992MOL0     H36840  10.565   4.582   1.895  0.6941 -0.4133  0.8242
  992MOL0     H36841  10.680   4.378   1.935 -0.4152  2.5173 -0.9816
  992MOL0     H36842  10.542   4.306   2.024  2.9252 -1.9724  0.4589
  992MOL0     H36843  10.584   4.468   2.206 -0.4537  0.7339  1.0197
  992MOL0     H36844  10.704   4.361   2.183 -1.6493 -0.7535  0.2303
  992MOL0     H36845  10.660   4.729   2.126  1.1839  1.0177  0.2522
  992MOL0     H36846  10.884   4.919   2.167  1.5060 -1.5508  0.3935
  992MOL0     H36847  10.839   4.927   1.999 -0.4315  2.1283  0.4665
  992MOL0     H36848  11.079   5.013   2.039 -3.4926  1.1983 -2.0640
  992MOL0     H36849  11.120   4.846   2.092 -0.0743  0.7109  0.3649
  992MOL0     H36850  11.082   4.761   1.857 -0.6231  0.7991 -0.5446
  992MOL0     H36851  11.014   4.924   1.829 -3.2679  1.6211  4.2506
  992MOL0     H36852  11.272   4.987   1.897  1.1186  0.2060  0.3693
  992MOL0     H36853  11.299   4.816   1.856 -1.8093 -0.0005  1.9223
  992MOL0     H36854  11.479   4.992   1.802  0.9524  0.0954 -0.1627
  992MOL0     H36855  11.789   4.916   1.711  0.1067  0.3844  3.4894
  992MOL0     H36856  11.716   5.046   1.801 -0.5829  1.7303 -0.7063
  992MOL0     H36857  11.796   5.087   1.653 -0.3889 -0.0930  0.3985
  992MOL0     H36858  11.894   4.890   1.197 -0.8382 -2.0091 -3.8173
  992MOL0     H36859  12.021   4.977   0.994 -0.4838  0.9115 -3.4853
  992MOL0     H36860  11.808   5.171   0.703 -0.8450  0.3491 -0.3982
  992MOL0     H36861  11.848   5.328   0.771 -0.4828 -0.8542 -0.2082
  992MOL0     H36862  11.938   5.337   0.552 -2.5520 -2.8170 -2.8472
  992MOL0     H36863  12.078   5.302   0.666 -0.2360  0.6423 -0.2416
  992MOL0     H36864  11.946   5.124   0.450 -1.7724  2.7154 -0.6166
  992MOL0     H36865  12.046   5.057   0.582  0.9835  0.6859  0.2473
  992MOL0     H36866  12.123   5.296   0.399 -0.3398  0.0967 -0.1125
  992MOL0     H36867  12.134   5.146   0.331 -0.3605  0.9135 -0.3241
  992MOL0     H36868  12.359   5.202   0.424  0.6067 -1.3224  1.0336
  992MOL0     H36869  12.284   5.264   0.573 -0.2470  0.9917 -0.6100
  992MOL0     H36870  12.285   4.971   0.503 -1.0112  2.1126 -1.6529
  992MOL0     H36871  12.237   5.039   0.655 -0.4793  0.8296  0.1438
  992MOL0     H36872  12.453   4.925   0.672  2.0708  0.4858  3.1135
  992MOL0     H36873  12.440   5.086   0.729  0.4954 -0.4751 -1.0468
  992MOL0     H36874  12.541   5.024   0.450 -2.8884  1.2313  0.3644
  992MOL0     H36875  12.663   5.024   0.586 -1.1908  0.2783  4.0233
  992MOL0     H36876  11.717   5.285   0.956 -2.1488 -0.3783  1.4712
  992MOL0     H36877  11.614   5.220   1.152  0.1698 -2.1069  1.5459
  992MOL0     H36878  11.468   4.889   1.330 -2.5995 -2.3981  0.8985
  992MOL0     H36879  11.257   4.913   1.466 -0.8869  1.2634  1.3579
  992MOL0     H36880   9.962   4.722   2.432 -1.7644 -1.3431  3.6365
  992MOL0     H36881   9.762   4.810   2.564 -1.0533 -1.3850  0.6567
  992MOL0     H36882   9.321   4.759   2.550  1.7247 -1.4811  1.4949
  992MOL0     H36883   9.094   4.753   2.677 -2.2182  0.9653  1.2902
  992MOL0     H36884   9.005   5.046   3.006  2.3835  2.0209 -1.7052
  992MOL0     H36885   8.989   5.106   2.840  1.1445 -1.2549 -1.5828
  992MOL0     H36886   8.797   4.962   2.813  2.1522 -2.6193  0.4235
  992MOL0     H36887   8.768   5.090   2.935  2.2048  0.2072  4.1823
  992MOL0     H36888   8.851   4.798   2.993  1.6752  1.1725  0.6432
  992MOL0     H36889   8.816   4.906   3.121  0.7431  2.0839 -0.5442
  992MOL0     H36890   8.617   4.769   3.105  0.0265  1.1957  1.5138
  992MOL0     H36891   8.607   4.803   2.933  0.9861  0.5983 -0.0929
  992MOL0     H36892   8.459   5.152   3.150 -1.3079 -1.2052  0.2005
  992MOL0     H36893   9.212   5.087   2.906 -2.6502  0.6742 -1.2378
  992MOL0     H36894   9.536   5.082   2.844 -0.5386 -0.0667  3.1703
  992MOL0     H36895   9.477   5.201   2.721 -1.5928 -0.6227 -0.4557
  992MOL0     H36896   9.403   5.193   2.873  0.9624  2.0553 -1.7031
  993MOL0     O36897   9.775   2.176   3.126 -0.1694  0.3306  0.0337
  993MOL0     C36898   9.884   2.121   3.162 -0.6424 -0.6385  0.1795
  993MOL0     O36899   9.914   1.990   3.160  1.0436 -0.0820  0.2242
  993MOL0     C36900   9.809   1.911   3.118 -0.1485 -0.1199  0.6007
  993MOL0     C36901   9.797   1.890   2.980 -0.7229  0.5141 -0.0877
  993MOL0     C36902   9.684   1.816   2.936 -0.2276 -0.3506  0.5874
  993MOL0     C36903   9.599   1.755   3.031 -0.0228 -0.3351 -0.9496
  993MOL0     O36904   9.504   1.653   3.016  0.7904  0.3228  0.5707
  993MOL0     C36905   9.530   1.584   2.890  0.1735 -0.3602  0.3572
  993MOL0     C36906   9.456   1.455   2.884 -1.3336 -0.4196  0.6443
  993MOL0     C36907   9.305   1.463   2.910 -0.6975 -0.7366  0.1476
  993MOL0     C36908   9.250   1.334   2.867 -0.0064 -0.3573 -0.0176
  993MOL0     C36909   9.102   1.332   2.891  1.1462  0.3622 -0.0284
  993MOL0     C36910   9.030   1.221   2.812  0.6199  0.0222  0.3576
  993MOL0     C36911   8.882   1.211   2.837  0.4124  0.6181  0.3572
  993MOL0     C36912   8.830   1.078   2.768  0.4126  0.2140 -1.0486
  993MOL0     N36913   8.803   1.098   2.626 -0.3644 -0.1245  1.1380
  993MOL0     C36914   8.681   1.126   2.581  0.1707 -0.2644 -0.5279
  993MOL0     C36915   8.694   1.154   2.451  1.5410 -0.1085  0.0875
  993MOL0     C36916   8.583   1.172   2.352  0.7226 -0.2726  0.0461
  993MOL0     C36917   8.591   1.067   2.245  1.0780  0.4771  0.0225
  993MOL0     C36918   8.494   1.078   2.125  0.1931  0.7708 -0.2649
  993MOL0     C36919   8.571   1.034   2.002  0.0830  0.8917 -0.4246
  993MOL0     O36920   8.582   0.890   1.998  0.2281 -0.4703  0.1553
  993MOL0     C36921   8.475   0.806   1.972 -0.5071 -0.7594  1.2407
  993MOL0     C36922   8.495   0.670   1.965 -1.6027  0.5166 -0.0963
  993MOL0     C36923   8.392   0.579   1.933  0.8424  0.8216  0.2381
  993MOL0     C36924   8.412   0.437   1.965  0.4828 -0.1434 -0.0534
  993MOL0     C36925   8.273   0.630   1.876  0.5089  0.0484  0.2188
  993MOL0     C36926   8.162   0.554   1.817 -0.7869  0.1470 -0.1870
  993MOL0     O36927   8.046   0.623   1.786  0.2375  0.2391  0.8237
  993MOL0     C36928   7.925   0.560   1.772 -0.5796  0.0519 -0.9913
  993MOL0     C36929   7.826   0.638   1.710 -0.9406  0.3439  1.2481
  993MOL0     C36930   7.699   0.596   1.695  0.5311 -0.1683  0.3488
  993MOL0     C36931   7.662   0.464   1.735 -0.1474 -0.2792  1.0765
  993MOL0     O36932   7.532   0.418   1.733 -0.5226  0.1063 -0.1268
  993MOL0     C36933   7.444   0.460   1.631  0.7223  0.6463 -0.3389
  993MOL0     C36934   7.322   0.369   1.628 -0.2349 -0.5754 -1.2392
  993MOL0     C36935   7.365   0.231   1.587  0.5329 -0.8517 -0.6275
  993MOL0     C36936   7.256   0.153   1.517 -0.3733  0.6003 -0.7035
  993MOL0     C36937   7.299   0.018   1.459 -0.1487 -0.3885  0.9773
  993MOL0     C36938   7.302  -0.098   1.559  0.3430  0.1532 -0.2144
  993MOL0     C36939   7.327  -0.228   1.491 -0.0861 -0.6681  0.2411
  993MOL0     C36940   7.287  -0.359   1.557  0.1068 -0.2183 -0.7509
  993MOL0    Cl36941   7.360  -0.376   1.714  0.1302 -0.3182  0.1998
  993MOL0     C36942   7.756   0.394   1.809 -0.2218  0.0398  0.7208
  993MOL0     C36943   7.890   0.426   1.824  0.2595  0.1340 -1.0328
  993MOL0     O36944   8.182   0.439   1.777 -0.3175 -1.5623 -1.1064
  993MOL0     C36945   8.258   0.770   1.883 -0.7253  0.3274 -0.1431
  993MOL0     C36946   8.356   0.855   1.921 -0.1452  0.2823 -0.1337
  993MOL0     N36947   8.829   1.169   2.424 -0.3863 -0.2807 -0.6862
  993MOL0     N36948   8.901   1.128   2.534  0.2703 -0.9064  0.5518
  993MOL0     C36949   9.621   1.785   3.165  0.5931  0.7201  0.6914
  993MOL0     C36950   9.721   1.858   3.214 -0.2678 -0.4470  0.2677
  993MOL0     C36951   9.994   2.217   3.191  0.2892  0.6029 -0.5130
  993MOL0     C36952  10.120   2.163   3.163  0.3114  0.0258  1.1810
  993MOL0     C36953  10.237   2.225   3.180  0.5550 -0.7766  0.7093
  993MOL0     C36954  10.239   2.357   3.230 -0.3106  0.4138 -0.5869
  993MOL0     O36955  10.361   2.415   3.247  0.1746  0.8300 -0.1901
  993MOL0     C36956  10.375   2.555   3.248 -0.7769 -0.6437  0.3112
  993MOL0     C36957  10.511   2.613   3.288  0.1992  0.4689  0.5781
  993MOL0     C36958  10.526   2.753   3.236  0.1264 -0.0020  0.0789
  993MOL0     C36959  10.564   2.774   3.095 -0.3942 -0.3634  0.2727
  993MOL0     C36960  10.693   2.718   3.055  0.1606 -0.0958 -0.1574
  993MOL0     C36961  10.799   2.668   3.012 -0.3776  0.5747 -0.4080
  993MOL0     C36962  10.110   2.417   3.267 -0.7574 -0.4660  0.3831
  993MOL0     C36963   9.990   2.346   3.253 -0.5294  0.7286  0.4043
  993MOL0     C36964   9.860   2.396   3.319  0.2113  0.0983  0.1598
  993MOL0     H36965   9.870   1.925   2.908 -1.9065  0.1618 -1.5178
  993MOL0     H36966   9.661   1.802   2.830 -2.8165  2.5580  0.6181
  993MOL0     H36967   9.634   1.555   2.873  0.6668  1.1050  0.6921
  993MOL0     H36968   9.494   1.639   2.802 -0.7025 -2.7417 -0.8420
  993MOL0     H36969   9.474   1.420   2.782  1.6965  1.9473  0.2310
  993MOL0     H36970   9.498   1.379   2.951 -2.1570 -1.9889 -0.5688
  993MOL0     H36971   9.285   1.493   3.014  0.2019  0.5674 -0.0291
  993MOL0     H36972   9.261   1.549   2.859 -2.7641 -1.4565  0.6264
  993MOL0     H36973   9.262   1.317   2.760 -0.2961  0.8566 -0.2587
  993MOL0     H36974   9.299   1.262   2.933  6.7323  2.5865 -0.9801
  993MOL0     H36975   9.045   1.419   2.859  1.9875  0.4243 -1.4481
  993MOL0     H36976   9.083   1.311   2.997 -0.9916 -0.6602 -0.5762
  993MOL0     H36977   9.052   1.232   2.706  1.1422 -2.9510  0.0724
  993MOL0     H36978   9.066   1.122   2.843 -1.8852 -1.0776 -0.0504
  993MOL0     H36979   8.832   1.302   2.805 -1.3591 -1.2190 -2.4996
  993MOL0     H36980   8.868   1.192   2.944  3.3918  1.8339  1.0699
  993MOL0     H36981   8.898   0.992   2.772 -0.6894 -0.7101 -1.6642
  993MOL0     H36982   8.737   1.046   2.817  1.7804 -1.4004  0.6717
  993MOL0     H36983   8.587   1.117   2.635 -0.8810 -3.9189 -2.6026
  993MOL0     H36984   8.588   1.269   2.302 -1.5779 -0.7559 -1.2560
  993MOL0     H36985   8.490   1.168   2.409  0.6623  0.8525  0.0509
  993MOL0     H36986   8.694   1.064   2.207  0.7909 -3.1429 -0.8210
  993MOL0     H36987   8.566   0.977   2.302  1.9347  0.3741  0.2467
  993MOL0     H36988   8.408   1.013   2.140  0.2839  1.3824  4.4088
  993MOL0     H36989   8.472   1.184   2.106  0.8155  0.2121 -5.5604
  993MOL0     H36990   8.524   1.062   1.907 -0.3718 -2.1324 -1.1879
  993MOL0     H36991   8.673   1.072   2.002  1.1635 -1.6666  1.5312
  993MOL0     H36992   8.595   0.640   1.994 -1.0794 -0.6089 -2.7875
  993MOL0     H36993   8.462   0.426   2.061 -2.7285  0.7815  1.8702
  993MOL0     H36994   8.472   0.392   1.885  1.2130 -0.6515  0.7619
  993MOL0     H36995   8.313   0.392   1.977 -0.4792  1.8649 -0.0129
  993MOL0     H36996   7.857   0.732   1.665 -0.6896  0.7506  2.2464
  993MOL0     H36997   7.618   0.654   1.652 -0.3213  0.4662  2.6476
  993MOL0     H36998   7.392   0.548   1.671 -0.9062 -1.1007  1.6839
  993MOL0     H36999   7.485   0.474   1.531  3.5417  1.1298  0.8102
  993MOL0     H37000   7.271   0.353   1.723 -3.7822 -3.0095 -3.3032
  993MOL0     H37001   7.252   0.406   1.552 -1.3692 -1.0119 -0.4265
  993MOL0     H37002   7.401   0.167   1.668  2.5143 -1.4727 -1.9108
  993MOL0     H37003   7.445   0.251   1.515  0.5636 -0.9064 -0.6086
  993MOL0     H37004   7.235   0.217   1.430  0.9425  2.0942  0.0184
  993MOL0     H37005   7.161   0.132   1.567  0.9136 -2.7832  0.5873
  993MOL0     H37006   7.228  -0.005   1.379  1.0099 -0.8726  0.0447
  993MOL0     H37007   7.402   0.023   1.422  0.2433  0.1009  2.1129
  993MOL0     H37008   7.199  -0.095   1.597  0.4768  1.0097  0.1229
  993MOL0     H37009   7.379  -0.091   1.636  0.7320 -2.3769 -0.2967
  993MOL0     H37010   7.436  -0.244   1.488 -0.0103 -0.2305  0.5757
  993MOL0     H37011   7.277  -0.233   1.394  0.8685 -0.2687 -0.2915
  993MOL0     H37012   7.321  -0.449   1.504  0.0230 -2.0391  2.0928
  993MOL0     H37013   7.180  -0.371   1.578  0.0612  0.4834 -0.5772
  993MOL0     H37014   7.708   0.304   1.847  0.3330 -0.0368  1.2590
  993MOL0     H37015   7.946   0.365   1.894  0.5277  2.1563  0.6266
  993MOL0     H37016   8.161   0.813   1.859 -1.5111 -1.8375 -1.0960
  993MOL0     H37017   8.334   0.961   1.933  0.9462  0.4850  0.1544
  993MOL0     H37018   9.548   1.736   3.229  0.7908  0.4341  0.7066
  993MOL0     H37019   9.726   1.875   3.321  0.8582  3.8550 -0.3113
  993MOL0     H37020  10.130   2.067   3.113  0.5640  0.3361  0.6270
  993MOL0     H37021  10.331   2.180   3.152  0.8967 -0.6154  1.5618
  993MOL0     H37022  10.371   2.589   3.144  3.8105 -0.4714 -0.0106
  993MOL0     H37023  10.301   2.608   3.309  0.2043  2.8840 -1.2983
  993MOL0     H37024  10.593   2.559   3.239 -0.4038  2.2126 -2.5939
  993MOL0     H37025  10.528   2.603   3.396  1.8040  0.6350  0.3643
  993MOL0     H37026  10.432   2.808   3.239  1.2895  2.3688 -2.4404
  993MOL0     H37027  10.596   2.810   3.299  1.0918  0.2837 -1.2054
  993MOL0     H37028  10.583   2.881   3.080 -0.9038 -0.0295  1.8260
  993MOL0     H37029  10.478   2.745   3.033  0.1496  1.5210 -1.4960
  993MOL0     H37030  10.882   2.608   2.981  1.4296  1.3921  2.4347
  993MOL0     H37031  10.107   2.510   3.324  0.0751 -1.0836  1.4917
  993MOL0     H37032   9.788   2.416   3.240 -0.5718 -0.7393  0.6312
  993MOL0     H37033   9.823   2.316   3.385 -1.3583 -1.7706 -2.7780
  993MOL0     H37034   9.881   2.487   3.376 -1.4684  1.9279 -1.9718
  994MOL0     O37035  11.130   1.472  10.300  0.5986  0.5786 -0.3353
  994MOL0     C37036  11.167   1.536  10.204 -0.1756  1.3056 -0.0097
  994MOL0     O37037  11.241   1.486  10.100  0.8110 -0.1870  0.1234
  994MOL0     C37038  11.270   1.351  10.095  0.6290  0.3116 -0.1029
  994MOL0     C37039  11.388   1.296  10.151  0.4263 -0.5574 -0.2298
  994MOL0     C37040  11.415   1.165  10.123  0.7618  0.2660  0.9257
  994MOL0     C37041  11.330   1.088  10.043 -0.0451  0.8609 -0.2739
  994MOL0     O37042  11.377   0.963  10.011  0.5282  0.4023 -0.0766
  994MOL0     C37043  11.323   0.904   9.889  0.7134 -0.0549 -0.9229
  994MOL0     C37044  11.419   0.785   9.860  0.3268 -0.4917  0.2263
  994MOL0     C37045  11.355   0.649   9.873  0.0986  0.2316 -0.6550
  994MOL0     C37046  11.442   0.536   9.812  1.1477  0.3011 -1.6493
  994MOL0     C37047  11.381   0.393   9.825 -0.0126 -0.6275 -0.5730
  994MOL0     C37048  11.227   0.392   9.818 -0.2111 -0.6368 -0.6995
  994MOL0     C37049  11.173   0.261   9.877  0.5018  0.7198  0.2016
  994MOL0     C37050  11.139   0.260  10.028 -0.1369  0.6919 -0.1564
  994MOL0     N37051  11.258   0.292  10.109 -0.1077  0.8489 -0.8517
  994MOL0     C37052  11.369   0.207  10.121 -0.5267 -0.6673  0.6168
  994MOL0     C37053  11.466   0.268  10.191  0.1166 -0.9425  0.9728
  994MOL0     C37054  11.604   0.211  10.203 -0.8087  0.2163  0.0094
  994MOL0     C37055  11.684   0.207  10.064 -0.9602 -0.8359  0.0416
  994MOL0     C37056  11.832   0.163  10.080 -0.5286  0.6697  0.0138
  994MOL0     C37057  11.878   0.092   9.954  0.9842 -0.4158 -0.2116
  994MOL0     O37058  12.021   0.092   9.943  0.9284 -0.0998 -0.7140
  994MOL0     C37059  12.075   0.067   9.824  0.3368  0.3628  0.3859
  994MOL0     C37060  12.005  -0.000   9.722  0.2137  0.1553 -0.3796
  994MOL0     C37061  12.058  -0.018   9.604  0.5232 -0.0375 -0.3528
  994MOL0     C37062  11.979  -0.087   9.503  0.1519 -0.2316  0.9435
  994MOL0     C37063  12.187   0.024   9.568 -0.3767 -0.7452 -0.7604
  994MOL0     C37064  12.250   0.012   9.434 -1.0198 -0.3305  0.2652
  994MOL0     O37065  12.392  -0.008   9.437  0.4977 -0.2041 -0.2695
  994MOL0     C37066  12.478   0.043   9.343 -0.4010 -0.4133  0.0430
  994MOL0     C37067  12.443   0.136   9.245 -0.5415  0.0183 -0.0337
  994MOL0     C37068  12.548   0.192   9.167  0.8241 -0.4953 -0.1693
  994MOL0     C37069  12.684   0.161   9.180 -0.4200 -0.5032  0.5071
  994MOL0     O37070  12.782   0.201   9.097 -1.0086  0.7153  0.1880
  994MOL0     C37071  12.752   0.292   8.997  0.4714  0.1943 -0.2219
  994MOL0     C37072  12.877   0.345   8.920  0.5847 -0.1023  0.7962
  994MOL0     C37073  12.955   0.236   8.843 -0.4392 -1.1087  0.9634
  994MOL0     C37074  12.902   0.218   8.699  0.2013  0.4659 -0.2802
  994MOL0     C37075  12.935   0.078   8.643 -0.2991 -1.0927 -0.0835
  994MOL0     C37076  13.087   0.037   8.655 -0.1077  0.6869 -0.3917
  994MOL0     C37077  13.113  -0.078   8.556 -0.4799 -0.9946  0.6008
  994MOL0     C37078  13.020  -0.209   8.581  0.1853 -0.8156  0.0816
  994MOL0    Cl37079  13.112  -0.340   8.488 -0.2252 -0.2021  0.7481
  994MOL0     C37080  12.714   0.085   9.288  1.0632 -0.0930  0.3992
  994MOL0     C37081  12.609   0.020   9.366  0.3006  0.6114 -0.1994
  994MOL0     O37082  12.182   0.024   9.330 -0.5763  0.0508  0.0134
  994MOL0     C37083  12.264   0.074   9.676 -0.3514 -0.0739 -0.3276
  994MOL0     C37084  12.208   0.094   9.803  0.8825 -0.3925 -0.1325
  994MOL0     N37085  11.407   0.381  10.241  0.4113 -0.1886 -0.1478
  994MOL0     N37086  11.284   0.403  10.188 -0.0026  1.0620 -0.8460
  994MOL0     C37087  11.205   1.142   9.996 -0.3898 -0.3462 -0.7340
  994MOL0     C37088  11.174   1.269  10.033 -0.1712  0.1573 -0.3291
  994MOL0     C37089  11.114   1.669  10.199  0.0040  0.3374 -0.2536
  994MOL0     C37090  11.089   1.740  10.315 -0.0325 -0.2190 -0.0512
  994MOL0     C37091  11.059   1.873  10.313  0.4222  0.3309  0.1894
  994MOL0     C37092  11.040   1.933  10.195  0.9656 -0.6785  0.0248
  994MOL0     O37093  11.026   2.069  10.170  0.6391  0.6324  0.9285
  994MOL0     C37094  11.033   2.155  10.284 -0.2639  0.9900  0.5208
  994MOL0     C37095  10.893   2.172  10.352  0.5843  0.6899 -0.0561
  994MOL0     C37096  10.892   2.231  10.494 -0.4736 -0.1597  0.2688
  994MOL0     C37097  10.975   2.364  10.525  0.2487 -0.2065 -0.0174
  994MOL0     C37098  10.946   2.409  10.663 -0.0504 -0.2292 -0.3009
  994MOL0     C37099  10.901   2.470  10.759 -0.2109  0.1175 -0.0140
  994MOL0     C37100  11.060   1.865  10.078 -0.4866  1.1771 -0.3637
  994MOL0     C37101  11.097   1.732  10.077  0.3192  0.6258  0.9634
  994MOL0     C37102  11.112   1.666   9.935 -0.2919 -0.0775 -0.4440
  994MOL0     H37103  11.459   1.348  10.214 -0.3251  0.0058  0.1725
  994MOL0     H37104  11.511   1.116  10.139  0.5346  0.2322  2.2823
  994MOL0     H37105  11.328   0.974   9.805  0.8317 -0.4688 -1.2624
  994MOL0     H37106  11.217   0.879   9.900  0.4110  2.0276  2.9724
  994MOL0     H37107  11.463   0.807   9.762 -0.5766 -0.7396 -0.2448
  994MOL0     H37108  11.507   0.784   9.924  0.5828 -0.7759 -0.1224
  994MOL0     H37109  11.329   0.643   9.979 -1.0039 -0.3877 -0.9460
  994MOL0     H37110  11.261   0.656   9.818  0.0416 -2.8789 -1.1186
  994MOL0     H37111  11.432   0.565   9.707 -1.2546  2.7968 -0.8388
  994MOL0     H37112  11.550   0.533   9.833  1.2073 -4.6781 -1.4829
  994MOL0     H37113  11.422   0.377   9.925  1.4777  2.2263 -0.6428
  994MOL0     H37114  11.435   0.327   9.756  2.7538  1.9801 -1.0821
  994MOL0     H37115  11.178   0.471   9.875 -2.4823 -1.7987 -0.9171
  994MOL0     H37116  11.207   0.399   9.711 -2.8767  2.0011 -0.1749
  994MOL0     H37117  11.246   0.181   9.868  4.0569  3.7488 -0.2862
  994MOL0     H37118  11.080   0.237   9.823  0.2045 -0.6449  1.2730
  994MOL0     H37119  11.062   0.334  10.049  0.4306  1.2242  0.0717
  994MOL0     H37120  11.098   0.161  10.045 -2.4713  1.2451 -2.0448
  994MOL0     H37121  11.366   0.112  10.068 -0.4803 -0.2049 -0.2304
  994MOL0     H37122  11.601   0.116  10.258  0.1619  1.0832  1.6346
  994MOL0     H37123  11.668   0.284  10.253  1.0318  0.6456 -2.7256
  994MOL0     H37124  11.639   0.146   9.985  3.2626 -3.4426 -0.6678
  994MOL0     H37125  11.685   0.309  10.023 -0.5191  0.0825  2.2017
  994MOL0     H37126  11.903   0.242  10.105  1.4486 -1.4214  1.4008
  994MOL0     H37127  11.834   0.087  10.159  0.2667 -1.0335 -1.5827
  994MOL0     H37128  11.831  -0.007   9.952 -1.1570  0.5428 -2.3973
  994MOL0     H37129  11.842   0.153   9.871  0.4368 -2.3109 -1.4414
  994MOL0     H37130  11.904  -0.038   9.736 -0.0654  1.3162  0.9769
  994MOL0     H37131  11.897  -0.143   9.549 -0.8316  1.7108  1.6369
  994MOL0     H37132  12.045  -0.153   9.445 -3.6453 -0.8774 -3.2090
  994MOL0     H37133  11.936  -0.025   9.424 -2.6306 -2.3623  0.6336
  994MOL0     H37134  12.342   0.170   9.226  0.4634  1.2652 -4.2206
  994MOL0     H37135  12.515   0.260   9.089 -1.3046 -2.4750 -1.1248
  994MOL0     H37136  12.682   0.251   8.924 -1.2590  0.1450  1.3963
  994MOL0     H37137  12.694   0.376   9.037  1.0981  1.2889 -1.5140
  994MOL0     H37138  12.854   0.417   8.842  0.2460  0.6007  1.5367
  994MOL0     H37139  12.946   0.390   8.993 -0.8615  3.2676  0.2265
  994MOL0     H37140  12.947   0.140   8.895  1.8444 -2.4444 -0.9218
  994MOL0     H37141  13.060   0.268   8.849 -0.7993 -0.0664  2.4760
  994MOL0     H37142  12.948   0.294   8.636 -0.2897  1.2372  0.2582
  994MOL0     H37143  12.793   0.223   8.695  0.2648  3.5063 -0.1581
  994MOL0     H37144  12.879   0.005   8.702  1.7054 -2.0381  0.7025
  994MOL0     H37145  12.894   0.055   8.544 -0.2928 -1.2713 -0.0444
  994MOL0     H37146  13.125  -0.008   8.747  4.0824 -0.7263 -2.5118
  994MOL0     H37147  13.158   0.120   8.652 -0.4848  0.9877 -1.5240
  994MOL0     H37148  13.214  -0.119   8.571 -0.3853 -1.3795 -0.9700
  994MOL0     H37149  13.107  -0.037   8.455 -1.8924  1.1908  1.5146
  994MOL0     H37150  12.921  -0.192   8.537 -1.4585  2.5790  4.2694
  994MOL0     H37151  13.014  -0.237   8.686 -0.0580  0.2451  0.3650
  994MOL0     H37152  12.813   0.059   9.324  0.7639 -0.0503  1.2945
  994MOL0     H37153  12.634  -0.039   9.454  0.8276 -0.9495 -1.3396
  994MOL0     H37154  12.366   0.109   9.658 -0.3596  0.2800  0.2946
  994MOL0     H37155  12.269   0.139   9.881  0.8642 -0.5272 -0.0395
  994MOL0     H37156  11.126   1.089   9.943 -3.0966  4.9928 -2.6821
  994MOL0     H37157  11.071   1.295  10.008 -0.7217 -1.1269  0.5084
  994MOL0     H37158  11.091   1.691  10.412 -2.8560  1.3486  0.9062
  994MOL0     H37159  11.046   1.922  10.408 -1.5508  3.3407 -1.4701
  994MOL0     H37160  11.104   2.110  10.354 -0.7210 -2.7758 -1.1914
  994MOL0     H37161  11.077   2.250  10.254 -2.1070  1.9029  0.5325
  994MOL0     H37162  10.845   2.075  10.364 -1.0857  1.2958 -1.3911
  994MOL0     H37163  10.818   2.225  10.293  1.4206  2.6145  0.4951
  994MOL0     H37164  10.789   2.260  10.517 -1.0976  0.8380 -3.1125
  994MOL0     H37165  10.927   2.157  10.566 -0.8804  0.3986  1.0604
  994MOL0     H37166  10.937   2.442  10.459 -1.3236  0.0856  1.1781
  994MOL0     H37167  11.084   2.355  10.520  0.5527  1.5272  2.0607
  994MOL0     H37168  10.837   2.514  10.833 -0.9654 -1.8125  0.5626
  994MOL0     H37169  11.032   1.914   9.985 -2.9491  2.5232  0.9569
  994MOL0     H37170  11.210   1.621   9.917 -0.0929  0.4175 -0.6197
  994MOL0     H37171  11.037   1.588   9.920 -1.7777  0.8150  1.7401
  994MOL0     H37172  11.093   1.743   9.860  2.1161 -1.3806 -2.5452
  995MOL0     O37173   1.659   1.358  10.447 -0.0837 -0.3204  0.3946
  995MOL0     C37174   1.640   1.273  10.358 -0.6471  0.8176  0.0547
  995MOL0     O37175   1.724   1.256  10.250  0.3079 -0.1484 -0.2532
  995MOL0     C37176   1.817   1.360  10.222  0.4550  0.3321 -0.1533
  995MOL0     C37177   1.943   1.322  10.223 -0.9741 -0.3608 -0.2876
  995MOL0     C37178   2.050   1.411  10.203 -0.1393  1.1166 -0.2689
  995MOL0     C37179   2.021   1.546  10.173 -0.2385  0.2629  0.5267
  995MOL0     O37180   2.117   1.638  10.125  0.1449 -0.1636 -0.6155
  995MOL0     C37181   2.235   1.607  10.056 -0.3248  0.7660  0.6498
  995MOL0     C37182   2.354   1.566  10.148  0.1287  0.3938  0.1388
  995MOL0     C37183   2.472   1.572  10.050 -1.1565 -0.6434 -0.6025
  995MOL0     C37184   2.602   1.549  10.115 -0.4105  0.9884 -1.0670
  995MOL0     C37185   2.728   1.575  10.013  0.5119 -0.5183  0.3364
  995MOL0     C37186   2.859   1.539  10.092  0.1339 -0.1629 -0.4763
  995MOL0     C37187   2.886   1.618  10.229  0.5454  1.1053  0.4237
  995MOL0     C37188   2.898   1.761  10.189 -0.3220 -0.4105 -0.5108
  995MOL0     N37189   2.934   1.846  10.306 -0.0057 -0.8118  0.1348
  995MOL0     C37190   2.868   1.959  10.343 -0.4735  0.4013 -0.5842
  995MOL0     C37191   2.960   2.021  10.426 -0.2649 -0.0499 -0.1583
  995MOL0     C37192   2.926   2.146  10.514 -0.0202 -0.1013  0.1891
  995MOL0     C37193   2.822   2.116  10.623 -0.2826  0.2370  0.4577
  995MOL0     C37194   2.678   2.103  10.565 -0.1276 -0.6871  0.2601
  995MOL0     C37195   2.560   2.140  10.662 -0.1142 -0.0222  1.1096
  995MOL0     O37196   2.575   2.277  10.708  0.5707 -0.6635  0.0528
  995MOL0     C37197   2.480   2.332  10.790  0.0259  0.2673  0.0481
  995MOL0     C37198   2.494   2.469  10.824 -0.3155 -0.3809 -0.7547
  995MOL0     C37199   2.395   2.541  10.888  0.2313 -0.5393  0.0417
  995MOL0     C37200   2.416   2.690  10.890 -0.2175  0.3428  0.3027
  995MOL0     C37201   2.281   2.468  10.932  0.4197 -0.3744 -0.2691
  995MOL0     C37202   2.167   2.536  11.002  0.5087  0.3101  0.6310
  995MOL0     O37203   2.077   2.444  11.055 -0.1806 -1.0880  0.8242
  995MOL0     C37204   1.964   2.484  11.126  0.5560 -0.4475 -0.3269
  995MOL0     C37205   1.865   2.577  11.083  0.3876  0.3101 -0.0617
  995MOL0     C37206   1.745   2.594  11.157 -0.3474  0.0718  0.7786
  995MOL0     C37207   1.726   2.528  11.277  0.7711 -0.0442  0.4300
  995MOL0     O37208   1.620   2.542  11.356 -0.4160 -0.0730  0.2319
  995MOL0     C37209   1.511   2.633  11.329  0.1692  0.0839 -0.6888
  995MOL0     C37210   1.392   2.582  11.404 -0.2092  0.1062  0.3665
  995MOL0     C37211   1.282   2.687  11.446  0.0787  0.6663 -0.4890
  995MOL0     C37212   1.153   2.625  11.474 -0.0701 -0.0674 -0.6617
  995MOL0     C37213   1.044   2.724  11.470  0.8021  0.0904  1.1462
  995MOL0     C37214   1.024   2.792  11.330  0.5029  0.2835 -0.4502
  995MOL0     C37215   0.892   2.881  11.332 -1.0981 -0.5909  0.5520
  995MOL0     C37216   0.832   2.887  11.197 -0.2994 -0.3212  0.3711
  995MOL0    Cl37217   0.729   2.727  11.188 -0.0177 -0.1662 -0.5075
  995MOL0     C37218   1.828   2.445  11.327 -0.8469 -0.2981 -0.3697
  995MOL0     C37219   1.950   2.426  11.252  0.0069 -1.6936  0.3977
  995MOL0     O37220   2.144   2.649  11.003 -0.3842 -0.5827  0.3258
  995MOL0     C37221   2.268   2.334  10.907  0.2235  0.3527  0.3285
  995MOL0     C37222   2.369   2.261  10.835  0.2983  0.2147  0.0897
  995MOL0     N37223   3.075   1.951  10.442 -0.0713  0.1995  0.5680
  995MOL0     N37224   3.056   1.844  10.373  0.5785  0.3646 -0.1978
  995MOL0     C37225   1.888   1.591  10.168 -0.2505  0.1874 -0.2529
  995MOL0     C37226   1.790   1.494  10.200  0.1861 -0.0478  0.5015
  995MOL0     C37227   1.526   1.174  10.381  0.0997  0.3692 -0.4795
  995MOL0     C37228   1.491   1.081  10.282 -1.0100 -0.2858 -0.0669
  995MOL0     C37229   1.398   0.979  10.294  0.4365  0.3524  0.6415
  995MOL0     C37230   1.334   0.957  10.410  1.2432  0.0742 -0.1264
  995MOL0     O37231   1.239   0.860  10.412  0.0260  0.5200 -0.1778
  995MOL0     C37232   1.151   0.839  10.515 -0.3718 -0.1188  0.7210
  995MOL0     C37233   1.212   0.743  10.615  0.5801  0.7306 -1.0224
  995MOL0     C37234   1.114   0.719  10.728 -0.5172 -0.3217 -0.4934
  995MOL0     C37235   1.123   0.571  10.778 -0.6752 -0.0477  0.3040
  995MOL0     C37236   1.051   0.553  10.905 -0.2134  0.3502  1.1426
  995MOL0     C37237   0.994   0.541  11.009 -0.2149  0.6930 -0.1350
  995MOL0     C37238   1.360   1.048  10.511 -0.0490  0.1763 -0.7816
  995MOL0     C37239   1.456   1.150  10.501 -0.7596 -0.4687  0.0302
  995MOL0     C37240   1.482   1.237  10.632 -0.0558 -0.0530  0.3519
  995MOL0     H37241   1.963   1.215  10.232 -2.0315 -0.4919  0.8586
  995MOL0     H37242   2.152   1.379  10.187 -0.5560 -1.0861  1.0537
  995MOL0     H37243   2.266   1.691   9.994  1.7433 -0.9443 -0.7829
  995MOL0     H37244   2.220   1.520   9.992  0.6582 -0.7696  2.4072
  995MOL0     H37245   2.374   1.636  10.230  0.8039  0.2633  0.0882
  995MOL0     H37246   2.337   1.474  10.204  1.6929  1.1259  1.9398
  995MOL0     H37247   2.456   1.511   9.960 -0.9922  1.6523 -2.2685
  995MOL0     H37248   2.461   1.675  10.015 -2.8882  0.2802  2.3264
  995MOL0     H37249   2.608   1.620  10.198 -1.1772  1.9796 -1.8280
  995MOL0     H37250   2.600   1.448  10.157 -3.5512  1.3470 -0.0718
  995MOL0     H37251   2.726   1.681   9.985 -1.3566  0.2039  2.8910
  995MOL0     H37252   2.711   1.503   9.932 -0.9239  0.3622 -0.1898
  995MOL0     H37253   2.862   1.433  10.119  0.4004 -0.4114 -1.4538
  995MOL0     H37254   2.939   1.557  10.020  2.6538  0.8439  2.3349
  995MOL0     H37255   2.978   1.587  10.280 -0.6731 -1.8521  1.0036
  995MOL0     H37256   2.803   1.614  10.300 -0.0199  1.7622 -0.1789
  995MOL0     H37257   2.975   1.779  10.113 -0.7164  2.8403 -0.2974
  995MOL0     H37258   2.808   1.808  10.149 -0.2870  1.8905  1.8029
  995MOL0     H37259   2.766   1.990  10.321 -0.4632  1.7800  1.1118
  995MOL0     H37260   2.881   2.226  10.454 -1.0608  0.1885  1.3272
  995MOL0     H37261   3.020   2.177  10.560 -0.4755 -2.1401  2.6782
  995MOL0     H37262   2.851   2.028  10.683  3.2772 -0.4346 -1.9169
  995MOL0     H37263   2.833   2.197  10.695 -0.3727 -0.2045  0.9841
  995MOL0     H37264   2.655   2.156  10.471 -0.1858  0.0250  0.6699
  995MOL0     H37265   2.664   1.999  10.534  2.4405 -0.7856 -0.7541
  995MOL0     H37266   2.467   2.123  10.607  1.3696 -2.7547 -0.7537
  995MOL0     H37267   2.539   2.077  10.749 -1.4371  1.9187  2.2975
  995MOL0     H37268   2.587   2.520  10.800  0.3894 -1.1209  0.2923
  995MOL0     H37269   2.525   2.693  10.902 -0.1408 -1.5104  0.3498
  995MOL0     H37270   2.365   2.722  10.982  1.2583 -2.3942  2.2262
  995MOL0     H37271   2.372   2.740  10.804 -3.2395  1.1011  2.1388
  995MOL0     H37272   1.876   2.615  10.982  1.0243  0.3912  0.0372
  995MOL0     H37273   1.676   2.664  11.113 -0.5215  0.0521  1.0210
  995MOL0     H37274   1.540   2.718  11.391  4.3362 -0.7179 -1.2883
  995MOL0     H37275   1.498   2.666  11.225  2.5905  0.2886 -0.9878
  995MOL0     H37276   1.353   2.498  11.347 -0.5451  0.9575 -0.6796
  995MOL0     H37277   1.428   2.538  11.498 -0.4627 -0.3126  0.2741
  995MOL0     H37278   1.270   2.748  11.356 -0.5303 -0.3575 -1.1307
  995MOL0     H37279   1.302   2.741  11.539 -0.6742 -2.7530  1.8537
  995MOL0     H37280   1.162   2.578  11.572  3.2046 -0.5028 -1.0369
  995MOL0     H37281   1.153   2.548  11.396  5.2049 -0.7045 -0.3906
  995MOL0     H37282   0.950   2.680  11.504  2.0136 -1.6128  2.4534
  995MOL0     H37283   1.079   2.799  11.541 -0.5016  0.2993  1.6011
  995MOL0     H37284   1.006   2.710  11.260 -0.1233 -0.5992  0.7044
  995MOL0     H37285   1.104   2.859  11.297 -0.6088  1.5864 -0.5485
  995MOL0     H37286   0.910   2.985  11.362 -1.1225 -0.3278 -0.3324
  995MOL0     H37287   0.815   2.850  11.403 -2.1358 -0.5939 -0.5479
  995MOL0     H37288   0.905   2.896  11.116  0.2225 -1.4732  0.6920
  995MOL0     H37289   0.757   2.967  11.191 -1.1059 -1.1120 -0.5309
  995MOL0     H37290   1.826   2.402  11.427 -0.8079  1.2707  0.3322
  995MOL0     H37291   2.016   2.352  11.298  0.2817  0.1268  3.2521
  995MOL0     H37292   2.174   2.288  10.937 -0.7155  2.1894  0.3509
  995MOL0     H37293   2.335   2.158  10.826 -3.7015  1.4263 -0.3356
  995MOL0     H37294   1.869   1.690  10.128 -2.9245  0.0939  0.5833
  995MOL0     H37295   1.685   1.517  10.195 -0.1088 -1.2768  0.7479
  995MOL0     H37296   1.546   1.102  10.191 -0.7424 -0.6738  0.0041
  995MOL0     H37297   1.382   0.915  10.208 -2.8859  0.2671  1.1965
  995MOL0     H37298   1.117   0.931  10.565 -0.9221  0.1459 -0.1150
  995MOL0     H37299   1.061   0.799  10.468 -1.5976  3.4123 -0.3094
  995MOL0     H37300   1.306   0.780  10.657 -0.1574 -3.5107  5.9679
  995MOL0     H37301   1.230   0.645  10.568 -2.5537 -0.1268 -0.6669
  995MOL0     H37302   1.141   0.794  10.803 -1.0256  0.3785 -0.9961
  995MOL0     H37303   1.013   0.743  10.696 -0.6600 -0.6282 -0.2736
  995MOL0     H37304   1.225   0.533  10.787 -1.5717 -2.3910  1.3904
  995MOL0     H37305   1.077   0.506  10.703 -1.2733  0.9898 -0.2444
  995MOL0     H37306   0.942   0.547  11.102 -0.4459  1.1604 -0.2916
  995MOL0     H37307   1.320   1.031  10.610  1.4018 -0.1075 -0.2051
  995MOL0     H37308   1.477   1.345  10.617 -0.5400 -0.3751 -2.2476
  995MOL0     H37309   1.408   1.222  10.711 -0.8770  2.7022  0.2078
  995MOL0     H37310   1.582   1.206  10.664  0.4409  1.8238  0.7429
  996MOL0     O37311   2.372   5.439   7.592 -0.3904 -0.6618 -0.0633
  996MOL0     C37312   2.344   5.377   7.485  0.6843  0.9584  0.9374
  996MOL0     O37313   2.434   5.315   7.404  0.2684  0.4351  0.5494
  996MOL0     C37314   2.565   5.290   7.447 -0.1206 -1.0681 -0.0210
  996MOL0     C37315   2.614   5.164   7.442  0.2336 -0.0866  0.0122
  996MOL0     C37316   2.749   5.138   7.474  1.1035  0.0192  0.6403
  996MOL0     C37317   2.832   5.242   7.518 -0.4168  0.5190 -0.0089
  996MOL0     O37318   2.965   5.228   7.546  0.0078 -0.3742 -0.6116
  996MOL0     C37319   3.042   5.117   7.504  0.5802 -0.4098 -0.7704
  996MOL0     C37320   3.180   5.149   7.473 -0.1436  0.5317  1.2515
  996MOL0     C37321   3.242   5.026   7.411 -0.5923  0.2659  0.4129
  996MOL0     C37322   3.396   5.052   7.387  0.5947 -0.0765 -0.5236
  996MOL0     C37323   3.426   5.173   7.300  0.2660 -0.0714  0.1639
  996MOL0     C37324   3.577   5.179   7.275  0.7361 -0.0738  0.3148
  996MOL0     C37325   3.658   5.180   7.411  0.0862  0.0788  0.1462
  996MOL0     C37326   3.806   5.213   7.374 -0.0571  0.5798  0.7899
  996MOL0     N37327   3.903   5.174   7.484  0.9167  0.5397 -0.0020
  996MOL0     C37328   3.908   5.219   7.616 -0.4670  0.6731  0.5824
  996MOL0     C37329   3.994   5.127   7.668  0.2128 -0.4942  0.0883
  996MOL0     C37330   4.048   5.124   7.815 -0.9621  0.0379 -0.0734
  996MOL0     C37331   4.136   5.005   7.843  0.0860  0.6515 -0.0398
  996MOL0     C37332   4.195   5.007   7.988 -0.2642  0.6698 -0.1335
  996MOL0     C37333   4.254   4.868   8.041  0.4230  0.2533  0.6066
  996MOL0     O37334   4.326   4.804   7.929  0.0396 -0.0300 -0.2443
  996MOL0     C37335   4.438   4.729   7.965  0.2998  0.9436 -0.1921
  996MOL0     C37336   4.418   4.599   8.025  0.1856 -0.5234  0.5135
  996MOL0     C37337   4.526   4.516   8.063  0.6474  0.8912 -0.4565
  996MOL0     C37338   4.485   4.373   8.106 -1.0988 -0.4359  0.5964
  996MOL0     C37339   4.662   4.573   8.054 -0.4566  0.3879 -0.2234
  996MOL0     C37340   4.779   4.492   8.093  0.3816 -0.6332 -0.8312
  996MOL0     O37341   4.898   4.558   8.077 -0.4493 -0.1128 -1.3243
  996MOL0     C37342   5.003   4.520   8.170 -0.0737 -0.2652 -0.2428
  996MOL0     C37343   4.982   4.507   8.308 -0.5295  0.1937 -0.0833
  996MOL0     C37344   5.090   4.489   8.389  0.7093  0.3672 -1.0939
  996MOL0     C37345   5.221   4.486   8.340 -0.6224  0.4562  0.5411
  996MOL0     O37346   5.316   4.466   8.442 -0.0531  0.6980 -0.3110
  996MOL0     C37347   5.457   4.449   8.412 -0.3989  0.2723  0.0558
  996MOL0     C37348   5.545   4.457   8.533  0.1541 -0.2851 -0.8016
  996MOL0     C37349   5.498   4.374   8.656 -0.2226 -0.5660 -0.3750
  996MOL0     C37350   5.605   4.372   8.770  0.0519 -0.2042 -0.0157
  996MOL0     C37351   5.723   4.284   8.760 -0.3456  0.0400  0.2821
  996MOL0     C37352   5.695   4.130   8.740 -0.3540  1.0217  0.6628
  996MOL0     C37353   5.818   4.046   8.734 -0.0884 -0.6901 -0.2424
  996MOL0     C37354   5.780   3.894   8.760 -0.4787 -0.8589 -0.6652
  996MOL0    Cl37355   5.716   3.855   8.923  0.5883  0.3255  0.2239
  996MOL0     C37356   5.241   4.492   8.204  0.7084  0.4936 -0.2582
  996MOL0     C37357   5.130   4.503   8.127  0.1311 -0.6845  0.2996
  996MOL0     O37358   4.765   4.381   8.145 -0.8183  0.2525  0.3406
  996MOL0     C37359   4.683   4.694   7.987  0.5554  1.0722 -0.1709
  996MOL0     C37360   4.569   4.773   7.950 -0.0225  0.8031  0.2703
  996MOL0     N37361   4.040   5.039   7.580  0.1888 -0.2587  0.2713
  996MOL0     N37362   3.972   5.056   7.472  0.2917 -0.8604  0.5718
  996MOL0     C37363   2.784   5.369   7.515 -0.3901  0.7703  0.5344
  996MOL0     C37364   2.652   5.388   7.485  0.3879 -0.2158  0.0880
  996MOL0     C37365   2.199   5.369   7.445  0.2324 -0.1447  0.2985
  996MOL0     C37366   2.146   5.249   7.390  0.1573  0.0574 -0.2828
  996MOL0     C37367   2.019   5.251   7.329  0.1417 -0.0254  0.4446
  996MOL0     C37368   1.929   5.362   7.347  0.3906 -0.1985  1.8477
  996MOL0     O37369   1.809   5.354   7.282  0.4198  0.7847 -0.0427
  996MOL0     C37370   1.721   5.468   7.300 -0.0560 -0.0111 -0.4208
  996MOL0     C37371   1.580   5.428   7.252 -0.0943 -0.0888 -0.1249
  996MOL0     C37372   1.532   5.293   7.299 -0.9786  0.1042  0.5905
  996MOL0     C37373   1.510   5.262   7.441  0.0454 -0.5256  0.3604
  996MOL0     C37374   1.626   5.256   7.528 -0.1180  0.7103  0.4338
  996MOL0     C37375   1.726   5.266   7.590 -0.1094 -0.1066  0.1759
  996MOL0     C37376   1.985   5.476   7.403 -0.0815 -0.1144 -0.2991
  996MOL0     C37377   2.121   5.483   7.445  0.1181 -0.1640  0.5523
  996MOL0     C37378   2.183   5.630   7.455  0.0306  0.8105 -1.3043
  996MOL0     H37379   2.543   5.096   7.397  0.8451 -1.5296  1.1207
  996MOL0     H37380   2.787   5.037   7.463  0.1952 -0.1913 -0.8771
  996MOL0     H37381   2.988   5.079   7.416 -3.3111 -1.9073  1.9849
  996MOL0     H37382   3.039   5.042   7.584  0.2576 -0.0727 -0.4620
  996MOL0     H37383   3.182   5.230   7.400  2.9108 -0.6119 -0.1083
  996MOL0     H37384   3.232   5.179   7.564 -1.1366 -0.8427  2.3246
  996MOL0     H37385   3.226   4.941   7.478 -2.5098 -1.8240 -2.4686
  996MOL0     H37386   3.201   4.997   7.314  3.3991 -1.2077 -1.0527
  996MOL0     H37387   3.442   5.071   7.484 -0.9064  3.1667 -0.2957
  996MOL0     H37388   3.450   4.965   7.350  0.7005 -1.6716  2.9795
  996MOL0     H37389   3.391   5.259   7.358  2.4253 -0.5106  2.3072
  996MOL0     H37390   3.392   5.157   7.197  1.7168 -0.7584 -0.2246
  996MOL0     H37391   3.612   5.088   7.226  0.7467 -1.6403  3.0361
  996MOL0     H37392   3.595   5.272   7.220  1.3431 -0.0479  0.5560
  996MOL0     H37393   3.649   5.087   7.468 -1.4707 -0.0938 -0.3520
  996MOL0     H37394   3.611   5.256   7.474 -2.6379 -0.8381 -0.6673
  996MOL0     H37395   3.830   5.153   7.286 -1.4203  2.8871 -1.2740
  996MOL0     H37396   3.811   5.319   7.348  1.7756 -0.2844 -3.1408
  996MOL0     H37397   3.872   5.312   7.660  1.7056  1.5917  0.5140
  996MOL0     H37398   3.971   5.127   7.892 -1.3335  1.4376 -0.4680
  996MOL0     H37399   4.111   5.211   7.834 -0.2235 -0.4479 -0.2511
  996MOL0     H37400   4.079   4.913   7.829 -0.0262  0.0122  3.5598
  996MOL0     H37401   4.220   4.998   7.774  1.0035 -3.8327  1.1717
  996MOL0     H37402   4.279   5.076   7.990  1.7643 -1.6271 -0.8565
  996MOL0     H37403   4.121   5.042   8.061 -1.1418  2.3446 -1.7512
  996MOL0     H37404   4.319   4.874   8.129 -0.8576  0.9739  1.5388
  996MOL0     H37405   4.168   4.802   8.057 -2.2298  2.5711 -2.6802
  996MOL0     H37406   4.319   4.557   8.038  1.5065 -2.9717  4.3191
  996MOL0     H37407   4.377   4.364   8.117 -1.1317 -0.0977  0.5680
  996MOL0     H37408   4.531   4.356   8.204  0.3375  1.1664  0.2495
  996MOL0     H37409   4.523   4.295   8.039 -1.1819 -1.1567  1.3578
  996MOL0     H37410   4.883   4.530   8.348 -0.7376  0.4655 -0.7352
  996MOL0     H37411   5.075   4.504   8.496 -0.0217  0.9856 -1.2755
  996MOL0     H37412   5.462   4.346   8.376  1.4095  0.2751  0.2058
  996MOL0     H37413   5.497   4.518   8.337  1.0107 -0.7623 -0.1942
  996MOL0     H37414   5.642   4.426   8.492  0.5177 -0.4386  0.1480
  996MOL0     H37415   5.537   4.564   8.558  0.0050 -0.4433 -0.1591
  996MOL0     H37416   5.475   4.269   8.639  3.6849 -1.5708 -0.4555
  996MOL0     H37417   5.410   4.424   8.696  0.9624  1.0341  0.3326
  996MOL0     H37418   5.556   4.336   8.861 -0.1724  1.0608  0.3862
  996MOL0     H37419   5.635   4.476   8.785 -0.7916  0.2059 -1.0254
  996MOL0     H37420   5.793   4.322   8.684 -0.1071 -1.7168 -0.4258
  996MOL0     H37421   5.776   4.281   8.855 -0.9224 -1.9743  0.5720
  996MOL0     H37422   5.649   4.114   8.642  3.4049  0.0047 -1.1037
  996MOL0     H37423   5.637   4.101   8.828  0.1877 -0.7369  0.4867
  996MOL0     H37424   5.893   4.086   8.802 -0.7128  0.4766 -0.2085
  996MOL0     H37425   5.868   4.053   8.637 -1.9522 -4.3607 -1.6421
  996MOL0     H37426   5.878   3.846   8.754  0.9332  1.2358  2.8848
  996MOL0     H37427   5.716   3.862   8.677 -0.0075  1.7461 -2.1403
  996MOL0     H37428   5.345   4.482   8.175  0.9318  0.4631  0.5487
  996MOL0     H37429   5.126   4.509   8.018 -4.5491 -0.9877  0.2721
  996MOL0     H37430   4.777   4.743   7.961  0.5201  0.9456 -0.5468
  996MOL0     H37431   4.597   4.870   7.911  0.2704 -0.6962 -3.6850
  996MOL0     H37432   2.845   5.454   7.543 -0.0418  1.5170 -2.2408
  996MOL0     H37433   2.620   5.490   7.502  0.7980  0.1070 -1.0050
  996MOL0     H37434   2.199   5.155   7.381  1.1426  0.6669 -0.9136
  996MOL0     H37435   1.982   5.165   7.273  0.9812 -0.7489  0.9727
  996MOL0     H37436   1.715   5.500   7.404  1.3217  2.3815 -1.0089
  996MOL0     H37437   1.762   5.554   7.247 -0.2854  0.4338  0.1223
  996MOL0     H37438   1.572   5.425   7.143  2.4181 -0.9283 -0.3506
  996MOL0     H37439   1.523   5.507   7.301 -1.7315 -1.7311  0.7473
  996MOL0     H37440   1.434   5.280   7.253 -1.2958  2.1302  0.5833
  996MOL0     H37441   1.598   5.221   7.251 -1.9695  1.0788 -2.5188
  996MOL0     H37442   1.464   5.163   7.454  0.6886 -1.0160 -0.9599
  996MOL0     H37443   1.428   5.329   7.469 -1.4533 -2.1283 -0.0498
  996MOL0     H37444   1.797   5.278   7.670 -1.6957 -0.5372  1.7211
  996MOL0     H37445   1.937   5.573   7.404  2.4721  1.2750  2.0788
  996MOL0     H37446   2.279   5.624   7.404 -0.9364 -0.0428 -3.0919
  996MOL0     H37447   2.131   5.703   7.392  2.3534  1.3890 -2.6553
  996MOL0     H37448   2.195   5.675   7.554 -0.8306  2.2734 -1.8305
  997MOL0     O37449   0.817   2.502  10.806  0.9205  0.5280 -0.0955
  997MOL0     C37450   0.903   2.589  10.773  0.5800  0.9937  0.5585
  997MOL0     O37451   1.018   2.614  10.840  0.8577 -0.2973  0.0761
  997MOL0     C37452   1.091   2.513  10.877 -0.4545 -0.0036 -1.2556
  997MOL0     C37453   1.122   2.507  11.017 -0.4401 -0.2991  0.4874
  997MOL0     C37454   1.204   2.404  11.063 -0.3023  0.1271 -0.4976
  997MOL0     C37455   1.266   2.312  10.979  0.4054  0.6589 -0.7930
  997MOL0     O37456   1.342   2.207  11.026 -1.1328  0.0131  0.0330
  997MOL0     C37457   1.416   2.215  11.150 -0.0997  0.3634 -0.3413
  997MOL0     C37458   1.453   2.085  11.191  0.4959 -0.1568  0.6299
  997MOL0     C37459   1.510   2.081  11.338 -0.1991  0.0326  0.3288
  997MOL0     C37460   1.638   2.171  11.352 -0.4975 -0.0590 -0.0536
  997MOL0     C37461   1.712   2.146  11.483 -0.3513 -0.1911 -0.0436
  997MOL0     C37462   1.630   2.178  11.604 -1.1435 -0.4877  0.3867
  997MOL0     C37463   1.712   2.178  11.733  0.0179  0.0760 -0.6163
  997MOL0     C37464   1.619   2.200  11.856  0.4928 -0.6857  0.6739
  997MOL0     N37465   1.698   2.239  11.972  0.2566  0.6972  0.2464
  997MOL0     C37466   1.767   2.358  11.974 -0.1531  0.0576 -0.2155
  997MOL0     C37467   1.827   2.360  12.093 -0.0430  0.2806  0.7575
  997MOL0     C37468   1.914   2.475  12.139 -0.0814  0.6369 -0.7504
  997MOL0     C37469   1.955   2.475  12.289  0.0675 -0.4204 -0.2722
  997MOL0     C37470   2.096   2.507  12.323 -0.2093 -0.3680 -0.0839
  997MOL0     C37471   2.124   2.654  12.312 -0.9654 -0.1916  0.2463
  997MOL0     O37472   2.024   2.739  12.366  0.1105  0.8591  0.5285
  997MOL0     C37473   2.071   2.864  12.404  0.0636  0.1664  0.2625
  997MOL0     C37474   2.150   2.878  12.515 -0.2992 -0.1691  0.3532
  997MOL0     C37475   2.195   3.004  12.566  0.0341  0.3229 -0.0774
  997MOL0     C37476   2.273   3.007  12.695 -0.3832  0.5282  0.0490
  997MOL0     C37477   2.166   3.126  12.493  0.1404 -0.0286  0.1039
  997MOL0     C37478   2.204   3.260  12.538 -0.6046 -0.3303  0.2904
  997MOL0     O37479   2.124   3.364  12.500  0.3399  0.2457  0.2188
  997MOL0     C37480   2.150   3.502  12.533  0.0003 -0.1528 -0.7184
  997MOL0     C37481   2.192   3.542  12.664  0.7503 -0.1513 -0.9057
  997MOL0     C37482   2.212   3.681  12.681 -0.0748 -0.0343 -0.7757
  997MOL0     C37483   2.194   3.774  12.585  0.7315 -0.3203  0.6690
  997MOL0     O37484   2.193   3.909  12.614 -0.1235 -0.0647 -0.2105
  997MOL0     C37485   2.190   4.022  12.518 -0.2069 -0.1526  0.1742
  997MOL0     C37486   2.328   4.053  12.454 -0.8779 -0.5481 -0.1863
  997MOL0     C37487   2.404   4.134  12.564  0.6830 -0.2700  1.0989
  997MOL0     C37488   2.522   4.222  12.513 -0.6768  0.0684 -0.3697
  997MOL0     C37489   2.596   4.306  12.615 -0.2429  0.4578  0.7484
  997MOL0     C37490   2.724   4.380  12.563 -0.5017 -0.2593  0.3872
  997MOL0     C37491   2.808   4.429  12.686  0.0318 -0.6899 -0.2572
  997MOL0     C37492   2.772   4.549  12.764  0.7022  0.7929 -0.3426
  997MOL0    Cl37493   2.764   4.683  12.651  0.4255  0.5891 -0.3022
  997MOL0     C37494   2.156   3.736  12.462 -1.0120 -0.9512  1.1305
  997MOL0     C37495   2.119   3.603  12.435  0.1089 -0.2475  0.2770
  997MOL0     O37496   2.313   3.270  12.600  0.6583  0.3036  0.1937
  997MOL0     C37497   2.077   3.107  12.380 -0.2209  0.2803  0.3165
  997MOL0     C37498   2.033   2.978  12.331 -0.2247  0.1890 -0.7441
  997MOL0     N37499   1.777   2.244  12.170 -0.6104 -0.1016 -0.3941
  997MOL0     N37500   1.699   2.177  12.091 -0.8504  0.7671 -0.3389
  997MOL0     C37501   1.232   2.313  10.842 -0.5378  1.0535  0.2057
  997MOL0     C37502   1.149   2.419  10.792 -0.1229  0.1204 -0.7910
  997MOL0     C37503   0.847   2.691  10.681 -0.4026  0.0467  0.2841
  997MOL0     C37504   0.858   2.824  10.714 -0.7019 -0.1114 -1.3138
  997MOL0     C37505   0.785   2.910  10.638 -0.2850 -0.1824  0.4978
  997MOL0     C37506   0.710   2.872  10.525  0.3725 -0.3984  0.9792
  997MOL0     O37507   0.648   2.970  10.458 -0.2390  0.1905  0.6319
  997MOL0     C37508   0.645   2.969  10.316  0.0191 -0.1953  0.1133
  997MOL0     C37509   0.657   3.103  10.256  0.1442 -0.0254 -0.0908
  997MOL0     C37510   0.514   3.161  10.228  1.4736 -0.7032  0.0116
  997MOL0     C37511   0.527   3.268  10.115 -0.3700 -0.2150  0.7530
  997MOL0     C37512   0.406   3.345  10.096 -0.0920  1.0599 -0.3452
  997MOL0     C37513   0.305   3.404  10.084 -0.0520 -0.1702  0.0808
  997MOL0     C37514   0.710   2.739  10.489  0.2342 -0.4727 -1.0468
  997MOL0     C37515   0.775   2.651  10.568  0.4866  0.1356 -0.2764
  997MOL0     C37516   0.768   2.510  10.521 -0.3803  0.3081 -0.6011
  997MOL0     H37517   1.081   2.573  11.093 -1.9861 -0.4771 -0.1601
  997MOL0     H37518   1.207   2.399  11.172  0.0598  1.3234 -0.4344
  997MOL0     H37519   1.350   2.264  11.222 -2.1338 -1.0071 -1.1753
  997MOL0     H37520   1.503   2.280  11.141  2.4008 -1.9284  4.0142
  997MOL0     H37521   1.365   2.020  11.188  1.6205 -1.7161 -1.3480
  997MOL0     H37522   1.524   2.057  11.112  0.4758 -3.8647  1.7091
  997MOL0     H37523   1.427   2.112  11.403 -0.7790  0.6627 -0.6698
  997MOL0     H37524   1.544   1.980  11.363  4.3099  1.0479 -0.7868
  997MOL0     H37525   1.712   2.135  11.280 -0.2446 -1.2237  0.7584
  997MOL0     H37526   1.624   2.279  11.353  3.5078  0.6230 -0.6389
  997MOL0     H37527   1.801   2.209  11.486 -2.0928  2.4806 -0.9734
  997MOL0     H37528   1.745   2.042  11.489  1.2638  0.3954  2.5572
  997MOL0     H37529   1.576   2.273  11.595 -1.7011 -0.5480  2.6169
  997MOL0     H37530   1.552   2.104  11.618 -2.4765  0.0537 -3.1087
  997MOL0     H37531   1.777   2.266  11.734 -0.8290  0.7380 -1.6463
  997MOL0     H37532   1.767   2.084  11.743 -1.7648 -1.1443 -1.5620
  997MOL0     H37533   1.538   2.270  11.832 -0.6906 -2.7624 -2.0395
  997MOL0     H37534   1.560   2.109  11.871 -1.3740  0.1748 -0.9392
  997MOL0     H37535   1.777   2.434  11.897 -0.9329 -0.9769 -1.3712
  997MOL0     H37536   1.876   2.571  12.102 -0.0476  0.1874 -1.9955
  997MOL0     H37537   2.007   2.465  12.082  0.5017  1.3571  0.0456
  997MOL0     H37538   1.890   2.537  12.351  1.2178 -1.0681  1.6618
  997MOL0     H37539   1.938   2.370  12.314 -0.7727  0.1035  1.4874
  997MOL0     H37540   2.116   2.481  12.427  3.1736  0.0898 -0.5235
  997MOL0     H37541   2.169   2.455  12.260  1.0110  0.9195  0.2230
  997MOL0     H37542   2.220   2.674  12.361 -1.2900 -0.0522  0.8281
  997MOL0     H37543   2.126   2.674  12.205 -2.3171  1.3250  0.4692
  997MOL0     H37544   2.183   2.790  12.569  2.5523  1.6290  1.7588
  997MOL0     H37545   2.260   2.911  12.747 -2.8448  2.4100  3.2945
  997MOL0     H37546   2.230   3.079  12.764 -3.6633 -1.2984  0.1012
  997MOL0     H37547   2.381   3.024  12.689 -0.4077  0.8224  0.4134
  997MOL0     H37548   2.191   3.476  12.749 -3.0211  0.2795 -0.4456
  997MOL0     H37549   2.242   3.722  12.777 -0.7623 -1.6228  0.1590
  997MOL0     H37550   2.111   4.007  12.443 -1.8214  1.2476  1.5171
  997MOL0     H37551   2.161   4.110  12.575 -1.0418 -0.8619  0.8880
  997MOL0     H37552   2.382   3.959  12.437 -1.3641 -0.7121 -0.9129
  997MOL0     H37553   2.315   4.109  12.361 -0.0516  1.6997  0.9983
  997MOL0     H37554   2.449   4.054  12.623  0.5527  0.8585  2.7833
  997MOL0     H37555   2.338   4.197  12.623 -0.5815  1.4089 -1.8772
  997MOL0     H37556   2.476   4.293  12.444 -0.7367  2.7210  2.1606
  997MOL0     H37557   2.591   4.167  12.449  1.1919 -1.0048  2.3508
  997MOL0     H37558   2.532   4.384  12.658  1.5989  1.5141  1.7040
  997MOL0     H37559   2.642   4.248  12.695  5.0881  0.7917 -1.6225
  997MOL0     H37560   2.700   4.462  12.495 -0.5027 -0.7875 -0.2613
  997MOL0     H37561   2.792   4.313  12.510 -2.0212 -2.1557  0.7049
  997MOL0     H37562   2.904   4.458  12.641  0.2147 -0.2932  0.3705
  997MOL0     H37563   2.818   4.337  12.745 -1.4352  0.1022  1.3300
  997MOL0     H37564   2.856   4.572  12.830  1.6394  2.3407 -1.9707
  997MOL0     H37565   2.682   4.536  12.824  1.5879  3.4291  1.7590
  997MOL0     H37566   2.127   3.802  12.381  0.3151 -0.5482  0.9719
  997MOL0     H37567   2.094   3.563  12.338  0.3264  2.7399 -1.1118
  997MOL0     H37568   2.039   3.184  12.313 -0.1759 -2.2988 -2.9149
  997MOL0     H37569   1.963   2.976  12.248 -0.6971 -0.6020 -0.3341
  997MOL0     H37570   1.269   2.240  10.770 -1.3639  4.5220 -4.1734
  997MOL0     H37571   1.125   2.433  10.687 -1.9485 -0.6126 -0.5244
  997MOL0     H37572   0.910   2.869  10.798  2.5146 -0.7654 -2.7901
  997MOL0     H37573   0.769   3.013  10.669 -0.7626 -0.0865 -0.0451
  997MOL0     H37574   0.732   2.910  10.287 -0.4327 -0.6018 -0.4205
  997MOL0     H37575   0.554   2.924  10.276  0.6639 -0.8304 -0.6576
  997MOL0     H37576   0.699   3.087  10.156 -1.5113 -0.0836 -0.7932
  997MOL0     H37577   0.721   3.176  10.307  1.3470 -1.7707  1.0324
  997MOL0     H37578   0.426   3.097  10.214  0.7012  0.0498  1.2237
  997MOL0     H37579   0.489   3.218  10.318  1.6633 -1.4169  0.5274
  997MOL0     H37580   0.536   3.210  10.023 -1.1425 -1.1525  1.2528
  997MOL0     H37581   0.611   3.336  10.130  1.1438 -1.5120 -1.4007
  997MOL0     H37582   0.204   3.439  10.085 -0.8434 -2.3221  1.7418
  997MOL0     H37583   0.654   2.698  10.405 -3.4930  3.1223 -0.6731
  997MOL0     H37584   0.676   2.470  10.565  1.2531 -0.6770  2.1763
  997MOL0     H37585   0.772   2.511  10.411  1.3300 -0.0094 -0.5704
  997MOL0     H37586   0.851   2.448  10.556  1.4807  1.4354 -2.7027
  998MOL0     O37587   2.800   8.600   8.377  0.3775  0.5281 -0.3598
  998MOL0     C37588   2.740   8.645   8.483 -0.4217 -0.0717  0.7037
  998MOL0     O37589   2.624   8.594   8.539 -0.2564  0.7750 -0.2487
  998MOL0     C37590   2.552   8.488   8.480 -0.3591  0.3744  0.4091
  998MOL0     C37591   2.504   8.394   8.571  0.0393  0.3755  0.4444
  998MOL0     C37592   2.431   8.287   8.525  0.0401 -0.5216 -0.6475
  998MOL0     C37593   2.393   8.287   8.386 -0.1965  0.7337 -0.2859
  998MOL0     O37594   2.305   8.187   8.351  0.0883  0.2684  0.6384
  998MOL0     C37595   2.319   8.129   8.218 -0.3117 -0.4125  0.1057
  998MOL0     C37596   2.297   7.981   8.217 -0.7438 -0.3949 -0.3870
  998MOL0     C37597   2.372   7.895   8.328  0.1952  1.5041 -0.8812
  998MOL0     C37598   2.351   7.743   8.296 -0.1955  0.1758 -0.6737
  998MOL0     C37599   2.439   7.669   8.392  1.0288 -0.3308  0.6692
  998MOL0     C37600   2.436   7.515   8.396 -0.5417  0.1017 -0.2867
  998MOL0     C37601   2.304   7.448   8.432 -0.3845 -0.2836 -0.3194
  998MOL0     C37602   2.314   7.294   8.450  0.5022  0.2387 -0.6652
  998MOL0     N37603   2.372   7.242   8.576 -0.3267  0.0750 -0.5739
  998MOL0     C37604   2.464   7.137   8.588 -0.4214 -0.0705 -0.0780
  998MOL0     C37605   2.452   7.103   8.722  0.5652 -0.2628  0.0018
  998MOL0     C37606   2.511   6.993   8.797 -0.3664  0.1335 -0.3724
  998MOL0     C37607   2.493   6.858   8.730 -0.1661  0.1278  0.4607
  998MOL0     C37608   2.507   6.751   8.841  0.3675  0.2021 -0.1320
  998MOL0     C37609   2.526   6.616   8.780 -0.0391 -0.1210 -0.7165
  998MOL0     O37610   2.386   6.574   8.741 -0.4210  0.6222 -0.4008
  998MOL0     C37611   2.371   6.444   8.694  0.2206 -0.1883 -0.3686
  998MOL0     C37612   2.286   6.429   8.590  0.3328  0.0157 -0.9948
  998MOL0     C37613   2.240   6.305   8.547 -0.3243 -0.5121  0.9692
  998MOL0     C37614   2.168   6.298   8.409 -0.4051 -0.3710 -0.0775
  998MOL0     C37615   2.263   6.194   8.632 -0.0532  0.4740 -0.1668
  998MOL0     C37616   2.186   6.067   8.614  0.4980  0.9041 -0.6460
  998MOL0     O37617   2.203   5.966   8.717  1.0722  0.2812  0.0278
  998MOL0     C37618   2.111   5.863   8.723 -0.0002  0.3326  0.0709
  998MOL0     C37619   1.968   5.885   8.705 -0.6528  0.0464  0.4072
  998MOL0     C37620   1.875   5.790   8.726 -0.5551  0.2830 -0.6858
  998MOL0     C37621   1.913   5.661   8.755  0.2440  0.0033 -0.5868
  998MOL0     O37622   1.815   5.561   8.740 -0.0389 -0.0973  0.2708
  998MOL0     C37623   1.729   5.548   8.848 -0.2461 -0.4639  0.0887
  998MOL0     C37624   1.619   5.455   8.817  1.6107  0.2704  0.6146
  998MOL0     C37625   1.559   5.383   8.948 -0.6354 -0.1577 -0.1824
  998MOL0     C37626   1.639   5.250   8.962 -0.2044  0.9883  0.4948
  998MOL0     C37627   1.648   5.205   9.115 -0.4313  1.1938  0.2544
  998MOL0     C37628   1.516   5.168   9.186  0.2119 -0.0932 -0.4455
  998MOL0     C37629   1.537   5.110   9.325  0.4279 -0.1316 -0.4904
  998MOL0     C37630   1.485   4.968   9.345  0.4620  0.3441 -0.3256
  998MOL0    Cl37631   1.531   4.920   9.510 -0.2839 -0.1367  0.2964
  998MOL0     C37632   2.051   5.639   8.777 -0.3960  0.1727  0.6451
  998MOL0     C37633   2.147   5.735   8.765 -0.6904  0.5459  0.3102
  998MOL0     O37634   2.105   6.059   8.523 -0.1304 -0.6193  0.7974
  998MOL0     C37635   2.365   6.210   8.737 -0.6406  0.8445  0.3236
  998MOL0     C37636   2.419   6.332   8.762  0.3139 -0.0486  0.4011
  998MOL0     N37637   2.374   7.205   8.784  0.0283 -0.1301  0.0312
  998MOL0     N37638   2.337   7.292   8.700 -0.2655  0.2649  0.4747
  998MOL0     C37639   2.448   8.382   8.294 -0.0241  0.2396  0.2291
  998MOL0     C37640   2.528   8.483   8.344 -0.0806 -0.6296  0.6295
  998MOL0     C37641   2.811   8.748   8.562 -0.4816 -0.3387 -0.4943
  998MOL0     C37642   2.786   8.750   8.702 -0.1831 -0.0801 -1.0336
  998MOL0     C37643   2.840   8.841   8.788  0.6226 -0.4477 -1.2905
  998MOL0     C37644   2.929   8.941   8.743  0.3607  0.1438 -0.3618
  998MOL0     O37645   2.974   9.030   8.838 -0.0782 -0.0694 -0.5823
  998MOL0     C37646   3.094   9.101   8.805  0.9377  0.1341 -0.4113
  998MOL0     C37647   3.075   9.230   8.725 -0.3022 -0.4104 -0.2067
  998MOL0     C37648   3.217   9.270   8.663  0.2901  0.2797 -0.0934
  998MOL0     C37649   3.252   9.229   8.519 -0.3270 -0.3514  0.0325
  998MOL0     C37650   3.330   9.107   8.509  0.8184 -0.4743 -0.3226
  998MOL0     C37651   3.398   9.008   8.495 -0.6127  0.0647 -0.9784
  998MOL0     C37652   2.966   8.933   8.610  0.0179  0.4433  0.5645
  998MOL0     C37653   2.909   8.839   8.518  0.3151 -0.9953 -0.6866
  998MOL0     C37654   2.964   8.839   8.378 -0.4941  0.4389 -0.7133
  998MOL0     H37655   2.523   8.403   8.677 -3.7514  0.2382  1.2628
  998MOL0     H37656   2.390   8.217   8.597  2.3578 -1.8164 -0.4924
  998MOL0     H37657   2.424   8.131   8.186 -0.9780  1.3668 -2.2526
  998MOL0     H37658   2.262   8.190   8.147 -1.0492 -1.5878 -0.3500
  998MOL0     H37659   2.194   7.945   8.221  0.8517 -5.8988 -0.0820
  998MOL0     H37660   2.340   7.946   8.122 -0.2374  2.4542 -1.3019
  998MOL0     H37661   2.476   7.927   8.317  0.5281  0.9305  0.4144
  998MOL0     H37662   2.333   7.910   8.429 -0.7839  0.6549 -1.1187
  998MOL0     H37663   2.246   7.719   8.315 -0.5936  2.4737  0.4595
  998MOL0     H37664   2.377   7.719   8.193  1.9044 -2.3230  0.3250
  998MOL0     H37665   2.406   7.706   8.490 -0.1553  0.8948 -0.1643
  998MOL0     H37666   2.544   7.692   8.374  1.3143 -1.7169  0.4593
  998MOL0     H37667   2.481   7.477   8.304  1.1555  0.1674  0.4864
  998MOL0     H37668   2.511   7.479   8.467 -0.0180 -1.9466 -1.7719
  998MOL0     H37669   2.220   7.477   8.369 -1.5967  0.7367  1.6567
  998MOL0     H37670   2.272   7.497   8.525 -2.2247 -0.4113 -0.8509
  998MOL0     H37671   2.210   7.260   8.459 -0.4110  2.7493 -0.9307
  998MOL0     H37672   2.350   7.237   8.363 -0.5549 -1.0664 -0.2940
  998MOL0     H37673   2.534   7.108   8.510  1.2141  4.2624 -0.4602
  998MOL0     H37674   2.464   6.990   8.896 -1.3932 -0.8572 -0.8677
  998MOL0     H37675   2.615   7.023   8.812 -0.7265  0.7776  0.9946
  998MOL0     H37676   2.390   6.856   8.692  0.3871 -0.5801 -1.0730
  998MOL0     H37677   2.571   6.841   8.656 -0.5590 -0.4371  0.1659
  998MOL0     H37678   2.598   6.770   8.899 -0.6803  0.8626  1.3597
  998MOL0     H37679   2.419   6.755   8.906  1.5777  1.2461  1.5133
  998MOL0     H37680   2.592   6.620   8.693 -0.7771 -2.6801 -1.4987
  998MOL0     H37681   2.574   6.546   8.850 -1.0591 -0.1805 -0.0562
  998MOL0     H37682   2.260   6.519   8.535 -1.1391 -2.4705 -4.7922
  998MOL0     H37683   2.060   6.293   8.422 -0.2109 -0.5332  1.6214
  998MOL0     H37684   2.217   6.220   8.350  0.7304  0.1126  0.1997
  998MOL0     H37685   2.198   6.390   8.356 -3.9735 -0.1382 -2.0286
  998MOL0     H37686   1.934   5.987   8.691  2.7423  1.0437 -1.6587
  998MOL0     H37687   1.771   5.822   8.721 -0.5300  0.7451  1.0498
  998MOL0     H37688   1.792   5.515   8.931 -1.4598 -0.8524  0.9014
  998MOL0     H37689   1.668   5.634   8.877 -1.6794 -1.5360  0.4000
  998MOL0     H37690   1.538   5.513   8.771  0.7809 -0.7539  0.7433
  998MOL0     H37691   1.645   5.374   8.749  3.6943  1.1775  0.2772
  998MOL0     H37692   1.453   5.356   8.943 -0.8695  0.8561 -1.1531
  998MOL0     H37693   1.570   5.454   9.031  2.8315 -1.0597  0.2481
  998MOL0     H37694   1.739   5.265   8.920 -2.0158  1.6236 -4.2221
  998MOL0     H37695   1.585   5.175   8.905 -1.5306  0.5259  2.3043
  998MOL0     H37696   1.723   5.128   9.133  0.4498  2.2981  1.4620
  998MOL0     H37697   1.683   5.291   9.173  0.1739  1.8711 -1.0790
  998MOL0     H37698   1.453   5.108   9.120  1.2266  0.8744 -2.3855
  998MOL0     H37699   1.466   5.266   9.191  1.5484  0.5604  1.9603
  998MOL0     H37700   1.494   5.171   9.405 -0.8254  0.7493 -1.7699
  998MOL0     H37701   1.645   5.106   9.338  0.3548  0.0426  0.1828
  998MOL0     H37702   1.527   4.893   9.277 -0.4835 -3.0254  2.5338
  998MOL0     H37703   1.378   4.961   9.324  0.2059 -1.0644  1.2908
  998MOL0     H37704   2.073   5.535   8.799 -0.5743 -0.4111 -1.6654
  998MOL0     H37705   2.254   5.719   8.770 -0.3825  2.0428 -0.6909
  998MOL0     H37706   2.386   6.134   8.811  1.0743  1.1767  0.2265
  998MOL0     H37707   2.490   6.354   8.841  0.6592  2.1477 -0.4440
  998MOL0     H37708   2.419   8.385   8.190  0.2543 -1.1455  0.0998
  998MOL0     H37709   2.566   8.566   8.285 -0.6171 -1.9318 -1.6849
  998MOL0     H37710   2.724   8.674   8.750  0.9494  0.5942  1.6836
  998MOL0     H37711   2.828   8.826   8.895  1.6771  1.3258 -0.8915
  998MOL0     H37712   3.139   9.135   8.899 -1.8676  0.2560  1.0187
  998MOL0     H37713   3.157   9.019   8.771 -2.1196 -1.9269 -1.5626
  998MOL0     H37714   3.055   9.306   8.801  0.5238  0.6965 -1.0783
  998MOL0     H37715   2.988   9.215   8.661  1.2414 -1.2075 -2.1917
  998MOL0     H37716   3.220   9.379   8.660  1.9478  0.2358 -0.8022
  998MOL0     H37717   3.298   9.265   8.736  1.8613  0.4560 -1.7542
  998MOL0     H37718   3.316   9.306   8.475  3.8463 -3.8282 -0.6925
  998MOL0     H37719   3.163   9.212   8.457  0.9759 -0.6436 -1.8527
  998MOL0     H37720   3.455   8.925   8.460  1.2676  1.3353 -1.0964
  998MOL0     H37721   3.048   8.996   8.578  0.5617  0.4331  1.8732
  998MOL0     H37722   3.005   8.941   8.373  3.6857 -1.0372 -0.9163
  998MOL0     H37723   3.049   8.772   8.361  2.1862  2.6988  2.2860
  998MOL0     H37724   2.893   8.837   8.295  1.5469  1.1258 -2.5951
  999MOL0     O37725   5.216   9.867   2.465  0.4966  0.0647 -0.9314
  999MOL0     C37726   5.255   9.887   2.348 -0.2422 -0.5842 -0.2013
  999MOL0     O37727   5.339   9.989   2.316 -0.2309 -1.6154 -0.0242
  999MOL0     C37728   5.388  10.060   2.425  0.4261  0.0693 -0.4859
  999MOL0     C37729   5.484  10.005   2.512  0.5382  0.6890  0.1400
  999MOL0     C37730   5.538  10.088   2.611 -0.0385  0.1094 -0.2950
  999MOL0     C37731   5.508  10.225   2.625 -0.4329 -0.1049  0.1568
  999MOL0     O37732   5.571  10.309   2.709  0.1569 -0.0275 -0.2434
  999MOL0     C37733   5.634  10.253   2.831 -0.7611 -0.1011  0.4965
  999MOL0     C37734   5.676  10.370   2.921  0.1578  0.3357  0.2620
  999MOL0     C37735   5.811  10.339   2.990  0.0666 -0.6157  0.7023
  999MOL0     C37736   5.855  10.455   3.077 -0.2239 -0.2309 -0.1863
  999MOL0     C37737   6.004  10.452   3.121  0.6794  0.6429  0.1954
  999MOL0     C37738   6.028  10.588   3.184 -0.6309  0.6554  0.0774
  999MOL0     C37739   6.150  10.581   3.269 -0.2666 -0.4537 -0.4632
  999MOL0     C37740   6.270  10.578   3.188 -0.5798  0.9525  0.1930
  999MOL0     N37741   6.389  10.550   3.282  0.0799  0.0220 -0.0107
  999MOL0     C37742   6.495  10.461   3.274 -0.5090  0.2108 -0.6450
  999MOL0     C37743   6.576  10.481   3.377 -0.0756  0.8963 -0.8595
  999MOL0     C37744   6.699  10.401   3.420 -0.1524  0.1133 -0.3434
  999MOL0     C37745   6.818  10.404   3.313  0.1955 -0.5696  0.9741
  999MOL0     C37746   6.949  10.337   3.370 -0.6133  0.2894  0.2805
  999MOL0     C37747   7.068  10.330   3.263 -0.6110 -0.1767 -0.2793
  999MOL0     O37748   7.090  10.458   3.209  0.3694  0.5907 -0.5030
  999MOL0     C37749   7.229  10.487   3.187  0.3792  0.9354 -0.7448
  999MOL0     C37750   7.340  10.465   3.283  0.0392 -0.5252 -0.1941
  999MOL0     C37751   7.479  10.485   3.242  0.6735 -0.2062  0.1390
  999MOL0     C37752   7.584  10.441   3.344 -0.3993 -1.0856 -0.5768
  999MOL0     C37753   7.502  10.554   3.121  1.4272 -0.1585  0.3067
  999MOL0     C37754   7.641  10.605   3.080 -0.1304 -1.2037  0.1359
  999MOL0     O37755   7.655  10.660   2.955 -0.7128  0.2000  0.0432
  999MOL0     C37756   7.771  10.718   2.914 -0.0649 -0.2609 -0.1716
  999MOL0     C37757   7.832  10.678   2.791 -0.2243 -0.1528  0.7805
  999MOL0     C37758   7.959  10.732   2.762 -0.0871 -0.9411 -0.1237
  999MOL0     C37759   8.011  10.845   2.830 -0.7486  0.1524  0.2538
  999MOL0     O37760   8.124  10.921   2.802 -0.3189  0.8181 -0.7930
  999MOL0     C37761   8.222  10.858   2.721  0.9863  0.7031  0.1247
  999MOL0     C37762   8.297  10.982   2.663  0.1170  0.8025 -0.1822
  999MOL0     C37763   8.223  11.053   2.549 -0.2126  0.5396 -0.5620
  999MOL0     C37764   8.290  11.187   2.514 -0.4833 -0.1032 -0.7426
  999MOL0     C37765   8.194  11.283   2.431  0.7838 -0.3393  0.3296
  999MOL0     C37766   8.260  11.424   2.397 -0.5724  0.1557 -0.5057
  999MOL0     C37767   8.360  11.416   2.278 -0.2963 -0.4609  0.5430
  999MOL0     C37768   8.352  11.527   2.172 -0.9994 -0.1161  0.1868
  999MOL0    Cl37769   8.447  11.667   2.248  0.0769  0.0165  0.2411
  999MOL0     C37770   7.947  10.886   2.940  1.1709 -0.0658  0.0070
  999MOL0     C37771   7.828  10.818   2.987 -0.0388 -1.0184 -0.5539
  999MOL0     O37772   7.717  10.608   3.170 -0.4374 -0.7983 -0.7059
  999MOL0     C37773   7.389  10.589   3.043 -0.5845  0.5103  0.8850
  999MOL0     C37774   7.262  10.545   3.071  0.2633 -0.6987  0.1317
  999MOL0     N37775   6.528  10.590   3.449 -0.1162 -0.1200  0.9034
  999MOL0     N37776   6.421  10.633   3.385 -0.1348  0.1781 -0.1899
  999MOL0     C37777   5.414  10.277   2.535  0.0627 -0.5948 -0.4305
  999MOL0     C37778   5.360  10.198   2.436 -0.0775  0.0614  0.4503
  999MOL0     C37779   5.205   9.801   2.238 -0.2106 -0.2160  0.7461
  999MOL0     C37780   5.245   9.834   2.106 -0.3225 -0.0363 -0.9927
  999MOL0     C37781   5.221   9.745   2.003  0.6295 -0.1342 -0.5011
  999MOL0     C37782   5.153   9.626   2.012  0.2299  0.2945 -0.2380
  999MOL0     O37783   5.147   9.540   1.909 -0.2779  0.2049 -0.1480
  999MOL0     C37784   5.056   9.433   1.899  0.0933  0.0945  0.7245
  999MOL0     C37785   5.076   9.383   1.757  0.1842 -0.2061 -0.4768
  999MOL0     C37786   4.972   9.275   1.713 -0.2010 -0.6500  0.4186
  999MOL0     C37787   5.013   9.135   1.753  0.6327  0.6014 -1.2340
  999MOL0     C37788   4.907   9.035   1.725  0.3459  0.0040  0.1405
  999MOL0     C37789   4.804   8.981   1.702  0.2072 -0.4542  0.2325
  999MOL0     C37790   5.101   9.598   2.141 -0.3121 -0.0109  0.0634
  999MOL0     C37791   5.129   9.681   2.250 -0.3933  0.1822 -0.0997
  999MOL0     C37792   5.043   9.640   2.367  0.5001  0.1399 -0.2202
  999MOL0     H37793   5.523   9.906   2.490 -0.8498  0.1448  0.0295
  999MOL0     H37794   5.597  10.043   2.690  1.6939  1.3031 -0.8431
  999MOL0     H37795   5.708  10.179   2.798  0.9812  1.8412 -0.2138
  999MOL0     H37796   5.555  10.200   2.884 -1.9807  0.9912 -0.1926
  999MOL0     H37797   5.688  10.465   2.867 -2.4464 -0.1564 -1.3300
  999MOL0     H37798   5.595  10.391   2.991  2.0538  3.8129  1.7168
  999MOL0     H37799   5.792  10.251   3.052 -3.3170 -0.1338  0.5177
  999MOL0     H37800   5.880  10.308   2.911 -0.4810  4.7148 -2.3425
  999MOL0     H37801   5.840  10.552   3.030  0.6926  0.1757  0.3289
  999MOL0     H37802   5.794  10.449   3.167  2.5643 -1.1588  1.7973
  999MOL0     H37803   6.074  10.440   3.038  1.6625  0.3082  1.0405
  999MOL0     H37804   6.020  10.370   3.191  1.2952  0.1379 -0.5253
  999MOL0     H37805   6.034  10.670   3.111 -1.9895  0.4003 -0.3514
  999MOL0     H37806   5.942  10.609   3.248 -1.9401 -0.9381 -1.0630
  999MOL0     H37807   6.133  10.492   3.330  0.4055 -1.9607 -2.3463
  999MOL0     H37808   6.151  10.669   3.334  2.2084 -1.0249  0.3733
  999MOL0     H37809   6.259  10.507   3.105 -2.2859  1.7616 -0.3263
  999MOL0     H37810   6.274  10.672   3.132 -2.8247  0.5579 -0.7517
  999MOL0     H37811   6.516  10.394   3.191 -2.0956  0.3524 -1.2076
  999MOL0     H37812   6.675  10.298   3.448 -3.8548  1.6760  3.3790
  999MOL0     H37813   6.733  10.444   3.515  0.1183 -1.2877  0.2138
  999MOL0     H37814   6.782  10.359   3.220  2.0462  1.4163 -0.8380
  999MOL0     H37815   6.847  10.509   3.297 -5.4133  1.1025 -0.2466
  999MOL0     H37816   6.975  10.372   3.471 -1.1455  0.5722  0.3230
  999MOL0     H37817   6.918  10.232   3.379 -1.0225  0.5212  1.8956
  999MOL0     H37818   7.161  10.292   3.308  0.2724 -0.4827 -2.2735
  999MOL0     H37819   7.040  10.261   3.183  3.1422  0.3724 -2.2757
  999MOL0     H37820   7.313  10.435   3.383  0.4291  2.3037  0.8459
  999MOL0     H37821   7.666  10.377   3.310 -1.5524 -2.3815 -0.9977
  999MOL0     H37822   7.529  10.386   3.422  0.6092 -0.5514  0.5534
  999MOL0     H37823   7.629  10.524   3.400 -3.9380  0.4592  0.3127
  999MOL0     H37824   7.793  10.596   2.731 -3.3470  0.9716  1.0596
  999MOL0     H37825   8.007  10.688   2.675  0.9560 -2.6722  1.2491
  999MOL0     H37826   8.280  10.792   2.787  0.1633 -0.9210 -0.7277
  999MOL0     H37827   8.188  10.792   2.641  0.3494  1.1237  0.0443
  999MOL0     H37828   8.316  11.039   2.753 -0.4704  1.7615 -0.6500
  999MOL0     H37829   8.392  10.946   2.622 -0.2575 -1.1684  0.5726
  999MOL0     H37830   8.118  11.058   2.578 -0.1141  1.1954 -0.2994
  999MOL0     H37831   8.236  10.986   2.463 -0.4079  0.5821 -0.6246
  999MOL0     H37832   8.379  11.173   2.451  2.8377  0.3407  3.3640
  999MOL0     H37833   8.316  11.236   2.608 -0.3741 -1.1745 -0.2012
  999MOL0     H37834   8.165  11.231   2.339 -0.3910 -1.4754  1.2997
  999MOL0     H37835   8.100  11.292   2.486 -0.8111 -2.2733 -1.8489
  999MOL0     H37836   8.321  11.462   2.479 -1.3477  0.6098 -0.1375
  999MOL0     H37837   8.179  11.494   2.377 -0.6817 -0.1887 -1.3518
  999MOL0     H37838   8.330  11.323   2.228 -2.1851  0.5249 -0.2491
  999MOL0     H37839   8.460  11.399   2.317 -1.0858  0.4081  3.1275
  999MOL0     H37840   8.248  11.554   2.153 -1.1842  0.5008  1.8945
  999MOL0     H37841   8.405  11.484   2.086  1.6647 -2.7647  2.8950
  999MOL0     H37842   7.992  10.959   3.006 -0.5777 -1.6257  3.1496
  999MOL0     H37843   7.775  10.852   3.076 -2.6307  0.1751 -2.4088
  999MOL0     H37844   7.409  10.639   2.949  1.2950  3.2451  2.5575
  999MOL0     H37845   7.186  10.567   2.997  1.6770 -0.8438 -1.4268
  999MOL0     H37846   5.405  10.385   2.536  1.3451 -0.4769  0.3644
  999MOL0     H37847   5.308  10.243   2.352 -0.8455 -0.7448  0.4771
  999MOL0     H37848   5.299   9.925   2.081  2.2096 -1.6315 -1.6499
  999MOL0     H37849   5.272   9.764   1.910  2.6093 -0.5424  0.4403
  999MOL0     H37850   5.091   9.355   1.968  1.5750 -0.2458 -0.3517
  999MOL0     H37851   4.958   9.458   1.940  1.1801  1.0202  2.9737
  999MOL0     H37852   5.181   9.353   1.746  0.4662  0.6485 -0.1800
  999MOL0     H37853   5.068   9.467   1.687 -0.3151  0.2862  0.1615
  999MOL0     H37854   4.892   9.302   1.782  2.0356  1.5004  2.3870
  999MOL0     H37855   4.949   9.284   1.607  1.5543 -0.2749  0.0317
  999MOL0     H37856   5.031   9.145   1.860 -0.1976  0.5237 -1.0829
  999MOL0     H37857   5.103   9.097   1.703  1.7247 -1.4841  2.0499
  999MOL0     H37858   4.709   8.933   1.694 -0.0889  0.1741 -0.0526
  999MOL0     H37859   5.035   9.512   2.149 -2.5230  1.7015  1.3377
  999MOL0     H37860   5.114   9.598   2.439  0.9596 -0.5102 -1.0329
  999MOL0     H37861   4.995   9.728   2.411  0.5740 -0.4036  1.0038
  999MOL0     H37862   4.970   9.560   2.353  1.7188 -0.7570 -1.8038
 1000MOL0     O37863   9.977   2.488   2.021 -0.0531 -0.1615  0.0477
 1000MOL0     C37864  10.056   2.533   2.098  0.0625 -0.1281 -0.4799
 1000MOL0     O37865  10.188   2.504   2.101  0.3919 -0.4047  0.4918
 1000MOL0     C37866  10.247   2.412   2.020 -0.7179 -0.3124 -1.2004
 1000MOL0     C37867  10.213   2.405   1.885  0.2705 -0.1836  0.1361
 1000MOL0     C37868  10.283   2.303   1.809 -0.0547 -0.7954 -0.2773
 1000MOL0     C37869  10.395   2.229   1.857 -0.8921  0.7840 -0.6624
 1000MOL0     O37870  10.471   2.147   1.779  0.6995 -0.1463  0.4360
 1000MOL0     C37871  10.554   2.039   1.833 -0.8665  0.5701 -0.2746
 1000MOL0     C37872  10.631   1.944   1.730 -0.3968 -1.3749 -0.0384
 1000MOL0     C37873  10.533   1.881   1.639 -0.5716 -0.4690 -0.6534
 1000MOL0     C37874  10.615   1.803   1.520 -0.4922 -1.2621 -0.0942
 1000MOL0     C37875  10.522   1.719   1.432 -0.0934  0.8125  0.4652
 1000MOL0     C37876  10.590   1.607   1.347 -0.3361 -0.8491  0.1790
 1000MOL0     C37877  10.709   1.672   1.268 -0.4011  0.8763  0.4856
 1000MOL0     C37878  10.649   1.744   1.152 -1.8305  0.3765  0.5654
 1000MOL0     N37879  10.740   1.769   1.034 -0.5467  0.1462 -0.2560
 1000MOL0     C37880  10.709   1.829   0.916 -0.1836 -0.9893  0.2471
 1000MOL0     C37881  10.820   1.830   0.846 -0.6202 -0.3452  0.5513
 1000MOL0     C37882  10.851   1.902   0.725 -1.0424 -0.5103  0.3932
 1000MOL0     C37883  10.898   2.047   0.750 -0.2949 -0.4534  0.0852
 1000MOL0     C37884  11.034   2.068   0.827  0.3593 -0.0692 -0.2168
 1000MOL0     C37885  11.097   2.208   0.812 -0.6349 -0.2887  0.4581
 1000MOL0     O37886  11.223   2.191   0.871 -0.0887 -0.1646 -0.8741
 1000MOL0     C37887  11.329   2.277   0.830  0.1239  0.7111 -0.3275
 1000MOL0     C37888  11.310   2.409   0.782  0.9676  0.2742  0.7487
 1000MOL0     C37889  11.414   2.484   0.735 -0.6041  0.0591  0.2537
 1000MOL0     C37890  11.372   2.621   0.685  0.4010 -0.3390 -0.6278
 1000MOL0     C37891  11.549   2.433   0.743 -0.4109  1.3300 -1.1419
 1000MOL0     C37892  11.664   2.508   0.698  0.9870  1.4270 -0.6887
 1000MOL0     O37893  11.653   2.641   0.704  0.1910 -0.9604  0.4307
 1000MOL0     C37894  11.745   2.741   0.646 -0.0619 -0.2796 -0.5132
 1000MOL0     C37895  11.717   2.878   0.633 -0.0988 -0.6307 -0.1301
 1000MOL0     C37896  11.800   2.976   0.572 -0.7727 -0.9483 -0.0675
 1000MOL0     C37897  11.930   2.943   0.535  0.2394 -0.2855  0.0805
 1000MOL0     O37898  12.033   3.020   0.486  0.4531  0.5947  0.1053
 1000MOL0     C37899  12.046   3.151   0.540  0.1317  0.1304 -0.0673
 1000MOL0     C37900  12.187   3.185   0.570 -0.2386 -0.2788  0.1408
 1000MOL0     C37901  12.208   3.291   0.678 -0.8805  0.4702 -0.3440
 1000MOL0     C37902  12.143   3.417   0.646  0.4217 -0.0056 -1.3422
 1000MOL0     C37903  12.025   3.450   0.735 -0.7422  0.2629 -0.2474
 1000MOL0     C37904  11.976   3.594   0.734 -0.2948  0.6284 -0.1031
 1000MOL0     C37905  11.824   3.603   0.751  0.2046  0.7757 -0.4898
 1000MOL0     C37906  11.770   3.743   0.762  0.2930  0.1285 -0.2569
 1000MOL0    Cl37907  11.598   3.740   0.834  0.4197  0.0545  0.3863
 1000MOL0     C37908  11.964   2.805   0.550 -0.3363  0.0539 -0.0373
 1000MOL0     C37909  11.878   2.711   0.599  0.1825  0.7257 -0.7763
 1000MOL0     O37910  11.760   2.437   0.672  0.6939  0.2763  0.3815
 1000MOL0     C37911  11.566   2.296   0.785 -0.9151 -0.0342  1.3760
 1000MOL0     C37912  11.455   2.219   0.824 -0.6306  0.0661  0.0733
 1000MOL0     N37913  10.924   1.762   0.921 -0.1342  1.2266  0.4220
 1000MOL0     N37914  10.874   1.731   1.036 -1.3220  0.2857 -0.4922
 1000MOL0     C37915  10.431   2.248   1.992  0.4501  0.2890  0.8340
 1000MOL0     C37916  10.349   2.325   2.074 -0.2088 -0.2779 -0.0628
 1000MOL0     C37917  10.015   2.649   2.184  0.5101 -0.6740 -0.6285
 1000MOL0     C37918  10.113   2.742   2.224  0.2968 -0.0849  0.4896
 1000MOL0     C37919  10.088   2.860   2.294  1.0792 -0.3059 -0.5496
 1000MOL0     C37920   9.958   2.897   2.308  0.6831  0.2054  0.1322
 1000MOL0     O37921   9.938   3.027   2.374 -0.0225  0.1255  0.0120
 1000MOL0     C37922   9.803   3.083   2.398 -0.4117  0.8003 -0.0035
 1000MOL0     C37923   9.740   3.130   2.268 -1.0636  0.0856  0.2908
 1000MOL0     C37924   9.587   3.120   2.282  0.5372 -0.2617  0.7785
 1000MOL0     C37925   9.512   3.172   2.157 -0.3022  1.0290 -0.3707
 1000MOL0     C37926   9.373   3.182   2.200  0.9985  0.0612 -0.3945
 1000MOL0     C37927   9.262   3.213   2.232 -0.3651  0.4567  0.1397
 1000MOL0     C37928   9.851   2.811   2.271 -0.1373  0.2125  0.0025
 1000MOL0     C37929   9.880   2.686   2.215 -0.4909  0.3225 -1.5605
 1000MOL0     C37930   9.770   2.599   2.174  0.2155  0.3919  0.2884
 1000MOL0     H37931  10.155   2.481   1.834  2.9544  1.3635 -0.8188
 1000MOL0     H37932  10.237   2.283   1.713  1.4425 -2.2154 -0.7571
 1000MOL0     H37933  10.501   1.966   1.895  2.6603  1.5994  4.5467
 1000MOL0     H37934  10.635   2.084   1.892 -0.1232 -0.5158 -0.4440
 1000MOL0     H37935  10.697   2.011   1.674 -0.6770 -1.3135 -0.2926
 1000MOL0     H37936  10.687   1.875   1.794 -0.5266 -1.2138  0.2545
 1000MOL0     H37937  10.468   1.814   1.696 -1.1771 -0.3566 -1.1886
 1000MOL0     H37938  10.461   1.950   1.595  0.6761  0.8605 -0.6778
 1000MOL0     H37939  10.668   1.878   1.461  1.5104 -0.8760  2.0187
 1000MOL0     H37940  10.687   1.738   1.571  0.2093 -0.0788  0.4754
 1000MOL0     H37941  10.472   1.777   1.354 -0.6556 -1.6381 -1.1221
 1000MOL0     H37942  10.445   1.666   1.488  0.1570 -2.8685 -2.2903
 1000MOL0     H37943  10.630   1.539   1.422 -1.3397 -1.6416  0.0138
 1000MOL0     H37944  10.524   1.560   1.274 -0.2245  0.3346 -0.7316
 1000MOL0     H37945  10.783   1.597   1.238 -1.1690  1.3712 -3.1283
 1000MOL0     H37946  10.763   1.744   1.331  0.6441  0.8434 -0.3414
 1000MOL0     H37947  10.560   1.695   1.114 -2.2517  1.7717 -0.3450
 1000MOL0     H37948  10.617   1.847   1.174  1.4045  2.1252 -1.8890
 1000MOL0     H37949  10.615   1.873   0.885  0.3317 -0.2934 -0.3862
 1000MOL0     H37950  10.769   1.899   0.653 -2.3654 -0.7434  1.8538
 1000MOL0     H37951  10.937   1.849   0.683 -2.3229 -4.4006  2.1278
 1000MOL0     H37952  10.903   2.090   0.649 -0.9448  0.8241  0.5779
 1000MOL0     H37953  10.822   2.101   0.807  1.4255 -1.0080  3.1337
 1000MOL0     H37954  11.018   2.032   0.928 -1.8863  1.5638  0.0822
 1000MOL0     H37955  11.103   2.000   0.776  1.0670  2.2336 -2.5993
 1000MOL0     H37956  11.113   2.240   0.709 -0.7744 -2.0190 -0.1305
 1000MOL0     H37957  11.033   2.274   0.872  0.1333 -1.3402  2.5592
 1000MOL0     H37958  11.206   2.439   0.776  0.5204 -1.2880  0.1847
 1000MOL0     H37959  11.412   2.655   0.589  1.5385  1.3308  0.3718
 1000MOL0     H37960  11.401   2.697   0.758 -0.2401  2.6043 -3.2212
 1000MOL0     H37961  11.263   2.625   0.676  0.4492  0.0595 -1.0813
 1000MOL0     H37962  11.618   2.917   0.659 -0.1988 -0.6161 -0.5240
 1000MOL0     H37963  11.767   3.079   0.565  1.8968  0.0554  0.8791
 1000MOL0     H37964  12.012   3.218   0.460 -2.2272 -0.7744  0.1032
 1000MOL0     H37965  11.980   3.169   0.625  1.8829  2.3298  0.9301
 1000MOL0     H37966  12.247   3.096   0.589  0.4771 -0.0454 -0.9260
 1000MOL0     H37967  12.219   3.229   0.475  2.1096  0.8804  1.3925
 1000MOL0     H37968  12.314   3.320   0.676 -0.5041 -0.4761  1.8845
 1000MOL0     H37969  12.178   3.263   0.780  0.1469 -2.2912 -0.6992
 1000MOL0     H37970  12.107   3.420   0.543 -3.9316 -1.6466 -0.1101
 1000MOL0     H37971  12.219   3.492   0.668  0.2610  0.1216 -1.2298
 1000MOL0     H37972  11.947   3.377   0.711 -2.2964  1.3787  1.1721
 1000MOL0     H37973  12.061   3.432   0.836 -1.2838 -0.4047 -0.1633
 1000MOL0     H37974  12.020   3.647   0.649 -2.0796  3.0531  0.4008
 1000MOL0     H37975  12.025   3.637   0.821  2.8345 -1.2085 -0.8145
 1000MOL0     H37976  11.807   3.550   0.845  1.7719 -0.8296 -1.0537
 1000MOL0     H37977  11.768   3.545   0.677 -1.1835  1.5333 -0.0625
 1000MOL0     H37978  11.759   3.800   0.669  2.3997 -1.9476 -1.9336
 1000MOL0     H37979  11.834   3.800   0.830  2.6051 -1.7162 -0.7505
 1000MOL0     H37980  12.061   2.764   0.526 -0.9838 -1.6321  0.0149
 1000MOL0     H37981  11.912   2.608   0.604  1.0008  0.9796 -1.0271
 1000MOL0     H37982  11.666   2.257   0.775 -1.2986 -0.4319 -1.5416
 1000MOL0     H37983  11.452   2.111   0.831  1.4629  0.0342  1.0929
 1000MOL0     H37984  10.520   2.196   2.026  2.8421  2.6744 -1.2928
 1000MOL0     H37985  10.373   2.331   2.180 -0.1963  0.6042 -0.1081
 1000MOL0     H37986  10.214   2.724   2.188 -0.5377 -1.1960 -1.4407
 1000MOL0     H37987  10.157   2.940   2.319 -0.6120  0.3291  2.7750
 1000MOL0     H37988   9.741   3.010   2.451  1.1635  0.0381  0.8516
 1000MOL0     H37989   9.817   3.170   2.463  2.4931  0.8653 -0.5656
 1000MOL0     H37990   9.774   3.068   2.185 -3.2819  2.4319 -2.5930
 1000MOL0     H37991   9.770   3.234   2.253  0.8533 -0.3670  0.7761
 1000MOL0     H37992   9.561   3.014   2.292 -3.2060  0.3578 -0.6732
 1000MOL0     H37993   9.555   3.171   2.373  0.9911  1.3481  0.0726
 1000MOL0     H37994   9.521   3.103   2.073 -0.8572 -0.2337  0.5771
 1000MOL0     H37995   9.540   3.275   2.134 -0.2789  1.4393  1.3334
 1000MOL0     H37996   9.160   3.225   2.262 -0.8534 -0.9986 -0.8216
 1000MOL0     H37997   9.747   2.831   2.294 -0.7944 -0.3789 -2.1881
 1000MOL0     H37998   9.676   2.616   2.227  1.0056 -3.4104  3.2926
 1000MOL0     H37999   9.769   2.601   2.065  0.0728 -4.2369  0.0129
 1000MOL0     H38000   9.790   2.495   2.200  0.1184 -0.4292 -2.5769
 1001MOL0     O38001   5.925   9.245   2.769  0.3696  0.2267 -0.0051
 1001MOL0     C38002   5.906   9.160   2.679 -0.0571 -1.0448  0.8233
 1001MOL0     O38003   5.996   9.099   2.605  0.1634  0.8230  0.6902
 1001MOL0     C38004   6.125   9.129   2.630  0.0003  0.1250  0.0835
 1001MOL0     C38005   6.207   9.034   2.680 -1.0029 -0.7827 -0.7392
 1001MOL0     C38006   6.334   9.051   2.722 -0.5080 -0.6805 -0.2382
 1001MOL0     C38007   6.403   9.168   2.695  0.1636 -0.4910 -1.1406
 1001MOL0     O38008   6.529   9.189   2.747  0.2992  0.7354  0.1104
 1001MOL0     C38009   6.572   9.323   2.773 -0.1039 -0.0603 -0.4452
 1001MOL0     C38010   6.724   9.333   2.804  0.5864 -0.6865  0.1189
 1001MOL0     C38011   6.821   9.291   2.698 -0.3945 -0.3245 -0.2251
 1001MOL0     C38012   6.850   9.399   2.596 -0.1303  0.1245 -0.6716
 1001MOL0     C38013   6.980   9.361   2.508 -0.4494 -0.6097 -0.1128
 1001MOL0     C38014   7.103   9.336   2.583 -0.2288  0.3594  1.0302
 1001MOL0     C38015   7.224   9.379   2.498 -0.1081 -0.0722 -0.0171
 1001MOL0     C38016   7.251   9.528   2.499  0.5882  0.1002  0.2433
 1001MOL0     N38017   7.363   9.557   2.413 -1.0443  0.3174 -0.9757
 1001MOL0     C38018   7.467   9.645   2.440  0.4785  0.3931  0.3383
 1001MOL0     C38019   7.563   9.625   2.340  0.3032  0.7705  0.8474
 1001MOL0     C38020   7.694   9.713   2.335 -0.3902 -0.6003 -0.6238
 1001MOL0     C38021   7.702   9.861   2.303  0.2427 -0.6515 -0.2798
 1001MOL0     C38022   7.851   9.913   2.313  0.5823  0.2905  0.5219
 1001MOL0     C38023   7.946   9.860   2.210 -0.0765  0.5051 -0.6535
 1001MOL0     O38024   8.070   9.919   2.241  0.1764  0.6504  0.0613
 1001MOL0     C38025   8.152   9.939   2.130 -0.6785 -0.7205 -1.2762
 1001MOL0     C38026   8.152   9.850   2.026 -0.6571  0.8986  0.7570
 1001MOL0     C38027   8.251   9.852   1.929 -0.2559 -0.4943 -0.7015
 1001MOL0     C38028   8.274   9.731   1.846 -0.3812  0.3918 -0.4169
 1001MOL0     C38029   8.349   9.953   1.934  0.1297  0.0318  0.0516
 1001MOL0     C38030   8.455   9.965   1.843 -0.8395  0.4437  0.2398
 1001MOL0     O38031   8.418  10.032   1.731  0.0327  0.4774  0.1867
 1001MOL0     C38032   8.518  10.024   1.636 -0.2347 -0.0801  0.7737
 1001MOL0     C38033   8.553  10.146   1.592 -0.5703 -0.4097  0.0219
 1001MOL0     C38034   8.642  10.150   1.480  0.2209 -0.4907  0.1115
 1001MOL0     C38035   8.678  10.033   1.411 -0.9119 -0.7653  0.2895
 1001MOL0     O38036   8.728  10.044   1.291  0.1760 -0.3213  0.5951
 1001MOL0     C38037   8.776   9.930   1.217 -1.3002 -0.1461  0.8186
 1001MOL0     C38038   8.839   9.971   1.086  0.1315 -0.0451 -0.3341
 1001MOL0     C38039   8.904   9.850   1.008  0.0544 -0.0575 -0.0730
 1001MOL0     C38040   8.911   9.869   0.856  0.6676  0.5324 -0.1102
 1001MOL0     C38041   8.966   9.741   0.780 -0.6817 -0.0759 -0.8141
 1001MOL0     C38042   8.925   9.720   0.635 -0.2117  0.3540  0.6200
 1001MOL0     C38043   8.964   9.574   0.591  0.0360 -0.6862 -0.5175
 1001MOL0     C38044   8.885   9.540   0.465 -0.1887 -0.1487  0.1407
 1001MOL0    Cl38045   8.720   9.475   0.487 -0.1888  0.4532  0.5113
 1001MOL0     C38046   8.632   9.914   1.462  0.5954  0.0171  0.9396
 1001MOL0     C38047   8.551   9.902   1.570 -0.0659 -0.7873 -0.2193
 1001MOL0     O38048   8.559   9.898   1.869  0.3786 -0.4527  0.6770
 1001MOL0     C38049   8.337  10.059   2.035  0.4248 -0.3844  0.7760
 1001MOL0     C38050   8.242  10.052   2.133  0.4254  0.3077 -0.4693
 1001MOL0     N38051   7.513   9.528   2.251  0.3010 -0.8910 -0.3247
 1001MOL0     N38052   7.397   9.485   2.300 -0.4231  0.0192  0.2400
 1001MOL0     C38053   6.328   9.267   2.628  0.5850 -0.6836 -0.4800
 1001MOL0     C38054   6.187   9.252   2.602  0.3966  0.2124  0.9463
 1001MOL0     C38055   5.766   9.158   2.626 -0.4143  0.2329 -0.3912
 1001MOL0     C38056   5.674   9.171   2.731 -0.1313  0.1134  0.2306
 1001MOL0     C38057   5.535   9.180   2.704  0.5175  0.1472 -0.2556
 1001MOL0     C38058   5.481   9.152   2.581  0.6378 -0.1137 -0.1085
 1001MOL0     O38059   5.348   9.146   2.554 -0.8722 -0.2725 -0.6242
 1001MOL0     C38060   5.261   9.217   2.638 -0.0891  0.1922 -0.1268
 1001MOL0     C38061   5.119   9.217   2.584 -0.2175 -0.0177 -0.1835
 1001MOL0     C38062   5.013   9.287   2.664  0.0288  0.2388  0.1516
 1001MOL0     C38063   4.870   9.270   2.601  0.1698  0.2761  0.3618
 1001MOL0     C38064   4.822   9.128   2.583  0.3294  0.7042 -0.6109
 1001MOL0     C38065   4.795   9.008   2.579  0.2914 -0.1310  0.1978
 1001MOL0     C38066   5.572   9.138   2.471  0.5468 -0.0006 -0.1088
 1001MOL0     C38067   5.714   9.139   2.487 -0.6291 -0.2124  0.5192
 1001MOL0     C38068   5.809   9.125   2.363  0.2930 -0.0990 -0.1736
 1001MOL0     H38069   6.187   8.937   2.723  4.5926 -1.7378  0.4990
 1001MOL0     H38070   6.390   8.976   2.778  0.3301  0.6230  0.7320
 1001MOL0     H38071   6.511   9.358   2.857  1.0537  0.8775  0.0265
 1001MOL0     H38072   6.565   9.398   2.693 -0.6565 -0.6020 -0.9140
 1001MOL0     H38073   6.751   9.434   2.836 -0.5972 -0.2726 -0.1460
 1001MOL0     H38074   6.729   9.268   2.892 -3.1983 -1.0206  0.2241
 1001MOL0     H38075   6.914   9.268   2.751 -1.1769 -1.5414  0.6924
 1001MOL0     H38076   6.789   9.199   2.648  2.4322 -0.7679 -1.4728
 1001MOL0     H38077   6.763   9.424   2.535 -1.6543 -2.9375  0.0722
 1001MOL0     H38078   6.876   9.492   2.647  1.1981 -2.3345  3.6598
 1001MOL0     H38079   6.992   9.446   2.439  0.3212 -1.9386 -1.6871
 1001MOL0     H38080   6.956   9.276   2.444  2.0988 -0.5741 -1.2445
 1001MOL0     H38081   7.114   9.384   2.680 -1.2390 -1.2104  1.9696
 1001MOL0     H38082   7.108   9.228   2.602  0.2012  0.2242  0.1903
 1001MOL0     H38083   7.218   9.342   2.395 -0.5095 -1.0746  0.3476
 1001MOL0     H38084   7.319   9.339   2.535 -1.0644 -0.7837  1.7927
 1001MOL0     H38085   7.161   9.569   2.453  1.0535 -3.2199 -4.3958
 1001MOL0     H38086   7.267   9.571   2.598  0.7242  0.5648  0.0223
 1001MOL0     H38087   7.484   9.713   2.524 -0.3293 -0.3805  1.1501
 1001MOL0     H38088   7.759   9.649   2.275 -1.9197 -3.2142  0.3072
 1001MOL0     H38089   7.737   9.701   2.435  0.2928  1.8229 -0.5733
 1001MOL0     H38090   7.677   9.887   2.199  4.5411  0.7261 -1.1772
 1001MOL0     H38091   7.635   9.913   2.371 -1.3924 -1.4216 -1.2329
 1001MOL0     H38092   7.846  10.022   2.313 -1.5392  0.2515  1.0835
 1001MOL0     H38093   7.896   9.883   2.408  0.2168 -2.1346 -0.0012
 1001MOL0     H38094   7.953   9.751   2.213  0.0553  0.4725 -1.8090
 1001MOL0     H38095   7.901   9.897   2.117 -2.0596 -0.6133 -0.1960
 1001MOL0     H38096   8.082   9.769   2.006 -0.0948  0.9565 -1.8385
 1001MOL0     H38097   8.194   9.658   1.836 -1.7890  1.5439  1.7655
 1001MOL0     H38098   8.363   9.678   1.881 -0.4922 -0.1926 -1.0062
 1001MOL0     H38099   8.302   9.766   1.745  4.2700  1.4546  0.9776
 1001MOL0     H38100   8.529  10.238   1.645  0.0623  0.2659 -0.8446
 1001MOL0     H38101   8.689  10.242   1.445  4.4672 -1.8478  1.6391
 1001MOL0     H38102   8.857   9.885   1.275  0.4920  2.4266  0.4469
 1001MOL0     H38103   8.709   9.848   1.190 -3.1948  2.1848 -2.1689
 1001MOL0     H38104   8.770  10.027   1.022  0.8882 -1.0427 -2.0916
 1001MOL0     H38105   8.907  10.051   1.116 -0.6520  0.6627 -0.3834
 1001MOL0     H38106   8.849   9.760   1.035 -1.6162  1.7225  3.1278
 1001MOL0     H38107   9.000   9.849   1.059 -0.8959  0.5254  1.8131
 1001MOL0     H38108   8.975   9.953   0.828  1.9187  0.2505  1.7585
 1001MOL0     H38109   8.806   9.881   0.825  0.3414 -0.2720  0.6337
 1001MOL0     H38110   9.073   9.747   0.800 -0.3271  2.2968 -2.9191
 1001MOL0     H38111   8.935   9.650   0.831  1.2152 -1.2604 -1.6698
 1001MOL0     H38112   8.984   9.791   0.578 -0.1945  1.2170  1.6760
 1001MOL0     H38113   8.824   9.761   0.624  0.4416  3.2693  3.7600
 1001MOL0     H38114   8.940   9.508   0.676 -1.1296  0.8607  0.4076
 1001MOL0     H38115   9.073   9.566   0.578  0.3695  0.4909  1.2537
 1001MOL0     H38116   8.941   9.463   0.410 -1.0456 -3.2192  3.1842
 1001MOL0     H38117   8.876   9.635   0.412 -1.3873  0.3660  1.2314
 1001MOL0     H38118   8.637   9.817   1.413  3.5315  1.0469 -1.0929
 1001MOL0     H38119   8.503   9.809   1.601  0.2105 -0.7013  0.4877
 1001MOL0     H38120   8.403  10.144   2.048  1.1347 -0.1410 -3.1869
 1001MOL0     H38121   8.244  10.122   2.216  2.6739 -0.6804  0.3949
 1001MOL0     H38122   6.369   9.354   2.576  1.8353  0.5060  2.2847
 1001MOL0     H38123   6.134   9.327   2.543  0.9034  0.2466  0.5175
 1001MOL0     H38124   5.706   9.188   2.833  1.6440  2.3708 -0.6136
 1001MOL0     H38125   5.480   9.199   2.795  0.7979 -0.4984  0.0523
 1001MOL0     H38126   5.265   9.194   2.745  1.7335  1.5170  0.1549
 1001MOL0     H38127   5.294   9.322   2.638 -2.7495  1.1625 -2.4129
 1001MOL0     H38128   5.095   9.112   2.566  1.8510  0.0460 -4.5713
 1001MOL0     H38129   5.108   9.266   2.487  2.9776  0.4637 -0.4100
 1001MOL0     H38130   5.006   9.248   2.766  0.0668 -0.9746 -0.2958
 1001MOL0     H38131   5.034   9.394   2.662 -1.6409  0.5835 -0.4651
 1001MOL0     H38132   4.856   9.320   2.505  1.9554  1.7448  0.8311
 1001MOL0     H38133   4.800   9.319   2.669 -0.7402  0.7060 -0.8377
 1001MOL0     H38134   4.752   8.910   2.575  0.2390 -0.0828 -2.0055
 1001MOL0     H38135   5.525   9.109   2.377  1.5779  0.9548 -0.9338
 1001MOL0     H38136   5.771   9.177   2.275 -0.1929  1.1943  0.7643
 1001MOL0     H38137   5.906   9.172   2.381  0.6089 -0.6665 -0.3624
 1001MOL0     H38138   5.844   9.022   2.349  2.3985  0.2521  1.8861
 1002MOL0     O38139   5.671   9.275   9.064 -0.5185  0.3244 -0.7163
 1002MOL0     C38140   5.768   9.252   8.991  0.2707  0.7904 -0.9382
 1002MOL0     O38141   5.892   9.304   9.022  0.6782 -0.2151 -0.4559
 1002MOL0     C38142   5.907   9.359   9.145 -0.5218 -0.1535  0.3607
 1002MOL0     C38143   5.998   9.297   9.225 -0.5737 -0.2271  0.6451
 1002MOL0     C38144   6.043   9.366   9.342  0.7320  0.6463  0.2451
 1002MOL0     C38145   5.995   9.494   9.382  0.2923  0.6464 -0.3994
 1002MOL0     O38146   6.053   9.548   9.505  0.6543 -0.5183  0.8793
 1002MOL0     C38147   6.193   9.576   9.489 -0.1637  0.2279 -0.3669
 1002MOL0     C38148   6.231   9.666   9.603 -1.3746  0.2736  0.1466
 1002MOL0     C38149   6.182   9.805   9.581  0.0541 -0.6604 -0.4158
 1002MOL0     C38150   6.141   9.872   9.718 -0.7820  0.2624  0.1497
 1002MOL0     C38151   6.021   9.810   9.788  0.2489  0.2713  0.6062
 1002MOL0     C38152   5.884   9.791   9.713  0.0118  0.0939  0.4669
 1002MOL0     C38153   5.839   9.916   9.635  0.0955 -0.0016 -0.2834
 1002MOL0     C38154   5.763  10.020   9.725  0.0866 -0.6071  0.1424
 1002MOL0     N38155   5.650   9.962   9.805 -0.3787 -0.5257  0.1681
 1002MOL0     C38156   5.543   9.895   9.756 -1.1104  0.2782  0.2896
 1002MOL0     C38157   5.472   9.851   9.866 -0.4148  0.4351  0.3081
 1002MOL0     C38158   5.351   9.767   9.868  0.7198 -0.1891  0.2011
 1002MOL0     C38159   5.321   9.662   9.980  0.0153  0.0221 -0.0465
 1002MOL0     C38160   5.174   9.657  10.013  0.8334  0.5017  0.1144
 1002MOL0     C38161   5.153   9.544  10.106  0.0056 -0.2028 -0.6962
 1002MOL0     O38162   5.013   9.513  10.089  0.0444  0.4023  0.0298
 1002MOL0     C38163   4.913   9.552  10.175 -0.0197 -0.2818 -0.9195
 1002MOL0     C38164   4.940   9.647  10.276  0.2857  0.1328  1.1499
 1002MOL0     C38165   4.841   9.694  10.366 -0.7064  0.1245 -0.3121
 1002MOL0     C38166   4.893   9.786  10.465 -0.3227 -1.1808  0.0065
 1002MOL0     C38167   4.710   9.640  10.349 -0.1961  0.6188 -0.3067
 1002MOL0     C38168   4.607   9.658  10.446  0.2958  0.5707 -0.7484
 1002MOL0     O38169   4.479   9.635  10.426  0.1209  0.4829 -0.1870
 1002MOL0     C38170   4.371   9.639  10.518 -0.6069  0.1786 -0.2899
 1002MOL0     C38171   4.243   9.657  10.468  0.3938 -0.0813  0.3263
 1002MOL0     C38172   4.129   9.609  10.542  0.2482 -0.2026 -0.2385
 1002MOL0     C38173   4.138   9.581  10.679  1.2169 -0.6348  0.4006
 1002MOL0     O38174   4.026   9.562  10.752 -0.0259  0.4851  0.1901
 1002MOL0     C38175   4.023   9.623  10.883  0.3274  0.7933  0.7929
 1002MOL0     C38176   3.902   9.717  10.885 -0.4012  0.2882 -0.8777
 1002MOL0     C38177   3.875   9.749  11.039 -0.1905 -0.0996 -0.2816
 1002MOL0     C38178   3.765   9.859  11.064  0.8056  0.1129 -0.1078
 1002MOL0     C38179   3.748   9.874  11.214  0.2282  0.3420  0.2361
 1002MOL0     C38180   3.634   9.977  11.241  0.2901 -0.0254  0.0106
 1002MOL0     C38181   3.504   9.954  11.154 -0.4562 -0.1672  0.0433
 1002MOL0     C38182   3.396  10.020  11.214  0.3453 -0.4569  0.0536
 1002MOL0    Cl38183   3.323   9.898  11.334  0.2701  0.1424 -0.0706
 1002MOL0     C38184   4.268   9.589  10.733 -0.6633  0.2773 -0.6482
 1002MOL0     C38185   4.382   9.602  10.651  0.9641  0.7788 -0.4785
 1002MOL0     O38186   4.652   9.678  10.557 -0.2719  0.0156  0.0286
 1002MOL0     C38187   4.681   9.548  10.243  0.3340 -0.1014 -0.2363
 1002MOL0     C38188   4.781   9.510  10.156 -0.2196 -0.1177 -1.0424
 1002MOL0     N38189   5.545   9.897   9.984 -0.5620  0.3607 -0.2568
 1002MOL0     N38190   5.651   9.959   9.939  0.0716 -0.8784 -0.0678
 1002MOL0     C38191   5.898   9.553   9.303  0.0040 -0.3151  0.9183
 1002MOL0     C38192   5.866   9.494   9.182 -0.7910 -1.4579 -0.2571
 1002MOL0     C38193   5.750   9.167   8.872 -1.0863  0.0190 -0.1227
 1002MOL0     C38194   5.850   9.162   8.775 -0.1729 -0.0544 -0.6144
 1002MOL0     C38195   5.841   9.080   8.660  0.7360  0.1668 -0.0086
 1002MOL0     C38196   5.732   8.998   8.634 -1.2330  0.1128  0.0453
 1002MOL0     O38197   5.743   8.907   8.528  0.5561  0.0639  0.0936
 1002MOL0     C38198   5.632   8.820   8.498 -0.1595 -0.7695  0.0062
 1002MOL0     C38199   5.510   8.883   8.425  0.4885 -0.1534 -1.5907
 1002MOL0     C38200   5.411   8.785   8.357  0.8787  0.5283 -0.2875
 1002MOL0     C38201   5.310   8.852   8.270  0.0555 -0.2684  0.0907
 1002MOL0     C38202   5.367   8.927   8.156 -0.3027 -1.0561  0.4310
 1002MOL0     C38203   5.393   8.981   8.050  0.0566 -0.0995  0.3738
 1002MOL0     C38204   5.632   8.997   8.725 -0.2727 -0.6203  0.5220
 1002MOL0     C38205   5.635   9.078   8.848 -0.1888 -0.5950  0.2676
 1002MOL0     C38206   5.519   9.060   8.946  0.1551  0.2051  0.4160
 1002MOL0     H38207   6.034   9.198   9.198  1.5355  0.7831 -0.5696
 1002MOL0     H38208   6.114   9.313   9.404  0.8070 -1.1127 -1.2843
 1002MOL0     H38209   6.218   9.614   9.390  2.1197 -0.0332  0.0353
 1002MOL0     H38210   6.247   9.481   9.500  0.4132  0.6525  0.6171
 1002MOL0     H38211   6.197   9.626   9.700  0.1824  2.5153  1.7318
 1002MOL0     H38212   6.338   9.686   9.608 -1.4984  1.3787 -1.0498
 1002MOL0     H38213   6.253   9.872   9.533  1.8166 -0.4923  2.2281
 1002MOL0     H38214   6.090   9.800   9.521 -1.5670  1.6120  1.6917
 1002MOL0     H38215   6.223   9.853   9.788  1.9199 -0.9962 -3.1233
 1002MOL0     H38216   6.114   9.976   9.703 -2.3384 -0.2063 -0.4973
 1002MOL0     H38217   6.004   9.870   9.878 -1.7749  3.4599 -1.6510
 1002MOL0     H38218   6.046   9.709   9.821  4.2216  1.0027  0.3025
 1002MOL0     H38219   5.908   9.711   9.643  0.7535  1.2504 -0.6554
 1002MOL0     H38220   5.806   9.766   9.785  2.0427 -4.3030  1.4854
 1002MOL0     H38221   5.775   9.884   9.553  2.8990 -0.3526 -2.4806
 1002MOL0     H38222   5.926   9.956   9.582  0.7233 -0.2254  0.5454
 1002MOL0     H38223   5.834  10.062   9.797 -0.1138 -0.5228  0.2930
 1002MOL0     H38224   5.725  10.100   9.662  1.6033  0.6521  0.7652
 1002MOL0     H38225   5.512   9.875   9.654  0.7818 -2.2252  0.1110
 1002MOL0     H38226   5.345   9.719   9.770 -0.2710  0.6487 -0.1646
 1002MOL0     H38227   5.267   9.837   9.865  0.6975 -0.1601  1.2842
 1002MOL0     H38228   5.339   9.562   9.940 -2.7331 -1.2270  1.5448
 1002MOL0     H38229   5.377   9.691  10.070 -0.5065 -1.1041  0.6573
 1002MOL0     H38230   5.139   9.739  10.075 -0.0095 -0.8620  1.5052
 1002MOL0     H38231   5.112   9.655   9.922  0.9894  0.3263  0.0083
 1002MOL0     H38232   5.209   9.454  10.081  0.1962 -0.0500 -0.8272
 1002MOL0     H38233   5.183   9.566  10.209  1.7898  1.5133 -1.5161
 1002MOL0     H38234   5.042   9.685  10.278 -0.1321  1.3145  0.5897
 1002MOL0     H38235   4.978   9.846  10.432  0.6278 -0.7153  3.0347
 1002MOL0     H38236   4.923   9.731  10.554 -0.0284 -2.4543 -0.8469
 1002MOL0     H38237   4.815   9.856  10.497 -0.6985 -1.5638 -0.0543
 1002MOL0     H38238   4.232   9.693  10.366  0.5144 -0.0728  0.3161
 1002MOL0     H38239   4.034   9.602  10.488  0.2330 -1.7816 -0.0324
 1002MOL0     H38240   3.998   9.535  10.942 -2.8230  2.0995  1.6225
 1002MOL0     H38241   4.116   9.671  10.916  0.9881 -0.7073  1.1814
 1002MOL0     H38242   3.919   9.806  10.823  0.4666 -0.1219 -1.2319
 1002MOL0     H38243   3.809   9.672  10.849 -1.0830  1.2016 -0.3351
 1002MOL0     H38244   3.971   9.775  11.084 -0.0558  0.7529 -1.0267
 1002MOL0     H38245   3.843   9.657  11.088 -0.5366  1.6748  3.1514
 1002MOL0     H38246   3.669   9.829  11.021  1.6301  0.6127 -2.4095
 1002MOL0     H38247   3.798   9.951  11.015  1.3421 -0.5230 -0.9562
 1002MOL0     H38248   3.708   9.786  11.266  1.7350  0.3248  1.4297
 1002MOL0     H38249   3.843   9.895  11.263  0.7009 -2.2835  0.5918
 1002MOL0     H38250   3.660  10.083  11.232 -0.5239  0.1058 -0.8897
 1002MOL0     H38251   3.606   9.973  11.347  2.1797  2.7002  0.7211
 1002MOL0     H38252   3.485   9.848  11.134  4.1312 -0.5394 -4.7523
 1002MOL0     H38253   3.536  10.006  11.063 -0.8963  0.0654  0.0219
 1002MOL0     H38254   3.330  10.057  11.135  0.6138  0.3785  0.2108
 1002MOL0     H38255   3.425  10.113  11.265 -1.1360  0.9554 -1.5352
 1002MOL0     H38256   4.291   9.567  10.837 -1.8171  1.6753 -0.0688
 1002MOL0     H38257   4.485   9.587  10.683  0.4688 -1.8578  0.1566
 1002MOL0     H38258   4.579   9.514  10.233 -0.7781  1.4535  3.7727
 1002MOL0     H38259   4.768   9.440  10.074  1.0023 -1.9258  0.2262
 1002MOL0     H38260   5.849   9.639   9.346  1.5305  0.9790  0.1868
 1002MOL0     H38261   5.798   9.552   9.120 -2.1011 -0.6777  1.8083
 1002MOL0     H38262   5.945   9.214   8.787 -0.2965  1.0354 -3.4639
 1002MOL0     H38263   5.927   9.076   8.595  0.0455 -1.9746 -0.8743
 1002MOL0     H38264   5.683   8.749   8.433 -0.8819 -0.6011 -0.7675
 1002MOL0     H38265   5.600   8.756   8.581 -2.3126 -0.1542 -0.2812
 1002MOL0     H38266   5.552   8.942   8.343  0.8223 -0.4436 -1.6296
 1002MOL0     H38267   5.459   8.952   8.493  5.2930  2.5335 -0.2373
 1002MOL0     H38268   5.466   8.701   8.314  2.8964  1.1015  1.0293
 1002MOL0     H38269   5.348   8.742   8.435 -1.8188  1.2124 -1.9630
 1002MOL0     H38270   5.243   8.912   8.332  1.1475 -1.5318  2.6492
 1002MOL0     H38271   5.251   8.764   8.241  0.4105 -1.0436  1.5877
 1002MOL0     H38272   5.411   9.001   7.946  4.2868 -2.6846  0.3504
 1002MOL0     H38273   5.550   8.927   8.712 -0.0781 -1.6757  4.0026
 1002MOL0     H38274   5.460   9.152   8.952  2.0351  1.7794 -2.8081
 1002MOL0     H38275   5.470   8.963   8.929 -0.2327 -0.0613  2.6500
 1002MOL0     H38276   5.558   9.061   9.048  1.9637 -0.5098 -0.2341
 1003MOL0     O38277   1.418   2.848   0.330 -0.3468 -0.2370 -0.2363
 1003MOL0     C38278   1.385   2.734   0.321  0.3329  0.4607 -0.1699
 1003MOL0     O38279   1.469   2.626   0.324 -0.8084 -0.9947  0.4400
 1003MOL0     C38280   1.599   2.659   0.299  0.7920 -0.4733 -0.6397
 1003MOL0     C38281   1.668   2.630   0.185  0.9730  0.1696  0.6529
 1003MOL0     C38282   1.811   2.643   0.165 -0.2706 -0.0700 -0.0958
 1003MOL0     C38283   1.882   2.708   0.266 -0.3330 -0.2288  0.5592
 1003MOL0     O38284   2.015   2.742   0.252 -0.0505 -0.1094 -0.7522
 1003MOL0     C38285   2.099   2.628   0.209  0.2602 -0.2420 -1.0415
 1003MOL0     C38286   2.250   2.664   0.206  0.0985  0.2982  0.0728
 1003MOL0     C38287   2.320   2.684   0.344  0.1221  0.5463  0.3329
 1003MOL0     C38288   2.291   2.813   0.419 -0.1812  0.2627  0.0594
 1003MOL0     C38289   2.360   2.839   0.551 -0.5320 -0.5996  0.4331
 1003MOL0     C38290   2.506   2.849   0.553 -0.4553  0.4066 -0.1556
 1003MOL0     C38291   2.557   2.944   0.663 -0.1806  0.4249 -0.0947
 1003MOL0     C38292   2.541   2.904   0.808 -0.2873  0.7417  0.9098
 1003MOL0     N38293   2.625   2.984   0.901 -0.8762 -0.1485 -0.1788
 1003MOL0     C38294   2.578   3.095   0.974 -0.3503  0.6118 -0.0676
 1003MOL0     C38295   2.690   3.144   1.045  1.2428  0.2671  0.9531
 1003MOL0     C38296   2.684   3.272   1.128 -0.4908  0.2386 -0.0217
 1003MOL0     C38297   2.769   3.369   1.052 -0.4035 -0.4428 -0.4345
 1003MOL0     C38298   2.776   3.504   1.124  0.2151  0.0962  0.3974
 1003MOL0     C38299   2.886   3.602   1.117  0.2820  0.0824  0.0809
 1003MOL0     O38300   3.015   3.539   1.154  0.1420  0.8560 -0.1564
 1003MOL0     C38301   3.131   3.582   1.096 -0.5953 -0.0529 -0.5211
 1003MOL0     C38302   3.201   3.484   1.031 -1.0321 -0.3723 -0.7721
 1003MOL0     C38303   3.316   3.505   0.964 -0.7837 -0.1525  1.2425
 1003MOL0     C38304   3.377   3.391   0.889  0.2192  0.1764  0.3238
 1003MOL0     C38305   3.371   3.635   0.955  0.5506  0.6960 -0.2814
 1003MOL0     C38306   3.488   3.668   0.889 -0.2297  0.5546  0.1673
 1003MOL0     O38307   3.591   3.574   0.895 -0.3242 -0.3887  0.6318
 1003MOL0     C38308   3.712   3.609   0.838 -0.2727 -0.4503 -0.0404
 1003MOL0     C38309   3.776   3.521   0.751 -0.9940  0.3208  0.0312
 1003MOL0     C38310   3.907   3.534   0.708 -0.4825  0.8317  0.0569
 1003MOL0     C38311   3.974   3.646   0.749  0.1227 -1.1277 -0.2999
 1003MOL0     O38312   4.097   3.672   0.700 -0.4688  0.3051  0.5304
 1003MOL0     C38313   4.196   3.714   0.799 -0.0988  0.4554 -0.0570
 1003MOL0     C38314   4.337   3.727   0.742  0.1185 -0.5186 -0.4179
 1003MOL0     C38315   4.404   3.599   0.726 -0.4910  0.4714  0.3969
 1003MOL0     C38316   4.545   3.601   0.674  0.3540  0.5031 -0.8455
 1003MOL0     C38317   4.606   3.456   0.699  0.8014 -0.4717 -0.1975
 1003MOL0     C38318   4.731   3.432   0.608 -0.1102 -0.1403 -0.1679
 1003MOL0     C38319   4.788   3.297   0.626  0.3049  0.3760  0.1706
 1003MOL0     C38320   4.901   3.269   0.531 -1.0837 -0.1246 -0.3136
 1003MOL0    Cl38321   5.045   3.379   0.572 -0.1283 -0.5266 -0.1257
 1003MOL0     C38322   3.910   3.746   0.827 -0.4131 -0.5300  0.0864
 1003MOL0     C38323   3.782   3.723   0.878  0.5483 -1.0279 -1.2325
 1003MOL0     O38324   3.482   3.764   0.814 -0.0918  0.7610  0.3402
 1003MOL0     C38325   3.299   3.737   1.028 -0.0227 -0.7103  0.2720
 1003MOL0     C38326   3.184   3.710   1.095  0.8972  0.6147 -0.2917
 1003MOL0     N38327   2.791   3.052   1.023  0.1986 -0.8300 -0.7533
 1003MOL0     N38328   2.752   2.956   0.942  0.0510  0.3768 -0.2325
 1003MOL0     C38329   1.811   2.749   0.387 -1.2849  0.7119 -0.7804
 1003MOL0     C38330   1.676   2.720   0.400 -0.2309 -0.0438 -0.1828
 1003MOL0     C38331   1.242   2.707   0.342 -0.7134  0.2119 -0.1200
 1003MOL0     C38332   1.149   2.814   0.327  0.4516 -0.0531 -0.1775
 1003MOL0     C38333   1.006   2.802   0.323  0.0350 -0.3876  0.4674
 1003MOL0     C38334   0.950   2.676   0.333  0.3727 -0.2512  0.4465
 1003MOL0     O38335   0.825   2.653   0.300 -0.0134 -0.7767  0.2812
 1003MOL0     C38336   0.732   2.760   0.263  0.0923  0.2204 -0.0427
 1003MOL0     C38337   0.599   2.707   0.234  0.7930 -0.1657 -0.5557
 1003MOL0     C38338   0.582   2.647   0.092 -0.8108  0.4893 -0.6999
 1003MOL0     C38339   0.450   2.580   0.075 -0.1585  0.4594 -0.6958
 1003MOL0     C38340   0.336   2.652   0.124  0.5337 -0.4671  0.2765
 1003MOL0     C38341   0.242   2.712   0.171 -0.2277  0.0066  1.2625
 1003MOL0     C38342   1.037   2.568   0.353 -0.2220 -0.1692  0.0720
 1003MOL0     C38343   1.181   2.579   0.360  0.5774  0.1121 -0.7976
 1003MOL0     C38344   1.250   2.445   0.369  0.0863  0.3645 -0.0002
 1003MOL0     H38345   1.626   2.573   0.103 -0.0694  0.5624  0.8927
 1003MOL0     H38346   1.851   2.632   0.064 -0.0768 -0.1407 -0.0109
 1003MOL0     H38347   2.063   2.601   0.109 -0.3505  2.2446 -1.5699
 1003MOL0     H38348   2.092   2.547   0.283  3.4117 -0.1529 -0.5215
 1003MOL0     H38349   2.305   2.594   0.143  2.5017  0.7500  1.5360
 1003MOL0     H38350   2.264   2.764   0.163 -0.9357  1.4454  2.2563
 1003MOL0     H38351   2.298   2.596   0.407 -1.2415 -0.1457 -1.0596
 1003MOL0     H38352   2.429   2.675   0.337 -0.0031 -2.9033  1.0420
 1003MOL0     H38353   2.315   2.897   0.354 -2.0012  1.2529  0.5861
 1003MOL0     H38354   2.184   2.829   0.440 -0.5264  0.6495 -1.8632
 1003MOL0     H38355   2.313   2.766   0.617  0.1868 -2.5119 -1.0735
 1003MOL0     H38356   2.336   2.944   0.571 -1.3145 -0.1272 -2.4661
 1003MOL0     H38357   2.550   2.751   0.572 -2.0524 -0.9567 -2.8903
 1003MOL0     H38358   2.552   2.872   0.456  3.2036 -2.8615  0.5527
 1003MOL0     H38359   2.523   3.044   0.637  2.5118  0.5131 -4.2399
 1003MOL0     H38360   2.663   2.949   0.635  0.4545 -5.3043  0.1245
 1003MOL0     H38361   2.442   2.925   0.849 -0.6499 -0.5026  0.7147
 1003MOL0     H38362   2.571   2.799   0.814  0.3510  0.9076  0.7300
 1003MOL0     H38363   2.483   3.148   0.975 -0.6468  0.1404  2.2720
 1003MOL0     H38364   2.711   3.275   1.234 -2.4737  1.2100  0.5132
 1003MOL0     H38365   2.579   3.300   1.138 -0.7704 -1.1225  1.2340
 1003MOL0     H38366   2.875   3.348   1.040  0.1292  1.2952  0.8276
 1003MOL0     H38367   2.728   3.386   0.952  1.2047 -1.5439 -1.3250
 1003MOL0     H38368   2.681   3.553   1.099 -1.2421 -2.0123  1.4938
 1003MOL0     H38369   2.776   3.494   1.232  2.8930  1.3478  0.5886
 1003MOL0     H38370   2.903   3.650   1.020 -1.4500 -0.5813 -0.5754
 1003MOL0     H38371   2.852   3.686   1.178 -0.5476  0.5598 -1.0087
 1003MOL0     H38372   3.156   3.385   1.028  0.8753 -1.2804 -0.6179
 1003MOL0     H38373   3.395   3.415   0.784  4.4156  0.4242  0.9465
 1003MOL0     H38374   3.309   3.306   0.899  2.6996 -1.9170  0.2513
 1003MOL0     H38375   3.471   3.367   0.939 -0.3478  0.3247  1.4794
 1003MOL0     H38376   3.721   3.431   0.726 -0.5243  0.0846 -0.1535
 1003MOL0     H38377   3.952   3.456   0.647 -0.2850  0.6880  0.3867
 1003MOL0     H38378   4.169   3.812   0.840  1.1292 -0.0082  2.0482
 1003MOL0     H38379   4.207   3.639   0.878  1.5779 -0.6958 -1.3171
 1003MOL0     H38380   4.332   3.785   0.649 -0.3541  0.3515  0.1319
 1003MOL0     H38381   4.395   3.777   0.819 -2.1906 -1.4283  2.0508
 1003MOL0     H38382   4.348   3.537   0.656  0.7398 -0.6869  0.3875
 1003MOL0     H38383   4.396   3.551   0.824 -0.0454 -0.7147 -0.1206
 1003MOL0     H38384   4.602   3.680   0.723 -3.1663  1.2878  2.4804
 1003MOL0     H38385   4.545   3.625   0.568 -3.0943 -1.4685 -1.4419
 1003MOL0     H38386   4.643   3.453   0.801 -2.2935  0.3076  1.0650
 1003MOL0     H38387   4.531   3.378   0.685  0.5258 -0.3709  0.6887
 1003MOL0     H38388   4.809   3.503   0.638  0.6583 -0.7957 -0.5750
 1003MOL0     H38389   4.703   3.444   0.503  1.1132 -1.2845 -0.6625
 1003MOL0     H38390   4.718   3.216   0.600  0.6925  0.2155 -0.4043
 1003MOL0     H38391   4.827   3.278   0.726  2.2421  0.8037 -0.4650
 1003MOL0     H38392   4.868   3.281   0.428 -1.6298 -1.9151 -0.3723
 1003MOL0     H38393   4.934   3.167   0.554  0.7082  0.6536  0.7994
 1003MOL0     H38394   3.946   3.842   0.863  0.4923  0.1797 -2.4976
 1003MOL0     H38395   3.727   3.802   0.929  1.5201 -0.1581 -1.4856
 1003MOL0     H38396   3.324   3.841   1.044 -1.8386 -0.0947 -0.5136
 1003MOL0     H38397   3.129   3.784   1.152  0.8361  0.2527  0.1249
 1003MOL0     H38398   1.868   2.807   0.458 -1.1192  0.7265 -0.9265
 1003MOL0     H38399   1.622   2.738   0.492 -1.1765 -2.1035 -0.2822
 1003MOL0     H38400   1.192   2.914   0.322  0.4387  0.0910  1.8047
 1003MOL0     H38401   0.951   2.895   0.311  2.7125  1.2251 -0.5012
 1003MOL0     H38402   0.711   2.835   0.340  0.1207 -0.8899  1.0706
 1003MOL0     H38403   0.761   2.820   0.176  0.7883  0.7941  0.5765
 1003MOL0     H38404   0.521   2.784   0.239  0.0138 -0.5299 -4.2323
 1003MOL0     H38405   0.572   2.629   0.305 -0.4380 -0.0690 -0.8883
 1003MOL0     H38406   0.588   2.730   0.022 -1.6459  1.1348 -0.0298
 1003MOL0     H38407   0.657   2.573   0.062 -2.6187 -2.5010  1.5706
 1003MOL0     H38408   0.446   2.476   0.109  0.6324  0.6600  0.0292
 1003MOL0     H38409   0.426   2.579  -0.032  0.1199  1.7175 -0.7780
 1003MOL0     H38410   0.165   2.762   0.226 -0.1938  0.1224  1.2062
 1003MOL0     H38411   0.997   2.467   0.359 -0.2218 -0.1393  0.6103
 1003MOL0     H38412   1.192   2.387   0.442 -1.7102  2.7314  0.5433
 1003MOL0     H38413   1.249   2.403   0.268 -0.4781 -1.2651  0.6382
 1003MOL0     H38414   1.355   2.445   0.402  0.5100 -0.3798 -1.2769
 1004MOL0     O38415  11.433   4.501   5.589 -0.2032 -0.5146  0.2611
 1004MOL0     C38416  11.342   4.458   5.522 -0.4617 -1.0888 -0.3838
 1004MOL0     O38417  11.201   4.478   5.559 -0.0044  0.7038 -0.1731
 1004MOL0     C38418  11.170   4.524   5.683 -0.2562 -0.6217  0.1823
 1004MOL0     C38419  11.147   4.431   5.785  0.3572  0.3454 -0.3440
 1004MOL0     C38420  11.113   4.472   5.915 -0.1657 -0.1285  0.2701
 1004MOL0     C38421  11.099   4.610   5.952  0.3762  0.6325  0.5836
 1004MOL0     O38422  11.082   4.644   6.079  0.1982 -0.2337  0.4702
 1004MOL0     C38423  10.997   4.757   6.109 -0.6547  0.9797  0.7402
 1004MOL0     C38424  10.990   4.769   6.257 -0.2046  0.0156  0.0010
 1004MOL0     C38425  10.946   4.634   6.321  0.0293 -0.6655  0.3203
 1004MOL0     C38426  10.971   4.642   6.463  0.0102 -0.0707  0.1501
 1004MOL0     C38427  10.972   4.502   6.527 -0.5946 -0.3264 -1.2079
 1004MOL0     C38428  11.048   4.502   6.662 -0.1197  0.1551 -0.1651
 1004MOL0     C38429  11.074   4.360   6.707  0.3248 -0.2859  0.7117
 1004MOL0     C38430  11.175   4.357   6.820 -0.2567 -0.1445 -1.1992
 1004MOL0     N38431  11.238   4.229   6.805  0.4304 -0.0649  0.0159
 1004MOL0     C38432  11.184   4.109   6.823 -0.1777  0.2562 -0.5342
 1004MOL0     C38433  11.286   4.021   6.824  0.2406  0.0817  0.1481
 1004MOL0     C38434  11.291   3.877   6.858  0.0094  0.8441 -0.1796
 1004MOL0     C38435  11.200   3.794   6.767  0.9357 -0.9648  0.2581
 1004MOL0     C38436  11.198   3.640   6.795 -0.3129  0.6412 -0.3716
 1004MOL0     C38437  11.337   3.577   6.782  0.5396  0.4490 -1.2756
 1004MOL0     O38438  11.382   3.578   6.645 -0.5840 -0.0930 -0.0841
 1004MOL0     C38439  11.514   3.568   6.623 -0.1939 -0.2337  0.1169
 1004MOL0     C38440  11.554   3.581   6.490 -0.6674  0.4555  0.7735
 1004MOL0     C38441  11.695   3.584   6.464  0.8640  0.8925 -0.3877
 1004MOL0     C38442  11.733   3.596   6.319 -0.0485 -0.1237  0.2465
 1004MOL0     C38443  11.787   3.551   6.562 -0.2287 -0.2940  0.3691
 1004MOL0     C38444  11.932   3.557   6.539 -0.3948  0.3468 -0.9260
 1004MOL0     O38445  12.013   3.606   6.652 -0.1543 -0.2150 -0.5082
 1004MOL0     C38446  12.144   3.631   6.619  0.5967 -0.8317  0.4063
 1004MOL0     C38447  12.190   3.761   6.617 -0.4186  0.5095 -0.8071
 1004MOL0     C38448  12.320   3.786   6.578  0.6281 -0.6220 -0.5770
 1004MOL0     C38449  12.410   3.678   6.558 -0.0724  0.5996  1.0591
 1004MOL0     O38450  12.539   3.708   6.518 -0.5876 -0.4091 -0.0802
 1004MOL0     C38451  12.649   3.622   6.560  0.0587 -0.1068  0.2894
 1004MOL0     C38452  12.790   3.683   6.544  0.2431  0.9781 -0.0778
 1004MOL0     C38453  12.782   3.831   6.541  0.2364 -0.3463 -0.1489
 1004MOL0     C38454  12.917   3.900   6.562  0.8832 -0.4108  0.7838
 1004MOL0     C38455  12.962   3.901   6.709  0.1844  0.1114 -0.7169
 1004MOL0     C38456  13.070   4.012   6.736 -0.1548 -0.4112 -0.0970
 1004MOL0     C38457  13.188   3.990   6.642  0.0892 -0.6411 -0.0088
 1004MOL0     C38458  13.322   4.031   6.696 -0.1117 -0.3211 -0.4002
 1004MOL0    Cl38459  13.468   3.992   6.583 -0.0809  0.1777 -0.4082
 1004MOL0     C38460  12.368   3.542   6.574  0.1283 -0.1470  0.9681
 1004MOL0     C38461  12.229   3.521   6.597 -0.7185 -0.0665 -0.1357
 1004MOL0     O38462  11.973   3.519   6.434 -1.1286 -0.0369  0.7302
 1004MOL0     C38463  11.735   3.528   6.694 -0.4334 -0.0565  0.0319
 1004MOL0     C38464  11.601   3.554   6.725  0.1306 -0.1702  0.9216
 1004MOL0     N38465  11.389   4.096   6.781  0.3286  0.0408 -0.7382
 1004MOL0     N38466  11.366   4.228   6.792  0.0444  0.0532  0.7899
 1004MOL0     C38467  11.112   4.699   5.837 -0.6282  0.1102  1.1094
 1004MOL0     C38468  11.146   4.662   5.703  0.5887 -0.0692  0.2935
 1004MOL0     C38469  11.379   4.380   5.402  0.3540  0.1665  0.3582
 1004MOL0     C38470  11.502   4.322   5.390  0.1318 -0.0818  0.6518
 1004MOL0     C38471  11.545   4.254   5.280 -0.7921  0.0005 -0.3461
 1004MOL0     C38472  11.456   4.238   5.181 -0.3736  0.7736  0.1151
 1004MOL0     O38473  11.503   4.159   5.071 -0.2347 -0.5595 -0.1906
 1004MOL0     C38474  11.423   4.144   4.954  0.3532 -0.9117  0.0707
 1004MOL0     C38475  11.466   4.026   4.869  0.4123  0.3836  0.9173
 1004MOL0     C38476  11.448   3.882   4.934 -0.5512  0.2039 -0.2059
 1004MOL0     C38477  11.425   3.772   4.831  0.3631  0.2785 -0.6777
 1004MOL0     C38478  11.297   3.762   4.768  0.4016 -0.2520  0.2245
 1004MOL0     C38479  11.185   3.752   4.713  0.1180 -0.6943  0.8560
 1004MOL0     C38480  11.330   4.290   5.186 -0.9745 -0.6530  0.1678
 1004MOL0     C38481  11.285   4.357   5.294 -0.0448 -0.2725 -0.7720
 1004MOL0     C38482  11.152   4.432   5.285 -0.1734 -0.5958  0.4669
 1004MOL0     H38483  11.168   4.326   5.765  0.0656  0.2405 -0.1155
 1004MOL0     H38484  11.127   4.404   5.998  1.3266 -1.2086 -0.8197
 1004MOL0     H38485  10.900   4.737   6.064 -1.0501  1.5263  1.3376
 1004MOL0     H38486  11.031   4.855   6.073 -1.9284  2.0847  2.4140
 1004MOL0     H38487  11.087   4.803   6.294 -0.9811  1.9967  0.3261
 1004MOL0     H38488  10.926   4.856   6.271  2.5558  2.6566 -2.3577
 1004MOL0     H38489  10.838   4.626   6.305 -0.5664  4.3391  0.2685
 1004MOL0     H38490  10.997   4.548   6.275  1.5307 -0.0902  0.8570
 1004MOL0     H38491  11.066   4.696   6.475  0.9380 -1.6240  0.1468
 1004MOL0     H38492  10.897   4.701   6.517 -0.1991  1.4030 -1.6392
 1004MOL0     H38493  11.028   4.443   6.454 -0.9241 -1.1418 -0.8223
 1004MOL0     H38494  10.867   4.475   6.543 -1.1352  1.4657 -1.5135
 1004MOL0     H38495  11.145   4.552   6.654  0.5065 -0.7364  1.3545
 1004MOL0     H38496  10.984   4.549   6.738 -0.7530 -1.0996  0.1044
 1004MOL0     H38497  11.080   4.299   6.616 -1.3840  2.0013 -1.0561
 1004MOL0     H38498  10.993   4.306   6.757  3.8765 -4.1477  2.8980
 1004MOL0     H38499  11.245   4.442   6.817  0.4543 -0.6793 -0.1396
 1004MOL0     H38500  11.125   4.355   6.917 -0.8092  1.1875 -1.4282
 1004MOL0     H38501  11.079   4.094   6.848  0.5405 -3.1438  1.0258
 1004MOL0     H38502  11.267   3.864   6.964 -1.6670  1.7958 -0.4160
 1004MOL0     H38503  11.393   3.839   6.847  0.0279  1.1386 -1.1535
 1004MOL0     H38504  11.095   3.826   6.775  1.1238 -0.3404  0.2770
 1004MOL0     H38505  11.222   3.816   6.662  0.0745  0.3119  0.3260
 1004MOL0     H38506  11.157   3.622   6.895 -1.4477 -2.8552 -1.3121
 1004MOL0     H38507  11.125   3.592   6.729 -1.3126 -0.7571  1.6341
 1004MOL0     H38508  11.411   3.640   6.833 -0.5287  0.3282  0.5172
 1004MOL0     H38509  11.341   3.477   6.826  1.1482  1.2991  0.7394
 1004MOL0     H38510  11.481   3.594   6.410  3.5636  1.2532 -3.4245
 1004MOL0     H38511  11.813   3.670   6.312 -2.9776  3.2654  0.0380
 1004MOL0     H38512  11.648   3.619   6.255  0.5398 -1.0829 -0.9029
 1004MOL0     H38513  11.771   3.502   6.278 -2.0697  0.5994 -3.7290
 1004MOL0     H38514  12.115   3.838   6.632 -0.7848  0.3998 -1.9391
 1004MOL0     H38515  12.366   3.883   6.563 -1.8406  0.7544  0.1835
 1004MOL0     H38516  12.643   3.596   6.666 -1.5675  0.1096  0.2627
 1004MOL0     H38517  12.638   3.533   6.498  0.7037  1.7098 -2.6168
 1004MOL0     H38518  12.856   3.636   6.617 -1.9920 -2.4140 -0.0172
 1004MOL0     H38519  12.840   3.653   6.451  2.0666 -0.7459  1.3674
 1004MOL0     H38520  12.709   3.870   6.613  0.8818  0.7197 -0.0337
 1004MOL0     H38521  12.743   3.864   6.444 -0.7179  0.2497  0.4168
 1004MOL0     H38522  12.897   4.005   6.537 -0.6472 -0.5279  1.3878
 1004MOL0     H38523  12.993   3.865   6.492 -0.9833 -2.0989 -0.5255
 1004MOL0     H38524  12.865   3.916   6.759 -0.7504 -3.9810 -0.9234
 1004MOL0     H38525  13.001   3.799   6.720  0.9582  0.4743  0.0182
 1004MOL0     H38526  13.105   4.008   6.840  1.1386 -0.3467 -0.5156
 1004MOL0     H38527  13.037   4.116   6.730  1.7958  0.3171  0.8245
 1004MOL0     H38528  13.186   4.051   6.551 -0.3149  1.3397  1.2631
 1004MOL0     H38529  13.195   3.882   6.629 -3.2154 -1.3882  3.0364
 1004MOL0     H38530  13.335   3.993   6.798 -0.7853  0.6288  0.0578
 1004MOL0     H38531  13.317   4.139   6.714 -2.3871 -0.4395 -0.0172
 1004MOL0     H38532  12.428   3.460   6.536  0.2384  0.6045 -0.5562
 1004MOL0     H38533  12.185   3.422   6.590 -0.5645 -0.4319  2.6610
 1004MOL0     H38534  11.800   3.485   6.770  3.0424  1.4122 -1.8717
 1004MOL0     H38535  11.581   3.541   6.831  1.6321 -0.1917  1.2266
 1004MOL0     H38536  11.103   4.804   5.863  0.6567 -0.0099  2.1379
 1004MOL0     H38537  11.173   4.739   5.631  0.8632  0.6135  1.1153
 1004MOL0     H38538  11.568   4.345   5.473  0.3164  0.3337  0.3976
 1004MOL0     H38539  11.642   4.206   5.286 -0.3671  0.9957  1.8138
 1004MOL0     H38540  11.319   4.123   4.981 -0.7826 -0.1535 -3.2709
 1004MOL0     H38541  11.430   4.231   4.888  0.1798 -1.8869 -1.2739
 1004MOL0     H38542  11.567   4.033   4.828 -0.5487 -3.2305 -2.7278
 1004MOL0     H38543  11.395   4.032   4.786  0.4994  1.2259  0.8933
 1004MOL0     H38544  11.539   3.850   4.986  0.5529  0.0732 -2.1283
 1004MOL0     H38545  11.366   3.878   5.006 -1.1575 -1.9956 -0.9600
 1004MOL0     H38546  11.434   3.675   4.879  2.6885 -0.3395 -2.2030
 1004MOL0     H38547  11.501   3.790   4.755  2.4005  1.8007  1.5603
 1004MOL0     H38548  11.090   3.738   4.665  1.0997  1.2573 -1.8773
 1004MOL0     H38549  11.248   4.277   5.117 -1.9748  1.7226  0.7968
 1004MOL0     H38550  11.083   4.391   5.360  1.7002 -0.0173  2.6012
 1004MOL0     H38551  11.175   4.535   5.312  0.8624 -0.3269 -1.3058
 1004MOL0     H38552  11.108   4.437   5.185  1.0313 -0.2064 -0.0608
 1005MOL0     O38553   5.433   7.077   9.094 -0.0597  0.3236  0.6144
 1005MOL0     C38554   5.431   7.125   8.982 -0.1989 -0.0149  0.4382
 1005MOL0     O38555   5.438   7.059   8.860  0.9494  0.6170 -0.1846
 1005MOL0     C38556   5.477   6.927   8.863 -0.3018  0.2219  0.4279
 1005MOL0     C38557   5.411   6.830   8.793 -0.2043 -0.1693  0.6978
 1005MOL0     C38558   5.452   6.699   8.770 -0.0779  0.1691  0.3397
 1005MOL0     C38559   5.568   6.655   8.831 -0.0554  0.0168  1.7800
 1005MOL0     O38560   5.618   6.529   8.811 -0.1700  0.4395 -0.0013
 1005MOL0     C38561   5.756   6.487   8.831 -1.1109  0.5094 -0.9324
 1005MOL0     C38562   5.848   6.556   8.734  0.2627  0.1953  0.5619
 1005MOL0     C38563   5.967   6.465   8.711  1.3639 -0.0298  0.3720
 1005MOL0     C38564   6.071   6.528   8.627  0.3148  0.2841  1.0062
 1005MOL0     C38565   6.142   6.640   8.685 -0.0274  0.1658 -0.5142
 1005MOL0     C38566   6.257   6.695   8.594 -0.5203  0.3075  0.3927
 1005MOL0     C38567   6.239   6.698   8.447 -0.2441  0.1007  0.1634
 1005MOL0     C38568   6.366   6.772   8.377 -0.7946  1.0192 -1.1172
 1005MOL0     N38569   6.455   6.668   8.317  0.0851  0.3987  0.8292
 1005MOL0     C38570   6.569   6.610   8.373 -0.1188 -0.7703  0.5604
 1005MOL0     C38571   6.623   6.540   8.276  0.1592 -0.5895  0.3666
 1005MOL0     C38572   6.744   6.443   8.287  1.0051 -0.3397 -0.1397
 1005MOL0     C38573   6.866   6.493   8.211 -0.2961 -0.2187  0.3888
 1005MOL0     C38574   6.926   6.374   8.131 -0.1328 -1.4507 -0.5621
 1005MOL0     C38575   6.963   6.247   8.200  0.4048  0.4290 -0.1578
 1005MOL0     O38576   7.029   6.270   8.326  0.2419  0.4227  0.0962
 1005MOL0     C38577   7.053   6.166   8.416 -0.5327 -0.4616 -0.7968
 1005MOL0     C38578   7.103   6.208   8.536 -0.8106 -0.1686  0.0922
 1005MOL0     C38579   7.150   6.123   8.639  0.7652  0.0875 -0.0707
 1005MOL0     C38580   7.209   6.189   8.767 -0.0371 -0.1566  0.3493
 1005MOL0     C38581   7.127   5.983   8.625  0.3064  0.3331  0.0691
 1005MOL0     C38582   7.140   5.884   8.739 -0.2524  0.3228 -0.5152
 1005MOL0     O38583   7.076   5.763   8.726 -0.3717 -0.3379  1.0026
 1005MOL0     C38584   7.081   5.681   8.840  0.0474 -0.5758  0.0550
 1005MOL0     C38585   6.958   5.649   8.903 -0.0203 -0.5518 -0.9919
 1005MOL0     C38586   6.955   5.570   9.023 -0.4123 -0.2622 -0.8048
 1005MOL0     C38587   7.077   5.531   9.080 -0.0873  0.6496 -1.3986
 1005MOL0     O38588   7.092   5.448   9.197  0.5514 -0.0652  0.2191
 1005MOL0     C38589   6.982   5.367   9.232 -0.0355  0.0954  0.7251
 1005MOL0     C38590   6.926   5.442   9.354 -0.1086  0.7072  0.2277
 1005MOL0     C38591   6.811   5.354   9.419 -0.0805 -0.2807 -0.1075
 1005MOL0     C38592   6.764   5.422   9.552  0.0496 -0.1260  0.1654
 1005MOL0     C38593   6.666   5.332   9.624  0.2461  0.6459  0.4116
 1005MOL0     C38594   6.597   5.388   9.756 -0.0324 -0.2807 -0.2956
 1005MOL0     C38595   6.583   5.286   9.872 -0.9205 -0.4469 -0.3415
 1005MOL0     C38596   6.488   5.165   9.872  0.3812  0.7237  0.5249
 1005MOL0    Cl38597   6.534   5.053   9.752 -0.1884 -0.2297  0.3341
 1005MOL0     C38598   7.198   5.562   9.019 -0.0069 -0.7825 -0.1536
 1005MOL0     C38599   7.196   5.647   8.908  0.2629 -0.5698  0.5170
 1005MOL0     O38600   7.210   5.920   8.837 -0.2438  0.3341 -0.9170
 1005MOL0     C38601   7.080   5.942   8.500 -0.7359  0.2011 -0.8266
 1005MOL0     C38602   7.040   6.032   8.398 -0.3410 -0.8124  0.7129
 1005MOL0     N38603   6.556   6.565   8.159 -0.1535 -0.1561  0.3815
 1005MOL0     N38604   6.453   6.638   8.187  1.3811  0.3705  0.3375
 1005MOL0     C38605   5.636   6.749   8.910 -0.4734  0.8989  0.3339
 1005MOL0     C38606   5.597   6.878   8.931 -0.0336 -0.0722 -0.3560
 1005MOL0     C38607   5.376   7.266   8.982  0.4128 -0.3355  0.2479
 1005MOL0     C38608   5.406   7.354   9.091 -0.4860 -0.3150 -0.1036
 1005MOL0     C38609   5.350   7.479   9.109 -0.1571 -0.6590  0.0799
 1005MOL0     C38610   5.270   7.535   9.002  0.3090  0.6709  0.3318
 1005MOL0     O38611   5.220   7.668   9.021 -0.2079 -0.0709  0.3574
 1005MOL0     C38612   5.153   7.727   8.908 -0.2561 -0.6107 -0.1116
 1005MOL0     C38613   5.049   7.827   8.943  0.5203 -0.5279 -0.2361
 1005MOL0     C38614   5.108   7.970   8.982 -0.1488  1.2238 -0.0803
 1005MOL0     C38615   5.011   8.083   8.993 -0.4934  0.1459  0.2029
 1005MOL0     C38616   4.880   8.042   9.047 -1.1120 -1.1695 -0.1566
 1005MOL0     C38617   4.770   8.021   9.100 -0.4193 -0.3885  0.0613
 1005MOL0     C38618   5.245   7.447   8.892  0.4586  0.4093 -0.0632
 1005MOL0     C38619   5.285   7.313   8.882 -0.0549  0.2011  0.0224
 1005MOL0     C38620   5.224   7.223   8.772  0.3031 -0.8849  0.1246
 1005MOL0     H38621   5.321   6.871   8.747 -1.1439 -1.3384  1.4590
 1005MOL0     H38622   5.400   6.633   8.701  2.1834 -0.8600 -0.4921
 1005MOL0     H38623   5.751   6.380   8.808 -0.9202  0.2485  0.2008
 1005MOL0     H38624   5.805   6.493   8.928  0.9337 -1.1880 -1.7878
 1005MOL0     H38625   5.798   6.573   8.638 -0.2484 -0.7785  0.6479
 1005MOL0     H38626   5.885   6.652   8.773  1.5188 -0.9143  2.2642
 1005MOL0     H38627   6.016   6.424   8.800  0.9272 -1.9670 -0.2499
 1005MOL0     H38628   5.929   6.368   8.680 -0.1527  0.4748  0.5608
 1005MOL0     H38629   6.141   6.453   8.589  0.0704  1.8401 -2.9163
 1005MOL0     H38630   6.019   6.577   8.545  3.0273  0.3038 -0.7972
 1005MOL0     H38631   6.196   6.613   8.777  0.6650 -0.4079 -1.0785
 1005MOL0     H38632   6.081   6.725   8.718  0.2997 -0.9026  3.3273
 1005MOL0     H38633   6.284   6.791   8.639 -1.6273  0.7459  0.1656
 1005MOL0     H38634   6.343   6.627   8.602  1.4480  2.8724  4.3042
 1005MOL0     H38635   6.152   6.762   8.432  0.6983  0.7796 -3.2403
 1005MOL0     H38636   6.218   6.602   8.400 -0.0605  0.2095 -0.1511
 1005MOL0     H38637   6.336   6.842   8.298  1.4264 -1.6333 -4.6047
 1005MOL0     H38638   6.428   6.834   8.442  1.9873 -2.4916 -0.0873
 1005MOL0     H38639   6.603   6.612   8.477 -0.3331 -1.3333  0.6412
 1005MOL0     H38640   6.720   6.341   8.256  2.3406  0.1483 -3.1441
 1005MOL0     H38641   6.764   6.437   8.394  1.3045 -2.7887 -0.2712
 1005MOL0     H38642   6.823   6.574   8.151 -1.0522 -1.3693 -0.6678
 1005MOL0     H38643   6.950   6.528   8.272 -0.0086  1.5495 -0.9281
 1005MOL0     H38644   6.855   6.340   8.054  0.8309  1.5906 -3.0162
 1005MOL0     H38645   7.006   6.413   8.068 -1.2580  2.6324  0.2431
 1005MOL0     H38646   6.877   6.179   8.213  1.0980 -1.0141 -2.4865
 1005MOL0     H38647   7.024   6.189   8.130 -1.1924 -1.1911 -0.3080
 1005MOL0     H38648   7.130   6.311   8.554  3.2182 -0.8222 -1.0875
 1005MOL0     H38649   7.150   6.169   8.856 -1.6307  0.5295 -0.5012
 1005MOL0     H38650   7.204   6.298   8.761  2.2602  0.0540  1.4290
 1005MOL0     H38651   7.312   6.154   8.780  0.6684  1.9035  0.6107
 1005MOL0     H38652   6.867   5.686   8.858 -1.1967 -0.1799  1.4862
 1005MOL0     H38653   6.862   5.544   9.074  0.1177 -0.1082  0.2626
 1005MOL0     H38654   6.907   5.356   9.153  1.7714 -0.4707 -1.0211
 1005MOL0     H38655   7.010   5.267   9.267 -0.3641 -0.3920 -0.3512
 1005MOL0     H38656   7.003   5.438   9.432 -1.3736  1.6095  1.5750
 1005MOL0     H38657   6.886   5.541   9.334  1.5870  1.0484 -1.8808
 1005MOL0     H38658   6.854   5.258   9.451  0.0979 -0.9671 -2.2431
 1005MOL0     H38659   6.734   5.321   9.349  2.0061 -4.3111 -0.8401
 1005MOL0     H38660   6.705   5.501   9.504 -0.0917 -0.1640  0.2743
 1005MOL0     H38661   6.836   5.478   9.611  0.3186 -0.5582  0.2480
 1005MOL0     H38662   6.598   5.294   9.548  1.7254 -1.7377  0.1799
 1005MOL0     H38663   6.729   5.247   9.651  1.3668  1.5754  0.8112
 1005MOL0     H38664   6.494   5.414   9.729 -0.7456 -0.1965  2.2733
 1005MOL0     H38665   6.651   5.479   9.784 -0.7567 -0.4388  1.7615
 1005MOL0     H38666   6.546   5.354   9.949 -0.6013 -1.1317  0.4292
 1005MOL0     H38667   6.684   5.249   9.893 -0.2816  0.6226 -1.4313
 1005MOL0     H38668   6.381   5.182   9.856 -0.0543 -2.3469 -0.4927
 1005MOL0     H38669   6.496   5.119   9.971  1.8850 -0.0706  0.0745
 1005MOL0     H38670   7.285   5.517   9.065 -0.5834 -1.0338  0.7265
 1005MOL0     H38671   7.293   5.690   8.884 -1.2444  0.8719 -3.9558
 1005MOL0     H38672   7.059   5.840   8.471  2.0628 -1.2929  1.8198
 1005MOL0     H38673   7.012   5.999   8.299  1.8784 -0.8041  0.0267
 1005MOL0     H38674   5.728   6.710   8.952 -0.4195 -1.5096 -1.7745
 1005MOL0     H38675   5.667   6.945   8.980  0.5710 -0.6361 -0.4449
 1005MOL0     H38676   5.477   7.322   9.167 -0.5798  0.1737  0.1949
 1005MOL0     H38677   5.360   7.538   9.200 -0.7919 -0.6674  0.1586
 1005MOL0     H38678   5.220   7.766   8.830 -0.9908 -0.5602 -0.7351
 1005MOL0     H38679   5.081   7.659   8.861 -0.5126 -0.6047  0.2742
 1005MOL0     H38680   4.986   7.797   9.027 -0.5732  0.2507 -0.7525
 1005MOL0     H38681   4.979   7.833   8.860  1.5612  1.0509 -1.0649
 1005MOL0     H38682   5.148   7.957   9.083 -1.7387 -1.1914  0.3296
 1005MOL0     H38683   5.177   7.996   8.900  1.8558 -2.6849  0.1194
 1005MOL0     H38684   4.995   8.118   8.891 -4.1683  3.2552  1.5934
 1005MOL0     H38685   5.050   8.169   9.047 -1.5155  1.3291 -0.8658
 1005MOL0     H38686   4.675   8.005   9.147 -1.1857  0.4596 -1.1536
 1005MOL0     H38687   5.188   7.467   8.802  1.4753 -3.3383 -1.7864
 1005MOL0     H38688   5.187   7.126   8.809 -1.5382 -0.7163 -1.1279
 1005MOL0     H38689   5.138   7.271   8.725  2.5099  0.7554 -2.4871
 1005MOL0     H38690   5.309   7.202   8.707  1.0969  2.4152 -0.0344
 1006MOL0     O38691  11.191   3.929   1.647  0.5426  0.3592  0.3927
 1006MOL0     C38692  11.160   4.049   1.621  1.5621  0.0300 -0.9774
 1006MOL0     O38693  11.252   4.144   1.583  1.0618  0.1970 -0.0658
 1006MOL0     C38694  11.381   4.106   1.584 -0.2562 -1.0033 -0.5198
 1006MOL0     C38695  11.436   4.046   1.468 -0.2843 -0.6709  0.1231
 1006MOL0     C38696  11.560   3.992   1.466 -0.4250  0.3715 -0.1173
 1006MOL0     C38697  11.641   4.018   1.577 -0.3896  0.6139  1.0554
 1006MOL0     O38698  11.769   3.969   1.587  0.5342  0.9964  0.0715
 1006MOL0     C38699  11.856   4.001   1.477 -0.3946  0.2481 -0.1374
 1006MOL0     C38700  11.846   4.151   1.439  0.3723 -0.3055 -0.0487
 1006MOL0     C38701  11.972   4.195   1.360  0.3676 -0.5812  0.3574
 1006MOL0     C38702  12.089   4.241   1.436  0.1744 -0.7074 -0.1611
 1006MOL0     C38703  12.196   4.306   1.343 -0.5988 -0.4499  0.2964
 1006MOL0     C38704  12.307   4.368   1.431  0.9296 -0.1230  0.4100
 1006MOL0     C38705  12.407   4.426   1.344  0.7614 -0.9210  0.9593
 1006MOL0     C38706  12.523   4.456   1.439  0.2354  0.0914  0.1892
 1006MOL0     N38707  12.626   4.528   1.360 -0.1197  0.1465  0.8353
 1006MOL0     C38708  12.618   4.663   1.343  1.1414  0.2763 -1.1971
 1006MOL0     C38709  12.748   4.691   1.304  0.7514  0.4135 -0.0545
 1006MOL0     C38710  12.821   4.828   1.289  0.2703  0.4654 -0.0556
 1006MOL0     C38711  12.902   4.850   1.419  0.3036  0.2240 -0.5727
 1006MOL0     C38712  12.960   4.997   1.423  0.3915  0.3984  0.1952
 1006MOL0     C38713  12.868   5.085   1.512  0.2007  0.5653 -0.8958
 1006MOL0     O38714  12.727   5.080   1.463  0.3313  0.1151 -0.2226
 1006MOL0     C38715  12.633   5.141   1.546  0.0487 -0.1969  0.0689
 1006MOL0     C38716  12.662   5.232   1.642 -0.5323  0.0934  0.1591
 1006MOL0     C38717  12.566   5.291   1.723  1.1045  0.7830  0.3902
 1006MOL0     C38718  12.616   5.385   1.819 -1.1143 -0.8632  0.0339
 1006MOL0     C38719  12.431   5.239   1.705 -0.1844 -0.5203 -0.8293
 1006MOL0     C38720  12.310   5.305   1.757  0.4662 -0.0644  0.1237
 1006MOL0     O38721  12.188   5.247   1.745 -0.3485 -0.0953 -0.7682
 1006MOL0     C38722  12.089   5.323   1.810 -0.0302  0.8876  0.0254
 1006MOL0     C38723  12.042   5.440   1.749  0.0741  0.3074 -0.6791
 1006MOL0     C38724  11.935   5.515   1.814 -0.0563 -1.3068 -0.2897
 1006MOL0     C38725  11.884   5.476   1.937 -0.5521  0.1539 -0.4071
 1006MOL0     O38726  11.798   5.542   2.018  0.0432 -0.1208 -0.2145
 1006MOL0     C38727  11.720   5.643   1.963  0.6431  0.5478  1.0288
 1006MOL0     C38728  11.601   5.676   2.052  0.0886 -0.7153 -0.9005
 1006MOL0     C38729  11.632   5.801   2.135 -0.2613 -0.4836  0.0591
 1006MOL0     C38730  11.756   5.784   2.222  0.1257  0.9669 -0.7234
 1006MOL0     C38731  11.731   5.704   2.351  1.5194  0.4322 -0.3897
 1006MOL0     C38732  11.855   5.678   2.440  0.0677 -0.0808 -0.2151
 1006MOL0     C38733  11.819   5.590   2.556  0.2869  0.3914  0.4019
 1006MOL0     C38734  11.862   5.651   2.691  0.5401 -0.4578 -0.4460
 1006MOL0    Cl38735  11.798   5.534   2.823 -0.4251 -0.0592 -0.0545
 1006MOL0     C38736  11.937   5.358   1.989  0.1501 -0.2927 -1.2478
 1006MOL0     C38737  12.029   5.274   1.928 -0.2028 -0.0965  0.4364
 1006MOL0     O38738  12.339   5.405   1.828  0.7970  0.1920  0.1486
 1006MOL0     C38739  12.407   5.136   1.617  0.3836 -0.2597  0.2115
 1006MOL0     C38740  12.507   5.091   1.532 -0.2981  0.5657 -0.5552
 1006MOL0     N38741  12.821   4.576   1.296 -0.4670  0.3521 -0.0606
 1006MOL0     N38742  12.744   4.476   1.324 -0.4714  0.1131 -0.0850
 1006MOL0     C38743  11.596   4.079   1.689 -0.9938  0.5522 -0.7802
 1006MOL0     C38744  11.463   4.132   1.695  0.2288 -0.2709 -0.0695
 1006MOL0     C38745  11.020   4.086   1.619 -0.0877 -0.5934  0.1239
 1006MOL0     C38746  10.987   4.222   1.606 -0.2225 -0.4204  0.2232
 1006MOL0     C38747  10.858   4.266   1.615  0.3166 -0.2145 -0.0086
 1006MOL0     C38748  10.750   4.183   1.641 -0.4178 -1.8020 -0.1197
 1006MOL0     O38749  10.632   4.245   1.654  0.2160 -0.5405  0.8438
 1006MOL0     C38750  10.523   4.171   1.704 -0.2998 -0.4737 -0.1140
 1006MOL0     C38751  10.394   4.236   1.670  0.5995  0.2481 -0.9144
 1006MOL0     C38752  10.286   4.181   1.766  0.8171 -1.7993  0.6445
 1006MOL0     C38753  10.224   4.051   1.715  0.1282 -0.3299 -0.7126
 1006MOL0     C38754  10.118   4.017   1.810  0.0438  0.8410 -0.0462
 1006MOL0     C38755  10.030   4.006   1.892  1.0513  0.4065 -0.1879
 1006MOL0     C38756  10.780   4.047   1.659 -0.9664 -0.2244 -0.6504
 1006MOL0     C38757  10.913   3.995   1.645  0.5722  1.1919 -0.0073
 1006MOL0     C38758  10.933   3.844   1.664 -0.8665  0.5606 -0.1623
 1006MOL0     H38759  11.391   4.034   1.371  3.4055  2.1155 -2.2072
 1006MOL0     H38760  11.591   3.936   1.378  0.7846  0.8343  0.0070
 1006MOL0     H38761  11.834   3.924   1.403 -0.1799  1.4966 -1.5422
 1006MOL0     H38762  11.958   3.985   1.514 -1.6361 -2.0652  2.7033
 1006MOL0     H38763  11.759   4.152   1.372  2.3503 -0.6308 -2.8192
 1006MOL0     H38764  11.831   4.220   1.523  1.6908 -1.6635  1.3587
 1006MOL0     H38765  12.007   4.115   1.294  3.9955  2.3629 -1.7407
 1006MOL0     H38766  11.936   4.271   1.290  1.2743 -3.2943 -3.3562
 1006MOL0     H38767  12.067   4.318   1.511 -0.2080 -0.9109 -0.0673
 1006MOL0     H38768  12.125   4.158   1.497 -1.5584 -0.1262  1.7586
 1006MOL0     H38769  12.146   4.383   1.283 -3.2653 -1.6829  0.7962
 1006MOL0     H38770  12.238   4.227   1.280  1.3885  2.3370 -2.1832
 1006MOL0     H38771  12.274   4.443   1.503 -1.4938 -0.2153 -0.5130
 1006MOL0     H38772  12.347   4.282   1.486 -0.7832 -0.3607  1.3601
 1006MOL0     H38773  12.371   4.518   1.296  0.2148 -0.7163  1.7547
 1006MOL0     H38774  12.439   4.370   1.255  0.2275 -1.1921  0.9348
 1006MOL0     H38775  12.486   4.526   1.514  0.3227  0.8109 -0.4314
 1006MOL0     H38776  12.563   4.364   1.483  0.7411  1.3636  2.5228
 1006MOL0     H38777  12.539   4.737   1.358  0.2464 -0.5002 -1.9467
 1006MOL0     H38778  12.748   4.906   1.267  2.3087  2.6272  0.4084
 1006MOL0     H38779  12.886   4.829   1.202  0.8123 -0.1367  0.3268
 1006MOL0     H38780  12.842   4.831   1.509  0.9606 -1.0597 -0.3834
 1006MOL0     H38781  12.981   4.775   1.423 -1.3491 -1.5393  0.5615
 1006MOL0     H38782  13.058   4.985   1.472  0.5057 -0.9776 -0.3271
 1006MOL0     H38783  12.957   5.028   1.318 -3.0937 -2.5442 -0.7708
 1006MOL0     H38784  12.863   5.069   1.620  1.5181  1.0722 -0.7456
 1006MOL0     H38785  12.909   5.186   1.515  3.5660 -0.6770  1.4664
 1006MOL0     H38786  12.762   5.270   1.660 -0.5142 -1.2041  3.4763
 1006MOL0     H38787  12.720   5.363   1.844 -0.8106 -1.5562 -1.7661
 1006MOL0     H38788  12.552   5.401   1.906 -0.5538  4.7965 -0.1831
 1006MOL0     H38789  12.636   5.486   1.782  3.2130 -0.9838  1.4682
 1006MOL0     H38790  12.083   5.479   1.657 -0.6280  0.9238 -0.7446
 1006MOL0     H38791  11.897   5.612   1.783 -1.2933 -2.3069 -2.1014
 1006MOL0     H38792  11.776   5.735   1.942 -2.6074  2.2627 -0.9031
 1006MOL0     H38793  11.678   5.590   1.877  2.1796 -0.3007  0.7531
 1006MOL0     H38794  11.518   5.703   1.986 -1.3980  0.7114  1.4528
 1006MOL0     H38795  11.562   5.592   2.110 -0.1539 -0.5339 -0.7974
 1006MOL0     H38796  11.542   5.815   2.197 -0.0917 -2.0319  0.6850
 1006MOL0     H38797  11.632   5.881   2.061  0.4614 -1.1906 -0.7182
 1006MOL0     H38798  11.783   5.886   2.252  1.1794  0.6489 -0.5624
 1006MOL0     H38799  11.833   5.734   2.163 -2.2379 -1.3523 -2.0349
 1006MOL0     H38800  11.649   5.745   2.411  2.9012  0.9170  1.2440
 1006MOL0     H38801  11.690   5.609   2.317 -1.6047  1.4713  0.1652
 1006MOL0     H38802  11.880   5.782   2.462 -2.1840  0.6231 -0.6918
 1006MOL0     H38803  11.938   5.633   2.386 -0.3171 -0.9478 -0.0965
 1006MOL0     H38804  11.873   5.495   2.544  0.0001 -0.1194  2.7074
 1006MOL0     H38805  11.711   5.571   2.560  0.3589 -0.3550 -0.6405
 1006MOL0     H38806  11.818   5.748   2.717 -1.9343 -1.5882 -0.1931
 1006MOL0     H38807  11.971   5.660   2.684  0.3472  0.7911 -3.2913
 1006MOL0     H38808  11.903   5.333   2.089  1.1323  0.6393 -0.6589
 1006MOL0     H38809  12.067   5.189   1.983 -1.6578  0.2119  1.9839
 1006MOL0     H38810  12.310   5.094   1.591  0.2852 -0.9118  1.5418
 1006MOL0     H38811  12.478   5.027   1.450 -2.3826  2.6927 -1.6012
 1006MOL0     H38812  11.665   4.086   1.772 -4.4233  1.4723  2.3098
 1006MOL0     H38813  11.429   4.176   1.788 -3.3991 -2.4574 -0.2083
 1006MOL0     H38814  11.056   4.303   1.583 -0.8816  0.1247  0.1337
 1006MOL0     H38815  10.842   4.373   1.616 -1.4161 -0.4220 -0.7862
 1006MOL0     H38816  10.527   4.068   1.668  1.8691 -0.4040 -0.2272
 1006MOL0     H38817  10.526   4.160   1.813 -3.1271  0.1030  0.0916
 1006MOL0     H38818  10.373   4.219   1.564  2.0969 -3.4609 -0.7646
 1006MOL0     H38819  10.395   4.346   1.675 -0.8930  0.4181 -3.2362
 1006MOL0     H38820  10.318   4.162   1.869  1.9236  1.3828  0.9857
 1006MOL0     H38821  10.209   4.258   1.778  1.6092 -0.7243 -0.9270
 1006MOL0     H38822  10.305   3.978   1.709 -1.9116 -2.5828 -2.6696
 1006MOL0     H38823  10.173   4.071   1.621 -1.9056 -2.5522 -0.1751
 1006MOL0     H38824   9.946   4.003   1.959  1.3855  1.6044  0.3174
 1006MOL0     H38825  10.698   3.979   1.679 -1.2214  0.6338  1.4158
 1006MOL0     H38826  10.992   3.811   1.579  0.9478 -1.0858  1.6226
 1006MOL0     H38827  10.987   3.816   1.755 -0.8983 -0.1231 -0.3497
 1006MOL0     H38828  10.838   3.789   1.657 -0.5283  0.1869 -2.4703
 1007MOL0     O38829   2.346   5.436   5.409  0.0882  0.0324 -0.5293
 1007MOL0     C38830   2.235   5.374   5.400  0.2664  0.0230 -0.2805
 1007MOL0     O38831   2.118   5.421   5.443 -0.3497 -0.1849 -0.4622
 1007MOL0     C38832   2.112   5.543   5.506  0.3130  0.5381  0.3878
 1007MOL0     C38833   2.132   5.561   5.643  0.3578 -0.7955  0.8158
 1007MOL0     C38834   2.143   5.696   5.685 -0.8875 -0.1300 -0.0906
 1007MOL0     C38835   2.114   5.804   5.595 -0.9413  0.2053 -0.2330
 1007MOL0     O38836   2.130   5.930   5.638  0.8563 -0.2272  0.3119
 1007MOL0     C38837   2.006   6.002   5.645  0.1866  0.1354  0.0617
 1007MOL0     C38838   1.925   5.982   5.774  0.5803 -1.1238  0.0015
 1007MOL0     C38839   1.810   6.083   5.771  0.0863 -0.3899  0.1442
 1007MOL0     C38840   1.729   6.073   5.898 -0.0833 -0.5725  0.8512
 1007MOL0     C38841   1.665   6.211   5.921  0.1538  0.7298  0.8424
 1007MOL0     C38842   1.551   6.199   6.023 -0.1697 -0.0475 -0.2863
 1007MOL0     C38843   1.430   6.296   6.010 -0.3165  0.1637  0.9506
 1007MOL0     C38844   1.323   6.255   6.120 -0.5518  0.4951 -0.7414
 1007MOL0     N38845   1.194   6.316   6.083  0.5044 -0.3453 -0.3128
 1007MOL0     C38846   1.098   6.263   5.999  0.3003  0.4120 -0.9600
 1007MOL0     C38847   1.001   6.359   5.983 -0.4560  0.1759 -1.0017
 1007MOL0     C38848   0.879   6.358   5.904 -0.1214 -0.0168  1.6296
 1007MOL0     C38849   0.910   6.358   5.754 -0.4164  0.5500  0.7203
 1007MOL0     C38850   0.823   6.448   5.672 -0.8031 -0.2955 -0.1545
 1007MOL0     C38851   0.863   6.442   5.522 -0.3561  0.3892  0.4930
 1007MOL0     O38852   0.873   6.572   5.466 -0.0869  0.3264  0.0613
 1007MOL0     C38853   0.768   6.658   5.485 -0.0711 -0.5747  1.1716
 1007MOL0     C38854   0.811   6.787   5.511 -0.2865 -0.2800 -0.2955
 1007MOL0     C38855   0.729   6.898   5.546  0.0547 -0.2307  0.9720
 1007MOL0     C38856   0.783   7.035   5.573 -0.2464  0.2001 -0.6675
 1007MOL0     C38857   0.588   6.864   5.561  0.5994 -0.0088  0.9542
 1007MOL0     C38858   0.476   6.961   5.596 -0.6048  0.4817  0.0360
 1007MOL0     O38859   0.383   6.917   5.680  0.3002 -0.3093 -0.1119
 1007MOL0     C38860   0.279   7.002   5.712 -0.0795 -0.1337 -0.9679
 1007MOL0     C38861   0.248   7.015   5.849 -0.5078  0.1451 -0.5233
 1007MOL0     C38862   0.135   7.083   5.879  0.7335  0.0830  0.2005
 1007MOL0     C38863   0.050   7.148   5.783 -0.4962 -1.1589 -0.1172
 1007MOL0     O38864  -0.071   7.210   5.809  0.5159 -0.4900  0.9617
 1007MOL0     C38865  -0.175   7.120   5.851 -0.8178 -0.4720  0.4408
 1007MOL0     C38866  -0.305   7.193   5.889  0.1778 -0.3199  0.7045
 1007MOL0     C38867  -0.349   7.265   5.758 -0.3777  0.3755 -1.1551
 1007MOL0     C38868  -0.490   7.311   5.766  0.2269 -0.1963 -0.4711
 1007MOL0     C38869  -0.538   7.367   5.636  0.6519  0.3426  0.0084
 1007MOL0     C38870  -0.691   7.370   5.635  0.2670 -0.3280 -0.7945
 1007MOL0     C38871  -0.757   7.454   5.529  0.1735 -0.3274 -0.2036
 1007MOL0     C38872  -0.776   7.375   5.395  0.4120 -0.2054  1.4523
 1007MOL0    Cl38873  -0.832   7.475   5.255  0.4634  0.0450 -0.5771
 1007MOL0     C38874   0.091   7.138   5.649 -0.0727 -0.1678  0.1603
 1007MOL0     C38875   0.197   7.065   5.613 -0.3095  0.4330 -0.1508
 1007MOL0     O38876   0.484   7.077   5.551 -0.4274 -0.2380 -0.2757
 1007MOL0     C38877   0.545   6.731   5.522 -0.8793  0.2667  0.7306
 1007MOL0     C38878   0.631   6.626   5.490 -0.2873 -1.0888 -0.2340
 1007MOL0     N38879   1.050   6.470   6.049  0.3813  0.3968  0.8653
 1007MOL0     N38880   1.170   6.448   6.114  0.0708 -0.6492 -0.0369
 1007MOL0     C38881   2.088   5.777   5.465  0.0156 -0.0838 -0.5479
 1007MOL0     C38882   2.078   5.646   5.421  0.7351  0.8226  0.2521
 1007MOL0     C38883   2.228   5.243   5.328  0.0182 -0.3422  0.3982
 1007MOL0     C38884   2.303   5.138   5.376 -0.0832 -0.7308 -0.0094
 1007MOL0     C38885   2.298   5.022   5.303 -0.7739  0.0211 -0.9173
 1007MOL0     C38886   2.215   4.991   5.202 -0.2868  0.0745  0.3483
 1007MOL0     O38887   2.218   4.872   5.133  0.0625 -0.0343 -0.1937
 1007MOL0     C38888   2.273   4.753   5.182  0.1289  0.1458  0.1479
 1007MOL0     C38889   2.180   4.634   5.167 -0.0241  0.2742  0.3516
 1007MOL0     C38890   2.128   4.603   5.024 -0.3760 -0.1281  0.6645
 1007MOL0     C38891   2.029   4.490   5.006 -0.7859  0.3387  0.3428
 1007MOL0     C38892   1.895   4.511   5.058  0.7363 -0.0896 -0.2108
 1007MOL0     C38893   1.777   4.527   5.099 -0.0672  0.4625  0.7894
 1007MOL0     C38894   2.140   5.099   5.153  0.0856 -0.5360 -0.2241
 1007MOL0     C38895   2.149   5.224   5.216  0.4384  0.3921  0.7816
 1007MOL0     C38896   2.058   5.321   5.149  1.0474 -0.0942 -0.3499
 1007MOL0     H38897   2.149   5.469   5.698  3.8219 -0.7862 -0.0467
 1007MOL0     H38898   2.175   5.710   5.788 -2.5382  3.9784  0.0254
 1007MOL0     H38899   1.940   5.972   5.563  1.6343 -2.4735 -0.2508
 1007MOL0     H38900   2.030   6.109   5.634  1.0076 -0.0486  0.0271
 1007MOL0     H38901   1.888   5.879   5.770 -0.7114 -0.6531 -1.0140
 1007MOL0     H38902   1.990   5.998   5.860  0.5891  1.1179 -0.3771
 1007MOL0     H38903   1.851   6.184   5.773 -2.2606  0.6408  1.9556
 1007MOL0     H38904   1.751   6.057   5.682  0.5409  2.0993 -0.9580
 1007MOL0     H38905   1.654   5.996   5.881  2.1998 -2.6851 -0.3795
 1007MOL0     H38906   1.793   6.045   5.983  0.9532  0.7424  0.5304
 1007MOL0     H38907   1.625   6.253   5.828 -1.6513 -0.6358  0.9498
 1007MOL0     H38908   1.731   6.281   5.973  0.7046 -0.6711  2.1171
 1007MOL0     H38909   1.513   6.097   6.021  1.4699 -0.7017  0.5844
 1007MOL0     H38910   1.591   6.218   6.123 -4.8850  1.8677  1.5483
 1007MOL0     H38911   1.379   6.278   5.914 -1.6544  1.1988  1.4311
 1007MOL0     H38912   1.471   6.397   6.009  2.7092 -0.9840  0.2754
 1007MOL0     H38913   1.309   6.147   6.124  0.8258  0.2405 -2.0338
 1007MOL0     H38914   1.346   6.298   6.218 -0.6275  1.4797 -1.1390
 1007MOL0     H38915   1.099   6.159   5.966 -2.2155 -0.1661  0.5037
 1007MOL0     H38916   0.812   6.440   5.930 -1.0608 -0.8242  1.8246
 1007MOL0     H38917   0.815   6.269   5.899 -0.3566  0.2143 -0.1635
 1007MOL0     H38918   1.013   6.391   5.741 -1.4900  3.9254 -0.5329
 1007MOL0     H38919   0.900   6.260   5.706 -0.9728  1.4863 -1.1921
 1007MOL0     H38920   0.718   6.416   5.677 -0.6942 -0.4926  1.1000
 1007MOL0     H38921   0.842   6.547   5.715  0.0731 -1.7322  3.0740
 1007MOL0     H38922   0.952   6.384   5.501 -0.6990 -1.4365  3.4802
 1007MOL0     H38923   0.776   6.398   5.473  0.4011 -0.7867  0.1693
 1007MOL0     H38924   0.919   6.795   5.501 -0.0605  0.7965  2.3755
 1007MOL0     H38925   0.749   7.104   5.496  0.4495  0.8504 -0.3972
 1007MOL0     H38926   0.892   7.035   5.577 -0.0855 -3.8344 -0.4504
 1007MOL0     H38927   0.746   7.075   5.668  0.5018 -0.3000 -0.1570
 1007MOL0     H38928   0.306   6.973   5.931 -3.7310 -0.7929  1.4440
 1007MOL0     H38929   0.113   7.081   5.986  3.3403 -0.4559  0.7940
 1007MOL0     H38930  -0.195   7.043   5.776 -1.8589 -1.5363  1.7772
 1007MOL0     H38931  -0.145   7.057   5.935  1.1381  1.3650  1.2116
 1007MOL0     H38932  -0.380   7.123   5.927  0.7117 -0.6636  1.1467
 1007MOL0     H38933  -0.275   7.269   5.962  3.6236 -1.1249  0.3234
 1007MOL0     H38934  -0.343   7.200   5.671 -2.8073 -0.4649 -0.7859
 1007MOL0     H38935  -0.284   7.347   5.727  0.1905 -1.0726 -4.0934
 1007MOL0     H38936  -0.494   7.380   5.851  2.1165 -1.9523  1.1362
 1007MOL0     H38937  -0.553   7.228   5.798  1.3583 -1.5488 -1.6529
 1007MOL0     H38938  -0.501   7.469   5.623 -2.3696  1.3223 -2.2852
 1007MOL0     H38939  -0.520   7.294   5.556  0.8595  1.0860 -0.6317
 1007MOL0     H38940  -0.726   7.414   5.729 -0.7233 -1.5827 -0.5434
 1007MOL0     H38941  -0.726   7.267   5.629  0.0849 -0.2244 -1.6118
 1007MOL0     H38942  -0.694   7.541   5.508 -2.3120  0.8132 -3.9401
 1007MOL0     H38943  -0.858   7.485   5.555 -0.1440 -1.3888 -0.1303
 1007MOL0     H38944  -0.856   7.302   5.413  1.6876 -1.3275  2.8385
 1007MOL0     H38945  -0.681   7.324   5.374  0.3486  0.5764 -1.0773
 1007MOL0     H38946   0.024   7.186   5.579 -2.9055  2.2793  4.1330
 1007MOL0     H38947   0.228   7.042   5.511  1.3252 -0.1993  0.4519
 1007MOL0     H38948   0.439   6.712   5.518 -0.8844  0.1703  1.2948
 1007MOL0     H38949   0.593   6.528   5.464  0.1897 -1.4502  0.4049
 1007MOL0     H38950   2.073   5.855   5.390  2.5441  2.0538  0.9852
 1007MOL0     H38951   2.045   5.637   5.318 -1.4922  1.3280  0.8663
 1007MOL0     H38952   2.370   5.141   5.461 -1.8396  1.9116  1.3895
 1007MOL0     H38953   2.356   4.946   5.355  0.3583 -0.1703 -2.3930
 1007MOL0     H38954   2.360   4.733   5.118 -1.5000  0.6605 -2.3712
 1007MOL0     H38955   2.310   4.741   5.284 -2.0063 -2.2124  0.7388
 1007MOL0     H38956   2.093   4.656   5.229 -0.9686 -2.3607  0.0828
 1007MOL0     H38957   2.214   4.544   5.218 -1.4736  2.2664  5.4594
 1007MOL0     H38958   2.082   4.692   4.981  3.3304  1.3905 -0.5305
 1007MOL0     H38959   2.219   4.585   4.967  0.6536 -1.7852  2.7028
 1007MOL0     H38960   2.064   4.396   5.050  1.1804 -0.1958 -2.1020
 1007MOL0     H38961   2.012   4.474   4.899  1.8366 -2.3612  0.1769
 1007MOL0     H38962   1.673   4.519   5.121 -0.3736 -0.0968 -0.7129
 1007MOL0     H38963   2.081   5.077   5.065  2.6534 -1.8947 -1.7442
 1007MOL0     H38964   2.093   5.332   5.046  0.0780  0.5667 -0.6221
 1007MOL0     H38965   1.958   5.276   5.151  1.5960 -1.5982 -2.7157
 1007MOL0     H38966   2.058   5.417   5.201  0.0653  0.5706 -1.5259
 1008MOL0     O38967   5.219  11.147   8.897  0.0444  0.1959 -0.0048
 1008MOL0     C38968   5.166  11.231   8.966  0.0418 -0.2688  0.4683
 1008MOL0     O38969   5.045  11.226   9.029 -0.0124  0.0101 -0.1731
 1008MOL0     C38970   4.956  11.127   8.999  0.6057 -0.3940  0.3856
 1008MOL0     C38971   4.821  11.170   8.988  0.2621  0.3606 -0.5667
 1008MOL0     C38972   4.716  11.082   8.964  0.2405  0.6690  0.5247
 1008MOL0     C38973   4.744  10.940   8.951  0.0088 -0.3519 -0.0284
 1008MOL0     O38974   4.633  10.860   8.935  0.6244  0.0461 -0.2547
 1008MOL0     C38975   4.630  10.723   8.989  0.6383 -0.1049  0.3690
 1008MOL0     C38976   4.520  10.639   8.932  0.0800  0.6954  0.6368
 1008MOL0     C38977   4.530  10.627   8.779 -0.3444  0.9994 -0.5851
 1008MOL0     C38978   4.412  10.538   8.723 -0.2495 -0.3503 -1.1741
 1008MOL0     C38979   4.407  10.541   8.563 -0.1264 -0.2603  0.1928
 1008MOL0     C38980   4.393  10.681   8.498 -0.0594 -0.0836 -0.8304
 1008MOL0     C38981   4.381  10.648   8.342 -0.7613 -0.3833 -0.6077
 1008MOL0     C38982   4.366  10.774   8.266 -0.1752  0.6715  0.0965
 1008MOL0     N38983   4.359  10.755   8.120  0.2275 -0.3185 -0.1604
 1008MOL0     C38984   4.291  10.660   8.054 -0.2994 -0.5049 -0.0168
 1008MOL0     C38985   4.307  10.693   7.926  0.1366  0.2545  0.0781
 1008MOL0     C38986   4.247  10.618   7.810 -0.1934 -0.0051  0.4517
 1008MOL0     C38987   4.352  10.596   7.709 -0.5077  0.6603  0.1898
 1008MOL0     C38988   4.445  10.476   7.739  0.1837  0.3119  0.0532
 1008MOL0     C38989   4.559  10.476   7.634 -0.6887  0.1422  0.5621
 1008MOL0     O38990   4.645  10.364   7.657 -0.0744  0.6608 -0.0477
 1008MOL0     C38991   4.770  10.358   7.597  0.0019  0.2454  0.8869
 1008MOL0     C38992   4.861  10.269   7.653 -0.1667  0.4645 -0.2905
 1008MOL0     C38993   4.988  10.245   7.597  1.0597 -0.8447  0.8900
 1008MOL0     C38994   5.066  10.134   7.663 -0.0516  0.2644  1.0529
 1008MOL0     C38995   5.023  10.311   7.475  0.2764 -0.6852  0.1826
 1008MOL0     C38996   5.150  10.310   7.408 -0.4263 -0.6855  0.5691
 1008MOL0     O38997   5.175  10.384   7.300 -0.3467  0.1221 -0.6663
 1008MOL0     C38998   5.303  10.420   7.263  0.7910 -0.1919 -0.0401
 1008MOL0     C38999   5.400  10.471   7.352  0.0087  0.5047 -0.5674
 1008MOL0     C39000   5.527  10.507   7.298  0.0833  0.6079 -0.9152
 1008MOL0     C39001   5.544  10.522   7.161  0.2129 -0.4808  0.3082
 1008MOL0     O39002   5.660  10.559   7.097 -0.1979 -0.2346  1.1629
 1008MOL0     C39003   5.777  10.574   7.172  0.5624  0.6162 -0.5885
 1008MOL0     C39004   5.894  10.603   7.074  0.0870  0.5422  0.4793
 1008MOL0     C39005   5.871  10.725   6.986 -0.1038 -0.6371  0.4215
 1008MOL0     C39006   5.986  10.769   6.894 -0.2988 -0.6708  0.4209
 1008MOL0     C39007   6.128  10.774   6.968  0.4257 -0.1099 -0.1988
 1008MOL0     C39008   6.232  10.845   6.885 -0.0187  0.1919  0.5320
 1008MOL0     C39009   6.321  10.941   6.961  0.8556  0.2255 -0.6152
 1008MOL0     C39010   6.446  10.979   6.892  0.3297  0.3904  0.7867
 1008MOL0    Cl39011   6.562  10.838   6.872  0.7413 -0.4684  0.5547
 1008MOL0     C39012   5.438  10.494   7.081 -0.4735 -0.3781  0.4818
 1008MOL0     C39013   5.322  10.430   7.123 -0.0758 -1.3104  0.4215
 1008MOL0     O39014   5.231  10.232   7.449  0.4656  0.0753  0.0034
 1008MOL0     C39015   4.935  10.400   7.419  1.0345 -0.0741  0.5209
 1008MOL0     C39016   4.805  10.424   7.480  0.0271 -0.6168 -0.4319
 1008MOL0     N39017   4.391  10.806   7.911  0.3533 -0.0601 -0.1217
 1008MOL0     N39018   4.409  10.847   8.033  0.1870 -0.3089 -0.3696
 1008MOL0     C39019   4.878  10.897   8.964  0.6123 -0.5666 -0.5039
 1008MOL0     C39020   4.977  10.989   8.989 -0.0975 -0.0766 -1.0354
 1008MOL0     C39021   5.230  11.369   8.980 -1.0814  0.8282  0.5236
 1008MOL0     C39022   5.146  11.483   8.974 -0.2577 -0.2087  0.3237
 1008MOL0     C39023   5.198  11.615   8.992 -0.2340  0.5936 -0.8124
 1008MOL0     C39024   5.338  11.635   9.017  1.3740  0.5674  0.5336
 1008MOL0     O39025   5.375  11.763   9.046  0.1805 -0.3614 -0.0357
 1008MOL0     C39026   5.515  11.797   9.048  0.0953 -0.3879  0.1381
 1008MOL0     C39027   5.520  11.952   9.045 -1.0118  0.4927 -0.5000
 1008MOL0     C39028   5.455  12.012   8.916 -0.4120  0.2751  0.3311
 1008MOL0     C39029   5.317  12.067   8.947 -0.3829 -0.1539 -0.2777
 1008MOL0     C39030   5.244  12.127   8.833 -0.0763  0.5771 -0.5755
 1008MOL0     C39031   5.199  12.165   8.724  0.2977 -0.6725 -1.1604
 1008MOL0     C39032   5.414  11.524   9.020  0.3160  0.1318 -0.8253
 1008MOL0     C39033   5.365  11.392   8.986 -0.4022  0.3358 -0.8533
 1008MOL0     C39034   5.469  11.271   9.008 -0.3308  0.1933  0.7742
 1008MOL0     H39035   4.802  11.275   9.009  0.1097 -0.3213  3.5183
 1008MOL0     H39036   4.613  11.110   8.944  0.4966  0.4865 -1.1696
 1008MOL0     H39037   4.604  10.727   9.095 -0.4945  0.0677  0.1024
 1008MOL0     H39038   4.729  10.683   8.967  0.9795  2.0249 -2.4909
 1008MOL0     H39039   4.524  10.539   8.976 -0.9984 -0.2507 -1.2703
 1008MOL0     H39040   4.425  10.678   8.969 -0.3224 -0.1269  0.4849
 1008MOL0     H39041   4.517  10.727   8.738  1.0572  1.9387  1.1288
 1008MOL0     H39042   4.627  10.582   8.757 -1.6572 -2.5357  0.1742
 1008MOL0     H39043   4.419  10.436   8.763  1.5633  0.3897  0.5591
 1008MOL0     H39044   4.319  10.581   8.761 -1.1851 -0.6399 -3.0049
 1008MOL0     H39045   4.315  10.488   8.538 -0.7933  1.6216 -1.6017
 1008MOL0     H39046   4.486  10.476   8.525 -2.9269 -3.7831 -0.1249
 1008MOL0     H39047   4.310  10.744   8.531  1.8010  2.9354 -1.5140
 1008MOL0     H39048   4.490  10.726   8.520  0.8830 -3.2819  2.5691
 1008MOL0     H39049   4.295  10.586   8.317 -1.2360 -1.8569  3.7950
 1008MOL0     H39050   4.473  10.591   8.323 -0.8938 -1.4248  1.5512
 1008MOL0     H39051   4.273  10.818   8.303 -1.6947 -0.8830 -1.6258
 1008MOL0     H39052   4.448  10.844   8.288  0.3202 -0.9438  4.3026
 1008MOL0     H39053   4.234  10.576   8.092  1.3173 -0.3076  3.2248
 1008MOL0     H39054   4.157  10.666   7.772 -1.4507 -0.7842  2.2665
 1008MOL0     H39055   4.218  10.516   7.840  1.9681 -1.3143 -1.5428
 1008MOL0     H39056   4.301  10.570   7.616  0.4576  0.4701 -0.2972
 1008MOL0     H39057   4.410  10.687   7.688  0.7505 -0.1060  0.2343
 1008MOL0     H39058   4.488  10.492   7.838  2.1506 -0.2342 -0.6571
 1008MOL0     H39059   4.382  10.388   7.722 -0.5366  1.2160 -2.4378
 1008MOL0     H39060   4.528  10.465   7.529 -0.7600 -2.6614  0.8195
 1008MOL0     H39061   4.606  10.573   7.617 -0.5056 -0.3917 -2.5250
 1008MOL0     H39062   4.830  10.224   7.747  1.4090 -0.5598 -0.2168
 1008MOL0     H39063   4.999  10.088   7.735  0.8760 -1.4318  0.8700
 1008MOL0     H39064   5.164  10.160   7.706  0.6241 -2.7977  1.5626
 1008MOL0     H39065   5.091  10.066   7.582 -3.1069 -2.5229  2.2408
 1008MOL0     H39066   5.382  10.483   7.459  0.6894  1.8078 -0.5772
 1008MOL0     H39067   5.608  10.529   7.366 -0.3417 -1.3487  0.3179
 1008MOL0     H39068   5.766  10.652   7.247 -0.2032 -0.0722  0.0318
 1008MOL0     H39069   5.798  10.492   7.242  1.7145  2.7341  1.7257
 1008MOL0     H39070   5.987  10.613   7.131 -1.0790  0.1711  2.5565
 1008MOL0     H39071   5.909  10.526   6.998  1.9807  0.1276  1.2051
 1008MOL0     H39072   5.856  10.818   7.042  1.7963  1.4631 -2.2906
 1008MOL0     H39073   5.783  10.704   6.925  0.6598 -1.0462 -0.5699
 1008MOL0     H39074   5.951  10.854   6.835  0.1725  0.2921  1.4728
 1008MOL0     H39075   6.003  10.691   6.819 -2.6759  0.2827 -1.2145
 1008MOL0     H39076   6.120  10.828   7.064 -1.9395  1.6612 -1.2863
 1008MOL0     H39077   6.170  10.675   6.983  1.7862  0.7259  2.0971
 1008MOL0     H39078   6.191  10.906   6.804  0.9192  0.8820  0.5618
 1008MOL0     H39079   6.290  10.768   6.832  1.8573  0.7643  1.6639
 1008MOL0     H39080   6.349  10.904   7.060 -2.4692  2.2738  1.2824
 1008MOL0     H39081   6.261  11.030   6.984 -0.7557 -0.6313 -1.3596
 1008MOL0     H39082   6.502  11.056   6.946 -1.0373 -0.7372  4.1058
 1008MOL0     H39083   6.431  11.008   6.788  0.6141 -0.8556  0.3781
 1008MOL0     H39084   5.448  10.517   6.976  0.2136 -1.0187  0.4028
 1008MOL0     H39085   5.237  10.389   7.069 -2.0796 -1.3762  3.3553
 1008MOL0     H39086   4.952  10.459   7.329  0.4371  2.1671  1.8060
 1008MOL0     H39087   4.728  10.478   7.424 -1.8410 -1.6475  1.0312
 1008MOL0     H39088   4.902  10.792   8.959  1.1036 -0.5801  1.4284
 1008MOL0     H39089   5.076  10.944   8.999 -0.8330 -1.8050 -1.0686
 1008MOL0     H39090   5.039  11.485   8.955 -0.2573 -1.0134  0.2212
 1008MOL0     H39091   5.138  11.705   8.981  0.4105  1.1041 -0.2832
 1008MOL0     H39092   5.565  11.771   9.142  1.4608 -0.4229 -0.5696
 1008MOL0     H39093   5.570  11.760   8.962  0.4690  0.2757  0.0864
 1008MOL0     H39094   5.620  11.994   9.053 -0.3347 -1.3085  1.6177
 1008MOL0     H39095   5.470  11.991   9.135  0.4191 -1.0011  1.0243
 1008MOL0     H39096   5.521  12.092   8.879  0.5000 -0.1841  0.9257
 1008MOL0     H39097   5.424  11.933   8.847 -0.2644  0.3181  0.2156
 1008MOL0     H39098   5.334  12.152   9.013 -1.9546  1.5125 -1.8769
 1008MOL0     H39099   5.264  12.003   9.018  1.7093  1.7209  3.2928
 1008MOL0     H39100   5.162  12.186   8.626 -1.7138  0.0191 -0.3003
 1008MOL0     H39101   5.518  11.533   9.051 -0.3973 -1.7475  2.6751
 1008MOL0     H39102   5.549  11.300   9.077  1.1467 -0.4349 -0.5971
 1008MOL0     H39103   5.422  11.177   9.037 -1.0882  0.1485 -0.5389
 1008MOL0     H39104   5.520  11.252   8.913 -2.0288  0.8585 -0.3195
 1009MOL0     O39105   1.185   1.299   3.680 -0.0512  0.7945  0.3855
 1009MOL0     C39106   1.285   1.278   3.749 -0.1272  0.1753 -0.2828
 1009MOL0     O39107   1.411   1.313   3.718  0.5315 -0.0638  0.1617
 1009MOL0     C39108   1.440   1.385   3.601  0.0476  0.1145 -0.1633
 1009MOL0     C39109   1.536   1.322   3.523 -0.1121  0.5390 -1.1927
 1009MOL0     C39110   1.587   1.381   3.406  0.9649 -0.4621  0.1057
 1009MOL0     C39111   1.530   1.502   3.364  0.0484  0.1083 -0.3864
 1009MOL0     O39112   1.577   1.550   3.243 -0.5450  0.6655 -0.5111
 1009MOL0     C39113   1.529   1.655   3.166  0.2232 -0.0330 -0.1160
 1009MOL0     C39114   1.421   1.598   3.069 -0.4512  0.3414 -0.0845
 1009MOL0     C39115   1.382   1.697   2.962 -0.3143  0.3852 -0.2191
 1009MOL0     C39116   1.493   1.710   2.850 -0.0060  0.5669  0.1841
 1009MOL0     C39117   1.458   1.821   2.746  0.5255  0.3936 -0.3272
 1009MOL0     C39118   1.481   1.959   2.790  0.2368 -0.4628  0.4142
 1009MOL0     C39119   1.460   2.085   2.696  0.4333  0.8246  0.1670
 1009MOL0     C39120   1.550   2.071   2.574  0.5276  0.1685 -0.6541
 1009MOL0     N39121   1.578   2.204   2.513 -0.1652  0.9097  0.0499
 1009MOL0     C39122   1.663   2.235   2.408 -0.5802  0.2871 -0.1651
 1009MOL0     C39123   1.626   2.365   2.382 -0.5377  0.6528  0.3032
 1009MOL0     C39124   1.694   2.444   2.278 -0.4773 -0.2267  0.1366
 1009MOL0     C39125   1.841   2.476   2.310  0.4804  0.6895 -0.2814
 1009MOL0     C39126   1.941   2.384   2.248  0.4001  0.7933 -0.2539
 1009MOL0     C39127   2.080   2.396   2.296  0.9325 -0.8031  0.2673
 1009MOL0     O39128   2.147   2.298   2.226  0.0255  0.0189 -0.3221
 1009MOL0     C39129   2.290   2.301   2.253  0.3244  0.2025  0.7709
 1009MOL0     C39130   2.360   2.420   2.293  0.4030 -0.2141  0.3129
 1009MOL0     C39131   2.494   2.408   2.323 -0.3983  0.5912  1.1111
 1009MOL0     C39132   2.548   2.521   2.407  0.0109  0.7033  0.1010
 1009MOL0     C39133   2.572   2.301   2.270 -0.4599  1.0172 -1.2132
 1009MOL0     C39134   2.719   2.288   2.299  0.4350  0.1130  0.4049
 1009MOL0     O39135   2.799   2.400   2.299 -0.7356 -0.3857 -0.1178
 1009MOL0     C39136   2.930   2.392   2.349  1.0525 -0.7437 -0.7369
 1009MOL0     C39137   2.953   2.433   2.483  0.7720  0.1420 -0.4727
 1009MOL0     C39138   3.078   2.447   2.537  0.4986 -0.4526 -0.2026
 1009MOL0     C39139   3.188   2.422   2.453  0.9443  1.0408  0.2478
 1009MOL0     O39140   3.322   2.435   2.494  0.2137  0.0438  0.1410
 1009MOL0     C39141   3.362   2.327   2.580 -0.4368  0.2248  0.6555
 1009MOL0     C39142   3.519   2.330   2.583 -0.2008 -0.2847  0.1968
 1009MOL0     C39143   3.579   2.193   2.626 -0.8041 -0.9390 -0.2154
 1009MOL0     C39144   3.734   2.195   2.653  0.4295 -0.7268 -0.3145
 1009MOL0     C39145   3.807   2.207   2.523 -0.9883  0.5872 -0.2292
 1009MOL0     C39146   3.969   2.217   2.546  1.0178 -0.0215  0.0475
 1009MOL0     C39147   4.058   2.188   2.430  0.7373  0.3719  0.3507
 1009MOL0     C39148   4.183   2.118   2.482  1.1551 -0.3256 -0.0302
 1009MOL0    Cl39149   4.285   2.185   2.616 -0.1439  0.3185 -0.4034
 1009MOL0     C39150   3.162   2.377   2.321  0.0487  0.1093  0.4619
 1009MOL0     C39151   3.033   2.358   2.269 -0.1295 -0.9241  1.1010
 1009MOL0     O39152   2.754   2.174   2.334  0.0010 -0.1137  0.8180
 1009MOL0     C39153   2.502   2.185   2.223 -0.0952 -0.3262 -0.4684
 1009MOL0     C39154   2.362   2.189   2.213  0.1529 -0.0774 -0.1849
 1009MOL0     N39155   1.520   2.405   2.465  1.0439  0.6103 -0.5797
 1009MOL0     N39156   1.491   2.310   2.542 -0.0642 -0.2710 -0.3242
 1009MOL0     C39157   1.429   1.565   3.441 -0.4301  0.1509 -0.7151
 1009MOL0     C39158   1.390   1.510   3.569  1.1082 -0.6634  0.0760
 1009MOL0     C39159   1.278   1.194   3.871 -0.1534  1.1769  0.4072
 1009MOL0     C39160   1.320   1.062   3.858  0.5573  0.0513 -0.3607
 1009MOL0     C39161   1.338   0.990   3.978 -0.1634  0.1088 -0.6154
 1009MOL0     C39162   1.302   1.039   4.106 -0.2038  0.0185 -0.4613
 1009MOL0     O39163   1.315   0.966   4.222  0.4591  0.2176 -1.2489
 1009MOL0     C39164   1.346   0.831   4.223  0.4686  0.2759 -0.7255
 1009MOL0     C39165   1.498   0.826   4.222 -0.1740  0.0442  0.2672
 1009MOL0     C39166   1.545   0.798   4.366 -0.6763 -0.3764  0.9205
 1009MOL0     C39167   1.534   0.918   4.459 -0.5797  0.7607 -0.5656
 1009MOL0     C39168   1.603   0.894   4.591  0.1922  0.1270  0.9930
 1009MOL0     C39169   1.655   0.878   4.700 -0.4624  0.7253 -0.5248
 1009MOL0     C39170   1.260   1.171   4.106 -0.0282 -0.3516 -1.4456
 1009MOL0     C39171   1.243   1.248   3.995 -0.4704  0.8999 -0.1994
 1009MOL0     C39172   1.176   1.376   4.006 -0.0454  0.4402 -0.7836
 1009MOL0     H39173   1.569   1.223   3.555  0.7338  1.0799 -0.3329
 1009MOL0     H39174   1.652   1.335   3.332  1.3279  0.5424 -0.2200
 1009MOL0     H39175   1.611   1.697   3.108 -0.8454  0.8842 -1.0062
 1009MOL0     H39176   1.478   1.730   3.228  1.5651  1.5632 -0.8753
 1009MOL0     H39177   1.469   1.520   3.008 -0.7720  2.5215 -3.3791
 1009MOL0     H39178   1.333   1.562   3.122 -0.6832 -1.0494 -1.3208
 1009MOL0     H39179   1.281   1.680   2.923 -0.8139  2.9869 -0.2514
 1009MOL0     H39180   1.369   1.789   3.020 -1.2658  0.1113  0.0216
 1009MOL0     H39181   1.591   1.711   2.900  0.3062  0.4724 -0.4247
 1009MOL0     H39182   1.505   1.613   2.801  0.3751 -0.7565  2.7025
 1009MOL0     H39183   1.355   1.796   2.718  0.4424  2.3876 -2.0501
 1009MOL0     H39184   1.513   1.806   2.652 -1.5582 -1.1603 -1.3917
 1009MOL0     H39185   1.412   1.980   2.872 -0.2843  0.4172 -0.2362
 1009MOL0     H39186   1.583   1.962   2.831  0.0506 -3.7340  1.3766
 1009MOL0     H39187   1.496   2.171   2.753 -2.5462  2.5458 -0.3504
 1009MOL0     H39188   1.353   2.087   2.673  0.4185 -5.3580 -2.1798
 1009MOL0     H39189   1.642   2.015   2.594  0.0073  0.2347  2.2807
 1009MOL0     H39190   1.497   2.010   2.500 -3.6273  0.9586  1.3870
 1009MOL0     H39191   1.740   2.172   2.364 -1.4290 -0.9320  0.0121
 1009MOL0     H39192   1.637   2.537   2.279 -0.8406 -0.3827  3.2651
 1009MOL0     H39193   1.690   2.395   2.180  0.4320  0.6558 -0.3654
 1009MOL0     H39194   1.862   2.577   2.274  1.7268  0.2845 -0.7682
 1009MOL0     H39195   1.863   2.477   2.417  5.1979 -1.4615 -0.9645
 1009MOL0     H39196   1.909   2.283   2.277  1.3243  0.3732 -0.6464
 1009MOL0     H39197   1.929   2.387   2.139 -0.4719  1.2510 -0.1503
 1009MOL0     H39198   2.118   2.498   2.280  2.0134 -1.2947 -0.4265
 1009MOL0     H39199   2.075   2.380   2.404 -0.8824 -1.8460  0.0620
 1009MOL0     H39200   2.308   2.511   2.323 -0.8549 -0.2796 -1.5131
 1009MOL0     H39201   2.633   2.489   2.468 -1.6740 -0.6148  1.8616
 1009MOL0     H39202   2.476   2.548   2.485  0.0200 -0.2910  0.4678
 1009MOL0     H39203   2.559   2.611   2.345 -2.6406 -0.9522 -3.1127
 1009MOL0     H39204   2.865   2.458   2.542  0.2273  0.9332 -1.5760
 1009MOL0     H39205   3.086   2.480   2.640 -3.3820 -1.1843  0.4950
 1009MOL0     H39206   3.324   2.335   2.682 -1.1514 -3.7163  0.8634
 1009MOL0     H39207   3.322   2.243   2.522 -0.6054 -0.1988  1.3708
 1009MOL0     H39208   3.555   2.347   2.481  4.5964 -5.4009  0.5238
 1009MOL0     H39209   3.557   2.403   2.655  0.8826  0.2798 -0.9090
 1009MOL0     H39210   3.549   2.113   2.557  0.4740 -0.6201 -1.2024
 1009MOL0     H39211   3.538   2.172   2.725  0.9132 -2.2815  0.2617
 1009MOL0     H39212   3.758   2.104   2.708 -1.7024 -0.7184  0.7311
 1009MOL0     H39213   3.752   2.284   2.714  2.6944 -1.6115  0.4256
 1009MOL0     H39214   3.805   2.117   2.462  1.2610 -0.5514  1.2311
 1009MOL0     H39215   3.773   2.287   2.457 -2.0904 -1.5842 -2.4206
 1009MOL0     H39216   3.995   2.162   2.637  0.2564 -1.8425 -0.8073
 1009MOL0     H39217   3.999   2.322   2.561  2.1721 -0.1537 -1.1239
 1009MOL0     H39218   4.099   2.278   2.383  5.2415 -0.0395  2.8952
 1009MOL0     H39219   4.003   2.131   2.355  0.8524 -1.1764  1.3889
 1009MOL0     H39220   4.253   2.094   2.401  0.4111 -0.9317 -0.5009
 1009MOL0     H39221   4.159   2.014   2.506  1.6741 -0.8001 -1.4533
 1009MOL0     H39222   3.245   2.349   2.258  0.1250  0.7287  0.2822
 1009MOL0     H39223   3.013   2.342   2.164  0.3205 -0.1943  0.9025
 1009MOL0     H39224   2.556   2.101   2.181  2.3338  0.9335 -0.0549
 1009MOL0     H39225   2.306   2.103   2.177  1.6554 -0.8868 -0.6623
 1009MOL0     H39226   1.400   1.665   3.409  0.3461  1.1736  1.6169
 1009MOL0     H39227   1.320   1.552   3.640 -0.6549 -1.1031 -1.3366
 1009MOL0     H39228   1.330   1.017   3.760 -2.2897  0.5471 -0.9638
 1009MOL0     H39229   1.386   0.893   3.963  1.8208  0.8376  0.6197
 1009MOL0     H39230   1.311   0.772   4.308  0.9347 -1.6884 -1.8080
 1009MOL0     H39231   1.308   0.778   4.135 -0.0220 -0.8152  0.1191
 1009MOL0     H39232   1.551   0.912   4.181 -0.0592  0.2787  0.8964
 1009MOL0     H39233   1.514   0.744   4.152 -0.8653 -0.0558  0.2165
 1009MOL0     H39234   1.510   0.704   4.409  0.3574 -0.0948  2.4677
 1009MOL0     H39235   1.653   0.784   4.351 -0.0612  1.9903  2.4524
 1009MOL0     H39236   1.427   0.937   4.472 -1.6964 -2.7869 -3.0161
 1009MOL0     H39237   1.592   1.003   4.423 -1.3135  2.8078  2.6284
 1009MOL0     H39238   1.695   0.870   4.799 -0.1227 -0.6588 -0.7471
 1009MOL0     H39239   1.244   1.210   4.206  2.2171 -1.9736 -0.3767
 1009MOL0     H39240   1.255   1.451   3.993  0.8166 -0.7454 -2.8453
 1009MOL0     H39241   1.102   1.395   3.928 -1.7923 -0.1912  0.6626
 1009MOL0     H39242   1.127   1.394   4.102 -1.7304  0.3665 -1.5877
 1010MOL0     O39243   2.545   1.366   5.986 -0.7206  0.2263  0.3382
 1010MOL0     C39244   2.592   1.453   5.918 -1.2613 -0.7740 -0.4837
 1010MOL0     O39245   2.516   1.562   5.864  0.4577  0.9739  1.1794
 1010MOL0     C39246   2.384   1.568   5.911 -0.1515 -0.7278  0.5031
 1010MOL0     C39247   2.365   1.644   6.030 -0.1992 -0.5209  0.4130
 1010MOL0     C39248   2.247   1.658   6.100  0.2776 -0.5316 -0.3264
 1010MOL0     C39249   2.136   1.592   6.047 -1.0412 -1.1011 -0.1034
 1010MOL0     O39250   2.007   1.608   6.098 -0.1074  0.1808  0.3360
 1010MOL0     C39251   1.985   1.649   6.236  0.2757  0.2854 -0.1173
 1010MOL0     C39252   1.836   1.643   6.265  0.7199 -1.0590 -0.0165
 1010MOL0     C39253   1.800   1.663   6.411  0.9339 -0.0714 -0.1581
 1010MOL0     C39254   1.881   1.580   6.522  0.0117 -0.3484  0.5297
 1010MOL0     C39255   1.802   1.575   6.652 -0.1131  0.2498  0.6189
 1010MOL0     C39256   1.883   1.536   6.776 -0.0063  0.0646  0.0329
 1010MOL0     C39257   1.805   1.541   6.901  0.3764  0.2219 -0.6743
 1010MOL0     C39258   1.891   1.502   7.026 -0.9327 -0.7213  0.4391
 1010MOL0     N39259   1.799   1.493   7.140 -0.1630 -0.0143 -0.7048
 1010MOL0     C39260   1.782   1.389   7.221  0.6841  0.4907  0.6666
 1010MOL0     C39261   1.691   1.422   7.319 -0.0556 -0.5748 -0.5857
 1010MOL0     C39262   1.642   1.340   7.435  0.9397  0.1297 -0.1006
 1010MOL0     C39263   1.493   1.371   7.456 -0.5768 -0.5231  0.3995
 1010MOL0     C39264   1.437   1.304   7.578 -0.6949 -0.6644 -0.3596
 1010MOL0     C39265   1.464   1.370   7.720 -0.7067  0.0458 -0.1592
 1010MOL0     O39266   1.405   1.493   7.730  0.1079 -0.3375  0.1898
 1010MOL0     C39267   1.379   1.538   7.859  0.2729 -0.5801  0.5587
 1010MOL0     C39268   1.454   1.502   7.973  0.8777  0.5734  0.8093
 1010MOL0     C39269   1.418   1.530   8.106 -0.2627 -0.2410 -0.6778
 1010MOL0     C39270   1.502   1.482   8.222 -0.4102  0.3141 -0.9099
 1010MOL0     C39271   1.314   1.625   8.122  0.4459 -0.8300  0.6622
 1010MOL0     C39272   1.283   1.686   8.255  0.2291  0.2895  0.5055
 1010MOL0     O39273   1.271   1.816   8.251  0.1735 -0.5414  0.0372
 1010MOL0     C39274   1.212   1.881   8.359 -0.2910  0.0918  0.6297
 1010MOL0     C39275   1.278   1.991   8.417 -0.6660 -0.5404  0.1599
 1010MOL0     C39276   1.219   2.070   8.521  0.0321 -0.2393  0.2103
 1010MOL0     C39277   1.091   2.051   8.559 -0.6347  0.3838 -0.3214
 1010MOL0     O39278   1.041   2.141   8.651 -0.1946  0.1163  0.1742
 1010MOL0     C39279   0.961   2.235   8.594 -0.2425 -0.6371  0.5403
 1010MOL0     C39280   0.837   2.259   8.687  0.0487 -0.5178 -0.3777
 1010MOL0     C39281   0.747   2.143   8.701  0.3728  1.1463 -0.0141
 1010MOL0     C39282   0.622   2.175   8.791 -0.5853 -0.0964  0.1403
 1010MOL0     C39283   0.516   2.062   8.759  0.0417 -1.0744  0.4383
 1010MOL0     C39284   0.402   2.088   8.853  0.9005 -0.3747  0.1418
 1010MOL0     C39285   0.288   1.982   8.837 -1.7587 -0.2877  0.1654
 1010MOL0     C39286   0.184   2.004   8.945 -0.4979 -1.2582 -0.8237
 1010MOL0    Cl39287   0.126   2.177   8.931  0.2318  0.1290 -0.6457
 1010MOL0     C39288   1.012   1.952   8.489  0.2845  0.3246  0.2043
 1010MOL0     C39289   1.070   1.867   8.393 -0.7555 -0.0027  0.4614
 1010MOL0     O39290   1.268   1.621   8.359 -1.1678  0.4340 -0.0252
 1010MOL0     C39291   1.252   1.673   8.006  1.1237  0.7934 -0.5469
 1010MOL0     C39292   1.280   1.631   7.881  0.5390  0.8160  0.3015
 1010MOL0     N39293   1.650   1.554   7.292 -0.2912 -0.0955  0.0793
 1010MOL0     N39294   1.714   1.595   7.187 -0.3354 -0.0079  0.1770
 1010MOL0     C39295   2.149   1.530   5.918  0.1955 -0.2154  0.1744
 1010MOL0     C39296   2.276   1.512   5.852  0.2312 -0.7708  0.5581
 1010MOL0     C39297   2.743   1.455   5.900  0.0892 -0.3716  0.0621
 1010MOL0     C39298   2.815   1.371   5.984 -0.6919 -1.0057 -0.1969
 1010MOL0     C39299   2.951   1.363   5.986 -0.6496  0.4974  0.2088
 1010MOL0     C39300   3.025   1.417   5.886 -0.0452 -0.4492  0.0588
 1010MOL0     O39301   3.164   1.409   5.869 -0.2069 -0.4679 -0.0856
 1010MOL0     C39302   3.245   1.332   5.965 -0.8807  0.2802 -0.0337
 1010MOL0     C39303   3.296   1.412   6.085  0.1028  0.0580  0.1433
 1010MOL0     C39304   3.359   1.340   6.208  0.5020  0.4584 -0.1389
 1010MOL0     C39305   3.338   1.429   6.340 -0.9565  0.2187  0.1937
 1010MOL0     C39306   3.373   1.339   6.440  0.6795  0.5176 -0.0886
 1010MOL0     C39307   3.426   1.279   6.529 -0.4562  0.6484  0.4809
 1010MOL0     C39308   2.957   1.486   5.793  1.3006  0.1717  0.2266
 1010MOL0     C39309   2.818   1.519   5.799  0.4465 -0.1254  0.9925
 1010MOL0     C39310   2.767   1.630   5.710  0.2672 -0.1195  0.1656
 1010MOL0     H39311   2.450   1.688   6.081  0.6852 -0.8694 -0.7172
 1010MOL0     H39312   2.249   1.709   6.196  1.5792 -1.2729  0.0746
 1010MOL0     H39313   2.020   1.750   6.258 -0.6234  0.4425  0.6667
 1010MOL0     H39314   2.050   1.575   6.285  0.9296 -0.6600 -2.2979
 1010MOL0     H39315   1.788   1.724   6.209 -0.7572 -2.7271 -1.2878
 1010MOL0     H39316   1.788   1.549   6.234 -1.0212 -0.4194  0.5705
 1010MOL0     H39317   1.785   1.769   6.432 -3.2114 -0.2750 -1.1813
 1010MOL0     H39318   1.702   1.614   6.417  0.7451  0.4321  1.3271
 1010MOL0     H39319   1.917   1.483   6.486  1.0499  0.8611 -1.9479
 1010MOL0     H39320   1.975   1.632   6.538  0.4803 -1.5469  1.8879
 1010MOL0     H39321   1.732   1.492   6.639 -0.9983  1.3138 -2.0015
 1010MOL0     H39322   1.749   1.670   6.661 -2.8671 -1.1747  0.2883
 1010MOL0     H39323   1.927   1.437   6.759 -1.5264 -0.1329 -3.8882
 1010MOL0     H39324   1.964   1.610   6.778 -0.7196  0.8637 -0.3181
 1010MOL0     H39325   1.721   1.472   6.901  1.9953 -1.8724 -1.4868
 1010MOL0     H39326   1.772   1.645   6.907  1.4589  0.5305  0.2809
 1010MOL0     H39327   1.950   1.410   7.024  0.0401 -0.1419  1.4756
 1010MOL0     H39328   1.962   1.582   7.048 -2.7606  0.7517  1.1445
 1010MOL0     H39329   1.838   1.297   7.205  1.9606  1.4219 -0.4145
 1010MOL0     H39330   1.695   1.372   7.525 -0.0742  1.9231 -0.1106
 1010MOL0     H39331   1.660   1.234   7.410 -0.6183  0.4772 -3.2549
 1010MOL0     H39332   1.478   1.475   7.484 -2.2972 -1.3441  2.8918
 1010MOL0     H39333   1.437   1.345   7.365 -0.2574  0.1541  0.0016
 1010MOL0     H39334   1.329   1.304   7.559 -0.6394 -0.1277 -0.6825
 1010MOL0     H39335   1.470   1.199   7.585  0.2415 -0.2956  1.7285
 1010MOL0     H39336   1.426   1.302   7.796 -1.4508  0.3747 -0.2277
 1010MOL0     H39337   1.570   1.366   7.747 -0.6078 -1.2884 -0.6793
 1010MOL0     H39338   1.534   1.429   7.964  1.0069 -0.3134  6.1001
 1010MOL0     H39339   1.451   1.405   8.281 -0.0954  0.9208  0.1830
 1010MOL0     H39340   1.544   1.559   8.287 -2.2548 -0.0106  0.7601
 1010MOL0     H39341   1.591   1.438   8.176  0.2625  1.1758 -0.4748
 1010MOL0     H39342   1.382   1.999   8.388 -1.3161 -1.2902 -2.6656
 1010MOL0     H39343   1.265   2.156   8.567 -0.6460  1.0822 -1.4783
 1010MOL0     H39344   1.025   2.323   8.585 -0.5896 -0.1967  2.1020
 1010MOL0     H39345   0.918   2.212   8.496 -3.3023  2.8662  0.8453
 1010MOL0     H39346   0.868   2.284   8.789 -1.1579  0.1247 -0.1431
 1010MOL0     H39347   0.773   2.338   8.647 -4.5334 -2.7953  1.6422
 1010MOL0     H39348   0.794   2.051   8.737 -0.5135  0.8718  0.4790
 1010MOL0     H39349   0.713   2.101   8.606 -2.5317 -2.7469  2.4258
 1010MOL0     H39350   0.579   2.273   8.768  1.0243  0.4542 -0.6281
 1010MOL0     H39351   0.658   2.174   8.894  2.2053 -2.1253 -0.7293
 1010MOL0     H39352   0.482   2.075   8.656 -0.3996  0.1581  0.7205
 1010MOL0     H39353   0.562   1.964   8.774 -1.4223 -1.8978 -0.3095
 1010MOL0     H39354   0.357   2.187   8.847  0.2272 -0.6836  0.0663
 1010MOL0     H39355   0.425   2.075   8.959 -0.0650 -2.6869  0.1417
 1010MOL0     H39356   0.323   1.879   8.843  1.0685  0.5923  0.5801
 1010MOL0     H39357   0.242   2.004   8.741  0.3928 -0.1989 -0.8994
 1010MOL0     H39358   0.227   2.000   9.045  1.8338  1.5517 -1.5959
 1010MOL0     H39359   0.095   1.941   8.932  0.5986 -3.6145  1.8656
 1010MOL0     H39360   0.907   1.932   8.510  0.5726 -1.0659  0.4215
 1010MOL0     H39361   1.004   1.805   8.333  0.2073 -0.3358 -0.2983
 1010MOL0     H39362   1.160   1.730   8.013 -0.3755 -1.5921  0.7010
 1010MOL0     H39363   1.220   1.663   7.797  1.5790 -1.9514 -1.6463
 1010MOL0     H39364   2.057   1.507   5.865  0.2860 -0.4122  0.1010
 1010MOL0     H39365   2.260   1.460   5.758 -2.2181 -0.3711  0.6744
 1010MOL0     H39366   2.764   1.315   6.062  1.9161 -1.7359  1.1102
 1010MOL0     H39367   2.996   1.294   6.058  0.0802  0.5420 -0.2021
 1010MOL0     H39368   3.180   1.255   6.006 -2.1358  0.9381 -0.7272
 1010MOL0     H39369   3.323   1.282   5.907 -1.3055  0.7923 -1.0863
 1010MOL0     H39370   3.216   1.475   6.123  1.5386  3.6596 -2.2648
 1010MOL0     H39371   3.367   1.484   6.043 -0.5357 -0.2776 -1.6052
 1010MOL0     H39372   3.322   1.239   6.228 -2.4583  1.5548  0.4317
 1010MOL0     H39373   3.463   1.316   6.183 -0.7020 -5.0093 -1.1181
 1010MOL0     H39374   3.234   1.460   6.349 -0.9536  0.7521 -1.2930
 1010MOL0     H39375   3.403   1.517   6.339 -3.0390  1.8173 -0.4589
 1010MOL0     H39376   3.465   1.225   6.613 -0.6681 -3.4017 -1.7805
 1010MOL0     H39377   3.022   1.522   5.713 -0.1233 -0.9069 -1.4740
 1010MOL0     H39378   2.859   1.673   5.670  1.8663 -2.2450  1.3497
 1010MOL0     H39379   2.715   1.570   5.634 -0.2228 -0.9548  1.1473
 1010MOL0     H39380   2.703   1.703   5.760  3.6506  2.6440  0.8707
 1011MOL0     O39381   2.871   6.581   5.083  0.1713  0.1961  0.3775
 1011MOL0     C39382   2.800   6.484   5.119 -0.0546  0.0996  1.0981
 1011MOL0     O39383   2.846   6.382   5.191  0.3421 -0.3029  0.1033
 1011MOL0     C39384   2.970   6.372   5.245  0.1067  0.0076  0.5589
 1011MOL0     C39385   3.060   6.274   5.192 -0.4750 -0.1173 -0.1115
 1011MOL0     C39386   3.181   6.258   5.269  0.2396  0.7574  0.2050
 1011MOL0     C39387   3.222   6.342   5.378  0.1975  0.5326  0.5451
 1011MOL0     O39388   3.345   6.325   5.443 -1.1578 -0.0507  0.5181
 1011MOL0     C39389   3.454   6.242   5.386 -1.0226 -0.6675  0.3829
 1011MOL0     C39390   3.446   6.109   5.461 -0.3115 -0.4461 -0.1257
 1011MOL0     C39391   3.517   5.985   5.400  0.2620  0.1668  0.2091
 1011MOL0     C39392   3.477   5.854   5.477 -0.1369  0.2107 -0.7923
 1011MOL0     C39393   3.571   5.738   5.430  0.6760  0.3066 -0.0338
 1011MOL0     C39394   3.505   5.671   5.306  0.5991 -0.6788  0.1458
 1011MOL0     C39395   3.569   5.533   5.278  0.2477  0.5187 -0.4558
 1011MOL0     C39396   3.719   5.536   5.238 -0.4870 -0.3426 -0.4106
 1011MOL0     N39397   3.819   5.521   5.350 -0.0709  0.7683 -0.4051
 1011MOL0     C39398   3.941   5.587   5.357 -0.0453  0.4463  0.0531
 1011MOL0     C39399   4.003   5.530   5.470  0.1778  0.4635 -0.1123
 1011MOL0     C39400   4.134   5.576   5.525 -0.5884  0.0826 -0.5717
 1011MOL0     C39401   4.246   5.465   5.528 -0.9969  0.4767  0.5216
 1011MOL0     C39402   4.383   5.526   5.507 -0.2781 -0.4262 -0.5938
 1011MOL0     C39403   4.506   5.436   5.514  0.7111  0.9101  0.4406
 1011MOL0     O39404   4.500   5.348   5.398  0.0126 -0.8222  0.3286
 1011MOL0     C39405   4.580   5.236   5.400  0.8890  0.4476 -0.2448
 1011MOL0     C39406   4.694   5.227   5.481 -0.2032 -0.2095 -0.3175
 1011MOL0     C39407   4.784   5.122   5.472 -0.4458 -0.0364 -0.8007
 1011MOL0     C39408   4.914   5.133   5.557  1.0622  0.1329  0.2431
 1011MOL0     C39409   4.753   5.011   5.393  0.2398  0.3150 -0.2728
 1011MOL0     C39410   4.836   4.894   5.380 -0.1751  0.4341  0.1725
 1011MOL0     O39411   4.887   4.869   5.251  0.0764  0.1281 -0.7869
 1011MOL0     C39412   4.958   4.756   5.217  0.3298  0.8300  1.2905
 1011MOL0     C39413   4.962   4.631   5.287 -1.1297 -0.1367 -0.4911
 1011MOL0     C39414   5.044   4.524   5.257  0.6978  0.3847  0.8135
 1011MOL0     C39415   5.116   4.532   5.139 -0.5357  0.6763  1.1633
 1011MOL0     O39416   5.181   4.418   5.093 -0.0974  0.9586  0.1499
 1011MOL0     C39417   5.183   4.400   4.948 -0.9179 -0.3492  0.2439
 1011MOL0     C39418   5.197   4.258   4.898 -0.4539 -0.8170  0.6990
 1011MOL0     C39419   5.332   4.205   4.950  0.2707  0.6696  0.1550
 1011MOL0     C39420   5.374   4.077   4.874  0.2494  0.1946  0.8734
 1011MOL0     C39421   5.526   4.066   4.861  0.5879 -0.4014  1.5526
 1011MOL0     C39422   5.610   4.091   4.988 -0.0201  0.5605 -0.0692
 1011MOL0     C39423   5.756   4.082   4.941 -0.9339 -0.1387 -0.9214
 1011MOL0     C39424   5.848   4.114   5.058 -0.6579  0.6350 -0.7232
 1011MOL0    Cl39425   5.831   4.282   5.110  0.1184  0.0546 -0.1670
 1011MOL0     C39426   5.115   4.648   5.061  0.1700 -0.2189  0.7745
 1011MOL0     C39427   5.040   4.759   5.097  1.0900 -1.1548 -0.6219
 1011MOL0     O39428   4.849   4.820   5.474  0.3061  0.1540 -0.6539
 1011MOL0     C39429   4.637   5.014   5.314  0.3141  0.1454  0.7941
 1011MOL0     C39430   4.549   5.120   5.316  0.4569  0.1728  0.7500
 1011MOL0     N39431   3.929   5.418   5.516  0.2552 -0.5922  0.1915
 1011MOL0     N39432   3.821   5.426   5.447 -0.4598 -0.3754 -0.6889
 1011MOL0     C39433   3.136   6.444   5.416 -0.7973  0.0107 -0.2864
 1011MOL0     C39434   3.009   6.455   5.349 -0.1652  0.7754 -0.2116
 1011MOL0     C39435   2.664   6.496   5.073  0.0477 -0.4821  0.1901
 1011MOL0     C39436   2.596   6.618   5.065 -0.3710  0.9518  0.5987
 1011MOL0     C39437   2.464   6.627   5.020  0.0869  1.4504 -0.6136
 1011MOL0     C39438   2.394   6.509   5.002 -0.1958 -0.4663 -0.6111
 1011MOL0     O39439   2.262   6.505   4.980  0.4713 -0.8157  0.6227
 1011MOL0     C39440   2.207   6.409   4.889 -0.5154 -0.8013 -0.0674
 1011MOL0     C39441   2.071   6.451   4.861 -0.6952  0.2380  0.0158
 1011MOL0     C39442   1.987   6.366   4.761 -0.2427  0.6619 -0.3943
 1011MOL0     C39443   1.860   6.445   4.734 -0.0279  0.1639 -0.2043
 1011MOL0     C39444   1.878   6.518   4.610 -0.1612  0.3908  0.9045
 1011MOL0     C39445   1.878   6.590   4.507  0.7526 -0.9997 -0.2457
 1011MOL0     C39446   2.464   6.390   5.009 -0.6042  0.0201 -0.9330
 1011MOL0     C39447   2.602   6.379   5.032  0.2343 -0.3701  0.6379
 1011MOL0     C39448   2.666   6.246   5.009  0.3315 -0.0770  0.8225
 1011MOL0     H39449   3.034   6.202   5.116 -0.8233 -0.9597  0.7820
 1011MOL0     H39450   3.245   6.176   5.240 -0.7989  0.6579 -1.9467
 1011MOL0     H39451   3.551   6.290   5.399 -2.6697  2.5907  2.0479
 1011MOL0     H39452   3.427   6.221   5.282  1.5716 -3.2178  0.0980
 1011MOL0     H39453   3.495   6.128   5.557 -0.9090  1.0503 -0.0924
 1011MOL0     H39454   3.340   6.099   5.483 -0.0530 -0.6941  1.0293
 1011MOL0     H39455   3.494   5.976   5.293  0.9717 -1.3968  0.1710
 1011MOL0     H39456   3.624   6.004   5.413  1.3211 -1.8235 -3.9935
 1011MOL0     H39457   3.498   5.874   5.582 -3.1159  1.6792 -0.3620
 1011MOL0     H39458   3.373   5.835   5.449 -0.5383  4.3735 -2.9663
 1011MOL0     H39459   3.574   5.665   5.511  0.0967 -0.2027 -0.4677
 1011MOL0     H39460   3.672   5.777   5.412  0.2769  0.7111 -1.5134
 1011MOL0     H39461   3.399   5.657   5.330 -0.1748  1.2174 -1.8241
 1011MOL0     H39462   3.507   5.737   5.219 -3.7722  0.2028  0.4469
 1011MOL0     H39463   3.509   5.488   5.198 -2.2405 -0.0552  1.5828
 1011MOL0     H39464   3.575   5.477   5.372  1.1872  1.9117  0.3614
 1011MOL0     H39465   3.734   5.459   5.161  0.5083  0.4654 -1.0600
 1011MOL0     H39466   3.747   5.633   5.195  0.5810 -0.7209 -0.5990
 1011MOL0     H39467   3.974   5.669   5.296  0.0863 -1.2787 -2.3323
 1011MOL0     H39468   4.107   5.603   5.628  0.2716  0.4711 -0.4419
 1011MOL0     H39469   4.165   5.669   5.477  1.6502  2.1715  4.1934
 1011MOL0     H39470   4.254   5.419   5.627  3.5380  0.7335  0.4567
 1011MOL0     H39471   4.227   5.390   5.451 -3.0087  1.0304  0.4225
 1011MOL0     H39472   4.374   5.582   5.413  0.2396  1.0830  0.2271
 1011MOL0     H39473   4.399   5.603   5.583 -1.8596 -0.8973  0.2683
 1011MOL0     H39474   4.598   5.495   5.513  1.4262 -0.1007 -2.6304
 1011MOL0     H39475   4.500   5.387   5.612  3.3686 -0.6859 -0.1110
 1011MOL0     H39476   4.733   5.308   5.541  1.5702  0.5257 -2.3438
 1011MOL0     H39477   4.897   5.103   5.661 -0.7718 -1.4545 -0.4753
 1011MOL0     H39478   4.939   5.238   5.575  1.5679  0.9516 -4.1517
 1011MOL0     H39479   5.001   5.086   5.509  1.4848  3.2848 -2.4020
 1011MOL0     H39480   4.899   4.622   5.375  1.8214 -1.3935  1.6156
 1011MOL0     H39481   5.038   4.428   5.307 -1.7369 -0.8354 -1.6021
 1011MOL0     H39482   5.112   4.462   4.893  0.3485  0.9299  0.0060
 1011MOL0     H39483   5.274   4.441   4.904 -0.3725 -1.8990 -0.1137
 1011MOL0     H39484   5.118   4.194   4.938 -1.1723 -1.3286 -1.4188
 1011MOL0     H39485   5.200   4.271   4.790  2.6243  3.7647  1.0710
 1011MOL0     H39486   5.319   4.182   5.057 -1.8890 -2.2664 -0.6108
 1011MOL0     H39487   5.407   4.283   4.936 -2.3081  2.9903 -1.8017
 1011MOL0     H39488   5.333   4.079   4.772 -0.6828 -0.9466  1.2139
 1011MOL0     H39489   5.339   3.989   4.928  3.2699 -2.1891 -0.7440
 1011MOL0     H39490   5.549   3.965   4.825 -1.4318 -1.0799  1.9999
 1011MOL0     H39491   5.559   4.145   4.794  0.1519 -2.6460 -1.5382
 1011MOL0     H39492   5.582   4.014   5.060 -1.8072  0.5203 -0.7782
 1011MOL0     H39493   5.584   4.189   5.030 -2.3521  0.3935 -1.0104
 1011MOL0     H39494   5.778   4.160   4.867  3.7956  0.2118  0.5127
 1011MOL0     H39495   5.785   3.987   4.895  1.3179 -1.1846  2.2298
 1011MOL0     H39496   5.951   4.097   5.025 -1.2894 -0.9188 -1.9657
 1011MOL0     H39497   5.837   4.041   5.138  2.6737 -3.6914 -3.7070
 1011MOL0     H39498   5.174   4.649   4.970  1.7934  2.0161  1.7432
 1011MOL0     H39499   5.038   4.859   5.054 -2.8538 -0.2069  1.2834
 1011MOL0     H39500   4.600   4.938   5.246  2.5955 -0.5987  0.2899
 1011MOL0     H39501   4.458   5.119   5.257  1.4136 -4.6919 -1.1150
 1011MOL0     H39502   3.143   6.512   5.500 -1.7319  1.1305 -1.0848
 1011MOL0     H39503   2.956   6.548   5.367  0.2426  0.7700  1.0719
 1011MOL0     H39504   2.645   6.714   5.081 -0.4568  1.6868 -2.6795
 1011MOL0     H39505   2.403   6.717   5.024 -1.6546  0.2772  1.0816
 1011MOL0     H39506   2.258   6.413   4.792 -1.8772  1.3036 -0.7780
 1011MOL0     H39507   2.214   6.304   4.918  0.4323 -1.5829 -2.7416
 1011MOL0     H39508   2.080   6.553   4.822  1.9397 -0.2868 -0.9451
 1011MOL0     H39509   2.024   6.453   4.959  0.9510 -0.1166  0.8459
 1011MOL0     H39510   2.046   6.351   4.670  0.3025 -1.0289  0.2173
 1011MOL0     H39511   1.958   6.268   4.798 -2.0386  0.0679 -3.0790
 1011MOL0     H39512   1.841   6.526   4.805 -2.8536  0.1212 -0.7640
 1011MOL0     H39513   1.775   6.376   4.729  1.0236 -1.1111 -1.2954
 1011MOL0     H39514   1.882   6.640   4.412  0.0400  3.3036  1.7467
 1011MOL0     H39515   2.420   6.298   4.973 -0.9062 -0.1294 -0.2075
 1011MOL0     H39516   2.634   6.198   4.916 -1.0115  1.6633  0.3299
 1011MOL0     H39517   2.773   6.258   4.987  0.1412 -0.6956 -0.4757
 1011MOL0     H39518   2.638   6.178   5.090 -0.9116 -0.5958 -0.0160
 1012MOL0     O39519   2.499   0.805   7.450 -0.4344 -0.1540  0.0925
 1012MOL0     C39520   2.461   0.916   7.476 -0.2374  0.0852  0.8292
 1012MOL0     O39521   2.543   1.029   7.481 -0.5149  0.3518 -0.7455
 1012MOL0     C39522   2.681   1.003   7.483 -0.0246 -0.7169  0.1796
 1012MOL0     C39523   2.750   0.963   7.603  0.0741 -0.2643  0.3541
 1012MOL0     C39524   2.889   0.959   7.608 -0.5795 -0.3359  0.2882
 1012MOL0     C39525   2.965   1.016   7.501  0.4115 -0.4792  0.1447
 1012MOL0     O39526   3.101   0.985   7.504  0.1602  0.3525 -0.1990
 1012MOL0     C39527   3.180   1.082   7.440 -0.2396  0.2245  0.0595
 1012MOL0     C39528   3.308   1.103   7.522  0.4677 -0.3941  0.8587
 1012MOL0     C39529   3.408   1.207   7.459  0.4973  0.5621 -0.1427
 1012MOL0     C39530   3.406   1.345   7.521  0.6234  0.3193  0.4141
 1012MOL0     C39531   3.513   1.429   7.448 -0.0449 -0.6288  0.1898
 1012MOL0     C39532   3.558   1.556   7.520 -0.7693  0.6417  0.3184
 1012MOL0     C39533   3.676   1.629   7.453 -0.1512  0.3618 -0.0589
 1012MOL0     C39534   3.814   1.574   7.474 -1.0602 -0.0029 -0.2521
 1012MOL0     N39535   3.850   1.537   7.616 -0.2360 -0.0260 -0.3961
 1012MOL0     C39536   3.921   1.624   7.699  0.6482 -0.2482 -0.6263
 1012MOL0     C39537   3.956   1.539   7.802 -0.7561 -0.1759  0.6560
 1012MOL0     C39538   4.032   1.594   7.923  0.2517  0.7834 -0.7738
 1012MOL0     C39539   3.950   1.625   8.050 -0.0660  0.6164  0.2263
 1012MOL0     C39540   4.029   1.726   8.135  0.0261  0.8201  0.4977
 1012MOL0     C39541   4.018   1.868   8.060  0.4679  0.4605 -0.0461
 1012MOL0     O39542   4.091   1.966   8.132  0.3711 -0.4416  1.0373
 1012MOL0     C39543   4.022   2.028   8.233  0.7641 -0.6193 -0.5815
 1012MOL0     C39544   4.014   1.975   8.359 -1.0462  0.3431  0.4597
 1012MOL0     C39545   3.962   2.041   8.470  0.1932 -0.3027  0.2177
 1012MOL0     C39546   3.991   1.977   8.605  0.1310  0.4737  0.1866
 1012MOL0     C39547   3.874   2.153   8.447 -0.6081  0.4157 -0.0746
 1012MOL0     C39548   3.805   2.234   8.542 -0.5600  0.1859  0.7458
 1012MOL0     O39549   3.663   2.249   8.519 -0.2640 -0.1673 -0.6690
 1012MOL0     C39550   3.617   2.346   8.595 -0.2723  0.4005 -0.2560
 1012MOL0     C39551   3.576   2.337   8.729  1.3621 -0.5600  1.0075
 1012MOL0     C39552   3.540   2.453   8.803 -0.2222  0.0647 -0.1157
 1012MOL0     C39553   3.532   2.576   8.740  0.4920  0.0369  0.4778
 1012MOL0     O39554   3.497   2.698   8.798 -0.1698  0.1604  0.0147
 1012MOL0     C39555   3.513   2.706   8.941  0.7266  0.9674 -0.2077
 1012MOL0     C39556   3.661   2.705   8.990 -0.1137 -0.2565 -0.2520
 1012MOL0     C39557   3.726   2.835   8.927 -1.5665  0.4477 -0.3683
 1012MOL0     C39558   3.865   2.858   9.016  0.1164 -0.6187 -0.5643
 1012MOL0     C39559   3.973   2.748   9.000  0.6010  0.1627  0.6394
 1012MOL0     C39560   4.099   2.763   9.092  0.1201 -0.9455  0.3705
 1012MOL0     C39561   4.221   2.711   9.010  0.2914 -0.4991  0.0237
 1012MOL0     C39562   4.337   2.691   9.109 -0.0242 -0.1357 -0.4497
 1012MOL0    Cl39563   4.512   2.680   9.057 -0.2339 -0.0469 -0.0901
 1012MOL0     C39564   3.568   2.580   8.602  0.1969  0.1911 -0.5234
 1012MOL0     C39565   3.614   2.472   8.532 -0.0164  0.1981  0.2021
 1012MOL0     O39566   3.868   2.275   8.639  0.4827  0.0472  0.3517
 1012MOL0     C39567   3.870   2.205   8.309 -0.4737  0.2851  0.3477
 1012MOL0     C39568   3.942   2.140   8.209  0.3871  0.3541 -0.1575
 1012MOL0     N39569   3.896   1.413   7.785 -0.0824 -0.2491 -0.8048
 1012MOL0     N39570   3.831   1.415   7.671 -0.3394 -0.1480  0.3716
 1012MOL0     C39571   2.896   1.068   7.390 -0.4752  1.4533  0.7991
 1012MOL0     C39572   2.757   1.064   7.378  0.8250  0.1319 -0.2671
 1012MOL0     C39573   2.320   0.950   7.509  1.0963  0.1233 -0.5328
 1012MOL0     C39574   2.283   1.084   7.515 -0.9289  0.2270 -0.0639
 1012MOL0     C39575   2.145   1.125   7.525  0.0136  0.4504 -0.8036
 1012MOL0     C39576   2.042   1.025   7.542 -0.2419 -0.3187  0.6213
 1012MOL0     O39577   1.910   1.062   7.559  0.3181  0.6281  0.1419
 1012MOL0     C39578   1.899   1.120   7.687  1.3992  0.6013  0.3049
 1012MOL0     C39579   1.756   1.059   7.735 -0.0620 -0.4361  0.7089
 1012MOL0     C39580   1.710   1.109   7.881 -0.3776  0.9307  0.1929
 1012MOL0     C39581   1.583   1.031   7.911 -0.0917  0.7053  0.1322
 1012MOL0     C39582   1.531   1.082   8.033  0.0994  0.2074 -0.5949
 1012MOL0     C39583   1.498   1.114   8.143  1.1821 -0.2810 -0.1057
 1012MOL0     C39584   2.078   0.892   7.550 -0.1361  0.4595 -0.3831
 1012MOL0     C39585   2.207   0.848   7.542  0.5056  0.2943  0.3556
 1012MOL0     C39586   2.224   0.696   7.521  0.2444 -1.2202 -0.8814
 1012MOL0     H39587   2.698   0.927   7.691 -2.0868  0.3841 -0.6092
 1012MOL0     H39588   2.946   0.906   7.684  1.1262  0.3006 -0.4881
 1012MOL0     H39589   3.139   1.183   7.446 -0.6847  0.1666 -1.4284
 1012MOL0     H39590   3.199   1.060   7.334 -3.6897 -0.9924 -0.4372
 1012MOL0     H39591   3.267   1.150   7.612  0.5840 -0.0866  0.7497
 1012MOL0     H39592   3.350   1.006   7.550 -1.4304 -1.4093  0.3393
 1012MOL0     H39593   3.508   1.168   7.478  0.3630  1.3388  2.4433
 1012MOL0     H39594   3.389   1.214   7.351 -0.2339  0.6394 -0.0156
 1012MOL0     H39595   3.305   1.387   7.518  0.1373 -0.3671  3.4668
 1012MOL0     H39596   3.439   1.339   7.625  0.0565  3.1419  0.8436
 1012MOL0     H39597   3.497   1.447   7.342  1.3058  0.0868  0.0796
 1012MOL0     H39598   3.600   1.365   7.429  2.4473  2.7365 -0.7588
 1012MOL0     H39599   3.470   1.621   7.523 -1.3495 -0.0250 -1.2933
 1012MOL0     H39600   3.582   1.539   7.625  1.5421  0.6575 -0.1526
 1012MOL0     H39601   3.693   1.721   7.509  2.6311 -1.0844  1.6619
 1012MOL0     H39602   3.649   1.654   7.350 -1.6122 -0.2662  0.1418
 1012MOL0     H39603   3.825   1.479   7.421 -0.7426 -1.8159  2.8387
 1012MOL0     H39604   3.888   1.647   7.439  2.6394 -3.3218 -0.0347
 1012MOL0     H39605   3.941   1.728   7.672 -1.7417  0.6268  0.6900
 1012MOL0     H39606   4.087   1.684   7.894  0.5333  1.9780  2.8956
 1012MOL0     H39607   4.112   1.524   7.947 -2.2740 -1.8979  0.3483
 1012MOL0     H39608   3.852   1.663   8.022 -1.0094 -0.9068  1.3251
 1012MOL0     H39609   3.931   1.529   8.099 -1.8490  0.8315  0.0236
 1012MOL0     H39610   3.969   1.728   8.226  0.5999  0.9344  0.8806
 1012MOL0     H39611   4.131   1.691   8.152 -0.2191 -1.7908 -2.4384
 1012MOL0     H39612   4.059   1.871   7.959 -0.6258  0.8703 -0.4938
 1012MOL0     H39613   3.912   1.897   8.057  0.3691  1.0643  3.9374
 1012MOL0     H39614   4.068   1.883   8.377 -3.7651 -1.5829 -0.5668
 1012MOL0     H39615   4.023   1.873   8.597 -1.7997 -0.1719  0.1449
 1012MOL0     H39616   3.900   1.987   8.665  1.2893 -0.6484  2.2353
 1012MOL0     H39617   4.071   2.033   8.654 -0.0530 -0.3959  1.5088
 1012MOL0     H39618   3.577   2.242   8.780 -3.3649  0.3677  3.3631
 1012MOL0     H39619   3.514   2.438   8.908 -1.7668  1.2278 -0.2859
 1012MOL0     H39620   3.483   2.808   8.965  2.1777  0.5682  4.1179
 1012MOL0     H39621   3.457   2.627   8.991  0.1999 -0.5750 -3.0154
 1012MOL0     H39622   3.685   2.694   9.096  2.6897 -4.2646 -1.0460
 1012MOL0     H39623   3.714   2.620   8.945  0.9313  0.0782  0.3047
 1012MOL0     H39624   3.663   2.924   8.918 -2.2775 -0.2310 -2.6414
 1012MOL0     H39625   3.756   2.814   8.824 -2.7291  1.2001 -0.8831
 1012MOL0     H39626   3.836   2.854   9.121 -0.9301  0.4289 -0.7923
 1012MOL0     H39627   3.918   2.954   9.005  0.5801 -0.6949  0.8166
 1012MOL0     H39628   3.930   2.647   9.008 -1.5633  0.9820  0.0411
 1012MOL0     H39629   3.998   2.748   8.894  0.2212  0.2094  0.5496
 1012MOL0     H39630   4.085   2.707   9.185  1.8565 -1.9418  0.0734
 1012MOL0     H39631   4.117   2.864   9.129  1.0267 -1.9316  2.7853
 1012MOL0     H39632   4.240   2.789   8.935 -5.6271  0.2368 -1.2252
 1012MOL0     H39633   4.195   2.616   8.962 -1.2857 -0.4389  0.7014
 1012MOL0     H39634   4.301   2.605   9.167 -2.4887  0.5205 -0.9116
 1012MOL0     H39635   4.339   2.781   9.171 -3.7485  0.7900 -1.4487
 1012MOL0     H39636   3.576   2.676   8.553  0.8458 -0.5763 -1.9752
 1012MOL0     H39637   3.656   2.475   8.432 -1.2139  2.1825 -0.3026
 1012MOL0     H39638   3.806   2.288   8.282 -1.3664  0.1077  1.8117
 1012MOL0     H39639   3.951   2.178   8.107  2.1854  1.9174  0.5243
 1012MOL0     H39640   2.962   1.114   7.318  0.9259  2.6840  2.7810
 1012MOL0     H39641   2.701   1.117   7.302 -2.8424 -1.6138  0.9538
 1012MOL0     H39642   2.347   1.164   7.479 -1.0848 -0.3921 -1.8358
 1012MOL0     H39643   2.121   1.230   7.513 -1.1260  0.2151 -0.6499
 1012MOL0     H39644   1.975   1.094   7.761  1.8824 -2.3242 -1.0636
 1012MOL0     H39645   1.886   1.228   7.673 -0.8358  0.2724 -0.6819
 1012MOL0     H39646   1.754   0.949   7.739  0.1258 -0.4106  1.9060
 1012MOL0     H39647   1.687   1.102   7.662  3.9702  0.9362 -2.6758
 1012MOL0     H39648   1.790   1.087   7.952  1.3040  1.1167 -1.5337
 1012MOL0     H39649   1.698   1.218   7.877 -2.2321  0.7794  0.9520
 1012MOL0     H39650   1.616   0.928   7.926  4.0245  1.4194 -2.4935
 1012MOL0     H39651   1.500   1.028   7.840 -1.8273 -1.2165  2.1260
 1012MOL0     H39652   1.463   1.147   8.239 -2.5982 -0.4228 -1.2935
 1012MOL0     H39653   1.996   0.826   7.525 -0.4757  0.6704  0.1623
 1012MOL0     H39654   2.157   0.649   7.594 -0.3961  2.0296  0.8042
 1012MOL0     H39655   2.207   0.664   7.418  0.2890 -0.6570 -1.0663
 1012MOL0     H39656   2.327   0.681   7.555 -0.6131 -0.5218  2.3388
 1013MOL0     O39657   9.954   5.178   1.926 -0.8092  0.3444 -0.3078
 1013MOL0     C39658   9.959   5.193   2.049 -0.2798  0.8512 -0.5880
 1013MOL0     O39659  10.073   5.171   2.118  0.7777 -0.1603 -0.4115
 1013MOL0     C39660  10.194   5.151   2.058  0.0371  0.8463  0.0081
 1013MOL0     C39661  10.264   5.035   2.100 -0.1466  0.2091  0.3565
 1013MOL0     C39662  10.387   5.030   2.052 -0.8438  0.6665 -0.5967
 1013MOL0     C39663  10.447   5.106   1.951  0.5808  1.1939  0.4570
 1013MOL0     O39664  10.575   5.058   1.904 -0.3517 -0.2457  0.5173
 1013MOL0     C39665  10.659   5.160   1.841 -0.5460  0.1135 -0.0105
 1013MOL0     C39666  10.801   5.117   1.809 -0.1059 -0.0855 -0.0676
 1013MOL0     C39667  10.857   5.204   1.698 -0.4634 -0.6302 -0.0098
 1013MOL0     C39668  10.980   5.147   1.633  0.2767 -0.9565 -0.2198
 1013MOL0     C39669  11.005   5.234   1.501 -0.2412 -0.0987 -0.0148
 1013MOL0     C39670  11.101   5.179   1.402  0.1067  1.0249 -0.3066
 1013MOL0     C39671  11.168   5.300   1.323  0.3794 -0.1174 -0.0300
 1013MOL0     C39672  11.221   5.247   1.190  0.1128 -0.7031 -0.4907
 1013MOL0     N39673  11.274   5.359   1.106 -0.1626  0.5576  0.0293
 1013MOL0     C39674  11.216   5.482   1.082  0.4905 -1.2041  0.6136
 1013MOL0     C39675  11.313   5.545   1.007  0.8927  0.1860 -0.2793
 1013MOL0     C39676  11.308   5.696   0.983  0.7929  0.1195  0.1165
 1013MOL0     C39677  11.450   5.740   0.939  0.2227 -0.1932  0.0219
 1013MOL0     C39678  11.461   5.893   0.953  0.2782 -0.5406  0.2015
 1013MOL0     C39679  11.595   5.950   0.905  0.4100 -0.4104 -0.3036
 1013MOL0     O39680  11.597   6.093   0.925  0.0070  0.1443  0.1145
 1013MOL0     C39681  11.695   6.167   0.862  0.4568 -0.2343  0.0662
 1013MOL0     C39682  11.664   6.302   0.852 -0.5736  0.1247 -0.1283
 1013MOL0     C39683  11.751   6.384   0.781 -0.1746  0.7739 -0.4155
 1013MOL0     C39684  11.704   6.522   0.773 -0.4339 -0.2558  0.4955
 1013MOL0     C39685  11.875   6.334   0.730  0.6757 -0.1883 -0.1370
 1013MOL0     C39686  11.967   6.424   0.662 -0.2788 -0.3211  0.1342
 1013MOL0     O39687  11.930   6.496   0.553  0.3007  0.5913  0.5448
 1013MOL0     C39688  12.004   6.568   0.468 -0.5989 -0.8077  0.3504
 1013MOL0     C39689  12.144   6.538   0.441 -0.0998  0.2345 -1.0607
 1013MOL0     C39690  12.223   6.625   0.366 -0.3824  0.3619  0.1254
 1013MOL0     C39691  12.164   6.746   0.329 -0.1443 -0.1592  0.3738
 1013MOL0     O39692  12.225   6.827   0.235  0.0554  0.3562 -0.2033
 1013MOL0     C39693  12.354   6.859   0.279 -0.8119 -0.0963 -0.0308
 1013MOL0     C39694  12.364   7.010   0.284 -0.3722  0.9479  0.1948
 1013MOL0     C39695  12.506   7.057   0.287  1.1553  0.9783 -0.2018
 1013MOL0     C39696  12.531   7.201   0.317  0.3465  0.0086  1.0380
 1013MOL0     C39697  12.495   7.254   0.452  0.1104 -0.5908 -0.8532
 1013MOL0     C39698  12.496   7.410   0.459 -0.0018  0.2661 -0.2936
 1013MOL0     C39699  12.440   7.449   0.592  0.4702  0.6841 -1.3849
 1013MOL0     C39700  12.430   7.606   0.612 -0.7162  0.8940 -0.3049
 1013MOL0    Cl39701  12.591   7.698   0.597 -0.2124 -0.0985 -0.2376
 1013MOL0     C39702  12.032   6.773   0.346  1.1060  0.6744 -0.3334
 1013MOL0     C39703  11.950   6.684   0.415 -0.0125 -0.2973  0.2402
 1013MOL0     O39704  12.078   6.431   0.720  0.4253  0.4545  0.2637
 1013MOL0     C39705  11.915   6.197   0.752 -0.0869 -0.6857 -0.2216
 1013MOL0     C39706  11.819   6.119   0.820 -0.0119 -0.3699 -0.0952
 1013MOL0     N39707  11.409   5.456   0.973  0.3554  0.8956  0.1383
 1013MOL0     N39708  11.385   5.341   1.031 -1.0601 -0.4233 -0.1665
 1013MOL0     C39709  10.372   5.212   1.897  0.6390 -0.2063  0.4873
 1013MOL0     C39710  10.251   5.239   1.961  0.5169 -0.1694  0.0277
 1013MOL0     C39711   9.829   5.214   2.108  0.1557  0.4592 -0.2208
 1013MOL0     C39712   9.724   5.268   2.032 -0.3246  0.8335  0.2853
 1013MOL0     C39713   9.602   5.293   2.076  0.8508 -0.8108 -0.0689
 1013MOL0     C39714   9.572   5.271   2.208 -0.0547  0.1620 -0.1906
 1013MOL0     O39715   9.444   5.301   2.249  0.0133  0.3898 -0.0346
 1013MOL0     C39716   9.408   5.286   2.390  0.0370 -0.9200 -0.3194
 1013MOL0     C39717   9.268   5.339   2.409  0.8808 -0.0336 -0.1898
 1013MOL0     C39718   9.206   5.298   2.544  0.1415 -1.0077 -0.8078
 1013MOL0     C39719   9.058   5.328   2.548  0.9064  0.4376 -0.1119
 1013MOL0     C39720   9.007   5.463   2.507 -0.0065  0.0552 -0.0730
 1013MOL0     C39721   8.954   5.570   2.496 -0.1184  0.6310  0.7399
 1013MOL0     C39722   9.671   5.216   2.288  0.2270  0.9745  0.1374
 1013MOL0     C39723   9.799   5.191   2.242 -0.7783  0.1684 -0.4068
 1013MOL0     C39724   9.901   5.119   2.333  0.5898 -0.1417  0.5198
 1013MOL0     H39725  10.213   4.966   2.167 -0.9891  0.5380  0.0684
 1013MOL0     H39726  10.452   4.948   2.081  1.5559  1.7328 -2.5252
 1013MOL0     H39727  10.657   5.242   1.913  1.8790 -0.0634  0.3452
 1013MOL0     H39728  10.607   5.172   1.746  0.5736  1.8540 -0.4545
 1013MOL0     H39729  10.873   5.120   1.891 -1.3548 -1.5391  1.1572
 1013MOL0     H39730  10.795   5.011   1.781 -4.3002 -0.5466  1.7241
 1013MOL0     H39731  10.771   5.238   1.640  0.3507  1.3891 -0.1223
 1013MOL0     H39732  10.882   5.292   1.758 -1.7735  1.0956 -1.8509
 1013MOL0     H39733  11.065   5.160   1.701 -0.6709  0.3691  0.7614
 1013MOL0     H39734  10.972   5.044   1.597  0.1590 -0.3059 -2.1931
 1013MOL0     H39735  11.047   5.330   1.532  2.7685 -1.6522  1.1629
 1013MOL0     H39736  10.912   5.253   1.446 -0.4866  3.8763  1.4081
 1013MOL0     H39737  11.176   5.134   1.468  1.5146  2.4905 -0.8542
 1013MOL0     H39738  11.043   5.106   1.345  1.1385  1.2640 -1.7243
 1013MOL0     H39739  11.244   5.333   1.395 -0.4634 -0.4742  1.0551
 1013MOL0     H39740  11.096   5.379   1.301 -1.8062 -1.5711  1.4957
 1013MOL0     H39741  11.292   5.164   1.193  0.1533 -0.6522  0.0549
 1013MOL0     H39742  11.140   5.213   1.124 -1.4499 -0.5099  1.2605
 1013MOL0     H39743  11.123   5.523   1.120  0.1920 -0.8217 -0.4897
 1013MOL0     H39744  11.286   5.739   1.082 -1.9511 -0.5012 -0.1258
 1013MOL0     H39745  11.245   5.719   0.897  0.9528 -1.4326 -0.4619
 1013MOL0     H39746  11.534   5.696   0.995  0.5774 -0.4563 -0.6971
 1013MOL0     H39747  11.467   5.709   0.835  0.9864  0.4478 -0.0585
 1013MOL0     H39748  11.380   5.935   0.893  0.4712 -2.0513 -1.1894
 1013MOL0     H39749  11.443   5.929   1.055  2.8449  1.6266  0.0020
 1013MOL0     H39750  11.671   5.899   0.964 -0.2327  1.4913  2.3449
 1013MOL0     H39751  11.605   5.956   0.796 -1.6125  1.1343 -0.4729
 1013MOL0     H39752  11.568   6.330   0.896 -0.7111 -0.6306  0.0711
 1013MOL0     H39753  11.638   6.544   0.688 -0.2174  0.8929  0.6044
 1013MOL0     H39754  11.781   6.599   0.764 -2.0948  1.4311 -0.1614
 1013MOL0     H39755  11.650   6.548   0.864  1.8024  0.6501  1.6166
 1013MOL0     H39756  12.189   6.451   0.488  1.8031  2.2057  0.9364
 1013MOL0     H39757  12.331   6.608   0.362  0.1842  1.3361  5.0623
 1013MOL0     H39758  12.392   6.813   0.371  0.9642 -0.7993 -1.0529
 1013MOL0     H39759  12.418   6.817   0.200 -1.0407 -1.2538  0.3685
 1013MOL0     H39760  12.317   7.062   0.200 -0.0275  0.4074 -0.3392
 1013MOL0     H39761  12.316   7.045   0.376 -2.0227 -0.6145 -0.0313
 1013MOL0     H39762  12.555   7.023   0.195  1.5153  1.5452 -0.2285
 1013MOL0     H39763  12.554   6.999   0.366  0.5034  0.7999  0.0622
 1013MOL0     H39764  12.482   7.265   0.244 -0.7979 -3.3484 -1.3315
 1013MOL0     H39765  12.639   7.221   0.318  0.6217 -0.9521 -1.5324
 1013MOL0     H39766  12.394   7.222   0.479  0.5003  0.0030  1.5668
 1013MOL0     H39767  12.564   7.214   0.527  2.5182  0.6376 -2.2648
 1013MOL0     H39768  12.434   7.451   0.378  0.9929 -0.4516 -1.4685
 1013MOL0     H39769  12.595   7.451   0.434  0.7580 -2.6219 -2.7163
 1013MOL0     H39770  12.496   7.400   0.672 -3.0147  0.1724  0.9880
 1013MOL0     H39771  12.340   7.407   0.604 -1.4171  5.0166  0.1321
 1013MOL0     H39772  12.379   7.620   0.708 -2.7225 -2.2585 -0.7410
 1013MOL0     H39773  12.363   7.650   0.538 -2.2309  2.2763  1.7674
 1013MOL0     H39774  12.009   6.868   0.299  2.5398  1.9083  1.3355
 1013MOL0     H39775  11.848   6.708   0.442 -0.5016  1.3975 -2.7731
 1013MOL0     H39776  12.011   6.166   0.714 -0.8356 -0.9445 -2.0020
 1013MOL0     H39777  11.838   6.013   0.809 -1.6409 -0.4618 -2.8561
 1013MOL0     H39778  10.412   5.264   1.811 -2.5089 -0.1024 -1.0495
 1013MOL0     H39779  10.185   5.316   1.921  0.8011 -0.6275 -1.3949
 1013MOL0     H39780   9.721   5.280   1.924 -0.6525 -2.3887 -0.1557
 1013MOL0     H39781   9.514   5.337   2.031 -0.9067 -1.2899  2.6569
 1013MOL0     H39782   9.412   5.182   2.423  1.1622 -0.8162 -0.0773
 1013MOL0     H39783   9.473   5.361   2.436 -2.6444  1.8565 -0.7349
 1013MOL0     H39784   9.209   5.293   2.330  0.6226  0.0920 -0.0688
 1013MOL0     H39785   9.254   5.447   2.398  0.4229  0.1836  2.0732
 1013MOL0     H39786   9.222   5.192   2.564 -0.3928 -0.9215  0.1410
 1013MOL0     H39787   9.251   5.364   2.619  0.7933 -1.1616 -1.0515
 1013MOL0     H39788   9.037   5.305   2.653  3.5115  0.1305  0.4104
 1013MOL0     H39789   9.016   5.253   2.481  0.5811 -2.0766  2.6643
 1013MOL0     H39790   8.906   5.666   2.498  1.1490  1.3203 -0.3898
 1013MOL0     H39791   9.652   5.190   2.391 -4.6640 -0.4358 -0.8713
 1013MOL0     H39792   9.992   5.177   2.348  0.0280  0.8282  0.2528
 1013MOL0     H39793   9.842   5.098   2.423 -0.3373 -2.6379 -0.5621
 1013MOL0     H39794   9.927   5.020   2.294 -2.8511 -1.1202  0.3646
 1014MOL0     O39795   0.494   3.766   3.799 -0.0278  1.1526  0.8901
 1014MOL0     C39796   0.501   3.688   3.705 -0.2517 -0.6086  0.1329
 1014MOL0     O39797   0.616   3.650   3.642 -0.3470  0.3096 -0.2552
 1014MOL0     C39798   0.737   3.667   3.705  0.1696 -0.1573 -0.9093
 1014MOL0     C39799   0.811   3.561   3.744 -0.3297 -0.6073 -0.7889
 1014MOL0     C39800   0.942   3.586   3.795 -0.1399 -0.3672 -0.1194
 1014MOL0     C39801   0.993   3.720   3.799 -0.4220  1.1021 -0.5060
 1014MOL0     O39802   1.119   3.735   3.847 -1.0099 -0.8486  0.1124
 1014MOL0     C39803   1.169   3.866   3.866 -0.4496 -0.0440 -0.2247
 1014MOL0     C39804   1.307   3.866   3.925 -0.0015  0.4410  0.4489
 1014MOL0     C39805   1.305   3.842   4.076 -0.4584 -0.0260 -0.4586
 1014MOL0     C39806   1.444   3.834   4.129  0.0571 -0.1444 -0.2108
 1014MOL0     C39807   1.475   3.763   4.252  0.1651 -0.8933 -0.4311
 1014MOL0     C39808   1.618   3.740   4.272 -0.1344  0.2748  0.5307
 1014MOL0     C39809   1.639   3.678   4.414  0.8383  0.2840 -0.2920
 1014MOL0     C39810   1.790   3.682   4.461  0.4699 -0.6899  0.4380
 1014MOL0     N39811   1.815   3.628   4.595  0.1682 -0.3573 -0.2079
 1014MOL0     C39812   1.793   3.693   4.718 -0.6704  0.2303 -0.1127
 1014MOL0     C39813   1.863   3.620   4.806 -0.0912 -0.4021  0.6388
 1014MOL0     C39814   1.879   3.660   4.946 -0.6256 -0.3365 -0.0658
 1014MOL0     C39815   1.979   3.772   4.950 -0.0306  0.8993 -0.3100
 1014MOL0     C39816   2.124   3.724   4.912 -0.8178 -0.0354  0.3537
 1014MOL0     C39817   2.222   3.830   4.943  0.8027 -0.1878 -0.1145
 1014MOL0     O39818   2.253   3.817   5.084 -0.4584 -0.0406 -0.5372
 1014MOL0     C39819   2.386   3.836   5.115 -0.4037 -0.0869 -0.0717
 1014MOL0     C39820   2.431   3.802   5.240  0.7517  0.0699 -0.3290
 1014MOL0     C39821   2.563   3.827   5.291  0.5980 -0.5111  0.9525
 1014MOL0     C39822   2.591   3.786   5.430 -0.3819  0.4306 -0.5958
 1014MOL0     C39823   2.646   3.917   5.215  0.2704  0.6122  1.3508
 1014MOL0     C39824   2.771   3.971   5.273 -0.4241 -0.1975 -0.4527
 1014MOL0     O39825   2.852   4.024   5.181  0.6680  0.1733 -0.9349
 1014MOL0     C39826   2.960   4.105   5.213  0.5834 -0.4214  0.1350
 1014MOL0     C39827   3.084   4.048   5.224  0.0156 -0.1856 -0.1989
 1014MOL0     C39828   3.199   4.125   5.237 -0.3132 -0.0167  0.4448
 1014MOL0     C39829   3.180   4.274   5.236 -0.5970  0.5036 -0.1496
 1014MOL0     O39830   3.290   4.352   5.253  0.0134 -0.8064 -0.0755
 1014MOL0     C39831   3.405   4.333   5.168 -0.0645 -0.3693 -0.5222
 1014MOL0     C39832   3.518   4.275   5.252  0.3176  0.1961 -0.1358
 1014MOL0     C39833   3.661   4.279   5.177  0.1040 -0.5361 -0.6115
 1014MOL0     C39834   3.778   4.293   5.282  0.1308 -0.1494 -0.2888
 1014MOL0     C39835   3.805   4.181   5.382  0.6438 -0.3301 -0.2559
 1014MOL0     C39836   3.823   4.033   5.326 -0.6924  0.0706  0.4470
 1014MOL0     C39837   3.928   4.035   5.212  0.2096 -0.7910 -0.8557
 1014MOL0     C39838   4.068   4.088   5.259 -0.2988 -0.3360 -0.1426
 1014MOL0    Cl39839   4.139   3.980   5.378  0.0322  0.4035 -0.3214
 1014MOL0     C39840   3.051   4.334   5.231  0.2247 -0.1454  0.2364
 1014MOL0     C39841   2.943   4.246   5.215 -0.7750  0.7551  1.2807
 1014MOL0     O39842   2.781   4.001   5.393 -0.1115  0.0912  0.5218
 1014MOL0     C39843   2.599   3.963   5.086  0.5502  0.5445 -0.4970
 1014MOL0     C39844   2.474   3.920   5.046 -0.1888 -0.5996 -0.4830
 1014MOL0     N39845   1.919   3.520   4.746 -0.6453 -0.1403  0.3001
 1014MOL0     N39846   1.894   3.524   4.623 -0.0565 -0.9195 -0.0001
 1014MOL0     C39847   0.920   3.822   3.742 -0.3324 -0.0170 -0.7354
 1014MOL0     C39848   0.796   3.798   3.701 -0.1534 -0.4686  0.5316
 1014MOL0     C39849   0.372   3.636   3.646  0.4926 -0.0324  0.3783
 1014MOL0     C39850   0.258   3.700   3.678  1.0010 -0.6014 -0.4776
 1014MOL0     C39851   0.135   3.650   3.630 -0.5154 -0.8082 -0.3671
 1014MOL0     C39852   0.126   3.542   3.553 -0.3177 -0.3750 -0.6828
 1014MOL0     O39853   0.001   3.511   3.507 -0.4347  0.2287  0.3130
 1014MOL0     C39854  -0.085   3.461   3.615 -0.0220  0.1999 -0.2684
 1014MOL0     C39855  -0.207   3.374   3.568  0.7919  0.0591  0.5320
 1014MOL0     C39856  -0.297   3.324   3.683 -0.6078 -0.1865  0.2888
 1014MOL0     C39857  -0.408   3.232   3.636  0.5187  0.1430  0.2723
 1014MOL0     C39858  -0.505   3.311   3.552  0.6633 -0.2030 -0.7421
 1014MOL0     C39859  -0.576   3.359   3.468  0.1630  0.4553  0.2519
 1014MOL0     C39860   0.243   3.480   3.521 -0.3194  0.1663  0.6044
 1014MOL0     C39861   0.371   3.523   3.561 -0.0057 -0.4738 -0.1323
 1014MOL0     C39862   0.479   3.428   3.512 -1.1299  0.4981 -0.4248
 1014MOL0     H39863   0.766   3.463   3.756 -1.6389  0.2599  2.0895
 1014MOL0     H39864   1.009   3.504   3.820  0.0977 -0.3690 -0.7390
 1014MOL0     H39865   1.107   3.924   3.935  1.1333  1.7854 -0.2715
 1014MOL0     H39866   1.172   3.925   3.774 -3.0328  4.2045  2.0808
 1014MOL0     H39867   1.352   3.773   3.890 -0.0649 -0.3960  2.4425
 1014MOL0     H39868   1.366   3.952   3.891  0.3543  0.5651  1.3365
 1014MOL0     H39869   1.251   3.924   4.123  0.0729  0.0964 -0.0633
 1014MOL0     H39870   1.250   3.751   4.101  0.3045 -0.4811 -0.4356
 1014MOL0     H39871   1.512   3.784   4.061  1.0128 -1.1244  1.3965
 1014MOL0     H39872   1.470   3.939   4.148 -2.0576  0.2525  0.7611
 1014MOL0     H39873   1.422   3.667   4.254  2.3300 -2.2108 -2.0217
 1014MOL0     H39874   1.443   3.832   4.330 -0.0484 -1.6151  0.1263
 1014MOL0     H39875   1.652   3.669   4.196 -1.9401  0.5949 -0.6171
 1014MOL0     H39876   1.667   3.838   4.267 -3.8691  2.6695  4.2281
 1014MOL0     H39877   1.613   3.572   4.416  1.9020 -0.0597 -2.3993
 1014MOL0     H39878   1.569   3.725   4.484  0.4207 -0.1868 -0.3853
 1014MOL0     H39879   1.849   3.625   4.388  0.0134 -0.9912  0.3019
 1014MOL0     H39880   1.829   3.785   4.463 -2.4995  0.6245 -1.7790
 1014MOL0     H39881   1.726   3.776   4.739 -3.7306 -2.2228  0.5580
 1014MOL0     H39882   1.910   3.567   4.995 -0.6395 -0.4760 -0.3193
 1014MOL0     H39883   1.781   3.688   4.985 -1.3259 -2.1541 -0.3996
 1014MOL0     H39884   1.949   3.854   4.883 -0.9910  0.0983 -0.8824
 1014MOL0     H39885   1.973   3.821   5.048  0.8793  1.5716 -0.5711
 1014MOL0     H39886   2.157   3.628   4.954 -0.8130 -1.3842 -2.4668
 1014MOL0     H39887   2.129   3.700   4.805 -0.8802  1.1284  0.0829
 1014MOL0     H39888   2.310   3.803   4.882  0.2358 -4.3524  0.5900
 1014MOL0     H39889   2.173   3.926   4.923 -1.6375 -1.6941 -1.9171
 1014MOL0     H39890   2.356   3.748   5.298  1.0486 -1.4308 -1.2844
 1014MOL0     H39891   2.692   3.755   5.459 -0.5356 -0.5817 -1.1001
 1014MOL0     H39892   2.538   3.694   5.455  3.3266 -1.2569  1.9685
 1014MOL0     H39893   2.561   3.869   5.494 -0.8429 -1.1128  1.2713
 1014MOL0     H39894   3.094   3.940   5.211 -0.3138  0.0679 -3.5996
 1014MOL0     H39895   3.291   4.068   5.231 -1.0159 -1.4102  2.1861
 1014MOL0     H39896   3.373   4.262   5.091 -6.1796 -0.3384  1.4659
 1014MOL0     H39897   3.437   4.426   5.119 -0.2218 -0.6318 -1.1384
 1014MOL0     H39898   3.528   4.335   5.343 -1.0657  0.8543 -0.3987
 1014MOL0     H39899   3.496   4.174   5.287 -1.1284  0.3585 -0.5230
 1014MOL0     H39900   3.656   4.361   5.105 -2.5475 -0.8009 -0.8376
 1014MOL0     H39901   3.668   4.182   5.126 -1.0592 -2.3051  2.3342
 1014MOL0     H39902   3.758   4.385   5.337  0.9227  0.7305 -1.4373
 1014MOL0     H39903   3.870   4.313   5.226 -0.2985  0.3294 -0.8332
 1014MOL0     H39904   3.891   4.206   5.444  0.7392  1.6525 -1.0953
 1014MOL0     H39905   3.716   4.180   5.445  0.6187 -3.2780 -0.2109
 1014MOL0     H39906   3.732   3.997   5.277  0.5829 -1.4800 -0.9057
 1014MOL0     H39907   3.862   3.964   5.401  2.9138  0.1784 -1.1229
 1014MOL0     H39908   3.887   4.091   5.127 -0.8860  0.7089  0.5852
 1014MOL0     H39909   3.947   3.932   5.182  2.7749 -0.8522  0.6577
 1014MOL0     H39910   4.061   4.191   5.294  2.2193  0.9431 -2.9974
 1014MOL0     H39911   4.131   4.093   5.170  0.0123  3.5372  0.1313
 1014MOL0     H39912   3.021   4.439   5.232 -1.7088 -0.6445 -0.4199
 1014MOL0     H39913   2.840   4.280   5.212 -0.4730  1.6222 -0.1941
 1014MOL0     H39914   2.647   4.035   5.020  1.6100 -0.0254 -0.3608
 1014MOL0     H39915   2.432   3.981   4.967 -0.1255  3.0595  2.0927
 1014MOL0     H39916   0.965   3.917   3.718  1.2037  0.1002  2.1810
 1014MOL0     H39917   0.746   3.874   3.642 -1.1182 -1.5830 -0.1352
 1014MOL0     H39918   0.267   3.793   3.732 -1.6910 -0.6368  0.2067
 1014MOL0     H39919   0.043   3.705   3.648 -1.8719 -2.3953 -2.0542
 1014MOL0     H39920  -0.029   3.393   3.679  1.1358  0.9124 -0.4916
 1014MOL0     H39921  -0.118   3.549   3.671 -2.1748 -1.2718  0.8874
 1014MOL0     H39922  -0.164   3.284   3.523  0.6586  0.0845  0.3465
 1014MOL0     H39923  -0.269   3.420   3.490 -0.5339 -4.1853 -1.2260
 1014MOL0     H39924  -0.230   3.267   3.748 -0.0877  0.0629 -0.0224
 1014MOL0     H39925  -0.347   3.408   3.731  0.8280 -0.2983  2.0607
 1014MOL0     H39926  -0.456   3.181   3.720  3.1494 -1.6970  0.7632
 1014MOL0     H39927  -0.366   3.157   3.569 -0.5652 -1.7173  1.5719
 1014MOL0     H39928  -0.651   3.392   3.399 -1.8092 -2.5641  0.7719
 1014MOL0     H39929   0.231   3.390   3.462 -0.0537 -0.2572  1.1919
 1014MOL0     H39930   0.452   3.353   3.438  2.4762  1.1603 -2.6623
 1014MOL0     H39931   0.557   3.480   3.455  0.1408  0.6870  1.3871
 1014MOL0     H39932   0.535   3.382   3.594 -0.1433  1.5430 -0.4779
 1015MOL0     O39933   7.069  11.397  11.407 -0.5875 -0.2890  0.7376
 1015MOL0     C39934   7.029  11.288  11.427 -0.3634 -0.7889 -0.2703
 1015MOL0     O39935   7.011  11.232  11.553  0.2186  0.0275  0.5338
 1015MOL0     C39936   7.056  11.298  11.667 -0.4655  0.1815 -0.7099
 1015MOL0     C39937   7.160  11.233  11.746 -0.2050  0.1414 -0.1924
 1015MOL0     C39938   7.212  11.297  11.863  0.0947  0.0535  0.0482
 1015MOL0     C39939   7.181  11.426  11.897 -0.1292  0.3777  0.0377
 1015MOL0     O39940   7.253  11.489  12.000  0.3491 -0.3047 -0.1321
 1015MOL0     C39941   7.310  11.612  11.953 -0.2234  0.1835  0.0495
 1015MOL0     C39942   7.415  11.668  12.055 -0.9869 -0.6391 -0.2812
 1015MOL0     C39943   7.540  11.581  12.069 -0.7038  0.2343 -0.6388
 1015MOL0     C39944   7.521  11.458  12.157  0.8520  0.1726 -0.3038
 1015MOL0     C39945   7.660  11.417  12.217  0.0903 -0.0492 -0.6508
 1015MOL0     C39946   7.661  11.278  12.293 -0.1083 -0.5642 -0.1074
 1015MOL0     C39947   7.636  11.166  12.195 -0.4069 -0.1732 -0.3384
 1015MOL0     C39948   7.660  11.021  12.256 -0.3861 -0.0995 -0.3605
 1015MOL0     N39949   7.791  10.970  12.212  0.1857 -0.6171  0.2141
 1015MOL0     C39950   7.801  10.897  12.091  0.8133  0.2303 -0.7891
 1015MOL0     C39951   7.932  10.876  12.068  0.3615 -0.5010 -0.8469
 1015MOL0     C39952   7.984  10.764  11.972  0.6055 -0.3617  0.0487
 1015MOL0     C39953   8.075  10.823  11.867 -0.2647  0.3970  0.6638
 1015MOL0     C39954   8.095  10.734  11.739  0.6402  0.4765  1.4525
 1015MOL0     C39955   8.231  10.661  11.733 -0.3295 -1.2002 -0.5156
 1015MOL0     O39956   8.255  10.582  11.610  0.2456  0.0937  0.0749
 1015MOL0     C39957   8.363  10.509  11.592  0.4168 -0.2859 -0.6872
 1015MOL0     C39958   8.451  10.462  11.695  0.4482 -0.2661  0.6459
 1015MOL0     C39959   8.577  10.406  11.662  1.1053  0.5093  0.1837
 1015MOL0     C39960   8.662  10.371  11.783  0.1551 -0.6136  0.3535
 1015MOL0     C39961   8.618  10.391  11.532  0.1280 -0.2254  0.3950
 1015MOL0     C39962   8.749  10.348  11.488  0.6930  0.4903 -0.0774
 1015MOL0     O39963   8.780  10.401  11.362  0.9106 -0.3838 -0.4467
 1015MOL0     C39964   8.892  10.352  11.294  0.8593 -0.9054  1.0779
 1015MOL0     C39965   8.979  10.446  11.232 -0.5941  0.0910  0.0618
 1015MOL0     C39966   9.083  10.407  11.149  0.3514 -0.3418  0.5294
 1015MOL0     C39967   9.096  10.268  11.107  0.8397  0.3291 -0.2139
 1015MOL0     O39968   9.195  10.230  11.015 -0.4530  0.3601  0.3343
 1015MOL0     C39969   9.305  10.151  11.054 -1.2039  0.3981 -0.6305
 1015MOL0     C39970   9.333  10.057  10.936 -0.5944 -0.3407  0.6784
 1015MOL0     C39971   9.200   9.994  10.880 -0.5316 -0.7054 -0.5869
 1015MOL0     C39972   9.220   9.875  10.787 -0.0800 -0.1221 -0.8773
 1015MOL0     C39973   9.091   9.850  10.709  0.3846  0.3999 -0.5617
 1015MOL0     C39974   8.999   9.744  10.777 -0.2127  0.2225  0.6324
 1015MOL0     C39975   8.934   9.790  10.910 -0.0808  0.1225  0.7500
 1015MOL0     C39976   8.819   9.708  10.958  0.2787 -0.2784 -0.3700
 1015MOL0    Cl39977   8.689   9.702  10.838 -0.2311  0.5482  0.2152
 1015MOL0     C39978   9.002  10.173  11.156  0.2506 -0.4857 -0.6295
 1015MOL0     C39979   8.900  10.214  11.254  0.0590  0.0331 -0.2600
 1015MOL0     O39980   8.814  10.259  11.545 -1.2577  0.5546  0.3047
 1015MOL0     C39981   8.526  10.431  11.431 -0.5993 -0.2534  0.9866
 1015MOL0     C39982   8.398  10.494  11.457  0.1335  0.4039 -0.3273
 1015MOL0     N39983   7.993  10.947  12.175  0.4392 -0.6510  0.1122
 1015MOL0     N39984   7.912  10.998  12.260  0.1710 -0.0456  0.4732
 1015MOL0     C39985   7.094  11.490  11.815  0.1611 -0.6176 -0.0193
 1015MOL0     C39986   7.032  11.427  11.705  0.6128  0.0125  0.5521
 1015MOL0     C39987   6.985  11.211  11.309  1.0857  0.2236 -0.1567
 1015MOL0     C39988   6.859  11.151  11.326 -0.0611  0.4692  0.0719
 1015MOL0     C39989   6.789  11.084  11.230  0.8356 -0.3368 -0.6785
 1015MOL0     C39990   6.848  11.084  11.104  0.2180 -0.1961 -0.1348
 1015MOL0     O39991   6.769  11.031  11.012  0.3659 -0.2838 -0.1644
 1015MOL0     C39992   6.798  11.049  10.877 -0.0924 -0.0417 -0.0322
 1015MOL0     C39993   6.697  10.990  10.776  0.5293  0.0875  0.6579
 1015MOL0     C39994   6.774  10.926  10.654 -0.3945 -0.5899 -0.2943
 1015MOL0     C39995   6.685  10.862  10.553 -0.0493  0.5363  0.5172
 1015MOL0     C39996   6.584  10.951  10.504  0.7840  1.5380  0.0530
 1015MOL0     C39997   6.495  11.016  10.453 -0.6610  0.1910 -0.0382
 1015MOL0     C39998   6.978  11.146  11.075 -0.3074 -0.5542 -0.1498
 1015MOL0     C39999   7.047  11.210  11.181  0.7501 -0.5084 -0.1797
 1015MOL0     C40000   7.180  11.266  11.158 -0.5222  0.3673  0.4090
 1015MOL0     H40001   7.207  11.142  11.710 -0.4297  0.9077 -2.6212
 1015MOL0     H40002   7.287  11.234  11.911 -1.2138 -0.3956  1.5725
 1015MOL0     H40003   7.235  11.690  11.935  1.0568  0.8532 -2.8642
 1015MOL0     H40004   7.365  11.593  11.861  0.5590 -1.0923  0.7609
 1015MOL0     H40005   7.452  11.769  12.036 -0.7527  0.1866  3.7554
 1015MOL0     H40006   7.376  11.674  12.157  0.2000 -1.4293  0.2443
 1015MOL0     H40007   7.576  11.539  11.975  0.1554 -1.8491  0.5726
 1015MOL0     H40008   7.610  11.654  12.110 -0.2265 -1.0366  0.8954
 1015MOL0     H40009   7.456  11.478  12.242  1.1885  2.3511 -0.5036
 1015MOL0     H40010   7.475  11.383  12.092 -0.1857  0.0043  0.5984
 1015MOL0     H40011   7.689  11.490  12.293  2.9271 -1.6470 -0.0715
 1015MOL0     H40012   7.719  11.411  12.126 -0.1488  0.2865 -0.8295
 1015MOL0     H40013   7.765  11.270  12.326 -0.1781 -0.8931  0.0275
 1015MOL0     H40014   7.593  11.276  12.378 -0.0697  4.8052  0.4044
 1015MOL0     H40015   7.691  11.176  12.101 -1.8068  2.9198 -0.9549
 1015MOL0     H40016   7.532  11.172  12.162 -0.1284  0.6853 -1.1062
 1015MOL0     H40017   7.667  11.015  12.365  3.1934  0.5329 -0.4306
 1015MOL0     H40018   7.578  10.955  12.226  1.5929 -2.5740 -0.6315
 1015MOL0     H40019   7.724  10.857  12.025  1.8365 -1.9904 -0.7331
 1015MOL0     H40020   7.903  10.714  11.918  0.6004 -1.0152  0.6379
 1015MOL0     H40021   8.034  10.688  12.033 -1.4262 -2.9030 -1.2381
 1015MOL0     H40022   8.022  10.912  11.832 -1.9658 -0.6011  0.5822
 1015MOL0     H40023   8.170  10.864  11.902 -0.1271 -0.5819  1.4888
 1015MOL0     H40024   8.011  10.663  11.738 -0.2209  1.4313  2.5403
 1015MOL0     H40025   8.076  10.797  11.652 -1.2938  0.5093  1.8562
 1015MOL0     H40026   8.307  10.740  11.739 -1.7240  0.0819  0.9741
 1015MOL0     H40027   8.242  10.609  11.829  2.4442 -0.4075 -0.3051
 1015MOL0     H40028   8.424  10.480  11.799  1.5857 -2.4230  1.3950
 1015MOL0     H40029   8.758  10.422  11.774 -1.9147  3.6619  0.0280
 1015MOL0     H40030   8.662  10.262  11.772  0.1101 -0.4921 -0.9969
 1015MOL0     H40031   8.619  10.413  11.874 -1.4696 -0.8852 -0.2577
 1015MOL0     H40032   8.963  10.547  11.270 -1.3486  0.2815 -0.7301
 1015MOL0     H40033   9.153  10.484  11.122  0.2863 -1.5791 -3.8281
 1015MOL0     H40034   9.398  10.199  11.086  2.2646 -4.6268 -2.0341
 1015MOL0     H40035   9.286  10.082  11.138 -3.1219 -1.4788 -2.4771
 1015MOL0     H40036   9.392  10.105  10.858  0.4640  0.5955  2.0188
 1015MOL0     H40037   9.394   9.974  10.972 -1.4239 -1.9402 -1.3979
 1015MOL0     H40038   9.145  10.080  10.840 -0.4178  0.3701  1.4248
 1015MOL0     H40039   9.144   9.959  10.967 -5.1316  0.2838 -2.8375
 1015MOL0     H40040   9.270   9.791  10.836 -3.5674 -2.2095 -0.5586
 1015MOL0     H40041   9.282   9.908  10.703  3.3722 -0.0779  1.4719
 1015MOL0     H40042   9.038   9.944  10.696 -1.9736 -0.6455  0.8874
 1015MOL0     H40043   9.113   9.811  10.609 -0.5790  0.0936 -0.6577
 1015MOL0     H40044   9.038   9.643  10.791 -1.1531 -0.1397  0.7068
 1015MOL0     H40045   8.916   9.722  10.709 -0.3661  1.1971  0.4919
 1015MOL0     H40046   8.911   9.896  10.898 -0.9622 -0.1630 -0.2512
 1015MOL0     H40047   9.009   9.788  10.989  0.7574  1.6601  0.0209
 1015MOL0     H40048   8.780   9.751  11.051  0.5201  0.6756 -0.7083
 1015MOL0     H40049   8.844   9.604  10.983 -1.5348 -0.8955 -0.9868
 1015MOL0     H40050   9.003  10.074  11.112  1.3527 -1.1446  0.7789
 1015MOL0     H40051   8.828  10.141  11.288  0.5062  0.0022  0.6382
 1015MOL0     H40052   8.552  10.411  11.327 -2.0939 -3.4809  1.1182
 1015MOL0     H40053   8.341  10.529  11.371  1.5624 -1.3599 -2.0992
 1015MOL0     H40054   7.063  11.593  11.829  2.5234  0.1332  0.0855
 1015MOL0     H40055   6.959  11.477  11.642 -0.1043  0.6207  1.8219
 1015MOL0     H40056   6.807  11.154  11.421 -0.7664 -2.1723 -0.1657
 1015MOL0     H40057   6.685  11.052  11.236  0.8060 -1.3403 -4.0680
 1015MOL0     H40058   6.801  11.156  10.857 -2.9736  0.1085 -0.0994
 1015MOL0     H40059   6.893  10.994  10.870 -0.1704 -0.2116  0.2303
 1015MOL0     H40060   6.616  11.055  10.743  0.6249 -1.0877 -2.2534
 1015MOL0     H40061   6.636  10.912  10.822 -3.6098  3.4130  1.4327
 1015MOL0     H40062   6.815  11.010  10.596 -0.0801 -1.2378 -1.0400
 1015MOL0     H40063   6.855  10.859  10.686  2.3778  2.2343 -0.8872
 1015MOL0     H40064   6.627  10.774  10.586 -2.2787  0.6121 -2.6716
 1015MOL0     H40065   6.749  10.820  10.475 -2.0714 -0.6755 -0.6050
 1015MOL0     H40066   6.417  11.069  10.401 -2.9354 -2.0004  0.9394
 1015MOL0     H40067   7.021  11.146  10.975 -2.4990  1.2052 -1.1900
 1015MOL0     H40068   7.170  11.375  11.154 -3.2551  0.1679 -0.0570
 1015MOL0     H40069   7.245  11.223  11.234 -4.1826 -2.6999  2.1174
 1015MOL0     H40070   7.214  11.225  11.063  0.7592  0.7454  0.6746
 1016MOL0     O40071   9.262   2.701   4.000  0.6513 -0.1343 -0.3845
 1016MOL0     C40072   9.159   2.636   4.033 -0.3010 -1.0476  0.4415
 1016MOL0     O40073   9.123   2.606   4.168  0.2391 -0.0493 -0.3100
 1016MOL0     C40074   9.224   2.603   4.253 -0.5034  0.3981  0.1836
 1016MOL0     C40075   9.316   2.492   4.260  0.2798  0.5826  0.1433
 1016MOL0     C40076   9.404   2.478   4.366 -0.4529 -0.0691 -0.0499
 1016MOL0     C40077   9.411   2.584   4.466 -0.3116 -0.1470  0.5228
 1016MOL0     O40078   9.495   2.572   4.574  0.1940 -0.2507  0.3972
 1016MOL0     C40079   9.612   2.491   4.569 -0.4474  0.8387 -0.3572
 1016MOL0     C40080   9.695   2.538   4.687 -0.0308  0.7619  0.1620
 1016MOL0     C40081   9.618   2.467   4.808 -0.0023 -0.5724  0.4225
 1016MOL0     C40082   9.671   2.519   4.936 -0.2667 -0.3045  0.6148
 1016MOL0     C40083   9.589   2.501   5.071  0.1053  0.3412  0.8706
 1016MOL0     C40084   9.546   2.352   5.098 -0.2166 -0.5236 -0.2411
 1016MOL0     C40085   9.462   2.325   5.224 -0.2559  0.5145  0.8472
 1016MOL0     C40086   9.517   2.398   5.343 -0.3424  0.2995  0.7909
 1016MOL0     N40087   9.435   2.355   5.458  0.4012 -0.9534 -0.1911
 1016MOL0     C40088   9.436   2.232   5.513  0.4646  0.1250 -0.5694
 1016MOL0     C40089   9.330   2.209   5.584 -0.2704  0.2727 -0.7889
 1016MOL0     C40090   9.288   2.088   5.662  0.1909  0.0047 -0.0227
 1016MOL0     C40091   9.338   2.085   5.813  0.0029  0.5387  0.2827
 1016MOL0     C40092   9.279   1.955   5.870  0.0722  0.2808  0.1355
 1016MOL0     C40093   9.275   1.953   6.024 -0.2389 -0.1852  0.1530
 1016MOL0     O40094   9.411   1.929   6.061 -0.1347  0.1157  0.2119
 1016MOL0     C40095   9.439   1.903   6.193  0.2753 -0.6129 -0.2319
 1016MOL0     C40096   9.351   1.894   6.293 -0.0358  0.0254 -0.2710
 1016MOL0     C40097   9.386   1.871   6.424  0.3018  0.8908 -0.2414
 1016MOL0     C40098   9.275   1.852   6.525 -0.1690  0.2634  0.1620
 1016MOL0     C40099   9.524   1.848   6.457 -0.3743  0.6037 -1.0879
 1016MOL0     C40100   9.580   1.814   6.597  0.8836 -1.1199  0.1441
 1016MOL0     O40101   9.714   1.787   6.610  0.5701  0.2680 -0.1327
 1016MOL0     C40102   9.745   1.718   6.729 -0.1482 -0.1686 -0.6499
 1016MOL0     C40103   9.750   1.777   6.860  1.0236 -0.2960  0.5777
 1016MOL0     C40104   9.759   1.694   6.971  0.7164 -0.6706  0.2617
 1016MOL0     C40105   9.769   1.554   6.959  0.3247  0.3357  0.1830
 1016MOL0     O40106   9.788   1.479   7.075  0.3097  1.2902 -0.2096
 1016MOL0     C40107   9.744   1.340   7.054 -0.6227  0.3425 -0.5729
 1016MOL0     C40108   9.776   1.266   7.180 -0.7170 -0.0049  0.1828
 1016MOL0     C40109   9.923   1.280   7.223 -0.6686  0.4724  0.2710
 1016MOL0     C40110   9.968   1.180   7.328 -0.2558 -0.4223 -0.2609
 1016MOL0     C40111  10.119   1.199   7.363 -0.5519  0.2831  0.0784
 1016MOL0     C40112  10.151   1.106   7.495  0.5181 -0.3228  0.5394
 1016MOL0     C40113  10.158   0.963   7.452  0.1143 -0.2051 -0.5313
 1016MOL0     C40114  10.033   0.885   7.497  1.2668  0.2619 -0.2442
 1016MOL0    Cl40115  10.066   0.776   7.634 -0.4418  0.6890 -0.0462
 1016MOL0     C40116   9.775   1.500   6.821 -0.2256 -1.1013 -0.4584
 1016MOL0     C40117   9.767   1.580   6.713  0.4325 -0.8199 -0.4732
 1016MOL0     O40118   9.494   1.814   6.686 -0.0009 -0.3268 -0.4097
 1016MOL0     C40119   9.617   1.863   6.359  0.3431  0.0377  0.4330
 1016MOL0     C40120   9.577   1.889   6.224  0.7398  0.5237 -0.7602
 1016MOL0     N40121   9.255   2.320   5.570  0.0196 -0.1373  0.6331
 1016MOL0     N40122   9.308   2.404   5.489  0.3591 -0.3576  0.0659
 1016MOL0     C40123   9.318   2.692   4.458  0.4944 -0.7292 -0.9049
 1016MOL0     C40124   9.225   2.701   4.351 -0.1001  0.5506 -0.0247
 1016MOL0     C40125   9.068   2.581   3.927 -0.6031 -0.7964  0.0648
 1016MOL0     C40126   9.015   2.453   3.952  0.4903 -0.2982 -0.8127
 1016MOL0     C40127   8.937   2.384   3.858 -0.1400 -0.6478 -1.0965
 1016MOL0     C40128   8.928   2.432   3.724  0.3251  0.0398 -0.6653
 1016MOL0     O40129   8.850   2.380   3.624 -0.2478 -0.2929 -0.0424
 1016MOL0     C40130   8.783   2.256   3.643  0.6697  0.2377  0.6590
 1016MOL0     C40131   8.670   2.249   3.536 -0.0838  0.4450 -0.0650
 1016MOL0     C40132   8.684   2.111   3.467 -0.2125 -0.4193  0.5194
 1016MOL0     C40133   8.582   2.096   3.353 -0.3770  0.2124  0.0501
 1016MOL0     C40134   8.582   1.957   3.301  0.4581 -0.5351 -0.0121
 1016MOL0     C40135   8.557   1.848   3.289  0.2789  0.2632  0.9907
 1016MOL0     C40136   8.984   2.565   3.704 -0.0230  0.7450  1.3534
 1016MOL0     C40137   9.052   2.639   3.802 -0.5340  0.2969  0.6960
 1016MOL0     C40138   9.085   2.773   3.748 -1.1848  0.6446 -0.0459
 1016MOL0     H40139   9.329   2.408   4.193 -4.1990 -3.1498  3.2801
 1016MOL0     H40140   9.451   2.381   4.370  0.1388  0.2647  1.8335
 1016MOL0     H40141   9.664   2.525   4.478  1.7267  0.1341  0.5455
 1016MOL0     H40142   9.593   2.384   4.564  0.0429  0.7952 -1.6001
 1016MOL0     H40143   9.790   2.485   4.680 -2.2567 -3.5842 -0.8620
 1016MOL0     H40144   9.709   2.646   4.697  0.3717  0.7064  0.2075
 1016MOL0     H40145   9.511   2.479   4.791  0.2355 -2.3094 -3.1484
 1016MOL0     H40146   9.645   2.361   4.801  0.7642 -0.3142 -0.6759
 1016MOL0     H40147   9.766   2.469   4.958 -0.9021 -0.6738  2.6675
 1016MOL0     H40148   9.686   2.627   4.925  2.2390 -0.6473 -0.0515
 1016MOL0     H40149   9.499   2.562   5.054 -0.4801 -0.8202 -0.4507
 1016MOL0     H40150   9.653   2.542   5.149  0.3672  0.0369  0.8153
 1016MOL0     H40151   9.480   2.328   5.015  0.0547  2.3810 -1.3986
 1016MOL0     H40152   9.633   2.286   5.085  0.3022  0.1695 -0.3109
 1016MOL0     H40153   9.453   2.217   5.239 -0.6192 -0.4182 -4.3113
 1016MOL0     H40154   9.360   2.360   5.206 -0.9310 -1.7572 -0.1195
 1016MOL0     H40155   9.625   2.387   5.354 -0.0290  1.9440 -0.2994
 1016MOL0     H40156   9.504   2.504   5.319  0.2163  0.4367  1.0859
 1016MOL0     H40157   9.516   2.160   5.497  0.7428  0.0449  1.0293
 1016MOL0     H40158   9.325   1.998   5.613  1.2520  0.0125  0.7316
 1016MOL0     H40159   9.179   2.078   5.664  0.0771  0.9519 -0.8731
 1016MOL0     H40160   9.448   2.087   5.816  0.1111  2.1781 -1.9923
 1016MOL0     H40161   9.299   2.170   5.870 -0.3609  0.2183  0.5190
 1016MOL0     H40162   9.173   1.952   5.843 -0.2099  2.9975  0.6968
 1016MOL0     H40163   9.336   1.869   5.834  0.1748 -0.9689  2.9979
 1016MOL0     H40164   9.237   2.048   6.064  0.2039  0.5445 -1.1094
 1016MOL0     H40165   9.212   1.869   6.055 -1.3009  1.1924  1.9296
 1016MOL0     H40166   9.244   1.908   6.283 -0.4068 -1.8744  0.4878
 1016MOL0     H40167   9.273   1.940   6.590  0.9076  1.5905 -1.5028
 1016MOL0     H40168   9.290   1.758   6.578  0.0201  0.8761  1.2435
 1016MOL0     H40169   9.178   1.844   6.476  0.2586  1.6575 -0.9843
 1016MOL0     H40170   9.754   1.885   6.866  1.2203 -0.2054 -0.7863
 1016MOL0     H40171   9.768   1.718   7.076 -0.4847 -1.3298  0.5270
 1016MOL0     H40172   9.641   1.319   7.021 -1.3099 -0.6290  1.8963
 1016MOL0     H40173   9.800   1.296   6.971  2.1235  1.2796  0.6758
 1016MOL0     H40174   9.710   1.291   7.262  1.9910  0.5142  2.3457
 1016MOL0     H40175   9.758   1.158   7.172 -0.6236 -0.0093  0.0183
 1016MOL0     H40176   9.950   1.380   7.258  2.6989  0.5161 -1.9682
 1016MOL0     H40177   9.979   1.267   7.130  0.0967 -5.4447  1.1378
 1016MOL0     H40178   9.958   1.080   7.285 -0.1988 -0.6622  0.2743
 1016MOL0     H40179   9.907   1.194   7.419  1.3707  3.7299  0.4002
 1016MOL0     H40180  10.180   1.166   7.278  0.0466  1.7609 -0.1028
 1016MOL0     H40181  10.146   1.304   7.379  0.6844  0.0158 -0.1758
 1016MOL0     H40182  10.088   1.132   7.580  1.0672 -0.6759  1.0575
 1016MOL0     H40183  10.248   1.137   7.535 -0.2941 -0.8102  3.0056
 1016MOL0     H40184  10.242   0.913   7.502 -0.4903 -0.5967  0.0975
 1016MOL0     H40185  10.170   0.951   7.344  1.7065 -1.0903 -0.2918
 1016MOL0     H40186  10.013   0.817   7.414  1.2635 -0.3528  0.2466
 1016MOL0     H40187   9.942   0.940   7.526  0.8369 -0.1312 -0.8227
 1016MOL0     H40188   9.797   1.396   6.803  4.0470 -1.0081  2.6909
 1016MOL0     H40189   9.776   1.538   6.613 -3.2158  2.6518 -2.5368
 1016MOL0     H40190   9.725   1.872   6.369  0.3586  1.5569 -0.7718
 1016MOL0     H40191   9.650   1.896   6.144  2.1682  0.1889  0.4493
 1016MOL0     H40192   9.335   2.769   4.532 -1.6788 -3.3684  2.6498
 1016MOL0     H40193   9.156   2.785   4.357  0.0023  0.6598 -0.3720
 1016MOL0     H40194   9.024   2.397   4.045  2.4006 -0.8440 -1.2853
 1016MOL0     H40195   8.890   2.287   3.873  1.4955 -1.5699 -1.5888
 1016MOL0     H40196   8.853   2.172   3.630 -1.7729 -1.8096 -0.2387
 1016MOL0     H40197   8.749   2.234   3.745 -1.6353  0.2954 -0.0327
 1016MOL0     H40198   8.682   2.332   3.466 -1.8947  1.2611  0.5559
 1016MOL0     H40199   8.572   2.257   3.582 -0.4140  0.0715 -0.6881
 1016MOL0     H40200   8.786   2.097   3.430 -0.2794 -0.5090  0.3669
 1016MOL0     H40201   8.665   2.039   3.547  1.4817 -0.6085  0.7778
 1016MOL0     H40202   8.618   2.158   3.270  2.2064 -3.1792 -1.6171
 1016MOL0     H40203   8.484   2.120   3.394 -0.7187  0.8519 -1.0927
 1016MOL0     H40204   8.546   1.742   3.273  4.3298  0.0874 -2.1902
 1016MOL0     H40205   8.980   2.590   3.598  0.0512 -2.2675  0.5692
 1016MOL0     H40206   9.068   2.856   3.817  2.2736  3.7700 -2.5629
 1016MOL0     H40207   9.193   2.770   3.733 -1.3445 -1.4336 -1.1941
 1016MOL0     H40208   9.036   2.790   3.652 -0.9522 -0.1009 -0.3067
 1017MOL0     O40209   6.490   6.138   6.925  0.0084  0.1552 -0.0758
 1017MOL0     C40210   6.540   6.129   7.039 -0.3086 -0.3768  0.5783
 1017MOL0     O40211   6.675   6.085   7.055  0.0152 -0.1507 -0.2050
 1017MOL0     C40212   6.767   6.107   6.958  0.3089 -0.7473  0.4406
 1017MOL0     C40213   6.763   6.018   6.851 -0.2345  0.2269 -0.3141
 1017MOL0     C40214   6.832   6.048   6.732 -0.1907  0.0624  0.4803
 1017MOL0     C40215   6.907   6.163   6.722 -0.5319  0.0631  0.0797
 1017MOL0     O40216   6.964   6.194   6.605  0.5130  0.1355  1.2031
 1017MOL0     C40217   7.027   6.088   6.521  0.1661  0.3527  0.1767
 1017MOL0     C40218   7.149   6.136   6.450  0.1461 -0.4674  0.0777
 1017MOL0     C40219   7.223   6.017   6.374  0.6362  0.6975 -0.3980
 1017MOL0     C40220   7.334   6.080   6.289 -0.6428 -0.4123  1.0495
 1017MOL0     C40221   7.415   5.957   6.234  0.7364  0.0689  0.3232
 1017MOL0     C40222   7.530   6.010   6.152  0.9927  0.4361  0.9187
 1017MOL0     C40223   7.600   5.890   6.099 -0.4790 -0.3203  0.4982
 1017MOL0     C40224   7.696   5.953   5.997  0.1432 -0.4545 -0.6207
 1017MOL0     N40225   7.755   5.843   5.922 -0.1126 -0.5227  0.2239
 1017MOL0     C40226   7.834   5.750   5.979  0.2610 -0.1537  0.8012
 1017MOL0     C40227   7.857   5.663   5.882 -0.0647 -0.2480 -0.6756
 1017MOL0     C40228   7.928   5.531   5.909  0.1964 -0.1698 -0.3273
 1017MOL0     C40229   8.065   5.541   5.866 -0.8964  0.8183 -0.0003
 1017MOL0     C40230   8.139   5.416   5.899  0.2283 -1.2859 -0.6680
 1017MOL0     C40231   8.288   5.435   5.866 -0.8754  0.1963 -0.4093
 1017MOL0     O40232   8.288   5.455   5.721 -0.1834  0.4424 -0.1344
 1017MOL0     C40233   8.385   5.519   5.655 -0.1992  0.2311 -0.6275
 1017MOL0     C40234   8.348   5.547   5.530  0.2976  0.2420 -0.1927
 1017MOL0     C40235   8.423   5.624   5.443  0.4661 -0.9909  0.3830
 1017MOL0     C40236   8.342   5.667   5.320 -0.8279  0.0562  0.4687
 1017MOL0     C40237   8.548   5.674   5.476 -0.7251  0.2297 -0.1330
 1017MOL0     C40238   8.640   5.752   5.386  1.7583 -0.0561 -0.3519
 1017MOL0     O40239   8.754   5.808   5.435  0.1206 -0.0493 -0.2803
 1017MOL0     C40240   8.832   5.866   5.343 -0.2180 -0.0518 -0.4710
 1017MOL0     C40241   8.958   5.815   5.320  0.7360  0.7415  0.0220
 1017MOL0     C40242   9.030   5.869   5.226  0.6288  0.0202  0.1129
 1017MOL0     C40243   8.996   5.977   5.147  0.3025 -0.1358  1.0591
 1017MOL0     O40244   9.086   6.025   5.054 -0.4946  0.8647  0.7670
 1017MOL0     C40245   9.047   6.138   4.982  0.3272 -1.3282  0.3201
 1017MOL0     C40246   9.070   6.269   5.062  0.8028 -0.2908  0.9059
 1017MOL0     C40247   9.003   6.386   4.990  0.4384 -0.0536  0.2103
 1017MOL0     C40248   8.996   6.509   5.088  0.6379  0.3658  0.2921
 1017MOL0     C40249   8.891   6.619   5.045 -0.3602  0.4154 -0.3193
 1017MOL0     C40250   8.883   6.659   4.900 -1.0495  0.7987 -0.1361
 1017MOL0     C40251   8.791   6.785   4.883 -0.8609 -0.8422  0.2553
 1017MOL0     C40252   8.770   6.844   4.741  0.4814 -0.7253 -0.2686
 1017MOL0    Cl40253   8.690   7.013   4.771 -0.2094 -0.4625  0.2112
 1017MOL0     C40254   8.871   6.038   5.172  0.1800 -0.3768  0.5129
 1017MOL0     C40255   8.783   5.978   5.265 -0.8386 -0.5301  1.2304
 1017MOL0     O40256   8.612   5.742   5.266  0.0997  0.2157 -0.3876
 1017MOL0     C40257   8.590   5.647   5.605 -0.1710  0.2725 -0.6936
 1017MOL0     C40258   8.513   5.570   5.701  0.5141 -0.7509  0.9231
 1017MOL0     N40259   7.797   5.701   5.771  0.5605  0.3248  0.1866
 1017MOL0     N40260   7.736   5.813   5.791 -0.4083  0.5207  0.1484
 1017MOL0     C40261   6.927   6.239   6.840  0.2070  0.5783  0.4837
 1017MOL0     C40262   6.850   6.217   6.954 -0.7202  0.8755  0.7843
 1017MOL0     C40263   6.462   6.157   7.162  0.1793  0.5943 -0.0015
 1017MOL0     C40264   6.535   6.195   7.280 -0.3730 -0.3949  0.6456
 1017MOL0     C40265   6.469   6.220   7.398 -0.2122 -0.6331  0.4929
 1017MOL0     C40266   6.338   6.249   7.401  0.7365  0.5043  0.1406
 1017MOL0     O40267   6.269   6.304   7.507  0.5574 -0.2831 -0.4120
 1017MOL0     C40268   6.340   6.324   7.632  1.2647 -0.3126 -0.0112
 1017MOL0     C40269   6.273   6.430   7.721 -0.1070 -0.2171 -0.1872
 1017MOL0     C40270   6.148   6.378   7.789  0.4095  1.1392 -0.6549
 1017MOL0     C40271   6.099   6.487   7.872  1.2904  0.3409 -0.6624
 1017MOL0     C40272   5.969   6.459   7.939 -1.0042 -0.7472 -0.7455
 1017MOL0     C40273   5.869   6.471   7.998 -0.3880 -0.0195  0.4685
 1017MOL0     C40274   6.264   6.223   7.289  0.2874  1.3371  0.2662
 1017MOL0     C40275   6.321   6.165   7.174  0.0337  0.6804 -0.6905
 1017MOL0     C40276   6.214   6.122   7.065  0.0167 -0.5269 -0.4496
 1017MOL0     H40277   6.701   5.929   6.861 -2.7102  1.9152  0.4933
 1017MOL0     H40278   6.820   5.995   6.638  5.0324  0.5612 -0.7903
 1017MOL0     H40279   6.948   6.068   6.448 -0.3879 -0.7914  1.0591
 1017MOL0     H40280   7.045   5.996   6.578 -2.9334  0.1850  1.0618
 1017MOL0     H40281   7.122   6.213   6.378 -0.2974 -0.5597  0.1421
 1017MOL0     H40282   7.228   6.167   6.519 -0.9364  0.9374  0.7390
 1017MOL0     H40283   7.271   5.947   6.443 -0.5757 -1.4463 -1.6290
 1017MOL0     H40284   7.152   5.960   6.315  0.3686  1.0333 -0.4063
 1017MOL0     H40285   7.298   6.128   6.198 -2.7019 -4.9658 -0.8460
 1017MOL0     H40286   7.397   6.153   6.340 -1.7808  1.2205  0.2116
 1017MOL0     H40287   7.349   5.895   6.172 -2.6874  1.1928  2.5597
 1017MOL0     H40288   7.454   5.897   6.316 -1.3546 -2.6770 -0.5615
 1017MOL0     H40289   7.497   6.077   6.072 -1.1256 -0.4961  0.9439
 1017MOL0     H40290   7.600   6.060   6.220  2.2602  1.6998 -1.1929
 1017MOL0     H40291   7.530   5.822   6.049  0.2473  0.2234 -1.3376
 1017MOL0     H40292   7.665   5.844   6.174  0.1474 -0.5012 -0.1477
 1017MOL0     H40293   7.643   6.017   5.925  0.8980  3.4034  1.9107
 1017MOL0     H40294   7.779   6.010   6.039  0.7218 -1.8939  0.2654
 1017MOL0     H40295   7.853   5.729   6.084 -0.7725 -2.4745  0.5834
 1017MOL0     H40296   7.883   5.456   5.843  0.6085  0.5733 -1.4777
 1017MOL0     H40297   7.915   5.508   6.015  1.4865 -1.3524 -0.3923
 1017MOL0     H40298   8.070   5.557   5.758  0.0860 -3.5355 -0.8121
 1017MOL0     H40299   8.118   5.618   5.923 -0.6957  0.5774  0.1419
 1017MOL0     H40300   8.130   5.385   6.004  5.6934 -4.0528 -0.6278
 1017MOL0     H40301   8.105   5.335   5.834 -1.3575 -1.4964  0.3794
 1017MOL0     H40302   8.334   5.510   5.930 -1.2043 -0.9167  1.1802
 1017MOL0     H40303   8.349   5.348   5.892  0.3141  2.2381  4.9093
 1017MOL0     H40304   8.247   5.513   5.505  0.1661 -1.7599  2.5778
 1017MOL0     H40305   8.235   5.645   5.309 -0.8247  0.5654 -0.7342
 1017MOL0     H40306   8.382   5.616   5.232  3.1179 -0.0603  2.1005
 1017MOL0     H40307   8.345   5.772   5.290  0.8548 -0.4560 -1.3575
 1017MOL0     H40308   8.963   5.729   5.386 -2.1265  1.3735  1.2567
 1017MOL0     H40309   9.122   5.814   5.212  0.5215 -0.8879  2.5065
 1017MOL0     H40310   9.117   6.148   4.898 -0.9441  0.1744 -0.6153
 1017MOL0     H40311   8.943   6.130   4.948 -0.0378  1.5688  0.5326
 1017MOL0     H40312   9.025   6.268   5.162  0.6911  1.0782  0.8829
 1017MOL0     H40313   9.177   6.289   5.061  1.0029 -1.1679 -1.2556
 1017MOL0     H40314   8.904   6.354   4.958  0.9265  0.6297 -2.1290
 1017MOL0     H40315   9.059   6.409   4.899  2.9053 -0.7394  1.4505
 1017MOL0     H40316   9.097   6.552   5.090  0.5474  0.6392 -0.7918
 1017MOL0     H40317   8.965   6.476   5.188 -0.1029  0.1291 -0.0075
 1017MOL0     H40318   8.793   6.579   5.071 -0.2397  0.2723 -0.0823
 1017MOL0     H40319   8.904   6.717   5.092 -0.2872  0.4959 -0.5042
 1017MOL0     H40320   8.846   6.579   4.835 -1.7405  1.1136 -0.1346
 1017MOL0     H40321   8.986   6.681   4.868 -0.7309  0.5168  0.6578
 1017MOL0     H40322   8.833   6.867   4.941 -1.4574  0.4362 -1.0671
 1017MOL0     H40323   8.688   6.765   4.916 -1.4593 -0.6124 -1.3686
 1017MOL0     H40324   8.715   6.773   4.679 -2.4847 -0.0791  1.4600
 1017MOL0     H40325   8.869   6.869   4.700  0.5497  4.6005  2.1812
 1017MOL0     H40326   8.830   6.124   5.120  5.5942  0.8512 -2.5425
 1017MOL0     H40327   8.677   5.998   5.276 -0.8398 -0.2465  0.7474
 1017MOL0     H40328   8.682   5.677   5.654  0.2251 -1.6411 -0.1795
 1017MOL0     H40329   8.553   5.551   5.800  1.0325  2.6561  1.5029
 1017MOL0     H40330   7.002   6.318   6.837  0.4795  0.3864  1.7709
 1017MOL0     H40331   6.856   6.270   7.048 -1.3942 -0.9447  1.9086
 1017MOL0     H40332   6.643   6.208   7.269 -0.3786  0.3051  1.2795
 1017MOL0     H40333   6.518   6.222   7.495 -1.3527 -2.5258  1.1753
 1017MOL0     H40334   6.354   6.232   7.688  2.1365  0.5336  1.2183
 1017MOL0     H40335   6.440   6.366   7.615  1.0656 -0.1552 -0.8778
 1017MOL0     H40336   6.232   6.517   7.667  2.9074  1.5226  0.1129
 1017MOL0     H40337   6.346   6.462   7.796  0.0184 -0.4121 -0.2257
 1017MOL0     H40338   6.077   6.355   7.709  1.1356 -0.7507 -0.7842
 1017MOL0     H40339   6.170   6.287   7.845  0.0082  0.8287 -1.0006
 1017MOL0     H40340   6.065   6.563   7.801  0.0932  0.1665 -0.2990
 1017MOL0     H40341   6.171   6.517   7.948  0.6342 -0.2432  0.2014
 1017MOL0     H40342   5.776   6.495   8.045 -0.2209 -0.4777  1.0294
 1017MOL0     H40343   6.155   6.225   7.297  0.2855  1.1856  0.2877
 1017MOL0     H40344   6.248   6.036   7.005 -0.8536 -0.2004 -1.4355
 1017MOL0     H40345   6.114   6.106   7.106  0.6053 -1.8889  0.5409
 1017MOL0     H40346   6.205   6.204   6.994 -0.4331 -2.0823 -2.2661
 1018MOL0     O40347   2.106   4.495   8.777 -0.0675 -0.7647 -0.3953
 1018MOL0     C40348   2.003   4.546   8.731 -0.6585 -0.0007 -0.1978
 1018MOL0     O40349   2.001   4.645   8.634 -0.1253 -0.5152 -0.4578
 1018MOL0     C40350   2.109   4.738   8.636  0.2660  0.8913 -0.1494
 1018MOL0     C40351   2.189   4.753   8.527 -0.6897  1.4473 -0.2454
 1018MOL0     C40352   2.305   4.836   8.536 -0.0880  0.2698 -0.1741
 1018MOL0     C40353   2.333   4.918   8.643 -0.4198  0.6198  0.3306
 1018MOL0     O40354   2.440   5.000   8.647 -0.1035  0.4356  0.3388
 1018MOL0     C40355   2.563   4.976   8.569  0.1461  0.4517  0.4642
 1018MOL0     C40356   2.564   5.071   8.449 -0.1067 -0.4605  0.5168
 1018MOL0     C40357   2.686   5.081   8.356  0.1402  0.2808 -0.2433
 1018MOL0     C40358   2.816   5.149   8.406  0.1720 -0.3562 -0.3303
 1018MOL0     C40359   2.896   5.064   8.500  0.0365 -0.3846 -1.0709
 1018MOL0     C40360   3.034   5.121   8.534 -0.0615  0.4761 -0.1024
 1018MOL0     C40361   3.028   5.238   8.635 -0.1814  0.2795  0.9145
 1018MOL0     C40362   3.163   5.246   8.697 -0.0206  0.1790 -0.3604
 1018MOL0     N40363   3.172   5.364   8.793 -0.4166  0.3248  0.0872
 1018MOL0     C40364   3.193   5.487   8.748 -1.2758 -0.0768 -0.6010
 1018MOL0     C40365   3.180   5.561   8.860  1.1430  0.6574 -0.2773
 1018MOL0     C40366   3.197   5.709   8.882  1.0039 -0.5062  0.0321
 1018MOL0     C40367   3.063   5.789   8.900 -0.6171 -0.4548  0.1396
 1018MOL0     C40368   2.959   5.760   8.788 -0.2071  0.1627 -0.0341
 1018MOL0     C40369   2.953   5.860   8.675 -0.1506 -0.6556 -0.0014
 1018MOL0     O40370   3.072   5.843   8.601 -0.0483 -0.1536  0.4127
 1018MOL0     C40371   3.101   5.952   8.528  0.2459  1.4602  0.5726
 1018MOL0     C40372   3.210   5.942   8.449 -0.6184 -0.5564  0.5440
 1018MOL0     C40373   3.252   6.038   8.350 -0.2955 -0.5686  0.0253
 1018MOL0     C40374   3.371   5.996   8.262 -0.1547 -0.2936 -0.1378
 1018MOL0     C40375   3.176   6.166   8.343 -0.2742  1.0193  0.2167
 1018MOL0     C40376   3.206   6.279   8.250 -0.2750 -0.3710  0.4644
 1018MOL0     O40377   3.150   6.409   8.274 -1.1745  0.2930  0.4151
 1018MOL0     C40378   3.195   6.510   8.196  0.1513 -0.5922 -0.4439
 1018MOL0     C40379   3.097   6.606   8.169  0.3568  0.3387 -1.1514
 1018MOL0     C40380   3.113   6.721   8.103 -0.2494 -0.1238 -0.7121
 1018MOL0     C40381   3.243   6.748   8.048  0.3342 -0.2088 -0.0686
 1018MOL0     O40382   3.264   6.869   7.977 -0.5045  0.1228  0.0406
 1018MOL0     C40383   3.400   6.928   7.969  0.6347  0.0393  0.2022
 1018MOL0     C40384   3.419   7.024   8.090 -1.2158  0.4043 -0.2206
 1018MOL0     C40385   3.424   6.944   8.222  1.2420  0.5327  0.3470
 1018MOL0     C40386   3.439   7.042   8.344 -0.1552 -0.4888 -0.6807
 1018MOL0     C40387   3.486   6.963   8.468  0.2131 -0.4055 -0.3472
 1018MOL0     C40388   3.490   7.053   8.595 -0.0881 -0.0542  0.5982
 1018MOL0     C40389   3.499   6.968   8.724 -0.8450 -0.3228  0.5205
 1018MOL0     C40390   3.370   6.929   8.789  0.7806  1.4944 -0.6467
 1018MOL0    Cl40391   3.258   7.066   8.808  0.0320 -0.1397 -0.2041
 1018MOL0     C40392   3.352   6.658   8.070 -0.1579  0.7947 -1.0496
 1018MOL0     C40393   3.319   6.538   8.148  0.1749  0.3878  0.3333
 1018MOL0     O40394   3.287   6.258   8.162  0.0709  0.2289 -0.0741
 1018MOL0     C40395   3.062   6.169   8.429  0.6125  0.2012  0.4078
 1018MOL0     C40396   3.016   6.065   8.508  0.6158  0.3318 -0.0378
 1018MOL0     N40397   3.147   5.482   8.966 -0.7313  0.3313  0.4548
 1018MOL0     N40398   3.158   5.358   8.926 -0.3174 -0.1440  0.2477
 1018MOL0     C40399   2.241   4.911   8.746  0.0815 -0.8011  0.0036
 1018MOL0     C40400   2.136   4.815   8.747 -0.0787 -0.6451 -0.0518
 1018MOL0     C40401   1.874   4.478   8.757 -0.1169 -0.0309 -0.3605
 1018MOL0     C40402   1.751   4.522   8.699 -0.1526 -0.8058  0.3907
 1018MOL0     C40403   1.636   4.454   8.699 -0.0256 -0.4583 -0.4816
 1018MOL0     C40404   1.625   4.324   8.742  0.0572  0.3295  0.5773
 1018MOL0     O40405   1.503   4.261   8.728  0.0044 -0.1231 -0.4490
 1018MOL0     C40406   1.479   4.131   8.777 -0.3348  0.1310  0.3082
 1018MOL0     C40407   1.425   4.122   8.920 -0.1067  1.0855  0.6124
 1018MOL0     C40408   1.303   4.221   8.928 -0.5949 -0.3224 -0.4078
 1018MOL0     C40409   1.203   4.176   9.026  0.3527 -0.8061  0.7693
 1018MOL0     C40410   1.232   4.194   9.162  0.0831 -0.1285  0.0844
 1018MOL0     C40411   1.226   4.223   9.282 -0.6629  0.0903  0.0407
 1018MOL0     C40412   1.735   4.283   8.820  0.4259 -0.5093 -0.4110
 1018MOL0     C40413   1.851   4.362   8.835  0.1826 -0.3776  0.2717
 1018MOL0     C40414   1.954   4.292   8.921  0.6079 -0.3543 -0.5698
 1018MOL0     H40415   2.166   4.698   8.436  3.1053 -0.1143 -0.4539
 1018MOL0     H40416   2.363   4.841   8.444 -0.8151  2.1082 -0.5720
 1018MOL0     H40417   2.577   4.874   8.531 -1.2543  0.6370 -0.6509
 1018MOL0     H40418   2.635   5.004   8.645 -0.2331 -4.3523  2.9855
 1018MOL0     H40419   2.473   5.058   8.389 -1.6650  3.0445  1.8630
 1018MOL0     H40420   2.551   5.169   8.496 -0.7661  0.9546 -2.3542
 1018MOL0     H40421   2.722   4.987   8.314  2.3988  0.4584  1.1302
 1018MOL0     H40422   2.650   5.133   8.267 -0.0765 -0.6244 -0.6930
 1018MOL0     H40423   2.881   5.175   8.322 -0.2659 -0.2902 -0.6485
 1018MOL0     H40424   2.780   5.239   8.458 -1.7781 -1.2524 -0.0419
 1018MOL0     H40425   2.913   4.964   8.459 -0.6094 -1.8690  1.9952
 1018MOL0     H40426   2.837   5.046   8.590  0.8316 -2.3543 -0.8977
 1018MOL0     H40427   3.091   5.040   8.580 -0.6017  0.0808 -0.1262
 1018MOL0     H40428   3.084   5.155   8.443 -4.0560 -0.4030 -2.8809
 1018MOL0     H40429   2.946   5.224   8.706 -1.6201  1.4896 -0.4636
 1018MOL0     H40430   2.996   5.332   8.589 -1.5701 -1.0321 -0.9532
 1018MOL0     H40431   3.190   5.154   8.749 -0.0033 -1.0103 -2.3553
 1018MOL0     H40432   3.237   5.255   8.617  3.4387 -2.8762  2.1359
 1018MOL0     H40433   3.219   5.512   8.646  3.3272 -1.4113  0.0264
 1018MOL0     H40434   3.254   5.766   8.807  1.7551  0.9659  1.6536
 1018MOL0     H40435   3.248   5.715   8.978 -3.1526 -0.3605  2.4402
 1018MOL0     H40436   3.025   5.768   9.001  3.5004  0.5200  2.1360
 1018MOL0     H40437   3.099   5.892   8.894  0.0155 -0.7383 -1.4763
 1018MOL0     H40438   2.988   5.664   8.745  0.9979  0.0341  1.0095
 1018MOL0     H40439   2.862   5.736   8.833 -0.8746 -4.5292 -3.2427
 1018MOL0     H40440   2.862   5.850   8.614 -2.0123  2.3737  1.9994
 1018MOL0     H40441   2.960   5.962   8.715  1.2171  0.0877 -1.9405
 1018MOL0     H40442   3.276   5.857   8.462  0.4909 -0.1401 -1.8418
 1018MOL0     H40443   3.437   5.915   8.294  0.0019 -0.2512 -0.3482
 1018MOL0     H40444   3.441   6.073   8.230  0.7316 -1.6032 -1.5103
 1018MOL0     H40445   3.323   5.961   8.170  0.6622  2.5902 -1.7981
 1018MOL0     H40446   2.991   6.583   8.182  0.6847 -2.1641 -2.3882
 1018MOL0     H40447   3.027   6.783   8.078 -0.8337 -0.2919  0.7802
 1018MOL0     H40448   3.479   6.853   7.976  2.4018  1.7350 -0.7808
 1018MOL0     H40449   3.408   6.987   7.878 -1.9921  0.9383  0.4550
 1018MOL0     H40450   3.513   7.078   8.078 -0.3738 -0.3934  2.1673
 1018MOL0     H40451   3.349   7.107   8.080 -1.7689 -0.2983 -3.6299
 1018MOL0     H40452   3.497   6.863   8.231  1.3632  0.6455  0.3767
 1018MOL0     H40453   3.329   6.889   8.228  1.3702 -0.0300 -1.8048
 1018MOL0     H40454   3.348   7.094   8.373 -0.1756 -0.6184 -0.5017
 1018MOL0     H40455   3.515   7.120   8.334 -2.9929  2.8492  1.3046
 1018MOL0     H40456   3.417   6.880   8.487  0.7511 -0.6974  0.3436
 1018MOL0     H40457   3.587   6.925   8.450  0.8327  1.7733 -1.9334
 1018MOL0     H40458   3.396   7.109   8.599 -1.0759 -1.5726 -0.4441
 1018MOL0     H40459   3.564   7.132   8.583 -2.6348  2.0023 -3.8709
 1018MOL0     H40460   3.555   7.034   8.791 -0.1416 -0.7923  0.4053
 1018MOL0     H40461   3.568   6.885   8.708  0.4706  0.8382  0.0078
 1018MOL0     H40462   3.405   6.892   8.886 -0.9370  4.2598  1.1615
 1018MOL0     H40463   3.328   6.845   8.735  0.2281 -0.7831  2.9713
 1018MOL0     H40464   3.447   6.660   8.017 -0.1865  1.4428 -1.0789
 1018MOL0     H40465   3.404   6.470   8.146  0.3283  0.5836 -0.0903
 1018MOL0     H40466   2.998   6.256   8.423  3.1846  2.1381 -2.6188
 1018MOL0     H40467   2.919   6.071   8.557  0.2412 -1.7597 -0.4453
 1018MOL0     H40468   2.258   4.980   8.828 -1.7765  1.2034 -1.1785
 1018MOL0     H40469   2.065   4.807   8.829 -0.9846 -0.3796 -0.7876
 1018MOL0     H40470   1.749   4.618   8.648  1.0754 -1.1564 -0.3648
 1018MOL0     H40471   1.544   4.495   8.660 -1.2018 -2.7472 -0.2549
 1018MOL0     H40472   1.412   4.079   8.707 -0.8023 -1.0232  1.5656
 1018MOL0     H40473   1.570   4.071   8.770 -1.0770 -0.9987 -0.0014
 1018MOL0     H40474   1.492   4.151   9.002 -0.1001 -0.9296  1.3698
 1018MOL0     H40475   1.384   4.021   8.927 -0.4540  1.0132 -1.8040
 1018MOL0     H40476   1.340   4.322   8.951 -0.0778  0.1217 -2.9358
 1018MOL0     H40477   1.260   4.221   8.828 -1.3186  0.8810 -0.1210
 1018MOL0     H40478   1.186   4.073   8.992  2.0079 -0.0786 -2.6473
 1018MOL0     H40479   1.117   4.240   9.004  1.0320  0.3553  1.4046
 1018MOL0     H40480   1.237   4.245   9.386  2.8048 -1.1875  0.0892
 1018MOL0     H40481   1.724   4.185   8.865 -1.7147 -0.2843 -0.3480
 1018MOL0     H40482   2.012   4.357   8.987 -1.5215  0.6188  0.4607
 1018MOL0     H40483   1.916   4.207   8.978  2.7082 -1.4430 -0.7045
 1018MOL0     H40484   2.031   4.246   8.858  3.4582  1.5578  1.2873
 1019MOL0     O40485   7.412  10.692   3.531  0.0786 -0.0919  0.3177
 1019MOL0     C40486   7.399  10.816   3.561 -0.1218  0.0132  0.0550
 1019MOL0     O40487   7.507  10.898   3.573  0.5817 -0.6971 -0.3907
 1019MOL0     C40488   7.623  10.842   3.577  0.7298  0.5028 -0.9899
 1019MOL0     C40489   7.696  10.818   3.698 -0.0658  0.4443  0.9571
 1019MOL0     C40490   7.834  10.778   3.698  0.1880 -1.1035  0.7567
 1019MOL0     C40491   7.898  10.739   3.576  0.8068  0.1953 -0.5105
 1019MOL0     O40492   8.025  10.693   3.586 -0.3874  0.0037  0.1621
 1019MOL0     C40493   8.114  10.703   3.470  0.3650  0.6302 -0.9758
 1019MOL0     C40494   8.170  10.844   3.479 -0.6114  0.4222  0.7971
 1019MOL0     C40495   8.243  10.877   3.606 -0.7129  0.3452 -0.3830
 1019MOL0     C40496   8.341  10.989   3.591 -0.4641 -0.1011 -1.0422
 1019MOL0     C40497   8.415  11.009   3.731  1.0523 -1.0071 -0.1633
 1019MOL0     C40498   8.563  11.053   3.709 -0.1435 -0.0136  0.0984
 1019MOL0     C40499   8.642  11.047   3.845  0.3444 -0.2048  0.5119
 1019MOL0     C40500   8.750  11.160   3.841  0.3263  0.4759  0.9005
 1019MOL0     N40501   8.865  11.132   3.747  0.5028  0.0379  0.3126
 1019MOL0     C40502   8.914  11.218   3.648  0.2449 -0.1016  0.2705
 1019MOL0     C40503   9.020  11.163   3.592 -1.3055 -0.2606 -0.0126
 1019MOL0     C40504   9.095  11.241   3.478  0.1163 -0.0345 -0.5779
 1019MOL0     C40505   9.240  11.281   3.506  0.0306 -0.5064  0.2769
 1019MOL0     C40506   9.248  11.424   3.558  0.0093  0.0624 -1.1337
 1019MOL0     C40507   9.366  11.457   3.635 -0.1292  0.0331  0.2934
 1019MOL0     O40508   9.495  11.421   3.575  0.2498  0.1744  0.1570
 1019MOL0     C40509   9.592  11.509   3.555  0.9280 -0.3947 -0.6193
 1019MOL0     C40510   9.568  11.618   3.474  0.2325 -0.4271  0.4227
 1019MOL0     C40511   9.666  11.721   3.459  0.5152  0.0558 -0.2774
 1019MOL0     C40512   9.625  11.842   3.384  1.0582  0.0725 -0.0173
 1019MOL0     C40513   9.797  11.704   3.522 -0.5011 -0.7838  0.3379
 1019MOL0     C40514   9.906  11.807   3.522  0.6421 -0.4449 -0.4571
 1019MOL0     O40515  10.037  11.767   3.566  0.3658 -0.0190  0.6363
 1019MOL0     C40516  10.124  11.873   3.566  0.4066  0.4904 -0.6767
 1019MOL0     C40517  10.143  11.941   3.682  0.7759 -0.0637 -0.7859
 1019MOL0     C40518  10.232  12.044   3.681 -0.4015  0.7511 -0.2947
 1019MOL0     C40519  10.306  12.078   3.572  0.1043  0.2232  0.2699
 1019MOL0     O40520  10.396  12.179   3.595 -0.0401  0.2270 -0.0369
 1019MOL0     C40521  10.506  12.213   3.500 -0.2684  0.2898 -0.3725
 1019MOL0     C40522  10.595  12.311   3.583 -0.9376 -0.1099  0.0968
 1019MOL0     C40523  10.712  12.368   3.494  0.2706  0.2398 -0.2193
 1019MOL0     C40524  10.798  12.245   3.442  0.5754 -1.7876  0.0661
 1019MOL0     C40525  10.918  12.298   3.358  0.8625 -0.1569 -0.0034
 1019MOL0     C40526  10.966  12.202   3.260  0.3528 -0.3645  0.6909
 1019MOL0     C40527  11.057  12.255   3.150  0.3395  0.2712  0.2074
 1019MOL0     C40528  11.082  12.149   3.040  0.3727 -0.0446  0.0963
 1019MOL0    Cl40529  11.199  12.017   3.088  0.2018 -0.4137 -0.1985
 1019MOL0     C40530  10.302  12.000   3.453 -0.3387 -0.1918  0.0587
 1019MOL0     C40531  10.215  11.897   3.462  0.9725 -0.1295  0.5293
 1019MOL0     O40532   9.881  11.925   3.487 -0.0159 -0.1694  0.0650
 1019MOL0     C40533   9.821  11.583   3.596 -0.1278 -0.2670  0.5927
 1019MOL0     C40534   9.719  11.486   3.605  0.8625  0.1329 -0.9703
 1019MOL0     N40535   9.034  11.040   3.645 -0.4386 -1.1217 -0.3496
 1019MOL0     N40536   8.949  11.025   3.736 -0.1421 -0.0579 -0.2450
 1019MOL0     C40537   7.834  10.762   3.455  0.1031 -1.3117  0.7335
 1019MOL0     C40538   7.702  10.821   3.455  1.0289  0.4316 -0.6210
 1019MOL0     C40539   7.262  10.881   3.589 -0.5520 -0.3621  0.3244
 1019MOL0     C40540   7.265  11.010   3.637 -0.0831 -0.2457  0.9487
 1019MOL0     C40541   7.151  11.091   3.644 -0.0089 -0.5684 -1.1433
 1019MOL0     C40542   7.024  11.035   3.613 -0.5263  0.7985  0.4095
 1019MOL0     O40543   6.917  11.117   3.625 -0.1451  0.3048  0.1931
 1019MOL0     C40544   6.784  11.082   3.585 -0.5118  0.5002  0.3173
 1019MOL0     C40545   6.726  10.993   3.691  0.4393 -0.3513  0.4168
 1019MOL0     C40546   6.613  10.903   3.643  0.1382 -0.6331  0.2552
 1019MOL0     C40547   6.558  10.823   3.753 -0.9479 -0.5464 -0.5177
 1019MOL0     C40548   6.628  10.695   3.763 -0.9059  0.7704  0.2387
 1019MOL0     C40549   6.698  10.601   3.793  0.0854 -0.3013  0.1667
 1019MOL0     C40550   7.021  10.903   3.558 -0.8447 -0.2758 -0.0188
 1019MOL0     C40551   7.142  10.824   3.539  0.4016 -0.3699  0.2878
 1019MOL0     C40552   7.134  10.697   3.468 -0.5763 -0.3076  0.4747
 1019MOL0     H40553   7.668  10.845   3.799  0.3389 -1.4309  1.6088
 1019MOL0     H40554   7.880  10.771   3.796  1.1515  5.1421  1.1500
 1019MOL0     H40555   8.071  10.675   3.374  0.4908 -1.8446 -0.3628
 1019MOL0     H40556   8.196  10.633   3.486 -0.0720  0.1464 -0.8136
 1019MOL0     H40557   8.243  10.855   3.399 -1.2561 -0.5161  0.0602
 1019MOL0     H40558   8.081  10.906   3.460 -1.4577 -1.5934 -2.6370
 1019MOL0     H40559   8.168  10.896   3.683 -0.3863 -1.9603  0.5832
 1019MOL0     H40560   8.306  10.790   3.629 -0.3111  1.0999  1.5227
 1019MOL0     H40561   8.414  10.962   3.514  0.0520 -2.8569  0.2966
 1019MOL0     H40562   8.294  11.085   3.567 -1.4655  0.1865  1.6916
 1019MOL0     H40563   8.421  10.916   3.789  0.3859 -1.2378 -0.4497
 1019MOL0     H40564   8.357  11.086   3.782 -0.7376  0.2436 -3.7357
 1019MOL0     H40565   8.617  10.987   3.640  2.4919 -0.4942  2.4374
 1019MOL0     H40566   8.560  11.155   3.669 -0.5344  0.8289  2.1668
 1019MOL0     H40567   8.681  10.946   3.857  1.2530  0.0949  0.1840
 1019MOL0     H40568   8.577  11.066   3.930  2.8345  0.2692  2.4153
 1019MOL0     H40569   8.701  11.255   3.819 -0.6623 -0.4856 -1.3589
 1019MOL0     H40570   8.802  11.163   3.938 -1.2866  1.6033  1.7796
 1019MOL0     H40571   8.877  11.317   3.625  2.3777  0.2657 -1.9239
 1019MOL0     H40572   9.035  11.329   3.450  0.2962 -0.0166 -0.9118
 1019MOL0     H40573   9.094  11.187   3.383  0.5848 -1.6666  0.3204
 1019MOL0     H40574   9.296  11.207   3.564 -0.4886 -0.9496  0.2300
 1019MOL0     H40575   9.290  11.290   3.409  0.5769 -0.2179  0.5812
 1019MOL0     H40576   9.235  11.500   3.480  1.3391  0.5330 -0.9218
 1019MOL0     H40577   9.172  11.437   3.636 -0.8758  1.6425 -2.1938
 1019MOL0     H40578   9.354  11.566   3.641 -0.9571  0.0627 -1.3093
 1019MOL0     H40579   9.367  11.406   3.731  2.4494 -2.6808 -1.0004
 1019MOL0     H40580   9.469  11.625   3.430 -0.9188 -3.4759  2.1963
 1019MOL0     H40581   9.517  11.844   3.366  1.3667  2.8679 -2.2640
 1019MOL0     H40582   9.683  11.840   3.291  3.3878 -0.8058  1.3731
 1019MOL0     H40583   9.640  11.932   3.445 -0.9848 -0.6781  1.7249
 1019MOL0     H40584  10.080  11.913   3.765  1.5279 -2.0477 -0.8333
 1019MOL0     H40585  10.238  12.101   3.773 -1.3667 -1.8155  1.4826
 1019MOL0     H40586  10.561  12.122   3.472  2.0985  1.6830 -0.5081
 1019MOL0     H40587  10.475  12.256   3.405 -1.4911 -2.5566 -1.3656
 1019MOL0     H40588  10.528  12.391   3.615 -0.5166  0.3874 -0.2475
 1019MOL0     H40589  10.642  12.269   3.672 -1.4654  3.9837  2.5355
 1019MOL0     H40590  10.775  12.432   3.556  1.4799 -1.8372  0.7997
 1019MOL0     H40591  10.669  12.426   3.412 -1.2427 -2.2556 -1.3231
 1019MOL0     H40592  10.734  12.182   3.380 -0.2700  0.4162 -1.4296
 1019MOL0     H40593  10.835  12.189   3.528 -2.3957 -1.4133  1.6937
 1019MOL0     H40594  10.876  12.376   3.293  0.3899  0.1480  0.6662
 1019MOL0     H40595  10.985  12.334   3.435  1.4876 -4.0248  1.4728
 1019MOL0     H40596  10.876  12.159   3.215 -0.0771  0.8273  0.3787
 1019MOL0     H40597  11.021  12.122   3.312 -0.4231 -1.3976 -0.0364
 1019MOL0     H40598  11.156  12.289   3.182  1.7446 -1.6832 -1.7739
 1019MOL0     H40599  11.004  12.334   3.095  0.9578  1.0773  0.7302
 1019MOL0     H40600  11.121  12.202   2.953 -0.1103 -0.6643 -0.5170
 1019MOL0     H40601  10.986  12.104   3.014 -1.2641  2.7870  0.7755
 1019MOL0     H40602  10.370  12.013   3.369  1.3000 -0.0620  1.3443
 1019MOL0     H40603  10.202  11.835   3.373  1.1138  0.8434 -0.1804
 1019MOL0     H40604   9.919  11.560   3.636  0.2226 -1.1967 -0.7470
 1019MOL0     H40605   9.747  11.387   3.638  0.3968  0.0398 -0.8477
 1019MOL0     H40606   7.882  10.725   3.365  2.9663 -0.4647  1.8023
 1019MOL0     H40607   7.645  10.852   3.368 -1.1328 -0.7995  0.2957
 1019MOL0     H40608   7.357  11.059   3.669 -0.8285  0.9906  1.2554
 1019MOL0     H40609   7.139  11.189   3.689 -1.1865 -1.3495  0.3469
 1019MOL0     H40610   6.734  11.178   3.572  2.0057  1.7403 -1.0775
 1019MOL0     H40611   6.774  11.028   3.490 -2.4041  0.7655  0.3356
 1019MOL0     H40612   6.687  11.050   3.775  1.0598  0.7474 -0.0139
 1019MOL0     H40613   6.810  10.926   3.715  1.3246  0.0540 -1.3153
 1019MOL0     H40614   6.531  10.969   3.611 -0.7551 -0.4909  2.6432
 1019MOL0     H40615   6.647  10.835   3.565  1.4719  0.7204 -0.3822
 1019MOL0     H40616   6.451  10.809   3.734 -0.8763 -0.6783 -0.8269
 1019MOL0     H40617   6.571  10.878   3.847  2.4199  0.2262 -1.2935
 1019MOL0     H40618   6.759  10.513   3.806  1.1847  0.3048 -0.6845
 1019MOL0     H40619   6.925  10.873   3.518 -1.7004  0.7656  1.1645
 1019MOL0     H40620   7.194  10.719   3.379  0.4093  2.4699  1.7188
 1019MOL0     H40621   7.176  10.614   3.525  0.3089 -0.6691 -0.6630
 1019MOL0     H40622   7.033  10.670   3.434 -0.3112  0.5707 -1.1153
 1020MOL0     O40623   2.668   8.042   9.083  0.3154 -0.0428 -0.3956
 1020MOL0     C40624   2.735   8.043   9.187 -0.9153 -0.5855 -0.0044
 1020MOL0     O40625   2.849   8.111   9.198 -0.2254  0.3619  0.4373
 1020MOL0     C40626   2.887   8.215   9.112  0.4123  0.4001  0.5986
 1020MOL0     C40627   2.976   8.305   9.169 -0.9403 -0.3134  0.9556
 1020MOL0     C40628   3.024   8.423   9.095 -0.3214 -0.0611  0.2044
 1020MOL0     C40629   2.980   8.439   8.960 -0.0985  0.0542  0.9264
 1020MOL0     O40630   3.031   8.543   8.881 -0.2266 -0.1576 -0.3051
 1020MOL0     C40631   3.058   8.503   8.742  1.4535  0.8473 -0.1490
 1020MOL0     C40632   3.157   8.607   8.687 -0.6443 -0.5220 -0.0563
 1020MOL0     C40633   3.299   8.571   8.735  1.1747 -0.7052  0.5022
 1020MOL0     C40634   3.391   8.674   8.668 -0.8876 -0.3223 -0.0485
 1020MOL0     C40635   3.536   8.633   8.692  0.0974 -0.0133 -0.5231
 1020MOL0     C40636   3.592   8.656   8.828  1.1453  0.5303 -0.1329
 1020MOL0     C40637   3.710   8.564   8.866  0.4940  0.4294 -0.2101
 1020MOL0     C40638   3.834   8.602   8.780  0.4187 -0.1053  0.1964
 1020MOL0     N40639   3.904   8.728   8.825 -0.0490 -1.0808 -0.6742
 1020MOL0     C40640   3.936   8.831   8.748 -0.6357 -1.2060  0.0114
 1020MOL0     C40641   4.001   8.921   8.829 -0.5028 -0.2341 -0.0433
 1020MOL0     C40642   4.069   9.042   8.777 -0.9082 -0.1726  0.1899
 1020MOL0     C40643   3.987   9.163   8.735  0.6100 -0.3787 -0.0310
 1020MOL0     C40644   3.964   9.259   8.844 -0.3999 -0.9545 -0.4095
 1020MOL0     C40645   4.058   9.382   8.849  0.4570  0.0439  0.4768
 1020MOL0     O40646   4.190   9.348   8.885 -0.7603 -0.7741 -0.9094
 1020MOL0     C40647   4.281   9.456   8.848 -0.0766  0.2360  0.1967
 1020MOL0     C40648   4.340   9.456   8.716 -0.5631  0.0223  0.0032
 1020MOL0     C40649   4.446   9.550   8.689  0.3812  0.5295 -0.7387
 1020MOL0     C40650   4.507   9.566   8.556  0.1846  0.0837  0.0632
 1020MOL0     C40651   4.461   9.657   8.784 -0.5001  0.0107  0.9046
 1020MOL0     C40652   4.559   9.766   8.747  1.3981 -0.2705  0.1563
 1020MOL0     O40653   4.683   9.741   8.764  0.4962  0.0001  0.7396
 1020MOL0     C40654   4.777   9.828   8.721 -0.3880 -0.4533 -0.5170
 1020MOL0     C40655   4.785   9.891   8.596  0.5390 -0.0281  0.5289
 1020MOL0     C40656   4.887   9.980   8.564 -0.1592 -0.2866 -0.2590
 1020MOL0     C40657   5.002   9.997   8.648  0.4490 -0.2289  0.7832
 1020MOL0     O40658   5.102  10.091   8.619  0.2598  0.1559  0.2499
 1020MOL0     C40659   5.189  10.058   8.503 -0.1631 -0.5909  0.3672
 1020MOL0     C40660   5.220  10.193   8.426 -0.6510  0.1690  0.2774
 1020MOL0     C40661   5.290  10.294   8.514  0.0298 -0.4985  0.2994
 1020MOL0     C40662   5.363  10.387   8.415 -0.3068  0.7521 -0.1979
 1020MOL0     C40663   5.423  10.493   8.500  0.0522 -0.5971 -0.8871
 1020MOL0     C40664   5.474  10.618   8.403  0.5816  0.0504  0.1034
 1020MOL0     C40665   5.601  10.695   8.447  0.3635  0.6238  0.3130
 1020MOL0     C40666   5.648  10.788   8.343 -0.0524 -0.5989  1.1704
 1020MOL0    Cl40667   5.690  10.695   8.193  0.4591 -0.0699  0.1326
 1020MOL0     C40668   4.999   9.936   8.771 -0.6423 -0.0607 -0.3491
 1020MOL0     C40669   4.890   9.853   8.809  0.7210 -0.0357 -0.1471
 1020MOL0     O40670   4.503   9.872   8.709  0.3095 -0.7115 -0.4379
 1020MOL0     C40671   4.392   9.659   8.901  0.2376 -0.1395 -0.2146
 1020MOL0     C40672   4.297   9.564   8.931 -0.1253  0.0077 -0.0308
 1020MOL0     N40673   4.015   8.861   8.955  0.4555 -0.3009 -0.5918
 1020MOL0     N40674   3.956   8.748   8.950  0.1575  0.5990  0.7294
 1020MOL0     C40675   2.890   8.348   8.904  0.2703 -0.0878 -0.1299
 1020MOL0     C40676   2.850   8.236   8.972 -0.2535 -0.1858 -0.4159
 1020MOL0     C40677   2.694   7.955   9.302  0.5443 -0.0213  0.4928
 1020MOL0     C40678   2.555   7.947   9.312  0.1345  0.2047 -0.4129
 1020MOL0     C40679   2.486   7.865   9.409 -0.6683  0.9692  0.1416
 1020MOL0     C40680   2.568   7.800   9.502  0.0654 -0.1446  0.4007
 1020MOL0     O40681   2.501   7.730   9.596  0.5066  0.4837  0.0829
 1020MOL0     C40682   2.558   7.600   9.615 -0.5882  0.2927  0.4553
 1020MOL0     C40683   2.457   7.531   9.709  0.6005 -1.1051 -0.0093
 1020MOL0     C40684   2.446   7.580   9.853  0.3037 -0.0411  0.6675
 1020MOL0     C40685   2.370   7.471   9.928 -0.2472 -0.0394  1.0876
 1020MOL0     C40686   2.231   7.474   9.885 -0.8569  0.5288 -0.2396
 1020MOL0     C40687   2.112   7.459   9.853  0.0882  0.4467  0.2421
 1020MOL0     C40688   2.709   7.800   9.488  1.1447 -0.5570  0.0077
 1020MOL0     C40689   2.767   7.877   9.387 -0.0957 -0.2418  0.0360
 1020MOL0     C40690   2.913   7.863   9.376  0.4259 -0.4509  0.0081
 1020MOL0     H40691   3.012   8.290   9.270 -0.9788 -2.0128  0.7415
 1020MOL0     H40692   3.101   8.492   9.127  0.9548 -0.2368 -2.2693
 1020MOL0     H40693   2.968   8.508   8.679  1.7056 -2.1250 -0.9090
 1020MOL0     H40694   3.093   8.402   8.719 -0.8990  0.2343 -1.3824
 1020MOL0     H40695   3.152   8.608   8.578  3.3918  0.6264 -0.4025
 1020MOL0     H40696   3.125   8.706   8.720 -2.1917  0.2022 -3.3465
 1020MOL0     H40697   3.297   8.576   8.844 -0.5556 -0.2090  0.4792
 1020MOL0     H40698   3.325   8.469   8.704  1.6918 -0.3306 -0.3189
 1020MOL0     H40699   3.370   8.662   8.561 -2.2045 -0.5347  0.2118
 1020MOL0     H40700   3.363   8.774   8.701  2.3620  0.1745  1.5104
 1020MOL0     H40701   3.603   8.697   8.633  0.1833 -1.1337 -1.6999
 1020MOL0     H40702   3.545   8.528   8.661  2.5618 -0.3755  1.1500
 1020MOL0     H40703   3.620   8.760   8.850  0.0549  0.9521 -0.7008
 1020MOL0     H40704   3.514   8.631   8.900  0.3401 -0.9697 -1.4795
 1020MOL0     H40705   3.692   8.457   8.850  3.5855 -0.4669  1.6361
 1020MOL0     H40706   3.738   8.571   8.971  4.0372 -0.7037 -0.9549
 1020MOL0     H40707   3.907   8.522   8.762  2.8940  0.9056  4.2969
 1020MOL0     H40708   3.802   8.626   8.679 -0.1037 -0.2151  0.3337
 1020MOL0     H40709   3.918   8.835   8.641 -1.9135 -4.3334 -0.0028
 1020MOL0     H40710   4.125   9.010   8.688  2.4519  0.6770  1.8498
 1020MOL0     H40711   4.152   9.076   8.840  1.2659 -1.5834 -1.7190
 1020MOL0     H40712   4.021   9.212   8.644  1.1510 -1.9944 -0.7366
 1020MOL0     H40713   3.893   9.125   8.694  0.7062  0.4824 -1.0878
 1020MOL0     H40714   3.861   9.294   8.838 -0.4400 -0.6231  1.4161
 1020MOL0     H40715   3.968   9.211   8.942 -1.1049  0.6874  0.4679
 1020MOL0     H40716   4.052   9.435   8.753 -1.6217  0.2414  0.6693
 1020MOL0     H40717   4.013   9.452   8.920 -1.5670 -1.2677  0.5520
 1020MOL0     H40718   4.324   9.386   8.635  0.7707 -0.8320  0.4468
 1020MOL0     H40719   4.456   9.647   8.503  0.3423  0.3456  0.3132
 1020MOL0     H40720   4.495   9.476   8.495  1.0364  0.4143 -0.5997
 1020MOL0     H40721   4.613   9.590   8.559  0.7132 -2.1197  3.0161
 1020MOL0     H40722   4.716   9.870   8.514  0.9793 -0.6111  0.2948
 1020MOL0     H40723   4.873  10.046   8.479 -1.4898  3.2282  2.4033
 1020MOL0     H40724   5.279   9.998   8.522 -1.7365 -3.5213 -0.7682
 1020MOL0     H40725   5.138   9.992   8.432 -3.9963  1.9134  0.5456
 1020MOL0     H40726   5.284  10.175   8.339 -1.1560  1.6098 -0.4286
 1020MOL0     H40727   5.130  10.236   8.382  0.2972  0.2916 -1.6610
 1020MOL0     H40728   5.360  10.244   8.581  0.0952 -1.2133 -0.2928
 1020MOL0     H40729   5.208  10.336   8.574  1.0466  1.6153  0.2970
 1020MOL0     H40730   5.293  10.421   8.337 -2.3161  0.4426  1.3758
 1020MOL0     H40731   5.442  10.333   8.362 -1.8116 -0.3410 -1.4277
 1020MOL0     H40732   5.348  10.534   8.568  1.7092  0.0125  0.6364
 1020MOL0     H40733   5.504  10.447   8.558  0.3964  1.0270 -0.0237
 1020MOL0     H40734   5.395  10.691   8.382 -2.2387 -2.2177  1.9695
 1020MOL0     H40735   5.507  10.565   8.313  1.0149 -2.3393  1.5832
 1020MOL0     H40736   5.672  10.626   8.493  0.0746 -0.1432 -0.3530
 1020MOL0     H40737   5.571  10.750   8.537  0.0035 -1.8373  1.7843
 1020MOL0     H40738   5.733  10.837   8.392  2.0926 -0.3650 -2.4085
 1020MOL0     H40739   5.580  10.863   8.303 -0.4865 -2.0066 -0.8665
 1020MOL0     H40740   5.081   9.952   8.842 -1.6119 -2.5965  1.5016
 1020MOL0     H40741   4.904   9.806   8.906  1.4235  0.4061 -0.0234
 1020MOL0     H40742   4.399   9.742   8.970 -0.4195 -1.0550  1.0016
 1020MOL0     H40743   4.250   9.576   9.028 -0.8149  2.1037 -0.5588
 1020MOL0     H40744   2.840   8.367   8.809  2.8601  2.5363 -1.1019
 1020MOL0     H40745   2.794   8.162   8.916  0.0271 -0.7505  0.0359
 1020MOL0     H40746   2.485   8.006   9.253  2.0432  2.0013 -0.9744
 1020MOL0     H40747   2.377   7.866   9.409 -0.7116  1.9199 -2.6181
 1020MOL0     H40748   2.564   7.550   9.518  1.1691  1.7141 -0.2258
 1020MOL0     H40749   2.658   7.585   9.655  0.3311 -2.0633 -2.3914
 1020MOL0     H40750   2.488   7.426   9.709 -2.7076 -2.2068  1.3585
 1020MOL0     H40751   2.357   7.541   9.667 -0.9380 -4.2605  2.4207
 1020MOL0     H40752   2.544   7.597   9.898  0.2666 -1.2689  1.2563
 1020MOL0     H40753   2.395   7.675   9.873  1.5888  0.1091  3.8286
 1020MOL0     H40754   2.380   7.496  10.034 -0.0832 -1.0096  1.3101
 1020MOL0     H40755   2.420   7.374   9.922  0.3567  0.2974  0.5992
 1020MOL0     H40756   2.015   7.470   9.810  0.9001 -0.8136 -2.0718
 1020MOL0     H40757   2.773   7.729   9.541  0.1537 -1.7232 -0.3136
 1020MOL0     H40758   2.954   7.922   9.459 -1.7066  2.7385 -1.0162
 1020MOL0     H40759   2.940   7.759   9.392 -2.1198 -1.0713  0.6858
 1020MOL0     H40760   2.972   7.897   9.291 -0.2312 -1.1429 -0.7356
 1021MOL0     O40761  10.071   3.318  10.990  0.1818  0.5520  0.1150
 1021MOL0     C40762   9.984   3.380  11.053 -0.0827 -0.7600 -0.2028
 1021MOL0     O40763   9.931   3.337  11.168 -0.4480  0.2111 -0.5210
 1021MOL0     C40764   9.986   3.224  11.228 -0.7054  0.5780 -0.1354
 1021MOL0     C40765   9.930   3.097  11.215  0.0658 -0.1445  0.5301
 1021MOL0     C40766   9.991   2.981  11.263 -0.1643  0.7590 -0.1308
 1021MOL0     C40767  10.116   2.992  11.323  0.4398  0.4298  0.2062
 1021MOL0     O40768  10.181   2.876  11.373  0.4990 -0.2803  0.6875
 1021MOL0     C40769  10.089   2.767  11.407 -0.5640 -0.6726  0.1132
 1021MOL0     C40770  10.154   2.670  11.503 -0.3060 -0.0022 -0.6862
 1021MOL0     C40771  10.287   2.605  11.455  0.8305  0.1294  0.7570
 1021MOL0     C40772  10.260   2.515  11.330 -0.4969  0.0065  0.4181
 1021MOL0     C40773  10.391   2.497  11.263 -0.5942  0.3064 -0.2401
 1021MOL0     C40774  10.356   2.403  11.149  0.1379 -0.0582 -0.8056
 1021MOL0     C40775  10.480   2.351  11.084  0.4937  0.5521  0.1545
 1021MOL0     C40776  10.452   2.261  10.968 -1.2999  0.3979  0.2720
 1021MOL0     N40777  10.390   2.139  11.004  0.2320 -0.8043 -0.3449
 1021MOL0     C40778  10.256   2.120  11.009 -0.4572 -0.0266 -0.3866
 1021MOL0     C40779  10.247   1.991  11.046  0.0896  0.4865 -0.1574
 1021MOL0     C40780  10.116   1.917  11.069  0.4361  0.3352 -0.1460
 1021MOL0     C40781  10.112   1.803  10.969 -0.0495  0.0387 -0.1083
 1021MOL0     C40782  10.006   1.705  11.016  0.1234  0.6113 -0.4499
 1021MOL0     C40783   9.864   1.749  11.031  0.3158 -0.6105 -1.2553
 1021MOL0     O40784   9.816   1.824  10.918  0.1387 -0.1153 -0.3467
 1021MOL0     C40785   9.698   1.890  10.920 -0.2959 -0.2388 -0.3207
 1021MOL0     C40786   9.619   1.896  11.027 -0.0957  0.3285  0.2031
 1021MOL0     C40787   9.500   1.969  11.030  1.1526  0.4352 -0.0308
 1021MOL0     C40788   9.413   1.952  11.153 -0.2366  0.5396 -0.6486
 1021MOL0     C40789   9.453   2.031  10.911  0.4639  0.7761 -0.5949
 1021MOL0     C40790   9.327   2.110  10.910  0.1993  0.7050  0.1480
 1021MOL0     O40791   9.232   2.060  10.819 -0.2294 -0.2036 -0.0846
 1021MOL0     C40792   9.134   2.146  10.767 -0.2917 -0.6412 -0.7187
 1021MOL0     C40793   9.147   2.185  10.631  0.0204 -1.0542 -1.2648
 1021MOL0     C40794   9.046   2.265  10.570  0.2558 -0.5868  0.0077
 1021MOL0     C40795   8.935   2.313  10.646  0.3859 -0.4354 -0.6772
 1021MOL0     O40796   8.824   2.383  10.591  0.3658  0.0080  0.2680
 1021MOL0     C40797   8.831   2.444  10.460  0.5665 -0.7259  0.1455
 1021MOL0     C40798   8.690   2.475  10.416 -0.6147 -0.1420  0.1700
 1021MOL0     C40799   8.596   2.354  10.395  0.1905 -0.8146 -0.3240
 1021MOL0     C40800   8.471   2.392  10.325  0.0386  0.5400 -0.6360
 1021MOL0     C40801   8.413   2.535  10.353 -0.6983 -0.1706  0.4428
 1021MOL0     C40802   8.344   2.541  10.495 -0.0705  0.0100  0.4983
 1021MOL0     C40803   8.267   2.674  10.529  0.4876 -0.2514 -0.1469
 1021MOL0     C40804   8.178   2.661  10.657 -0.6512  0.3374 -0.6135
 1021MOL0    Cl40805   8.265   2.600  10.802  0.3475 -0.0297  0.0531
 1021MOL0     C40806   8.934   2.280  10.780  0.0895  0.0142 -0.0107
 1021MOL0     C40807   9.028   2.197  10.841  0.4712  0.0708 -0.9752
 1021MOL0     O40808   9.314   2.212  10.976 -0.0396 -0.4319  0.3357
 1021MOL0     C40809   9.530   2.014  10.793  0.0747 -0.0970  0.2375
 1021MOL0     C40810   9.651   1.947  10.800  0.1395 -0.0726 -0.1210
 1021MOL0     N40811  10.369   1.942  11.093  0.1636  0.5034  0.2833
 1021MOL0     N40812  10.456   2.037  11.066  0.3029  0.3301 -0.8104
 1021MOL0     C40813  10.163   3.114  11.357  0.5119  0.1909  0.2067
 1021MOL0     C40814  10.106   3.234  11.306 -0.1133  0.1352  0.2121
 1021MOL0     C40815   9.925   3.508  11.002 -0.2046 -0.1724 -0.6418
 1021MOL0     C40816   9.840   3.591  11.086 -0.0256  0.2202 -0.0588
 1021MOL0     C40817   9.784   3.721  11.039 -0.7927  0.3146 -0.9008
 1021MOL0     C40818   9.826   3.759  10.912 -0.6978  0.6562  0.5731
 1021MOL0     O40819   9.789   3.876  10.851  0.8467 -0.5177  0.1499
 1021MOL0     C40820   9.852   3.991  10.907 -0.2230  0.1724 -0.0137
 1021MOL0     C40821   9.908   4.066  10.780 -0.0962  0.4968 -0.7548
 1021MOL0     C40822   9.918   4.219  10.800 -0.5456 -0.1584  0.7771
 1021MOL0     C40823   9.772   4.282  10.819 -0.8676 -0.9192  0.5849
 1021MOL0     C40824   9.801   4.417  10.850 -0.0442  0.0768 -0.9113
 1021MOL0     C40825   9.826   4.536  10.886  0.7587  0.8655 -0.5059
 1021MOL0     C40826   9.900   3.682  10.826  0.9733 -0.3097  0.8524
 1021MOL0     C40827   9.949   3.560  10.873  0.3613  0.0744  0.6957
 1021MOL0     C40828  10.009   3.487  10.759 -0.1262  0.2169  0.2227
 1021MOL0     H40829   9.845   3.067  11.154 -0.9257 -2.3551  2.8226
 1021MOL0     H40830   9.936   2.893  11.230 -0.3006  0.5019  0.7391
 1021MOL0     H40831  10.057   2.721  11.313 -0.0828  0.3923 -0.5859
 1021MOL0     H40832  10.007   2.820  11.455 -1.0390 -0.1190 -1.2733
 1021MOL0     H40833  10.164   2.738  11.588 -0.5299  2.7517 -2.7071
 1021MOL0     H40834  10.087   2.587  11.527 -0.3088  0.3861  0.7271
 1021MOL0     H40835  10.351   2.691  11.432 -0.6464  0.9854 -0.2995
 1021MOL0     H40836  10.331   2.557  11.543 -0.1457 -0.8371  0.7436
 1021MOL0     H40837  10.210   2.427  11.370 -0.9931 -0.4353 -1.1383
 1021MOL0     H40838  10.191   2.557  11.257  1.9829  1.8433 -1.0426
 1021MOL0     H40839  10.460   2.448  11.332  0.1048 -1.1679 -1.8933
 1021MOL0     H40840  10.443   2.589  11.232 -2.0935  1.2106 -0.1503
 1021MOL0     H40841  10.313   2.309  11.183 -0.4101 -0.0589 -1.4714
 1021MOL0     H40842  10.289   2.442  11.072 -0.4734 -0.9885 -0.7533
 1021MOL0     H40843  10.546   2.312  11.161  1.1049  2.0361  0.4103
 1021MOL0     H40844  10.541   2.429  11.036  4.0208 -1.2391  1.3925
 1021MOL0     H40845  10.403   2.313  10.886  0.3543 -1.2748 -1.8752
 1021MOL0     H40846  10.553   2.233  10.937 -0.6013  3.2079 -0.2208
 1021MOL0     H40847  10.181   2.195  10.986  0.7828  1.6433  0.7726
 1021MOL0     H40848  10.038   1.989  11.042 -0.3881 -0.5061 -0.0523
 1021MOL0     H40849  10.129   1.888  11.174  1.1947  0.7393 -0.1242
 1021MOL0     H40850  10.078   1.838  10.871  1.3937 -0.8367 -0.9531
 1021MOL0     H40851  10.214   1.766  10.954  1.1038  2.5310  1.0296
 1021MOL0     H40852  10.011   1.620  10.947  0.6560  0.9871 -0.8829
 1021MOL0     H40853  10.044   1.677  11.115 -0.7456 -2.1675 -0.8073
 1021MOL0     H40854   9.799   1.663  11.053  0.4196 -0.4393 -0.1862
 1021MOL0     H40855   9.852   1.810  11.121 -3.6649 -2.9597  0.0771
 1021MOL0     H40856   9.641   1.843  11.119  1.7861  0.7904  0.0740
 1021MOL0     H40857   9.368   1.855  11.175  1.3242  0.3150  2.0331
 1021MOL0     H40858   9.338   2.031  11.161  0.2428  0.9593 -0.2508
 1021MOL0     H40859   9.474   1.964  11.244  1.4193 -0.1909 -1.6016
 1021MOL0     H40860   9.232   2.146  10.576  1.1353 -2.9413  1.5587
 1021MOL0     H40861   9.064   2.282  10.464  1.8962 -1.3723  0.1216
 1021MOL0     H40862   8.881   2.541  10.458  0.4750 -0.6836 -1.6800
 1021MOL0     H40863   8.885   2.384  10.385 -0.5638 -0.4046 -0.9615
 1021MOL0     H40864   8.651   2.553  10.482  0.8802  1.2509 -0.5303
 1021MOL0     H40865   8.701   2.519  10.317 -2.7983  3.2983  1.2746
 1021MOL0     H40866   8.561   2.318  10.492 -2.4103 -1.2591 -1.3383
 1021MOL0     H40867   8.648   2.271  10.347  1.4149 -1.3684  1.8078
 1021MOL0     H40868   8.392   2.320  10.350  1.4456 -0.7951  0.1271
 1021MOL0     H40869   8.497   2.380  10.219  1.6460 -3.2674  0.0109
 1021MOL0     H40870   8.486   2.616  10.344 -2.2059  1.4072  1.6676
 1021MOL0     H40871   8.334   2.546  10.279 -1.7679 -1.6505  1.3140
 1021MOL0     H40872   8.414   2.523  10.577  0.8122  3.2464  0.5871
 1021MOL0     H40873   8.270   2.461  10.504 -0.9380  0.7883  0.3626
 1021MOL0     H40874   8.207   2.705  10.443  0.8655 -0.7843 -0.6131
 1021MOL0     H40875   8.344   2.746  10.558  1.5877 -1.4912  0.1513
 1021MOL0     H40876   8.099   2.592  10.626  3.0241 -2.6172 -4.7073
 1021MOL0     H40877   8.136   2.759  10.682  1.0945  0.9791 -0.0070
 1021MOL0     H40878   8.853   2.333  10.829 -1.4969 -2.5075  0.3014
 1021MOL0     H40879   9.020   2.181  10.948 -1.2954  2.2790 -0.7027
 1021MOL0     H40880   9.477   2.054  10.707  0.1179 -2.0695 -0.7571
 1021MOL0     H40881   9.711   1.925  10.712 -1.8483 -4.3209 -0.6982
 1021MOL0     H40882  10.257   3.129  11.410 -0.5257 -1.4981  2.7166
 1021MOL0     H40883  10.149   3.333  11.316 -2.3953  1.2833 -0.4598
 1021MOL0     H40884   9.823   3.562  11.189  2.3509 -2.4777 -0.3109
 1021MOL0     H40885   9.704   3.776  11.088  0.1142  1.9353 -1.1801
 1021MOL0     H40886   9.780   4.044  10.970 -1.2817 -1.6442  0.3738
 1021MOL0     H40887   9.932   3.957  10.973  0.6588  0.2896 -0.9962
 1021MOL0     H40888   9.845   4.048  10.692 -0.5126  2.1219 -0.8059
 1021MOL0     H40889  10.010   4.030  10.759  0.4240  0.3861  1.6729
 1021MOL0     H40890   9.973   4.240  10.891  0.4590  2.0465 -0.2864
 1021MOL0     H40891   9.967   4.270  10.717 -1.5844 -1.8165 -0.9483
 1021MOL0     H40892   9.722   4.227  10.899  2.8225 -1.8948  2.4586
 1021MOL0     H40893   9.711   4.281  10.728 -2.3027 -0.3164  1.5144
 1021MOL0     H40894   9.864   4.632  10.911  0.9956  0.0779  2.5637
 1021MOL0     H40895   9.927   3.712  10.726 -0.3469 -0.0879  0.5525
 1021MOL0     H40896   9.943   3.402  10.740 -0.0230 -0.1751  1.5505
 1021MOL0     H40897  10.026   3.546  10.668 -0.4139  1.3198  0.8615
 1021MOL0     H40898  10.106   3.442  10.783 -0.1277  0.2736  0.3348
 1022MOL0     O40899   7.175   5.506   6.220 -0.6374 -0.4792 -0.1255
 1022MOL0     C40900   7.145   5.616   6.178  0.2719 -0.0298 -0.2149
 1022MOL0     O40901   7.066   5.709   6.248 -0.7600 -0.5420 -0.2180
 1022MOL0     C40902   7.003   5.684   6.360  0.6660 -0.5719  0.2579
 1022MOL0     C40903   6.869   5.725   6.369  0.3373 -0.8531  0.4706
 1022MOL0     C40904   6.797   5.717   6.488 -0.5103  0.1495 -1.2973
 1022MOL0     C40905   6.857   5.669   6.600 -0.0669 -1.4199  0.3153
 1022MOL0     O40906   6.779   5.668   6.709  0.3483 -0.0904 -0.0601
 1022MOL0     C40907   6.755   5.538   6.764  0.0283  0.9593  0.0719
 1022MOL0     C40908   6.628   5.528   6.849 -0.0840 -0.7998 -0.3377
 1022MOL0     C40909   6.502   5.531   6.747  0.6418  0.1126 -0.2841
 1022MOL0     C40910   6.378   5.601   6.827 -0.2159  0.3907  0.0101
 1022MOL0     C40911   6.248   5.579   6.751 -0.7892  0.5472  0.8238
 1022MOL0     C40912   6.183   5.436   6.771  0.4161  0.1594  0.3151
 1022MOL0     C40913   6.095   5.408   6.652 -0.0704 -0.3941  0.9830
 1022MOL0     C40914   5.962   5.480   6.647  0.2258  1.2666 -0.0647
 1022MOL0     N40915   5.924   5.481   6.507  0.0627  1.3514  0.9397
 1022MOL0     C40916   5.865   5.589   6.449 -0.2957 -0.0431  0.9164
 1022MOL0     C40917   5.852   5.549   6.314  0.1770  0.0775 -0.3862
 1022MOL0     C40918   5.791   5.635   6.211  0.8384 -0.1867  0.3473
 1022MOL0     C40919   5.634   5.629   6.213  0.5435  0.4809  0.2367
 1022MOL0     C40920   5.588   5.697   6.345  0.9602  0.3863  0.5810
 1022MOL0     C40921   5.447   5.732   6.333  0.0880  0.2103 -0.2762
 1022MOL0     O40922   5.429   5.825   6.225  0.4057  0.1406 -0.3947
 1022MOL0     C40923   5.307   5.880   6.207 -0.3676 -0.7045  0.2800
 1022MOL0     C40924   5.282   5.935   6.081 -1.2537 -0.1616 -0.5628
 1022MOL0     C40925   5.165   6.006   6.056 -0.2576 -0.7441  0.4122
 1022MOL0     C40926   5.152   6.056   5.907  0.2675  0.6357  0.7206
 1022MOL0     C40927   5.072   6.029   6.157  0.4563 -1.1270 -0.0735
 1022MOL0     C40928   4.933   6.067   6.128  0.0885  0.8053 -0.9703
 1022MOL0     O40929   4.896   6.184   6.065 -0.1295  0.1494 -0.7599
 1022MOL0     C40930   4.769   6.175   6.007 -0.6306  0.4196 -1.5632
 1022MOL0     C40931   4.662   6.200   6.089  0.1085  0.7591 -0.1419
 1022MOL0     C40932   4.531   6.211   6.036  0.2167  0.2897  0.4986
 1022MOL0     C40933   4.508   6.192   5.896  0.0076 -0.6753  0.8943
 1022MOL0     O40934   4.378   6.198   5.842  0.1644 -0.0777  0.1015
 1022MOL0     C40935   4.289   6.309   5.885  0.0788 -0.2888 -0.3114
 1022MOL0     C40936   4.167   6.303   5.790 -0.0016  0.4456 -0.0988
 1022MOL0     C40937   4.097   6.445   5.769  0.9213 -0.3633 -0.3337
 1022MOL0     C40938   3.971   6.452   5.677 -0.2312 -0.9370  1.3624
 1022MOL0     C40939   3.874   6.562   5.722 -0.1577 -1.4593  0.0313
 1022MOL0     C40940   3.764   6.573   5.630  0.7223  0.0589  0.6774
 1022MOL0     C40941   3.653   6.667   5.675 -0.8774  0.1515  0.5796
 1022MOL0     C40942   3.559   6.712   5.559  0.3004  1.1997 -0.5356
 1022MOL0    Cl40943   3.447   6.837   5.618 -0.2181  0.0338  0.6858
 1022MOL0     C40944   4.626   6.160   5.823  0.2509  0.4452  0.6523
 1022MOL0     C40945   4.749   6.138   5.874 -0.5378  0.4722 -0.5844
 1022MOL0     O40946   4.859   5.975   6.159  0.5810  0.5503  0.3681
 1022MOL0     C40947   5.107   5.999   6.288 -0.3798  1.3701 -0.1072
 1022MOL0     C40948   5.220   5.922   6.315 -0.2281 -0.0186  0.5842
 1022MOL0     N40949   5.897   5.418   6.307  0.8140 -0.5473 -0.0142
 1022MOL0     N40950   5.946   5.377   6.420  0.9785  0.1597 -0.2708
 1022MOL0     C40951   6.993   5.625   6.602 -0.9586 -0.9834  0.9743
 1022MOL0     C40952   7.062   5.623   6.479  0.1460 -0.0223 -0.2890
 1022MOL0     C40953   7.201   5.669   6.049 -0.0951  0.0608  0.4195
 1022MOL0     C40954   7.139   5.782   5.992 -0.5435 -0.4809  0.1725
 1022MOL0     C40955   7.192   5.835   5.873  0.5497 -0.3329 -0.0373
 1022MOL0     C40956   7.288   5.772   5.803 -1.0860 -0.0910 -0.1476
 1022MOL0     O40957   7.344   5.832   5.691  0.7888  0.4781 -0.6613
 1022MOL0     C40958   7.441   5.768   5.607 -0.4822  0.2494 -0.1039
 1022MOL0     C40959   7.421   5.813   5.462 -0.1511  0.3977  0.6042
 1022MOL0     C40960   7.536   5.768   5.367  0.4979 -0.0931 -0.2554
 1022MOL0     C40961   7.567   5.834   5.236  0.4092  0.0381  1.1009
 1022MOL0     C40962   7.592   5.979   5.240 -0.1580 -0.0550  0.0682
 1022MOL0     C40963   7.621   6.093   5.242 -0.2039  0.8387  1.5287
 1022MOL0     C40964   7.349   5.668   5.861  1.0763  0.0673 -0.1345
 1022MOL0     C40965   7.321   5.614   5.992 -0.0889 -0.3867  0.2878
 1022MOL0     C40966   7.404   5.491   6.045 -0.4375  0.1868 -0.6250
 1022MOL0     H40967   6.815   5.780   6.293 -0.5961 -1.1312  0.9197
 1022MOL0     H40968   6.694   5.748   6.503  0.0773  1.3680  0.6820
 1022MOL0     H40969   6.831   5.500   6.832  1.6856  3.8078 -0.0269
 1022MOL0     H40970   6.754   5.468   6.680  2.8966  2.1406 -1.0762
 1022MOL0     H40971   6.622   5.438   6.911  2.5021  0.2159  1.5225
 1022MOL0     H40972   6.613   5.611   6.918  2.6249 -1.4041  1.1194
 1022MOL0     H40973   6.522   5.591   6.658  4.3392  1.3251  1.1678
 1022MOL0     H40974   6.470   5.430   6.721 -0.1149  1.2166 -4.3140
 1022MOL0     H40975   6.359   5.550   6.922 -2.2782  0.8041 -0.1475
 1022MOL0     H40976   6.400   5.707   6.843  1.1314  0.3504 -1.3348
 1022MOL0     H40977   6.261   5.597   6.644 -1.7374 -1.2114  0.3825
 1022MOL0     H40978   6.180   5.657   6.786  0.1351  0.4352  3.0076
 1022MOL0     H40979   6.268   5.368   6.774  1.0425  0.9358  0.5707
 1022MOL0     H40980   6.126   5.431   6.865 -2.2614 -0.8396 -1.2375
 1022MOL0     H40981   6.069   5.302   6.657  1.3031 -0.7209  2.0353
 1022MOL0     H40982   6.142   5.418   6.553 -1.3936 -2.7998  0.0188
 1022MOL0     H40983   5.889   5.416   6.698  1.7995  1.0874  2.0933
 1022MOL0     H40984   5.969   5.582   6.688  2.5608  0.8902  0.5961
 1022MOL0     H40985   5.839   5.685   6.492  0.5677 -0.4460  2.3962
 1022MOL0     H40986   5.821   5.600   6.111  3.1339  1.1427  0.5043
 1022MOL0     H40987   5.819   5.740   6.221 -0.1711  0.1795 -0.4295
 1022MOL0     H40988   5.604   5.690   6.128  0.1345 -0.8615 -0.6050
 1022MOL0     H40989   5.602   5.525   6.209 -0.9005  0.8053  2.0303
 1022MOL0     H40990   5.597   5.624   6.426 -3.3322  0.0658  1.0041
 1022MOL0     H40991   5.637   5.792   6.368  2.1636 -0.4464  1.6045
 1022MOL0     H40992   5.393   5.640   6.308 -1.6206  0.3697  2.4070
 1022MOL0     H40993   5.403   5.769   6.426  0.6693 -1.8204  0.8711
 1022MOL0     H40994   5.364   5.916   6.012 -0.7304 -1.9162  0.4551
 1022MOL0     H40995   5.092   6.146   5.893 -1.3685 -0.2287  1.9242
 1022MOL0     H40996   5.087   5.989   5.850 -0.4927  0.8446  1.3382
 1022MOL0     H40997   5.248   6.080   5.860 -0.6285  2.7430 -0.1802
 1022MOL0     H40998   4.684   6.206   6.195  1.6871 -2.4629 -0.1870
 1022MOL0     H40999   4.447   6.229   6.102  1.2572  1.3475  1.5704
 1022MOL0     H41000   4.253   6.279   5.984  2.2241 -1.4123  0.1917
 1022MOL0     H41001   4.339   6.406   5.879  0.3522 -0.4910 -3.7534
 1022MOL0     H41002   4.220   6.283   5.697  0.4536 -0.6976  0.3842
 1022MOL0     H41003   4.110   6.217   5.828  0.9656  1.0328  2.9858
 1022MOL0     H41004   4.166   6.524   5.738 -0.7273  1.3742  0.2165
 1022MOL0     H41005   4.067   6.477   5.869  0.9625 -1.4855  0.0596
 1022MOL0     H41006   3.925   6.354   5.657 -0.2166 -0.6349 -0.3420
 1022MOL0     H41007   4.003   6.490   5.579  0.8526  2.2800  2.8380
 1022MOL0     H41008   3.823   6.525   5.811 -1.5760 -0.8179 -0.4860
 1022MOL0     H41009   3.914   6.663   5.735 -2.0739 -0.7659  0.9924
 1022MOL0     H41010   3.720   6.476   5.602  1.0985 -0.2385  1.1172
 1022MOL0     H41011   3.802   6.619   5.538  3.4390  0.4578  1.9335
 1022MOL0     H41012   3.709   6.756   5.706  2.3737 -1.8408  0.8511
 1022MOL0     H41013   3.588   6.630   5.754 -0.0442 -1.3507  0.5942
 1022MOL0     H41014   3.501   6.626   5.524  0.6326  0.4918  0.5975
 1022MOL0     H41015   3.621   6.734   5.472  2.4999 -2.6357 -0.1413
 1022MOL0     H41016   4.613   6.130   5.720  0.4968  1.2621  0.3811
 1022MOL0     H41017   4.831   6.095   5.816 -1.3717 -1.4118 -0.4406
 1022MOL0     H41018   5.043   6.029   6.371  0.0882  1.3360  0.2657
 1022MOL0     H41019   5.247   5.901   6.418  1.6909  1.4079  0.4300
 1022MOL0     H41020   7.054   5.592   6.687  0.5133  1.1276  0.8054
 1022MOL0     H41021   7.165   5.588   6.471  0.3824  1.0545 -4.8781
 1022MOL0     H41022   7.060   5.837   6.043  0.6240  1.8382 -0.3777
 1022MOL0     H41023   7.136   5.919   5.835  1.0465  0.0698  0.1133
 1022MOL0     H41024   7.545   5.785   5.636  0.0908 -1.0256 -1.3242
 1022MOL0     H41025   7.422   5.661   5.619 -0.6300  0.2937  0.0745
 1022MOL0     H41026   7.424   5.921   5.450 -1.0882  0.5704  1.7142
 1022MOL0     H41027   7.322   5.778   5.432 -0.4037  0.8203  0.9533
 1022MOL0     H41028   7.632   5.771   5.419  0.1619 -0.5926  0.4019
 1022MOL0     H41029   7.527   5.660   5.351  0.1072  0.3129 -3.4844
 1022MOL0     H41030   7.479   5.828   5.172  2.1093 -0.8970 -1.3212
 1022MOL0     H41031   7.650   5.784   5.185 -0.6693  1.0527 -1.8949
 1022MOL0     H41032   7.637   6.199   5.236  1.5736  0.5079 -1.7258
 1022MOL0     H41033   7.425   5.615   5.803 -0.4536 -0.1413 -2.0734
 1022MOL0     H41034   7.447   5.513   6.143 -0.6942 -1.8539  0.0057
 1022MOL0     H41035   7.354   5.395   6.061  3.2196 -1.4842  2.2631
 1022MOL0     H41036   7.483   5.470   5.973 -0.4385  2.1240 -1.2394
 1023MOL0     O41037  10.452   4.516   9.104  0.1634  0.4342  0.0609
 1023MOL0     C41038  10.473   4.589   9.197  0.6724  1.0068 -0.4263
 1023MOL0     O41039  10.376   4.670   9.256  0.0623  0.3847 -0.0235
 1023MOL0     C41040  10.245   4.639   9.240  0.3340  0.2622  0.6121
 1023MOL0     C41041  10.190   4.515   9.271 -0.0546  0.6666  0.5987
 1023MOL0     C41042  10.052   4.501   9.266 -0.0650  0.0029  0.2217
 1023MOL0     C41043   9.967   4.610   9.235  0.5977  0.2795  0.7127
 1023MOL0     O41044   9.835   4.568   9.233  0.8951 -0.4399  0.0653
 1023MOL0     C41045   9.750   4.662   9.161  0.0038  0.2490 -0.2940
 1023MOL0     C41046   9.599   4.612   9.158  0.1228 -0.0681 -0.5754
 1023MOL0     C41047   9.485   4.706   9.131 -0.2649  0.5545  1.1872
 1023MOL0     C41048   9.512   4.812   9.024  0.0410  0.2098  0.0596
 1023MOL0     C41049   9.388   4.894   8.987  0.3391  0.6576 -0.0766
 1023MOL0     C41050   9.422   4.978   8.867  0.0974 -0.3103  0.9144
 1023MOL0     C41051   9.284   5.043   8.822 -0.0724 -0.1858 -1.1974
 1023MOL0     C41052   9.303   5.100   8.680 -0.0911 -0.1061  0.7155
 1023MOL0     N41053   9.192   5.202   8.661 -0.6580 -0.5063  0.0008
 1023MOL0     C41054   9.059   5.171   8.626 -1.5835 -0.4359 -0.4835
 1023MOL0     C41055   8.988   5.286   8.652  0.2412 -0.7151 -0.6298
 1023MOL0     C41056   8.833   5.294   8.630  0.9858 -0.0819  0.4921
 1023MOL0     C41057   8.754   5.168   8.692  0.7291  0.3017 -0.3031
 1023MOL0     C41058   8.602   5.191   8.673 -0.0884 -0.1469  0.5249
 1023MOL0     C41059   8.544   5.288   8.778 -0.6849  0.1267  0.6542
 1023MOL0     O41060   8.404   5.246   8.798 -0.3963  0.0975 -0.4786
 1023MOL0     C41061   8.319   5.317   8.875 -0.0744 -0.3480 -0.1009
 1023MOL0     C41062   8.361   5.414   8.962  0.1790 -0.7666 -0.5099
 1023MOL0     C41063   8.275   5.496   9.036 -0.8360 -0.4046 -0.3273
 1023MOL0     C41064   8.340   5.591   9.132  0.1170  0.6634 -0.3490
 1023MOL0     C41065   8.134   5.481   9.017  0.3398  0.5956 -0.2268
 1023MOL0     C41066   8.029   5.562   9.081 -0.6158  0.3218 -0.0510
 1023MOL0     O41067   7.903   5.511   9.092 -0.3159 -0.1531 -0.4481
 1023MOL0     C41068   7.818   5.594   9.155  0.6526 -0.3009  0.0973
 1023MOL0     C41069   7.738   5.692   9.079  0.3556  0.4190 -0.5948
 1023MOL0     C41070   7.658   5.784   9.156  0.2127 -0.4198  0.6029
 1023MOL0     C41071   7.645   5.779   9.294  0.7716 -0.3638 -0.0490
 1023MOL0     O41072   7.566   5.861   9.376 -0.2627  0.2526  0.7202
 1023MOL0     C41073   7.431   5.876   9.322  0.4696 -0.0583 -0.7138
 1023MOL0     C41074   7.340   5.786   9.404  1.2851  0.2041  0.1001
 1023MOL0     C41075   7.365   5.630   9.383 -0.1510  0.1179 -0.2125
 1023MOL0     C41076   7.283   5.536   9.476 -0.4139  0.4106 -0.9030
 1023MOL0     C41077   7.334   5.546   9.627  0.9425 -0.2027  0.2410
 1023MOL0     C41078   7.278   5.432   9.714  0.8003 -0.3508  0.7590
 1023MOL0     C41079   7.142   5.474   9.762  0.1959 -0.7205 -0.5538
 1023MOL0     C41080   7.086   5.368   9.863  0.5729 -0.3195  0.3758
 1023MOL0    Cl41081   6.911   5.397   9.898 -0.3325 -0.2972  0.1636
 1023MOL0     C41082   7.731   5.689   9.351 -0.0388 -0.3806 -0.1305
 1023MOL0     C41083   7.821   5.605   9.290  0.1687 -0.0706 -0.1132
 1023MOL0     O41084   8.055   5.681   9.098  0.6666 -0.7630 -0.6238
 1023MOL0     C41085   8.098   5.369   8.944 -0.1630  0.9051  0.2822
 1023MOL0     C41086   8.188   5.286   8.879  0.1455  0.3405  0.4901
 1023MOL0     N41087   9.070   5.385   8.712 -0.1853  0.3243  0.1001
 1023MOL0     N41088   9.193   5.335   8.713  0.7800  0.7759  0.5635
 1023MOL0     C41089  10.023   4.734   9.218 -0.7496 -0.2781  0.1326
 1023MOL0     C41090  10.162   4.749   9.210 -0.3583  0.3259  0.0155
 1023MOL0     C41091  10.610   4.603   9.257  0.2085  0.5947  0.3286
 1023MOL0     C41092  10.633   4.705   9.349  0.4452 -0.7366  0.0000
 1023MOL0     C41093  10.758   4.738   9.403  0.8083  0.3293  0.9282
 1023MOL0     C41094  10.868   4.664   9.365  0.5468 -0.3545  0.3462
 1023MOL0     O41095  10.995   4.713   9.401  0.6081  1.0213  0.9379
 1023MOL0     C41096  11.066   4.625   9.484 -0.0561  0.4865  0.1911
 1023MOL0     C41097  11.213   4.613   9.421 -0.2217 -0.2693 -0.2905
 1023MOL0     C41098  11.281   4.500   9.502  0.0326  1.3573  0.0698
 1023MOL0     C41099  11.418   4.455   9.448  0.2271 -0.3845 -0.6051
 1023MOL0     C41100  11.518   4.557   9.471 -0.2469 -0.5511  0.6247
 1023MOL0     C41101  11.618   4.625   9.465 -0.3008  0.4126 -0.2863
 1023MOL0     C41102  10.857   4.555   9.282  0.9869  0.4264 -0.1403
 1023MOL0     C41103  10.724   4.521   9.230 -0.2611  0.8918  0.8973
 1023MOL0     C41104  10.719   4.392   9.158 -0.1561 -0.2643 -0.9233
 1023MOL0     H41105  10.259   4.434   9.292  0.7795  1.4445  0.9464
 1023MOL0     H41106  10.020   4.398   9.276  1.8007 -0.7149 -0.6944
 1023MOL0     H41107   9.780   4.676   9.057 -2.2376  2.7672 -0.7084
 1023MOL0     H41108   9.747   4.761   9.209  1.8859 -0.3198  1.1537
 1023MOL0     H41109   9.607   4.541   9.075  0.4825  0.7767 -1.2795
 1023MOL0     H41110   9.573   4.559   9.250 -0.6408  0.8347 -0.2634
 1023MOL0     H41111   9.402   4.644   9.096 -0.4361  2.2423 -1.6213
 1023MOL0     H41112   9.454   4.755   9.224  1.1027  2.0230  0.9017
 1023MOL0     H41113   9.585   4.887   9.058 -0.2140  0.0601  0.9596
 1023MOL0     H41114   9.540   4.752   8.937 -1.3551  1.3734 -1.2497
 1023MOL0     H41115   9.353   4.959   9.068  0.6661  2.8707 -1.5979
 1023MOL0     H41116   9.307   4.825   8.961 -0.4502  1.4408  0.2206
 1023MOL0     H41117   9.498   5.055   8.882  0.7366 -1.1336  2.0423
 1023MOL0     H41118   9.454   4.913   8.785  0.4644 -2.9789  3.0387
 1023MOL0     H41119   9.261   5.118   8.899 -1.9588 -0.3499 -1.5595
 1023MOL0     H41120   9.203   4.970   8.821 -1.0954  0.8594  0.4367
 1023MOL0     H41121   9.403   5.143   8.670  0.1014 -0.8128 -0.7700
 1023MOL0     H41122   9.304   5.018   8.607  1.5469  0.6594 -0.1789
 1023MOL0     H41123   9.019   5.082   8.579 -1.0825 -0.7731 -0.2792
 1023MOL0     H41124   8.796   5.309   8.528 -1.7282 -0.4792  1.3453
 1023MOL0     H41125   8.802   5.388   8.678 -0.4935 -2.5182  4.7941
 1023MOL0     H41126   8.786   5.082   8.634  0.7891  0.3085 -0.2808
 1023MOL0     H41127   8.776   5.132   8.793  0.2426 -0.0409 -0.3174
 1023MOL0     H41128   8.595   5.228   8.570  2.7758 -1.0396 -0.0812
 1023MOL0     H41129   8.558   5.091   8.670  0.6196 -0.4836  1.0216
 1023MOL0     H41130   8.601   5.285   8.871  0.5448 -0.2585 -0.0880
 1023MOL0     H41131   8.550   5.395   8.754 -1.7302 -0.1734 -1.0740
 1023MOL0     H41132   8.467   5.434   8.974 -0.1557  2.3341 -1.7713
 1023MOL0     H41133   8.292   5.565   9.227 -0.1988 -1.9984 -1.1588
 1023MOL0     H41134   8.296   5.687   9.104  0.0978  1.0880  1.1008
 1023MOL0     H41135   8.448   5.590   9.144 -0.2186  0.2239  4.4541
 1023MOL0     H41136   7.737   5.705   8.971 -2.7003 -0.0726 -0.7166
 1023MOL0     H41137   7.614   5.865   9.099  0.9490 -0.6983 -0.3981
 1023MOL0     H41138   7.413   5.982   9.340 -1.9431 -0.4638 -0.4226
 1023MOL0     H41139   7.419   5.855   9.215  0.2253  0.6424 -0.8255
 1023MOL0     H41140   7.326   5.816   9.509  0.6750 -2.4180  0.8369
 1023MOL0     H41141   7.237   5.802   9.369  0.7151 -0.8423  1.2115
 1023MOL0     H41142   7.472   5.610   9.393 -0.3095 -0.2486  0.8321
 1023MOL0     H41143   7.342   5.610   9.277 -0.3394 -0.2060 -0.1118
 1023MOL0     H41144   7.275   5.435   9.434  2.6836  0.3412 -1.6234
 1023MOL0     H41145   7.177   5.562   9.475 -1.1095 -1.9308 -4.5155
 1023MOL0     H41146   7.443   5.546   9.622  0.9100 -0.2517 -0.9823
 1023MOL0     H41147   7.304   5.644   9.667  0.4095  0.5645 -1.8874
 1023MOL0     H41148   7.329   5.424   9.810 -4.7208 -4.3308  3.8920
 1023MOL0     H41149   7.276   5.332   9.671 -1.9389  0.8815 -2.4566
 1023MOL0     H41150   7.078   5.485   9.674 -0.8577  0.8753  0.3491
 1023MOL0     H41151   7.153   5.572   9.810  0.3540 -0.5929 -0.8489
 1023MOL0     H41152   7.143   5.359   9.956  1.6043  1.7405  0.0190
 1023MOL0     H41153   7.092   5.272   9.812 -0.3478  1.0169 -2.4739
 1023MOL0     H41154   7.714   5.685   9.458 -2.3076 -2.0158 -0.4798
 1023MOL0     H41155   7.886   5.546   9.353 -0.4458 -0.1324  0.4831
 1023MOL0     H41156   7.992   5.350   8.933 -0.0704 -0.0687  0.9914
 1023MOL0     H41157   8.159   5.203   8.814  3.8207  1.6960 -3.3347
 1023MOL0     H41158   9.958   4.819   9.200  1.3942  1.9038  1.9774
 1023MOL0     H41159  10.218   4.841   9.195  0.8770 -0.4241 -0.1018
 1023MOL0     H41160  10.551   4.774   9.367  0.6385  0.4066 -3.0532
 1023MOL0     H41161  10.759   4.818   9.477  2.6646  0.5373  0.7196
 1023MOL0     H41162  11.058   4.672   9.583  0.9593  0.1780  0.4280
 1023MOL0     H41163  11.024   4.526   9.502 -0.3038  0.9993  3.0508
 1023MOL0     H41164  11.261   4.710   9.440 -1.2396 -0.0981  1.6565
 1023MOL0     H41165  11.217   4.591   9.314  1.7934 -1.6096  0.0045
 1023MOL0     H41166  11.283   4.520   9.610 -1.9033 -1.5470  0.7622
 1023MOL0     H41167  11.217   4.413   9.484 -0.6598  1.2856  2.4753
 1023MOL0     H41168  11.415   4.431   9.342 -0.8801  0.2417 -0.7257
 1023MOL0     H41169  11.444   4.368   9.510 -0.8604  0.1593  0.6608
 1023MOL0     H41170  11.710   4.680   9.465 -0.2790  0.3838 -0.9422
 1023MOL0     H41171  10.945   4.498   9.254  1.6702  1.0554  0.6835
 1023MOL0     H41172  10.795   4.330   9.207 -0.1104  1.8808  1.9969
 1023MOL0     H41173  10.624   4.338   9.167  0.2543 -0.6207  4.1049
 1023MOL0     H41174  10.735   4.405   9.051 -0.0087  0.4952 -0.8171
 1024MOL0     O41175   1.167   4.638   1.664 -0.4737  0.9307 -0.2750
 1024MOL0     C41176   1.247   4.645   1.753  0.8556  0.3298 -0.3509
 1024MOL0     O41177   1.322   4.536   1.795  0.4166  0.1130  0.0737
 1024MOL0     C41178   1.329   4.424   1.721  0.2786  0.4388  0.2146
 1024MOL0     C41179   1.255   4.315   1.763 -0.6299 -0.0255 -1.2910
 1024MOL0     C41180   1.271   4.193   1.701  1.0350  0.2041 -0.4374
 1024MOL0     C41181   1.363   4.178   1.605 -0.4568  0.6374  0.4721
 1024MOL0     O41182   1.382   4.050   1.566  0.4580 -0.2857 -0.0679
 1024MOL0     C41183   1.503   4.018   1.499  0.8684 -0.3469 -0.5036
 1024MOL0     C41184   1.502   3.871   1.501 -0.7974  0.0091  0.4946
 1024MOL0     C41185   1.576   3.813   1.374  0.1228  0.3473 -0.9806
 1024MOL0     C41186   1.725   3.835   1.396  0.4789  0.6311 -0.1656
 1024MOL0     C41187   1.808   3.864   1.262  0.4659  0.1683  0.8044
 1024MOL0     C41188   1.802   3.744   1.165  0.3330 -0.0444 -0.2972
 1024MOL0     C41189   1.842   3.603   1.222 -0.2081 -0.5974 -0.2649
 1024MOL0     C41190   1.812   3.507   1.119 -0.2935  0.1566 -0.2134
 1024MOL0     N41191   1.840   3.365   1.157 -0.2843  0.4689 -0.0958
 1024MOL0     C41192   1.802   3.257   1.077 -0.0509 -0.4134 -0.1772
 1024MOL0     C41193   1.834   3.145   1.147 -0.3544 -0.1618  0.3623
 1024MOL0     C41194   1.808   2.997   1.108 -1.2929  0.2364  0.5175
 1024MOL0     C41195   1.671   2.945   1.145 -0.7190  0.4693  0.3591
 1024MOL0     C41196   1.636   2.985   1.290  0.2173 -0.3300  0.0911
 1024MOL0     C41197   1.495   2.930   1.323  0.2726  0.0956 -0.7150
 1024MOL0     O41198   1.455   2.952   1.459  0.4689 -0.5045 -0.3552
 1024MOL0     C41199   1.497   3.068   1.523  0.8451  0.1099  0.0978
 1024MOL0     C41200   1.444   3.195   1.494  0.5190  0.1885 -0.3663
 1024MOL0     C41201   1.498   3.314   1.549 -0.7989 -0.5661 -0.0194
 1024MOL0     C41202   1.432   3.449   1.506  0.4622 -0.0723  0.4933
 1024MOL0     C41203   1.617   3.299   1.628 -0.7177 -0.2145  0.1927
 1024MOL0     C41204   1.694   3.415   1.678  0.2160  1.5781 -0.2486
 1024MOL0     O41205   1.803   3.391   1.756 -0.3578  0.1256 -0.1518
 1024MOL0     C41206   1.906   3.483   1.759  0.3495 -1.3033 -0.7000
 1024MOL0     C41207   1.931   3.544   1.883  0.1761 -0.3198 -0.4933
 1024MOL0     C41208   2.035   3.634   1.901 -0.3362 -0.5710  0.9144
 1024MOL0     C41209   2.124   3.658   1.796  0.0301 -0.2103  0.7905
 1024MOL0     O41210   2.232   3.739   1.829  0.4194 -0.2891 -0.0904
 1024MOL0     C41211   2.352   3.718   1.746 -0.3422  0.4737  0.0671
 1024MOL0     C41212   2.483   3.773   1.810  0.8850 -0.2180  0.1906
 1024MOL0     C41213   2.600   3.738   1.705  0.7643 -0.8580 -0.2042
 1024MOL0     C41214   2.694   3.645   1.775 -1.2096  0.1427 -0.3322
 1024MOL0     C41215   2.835   3.627   1.711  0.5757  0.1589 -0.2631
 1024MOL0     C41216   2.842   3.604   1.561  0.6581  0.4755 -0.6757
 1024MOL0     C41217   2.984   3.565   1.518 -0.2279 -0.1133  0.1728
 1024MOL0     C41218   3.012   3.418   1.535  0.4654  0.8582  0.5585
 1024MOL0    Cl41219   3.059   3.372   1.702  0.1773 -0.3264  0.0497
 1024MOL0     C41220   2.105   3.585   1.674  0.8058  0.0825  0.9649
 1024MOL0     C41221   2.001   3.498   1.654 -0.4193 -0.2265  0.2789
 1024MOL0     O41222   1.666   3.524   1.642 -0.3663 -0.9536  0.9424
 1024MOL0     C41223   1.675   3.173   1.652  0.5301 -0.7537 -0.4227
 1024MOL0     C41224   1.618   3.055   1.601  0.1567 -0.0106 -0.2424
 1024MOL0     N41225   1.887   3.191   1.271  0.1860  0.4385 -0.7961
 1024MOL0     N41226   1.903   3.320   1.275  0.1265 -0.1716  0.2598
 1024MOL0     C41227   1.434   4.292   1.547  0.7531  0.6475  0.5977
 1024MOL0     C41228   1.422   4.413   1.612  0.6616 -0.7350 -0.4101
 1024MOL0     C41229   1.266   4.778   1.814  0.7587 -0.1196 -0.1459
 1024MOL0     C41230   1.167   4.875   1.822  0.1091  0.0673  1.0270
 1024MOL0     C41231   1.182   4.992   1.892 -0.1722  0.4617  0.4308
 1024MOL0     C41232   1.301   5.027   1.958 -0.4928 -0.6825  0.3030
 1024MOL0     O41233   1.305   5.144   2.026 -0.3322 -0.4296 -0.2481
 1024MOL0     C41234   1.342   5.119   2.170  0.1115 -0.4972  0.2575
 1024MOL0     C41235   1.409   5.251   2.223  0.2129 -0.7425  0.0602
 1024MOL0     C41236   1.327   5.365   2.296  0.3159 -0.2323  0.4402
 1024MOL0     C41237   1.250   5.460   2.197  0.4421  0.5049 -0.2908
 1024MOL0     C41238   1.178   5.563   2.273 -0.4719 -0.1510 -0.1437
 1024MOL0     C41239   1.128   5.657   2.329 -0.5645 -0.3688 -0.0433
 1024MOL0     C41240   1.407   4.944   1.934 -0.3802  0.2013 -0.1546
 1024MOL0     C41241   1.395   4.820   1.866 -0.1862 -0.0930  0.3312
 1024MOL0     C41242   1.521   4.742   1.845  0.8496  0.4641  0.8554
 1024MOL0     H41243   1.188   4.331   1.846  0.6229 -3.5520  0.6113
 1024MOL0     H41244   1.216   4.111   1.746 -1.6297  0.8110 -2.3988
 1024MOL0     H41245   1.592   4.059   1.548  1.0983 -0.4189 -0.8545
 1024MOL0     H41246   1.503   4.052   1.395  4.3297  2.0464  0.0668
 1024MOL0     H41247   1.553   3.837   1.592 -0.4704  0.7425  0.5978
 1024MOL0     H41248   1.407   3.822   1.483  0.2849 -2.7191  1.6267
 1024MOL0     H41249   1.555   3.706   1.368 -0.4251  0.2959  1.2233
 1024MOL0     H41250   1.551   3.853   1.275  3.5612 -0.1302 -2.1890
 1024MOL0     H41251   1.751   3.910   1.472 -1.0732  1.2376 -0.1888
 1024MOL0     H41252   1.749   3.742   1.447 -1.8585  1.0028  1.8568
 1024MOL0     H41253   1.914   3.874   1.285  0.3030  0.3420  1.5049
 1024MOL0     H41254   1.770   3.955   1.216 -0.5409  0.2072  1.6827
 1024MOL0     H41255   1.695   3.729   1.145  0.0135  1.2459  0.3322
 1024MOL0     H41256   1.848   3.766   1.068  1.7527  2.1113  0.7793
 1024MOL0     H41257   1.775   3.585   1.307 -0.4020 -1.7211 -0.6467
 1024MOL0     H41258   1.948   3.601   1.248 -0.2025  0.9349 -0.0834
 1024MOL0     H41259   1.704   3.499   1.104 -0.4422 -3.1664  1.5555
 1024MOL0     H41260   1.859   3.539   1.026  0.4347 -2.0613 -0.6797
 1024MOL0     H41261   1.763   3.261   0.975  0.9789  3.5211 -0.5620
 1024MOL0     H41262   1.879   2.929   1.157 -1.3665 -0.2944 -0.1002
 1024MOL0     H41263   1.812   2.983   0.999 -0.8831 -3.3886  0.8882
 1024MOL0     H41264   1.591   2.987   1.083 -1.7894 -0.4749  1.0584
 1024MOL0     H41265   1.670   2.836   1.144  0.6865  0.4374 -0.7387
 1024MOL0     H41266   1.720   2.949   1.349  1.3248  3.3919  1.0711
 1024MOL0     H41267   1.629   3.094   1.298 -0.7996 -0.4812  1.6859
 1024MOL0     H41268   1.415   2.962   1.255  0.6017  0.0132 -1.1497
 1024MOL0     H41269   1.509   2.821   1.314 -0.2589 -0.0223 -0.1374
 1024MOL0     H41270   1.352   3.207   1.438 -0.2738 -0.6477  0.7198
 1024MOL0     H41271   1.485   3.482   1.415 -0.6384 -1.9941 -0.9233
 1024MOL0     H41272   1.433   3.532   1.577  4.4653  1.5111 -1.1047
 1024MOL0     H41273   1.330   3.423   1.476  1.3330 -1.5160 -1.4854
 1024MOL0     H41274   1.853   3.542   1.959  1.5534  1.9641  1.1272
 1024MOL0     H41275   2.049   3.697   1.988  0.7755 -0.6503  0.8150
 1024MOL0     H41276   2.364   3.611   1.723 -0.5659  0.4852 -0.1087
 1024MOL0     H41277   2.340   3.777   1.655 -0.1885  0.5603  0.1018
 1024MOL0     H41278   2.478   3.880   1.831 -1.0913 -0.2263 -0.1163
 1024MOL0     H41279   2.498   3.731   1.910 -0.6310  0.4318  0.7190
 1024MOL0     H41280   2.647   3.832   1.676  1.0200 -1.4940 -1.9672
 1024MOL0     H41281   2.556   3.691   1.616 -0.9280 -0.0315  0.1422
 1024MOL0     H41282   2.650   3.546   1.792 -0.2952 -0.3999 -1.0408
 1024MOL0     H41283   2.710   3.694   1.871  1.9425  1.1982 -1.2583
 1024MOL0     H41284   2.894   3.716   1.738  2.4189 -1.3041  0.8309
 1024MOL0     H41285   2.881   3.546   1.769 -1.4348  0.8666  2.5528
 1024MOL0     H41286   2.836   3.706   1.521  1.4672  0.1945 -1.5624
 1024MOL0     H41287   2.761   3.543   1.519 -1.2826  1.2662  1.6940
 1024MOL0     H41288   3.059   3.611   1.583 -0.9180  0.0958  0.8298
 1024MOL0     H41289   3.006   3.594   1.415  1.1958 -0.6874  0.2960
 1024MOL0     H41290   3.094   3.390   1.469 -0.2064  0.0639  0.0390
 1024MOL0     H41291   2.922   3.360   1.513  0.4776  1.0928 -0.1660
 1024MOL0     H41292   2.172   3.615   1.594 -2.2382  1.6444 -1.1652
 1024MOL0     H41293   1.991   3.442   1.562 -1.0608 -1.4457  1.0754
 1024MOL0     H41294   1.769   3.154   1.702  1.8546  0.3143 -2.3694
 1024MOL0     H41295   1.662   2.958   1.623  2.2705  0.8933 -0.2781
 1024MOL0     H41296   1.512   4.277   1.474  0.6887  1.3617  0.3802
 1024MOL0     H41297   1.487   4.490   1.572  0.2837 -1.6264 -2.9018
 1024MOL0     H41298   1.071   4.868   1.771  1.6722 -0.4486 -2.0650
 1024MOL0     H41299   1.099   5.062   1.878 -1.4871 -1.5781 -3.6872
 1024MOL0     H41300   1.251   5.095   2.225 -0.6322 -1.5380 -1.3524
 1024MOL0     H41301   1.410   5.036   2.193  1.9225  0.7280 -0.4392
 1024MOL0     H41302   1.466   5.294   2.140 -0.4271  1.6540  0.8083
 1024MOL0     H41303   1.469   5.215   2.307 -0.9820 -0.5545  1.0186
 1024MOL0     H41304   1.254   5.316   2.362 -0.9398 -2.9817 -2.6891
 1024MOL0     H41305   1.392   5.432   2.352 -0.8432  1.7623 -0.4956
 1024MOL0     H41306   1.176   5.407   2.136 -0.1137 -0.1480  0.9063
 1024MOL0     H41307   1.316   5.510   2.126 -1.4149  2.7713 -0.5429
 1024MOL0     H41308   1.076   5.736   2.378  0.2362 -1.3540  2.5824
 1024MOL0     H41309   1.501   4.979   1.977 -0.1917 -1.5418  0.9942
 1024MOL0     H41310   1.518   4.669   1.763  0.0344  0.6449  0.7144
 1024MOL0     H41311   1.601   4.814   1.828 -0.3472  2.2320  2.2820
 1024MOL0     H41312   1.541   4.688   1.938  0.7766 -1.3734 -0.1442
  11.49693  11.49693  11.49693
